/*--------------------------------*- C++ -*----------------------------------*\
| =========                 |                                                 |
| \\      /  F ield         | OpenFOAM: The Open Source CFD Toolbox           |
|  \\    /   O peration     | Version:  v1912                                 |
|   \\  /    A nd           | Website:  www.openfoam.com                      |
|    \\/     M anipulation  |                                                 |
\*---------------------------------------------------------------------------*/
FoamFile
{
    version     2.0;
    format      ascii;
    class       volVectorField;
    location    "8.86";
    object      grad(T);
}
// * * * * * * * * * * * * * * * * * * * * * * * * * * * * * * * * * * * * * //

dimensions      [0 -1 0 1 0 0 0];


internalField   nonuniform List<vector> 
1900
(
(0.313959 1.44811e-06 0)
(0.209423 1.09947e-06 0)
(-0.523732 -8.99406e-06 0)
(-0.466381 -2.52941e-05 0)
(-0.195555 -3.30003e-06 0)
(-0.0287495 4.05856e-06 0)
(0.0316358 0.000118554 0)
(0.0606876 0.000477374 0)
(0.0647018 0.00200236 0)
(0.0716124 -0.000163213 0)
(0.313962 3.31137e-06 0)
(0.209412 1.16487e-06 0)
(-0.523759 -1.70077e-05 0)
(-0.466375 -4.25834e-05 0)
(-0.195525 2.77334e-05 0)
(-0.0286277 0.00011562 0)
(0.0321091 0.000251176 0)
(0.0625714 0.000134149 0)
(0.0640613 1.18481e-05 0)
(0.0395266 -0.00356233 0)
(0.313964 -1.73472e-13 0)
(0.209403 -4.4886e-13 0)
(-0.523776 -4.68375e-13 0)
(-0.466336 -5.7788e-13 0)
(-0.195396 -4.87891e-13 0)
(-0.0285261 -2.00577e-13 0)
(0.0316543 1.73472e-14 0)
(0.0604483 3.36103e-14 0)
(0.0610054 -3.46945e-14 0)
(0.0353422 -5.31259e-14 0)
(0.313962 -3.31137e-06 0)
(0.209412 -1.16488e-06 0)
(-0.523759 1.70077e-05 0)
(-0.466375 4.25834e-05 0)
(-0.195525 -2.77334e-05 0)
(-0.0286277 -0.00011562 0)
(0.0321091 -0.000251176 0)
(0.0625714 -0.000134149 0)
(0.0640613 -1.18481e-05 0)
(0.0395266 0.00356233 0)
(0.313959 -1.44811e-06 0)
(0.209423 -1.09947e-06 0)
(-0.523732 8.99406e-06 0)
(-0.466381 2.52941e-05 0)
(-0.195555 3.30003e-06 0)
(-0.0287495 -4.05856e-06 0)
(0.0316358 -0.000118554 0)
(0.0606876 -0.000477374 0)
(0.0647018 -0.00200236 0)
(0.0716124 0.000163213 0)
(0.0244687 -0.0259122 9.41454e-16)
(-0.00607997 -0.0187338 -1.1304e-15)
(0.0989957 -0.0317842 -1.43536e-15)
(0.384438 -0.0607552 0)
(-0.510171 -0.321689 -6.4659e-15)
(0.00878084 -0.0319944 9.36772e-16)
(0.00409985 -0.0229029 1.1304e-15)
(0.0795364 -0.0389668 1.43536e-15)
(0.277364 -0.0640552 0)
(-0.444901 -0.352518 0)
(0.000109282 -6.28523e-14 0)
(-0.000280148 -1.04616e-13 0)
(0.0700574 -1.17455e-13 0)
(0.248264 -4.92819e-14 0)
(-0.575615 1.16165e-13 0)
(0.00878084 0.0319944 9.36772e-16)
(0.00409985 0.0229029 1.1304e-15)
(0.0795364 0.0389668 1.43536e-15)
(0.277364 0.0640552 0)
(-0.444901 0.352518 0)
(0.0244687 0.0259122 -2.815e-15)
(-0.00607997 0.0187338 -1.1304e-15)
(0.0989957 0.0317842 -1.43536e-15)
(0.384438 0.0607552 -3.95525e-15)
(-0.510171 0.321689 6.4659e-15)
(-1.87155 0.447305 2.19001e-15)
(-0.964309 0.312206 -1.58443e-15)
(-0.589876 0.217112 0)
(-0.416801 0.194558 1.01602e-15)
(-0.29811 0.0819801 -4.25803e-16)
(-1.66906 0.444971 -1.10174e-15)
(-1.00361 0.20421 7.96917e-16)
(-0.608024 0.113872 0)
(-0.457694 0.123908 -6.39607e-16)
(-0.287201 -0.0423986 1.06749e-16)
(-1.72181 1.14991e-13 0)
(-1.05927 1.20467e-13 0)
(-0.619799 8.03113e-15 0)
(-0.491649 7.79492e-14 2.57335e-16)
(-0.270527 3.96273e-14 -2.13498e-16)
(-1.66906 -0.444971 -1.10174e-15)
(-1.00361 -0.20421 7.96917e-16)
(-0.608024 -0.113872 0)
(-0.457694 -0.123908 -6.39607e-16)
(-0.287201 0.0423986 1.06749e-16)
(-1.87155 -0.447305 1.10174e-15)
(-0.964309 -0.312206 -9.40261e-18)
(-0.589876 -0.217112 0)
(-0.416801 -0.194558 5.85944e-18)
(-0.29811 -0.0819801 4.25803e-16)
(-0.175805 0.841965 0)
(-0.0999957 1.06425 0)
(-0.0711199 1.14811 0)
(-0.048254 1.07343 0)
(-0.0550363 0.970016 0)
(-0.0641434 0.860643 0)
(-0.0667679 0.754329 0)
(-0.0629047 0.657099 0)
(-0.0497186 0.571639 0)
(-0.048603 0.514427 0)
(-0.0634729 0.455472 0)
(-0.0347892 0.39924 0)
(0.0328706 0.365257 0)
(0.211033 0.367528 0)
(0.34514 0.396376 0)
(0.234704 0.385082 0)
(0.0950242 0.306462 0)
(0.0451511 0.248386 0)
(0.0527361 0.193924 0)
(0.0770866 0.124884 0)
(0.0478388 0.0612156 0)
(-0.0230922 0.0161326 0)
(-0.0995627 -0.0261073 0)
(-0.158104 -0.0572547 0)
(-0.152519 -0.0617572 0)
(-0.112373 -0.0529896 0)
(0.0562499 -0.0357165 0)
(0.0501174 -0.0105082 0)
(-0.224354 0.025048 0)
(-0.171494 0.00863066 0)
(0.028838 -0.000420818 0)
(0.0624835 -0.000194473 0)
(0.0748716 0.000216482 0)
(0.0794016 9.63336e-05 0)
(0.0596669 -0.000371413 0)
(0.0264667 -0.00116633 0)
(0.00201487 -0.00177445 0)
(-0.0071521 -0.00224601 0)
(-0.00638331 -0.00185349 0)
(-0.00226261 -0.00138713 0)
(-0.045714 0.235583 0)
(0.0170063 0.512294 0)
(-0.0449945 0.773357 0)
(-0.0789083 0.785482 0)
(-0.095367 0.726101 0)
(-0.100532 0.648359 0)
(-0.0970567 0.570561 0)
(-0.0894396 0.495662 0)
(-0.0711731 0.427636 0)
(-0.067077 0.382461 0)
(-0.0826607 0.335149 0)
(-0.0532193 0.284437 0)
(0.0235954 0.237871 0)
(0.21386 0.235465 0)
(0.34662 0.251295 0)
(0.221901 0.239477 0)
(0.0760513 0.188753 0)
(0.0306872 0.15119 0)
(0.036728 0.116683 0)
(0.0598948 0.0728901 0)
(0.0362112 0.025323 0)
(-0.0299159 0.00471268 0)
(-0.104802 0.000965864 0)
(-0.161213 -0.0013815 0)
(-0.153306 0.00239537 0)
(-0.112164 0.00937707 0)
(0.0571739 0.00925519 0)
(0.0544789 0.00368174 0)
(-0.222725 0.0130009 0)
(-0.17444 0.00316411 0)
(0.0278702 -0.000537146 0)
(0.0625458 -0.000384079 0)
(0.0749088 -0.000188035 0)
(0.0793677 -0.000203713 0)
(0.059589 -0.000325786 0)
(0.0263741 -0.000579022 0)
(0.00193002 -0.000986591 0)
(-0.00718411 -0.00139129 0)
(-0.00638973 -0.00141255 0)
(-0.00227568 -0.00157556 0)
(0.002377 8.87075e-14 0)
(0.0564477 1.79386e-13 0)
(0.00835289 -5.91383e-14 0)
(-0.0620014 -9.46213e-14 0)
(-0.0949265 -2.26697e-13 0)
(-0.109391 -3.17376e-13 0)
(-0.111189 -2.05013e-13 0)
(-0.104483 -3.27232e-13 0)
(-0.0826498 -3.62715e-13 0)
(-0.0755082 -2.75979e-13 0)
(-0.0919891 -2.6218e-13 0)
(-0.0630884 -3.706e-13 0)
(0.0186245 -3.19347e-13 0)
(0.214939 -3.33146e-13 0)
(0.346307 -3.13433e-13 0)
(0.21651 -5.91383e-15 0)
(0.0693407 1.18277e-14 0)
(0.0241855 -8.87075e-14 0)
(0.029958 1.77415e-13 0)
(0.0505091 -1.42523e-12 0)
(0.0280054 -5.70093e-12 0)
(-0.030178 2.75782e-12 0)
(-0.101336 2.53309e-12 0)
(-0.157688 -2.99634e-13 0)
(-0.149389 7.29372e-14 0)
(-0.110378 1.62039e-12 0)
(0.0545931 1.11771e-12 0)
(0.051207 1.67361e-12 0)
(-0.224504 5.85469e-13 0)
(-0.175432 -1.96142e-12 0)
(0.0278058 -8.89046e-13 0)
(0.0625851 -3.0949e-13 0)
(0.0749241 -7.29372e-14 0)
(0.0793616 -1.39961e-13 0)
(0.0595577 -1.20248e-13 0)
(0.0262744 -2.44438e-13 0)
(0.00177857 -3.0949e-13 0)
(-0.00727601 -4.08054e-13 0)
(-0.00643692 -2.72036e-13 0)
(-0.00231003 -1.95156e-13 0)
(-0.045714 -0.235583 0)
(0.0170063 -0.512294 0)
(-0.0449945 -0.773357 0)
(-0.0789083 -0.785482 0)
(-0.095367 -0.726101 0)
(-0.100532 -0.648359 0)
(-0.0970567 -0.570561 0)
(-0.0894396 -0.495662 0)
(-0.0711731 -0.427636 0)
(-0.067077 -0.382461 0)
(-0.0826607 -0.335149 0)
(-0.0532193 -0.284437 0)
(0.0235954 -0.237871 0)
(0.21386 -0.235465 0)
(0.34662 -0.251295 0)
(0.221901 -0.239477 0)
(0.0760513 -0.188753 0)
(0.0306872 -0.15119 0)
(0.036728 -0.116683 0)
(0.0598948 -0.0728901 0)
(0.0362112 -0.025323 0)
(-0.0299159 -0.00471268 0)
(-0.104802 -0.000965864 0)
(-0.161213 0.0013815 0)
(-0.153306 -0.00239537 0)
(-0.112164 -0.00937707 0)
(0.0571739 -0.00925519 0)
(0.0544789 -0.00368174 0)
(-0.222725 -0.0130009 0)
(-0.17444 -0.00316411 0)
(0.0278702 0.000537146 0)
(0.0625458 0.000384079 0)
(0.0749088 0.000188035 0)
(0.0793677 0.000203713 0)
(0.059589 0.000325786 0)
(0.0263741 0.000579022 0)
(0.00193002 0.000986591 0)
(-0.00718411 0.00139129 0)
(-0.00638973 0.00141255 0)
(-0.00227568 0.00157556 0)
(-0.175805 -0.841965 0)
(-0.0999957 -1.06425 0)
(-0.0711199 -1.14811 0)
(-0.048254 -1.07343 0)
(-0.0550363 -0.970016 0)
(-0.0641434 -0.860643 0)
(-0.0667679 -0.754329 0)
(-0.0629047 -0.657099 0)
(-0.0497186 -0.571639 0)
(-0.048603 -0.514427 0)
(-0.0634729 -0.455472 0)
(-0.0347892 -0.39924 0)
(0.0328706 -0.365257 0)
(0.211033 -0.367528 0)
(0.34514 -0.396376 0)
(0.234704 -0.385082 0)
(0.0950242 -0.306462 0)
(0.0451511 -0.248386 0)
(0.0527361 -0.193924 0)
(0.0770866 -0.124884 0)
(0.0478388 -0.0612156 0)
(-0.0230922 -0.0161326 0)
(-0.0995627 0.0261073 0)
(-0.158104 0.0572547 0)
(-0.152519 0.0617572 0)
(-0.112373 0.0529896 0)
(0.0562499 0.0357165 0)
(0.0501174 0.0105082 0)
(-0.224354 -0.025048 0)
(-0.171494 -0.00863066 0)
(0.028838 0.000420818 0)
(0.0624835 0.000194473 0)
(0.0748716 -0.000216482 0)
(0.0794016 -9.63336e-05 0)
(0.0596669 0.000371413 0)
(0.0264667 0.00116633 0)
(0.00201487 0.00177445 0)
(-0.0071521 0.00224601 0)
(-0.00638331 0.00185349 0)
(-0.00226261 0.00138713 0)
(-0.0187139 -0.943397 0)
(-0.0397473 -0.871234 0)
(-0.0205416 -0.813159 0)
(-0.00263809 -0.772106 0)
(-0.0085249 -0.730968 0)
(-0.00731082 -0.676136 0)
(-0.00440064 -0.610935 0)
(-0.00552459 -0.544322 0)
(-0.00648535 -0.482541 0)
(-0.0155686 -0.433086 0)
(-0.0325932 -0.392298 0)
(-0.0179402 -0.347809 0)
(0.032763 -0.33907 0)
(0.197609 -0.339492 0)
(0.33732 -0.369764 0)
(0.263499 -0.370476 0)
(0.13986 -0.30602 0)
(0.0845552 -0.251251 0)
(0.0956876 -0.195366 0)
(0.123261 -0.123884 0)
(0.0909838 -0.0573355 0)
(0.0169696 -0.0353461 0)
(-0.0648255 -0.0206906 0)
(-0.142445 -0.00423876 0)
(-0.156891 0.00825535 0)
(-0.128256 0.0124165 0)
(0.0315949 0.00715848 0)
(0.0214061 -0.0114434 0)
(-0.232848 -0.0397778 0)
(-0.161871 -0.0102725 0)
(0.032287 0.000309377 0)
(0.0622179 -0.000199841 0)
(0.0747694 -0.000865236 0)
(0.0796973 -0.000647345 0)
(0.060291 0.000104081 0)
(0.0271471 0.00135924 0)
(0.00250917 0.00225353 0)
(-0.00717155 0.00290282 0)
(-0.00693591 0.00202339 0)
(-0.00258332 0.000705273 0)
(-0.00190874 -0.368674 0)
(-0.00680134 -0.347777 0)
(-0.00271833 -0.317886 0)
(0.0064875 -0.31101 0)
(0.0125025 -0.30313 0)
(0.0210499 -0.293576 0)
(0.0268104 -0.287433 0)
(0.0300511 -0.279284 0)
(0.0342888 -0.267155 0)
(0.0206447 -0.255075 0)
(0.00214409 -0.237387 0)
(0.0074675 -0.211341 0)
(0.0409434 -0.205988 0)
(0.188654 -0.200863 0)
(0.319477 -0.208441 0)
(0.28069 -0.227423 0)
(0.185871 -0.202473 0)
(0.130652 -0.171581 0)
(0.15244 -0.135643 0)
(0.185338 -0.0804964 0)
(0.110022 -0.0432249 0)
(-0.00926231 -0.0601078 0)
(-0.0882136 -0.0812424 0)
(-0.138607 -0.0892008 0)
(-0.134125 -0.0685832 0)
(-0.104913 -0.0470532 0)
(0.0464784 -0.0343285 0)
(0.0202837 -0.0450943 0)
(-0.218671 -0.06122 0)
(-0.138025 -0.011691 0)
(0.0366949 -0.000516483 0)
(0.061494 -0.00148059 0)
(0.0744952 -0.0022488 0)
(0.0801772 -0.00180935 0)
(0.0612659 -0.000746792 0)
(0.028173 0.000747176 0)
(0.00323726 0.00172719 0)
(-0.00736345 0.00250364 0)
(-0.00820462 0.00162585 0)
(-0.00336082 0.000234405 0)
(0.00142269 -0.0568238 0)
(0.00919377 -0.05529 0)
(0.0148886 -0.0517586 0)
(0.0115813 -0.052868 0)
(0.00827573 -0.0550515 0)
(0.0078151 -0.0602039 0)
(0.00937124 -0.0717267 0)
(0.0140168 -0.0829658 0)
(0.0168438 -0.0937096 0)
(0.0131164 -0.112633 0)
(0.00955053 -0.111823 0)
(0.0123176 -0.0954679 0)
(0.04286 -0.0819156 0)
(0.195244 -0.0586271 0)
(0.311726 -0.0682493 0)
(0.26925 -0.109959 0)
(0.193671 -0.120667 0)
(0.148956 -0.109147 0)
(0.18346 -0.0800238 0)
(0.212318 -0.0393929 0)
(0.110631 -0.0429457 0)
(-0.0196654 -0.0581492 0)
(-0.0928605 -0.0659717 0)
(-0.130246 -0.0629357 0)
(-0.116276 -0.0430112 0)
(-0.0952468 -0.0289896 0)
(0.0334826 -0.0297079 0)
(-0.00450755 -0.064716 0)
(-0.200659 -0.0819607 0)
(-0.103374 -0.0133015 0)
(0.0421261 -0.00115189 0)
(0.0605486 -0.00263489 0)
(0.0744526 -0.00359597 0)
(0.0811447 -0.0031728 0)
(0.0627546 -0.00196198 0)
(0.0295312 -0.000226132 0)
(0.00420177 0.000924448 0)
(-0.0072692 0.00214374 0)
(-0.00912263 0.00172077 0)
(-0.00392417 0.000872439 0)
(-0.00043069 0.00506023 0)
(-0.00192032 0.00395543 0)
(-0.000384433 -0.00440275 0)
(0.00331434 -0.013179 0)
(0.00543342 -0.0172563 0)
(0.00498108 -0.0198841 0)
(0.00487616 -0.0251029 0)
(0.00886752 -0.0295463 0)
(0.00569998 -0.0375448 0)
(0.00319017 -0.0474533 0)
(0.0186855 -0.0435038 0)
(0.0362872 -0.0290107 0)
(0.0764445 -0.00995827 0)
(0.201823 0.0347886 0)
(0.270011 -0.00268749 0)
(0.230178 -0.0513774 0)
(0.186654 -0.0653804 0)
(0.169817 -0.0528814 0)
(0.219657 -0.0212488 0)
(0.221068 0.00398653 0)
(0.0919477 -0.0415229 0)
(-0.031451 -0.0616518 0)
(-0.0928261 -0.0756192 0)
(-0.116482 -0.0674295 0)
(-0.101413 -0.0471894 0)
(-0.0920938 -0.0389943 0)
(0.0120512 -0.0457311 0)
(-0.030069 -0.0913706 0)
(-0.169126 -0.0874049 0)
(-0.0601545 -0.00272723 0)
(0.0469737 0.00867966 0)
(0.0591388 0.00631153 0)
(0.0739768 0.0039266 0)
(0.0817518 0.00139399 0)
(0.0641054 -0.000773563 0)
(0.0309545 -0.000942457 0)
(0.00552095 -4.52546e-05 0)
(-0.00659608 0.00167476 0)
(-0.00942969 0.00185843 0)
(-0.0041783 0.00151945 0)
(0.00035806 0.030908 0)
(7.48917e-05 0.0313464 0)
(-0.00162276 0.0322484 0)
(-0.000804775 0.0285714 0)
(0.00181445 0.0261126 0)
(0.000253737 0.0221194 0)
(6.03425e-05 0.0190251 0)
(0.00202735 0.0158743 0)
(-0.000412007 0.00582401 0)
(0.00737405 0.00919386 0)
(0.0273225 0.0241786 0)
(0.0446434 0.0312964 0)
(0.104339 0.0517801 0)
(0.202251 0.0793513 0)
(0.228693 0.0268476 0)
(0.208837 0.00116553 0)
(0.192222 -0.00246966 0)
(0.191482 0.0108298 0)
(0.23826 0.048543 0)
(0.192781 0.0364252 0)
(0.0473794 -0.0428574 0)
(-0.0525218 -0.066204 0)
(-0.0984281 -0.0805924 0)
(-0.10285 -0.0656388 0)
(-0.0888744 -0.0438847 0)
(-0.0938416 -0.0380529 0)
(-0.0169891 -0.0472899 0)
(-0.0446659 -0.0911051 0)
(-0.115239 -0.0511111 0)
(-0.0107838 0.038747 0)
(0.0508362 0.0454722 0)
(0.0559684 0.0362402 0)
(0.0697138 0.0267081 0)
(0.0766154 0.018708 0)
(0.0605031 0.0124824 0)
(0.030233 0.00706961 0)
(0.00672381 0.00288186 0)
(-0.00543474 0.00154641 0)
(-0.00927229 0.00167941 0)
(-0.00425082 0.00167409 0)
(-8.15206e-06 0.0413446 0)
(-0.000628611 0.0411129 0)
(-0.0030586 0.0407017 0)
(-0.00259832 0.0402626 0)
(-0.000783954 0.0383308 0)
(-0.00184869 0.0336823 0)
(-0.00114176 0.0333082 0)
(-0.00385356 0.0325132 0)
(-0.000737587 0.0290756 0)
(0.0208773 0.0346553 0)
(0.0399843 0.0431702 0)
(0.0628851 0.0506617 0)
(0.122752 0.0805039 0)
(0.177797 0.085495 0)
(0.194668 0.0471342 0)
(0.201927 0.044585 0)
(0.195967 0.0338577 0)
(0.218975 0.0482631 0)
(0.244322 0.0868877 0)
(0.132991 0.0137359 0)
(-0.00694954 -0.0540604 0)
(-0.0678138 -0.0755997 0)
(-0.0922815 -0.0703474 0)
(-0.0811087 -0.036987 0)
(-0.0748305 -0.0109077 0)
(-0.0953752 2.98311e-06 0)
(-0.0390719 0.0167301 0)
(-0.0337512 0.0330727 0)
(-0.0439956 0.126279 0)
(0.0329167 0.187962 0)
(0.0445581 0.168425 0)
(0.041057 0.136988 0)
(0.0570821 0.10507 0)
(0.0680433 0.0754652 0)
(0.0528902 0.0492778 0)
(0.0217031 0.0288602 0)
(0.000198595 0.0180704 0)
(-0.0077548 0.00678491 0)
(-0.00930666 0.00244676 0)
(-0.00418343 0.00190894 0)
(0.000134757 0.0489195 0)
(-0.000544647 0.0489167 0)
(-0.00244206 0.0490017 0)
(-0.00308947 0.0506737 0)
(-0.00452666 0.0492745 0)
(-0.00458617 0.0469517 0)
(-0.00106619 0.0458273 0)
(-0.00205136 0.0455392 0)
(0.00165215 0.0497167 0)
(0.0209561 0.0561679 0)
(0.0427468 0.0600478 0)
(0.0806195 0.0801317 0)
(0.137906 0.10106 0)
(0.170094 0.0949943 0)
(0.189271 0.0898284 0)
(0.196043 0.0819764 0)
(0.195766 0.0683786 0)
(0.242584 0.113176 0)
(0.204988 0.0817309 0)
(0.0569586 -0.0320846 0)
(-0.0387076 -0.0573889 0)
(-0.0682165 -0.0510194 0)
(-0.0612195 -0.00713219 0)
(-0.0455719 0.0594639 0)
(-0.0532295 0.119058 0)
(-0.0672088 0.138032 0)
(0.0148781 0.180003 0)
(0.0608996 0.209872 0)
(0.0340174 0.291479 0)
(0.0298291 0.298283 0)
(0.00171642 0.261747 0)
(-0.00508286 0.224824 0)
(0.0104278 0.1933 0)
(0.0228524 0.158002 0)
(0.0155927 0.120948 0)
(0.000160366 0.0841239 0)
(-0.0145487 0.0522236 0)
(-0.0204902 0.0249187 0)
(-0.013971 0.00885302 0)
(-0.00476909 0.0037147 0)
(-1.08531e-05 0.062386 0)
(-0.000549361 0.0621297 0)
(-0.00136549 0.0623039 0)
(-0.00233549 0.0633073 0)
(-0.00437057 0.0628094 0)
(-0.00517048 0.0645381 0)
(-0.00250291 0.0667897 0)
(-0.000105586 0.0684269 0)
(0.00950465 0.0765152 0)
(0.0308327 0.0902977 0)
(0.0630767 0.104123 0)
(0.102406 0.12151 0)
(0.137074 0.123108 0)
(0.166974 0.118097 0)
(0.182124 0.126801 0)
(0.181257 0.111722 0)
(0.226031 0.12125 0)
(0.231842 0.130922 0)
(0.104344 0.0387231 0)
(-0.00106993 -0.0135483 0)
(-0.0251958 0.0165097 0)
(-0.0193847 0.100359 0)
(0.0141843 0.189727 0)
(0.0404927 0.244443 0)
(0.000880682 0.249233 0)
(-0.0366465 0.215785 0)
(0.030156 0.18089 0)
(0.0736716 0.159412 0)
(0.0412001 0.202988 0)
(0.00426574 0.199494 0)
(-0.0262295 0.185889 0)
(-0.0249015 0.176066 0)
(-0.00730995 0.172147 0)
(-0.0016778 0.164744 0)
(-0.0183016 0.155478 0)
(-0.0445218 0.140257 0)
(-0.0568537 0.102524 0)
(-0.0495482 0.0585033 0)
(-0.0297396 0.0254239 0)
(-0.0091349 0.00931808 0)
(-0.000112194 0.0917616 0)
(-0.000623763 0.0914726 0)
(-0.00130729 0.0908834 0)
(-0.0026023 0.0896475 0)
(-0.00334059 0.0876499 0)
(-0.000750653 0.0868129 0)
(0.00268112 0.0882075 0)
(0.00732054 0.0908445 0)
(0.0227277 0.100469 0)
(0.0475601 0.112979 0)
(0.072824 0.128355 0)
(0.098914 0.141287 0)
(0.134617 0.156319 0)
(0.173653 0.15816 0)
(0.183128 0.141789 0)
(0.190694 0.146083 0)
(0.214267 0.192601 0)
(0.163058 0.127535 0)
(0.0657718 0.0986679 0)
(0.035553 0.170829 0)
(0.0710578 0.237093 0)
(0.0987015 0.282583 0)
(0.0776249 0.297452 0)
(0.0117708 0.255536 0)
(-0.080845 0.162262 0)
(-0.133067 0.057815 0)
(-0.0394451 -0.0266174 0)
(0.0821946 -0.00665809 0)
(0.0726419 0.0499794 0)
(0.0133518 0.0630157 0)
(-0.0208597 0.0714281 0)
(-0.0183249 0.0804085 0)
(-0.000483169 0.087851 0)
(0.00678885 0.0939315 0)
(-0.00800314 0.102985 0)
(-0.0508677 0.12219 0)
(-0.0933298 0.122585 0)
(-0.0947868 0.0918876 0)
(-0.0613677 0.0516659 0)
(-0.0202892 0.0242738 0)
(-0.000289333 0.129196 0)
(-0.00139556 0.128273 0)
(-0.00312418 0.126137 0)
(-0.00545143 0.123577 0)
(-0.00710209 0.122842 0)
(-0.00463319 0.124949 0)
(0.0013821 0.128484 0)
(0.0117103 0.137613 0)
(0.0308338 0.151 0)
(0.0577045 0.158517 0)
(0.0903559 0.163299 0)
(0.129354 0.176079 0)
(0.153333 0.200733 0)
(0.152971 0.215435 0)
(0.170486 0.252793 0)
(0.230222 0.301587 0)
(0.208158 0.335604 0)
(0.141324 0.29484 0)
(0.146063 0.291265 0)
(0.132322 0.306784 0)
(0.0824939 0.298099 0)
(0.0387787 0.230338 0)
(-0.0118787 0.141166 0)
(-0.0897806 0.0549005 0)
(-0.189651 -0.0410597 0)
(-0.218658 -0.137847 0)
(-0.0319726 -0.123583 0)
(0.147483 -0.0474669 0)
(0.10834 -0.00743721 0)
(0.0249345 0.00272272 0)
(-0.00946921 0.0160308 0)
(-0.00907581 0.0261289 0)
(0.00572133 0.0325774 0)
(0.0129055 0.0367353 0)
(0.00892951 0.0411906 0)
(-0.0256339 0.0574046 0)
(-0.0860544 0.0846596 0)
(-0.117889 0.090865 0)
(-0.0948947 0.0724386 0)
(-0.0355309 0.0454605 0)
(-0.00100196 0.180977 0)
(-0.00357125 0.180286 0)
(-0.00583217 0.18209 0)
(-0.00577791 0.187528 0)
(-0.00201891 0.200418 0)
(0.00468621 0.220406 0)
(0.0148845 0.244657 0)
(0.029018 0.277507 0)
(0.0428715 0.314118 0)
(0.0594112 0.340564 0)
(0.0897477 0.357443 0)
(0.134987 0.383088 0)
(0.172542 0.446187 0)
(0.22382 0.494603 0)
(0.266147 0.522525 0)
(0.270494 0.492529 0)
(0.207766 0.393278 0)
(0.120331 0.338476 0)
(0.0772816 0.274903 0)
(0.0421391 0.181886 0)
(-0.00260824 0.104543 0)
(-0.0525247 0.0454664 0)
(-0.0914331 -0.0232175 0)
(-0.163829 -0.0999757 0)
(-0.266583 -0.180503 0)
(-0.21259 -0.179742 0)
(0.0476481 -0.0811161 0)
(0.194117 -0.0331783 0)
(0.121006 -0.0232612 0)
(0.0359664 -0.0141587 0)
(0.00169538 -0.0030391 0)
(-0.00237995 0.00384024 0)
(0.00973755 0.00690123 0)
(0.0150888 0.00821358 0)
(0.0119145 0.00727957 0)
(-0.00897941 0.0101154 0)
(-0.0610862 0.0336323 0)
(-0.106563 0.0592288 0)
(-0.105121 0.0686081 0)
(-0.0462864 0.063441 0)
(-0.000955779 0.260613 0)
(-0.000322834 0.268144 0)
(0.0038548 0.297517 0)
(0.0122102 0.345701 0)
(0.0245808 0.402424 0)
(0.0379968 0.46445 0)
(0.0564065 0.528361 0)
(0.0786453 0.59183 0)
(0.0915973 0.64955 0)
(0.099454 0.695087 0)
(0.131334 0.723798 0)
(0.214871 0.724854 0)
(0.260794 0.679947 0)
(0.226533 0.60509 0)
(0.168487 0.476907 0)
(0.105676 0.338097 0)
(0.0597072 0.199479 0)
(0.0272531 0.12784 0)
(-0.00483303 0.0748456 0)
(-0.0318424 0.0247352 0)
(-0.0489646 -0.0266532 0)
(-0.0843364 -0.0628179 0)
(-0.152032 -0.106384 0)
(-0.241347 -0.182144 0)
(-0.266516 -0.202279 0)
(-0.122885 -0.0917139 0)
(0.109261 -0.0168524 0)
(0.203234 -0.0193177 0)
(0.126668 -0.0189746 0)
(0.0444213 -0.00976038 0)
(0.00787527 -0.00120866 0)
(0.000503049 0.000930368 0)
(0.00993564 -7.86302e-05 0)
(0.0132701 -0.00289199 0)
(0.0107622 -0.00678863 0)
(-0.000239436 -0.00754422 0)
(-0.0387269 0.00529423 0)
(-0.0841849 0.0310569 0)
(-0.0908357 0.0502796 0)
(-0.0405101 0.0629217 0)
(0.00625491 0.359873 0)
(0.0319908 0.387161 0)
(0.0689048 0.4554 0)
(0.095314 0.536777 0)
(0.112412 0.597149 0)
(0.126044 0.635107 0)
(0.137632 0.659416 0)
(0.1458 0.667871 0)
(0.142374 0.660323 0)
(0.130959 0.647361 0)
(0.118433 0.617812 0)
(0.0927301 0.540973 0)
(0.0571327 0.389054 0)
(0.0281634 0.249483 0)
(0.00886319 0.139999 0)
(0.0031541 0.0752038 0)
(0.0051536 0.0349393 0)
(0.000229586 0.00605142 0)
(-0.0220736 -0.0195627 0)
(-0.0556688 -0.040316 0)
(-0.0869776 -0.0673538 0)
(-0.129356 -0.111063 0)
(-0.20642 -0.167536 0)
(-0.256237 -0.191768 0)
(-0.179442 -0.10481 0)
(-0.0339054 0.0129727 0)
(0.117412 0.0304439 0)
(0.192072 -0.0031674 0)
(0.130216 -0.00794607 0)
(0.0530863 0.000634725 0)
(0.0119974 0.00735061 0)
(-0.00129101 0.00706286 0)
(0.00605419 0.00311677 0)
(0.00862282 -0.00272796 0)
(0.00743142 -0.00835095 0)
(0.00266407 -0.0123909 0)
(-0.0238887 -0.00635939 0)
(-0.0632139 0.0148272 0)
(-0.074415 0.0376084 0)
(-0.034104 0.0537673 0)
(0.0253403 0.382933 0)
(0.0917305 0.398181 0)
(0.14803 0.427124 0)
(0.148804 0.421743 0)
(0.119336 0.387164 0)
(0.0979994 0.336919 0)
(0.0879792 0.289135 0)
(0.0795196 0.247173 0)
(0.0718326 0.206651 0)
(0.0584886 0.171536 0)
(0.0288146 0.131899 0)
(-0.00556852 0.0847144 0)
(-0.0200971 0.0519446 0)
(-0.0134656 0.0330662 0)
(0.000545518 0.0218649 0)
(0.00443644 0.0178444 0)
(-0.00693049 0.00354037 0)
(-0.025267 -0.0218703 0)
(-0.0495144 -0.049845 0)
(-0.0778957 -0.0717351 0)
(-0.117139 -0.101824 0)
(-0.180876 -0.153414 0)
(-0.229802 -0.182875 0)
(-0.180902 -0.108473 0)
(-0.0692203 0.00963629 0)
(0.00745125 0.0622096 0)
(0.0937081 0.0547382 0)
(0.16624 0.00467097 0)
(0.130332 -0.00412296 0)
(0.0591617 0.00705588 0)
(0.0140696 0.0114963 0)
(-0.00357683 0.0115477 0)
(0.000500849 0.00619702 0)
(0.00221942 -0.00215709 0)
(0.0014506 -0.00929557 0)
(0.0016797 -0.0168554 0)
(-0.0124985 -0.0167243 0)
(-0.0418159 0.000481884 0)
(-0.0533116 0.0229027 0)
(-0.0249388 0.0394587 0)
(0.0209489 0.181777 0)
(0.0745752 0.172518 0)
(0.09161 0.14207 0)
(0.0568071 0.0804785 0)
(0.0306721 0.0289009 0)
(0.0315796 -0.00453057 0)
(0.0511497 -0.02538 0)
(0.066316 -0.0367172 0)
(0.0694871 -0.0414992 0)
(0.0589248 -0.0426753 0)
(0.0347682 -0.033479 0)
(0.0156834 -0.0121458 0)
(0.0073627 0.0151821 0)
(-0.000822496 0.0282702 0)
(-0.0058051 0.023836 0)
(-0.0145041 0.00323196 0)
(-0.033117 -0.01765 0)
(-0.0512145 -0.0401239 0)
(-0.0701252 -0.0675298 0)
(-0.105758 -0.105793 0)
(-0.165686 -0.156155 0)
(-0.207459 -0.180784 0)
(-0.163113 -0.114431 0)
(-0.0707266 -0.00687831 0)
(-0.0149653 0.0507378 0)
(0.00955649 0.0577642 0)
(0.0619653 0.0480676 0)
(0.135351 -0.00218745 0)
(0.132514 -0.0204421 0)
(0.0681376 -0.00128873 0)
(0.0163259 0.0103521 0)
(-0.00639756 0.0129982 0)
(-0.00715225 0.00886882 0)
(-0.00630641 0.000498703 0)
(-0.00673241 -0.00819302 0)
(-0.0044945 -0.0199225 0)
(-0.00718189 -0.0291944 0)
(-0.0250278 -0.0183955 0)
(-0.0368556 0.00070475 0)
(-0.0181501 0.0135061 0)
(0.0164188 -0.013719 0)
(0.0534683 -0.0344857 0)
(0.0593367 -0.0706555 0)
(0.0397502 -0.0916528 0)
(0.0374178 -0.0857205 0)
(0.0456924 -0.0688879 0)
(0.056963 -0.0562114 0)
(0.0639865 -0.0543302 0)
(0.0660911 -0.0540768 0)
(0.0662173 -0.0480066 0)
(0.0582339 -0.02723 0)
(0.0413231 -0.000993097 0)
(0.0188493 0.0117519 0)
(-0.00512647 0.00841106 0)
(-0.0235822 -0.00195177 0)
(-0.0355409 -0.0233164 0)
(-0.0487098 -0.0461168 0)
(-0.0733331 -0.0750809 0)
(-0.112795 -0.120834 0)
(-0.163298 -0.175723 0)
(-0.189403 -0.191941 0)
(-0.14067 -0.126226 0)
(-0.0622207 -0.03108 0)
(-0.021739 0.0202222 0)
(-0.0069284 0.0313662 0)
(0.00487814 0.0286875 0)
(0.0359365 0.0215981 0)
(0.100222 -0.0172391 0)
(0.131198 -0.054323 0)
(0.0888361 -0.0414953 0)
(0.027837 -0.0181279 0)
(-0.00500614 -0.00293821 0)
(-0.0115441 0.000852735 0)
(-0.014222 0.00165458 0)
(-0.018228 -0.00311563 0)
(-0.018558 -0.0163253 0)
(-0.011027 -0.0325099 0)
(-0.0130039 -0.0332002 0)
(-0.0225701 -0.0153309 0)
(-0.0126029 -0.00372116 0)
(0.000937426 -0.045574 0)
(0.0197092 -0.0712855 0)
(0.0365216 -0.102037 0)
(0.0422898 -0.111506 0)
(0.0526093 -0.102717 0)
(0.0600156 -0.0928154 0)
(0.0651781 -0.087698 0)
(0.0683731 -0.0868573 0)
(0.0755807 -0.082271 0)
(0.0847953 -0.0682481 0)
(0.0800722 -0.0503114 0)
(0.0532477 -0.0365581 0)
(0.0164249 -0.0322332 0)
(-0.0140278 -0.0358221 0)
(-0.0363789 -0.0512594 0)
(-0.0570631 -0.0802169 0)
(-0.0829991 -0.121118 0)
(-0.123215 -0.168948 0)
(-0.167108 -0.207193 0)
(-0.174279 -0.201032 0)
(-0.117989 -0.133236 0)
(-0.0524479 -0.0503424 0)
(-0.0219907 -0.00821112 0)
(-0.0105512 0.00457615 0)
(-0.00680781 0.00662964 0)
(0.0001436 0.0034415 0)
(0.0177088 -0.00505011 0)
(0.0621909 -0.0278747 0)
(0.10914 -0.0772183 0)
(0.103017 -0.0942601 0)
(0.0534809 -0.0769918 0)
(0.0118928 -0.049581 0)
(-0.00272647 -0.031263 0)
(-0.0101305 -0.0175234 0)
(-0.0240585 -0.0106858 0)
(-0.0328199 -0.0114554 0)
(-0.0234432 -0.0212409 0)
(-0.0084735 -0.0340135 0)
(-0.00844845 -0.0213511 0)
(-0.0069625 -0.0169202 0)
(-0.00835774 -0.0629716 0)
(-0.000941387 -0.0638899 0)
(0.0205785 -0.0825937 0)
(0.0390947 -0.0941788 0)
(0.055429 -0.0999808 0)
(0.0601653 -0.106881 0)
(0.0627045 -0.114474 0)
(0.0692162 -0.119321 0)
(0.0840235 -0.117892 0)
(0.0970147 -0.111517 0)
(0.0887716 -0.106626 0)
(0.0587439 -0.105206 0)
(0.0195585 -0.109852 0)
(-0.0234608 -0.123272 0)
(-0.0663627 -0.154989 0)
(-0.102859 -0.191125 0)
(-0.134214 -0.222571 0)
(-0.156278 -0.234814 0)
(-0.143713 -0.201151 0)
(-0.0920303 -0.126298 0)
(-0.0441932 -0.0543412 0)
(-0.0201907 -0.0223108 0)
(-0.00929916 -0.0107575 0)
(-0.00743792 -0.00847278 0)
(-0.00802179 -0.00894105 0)
(-0.00637689 -0.0104782 0)
(0.0057591 -0.0166738 0)
(0.0306777 -0.0307869 0)
(0.0672268 -0.0710265 0)
(0.0890543 -0.11059 0)
(0.0708914 -0.11597 0)
(0.0390598 -0.095103 0)
(0.0193477 -0.0707897 0)
(0.00560695 -0.0503634 0)
(-0.0123806 -0.0340916 0)
(-0.0287292 -0.0191066 0)
(-0.0327648 -0.0102292 0)
(-0.0131101 -0.0144305 0)
(-0.00609841 -0.00301534 0)
(-0.00833321 -0.00692789 0)
(5.25507e-05 -0.131349 0)
(0.000800614 -0.061163 0)
(0.00733414 -0.0493908 0)
(0.025535 -0.0568187 0)
(0.040369 -0.0811184 0)
(0.0460499 -0.10503 0)
(0.0531899 -0.123543 0)
(0.065079 -0.13182 0)
(0.0831016 -0.130188 0)
(0.095652 -0.130157 0)
(0.0861535 -0.135806 0)
(0.0501383 -0.149744 0)
(-0.000984332 -0.176643 0)
(-0.057523 -0.21648 0)
(-0.101764 -0.248623 0)
(-0.122188 -0.255564 0)
(-0.125099 -0.233325 0)
(-0.102574 -0.178267 0)
(-0.0625379 -0.10715 0)
(-0.0328076 -0.0509983 0)
(-0.0177831 -0.0245629 0)
(-0.0104491 -0.0136854 0)
(-0.00865584 -0.0127078 0)
(-0.00880074 -0.0143034 0)
(-0.00874032 -0.0149687 0)
(-0.00730798 -0.0144237 0)
(-0.0018614 -0.0146958 0)
(0.00981476 -0.0235477 0)
(0.0322388 -0.0449419 0)
(0.0597069 -0.0796637 0)
(0.068405 -0.104049 0)
(0.0554306 -0.0975924 0)
(0.0403862 -0.0807871 0)
(0.0252332 -0.0596947 0)
(0.00606181 -0.0432543 0)
(-0.00982523 -0.0273699 0)
(-0.0189372 -0.01218 0)
(-0.00152197 -0.00877234 0)
(-0.00121867 -0.00405376 0)
(-0.0107328 -0.00488994 0)
(0.0592762 -0.0948169 0)
(0.0780367 -0.0333584 0)
(0.0247648 -0.0146662 0)
(0.00852086 -0.01527 0)
(0.00897042 -0.0323224 0)
(0.0192834 -0.0478535 0)
(0.0368896 -0.0600989 0)
(0.0628126 -0.0647688 0)
(0.0856259 -0.0624508 0)
(0.0916009 -0.0621493 0)
(0.0698964 -0.0666548 0)
(0.0193918 -0.0790199 0)
(-0.0447507 -0.0985615 0)
(-0.0928235 -0.124438 0)
(-0.104025 -0.135194 0)
(-0.0881172 -0.126784 0)
(-0.0597276 -0.0998375 0)
(-0.0346917 -0.0589453 0)
(-0.0210726 -0.0293939 0)
(-0.0124461 -0.0159152 0)
(-0.00823721 -0.00826409 0)
(-0.00876666 -0.00600906 0)
(-0.00989465 -0.00651821 0)
(-0.00961663 -0.00729461 0)
(-0.00813777 -0.00736489 0)
(-0.00611394 -0.00666932 0)
(-0.00303312 -0.00612579 0)
(0.00153152 -0.00788527 0)
(0.0131515 -0.0147216 0)
(0.0320968 -0.0276929 0)
(0.0536146 -0.0433736 0)
(0.0614755 -0.0430413 0)
(0.0558673 -0.0371006 0)
(0.0417749 -0.0269761 0)
(0.0187687 -0.0199346 0)
(0.00121509 -0.0137896 0)
(-0.0148435 -0.00847769 0)
(-0.0052794 -0.00954149 0)
(-0.00235719 -0.0123769 0)
(-0.00913899 -0.010723 0)
(0.0592762 0.0948169 0)
(0.0780367 0.0333584 0)
(0.0247648 0.0146662 0)
(0.00852086 0.01527 0)
(0.00897042 0.0323224 0)
(0.0192834 0.0478535 0)
(0.0368896 0.0600989 0)
(0.0628126 0.0647688 0)
(0.0856259 0.0624508 0)
(0.0916009 0.0621493 0)
(0.0698964 0.0666548 0)
(0.0193918 0.0790199 0)
(-0.0447507 0.0985615 0)
(-0.0928235 0.124438 0)
(-0.104025 0.135194 0)
(-0.0881172 0.126784 0)
(-0.0597276 0.0998375 0)
(-0.0346917 0.0589453 0)
(-0.0210726 0.0293939 0)
(-0.0124461 0.0159152 0)
(-0.00823721 0.00826409 0)
(-0.00876666 0.00600906 0)
(-0.00989465 0.00651821 0)
(-0.00961663 0.00729461 0)
(-0.00813777 0.00736489 0)
(-0.00611394 0.00666932 0)
(-0.00303312 0.00612579 0)
(0.00153152 0.00788527 0)
(0.0131515 0.0147216 0)
(0.0320968 0.0276929 0)
(0.0536146 0.0433736 0)
(0.0614755 0.0430413 0)
(0.0558673 0.0371006 0)
(0.0417749 0.0269761 0)
(0.0187687 0.0199346 0)
(0.00121509 0.0137896 0)
(-0.0148435 0.00847769 0)
(-0.0052794 0.00954149 0)
(-0.00235719 0.0123769 0)
(-0.00913899 0.010723 0)
(5.25507e-05 0.131349 0)
(0.000800614 0.061163 0)
(0.00733414 0.0493908 0)
(0.025535 0.0568187 0)
(0.040369 0.0811184 0)
(0.0460499 0.10503 0)
(0.0531899 0.123543 0)
(0.065079 0.13182 0)
(0.0831016 0.130188 0)
(0.095652 0.130157 0)
(0.0861535 0.135806 0)
(0.0501383 0.149744 0)
(-0.000984332 0.176643 0)
(-0.057523 0.21648 0)
(-0.101764 0.248623 0)
(-0.122188 0.255564 0)
(-0.125099 0.233325 0)
(-0.102574 0.178267 0)
(-0.0625379 0.10715 0)
(-0.0328076 0.0509983 0)