/*--------------------------------*- C++ -*----------------------------------*\
| =========                 |                                                 |
| \\      /  F ield         | OpenFOAM: The Open Source CFD Toolbox           |
|  \\    /   O peration     | Version:  v1912                                 |
|   \\  /    A nd           | Website:  www.openfoam.com                      |
|    \\/     M anipulation  |                                                 |
\*---------------------------------------------------------------------------*/
FoamFile
{
    version     2.0;
    format      ascii;
    class       volScalarField;
    location    "8.86";
    object      T;
}
// * * * * * * * * * * * * * * * * * * * * * * * * * * * * * * * * * * * * * //

dimensions      [0 0 0 1 0 0 0];


internalField   nonuniform List<scalar> 
1900
(
0.988735
1.07406
1.03062
0.969311
0.937343
0.9302
0.931593
0.936527
0.943731
0.949468
0.988735
1.07406
1.03062
0.969306
0.937342
0.930201
0.931617
0.936623
0.944131
0.949435
0.988735
1.07406
1.03062
0.969302
0.937348
0.930223
0.931643
0.936554
0.943733
0.948755
0.988735
1.07406
1.03062
0.969306
0.937342
0.930201
0.931617
0.936623
0.944131
0.949435
0.988735
1.07406
1.03062
0.969311
0.937343
0.9302
0.931593
0.936527
0.943731
0.949468
0.956261
0.952288
0.955105
0.963092
1.00191
0.951493
0.94944
0.951291
0.957745
0.983894
0.950374
0.948807
0.950429
0.957455
0.982168
0.951493
0.94944
0.951291
0.957745
0.983894
0.956261
0.952288
0.955105
0.963092
1.00191
0.794972
0.679868
0.615085
0.570205
0.53726
0.814653
0.696102
0.628112
0.583435
0.543491
0.81455
0.690487
0.621917
0.57863
0.534038
0.814653
0.696102
0.628112
0.583435
0.543491
0.794972
0.679868
0.615085
0.570205
0.53726
0.509525
0.494939
0.482026
0.475381
0.468756
0.460246
0.451117
0.441885
0.433818
0.428212
0.420452
0.410757
0.410885
0.419797
0.468919
0.51471
0.533463
0.540842
0.54588
0.555344
0.567079
0.5685
0.560728
0.54112
0.51725
0.499178
0.486347
0.514646
0.500129
0.452949
0.452968
0.460879
0.470151
0.481469
0.491987
0.497877
0.499265
0.498432
0.497298
0.496676
0.52694
0.534515
0.531617
0.522141
0.509917
0.495915
0.482271
0.469225
0.457675
0.449652
0.439229
0.426921
0.424593
0.433409
0.483405
0.52873
0.544428
0.549644
0.552867
0.559744
0.569338
0.569702
0.561111
0.540882
0.516777
0.498723
0.485932
0.514446
0.500914
0.453196
0.452943
0.46086
0.470143
0.48146
0.491969
0.497847
0.499222
0.498378
0.497247
0.496621
0.528372
0.535922
0.543895
0.53822
0.526844
0.512115
0.496762
0.481538
0.468029
0.458809
0.447264
0.433512
0.429915
0.438634
0.489023
0.533868
0.548563
0.552937
0.555214
0.561175
0.569104
0.568877
0.560805
0.54101
0.517441
0.499928
0.487087
0.514941
0.501169
0.453202
0.452925
0.460849
0.470136
0.481453
0.491961
0.497831
0.499186
0.49832
0.497185
0.49655
0.52694
0.534515
0.531617
0.522141
0.509917
0.495915
0.482271
0.469225
0.457675
0.449652
0.439229
0.426921
0.424593
0.433409
0.483405
0.52873
0.544428
0.549644
0.552867
0.559744
0.569338
0.569702
0.561111
0.540882
0.516777
0.498723
0.485932
0.514446
0.500914
0.453196
0.452943
0.46086
0.470143
0.48146
0.491969
0.497847
0.499222
0.498378
0.497247
0.496621
0.509525
0.494939
0.482026
0.475381
0.468756
0.460246
0.451117
0.441885
0.433818
0.428212
0.420452
0.410757
0.410885
0.419797
0.468919
0.51471
0.533463
0.540842
0.54588
0.555344
0.567079
0.5685
0.560728
0.54112
0.51725
0.499178
0.486347
0.514646
0.500129
0.452949
0.452968
0.460879
0.470151
0.481469
0.491987
0.497877
0.499265
0.498432
0.497298
0.496676
0.401837
0.396691
0.390906
0.391042
0.390181
0.388697
0.38817
0.387487
0.386651
0.385704
0.38237
0.37674
0.377436
0.38575
0.431779
0.478513
0.504241
0.516975
0.527493
0.543289
0.56139
0.568309
0.566057
0.550482
0.526885
0.507337
0.491614
0.516026
0.497501
0.451993
0.452986
0.460872
0.470096
0.481433
0.492013
0.498013
0.499479
0.498703
0.497506
0.496796
0.317271
0.316746
0.3154
0.315998
0.317185
0.319437
0.322973
0.326809
0.331237
0.336239
0.336915
0.336828
0.338968
0.348088
0.390848
0.435944
0.468038
0.487059
0.503967
0.528979
0.554935
0.559235
0.552388
0.534977
0.514271
0.498092
0.48542
0.510874
0.490998
0.450739
0.453041
0.460831
0.469952
0.481317
0.492
0.498165
0.499748
0.499055
0.497723
0.496799
0.304138
0.30453
0.306667
0.308624
0.309851
0.3109
0.312001
0.313477
0.315855
0.318109
0.319462
0.320735
0.32285
0.332522
0.376542
0.418246
0.450585
0.471506
0.491548
0.521957
0.549936
0.552381
0.544528
0.526844
0.50871
0.494868
0.482517
0.504076
0.481278
0.448895
0.45285
0.460479
0.4695
0.480954
0.491815
0.498211
0.499936
0.499367
0.497937
0.496858
0.302213
0.302094
0.301684
0.301988
0.302596
0.303483
0.303966
0.304823
0.306404
0.306391
0.307282
0.31153
0.317261
0.332552
0.372762
0.406805
0.436061
0.458135
0.482761
0.51854
0.543554
0.543826
0.534905
0.518299
0.502873
0.49041
0.477547
0.493724
0.469278
0.447214
0.452736
0.460132
0.468999
0.480476
0.49148
0.498105
0.499993
0.499623
0.498179
0.49703
0.305479
0.305578
0.3055
0.305131
0.305279
0.30563
0.305348
0.305647
0.305906
0.305534
0.307934
0.313047
0.320211
0.341741
0.37583
0.404631
0.43326
0.457492
0.485917
0.523014
0.538932
0.536043
0.524489
0.508975
0.496205
0.484535
0.470398
0.479863
0.458115
0.448172
0.45515
0.462152
0.470541
0.481323
0.49161
0.497962
0.499924
0.499811
0.49843
0.497261
0.310403
0.310401
0.31023
0.30956
0.309516
0.309344
0.309007
0.30903
0.307948
0.308827
0.313689
0.319823
0.330982
0.35358
0.379877
0.407114
0.435406
0.461004
0.495625
0.528193
0.532197
0.526282
0.513548
0.500904
0.491243
0.480326
0.465015
0.469581
0.455734
0.457482
0.464786
0.469736
0.476076
0.485434
0.494788
0.499978
0.500757
0.500033
0.498624
0.497474
0.316436
0.316473
0.316286
0.315801
0.315436
0.314556
0.314175
0.314263
0.313611
0.314717
0.319374
0.326473
0.341544
0.364397
0.38832
0.416446
0.442232
0.470282
0.508942
0.526654
0.524606
0.516009
0.505847
0.499174
0.493314
0.484536
0.474832
0.488627
0.491579
0.497982
0.499782
0.498454
0.498384
0.501322
0.504669
0.50561
0.504713
0.501609
0.499078
0.497767
0.323367
0.323364
0.323216
0.322988
0.322573
0.321786
0.321152
0.321098
0.321123
0.323712
0.329602
0.341058
0.357763
0.378753
0.403681
0.428837
0.453527
0.490996
0.517283
0.519691
0.516989
0.512762
0.511658
0.516662
0.522794
0.516905
0.512716
0.525197
0.532976
0.536527
0.534149
0.529314
0.527301
0.527304
0.526839
0.522271
0.514596
0.506636
0.50097
0.498458
0.332968
0.332937
0.332796
0.332577
0.332081
0.331659
0.331874
0.332396
0.333887
0.338646
0.346966
0.358673
0.374168
0.395693
0.421922
0.446053
0.474363
0.504976
0.519204
0.523063
0.528981
0.542604
0.556124
0.563951
0.559361
0.541719
0.522768
0.530871
0.545371
0.550848
0.549043
0.545112
0.544004
0.544979
0.54587
0.542778
0.531882
0.517112
0.505816
0.500236
0.347684
0.347604
0.3473
0.346745
0.345801
0.344792
0.344527
0.345172
0.347747
0.353651
0.363616
0.378499
0.399188
0.420666
0.441255
0.467549
0.504566
0.524793
0.54343
0.56496
0.579819
0.587646
0.590483
0.584379
0.565793
0.532226
0.505662
0.523433
0.54622
0.553227
0.553077
0.550623
0.550581
0.552196
0.55413
0.554652
0.547081
0.530987
0.514662
0.504891
0.367205
0.366929
0.366223
0.365325
0.364634
0.36477
0.365923
0.368863
0.373902
0.380653
0.390241
0.405334
0.427362
0.452783
0.488912
0.525973
0.563298
0.583109
0.596389
0.604361
0.607977
0.603644
0.593533
0.5785
0.54848
0.505189
0.490018
0.518293
0.5434
0.551569
0.553291
0.552036
0.552637
0.554714
0.556786
0.55799
0.554317
0.541191
0.525012
0.512283
0.395643
0.39538
0.395554
0.39644
0.398912
0.403199
0.409361
0.418711
0.430988
0.443901
0.458338
0.480017
0.517428
0.551736
0.579724
0.598069
0.608785
0.614489
0.616279
0.61316
0.607523
0.599695
0.58433
0.557886
0.51796
0.484594
0.484167
0.514641
0.540056
0.549475
0.552272
0.55164
0.55241
0.554373
0.556059
0.557332
0.555994
0.546682
0.532843
0.521702
0.436267
0.437987
0.445065
0.456936
0.471276
0.487849
0.505938
0.525698
0.546033
0.564851
0.582047
0.59742
0.607548
0.613132
0.615293
0.615569
0.61616
0.616986
0.616223
0.610916
0.600914
0.586997
0.565341
0.530232
0.494876
0.480885
0.485552
0.513173
0.538372
0.548983
0.552971
0.552282
0.552616
0.553947
0.554987
0.555991
0.55572
0.549421
0.538336
0.528957
0.491009
0.497977
0.516235
0.538686
0.557156
0.571503
0.584106
0.595697
0.605974
0.615451
0.622058
0.623375
0.620527
0.617848
0.616824
0.617998
0.618044
0.616093
0.611095
0.602476
0.589674
0.570263
0.539933
0.507067
0.490185
0.488032
0.492234
0.513801
0.53795
0.549643
0.55422
0.553512
0.553236
0.55365
0.553846
0.554049
0.554308
0.550611
0.542809
0.535951
0.537745
0.543505
0.558253
0.568698
0.573875
0.577133
0.582559
0.591199
0.600796
0.610308
0.617
0.619869
0.621313
0.621894
0.621087
0.620298
0.617098
0.611191
0.603014
0.591906
0.573931
0.546342
0.51688
0.501486
0.49743
0.497371
0.500058
0.514411
0.537279
0.550853
0.556017
0.555342
0.554258
0.553375
0.552524
0.551524
0.551288
0.549549
0.544405
0.539414
0.53918
0.543695
0.553883
0.560012
0.564815
0.570302
0.57738
0.585967
0.594976
0.604142
0.613186
0.620157
0.62455
0.62534
0.62314
0.618855
0.613366
0.60546
0.5932
0.574441
0.548293
0.522355
0.509609
0.505245
0.503631
0.503339
0.504972
0.513222
0.532533
0.549301
0.556963
0.556956
0.555586
0.553782
0.551675
0.548769
0.546572
0.545737
0.542996
0.53953
0.534109
0.534367
0.539529
0.54441
0.551159
0.558878
0.567663
0.576802
0.586466
0.597586
0.609784
0.619606
0.624427
0.624123
0.62057
0.614119
0.604877
0.591294
0.570993
0.54534
0.523067
0.512893
0.508643
0.506845
0.505742
0.504973
0.505781
0.509843
0.522884
0.539856
0.551213
0.554564
0.554484
0.553814
0.551698
0.547198
0.542673
0.540751
0.540342
0.538428
0.527103
0.524804
0.526844
0.530463
0.537595
0.545706
0.55414
0.56295
0.573175
0.586056
0.599854
0.610469
0.616008
0.615847
0.609557
0.597597
0.58127
0.560689
0.538294
0.521168
0.512985
0.509014
0.507433
0.506457
0.505387
0.504251
0.503634
0.505835
0.51207
0.524322
0.53656
0.543817
0.547302
0.549138
0.548843
0.545733
0.540943
0.536723
0.537338
0.535046
0.517421
0.517436
0.517642
0.519453
0.524664
0.530554
0.537328
0.545182
0.555224
0.568034
0.581529
0.591727
0.595317
0.591456
0.579498
0.563471
0.545896
0.529069
0.517688
0.511871
0.508666
0.50698
0.505793
0.5046
0.503372
0.502196
0.501363
0.501684
0.504062
0.51055
0.520481
0.529361
0.535725
0.540468
0.542664
0.542135
0.539962
0.536927
0.539543
0.536592
0.492295
0.508596
0.513755
0.515406
0.516098
0.517873
0.521401
0.528018
0.538675
0.551565
0.563865
0.570786
0.569198
0.55848
0.543671
0.529873
0.519439
0.513448
0.509899
0.507653
0.506476
0.505388
0.504065
0.502667
0.501421
0.500429
0.499739
0.499595
0.500161
0.503211
0.508987
0.517955
0.525893
0.533319
0.537381
0.53848
0.537715
0.534398
0.536263
0.53375
0.492295
0.508596
0.513755
0.515406
0.516098
0.517873
0.521401
0.528018
0.538675
0.551565
0.563865
0.570786
0.569198
0.55848
0.543671
0.529873
0.519439
0.513448
0.509899
0.507653
0.506476
0.505388
0.504065
0.502667
0.501421
0.500429
0.499739
0.499595
0.500161
0.503211
0.508987
0.517955
0.525893
0.533319
0.537381
0.53848
0.537715
0.534398
0.536263
0.53375
0.517421
0.517436
0.517642
0.519453
0.524664
0.530554
0.537328
0.545182
0.555224
0.568034
0.581529
0.591727
0.595317
0.591456
0.579498
0.563471
0.545896
0.529069
0.517688
0.511871
0.508666
0.50698
0.505793
0.5046
0.503372
0.502196
0.501363
0.501684
0.504062
0.51055
0.520481
0.529361
0.535725
0.540468
0.542664
0.542135
0.539962
0.536927
0.539543
0.536592
0.527103
0.524804
0.526844
0.530463
0.537595
0.545706
0.55414
0.56295
0.573175
0.586056
0.599854
0.610469
0.616008
0.615847
0.609557
0.597597
0.58127
0.560689
0.538294
0.521168
0.512985
0.509014
0.507433
0.506457
0.505387
0.504251
0.503634
0.505835
0.51207
0.524322
0.53656
0.543817
0.547302
0.549138
0.548843
0.545733
0.540943
0.536723
0.537338
0.535046
0.534109
0.534367
0.539529
0.54441
0.551159
0.558878
0.567663
0.576802
0.586466
0.597586
0.609784
0.619606
0.624427
0.624123
0.62057
0.614119
0.604877
0.591294
0.570993
0.54534
0.523067
0.512893
0.508643
0.506845
0.505742
0.504973
0.505781
0.509843
0.522884
0.539856
0.551213
0.554564
0.554484
0.553814
0.551698
0.547198
0.542673
0.540751
0.540342
0.538428
0.53918
0.543695
0.553883
0.560012
0.564815
0.570302
0.57738
0.585967
0.594976
0.604142
0.613186
0.620157
0.62455
0.62534
0.62314
0.618855
0.613366
0.60546
0.5932
0.574441
0.548293
0.522355
0.509609
0.505245
0.503631
0.503339
0.504972
0.513222
0.532533
0.549301
0.556963
0.556956
0.555586
0.553782
0.551675
0.548769
0.546572
0.545737
0.542996
0.53953
0.537745
0.543505
0.558253
0.568698
0.573875
0.577133
0.582559
0.591199
0.600796
0.610308
0.617
0.619869
0.621313
0.621894
0.621087
0.620298
0.617098
0.611191
0.603014
0.591906
0.573931
0.546342
0.51688
0.501486
0.49743
0.497371
0.500058
0.514411
0.537279
0.550853
0.556017
0.555342
0.554258
0.553375
0.552524
0.551524
0.551288
0.549549
0.544405
0.539414
0.491009
0.497977
0.516235
0.538686
0.557156
0.571503
0.584106
0.595697
0.605974
0.615451
0.622058
0.623375
0.620527
0.617848
0.616824
0.617998
0.618044
0.616093
0.611095
0.602476
0.589674
0.570263
0.539933
0.507067
0.490185
0.488032
0.492234
0.513801
0.53795
0.549643
0.55422
0.553512
0.553236
0.55365
0.553846
0.554049
0.554308
0.550611
0.542809
0.535951
0.436267
0.437987
0.445065
0.456936
0.471276
0.487849
0.505938
0.525698
0.546033
0.564851
0.582047
0.59742
0.607548
0.613132
0.615293
0.615569
0.61616
0.616986
0.616223
0.610916
0.600914
0.586997
0.565341
0.530232
0.494876
0.480885
0.485552
0.513173
0.538372
0.548983
0.552971
0.552282
0.552616
0.553947
0.554987
0.555991
0.55572
0.549421
0.538336
0.528957
0.395643
0.39538
0.395554
0.39644
0.398912
0.403199
0.409361
0.418711
0.430988
0.443901
0.458338
0.480017
0.517428
0.551736
0.579724
0.598069
0.608785
0.614489
0.616279
0.61316
0.607523
0.599695
0.58433
0.557886
0.51796
0.484594
0.484167
0.514641
0.540056
0.549475
0.552272
0.55164
0.55241
0.554373
0.556059
0.557332
0.555994
0.546682
0.532843
0.521702
0.367205
0.366929
0.366223
0.365325
0.364634
0.36477
0.365923
0.368863
0.373902
0.380653
0.390241
0.405334
0.427362
0.452783
0.488912
0.525973
0.563298
0.583109
0.596389
0.604361
0.607977
0.603644
0.593533
0.5785
0.54848
0.505189
0.490018
0.518293
0.5434
0.551569
0.553291
0.552036
0.552637
0.554714
0.556786
0.55799
0.554317
0.541191
0.525012
0.512283
0.347684
0.347604
0.3473
0.346745
0.345801
0.344792
0.344527
0.345172
0.347747
0.353651
0.363616
0.378499
0.399188
0.420666
0.441255
0.467549
0.504566
0.524793
0.54343
0.56496
0.579819
0.587646
0.590483
0.584379
0.565793
0.532226
0.505662
0.523433
0.54622
0.553227
0.553077
0.550623
0.550581
0.552196
0.55413
0.554652
0.547081
0.530987
0.514662
0.504891
0.332968
0.332937
0.332796
0.332577
0.332081
0.331659
0.331874
0.332396
0.333887
0.338646
0.346966
0.358673
0.374168
0.395693
0.421922
0.446053
0.474363
0.504976
0.519204
0.523063
0.528981
0.542604
0.556124
0.563951
0.559361
0.541719
0.522768
0.530871
0.545371
0.550848
0.549043
0.545112
0.544004
0.544979
0.54587
0.542778
0.531882
0.517112
0.505816
0.500236
0.323367
0.323364
0.323216
0.322988
0.322573
0.321786
0.321152
0.321098
0.321123
0.323712
0.329602
0.341058
0.357763
0.378753
0.403681
0.428837
0.453527
0.490996
0.517283
0.519691
0.516989
0.512762
0.511658
0.516662
0.522794
0.516905
0.512716
0.525197
0.532976
0.536527
0.534149
0.529314
0.527301
0.527304
0.526839
0.522271
0.514596
0.506636
0.50097
0.498458
0.316436
0.316473
0.316286
0.315801
0.315436
0.314556
0.314175
0.314263
0.313611
0.314717
0.319374
0.326473
0.341544
0.364397
0.38832
0.416446
0.442232
0.470282
0.508942
0.526654
0.524606
0.516009
0.505847
0.499174
0.493314
0.484536
0.474832
0.488627
0.491579
0.497982
0.499782
0.498454
0.498384
0.501322
0.504669
0.50561
0.504713
0.501609
0.499078
0.497767
0.310403
0.310401
0.31023
0.30956
0.309516
0.309344
0.309007
0.30903
0.307948
0.308827
0.313689
0.319823
0.330982
0.35358
0.379877
0.407114
0.435406
0.461004
0.495625
0.528193
0.532197
0.526282
0.513548
0.500904
0.491243
0.480326
0.465015
0.469581
0.455734
0.457482
0.464786
0.469736
0.476076
0.485434
0.494788
0.499978
0.500757
0.500033
0.498624
0.497474
0.305479
0.305578
0.3055
0.305131
0.305279
0.30563
0.305348
0.305647
0.305906
0.305534
0.307934
0.313047
0.320211
0.341741
0.37583
0.404631
0.43326
0.457492
0.485917
0.523014
0.538932
0.536043
0.524489
0.508975
0.496205
0.484535
0.470398
0.479863
0.458115
0.448172
0.45515
0.462152
0.470541
0.481323
0.49161
0.497962
0.499924
0.499811
0.49843
0.497261
0.302213
0.302094
0.301684
0.301988
0.302596
0.303483
0.303966
0.304823
0.306404
0.306391
0.307282
0.31153
0.317261
0.332552
0.372762
0.406805
0.436061
0.458135
0.482761
0.51854
0.543554
0.543826
0.534905
0.518299
0.502873
0.49041
0.477547
0.493724
0.469278
0.447214
0.452736
0.460132
0.468999
0.480476
0.49148
0.498105
0.499993
0.499623
0.498179
0.49703
0.304138
0.30453
0.306667
0.308624
0.309851
0.3109
0.312001
0.313477
0.315855
0.318109
0.319462
0.320735
0.32285
0.332522
0.376542
0.418246
0.450585
0.471506
0.491548
0.521957
0.549936
0.552381
0.544528
0.526844
0.50871
0.494868
0.482517
0.504076
0.481278
0.448895
0.45285
0.460479
0.4695
0.480954
0.491815
0.498211
0.499936
0.499367
0.497937
0.496858
0.317271
0.316746
0.3154
0.315998
0.317185
0.319437
0.322973
0.326809
0.331237
0.336239
0.336915
0.336828
0.338968
0.348088
0.390848
0.435944
0.468038
0.487059
0.503967
0.528979
0.554935
0.559235
0.552388
0.534977
0.514271
0.498092
0.48542
0.510874
0.490998
0.450739
0.453041
0.460831
0.469952
0.481317
0.492
0.498165
0.499748
0.499055
0.497723
0.496799
0.401837
0.396691
0.390906
0.391042
0.390181
0.388697
0.38817
0.387487
0.386651
0.385704
0.38237
0.37674
0.377436
0.38575
0.431779
0.478513
0.504241
0.516975
0.527493
0.543289
0.56139
0.568309
0.566057
0.550482
0.526885
0.507337
0.491614
0.516026
0.497501
0.451993
0.452986
0.460872
0.470096
0.481433
0.492013
0.498013
0.499479
0.498703
0.497506
0.496796
)
;

boundaryField
{
    inlet
    {
        type            fixedValue;
        value           uniform 1;
    }
    outlet
    {
        type            zeroGradient;
    }
    obstacle
    {
        type            zeroGradient;
    }
    empty
    {
        type            empty;
    }
}


// ************************************************************************* //
