/*--------------------------------*- C++ -*----------------------------------*\
| =========                 |                                                 |
| \\      /  F ield         | OpenFOAM: The Open Source CFD Toolbox           |
|  \\    /   O peration     | Version:  v1912                                 |
|   \\  /    A nd           | Website:  www.openfoam.com                      |
|    \\/     M anipulation  |                                                 |
\*---------------------------------------------------------------------------*/
FoamFile
{
    version     2.0;
    format      ascii;
    class       volVectorField;
    location    "2.42";
    object      grad(rho);
}
// * * * * * * * * * * * * * * * * * * * * * * * * * * * * * * * * * * * * * //

dimensions      [1 -4 0 0 0 0 0];


internalField   nonuniform List<vector> 
1900
(
(28828.3 0.048752 0)
(-19759 0.339964 0)
(-1010.51 0.661402 0)
(368.664 0.285869 0)
(524.866 -0.820089 0)
(623.134 -3.1402 0)
(669.816 -10.3959 0)
(588.131 -49.822 0)
(582.887 -72.3549 0)
(-281.179 -135.651 0)
(28828.7 0.202687 0)
(-19758.4 0.556346 0)
(-1010.56 0.813758 0)
(367.182 -0.710881 0)
(521.44 -4.25084 0)
(613.558 -7.01102 0)
(623.135 -8.64577 0)
(526.171 -28.9886 0)
(497.058 -13.1066 0)
(374.175 -177.105 0)
(28829 4.61853e-09 0)
(-19758.4 -8.17124e-10 0)
(-1011.77 -1.42109e-09 0)
(363.599 -2.61124e-09 0)
(518.566 -4.72511e-09 0)
(618.739 -8.81073e-09 0)
(647.839 -1.12088e-08 0)
(583.67 -3.94351e-09 0)
(434.771 6.76792e-09 0)
(188.662 6.21725e-09 0)
(28828.7 -0.202687 0)
(-19758.4 -0.556346 0)
(-1010.56 -0.813758 0)
(367.182 0.710881 0)
(521.44 4.25084 0)
(613.558 7.01102 0)
(623.135 8.64577 0)
(526.171 28.9886 0)
(497.058 13.1066 0)
(374.175 177.105 0)
(28828.3 -0.048752 0)
(-19759 -0.339964 0)
(-1010.51 -0.661402 0)
(368.664 -0.285869 0)
(524.866 0.820089 0)
(623.134 3.1402 0)
(669.816 10.3959 0)
(588.131 49.822 0)
(582.887 72.3549 0)
(-281.179 135.651 0)
(-615.395 470.674 1.47646e-11)
(-443.452 573.429 -1.80104e-11)
(-2612.61 499.409 -2.27014e-11)
(-11745.1 2182.04 0)
(-3792.23 15004 -8.79862e-11)
(163.215 352.668 1.48497e-11)
(-613.685 303.737 1.80104e-11)
(-1791.13 20.2025 2.27014e-11)
(-5568.04 869.354 0)
(-1933.8 12352.6 0)
(126.294 3.82946e-09 0)
(-648.259 2.45418e-09 0)
(-2118.35 -3.40468e-09 0)
(-5303.84 1.21115e-09 0)
(4866.58 -2.32618e-09 0)
(163.215 -352.668 1.48497e-11)
(-613.685 -303.737 1.80104e-11)
(-1791.13 -20.2025 2.27014e-11)
(-5568.04 -869.354 0)
(-1933.8 -12352.6 0)
(-615.395 -470.674 -4.4464e-11)
(-443.452 -573.429 -1.80104e-11)
(-2612.61 -499.409 -2.27014e-11)
(-11745.1 -2182.04 -6.07836e-11)
(-3792.23 -15004 8.79862e-11)
(19345.9 -3409.84 4.4833e-11)
(7145.88 -426.076 -3.92469e-11)
(7873.44 61.1671 0)
(9851.52 899.435 3.25643e-11)
(-1659.54 -8670.74 -1.5407e-11)
(14249 -3238.22 -2.23652e-11)
(7978.42 -85.525 1.9617e-11)
(8341.77 -44.4675 0)
(5936.05 -2027.51 -2.03544e-11)
(-10263.4 -20192.5 3.63442e-12)
(15462.4 -3.14002e-09 0)
(7927.52 -4.47885e-09 0)
(7089.69 -7.63176e-09 0)
(876.286 -3.425e-08 8.11732e-12)
(-13883.7 -5.68226e-08 -7.26885e-12)
(14249 3238.22 -2.23652e-11)
(7978.42 85.525 1.9617e-11)
(8341.77 44.4675 0)
(5936.05 2027.51 -2.03544e-11)
(-10263.4 20192.5 3.63442e-12)
(19345.9 3409.84 2.23652e-11)
(7145.88 426.076 1.2832e-14)
(7873.44 -61.1671 0)
(9851.52 -899.435 2.7088e-14)
(-1659.54 8670.74 1.5407e-11)
(-39316.8 -72793 0)
(-32809.6 5292.15 0)
(583.942 4221.54 0)
(507.836 1777.06 0)
(-18.386 1021.48 0)
(545.443 827.535 0)
(958.067 751.825 0)
(1331.72 852.339 0)
(1701.25 871.96 0)
(2078.74 908.285 0)
(2431.74 957.629 0)
(2730.45 1001.9 0)
(2968.8 1052.33 0)
(3138.93 1110.41 0)
(3247.68 1176.75 0)
(3290.3 1245.71 0)
(3221.37 1312.63 0)
(2890.74 1373.37 0)
(2117.74 1422.94 0)
(781.635 1452.31 0)
(-877.521 1452.27 0)
(-2218.81 1423.32 0)
(-2979.92 1380.86 0)
(-3311.83 1331.01 0)
(-3394.12 1278.52 0)
(-3381.94 1224.62 0)
(-3328.19 1169.57 0)
(-3249.58 1113.3 0)
(-3151.47 1055.63 0)
(-3033.67 996.306 0)
(-2890.2 935.142 0)
(-2711.33 872.075 0)
(-2494.24 807.429 0)
(-2258.98 741.216 0)
(-2062.05 675.663 0)
(-1955.31 607.133 0)
(-1723.39 547.125 0)
(-808.248 447.244 0)
(140381 383.669 0)
(-177007 596.795 0)
(-37241.2 -32295.9 0)
(-26161.9 6762.88 0)
(266.369 3673.83 0)
(-72.8425 936.431 0)
(-75.6567 537.147 0)
(505.876 369.784 0)
(961.811 304.749 0)
(1349.77 379.137 0)
(1706.8 391.187 0)
(2087.49 409.565 0)
(2441.53 434.999 0)
(2739.84 455.177 0)
(2979.83 477.509 0)
(3152.7 505.553 0)
(3263.47 541.686 0)
(3306.08 579.98 0)
(3235.8 616.449 0)
(2903.01 648.713 0)
(2126.73 675.266 0)
(785.418 692.069 0)
(-879.974 693.611 0)
(-2225.59 680.653 0)
(-2988.62 661.955 0)
(-3321.31 640.633 0)
(-3403.76 619.121 0)
(-3391.65 597.815 0)
(-3338.03 576.533 0)
(-3259.73 554.847 0)
(-3162.15 532.126 0)
(-3045.15 507.534 0)
(-2902.73 480.091 0)
(-2725.12 448.76 0)
(-2509.5 412.761 0)
(-2275.55 371.263 0)
(-2080.23 325.724 0)
(-1972.64 274.01 0)
(-1745 233.346 0)
(-831.554 167.036 0)
(140342 120.563 0)
(-177038 -27.2163 0)
(-32597.7 -2.16393e-08 0)
(-22345.7 -4.55393e-09 0)
(-1111.03 -1.2919e-10 0)
(-404.653 3.32663e-09 0)
(-183.229 -5.81353e-10 0)
(477.836 -9.68922e-10 0)
(960.788 2.55149e-09 0)
(1356.87 1.17885e-08 0)
(1710.1 -8.688e-09 0)
(2091.48 -9.8281e-08 0)
(2445.01 -2.18976e-07 0)
(2742.82 -1.81511e-08 0)
(2983.45 1.14811e-06 0)
(3157.6 3.00401e-06 0)
(3269.33 2.80031e-06 0)
(3312.05 -3.87155e-06 0)
(3241.36 -1.22754e-05 0)
(2907.85 -2.62443e-05 0)
(2130.35 -5.75903e-05 0)
(786.972 -3.85612e-05 0)
(-880.843 -1.71247e-06 0)
(-2228.02 7.31203e-05 0)
(-2991.56 3.8482e-05 0)
(-3324.29 -8.57038e-05 0)
(-3406.57 -0.000125557 0)
(-3394.33 -0.000123014 0)
(-3340.69 -9.24198e-05 0)
(-3262.5 -4.77526e-05 0)
(-3165.23 -1.54958e-05 0)
(-3048.81 -8.43511e-07 0)
(-2907.3 -4.47784e-06 0)
(-2730.91 -2.71582e-05 0)
(-2516.79 -4.94164e-05 0)
(-2284.3 -8.7175e-05 0)
(-2090.34 -0.000103887 0)
(-1982.18 -0.000115702 0)
(-1754.51 -5.60355e-05 0)
(-841.057 -2.48812e-05 0)
(140324 -1.32866e-05 0)
(-177034 0.000103244 0)
(-37241.2 32295.9 0)
(-26161.9 -6762.88 0)
(266.369 -3673.83 0)
(-72.8425 -936.431 0)
(-75.6567 -537.147 0)
(505.876 -369.784 0)
(961.811 -304.749 0)
(1349.77 -379.137 0)
(1706.8 -391.187 0)
(2087.49 -409.565 0)
(2441.53 -434.999 0)
(2739.84 -455.177 0)
(2979.83 -477.509 0)
(3152.7 -505.553 0)
(3263.47 -541.686 0)
(3306.08 -579.98 0)
(3235.8 -616.449 0)
(2903.01 -648.713 0)
(2126.73 -675.266 0)
(785.418 -692.069 0)
(-879.974 -693.611 0)
(-2225.59 -680.653 0)
(-2988.62 -661.955 0)
(-3321.31 -640.633 0)
(-3403.76 -619.121 0)
(-3391.65 -597.815 0)
(-3338.03 -576.533 0)
(-3259.73 -554.847 0)
(-3162.15 -532.126 0)
(-3045.15 -507.534 0)
(-2902.73 -480.091 0)
(-2725.12 -448.76 0)
(-2509.5 -412.761 0)
(-2275.55 -371.263 0)
(-2080.23 -325.724 0)
(-1972.64 -274.01 0)
(-1745 -233.346 0)
(-831.554 -167.036 0)
(140342 -120.563 0)
(-177038 27.2165 0)
(-39316.8 72793 0)
(-32809.6 -5292.15 0)
(583.942 -4221.54 0)
(507.836 -1777.06 0)
(-18.386 -1021.48 0)
(545.443 -827.535 0)
(958.067 -751.825 0)
(1331.72 -852.339 0)
(1701.25 -871.96 0)
(2078.74 -908.285 0)
(2431.74 -957.629 0)
(2730.45 -1001.9 0)
(2968.8 -1052.33 0)
(3138.93 -1110.41 0)
(3247.68 -1176.75 0)
(3290.3 -1245.71 0)
(3221.37 -1312.63 0)
(2890.74 -1373.37 0)
(2117.74 -1422.94 0)
(781.635 -1452.31 0)
(-877.521 -1452.27 0)
(-2218.81 -1423.32 0)
(-2979.92 -1380.86 0)
(-3311.83 -1331.01 0)
(-3394.12 -1278.52 0)
(-3381.94 -1224.62 0)
(-3328.19 -1169.57 0)
(-3249.58 -1113.3 0)
(-3151.47 -1055.63 0)
(-3033.67 -996.306 0)
(-2890.2 -935.141 0)
(-2711.33 -872.075 0)
(-2494.24 -807.429 0)
(-2258.98 -741.216 0)
(-2062.05 -675.663 0)
(-1955.31 -607.133 0)
(-1723.39 -547.125 0)
(-808.248 -447.244 0)
(140381 -383.669 0)
(-177007 -596.795 0)
(112331 76876 0)
(-66784.6 -6658.62 0)
(2104.1 -3562.45 0)
(1263.06 -2931.65 0)
(453.733 -1733.32 0)
(629.274 -1416.62 0)
(950.58 -1309.22 0)
(1295.28 -1342.52 0)
(1678.12 -1375.65 0)
(2043.88 -1419.62 0)
(2394.11 -1480.19 0)
(2691.3 -1542.38 0)
(2924.53 -1615.9 0)
(3090.59 -1697.43 0)
(3196.86 -1783.77 0)
(3239.09 -1871.93 0)
(3172.42 -1958.77 0)
(2848.01 -2039.61 0)
(2087.62 -2105.65 0)
(771.395 -2142.88 0)
(-864.625 -2139.39 0)
(-2188.64 -2094.77 0)
(-2940.78 -2029.18 0)
(-3268.08 -1951.95 0)
(-3348.17 -1869.74 0)
(-3334.52 -1784.67 0)
(-3279.59 -1697.57 0)
(-3200 -1608.94 0)
(-3101.11 -1519.23 0)
(-2982.83 -1428.94 0)
(-2839.29 -1338.68 0)
(-2660.96 -1249.32 0)
(-2445.05 -1162.06 0)
(-2212.06 -1077.89 0)
(-2017.16 -999.116 0)
(-1912.05 -922.944 0)
(-1669.68 -843.871 0)
(-755.971 -733.682 0)
(140204 -668.788 0)
(-176444 -1778.02 0)
(131221 37837.9 0)
(-92104.5 -4077.66 0)
(3360.23 -3276.58 0)
(1865.47 -3056.35 0)
(1188.39 -2401.78 0)
(909.169 -2087.55 0)
(1033.48 -1963.36 0)
(1287.25 -1919.89 0)
(1639.37 -1950.91 0)
(1996.7 -1985.91 0)
(2333.62 -2040.78 0)
(2620.67 -2108.08 0)
(2843.13 -2190.85 0)
(3003.08 -2283.94 0)
(3106.77 -2382.75 0)
(3149.12 -2484.14 0)
(3086.04 -2585.4 0)
(2772.11 -2681.73 0)
(2034.38 -2761.71 0)
(754.613 -2807.24 0)
(-838.082 -2801.66 0)
(-2128.78 -2743.84 0)
(-2863.27 -2659.89 0)
(-3181.64 -2562.59 0)
(-3257.57 -2460.57 0)
(-3241.46 -2356.62 0)
(-3184.91 -2251.85 0)
(-3104.32 -2146.91 0)
(-3005.02 -2042.35 0)
(-2886.95 -1938.71 0)
(-2744.41 -1836.59 0)
(-2568.13 -1736.94 0)
(-2355.42 -1641.09 0)
(-2127.11 -1550.48 0)
(-1936.81 -1465.83 0)
(-1828.9 -1384.56 0)
(-1569.81 -1280.49 0)
(-667.564 -1169 0)
(139469 -1118.6 0)
(-174887 -4743.81 0)
(142741 23633.9 0)
(-106404 -1824.79 0)
(3088.27 -2896.27 0)
(2106.05 -2886.63 0)
(1387.3 -2831.8 0)
(1051.75 -2593.06 0)
(1112.14 -2506.19 0)
(1307.28 -2440.71 0)
(1614.5 -2441.84 0)
(1957.27 -2456.57 0)
(2276.39 -2492.06 0)
(2546.69 -2549.83 0)
(2755.06 -2627.3 0)
(2905.66 -2719.02 0)
(3003.94 -2819.86 0)
(3043.81 -2926.07 0)
(2982.01 -3034.56 0)
(2678.11 -3139.89 0)
(1966.67 -3228.99 0)
(732.897 -3281.58 0)
(-803.534 -3275.17 0)
(-2052.03 -3207.85 0)
(-2766.12 -3112.49 0)
(-3076.01 -3004.28 0)
(-3149.68 -2893.16 0)
(-3133.39 -2782.18 0)
(-3077.5 -2672.38 0)
(-2998.12 -2564.31 0)
(-2900.48 -2458.41 0)
(-2784.55 -2355.07 0)
(-2644.85 -2254.91 0)
(-2472.57 -2158.99 0)
(-2265.38 -2068.96 0)
(-2043.17 -1986.61 0)
(-1857.26 -1909.02 0)
(-1733.45 -1832.95 0)
(-1461.97 -1719.16 0)
(-599.972 -1639.59 0)
(136759 -1653.49 0)
(-170624 -9654 0)
(152300 7306.04 0)
(-117670 -1696.36 0)
(2337 -2641.44 0)
(1927.6 -2885.79 0)
(1471.29 -2929.61 0)
(1222.93 -2775.73 0)
(1180.29 -2717.85 0)
(1349.26 -2656.56 0)
(1624.08 -2622.65 0)
(1948.31 -2613.55 0)
(2243.75 -2630.25 0)
(2490.35 -2675.28 0)
(2680.09 -2743.52 0)
(2817.52 -2828.52 0)
(2907.25 -2924.88 0)
(2942.22 -3028.34 0)
(2879.99 -3135.15 0)
(2584.75 -3239.56 0)
(1897.84 -3328.81 0)
(710.12 -3383.76 0)
(-767.03 -3377.33 0)
(-1972.02 -3306.49 0)
(-2667.1 -3208.53 0)
(-2970.29 -3099.15 0)
(-3043.55 -2988.46 0)
(-3028.71 -2879.29 0)
(-2974.97 -2772.46 0)
(-2898.12 -2668.35 0)
(-2803.38 -2567.26 0)
(-2690.86 -2469.65 0)
(-2555.46 -2376.1 0)
(-2388.94 -2288.24 0)
(-2189.31 -2207.67 0)
(-1972.99 -2136.19 0)
(-1788.74 -2065.24 0)
(-1645.94 -1992.94 0)
(-1383.48 -1890.83 0)
(-604.284 -1867.39 0)
(131746 -1957.42 0)
(-163642 -14056.3 0)
(148157 -5189.84 0)
(-115990 -2117.31 0)
(1942.1 -2597.51 0)
(1828.35 -2769.41 0)
(1493.36 -2779.17 0)
(1255.81 -2805.85 0)
(1226.97 -2772.18 0)
(1399.01 -2723.81 0)
(1655.95 -2674.87 0)
(1949.95 -2656.6 0)
(2216.89 -2668.69 0)
(2437.54 -2711 0)
(2607.4 -2777.13 0)
(2730.9 -2860.32 0)
(2811.39 -2954.99 0)
(2841.18 -3056.72 0)
(2778.47 -3161.61 0)
(2491.49 -3264.33 0)
(1827.72 -3353.17 0)
(686.143 -3410.53 0)
(-729.081 -3404.52 0)
(-1889.37 -3331.28 0)
(-2566.32 -3231.81 0)
(-2863.94 -3122.08 0)
(-2937.81 -3012.11 0)
(-2925.24 -2904.44 0)
(-2874.24 -2799.67 0)
(-2800.39 -2697.94 0)
(-2709 -2599.61 0)
(-2600.34 -2504.83 0)
(-2470.05 -2414.98 0)
(-2310.27 -2331.17 0)
(-2118.85 -2255.54 0)
(-1905.92 -2188.81 0)
(-1719.22 -2116.53 0)
(-1565.38 -2042.89 0)
(-1340.99 -1962.26 0)
(-664.14 -1988.79 0)
(125014 -2120.12 0)
(-154681 -16996.7 0)
(144907 -9008.05 0)
(-115172 -2200.75 0)
(1708.61 -2505.93 0)
(1752.55 -2619.11 0)
(1436.18 -2668.54 0)
(1229.66 -2748.38 0)
(1259.34 -2732.71 0)
(1443.04 -2694.55 0)
(1688.85 -2651.77 0)
(1954.26 -2633.61 0)
(2191.33 -2647.63 0)
(2385.85 -2689.96 0)
(2536.2 -2755.66 0)
(2646.13 -2837.15 0)
(2717.99 -2929.1 0)
(2743.12 -3027.12 0)
(2679.93 -3127.88 0)
(2400.16 -3227.21 0)
(1756.96 -3314.88 0)
(660.64 -3374.88 0)
(-690.662 -3369.74 0)
(-1805.6 -3295.14 0)
(-2465.5 -3195.35 0)
(-2758.58 -3086.49 0)
(-2833.82 -2978.31 0)
(-2824 -2872.97 0)
(-2775.98 -2770.77 0)
(-2705.34 -2671.85 0)
(-2617.29 -2576.04 0)
(-2512.95 -2484.65 0)
(-2388.11 -2397.11 0)
(-2235.29 -2318.1 0)
(-2052.14 -2244.94 0)
(-1839.04 -2181.22 0)
(-1648.12 -2106.5 0)
(-1497.29 -2035.3 0)
(-1331.35 -1979.43 0)
(-756.403 -2037.81 0)
(117284 -2178.99 0)
(-144596 -18457.5 0)
(136896 -13807 0)
(-109724 -2196.78 0)
(1538.95 -2414.16 0)
(1671.66 -2514.59 0)
(1368.79 -2573.29 0)
(1193.97 -2647.69 0)
(1278.84 -2645.71 0)
(1477 -2620.52 0)
(1714.68 -2586.96 0)
(1953.94 -2578.15 0)
(2162.59 -2595.16 0)
(2333.44 -2641.08 0)
(2465.56 -2706.3 0)
(2563.76 -2785.95 0)
(2628.33 -2873.92 0)
(2649.64 -2966.86 0)
(2585.65 -3062.42 0)
(2311.29 -3157.99 0)
(1685.42 -3244.82 0)
(633.282 -3307.92 0)
(-652.241 -3303.91 0)
(-1721.32 -3228.44 0)
(-2365.26 -3128.87 0)
(-2654.79 -3021.48 0)
(-2732.05 -2915.66 0)
(-2725.25 -2813.07 0)
(-2680.43 -2713.85 0)
(-2612.74 -2617.57 0)
(-2528.61 -2525.3 0)
(-2427.92 -2435.39 0)
(-2309.56 -2353.35 0)
(-2163.64 -2274.92 0)
(-1986.95 -2206.54 0)
(-1772.51 -2143.85 0)
(-1578.61 -2068.74 0)
(-1442.93 -2004.84 0)
(-1343.41 -1968.65 0)
(-856.437 -2039.78 0)
(109191 -2168.35 0)
(-134112 -19222.9 0)
(128942 -15125.5 0)
(-104193 -2182.72 0)
(1402.36 -2329.47 0)
(1599.2 -2404.8 0)
(1307.92 -2466.57 0)
(1159.88 -2527.27 0)
(1285.53 -2534.13 0)
(1499.65 -2521.38 0)
(1729.68 -2502.56 0)
(1946.36 -2497.82 0)
(2130.68 -2524.89 0)
(2278.75 -2570.78 0)
(2396.61 -2636.83 0)
(2484.61 -2712.86 0)
(2543.65 -2796.05 0)
(2561.47 -2883.27 0)
(2495.75 -2973.68 0)
(2224.38 -3066.13 0)
(1612.48 -3153.02 0)
(603.701 -3219.56 0)
(-614.079 -3216.79 0)
(-1636.92 -3140.72 0)
(-2266.06 -3041.7 0)
(-2553.12 -2936.25 0)
(-2632.99 -2833.26 0)
(-2629.53 -2733.92 0)
(-2587.6 -2637.79 0)
(-2523.65 -2545.33 0)
(-2441.73 -2454.74 0)
(-2347.25 -2371.23 0)
(-2233.48 -2287.06 0)
(-2093.81 -2218.48 0)
(-1925.83 -2146.25 0)
(-1706.25 -2088.6 0)
(-1514.17 -2016.35 0)
(-1400.84 -1961.34 0)
(-1365.02 -1936.69 0)
(-948.841 -2004.08 0)
(100726 -2111.06 0)
(-123263 -19281.1 0)
(119710 -17228.4 0)
(-97393.3 -2140.42 0)
(1324.94 -2238.76 0)
(1539.54 -2291.44 0)
(1250.78 -2358.17 0)
(1128.87 -2405.79 0)
(1284.52 -2415.33 0)
(1507.43 -2414.22 0)
(1737.37 -2397.92 0)
(1932.42 -2410.09 0)
(2092.29 -2434.5 0)
(2225.57 -2486.53 0)
(2328.65 -2548.28 0)
(2410.33 -2620.93 0)
(2464.12 -2698.33 0)
(2478.47 -2780.11 0)
(2409.44 -2866.12 0)
(2138.47 -2956.48 0)
(1537.58 -3044.35 0)
(571.834 -3114.09 0)
(-576.272 -3112.46 0)
(-1552.6 -3036.12 0)
(-2168.22 -2937.8 0)
(-2453.93 -2834.66 0)
(-2537.08 -2735 0)
(-2536.89 -2639.24 0)
(-2498.71 -2547.21 0)
(-2436.35 -2457.57 0)
(-2360.84 -2373.41 0)
(-2266.34 -2288.42 0)
(-2162.36 -2215.84 0)
(-2027.94 -2141 0)
(-1861.79 -2077.2 0)
(-1647.33 -2022.18 0)
(-1455.97 -1953.73 0)
(-1366.17 -1910.67 0)
(-1384.6 -1892.57 0)
(-1024.46 -1946.19 0)
(92542.2 -2025.96 0)
(-112769 -19233.2 0)
(109689 -18014 0)
(-89748.7 -2032.67 0)
(1256.83 -2112.99 0)
(1484.13 -2167.61 0)
(1197.73 -2248.1 0)
(1104.8 -2286.69 0)
(1277.41 -2288.92 0)
(1516.43 -2291.98 0)
(1733.66 -2285.6 0)
(1911.11 -2298.1 0)
(2057.02 -2334.65 0)
(2169.11 -2381.18 0)
(2267.09 -2441.98 0)
(2340.01 -2508.02 0)
(2390.26 -2580.02 0)
(2399.78 -2656.61 0)
(2325.79 -2738.99 0)
(2052.63 -2827.97 0)
(1460.61 -2917.23 0)
(538.064 -2989.54 0)
(-538.94 -2988.8 0)
(-1468.61 -2912.49 0)
(-2071.93 -2815.11 0)
(-2357.69 -2714.82 0)
(-2444.67 -2619.12 0)
(-2448.57 -2527.94 0)
(-2412.54 -2440.22 0)
(-2356.17 -2356.69 0)
(-2278.73 -2274.33 0)
(-2195.41 -2199.72 0)
(-2091.41 -2121.25 0)
(-1960.21 -2057.27 0)
(-1811.33 -1990.4 0)
(-1587.26 -1935.4 0)
(-1406.71 -1881.25 0)
(-1341.91 -1842.26 0)
(-1399.25 -1823.9 0)
(-1077.38 -1855.12 0)
(84067.4 -1914.83 0)
(-102038 -18844 0)
(99777.7 -18640 0)
(-82070.5 -1946.25 0)
(1194.91 -2009.6 0)
(1409.34 -2081.99 0)
(1136.03 -2156.54 0)
(1089.53 -2172.92 0)
(1279.42 -2162.45 0)
(1510.64 -2156.13 0)
(1731.47 -2159.99 0)
(1885.15 -2178.9 0)
(2012.24 -2212.52 0)
(2122.15 -2258 0)
(2206.42 -2311.11 0)
(2277.3 -2371.21 0)
(2320.94 -2436.66 0)
(2325.28 -2508.13 0)
(2244.3 -2586.9 0)
(1966.7 -2674.41 0)
(1381.89 -2764.68 0)
(502.872 -2838.67 0)
(-502.025 -2838.52 0)
(-1385.22 -2762.51 0)
(-1977.73 -2666.6 0)
(-2265.07 -2570.08 0)
(-2357 -2479.59 0)
(-2364.49 -2394.29 0)
(-2333.68 -2313.21 0)
(-2276.49 -2235.6 0)
(-2209.58 -2161.79 0)
(-2118.82 -2091.16 0)
(-2025.09 -2021.69 0)
(-1901.86 -1960.34 0)
(-1744.36 -1891.72 0)
(-1542.14 -1846.78 0)
(-1366.22 -1795.62 0)
(-1310.91 -1770.43 0)
(-1396.99 -1755.88 0)
(-1112.09 -1768.44 0)
(76171 -1805.6 0)
(-92031.8 -18364.8 0)
(89206.1 -18839.4 0)
(-73723 -1836.25 0)
(1126.03 -1882.59 0)
(1342.53 -1974.16 0)
(1110.11 -2018.98 0)
(1099.11 -2018.14 0)
(1293.58 -1985.09 0)
(1518.8 -1994.47 0)
(1711.72 -1990.13 0)
(1860.49 -2025.87 0)
(1980.8 -2053.1 0)
(2074.11 -2100.88 0)
(2157.99 -2148.85 0)
(2219.03 -2204.22 0)
(2258.31 -2263.95 0)
(2255 -2330.14 0)
(2165.57 -2404.59 0)
(1881.32 -2489.61 0)
(1302.32 -2579.76 0)
(466.906 -2654.24 0)
(-465.556 -2654.41 0)
(-1302.94 -2579.24 0)
(-1886.49 -2485.67 0)
(-2177.48 -2394.2 0)
(-2275.28 -2310.46 0)
(-2288.24 -2232.39 0)
(-2259.61 -2158.45 0)
(-2210.25 -2086.59 0)
(-2139.55 -2019.53 0)
(-2060.41 -1949.14 0)
(-1965.34 -1891.37 0)
(-1834.97 -1819.94 0)
(-1701.9 -1767.75 0)
(-1494.66 -1709.91 0)
(-1333.13 -1673.86 0)
(-1303.62 -1655.84 0)
(-1397.34 -1642.18 0)
(-1125.29 -1636.52 0)
(68074.5 -1661.38 0)
(-81871.1 -17534.1 0)
(79191.4 -18740.3 0)
(-65730.3 -1769.37 0)
(1062.02 -1798.81 0)
(1277.92 -1869.01 0)
(1093.65 -1883.51 0)
(1122.18 -1844.08 0)
(1302.23 -1810.17 0)
(1505.78 -1799.89 0)
(1701.22 -1820.22 0)
(1824.47 -1834.89 0)
(1939.96 -1876.75 0)
(2029.89 -1912.72 0)
(2106.83 -1961.89 0)
(2166.38 -2012.2 0)
(2199.6 -2067.83 0)
(2189.76 -2128.6 0)
(2090.64 -2197.71 0)
(1797.89 -2278.63 0)
(1223.25 -2367.2 0)
(430.945 -2441.09 0)
(-429.75 -2441.36 0)
(-1222.62 -2367.5 0)
(-1799.43 -2277.25 0)
(-2096.23 -2192.3 0)
(-2201.08 -2116.59 0)
(-2218.01 -2046.63 0)
(-2193.18 -1979.21 0)
(-2142.62 -1914.77 0)
(-2077.13 -1848.48 0)
(-1995.32 -1793.47 0)
(-1900.59 -1725.89 0)
(-1782.73 -1682.7 0)
(-1638.33 -1617.43 0)
(-1451.67 -1575.2 0)
(-1314.12 -1551.99 0)
(-1280.38 -1545.8 0)
(-1378.37 -1539.26 0)
(-1130.58 -1524.6 0)
(60851.5 -1535.57 0)
(-72833.9 -16655.9 0)
(68763.4 -18097.7 0)
(-57397.6 -1691.38 0)
(1030.01 -1714.15 0)
(1260.91 -1738.42 0)
(1134.13 -1719.97 0)
(1169.77 -1628.24 0)
(1336.17 -1603.84 0)
(1509.12 -1565.38 0)
(1677.98 -1589.31 0)
(1806.01 -1608.29 0)
(1905.8 -1642.96 0)
(1992.06 -1687.71 0)
(2062.14 -1739.34 0)
(2116.94 -1798.03 0)
(2146.15 -1859.59 0)
(2129.85 -1923.37 0)
(2020.99 -1991.15 0)
(1717.99 -2068.33 0)
(1145.76 -2153.78 0)
(395.444 -2225.41 0)
(-394.646 -2225.65 0)
(-1144.8 -2154.35 0)
(-1717.66 -2068.38 0)
(-2022.65 -1989.1 0)
(-2134.9 -1917.23 0)
(-2155.86 -1847.08 0)
(-2132.55 -1776.76 0)
(-2084.28 -1706.75 0)
(-2022.66 -1641.44 0)
(-1942.27 -1579.42 0)
(-1858.6 -1526.9 0)
(-1730.46 -1480.2 0)
(-1598.31 -1432.16 0)
(-1431.59 -1413.58 0)
(-1304.8 -1401.44 0)
(-1291.35 -1420.14 0)
(-1376.91 -1431.26 0)
(-1121.73 -1416.59 0)
(53493.4 -1415.05 0)
(-63670.9 -15593.9 0)
(59441.2 -16945.9 0)
(-49942.6 -1565.46 0)
(1016.69 -1586.82 0)
(1272.32 -1593.16 0)
(1199.82 -1564.24 0)
(1234.09 -1462.56 0)
(1362.8 -1436.25 0)
(1519.78 -1397.56 0)
(1659.87 -1409.57 0)
(1772.78 -1425.87 0)
(1863.43 -1456.86 0)
(1937.01 -1498.34 0)
(2000.52 -1550.33 0)
(2050.51 -1612.26 0)
(2078.82 -1681.3 0)
(2062.98 -1752.48 0)
(1950.95 -1823.15 0)
(1641.18 -1898.85 0)
(1071.89 -1981.62 0)
(361.688 -2051.2 0)
(-361.276 -2051.36 0)
(-1071.07 -1982.15 0)
(-1640.19 -1899.47 0)
(-1950.58 -1823.01 0)
(-2064.22 -1750.23 0)
(-2082.65 -1675.26 0)
(-2057.96 -1600.48 0)
(-2012.22 -1530.59 0)
(-1954.43 -1468.67 0)
(-1884.95 -1414.06 0)
(-1804.97 -1370.03 0)
(-1691.44 -1330.64 0)
(-1574.13 -1306.13 0)
(-1422.07 -1296.27 0)
(-1320.44 -1308.27 0)
(-1309.12 -1336.53 0)
(-1374.95 -1348.25 0)
(-1114.96 -1318.48 0)
(47189.7 -1300.2 0)
(-55824 -14414.6 0)
(50233.9 -14853.5 0)
(-42597 -1405.5 0)
(1003.31 -1465.78 0)
(1282.68 -1496.9 0)
(1259.98 -1487.9 0)
(1293.1 -1413.21 0)
(1398.81 -1393.54 0)
(1534.83 -1352.13 0)
(1650.71 -1370.84 0)
(1760.44 -1365.28 0)
(1835.97 -1382.92 0)
(1901.99 -1397.79 0)
(1952.35 -1423.92 0)
(1990.73 -1462.25 0)
(2011.03 -1517.55 0)
(1993.16 -1590.27 0)
(1879.94 -1674.9 0)
(1565.29 -1771.19 0)
(998.953 -1866.41 0)
(328.244 -1934.03 0)
(-328.106 -1934.11 0)
(-998.437 -1866.76 0)
(-1564.31 -1771.87 0)
(-1878.84 -1675.6 0)
(-1992.53 -1590.24 0)
(-2011.56 -1515.66 0)
(-1993.14 -1457.09 0)
(-1957.26 -1413.71 0)
(-1910.36 -1380.93 0)
(-1847.21 -1356.58 0)
(-1778.21 -1329.56 0)
(-1668.89 -1317.57 0)
(-1565.19 -1290.86 0)
(-1433.65 -1296.94 0)
(-1343.6 -1306.22 0)
(-1329.87 -1326.05 0)
(-1359.52 -1315.25 0)
(-1075.43 -1249.52 0)
(40873.5 -1177.36 0)
(-47940 -12836.1 0)
(43193.6 -12846.3 0)
(-37041.7 -1158.35 0)
(928.616 -1301.43 0)
(1251.01 -1394.73 0)
(1280.46 -1436.08 0)
(1325.02 -1421.92 0)
(1421.67 -1423.07 0)
(1541.64 -1406.17 0)
(1647.2 -1419.4 0)
(1761.14 -1401.33 0)
(1832.1 -1387.33 0)
(1897.51 -1355.99 0)
(1938.39 -1321.63 0)
(1960.28 -1289.36 0)
(1955.45 -1273.7 0)
(1911.35 -1291.18 0)
(1776.61 -1355.89 0)
(1456.64 -1452.57 0)
(914.963 -1559.76 0)
(296.445 -1636.42 0)
(-296.452 -1636.44 0)
(-914.73 -1559.92 0)
(-1455.98 -1453.04 0)
(-1775.55 -1356.65 0)
(-1910.09 -1291.96 0)
(-1954.34 -1273.97 0)
(-1959.72 -1288.3 0)
(-1938.83 -1318.16 0)
(-1899.37 -1349.01 0)
(-1835.44 -1375.01 0)
(-1767.38 -1383.5 0)
(-1654.14 -1390.98 0)
(-1554.25 -1372.72 0)
(-1436.88 -1369.3 0)
(-1348.5 -1360.01 0)
(-1317.83 -1341.74 0)
(-1301.21 -1280.25 0)
(-982.086 -1155.42 0)
(36024.5 -997.002 0)
(-41868.6 -11226.6 0)
(36658.2 -5878.35 0)
(-31472 -621.892 0)
(775.535 -825.073 0)
(1152.91 -982.989 0)
(1233.77 -1067.46 0)
(1305.64 -1092.75 0)
(1413.99 -1094.74 0)
(1538.38 -1090.59 0)
(1655.38 -1076.91 0)
(1791.34 -1048.15 0)
(1879.66 -998.925 0)
(1965.3 -929.166 0)
(2016.56 -838.036 0)
(2036.92 -731.032 0)
(2009.28 -621.394 0)
(1913.95 -528.631 0)
(1724.41 -473.074 0)
(1368.83 -508.795 0)
(821.793 -608.693 0)
(254.353 -688.955 0)
(-254.393 -688.954 0)
(-821.699 -608.735 0)
(-1368.43 -509.018 0)
(-1723.63 -473.57 0)
(-1912.86 -529.347 0)
(-2008.03 -622.14 0)
(-2035.72 -731.613 0)
(-2015.76 -838.091 0)
(-1965.14 -928.22 0)
(-1880.45 -996.288 0)
(-1793.61 -1043.58 0)
(-1658.49 -1068.43 0)
(-1544.3 -1079.93 0)
(-1421.41 -1075.97 0)
(-1317.05 -1069.78 0)
(-1253.01 -1030.1 0)
(-1179.97 -931.762 0)
(-802.487 -754.497 0)
(31168.6 -536.061 0)
(-36201.7 -4963.89 0)
(36069.7 397745 0)
(-32172.2 33621 0)
(580.65 32968.8 0)
(1017.43 38734.6 0)
(1174.69 44197.1 0)
(1298.73 51325.1 0)
(1423.75 58395.3 0)
(1558.82 66735.2 0)
(1688.09 74857.4 0)
(1836.28 83918.3 0)
(1946.76 92741.6 0)
(2052.54 102169 0)
(2129.32 111243 0)
(2169.05 120489 0)
(2150.49 129227 0)
(2054.28 137218 0)
(1795.73 143624 0)
(1325.95 147656 0)
(741.354 149239 0)
(219.104 149491 0)
(-219.149 149491 0)
(-741.337 149239 0)
(-1325.73 147656 0)
(-1795.14 143623 0)
(-2053.26 137217 0)
(-2149.25 129226 0)
(-2167.82 120487 0)
(-2128.29 111242 0)
(-2051.82 102170 0)
(-1946.6 92744.9 0)
(-1836.9 83925.2 0)
(-1689.18 74869.6 0)
(-1561.51 66752.4 0)
(-1427.09 58421 0)
(-1304.29 51357.7 0)
(-1184.83 44241.3 0)
(-1035.63 38791.6 0)
(-600.774 33036.3 0)
(31968.1 33695.3 0)
(-35754.8 397958 0)
(448150 -464828 0)
(-382984 -37586.7 0)
(5703.18 -38270.5 0)
(11972.8 -44978.3 0)
(13366.4 -51735.2 0)
(14987.6 -60548.1 0)
(16263.7 -69273.8 0)
(17401.8 -79577.4 0)
(18213.7 -89679.5 0)
(19025.2 -100984 0)
(19466.5 -112112 0)
(19794.2 -123992 0)
(19670.2 -135574 0)
(19367.1 -147389 0)
(18130.4 -158680 0)
(15786.6 -169136 0)
(11783.2 -177801 0)
(6780.49 -183678 0)
(2589.73 -186471 0)
(496.901 -187233 0)
(-496.953 -187233 0)
(-2589.87 -186471 0)
(-6780.7 -183678 0)
(-11783.4 -177801 0)
(-15786.5 -169137 0)
(-18129.5 -158681 0)
(-19365.2 -147391 0)
(-19667.1 -135578 0)
(-19789.9 -123999 0)
(-19461.3 -112122 0)
(-19018.9 -100997 0)
(-18206.9 -89695.7 0)
(-17394.7 -79596.8 0)
(-16256.3 -69295.5 0)
(-14981.1 -60572.8 0)
(-13362.1 -51759.1 0)
(-11977.5 -44998.5 0)
(-5713.48 -38270.5 0)
(382820 -37575.7 0)
(-448022 -464441 0)
(448150 464828 0)
(-382984 37586.7 0)
(5703.18 38270.5 0)
(11972.8 44978.3 0)
(13366.4 51735.2 0)
(14987.6 60548.1 0)
(16263.7 69273.8 0)
(17401.8 79577.4 0)
(18213.7 89679.5 0)
(19025.2 100984 0)
(19466.5 112112 0)
(19794.2 123992 0)
(19670.2 135574 0)
(19367.1 147389 0)
(18130.4 158680 0)
(15786.6 169136 0)
(11783.2 177801 0)
(6780.49 183678 0)
(2589.73 186471 0)
(496.901 187233 0)
(-496.953 187233 0)
(-2589.87 186471 0)
(-6780.7 183678 0)
(-11783.4 177801 0)
(-15786.5 169137 0)
(-18129.5 158681 0)
(-19365.2 147391 0)
(-19667.1 135578 0)
(-19789.9 123999 0)
(-19461.3 112122 0)
(-19018.9 100997 0)
(-18206.9 89695.7 0)
(-17394.7 79596.8 0)
(-16256.3 69295.5 0)
(-14981.1 60572.8 0)
(-13362.1 51759.1 0)
(-11977.5 44998.5 0)
(-5713.48 38270.5 0)
(382820 37575.7 0)
(-448022 464441 0)
(36069.7 -397745 0)
(-32172.2 -33621 0)
(580.65 -32968.8 0)
(1017.43 -38734.6 0)
(1174.69 -44197.1 0)
(1298.73 -51325.1 0)
(1423.75 -58395.3 0)
(1558.82 -66735.2 0)
(1688.09 -74857.4 0)
(1836.28 -83918.3 0)
(1946.76 -92741.6 0)
(2052.54 -102169 0)
(2129.32 -111243 0)
(2169.05 -120489 0)
(2150.49 -129227 0)
(2054.28 -137218 0)
(1795.73 -143624 0)
(1325.95 -147656 0)
(741.354 -149239 0)
(219.104 -149491 0)
(-219.149 -149491 0)
(-741.337 -149239 0)
(-1325.73 -147656 0)
(-1795.14 -143623 0)
(-2053.26 -137217 0)
(-2149.25 -129226 0)
(-2167.82 -120487 0)
(-2128.29 -111242 0)
(-2051.82 -102170 0)
(-1946.6 -92744.9 0)
(-1836.9 -83925.2 0)
(-1689.18 -74869.6 0)
(-1561.51 -66752.4 0)
(-1427.09 -58421 0)
(-1304.29 -51357.7 0)
(-1184.83 -44241.3 0)
(-1035.63 -38791.6 0)
(-600.774 -33036.3 0)
(31968.1 -33695.3 0)
(-35754.8 -397958 0)
(36658.2 5878.35 0)
(-31472 621.892 0)
(775.535 825.073 0)
(1152.91 982.989 0)
(1233.77 1067.46 0)
(1305.64 1092.75 0)
(1413.99 1094.74 0)
(1538.38 1090.59 0)
(1655.38 1076.91 0)
(1791.34 1048.15 0)
(1879.66 998.925 0)
(1965.3 929.166 0)
(2016.56 838.036 0)
(2036.92 731.032 0)
(2009.28 621.394 0)
(1913.95 528.631 0)
(1724.41 473.074 0)
(1368.83 508.795 0)
(821.793 608.693 0)
(254.353 688.955 0)
(-254.393 688.954 0)
(-821.699 608.735 0)
(-1368.43 509.018 0)
(-1723.63 473.57 0)
(-1912.86 529.347 0)
(-2008.03 622.14 0)
(-2035.72 731.613 0)
(-2015.76 838.091 0)
(-1965.14 928.22 0)
(-1880.45 996.288 0)
(-1793.61 1043.58 0)
(-1658.49 1068.43 0)
(-1544.3 1079.93 0)
(-1421.41 1075.97 0)
(-1317.05 1069.78 0)
(-1253.01 1030.1 0)
(-1179.97 931.762 0)
(-802.487 754.497 0)
(31168.6 536.061 0)
(-36201.7 4963.89 0)
(43193.6 12846.3 0)
(-37041.7 1158.35 0)
(928.616 1301.43 0)
(1251.01 1394.73 0)
(1280.46 1436.08 0)
(1325.02 1421.92 0)
(1421.67 1423.07 0)
(1541.64 1406.17 0)
(1647.2 1419.4 0)
(1761.14 1401.33 0)
(1832.1 1387.33 0)
(1897.51 1355.99 0)
(1938.39 1321.63 0)
(1960.28 1289.36 0)
(1955.45 1273.7 0)
(1911.35 1291.18 0)
(1776.61 1355.89 0)
(1456.64 1452.57 0)
(914.963 1559.76 0)
(296.445 1636.42 0)
(-296.452 1636.44 0)
(-914.73 1559.92 0)
(-1455.98 1453.04 0)
(-1775.55 1356.65 0)
(-1910.09 1291.96 0)
(-1954.34 1273.97 0)
(-1959.72 1288.3 0)
(-1938.83 1318.16 0)
(-1899.37 1349.01 0)
(-1835.44 1375.01 0)
(-1767.38 1383.5 0)
(-1654.14 1390.98 0)
(-1554.25 1372.72 0)
(-1436.88 1369.3 0)
(-1348.5 1360.01 0)
(-1317.83 1341.74 0)
(-1301.21 1280.25 0)
(-982.086 1155.42 0)
(36024.5 997.002 0)
(-41868.6 11226.6 0)
(50233.9 14853.5 0)
(-42597 1405.5 0)
(1003.31 1465.78 0)
(1282.68 1496.9 0)
(1259.98 1487.9 0)
(1293.1 1413.21 0)
(1398.81 1393.54 0)
(1534.83 1352.13 0)
(1650.71 1370.84 0)
(1760.44 1365.28 0)
(1835.97 1382.92 0)
(1901.99 1397.79 0)
(1952.35 1423.92 0)
(1990.73 1462.25 0)
(2011.03 1517.55 0)
(1993.16 1590.27 0)
(1879.94 1674.9 0)
(1565.29 1771.19 0)
(998.953 1866.41 0)
(328.244 1934.03 0)
(-328.106 1934.11 0)
(-998.437 1866.76 0)
(-1564.31 1771.87 0)
(-1878.84 1675.6 0)
(-1992.53 1590.24 0)
(-2011.56 1515.66 0)
(-1993.14 1457.09 0)
(-1957.26 1413.71 0)
(-1910.36 1380.93 0)
(-1847.21 1356.58 0)
(-1778.21 1329.56 0)
(-1668.89 1317.57 0)
(-1565.19 1290.86 0)
(-1433.65 1296.94 0)
(-1343.6 1306.22 0)
(-1329.87 1326.05 0)
(-1359.52 1315.25 0)
(-1075.43 1249.52 0)
(40873.5 1177.36 0)
(-47940 12836.1 0)
(59441.2 16945.9 0)
(-49942.6 1565.46 0)
(1016.69 1586.82 0)
(1272.32 1593.16 0)
(1199.82 1564.24 0)
(1234.09 1462.56 0)
(1362.8 1436.25 0)
(1519.78 1397.56 0)
(1659.87 1409.57 0)
(1772.78 1425.87 0)
(1863.43 1456.86 0)
(1937.01 1498.34 0)
(2000.52 1550.33 0)
(2050.51 1612.26 0)
(2078.82 1681.3 0)
(2062.98 1752.48 0)
(1950.95 1823.15 0)
(1641.18 1898.85 0)
(1071.89 1981.62 0)
(361.688 2051.2 0)
(-361.276 2051.36 0)
(-1071.07 1982.15 0)
(-1640.19 1899.47 0)
(-1950.58 1823.01 0)
(-2064.22 1750.23 0)
(-2082.65 1675.26 0)
(-2057.96 1600.48 0)
(-2012.22 1530.59 0)
(-1954.43 1468.67 0)
(-1884.95 1414.06 0)
(-1804.97 1370.03 0)
(-1691.44 1330.64 0)
(-1574.13 1306.13 0)
(-1422.07 1296.27 0)
(-1320.44 1308.27 0)
(-1309.12 1336.53 0)
(-1374.95 1348.25 0)
(-1114.96 1318.48 0)
(47189.7 1300.2 0)
(-55824 14414.6 0)
(68763.4 18097.7 0)
(-57397.6 1691.38 0)
(1030.01 1714.15 0)
(1260.91 1738.42 0)
(1134.13 1719.97 0)
(1169.77 1628.24 0)
(1336.17 1603.84 0)
(1509.12 1565.38 0)
(1677.98 1589.31 0)
(1806.01 1608.29 0)
(1905.8 1642.96 0)
(1992.06 1687.71 0)
(2062.14 1739.34 0)
(2116.94 1798.03 0)
(2146.15 1859.59 0)
(2129.85 1923.37 0)
(2020.99 1991.15 0)
(1717.99 2068.33 0)
(1145.76 2153.78 0)
(395.444 2225.41 0)
(-394.646 2225.65 0)
(-1144.8 2154.35 0)
(-1717.66 2068.38 0)
(-2022.65 1989.1 0)
(-2134.9 1917.23 0)
(-2155.86 1847.08 0)
(-2132.55 1776.76 0)