/*--------------------------------*- C++ -*----------------------------------*\
| =========                 |                                                 |
| \\      /  F ield         | OpenFOAM: The Open Source CFD Toolbox           |
|  \\    /   O peration     | Version:  v1912                                 |
|   \\  /    A nd           | Website:  www.openfoam.com                      |
|    \\/     M anipulation  |                                                 |
\*---------------------------------------------------------------------------*/
FoamFile
{
    version     2.0;
    format      ascii;
    class       volScalarField;
    location    "1.52";
    object      Ma;
}
// * * * * * * * * * * * * * * * * * * * * * * * * * * * * * * * * * * * * * //

dimensions      [0 0 0 0 0 0 0];


internalField   nonuniform List<scalar> 
1900
(
0.000334129
0.00366985
0.0144173
0.0292783
0.0409642
0.0470143
0.0501772
0.050542
0.0498454
0.0448698
0.00033395
0.00367049
0.0144213
0.0292733
0.0409105
0.0468461
0.0497092
0.0497624
0.0502191
0.0509415
0.000333927
0.00367149
0.0144218
0.0292569
0.0408616
0.0467471
0.0495189
0.049556
0.0506988
0.0541954
0.00033395
0.00367049
0.0144213
0.0292733
0.0409105
0.0468461
0.0497092
0.0497624
0.0502191
0.0509415
0.000334129
0.00366985
0.0144173
0.0292783
0.0409642
0.0470143
0.0501772
0.050542
0.0498454
0.0448698
0.0505335
0.0669024
0.0854543
0.113794
0.188706
0.0605257
0.076269
0.0988198
0.140624
0.217762
0.0633864
0.0777772
0.101636
0.146731
0.22273
0.0605257
0.076269
0.0988198
0.140624
0.217762
0.0505335
0.0669024
0.0854543
0.113794
0.188706
0.219826
0.1895
0.176725
0.178809
0.268304
0.22876
0.19729
0.172359
0.144483
0.142882
0.234263
0.200221
0.168557
0.118972
0.0193268
0.22876
0.19729
0.172359
0.144483
0.142882
0.219826
0.1895
0.176725
0.178809
0.268304
0.492543
0.185117
0.247593
0.293752
0.325578
0.324679
0.292697
0.249165
0.198213
0.145489
0.0948954
0.0507759
0.0190095
0.00377318
0.000269182
4.50897e-06
1.2031e-08
3.6838e-12
7.03759e-16
1.16712e-16
2.37192e-16
2.90101e-16
5.12158e-12
1.57006e-08
5.57369e-06
0.000317578
0.00429234
0.0211071
0.0556767
0.103741
0.159858
0.220906
0.285209
0.351457
0.418004
0.482357
0.540607
0.588102
0.725522
1.53682
0.115303
0.204411
0.123847
0.255197
0.319271
0.324437
0.293147
0.249203
0.198018
0.14531
0.0947717
0.0507003
0.0189731
0.00376245
0.00026798
4.47845e-06
1.19146e-08
3.63445e-12
7.3734e-16
2.32225e-16
1.69968e-16
4.02657e-16
5.12501e-12
1.57006e-08
5.57369e-06
0.000317578
0.00429234
0.0211071
0.0556767
0.103741
0.159858
0.220906
0.285209
0.351457
0.418004
0.482357
0.540607
0.588102
0.725522
1.53682
0.203002
0.263197
0.0099429
0.237103
0.317228
0.324712
0.293358
0.249224
0.197954
0.145254
0.0947349
0.0506758
0.0189595
0.00375819
0.000267509
4.46688e-06
1.18722e-08
3.6125e-12
5.40276e-16
3.03597e-16
2.57993e-16
6.82754e-16
5.12035e-12
1.57007e-08
5.57369e-06
0.000317578
0.00429234
0.0211071
0.0556767
0.103741
0.159858
0.220906
0.285209
0.351457
0.418004
0.482357
0.540607
0.588102
0.725522
1.53682
0.115303
0.204411
0.123847
0.255197
0.319271
0.324437
0.293147
0.249203
0.198018
0.14531
0.0947717
0.0507003
0.0189731
0.00376245
0.00026798
4.47845e-06
1.19146e-08
3.62973e-12
2.86411e-16
1.25685e-16
1.22972e-16
4.09706e-16
5.11901e-12
1.57007e-08
5.57369e-06
0.000317578
0.00429234
0.0211071
0.0556767
0.103741
0.159858
0.220906
0.285209
0.351457
0.418004
0.482357
0.540607
0.588102
0.725522
1.53682
0.492543
0.185117
0.247593
0.293752
0.325578
0.324679
0.292697
0.249165
0.198213
0.145489
0.0948954
0.0507759
0.0190095
0.00377318
0.000269182
4.50897e-06
1.2031e-08
3.67368e-12
3.34684e-16
6.08976e-17
2.12968e-17
3.37924e-16
5.11097e-12
1.57007e-08
5.57369e-06
0.000317578
0.00429234
0.0211071
0.0556767
0.103741
0.159858
0.220906
0.285209
0.351457
0.418004
0.482357
0.540607
0.588102
0.725522
1.53682
1.28889
0.502831
0.402395
0.35175
0.345171
0.328405
0.293814
0.24991
0.198888
0.145993
0.0952698
0.0510512
0.0191712
0.00382471
0.00027486
4.64721e-06
1.2531e-08
3.86393e-12
3.10655e-16
5.74501e-17
2.72127e-17
2.66645e-16
5.1128e-12
1.57006e-08
5.57369e-06
0.000317578
0.00429234
0.0211071
0.0556767
0.103741
0.159858
0.220906
0.285209
0.351457
0.418004
0.482357
0.540607
0.588102
0.725522
1.53682
1.55523
0.684495
0.514809
0.415773
0.378097
0.34197
0.301727
0.253668
0.200994
0.147388
0.096284
0.0517357
0.0195257
0.00392811
0.000285738
4.90449e-06
1.34232e-08
4.2251e-12
1.70808e-14
1.73328e-14
1.7144e-14
1.70041e-14
5.09815e-12
1.57006e-08
5.57369e-06
0.000317578
0.00429234
0.0211071
0.0556767
0.103741
0.159858
0.220906
0.285209
0.351457
0.418004
0.482357
0.540607
0.588102
0.725522
1.53682
1.57038
0.71652
0.547172
0.452331
0.40412
0.359513
0.31201
0.259283
0.204252
0.149477
0.0976842
0.0526086
0.0199469
0.004043
0.000297256
5.1625e-06
1.44247e-08
2.2213e-10
2.21925e-10
2.21925e-10
2.21926e-10
2.21925e-10
2.22054e-10
1.57022e-08
5.57369e-06
0.000317578
0.00429234
0.0211071
0.0556767
0.103741
0.159858
0.220906
0.285209
0.351457
0.418004
0.482357
0.540607
0.588102
0.725522
1.53682
1.56027
0.724051
0.560293
0.478946
0.426317
0.376019
0.322236
0.26558
0.208206
0.152025
0.0993032
0.0535432
0.0203599
0.0041435
0.000306977
5.41285e-06
2.54658e-07
2.54001e-07
2.54001e-07
2.54001e-07
2.54001e-07
2.54001e-07
2.54001e-07
2.54486e-07
5.57948e-06
0.000317578
0.00429234
0.0211071
0.0556767
0.103741
0.159858
0.220906
0.285209
0.351457
0.418004
0.482357
0.540607
0.588102
0.725522
1.53682
1.54484
0.723808
0.565908
0.497483
0.443867
0.389289
0.331284
0.27167
0.212223
0.154597
0.100817
0.054342
0.0206922
0.00423058
0.000317077
3.90368e-05
3.85987e-05
3.85987e-05
3.85987e-05
3.85987e-05
3.85987e-05
3.85987e-05
3.85987e-05
3.85987e-05
3.89989e-05
0.000319912
0.00429248
0.021107
0.0556765
0.103741
0.159858
0.220906
0.285209
0.351457
0.418004
0.482357
0.540607
0.588102
0.725522
1.53682
1.53859
0.721406
0.569138
0.511484
0.457707
0.399586
0.338394
0.276397
0.215345
0.156662
0.102171
0.0550618
0.0209738
0.00442107
0.0011568
0.00111159
0.00111157
0.00111157
0.00111157
0.00111157
0.00111157
0.00111157
0.00111157
0.00111157
0.00111158
0.00115594
0.00443269
0.0211329
0.0556818
0.103739
0.159854
0.220901
0.285205
0.351455
0.418005
0.482359
0.540608
0.58811
0.725496
1.53682
1.53565
0.718551
0.572419
0.522471
0.467892
0.407588
0.344467
0.280756
0.21825
0.158504
0.103352
0.0561115
0.022924
0.0101076
0.00916741
0.00916261
0.00916263
0.00916263
0.00916263
0.00916263
0.00916263
0.00916263
0.00916263
0.00916263
0.00916262
0.00916762
0.0101078
0.0229676
0.0563578
0.104063
0.160034
0.221015
0.28529
0.351532
0.418089
0.48245
0.540691
0.588269
0.725155
1.53703
1.53506
0.716505
0.581549
0.533227
0.476753
0.414224
0.349431
0.284678
0.221731
0.162157
0.108182
0.0643177
0.0389697
0.0331819
0.0329261
0.032926
0.0329261
0.0329261
0.0329261
0.0329261
0.0329261
0.0329261
0.0329261
0.0329261
0.032926
0.0329264
0.033183
0.0389677
0.0643705
0.108434
0.162774
0.222917
0.286721
0.352693
0.419103
0.483382
0.541561
0.589373
0.724057
1.5388
1.54034
0.719355
0.590687
0.542387
0.485419
0.422255
0.357141
0.2928
0.231235
0.174462
0.125742
0.0909861
0.0755187
0.072826
0.0727306
0.072732
0.0727321
0.0727321
0.0727321
0.0727321
0.0727321
0.0727321
0.0727321
0.0727321
0.072732
0.0727308
0.0728281
0.0755212
0.0909793
0.125736
0.174506
0.231432
0.293283
0.358021
0.423629
0.487437
0.545323
0.593298
0.724014
1.54458
1.55282
0.728223
0.602704
0.554513
0.497392
0.4348
0.371048
0.308953
0.251045
0.199992
0.159559
0.134276
0.124609
0.123101
0.12306
0.123062
0.123062
0.123062
0.123062
0.123062
0.123062
0.123062
0.123062
0.123062
0.123062
0.12306
0.123102
0.124616
0.134285
0.15955
0.199953
0.250981
0.308845
0.370888
0.434614
0.497333
0.554487
0.602014
0.729396
1.55457
1.56713
0.743288
0.617061
0.570873
0.51478
0.453897
0.392984
0.334898
0.282358
0.238262
0.205783
0.187176
0.180579
0.179611
0.179593
0.179595
0.179595
0.179595
0.179595
0.179595
0.179595
0.179595
0.179595
0.179595
0.179595
0.179593
0.179612
0.180583
0.187186
0.205796
0.23827
0.282339
0.334825
0.392862
0.453725
0.514627
0.570628
0.616614
0.743204
1.56731
1.57847
0.765448
0.638335
0.594604
0.540178
0.48115
0.424138
0.370536
0.323818
0.286193
0.259919
0.24564
0.240785
0.240099
0.240091
0.240093
0.240093
0.240093
0.240093
0.240093
0.240093
0.240093
0.240093
0.240093
0.240093
0.240091
0.240099
0.240786
0.245646
0.259934
0.286216
0.323836
0.370541
0.424127
0.481097
0.540078
0.594417
0.638125
0.765295
1.57839
1.59434
0.794241
0.667063
0.625273
0.5722
0.516945
0.462992
0.414522
0.372961
0.340759
0.319019
0.30758
0.303782
0.303251
0.303243
0.303244
0.303245
0.303245
0.303245
0.303245
0.303245
0.303245
0.303245
0.303245
0.303244
0.303243
0.30325
0.303782
0.307582
0.319026
0.340775
0.372986
0.414561
0.463036
0.516977
0.572197
0.625236
0.667074
0.794228
1.59426
1.59947
0.828811
0.70724
0.661859
0.612913
0.557993
0.50998
0.464338
0.427647
0.399477
0.381019
0.37148
0.368345
0.367895
0.367884
0.367885
0.367885
0.367885
0.367885
0.367885
0.367885
0.367885
0.367885
0.367885
0.367885
0.367884
0.367895
0.368345
0.37148
0.38102
0.399482
0.42766
0.464363
0.510011
0.558029
0.61294
0.661889
0.707321
0.828868
1.59949
1.61903
0.866797
0.74827
0.703414
0.653265
0.606584
0.55855
0.518548
0.484793
0.460008
0.44387
0.435642
0.432927
0.43251
0.432491
0.432491
0.432491
0.432491
0.432491
0.432491
0.432491
0.432491
0.432491
0.432491
0.432491
0.432491
0.43251
0.432927
0.435642
0.44387
0.460008
0.484796
0.518554
0.558561
0.606598
0.653288
0.703443
0.748321
0.86684
1.61904
1.61673
0.907706
0.800164
0.745921
0.702273
0.652672
0.612418
0.573146
0.542702
0.519667
0.50496
0.497483
0.495005
0.494588
0.494559
0.494558
0.494558
0.494558
0.494558
0.494558
0.494558
0.494558
0.494558
0.494558
0.494558
0.494559
0.494588
0.495005
0.497483
0.50496
0.519666
0.542701
0.573144
0.612417
0.652675
0.702279
0.745933
0.800177
0.907717
1.61673
1.62549
0.94808
0.84192
0.791306
0.746243
0.701998
0.660665
0.624643
0.595593
0.57387
0.56001
0.552972
0.550606
0.550086
0.550033
0.550031
0.550031
0.550031
0.550031
0.550031
0.550031
0.550031
0.550031
0.550031
0.550031
0.550033
0.550086
0.550606
0.552972
0.560009
0.573869
0.595591
0.624641
0.660663
0.701997
0.746243
0.791307
0.84192
0.948081
1.62549
1.60472
0.980994
0.891844
0.838841
0.797278
0.744915
0.703821
0.664492
0.636516
0.61694
0.604285
0.597402
0.594811
0.594598
0.594629
0.594632
0.594632
0.594632
0.594632
0.594632
0.594632
0.594632
0.594632
0.594632
0.594632
0.594629
0.594598
0.594811
0.597402
0.604285
0.61694
0.636515
0.664491
0.70382
0.744914
0.797276
0.83884
0.891843
0.980993
1.60472
1.6729
1.0767
0.981342
0.946121
0.905907
0.86438
0.826496
0.792523
0.764923
0.744974
0.734072
0.731233
0.732173
0.732932
0.733055
0.73306
0.73306
0.73306
0.73306
0.73306
0.73306
0.73306
0.73306
0.73306
0.73306
0.733055
0.732932
0.732173
0.731233
0.734072
0.744974
0.764922
0.792522
0.826495
0.864379
0.905906
0.946119
0.98134
1.0767
1.6729
2.23262
1.67811
1.6105
1.63078
1.62122
1.62374
1.60437
1.59854
1.58318
1.57153
1.55929
1.55052
1.54643
1.54557
1.54552
1.54552
1.54552
1.54552
1.54552
1.54552
1.54552
1.54552
1.54552
1.54552
1.54552
1.54552
1.54557
1.54643
1.55052
1.55929
1.57153
1.58318
1.59854
1.60437
1.62374
1.62122
1.63078
1.6105
1.67811
2.23262
2.23262
1.67811
1.6105
1.63078
1.62122
1.62374
1.60437
1.59854
1.58318
1.57153
1.55929
1.55052
1.54643
1.54557
1.54552
1.54552
1.54552
1.54552
1.54552
1.54552
1.54552
1.54552
1.54552
1.54552
1.54552
1.54552
1.54557
1.54643
1.55052
1.55929
1.57153
1.58318
1.59854
1.60437
1.62374
1.62122
1.63078
1.6105
1.67811
2.23262
1.6729
1.0767
0.981342
0.946121
0.905907
0.86438
0.826496
0.792523
0.764923
0.744974
0.734072
0.731233
0.732173
0.732932
0.733055
0.73306
0.73306
0.73306
0.73306
0.73306
0.73306
0.73306
0.73306
0.73306
0.73306
0.733055
0.732932
0.732173
0.731233
0.734072
0.744974
0.764922
0.792522
0.826495
0.864379
0.905906
0.946119
0.98134
1.0767
1.6729
1.60472
0.980994
0.891844
0.838841
0.797278
0.744915
0.703821
0.664492
0.636516
0.61694
0.604285
0.597402
0.594811
0.594598
0.594629
0.594632
0.594632
0.594632
0.594632
0.594632
0.594632
0.594632
0.594632
0.594632
0.594632
0.594629
0.594598
0.594811
0.597402
0.604285
0.61694
0.636515
0.664491
0.70382
0.744914
0.797276
0.83884
0.891843
0.980993
1.60472
1.62549
0.94808
0.84192
0.791306
0.746243
0.701998
0.660665
0.624643
0.595593
0.57387
0.56001
0.552972
0.550606
0.550086
0.550033
0.550031
0.550031
0.550031
0.550031
0.550031
0.550031
0.550031
0.550031
0.550031
0.550031
0.550033
0.550086
0.550606
0.552972
0.560009
0.573869
0.595591
0.624641
0.660663
0.701997
0.746243
0.791307
0.84192
0.948081
1.62549
1.61673
0.907706
0.800164
0.745921
0.702273
0.652672
0.612418
0.573146
0.542702
0.519667
0.50496
0.497483
0.495005
0.494588
0.494559
0.494558
0.494558
0.494558
0.494558
0.494558
0.494558
0.494558
0.494558
0.494558
0.494558
0.494559
0.494588
0.495005
0.497483
0.50496
0.519666
0.542701
0.573144
0.612417
0.652675
0.702279
0.745933
0.800177
0.907717
1.61673
1.61903
0.866797
0.74827
0.703414
0.653265
0.606584
0.55855
0.518548
0.484793
0.460008
0.44387
0.435642
0.432927
0.43251
0.432491
0.432491
0.432491
0.432491
0.432491
0.432491
0.432491
0.432491
0.432491
0.432491
0.432491
0.432491
0.43251
0.432927
0.435642
0.44387
0.460008
0.484796
0.518554
0.558561
0.606598
0.653288
0.703443
0.748321
0.86684
1.61904
1.59947
0.828811
0.70724
0.661859
0.612913
0.557993
0.50998
0.464338
0.427647
0.399477
0.381019
0.37148
0.368345
0.367895
0.367884
0.367885
0.367885
0.367885
0.367885
0.367885
0.367885
0.367885
0.367885
0.367885
0.367885
0.367884
0.367895
0.368345
0.37148
0.38102
0.399482
0.42766
0.464363
0.510011
0.558029
0.61294
0.661889
0.707321
0.828868
1.59949
1.59434
0.794241
0.667063
0.625273
0.5722
0.516945
0.462992
0.414522
0.372961
0.340759
0.319019
0.30758
0.303782
0.303251
0.303243
0.303244
0.303245
0.303245
0.303245
0.303245
0.303245
0.303245
0.303245
0.303245
0.303244
0.303243
0.30325
0.303782
0.307582
0.319026
0.340775
0.372986
0.414561
0.463036
0.516977
0.572197
0.625236
0.667074
0.794228
1.59426
1.57847
0.765448
0.638335
0.594604
0.540178
0.48115
0.424138
0.370536
0.323818
0.286193
0.259919
0.24564
0.240785
0.240099
0.240091
0.240093
0.240093
0.240093
0.240093
0.240093
0.240093
0.240093
0.240093
0.240093
0.240093
0.240091
0.240099
0.240786
0.245646
0.259934
0.286216
0.323836
0.370541
0.424127
0.481097
0.540078
0.594417
0.638125
0.765295
1.57839
1.56713
0.743288
0.617061
0.570873
0.51478
0.453897
0.392984
0.334898
0.282358
0.238262
0.205783
0.187176
0.180579
0.179611
0.179593
0.179595
0.179595
0.179595
0.179595
0.179595
0.179595
0.179595
0.179595
0.179595
0.179595
0.179593
0.179612
0.180583
0.187186
0.205796
0.23827
0.282339
0.334825
0.392862
0.453725
0.514627
0.570628
0.616614
0.743204
1.56731
1.55282
0.728223
0.602704
0.554513
0.497392
0.4348
0.371048
0.308953
0.251045
0.199992
0.159559
0.134276
0.124609
0.123101
0.12306
0.123062
0.123062
0.123062
0.123062
0.123062
0.123062
0.123062
0.123062
0.123062
0.123062
0.12306
0.123102
0.124616
0.134285
0.15955
0.199953
0.250981
0.308845
0.370888
0.434614
0.497333
0.554487
0.602014
0.729396
1.55457
1.54034
0.719355
0.590687
0.542387
0.485419
0.422255
0.357141
0.2928
0.231235
0.174462
0.125742
0.0909861
0.0755187
0.072826
0.0727306
0.072732
0.0727321
0.0727321
0.0727321
0.0727321
0.0727321
0.0727321
0.0727321
0.0727321
0.072732
0.0727308
0.0728281
0.0755212
0.0909793
0.125736
0.174506
0.231432
0.293283
0.358021
0.423629
0.487437
0.545323
0.593298
0.724014
1.54458
1.53506
0.716505
0.581549
0.533227
0.476753
0.414224
0.349431
0.284678
0.221731
0.162157
0.108182
0.0643177
0.0389697
0.0331819
0.0329261
0.032926
0.0329261
0.0329261
0.0329261
0.0329261
0.0329261
0.0329261
0.0329261
0.0329261
0.032926
0.0329264
0.033183
0.0389677
0.0643705
0.108434
0.162774
0.222917
0.286721
0.352693
0.419103
0.483382
0.541561
0.589373
0.724057
1.5388
1.53565
0.718551
0.572419
0.522471
0.467892
0.407588
0.344467
0.280756
0.21825
0.158504
0.103352
0.0561115
0.022924
0.0101076
0.00916741
0.00916261
0.00916263
0.00916263
0.00916263
0.00916263
0.00916263
0.00916263
0.00916263
0.00916263
0.00916262
0.00916762
0.0101078
0.0229676
0.0563578
0.104063
0.160034
0.221015
0.28529
0.351532
0.418089
0.48245
0.540691
0.588269
0.725155
1.53703
1.53859
0.721406
0.569138
0.511484
0.457707
0.399586
0.338394
0.276397
0.215345
0.156662
0.102171
0.0550618
0.0209738
0.00442107
0.0011568
0.00111159
0.00111157
0.00111157
0.00111157
0.00111157
0.00111157
0.00111157
0.00111157
0.00111157
0.00111158
0.00115594
0.00443269
0.0211329
0.0556818
0.103739
0.159854
0.220901
0.285205
0.351455
0.418005
0.482359
0.540608
0.58811
0.725496
1.53682
1.54484
0.723808
0.565908
0.497483
0.443867
0.389289
0.331284
0.27167
0.212223
0.154597
0.100817
0.054342
0.0206922
0.00423058
0.000317077
3.90368e-05
3.85987e-05
3.85987e-05
3.85987e-05
3.85987e-05
3.85987e-05
3.85987e-05
3.85987e-05
3.85987e-05
3.89989e-05
0.000319912
0.00429248
0.021107
0.0556765
0.103741
0.159858
0.220906
0.285209
0.351457
0.418004
0.482357
0.540607
0.588102
0.725522
1.53682
1.56027
0.724051
0.560293
0.478946
0.426317
0.376019
0.322236
0.26558
0.208206
0.152025
0.0993032
0.0535432
0.0203599
0.0041435
0.000306977
5.41285e-06
2.54658e-07
2.54001e-07
2.54001e-07
2.54001e-07
2.54001e-07
2.54001e-07
2.54001e-07
2.54486e-07
5.57948e-06
0.000317578
0.00429234
0.0211071
0.0556767
0.103741
0.159858
0.220906
0.285209
0.351457
0.418004
0.482357
0.540607
0.588102
0.725522
1.53682
1.57038
0.71652
0.547172
0.452331
0.40412
0.359513
0.31201
0.259283
0.204252
0.149477
0.0976842
0.0526086
0.0199469
0.004043
0.000297256
5.1625e-06
1.44247e-08
2.22115e-10
2.21925e-10
2.21924e-10
2.21925e-10
2.21925e-10
2.22055e-10
1.57022e-08
5.57369e-06
0.000317578
0.00429234
0.0211071
0.0556767
0.103741
0.159858
0.220906
0.285209
0.351457
0.418004
0.482357
0.540607
0.588102
0.725522
1.53682
1.55523
0.684495
0.514809
0.415773
0.378097
0.34197
0.301727
0.253668
0.200994
0.147388
0.096284
0.0517357
0.0195257
0.00392811
0.000285738
4.90449e-06
1.34232e-08
4.23833e-12
1.76494e-14
1.87201e-14
1.73236e-14
1.72889e-14
5.09702e-12
1.57006e-08
5.57369e-06
0.000317578
0.00429234
0.0211071
0.0556767
0.103741
0.159858
0.220906
0.285209
0.351457
0.418004
0.482357
0.540607
0.588102
0.725522
1.53682
1.28889
0.502831
0.402395
0.35175
0.345171
0.328405
0.293814
0.24991
0.198888
0.145993
0.0952698
0.0510512
0.0191712
0.00382471
0.00027486
4.64721e-06
1.25311e-08
3.86707e-12
5.14179e-16
2.65079e-16
2.41376e-16
2.57915e-16
5.11468e-12
1.57006e-08
5.57369e-06
0.000317578
0.00429234
0.0211071
0.0556767
0.103741
0.159858
0.220906
0.285209
0.351457
0.418004
0.482357
0.540607
0.588102
0.725522
1.53682
)
;

boundaryField
{
    inlet
    {
        type            calculated;
        value           uniform 0;
    }
    outlet
    {
        type            calculated;
        value           nonuniform List<scalar> 
165
(
1.28889
1.55523
1.57038
1.56027
1.54484
1.53859
1.53565
1.53506
1.54034
1.55282
1.56713
1.57847
1.59434
1.59947
1.61903
1.61673
1.62549
1.60472
1.6729
2.23262
2.23262
1.67811
1.6105
1.63078
1.62122
1.62374
1.60437
1.59854
1.58318
1.57153
1.55929
1.55052
1.54643
1.54557
1.54552
1.54552
1.54552
1.54552
1.54552
1.54552
1.54552
1.54552
1.54552
1.54552
1.54552
1.54552
1.54557
1.54643
1.55052
1.55929
1.57153
1.58318
1.59854
1.60437
1.62374
1.62122
1.63078
1.6105
1.67811
2.23262
1.53682
1.53682
1.53682
1.53682
1.53682
1.53682
1.53703
1.5388
1.54458
1.55457
1.56731
1.57839
1.59426
1.59949
1.61904
1.61673
1.62549
1.60472
1.6729
2.23262
1.53682
1.53682
1.53682
1.53682
1.53682
2.23262
1.6729
1.60472
1.62549
1.61673
1.61904
1.59949
1.59426
1.57839
1.56731
1.55457
1.54458
1.5388
1.53703
1.53682
1.53682
1.53682
1.53682
1.53682
1.53682
2.23262
1.67811
1.6105
1.63078
1.62122
1.62374
1.60437
1.59854
1.58318
1.57153
1.55929
1.55052
1.54643
1.54557
1.54552
1.54552
1.54552
1.54552
1.54552
1.54552
1.54552
1.54552
1.54552
1.54552
1.54552
1.54552
1.54557
1.54643
1.55052
1.55929
1.57153
1.58318
1.59854
1.60437
1.62374
1.62122
1.63078
1.6105
1.67811
2.23262
2.23262
1.6729
1.60472
1.62549
1.61673
1.61903
1.59947
1.59434
1.57847
1.56713
1.55282
1.54034
1.53506
1.53565
1.53859
1.54484
1.56027
1.57038
1.55523
1.28889
)
;
    }
    obstacle
    {
        type            calculated;
        value           nonuniform List<scalar> 
40
(
0.000334129
0.00366985
0.0144173
0.0292783
0.0409642
0.0470141
0.0501766
0.0505411
0.0497988
0.0442218
0.000334129
0.00366985
0.0144173
0.0292783
0.0409642
0.0470141
0.0501766
0.0505411
0.0497988
0.0442218
0.0500581
0.0663027
0.0851727
0.113476
0.179728
0.0500581
0.0663027
0.0851727
0.113476
0.179728
0.219339
0.189425
0.176714
0.178018
0.261417
0.219339
0.189425
0.176714
0.178018
0.261417
)
;
    }
    empty
    {
        type            empty;
    }
}


// ************************************************************************* //
