/*--------------------------------*- C++ -*----------------------------------*\
| =========                 |                                                 |
| \\      /  F ield         | OpenFOAM: The Open Source CFD Toolbox           |
|  \\    /   O peration     | Version:  v1912                                 |
|   \\  /    A nd           | Website:  www.openfoam.com                      |
|    \\/     M anipulation  |                                                 |
\*---------------------------------------------------------------------------*/
FoamFile
{
    version     2.0;
    format      ascii;
    class       volScalarField;
    location    "1.52";
    object      rho;
}
// * * * * * * * * * * * * * * * * * * * * * * * * * * * * * * * * * * * * * //

dimensions      [1 -3 0 0 0 0 0];


internalField   nonuniform List<scalar> 
1900
(
14004.7
14051.5
14203.3
14416.6
14585.7
14680.3
14709.1
14731.6
14734.6
14736.2
14004.7
14051.5
14203.4
14416.7
14585.6
14679.7
14707.1
14725
14718.2
14708.5
14004.7
14051.5
14203.4
14416.5
14585.1
14679.5
14707.8
14726.3
14723.9
14713.9
14004.7
14051.5
14203.4
14416.7
14585.6
14679.7
14707.1
14725
14718.2
14708.5
14004.7
14051.5
14203.3
14416.6
14585.7
14680.3
14709.1
14731.6
14734.6
14736.2
14661.4
14698.1
14676
14569.4
13915.1
14714
14746.6
14712.2
14657.6
14351.4
14714.6
14734.1
14689.1
14604.3
14285.5
14714
14746.6
14712.2
14657.6
14351.4
14661.4
14698.1
14676
14569.4
13915.1
15520.2
15523.5
15779.9
16045
16730.1
15376.4
15504.5
15788
16084.1
16206.5
15371.3
15513.9
15786.3
16011.2
15727.3
15376.4
15504.5
15788
16084.1
16206.5
15520.2
15523.5
15779.9
16045
16730.1
15920.1
9425.22
9687.15
9845.19
9882.56
10120.3
10444.8
10925.7
11491.9
12108.5
12732.2
13305
13735.3
13947.1
13996.3
14000
14000.1
14000.1
14000.1
14000.1
14000.1
14000.1
14000.1
14000.1
14000
13995.6
13940
13707.4
13243.5
12629.8
11956.4
11272.9
10604.3
9966.42
9368.23
8808.28
8297.36
7967.33
7976.76
35284.8
14741
9460.76
9794.27
9875.19
9904.64
10121.7
10447.9
10927.3
11492.9
12109.3
12732.9
13305.6
13735.7
13947.2
13996.3
14000
14000.1
14000.1
14000.1
14000.1
14000.1
14000.1
14000.1
14000.1
14000
13995.6
13940
13707.4
13243.5
12629.8
11956.4
11272.9
10604.3
9966.42
9368.23
8808.28
8297.36
7967.33
7976.76
35284.8
14021.4
9875.35
9855.96
9897.17
9914.24
10122.3
10448.6
10928
11493.2
12109.5
12733.2
13305.8
13735.8
13947.3
13996.3
14000
14000.1
14000.1
14000.1
14000.1
14000.1
14000.1
14000.1
14000.1
14000
13995.6
13940
13707.4
13243.5
12629.8
11956.4
11272.9
10604.3
9966.42
9368.23
8808.28
8297.36
7967.33
7976.76
35284.8
14741
9460.76
9794.27
9875.19
9904.64
10121.7
10447.9
10927.3
11492.9
12109.3
12732.9
13305.6
13735.7
13947.2
13996.3
14000
14000.1
14000.1
14000.1
14000.1
14000.1
14000.1
14000.1
14000.1
14000
13995.6
13940
13707.4
13243.5
12629.8
11956.4
11272.9
10604.3
9966.42
9368.23
8808.28
8297.36
7967.33
7976.76
35284.8
15920.1
9425.22
9687.15
9845.19
9882.56
10120.3
10444.8
10925.7
11491.9
12108.5
12732.2
13305
13735.3
13947.1
13996.3
14000
14000.1
14000.1
14000.1
14000.1
14000.1
14000.1
14000.1
14000.1
14000
13995.6
13940
13707.4
13243.5
12629.8
11956.4
11272.9
10604.3
9966.42
9368.23
8808.28
8297.36
7967.33
7976.76
35284.8
23915
9135.56
9471.07
9679.97
9812.93
10080.2
10433.9
10919.9
11488.1
12105.3
12729.2
13302.1
13733.3
13946.4
13996.2
14000
14000.1
14000.1
14000.1
14000.1
14000.1
14000.1
14000.1
14000.1
14000
13995.6
13940
13707.4
13243.5
12629.8
11956.4
11272.9
10604.3
9966.42
9368.23
8808.28
8297.36
7967.33
7976.76
35284.8
30299.8
8477.57
9058.76
9365.67
9652.06
9975.76
10392.2
10898.4
11475.9
12095.4
12720.1
13294.7
13728.9
13945.1
13996
14000
14000.1
14000.1
14000.1
14000.1
14000.1
14000.1
14000.1
14000.1
14000
13995.6
13940
13707.4
13243.5
12629.8
11956.4
11272.9
10604.3
9966.42
9368.23
8808.28
8297.36
7967.33
7976.76
35284.8
33569.6
8304.91
8814.01
9155.34
9502.73
9882.63
10339.1
10865.7
11454
12078.2
12706.2
13284.6
13723.6
13943.5
13995.9
14000
14000.1
14000.1
14000.1
14000.1
14000.1
14000.1
14000.1
14000.1
14000
13995.6
13940
13707.4
13243.5
12629.8
11956.4
11272.9
10604.3
9966.42
9368.23
8808.28
8297.36
7967.33
7976.76
35284.8
35579.5
8268.84
8635.97
8984.53
9371
9796.34
10279.3
10824.8
11424.3
12055.6
12689.3
13273.6
13718.3
13942.1
13995.8
14000
14000
14000
14000
14000
14000
14000
14000
14000
14000
13995.6
13940
13707.4
13243.4
12629.8
11956.4
11272.9
10604.3
9966.42
9368.23
8808.28
8297.36
7967.33
7976.76
35284.8
36736.4
8284.35
8513.46
8844.78
9254.28
9706.93
10211.7
10775.4
11387.3
12027.4
12668.9
13261.3
13712.9
13940.4
13995.1
13999.4
13999.5
13999.5
13999.5
13999.5
13999.5
13999.5
13999.5
13999.5
13999.4
13995.1
13939.5
13706.8
13243
12629.3
11956.1
11272.6
10604.1
9966.25
9368.11
8808.2
8297.3
7967.29
7976.74
35284.8
36945.3
8271.75
8401.42
8697.5
9122.07
9598.12
10123.9
10707.2
11335.9
11990.2
12641.5
13239.6
13695
13924.8
13980
13984.4
13984.5
13984.5
13984.5
13984.5
13984.5
13984.5
13984.5
13984.5
13984.4
13980
13924.5
13692.3
13229.2
12616.7
11944.9
11263.1
10596.1
9959.79
9363.04
8804.3
8294.4
7965.03
7975.78
35283.7
36737.6
8220.11
8243.48
8505.88
8955.84
9462.84
10013.6
10604.7
11232.5
11883.7
12533.2
13130.2
13584.2
13812.9
13867.8
13872.1
13872.2
13872.2
13872.2
13872.2
13872.2
13872.2
13872.2
13872.2
13872.1
13867.8
13812.9
13583.1
13125
12519.6
11856.3
11183.7
10526.2
9899.4
9311.7
8761.22
8259.04
7934.61
7959.86
35249.8
36096.9
8126.83
8008.43
8288.48
8737.38
9228.73
9762.93
10344.3
10962.2
11601.4
12237.8
12822.4
13266.3
13489.2
13542.4
13546.6
13546.6
13546.6
13546.6
13546.6
13546.6
13546.6
13546.6
13546.6
13546.6
13542.4
13489.3
13266.3
12821.1
12232.8
11589
10937.1
10301
9695.42
9128.55
8597.96
8114.88
7802.21
7873.95
34951.4
34715.8
7836.19
7649.03
7920.63
8355.39
8838.98
9362.8
9930.21
10531.9
11151.9
11766.6
12329.5
12755.3
12967.7
13017.8
13021.7
13021.7
13021.7
13021.7
13021.7
13021.7
13021.7
13021.7
13021.7
13021.7
13017.8
12967.7
12755.6
12329.9
11766.1
11149
10524.6
9915.85
9337.05
8796.25
8290.78
7831.11
7532.4
7656.79
33939.8
32483.1
7383.09
7208.15
7484.66
7913.14
8387.34
8897.09
9444.86
10023.1
10617.7
11205.5
11741.7
12144.7
12343.5
12389.5
12393
12393.1
12393.1
12393.1
12393.1
12393.1
12393.1
12393.1
12393.1
12393
12389.6
12343.5
12144.9
11742.2
11206.2
10618.3
10023.1
9442.94
8891.57
8376.65
7895.82
7458.13
7173.32
7308.47
32111.9
29920.8
6892.75
6787.47
7055.15
7468.36
7924.72
8414.14
8938.8
9490.93
10057.4
10616.4
11124.1
11502.3
11685.8
11727.2
11730.2
11730.3
11730.3
11730.3
11730.3
11730.3
11730.3
11730.3
11730.3
11730.2
11727.2
11685.8
11502.4
11124.4
10617.1
10058.8
9492.72
8940.74
8415.95
7925.89
7467.9
7050.84
6779.69
6874.04
29796.7
27272.9
6402.73
6378.33
6636.48
7032.87
7468.67
7936.97
8436.43
8962.07
9500.21
10030
10508.9
10861.7
11029.1
11065.5
11068.1
11068.1
11068.1
11068.1
11068.1
11068.1
11068.1
11068.1
11068.1
11068.1
11065.5
11029.1
10861.7
10509.1
10030.4
9501.06
8963.51
8438.6
7940.03
7472.4
7036.84
6639.7
6380.91
6403.2
27245.7
24773.8
5936.57
5981.95
6238.75
6613.17
7030.54
7474.96
7951.38
8450.29
8961.19
9462.77
9913.49
10240.8
10391.8
10423.2
10425.3
10425.3
10425.3
10425.3
10425.3
10425.3
10425.3
10425.3
10425.3
10425.3
10423.2
10391.8
10240.8
9913.52
9462.9
8961.54
8450.99
7952.61
7476.8
7032.97
6616.11
6242.07
5985.42
5939.71
24773.9
22172.4
5515.51
5601.22
5866.74
6220.58
6612.33
7039.83
7490.54
7966.35
8451.1
8926.13
9349.78
9652.16
9786.91
9813.52
9815.13
9815.15
9815.15
9815.15
9815.15
9815.15
9815.15
9815.15
9815.15
9815.13
9813.52
9786.91
9652.15
9349.78
8926.15
8451.18
7966.57
7490.98
7040.52
6613.33
6221.91
5868.48
5603.13
5517.15
22175.1
19912.4
5129.74
5239.23
5518.43
5852.61
6226.85
6628.65
7062.24
7514.56
7976.74
8427.08
8825.09
9103.2
9222.24
9244.31
9245.53
9245.55
9245.55
9245.55
9245.55
9245.55
9245.55
9245.55
9245.55
9245.53
9244.31
9222.24
9103.19
8825.09
8427.07
7976.73
7514.57
7062.3
6628.77
6227.08
5852.99
5518.98
5239.86
5130.24
19913.5
17627.6
4795.88
4910.88
5196.64
5517.45
5867.7
6252.38
6661.17
7094.34
7534.61
7962.24
8335.9
8590.76
8695.19
8713.29
8714.2
8714.21
8714.21
8714.21
8714.21
8714.21
8714.21
8714.21
8714.21
8714.2
8713.29
8695.19
8590.76
8335.89
7962.23
7534.59
7094.31
6661.14
6252.35
5867.69
5517.46
5196.69
4910.93
4795.94
17627.8
15807.6
4501.27
4613.55
4896.68
5211.54
5548.55
5915.37
6303.88
6713.24
7133.4
7540.57
7892.31
8125.45
8217.04
8231.77
8232.43
8232.44
8232.44
8232.44
8232.44
8232.44
8232.44
8232.44
8232.44
8232.43
8231.77
8217.04
8125.45
7892.31
7540.57
7133.39
6713.23
6303.86
5915.34
5548.5
5211.5
4896.63
4613.52
4501.25
15807.6
14123.6
4247.6
4338.3
4616.85
4930.93
5275.38
5656.73
6055.78
6465.67
6873.23
7266.78
7605.1
7825.07
7905.16
7916.85
7917.32
7917.33
7917.33
7917.33
7917.33
7917.33
7917.33
7917.33
7917.33
7917.32
7916.85
7905.16
7825.07
7605.1
7266.78
6873.23
6465.67
6055.77
5656.71
5275.35
4930.9
4616.82
4338.27
4247.59
14123.6
13910.2
4135.21
4242.23
4497.99
4808.38
5157.11
5559
5996.2
6469.54
6942.89
7358.12
7661.53
7822.23
7873.65
7880.4
7880.65
7880.65
7880.65
7880.65
7880.65
7880.65
7880.65
7880.65
7880.65
7880.65
7880.4
7873.65
7822.23
7661.53
7358.11
6942.88
6469.54
5996.2
5559
5157.1
4808.36
4497.97
4242.21
4135.2
13910.2
76863.7
14294.6
14490.2
16290.3
18268.3
20748.7
23170.3
25948.4
28586.9
31231.9
33533.7
35156.9
35880.8
36028.9
36038.8
36038.9
36038.9
36038.9
36038.9
36038.9
36038.9
36038.9
36038.9
36038.9
36038.9
36038.8
36028.9
35880.8
35156.9
33533.7
31231.9
28586.9
25948.4
23170.3
20748.7
18268.3
16290.3
14490.2
14294.6
76863.7
76863.7
14294.6
14490.2
16290.3
18268.3
20748.7
23170.3
25948.4
28586.9
31231.9
33533.7
35156.9
35880.8
36028.9
36038.8
36038.9
36038.9
36038.9
36038.9
36038.9
36038.9
36038.9
36038.9
36038.9
36038.9
36038.8
36028.9
35880.8
35156.9
33533.7
31231.9
28586.9
25948.4
23170.3
20748.7
18268.3
16290.3
14490.2
14294.6
76863.7
13910.2
4135.21
4242.23
4497.99
4808.38
5157.11
5559
5996.2
6469.54
6942.89
7358.12
7661.53
7822.23
7873.65
7880.4
7880.65
7880.65
7880.65
7880.65
7880.65
7880.65
7880.65
7880.65
7880.65
7880.65
7880.4
7873.65
7822.23
7661.53
7358.11
6942.88
6469.54
5996.2
5559
5157.1
4808.36
4497.97
4242.21
4135.2
13910.2
14123.6
4247.6
4338.3
4616.85
4930.93
5275.38
5656.73
6055.78
6465.67
6873.23
7266.78
7605.1
7825.07
7905.16
7916.85
7917.32
7917.33
7917.33
7917.33
7917.33
7917.33
7917.33
7917.33
7917.33
7917.32
7916.85
7905.16
7825.07
7605.1
7266.78
6873.23
6465.67
6055.77
5656.71
5275.35
4930.9
4616.82
4338.27
4247.59
14123.6
15807.6
4501.27
4613.55
4896.68
5211.54
5548.55
5915.37
6303.88
6713.24
7133.4
7540.57
7892.31
8125.45
8217.04
8231.77
8232.43
8232.44
8232.44
8232.44
8232.44
8232.44
8232.44
8232.44
8232.44
8232.43
8231.77
8217.04
8125.45
7892.31
7540.57
7133.39
6713.23
6303.86
5915.34
5548.5
5211.5
4896.63
4613.52
4501.25
15807.6
17627.6
4795.88
4910.88
5196.64
5517.45
5867.7
6252.38
6661.17
7094.34
7534.61
7962.24
8335.9
8590.76
8695.19
8713.29
8714.2
8714.21
8714.21
8714.21
8714.21
8714.21
8714.21
8714.21
8714.21
8714.2
8713.29
8695.19
8590.76
8335.89
7962.23
7534.59
7094.31
6661.14
6252.35
5867.69
5517.46
5196.69
4910.93
4795.94
17627.8
19912.4
5129.74
5239.23
5518.43
5852.61
6226.85
6628.65
7062.24
7514.56
7976.74
8427.08
8825.09
9103.2
9222.24
9244.31
9245.53
9245.55
9245.55
9245.55
9245.55
9245.55
9245.55
9245.55
9245.55
9245.53
9244.31
9222.24
9103.19
8825.09
8427.07
7976.73
7514.57
7062.3
6628.77
6227.08
5852.99
5518.98
5239.86
5130.24
19913.5
22172.4
5515.51
5601.22
5866.74
6220.58
6612.33
7039.83
7490.54
7966.35
8451.1
8926.13
9349.78
9652.16
9786.91
9813.52
9815.13
9815.15
9815.15
9815.15
9815.15
9815.15
9815.15
9815.15
9815.15
9815.13
9813.52
9786.91
9652.15
9349.78
8926.15
8451.18
7966.57
7490.98
7040.52
6613.33
6221.91
5868.48
5603.13
5517.15
22175.1
24773.8
5936.57
5981.95
6238.75
6613.17
7030.54
7474.96
7951.38
8450.29
8961.19
9462.77
9913.49
10240.8
10391.8
10423.2
10425.3
10425.3
10425.3
10425.3
10425.3
10425.3
10425.3
10425.3
10425.3
10425.3
10423.2
10391.8
10240.8
9913.52
9462.9
8961.54
8450.99
7952.61
7476.8
7032.97
6616.11
6242.07
5985.42
5939.71
24773.9
27272.9
6402.73
6378.33
6636.48
7032.87
7468.67
7936.97
8436.43
8962.07
9500.21
10030
10508.9
10861.7
11029.1
11065.5
11068.1
11068.1
11068.1
11068.1
11068.1
11068.1
11068.1
11068.1
11068.1
11068.1
11065.5
11029.1
10861.7
10509.1
10030.4
9501.06
8963.51
8438.6
7940.03
7472.4
7036.84
6639.7
6380.91
6403.2
27245.7
29920.8
6892.75
6787.47
7055.15
7468.36
7924.72
8414.14
8938.8
9490.93
10057.4
10616.4
11124.1
11502.3
11685.8
11727.2
11730.2
11730.3
11730.3
11730.3
11730.3
11730.3
11730.3
11730.3
11730.3
11730.2
11727.2
11685.8
11502.4
11124.4
10617.1
10058.8
9492.72
8940.74
8415.95
7925.89
7467.9
7050.84
6779.69
6874.04
29796.7
32483.1
7383.09
7208.15
7484.66
7913.14
8387.34
8897.09
9444.86
10023.1
10617.7
11205.5
11741.7
12144.7
12343.5
12389.5
12393
12393.1
12393.1
12393.1
12393.1
12393.1
12393.1
12393.1
12393.1
12393
12389.6
12343.5
12144.9
11742.2
11206.2
10618.3
10023.1
9442.94
8891.57
8376.65
7895.82
7458.13
7173.32
7308.47
32111.9
34715.8
7836.19
7649.03
7920.63
8355.39
8838.98
9362.8
9930.21
10531.9
11151.9
11766.6
12329.5
12755.3
12967.7
13017.8
13021.7
13021.7
13021.7
13021.7
13021.7
13021.7
13021.7
13021.7
13021.7
13021.7
13017.8
12967.7
12755.6
12329.9
11766.1
11149
10524.6
9915.85
9337.05
8796.25
8290.78
7831.11
7532.4
7656.79
33939.8
36096.9
8126.83
8008.43
8288.48
8737.38
9228.73
9762.93
10344.3
10962.2
11601.4
12237.8
12822.4
13266.3
13489.2
13542.4
13546.6
13546.6
13546.6
13546.6
13546.6
13546.6
13546.6
13546.6
13546.6
13546.6
13542.4
13489.3
13266.3
12821.1
12232.8
11589
10937.1
10301
9695.42
9128.55
8597.96
8114.88
7802.21
7873.95
34951.4
36737.6
8220.11
8243.48
8505.88
8955.84
9462.84
10013.6
10604.7
11232.5
11883.7
12533.2
13130.2
13584.2
13812.9
13867.8
13872.1
13872.2
13872.2
13872.2
13872.2
13872.2
13872.2
13872.2
13872.2
13872.1
13867.8
13812.9
13583.1
13125
12519.6
11856.3
11183.7
10526.2
9899.4
9311.7
8761.22
8259.04
7934.61
7959.86
35249.8
36945.3
8271.75
8401.42
8697.5
9122.07
9598.12
10123.9
10707.2
11335.9
11990.2
12641.5
13239.6
13695
13924.8
13980
13984.4
13984.5
13984.5
13984.5
13984.5
13984.5
13984.5
13984.5
13984.5
13984.4
13980
13924.5
13692.3
13229.2
12616.7
11944.9
11263.1
10596.1
9959.79
9363.04
8804.3
8294.4
7965.03
7975.78
35283.7
36736.4
8284.35
8513.46
8844.78
9254.28
9706.93
10211.7
10775.4
11387.3
12027.4
12668.9
13261.3
13712.9
13940.4
13995.1
13999.4
13999.5
13999.5
13999.5
13999.5
13999.5
13999.5
13999.5
13999.5
13999.4
13995.1
13939.5
13706.8
13243
12629.3
11956.1
11272.6
10604.1
9966.25
9368.11
8808.2
8297.3
7967.29
7976.74
35284.8
35579.5
8268.84
8635.97
8984.53
9371
9796.34
10279.3
10824.8
11424.3
12055.6
12689.3
13273.6
13718.3
13942.1
13995.8
14000
14000
14000
14000
14000
14000
14000
14000
14000
14000
13995.6
13940
13707.4
13243.4
12629.8
11956.4
11272.9
10604.3
9966.42
9368.23
8808.28
8297.36
7967.33
7976.76
35284.8
33569.6
8304.91
8814.01
9155.34
9502.73
9882.63
10339.1
10865.7
11454
12078.2
12706.2
13284.6
13723.6
13943.5
13995.9
14000
14000.1
14000.1
14000.1
14000.1
14000.1
14000.1
14000.1
14000.1
14000
13995.6
13940
13707.4
13243.5
12629.8
11956.4
11272.9
10604.3
9966.42
9368.23
8808.28
8297.36
7967.33
7976.76
35284.8
30299.8
8477.57
9058.76
9365.67
9652.06
9975.76
10392.2
10898.4
11475.9
12095.4
12720.1
13294.7
13728.9
13945.1
13996
14000
14000.1
14000.1
14000.1
14000.1
14000.1
14000.1
14000.1
14000.1
14000
13995.6
13940
13707.4
13243.5
12629.8
11956.4
11272.9
10604.3
9966.42
9368.23
8808.28
8297.36
7967.33
7976.76
35284.8
23915
9135.56
9471.07
9679.97
9812.93
10080.2
10433.9
10919.9
11488.1
12105.3
12729.2
13302.1
13733.3
13946.4
13996.2
14000
14000.1
14000.1
14000.1
14000.1
14000.1
14000.1
14000.1
14000.1
14000
13995.6
13940
13707.4
13243.5
12629.8
11956.4
11272.9
10604.3
9966.42
9368.23
8808.28
8297.36
7967.33
7976.76
35284.8
)
;

boundaryField
{
    inlet
    {
        type            calculated;
        value           uniform 14000.1;
    }
    outlet
    {
        type            calculated;
        value           nonuniform List<scalar> 
165
(
1971.59
2249.33
2264.67
2236.08
2198.33
2185.85
2186
2194.68
2223.61
2275.44
2337.75
2405.02
2470.52
2543.48
2607.66
2672.65
2699.29
2736.31
3011.88
3203.91
3203.91
3036.39
2746.01
2704.61
2675.89
2608.38
2542.65
2467.91
2401.5
2336.99
2283.3
2246.79
2230.91
2227.66
2227.44
2227.43
2227.43
2227.43
2227.43
2227.43
2227.43
2227.43
2227.43
2227.43
2227.43
2227.44
2227.66
2230.91
2246.79
2283.3
2336.99
2401.5
2467.91
2542.65
2608.38
2675.89
2704.61
2746.01
3036.39
3203.91
2212.98
2212.98
2212.98
2212.98
2212.98
2213
2213.74
2220.36
2243.16
2285.63
2341.51
2406.05
2470.6
2543.4
2607.61
2672.63
2699.28
2736.31
3011.88
3203.91
2212.98
2212.98
2212.98
2212.98
2212.98
3203.91
3011.88
2736.31
2699.28
2672.63
2607.61
2543.4
2470.6
2406.05
2341.51
2285.63
2243.16
2220.36
2213.74
2213
2212.98
2212.98
2212.98
2212.98
2212.98
3203.91
3036.39
2746.01
2704.61
2675.89
2608.38
2542.65
2467.91
2401.5
2336.99
2283.3
2246.79
2230.91
2227.66
2227.44
2227.43
2227.43
2227.43
2227.43
2227.43
2227.43
2227.43
2227.43
2227.43
2227.43
2227.44
2227.66
2230.91
2246.79
2283.3
2336.99
2401.5
2467.91
2542.65
2608.38
2675.89
2704.61
2746.01
3036.39
3203.91
3203.91
3011.88
2736.31
2699.29
2672.65
2607.66
2543.48
2470.52
2405.02
2337.75
2275.44
2223.61
2194.68
2186
2185.85
2198.33
2236.08
2264.67
2249.33
1971.59
)
;
    }
    obstacle
    {
        type            calculated;
        value           nonuniform List<scalar> 
40
(
14004.7
14051.5
14203.3
14416.6
14585.7
14680.3
14709.1
14731.6
14734.6
14736.2
14004.7
14051.5
14203.3
14416.6
14585.7
14680.3
14709.1
14731.6
14734.6
14736.2
14661.4
14698.1
14676
14569.4
13915.1
14661.4
14698.1
14676
14569.4
13915.1
15520.2
15523.5
15779.9
16045
16730.1
15520.2
15523.5
15779.9
16045
16730.1
)
;
    }
    empty
    {
        type            empty;
    }
}


// ************************************************************************* //
