/*--------------------------------*- C++ -*----------------------------------*\
| =========                 |                                                 |
| \\      /  F ield         | OpenFOAM: The Open Source CFD Toolbox           |
|  \\    /   O peration     | Version:  v1912                                 |
|   \\  /    A nd           | Website:  www.openfoam.com                      |
|    \\/     M anipulation  |                                                 |
\*---------------------------------------------------------------------------*/
FoamFile
{
    version     2.0;
    format      ascii;
    class       volScalarField;
    location    "7.9";
    object      s;
}
// * * * * * * * * * * * * * * * * * * * * * * * * * * * * * * * * * * * * * //

dimensions      [0 2 -2 0 0 0 0];


internalField   nonuniform List<scalar> 
10000
(
-6.79581e-16
1.88572e-13
-4.72821e-12
-1.63021e-10
5.26686e-09
-9.00996e-08
3.48099e-06
6.87185e-06
-2.26663e-05
3.59494e-05
-3.31118e-05
8.27572e-06
3.74618e-05
-9.76495e-05
0.000158866
-0.00022422
0.0002782
-0.000277419
0.000356663
-0.000324817
0.00023814
-0.000347967
0.000150125
-0.000181881
0.000100231
3.58909e-05
5.7301e-06
0.000197698
-0.000136443
0.000299679
-0.000284422
0.000359098
-0.000397105
0.000391046
-0.000451149
0.000399984
-0.00044647
0.000382732
-0.000396512
0.000337388
-0.000317808
0.000267904
-0.000225224
0.000183643
-0.000131505
9.697e-05
-4.8083e-05
2.10003e-05
1.49128e-05
-3.21205e-05
4.96194e-05
-5.30608e-05
5.15995e-05
-3.77025e-05
2.10019e-05
1.02667e-05
-3.56565e-05
7.73461e-05
-0.000102863
0.000139654
-0.000154322
0.000165208
-0.000156178
0.000121572
-8.02218e-05
-8.70985e-06
7.27493e-05
-0.000206351
0.000251118
-0.000395633
0.000353047
-0.000441871
0.000260503
-0.000201008
-8.35407e-05
0.000290561
-0.000485088
0.00052397
-0.000386436
8.9549e-05
0.00027354
-0.000262374
0.000132041
6.28107e-05
-9.62667e-06
2.71356e-05
4.13364e-06
-1.35785e-06
-2.80895e-06
-5.47215e-06
-4.29366e-06
-1.98466e-06
-2.754e-07
1.61499e-07
5.28631e-09
-2.21589e-11
-5.34183e-11
-5.78398e-12
-1.65498e-13
-5.76048e-16
-1.81534e-13
3.14007e-11
-1.13292e-09
-1.24832e-08
9.8416e-07
-2.48367e-05
-0.000504091
0.000107594
0.000605114
-0.0013895
0.0018861
-0.00193096
0.00151098
-0.000577627
-0.000474364
0.00148756
-0.00392046
0.00345502
-0.00421932
0.0095648
-0.00389784
0.00772152
-0.00963653
0.00514457
-0.0108268
0.00518521
-0.0084851
0.00568789
-0.0058329
0.00588317
-0.0031225
0.00523552
-0.00108267
0.00329422
0.000213996
0.000697285
0.00128586
-0.0017912
0.00243425
-0.00378548
0.00364342
-0.00522365
0.0047671
-0.00618477
0.00567655
-0.00671396
0.00630463
-0.00677273
0.0065978
-0.00632393
0.00645143
-0.00540621
0.00570928
-0.00409377
0.00423286
-0.00239685
0.0019858
-0.000241162
-0.000897555
0.00237658
-0.00403882
0.00507929
-0.00674443
0.00686139
-0.00805886
0.00632193
-0.00707994
0.00265755
-0.0033642
-0.00326373
0.00307376
-0.00938964
0.011446
-0.0139189
0.0165111
-0.0122532
0.0052416
0.00497877
-0.0168354
0.0223623
-0.0105228
-0.00428101
0.00998645
-0.00324985
-0.000164049
0.000610383
-0.000693023
-0.00012575
-0.0002293
-0.000288448
-0.000146647
-4.53364e-05
2.25442e-05
3.20459e-05
-4.21559e-08
4.24022e-08
9.29203e-09
8.30126e-10
2.6287e-11
1.71833e-13
-3.45222e-12
9.1939e-10
-8.52314e-08
1.7569e-06
-1.91249e-05
0.00312254
0.00810247
-0.00802383
0.00290489
0.00392434
-0.00965686
0.0129564
-0.0146015
0.0136699
-0.00876108
0.00991819
-0.00157897
-0.0116823
-0.015077
-0.0191674
0.0278776
0.0130923
0.0299608
-0.013228
0.0205223
-0.0248394
0.0244956
-0.0192628
0.0162163
-0.0297442
0.00724161
-0.0303479
0.0120036
-0.0229313
0.0176841
-0.0177442
0.0194325
-0.0146698
0.0182035
-0.011698
0.014946
-0.00815132
0.0116973
-0.00379838
0.0100356
0.000887309
0.00883908
0.00448639
0.00571372
0.00578008
-7.84881e-05
0.00503633
-0.00693876
0.00395414
-0.0127209
0.00454489
-0.016801
0.00815914
-0.020809
0.0149737
-0.0275056
0.0230885
-0.0376488
0.0273372
-0.0459121
0.0209719
-0.0407881
0.00380866
-0.01602
-0.00814002
0.0117177
0.00401191
0.0135789
0.0142873
0.00967115
-0.0525249
0.0758023
-0.118808
0.0888937
0.05397
-0.136571
0.0995885
0.0113476
-0.0417443
0.0181855
-0.00565167
-0.00396146
0.00286544
-0.00355415
-0.00178812
0.000105457
0.000494305
0.000913096
0.000658778
-0.000180308
-6.42769e-06
-4.97283e-07
-3.18804e-08
-9.11221e-10
-6.67385e-12
1.9299e-10
-2.25797e-08
-1.24431e-06
6.5274e-05
-0.00599801
-0.0412443
-0.0149808
0.0358204
-0.0295301
0.0127145
0.00418686
-0.0128658
0.0182329
-0.0285888
0.0246853
-0.00991161
0.0279437
0.00271806
-0.000386141
-0.0388035
-0.0357705
0.00900534
0.0248391
0.00547771
0.00592386
-0.0396156
-0.0482214
0.0197031
0.0464251
0.0283582
0.019435
-0.0177915
0.00520004
-0.0109371
0.0272971
-0.00226498
0.0279421
-0.0105689
0.0101661
-0.00406097
0.00150809
0.0169625
0.00411594
0.0258623
0.00200453
0.0131323
-0.0114078
-0.00766637
-0.0262327
-0.021748
-0.0302897
-0.0260788
-0.0221306
-0.0244917
-0.00992079
-0.0194114
-0.00239157
-0.0102909
-0.00433418
0.00360265
-0.0189293
0.0204066
-0.045363
0.0343548
-0.0647036
0.0343452
-0.0355422
0.00314444
0.0649204
-0.057545
0.148524
-0.0788638
0.0580668
0.0168174
-0.158561
0.136331
-0.0748681
-0.0380545
0.340771
-0.262062
-0.0370728
0.248769
-0.142484
-0.0138063
0.0566236
-0.0328471
0.021323
-0.00127935
-0.0248302
0.00777869
0.00571363
0.00379771
0.00516771
0.00195593
-0.00349392
0.000306081
1.06404e-05
5.20689e-07
1.16713e-08
7.49322e-11
4.64112e-09
-1.14017e-06
-1.82951e-06
0.00521994
0.0616379
0.110361
-0.0538661
0.00795006
-0.000996205
0.00936599
-0.0242052
0.024198
-0.00503091
0.0119326
-0.0345693
-0.00165595
0.0123593
0.0203906
0.0404538
-0.019269
0.0137565
-0.0375301
-0.0373141
-0.107663
0.129369
0.128502
-0.0479919
-0.101259
0.0716379
0.0628701
0.0425042
0.00904526
-0.105396
-0.0500654
-0.115721
0.0206015
-0.0223689
0.147911
0.00984742
0.187477
-0.0442236
0.110549
-0.104065
0.00266335
-0.113857
-0.0549737
-0.0787452
-0.0579942
-0.0272794
-0.0492996
0.0213552
-0.0534856
0.0567076
-0.0531032
0.0692524
-0.0180925
0.0534436
0.0519331
0.0104515
0.118981
-0.0510043
0.142309
-0.100698
0.12017
-0.0831421
0.0744225
0.0201161
-0.017365
0.143623
-0.196104
0.186986
-0.2531
0.048993
0.110144
-0.110711
0.502565
-0.319217
-0.00733908
0.0659276
-0.361637
0.517495
0.00216874
-0.407003
0.315837
0.0940349
-0.192231
0.0266037
-0.058597
-0.00863217
0.0519652
-0.0113842
0.00230958
0.00608692
-0.00450689
-0.0136784
0.00529668
-0.000284519
-6.49708e-06
-7.41014e-08
-2.05824e-10
4.54836e-08
-2.81649e-05
-0.00182014
-0.0257407
-0.108372
-0.00708033
0.0297636
-0.0359577
0.0471723
-0.0506586
0.0547722
-0.0624086
0.0217079
0.0158247
0.033803
-0.0186621
-0.036864
-0.0371216
-0.0601099
-0.0109859
0.0277475
0.30858
-0.00855346
-0.13231
-0.290844
0.211512
-0.0993633
0.0236162
-0.111402
0.239524
-0.144593
0.235653
-0.0507494
0.152574
0.0341025
0.0690544
-0.0117385
-0.00730595
-0.0367779
-0.0738112
0.0207254
-0.127927
0.114251
-0.173797
0.170926
-0.207545
0.158773
-0.220753
0.10647
-0.204258
0.0588118
-0.140223
0.0307746
-0.0148095
-7.56022e-05
0.147016
-0.0612992
0.282279
-0.143489
0.339688
-0.184866
0.314649
-0.102105
0.215277
0.0985216
-0.0183977
0.214549
-0.34856
0.196247
-0.440959
0.16063
-0.152239
0.0821298
0.315733
-0.381263
0.203209
-0.373378
0.259949
0.266936
-0.397398
0.113032
-0.275511
0.299243
0.449217
-0.719693
-0.310172
0.30895
0.0169799
0.0649206
-0.0236206
-0.0661602
0.0206026
-0.00190162
-0.00887059
-0.00959472
0.0117508
-0.00260869
0.000154128
2.12754e-07
-5.30922e-09
1.75773e-06
-0.000153852
-0.0108026
-0.0395751
0.00681209
-0.0710621
0.0843196
-0.0859845
0.0873197
-0.0731394
0.0609214
-0.0179552
-0.0481479
0.001296
0.00455654
0.135371
-0.0236384
0.300429
-0.210777
-0.272338
-0.394874
0.296461
0.231027
0.0983432
-0.0455032
-0.0601424
0.0552041
-0.239301
0.123609
-0.130164
0.261519
0.0402477
0.313227
-0.0653518
0.301497
-0.2238
0.15732
-0.312306
0.00563391
-0.30001
-0.0103571
-0.241125
0.0791032
-0.169573
0.115765
-0.0676978
0.0254686
0.0488158
-0.11013
0.148384
-0.188965
0.220087
-0.200709
0.263878
-0.188951
0.281351
-0.158896
0.276573
-0.0732036
0.240908
0.0666101
0.128462
0.190818
-0.11578
0.246
-0.382651
0.314177
-0.404537
0.293564
-0.205099
-0.0215557
0.0439311
-0.420353
0.128739
-0.324856
0.318224
-0.0138909
-0.108002
-0.119445
-0.0229124
0.360958
-0.292631
-0.0119225
-0.0919546
-0.569628
0.459839
0.648758
-0.145523
-0.174071
-0.103416
0.0431839
0.0367356
-0.0171948
0.0143866
0.00109671
-0.0068749
0.00630521
-0.000450327
-2.02788e-05
1.81012e-07
8.25804e-05
0.00818826
0.0898235
0.0898969
-0.066296
0.049303
-0.0125045
-0.0039895
-0.0313924
0.0535101
-0.061119
0.0748391
0.0188348
-0.1069
-0.0564544
-0.407752
0.154765
0.233884
0.934024
-0.241369
0.0401198
-0.570672
0.23249
-0.398756
0.251669
-0.298396
0.0661769
-0.202982
0.223433
-0.0488627
0.273909
0.0597827
0.185574
-0.0187617
0.122844
-0.123161
0.119976
-0.0933617
0.0947284
0.011988
-0.00190016
0.0416278
-0.151718
-0.0282781
-0.308233
-0.0785669
-0.375758
-0.0459031
-0.307473
0.04356
-0.162434
0.152219
-0.0257428
0.248901
0.0659259
0.283192
0.113095
0.204626
0.129743
0.0337915
0.15631
-0.14096
0.197654
-0.261504
0.217909
-0.29877
0.129617
-0.219904
-0.0551064
-0.0112097
-0.234316
0.216177
-0.201174
0.148717
-0.134838
-0.0227961
-0.216344
0.356395
0.236095
-0.0344124
0.081341
-0.355533
0.374114
0.29646
-0.260135
0.714658
0.295653
-0.744395
-0.194357
0.162059
0.0731441
-0.0600607
0.0306792
0.0473756
-0.00717363
-0.00272664
0.0238019
-0.00952513
0.000540481
-2.9153e-06
-0.00074719
-0.0307786
-0.110793
0.117798
-0.045822
-0.0148848
-0.0109712
0.0774151
-0.0426522
-0.0238072
0.112297
-0.232985
0.348065
-0.0904043
0.489064
-0.480251
-0.822993
-0.493014
0.428484
0.319718
0.202464
0.344277
0.299653
-0.0114227
-0.114854
-0.147508
-0.136933
-0.0399249
-0.0591499
0.0186818
-0.0124981
-4.77617e-05
-0.0263911
0.0874032
0.0342125
0.232846
0.0943993
0.266414
0.0638099
0.186431
-0.120161
0.0485097
-0.323816
-0.062682
-0.435229
-0.106672
-0.433457
-0.0982019
-0.340816
-0.038101
-0.198132
0.070225
-0.0506054
0.189106
0.0651584
0.262068
0.128792
0.249332
0.148949
0.135175
0.148997
-0.0668582
0.144814
-0.26873
0.145427
-0.342909
0.168898
-0.210486
0.135223
-0.0187406
-0.0286403
0.120244
-0.160601
0.157321
-0.0614477
0.312038
-0.292007
0.117181
-0.103773
-0.358078
0.641963
0.108907
0.221344
0.0941638
-0.415769
0.482158
-0.146168
-0.871871
0.0261265
0.282726
0.0427414
-0.00438217
0.120475
-0.00219879
-0.0330766
0.00343101
-0.0124062
-0.0109707
0.00248241
-4.96735e-05
0.00196483
0.0338905
-0.0517626
-0.156571
0.110917
-0.0245795
0.0563089
-0.128352
0.0327151
0.0171642
-0.0944895
0.223875
-0.497344
0.436113
0.121596
1.15893
-0.555292
-0.562767
-0.540854
-0.139781
-0.607354
0.0245411
-0.113349
0.110651
-0.0807542
0.247068
-0.119899
0.232974
-0.172197
0.128994
-0.170733
0.10698
-0.109341
0.156701
-0.0902413
0.203923
-0.148441
0.224248
-0.182185
0.194525
-0.159289
0.148064
-0.104122
0.0981363
-0.0700085
0.0442419
-0.0745569
-0.0105588
-0.105597
-0.0588664
-0.146021
-0.0830752
-0.162815
-0.0809511
-0.12599
-0.0743768
-0.0316749
-0.100115
0.106748
-0.173178
0.251105
-0.256588
0.294749
-0.265846
0.209901
-0.161573
0.0611416
-0.00502763
-0.0486786
0.174121
-0.174255
0.23429
-0.330195
0.125929
-0.43713
0.123946
-0.0343857
0.203507
0.60585
-0.0291325
0.310208
-0.323163
-0.187115
0.0317732
-0.400301
0.437472
-0.308394
-0.715946
0.22468
0.433179
0.116629
-0.0435869
-0.0237689
-0.125795
-0.0309254
-0.00457475
-0.0160932
0.0117645
0.00137064
-0.000115626
-0.00182358
0.0124099
0.205844
0.124311
0.0995045
-0.095368
-0.0159387
0.217676
-0.216977
0.19747
-0.334659
0.240324
-0.276459
-0.24049
0.0664642
0.777932
0.413586
0.409564
0.114639
0.333259
-0.255553
0.278328
-0.308731
0.0106295
-0.306526
0.0376552
-0.315317
0.020674
-0.297956
0.0255297
-0.273985
0.0711466
-0.197138
0.121146
-0.107765
0.180914
-0.0435779
0.235191
-0.0174893
0.241278
-0.0273013
0.193428
-0.0640842
0.108291
-0.101257
0.0147938
-0.126094
-0.0602408
-0.143787
-0.0995276
-0.152674
-0.115613
-0.132151
-0.143329
-0.0668728
-0.197091
0.0328152
-0.250442
0.128935
-0.261652
0.171492
-0.198755
0.136008
-0.0723373
0.0833512
0.0554273
0.12211
0.156229
0.1709
0.328755
0.119884
0.414607
0.090478
0.31682
-0.00208903
0.029029
-0.184203
-0.347269
-0.176384
-0.406618
0.262577
-0.298989
0.151531
0.266847
-0.295569
0.424893
-0.277774
-0.636165
0.405406
0.494875
-0.0739851
-0.160737
-0.0517504
-0.056571
0.0745689
0.0292302
0.00852078
0.010339
-0.00227235
-3.85027e-05
-0.000422837
-0.0474499
-0.130294
-0.077069
-0.0481826
0.036332
-0.0321851
-0.181548
0.447681
-0.402319
0.569619
-0.402589
0.228466
-0.679917
-0.393959
0.304982
0.373137
-0.0930394
0.519597
0.331711
0.415998
0.581981
0.441977
0.498244
0.33715
0.475014
0.118571
0.333833
-0.00315393
0.208226
-0.000718919
0.161234
0.00916798
0.166483
0.0466074
0.145097
0.0747125
0.0929991
0.0705386
0.0385829
0.047886
0.00276516
0.0191561
-0.0149178
-0.00930232
-0.0245761
-0.0339421
-0.0319292
-0.0433273
-0.0424457
-0.0175534
-0.058998
0.0546978
-0.0804642
0.158124
-0.100502
0.251385
-0.110139
0.290838
-0.102637
0.253113
-0.081063
0.145096
-0.0701285
0.0153962
-0.0798735
-0.108596
-0.0216908
-0.256714
0.134212
-0.318279
0.138733
-0.328594
-0.0337947
-0.427804
-0.144367
-0.280486
-0.204047
0.193388
-0.313379
0.644214
-0.0847884
0.0457288
0.211178
-0.441556
0.15462
-0.176033
-0.388947
0.523552
0.511364
-0.236672
-0.16045
0.0519184
-0.000906862
0.0483633
-0.0137104
-0.00880664
-0.00120884
-0.0021703
7.43586e-05
0.00147304
0.0337228
0.0847544
0.0889263
-0.00652564
-0.195657
0.424477
-0.511914
0.272721
-0.0991153
0.0784965
0.00720305
0.277929
-0.788222
-0.178101
-0.540009
0.167466
-0.483736
0.0345524
-0.214636
-0.0759771
-0.0635517
0.112586
-0.165781
0.351894
-0.139848
0.189389
-0.064391
0.0807068
0.0382307
0.11864
0.102716
0.253711
0.168586
0.321137
0.225275
0.316104
0.251176
0.277764
0.242737
0.235435
0.195571
0.198999
0.116085
0.172939
0.0198617
0.153803
-0.0754398
0.132128
-0.158976
0.105411
-0.226885
0.0790991
-0.274435
0.0568912
-0.291849
0.0340218
-0.269302
0.00104345
-0.204456
-0.0458407
-0.110488
-0.0973491
-0.0201191
-0.14816
0.0501176
-0.210732
0.111161
-0.23963
0.149464
-0.108657
0.224817
0.0933393
0.298612
0.195458
0.000278459
0.130499
-0.361656
-0.0226672
-0.399179
0.0485369
0.0621843
-0.0414386
0.212522
-0.373428
0.176871
0.106641
-0.481523
0.319312
0.35818
-0.368129
-0.229836
0.0371993
0.00708561
-0.00284664
-0.0363562
-0.00105426
-0.00390035
-0.000610999
9.5181e-05
-0.00211909
-0.0430902
-0.0910454
-0.00619586
0.124872
-0.0715769
-0.183636
0.40378
-0.498339
0.239949
0.0920162
0.0837857
0.240737
-0.0358438
-0.527967
-0.17614
0.0372289
-0.799178
0.0921132
-0.597023
0.148998
-0.204877
0.0958365
-0.0959248
0.0360884
-0.321802
-0.0918085
-0.383537
-0.128694
-0.294856
-0.117227
-0.178918
-0.0813278
-0.167693
-0.0341999
-0.175637
-0.0143506
-0.15885
-0.0149773
-0.119439
-0.0162716
-0.0753566
0.00591434
-0.0418141
0.0582032
-0.0281957
0.12769
-0.0336394
0.195924
-0.048319
0.251176
-0.0611416
0.288955
-0.063407
0.305423
-0.0485753
0.292198
-0.0143917
0.238962
0.032402
0.144993
0.0766751
0.0289277
0.109107
-0.082319
0.131602
-0.176057
0.13425
-0.269409
0.109109
-0.353902
0.0986458
-0.292192
0.0640516
0.0246241
0.0112014
0.141722
-0.0569964
0.075229
-0.251893
0.0734525
0.0539548
0.0396564
0.462289
-0.319446
0.141072
0.088741
-0.446646
0.393016
0.394784
-0.393813
-0.159113
0.116335
0.0853572
0.0272281
-0.0273146
0.0155172
0.00459923
0.000299323
9.67906e-05
0.00245489
0.0220256
-0.00127652
0.0238972
-0.0638292
0.360972
-0.391768
0.26981
-0.185283
0.185286
-0.530605
0.711385
0.300473
0.317345
0.0267285
-0.0629308
-0.0308445
-0.28164
-0.0230689
-0.143529
0.0199215
-0.151536
0.191265
-0.215108
0.190616
-0.210127
0.19583
-0.114555
0.231469
-0.036882
0.24564
0.00489337
0.196309
0.0333661
0.184534
0.0290177
0.203029
0.0159937
0.221045
0.00514288
0.221833
-0.00538039
0.203495
-0.0279175
0.173112
-0.0669498
0.139638
-0.112956
0.106467
-0.152064
0.0708996
-0.174316
0.0307883
-0.172991
-0.0100462
-0.142714
-0.0437773
-0.0838834
-0.0663238
-0.0105888
-0.0838208
0.0502845
-0.110019
0.0783516
-0.150675
0.0881096
-0.191678
0.12246
-0.205214
0.148127
-0.140146
0.0780625
0.036912
-0.0720304
0.206887
-0.0264869
0.251806
-0.0873241
0.218603
-0.296119
-0.0342635
0.0825029
-0.193409
0.566316
-0.22809
0.19796
0.200406
-0.285459
0.232516
0.35229
-0.250981
-0.0965318
0.200118
0.0944549
-0.0349441
0.00545164
0.0288133
0.0110077
-0.000994518
7.43735e-05
-0.0019732
-0.0238043
-0.121565
-0.0580065
-0.119943
0.182501
0.0845235
0.139264
-0.262237
0.0726211
-0.207421
0.0696634
0.133142
0.585766
-0.545842
0.422673
-0.185025
-0.111322
-0.164176
-0.0819831
-0.136587
0.0548586
-0.0444809
-0.150864
0.0465335
-0.260991
0.068653
-0.224972
0.0408515
-0.155947
0.0452643
-0.128539
0.0919934
-0.0668735
0.137043
-0.00220218
0.183362
0.0340393
0.221915
0.0362073
0.243891
0.0167528
0.245186
-0.00660323
0.232438
-0.0227172
0.213308
-0.0293759
0.188319
-0.0285526
0.154671
-0.0221736
0.113327
-0.010726
0.0708247
0.00771506
0.0360549
0.0379378
0.0146656
0.0831675
0.00219242
0.136062
-0.0200742
0.176846
-0.0769278
0.186661
-0.164117
0.151178
-0.201863
0.0519748
-0.133001
-0.0627879
0.0111557
-0.113978
0.0605663
-0.117852
0.20804
-0.209707
0.264954
-0.279442
-0.18659
-0.129359
-0.15472
0.197986
-0.0987491
-0.099091
0.188764
-0.483612
0.0141123
0.375168
-0.36184
-0.0267439
0.169505
0.0132719
-0.127555
0.0746376
-0.029434
0.00592737
-0.00310395
9.79029e-05
0.00232312
0.0304252
0.0487066
-0.074704
-0.337284
-0.104334
0.153627
-0.106828
0.388785
-0.263433
-0.318851
0.256459
0.107091
0.366189
-0.086315
0.213337
-0.209544
0.0427868
-0.180389
0.0725777
-0.204307
0.120302
-0.294573
0.126614
-0.0618193
0.0410337
0.0804496
-0.045011
0.0951922
-0.0675008
0.0514035
-0.0712249
0.0929221
-0.0846418
0.154129
-0.0984783
0.172544
-0.118562
0.141316
-0.144454
0.0872893
-0.168403
0.0372591
-0.17909
0.00149098
-0.172819
-0.0214833
-0.153789
-0.0359126
-0.12762
-0.0452035
-0.0979288
-0.0523212
-0.0658159
-0.0603878
-0.0290663
-0.0713166
0.0180545
-0.0829948
0.0807532
-0.0895085
0.153824
-0.0882912
0.21173
-0.0838423
0.209917
-0.0701592
0.114066
-0.0230965
-0.0256825
0.0482499
-0.122915
0.136614
-0.10753
0.22388
-0.155491
0.305639
-0.190055
0.244244
0.00932514
-0.149103
0.0435012
-0.339871
0.378713
0.108319
-0.13431
0.408534
-0.561103
0.0532149
0.167971
-0.332714
0.0262644
0.175481
-0.0457439
0.0308338
0.07847
-0.0639188
0.0129533
-0.00475936
0.000134699
-0.00200307
-0.0265074
0.03122
0.12198
0.0312012
-0.58317
0.109754
-0.500418
0.178476
-0.127258
0.0590032
-0.36466
0.272324
0.199668
-0.271217
0.278349
-0.126996
0.00819931
-0.263641
0.0427051
-0.141024
0.0688405
0.02168
0.24609
-0.0235732
0.101685
-0.0828823
-0.000969988
-0.118471
-0.00725958
-0.114154
0.103753
-0.0723774
0.144774
-0.029357
0.0742001
-0.0074421
-0.0420659
-0.00381406
-0.133713
-0.00836716
-0.175235
-0.0143499
-0.178123
-0.0234862
-0.163266
-0.0393695
-0.14449
-0.061978
-0.125683
-0.0882979
-0.103668
-0.114836
-0.0719803
-0.13853
-0.0247823
-0.155102
0.0390649
-0.155998
0.113303
-0.128298
0.183975
-0.0637067
0.228977
0.0245039
0.219353
0.0906256
0.140297
0.0763663
0.0292877
0.0074467
-0.0479055
-0.00227653
-0.0376518
0.145964
0.000807448
0.266712
-0.00440911
0.0181669
0.183394
-0.188722
0.16611
-0.361567
0.120177
-0.0637232
0.0873427
0.108369
-0.442526
0.0642716
0.23538
-0.230139
-0.0671121
0.131279
-0.184559
0.0507875
-0.166283
-0.0109357
0.0120906
-0.00959778
0.000264336
0.00256735
0.0132475
-0.0468861
0.148133
0.60834
-0.00627966
0.442031
0.038093
0.2295
-0.317397
-0.0141096
-0.350798
0.237685
-0.0887934
0.0785653
0.0829355
-0.242398
-0.0686045
-0.202407
0.237134
-0.297846
0.336495
-0.129493
0.141125
-0.219843
-0.0068215
-0.144433
-0.134116
-0.0656981
-0.119587
0.0275125
-0.0607135
-0.00787752
-0.0392858
-0.087586
-0.0335518
-0.114309
-0.0232711
-0.0744306
-0.00765529
-0.0107077
0.00653817
0.0320057
0.0129416
0.0342838
0.0117752
-0.00100794
0.00809127
-0.0621891
0.00623545
-0.138194
0.00656967
-0.220472
0.00569874
-0.299593
-0.000842884
-0.360897
-0.0143008
-0.384318
-0.0276691
-0.352089
-0.0232008
-0.262371
0.020189
-0.139564
0.104759
-0.030126
0.185349
0.0197925
0.160782
0.00829046
-0.0189442
0.0136902
-0.199946
0.132406
-0.180683
0.288551
0.119363
-0.00739198
0.114884
-0.186039
0.214285
-0.339108
0.262694
-0.0822554
0.0166758
0.241834
-0.2319
-0.184204
0.588212
-0.165168
-0.194244
0.280827
-0.144572
-0.0954215
-0.101789
0.0798367
-0.00692955
-0.00585584
0.000617953
-0.00167061
-0.00921342
-0.0713039
-0.0320296
0.293231
0.0185418
-0.172294
-0.0401059
0.196047
-0.0963333
0.0877376
-0.493021
0.193854
-0.0694879
0.13616
-0.151421
0.0361096
-0.110296
-0.016139
-0.0150031
-0.0868375
0.303453
-0.213893
0.134841
-0.300928
0.137753
-0.34537
0.10434
-0.166246
0.129122
-0.0473282
0.0817245
-0.000562009
0.0704381
0.0554778
0.11006
0.100184
0.149214
0.104668
0.151586
0.0685028
0.119036
0.00967355
0.0754217
-0.0490944
0.0434734
-0.0913505
0.0328605
-0.111069
0.03997
-0.110734
0.0529399
-0.0978925
0.0572239
-0.0830015
0.0410988
-0.0781189
0.00252652
-0.093843
-0.0437973
-0.131999
-0.0669171
-0.175317
-0.0383179
-0.18351
0.034857
-0.110053
0.0960268
0.0543512
0.070313
0.218655
-0.0759336
0.221889
-0.228971
0.131859
-0.17376
0.0267116
0.292106
0.0926753
0.268618
-0.256181
0.261119
-0.299703
-0.027133
0.147538
-0.0533102
0.242621
-0.394389
-0.0827361
0.436127
-0.167699
-0.0415612
0.248857
0.0181969
-0.038726
0.18954
0.0494811
-0.0383935
0.00286548
0.000440387
0.00246333
0.0156763
-0.0522235
-0.292246
0.150639
0.0347534
-0.0293072
-0.285065
0.0303432
-0.00361071
-0.0215354
-0.448669
0.253966
-0.0327678
0.0243351
-0.0905687
-0.0736638
-0.27728
0.0546545
0.0575542
0.0617136
0.108888
-0.308858
-0.018598
-0.220392
0.0114164
-0.199704
0.23345
-0.118529
0.245526
-0.0954127
0.231792
-0.0378739
0.255167
0.000284173
0.227697
-0.0134209
0.143202
-0.059627
0.046315
-0.106619
-0.0241462
-0.134504
-0.0529379
-0.139636
-0.0453896
-0.128626
-0.0160712
-0.110547
0.0217213
-0.0926165
0.0607381
-0.0802618
0.0990393
-0.079622
0.136038
-0.0991944
0.167363
-0.146508
0.180746
-0.216556
0.157101
-0.276304
0.0823455
-0.265978
-0.0307625
-0.142667
-0.128408
0.0574946
-0.14084
0.215156
-0.0809928
0.194466
-0.122229
0.0196148
-0.123849
-0.213125
0.0128725
0.0422645
0.34438
-0.136339
0.153479
-0.076781
-0.0352293
-0.0652864
0.0163922
0.380878
-0.284226
-0.115216
0.0933649
-0.0386379
0.0818471
-0.079861
-0.203039
-0.0186238
0.0391078
-0.0643322
-0.0211705
0.00541499
0.000292765
-0.00148502
0.0129254
0.0871921
-0.124277
-0.184532
0.061721
0.0288611
0.306375
0.14026
0.179258
-0.017359
-0.378779
0.272816
-0.272618
0.161921
-0.238045
-0.0144371
-0.0323644
0.257522
-0.0628791
0.0352832
-0.131023
-0.183107
0.147815
-0.0626798
0.102314
0.0803395
0.161836
-0.0299798
0.204149
-0.0542893
0.229202
-0.059551
0.173143
-0.144703
0.0816645
-0.245886
0.00991968
-0.300922
-0.0253036
-0.29908
-0.0306596
-0.26131
-0.0195472
-0.2152
-0.00342559
-0.179499
0.0118687
-0.160147
0.0261395
-0.153683
0.0424646
-0.152106
0.0636306
-0.145927
0.0877775
-0.1254
0.103772
-0.0821136
0.0892483
-0.0138768
0.0186591
0.0663231
-0.11095
0.125173
-0.247332
0.127573
-0.293976
0.0903089
-0.202931
0.116802
-0.0605687
0.252482
-0.0212042
0.168203
0.0218934
-0.0798198
-0.0986983
-0.168059
0.226161
-0.0410524
0.12295
-0.104886
-0.0292471
0.156759
-0.332721
0.440126
-0.15032
-0.136122
0.257778
-0.0862113
0.0491335
0.0398417
-0.0129727
0.0719079
0.0631688
-0.0156595
0.049227
-0.00156293
0.000202202
0.00165518
-0.0177414
0.0114246
0.0397046
-0.131216
0.130429
-0.367155
0.0736567
-0.175347
0.0554649
-0.208238
-0.192
0.016993
-0.0563496
0.00643091
-0.208035
0.123923
-0.135095
0.0635889
-0.109333
0.0157146
-0.083703
0.0376598
0.107272
-0.143422
0.157685
-0.0301071
0.0500162
0.0269188
0.0604293
-0.0314532
0.0316207
-0.145978
-0.0414177
-0.208196
-0.0570941
-0.202982
-0.0022224
-0.164568
0.0849353
-0.12206
0.165249
-0.0902843
0.217574
-0.0741252
0.238669
-0.0724121
0.234618
-0.0808418
0.21244
-0.0937193
0.176148
-0.104206
0.126956
-0.103979
0.0658715
-0.0843584
-0.00237891
-0.0412933
-0.0649259
0.0150873
-0.0995957
0.0523446
-0.0867345
0.0272644
-0.0424195
-0.063339
-0.0470143
-0.126613
-0.175648
-0.0385065
-0.289832
0.125351
-0.0768981
0.0450155
0.124124
0.0519223
0.061523
-0.173952
0.134643
-0.103958
0.129905
0.00297653
-0.170869
0.19181
-0.119541
0.11345
0.00657943
-0.0319896
-0.000879552
-0.203135
0.177021
0.00578964
0.0186473
0.0159404
-0.000393288
-0.0139591
-0.0215523
0.00214842
0.000476734
-6.45257e-05
0.0244784
0.00487638
-0.232013
-0.407823
0.0980053
-0.174347
0.242664
-0.0897472
0.468043
0.051491
-0.11278
-0.00246983
-0.160305
0.110214
-0.0676904
0.111508
-0.0913218
0.275888
-0.0931654
0.101963
-0.0665619
0.115344
-0.0251653
0.0922417
0.166772
-0.0434517
0.16968
-0.135651
0.0570424
-0.218523
0.00182244
-0.238992
0.0363904
-0.176049
0.0946678
-0.0853961
0.130689
-0.0137032
0.138991
0.0215462
0.129104
0.0256178
0.111003
0.0143174
0.0913194
0.00264265
0.0726896
-0.000711511
0.054333
0.00640279
0.0335138
0.0211115
0.00760047
0.0364857
-0.0233529
0.0420147
-0.0539433
0.0259642
-0.0728384
-0.0160985
-0.069193
-0.0640463
-0.0509248
-0.0592851
-0.0656639
0.0616586
-0.178099
0.24392
-0.350294
0.237594
-0.346224
-0.0476573
-0.0596555
-0.0801168
-0.081941
0.0376966
0.118439
-0.151395
0.15995
-0.036994
-0.0355103
0.0329113
-0.214174
0.0680989
-0.0978091
0.173253
-0.132317
-0.101296
0.168934
-0.125756
0.136052
-0.203392
-0.139727
-0.0964765
0.0147734
-0.00177252
-0.0324831
0.0219348
1.97317e-05
0.000410268
-0.00218296
0.0479618
0.180798
-0.202041
0.0974982
-0.311037
0.161818
-0.0871651
0.196737
-0.38557
-0.203472
-0.19002
0.285584
0.0599413
-0.0538811
0.122907
-0.105529
0.12804
-0.18889
0.0870596
-0.00180323
0.103745
0.0448732
0.0826118
-0.151259
0.0269326
-0.268357
-0.0594959
-0.191784
-0.0608745
-0.0479683
-0.043497
0.0834199
-0.0492394
0.17149
-0.0712107
0.211863
-0.089637
0.211561
-0.0951977
0.18751
-0.088036
0.157703
-0.0720515
0.132844
-0.0515381
0.115611
-0.0298107
0.104533
-0.0091194
0.0978413
0.00866059
0.095083
0.0212158
0.0958326
0.0257266
0.0952054
0.0207654
0.0771718
0.0113082
0.0119799
0.015023
-0.125848
0.0579223
-0.301841
0.135994
-0.367833
0.153785
-0.179614
-0.0117777
0.0490433
-0.179247
-0.0964723
0.0545652
-0.0742794
-0.168382
0.219474
-0.173295
0.0596302
0.0805798
0.13071
0.0616516
-0.103528
-0.0467764
-0.0767256
0.14372
-0.0597388
-0.0275182
0.22478
-0.309326
0.178531
0.0553968
0.0563226
0.123556
0.0492175
-0.034924
0.0297902
0.00607215
-0.000243157
0.000336331
-0.00949782
-0.030516
0.108998
0.0837173
0.203199
0.0498674
0.305088
-0.0925591
0.391014
-0.0480952
0.0791936
0.163812
0.161316
-0.116246
0.105918
-0.0910865
-0.0636135
0.216581
-0.121079
0.280617
-0.0525677
0.111385
-0.0612935
-0.195858
0.0778361
-0.240774
0.0412046
-0.0254459
0.0132214
0.0699547
-0.0115011
0.0736487
-0.00203233
0.0588084
0.031827
0.0280621
0.0721426
-0.0208245
0.106456
-0.0706295
0.129232
-0.103529
0.140067
-0.113532
0.141454
-0.104371
0.136849
-0.083223
0.129285
-0.0564325
0.120711
-0.0275548
0.111819
0.00375254
0.101756
0.0424522
0.0869325
0.0965742
0.0589093
0.168708
0.00442703
0.236657
-0.0832969
0.235506
-0.175279
0.0940215
-0.194847
-0.119247
-0.123279
-0.122257
-0.156444
0.0925721
-0.316557
-0.120487
0.12909
-0.255925
0.0971112
0.0182114
-0.0483505
-0.116214
0.0725493
0.126017
-0.0525546
0.0474295
-0.227795
0.217986
-0.0230985
-0.365814
0.260559
-0.0553206
0.0580042
0.0724318
-0.044913
0.0247735
-0.189364
-0.0728975
0.0421741
-0.0234608
0.000320453
0.000994711
0.00894784
0.0153135
-0.00634896
-0.391087
0.180801
-0.0459119
0.0864382
-0.185432
0.147474
-0.468155
0.024213
-0.189308
0.211287
0.00558573
-0.0475789
-0.0814333
0.128895
0.0880816
-0.0429346
0.132334
-0.178905
0.095208
-0.333833
0.247288
-0.258621
0.0474403
-0.00514083
-0.0667624
-0.0171383
-0.0688838
-0.0358792
0.00378264
0.00112669
0.0494284
0.0228464
0.0518389
0.0157206
0.0335176
0.00726836
0.0128835
0.014607
-0.00187052
0.0354893
-0.00852033
0.0598541
-0.00756889
0.0790264
-0.000574664
0.088267
0.0109588
0.0857033
0.0264986
0.0706779
0.0473674
0.0433596
0.0775668
0.0068596
0.123288
-0.02795
0.187323
-0.039053
0.254257
-0.00513699
0.275703
0.0502957
0.198516
0.0167791
0.0693866
-0.181324
0.0430127
-0.2678
-0.0109357
0.0521754
-0.426464
-0.0155928
-0.143796
-0.0662269
-0.0677017
0.23191
-0.124486
0.0357909
0.091215
-0.0382429
0.0762345
-0.185056
-0.0306584
0.212834
-0.190946
0.120256
-0.0577176
-0.0720278
0.0184891
-0.0818207
0.0853258
0.0607948
0.0876062
0.0194794
0.00648592
0.00176433
8.4896e-05
0.0273042
0.026968
0.266483
0.110544
0.187544
0.0405074
-0.0656797
-0.0287592
0.206216
0.105151
0.339082
0.0202448
0.337672
-0.278421
0.0513674
-0.0685739
0.115199
0.123277
-0.0995193
0.0615608
-0.0622016
-0.109002
0.100907
-0.112601
-0.129138
0.119996
-0.156448
0.0276431
-0.0397085
0.0205663
0.0577784
0.0658869
0.0461744
0.0606285
0.0133272
0.0246112
0.0130336
0.00118754
0.040581
0.00181629
0.0764815
0.0179047
0.107501
0.0395051
0.127901
0.0617577
0.135992
0.0838735
0.131429
0.106509
0.113664
0.129707
0.0813389
0.151463
0.0332111
0.166725
-0.028091
0.167797
-0.0888034
0.149216
-0.118096
0.120231
-0.080924
0.116877
0.0100847
0.174548
0.0466655
0.220565
-0.0481566
0.0472377
-0.0436056
-0.239716
0.165051
-0.080396
-0.152041
-0.263793
0.0559758
-0.300857
0.0774158
-0.000727781
-0.0659601
0.216603
-0.0469077
0.175088
-0.129713
-0.0150071
0.0926501
-0.279289
0.031939
0.0493851
-0.00347214
0.00222383
0.0139451
0.0733625
0.0110949
-0.0674725
0.0240678
0.0445981
0.000609709
0.000169888
-0.01792
0.0274016
-0.0123959
-0.0846155
-0.0950918
-0.00897161
-0.0462792
-0.00144375
0.178514
-0.148382
-0.127865
-0.196436
0.199569
-0.233252
0.0156844
-0.0478796
0.322315
-0.143131
-0.102104
0.166778
-0.324152
0.231965
-0.280555
0.0108438
0.0472342
0.00494279
-0.123738
0.111749
-0.126063
0.102754
-0.0440195
0.0286724
-0.0044938
0.0432967
0.00682706
0.120228
0.0241381
0.191755
0.0522966
0.232449
0.0824706
0.247955
0.106992
0.25139
0.122784
0.253284
0.130195
0.260099
0.131408
0.274765
0.12947