/*--------------------------------*- C++ -*----------------------------------*\
| =========                 |                                                 |
| \\      /  F ield         | OpenFOAM: The Open Source CFD Toolbox           |
|  \\    /   O peration     | Version:  v1912                                 |
|   \\  /    A nd           | Website:  www.openfoam.com                      |
|    \\/     M anipulation  |                                                 |
\*---------------------------------------------------------------------------*/
FoamFile
{
    version     2.0;
    format      ascii;
    class       volVectorField;
    location    "5.34";
    object      grad(rho);
}
// * * * * * * * * * * * * * * * * * * * * * * * * * * * * * * * * * * * * * //

dimensions      [1 -4 0 0 0 0 0];


internalField   nonuniform List<vector> 
1900
(
(154980 0.00292109 0)
(-141098 -0.915669 0)
(-14846.3 0.63645 0)
(-3708.96 -2.0557 0)
(-2103.6 -1.95559 0)
(-1213.09 -1.67453 0)
(-987.196 -0.456837 0)
(-844.114 24.8569 0)
(-682.375 54.4836 0)
(245.602 -44.9007 0)
(154979 -0.345754 0)
(-141097 -1.04868 0)
(-14847.5 0.793571 0)
(-3711.55 -1.4124 0)
(-2103.22 -0.281808 0)
(-1211.59 1.84551 0)
(-960.664 2.51873 0)
(-789.174 10.4965 0)
(-752.133 6.32164 0)
(-757.182 -102.909 0)
(154978 -5.28644e-08 0)
(-141097 4.36984e-08 0)
(-14846.7 -6.18527e-08 0)
(-3710.03 -3.41061e-09 0)
(-2100.35 -1.91847e-09 0)
(-1210.29 -2.22045e-09 0)
(-978.545 -7.56728e-09 0)
(-840.311 9.76996e-10 0)
(-795.781 8.66862e-09 0)
(-863.31 6.50147e-09 0)
(154979 0.345754 0)
(-141097 1.04868 0)
(-14847.5 -0.793571 0)
(-3711.55 1.4124 0)
(-2103.22 0.281808 0)
(-1211.59 -1.84551 0)
(-960.664 -2.51873 0)
(-789.174 -10.4965 0)
(-752.133 -6.32164 0)
(-757.182 102.909 0)
(154980 -0.00292114 0)
(-141098 0.915669 0)
(-14846.3 -0.63645 0)
(-3708.96 2.0557 0)
(-2103.6 1.95559 0)
(-1213.09 1.67453 0)
(-987.196 0.456837 0)
(-844.114 -24.8569 0)
(-682.375 -54.4836 0)
(245.602 44.9007 0)
(-431.183 -825.832 1.28475e-11)
(-2021.89 -700.123 -1.51958e-11)
(-2810.69 -692.833 -1.9114e-11)
(-2667.02 -863.822 0)
(-21625.3 -8214.66 -8.00369e-11)
(-1007.64 -971.697 1.26983e-11)
(-1420.19 -814.682 1.51958e-11)
(-2525.18 -844.827 1.9114e-11)
(-5460.66 -606.888 0)
(-20177.6 -6301.01 0)
(-1346.12 5.82465e-09 0)
(-1607.34 5.59007e-09 0)
(-2478.9 9.86865e-10 0)
(-4837.22 -1.58123e-09 0)
(-22633.6 -5.55112e-09 0)
(-1007.64 971.697 1.26983e-11)
(-1420.19 814.682 1.51958e-11)
(-2525.18 844.827 1.9114e-11)
(-5460.66 606.888 0)
(-20177.6 6301.01 0)
(-431.183 825.832 -3.82441e-11)
(-2021.89 700.123 -1.51958e-11)
(-2810.69 692.833 -1.9114e-11)
(-2667.02 863.822 -5.11251e-11)
(-21625.3 8214.66 8.00369e-11)
(-34830.2 14819.8 2.08445e-11)
(-5776.78 4327.92 -1.48158e-11)
(-1518.56 2334.2 0)
(-3805.56 1537.2 1.07598e-11)
(-10495.3 2306.28 -4.44413e-12)
(-30691.6 18409.9 -1.06454e-11)
(-8549.73 3186.43 7.47305e-12)
(-2211.15 750.953 0)
(-3609.94 494.284 -6.75753e-12)
(-9232.17 1247.79 1.13779e-12)
(-32579.7 -3.00545e-09 0)
(-10217.5 -2.42921e-09 0)
(-2451.47 1.84215e-09 0)
(-3662.06 -1.5964e-09 2.70897e-12)
(-8807.1 9.34925e-09 -2.27558e-12)
(-30691.6 -18409.9 -1.06454e-11)
(-8549.73 -3186.43 7.47305e-12)
(-2211.15 -750.953 0)
(-3609.94 -494.284 -6.75753e-12)
(-9232.17 -1247.79 1.13779e-12)
(-34830.2 -14819.8 1.06454e-11)
(-5776.78 -4327.92 -1.30343e-13)
(-1518.56 -2334.2 0)
(-3805.56 -1537.2 4.62955e-14)
(-10495.3 -2306.28 4.44413e-12)
(-10717.7 8454.37 0)
(-723.078 1381.47 0)
(4695.23 1622.57 0)
(2676.64 3435.1 0)
(-1137.68 2380.45 0)
(-2513.44 1323.69 0)
(-2640.57 614.849 0)
(-2095.46 280.573 0)
(-1445.18 130.197 0)
(-1061.39 56.0351 0)
(-960.677 34.8128 0)
(-914.291 47.2948 0)
(-790.848 30.0532 0)
(-575.085 10.7833 0)
(-356.891 -0.150776 0)
(-220.736 -2.90617 0)
(-160.172 -2.77429 0)
(-133.778 -2.4805 0)
(-116.452 -2.50765 0)
(-99.129 -2.75254 0)
(-80.7875 -3.02623 0)
(-63.9561 -3.21075 0)
(-49.2422 -3.30132 0)
(-36.5003 -3.3459 0)
(-25.5314 -3.37917 0)
(-16.1152 -3.44339 0)
(-6.77608 -3.52122 0)
(4.8666 -3.64382 0)
(22.9725 -3.69623 0)
(42.5829 -3.61121 0)
(70.019 -3.48235 0)
(94.3137 -2.69686 0)
(123.875 -2.67369 0)
(143.465 -0.736887 0)
(195.558 -3.7608 0)
(242.24 1.78334 0)
(375.272 -4.29679 0)
(1617.04 12.2834 0)
(14993.7 -76.4485 0)
(-7869.46 -1535.23 0)
(-10927.7 5447.37 0)
(-1548.31 837.975 0)
(5009.51 925.644 0)
(2442.85 1438.33 0)
(-1579.38 991.431 0)
(-2740.39 762.608 0)
(-2755.3 376.943 0)
(-2155.8 138.341 0)
(-1469.42 54.6332 0)
(-1071.34 20.9496 0)
(-960.52 7.989 0)
(-913.914 23.9051 0)
(-794.693 10.2677 0)
(-577.512 3.183 0)
(-357.983 -0.690331 0)
(-220.922 -1.64002 0)
(-160.111 -1.48713 0)
(-133.739 -1.31416 0)
(-116.464 -1.29136 0)
(-99.1676 -1.3745 0)
(-80.8245 -1.48122 0)
(-63.9795 -1.55979 0)
(-49.2551 -1.60677 0)
(-36.51 -1.64122 0)
(-25.5448 -1.67717 0)
(-16.133 -1.73187 0)
(-6.80065 -1.78943 0)
(4.84056 -1.87152 0)
(22.9644 -1.92847 0)
(42.5884 -1.91647 0)
(70.0919 -1.88079 0)
(94.3744 -1.51162 0)
(124.045 -1.49403 0)
(143.337 -0.48912 0)
(195.832 -1.59785 0)
(242.315 1.78662 0)
(375.433 1.43069 0)
(1606.81 7.55747 0)
(14927.2 -53.0838 0)
(-7851.19 -335.88 0)
(-10549.4 -8.50875e-08 0)
(-2038.49 1.89117e-07 0)
(4869.87 9.35494e-08 0)
(2695.77 -3.03273e-08 0)
(-1334.26 3.22974e-11 0)
(-2692.2 3.58501e-09 0)
(-2822.17 5.28062e-09 0)
(-2189.22 -1.74406e-08 0)
(-1479.33 -3.51396e-08 0)
(-1074.96 -9.59233e-09 0)
(-959.817 9.56003e-09 0)
(-913.628 -1.81108e-08 0)
(-796.876 -1.21357e-08 0)
(-578.273 -1.88213e-08 0)
(-358.294 -1.09488e-08 0)
(-220.968 -7.26691e-09 0)
(-160.077 2.68876e-09 0)
(-133.721 5.87005e-09 0)
(-116.47 2.01051e-09 0)
(-99.1843 3.6819e-09 0)
(-80.8414 7.03276e-09 0)
(-63.9927 1.22407e-08 0)
(-49.2659 1.62133e-08 0)
(-36.5208 1.3904e-08 0)
(-25.5577 1.11426e-08 0)
(-16.1478 9.9153e-09 0)
(-6.8167 6.56445e-09 0)
(4.82615 1.69561e-09 0)
(22.9594 3.79494e-10 0)
(42.5968 4.27133e-09 0)
(70.1368 2.10014e-08 0)
(94.4262 4.5507e-08 0)
(124.172 4.84299e-08 0)
(143.435 2.55311e-08 0)
(196.22 2.68311e-08 0)
(243.121 6.79134e-08 0)
(376.951 7.8515e-08 0)
(1601.18 3.82643e-08 0)
(14893.7 -2.73793e-07 0)
(-7837.39 -1.12634e-06 0)
(-10927.7 -5447.37 0)
(-1548.31 -837.975 0)
(5009.51 -925.644 0)
(2442.85 -1438.33 0)
(-1579.38 -991.431 0)
(-2740.39 -762.608 0)
(-2755.3 -376.943 0)
(-2155.8 -138.341 0)
(-1469.42 -54.6332 0)
(-1071.34 -20.9496 0)
(-960.52 -7.989 0)
(-913.914 -23.9051 0)
(-794.693 -10.2677 0)
(-577.512 -3.183 0)
(-357.983 0.690331 0)
(-220.922 1.64002 0)
(-160.111 1.48713 0)
(-133.739 1.31416 0)
(-116.464 1.29136 0)
(-99.1676 1.3745 0)
(-80.8245 1.48122 0)
(-63.9795 1.55979 0)
(-49.2551 1.60677 0)
(-36.51 1.64122 0)
(-25.5448 1.67717 0)
(-16.133 1.73187 0)
(-6.80065 1.78943 0)
(4.84056 1.87152 0)
(22.9644 1.92847 0)
(42.5884 1.91647 0)
(70.0919 1.88079 0)
(94.3744 1.51162 0)
(124.045 1.49403 0)
(143.337 0.48912 0)
(195.832 1.59785 0)
(242.315 -1.78662 0)
(375.433 -1.43069 0)
(1606.81 -7.55747 0)
(14927.2 53.0838 0)
(-7851.19 335.88 0)
(-10717.7 -8454.37 0)
(-723.078 -1381.47 0)
(4695.23 -1622.57 0)
(2676.64 -3435.1 0)
(-1137.68 -2380.45 0)
(-2513.44 -1323.69 0)
(-2640.57 -614.849 0)
(-2095.46 -280.573 0)
(-1445.18 -130.197 0)
(-1061.39 -56.0351 0)
(-960.677 -34.8128 0)
(-914.291 -47.2948 0)
(-790.848 -30.0532 0)
(-575.085 -10.7833 0)
(-356.891 0.150776 0)
(-220.736 2.90617 0)
(-160.172 2.77429 0)
(-133.778 2.4805 0)
(-116.452 2.50765 0)
(-99.129 2.75254 0)
(-80.7875 3.02623 0)
(-63.9561 3.21075 0)
(-49.2422 3.30132 0)
(-36.5003 3.3459 0)
(-25.5314 3.37917 0)
(-16.1152 3.44339 0)
(-6.77608 3.52122 0)
(4.8666 3.64382 0)
(22.9725 3.69623 0)
(42.5829 3.61121 0)
(70.019 3.48235 0)
(94.3137 2.69686 0)
(123.875 2.67369 0)
(143.465 0.736887 0)
(195.558 3.7608 0)
(242.24 -1.78334 0)
(375.272 4.29679 0)
(1617.04 -12.2834 0)
(14993.7 76.4485 0)
(-7869.46 1535.23 0)
(3641.35 -2791.55 0)
(1782.93 -574.021 0)
(4084.72 -1139.39 0)
(1697.15 -3148.04 0)
(-765.656 -2674.35 0)
(-1895.29 -1834 0)
(-2233.64 -954.2 0)
(-1921.56 -502.179 0)
(-1356.61 -234.299 0)
(-1023.01 -117.044 0)
(-954.856 -82.8213 0)
(-910.494 -80.3214 0)
(-776.236 -55.8884 0)
(-561.372 -21.0833 0)
(-350.658 -1.22842 0)
(-219.492 3.92461 0)
(-160.308 3.902 0)
(-133.861 3.48083 0)
(-116.307 3.62799 0)
(-98.8869 4.1345 0)
(-80.5797 4.66385 0)
(-63.8339 5.01823 0)
(-49.1853 5.1982 0)
(-36.4724 5.29535 0)
(-25.4993 5.36796 0)
(-16.0645 5.48777 0)
(-6.70333 5.65354 0)
(4.92024 5.87337 0)
(22.9345 5.95848 0)
(42.4607 5.82612 0)
(69.6027 5.51517 0)
(93.9374 4.22919 0)
(123.013 3.88308 0)
(143.87 1.20508 0)
(194.568 4.75874 0)
(242.738 -1.98708 0)
(369.033 4.86212 0)
(1640.25 -28.7629 0)
(15821.1 20.0761 0)
(-8949.58 265.618 0)
(3216.45 2639.62 0)
(-474.791 -321.464 0)
(2542.18 -2170.22 0)
(1722.72 -2695.76 0)
(-70.9278 -2458.55 0)
(-1187.31 -1850.19 0)
(-1575.38 -1214.07 0)
(-1494.98 -687.715 0)
(-1121.54 -335.082 0)
(-936.006 -189.212 0)
(-928.412 -141.895 0)
(-890.374 -117.063 0)
(-741.599 -78.6428 0)
(-529.766 -31.0126 0)
(-336.135 -3.48188 0)
(-216.459 4.50628 0)
(-160.526 5.12444 0)
(-133.998 4.80704 0)
(-115.9 5.16965 0)
(-98.2607 5.98625 0)
(-80.0474 6.80796 0)
(-63.5068 7.36817 0)
(-49.0057 7.68226 0)
(-36.3517 7.89377 0)
(-25.3632 8.07992 0)
(-15.8671 8.33486 0)
(-6.44351 8.69827 0)
(5.13169 9.1517 0)
(22.9473 9.37643 0)
(42.2212 9.28752 0)
(68.7033 8.87977 0)
(92.9427 7.08604 0)
(121.423 6.41935 0)
(144.092 3.57865 0)
(193.013 6.77009 0)
(242.072 -0.417198 0)
(352.816 2.92988 0)
(1619.25 -35.8926 0)
(14833.7 -32.9348 0)
(-7730.61 -1432.55 0)
(2992.67 2686.86 0)
(-2852.02 -661.386 0)
(1796.77 -1305.56 0)
(1419.31 -1722.38 0)
(49.1683 -1936.23 0)
(-696.068 -1598.57 0)
(-1113.44 -1199.89 0)
(-1074.54 -707.397 0)
(-876.229 -393.198 0)
(-836.848 -249.824 0)
(-885.331 -198.883 0)
(-849.541 -151.149 0)
(-693.315 -96.5885 0)
(-488.945 -39.8965 0)
(-316.43 -7.23957 0)
(-211.199 3.64688 0)
(-160.018 5.42869 0)
(-133.817 5.61638 0)
(-115.171 6.357 0)
(-97.3082 7.51525 0)
(-79.2481 8.63274 0)
(-62.9914 9.41622 0)
(-48.6788 9.90979 0)
(-36.0892 10.3104 0)
(-25.0742 10.7098 0)
(-15.4687 11.1736 0)
(-5.9162 11.7958 0)
(5.57374 12.6532 0)
(23.0654 13.0857 0)
(41.9821 13.1149 0)
(67.4813 12.6844 0)
(91.5665 10.4665 0)
(119.633 9.66323 0)
(144.208 6.78241 0)
(190.717 9.36127 0)
(239.037 1.84195 0)
(334.847 -0.0246451 0)
(1605.69 -29.0181 0)
(14475.2 5.57896 0)
(-7477.81 -679.297 0)
(2665.46 1488.89 0)
(-4322.03 -764.537 0)
(1519.77 -700.314 0)
(1114.98 -1332.97 0)
(48.3787 -1489.25 0)
(-477.743 -1370.24 0)
(-716.614 -1039.3 0)
(-717.625 -641.259 0)
(-680.61 -405.278 0)
(-748.757 -293.7 0)
(-833.326 -240.003 0)
(-791.799 -176.198 0)
(-634.391 -105.836 0)
(-443.666 -44.9662 0)
(-294.175 -10.5182 0)
(-204.252 1.87846 0)
(-158.628 4.71499 0)
(-133.103 5.62374 0)
(-114.07 6.84119 0)
(-96.0677 8.31848 0)
(-78.2155 9.68093 0)
(-62.2762 10.6708 0)
(-48.144 11.3766 0)
(-35.5808 12.0355 0)
(-24.5314 12.7429 0)
(-14.8206 13.5118 0)
(-5.01765 14.3838 0)
(6.37467 15.7297 0)
(23.3922 16.4394 0)
(41.8345 16.5974 0)
(66.1512 16.1238 0)
(90.0314 13.6753 0)
(117.873 12.6602 0)
(143.801 9.74788 0)
(188.252 11.0331 0)
(233.027 4.50584 0)
(323.078 -3.59657 0)
(1624.65 -15.6779 0)
(14207 23.642 0)
(-7318.57 -614.341 0)
(2358.42 816.815 0)
(-4961.61 -465.924 0)
(1249 -375.477 0)
(659.062 -1115.81 0)
(13.2552 -1188.65 0)
(-262.479 -1077.76 0)
(-410.967 -814.918 0)
(-463.576 -552.313 0)
(-541.309 -387.197 0)
(-677.582 -316.525 0)
(-772.102 -260.66 0)
(-720.254 -186.973 0)
(-566.855 -106.318 0)
(-397.093 -45.2631 0)
(-271.289 -11.8224 0)
(-196.52 0.648136 0)
(-156.409 4.13013 0)
(-131.768 5.73536 0)
(-112.574 7.38646 0)
(-94.5717 9.11932 0)
(-76.9813 10.6634 0)
(-61.3574 11.8382 0)
(-47.3637 12.7868 0)
(-34.7726 13.7672 0)
(-23.6517 14.8559 0)
(-13.8875 16.0175 0)
(-3.77892 17.2316 0)
(7.55459 19.1384 0)
(23.9016 20.2052 0)
(41.678 20.5467 0)
(64.6654 20.139 0)
(88.2289 17.6947 0)
(115.848 16.5819 0)
(142.64 13.8289 0)
(185.666 14.308 0)
(224.94 9.68341 0)
(315.398 -0.516321 0)
(1631.94 -0.232235 0)
(13898.3 23.1529 0)
(-7073.86 -662.31 0)
(2173.59 667.958 0)
(-5470.97 -311.577 0)
(893.515 -418.322 0)
(331.376 -959.246 0)
(85.0472 -841.253 0)
(-117.601 -775.874 0)
(-210.272 -608.654 0)
(-305.457 -466.322 0)
(-453.396 -370.949 0)
(-626.821 -329.607 0)
(-708.484 -269.635 0)
(-643.07 -186.034 0)
(-497.835 -102.034 0)
(-352.607 -43.4249 0)
(-249.934 -12.5802 0)
(-188.879 -0.523747 0)
(-153.726 3.72268 0)
(-129.966 6.10041 0)
(-110.809 8.20411 0)
(-92.9099 10.174 0)
(-75.5955 11.8689 0)
(-60.23 13.2058 0)
(-46.2851 14.3753 0)
(-33.5869 15.6366 0)
(-22.3629 17.0233 0)
(-12.5313 18.4631 0)
(-2.01028 19.945 0)
(9.24015 22.1758 0)
(24.7492 23.3206 0)
(41.7707 23.5415 0)
(63.4031 22.85 0)
(86.6036 20.075 0)
(114.147 18.4395 0)
(141.61 15.4031 0)
(184.257 15.0957 0)
(218.742 11.3543 0)
(313.523 0.700838 0)
(1647.46 8.32087 0)
(13569 16.2139 0)
(-6809.73 -725.411 0)
(1923.07 635.265 0)
(-6008.39 -256.205 0)
(624.883 -491.454 0)
(251.51 -651.926 0)
(189.959 -579.316 0)
(-38.3386 -550.536 0)
(-112.671 -464.838 0)
(-234.515 -399.927 0)
(-409.565 -362.768 0)
(-579.952 -332.806 0)
(-633.75 -263.918 0)
(-558.748 -172.274 0)
(-429.432 -90.2336 0)
(-310.892 -36.9405 0)
(-229.948 -9.90886 0)
(-180.81 1.28509 0)
(-150.025 6.39284 0)
(-127.45 9.40047 0)
(-108.649 11.879 0)
(-91.0402 13.9734 0)
(-74.0597 15.7499 0)
(-58.9421 17.2231 0)
(-45.0214 18.6004 0)
(-32.2209 20.1145 0)
(-20.9279 21.743 0)
(-11.072 23.3789 0)
(-0.201284 25.0632 0)
(10.8075 27.5255 0)
(25.2177 28.6105 0)
(41.2245 28.5529 0)
(61.325 27.3769 0)
(83.9787 24.035 0)
(111.346 21.5735 0)
(139.418 17.8255 0)
(181.764 16.6488 0)
(211.068 12.5436 0)
(312.475 3.39645 0)
(1646.89 12.4048 0)
(13191.2 1.85094 0)
(-6488.51 -832.552 0)
(1815.04 598.983 0)
(-6556.72 -207.79 0)
(512.184 -411.01 0)
(246.71 -394.292 0)
(182.75 -403.164 0)
(-7.28546 -406 0)
(-65.1392 -374.856 0)
(-207.099 -356.486 0)
(-388.716 -351.851 0)
(-531.566 -319.005 0)
(-553.79 -242.005 0)
(-475.701 -150.359 0)
(-367.422 -75.7355 0)
(-275.203 -29.2664 0)
(-213.098 -6.06495 0)
(-173.17 5.01745 0)
(-145.906 11.108 0)
(-124.679 14.934 0)
(-106.402 17.8743 0)
(-89.1798 20.1412 0)
(-72.464 22.0149 0)
(-57.4832 23.6037 0)
(-43.4989 25.0951 0)
(-30.5585 26.6745 0)
(-19.2171 28.3087 0)
(-9.33186 29.8757 0)
(1.98552 31.461 0)
(12.6585 33.8166 0)
(25.7392 34.4516 0)
(40.5819 33.8125 0)
(59.0495 31.8526 0)
(81.0112 27.6957 0)
(108.164 24.17 0)
(136.864 19.6457 0)
(179.167 17.4369 0)
(205.972 13.09 0)
(313.389 6.26493 0)
(1645.97 14.4219 0)
(12754.8 -9.77283 0)
(-6116.97 -929.673 0)
(1787.79 434.161 0)
(-6981.66 -161.003 0)
(445.163 -326.021 0)
(259.071 -299.097 0)
(178.677 -302.627 0)
(-11.0591 -318.704 0)
(-64.9576 -324.068 0)
(-212.346 -336.836 0)
(-373.447 -341.045 0)
(-474.1 -295.503 0)
(-471.237 -211.879 0)
(-398.524 -124.619 0)
(-312.742 -58.5801 0)
(-243.755 -17.9931 0)
(-196.911 4.31926 0)
(-164.261 16.4821 0)
(-140.469 23.3616 0)
(-120.93 28.2327 0)
(-103.631 31.78 0)
(-87.0501 34.3347 0)
(-70.7231 36.3102 0)
(-55.9739 37.8559 0)
(-42.0622 39.1156 0)
(-29.1242 40.2615 0)
(-17.8432 41.3236 0)
(-8.03434 42.2918 0)
(3.59636 43.0602 0)
(13.6893 44.4289 0)
(25.2137 43.7955 0)
(38.72 41.8119 0)
(55.4306 38.3829 0)
(76.5755 32.7721 0)
(103.589 27.6084 0)
(132.929 21.7323 0)
(175.447 18.3528 0)
(200.303 13.4976 0)
(313.758 8.01494 0)
(1631.43 13.7884 0)
(12281.5 -28.4147 0)
(-5706.39 -1020.21 0)
(1819.79 366.529 0)
(-7289.26 -100.245 0)
(379.111 -234.882 0)
(269.253 -217.365 0)
(163.856 -245.97 0)
(-27.9468 -270.405 0)
(-82.6118 -294.686 0)
(-223.459 -316.308 0)
(-348.886 -310.847 0)
(-407.097 -253.493 0)
(-389.12 -170.627 0)
(-327.976 -92.5601 0)
(-264.674 -36.2844 0)
(-214.591 -1.94483 0)
(-179.876 19.3034 0)
(-154.82 31.4337 0)
(-134.582 39.1528 0)
(-116.567 44.7805 0)
(-100.522 48.8005 0)
(-84.8143 51.5953 0)
(-69.0708 53.6734 0)
(-54.7798 55.172 0)
(-41.1808 56.1938 0)
(-28.4308 56.9709 0)
(-17.2607 57.5871 0)
(-7.65835 58.1323 0)
(4.0449 58.1858 0)
(13.3671 58.6909 0)
(23.2173 56.9879 0)
(35.3661 53.837 0)
(50.3384 49.1244 0)
(70.6285 42.2296 0)
(97.5254 35.5234 0)
(127.945 28.2726 0)
(171.232 23.8086 0)
(196.01 18.5102 0)
(313.67 14.052 0)
(1610.87 16.3527 0)
(11758.4 -39.0162 0)
(-5247.4 -1083.1 0)
(1999.3 107.732 0)
(-7561.2 -53.3263 0)
(332.301 -142.934 0)
(248.385 -155.323 0)
(127.566 -209.679 0)
(-58.0034 -238.818 0)
(-109.191 -272.424 0)
(-227.919 -288.027 0)
(-312.917 -266.938 0)
(-338.979 -201.808 0)
(-316.156 -124.81 0)
(-269.067 -56.7558 0)
(-225.422 -9.23768 0)
(-190.188 21.1255 0)
(-164.746 39.3129 0)
(-145.134 51.7976 0)
(-127.608 60.9465 0)
(-111.633 67.669 0)
(-97.0641 72.4651 0)
(-82.3544 75.6649 0)
(-67.2765 77.7594 0)
(-53.5452 78.8733 0)
(-40.3287 79.1984 0)
(-27.7815 79.1292 0)
(-16.724 78.7821 0)
(-7.45743 78.4843 0)
(4.13469 77.5289 0)
(12.535 76.743 0)
(20.5364 73.8784 0)
(31.1426 69.3988 0)
(44.2453 63.197 0)
(63.469 54.7425 0)
(90.1396 46.277 0)
(121.641 37.4919 0)
(166.039 31.8046 0)
(190.901 25.927 0)
(311.679 21.2967 0)
(1580.29 21.7102 0)
(11222 -45.7547 0)
(-4790.18 -1178.17 0)
(1886.1 -120.092 0)
(-7530.81 -19.5543 0)
(280.824 -82.219 0)
(204.935 -122.49 0)
(83.3965 -191.779 0)
(-88.4097 -214.775 0)
(-130.031 -243.356 0)
(-218.173 -241.654 0)
(-265.802 -207.449 0)
(-270.137 -143.52 0)
(-249.342 -76.084 0)
(-216.606 -19.9422 0)
(-189.625 19.751 0)
(-167.806 45.2866 0)
(-150.32 61.7424 0)
(-133.973 73.7179 0)
(-119.288 82.508 0)
(-105.467 89.0553 0)
(-92.8173 93.8041 0)
(-79.7126 97.0557 0)
(-65.9792 99.2554 0)
(-53.3932 100.475 0)
(-40.9341 100.905 0)
(-28.832 100.924 0)
(-17.8821 100.589 0)
(-8.86599 100.427 0)
(2.36698 99.4136 0)
(9.84933 98.1546 0)
(16.1401 94.8826 0)
(25.0732 89.978 0)
(36.2151 83.2287 0)
(54.3237 74.1888 0)
(80.902 64.9639 0)
(113.999 55.9377 0)
(160.088 50.4029 0)
(185.884 45.3761 0)
(309.606 41.5378 0)
(1546.26 40.3097 0)
(10602.1 -40.6984 0)
(-4252.45 -1183.43 0)
(1938.56 -388.022 0)
(-7524.7 11.8211 0)
(233.109 -22.4258 0)
(142.809 -76.7548 0)
(38.6369 -158.375 0)
(-107.705 -175.798 0)
(-135.093 -196.855 0)
(-193.318 -179.281 0)
(-218.352 -136.078 0)
(-212.391 -77.9803 0)
(-197.072 -20.2215 0)
(-176.717 22.8003 0)
(-162.565 53.3182 0)
(-149.724 74.8803 0)
(-137.349 90.6418 0)
(-125.123 101.844 0)
(-112.828 110.268 0)
(-100.747 116.725 0)
(-89.3546 121.647 0)
(-77.1013 125.037 0)
(-63.9816 126.933 0)
(-51.9555 127.446 0)
(-39.8956 127.226 0)
(-28.0862 126.919 0)
(-17.2038 126.509 0)
(-8.58998 126.544 0)
(1.94544 125.432 0)
(8.16871 123.907 0)
(12.657 120.522 0)
(19.9124 115.849 0)
(29.0302 109.387 0)
(45.8684 100.834 0)
(72.5521 92.1701 0)
(107.609 84.0869 0)
(155.862 80.3842 0)
(182.358 77.201 0)
(306.797 73.7601 0)
(1501.05 75.1912 0)
(10042.8 -21.2624 0)
(-3848.64 -1200.37 0)
(1632.78 -637.338 0)
(-7178.51 46.569 0)
(195.469 26.1414 0)
(73.9293 -31.3107 0)
(-12.0456 -116.989 0)
(-125.49 -123.431 0)
(-133.386 -132.108 0)
(-159.606 -104.044 0)
(-168.185 -57.7741 0)
(-158.493 -6.94517 0)
(-152.227 33.9566 0)
(-145.741 66.8893 0)
(-139.439 90.2885 0)
(-131.839 108.716 0)
(-124.336 121.591 0)
(-115.061 130.779 0)
(-104.948 136.88 0)
(-94.5013 140.8 0)
(-84.8077 143.332 0)
(-74.6186 145.29 0)
(-63.6582 147.566 0)
(-53.1111 149.934 0)
(-41.4413 151.888 0)
(-29.5231 153.287 0)
(-18.2439 153.959 0)
(-9.9035 154.569 0)
(-0.174171 153.615 0)
(5.11766 152.554 0)
(8.37473 149.78 0)
(14.3433 146.2 0)
(21.7466 140.708 0)
(37.7329 133.599 0)
(64.7639 126.615 0)
(102.642 120.949 0)
(153.452 121.333 0)
(179.501 123.388 0)
(307.669 124.623 0)
(1454.69 134.141 0)
(9372.97 32.5723 0)
(-3375.88 -1073.39 0)
(1512.98 -434.028 0)
(-6885.35 122.827 0)
(158.061 93.1696 0)
(4.88323 38.0131 0)
(-50.1334 -31.3547 0)
(-122.274 -25.2812 0)
(-116.412 -19.7594 0)
(-121.687 9.34899 0)
(-124.783 45.8128 0)
(-123.996 81.709 0)
(-125.922 108.702 0)
(-122.434 132.382 0)
(-122.26 150.294 0)
(-119.559 164.907 0)
(-116.088 176.087 0)
(-110.39 184.714 0)
(-103.172 191.044 0)
(-94.5302 195.815 0)
(-85.0282 199.407 0)
(-73.0208 201.978 0)
(-59.5064 203.852 0)
(-47.7909 204.766 0)
(-36.6646 204.892 0)
(-26.0906 204.743 0)
(-15.9683 204.067 0)
(-8.92141 203.805 0)
(0.00341742 202.14 0)
(4.47334 200.914 0)
(6.53374 198.125 0)
(11.1703 194.96 0)
(16.8882 189.867 0)
(32.2878 183.725 0)
(60.3621 177.965 0)
(102.519 174.247 0)
(158.212 177.822 0)
(185.528 184.811 0)
(317.16 189.574 0)
(1412.34 211.119 0)
(8879.15 113.237 0)
(-3250.14 -655.778 0)
(1719.95 29.2195 0)
(-6670.48 228.364 0)
(113.739 166.353 0)
(-46.0669 117.798 0)
(-73.0383 64.7157 0)
(-114.316 67.8699 0)
(-100.015 80.4062 0)
(-96.4184 103.258 0)
(-98.4563 129.145 0)
(-97.8903 150.796 0)
(-103.396 170.71 0)
(-105.662 187.942 0)
(-108.097 201.518 0)
(-106.984 216.529 0)
(-105.25 230.053 0)
(-100.648 242.469 0)
(-94.2506 251.636 0)
(-86.4421 256.125 0)
(-78.8681 256.476 0)
(-70.3349 255.665 0)
(-60.9716 257.52 0)
(-52.1089 261.526 0)
(-41.4635 263.672 0)
(-30.3181 261.47 0)
(-19.1478 255.33 0)
(-11.7604 249.845 0)
(-2.95997 242.665 0)
(1.24804 237.754 0)
(2.63643 232.052 0)
(6.38604 228.293 0)
(10.9203 223.491 0)
(26.2632 218.44 0)
(55.6305 213.251 0)
(102.504 209.741 0)
(163.632 213.238 0)
(190.825 221.99 0)
(333.021 222.971 0)
(1381.13 243.703 0)
(8537.6 169.511 0)
(-3490.79 -132.877 0)
(2349.5 872.651 0)
(-6753.2 389.854 0)
(51.5157 311.441 0)
(-93.0585 259.515 0)
(-98.2457 208.244 0)
(-107.154 206.797 0)
(-82.3104 221.472 0)
(-74.7205 239.378 0)
(-78.9736 263.519 0)
(-83.943 279.655 0)
(-90.1269 293.166 0)
(-92.7456 304.413 0)
(-94.7125 311.766 0)
(-92.0618 319.765 0)
(-91.0902 326.631 0)
(-89.592 336.082 0)
(-90.0124 348.554 0)
(-89.8662 363.958 0)
(-85.4713 379.545 0)
(-72.0149 389.219 0)
(-53.859 391.274 0)
(-41.8625 385.825 0)
(-36.7184 374.175 0)
(-34.1299 364.753 0)
(-27.1711 357.609 0)
(-21.1261 357.063 0)
(-11.6476 357.488 0)
(-5.75326 357.626 0)
(-2.583 357.467 0)
(2.92062 357.823 0)
(7.39317 357.939 0)
(22.4203 356.567 0)
(51.9793 353.202 0)
(102.506 353.507 0)
(170.016 360.128 0)
(194.907 382.559 0)
(338.082 392.302 0)
(1360.83 398.296 0)
(8516.26 269.387 0)
(-4074.95 598.614 0)
(3742.65 41217.9 0)
(-7211.28 3901.56 0)
(-11.8601 2007.23 0)
(-145.511 1869.96 0)
(-123.84 1888.44 0)
(-101.57 1902.18 0)
(-68.6186 1949.95 0)
(-55.9004 1967.06 0)
(-59.6437 1997.39 0)
(-69.3212 2004.4 0)
(-79.5387 2004.14 0)
(-87.7381 1993.51 0)
(-93.3026 1969.47 0)
(-92.6597 1936.4 0)
(-89.5268 1889.36 0)
(-79.5226 1836.38 0)
(-67.3875 1776.66 0)
(-56.578 1721.61 0)
(-54.5263 1689.65 0)
(-59.0323 1665.67 0)
(-64.2419 1667.94 0)
(-68.5865 1699.72 0)
(-61.7699 1711.27 0)
(-46.2816 1759.22 0)
(-26.5581 1777.21 0)
(-11.8768 1807.53 0)
(-2.41723 1816.48 0)
(1.22784 1825.95 0)
(2.82616 1820.1 0)
(6.84094 1808.8 0)
(9.71031 1784.78 0)
(21.6979 1752.41 0)
(52.6817 1707.41 0)
(109.179 1655.22 0)
(191.627 1605.58 0)
(221.829 1572.57 0)
(348.186 1573.26 0)
(1262.68 1470.38 0)
(8730.63 3376.45 0)
(-5322.45 36983.7 0)
(41995.1 656002 0)
(-44538 48731.2 0)
(-1906.21 13176.7 0)
(-207.525 12775.9 0)
(-67.2014 13014.4 0)
(-47.8854 13456.5 0)
(-19.7867 14064.3 0)
(-29.0066 14564.3 0)
(-42.9875 14986.1 0)
(-77.4385 15354.5 0)
(-100.62 15615.6 0)
(-126.148 15799.7 0)
(-149.753 15927.6 0)
(-169.265 15980.2 0)
(-187.471 15988.1 0)
(-198.191 15953.5 0)
(-200.606 15885.3 0)
(-173.709 15779.6 0)
(-139.376 15682.6 0)
(-92.9357 15555.4 0)
(-21.05 15468.4 0)
(-0.107979 15377 0)
(20.6143 15217.2 0)
(29.4104 14978.9 0)
(19.3861 14655 0)
(16.7182 14302.7 0)
(6.10589 13907.9 0)
(-2.2733 13444.8 0)
(-19.1092 12949.5 0)
(-31.1071 12391.7 0)
(-46.9497 11809.7 0)
(-52.135 11128.7 0)
(-41.6814 10491.4 0)
(4.37441 9691.15 0)
(90.3798 9084.24 0)
(163.757 8545.3 0)
(239.606 8468.28 0)
(3098.45 8542.48 0)
(42738.2 42259.1 0)
(-39965.6 588281 0)
(676401 -701275 0)
(-626661 -44783.2 0)
(-34659.7 -11215 0)
(-301.877 -10024 0)
(532.028 -9804.2 0)
(910.101 -9844.24 0)
(998.9 -10213.7 0)
(832.407 -10499.6 0)
(701.789 -10719.2 0)
(537.305 -10899.9 0)
(349.451 -10941.6 0)
(212.882 -10901.5 0)
(80.6041 -10787.3 0)
(-34.3044 -10586.1 0)
(-115.243 -10329.7 0)
(-178.598 -10038.3 0)
(-234.914 -9735.46 0)
(-251.949 -9428.18 0)
(-270.599 -9184.36 0)
(-265.383 -8941.01 0)
(-236.164 -8770.84 0)
(-310.743 -8612.3 0)
(-445.37 -8403.7 0)
(-588.034 -8158.75 0)
(-678.208 -7854.12 0)
(-731.761 -7567.44 0)
(-829.126 -7240.63 0)
(-922.36 -6851.48 0)
(-1011.94 -6430.41 0)
(-1091.5 -5951.72 0)
(-1207.4 -5457.63 0)
(-1248.67 -4858.87 0)
(-1332.56 -4365.6 0)
(-1246.78 -3741.47 0)
(-912.557 -3492.21 0)
(-371.741 -3541.48 0)
(345.471 -4091.97 0)
(33824.8 -5141.13 0)
(567388 -39219.8 0)
(-606869 -631998 0)
(676401 701275 0)
(-626661 44783.2 0)
(-34659.7 11215 0)
(-301.877 10024 0)
(532.028 9804.2 0)
(910.101 9844.24 0)
(998.9 10213.7 0)
(832.407 10499.6 0)
(701.789 10719.2 0)
(537.305 10899.9 0)
(349.451 10941.6 0)
(212.882 10901.5 0)
(80.6041 10787.3 0)
(-34.3044 10586.1 0)
(-115.243 10329.7 0)
(-178.598 10038.3 0)
(-234.914 9735.46 0)
(-251.949 9428.18 0)
(-270.599 9184.36 0)
(-265.383 8941.01 0)
(-236.164 8770.84 0)
(-310.743 8612.3 0)
(-445.37 8403.7 0)
(-588.034 8158.75 0)
(-678.208 7854.12 0)
(-731.761 7567.44 0)
(-829.126 7240.63 0)
(-922.36 6851.48 0)
(-1011.94 6430.41 0)
(-1091.5 5951.72 0)
(-1207.4 5457.63 0)
(-1248.67 4858.87 0)
(-1332.56 4365.6 0)
(-1246.78 3741.47 0)
(-912.557 3492.21 0)
(-371.741 3541.48 0)
(345.471 4091.97 0)
(33824.8 5141.13 0)
(567388 39219.8 0)
(-606869 631998 0)
(41995.1 -656002 0)
(-44538 -48731.2 0)
(-1906.21 -13176.7 0)
(-207.525 -12775.9 0)
(-67.2014 -13014.4 0)
(-47.8854 -13456.5 0)
(-19.7867 -14064.3 0)
(-29.0066 -14564.3 0)
(-42.9875 -14986.1 0)
(-77.4385 -15354.5 0)
(-100.62 -15615.6 0)
(-126.148 -15799.7 0)
(-149.753 -15927.6 0)
(-169.265 -15980.2 0)
(-187.471 -15988.1 0)
(-198.191 -15953.5 0)
(-200.606 -15885.3 0)
(-173.709 -15779.6 0)
(-139.376 -15682.6 0)
(-92.9357 -15555.4 0)
(-21.05 -15468.4 0)
(-0.107977 -15377 0)
(20.6143 -15217.2 0)
(29.4104 -14978.9 0)
(19.3861 -14655 0)
(16.7182 -14302.7 0)
(6.10589 -13907.9 0)
(-2.2733 -13444.8 0)
(-19.1092 -12949.5 0)
(-31.1071 -12391.7 0)
(-46.9497 -11809.7 0)
(-52.135 -11128.7 0)
(-41.6814 -10491.4 0)
(4.37441 -9691.15 0)
(90.3798 -9084.24 0)
(163.757 -8545.3 0)
(239.606 -8468.28 0)
(3098.45 -8542.48 0)
(42738.2 -42259.1 0)
(-39965.6 -588281 0)
(3742.65 -41217.9 0)
(-7211.28 -3901.56 0)
(-11.8601 -2007.23 0)
(-145.511 -1869.96 0)
(-123.84 -1888.44 0)
(-101.57 -1902.18 0)
(-68.6186 -1949.95 0)
(-55.9004 -1967.06 0)
(-59.6437 -1997.39 0)
(-69.3212 -2004.4 0)
(-79.5387 -2004.14 0)
(-87.7381 -1993.51 0)
(-93.3026 -1969.47 0)
(-92.6597 -1936.4 0)
(-89.5268 -1889.36 0)
(-79.5226 -1836.38 0)
(-67.3875 -1776.66 0)
(-56.578 -1721.61 0)
(-54.5263 -1689.65 0)
(-59.0323 -1665.67 0)
(-64.2419 -1667.94 0)
(-68.5865 -1699.72 0)
(-61.7699 -1711.27 0)
(-46.2816 -1759.22 0)
(-26.5581 -1777.21 0)
(-11.8768 -1807.53 0)
(-2.41723 -1816.48 0)
(1.22784 -1825.95 0)
(2.82616 -1820.1 0)
(6.84094 -1808.8 0)
(9.71031 -1784.78 0)
(21.6979 -1752.41 0)
(52.6817 -1707.41 0)
(109.179 -1655.22 0)
(191.627 -1605.58 0)
(221.829 -1572.57 0)
(348.186 -1573.26 0)
(1262.68 -1470.38 0)
(8730.63 -3376.45 0)
(-5322.45 -36983.7 0)
(2349.5 -872.651 0)
(-6753.2 -389.854 0)
(51.5157 -311.441 0)
(-93.0585 -259.515 0)
(-98.2457 -208.244 0)
(-107.154 -206.797 0)
(-82.3104 -221.472 0)
(-74.7205 -239.378 0)
(-78.9736 -263.519 0)
(-83.943 -279.655 0)
(-90.1269 -293.166 0)
(-92.7456 -304.413 0)
(-94.7125 -311.766 0)
(-92.0618 -319.765 0)
(-91.0902 -326.631 0)
(-89.592 -336.082 0)
(-90.0124 -348.554 0)
(-89.8662 -363.958 0)
(-85.4713 -379.545 0)
(-72.0149 -389.219 0)
(-53.859 -391.274 0)
(-41.8625 -385.825 0)
(-36.7184 -374.175 0)
(-34.1299 -364.753 0)
(-27.1711 -357.609 0)
(-21.1261 -357.063 0)
(-11.6476 -357.488 0)
(-5.75326 -357.626 0)
(-2.583 -357.467 0)
(2.92062 -357.823 0)
(7.39317 -357.939 0)
(22.4203 -356.567 0)
(51.9793 -353.202 0)
(102.506 -353.507 0)
(170.016 -360.128 0)
(194.907 -382.559 0)
(338.082 -392.302 0)
(1360.83 -398.296 0)
(8516.26 -269.387 0)
(-4074.95 -598.614 0)
(1719.95 -29.2195 0)
(-6670.48 -228.364 0)
(113.739 -166.353 0)
(-46.0669 -117.798 0)
(-73.0383 -64.7157 0)
(-114.316 -67.8699 0)
(-100.015 -80.4062 0)
(-96.4184 -103.258 0)
(-98.4563 -129.145 0)
(-97.8903 -150.796 0)
(-103.396 -170.71 0)
(-105.662 -187.942 0)
(-108.097 -201.518 0)
(-106.984 -216.529 0)
(-105.25 -230.053 0)
(-100.648 -242.469 0)
(-94.2506 -251.636 0)
(-86.4421 -256.125 0)
(-78.8681 -256.476 0)
(-70.3349 -255.665 0)
(-60.9716 -257.52 0)
(-52.1089 -261.526 0)
(-41.4635 -263.672 0)
(-30.3181 -261.47 0)
(-19.1478 -255.33 0)
(-11.7604 -249.845 0)
(-2.95997 -242.665 0)
(1.24804 -237.754 0)
(2.63643 -232.052 0)
(6.38604 -228.293 0)
(10.9203 -223.491 0)
(26.2632 -218.44 0)
(55.6305 -213.251 0)
(102.504 -209.741 0)
(163.632 -213.238 0)
(190.825 -221.99 0)
(333.021 -222.971 0)
(1381.13 -243.703 0)
(8537.6 -169.511 0)
(-3490.79 132.877 0)
(1512.98 434.028 0)
(-6885.35 -122.827 0)
(158.061 -93.1696 0)
(4.88323 -38.0131 0)
(-50.1334 31.3547 0)
(-122.274 25.2812 0)
(-116.412 19.7594 0)
(-121.687 -9.34899 0)
(-124.783 -45.8128 0)
(-123.996 -81.709 0)
(-125.922 -108.702 0)
(-122.434 -132.382 0)
(-122.26 -150.294 0)
(-119.559 -164.907 0)
(-116.088 -176.087 0)
(-110.39 -184.714 0)
(-103.172 -191.044 0)
(-94.5302 -195.815 0)
(-85.0282 -199.407 0)
(-73.0208 -201.978 0)
(-59.5064 -203.852 0)
(-47.7909 -204.766 0)
(-36.6646 -204.892 0)
(-26.0906 -204.743 0)
(-15.9683 -204.067 0)
(-8.92141 -203.805 0)
(0.0034174 -202.14 0)
(4.47333 -200.914 0)
(6.53374 -198.125 0)
(11.1703 -194.96 0)
(16.8882 -189.867 0)
(32.2878 -183.725 0)
(60.3621 -177.965 0)
(102.519 -174.247 0)
(158.212 -177.822 0)
(185.528 -184.811 0)
(317.16 -189.574 0)
(1412.34 -211.119 0)
(8879.15 -113.237 0)
(-3250.14 655.778 0)
(1632.78 637.338 0)
(-7178.51 -46.569 0)
(195.469 -26.1414 0)
(73.9293 31.3107 0)
(-12.0456 116.989 0)
(-125.49 123.431 0)
(-133.386 132.108 0)
(-159.606 104.044 0)
(-168.185 57.7741 0)
(-158.493 6.94517 0)
(-152.227 -33.9566 0)
(-145.741 -66.8893 0)
(-139.439 -90.2885 0)
(-131.839 -108.716 0)
(-124.336 -121.591 0)
(-115.061 -130.779 0)
(-104.948 -136.88 0)
(-94.5013 -140.8 0)
(-84.8077 -143.332 0)
(-74.6186 -145.29 0)
(-63.6582 -147.566 0)
(-53.1111 -149.934 0)
(-41.4413 -151.888 0)
(-29.5231 -153.287 0)
(-18.2439 -153.959 0)
(-9.9035 -154.569 0)