/*--------------------------------*- C++ -*----------------------------------*\
| =========                 |                                                 |
| \\      /  F ield         | OpenFOAM: The Open Source CFD Toolbox           |
|  \\    /   O peration     | Version:  v1912                                 |
|   \\  /    A nd           | Website:  www.openfoam.com                      |
|    \\/     M anipulation  |                                                 |
\*---------------------------------------------------------------------------*/
FoamFile
{
    version     2.0;
    format      ascii;
    class       volVectorField;
    location    "7.98";
    object      grad(T);
}
// * * * * * * * * * * * * * * * * * * * * * * * * * * * * * * * * * * * * * //

dimensions      [0 -1 0 1 0 0 0];


internalField   nonuniform List<vector> 
1900
(
(1.44869 -4.00566e-07 0)
(-1.66785 4.55168e-06 0)
(-0.453952 3.15777e-05 0)
(-0.0700014 -1.40879e-06 0)
(0.0175577 -7.87806e-06 0)
(0.0587789 -4.03782e-05 0)
(0.0817296 -1.49021e-05 0)
(0.0662973 -0.000100465 0)
(0.0299476 0.000526662 0)
(0.0311046 -0.00120729 0)
(1.4487 -2.84572e-07 0)
(-1.66782 9.93264e-06 0)
(-0.453958 5.51163e-05 0)
(-0.0700409 1.61124e-05 0)
(0.0175187 1.73909e-05 0)
(0.0587718 -6.87965e-06 0)
(0.0816695 5.93816e-05 0)
(0.0668389 -0.00071667 0)
(0.0288408 -0.00151304 0)
(-0.00079458 -0.00422921 0)
(1.4487 -4.57533e-13 0)
(-1.6678 -4.05492e-13 0)
(-0.453946 -5.01986e-13 0)
(-0.0700392 -3.44776e-13 0)
(0.0175347 -3.6646e-13 0)
(0.0588208 -2.15756e-13 0)
(0.0810198 9.6494e-14 0)
(0.0647249 1.51788e-14 0)
(0.0264351 5.42101e-15 0)
(-0.00396485 5.42101e-15 0)
(1.4487 2.84571e-07 0)
(-1.66782 -9.93264e-06 0)
(-0.453958 -5.51163e-05 0)
(-0.0700409 -1.61124e-05 0)
(0.0175187 -1.73909e-05 0)
(0.0587718 6.87965e-06 0)
(0.0816695 -5.93816e-05 0)
(0.0668389 0.00071667 0)
(0.0288408 0.00151304 0)
(-0.00079458 0.00422921 0)
(1.44869 4.00566e-07 0)
(-1.66785 -4.55168e-06 0)
(-0.453952 -3.15777e-05 0)
(-0.0700014 1.40878e-06 0)
(0.0175577 7.87806e-06 0)
(0.0587789 4.03782e-05 0)
(0.0817296 1.49021e-05 0)
(0.0662973 0.000100465 0)
(0.0299476 -0.000526662 0)
(0.0311046 0.00120729 0)
(-0.00107758 -0.0272578 9.41028e-16)
(-0.0161334 -0.0206209 -1.12844e-15)
(0.0941218 -0.0333961 -1.43249e-15)
(0.378132 -0.0629418 0)
(-0.516094 -0.321926 -6.44856e-15)
(-0.0174543 -0.0324245 9.36102e-16)
(-0.00570078 -0.0238786 1.12844e-15)
(0.0754622 -0.0401672 1.43249e-15)
(0.272148 -0.0644693 0)
(-0.448786 -0.350845 0)
(-0.0264008 1.76772e-14 0)
(-0.0119151 2.37764e-14 0)
(0.0652859 -1.50584e-14 0)
(0.242572 0 0)
(-0.580606 6.45358e-15 0)
(-0.0174543 0.0324245 9.36102e-16)
(-0.00570078 0.0238786 1.12844e-15)
(0.0754622 0.0401672 1.43249e-15)
(0.272148 0.0644693 0)
(-0.448786 0.350845 0)
(-0.00107758 0.0272578 -2.81323e-15)
(-0.0161334 0.0206209 -1.12844e-15)
(0.0941218 0.0333961 -1.43249e-15)
(0.378132 0.0629418 -3.94631e-15)
(-0.516094 0.321926 6.44856e-15)
(-1.86973 0.449424 2.18218e-15)
(-0.957757 0.313864 -1.57892e-15)
(-0.58907 0.21455 0)
(-0.408116 0.197453 1.01225e-15)
(-0.305949 0.0774195 -4.25567e-16)
(-1.66662 0.448265 -1.09786e-15)
(-0.998482 0.206614 7.94186e-16)
(-0.606464 0.111036 0)
(-0.45024 0.128339 -6.37339e-16)
(-0.297667 -0.0445417 1.06639e-16)
(-1.71989 6.57092e-14 0)
(-1.05462 1.48267e-13 0)
(-0.617666 1.00389e-13 0)
(-0.483252 6.02335e-14 2.56482e-16)
(-0.283 1.7436e-13 -2.13279e-16)
(-1.66662 -0.448265 -1.09786e-15)
(-0.998482 -0.206614 7.94186e-16)
(-0.606464 -0.111036 0)
(-0.45024 -0.128339 -6.37339e-16)
(-0.297667 0.0445417 1.06639e-16)
(-1.86973 -0.449424 1.09786e-15)
(-0.957757 -0.313864 -9.45255e-18)
(-0.58907 -0.21455 0)
(-0.408116 -0.197453 5.94663e-18)
(-0.305949 -0.0774195 4.25567e-16)
(-0.201201 0.749768 0)
(-0.0922647 0.876233 0)
(-0.0564616 0.899365 0)
(-0.0458002 0.856964 0)
(-0.0388181 0.751799 0)
(-0.0576224 0.638303 0)
(-0.0888582 0.517517 0)
(-0.0497282 0.394797 0)
(0.0712482 0.365388 0)
(0.323807 0.352134 0)
(0.403435 0.352161 0)
(0.212243 0.272821 0)
(0.0990195 0.183992 0)
(0.0476904 0.092531 0)
(-0.00770537 0.0576145 0)
(-0.0917014 0.0480469 0)
(-0.189741 0.0414111 0)
(-0.21269 0.0157282 0)
(-0.173428 0.000155237 0)
(-0.169698 0.00166467 0)
(-0.231361 0.0102336 0)
(-0.304618 0.0161545 0)
(-0.258534 0.0108975 0)
(-0.114766 0.00162846 0)
(-0.0320936 -0.000200411 0)
(-0.0178333 -0.000157022 0)
(-0.015424 -0.00017988 0)
(-0.0123889 -0.000377003 0)
(-0.00501327 -0.000494836 0)
(0.0194182 -0.000551588 0)
(0.151102 -0.000434263 0)
(0.30336 0.000114372 0)
(0.251291 0.000118787 0)
(0.124745 -0.000216769 0)
(0.0962077 -0.000563007 0)
(0.112568 -0.000830999 0)
(0.107902 -0.000416943 0)
(0.0622264 -0.000901657 0)
(0.00618154 -0.00148659 0)
(-0.00940696 -0.00212231 0)
(-0.0912456 0.226564 0)
(-0.0139714 0.47433 0)
(-0.041685 0.583274 0)
(-0.0693687 0.628635 0)
(-0.0833747 0.580646 0)
(-0.103222 0.467456 0)
(-0.127405 0.356192 0)
(-0.0720129 0.266344 0)
(0.0721653 0.242234 0)
(0.329716 0.245712 0)
(0.38979 0.247883 0)
(0.18673 0.202449 0)
(0.0722969 0.138767 0)
(0.0260709 0.0661363 0)
(-0.0175817 0.0337048 0)
(-0.0956934 0.0191839 0)
(-0.193747 0.0317704 0)
(-0.216522 0.0501428 0)
(-0.173556 0.039354 0)
(-0.167655 0.0156889 0)
(-0.229611 0.00939722 0)
(-0.305506 0.00659976 0)
(-0.260834 0.00333019 0)
(-0.115991 0.000522166 0)
(-0.0322433 -0.000104621 0)
(-0.0178223 -5.30273e-05 0)
(-0.0154465 -6.03891e-05 0)
(-0.0124208 -0.000161782 0)
(-0.00503126 -0.00022162 0)
(0.019418 -0.000247014 0)
(0.151141 -0.000210865 0)
(0.303398 -2.33609e-05 0)
(0.251266 -3.1545e-05 0)
(0.124665 -0.000229751 0)
(0.0961139 -0.000472306 0)
(0.112565 -0.000668155 0)
(0.107901 -0.000447976 0)
(0.0621345 -0.000589901 0)
(0.00608766 -0.00094831 0)
(-0.00945048 -0.00140646 0)
(-0.0339121 1.59673e-13 0)
(0.0115056 -6.70234e-14 0)
(-0.0115729 -2.75979e-13 0)
(-0.0465648 -4.61279e-13 0)
(-0.0857068 -4.27767e-13 0)
(-0.122918 -5.00704e-13 0)
(-0.147363 -2.4641e-13 0)
(-0.0828795 -1.2419e-13 0)
(0.0652462 -1.6953e-13 0)
(0.325451 -4.10026e-13 0)
(0.390849 -1.97128e-13 0)
(0.1805 6.36722e-13 0)
(0.0593649 -5.81527e-13 0)
(0.0171268 -2.18812e-12 0)
(-0.0213643 -2.45621e-12 0)
(-0.0922641 -2.10927e-12 0)
(-0.180735 -2.2236e-12 0)
(-0.210484 -1.88651e-12 0)
(-0.183451 -9.5804e-13 0)
(-0.178413 -3.3906e-13 0)
(-0.234005 1.61842e-12 0)
(-0.306383 1.40749e-12 0)
(-0.260302 4.92819e-14 0)
(-0.115766 -7.11631e-13 0)
(-0.032261 3.58772e-13 0)
(-0.0178204 2.0107e-13 0)
(-0.0154557 -4.6325e-14 0)
(-0.0124358 5.61814e-13 0)
(-0.00503806 8.42721e-13 0)
(0.0194213 4.03126e-13 0)
(0.151167 4.43537e-13 0)
(0.303413 6.07153e-13 0)
(0.251231 -1.23993e-12 0)
(0.124617 -5.53929e-13 0)
(0.0960801 -2.83864e-13 0)
(0.112575 -2.20783e-13 0)
(0.107925 -6.89947e-14 0)
(0.0620808 -3.48916e-13 0)
(0.005944 -5.49986e-13 0)
(-0.00954024 -5.81527e-13 0)
(-0.0912456 -0.226564 0)
(-0.0139714 -0.47433 0)
(-0.041685 -0.583274 0)
(-0.0693687 -0.628635 0)
(-0.0833747 -0.580646 0)
(-0.103222 -0.467456 0)
(-0.127405 -0.356192 0)
(-0.0720129 -0.266344 0)
(0.0721653 -0.242234 0)
(0.329716 -0.245712 0)
(0.38979 -0.247883 0)
(0.18673 -0.202449 0)
(0.0722969 -0.138767 0)
(0.0260709 -0.0661363 0)
(-0.0175817 -0.0337048 0)
(-0.0956934 -0.0191839 0)
(-0.193747 -0.0317704 0)
(-0.216522 -0.0501428 0)
(-0.173556 -0.039354 0)
(-0.167655 -0.0156889 0)
(-0.229611 -0.00939722 0)
(-0.305506 -0.00659976 0)
(-0.260834 -0.00333019 0)
(-0.115991 -0.000522166 0)
(-0.0322433 0.000104621 0)
(-0.0178223 5.30273e-05 0)
(-0.0154465 6.03891e-05 0)
(-0.0124208 0.000161782 0)
(-0.00503126 0.00022162 0)
(0.019418 0.000247014 0)
(0.151141 0.000210865 0)
(0.303398 2.33609e-05 0)
(0.251266 3.1545e-05 0)
(0.124665 0.000229751 0)
(0.0961139 0.000472306 0)
(0.112565 0.000668155 0)
(0.107901 0.000447976 0)
(0.0621345 0.000589901 0)
(0.00608766 0.00094831 0)
(-0.00945048 0.00140646 0)
(-0.201201 -0.749768 0)
(-0.0922647 -0.876233 0)
(-0.0564616 -0.899365 0)
(-0.0458002 -0.856964 0)
(-0.0388181 -0.751799 0)
(-0.0576224 -0.638303 0)
(-0.0888582 -0.517517 0)
(-0.0497282 -0.394797 0)
(0.0712482 -0.365388 0)
(0.323807 -0.352134 0)
(0.403435 -0.352161 0)
(0.212243 -0.272821 0)
(0.0990195 -0.183992 0)
(0.0476904 -0.092531 0)
(-0.00770537 -0.0576145 0)
(-0.0917014 -0.0480469 0)
(-0.189741 -0.0414111 0)
(-0.21269 -0.0157282 0)
(-0.173428 -0.000155237 0)
(-0.169698 -0.00166467 0)
(-0.231361 -0.0102336 0)
(-0.304618 -0.0161545 0)
(-0.258534 -0.0108975 0)
(-0.114766 -0.00162846 0)
(-0.0320936 0.000200411 0)
(-0.0178333 0.000157022 0)
(-0.015424 0.00017988 0)
(-0.0123889 0.000377003 0)
(-0.00501327 0.000494836 0)
(0.0194182 0.000551588 0)
(0.151102 0.000434263 0)
(0.30336 -0.000114372 0)
(0.251291 -0.000118787 0)
(0.124745 0.000216769 0)
(0.0962077 0.000563007 0)
(0.112568 0.000830999 0)
(0.107902 0.000416943 0)
(0.0622264 0.000901657 0)
(0.00618154 0.00148659 0)
(-0.00940696 0.00212231 0)
(-0.0108779 -0.749274 0)
(-0.017283 -0.664044 0)
(-0.0125125 -0.624316 0)
(-0.00405579 -0.589285 0)
(0.00226659 -0.551722 0)
(-0.00898793 -0.514984 0)
(-0.0192292 -0.449173 0)
(-0.00235302 -0.355531 0)
(0.099987 -0.31739 0)
(0.344844 -0.232329 0)
(0.423763 -0.273025 0)
(0.262718 -0.236537 0)
(0.15449 -0.166368 0)
(0.0803467 -0.0917043 0)
(-0.00109751 -0.0703176 0)
(-0.0901452 -0.0735061 0)
(-0.178107 -0.0698672 0)
(-0.195074 -0.0439461 0)
(-0.164882 -0.0215079 0)
(-0.171615 -0.0174768 0)
(-0.236678 -0.0208587 0)
(-0.306949 -0.0252206 0)
(-0.254381 -0.0172682 0)
(-0.110445 -0.00273932 0)
(-0.0312965 0.000302273 0)
(-0.0178225 0.000313224 0)
(-0.0153346 0.000353827 0)
(-0.01226 0.000654549 0)
(-0.00494254 0.000861134 0)
(0.0193798 0.000963718 0)
(0.150767 0.000714614 0)
(0.303094 -0.000417126 0)
(0.251444 -0.000401423 0)
(0.125 0.000212091 0)
(0.0963909 0.000685446 0)
(0.11247 0.000988495 0)
(0.107944 0.000547451 0)
(0.0626993 0.00085177 0)
(0.00674478 0.00140622 0)
(-0.00910202 0.00212305 0)
(-0.00637478 -0.216317 0)
(-0.0120588 -0.196989 0)
(-0.00798847 -0.187814 0)
(0.00176932 -0.183088 0)
(0.0107503 -0.189808 0)
(0.0151189 -0.194127 0)
(0.0274595 -0.17894 0)
(0.0518587 -0.152971 0)
(0.174559 -0.123628 0)
(0.355277 -0.0652461 0)
(0.38848 -0.147089 0)
(0.287956 -0.150441 0)
(0.20884 -0.122393 0)
(0.122737 -0.0855369 0)
(0.00628781 -0.0852431 0)
(-0.0921019 -0.0967052 0)
(-0.167494 -0.0956353 0)
(-0.175535 -0.0673323 0)
(-0.152503 -0.0454506 0)
(-0.168045 -0.0407141 0)
(-0.235972 -0.0425886 0)
(-0.299908 -0.0426166 0)
(-0.239097 -0.0248794 0)
(-0.100152 -0.00358825 0)
(-0.0295795 0.00055084 0)
(-0.0177894 0.000555317 0)
(-0.0151431 0.000624296 0)
(-0.0119692 0.00101834 0)
(-0.00475327 0.00133147 0)
(0.0192976 0.00150238 0)
(0.149951 0.00116175 0)
(0.302428 -0.000482102 0)
(0.251816 -0.000557383 0)
(0.125656 0.00023925 0)
(0.0968576 0.000980757 0)
(0.112487 0.00129896 0)
(0.107747 0.00118545 0)
(0.0628003 0.000941879 0)
(0.00710456 0.00120315 0)
(-0.00887971 0.00176429 0)
(0.00774749 -0.00138979 0)
(0.0101837 0.00376208 0)
(0.000882718 0.00754628 0)
(-0.00597769 0.00562323 0)
(-0.00837044 -0.0107688 0)
(0.00148564 -0.0203368 0)
(0.0204303 -0.0118095 0)
(0.0509478 -0.00366157 0)
(0.184521 0.0336023 0)
(0.322236 0.0286491 0)
(0.341667 -0.0248122 0)
(0.286517 -0.0404946 0)
(0.217034 -0.0354353 0)
(0.116145 -0.0567017 0)
(-0.0118597 -0.08917 0)
(-0.100159 -0.113508 0)
(-0.149802 -0.108805 0)
(-0.146714 -0.0752431 0)
(-0.139232 -0.0545181 0)
(-0.168857 -0.0523493 0)
(-0.238511 -0.0565257 0)
(-0.289884 -0.0565469 0)
(-0.216772 -0.0304698 0)
(-0.0859392 -0.00386266 0)
(-0.0273036 0.000865307 0)
(-0.0177517 0.000871847 0)
(-0.0148884 0.000994889 0)
(-0.0115785 0.00148754 0)
(-0.00447611 0.0018908 0)
(0.0192162 0.00212759 0)
(0.148855 0.00176211 0)
(0.301437 -8.42589e-05 0)
(0.252139 -0.00020808 0)
(0.126482 0.000556391 0)
(0.097412 0.00145253 0)
(0.112667 0.00145462 0)
(0.1076 0.00162639 0)
(0.0627163 0.00112064 0)
(0.00753729 0.00135201 0)
(-0.00856128 0.00210336 0)
(-0.00141025 0.00725335 0)
(-0.00344764 -0.00213708 0)
(-0.00619499 -0.00731319 0)
(-0.0158798 -0.00823192 0)
(-0.0142658 -0.011138 0)
(0.0141161 -0.000271229 0)
(0.0435284 0.0215674 0)
(0.0956192 0.0569659 0)
(0.205695 0.106435 0)
(0.298987 0.0824022 0)
(0.32185 0.0657833 0)
(0.277719 0.0234819 0)
(0.193222 0.0154402 0)
(0.0709561 -0.0525411 0)
(-0.0484527 -0.0980616 0)
(-0.111023 -0.122266 0)
(-0.130621 -0.107297 0)
(-0.123222 -0.0779899 0)
(-0.130442 -0.0653825 0)
(-0.169979 -0.0651419 0)
(-0.240016 -0.0699558 0)
(-0.2748 -0.0675619 0)
(-0.188329 -0.031563 0)
(-0.0699564 -0.00317219 0)
(-0.0250172 0.00115422 0)
(-0.0176645 0.00119784 0)
(-0.0145498 0.00140614 0)
(-0.0111059 0.00199872 0)
(-0.00413649 0.00247056 0)
(0.0191735 0.00273612 0)
(0.14782 0.00233986 0)
(0.300529 0.000152852 0)
(0.252433 -4.41655e-05 0)
(0.127257 0.000749156 0)
(0.0977232 0.00168523 0)
(0.112655 0.00122432 0)
(0.107425 0.00144122 0)
(0.0625359 0.000967197 0)
(0.00805155 0.00130334 0)
(-0.00815568 0.00224251 0)
(-0.00130147 0.0256791 0)
(-0.00385319 0.0262859 0)
(-0.0049905 0.0266072 0)
(-0.00966339 0.0335307 0)
(-0.000699228 0.0533763 0)
(0.0330017 0.0757853 0)
(0.0755861 0.0951857 0)
(0.132729 0.127995 0)
(0.209033 0.151099 0)
(0.283062 0.143078 0)
(0.284889 0.106639 0)
(0.238005 0.0603055 0)
(0.143775 0.0114438 0)
(0.00677081 -0.0817861 0)
(-0.0790491 -0.120002 0)
(-0.109059 -0.122605 0)
(-0.107136 -0.0978923 0)
(-0.106324 -0.0777329 0)
(-0.126851 -0.0729254 0)
(-0.173264 -0.0752264 0)
(-0.240843 -0.0821752 0)
(-0.252887 -0.0738884 0)
(-0.154724 -0.0277916 0)
(-0.0544117 -0.00163428 0)
(-0.0230925 0.00162361 0)
(-0.0175089 0.00171962 0)
(-0.0141166 0.00204692 0)
(-0.0105528 0.00273739 0)
(-0.00376552 0.00326006 0)
(0.0190903 0.00356119 0)
(0.146365 0.00321533 0)
(0.29914 0.00108782 0)
(0.252714 0.000649165 0)
(0.128148 0.001282 0)
(0.0978699 0.00216773 0)
(0.112432 0.00139728 0)
(0.107352 0.0013798 0)
(0.0625834 0.000873063 0)
(0.00876623 0.00115506 0)
(-0.00765626 0.0022026 0)
(-0.000825494 0.0660402 0)
(-0.0025533 0.0673968 0)
(0.000786341 0.0728096 0)
(0.00991591 0.0853555 0)
(0.0264523 0.110799 0)
(0.0544051 0.133473 0)
(0.09384 0.149406 0)
(0.149499 0.161074 0)
(0.220229 0.174978 0)
(0.256144 0.170533 0)
(0.242088 0.118119 0)
(0.185986 0.0640805 0)
(0.0562976 -0.0472683 0)
(-0.0557101 -0.111739 0)
(-0.0877868 -0.124778 0)
(-0.0897173 -0.107889 0)
(-0.0873811 -0.0865364 0)
(-0.0991634 -0.0787575 0)
(-0.128026 -0.0793799 0)
(-0.178893 -0.0841913 0)
(-0.238727 -0.0924262 0)
(-0.222393 -0.0724568 0)
(-0.118702 -0.020488 0)
(-0.0416108 -3.71449e-06 0)
(-0.0217852 0.00206933 0)
(-0.0172566 0.00221774 0)
(-0.013569 0.00264551 0)
(-0.00993686 0.00340508 0)
(-0.00334265 0.00396775 0)
(0.0191304 0.00425684 0)
(0.145436 0.00387343 0)
(0.298056 0.00122992 0)
(0.25262 0.000517862 0)
(0.12872 0.00120705 0)
(0.0978343 0.00211784 0)
(0.111896 0.00135119 0)
(0.10692 0.00117236 0)
(0.0623193 0.000769195 0)
(0.00933274 0.00106713 0)
(-0.00714623 0.00211174 0)
(5.76395e-06 0.130413 0)
(0.00267007 0.133093 0)
(0.0123152 0.140009 0)
(0.0269441 0.148489 0)
(0.0456682 0.159711 0)
(0.0702053 0.172637 0)
(0.102184 0.186273 0)
(0.157371 0.202355 0)
(0.218148 0.210751 0)
(0.228271 0.164116 0)
(0.182307 0.0880382 0)
(0.0786312 -0.00862 0)
(-0.0256506 -0.100414 0)
(-0.0679203 -0.118989 0)
(-0.0753391 -0.108647 0)
(-0.0722082 -0.0906104 0)
(-0.0790639 -0.0818105 0)
(-0.0994275 -0.08237 0)
(-0.132088 -0.0851176 0)
(-0.185836 -0.0932468 0)
(-0.229535 -0.0994076 0)
(-0.183565 -0.0623825 0)
(-0.0849057 -0.0126499 0)
(-0.0326746 0.0008261 0)
(-0.0209518 0.00189219 0)
(-0.0169537 0.00210037 0)
(-0.0129725 0.00262392 0)
(-0.00927867 0.0033979 0)
(-0.00294473 0.00396988 0)
(0.0189994 0.00423791 0)
(0.143449 0.00385576 0)
(0.295906 0.000753633 0)
(0.252692 -0.000430376 0)
(0.12969 0.000142915 0)
(0.0980088 0.00105885 0)
(0.111521 0.000619276 0)
(0.106791 0.00064932 0)
(0.062482 0.000654222 0)
(0.01006 0.00116678 0)
(-0.00664963 0.00225024 0)
(0.00175681 0.208945 0)
(0.00669433 0.207816 0)
(0.0156232 0.209329 0)
(0.0289006 0.21219 0)
(0.0497222 0.21572 0)
(0.0800016 0.217088 0)
(0.122477 0.220949 0)
(0.173087 0.228961 0)
(0.18338 0.188216 0)
(0.137894 0.091328 0)
(0.0756331 0.00688535 0)
(0.00438665 -0.0813785 0)
(-0.0500583 -0.114142 0)
(-0.0636439 -0.107566 0)
(-0.0604399 -0.0911181 0)
(-0.0638567 -0.0822164 0)
(-0.0794404 -0.0838341 0)
(-0.10235 -0.0869438 0)
(-0.138508 -0.091269 0)
(-0.192663 -0.102565 0)
(-0.208985 -0.0984172 0)
(-0.138791 -0.0457724 0)
(-0.0577921 -0.00734481 0)
(-0.0275976 2.51766e-05 0)
(-0.0205573 0.000479824 0)
(-0.0165515 0.000844912 0)
(-0.0123187 0.00154275 0)
(-0.00863984 0.00241065 0)
(-0.00253318 0.00304961 0)
(0.0190205 0.00334559 0)
(0.142079 0.00292799 0)
(0.293926 -0.000503451 0)
(0.252032 -0.000978672 0)
(0.130155 0.000280314 0)
(0.0982933 0.00104878 0)
(0.111501 0.000373617 0)
(0.106954 0.000398831 0)
(0.062818 0.000853192 0)
(0.0108707 0.00155539 0)
(-0.00610217 0.00265125 0)
(-0.00108182 0.26145 0)
(0.00304018 0.25197 0)
(0.0165296 0.250181 0)
(0.0331028 0.244829 0)
(0.0503886 0.234343 0)
(0.0752442 0.223759 0)
(0.113625 0.213977 0)
(0.125829 0.168356 0)
(0.08552 0.074884 0)
(0.0535339 0.00197837 0)
(0.0158807 -0.0649642 0)
(-0.0379948 -0.109386 0)
(-0.0508862 -0.107641 0)
(-0.045734 -0.0929671 0)
(-0.050911 -0.0842323 0)
(-0.0651891 -0.0861052 0)
(-0.0836194 -0.0895674 0)
(-0.106592 -0.090138 0)
(-0.147141 -0.0971885 0)
(-0.192724 -0.108109 0)
(-0.174808 -0.0813015 0)
(-0.0958046 -0.0242953 0)
(-0.0407735 0.00045458 0)
(-0.0251345 0.00453288 0)
(-0.0201619 0.00543562 0)
(-0.0159294 0.00656798 0)
(-0.0114637 0.00785704 0)
(-0.00782661 0.00915643 0)
(-0.00204379 0.0100673 0)
(0.0188822 0.0106196 0)
(0.139739 0.0105057 0)
(0.292142 0.00819909 0)
(0.253447 0.00949748 0)
(0.131644 0.0115837 0)
(0.0980987 0.0123513 0)
(0.110894 0.00949989 0)
(0.107254 0.00578819 0)
(0.0635965 0.00337144 0)
(0.0117926 0.00299923 0)
(-0.00559362 0.00382387 0)
(-0.00737839 0.252162 0)
(-0.0041648 0.251811 0)
(0.00874242 0.236045 0)
(0.013639 0.212433 0)
(0.0294184 0.192539 0)
(0.0603754 0.17424 0)
(0.0690889 0.128889 0)
(0.0390523 0.0516431 0)
(0.0230524 -0.0151263 0)
(0.00313078 -0.0630639 0)
(-0.0316818 -0.10466 0)
(-0.0367379 -0.105892 0)
(-0.0342363 -0.0891251 0)
(-0.0410869 -0.0824263 0)
(-0.0538274 -0.082809 0)
(-0.0689978 -0.0839232 0)
(-0.0833266 -0.0804403 0)
(-0.109694 -0.0790329 0)
(-0.155826 -0.0862565 0)
(-0.177354 -0.0859434 0)
(-0.128219 -0.0377065 0)
(-0.0600075 0.010471 0)
(-0.0300122 0.026083 0)
(-0.0227977 0.0307178 0)
(-0.0185962 0.034164 0)
(-0.0142181 0.0377428 0)
(-0.00982435 0.0407988 0)
(-0.00650998 0.0437579 0)
(-0.0011232 0.0454989 0)
(0.019443 0.0471171 0)
(0.139746 0.0491826 0)
(0.292955 0.056684 0)
(0.255293 0.0639182 0)
(0.132905 0.0609014 0)
(0.0962853 0.0510569 0)
(0.105177 0.035587 0)
(0.101048 0.0240822 0)
(0.0601304 0.0147876 0)
(0.0113067 0.00762233 0)
(-0.00530752 0.00600424 0)
(-0.00142048 0.203903 0)
(-0.0124905 0.205367 0)
(-0.0214163 0.178265 0)
(-0.00882169 0.158426 0)
(0.0135842 0.1361 0)
(0.0139087 0.0905967 0)
(-0.00451361 0.0233943 0)
(-0.0129494 -0.0351865 0)
(-0.0250159 -0.0674364 0)
(-0.0327439 -0.0977223 0)
(-0.0253903 -0.0938633 0)
(-0.0230249 -0.0765734 0)
(-0.0282734 -0.0672131 0)
(-0.0396476 -0.0617475 0)
(-0.0523534 -0.0548685 0)
(-0.0629065 -0.0374063 0)
(-0.078907 -0.0182257 0)
(-0.112197 -0.0132523 0)
(-0.1538 -0.013715 0)
(-0.14594 0.0273862 0)
(-0.0818995 0.0980145 0)
(-0.0343346 0.136737 0)
(-0.0212629 0.151404 0)
(-0.0173474 0.16036 0)
(-0.0133923 0.167935 0)
(-0.00953581 0.174808 0)
(-0.00566733 0.179822 0)
(-0.00329748 0.184607 0)
(0.00119323 0.186774 0)
(0.022432 0.189878 0)
(0.148959 0.197801 0)
(0.306342 0.218116 0)
(0.257511 0.208638 0)
(0.11925 0.179214 0)
(0.0737048 0.148393 0)
(0.0849004 0.107877 0)
(0.0872106 0.071654 0)
(0.0477352 0.0420522 0)
(0.00332866 0.0231606 0)
(-0.00715287 0.0124327 0)
(-0.0059674 0.133035 0)
(-0.0288706 0.112576 0)
(-0.036492 0.0905197 0)
(-0.0269929 0.070108 0)
(-0.0359443 0.0431849 0)
(-0.0482316 0.00628972 0)
(-0.0521203 -0.023225 0)
(-0.0484754 -0.0511617 0)
(-0.0372093 -0.0641345 0)
(-0.0223352 -0.0456922 0)
(-0.011302 -0.0252473 0)
(-0.0110568 -0.00437497 0)
(-0.0199496 0.0164961 0)
(-0.0291911 0.0414337 0)
(-0.0303714 0.0744086 0)
(-0.0336875 0.105547 0)
(-0.0600509 0.120697 0)
(-0.105348 0.118885 0)
(-0.116665 0.136419 0)
(-0.0696873 0.200192 0)
(-0.0228448 0.255239 0)
(-0.00855964 0.274449 0)
(-0.00724758 0.281127 0)
(-0.0068674 0.28537 0)
(-0.00467355 0.288718 0)
(-0.00276352 0.291885 0)
(-0.000382306 0.294321 0)
(0.000188853 0.296053 0)
(0.00395676 0.296326 0)
(0.0300698 0.298808 0)
(0.166957 0.307178 0)
(0.303397 0.307388 0)
(0.217806 0.263146 0)
(0.0748516 0.224015 0)
(0.0275419 0.201172 0)
(0.0312277 0.169001 0)
(0.0376174 0.127738 0)
(0.0134005 0.0892948 0)
(-0.0172357 0.0554891 0)
(-0.0156453 0.0286618 0)
(-0.0211356 0.0517457 0)
(-0.0534601 0.0356709 0)
(-0.0623402 0.0335081 0)
(-0.0544352 0.0291632 0)
(-0.0479135 0.0362707 0)
(-0.0500863 0.0577567 0)
(-0.0598759 0.0750304 0)
(-0.0523713 0.0852068 0)
(-0.0197452 0.100831 0)
(0.0047292 0.12399 0)
(0.0144245 0.14658 0)
(0.0172006 0.161643 0)
(0.0158695 0.1733 0)
(0.0161589 0.187791 0)
(0.00942826 0.197567 0)
(-0.0183011 0.188186 0)
(-0.0660538 0.158731 0)
(-0.0970467 0.142114 0)
(-0.0754493 0.175566 0)
(-0.0314409 0.217809 0)
(-0.0103426 0.229941 0)
(-0.00938739 0.228274 0)
(-0.0107398 0.22424 0)
(-0.0100323 0.221298 0)
(-0.0071138 0.219156 0)
(-0.00413663 0.217795 0)
(-0.00165094 0.217175 0)
(-0.00136565 0.2154 0)
(0.00384791 0.214517 0)
(0.0328891 0.215488 0)
(0.157227 0.215244 0)
(0.263911 0.179866 0)
(0.17717 0.133167 0)
(0.0595298 0.115651 0)
(0.0206912 0.118657 0)
(0.014137 0.119428 0)
(0.0104025 0.10999 0)
(-0.0218864 0.102087 0)
(-0.0550995 0.0839338 0)
(-0.0330047 0.0559954 0)
(-0.0214577 0.0207878 0)
(-0.0464451 0.0425295 0)
(-0.042763 0.0834392 0)
(-0.0243307 0.126349 0)
(-0.00839064 0.180562 0)
(-0.0108814 0.243118 0)
(-0.0256684 0.287488 0)
(-0.0236132 0.310727 0)
(0.000163241 0.29478 0)
(0.0217504 0.25841 0)
(0.0249821 0.228996 0)
(0.0146918 0.20371 0)
(0.00524783 0.181332 0)
(-0.00580678 0.155705 0)
(-0.0299907 0.116235 0)
(-0.0711108 0.0693414 0)
(-0.104448 0.0385083 0)
(-0.0891251 0.0549636 0)
(-0.0437217 0.0949567 0)
(-0.0172895 0.115469 0)
(-0.0127608 0.11646 0)
(-0.0140532 0.114122 0)
(-0.0139698 0.112993 0)
(-0.0117668 0.113296 0)
(-0.0080493 0.114211 0)
(-0.00467217 0.115127 0)
(-0.00268992 0.11576 0)
(-0.0023729 0.115433 0)
(0.00404147 0.115835 0)
(0.0307706 0.116047 0)
(0.132631 0.109393 0)
(0.224304 0.0627284 0)
(0.155926 0.0351232 0)
(0.0608689 0.0366617 0)
(0.0311817 0.0409213 0)
(0.0228765 0.0417954 0)
(0.0209068 0.0396982 0)
(-0.0117087 0.0470279 0)
(-0.0616513 0.0631565 0)
(-0.0425678 0.0665993 0)
(-0.000184573 0.0364664 0)
(0.00691301 0.0689313 0)
(0.0184313 0.119035 0)
(0.0391556 0.161955 0)
(0.0646091 0.210709 0)
(0.0529518 0.253888 0)
(0.00527478 0.277121 0)
(-0.0453445 0.271636 0)
(-0.07016 0.217674 0)
(-0.0586622 0.143641 0)
(-0.0382863 0.0891565 0)
(-0.0287307 0.0578265 0)
(-0.0303898 0.036765 0)
(-0.0465708 0.0121485 0)
(-0.0737948 -0.0181728 0)
(-0.0932012 -0.0365085 0)
(-0.0799088 -0.0112796 0)
(-0.0426511 0.0400418 0)
(-0.0171439 0.0722753 0)
(-0.0107198 0.0817834 0)
(-0.0116412 0.0842899 0)
(-0.0127282 0.0863815 0)
(-0.0115349 0.0896782 0)
(-0.00885889 0.0931983 0)
(-0.00534983 0.0962451 0)
(-0.00264306 0.0984522 0)
(-0.00135632 0.09971 0)
(-0.00129402 0.100509 0)
(0.0044398 0.101413 0)
(0.0266819 0.0991391 0)
(0.105848 0.0906208 0)
(0.192341 0.0390845 0)
(0.152051 0.0161026 0)
(0.0651171 0.0265834 0)
(0.0256382 0.021961 0)
(0.0129584 0.0120203 0)
(0.0154448 0.00131899 0)
(0.000718958 -0.00358231 0)
(-0.0362398 0.0132757 0)
(-0.0296871 0.0424049 0)
(0.00982669 0.0311454 0)
(0.0331215 0.0397552 0)
(0.0468781 0.0591282 0)
(0.0640092 0.0754542 0)
(0.0801988 0.0904079 0)
(0.0531157 0.0830672 0)
(-0.00856514 0.0751971 0)
(-0.0808982 0.0596637 0)
(-0.123178 0.0251859 0)
(-0.102094 -0.00168145 0)
(-0.0577117 -0.0117663 0)
(-0.0357946 -0.016679 0)
(-0.0387691 -0.0253708 0)
(-0.0587468 -0.0348447 0)
(-0.0768784 -0.0310812 0)
(-0.0644683 -0.00132949 0)
(-0.0306815 0.0459846 0)
(-0.00860854 0.0802522 0)
(-0.00349795 0.0938633 0)
(-0.00571185 0.0987131 0)
(-0.00832987 0.101536 0)
(-0.00886079 0.104529 0)
(-0.007401 0.108108 0)
(-0.0054387 0.111276 0)
(-0.00298643 0.113503 0)
(-0.0013333 0.114746 0)
(-0.000708053 0.115346 0)
(-0.000732207 0.115674 0)
(0.00272155 0.116142 0)
(0.0203712 0.112091 0)
(0.0747601 0.102837 0)
(0.152496 0.0520781 0)
(0.143879 0.0159794 0)
(0.0665142 0.0221844 0)
(0.0171481 0.0146501 0)
(0.00298513 0.00572229 0)
(0.00587149 -0.00479868 0)
(-0.000186745 -0.0175728 0)
(-0.0173364 -0.0202063 0)
(-0.0144978 0.000827554 0)
(0.00811215 -0.00951376 0)
(0.0338783 -0.00927042 0)
(0.0528322 -0.00927737 0)
(0.0692978 -0.0120931 0)
(0.0719453 -0.0114116 0)
(0.0382941 -0.0263778 0)
(-0.0172777 -0.0324315 0)
(-0.0935372 -0.0342834 0)
(-0.129274 -0.0322762 0)
(-0.0942708 -0.0136771 0)
(-0.0527385 -0.00069012 0)
(-0.0418405 0.000944042 0)
(-0.0478949 -0.0035706 0)
(-0.0520735 0.000894058 0)
(-0.0414983 0.0265659 0)
(-0.0189379 0.0668471 0)
(-0.0012937 0.0933973 0)
(0.00348661 0.102897 0)
(0.000645623 0.1049 0)
(-0.00332628 0.105751 0)
(-0.00603695 0.106859 0)
(-0.00639468 0.107962 0)
(-0.00503343 0.108727 0)
(-0.00366029 0.109203 0)
(-0.00200543 0.109375 0)
(-0.000867055 0.109002 0)
(-0.000462419 0.108755 0)
(-0.000526734 0.108442 0)
(0.000986729 0.108679 0)
(0.0138601 0.105681 0)
(0.0480174 0.0949165 0)
(0.108643 0.0570153 0)
(0.123245 0.00925049 0)
(0.0638362 0.0132185 0)
(0.00977479 0.0110374 0)
(-0.0057832 0.00376972 0)
(-0.00700327 -0.00892936 0)
(-0.0141284 -0.0126056 0)
(-0.0185085 -0.0242865 0)
(-0.00941813 -0.0468075 0)
(0.0100612 -0.29143 0)
(0.0333492 -0.135565 0)
(0.044158 -0.0610361 0)
(0.0619526 -0.0655128 0)
(0.0664336 -0.0655325 0)
(0.0328601 -0.0691357 0)
(-0.0161833 -0.0656365 0)
(-0.0807485 -0.0569767 0)
(-0.103321 -0.0283175 0)
(-0.0716566 0.00127279 0)
(-0.0436222 0.0130826 0)
(-0.0385704 0.0165143 0)
(-0.0388173 0.0229737 0)
(-0.0297062 0.0389036 0)
(-0.0133236 0.0601897 0)
(-6.71521e-05 0.0752158 0)
(0.00405715 0.0786601 0)
(0.00247627 0.0757256 0)
(-0.000747205 0.0723059 0)
(-0.00382462 0.0700991 0)
(-0.00619947 0.0693152 0)
(-0.00706067 0.0689609 0)
(-0.00620543 0.0683217 0)
(-0.00481423 0.0677029 0)
(-0.00317934 0.0672939 0)
(-0.00193081 0.0664194 0)
(-0.00124815 0.0658446 0)
(-0.000805194 0.065306 0)
(6.11644e-05 0.0655534 0)
(0.00710905 0.0643947 0)
(0.0278638 0.0542116 0)
(0.0699451 0.0295871 0)
(0.101675 -0.0168761 0)
(0.0682362 -0.021078 0)
(0.00804295 -0.00884703 0)
(-0.0162556 -0.00415467 0)
(-0.00990838 -0.0164522 0)
(-0.0149854 -0.0180648 0)
(-0.0502946 -0.108281 0)
(-0.0361999 -0.304733 0)
(0.15831 -0.747297 0)
(0.255895 -0.438292 0)
(0.120337 -0.097655 0)
(0.0649649 -0.0653427 0)
(0.0684542 -0.08058 0)
(0.0381939 -0.0892892 0)
(-0.00556084 -0.0911421 0)
(-0.0575752 -0.0862281 0)
(-0.0731431 -0.0573657 0)
(-0.0543761 -0.0317546 0)
(-0.0380512 -0.0191189 0)
(-0.032309 -0.0104284 0)
(-0.0263198 0.00207842 0)
(-0.0162109 0.0163973 0)
(-0.00650656 0.0262963 0)
(-0.00113914 0.0274601 0)
(-0.00080242 0.0234595 0)
(-0.00263653 0.0185823 0)
(-0.00477635 0.0146236 0)
(-0.00620825 0.0119943 0)
(-0.00713373 0.0108414 0)
(-0.00735203 0.0108407 0)
(-0.00624566 0.0114717 0)
(-0.00465072 0.012302 0)
(-0.00324227 0.0133189 0)
(-0.00226364 0.0138416 0)
(-0.00153537 0.0143591 0)
(-0.000807365 0.0148351 0)
(0.000108619 0.0155322 0)
(0.00293081 0.0160073 0)
(0.0144755 0.0109318 0)
(0.0401398 -0.00493303 0)
(0.0744218 -0.040926 0)
(0.0715733 -0.0655102 0)
(0.0260827 -0.0463332 0)
(-0.0131118 -0.0200218 0)
(-0.0204076 -0.020307 0)
(-0.102618 -0.0523689 0)
(-0.294752 -0.300614 0)
(-0.198726 -0.668437 0)
(0.30783 -0.473661 0)
(0.659368 -0.318498 0)
(0.403545 -0.054962 0)
(0.0784066 -0.0246029 0)
(0.0433579 -0.041013 0)
(0.0226822 -0.0506462 0)
(-0.0132335 -0.0571101 0)
(-0.0482004 -0.0586084 0)
(-0.0508282 -0.0473815 0)
(-0.0348006 -0.0354515 0)
(-0.0230715 -0.0270673 0)
(-0.0181438 -0.0199064 0)
(-0.0129671 -0.0123675 0)
(-0.00636899 -0.00604987 0)
(-0.00266309 -0.00215427 0)
(-0.00280073 -0.00206136 0)
(-0.00449779 -0.00387857 0)
(-0.00603835 -0.00589618 0)
(-0.00709569 -0.00740876 0)
(-0.00746924 -0.00830305 0)
(-0.00731114 -0.00871735 0)
(-0.00645332 -0.00848716 0)
(-0.00479722 -0.00778472 0)
(-0.00303423 -0.00698406 0)
(-0.00169579 -0.00610723 0)
(-0.000928365 -0.00537922 0)
(-0.000290691 -0.00472157 0)
(0.00032523 -0.00408757 0)
(0.00119073 -0.00354624 0)
(0.00267588 -0.00296463 0)
(0.00768494 -0.00381079 0)
(0.0199731 -0.0100114 0)
(0.0433009 -0.0247385 0)
(0.0630256 -0.0423067 0)
(0.0518772 -0.0336088 0)
(0.00882425 -0.0155388 0)
(-0.0410792 -0.0108449 0)
(-0.2851 -0.0369905 0)
(-0.64396 -0.200213 0)
(-0.390648 -0.399376 0)
(0.30783 0.473661 0)
(0.659368 0.318498 0)
(0.403545 0.054962 0)
(0.0784066 0.0246029 0)
(0.0433579 0.041013 0)
(0.0226822 0.0506462 0)
(-0.0132335 0.0571101 0)
(-0.0482004 0.0586084 0)
(-0.0508282 0.0473815 0)
(-0.0348006 0.0354515 0)
(-0.0230715 0.0270673 0)
(-0.0181438 0.0199064 0)
(-0.0129671 0.0123675 0)
(-0.00636899 0.00604987 0)
(-0.00266309 0.00215427 0)
(-0.00280073 0.00206136 0)
(-0.00449779 0.00387857 0)
(-0.00603835 0.00589618 0)
(-0.00709569 0.00740876 0)
(-0.00746924 0.00830305 0)
(-0.00731114 0.00871735 0)
(-0.00645332 0.00848716 0)
(-0.00479722 0.00778472 0)
(-0.00303423 0.00698406 0)
(-0.00169579 0.00610723 0)
(-0.000928365 0.00537922 0)
(-0.000290691 0.00472157 0)
(0.00032523 0.00408757 0)
(0.00119073 0.00354624 0)
(0.00267588 0.00296463 0)
(0.00768494 0.00381079 0)
(0.0199731 0.0100114 0)
(0.0433009 0.0247385 0)
(0.0630256 0.0423067 0)
(0.0518772 0.0336088 0)
(0.00882425 0.0155388 0)
(-0.0410792 0.0108449 0)
(-0.2851 0.0369905 0)
(-0.64396 0.200213 0)
(-0.390648 0.399376 0)
(0.15831 0.747297 0)
(0.255895 0.438292 0)
(0.120337 0.097655 0)
(0.0649649 0.0653427 0)
(0.0684542 0.08058 0)
(0.0381939 0.0892892 0)
(-0.00556084 0.0911421 0)
(-0.0575752 0.0862281 0)
(-0.0731431 0.0573657 0)
(-0.0543761 0.0317546 0)
(-0.0380512 0.0191189 0)
(-0.032309 0.0104284 0)
(-0.0263198 -0.00207842 0)
(-0.0162109 -0.0163973 0)