/*--------------------------------*- C++ -*----------------------------------*\
| =========                 |                                                 |
| \\      /  F ield         | OpenFOAM: The Open Source CFD Toolbox           |
|  \\    /   O peration     | Version:  v1912                                 |
|   \\  /    A nd           | Website:  www.openfoam.com                      |
|    \\/     M anipulation  |                                                 |
\*---------------------------------------------------------------------------*/
FoamFile
{
    version     2.0;
    format      ascii;
    class       volTensorField;
    location    "3.44";
    object      grad(U);
}
// * * * * * * * * * * * * * * * * * * * * * * * * * * * * * * * * * * * * * //

dimensions      [0 0 -1 0 0 0 0];


internalField   nonuniform List<tensor> 
1900
(
(-3.39666 -3.95277e-05 0 -3.09724e-05 -3.53432e-05 0 0 0 0)
(2.45221 -5.48247e-05 0 -7.22852e-05 -7.36503e-05 0 0 0 0)
(-0.0585829 2.2645e-05 0 -0.000145726 -0.000154966 0 0 0 0)
(-0.035911 0.000836431 0 -0.000156501 1.85697e-05 0 0 0 0)
(-0.0289034 0.00213243 0 0.000356945 0.00147715 0 0 0 0)
(-0.0188763 0.00177669 0 0.00238968 0.00439359 0 0 0 0)
(-0.00286157 -0.00381055 0 0.00556122 0.00566569 0 0 0 0)
(0.0291998 -0.0282299 0 0.0110873 -0.000741375 0 0 0 0)
(0.112608 -0.0856154 0 0.00884374 -0.0417087 0 0 0 0)
(0.115795 -0.233083 0 -0.0530563 -0.150863 0 0 0 0)
(-3.39676 -6.94657e-05 0 -4.07823e-05 1.32739e-05 0 0 0 0)
(2.45209 -6.47977e-05 0 -0.00010354 2.62537e-05 0 0 0 0)
(-0.0586672 6.9575e-05 0 -0.000196699 6.80986e-05 0 0 0 0)
(-0.0354084 0.000795684 0 -0.000118988 3.60875e-06 0 0 0 0)
(-0.0263572 0.0022426 0 0.000869496 -0.000768333 0 0 0 0)
(-0.013672 0.00241185 0 0.00407846 -0.00212882 0 0 0 0)
(0.0058361 -0.00132442 0 0.00871451 -0.00254502 0 0 0 0)
(0.0324823 -0.0191445 0 0.0159597 0.00168173 0 0 0 0)
(0.0484648 -0.064506 0 0.00142089 0.0256849 0 0 0 0)
(-0.0307198 -0.148017 0 -0.0947482 0.0872971 0 0 0 0)
(-3.39681 -6.31399e-13 0 -8.0231e-14 4.41384e-05 0 0 0 0)
(2.45205 2.33653e-13 0 -9.62229e-14 9.4793e-05 0 0 0 0)
(-0.0585984 1.70922e-13 0 7.49455e-14 0.000173734 0 0 0 0)
(-0.0348448 6.80078e-14 0 -3.11708e-15 -4.43569e-05 0 0 0 0)
(-0.024706 1.81868e-14 0 6.77626e-15 -0.00141763 0 0 0 0)
(-0.0110313 6.58423e-15 0 2.60209e-14 -0.00452955 0 0 0 0)
(0.00901969 4.05157e-14 0 -1.41082e-13 -0.00624134 0 0 0 0)
(0.0219062 -4.91318e-14 0 -8.61941e-14 -0.0018807 0 0 0 0)
(0.00190059 -2.29935e-14 0 5.50233e-14 0.0320477 0 0 0 0)
(-0.083256 1.19567e-13 0 7.98244e-14 0.127131 0 0 0 0)
(-3.39676 6.94657e-05 0 4.07823e-05 1.32739e-05 0 0 0 0)
(2.45209 6.47977e-05 0 0.00010354 2.62537e-05 0 0 0 0)
(-0.0586672 -6.9575e-05 0 0.000196699 6.80986e-05 0 0 0 0)
(-0.0354084 -0.000795684 0 0.000118988 3.60875e-06 0 0 0 0)
(-0.0263572 -0.0022426 0 -0.000869496 -0.000768333 0 0 0 0)
(-0.013672 -0.00241185 0 -0.00407846 -0.00212882 0 0 0 0)
(0.0058361 0.00132442 0 -0.00871451 -0.00254502 0 0 0 0)
(0.0324823 0.0191445 0 -0.0159597 0.00168173 0 0 0 0)
(0.0484648 0.064506 0 -0.00142089 0.0256849 0 0 0 0)
(-0.0307198 0.148017 0 0.0947482 0.0872971 0 0 0 0)
(-3.39666 3.95277e-05 0 3.09724e-05 -3.53432e-05 0 0 0 0)
(2.45221 5.48247e-05 0 7.22852e-05 -7.36503e-05 0 0 0 0)
(-0.0585829 -2.2645e-05 0 0.000145726 -0.000154966 0 0 0 0)
(-0.035911 -0.000836431 0 0.000156501 1.85697e-05 0 0 0 0)
(-0.0289034 -0.00213243 0 -0.000356945 0.00147715 0 0 0 0)
(-0.0188763 -0.00177669 0 -0.00238968 0.00439359 0 0 0 0)
(-0.00286157 0.00381055 0 -0.00556122 0.00566569 0 0 0 0)
(0.0291998 0.0282299 0 -0.0110873 -0.000741375 0 0 0 0)
(0.112608 0.0856154 0 -0.00884374 -0.0417087 0 0 0 0)
(0.115795 0.233083 0 0.0530563 -0.150863 0 0 0 0)
(-0.0366908 -0.343402 8.83833e-18 -0.17936 0.160226 -1.32575e-17 -5.9433e-17 -6.49019e-17 2.39564e-33)
(-0.156408 -0.339414 0 -0.235635 0.238727 0 1.34275e-16 5.37543e-17 0)
(-0.197778 -0.386281 0 -0.36272 0.219867 0 2.00253e-16 9.17889e-17 0)
(-1.01897 -0.209979 0 -0.907935 0.362368 0 0 0 0)
(0.106862 -1.52554 -3.79025e-16 -3.21484 3.28414 5.68537e-16 1.53143e-15 1.02095e-15 1.02735e-31)
(-0.151801 -0.218006 0 -0.191477 0.242372 0 -9.18434e-17 -3.5949e-17 0)
(-0.31183 -0.265264 0 -0.238302 0.359386 0 -1.34275e-16 -5.37543e-17 0)
(-0.589779 -0.386753 0 -0.504408 0.588341 0 -2.00253e-16 -9.17889e-17 0)
(-1.26779 -0.311805 0 -1.18359 1.00809 0 0 0 0)
(-0.906828 0.235965 0 -1.49712 1.25185 0 0 0 0)
(-0.221566 8.91379e-14 0 4.86123e-14 0.311027 0 0 0 0)
(-0.447255 2.13681e-13 0 9.74831e-14 0.471138 0 0 0 0)
(-0.857245 1.58583e-14 0 2.37546e-13 0.855166 0 0 0 0)
(-1.56604 -2.53869e-13 0 4.03496e-13 1.53931 0 0 0 0)
(-1.13826 6.3549e-14 0 7.22801e-13 2.228 0 0 0 0)
(-0.151801 0.218006 0 0.191477 0.242372 0 -9.18434e-17 3.5949e-17 0)
(-0.31183 0.265264 0 0.238302 0.359386 0 -1.34275e-16 5.37543e-17 0)
(-0.589779 0.386753 0 0.504408 0.588341 0 -2.00253e-16 9.17889e-17 0)
(-1.26779 0.311805 0 1.18359 1.00809 0 0 0 0)
(-0.906828 -0.235965 0 1.49712 1.25185 0 0 0 0)
(-0.0366908 0.343402 -8.83833e-18 0.17936 0.160226 -1.32575e-17 2.4312e-16 -1.368e-16 2.39564e-33)
(-0.156408 0.339414 0 0.235635 0.238727 0 1.34275e-16 -5.37543e-17 0)
(-0.197778 0.386281 0 0.36272 0.219867 0 2.00253e-16 -9.17889e-17 0)
(-1.01897 0.209979 -1.49295e-17 0.907935 0.362368 -2.23942e-17 5.8008e-16 -3.8672e-16 4.04664e-33)
(0.106862 1.52554 3.79025e-16 3.21484 3.28414 5.68537e-16 -1.53143e-15 1.02095e-15 1.02735e-31)
(0.168896 0.445076 2.81403e-18 -0.434699 -0.926283 2.53262e-17 -9.55141e-16 7.67755e-17 -7.62743e-34)
(0.751811 -0.0321421 -9.02667e-19 -0.266701 -0.422672 -8.12401e-18 6.12167e-16 -5.43966e-17 -2.44669e-34)
(0.510599 0.0696695 0 -0.0799647 -0.204535 0 0 0 0)
(0.1738 0.291947 -1.75062e-18 0.50218 0.425235 -1.57556e-17 -2.85761e-16 4.62383e-17 4.74506e-34)
(-0.691688 0.192207 3.84493e-18 1.89329 1.37727 3.46044e-17 1.45848e-16 -1.62053e-17 1.04217e-33)
(0.472101 0.437891 0 -0.531658 -0.448419 0 4.84116e-16 -2.44395e-17 0)
(0.813378 -0.0375605 0 -0.321711 -0.422341 0 -3.101e-16 2.08336e-17 0)
(0.755547 0.0789905 0 -0.0034852 -0.355359 0 0 0 0)
(0.959676 0.376163 0 0.759588 -0.539092 0 1.63429e-16 -3.28442e-17 0)
(1.46088 0.272424 0 2.71497 -0.843546 0 -1.76553e-18 8.06986e-18 0)
(0.590152 2.43895e-13 0 1.36894e-12 -0.726144 0 0 0 0)
(0.898746 3.54114e-13 0 2.64101e-12 -0.538839 0 0 0 0)
(0.90793 3.57372e-13 0 4.30569e-12 -0.404104 0 0 0 0)
(1.32161 5.0076e-13 0 5.0884e-12 -0.882353 0 -5.6221e-17 3.94847e-29 0)
(1.9505 -4.1016e-13 0 7.49263e-12 -2.14362 0 3.53107e-18 -6.88743e-29 0)
(0.472101 -0.437891 0 0.531658 -0.448419 0 4.84116e-16 2.44395e-17 0)
(0.813378 0.0375605 0 0.321711 -0.422341 0 -3.101e-16 -2.08336e-17 0)
(0.755547 -0.0789905 0 0.0034852 -0.355359 0 0 0 0)
(0.959676 -0.376163 0 -0.759588 -0.539092 0 1.63429e-16 3.28442e-17 0)
(1.46088 -0.272424 0 -2.71497 -0.843546 0 -1.76553e-18 -8.06986e-18 0)
(0.168896 -0.445076 0 0.434699 -0.926283 0 -4.84116e-16 -2.44395e-17 0)
(0.751811 0.0321421 9.02667e-19 0.266701 -0.422672 -8.12401e-18 8.03215e-18 -1.27295e-17 -2.44669e-34)
(0.510599 -0.0696695 0 0.0799647 -0.204535 0 0 0 0)
(0.1738 -0.291947 1.75062e-18 -0.50218 0.425235 -1.57556e-17 1.5124e-17 -1.28067e-17 4.74506e-34)
(-0.691688 -0.192207 -3.84493e-18 -1.89329 1.37727 3.46044e-17 -1.45848e-16 -1.62053e-17 1.04217e-33)
(0.649895 -0.839863 0 9.90605 0.214093 0 0 0 0)
(1.14608 -0.924917 0 6.03636 0.812562 0 0 0 0)
(-0.85867 0.0616526 0 3.47848 1.24632 0 0 0 0)
(-0.93501 0.524099 0 1.13739 1.14269 0 0 0 0)
(-0.55639 0.373483 0 0.177904 0.750705 0 0 0 0)
(-0.373354 0.113405 0 0.0579567 0.530363 0 0 0 0)
(-0.161682 0.0320629 0 0.0255311 0.452429 0 0 0 0)
(-0.0231399 0.0137206 0 0.0118296 0.422979 0 0 0 0)
(0.0306561 0.00710109 0 0.0063779 0.405128 0 0 0 0)
(0.075373 0.00483874 0 0.00285242 0.396457 0 0 0 0)
(0.121593 0.00276211 0 -0.000167921 0.389848 0 0 0 0)
(0.170484 0.00128791 0 -0.000733675 0.387574 0 0 0 0)
(0.217659 0.00113801 0 -0.000988348 0.385414 0 0 0 0)
(0.26065 0.000954805 0 -0.000935557 0.38368 0 0 0 0)
(0.296408 0.000812046 0 -0.000791718 0.382172 0 0 0 0)
(0.323705 0.000707687 0 -0.000643827 0.380891 0 0 0 0)
(0.342842 0.000551644 0 -0.000503081 0.379728 0 0 0 0)
(0.35513 0.000585691 0 -0.000360856 0.378976 0 0 0 0)
(0.361891 -0.000193734 0 -0.00022411 0.377702 0 0 0 0)
(0.364789 -0.000391763 0 3.57437e-05 0.37965 0 0 0 0)
(0.366675 0.000800405 0 0.000274542 0.379062 0 0 0 0)
(0.368069 0.000374452 0 0.000538788 0.376894 0 0 0 0)
(0.366028 -0.000268609 0 0.000791154 0.377767 0 0 0 0)
(0.359409 -8.1281e-05 0 0.00103682 0.377813 0 0 0 0)
(0.348141 -8.6562e-05 0 0.00126945 0.378037 0 0 0 0)
(0.330748 -1.06966e-05 0 0.00147725 0.378088 0 0 0 0)
(0.306476 5.96813e-05 0 0.0016349 0.378032 0 0 0 0)
(0.276578 0.000142273 0 0.00170685 0.377816 0 0 0 0)
(0.244424 0.000207562 0 0.00165298 0.377455 0 0 0 0)
(0.215122 0.000213894 0 0.00142595 0.376988 0 0 0 0)
(0.193372 0.000269898 0 0.00101534 0.376604 0 0 0 0)
(0.18033 2.73369e-05 0 0.000447898 0.375863 0 0 0 0)
(0.172481 0.00070831 0 -0.000432333 0.376427 0 0 0 0)
(0.161371 -0.000340218 0 -0.000662394 0.373298 0 0 0 0)
(0.140762 0.002065 0 -0.0034713 0.377162 0 0 0 0)
(0.119441 -0.00059114 0 -0.00398876 0.367241 0 0 0 0)
(0.0967369 0.000361858 0 -0.00698266 0.378364 0 0 0 0)
(0.0825382 -0.0185674 0 -0.012283 0.365778 0 0 0 0)
(2.33699 -0.0250948 0 -0.0261383 0.432787 0 0 0 0)
(2.29572 -0.00231612 0 -0.0375312 0.429945 0 0 0 0)
(1.55823 -0.684442 0 7.77473 -0.534181 0 0 0 0)
(0.0247316 -0.817584 0 5.07945 2.02762 0 0 0 0)
(-1.79263 0.0846687 0 3.10397 2.64522 0 0 0 0)
(-1.55983 0.393115 0 0.936412 1.81569 0 0 0 0)
(-0.748784 0.228336 0 -0.0201752 0.843628 0 0 0 0)
(-0.380778 0.0583504 0 -0.0497087 0.531836 0 0 0 0)
(-0.162181 0.0150808 0 -0.040274 0.453798 0 0 0 0)
(-0.0236631 0.0067493 0 -0.0395585 0.42162 0 0 0 0)
(0.0309524 0.00326556 0 -0.0349628 0.406633 0 0 0 0)
(0.0756145 0.00236683 0 -0.0317204 0.39721 0 0 0 0)
(0.121962 0.001418 0 -0.0296883 0.39 0 0 0 0)
(0.171224 0.000660855 0 -0.0263023 0.387715 0 0 0 0)
(0.218518 0.000586337 0 -0.0228379 0.385573 0 0 0 0)
(0.261582 0.000493815 0 -0.0193772 0.383803 0 0 0 0)
(0.297371 0.000417598 0 -0.0160127 0.382291 0 0 0 0)
(0.324675 0.000360676 0 -0.0127947 0.381012 0 0 0 0)
(0.343811 0.000279162 0 -0.0097303 0.379858 0 0 0 0)
(0.356096 0.000294131 0 -0.00680293 0.379116 0 0 0 0)
(0.362859 -9.64177e-05 0 -0.0039834 0.377845 0 0 0 0)
(0.365757 -0.000196259 0 -0.00120504 0.379782 0 0 0 0)
(0.367643 0.000398443 0 0.00153767 0.379192 0 0 0 0)
(0.369036 0.000184235 0 0.00430982 0.37703 0 0 0 0)
(0.366989 -0.000139156 0 0.00713791 0.377904 0 0 0 0)
(0.360361 -4.84268e-05 0 0.0100532 0.377954 0 0 0 0)
(0.34908 -5.47563e-05 0 0.0130808 0.378184 0 0 0 0)
(0.331669 -2.12163e-05 0 0.0162402 0.378251 0 0 0 0)
(0.307366 9.53481e-06 0 0.0195395 0.378221 0 0 0 0)
(0.277417 4.79227e-05 0 0.0229614 0.378046 0 0 0 0)
(0.245191 8.05319e-05 0 0.026479 0.377732 0 0 0 0)
(0.215794 8.83651e-05 0 0.0300582 0.377332 0 0 0 0)
(0.193934 0.000125408 0 0.0336729 0.376996 0 0 0 0)
(0.180767 2.61736e-05 0 0.0373426 0.376405 0 0 0 0)
(0.172881 0.000392562 0 0.0410423 0.376902 0 0 0 0)
(0.161494 -7.94538e-05 0 0.045297 0.37397 0 0 0 0)
(0.140832 0.00114892 0 0.0487808 0.378072 0 0 0 0)
(0.119512 -0.000187511 0 0.0533312 0.366871 0 0 0 0)
(0.0961316 0.000271176 0 0.0580879 0.380104 0 0 0 0)
(0.0797496 -0.0102826 0 0.0590258 0.365628 0 0 0 0)
(2.33791 -0.0108444 0 0.0439855 0.443929 0 0 0 0)
(2.29892 0.00157548 0 0.0740396 0.451891 0 0 0 0)
(1.70557 -1.04365e-12 0 5.82709e-12 -2.06461 0 0 0 0)
(-0.212686 -5.17741e-13 0 2.45818e-12 2.67522 0 0 0 0)
(-2.06392 -5.86294e-13 0 6.97832e-13 3.55628 0 0 0 0)
(-1.84385 -5.01385e-13 0 -1.47304e-12 2.09312 0 0 0 0)
(-0.843262 2.97915e-13 0 1.08814e-12 0.853609 0 0 0 0)
(-0.379201 1.1308e-12 0 7.17545e-12 0.523311 0 0 0 0)
(-0.15873 1.78063e-12 0 9.22163e-12 0.452451 0 0 0 0)
(-0.0215948 -4.20172e-13 0 -1.53523e-11 0.419631 0 0 0 0)
(0.0329362 -3.13616e-12 0 -4.17615e-11 0.406049 0 0 0 0)
(0.0769074 -6.27639e-12 0 -8.30933e-11 0.39718 0 0 0 0)
(0.123169 -1.06114e-11 0 -1.20366e-10 0.389777 0 0 0 0)
(0.172477 -1.23922e-11 0 -1.16759e-10 0.387431 0 0 0 0)
(0.219674 -7.47736e-12 0 -7.40914e-11 0.385234 0 0 0 0)
(0.262635 7.76007e-12 0 -3.92806e-11 0.3834 0 0 0 0)
(0.298323 4.00774e-11 0 -7.60903e-11 0.381839 0 0 0 0)
(0.325533 8.68669e-11 0 -1.88969e-10 0.380529 0 0 0 0)
(0.344585 5.93668e-11 0 -2.74793e-10 0.379359 0 0 0 0)
(0.356802 -1.15088e-10 0 -2.2901e-10 0.37861 0 0 0 0)
(0.36352 -1.66793e-10 0 -1.4527e-10 0.377337 0 0 0 0)
(0.366395 4.22814e-11 0 -3.40884e-11 0.379273 0 0 0 0)
(0.36828 1.53055e-10 0 6.4888e-11 0.378686 0 0 0 0)
(0.369698 -8.52035e-11 0 1.26491e-10 0.376533 0 0 0 0)
(0.367699 -2.20959e-10 0 4.97654e-11 0.37742 0 0 0 0)
(0.361138 5.04248e-11 0 -9.47041e-11 0.37749 0 0 0 0)
(0.349941 2.30197e-10 0 -1.12321e-10 0.377753 0 0 0 0)
(0.332627 1.18248e-10 0 -2.41738e-11 0.377867 0 0 0 0)
(0.308432 -1.31338e-11 0 -7.44462e-11 0.377899 0 0 0 0)
(0.278597 -3.92703e-11 0 -3.36651e-10 0.377801 0 0 0 0)
(0.246488 2.02208e-12 0 -6.40643e-10 0.377569 0 0 0 0)
(0.217214 -5.37186e-12 0 -7.62519e-10 0.377247 0 0 0 0)
(0.195491 -3.08228e-11 0 -6.35104e-10 0.376962 0 0 0 0)
(0.182474 -5.83139e-11 0 -3.04939e-10 0.376385 0 0 0 0)
(0.174795 -2.34326e-11 0 1.04275e-10 0.376782 0 0 0 0)
(0.163622 4.02405e-11 0 4.85837e-10 0.373686 0 0 0 0)
(0.143099 -7.78346e-11 0 7.21641e-10 0.377328 0 0 0 0)
(0.122149 4.97922e-11 0 7.36516e-10 0.365787 0 0 0 0)
(0.0983935 1.11148e-10 0 7.49714e-10 0.378617 0 0 0 0)
(0.0784357 -1.32567e-10 0 7.15918e-10 0.363923 0 0 0 0)
(2.34136 -1.17365e-10 0 6.47052e-10 0.44931 0 0 0 0)
(2.30447 -1.53738e-11 0 6.21804e-10 0.438478 0 0 0 0)
(1.55823 0.684442 0 -7.77473 -0.534181 0 0 0 0)
(0.0247316 0.817584 0 -5.07945 2.02762 0 0 0 0)
(-1.79263 -0.0846687 0 -3.10397 2.64522 0 0 0 0)
(-1.55983 -0.393115 0 -0.936412 1.81569 0 0 0 0)
(-0.748784 -0.228336 0 0.0201752 0.843628 0 0 0 0)
(-0.380778 -0.0583504 0 0.0497087 0.531836 0 0 0 0)
(-0.162181 -0.0150808 0 0.040274 0.453798 0 0 0 0)
(-0.0236631 -0.0067493 0 0.0395585 0.42162 0 0 0 0)
(0.0309524 -0.00326556 0 0.0349628 0.406633 0 0 0 0)
(0.0756145 -0.00236683 0 0.0317204 0.39721 0 0 0 0)
(0.121962 -0.001418 0 0.0296883 0.39 0 0 0 0)
(0.171224 -0.000660855 0 0.0263023 0.387715 0 0 0 0)
(0.218518 -0.000586337 0 0.0228379 0.385573 0 0 0 0)
(0.261582 -0.000493815 0 0.0193772 0.383803 0 0 0 0)
(0.297371 -0.000417598 0 0.0160127 0.382291 0 0 0 0)
(0.324675 -0.000360675 0 0.0127947 0.381012 0 0 0 0)
(0.343811 -0.000279162 0 0.0097303 0.379858 0 0 0 0)
(0.356096 -0.000294131 0 0.00680293 0.379116 0 0 0 0)
(0.362859 9.64174e-05 0 0.0039834 0.377845 0 0 0 0)
(0.365757 0.000196259 0 0.00120504 0.379782 0 0 0 0)
(0.367643 -0.000398443 0 -0.00153767 0.379192 0 0 0 0)
(0.369036 -0.000184236 0 -0.00430982 0.37703 0 0 0 0)
(0.366989 0.000139155 0 -0.00713791 0.377904 0 0 0 0)
(0.360361 4.84269e-05 0 -0.0100532 0.377954 0 0 0 0)
(0.34908 5.47567e-05 0 -0.0130808 0.378184 0 0 0 0)
(0.331669 2.12165e-05 0 -0.0162402 0.378251 0 0 0 0)
(0.307366 -9.53483e-06 0 -0.0195395 0.378221 0 0 0 0)
(0.277417 -4.79228e-05 0 -0.0229614 0.378046 0 0 0 0)
(0.245191 -8.05319e-05 0 -0.026479 0.377732 0 0 0 0)
(0.215794 -8.83652e-05 0 -0.0300582 0.377332 0 0 0 0)
(0.193934 -0.000125408 0 -0.0336729 0.376996 0 0 0 0)
(0.180767 -2.61737e-05 0 -0.0373426 0.376405 0 0 0 0)
(0.172881 -0.000392562 0 -0.0410423 0.376902 0 0 0 0)
(0.161494 7.94538e-05 0 -0.045297 0.37397 0 0 0 0)
(0.140832 -0.00114892 0 -0.0487808 0.378072 0 0 0 0)
(0.119512 0.000187511 0 -0.0533312 0.366871 0 0 0 0)
(0.0961316 -0.000271176 0 -0.0580879 0.380104 0 0 0 0)
(0.0797496 0.0102826 0 -0.0590258 0.365628 0 0 0 0)
(2.33791 0.0108444 0 -0.0439855 0.443929 0 0 0 0)
(2.29892 -0.00157548 0 -0.0740396 0.451891 0 0 0 0)
(0.649895 0.839863 0 -9.90605 0.214093 0 0 0 0)
(1.14608 0.924917 0 -6.03636 0.812562 0 0 0 0)
(-0.85867 -0.0616526 0 -3.47848 1.24632 0 0 0 0)
(-0.93501 -0.524099 0 -1.13739 1.14269 0 0 0 0)
(-0.55639 -0.373483 0 -0.177904 0.750705 0 0 0 0)
(-0.373354 -0.113405 0 -0.0579567 0.530363 0 0 0 0)
(-0.161682 -0.0320629 0 -0.0255311 0.452429 0 0 0 0)
(-0.0231399 -0.0137206 0 -0.0118296 0.422979 0 0 0 0)
(0.0306561 -0.00710109 0 -0.0063779 0.405128 0 0 0 0)
(0.075373 -0.00483874 0 -0.00285242 0.396457 0 0 0 0)
(0.121593 -0.00276211 0 0.000167921 0.389848 0 0 0 0)
(0.170484 -0.00128791 0 0.000733674 0.387574 0 0 0 0)
(0.217659 -0.00113801 0 0.000988347 0.385414 0 0 0 0)
(0.26065 -0.000954805 0 0.000935557 0.38368 0 0 0 0)
(0.296408 -0.000812046 0 0.000791717 0.382172 0 0 0 0)
(0.323705 -0.000707686 0 0.000643827 0.380891 0 0 0 0)
(0.342842 -0.000551644 0 0.000503081 0.379728 0 0 0 0)
(0.35513 -0.000585691 0 0.000360856 0.378976 0 0 0 0)
(0.361891 0.000193733 0 0.00022411 0.377702 0 0 0 0)
(0.364789 0.000391763 0 -3.57439e-05 0.37965 0 0 0 0)
(0.366675 -0.000800405 0 -0.000274542 0.379062 0 0 0 0)
(0.368069 -0.000374452 0 -0.000538789 0.376894 0 0 0 0)
(0.366028 0.000268609 0 -0.000791155 0.377767 0 0 0 0)
(0.359409 8.12811e-05 0 -0.00103682 0.377813 0 0 0 0)
(0.348141 8.65625e-05 0 -0.00126945 0.378037 0 0 0 0)
(0.330748 1.06969e-05 0 -0.00147725 0.378088 0 0 0 0)
(0.306476 -5.96812e-05 0 -0.0016349 0.378032 0 0 0 0)
(0.276578 -0.000142273 0 -0.00170685 0.377816 0 0 0 0)
(0.244424 -0.000207562 0 -0.00165298 0.377455 0 0 0 0)
(0.215122 -0.000213894 0 -0.00142595 0.376988 0 0 0 0)
(0.193372 -0.000269898 0 -0.00101534 0.376604 0 0 0 0)
(0.18033 -2.73371e-05 0 -0.000447897 0.375863 0 0 0 0)
(0.172481 -0.00070831 0 0.000432334 0.376427 0 0 0 0)
(0.161371 0.000340218 0 0.000662395 0.373298 0 0 0 0)
(0.140762 -0.002065 0 0.0034713 0.377162 0 0 0 0)
(0.119441 0.00059114 0 0.00398876 0.367241 0 0 0 0)
(0.0967369 -0.000361858 0 0.00698266 0.378364 0 0 0 0)
(0.0825382 0.0185674 0 0.012283 0.365778 0 0 0 0)
(2.33699 0.0250948 0 0.0261383 0.432787 0 0 0 0)
(2.29572 0.00231612 0 0.0375312 0.429945 0 0 0 0)
(2.46226 1.00029 0 -4.5394 0.0349206 0 0 0 0)
(2.76001 1.34097 0 -3.0066 0.443789 0 0 0 0)
(0.200474 0.0957996 0 -1.98122 0.565794 0 0 0 0)
(-0.211917 -0.552549 0 -0.803426 0.594214 0 0 0 0)
(-0.294142 -0.444605 0 -0.39044 0.573028 0 0 0 0)
(-0.293784 -0.181794 0 -0.154247 0.49689 0 0 0 0)
(-0.133823 -0.0628045 0 -0.0726429 0.443405 0 0 0 0)
(-0.0122537 -0.0283596 0 -0.0416444 0.417781 0 0 0 0)
(0.0369263 -0.0154671 0 -0.0320768 0.400516 0 0 0 0)
(0.0799997 -0.00909345 0 -0.0218835 0.393332 0 0 0 0)
(0.124639 -0.00543601 0 -0.0163899 0.387898 0 0 0 0)
(0.172595 -0.00271717 0 -0.0139942 0.385522 0 0 0 0)
(0.219637 -0.0023909 0 -0.0121522 0.383298 0 0 0 0)
(0.262536 -0.00199403 0 -0.0106189 0.381589 0 0 0 0)
(0.298302 -0.001711 0 -0.00906064 0.380082 0 0 0 0)
(0.325616 -0.00149267 0 -0.00742082 0.378816 0 0 0 0)
(0.344753 -0.00116499 0 -0.00574953 0.377671 0 0 0 0)
(0.357037 -0.00122807 0 -0.0040841 0.376937 0 0 0 0)
(0.363728 0.000406111 0 -0.00240501 0.375684 0 0 0 0)
(0.366565 0.000823649 0 -0.00101759 0.377675 0 0 0 0)
(0.368447 -0.00166214 0 0.000424264 0.377105 0 0 0 0)
(0.36983 -0.000776517 0 0.00179935 0.374928 0 0 0 0)
(0.367787 0.000565771 0 0.00315825 0.375804 0 0 0 0)
(0.361161 0.000179579 0 0.00445499 0.375853 0 0 0 0)
(0.349889 0.000190653 0 0.00567026 0.376087 0 0 0 0)
(0.332504 3.00188e-05 0 0.00680327 0.376147 0 0 0 0)
(0.30825 -0.000122101 0 0.00784608 0.376101 0 0 0 0)
(0.278376 -0.00030081 0 0.008832 0.375897 0 0 0 0)
(0.246254 -0.000453349 0 0.00977469 0.375556 0 0 0 0)
(0.216972 -0.00047667 0 0.0106846 0.375069 0 0 0 0)
(0.195197 -0.000663756 0 0.0116253 0.374702 0 0 0 0)
(0.182181 -0.000136036 0 0.0123857 0.373754 0 0 0 0)
(0.174041 -0.00163661 0 0.013524 0.374428 0 0 0 0)
(0.163542 0.000239227 0 0.0129917 0.370823 0 0 0 0)
(0.143001 -0.00388879 0 0.0160168 0.374029 0 0 0 0)
(0.121797 0.000474711 0 0.0159766 0.366017 0 0 0 0)
(0.100634 -0.00108436 0 0.0188393 0.37349 0 0 0 0)
(0.088541 0.0348412 0 0.0238288 0.364892 0 0 0 0)
(2.3548 0.0346178 0 0.0401622 0.414398 0 0 0 0)
(2.30975 -0.00785777 0 0.0044863 0.40273 0 0 0 0)
(2.28847 1.00249 0 -0.702931 0.581751 0 0 0 0)
(2.74579 1.21339 0 -1.07096 0.390835 0 0 0 0)
(0.696438 -0.00112791 0 -0.92571 0.240393 0 0 0 0)
(0.210182 -0.501873 0 -0.550282 0.291821 0 0 0 0)
(-0.0714437 -0.429131 0 -0.368762 0.415008 0 0 0 0)
(-0.109782 -0.201643 0 -0.178854 0.440997 0 0 0 0)
(-0.0681135 -0.0918103 0 -0.0697083 0.422994 0 0 0 0)
(0.0101135 -0.0472003 0 -0.0379327 0.406298 0 0 0 0)
(0.046336 -0.0261752 0 -0.0209406 0.394818 0 0 0 0)
(0.0880085 -0.0147158 0 -0.0106237 0.388161 0 0 0 0)
(0.127562 -0.00885476 0 -0.00530894 0.384881 0 0 0 0)
(0.173435 -0.00495449 0 -0.00366259 0.382327 0 0 0 0)
(0.219852 -0.0042562 0 -0.00299508 0.380115 0 0 0 0)
(0.262618 -0.00349687 0 -0.0027462 0.378492 0 0 0 0)
(0.298475 -0.00300179 0 -0.00240729 0.377056 0 0 0 0)
(0.325871 -0.00261012 0 -0.00197353 0.375895 0 0 0 0)
(0.345033 -0.00203382 0 -0.00150809 0.374834 0 0 0 0)
(0.357331 -0.0021553 0 -0.0010581 0.374172 0 0 0 0)
(0.363861 0.000791842 0 -0.000588045 0.372984 0 0 0 0)
(0.366563 0.00152904 0 -0.000547404 0.375068 0 0 0 0)
(0.36844 -0.00298579 0 -0.000395832 0.374518 0 0 0 0)
(0.369759 -0.00141245 0 -0.000336267 0.372296 0 0 0 0)
(0.367644 0.00100054 0 -0.000291889 0.37315 0 0 0 0)
(0.36089 0.000301114 0 -0.000352847 0.373168 0 0 0 0)
(0.349466 0.000313793 0 -0.000548858 0.373375 0 0 0 0)
(0.331904 1.35764e-05 0 -0.000917519 0.373372 0 0 0 0)
(0.30748 -0.000267206 0 -0.0014129 0.373279 0 0 0 0)
(0.277472 -0.000581632 0 -0.00209536 0.372973 0 0 0 0)
(0.245228 -0.000872736 0 -0.00283019 0.372541 0 0 0 0)
(0.215913 -0.000895958 0 -0.00357058 0.371916 0 0 0 0)
(0.194032 -0.00132651 0 -0.00424969 0.371517 0 0 0 0)
(0.181167 -0.000233141 0 -0.00532053 0.370107 0 0 0 0)
(0.172228 -0.00303485 0 -0.00518324 0.370976 0 0 0 0)
(0.162609 9.76202e-06 0 -0.00785089 0.366903 0 0 0 0)
(0.142437 -0.00571849 0 -0.00569221 0.369496 0 0 0 0)
(0.120898 0.000133829 0 -0.00684915 0.364241 0 0 0 0)
(0.102214 -0.00105831 0 -0.00522959 0.368573 0 0 0 0)
(0.0998668 0.0492617 0 -0.00206996 0.364617 0 0 0 0)
(2.3088 0.0564502 0 0.0266574 0.393011 0 0 0 0)
(2.25382 -0.00347248 0 -0.0751855 0.410466 0 0 0 0)
(2.10761 0.816317 0 -0.043291 0.557969 0 0 0 0)
(2.54533 1.01202 0 -0.308482 0.158663 0 0 0 0)
(0.702222 0.00038581 0 -0.374692 0.121958 0 0 0 0)
(0.324779 -0.384284 0 -0.382641 0.165221 0 0 0 0)
(0.06378 -0.300853 0 -0.25383 0.333281 0 0 0 0)
(-0.0056045 -0.174098 0 -0.171516 0.38721 0 0 0 0)
(0.00197365 -0.0962425 0 -0.0779434 0.394893 0 0 0 0)
(0.0347406 -0.0555107 0 -0.0494155 0.389541 0 0 0 0)
(0.0632421 -0.0329441 0 -0.024502 0.386358 0 0 0 0)
(0.0950629 -0.018669 0 -0.0150867 0.381609 0 0 0 0)
(0.131347 -0.0110581 0 -0.00900289 0.379651 0 0 0 0)
(0.174824 -0.00731016 0 -0.00659393 0.37723 0 0 0 0)
(0.22052 -0.00608607 0 -0.00542162 0.375093 0 0 0 0)
(0.263102 -0.00494185 0 -0.00470601 0.373523 0 0 0 0)
(0.299047 -0.00421414 0 -0.00401102 0.372224 0 0 0 0)
(0.326483 -0.00363363 0 -0.00320212 0.37117 0 0 0 0)
(0.345636 -0.00282485 0 -0.00243914 0.370233 0 0 0 0)
(0.357923 -0.00301117 0 -0.00171345 0.36966 0 0 0 0)
(0.36422 0.00126933 0 -0.0009677 0.368541 0 0 0 0)
(0.36675 0.0023022 0 -0.000795064 0.370753 0 0 0 0)
(0.368651 -0.00433271 0 -0.00044284 0.370211 0 0 0 0)
(0.36993 -0.00209479 0 -0.000204295 0.367892 0 0 0 0)
(0.367771 0.00140548 0 4.25951e-05 0.368697 0 0 0 0)
(0.360913 0.000396705 0 0.000181763 0.368662 0 0 0 0)
(0.349345 0.000387154 0 0.000147057 0.368789 0 0 0 0)
(0.331671 -6.22238e-05 0 -4.29512e-07 0.368753 0 0 0 0)
(0.307115 -0.000506797 0 -0.00047184 0.368467 0 0 0 0)
(0.27701 -0.00101237 0 -0.000858912 0.368112 0 0 0 0)
(0.244833 -0.00147123 0 -0.00149935 0.367524 0 0 0 0)
(0.215604 -0.00146361 0 -0.00234206 0.366514 0 0 0 0)
(0.193511 -0.00240677 0 -0.00243877 0.366216 0 0 0 0)
(0.181282 -0.000657278 0 -0.00369949 0.363979 0 0 0 0)
(0.171603 -0.00472488 0 -0.00268712 0.364874 0 0 0 0)
(0.163052 -0.00118716 0 -0.00569048 0.360243 0 0 0 0)
(0.143966 -0.00645359 0 -0.00245466 0.361728 0 0 0 0)
(0.122242 -0.000414071 0 -0.00253343 0.359489 0 0 0 0)
(0.10524 -0.000722308 0 -6.46941e-05 0.360585 0 0 0 0)
(0.119269 0.0583906 0 0.000915918 0.361356 0 0 0 0)
(2.28435 0.0787997 0 0.047708 0.364185 0 0 0 0)
(2.21161 0.00896203 0 -0.0699999 0.373467 0 0 0 0)
(2.03292 0.617704 0 0.0514972 0.505802 0 0 0 0)
(2.42644 0.79323 0 -0.0968385 0.183109 0 0 0 0)
(0.624977 0.00519132 0 -0.184757 0.139228 0 0 0 0)
(0.32665 -0.298235 0 -0.241658 0.196268 0 0 0 0)
(0.132004 -0.215214 0 -0.193047 0.307191 0 0 0 0)
(0.0597089 -0.142271 0 -0.137168 0.351144 0 0 0 0)
(0.0495471 -0.0895642 0 -0.0804409 0.368303 0 0 0 0)
(0.0616116 -0.0554247 0 -0.0499229 0.370313 0 0 0 0)
(0.0794165 -0.0338191 0 -0.0288067 0.372646 0 0 0 0)
(0.102944 -0.0211794 0 -0.0181644 0.370729 0 0 0 0)
(0.135746 -0.0130742 0 -0.0120276 0.369431 0 0 0 0)
(0.176886 -0.00934601 0 -0.00883656 0.367465 0 0 0 0)
(0.221671 -0.00782833 0 -0.00720604 0.365677 0 0 0 0)
(0.263977 -0.00626232 0 -0.00628579 0.364487 0 0 0 0)
(0.299924 -0.00526939 0 -0.00510695 0.363325 0 0 0 0)
(0.327386 -0.00452855 0 -0.00410217 0.362579 0 0 0 0)
(0.346467 -0.00348919 0 -0.0031258 0.361807 0 0 0 0)
(0.358749 -0.00378521 0 -0.00223597 0.361384 0 0 0 0)
(0.364746 0.0018454 0 -0.00130705 0.360345 0 0 0 0)
(0.367069 0.00313771 0 -0.00109214 0.362722 0 0 0 0)
(0.369009 -0.00574306 0 -0.000619301 0.362179 0 0 0 0)
(0.370227 -0.00287121 0 -0.000314663 0.359704 0 0 0 0)
(0.368016 0.00174326 0 -2.5436e-06 0.360435 0 0 0 0)
(0.360991 0.000389861 0 0.000148704 0.360271 0 0 0 0)
(0.349291 0.000401688 0 0.000157764 0.360324 0 0 0 0)
(0.331307 -0.000297064 0 -0.00021439 0.35998 0 0 0 0)
(0.306653 -0.000884918 0 -0.00041029 0.359798 0 0 0 0)
(0.276482 -0.00149019 0 -0.00155243 0.358816 0 0 0 0)
(0.243799 -0.00241301 0 -0.00203249 0.358295 0 0 0 0)
(0.215008 -0.00215593 0 -0.00301245 0.356911 0 0 0 0)
(0.192724 -0.00376914 0 -0.00371238 0.356314 0 0 0 0)
(0.180928 -0.00152653 0 -0.00575458 0.353155 0 0 0 0)
(0.170309 -0.00663519 0 -0.00333985 0.354277 0 0 0 0)
(0.162833 -0.00302217 0 -0.00706584 0.34935 0 0 0 0)
(0.145479 -0.00644516 0 -0.00354743 0.349709 0 0 0 0)
(0.123201 -0.000967382 0 -0.0030158 0.349448 0 0 0 0)
(0.105538 0.000740343 0 0.000403835 0.348582 0 0 0 0)
(0.145902 0.0527311 0 -0.001222 0.353833 0 0 0 0)
(2.24046 0.0681214 0 0.0635134 0.324789 0 0 0 0)
(2.1404 0.00547202 0 -0.0917982 0.342338 0 0 0 0)
(1.96466 0.505359 0 0.0429037 0.40719 0 0 0 0)
(2.31767 0.658779 0 -0.0488592 0.177072 0 0 0 0)
(0.56267 0.0130656 0 -0.121317 0.140759 0 0 0 0)
(0.316791 -0.222429 0 -0.161263 0.207276 0 0 0 0)
(0.16447 -0.151609 0 -0.144119 0.291173 0 0 0 0)
(0.102907 -0.115209 0 -0.108239 0.321375 0 0 0 0)
(0.0860462 -0.0777698 0 -0.0704677 0.340589 0 0 0 0)
(0.0844972 -0.051326 0 -0.0451096 0.347823 0 0 0 0)
(0.0938458 -0.0325436 0 -0.0289489 0.352349 0 0 0 0)
(0.111232 -0.0217665 0 -0.0186969 0.352678 0 0 0 0)
(0.140335 -0.0142037 0 -0.0128491 0.352593 0 0 0 0)
(0.17947 -0.0109282 0 -0.00977345 0.351143 0 0 0 0)
(0.222978 -0.00895512 0 -0.00856776 0.350665 0 0 0 0)
(0.265125 -0.00720789 0 -0.00678504 0.349438 0 0 0 0)
(0.301151 -0.00605336 0 -0.00578341 0.349119 0 0 0 0)
(0.328392 -0.00509645 0 -0.00448361 0.348581 0 0 0 0)
(0.347434 -0.00397643 0 -0.00346091 0.348153 0 0 0 0)
(0.359676 -0.00442076 0 -0.00250235 0.347922 0 0 0 0)
(0.365323 0.00255858 0 -0.0014974 0.346979 0 0 0 0)
(0.367413 0.00406963 0 -0.0013227 0.349573 0 0 0 0)
(0.3694 -0.00724066 0 -0.000796032 0.349033 0 0 0 0)
(0.370524 -0.00377476 0 -0.000518971 0.346347 0 0 0 0)
(0.368218 0.00195214 0 -0.000253404 0.346969 0 0 0 0)
(0.361068 0.000289503 0 -0.000151366 0.346662 0 0 0 0)
(0.348995 0.000106859 0 -0.000356814 0.346381 0 0 0 0)
(0.331124 -0.000569332 0 -0.000522254 0.346131 0 0 0 0)
(0.305826 -0.00162931 0 -0.00184715 0.344844 0 0 0 0)
(0.275447 -0.00246088 0 -0.00168873 0.344714 0 0 0 0)
(0.243426 -0.003307 0 -0.00390429 0.342578 0 0 0 0)
(0.213985 -0.00337175 0 -0.00538211 0.340852 0 0 0 0)
(0.190868 -0.00602604 0 -0.00452285 0.340828 0 0 0 0)
(0.181641 -0.00262071 0 -0.00910083 0.335486 0 0 0 0)
(0.170339 -0.00839165 0 -0.00622531 0.336162 0 0 0 0)
(0.162852 -0.00558912 0 -0.0106821 0.331291 0 0 0 0)
(0.147869 -0.0063591 0 -0.00664612 0.330128 0 0 0 0)
(0.12605 -0.00149966 0 -0.0072617 0.329548 0 0 0 0)
(0.106968 0.00350376 0 -0.00383431 0.325759 0 0 0 0)
(0.180083 0.0354622 0 -0.00765297 0.333681 0 0 0 0)
(2.19707 0.067723 0 0.0672726 0.269425 0 0 0 0)
(2.06195 0.0258735 0 -0.10226 0.30845 0 0 0 0)
(1.94449 0.395954 0 0.0316568 0.392996 0 0 0 0)
(2.26819 0.536488 0 -0.0254168 0.173795 0 0 0 0)
(0.51666 0.0342972 0 -0.0782444 0.147868 0 0 0 0)
(0.304677 -0.153291 0 -0.121293 0.213697 0 0 0 0)
(0.183099 -0.105265 0 -0.117001 0.273526 0 0 0 0)
(0.130682 -0.0946517 0 -0.0867483 0.292571 0 0 0 0)
(0.110381 -0.0640772 0 -0.0622293 0.311125 0 0 0 0)
(0.101621 -0.0440925 0 -0.0414444 0.320058 0 0 0 0)
(0.104869 -0.0291409 0 -0.0277481 0.325777 0 0 0 0)
(0.118458 -0.0209436 0 -0.0180528 0.326831 0 0 0 0)
(0.144344 -0.0145538 0 -0.0130324 0.327616 0 0 0 0)
(0.181012 -0.0112043 0 -0.0110582 0.328172 0 0 0 0)
(0.224551 -0.00947112 0 -0.00807608 0.326798 0 0 0 0)
(0.26666 -0.00775207 0 -0.00749563 0.327724 0 0 0 0)
(0.302142 -0.00609542 0 -0.00567695 0.327233 0 0 0 0)
(0.329624 -0.00545943 0 -0.00455028 0.32747 0 0 0 0)
(0.348377 -0.00412415 0 -0.00349385 0.327305 0 0 0 0)
(0.360641 -0.00491695 0 -0.00258511 0.327352 0 0 0 0)
(0.365883 0.0034362 0 -0.00161091 0.32649 0 0 0 0)
(0.367744 0.00511779 0 -0.00153484 0.329333 0 0 0 0)
(0.369784 -0.00885107 0 -0.00100322 0.328803 0 0 0 0)
(0.37075 -0.00486088 0 -0.000827663 0.32585 0 0 0 0)
(0.36837 0.0020468 0 -0.000678883 0.326359 0 0 0 0)
(0.360891 -0.000175949 0 -0.000750519 0.325785 0 0 0 0)
(0.348933 -0.000110041 0 -0.00101953 0.325402 0 0 0 0)
(0.329871 -0.00177849 0 -0.00191882 0.324191 0 0 0 0)
(0.305529 -0.00225029 0 -0.00192035 0.324156 0 0 0 0)
(0.2745 -0.00367426 0 -0.00516757 0.320398 0 0 0 0)
(0.240239 -0.00613519 0 -0.00359775 0.321809 0 0 0 0)
(0.214411 -0.00384237 0 -0.00834769 0.316401 0 0 0 0)