/*--------------------------------*- C++ -*----------------------------------*\
| =========                 |                                                 |
| \\      /  F ield         | OpenFOAM: The Open Source CFD Toolbox           |
|  \\    /   O peration     | Version:  v1912                                 |
|   \\  /    A nd           | Website:  www.openfoam.com                      |
|    \\/     M anipulation  |                                                 |
\*---------------------------------------------------------------------------*/
FoamFile
{
    version     2.0;
    format      ascii;
    class       volVectorField;
    location    "3.44";
    object      grad(rho);
}
// * * * * * * * * * * * * * * * * * * * * * * * * * * * * * * * * * * * * * //

dimensions      [1 -4 0 0 0 0 0];


internalField   nonuniform List<vector> 
1900
(
(84039.1 0.132615 0)
(-61055.9 0.652298 0)
(-7162.82 0.388416 0)
(42.4276 0.888097 0)
(154.072 0.408188 0)
(82.8752 -8.35424 0)
(-140.048 -5.0165 0)
(-584.283 -105.251 0)
(-776.096 -237.181 0)
(-1879.12 -589.585 0)
(84039.9 0.418858 0)
(-61055.7 1.11883 0)
(-7162.59 0.282441 0)
(42.4474 -0.596251 0)
(144.83 -4.51794 0)
(77.4505 -21.4939 0)
(-236.945 -23.1987 0)
(-816.448 -130.504 0)
(-1260.43 -174.61 0)
(-1669.42 -557.788 0)
(84040.7 -1.35003e-09 0)
(-61056.1 -7.28306e-09 0)
(-7164.54 -1.9007e-09 0)
(37.6272 1.61648e-09 0)
(133.174 2.70006e-09 0)
(64.1945 1.93623e-09 0)
(-249.058 -1.65201e-09 0)
(-735.695 -4.05009e-09 0)
(-1203.38 -3.71259e-09 0)
(-1629.89 -2.62901e-09 0)
(84039.9 -0.418858 0)
(-61055.7 -1.11883 0)
(-7162.59 -0.282441 0)
(42.4474 0.596251 0)
(144.83 4.51794 0)
(77.4505 21.4939 0)
(-236.945 23.1987 0)
(-816.448 130.504 0)
(-1260.43 174.61 0)
(-1669.42 557.788 0)
(84039.1 -0.132615 0)
(-61055.9 -0.652298 0)
(-7162.82 -0.388416 0)
(42.4276 -0.888097 0)
(154.072 -0.408188 0)
(82.8752 8.35424 0)
(-140.048 5.0165 0)
(-584.283 105.251 0)
(-776.096 237.181 0)
(-1879.12 589.585 0)
(-2069.1 -157.382 1.49232e-11)
(-1103.58 -346.791 -1.79427e-11)
(-1917.29 -779.47 -2.25628e-11)
(-12197.7 691.294 0)
(-6698.84 13735.2 -8.68677e-11)
(-1675.05 -62.3563 1.48948e-11)
(-1634.1 -330.206 1.79427e-11)
(-1122.31 -713.526 2.25628e-11)
(-5462.13 66.8685 0)
(-3870.42 11119.2 0)
(-1793.99 -7.40149e-10 0)
(-1866.61 1.40239e-09 0)
(-1872.05 -3.25665e-09 0)
(-6362.36 -2.96059e-09 0)
(1793.38 -1.38514e-08 0)
(-1675.05 62.3563 1.48948e-11)
(-1634.1 330.206 1.79427e-11)
(-1122.31 713.526 2.25628e-11)
(-5462.13 -66.8685 0)
(-3870.42 -11119.2 0)
(-2069.1 157.382 -4.47128e-11)
(-1103.58 346.791 -1.79427e-11)
(-1917.29 779.47 -2.25628e-11)
(-12197.7 -691.294 -6.09586e-11)
(-6698.84 -13735.2 8.68677e-11)
(12383.3 -3268.5 4.36507e-11)
(-912.97 110.485 -3.61217e-11)
(1215.99 797.979 0)
(-1398.66 542.811 2.80204e-11)
(-10793.7 -5054.2 -1.23138e-11)
(7867.2 -3265.42 -2.17761e-11)
(126.296 324.437 1.80625e-11)
(1372.14 621.296 0)
(-3910.3 -469.546 -1.75194e-11)
(-14569.3 -9251.26 2.97075e-12)
(9016.74 -1.03172e-08 0)
(54.7528 -7.21171e-09 0)
(861.764 -4.60537e-10 0)
(-5723.91 -1.7067e-08 7.00211e-12)
(-15806.4 -3.32418e-08 -5.94149e-12)
(7867.2 3265.42 -2.17761e-11)
(126.296 -324.437 1.80625e-11)
(1372.14 -621.296 0)
(-3910.3 469.546 -1.75194e-11)
(-14569.3 9251.26 2.97075e-12)
(12383.3 3268.5 2.17761e-11)
(-912.97 -110.485 -3.32744e-15)
(1215.99 -797.979 0)
(-1398.66 -542.811 1.63477e-14)
(-10793.7 5054.2 1.23138e-11)
(-32623.8 -41874.2 0)
(-24008.1 4792.13 0)
(261.211 4138.45 0)
(-606.454 2102.08 0)
(-1986.04 1126.32 0)
(-1812.68 473.123 0)
(-920.736 182.496 0)
(-39.9225 108.875 0)
(230.074 104.809 0)
(360.347 67.2592 0)
(445.596 56.7166 0)
(415.29 45.5217 0)
(330.452 40.9131 0)
(224.137 37.5563 0)
(132.874 34.7837 0)
(66.7307 32.3877 0)
(24.8891 30.4457 0)
(4.65306 29.082 0)
(-18.1274 28.1839 0)
(-44.7913 27.745 0)
(-60.5706 27.4259 0)
(-89.2416 27.1628 0)
(-135.594 27.1989 0)
(-197.695 27.463 0)
(-290.145 27.949 0)
(-415.574 28.7163 0)
(-569.945 29.7282 0)
(-738.271 30.9594 0)
(-892.331 32.3987 0)
(-1003.73 33.8902 0)
(-1057.66 35.2851 0)
(-1060.83 35.3638 0)
(-1009.48 34.2224 0)
(-902.737 31.3702 0)
(-710.198 27.1797 0)
(-540.279 36.0596 0)
(-381.915 28.1818 0)
(3257.22 59.7791 0)
(125581 393.811 0)
(-146986 -561.249 0)
(-31016.6 -13062.3 0)
(-20851 7172.8 0)
(-8.44928 3787.85 0)
(-1128.54 1143.9 0)
(-2133.11 547.266 0)
(-1905.1 214.928 0)
(-952.999 77.6756 0)
(-45.7359 39.8529 0)
(227.072 47.3685 0)
(356.356 25.2286 0)
(444.16 22.1446 0)
(414.019 16.4989 0)
(329.96 14.2138 0)
(223.815 12.7321 0)
(132.618 11.6277 0)
(66.5234 10.7766 0)
(24.7372 10.1439 0)
(4.5566 9.74566 0)
(-18.1826 9.50942 0)
(-44.8376 9.39194 0)
(-60.6371 9.26069 0)
(-89.311 9.10308 0)
(-135.652 9.0141 0)
(-197.745 8.99423 0)
(-290.177 9.07824 0)
(-415.58 9.33145 0)
(-569.913 9.81117 0)
(-738.195 10.5912 0)
(-892.21 11.7216 0)
(-1003.57 13.2533 0)
(-1057.6 15.1549 0)
(-1060.96 17.0082 0)
(-1009.81 18.9008 0)
(-903.341 20.9058 0)
(-709.536 23.127 0)
(-540.155 32.758 0)
(-379.146 35.0667 0)
(3288.94 58.0387 0)
(125875 183.995 0)
(-147307 7201.13 0)
(-28250.5 -3.81109e-09 0)
(-19106.3 8.17124e-09 0)
(-1492.65 1.22084e-08 0)
(-1549.17 1.03998e-08 0)
(-2256.29 -1.00445e-08 0)
(-1949.29 -1.95399e-08 0)
(-971.666 1.62133e-08 0)
(-48.7391 2.00244e-09 0)
(225.819 1.7053e-08 0)
(353.009 6.89549e-08 0)
(443.057 1.12104e-07 0)
(412.983 4.83815e-08 0)
(329.356 -1.21051e-07 0)
(223.385 -2.97588e-07 0)
(132.305 -3.16418e-07 0)
(66.299 -1.32742e-07 0)
(24.5892 1.80801e-07 0)
(4.46849 3.90928e-07 0)
(-18.2303 2.22141e-07 0)
(-44.8637 -8.89147e-08 0)
(-60.6546 -2.33833e-07 0)
(-89.3133 -1.96174e-07 0)
(-135.626 -2.98299e-07 0)
(-197.677 -3.81949e-07 0)
(-290.047 -2.29085e-07 0)
(-415.361 -4.53132e-08 0)
(-569.579 1.47179e-07 0)
(-737.715 2.75206e-07 0)
(-891.556 2.17458e-07 0)
(-1002.73 2.15747e-08 0)
(-1056.57 -3.08602e-07 0)
(-1059.74 -5.8426e-07 0)
(-1008.34 -8.76858e-07 0)
(-901.508 -1.07741e-06 0)
(-706.75 -8.84577e-07 0)
(-536.806 -6.27797e-07 0)
(-374.561 3.7008e-07 0)
(3300.55 4.46253e-07 0)
(127659 -1.25643e-06 0)
(-149204 -1.33357e-05 0)
(-31016.6 13062.3 0)
(-20851 -7172.8 0)
(-8.44928 -3787.85 0)
(-1128.54 -1143.9 0)
(-2133.11 -547.266 0)
(-1905.1 -214.928 0)
(-952.999 -77.6756 0)
(-45.7359 -39.8529 0)
(227.072 -47.3685 0)
(356.356 -25.2286 0)
(444.16 -22.1446 0)
(414.019 -16.4989 0)
(329.96 -14.2138 0)
(223.815 -12.7321 0)
(132.618 -11.6277 0)
(66.5234 -10.7766 0)
(24.7372 -10.1439 0)
(4.5566 -9.74566 0)
(-18.1826 -9.50942 0)
(-44.8376 -9.39194 0)
(-60.6371 -9.26069 0)
(-89.311 -9.10308 0)
(-135.652 -9.0141 0)
(-197.745 -8.99423 0)
(-290.177 -9.07824 0)
(-415.58 -9.33145 0)
(-569.913 -9.81117 0)
(-738.195 -10.5912 0)
(-892.21 -11.7216 0)
(-1003.57 -13.2533 0)
(-1057.6 -15.1549 0)
(-1060.96 -17.0082 0)
(-1009.81 -18.9008 0)
(-903.341 -20.9058 0)
(-709.536 -23.127 0)
(-540.155 -32.758 0)
(-379.146 -35.0667 0)
(3288.94 -58.0387 0)
(125875 -183.995 0)
(-147307 -7201.13 0)
(-32623.8 41874.2 0)
(-24008.1 -4792.13 0)
(261.211 -4138.45 0)
(-606.454 -2102.08 0)
(-1986.04 -1126.32 0)
(-1812.68 -473.123 0)
(-920.736 -182.496 0)
(-39.9225 -108.875 0)
(230.074 -104.809 0)
(360.347 -67.2592 0)
(445.596 -56.7166 0)
(415.29 -45.5217 0)
(330.452 -40.9131 0)
(224.137 -37.5563 0)
(132.874 -34.7837 0)
(66.7307 -32.3877 0)
(24.8891 -30.4457 0)
(4.65306 -29.082 0)
(-18.1274 -28.1839 0)
(-44.7913 -27.745 0)
(-60.5706 -27.4259 0)
(-89.2416 -27.1628 0)
(-135.594 -27.1989 0)
(-197.695 -27.463 0)
(-290.145 -27.949 0)
(-415.574 -28.7163 0)
(-569.945 -29.7282 0)
(-738.271 -30.9594 0)
(-892.331 -32.3987 0)
(-1003.73 -33.8902 0)
(-1057.66 -35.2851 0)
(-1060.83 -35.3638 0)
(-1009.48 -34.2224 0)
(-902.737 -31.3702 0)
(-710.198 -27.1797 0)
(-540.279 -36.0596 0)
(-381.915 -28.1818 0)
(3257.22 -59.7791 0)
(125581 -393.811 0)
(-146986 561.249 0)
(76665.7 52778.4 0)
(-46063.1 -6165.87 0)
(1367.15 -3636.5 0)
(157.219 -3055.53 0)
(-1281.36 -1761.71 0)
(-1419.92 -906.073 0)
(-761.821 -366.464 0)
(-3.72647 -236.111 0)
(249.706 -206.319 0)
(381.908 -146.451 0)
(456.134 -117.624 0)
(422.463 -97.6891 0)
(334.388 -87.7108 0)
(227.287 -80.2198 0)
(135.565 -73.9329 0)
(69.0048 -68.5035 0)
(26.6351 -64.1265 0)
(5.8638 -61.0344 0)
(-17.4077 -58.962 0)
(-44.4158 -57.9128 0)
(-60.3488 -57.2943 0)
(-89.2489 -56.9489 0)
(-135.907 -57.311 0)
(-198.272 -58.2468 0)
(-291.001 -59.7638 0)
(-416.702 -61.9307 0)
(-571.283 -64.8116 0)
(-739.781 -68.2154 0)
(-893.908 -72.1749 0)
(-1005.21 -76.5155 0)
(-1058.46 -80.5742 0)
(-1060.44 -82.6258 0)
(-1007.69 -81.4624 0)
(-899.622 -78.2773 0)
(-711.713 -73.1458 0)
(-540.64 -84.6521 0)
(-390.822 -82.3822 0)
(3096.26 -117.429 0)
(126604 -667.5 0)
(-147880 -1857.85 0)
(89630.8 28570.5 0)
(-66545 -3910.47 0)
(2665.41 -2857.52 0)
(790.658 -2732.54 0)
(-292.619 -1877.25 0)
(-678.78 -1181.79 0)
(-360.351 -562.945 0)
(94.9896 -390.949 0)
(305.945 -314.597 0)
(434.254 -233.094 0)
(486.935 -193.412 0)
(440.269 -164.525 0)
(345.175 -148.55 0)
(235.725 -136.218 0)
(142.721 -126.015 0)
(74.9611 -117.13 0)
(31.1504 -110.175 0)
(8.9805 -105.281 0)
(-15.5052 -102.057 0)
(-43.3856 -100.419 0)
(-59.7607 -99.45 0)
(-89.2537 -98.9365 0)
(-136.676 -99.5518 0)
(-199.75 -101.111 0)
(-293.236 -103.505 0)
(-419.834 -107.184 0)
(-575.284 -111.676 0)
(-744.557 -117.412 0)
(-899.483 -124.136 0)
(-1011.03 -131.23 0)
(-1063.12 -138.021 0)
(-1061.89 -142.15 0)
(-1006.24 -140.137 0)
(-896.394 -136.54 0)
(-715.528 -131.95 0)
(-548.986 -146.302 0)
(-408.724 -153.464 0)
(2779.7 -180.933 0)
(123356 -970.851 0)
(-144073 -6860.9 0)
(96813.8 17532.7 0)
(-76348.3 -1384.37 0)
(2502.25 -2031.72 0)
(1101.84 -2066.67 0)
(212.996 -1678.95 0)
(-153.407 -1181.24 0)
(0.261423 -724.565 0)
(235.591 -529.616 0)
(401.821 -425.179 0)
(498.687 -334.047 0)
(522.21 -287.806 0)
(465.693 -251.243 0)
(361.666 -228.508 0)
(249.003 -210.207 0)
(153.959 -194.557 0)
(84.2692 -181.677 0)
(38.0532 -171.503 0)
(13.6865 -164.538 0)
(-12.7224 -160.014 0)
(-41.9038 -157.74 0)
(-58.9204 -156.385 0)
(-89.347 -155.731 0)
(-138.002 -156.772 0)
(-202.082 -159.107 0)
(-296.853 -162.946 0)
(-424.576 -167.851 0)
(-581.139 -175.33 0)
(-751.788 -182.97 0)
(-907.224 -192.576 0)
(-1018.59 -203.521 0)
(-1068.99 -211.952 0)
(-1062.48 -216.972 0)
(-1002.29 -213.462 0)
(-891.733 -209.812 0)
(-721.121 -207.976 0)
(-561.372 -226.98 0)
(-424.194 -240.154 0)
(2308.6 -263.375 0)
(120167 -1366.41 0)
(-140162 -8855.31 0)
(104950 4149.32 0)
(-85398 -914.466 0)
(2007.92 -1661.31 0)
(1130.6 -1701.66 0)
(560.607 -1510.67 0)
(240.898 -1124.97 0)
(267.581 -830.934 0)
(383.488 -643.551 0)
(494.403 -536.721 0)
(566.632 -452.352 0)
(566.727 -397.824 0)
(497.41 -356.522 0)
(384.719 -327.175 0)
(268.442 -300.704 0)
(170.214 -280.281 0)
(97.1761 -261.926 0)
(47.6659 -248.636 0)
(20.0524 -239.328 0)
(-8.95442 -233.492 0)
(-39.8893 -230.534 0)
(-57.8245 -228.808 0)
(-89.6265 -228.163 0)
(-139.93 -229.778 0)
(-205.699 -233.392 0)
(-301.662 -238.25 0)
(-431.768 -246.89 0)
(-589.853 -254.352 0)
(-761.176 -268.389 0)
(-919.287 -280.038 0)
(-1029.7 -294.797 0)
(-1076.08 -306.066 0)
(-1063.35 -313.797 0)
(-999.341 -308.241 0)
(-891.108 -307.112 0)
(-732.072 -310.58 0)
(-579.994 -336.67 0)
(-443.796 -354.08 0)
(1694.4 -380.115 0)
(115076 -1706.5 0)
(-134033 -11936.9 0)
(99884.2 -6147.2 0)
(-81947.7 -992.32 0)
(1743.68 -1577.92 0)
(1247 -1500.19 0)
(768.719 -1388.39 0)
(501.612 -1137.31 0)
(464.17 -930.28 0)
(519.105 -775.501 0)
(586.068 -670.629 0)
(632.533 -594.487 0)
(614.554 -538.356 0)
(533.773 -494.131 0)
(415.454 -454.374 0)
(294.192 -424.471 0)
(191.326 -394.175 0)
(114.763 -372.262 0)
(59.8298 -354.671 0)
(28.2801 -343.011 0)
(-4.24834 -335.819 0)
(-37.3899 -332.14 0)
(-56.636 -330.108 0)
(-90.2821 -329.739 0)
(-143.041 -332.312 0)
(-210.246 -337.158 0)
(-309.86 -345.182 0)
(-440.093 -353.385 0)
(-601.856 -370.211 0)
(-776.539 -380.579 0)
(-932.672 -401.235 0)
(-1043.67 -422.458 0)
(-1087.29 -432.392 0)
(-1064.58 -444.715 0)
(-995.844 -440.327 0)
(-893.986 -448.587 0)
(-749.604 -456.919 0)
(-603.29 -500.692 0)
(-466.059 -525.298 0)
(1005.36 -563.898 0)
(109031 -1911.32 0)
(-126721 -14192.3 0)
(97606.1 -3707.21 0)
(-80994.8 -994.172 0)
(1518.52 -1407.81 0)
(1313.23 -1391.44 0)
(910.292 -1306.2 0)
(682.351 -1173.06 0)
(616.234 -1032.83 0)
(633.698 -915.929 0)
(668.835 -830.47 0)
(694.094 -767.992 0)
(663.434 -714.752 0)
(578.338 -666.618 0)
(451.846 -624.634 0)
(326.452 -581.199 0)
(220.525 -548.343 0)
(135.243 -519.075 0)
(75.8534 -498.098 0)
(38.2188 -483.717 0)
(1.52157 -475.266 0)
(-34.386 -470.778 0)
(-55.511 -468.511 0)
(-91.7499 -468.792 0)
(-147.079 -472.516 0)
(-218.101 -479.326 0)
(-317.299 -488.78 0)
(-455.887 -503.667 0)
(-616.058 -516.314 0)
(-791.072 -540.28 0)
(-959.643 -558.043 0)
(-1059.72 -586.099 0)
(-1097.53 -599.812 0)
(-1071 -613.644 0)
(-1003.07 -608.089 0)
(-907.097 -623.408 0)
(-782.282 -642.051 0)
(-645.886 -690.625 0)
(-504.703 -736.506 0)
(358.775 -768.249 0)
(101943 -1862.7 0)
(-118142 -15746.2 0)
(95102.8 -5894.96 0)
(-79731.9 -1044.64 0)
(1360.86 -1336.97 0)
(1344.91 -1424.52 0)
(979.162 -1367.22 0)
(765.045 -1287.75 0)
(711.947 -1184.41 0)
(714.106 -1093.21 0)
(728.626 -1027.84 0)
(744.043 -977.688 0)
(712.242 -928.536 0)
(620.614 -878.374 0)
(497.767 -824.164 0)
(367.708 -775.448 0)
(251.192 -733.896 0)
(163.18 -699.607 0)
(93.9019 -675.314 0)
(50.2826 -658.232 0)
(8.21989 -648.797 0)
(-30.8812 -643.453 0)
(-54.7226 -641.063 0)
(-94.1411 -642.376 0)
(-153.191 -647.304 0)
(-225.918 -656.297 0)
(-333.317 -668.109 0)
(-466.626 -686.012 0)
(-637.138 -704.735 0)
(-816.751 -732.414 0)
(-976.825 -758.354 0)
(-1083.92 -794.469 0)
(-1113.84 -808.665 0)
(-1072.55 -828.139 0)
(-1005.25 -829.967 0)
(-926.713 -844.077 0)
(-814.377 -873.93 0)
(-694.31 -917.35 0)
(-540.86 -981.679 0)
(-79.885 -1001.92 0)
(94597.2 -1608.75 0)
(-109314 -16678 0)
(90572.2 -8500.17 0)
(-76602.6 -1119.01 0)
(1152.46 -1319.47 0)
(1284.08 -1472.39 0)
(1042.08 -1453.81 0)
(858.507 -1380.14 0)
(803.701 -1291.38 0)
(784.581 -1231.11 0)
(780.161 -1192.64 0)
(789.784 -1165.24 0)
(759.137 -1128.2 0)
(678.915 -1082.84 0)
(551.029 -1023.33 0)
(413.437 -975.879 0)
(293.607 -925.345 0)
(191.695 -890.503 0)
(115.724 -862.491 0)
(63.7721 -843.885 0)
(15.7635 -833.623 0)
(-26.9329 -827.475 0)
(-54.4737 -825.139 0)
(-97.7643 -827.628 0)
(-160.493 -833.861 0)
(-238.15 -843.86 0)
(-345.934 -859.889 0)
(-491.18 -875.783 0)
(-660.772 -905.759 0)
(-842.742 -927.414 0)
(-1019.44 -959.058 0)
(-1108.2 -991.475 0)
(-1129.97 -1000.61 0)
(-1091.52 -1009.5 0)
(-1018.43 -1011.1 0)
(-949.461 -1014.2 0)
(-852.891 -1037.59 0)
(-749.716 -1074.03 0)
(-586.194 -1123.59 0)
(-245.489 -1154.46 0)
(86837.4 -1347.92 0)
(-100034 -17035.4 0)
(85401.6 -9854.84 0)
(-72812.3 -1150.08 0)
(1020.33 -1278.5 0)
(1215.47 -1408.17 0)
(1068.05 -1436.19 0)
(921.567 -1406.65 0)
(855.562 -1351.83 0)
(809.25 -1331.83 0)
(792.095 -1319.94 0)
(806.139 -1312.54 0)
(791.647 -1289.99 0)
(721.677 -1246.24 0)
(600.84 -1195.21 0)
(462.127 -1134.63 0)
(333.462 -1088.74 0)
(223.748 -1049.31 0)
(138.825 -1021.45 0)
(78.1016 -1002.08 0)
(24.0329 -991.337 0)
(-22.706 -984.712 0)
(-54.8696 -982.76 0)
(-102.546 -985.975 0)
(-168.833 -992.697 0)
(-250.999 -1003.81 0)
(-364.079 -1018.84 0)
(-510.828 -1041.85 0)
(-686.892 -1060.38 0)
(-868.112 -1098.61 0)
(-1038.56 -1114.82 0)
(-1123.96 -1135.74 0)
(-1131.21 -1133.81 0)
(-1082.67 -1123.46 0)
(-1009.77 -1109.22 0)
(-952.238 -1097.42 0)
(-872.034 -1103.24 0)
(-777.179 -1125.37 0)
(-618.368 -1148.53 0)
(-296.06 -1175 0)
(79293.8 -1202.87 0)
(-91085.7 -16775.4 0)
(79550.1 -10835.6 0)
(-68338.1 -1141.13 0)
(903.757 -1218.77 0)
(1132.13 -1317.45 0)
(1043.54 -1372.83 0)
(939.801 -1373.2 0)
(875.802 -1348 0)
(815.303 -1349.27 0)
(798.751 -1349.64 0)
(818.645 -1353.38 0)
(823.027 -1336.84 0)
(770.256 -1306.92 0)
(658.576 -1259.4 0)
(516.032 -1212.53 0)
(375.832 -1173.99 0)
(256.541 -1140.42 0)
(161.236 -1116.67 0)
(92.789 -1099.02 0)
(32.4961 -1088.86 0)
(-18.6682 -1082.48 0)
(-55.6913 -1080.95 0)
(-107.34 -1083.71 0)
(-177.676 -1089.29 0)
(-263.343 -1098.66 0)
(-382.595 -1109.75 0)
(-531.209 -1124.98 0)
(-715.467 -1137.42 0)
(-895.201 -1156.78 0)
(-1055.23 -1166.2 0)
(-1126.5 -1169.16 0)
(-1118.14 -1154.49 0)
(-1067.83 -1133.08 0)
(-993.338 -1111.76 0)
(-943.703 -1092.12 0)
(-879.821 -1087.91 0)
(-793.358 -1104.2 0)
(-634.019 -1117.57 0)
(-297.855 -1134.58 0)
(71804.4 -1137.74 0)
(-82198 -16242.2 0)
(73453.4 -11295.5 0)
(-63545.2 -1074.37 0)
(850.425 -1124.12 0)
(1067.01 -1182.68 0)
(1014.33 -1252.93 0)
(945.496 -1259.96 0)
(878.617 -1265.39 0)
(807.672 -1281.87 0)
(788.137 -1293.23 0)
(818.469 -1308.2 0)
(836.419 -1299.08 0)
(796.302 -1281.57 0)
(691.793 -1242.5 0)
(544.429 -1210.38 0)
(402.958 -1177.97 0)
(278.984 -1154.93 0)
(178.715 -1137.25 0)
(104.901 -1124.64 0)
(39.9705 -1117.08 0)
(-15.0785 -1112.06 0)
(-56.0505 -1110.4 0)
(-110.584 -1111.31 0)
(-183.244 -1113.85 0)
(-270.714 -1117.69 0)
(-389.435 -1122.99 0)
(-537.49 -1126.74 0)
(-717.542 -1133.82 0)
(-895.849 -1137.36 0)
(-1050.49 -1135.93 0)
(-1112.67 -1126.11 0)
(-1096.45 -1104.52 0)
(-1041.5 -1071.55 0)
(-970.3 -1046.03 0)
(-929.255 -1024.47 0)
(-883.672 -1017.78 0)
(-805.753 -1032.01 0)
(-647.645 -1042.56 0)
(-315.499 -1054.86 0)
(64735.5 -1065.85 0)
(-73844.3 -15530.5 0)
(67247.4 -11382.6 0)
(-58536.6 -997.645 0)
(799.385 -1055.52 0)
(1008.01 -1098.1 0)
(969.068 -1157.94 0)
(927.79 -1169.18 0)
(854.695 -1197.55 0)
(788.479 -1218.51 0)
(773.373 -1230.42 0)
(813.003 -1237.7 0)
(848.693 -1231.8 0)
(824.783 -1209.82 0)
(727.175 -1175.44 0)
(578.21 -1146.22 0)
(429.267 -1122.96 0)
(295.776 -1110.05 0)
(190.424 -1100.53 0)
(112.227 -1095.06 0)
(44.6235 -1091.8 0)
(-12.2286 -1089.18 0)
(-54.9756 -1086.94 0)
(-110.662 -1084.78 0)
(-183.823 -1082.59 0)
(-272.152 -1079.23 0)
(-391.317 -1076.47 0)
(-541.644 -1073.06 0)
(-725.696 -1068.78 0)
(-897.24 -1076.27 0)
(-1044.38 -1068.11 0)
(-1096.23 -1062.2 0)
(-1065.56 -1037.39 0)
(-1011.46 -1007.19 0)
(-947.964 -985.335 0)
(-916.481 -969.947 0)
(-887.093 -966.317 0)
(-817.235 -979.675 0)
(-656.037 -989.896 0)
(-320.305 -1000.06 0)
(57855.1 -1011.13 0)
(-65742.4 -14769.3 0)
(61180.3 -11493.7 0)
(-53593.7 -939.925 0)
(753.625 -996.479 0)
(968.308 -1051.84 0)
(945.826 -1092.26 0)
(907.329 -1099.91 0)
(831.078 -1139.41 0)
(775.992 -1151.32 0)
(769.645 -1156.39 0)
(817.139 -1153.3 0)
(863.291 -1139.65 0)
(850.614 -1122.34 0)
(753.079 -1088.51 0)
(595 -1058.63 0)
(437.814 -1035.57 0)
(300.599 -1021.54 0)
(193.157 -1015.28 0)
(113.319 -1012.64 0)
(45.6408 -1012.27 0)
(-10.4032 -1011.35 0)
(-51.81 -1008.58 0)
(-106.386 -1004.15 0)
(-177.899 -998.768 0)
(-264.815 -992.813 0)
(-383.489 -986.924 0)
(-530.085 -987.155 0)
(-720.63 -983.666 0)
(-895.197 -997.284 0)
(-1036.93 -992.04 0)
(-1083.08 -984.281 0)
(-1043.44 -965.725 0)
(-991.33 -946.976 0)
(-934.409 -933.591 0)
(-910.929 -926.632 0)
(-893.046 -929.173 0)
(-828.474 -942.475 0)
(-667.292 -952.886 0)
(-335.959 -961.879 0)
(51467 -973.703 0)
(-58214.2 -14059.9 0)
(54947.3 -11409.2 0)
(-48421.1 -914.283 0)
(691.54 -976.091 0)
(915.715 -1042.09 0)
(922.741 -1081.81 0)
(882.359 -1087.39 0)
(805.163 -1115.71 0)
(772.11 -1115.13 0)
(771.463 -1112.85 0)
(829.138 -1095.44 0)
(878.525 -1071.44 0)
(874.06 -1045.81 0)
(788.565 -995.707 0)
(629.232 -955.298 0)
(465.013 -921.275 0)
(315.329 -899.072 0)
(198.995 -887.262 0)
(115.128 -881.883 0)
(45.8703 -882.369 0)
(-8.68042 -884.005 0)
(-48.0429 -880.718 0)
(-101.202 -873.172 0)
(-172.894 -866.664 0)
(-260.74 -863.656 0)
(-385.866 -864.187 0)
(-538.505 -874.873 0)
(-735.457 -884.855 0)
(-905.309 -912.119 0)
(-1031.85 -926.447 0)
(-1070.87 -929.432 0)
(-1029.62 -923.098 0)
(-980.497 -915.285 0)
(-928.361 -910.918 0)
(-912.225 -912.403 0)
(-902.36 -921.054 0)
(-840.085 -933.402 0)
(-674.736 -943.377 0)
(-340.365 -948.555 0)
(45233.4 -951.814 0)
(-50864.5 -13213.9 0)
(49028.5 -11473.7 0)
(-43539.9 -892.791 0)
(630.464 -954.22 0)
(866.429 -1026.59 0)
(902.172 -1059.98 0)
(874.667 -1068.89 0)
(804.352 -1076.13 0)
(778.749 -1064.91 0)
(788.616 -1054.18 0)
(857.041 -1021.26 0)
(911.117 -980.281 0)
(923.593 -932.081 0)
(840.3 -875.87 0)
(666.726 -823.235 0)
(491.995 -773.755 0)
(333.376 -739.808 0)
(209.722 -715.617 0)
(118.034 -699.218 0)
(43.5961 -690.351 0)
(-8.81244 -686.572 0)
(-41.371 -683.037 0)
(-92.8431 -680.175 0)
(-168.729 -682.311 0)
(-262.428 -690.195 0)
(-394.299 -704.377 0)
(-550.002 -728.558 0)
(-756.522 -757.286 0)
(-935.276 -800.991 0)
(-1053.62 -829.003 0)
(-1079.85 -850.67 0)
(-1029.8 -863.428 0)
(-979.593 -871.19 0)
(-931.632 -880.501 0)
(-920.696 -892.2 0)
(-913.282 -904.309 0)
(-849.986 -913.001 0)
(-681.895 -923.066 0)
(-344.089 -918.907 0)
(39647.7 -913.425 0)
(-44229.9 -12471.6 0)
(42744.3 -10610.8 0)
(-38284.1 -754.974 0)
(562.602 -853.204 0)
(813.802 -945.211 0)
(881.988 -972.257 0)
(866.797 -984.29 0)
(808.996 -982.674 0)
(793.262 -962.868 0)
(813.522 -941.532 0)
(900.349 -904.854 0)
(964.465 -858.284 0)
(974.674 -804.501 0)
(893.453 -736.594 0)
(727.634 -683.953 0)
(545.407 -629.817 0)
(371.353 -596.206 0)
(238.11 -567.903 0)
(139.475 -547.443 0)
(58.0562 -534.98 0)
(-1.63178 -527.663 0)
(-41.8778 -523.827 0)
(-100.503 -524.171 0)
(-182.55 -529.826 0)
(-282.003 -542.889 0)
(-422.834 -561.567 0)
(-589.49 -591.912 0)
(-805.256 -623.352 0)
(-974.418 -672.101 0)
(-1079.72 -711.182 0)
(-1104.04 -740.989 0)
(-1049.39 -760.973 0)
(-996.949 -775.968 0)
(-948.606 -791.126 0)
(-935.167 -805.39 0)
(-922.404 -816.288 0)
(-858.16 -823.586 0)
(-680.428 -825.497 0)
(-331.075 -787.861 0)
(34100.8 -743.006 0)
(-37652 -10907.4 0)
(37929.6 -10143.7 0)
(-34137.2 -382.262 0)
(447.144 -555.375 0)
(751.706 -730.821 0)
(864.514 -792.475 0)
(864.629 -821.274 0)
(824.995 -800.77 0)
(818.396 -769.313 0)
(844.52 -735.025 0)
(937.262 -691.508 0)
(1007.82 -653.089 0)
(1040.86 -608.805 0)
(956.465 -551.139 0)
(769.62 -518.727 0)
(576.551 -475.922 0)
(393.039 -456.027 0)
(256.712 -434.739 0)
(149.76 -415.242 0)
(62.6566 -398.999 0)
(1.93516 -386.292 0)
(-38.0054 -382.767 0)
(-98.6244 -388.962 0)
(-186.767 -399.044 0)
(-293.014 -413.291 0)
(-441.539 -426.944 0)
(-609.541 -450.708 0)
(-833.794 -473.863 0)
(-1019.91 -508.792 0)
(-1120 -533.968 0)
(-1127.83 -554.184 0)
(-1063.51 -573.801 0)
(-1008.65 -584.151 0)
(-959.983 -597.477 0)
(-944.944 -605.462 0)
(-930.816 -612.272 0)
(-858.86 -612.857 0)
(-647.469 -579.112 0)
(-264.598 -472.373 0)
(29896.2 -333.609 0)
(-32881.7 -9660.27 0)
(32921.1 8131.01 0)
(-29044.4 798.151 0)
(226.717 27.6012 0)
(585.323 -247.624 0)
(794.824 -363.538 0)
(858.803 -404.859 0)
(859.067 -395.095 0)
(856.616 -380.71 0)
(888.498 -346.786 0)
(979.305 -320.538 0)
(1044.16 -287.976 0)
(1072.92 -207.447 0)
(980.255 78.0035 0)
(800.115 640.16 0)
(605.827 1441.89 0)
(411.038 2258.95 0)
(277.411 3001.16 0)
(173.915 3555.64 0)
(85.9537 3863.55 0)
(14.0098 3897.9 0)
(-44.4506 3902.32 0)
(-116.188 3875.79 0)
(-205.995 3575.98 0)
(-308.889 3030.84 0)
(-458.89 2305.7 0)
(-634.703 1494.41 0)
(-861.228 729.387 0)
(-1032.34 159.252 0)
(-1123.47 -134.79 0)
(-1142.42 -211.221 0)
(-1078.27 -239.738 0)
(-1019.76 -240.827 0)
(-969.143 -256.208 0)
(-949.424 -260.023 0)
(-929.53 -263.348 0)
(-826.206 -256.35 0)
(-545.052 -189.098 0)
(-94.4987 3.20749 0)
(25247 764.414 0)
(-28396.3 11025.8 0)
(46081.5 548129 0)
(-41945.9 43600 0)
(-560.602 28362.9 0)
(374.789 33264.3 0)
(712.997 37776.3 0)
(834.219 43778.1 0)
(848.266 49854.6 0)
(864.949 56708.2 0)
(902.504 63754.7 0)
(993.934 71458.4 0)
(1116.8 79319.2 0)
(1393.53 87577.2 0)
(1773.25 95725.6 0)
(2083.91 103899 0)
(2136.48 111548 0)
(1895.6 118765 0)
(1506.25 124673 0)
(980.789 129439 0)
(392.463 131892 0)
(39.299 134041 0)
(-59.3111 134050 0)
(-413.093 131888 0)
(-1000.99 129434 0)
(-1517.11 124643 0)
(-1922.09 118741 0)
(-2128.53 111466 0)
(-2120.4 103808 0)
(-1852.67 95582.3 0)
(-1477 87427.6 0)
(-1228.96 79118.9 0)
(-1092.04 71199.8 0)
(-1024.52 63453.8 0)
(-978.482 56276.9 0)
(-951.824 49283.5 0)
(-927.277 43024.2 0)
(-787.31 36781.7 0)
(-397.35 32038.1 0)
(654.241 26800.8 0)
(40518 40688.9 0)
(-43264.5 526651 0)
(598724 -621440 0)
(-529910 -47446.7 0)
(-9733.17 -32989 0)
(9656.37 -37832.5 0)
(10926.3 -42943.6 0)
(12497.9 -49952.6 0)
(13319 -57012.2 0)
(14251.3 -64938.9 0)
(15102.3 -73062.4 0)
(15977.8 -81965.8 0)
(16576.9 -91148.8 0)
(16882.8 -100830 0)
(16708.4 -110630 0)
(16047.2 -120509 0)
(14931.8 -129906 0)
(13059 -138630 0)
(10563 -145759 0)
(7129.71 -151413 0)
(4520.38 -154333 0)
(2094.3 -156633 0)
(-2119.43 -156629 0)
(-4565.01 -154289 0)
(-7187.16 -151340 0)
(-10612.4 -145633 0)
(-13156.6 -138491 0)
(-15025.5 -129644 0)
(-16167.5 -120276 0)
(-16816.6 -110196 0)
(-16988.2 -100391 0)
(-16780.2 -90505 0)
(-16173.7 -81174.9 0)
(-15400 -72085.4 0)
(-14624.1 -63669.2 0)
(-13720.3 -55472 0)
(-12976.7 -48085.4 0)
(-11412.7 -40699.4 0)
(-10163 -35280.4 0)
(8241.7 -30124.5 0)
(506921 -43557.3 0)
(-570362 -593292 0)
(598724 621440 0)
(-529910 47446.7 0)
(-9733.17 32989 0)
(9656.37 37832.5 0)
(10926.3 42943.6 0)
(12497.9 49952.6 0)
(13319 57012.2 0)
(14251.3 64938.9 0)
(15102.3 73062.4 0)
(15977.8 81965.8 0)
(16576.9 91148.8 0)
(16882.8 100830 0)
(16708.4 110630 0)
(16047.2 120509 0)
(14931.8 129906 0)
(13059 138630 0)
(10563 145759 0)
(7129.71 151413 0)
(4520.38 154333 0)
(2094.3 156633 0)
(-2119.43 156629 0)
(-4565.01 154289 0)
(-7187.16 151340 0)
(-10612.4 145633 0)
(-13156.6 138491 0)
(-15025.5 129644 0)
(-16167.5 120276 0)
(-16816.6 110196 0)
(-16988.2 100391 0)
(-16780.2 90505 0)
(-16173.7 81174.9 0)
(-15400 72085.4 0)
(-14624.1 63669.2 0)
(-13720.3 55472 0)
(-12976.7 48085.4 0)
(-11412.7 40699.4 0)
(-10163 35280.4 0)
(8241.7 30124.5 0)
(506921 43557.3 0)
(-570362 593292 0)
(46081.5 -548129 0)
(-41945.9 -43600 0)
(-560.602 -28362.9 0)
(374.789 -33264.3 0)
(712.997 -37776.3 0)
(834.219 -43778.1 0)
(848.266 -49854.6 0)
(864.949 -56708.2 0)
(902.504 -63754.7 0)
(993.934 -71458.4 0)
(1116.8 -79319.2 0)
(1393.53 -87577.2 0)
(1773.25 -95725.6 0)
(2083.91 -103899 0)
(2136.48 -111548 0)
(1895.6 -118765 0)
(1506.25 -124673 0)
(980.789 -129439 0)
(392.463 -131892 0)
(39.299 -134041 0)
(-59.3111 -134050 0)
(-413.093 -131888 0)
(-1000.99 -129434 0)
(-1517.11 -124643 0)
(-1922.09 -118741 0)
(-2128.53 -111466 0)
(-2120.4 -103808 0)
(-1852.67 -95582.3 0)
(-1477 -87427.6 0)
(-1228.96 -79118.9 0)
(-1092.04 -71199.8 0)
(-1024.52 -63453.8 0)
(-978.482 -56276.9 0)
(-951.824 -49283.5 0)
(-927.277 -43024.2 0)
(-787.31 -36781.7 0)
(-397.35 -32038.1 0)
(654.241 -26800.8 0)
(40518 -40688.9 0)
(-43264.5 -526651 0)
(32921.1 -8131.01 0)
(-29044.4 -798.151 0)
(226.717 -27.6012 0)
(585.323 247.624 0)
(794.824 363.538 0)
(858.803 404.859 0)
(859.067 395.095 0)
(856.616 380.71 0)
(888.498 346.786 0)
(979.305 320.538 0)
(1044.16 287.976 0)
(1072.92 207.447 0)
(980.255 -78.0035 0)
(800.115 -640.16 0)
(605.827 -1441.89 0)
(411.038 -2258.95 0)
(277.411 -3001.16 0)
(173.915 -3555.64 0)
(85.9537 -3863.55 0)
(14.0098 -3897.9 0)
(-44.4506 -3902.32 0)
(-116.188 -3875.79 0)
(-205.995 -3575.98 0)
(-308.889 -3030.84 0)
(-458.89 -2305.7 0)
(-634.703 -1494.41 0)
(-861.228 -729.387 0)
(-1032.34 -159.252 0)
(-1123.47 134.79 0)
(-1142.42 211.221 0)
(-1078.27 239.738 0)
(-1019.76 240.827 0)
(-969.143 256.208 0)
(-949.424 260.023 0)
(-929.53 263.348 0)
(-826.206 256.35 0)
(-545.052 189.098 0)
(-94.4987 -3.20749 0)
(25247 -764.414 0)
(-28396.3 -11025.8 0)
(37929.6 10143.7 0)
(-34137.2 382.262 0)
(447.144 555.375 0)
(751.706 730.821 0)
(864.514 792.475 0)
(864.629 821.274 0)
(824.995 800.77 0)
(818.396 769.313 0)
(844.52 735.025 0)
(937.262 691.508 0)
(1007.82 653.089 0)
(1040.86 608.805 0)
(956.465 551.139 0)
(769.62 518.727 0)
(576.551 475.922 0)
(393.039 456.027 0)
(256.712 434.739 0)
(149.76 415.242 0)
(62.6566 398.999 0)
(1.93516 386.292 0)
(-38.0054 382.767 0)
(-98.6244 388.962 0)
(-186.767 399.044 0)
(-293.014 413.291 0)
(-441.539 426.944 0)
(-609.541 450.708 0)
(-833.794 473.863 0)
(-1019.91 508.792 0)
(-1120 533.968 0)
(-1127.83 554.184 0)
(-1063.51 573.801 0)
(-1008.65 584.151 0)
(-959.983 597.477 0)
(-944.944 605.462 0)
(-930.816 612.272 0)
(-858.86 612.857 0)
(-647.469 579.112 0)
(-264.598 472.373 0)
(29896.2 333.609 0)
(-32881.7 9660.27 0)
(42744.3 10610.8 0)
(-38284.1 754.974 0)
(562.602 853.204 0)
(813.802 945.211 0)
(881.988 972.257 0)
(866.797 984.29 0)
(808.996 982.674 0)
(793.262 962.868 0)
(813.522 941.532 0)
(900.349 904.854 0)
(964.465 858.284 0)
(974.674 804.501 0)
(893.453 736.594 0)
(727.634 683.953 0)
(545.407 629.817 0)
(371.353 596.206 0)
(238.11 567.903 0)
(139.475 547.443 0)
(58.0562 534.98 0)
(-1.63178 527.663 0)
(-41.8778 523.827 0)
(-100.503 524.171 0)
(-182.55 529.826 0)
(-282.003 542.889 0)
(-422.834 561.567 0)
(-589.49 591.912 0)
(-805.256 623.352 0)
(-974.418 672.101 0)
(-1079.72 711.182 0)
(-1104.04 740.989 0)
(-1049.39 760.973 0)
(-996.949 775.968 0)
(-948.606 791.126 0)
(-935.167 805.39 0)
(-922.404 816.288 0)
(-858.16 823.586 0)
(-680.428 825.497 0)
(-331.075 787.861 0)
(34100.8 743.006 0)
(-37652 10907.4 0)
(49028.5 11473.7 0)
(-43539.9 892.791 0)
(630.464 954.22 0)
(866.429 1026.59 0)
(902.172 1059.98 0)
(874.667 1068.89 0)
(804.352 1076.13 0)
(778.749 1064.91 0)
(788.616 1054.18 0)
(857.041 1021.26 0)
(911.117 980.281 0)
(923.593 932.081 0)
(840.3 875.87 0)
(666.726 823.235 0)
(491.995 773.755 0)
(333.376 739.808 0)
(209.722 715.617 0)
(118.034 699.218 0)
(43.5961 690.351 0)
(-8.81244 686.572 0)
(-41.371 683.037 0)
(-92.8431 680.175 0)
(-168.729 682.311 0)
(-262.428 690.195 0)
(-394.299 704.377 0)
(-550.002 728.558 0)
(-756.522 757.286 0)
(-935.276 800.991 0)
(-1053.62 829.003 0)
(-1079.85 850.67 0)
(-1029.8 863.428 0)
(-979.593 871.19 0)
(-931.632 880.501 0)
(-920.696 892.2 0)
(-913.282 904.309 0)
(-849.986 913.001 0)
(-681.895 923.066 0)
(-344.089 918.907 0)
(39647.7 913.425 0)
(-44229.9 12471.6 0)
(54947.3 11409.2 0)
(-48421.1 914.283 0)
(691.54 976.091 0)
(915.715 1042.09 0)
(922.741 1081.81 0)
(882.359 1087.39 0)
(805.163 1115.71 0)
(772.11 1115.13 0)
(771.463 1112.85 0)
(829.138 1095.44 0)
(878.525 1071.44 0)
(874.06 1045.81 0)
(788.565 995.707 0)
(629.232 955.298 0)
(465.013 921.275 0)
(315.329 899.072 0)
(198.995 887.262 0)
(115.128 881.883 0)
(45.8703 882.369 0)
(-8.68042 884.005 0)
(-48.0429 880.718 0)
(-101.202 873.172 0)
(-172.894 866.664 0)