/*--------------------------------*- C++ -*----------------------------------*\
| =========                 |                                                 |
| \\      /  F ield         | OpenFOAM: The Open Source CFD Toolbox           |
|  \\    /   O peration     | Version:  v1912                                 |
|   \\  /    A nd           | Website:  www.openfoam.com                      |
|    \\/     M anipulation  |                                                 |
\*---------------------------------------------------------------------------*/
FoamFile
{
    version     2.0;
    format      ascii;
    class       volVectorField;
    location    "2.84";
    object      grad(rho);
}
// * * * * * * * * * * * * * * * * * * * * * * * * * * * * * * * * * * * * * //

dimensions      [1 -4 0 0 0 0 0];


internalField   nonuniform List<vector> 
1900
(
(47333.3 0.147372 0)
(-33800.4 0.173738 0)
(-2663.57 0.443074 0)
(382.007 -0.0890192 0)
(516.7 -0.262341 0)
(605.567 -3.57244 0)
(649.655 -15.0094 0)
(599.96 -66.1748 0)
(633.828 -109.771 0)
(-457.221 -201.326 0)
(47333.6 0.358133 0)
(-33800.1 0.31941 0)
(-2663.84 0.346826 0)
(381.302 -1.64519 0)
(513.217 -4.61716 0)
(590.82 -9.31117 0)
(587.053 -14.1295 0)
(505.199 -40.1959 0)
(498.678 -37.1387 0)
(288.044 -252.342 0)
(47334 1.10134e-09 0)
(-33800.4 -2.96652e-09 0)
(-2665.54 -4.60076e-09 0)
(377.043 -5.32907e-10 0)
(509.034 5.66658e-09 0)
(596.054 -3.01981e-10 0)
(618.77 -9.14824e-09 0)
(576.951 -8.70415e-10 0)
(421.683 6.8745e-09 0)
(58.4616 6.37712e-09 0)
(47333.6 -0.358133 0)
(-33800.1 -0.31941 0)
(-2663.84 -0.346826 0)
(381.302 1.64519 0)
(513.217 4.61716 0)
(590.82 9.31117 0)
(587.053 14.1295 0)
(505.199 40.1959 0)
(498.678 37.1387 0)
(288.044 252.342 0)
(47333.3 -0.147372 0)
(-33800.4 -0.173738 0)
(-2663.57 -0.443074 0)
(382.007 0.0890192 0)
(516.7 0.262341 0)
(605.567 3.57244 0)
(649.655 15.0094 0)
(599.96 66.1748 0)
(633.828 109.771 0)
(-457.221 201.326 0)
(-919.713 500.928 1.50115e-11)
(-724.489 604.443 -1.83048e-11)
(-3743.12 492.201 -2.30334e-11)
(-15948.9 2752.44 0)
(-5614.03 19617.3 -8.61323e-11)
(-19.2681 354.36 1.51021e-11)
(-934.613 252.485 1.83048e-11)
(-2564.19 -135.093 2.30334e-11)
(-7709.85 1034.91 0)
(-2836.39 16084.2 0)
(-119.501 4.79488e-09 0)
(-1051.27 2.92164e-09 0)
(-3058.08 -4.73695e-09 0)
(-7431.22 -3.36431e-10 0)
(6030.7 -1.17366e-08 0)
(-19.2681 -354.36 1.51021e-11)
(-934.613 -252.485 1.83048e-11)
(-2564.19 135.093 2.30334e-11)
(-7709.85 -1034.91 0)
(-2836.39 -16084.2 0)
(-919.713 -500.928 -4.52157e-11)
(-724.489 -604.443 -1.83048e-11)
(-3743.12 -492.201 -2.30334e-11)
(-15948.9 -2752.44 -6.11982e-11)
(-5614.03 -19617.3 8.61323e-11)
(24611.9 -3299.78 4.61864e-11)
(8385.9 -148.907 -4.06514e-11)
(8480.54 1090.22 0)
(7650.07 80.1917 3.37883e-11)
(-6815.45 -8775.15 -1.56768e-11)
(18072.4 -3148.07 -2.30435e-11)
(9546.79 259.536 2.03235e-11)
(8497.27 18.5885 0)
(3392.94 -2417.39 -2.1101e-11)
(-14021.1 -19293.8 3.70786e-12)
(19590.6 -9.77893e-09 0)
(9143.08 -9.79274e-09 0)
(7334.3 -1.38161e-08 0)
(-865.847 -6.37399e-08 8.41128e-12)
(-16857.6 -8.81946e-08 -7.41572e-12)
(18072.4 3148.07 -2.30435e-11)
(9546.79 -259.536 2.03235e-11)
(8497.27 -18.5885 0)
(3392.94 2417.39 -2.1101e-11)
(-14021.1 19293.8 3.70786e-12)
(24611.9 3299.78 2.30435e-11)
(8385.9 148.907 4.48459e-15)
(8480.54 -1090.22 0)
(7650.07 -80.1917 2.41511e-15)
(-6815.45 8775.15 1.56768e-11)
(-42891.1 -65913.3 0)
(-33558.6 6763.72 0)
(-99.5891 5009.19 0)
(-451 2146.66 0)
(-1147.52 1121.77 0)
(-441.646 625.624 0)
(205.205 530.321 0)
(534.807 457.36 0)
(822.948 395.913 0)
(1140.14 369.331 0)
(1389.5 363.178 0)
(1636.52 354.249 0)
(1875.67 346.214 0)
(2075.03 340.725 0)
(2176.67 337.275 0)
(2110.61 334.796 0)
(1837.48 331.985 0)
(1354.58 328.503 0)
(858.286 325.546 0)
(300.42 322.509 0)
(-413.464 322.913 0)
(-971.57 325.756 0)
(-1468.26 328.114 0)
(-1959.59 330.18 0)
(-2255.11 330.837 0)
(-2370.69 330.079 0)
(-2349.98 328.635 0)
(-2259.67 327.556 0)
(-2142.97 327.662 0)
(-2015.2 329.416 0)
(-1877.13 333.148 0)
(-1734.01 339.342 0)
(-1601.47 348.797 0)
(-1494.21 360.477 0)
(-1368.45 371.417 0)
(-1174.16 383.353 0)
(-801.929 375.39 0)
(738.471 432.249 0)
(151719 675.696 0)
(-184008 6654.7 0)
(-40266.5 -27012.5 0)
(-27630 8821.67 0)
(-706.92 4397.59 0)
(-1181.56 1096.79 0)
(-1271.53 525.953 0)
(-493.643 253.518 0)
(192.041 233.198 0)
(522.409 186.073 0)
(817.316 168.445 0)
(1136.74 155.413 0)
(1388.27 151.775 0)
(1634.94 146.661 0)
(1874.36 142.063 0)
(2074.1 138.683 0)
(2175.96 136.155 0)
(2109.9 134.04 0)
(1836.66 131.819 0)
(1353.78 129.494 0)
(857.614 127.683 0)
(300.153 126.234 0)
(-413.111 126.439 0)
(-970.953 127.84 0)
(-1467.64 129.403 0)
(-1959.09 131.111 0)
(-2254.87 132.421 0)
(-2370.67 133.244 0)
(-2349.98 133.902 0)
(-2259.49 134.905 0)
(-2142.46 136.69 0)
(-2014.25 139.542 0)
(-1875.62 143.701 0)
(-1731.79 149.541 0)
(-1598.48 157.481 0)
(-1490.82 167.497 0)
(-1364.8 177.77 0)
(-1172.36 190.606 0)
(-795.19 191.741 0)
(765.294 226.768 0)
(152246 312.316 0)
(-184658 5576.23 0)
(-35541.5 -1.72468e-08 0)
(-24421.1 1.45338e-09 0)
(-2346.83 3.61731e-09 0)
(-1577.3 -1.45338e-09 0)
(-1392.84 -9.26935e-09 0)
(-526.811 2.06703e-09 0)
(185.585 3.45259e-08 0)
(515.97 3.82078e-08 0)
(814.029 2.8454e-08 0)
(1135.29 -6.32706e-08 0)
(1386.96 -1.34648e-07 0)
(1633.69 -1.19307e-07 0)
(1873.35 -2.91645e-08 0)
(2073.31 9.05619e-08 0)
(2175.32 3.9897e-07 0)
(2109.34 1.06094e-06 0)
(1836.16 1.95609e-06 0)
(1353.38 1.89411e-06 0)
(857.338 -8.14573e-07 0)
(300.058 -3.88221e-06 0)
(-412.997 -1.56326e-06 0)
(-970.707 3.46196e-06 0)
(-1467.31 1.83372e-06 0)
(-1958.71 -5.89492e-07 0)
(-2254.49 -8.10535e-07 0)
(-2370.26 -6.04898e-07 0)
(-2349.49 6.03832e-07 0)
(-2258.86 2.26812e-06 0)
(-2141.62 3.82559e-06 0)
(-2013.16 4.62518e-06 0)
(-1874.22 3.99932e-06 0)
(-1730 2.31737e-06 0)
(-1596.24 -1.10457e-07 0)
(-1488.31 -3.39245e-06 0)
(-1361.73 -9.70401e-06 0)
(-1170.09 -1.83981e-05 0)
(-791.409 -2.47196e-05 0)
(773.547 -2.05015e-05 0)
(153275 -2.29476e-05 0)
(-185779 -0.000120517 0)
(-40266.5 27012.5 0)
(-27630 -8821.67 0)
(-706.92 -4397.59 0)
(-1181.56 -1096.79 0)
(-1271.53 -525.953 0)
(-493.643 -253.518 0)
(192.041 -233.198 0)
(522.409 -186.073 0)
(817.316 -168.445 0)
(1136.74 -155.413 0)
(1388.27 -151.775 0)
(1634.94 -146.661 0)
(1874.36 -142.063 0)
(2074.1 -138.683 0)
(2175.96 -136.155 0)
(2109.9 -134.04 0)
(1836.66 -131.819 0)
(1353.78 -129.494 0)
(857.614 -127.683 0)
(300.153 -126.234 0)
(-413.111 -126.439 0)
(-970.953 -127.84 0)
(-1467.64 -129.403 0)
(-1959.09 -131.111 0)
(-2254.87 -132.421 0)
(-2370.67 -133.244 0)
(-2349.98 -133.902 0)
(-2259.49 -134.905 0)
(-2142.46 -136.69 0)
(-2014.25 -139.542 0)
(-1875.62 -143.701 0)
(-1731.79 -149.541 0)
(-1598.48 -157.481 0)
(-1490.82 -167.497 0)
(-1364.8 -177.77 0)
(-1172.36 -190.606 0)
(-795.19 -191.741 0)
(765.294 -226.768 0)
(152246 -312.316 0)
(-184658 -5576.23 0)
(-42891.1 65913.3 0)
(-33558.6 -6763.72 0)
(-99.5891 -5009.19 0)
(-451 -2146.66 0)
(-1147.52 -1121.77 0)
(-441.646 -625.624 0)
(205.205 -530.321 0)
(534.807 -457.36 0)
(822.948 -395.913 0)
(1140.14 -369.331 0)
(1389.5 -363.178 0)
(1636.52 -354.249 0)
(1875.67 -346.214 0)
(2075.03 -340.725 0)
(2176.67 -337.275 0)
(2110.61 -334.796 0)
(1837.48 -331.985 0)
(1354.58 -328.503 0)
(858.286 -325.546 0)
(300.42 -322.509 0)
(-413.464 -322.913 0)
(-971.57 -325.756 0)
(-1468.26 -328.114 0)
(-1959.59 -330.18 0)
(-2255.11 -330.837 0)
(-2370.69 -330.079 0)
(-2349.98 -328.635 0)
(-2259.67 -327.556 0)
(-2142.97 -327.662 0)
(-2015.2 -329.416 0)
(-1877.13 -333.148 0)
(-1734.01 -339.342 0)
(-1601.47 -348.797 0)
(-1494.21 -360.477 0)
(-1368.45 -371.417 0)
(-1174.16 -383.353 0)
(-801.929 -375.39 0)
(738.471 -432.249 0)
(151719 -675.696 0)
(-184008 -6654.7 0)
(106110 71036.5 0)
(-65262.8 -7293.02 0)
(1487.01 -4091.64 0)
(412.201 -3366.37 0)
(-460.798 -1981.93 0)
(-182.767 -1314.91 0)
(282.367 -1056.17 0)
(592.385 -959.82 0)
(866.021 -838.997 0)
(1153.33 -803.152 0)
(1396.29 -788.813 0)
(1643.75 -774.442 0)
(1881.33 -761.934 0)
(2078.62 -753.691 0)
(2178.85 -748.956 0)
(2112.4 -745.67 0)
(1839.67 -741.503 0)
(1356.9 -735.887 0)
(860.598 -730.453 0)
(301.495 -725.576 0)
(-414.74 -726.118 0)
(-973.502 -730.347 0)
(-1469.69 -734.334 0)
(-1960.22 -736.941 0)
(-2254.54 -736.803 0)
(-2369.26 -734.019 0)
(-2348.39 -730.121 0)
(-2258.67 -727.014 0)
(-2143.03 -726.099 0)
(-2016.59 -727.877 0)
(-1880.1 -732.623 0)
(-1739.03 -740.746 0)
(-1608.28 -752.33 0)
(-1501.08 -767.205 0)
(-1374.93 -774.794 0)
(-1172.78 -786.617 0)
(-818.069 -772.256 0)
(607.935 -831.259 0)
(148952 -1196.96 0)
(-180671 -11075.9 0)
(122611 31138.1 0)
(-88954 -4587.26 0)
(2833.49 -3723.13 0)
(1119.12 -3369.6 0)
(461.098 -2552.33 0)
(311.632 -1972.79 0)
(506.006 -1660.9 0)
(713.208 -1514.17 0)
(950.822 -1401.71 0)
(1181.43 -1360.47 0)
(1413.53 -1339.13 0)
(1658.54 -1323.72 0)
(1892.64 -1312.27 0)
(2085.61 -1307.1 0)
(2183.24 -1306.91 0)
(2116.82 -1308.1 0)
(1845.74 -1306.86 0)
(1363.98 -1302.18 0)
(866.983 -1295.86 0)
(304.021 -1290.51 0)
(-417.377 -1291.28 0)
(-978.451 -1295.6 0)
(-1473.84 -1299.62 0)
(-1961.63 -1299.58 0)
(-2252.6 -1294.26 0)
(-2365.03 -1284.09 0)
(-2344.08 -1271.89 0)
(-2256.33 -1260.89 0)
(-2143.76 -1252.99 0)
(-2020.74 -1249.12 0)
(-1887.93 -1249.02 0)
(-1750.31 -1253.26 0)
(-1623.31 -1260.25 0)
(-1512.18 -1271.22 0)
(-1383.68 -1266.86 0)
(-1172.45 -1271.83 0)
(-836.292 -1259.77 0)
(399.212 -1304.45 0)
(143330 -1783.59 0)
(-173604 -14724 0)
(129077 17125.4 0)
(-98856.3 -2293.34 0)
(2660.39 -3142.49 0)
(1540.43 -2988.63 0)
(885.217 -2713.84 0)
(676.246 -2321.75 0)
(724.31 -2097.2 0)
(842.142 -1940.46 0)
(1014.14 -1866.51 0)
(1213.64 -1831.94 0)
(1431.71 -1812.41 0)
(1669.64 -1803.19 0)
(1897.34 -1801.39 0)
(2083.79 -1809.15 0)
(2177.89 -1823.55 0)
(2112.45 -1838.98 0)
(1845.37 -1849.32 0)
(1367.49 -1852.46 0)
(871.851 -1850.12 0)
(305.914 -1846.54 0)
(-419.645 -1847.26 0)
(-981.542 -1849.06 0)
(-1473.53 -1848.36 0)
(-1955.05 -1839.47 0)
(-2239.61 -1821.5 0)
(-2347.7 -1795.53 0)
(-2326.04 -1765.9 0)
(-2240.46 -1736.66 0)
(-2131.69 -1710.85 0)
(-2012.77 -1688.59 0)
(-1884.08 -1670.63 0)
(-1749.85 -1656.68 0)
(-1625.59 -1643.69 0)
(-1507.46 -1633.37 0)
(-1375.52 -1604.45 0)
(-1165.94 -1587.72 0)
(-849.509 -1577.35 0)
(103.164 -1611.53 0)
(136021 -2182.66 0)
(-164268 -17287 0)
(136726 1812.48 0)
(-108485 -1941.81 0)
(2163.48 -2619.48 0)
(1532.19 -2753.76 0)
(1103.72 -2640.92 0)
(905.846 -2413.64 0)
(873.431 -2274.81 0)
(935.514 -2175.16 0)
(1055.4 -2127.88 0)
(1233.56 -2108.56 0)
(1441.23 -2096.97 0)
(1669.15 -2096.71 0)
(1886.89 -2108.7 0)
(2064.26 -2132.95 0)
(2154.49 -2166.03 0)
(2091.99 -2199.47 0)
(1832.74 -2225.11 0)
(1363.21 -2239.26 0)
(872.69 -2243.34 0)
(306.785 -2242.45 0)
(-419.804 -2242.3 0)
(-979.516 -2239.7 0)
(-1464.6 -2231.38 0)
(-1935.75 -2210.76 0)
(-2210.26 -2177.29 0)
(-2311.45 -2132.94 0)
(-2287.35 -2082.87 0)
(-2203.28 -2032.88 0)
(-2097.44 -1984.85 0)
(-1981.98 -1941.68 0)
(-1857.18 -1901.24 0)
(-1724.35 -1865.83 0)
(-1600.84 -1829.41 0)
(-1474.36 -1794.32 0)
(-1339.69 -1741.69 0)
(-1146.34 -1705.12 0)
(-859.235 -1701.04 0)
(-184.082 -1744.6 0)
(128225 -2217.07 0)
(-154254 -18212.6 0)
(128741 -10116.2 0)
(-103127 -1988.74 0)
(1877.97 -2454.58 0)
(1519.77 -2517.6 0)
(1212.96 -2449.44 0)
(1029.05 -2357.11 0)
(954.124 -2285.06 0)
(983.725 -2240.96 0)
(1078.31 -2215.76 0)
(1243.42 -2203.96 0)
(1443.13 -2195.94 0)
(1658.34 -2201.83 0)
(1862.41 -2221.71 0)
(2028.54 -2258.25 0)
(2113.79 -2304.26 0)
(2055.52 -2351.04 0)
(1807.02 -2388.21 0)
(1349.93 -2411.03 0)
(868.776 -2420.37 0)
(306.914 -2421.01 0)
(-416.989 -2419.3 0)
(-971.017 -2412.67 0)
(-1445.65 -2397.32 0)
(-1902.93 -2367.01 0)
(-2164.63 -2321.43 0)
(-2256.73 -2262.82 0)
(-2229.62 -2198.1 0)
(-2145.99 -2131.81 0)
(-2043.8 -2070.22 0)
(-1932.2 -2010.64 0)
(-1810.99 -1958.04 0)
(-1680.64 -1909.56 0)
(-1556.68 -1858.56 0)
(-1422.92 -1810.46 0)
(-1289.56 -1749.29 0)
(-1126.77 -1707.84 0)
(-887.556 -1715.07 0)
(-394.1 -1785.64 0)
(120151 -2049.47 0)
(-143963 -18898.9 0)
(124431 -7596.2 0)
(-101102 -1862.58 0)
(1653.86 -2257.46 0)
(1537.14 -2292.88 0)
(1258.38 -2241.39 0)
(1064.24 -2235.24 0)
(985.357 -2214.2 0)
(1002.29 -2205.17 0)
(1091.05 -2192.79 0)
(1252.66 -2180.84 0)
(1443.29 -2173.75 0)
(1644.31 -2177.19 0)
(1832.52 -2201.8 0)
(1984.72 -2241.05 0)
(2065.08 -2292.6 0)
(2011.1 -2343.81 0)
(1774.94 -2385.06 0)
(1332.22 -2410.48 0)
(863.076 -2421.14 0)
(307.81 -2420.83 0)
(-411.776 -2417.32 0)
(-958.333 -2408.97 0)
(-1420.6 -2390.4 0)
(-1862.62 -2356.5 0)
(-2109.86 -2306.17 0)
(-2192.6 -2242.57 0)
(-2161.1 -2171.23 0)
(-2080.05 -2101.61 0)
(-1980.69 -2032.02 0)
(-1873.88 -1972.79 0)
(-1759.78 -1913.64 0)
(-1628.49 -1863.89 0)
(-1505.34 -1809.79 0)
(-1369.06 -1758.22 0)
(-1240.8 -1700.24 0)
(-1113.36 -1665.88 0)
(-934.21 -1682.01 0)
(-506.321 -1762 0)
(111734 -1876.14 0)
(-133426 -19011.6 0)
(119189 -10182.6 0)
(-97982.5 -1756.29 0)
(1463.32 -2051.84 0)
(1535.25 -2111.12 0)
(1268.51 -2087.46 0)
(1055.25 -2114.68 0)
(983.1 -2122.06 0)
(1004.35 -2132.36 0)
(1101.76 -2124.38 0)
(1261.78 -2110.69 0)
(1446.65 -2097.78 0)
(1631.31 -2104.32 0)
(1800.87 -2124.51 0)
(1941.03 -2166.02 0)
(2014.76 -2215.8 0)
(1966.43 -2266.76 0)
(1742.78 -2306.29 0)
(1315.16 -2329.64 0)
(858.801 -2338.11 0)
(310.595 -2334.97 0)
(-405.558 -2329.89 0)
(-945.073 -2322.25 0)
(-1395.09 -2304.6 0)
(-1821.76 -2272.5 0)
(-2054.85 -2224.23 0)
(-2126.69 -2161.39 0)
(-2093.78 -2093.31 0)
(-2011.85 -2022.35 0)
(-1919.68 -1960.5 0)
(-1818.12 -1897.76 0)
(-1706.04 -1846.27 0)
(-1580.56 -1799.58 0)
(-1454.86 -1744.63 0)
(-1317.36 -1698.09 0)
(-1200.58 -1649.54 0)
(-1109.2 -1624.7 0)
(-980.174 -1643.12 0)
(-581.166 -1713.69 0)
(103529 -1778.29 0)
(-123188 -19004.1 0)
(112448 -11956.6 0)
(-93266.8 -1676.37 0)
(1311.93 -1864.45 0)
(1502.81 -1953.28 0)
(1254.95 -1966.52 0)
(1030.9 -2004.79 0)
(968.318 -2024.42 0)
(1000.07 -2044.54 0)
(1111.94 -2035.64 0)
(1278.3 -2020.84 0)
(1449.43 -2010.75 0)
(1618.55 -2012.37 0)
(1773.06 -2036.99 0)
(1896.74 -2074 0)
(1968 -2123.36 0)
(1923.9 -2170.89 0)
(1714.34 -2207.21 0)
(1301.55 -2226.27 0)
(857.948 -2230.86 0)
(315.728 -2224.17 0)
(-399.521 -2217.91 0)
(-933.96 -2212.38 0)
(-1372.65 -2197.92 0)
(-1785.17 -2170.47 0)
(-2002.79 -2126.33 0)
(-2066.44 -2068.6 0)
(-2027.11 -2002.9 0)
(-1952.07 -1940.37 0)
(-1860.63 -1877.19 0)
(-1763.8 -1825.02 0)
(-1665.17 -1773.07 0)
(-1530.55 -1729.15 0)
(-1407.55 -1679.9 0)
(-1277.43 -1634.82 0)
(-1170.08 -1593.01 0)
(-1107.18 -1574.71 0)
(-1019.97 -1589 0)
(-636.573 -1643.5 0)
(95072.4 -1692.12 0)
(-112745 -18722.5 0)
(105592 -13236.4 0)
(-88257.4 -1614.05 0)
(1196.48 -1741.71 0)
(1436.89 -1836.4 0)
(1218.87 -1883.94 0)
(999.451 -1918.81 0)
(944.804 -1938.14 0)
(993.545 -1953.21 0)
(1124.59 -1945.22 0)
(1285.77 -1926.33 0)
(1454.81 -1918.24 0)
(1606.01 -1922 0)
(1741.48 -1944.04 0)
(1857.8 -1981.16 0)
(1921.4 -2027.1 0)
(1885.64 -2072.1 0)
(1689.42 -2104.48 0)
(1292.37 -2119.12 0)
(860.823 -2119.45 0)
(323.073 -2109.46 0)
(-394.201 -2102.38 0)
(-925.812 -2099.35 0)
(-1354.69 -2088.77 0)
(-1752.78 -2066.13 0)
(-1956.69 -2026.84 0)
(-2007.74 -1973.09 0)
(-1970.21 -1913.27 0)
(-1890.71 -1854.11 0)
(-1808.52 -1798.11 0)
(-1717.79 -1749.88 0)
(-1613.65 -1699.3 0)
(-1490.78 -1665.31 0)
(-1363.95 -1614.4 0)
(-1233.63 -1576.47 0)
(-1142.66 -1542.14 0)
(-1105.33 -1528.7 0)
(-1046.46 -1538.12 0)
(-680.537 -1578.07 0)
(87071.2 -1613.46 0)
(-102866 -18368.2 0)
(97693.3 -14511.3 0)
(-82190.1 -1544.84 0)
(1097.66 -1629.36 0)
(1365.76 -1701.73 0)
(1175.54 -1780.21 0)
(978.667 -1806.68 0)
(935.171 -1821.76 0)
(993.247 -1836.19 0)
(1137.84 -1823.01 0)
(1304.3 -1819.75 0)
(1453.6 -1808.05 0)
(1593.68 -1822.44 0)
(1716.05 -1841.11 0)
(1816.7 -1879.79 0)
(1880.37 -1922.5 0)
(1849.34 -1964.84 0)
(1669.03 -1993.28 0)
(1287.13 -2003.54 0)
(867.259 -1999.65 0)
(332.181 -1986.92 0)
(-389.781 -1979.43 0)
(-920.846 -1978.99 0)
(-1340.64 -1972.42 0)
(-1725.5 -1954.26 0)
(-1913.13 -1919.21 0)
(-1957 -1868.85 0)
(-1912.46 -1814.41 0)
(-1841.09 -1756.78 0)
(-1760.18 -1709.9 0)
(-1668.59 -1656.99 0)
(-1583.68 -1614.88 0)
(-1448.73 -1573.25 0)
(-1321.93 -1527.81 0)
(-1207.8 -1492.29 0)
(-1124.05 -1461.86 0)
(-1103.31 -1449.14 0)
(-1067.54 -1452.98 0)
(-709.167 -1480.94 0)
(78892.9 -1512.46 0)
(-92843.6 -17812.1 0)
(89647.7 -15242.4 0)
(-75843.9 -1461.82 0)
(1045.3 -1530.07 0)
(1291.52 -1583.64 0)
(1117.73 -1681.74 0)
(959.414 -1701.67 0)
(916.36 -1714.37 0)
(992.339 -1720.98 0)
(1140.44 -1709.81 0)
(1300.18 -1703.13 0)
(1452.22 -1705.27 0)
(1574.16 -1707.74 0)
(1686.21 -1735.8 0)
(1779.37 -1766.33 0)
(1839.45 -1808.53 0)
(1817.43 -1845.56 0)
(1652.13 -1870.03 0)
(1286.23 -1875.36 0)
(876.834 -1867.15 0)
(342.556 -1852.18 0)
(-386.558 -1844.79 0)
(-919.058 -1847.19 0)
(-1330.86 -1845.04 0)
(-1701.5 -1831.67 0)
(-1874.38 -1800.13 0)
(-1906.76 -1755.37 0)
(-1862.21 -1701.94 0)
(-1790.01 -1656.34 0)
(-1712.36 -1602.3 0)
(-1626.22 -1570.19 0)
(-1532.96 -1517.96 0)
(-1406.87 -1483.74 0)
(-1285.94 -1441.27 0)
(-1170.08 -1408.53 0)
(-1101.07 -1382.16 0)
(-1096.79 -1375.31 0)
(-1077.11 -1376.81 0)
(-737.846 -1392.51 0)
(71333.9 -1417.12 0)
(-83612.1 -17116 0)
(81104 -15501.6 0)
(-68976.4 -1371.39 0)
(980.268 -1435.28 0)
(1219.61 -1480.94 0)
(1061.8 -1557.42 0)
(947.219 -1569.96 0)
(916.565 -1579.52 0)
(997.637 -1570.95 0)
(1155.03 -1560.57 0)
(1308.68 -1555.29 0)
(1449.16 -1557.57 0)
(1564.26 -1574.45 0)
(1659.59 -1600.91 0)
(1746.61 -1639.82 0)
(1804.02 -1681.13 0)
(1790.08 -1719.07 0)
(1640.31 -1741.47 0)
(1289.9 -1743.82 0)
(889.597 -1731.85 0)
(353.725 -1715.19 0)
(-384.978 -1708.44 0)
(-921.089 -1713.9 0)
(-1325.68 -1716.06 0)
(-1682.21 -1705.52 0)
(-1839.6 -1675.54 0)
(-1862.39 -1629.45 0)
(-1817.04 -1578.19 0)
(-1745.08 -1525.55 0)
(-1677.16 -1478.65 0)
(-1587.31 -1435.42 0)
(-1500.38 -1391.54 0)
(-1374.83 -1358.71 0)
(-1249.46 -1318.93 0)
(-1150.83 -1295.02 0)
(-1092.03 -1280.88 0)
(-1098.16 -1279.82 0)
(-1084.12 -1283.83 0)
(-748.016 -1297.03 0)
(63741.1 -1321.27 0)
(-74374.1 -16380.5 0)
(72893 -15361.7 0)
(-62289.1 -1270.89 0)
(939.731 -1326.29 0)
(1173.82 -1383.44 0)
(1031.95 -1439.89 0)
(938.114 -1447.61 0)
(915.413 -1449.22 0)
(1010.6 -1436.49 0)
(1155.52 -1415.02 0)
(1303.08 -1426.21 0)
(1433.76 -1422.58 0)
(1532.39 -1453.08 0)
(1623.22 -1479.77 0)
(1702.07 -1522.76 0)
(1763.08 -1565.27 0)
(1759.28 -1604 0)
(1628.28 -1625.84 0)
(1295.5 -1626.11 0)
(904.427 -1610.93 0)
(365.119 -1593.37 0)
(-385.32 -1587.7 0)
(-926.401 -1595.98 0)
(-1322.78 -1602.42 0)
(-1662.45 -1594.08 0)
(-1801.09 -1564.11 0)
(-1812.95 -1516.8 0)
(-1762.09 -1463.95 0)
(-1694.08 -1409.38 0)
(-1625.5 -1362.63 0)
(-1542.28 -1313.55 0)
(-1459.04 -1276.15 0)
(-1336.9 -1236.78 0)
(-1224.56 -1210.45 0)
(-1133.41 -1190.97 0)
(-1086.43 -1186.84 0)
(-1099.63 -1190.92 0)
(-1093.69 -1196.24 0)
(-773.924 -1202.54 0)
(56798.9 -1224.71 0)
(-65972.7 -15496.9 0)
(64603.4 -15038.2 0)
(-55451.4 -1201.47 0)
(871.819 -1265.83 0)
(1110.14 -1344.71 0)
(999.962 -1383.21 0)
(938.225 -1385.98 0)
(927.277 -1364.07 0)
(1030.59 -1344.63 0)
(1164.95 -1312.81 0)
(1301.4 -1312.69 0)
(1423.26 -1311.14 0)
(1509.15 -1329.38 0)
(1592.45 -1354.51 0)
(1664.23 -1390.68 0)
(1725.73 -1433.8 0)
(1731.71 -1476.42 0)
(1619 -1506.57 0)
(1304.27 -1515.73 0)
(921.154 -1506.3 0)
(376.106 -1491.94 0)
(-387.5 -1487.64 0)
(-935.273 -1494.95 0)
(-1323.84 -1497.09 0)
(-1645.29 -1480.49 0)
(-1765.14 -1442.13 0)
(-1765.88 -1390.83 0)
(-1713.52 -1336.9 0)
(-1647.45 -1290.59 0)
(-1584.81 -1245.71 0)
(-1503.98 -1214.54 0)
(-1426.41 -1176.23 0)
(-1311.51 -1154.69 0)
(-1205.31 -1134.41 0)
(-1128.09 -1128.07 0)
(-1091.98 -1135.28 0)
(-1107.21 -1146.29 0)
(-1095.31 -1150.19 0)
(-775.452 -1145.8 0)
(49966.6 -1154.6 0)
(-57717.5 -14513.6 0)
(56812.4 -14693.4 0)
(-49017.5 -1171.15 0)
(801.695 -1233.23 0)
(1060.71 -1327.12 0)
(992.185 -1354.69 0)
(956.556 -1347.58 0)
(955.258 -1315.19 0)
(1059.99 -1275.86 0)
(1186.29 -1242.41 0)
(1304.69 -1225.62 0)
(1417.68 -1219.32 0)
(1490.6 -1223.04 0)
(1564.14 -1236.02 0)
(1625.66 -1258.05 0)
(1680.45 -1291.12 0)
(1689.16 -1326.85 0)
(1590.4 -1355.98 0)
(1295.77 -1367.44 0)
(927.357 -1359.8 0)
(383.1 -1346.6 0)
(-388.221 -1343.67 0)
(-935.515 -1351.97 0)
(-1308.85 -1353.93 0)
(-1609.49 -1335.87 0)
(-1714.68 -1298.91 0)
(-1711.54 -1254.51 0)
(-1665.5 -1211.13 0)
(-1606.2 -1179.13 0)
(-1552.21 -1150.68 0)
(-1475.33 -1134.43 0)
(-1401.36 -1111.93 0)
(-1296.61 -1103.33 0)
(-1198.92 -1096.13 0)
(-1134.25 -1102.46 0)
(-1103.98 -1115.1 0)
(-1113.99 -1122.44 0)
(-1093.22 -1116.87 0)
(-778.173 -1095.83 0)
(43917.1 -1089.95 0)
(-50387.4 -13559.8 0)
(48918.8 -13604.1 0)
(-42480.7 -1093.53 0)
(721.526 -1199.94 0)
(993.099 -1318.2 0)
(980.242 -1353.82 0)
(976.286 -1338.55 0)
(996.394 -1302.67 0)
(1100.73 -1242.05 0)
(1213.36 -1218.22 0)
(1323.66 -1180.22 0)
(1425.74 -1169.25 0)
(1493.05 -1148.85 0)
(1558.72 -1134.49 0)
(1611.13 -1120.98 0)
(1659.43 -1117.47 0)
(1669.21 -1120.66 0)
(1579.88 -1128.68 0)
(1300.6 -1130.07 0)
(941.238 -1123.22 0)
(391.646 -1120.54 0)
(-392.679 -1118.9 0)
(-945.164 -1118.47 0)
(-1308.33 -1121.07 0)
(-1592.27 -1113.94 0)
(-1686.74 -1098.67 0)
(-1681.29 -1087.16 0)
(-1640.89 -1081.5 0)
(-1589.19 -1084.54 0)
(-1541.73 -1087.43 0)
(-1466.64 -1091.33 0)
(-1396.44 -1087.48 0)
(-1296.28 -1091.33 0)
(-1204.47 -1094.22 0)
(-1146.37 -1105.02 0)
(-1111.24 -1114.62 0)
(-1108.91 -1111.18 0)
(-1069.67 -1087.37 0)
(-749.513 -1027.46 0)
(37955.8 -963.998 0)
(-43151.2 -12118.9 0)
(42335.3 -12830.5 0)
(-37064.4 -856.853 0)
(585.195 -1051.36 0)
(912.423 -1211.62 0)
(972.578 -1253.48 0)
(1005.85 -1239.81 0)
(1048.24 -1204 0)
(1141.36 -1148.66 0)
(1245.88 -1129.39 0)
(1351.89 -1081.15 0)
(1447.91 -1064.61 0)
(1524.09 -1018.45 0)
(1591 -974.559 0)
(1642.06 -916.656 0)
(1680.76 -859.179 0)
(1678.36 -827.076 0)
(1581.33 -808.903 0)
(1301.03 -791.568 0)
(936.541 -768.729 0)
(387.263 -752.365 0)
(-386.227 -751.7 0)
(-937.609 -766.453 0)
(-1304.49 -786.794 0)
(-1587.9 -800.471 0)
(-1688.88 -814.001 0)
(-1695 -840.245 0)
(-1662.97 -890.814 0)
(-1611.92 -939.569 0)
(-1558.76 -976.528 0)
(-1475.38 -1005.43 0)
(-1401.36 -1019.14 0)
(-1303.1 -1031.52 0)
(-1212.11 -1044.03 0)
(-1153.9 -1049.37 0)
(-1109.92 -1053.15 0)
(-1087.74 -1034.79 0)
(-1012.54 -978.904 0)
(-659.283 -837.394 0)
(33229 -666.725 0)
(-37473.1 -10417 0)
(35850.3 -3184.81 0)
(-31129.9 -192.369 0)
(379.657 -540.801 0)
(798.335 -763.435 0)
(953.084 -829.555 0)
(1023.96 -823.674 0)
(1084.23 -793.692 0)
(1172.63 -755.191 0)
(1278.41 -723.926 0)
(1386.08 -685.161 0)
(1486.17 -654.742 0)
(1579.83 -608.877 0)
(1656.81 -554.196 0)
(1722.32 -475.418 0)
(1745.76 -330.548 0)
(1717.65 -27.079 0)
(1614.1 366.623 0)
(1339.31 759.088 0)
(979.014 1049.85 0)
(408.056 1171.84 0)
(-406.254 1171.71 0)
(-978.981 1049.93 0)
(-1341.11 760.02 0)
(-1618.48 369.529 0)
(-1725.06 -21.1672 0)
(-1755.31 -320.718 0)
(-1736.6 -462.42 0)
(-1671.79 -534.769 0)
(-1605.2 -585.616 0)
(-1507.71 -618.897 0)
(-1421.58 -649.73 0)
(-1320.26 -663.49 0)
(-1221.68 -691.776 0)
(-1155.17 -695.375 0)
(-1097.19 -703.316 0)
(-1037.36 -682.067 0)
(-879.442 -595.537 0)
(-448.686 -373.187 0)
(28724.5 -37.1872 0)
(-32649.4 -398.053 0)
(38588.2 462597 0)
(-34516.6 34422.6 0)
(34.8955 30524.4 0)
(634.17 35599.3 0)
(914.53 40911.4 0)
(1040.41 47653.1 0)
(1114.23 54427.7 0)
(1208.59 62150.3 0)
(1313.36 69923.2 0)
(1418.56 78512.6 0)
(1521.42 86964.8 0)
(1620.98 96124.2 0)
(1719.61 105053 0)
(1857.57 114444 0)
(2112.8 123498 0)
(2350.18 132606 0)
(2338.91 141283 0)
(1959.41 149458 0)
(1334.29 156245 0)
(504.687 161233 0)
(-503.701 161232 0)
(-1334.33 156246 0)
(-1960.15 149461 0)
(-2340.68 141290 0)
(-2354.03 132618 0)
(-2120.2 123517 0)
(-1869.24 114472 0)
(-1730.64 105091 0)
(-1639.83 96168.5 0)
(-1537.16 87024.3 0)
(-1444.33 78570.4 0)
(-1343.62 70006 0)
(-1242.84 62228.9 0)
(-1165.02 54536.2 0)
(-1097.09 47762.7 0)
(-983.88 41031.6 0)
(-714.894 35694.1 0)
(-121.237 30581.1 0)
(33205 34307.5 0)
(-36381.2 461056 0)
(510379 -530992 0)
(-447490 -38330.9 0)
(1513.61 -35217.7 0)
(10807.6 -40617.3 0)
(12568.6 -46891.2 0)
(14048.8 -54933.9 0)
(15054.3 -63028.1 0)
(16104.7 -72231.3 0)
(17045.7 -81578.7 0)
(17808 -91910.7 0)
(18457.4 -102190 0)
(19010.6 -113322 0)
(19310.5 -124294 0)
(19495.9 -135841 0)
(19247.1 -147151 0)
(18856.5 -158692 0)
(17853.6 -169831 0)
(15757 -180284 0)
(12325.9 -188776 0)
(5214.07 -194899 0)
(-5212.31 -194899 0)
(-12322.1 -188778 0)
(-15753.1 -180288 0)
(-17849.3 -169837 0)
(-18851.9 -158699 0)
(-19241.5 -147158 0)
(-19492 -135847 0)
(-19309.5 -124294 0)
(-19015.3 -113317 0)
(-18465.9 -102164 0)
(-17821 -91880.4 0)
(-17067.5 -81511.9 0)
(-16128.9 -72144.7 0)
(-15095.3 -62897.4 0)
(-14110.7 -54746.1 0)
(-12667.1 -46628.4 0)
(-10949.9 -40233.8 0)
(-1784.9 -34700.4 0)
(443545 -37581 0)
(-505725 -525003 0)
(510379 530992 0)
(-447490 38330.9 0)
(1513.61 35217.7 0)
(10807.6 40617.3 0)
(12568.6 46891.2 0)
(14048.8 54933.9 0)
(15054.3 63028.1 0)
(16104.7 72231.3 0)
(17045.7 81578.7 0)
(17808 91910.7 0)
(18457.4 102190 0)
(19010.6 113322 0)
(19310.5 124294 0)
(19495.9 135841 0)
(19247.1 147151 0)
(18856.5 158692 0)
(17853.6 169831 0)
(15757 180284 0)
(12325.9 188776 0)
(5214.07 194899 0)
(-5212.31 194899 0)
(-12322.1 188778 0)
(-15753.1 180288 0)
(-17849.3 169837 0)
(-18851.9 158699 0)
(-19241.5 147158 0)
(-19492 135847 0)
(-19309.5 124294 0)
(-19015.3 113317 0)
(-18465.9 102164 0)
(-17821 91880.4 0)
(-17067.5 81511.9 0)
(-16128.9 72144.7 0)
(-15095.3 62897.4 0)
(-14110.7 54746.1 0)
(-12667.1 46628.4 0)
(-10949.9 40233.8 0)
(-1784.9 34700.4 0)
(443545 37581 0)
(-505725 525003 0)
(38588.2 -462597 0)
(-34516.6 -34422.6 0)
(34.8955 -30524.4 0)
(634.17 -35599.3 0)
(914.53 -40911.4 0)
(1040.41 -47653.1 0)
(1114.23 -54427.7 0)
(1208.59 -62150.3 0)
(1313.36 -69923.2 0)
(1418.56 -78512.6 0)
(1521.42 -86964.8 0)
(1620.98 -96124.2 0)
(1719.61 -105053 0)
(1857.57 -114444 0)
(2112.8 -123498 0)
(2350.18 -132606 0)
(2338.91 -141283 0)
(1959.41 -149458 0)
(1334.29 -156245 0)
(504.687 -161233 0)
(-503.701 -161232 0)
(-1334.33 -156246 0)
(-1960.15 -149461 0)
(-2340.68 -141290 0)
(-2354.03 -132618 0)
(-2120.2 -123517 0)
(-1869.24 -114472 0)
(-1730.64 -105091 0)
(-1639.83 -96168.5 0)
(-1537.16 -87024.3 0)
(-1444.33 -78570.4 0)
(-1343.62 -70006 0)
(-1242.84 -62228.9 0)
(-1165.02 -54536.2 0)
(-1097.09 -47762.7 0)
(-983.88 -41031.6 0)
(-714.894 -35694.1 0)
(-121.237 -30581.1 0)
(33205 -34307.5 0)
(-36381.2 -461056 0)
(35850.3 3184.81 0)
(-31129.9 192.369 0)
(379.657 540.801 0)
(798.335 763.435 0)
(953.084 829.555 0)
(1023.96 823.674 0)
(1084.23 793.692 0)
(1172.63 755.191 0)
(1278.41 723.926 0)
(1386.08 685.161 0)
(1486.17 654.742 0)
(1579.83 608.877 0)
(1656.81 554.196 0)
(1722.32 475.418 0)
(1745.76 330.548 0)
(1717.65 27.079 0)
(1614.1 -366.623 0)
(1339.31 -759.088 0)
(979.014 -1049.85 0)
(408.056 -1171.84 0)
(-406.254 -1171.71 0)
(-978.981 -1049.93 0)
(-1341.11 -760.02 0)
(-1618.48 -369.529 0)
(-1725.06 21.1672 0)
(-1755.31 320.718 0)
(-1736.6 462.42 0)
(-1671.79 534.769 0)
(-1605.2 585.616 0)
(-1507.71 618.897 0)
(-1421.58 649.73 0)
(-1320.26 663.49 0)
(-1221.68 691.776 0)
(-1155.17 695.375 0)
(-1097.19 703.316 0)
(-1037.36 682.067 0)
(-879.442 595.537 0)
(-448.686 373.187 0)
(28724.5 37.1872 0)
(-32649.4 398.053 0)
(42335.3 12830.5 0)
(-37064.4 856.853 0)
(585.195 1051.36 0)
(912.423 1211.62 0)
(972.578 1253.48 0)
(1005.85 1239.81 0)
(1048.24 1204 0)
(1141.36 1148.66 0)
(1245.88 1129.39 0)
(1351.89 1081.15 0)
(1447.91 1064.61 0)
(1524.09 1018.45 0)
(1591 974.559 0)
(1642.06 916.656 0)
(1680.76 859.179 0)
(1678.36 827.076 0)
(1581.33 808.903 0)
(1301.03 791.568 0)
(936.541 768.729 0)
(387.263 752.365 0)
(-386.227 751.7 0)
(-937.609 766.453 0)
(-1304.49 786.794 0)
(-1587.9 800.471 0)
(-1688.88 814.001 0)
(-1695 840.245 0)
(-1662.97 890.814 0)
(-1611.92 939.569 0)
(-1558.76 976.528 0)
(-1475.38 1005.43 0)
(-1401.36 1019.14 0)
(-1303.1 1031.52 0)
(-1212.11 1044.03 0)
(-1153.9 1049.37 0)
(-1109.92 1053.15 0)
(-1087.74 1034.79 0)
(-1012.54 978.904 0)
(-659.283 837.394 0)
(33229 666.725 0)
(-37473.1 10417 0)
(48918.8 13604.1 0)
(-42480.7 1093.53 0)
(721.526 1199.94 0)
(993.099 1318.2 0)
(980.242 1353.82 0)
(976.286 1338.55 0)
(996.394 1302.67 0)
(1100.73 1242.05 0)
(1213.36 1218.22 0)
(1323.66 1180.22 0)
(1425.74 1169.25 0)
(1493.05 1148.85 0)
(1558.72 1134.49 0)
(1611.13 1120.98 0)
(1659.43 1117.47 0)
(1669.21 1120.66 0)
(1579.88 1128.68 0)
(1300.6 1130.07 0)
(941.238 1123.22 0)
(391.646 1120.54 0)
(-392.679 1118.9 0)
(-945.164 1118.47 0)
(-1308.33 1121.07 0)
(-1592.27 1113.94 0)
(-1686.74 1098.67 0)
(-1681.29 1087.16 0)
(-1640.89 1081.5 0)
(-1589.19 1084.54 0)
(-1541.73 1087.43 0)
(-1466.64 1091.33 0)
(-1396.44 1087.48 0)
(-1296.28 1091.33 0)
(-1204.47 1094.22 0)
(-1146.37 1105.02 0)
(-1111.24 1114.62 0)
(-1108.91 1111.18 0)
(-1069.67 1087.37 0)
(-749.513 1027.46 0)
(37955.8 963.998 0)
(-43151.2 12118.9 0)
(56812.4 14693.4 0)
(-49017.5 1171.15 0)
(801.695 1233.23 0)
(1060.71 1327.12 0)
(992.185 1354.69 0)
(956.556 1347.58 0)
(955.258 1315.19 0)
(1059.99 1275.86 0)
(1186.29 1242.41 0)
(1304.69 1225.62 0)
(1417.68 1219.32 0)
(1490.6 1223.04 0)
(1564.14 1236.02 0)
(1625.66 1258.05 0)
(1680.45 1291.12 0)
(1689.16 1326.85 0)
(1590.4 1355.98 0)
(1295.77 1367.44 0)
(927.357 1359.8 0)
(383.1 1346.6 0)
(-388.221 1343.67 0)
(-935.515 1351.97 0)
(-1308.85 1353.93 0)
(-1609.49 1335.87 0)
(-1714.68 1298.91 0)
(-1711.54 1254.51 0)
(-1665.5 1211.13 0)
(-1606.2 1179.13 0)
(-1552.21 1150.68 0)
(-1475.33 1134.43 0)
(-1401.36 1111.93 0)
(-1296.61 1103.33 0)
(-1198.92 1096.13 0)
(-1134.25 1102.46 0)
(-1103.98 1115.1 0)
(-1113.99 1122.44 0)
(-1093.22 1116.87 0)
(-778.173 1095.83 0)
(43917.1 1089.95 0)
(-50387.4 13559.8 0)
(64603.4 15038.2 0)
(-55451.4 1201.47 0)
(871.819 1265.83 0)
(1110.14 1344.71 0)
(999.962 1383.21 0)
(938.225 1385.98 0)
(927.277 1364.07 0)
(1030.59 1344.63 0)
(1164.95 1312.81 0)
(1301.4 1312.69 0)
(1423.26 1311.14 0)
(1509.15 1329.38 0)
(1592.45 1354.51 0)
(1664.23 1390.68 0)
(1725.73 1433.8 0)
(1731.71 1476.42 0)
(1619 1506.57 0)
(1304.27 1515.73 0)
(921.154 1506.3 0)
(376.106 1491.94 0)
(-387.5 1487.64 0)
(-935.273 1494.95 0)
(-1323.84 1497.09 0)
(-1645.29 1480.49 0)
(-1765.14 1442.13 0)
(-1765.88 1390.83 0)
(-1713.52 1336.9 0)