/*--------------------------------*- C++ -*----------------------------------*\
| =========                 |                                                 |
| \\      /  F ield         | OpenFOAM: The Open Source CFD Toolbox           |
|  \\    /   O peration     | Version:  v1912                                 |
|   \\  /    A nd           | Website:  www.openfoam.com                      |
|    \\/     M anipulation  |                                                 |
\*---------------------------------------------------------------------------*/
FoamFile
{
    version     2.0;
    format      ascii;
    class       volVectorField;
    location    "4.12";
    object      grad(rho);
}
// * * * * * * * * * * * * * * * * * * * * * * * * * * * * * * * * * * * * * //

dimensions      [1 -4 0 0 0 0 0];


internalField   nonuniform List<vector> 
1900
(
(134687 -0.16952 0)
(-104370 -0.119913 0)
(-13545.5 -0.719716 0)
(-3272.16 1.75363 0)
(-2363.88 5.60227 0)
(-2105.79 9.37399 0)
(-2019.59 8.95591 0)
(-1967.74 -2.66113 0)
(-1731.88 -115.729 0)
(-1449.34 -251.11 0)
(134686 -0.206377 0)
(-104371 -0.344681 0)
(-13543.6 -1.67782 0)
(-3265.84 1.02276 0)
(-2356.26 3.51342 0)
(-2102.44 3.50446 0)
(-2031.63 -1.70472 0)
(-2092.42 -13.4451 0)
(-1980.33 -104.146 0)
(-1760.53 -285.753 0)
(134686 1.61293e-08 0)
(-104372 -1.1724e-09 0)
(-13544.1 5.80869e-09 0)
(-3266.97 4.20997e-09 0)
(-2361.4 5.52447e-09 0)
(-2111.01 3.14415e-09 0)
(-2036.54 -1.81188e-09 0)
(-2070.18 -1.52767e-09 0)
(-2004.19 2.02505e-09 0)
(-1849.03 2.70006e-09 0)
(134686 0.206377 0)
(-104371 0.344681 0)
(-13543.6 1.67782 0)
(-3265.84 -1.02276 0)
(-2356.26 -3.51342 0)
(-2102.44 -3.50446 0)
(-2031.63 1.70472 0)
(-2092.42 13.4451 0)
(-1980.33 104.146 0)
(-1760.53 285.753 0)
(134687 0.16952 0)
(-104370 0.119913 0)
(-13545.5 0.719716 0)
(-3272.16 -1.75363 0)
(-2363.88 -5.60227 0)
(-2105.79 -9.37399 0)
(-2019.59 -8.95591 0)
(-1967.74 2.66113 0)
(-1731.88 115.729 0)
(-1449.34 251.11 0)
(-652.685 -424.166 1.39309e-11)
(616.903 -645.276 -1.67438e-11)
(1469.55 -935.558 -2.12899e-11)
(616.298 -1462.46 0)
(-3493.83 -2687.63 -9.15092e-11)
(-985.722 -498.18 1.38542e-11)
(332.313 -675.331 1.67438e-11)
(1222.49 -984.32 2.12899e-11)
(322.41 -1611.35 0)
(-2759.06 -2545.65 0)
(-1119.06 2.31699e-09 0)
(148.939 2.72686e-09 0)
(787.994 -3.35534e-09 0)
(-155.425 -3.4316e-09 0)
(-3641.91 -8.14164e-09 0)
(-985.722 498.18 1.38542e-11)
(332.313 675.331 1.67438e-11)
(1222.49 984.32 2.12899e-11)
(322.41 1611.35 0)
(-2759.06 2545.65 0)
(-652.685 424.166 -4.16393e-11)
(616.903 645.276 -1.67438e-11)
(1469.55 935.558 -2.12899e-11)
(616.298 1462.46 -5.8587e-11)
(-3493.83 2687.63 9.15092e-11)
(-8569.84 1038.98 3.67912e-11)
(-7424.81 835.735 -2.94832e-11)
(-7735.12 923.093 0)
(-8916.51 960.591 2.00789e-11)
(-13111.8 -1240.07 -8.29284e-12)
(-7418.79 1235.53 -1.84113e-11)
(-7370.68 672.832 1.47542e-11)
(-7620.88 620.641 0)
(-9796.54 425.248 -1.25706e-11)
(-13975.6 -2357.86 2.04612e-12)
(-7580.41 -1.01378e-08 0)
(-7576.77 -5.23798e-09 0)
(-7846.43 6.5791e-11 0)
(-10250.2 9.86865e-10 5.03335e-12)
(-14222.6 7.11582e-09 -4.09224e-12)
(-7418.79 -1235.53 -1.84113e-11)
(-7370.68 -672.832 1.47542e-11)
(-7620.88 -620.641 0)
(-9796.54 -425.248 -1.25706e-11)
(-13975.6 2357.86 2.04612e-12)
(-8569.84 -1038.98 1.84113e-11)
(-7424.81 -835.735 -2.51696e-14)
(-7735.12 -923.093 0)
(-8916.51 -960.591 2.89299e-14)
(-13111.8 1240.07 8.29284e-12)
(-20467.6 -13996.2 0)
(-11527.2 2458.45 0)
(1811.38 2187.27 0)
(637.14 1837.91 0)
(-1086.13 949.971 0)
(-1649.03 538.574 0)
(-2104.73 327.16 0)
(-1811.04 80.0647 0)
(-1192.76 91.9287 0)
(-804.334 26.8542 0)
(-513.839 23.0942 0)
(-415.228 17.6113 0)
(-341.5 14.3747 0)
(-278.058 11.2007 0)
(-223.852 9.09861 0)
(-180.09 7.89331 0)
(-144.937 7.15678 0)
(-115.985 6.61611 0)
(-94.4726 6.14896 0)
(-78.155 5.76821 0)
(-64.2312 5.43081 0)
(-56.6798 5.15873 0)
(-52.0797 4.98871 0)
(-47.6277 4.88878 0)
(-43.2063 4.87575 0)
(-37.4704 4.94333 0)
(-32.0902 5.0898 0)
(-30.4714 5.25963 0)
(-36.3068 5.5193 0)
(-54.4294 5.36593 0)
(-76.3084 5.57489 0)
(-101.672 4.99822 0)
(-103.499 5.17877 0)
(-110.837 8.61706 0)
(-113.973 9.05513 0)
(-146.675 18.5711 0)
(-153.259 17.9186 0)
(3282.75 27.967 0)
(82534 -61.3639 0)
(-92605.2 -5185 0)
(-19830.1 -2316.46 0)
(-11095.3 4800.43 0)
(1675.58 2745.31 0)
(638.81 1329.87 0)
(-1186.91 619.562 0)
(-1723.46 282.18 0)
(-2155.52 148.135 0)
(-1833.69 32.5708 0)
(-1195.94 30.3273 0)
(-809.725 9.57378 0)
(-514.27 8.45526 0)
(-415.921 5.2801 0)
(-341.883 4.13465 0)
(-278.387 3.02984 0)
(-224.039 2.35471 0)
(-180.179 2.03043 0)
(-144.986 1.87511 0)
(-116.028 1.77198 0)
(-94.5171 1.66569 0)
(-78.2043 1.55814 0)
(-64.2867 1.42931 0)
(-56.735 1.29039 0)
(-52.1332 1.16172 0)
(-47.6803 1.03525 0)
(-43.2572 0.924273 0)
(-37.5212 0.834598 0)
(-32.1467 0.774303 0)
(-30.5292 0.741729 0)
(-36.3985 0.801973 0)
(-54.5069 0.843278 0)
(-76.3704 1.33424 0)
(-101.679 2.11506 0)
(-103.052 4.11696 0)
(-110.154 8.63507 0)
(-112.544 15.0973 0)
(-145.242 27.0933 0)
(-152.42 39.8344 0)
(3271.92 50.8425 0)
(82512.5 -19.7249 0)
(-92595.9 2882.48 0)
(-18424.3 -3.7142e-09 0)
(-10054.7 -1.76505e-08 0)
(801.762 -2.41262e-08 0)
(18.7399 3.28788e-08 0)
(-1390.91 6.05899e-08 0)
(-1786.18 6.29961e-08 0)
(-2177.35 1.79251e-08 0)
(-1845.31 -4.29878e-08 0)
(-1199.45 -9.58425e-08 0)
(-810.697 -3.30887e-08 0)
(-515.089 -2.53535e-09 0)
(-416.485 7.83212e-09 0)
(-342.155 -9.68922e-11 0)
(-278.575 -1.82642e-08 0)
(-224.143 -3.02465e-08 0)
(-180.229 -3.21036e-08 0)
(-145.012 -1.24829e-08 0)
(-116.046 -2.80987e-09 0)
(-94.5348 -5.26448e-09 0)
(-78.2238 3.43967e-09 0)
(-64.3091 1.66009e-08 0)
(-56.7576 2.90354e-08 0)
(-52.1539 4.79616e-09 0)
(-47.6967 -2.87931e-08 0)
(-43.2646 -1.74406e-08 0)
(-37.514 1.4986e-08 0)
(-32.1172 3.01981e-08 0)
(-30.4634 2.03474e-08 0)
(-36.2773 -2.32541e-09 0)
(-54.2746 -7.2766e-08 0)
(-75.9384 -9.59233e-08 0)
(-100.862 -7.97584e-08 0)
(-101.603 -6.77922e-08 0)
(-107.643 3.14415e-08 0)
(-108.604 1.10441e-07 0)
(-139.479 3.95643e-08 0)
(-146.35 -4.50226e-08 0)
(3265.42 -8.27944e-08 0)
(83357.8 2.02521e-07 0)
(-93544.9 2.03732e-06 0)
(-19830.1 2316.46 0)
(-11095.3 -4800.43 0)
(1675.58 -2745.31 0)
(638.81 -1329.87 0)
(-1186.91 -619.562 0)
(-1723.46 -282.18 0)
(-2155.52 -148.135 0)
(-1833.69 -32.5708 0)
(-1195.94 -30.3273 0)
(-809.725 -9.57378 0)
(-514.27 -8.45526 0)
(-415.921 -5.2801 0)
(-341.883 -4.13465 0)
(-278.387 -3.02984 0)
(-224.039 -2.35471 0)
(-180.179 -2.03043 0)
(-144.986 -1.87511 0)
(-116.028 -1.77198 0)
(-94.5171 -1.66569 0)
(-78.2043 -1.55814 0)
(-64.2867 -1.42931 0)
(-56.735 -1.29039 0)
(-52.1332 -1.16172 0)
(-47.6803 -1.03525 0)
(-43.2572 -0.924273 0)
(-37.5212 -0.834598 0)
(-32.1467 -0.774304 0)
(-30.5292 -0.741729 0)
(-36.3985 -0.801973 0)
(-54.5069 -0.843278 0)
(-76.3704 -1.33424 0)
(-101.679 -2.11506 0)
(-103.052 -4.11696 0)
(-110.154 -8.63507 0)
(-112.544 -15.0973 0)
(-145.242 -27.0933 0)
(-152.42 -39.8344 0)
(3271.92 -50.8425 0)
(82512.5 19.7249 0)
(-92595.9 -2882.48 0)
(-20467.6 13996.2 0)
(-11527.2 -2458.45 0)
(1811.38 -2187.27 0)
(637.14 -1837.91 0)
(-1086.13 -949.971 0)
(-1649.03 -538.574 0)
(-2104.73 -327.16 0)
(-1811.04 -80.0647 0)
(-1192.76 -91.9287 0)
(-804.334 -26.8542 0)
(-513.839 -23.0942 0)
(-415.228 -17.6113 0)
(-341.5 -14.3747 0)
(-278.058 -11.2007 0)
(-223.852 -9.09861 0)
(-180.09 -7.89331 0)
(-144.937 -7.15678 0)
(-115.985 -6.61611 0)
(-94.4726 -6.14896 0)
(-78.155 -5.76821 0)
(-64.2312 -5.43081 0)
(-56.6798 -5.15873 0)
(-52.0797 -4.98871 0)
(-47.6277 -4.88878 0)
(-43.2063 -4.87575 0)
(-37.4704 -4.94333 0)
(-32.0902 -5.0898 0)
(-30.4714 -5.25963 0)
(-36.3068 -5.5193 0)
(-54.4294 -5.36593 0)
(-76.3084 -5.57489 0)
(-101.672 -4.99822 0)
(-103.499 -5.17877 0)
(-110.837 -8.61706 0)
(-113.973 -9.05513 0)
(-146.675 -18.5711 0)
(-153.259 -17.9186 0)
(3282.75 -27.967 0)
(82534 61.3639 0)
(-92605.2 5185 0)
(40274.3 26280.5 0)
(-20747.4 -3423.88 0)
(1907.81 -3142.32 0)
(1416.87 -2519.13 0)
(-488.4 -1408.17 0)
(-1418.84 -935.847 0)
(-1926.64 -586.597 0)
(-1712.32 -216.207 0)
(-1166.25 -178.757 0)
(-772.779 -56.6087 0)
(-508.971 -46.228 0)
(-411.252 -36.6409 0)
(-338.304 -29.6048 0)
(-275.459 -23.2892 0)
(-222.18 -19.1803 0)
(-179.064 -16.7753 0)
(-144.242 -15.2468 0)
(-115.445 -14.0963 0)
(-94.0367 -13.1111 0)
(-77.8107 -12.3268 0)
(-63.9684 -11.6692 0)
(-56.5216 -11.1782 0)
(-52.0257 -10.9144 0)
(-47.6703 -10.8091 0)
(-43.3503 -10.8975 0)
(-37.7141 -11.1664 0)
(-32.4104 -11.623 0)
(-30.8655 -12.1811 0)
(-36.5712 -12.9259 0)
(-54.6313 -13.0154 0)
(-76.2114 -13.3684 0)
(-101.439 -12.4184 0)
(-104.805 -12.3372 0)
(-111.796 -17.4195 0)
(-117.136 -17.5804 0)
(-149.146 -30.6716 0)
(-157.343 -30.6676 0)
(3309.12 -49.6371 0)
(85757.6 -116.877 0)
(-96099.8 679.945 0)
(47383.1 21665.6 0)
(-34935.9 -2913.52 0)
(2631.52 -2031.78 0)
(1890.11 -2026.22 0)
(119.059 -1602.3 0)
(-980.772 -1223.78 0)
(-1506.76 -808.798 0)
(-1470.97 -399.5 0)
(-1053.18 -241.159 0)
(-693.545 -98.9161 0)
(-497.208 -73.3363 0)
(-401.342 -56.8172 0)
(-330.348 -44.8359 0)
(-269.406 -35.4268 0)
(-218.471 -29.51 0)
(-176.849 -26.0305 0)
(-142.727 -23.7366 0)
(-114.217 -21.9554 0)
(-93.0012 -20.4099 0)
(-76.9501 -19.1749 0)
(-63.2653 -18.1219 0)
(-56.0373 -17.316 0)
(-51.753 -16.8568 0)
(-47.5885 -16.6248 0)
(-43.4733 -16.6735 0)
(-38.0388 -16.9793 0)
(-32.8963 -17.5887 0)
(-31.5156 -18.3387 0)
(-36.969 -19.4321 0)
(-54.7476 -19.4906 0)
(-75.7851 -19.9048 0)
(-100.803 -18.7445 0)
(-107.618 -18.4034 0)
(-115.375 -26.1378 0)
(-125.048 -28.3943 0)
(-157.961 -45.6227 0)
(-169.345 -50.8416 0)
(3185.53 -73.2043 0)
(81508.5 -356.997 0)
(-91382.3 -6094.63 0)
(53343.5 13349.9 0)
(-43583 -1174.41 0)
(2762.85 -1205.89 0)
(1830.73 -1514.75 0)
(284.86 -1475.62 0)
(-654.194 -1244.49 0)
(-1132.33 -913.466 0)
(-1165.32 -520.647 0)
(-876.595 -279.17 0)
(-611.059 -149.048 0)
(-468.403 -104.735 0)
(-383.788 -78.8868 0)
(-317.692 -60.8929 0)
(-260.69 -48.4675 0)
(-213.126 -40.7416 0)
(-173.501 -35.9786 0)
(-140.316 -32.6394 0)
(-112.239 -29.9855 0)
(-91.3574 -27.7012 0)
(-75.6059 -25.9123 0)
(-62.1771 -24.4058 0)
(-55.3025 -23.2677 0)
(-51.3596 -22.6489 0)
(-47.4936 -22.3547 0)
(-43.6919 -22.469 0)
(-38.5961 -22.9437 0)
(-33.7204 -23.8992 0)
(-32.6419 -25.0405 0)
(-37.6812 -26.7502 0)
(-55.0868 -26.7313 0)
(-75.4925 -27.391 0)
(-99.9922 -26.2764 0)
(-111.93 -26.1747 0)
(-121.424 -36.6674 0)
(-135.912 -41.3339 0)
(-170.777 -60.6011 0)
(-183.922 -69.5963 0)
(3014.1 -87.8172 0)
(79955.1 -338.004 0)
(-89612.6 -3332.83 0)
(58020 7370.31 0)
(-48962.4 -308.994 0)
(2303.55 -768.827 0)
(1630.19 -1321.42 0)
(379.493 -1327.26 0)
(-439.064 -1162.59 0)
(-809.246 -887.684 0)
(-859.736 -544.708 0)
(-695.095 -302.908 0)
(-525.453 -184.255 0)
(-429.599 -129.215 0)
(-359.094 -96.1151 0)
(-301.034 -73.3264 0)
(-249.987 -58.723 0)
(-206.437 -49.5528 0)
(-169.041 -43.5146 0)
(-136.952 -39.0519 0)
(-109.458 -35.4417 0)
(-89.0761 -32.3586 0)
(-73.7745 -29.9948 0)
(-60.7169 -28.0408 0)
(-54.3444 -26.5971 0)
(-50.8733 -25.867 0)
(-47.4151 -25.5708 0)
(-44.0409 -25.819 0)
(-39.4171 -26.5648 0)
(-34.9168 -28.0038 0)
(-34.2629 -29.583 0)
(-38.5983 -32.084 0)
(-55.3651 -32.1592 0)
(-75.3467 -33.3048 0)
(-99.6309 -32.8955 0)
(-117.632 -34.239 0)
(-129.983 -47.4409 0)
(-148.111 -56.3701 0)
(-185.196 -76.4526 0)
(-195.571 -87.8192 0)
(2926.88 -97.6502 0)
(78381.5 -324.367 0)
(-87857.3 -3342.15 0)
(60206.1 3313.67 0)
(-51426.2 -179.792 0)
(1787.24 -642.93 0)
(1292.6 -1138.66 0)
(437.911 -1200.21 0)
(-230.601 -1030.09 0)
(-536.917 -785.341 0)
(-601.81 -512.22 0)
(-529.249 -305.486 0)
(-443.681 -202.675 0)
(-383.469 -143.553 0)
(-329.932 -106.869 0)
(-281.659 -82.2495 0)
(-237.781 -66.542 0)
(-198.47 -56.2695 0)
(-163.382 -48.9799 0)
(-132.536 -43.3376 0)
(-105.789 -38.6936 0)
(-86.1086 -34.7549 0)
(-71.4451 -31.8021 0)
(-58.9029 -29.4161 0)
(-53.2076 -27.7076 0)
(-50.3706 -26.9297 0)
(-47.4474 -26.7136 0)
(-44.6498 -27.1931 0)
(-40.7015 -28.2827 0)
(-36.6288 -30.2869 0)
(-36.5736 -32.1747 0)
(-40.1637 -35.1482 0)
(-56.2633 -35.0168 0)
(-76.2019 -36.3896 0)
(-100.892 -36.9786 0)
(-125.946 -39.3807 0)
(-142.75 -54.2391 0)
(-163.869 -66.444 0)
(-201.083 -85.8321 0)
(-204.348 -97.7594 0)
(2786.16 -101.15 0)
(76828.6 -411.849 0)
(-86079.8 -4159.31 0)
(61176.5 3039.45 0)
(-52775.1 -242.122 0)
(1379.55 -670.184 0)
(1093.18 -950.53 0)
(484.121 -1025.12 0)
(-39.2826 -881.178 0)
(-310.21 -679.989 0)
(-397.33 -458.811 0)
(-396.806 -301.698 0)
(-369.408 -211.013 0)
(-337.277 -152.724 0)
(-300.02 -114.765 0)
(-262.174 -89.8954 0)
(-224.952 -73.32 0)
(-189.513 -61.8883 0)
(-156.58 -53.2184 0)
(-127.04 -46.2664 0)
(-101.188 -40.4861 0)
(-82.4352 -35.6343 0)
(-68.6299 -32.0867 0)
(-56.7713 -29.2944 0)
(-51.9484 -27.3768 0)
(-49.9154 -26.6524 0)
(-47.6689 -26.6397 0)
(-45.5529 -27.5497 0)
(-42.3983 -29.1719 0)
(-38.6673 -31.9439 0)
(-38.9474 -34.3998 0)
(-41.3371 -38.3493 0)
(-56.5613 -38.1035 0)
(-77.2372 -39.9613 0)
(-102.513 -42.172 0)
(-134.264 -45.7442 0)
(-156.062 -61.4988 0)
(-178.555 -76.5453 0)
(-215.372 -94.9612 0)
(-210.332 -105.887 0)
(2624.21 -102.112 0)
(74470.9 -521.046 0)
(-83452.1 -5091.03 0)
(63143.3 -740.612 0)
(-55000.9 -316.734 0)
(1104.59 -628.47 0)
(950.578 -819.644 0)
(504.741 -851.671 0)
(101.977 -740.221 0)
(-129.91 -569.808 0)
(-237.274 -401.079 0)
(-290.461 -280.38 0)
(-300.125 -202.838 0)
(-290.721 -150.291 0)
(-269.388 -115.869 0)
(-241.721 -93.5324 0)
(-210.792 -77.9502 0)
(-179.1 -66.5197 0)
(-148.328 -57.1283 0)
(-120.267 -49.2138 0)
(-95.5435 -42.4718 0)
(-78.0146 -36.8127 0)
(-65.3358 -32.7433 0)
(-54.3644 -29.5846 0)
(-50.6617 -27.4709 0)
(-49.6602 -26.784 0)
(-48.3121 -26.8844 0)
(-47.09 -27.9691 0)
(-44.9358 -29.7053 0)
(-41.6666 -32.486 0)
(-42.7461 -34.2488 0)
(-43.7327 -37.8992 0)
(-57.8166 -36.1617 0)
(-80.1224 -36.7716 0)
(-106.465 -39.5924 0)
(-144.57 -42.6547 0)
(-172.431 -58.7327 0)
(-196.114 -76.9723 0)
(-229.357 -96.19 0)
(-211.239 -108.546 0)
(2386.09 -104.693 0)
(72021.1 -748.31 0)
(-80693.1 -6197.96 0)
(60049.9 -4005.1 0)
(-52667 -342.575 0)
(894.924 -563.181 0)
(878.092 -701.351 0)
(560.656 -697.416 0)
(232.332 -616.171 0)
(16.5999 -478.325 0)
(-118.428 -355.596 0)
(-205.774 -264.702 0)
(-244.049 -197.226 0)
(-253.47 -152.314 0)
(-245.326 -121.972 0)
(-225.634 -102.175 0)
(-198.921 -87.209 0)
(-169.448 -75.3634 0)
(-139.903 -64.9857 0)
(-112.916 -55.9606 0)
(-89.2375 -48.1932 0)
(-73.0604 -41.7467 0)
(-61.6646 -37.1876 0)
(-51.6906 -33.6976 0)
(-49.2496 -31.4585 0)
(-49.3502 -30.8915 0)
(-48.8109 -31.2112 0)
(-48.2713 -32.5713 0)
(-46.751 -34.4851 0)
(-43.0456 -37.8617 0)
(-44.1638 -39.4846 0)
(-43.1803 -43.0058 0)
(-55.4747 -40.4812 0)
(-80.5433 -40.3676 0)
(-108.182 -45.2548 0)
(-152.709 -48.0688 0)
(-189.132 -64.8098 0)
(-214.65 -86.0238 0)
(-245.797 -104.584 0)
(-218.525 -116.277 0)
(2007.71 -110.058 0)
(68599.2 -959.822 0)
(-76789.7 -7493.36 0)
(58641.2 -3179.48 0)
(-51684.2 -340.767 0)
(758.86 -503.307 0)
(821.224 -606.404 0)
(586.823 -590.825 0)
(313.1 -529.751 0)
(121.191 -421.857 0)
(-31.4196 -324.436 0)
(-137.85 -251.655 0)
(-191.823 -187.275 0)
(-218.204 -148.627 0)
(-221.073 -122.383 0)
(-208.223 -106.713 0)
(-184.956 -94.5042 0)
(-157.684 -84.5394 0)
(-129.631 -75.099 0)
(-104.085 -66.4195 0)
(-81.8464 -58.7397 0)
(-67.4092 -52.3153 0)
(-57.5794 -47.7114 0)
(-48.8436 -43.9596 0)
(-47.9576 -41.3421 0)
(-49.4219 -40.2893 0)
(-49.9308 -39.866 0)
(-50.2448 -40.2989 0)
(-50.0338 -40.7744 0)
(-46.4843 -42.6424 0)
(-47.7032 -42.2064 0)
(-44.6931 -43.6687 0)
(-55.2744 -41.2115 0)
(-84.7224 -41.3235 0)
(-113.886 -51.5473 0)
(-163.414 -59.258 0)
(-209.006 -83.4746 0)
(-234.442 -114.218 0)
(-258.51 -145.773 0)
(-216.514 -160.062 0)
(1573.22 -156.845 0)
(64906.3 -1206.16 0)
(-72553 -8406.06 0)
(56567.8 -4432.19 0)
(-50088.2 -343.485 0)
(638.946 -441.425 0)
(793.757 -522.981 0)
(634.522 -497.736 0)
(395.155 -454.445 0)
(214.449 -370.491 0)
(45.5845 -301.037 0)
(-73.6011 -238.691 0)
(-144.767 -186.029 0)
(-190.937 -156.721 0)
(-204.936 -136.088 0)
(-198.77 -124.436 0)
(-177.554 -113.741 0)
(-150.749 -104.934 0)
(-122.442 -95.8185 0)
(-97.1515 -87.0461 0)
(-75.6461 -79.2918 0)
(-62.4332 -72.9303 0)
(-53.6128 -68.368 0)
(-45.5529 -64.4017 0)
(-45.7128 -61.4877 0)
(-47.9278 -60.1142 0)
(-48.8202 -59.044 0)
(-49.1466 -58.7954 0)
(-49.0093 -58.0661 0)
(-44.4256 -58.4821 0)
(-45.1527 -56.3028 0)
(-42.2216 -55.9549 0)
(-53.2148 -53.1462 0)
(-90.5033 -50.6888 0)
(-125.465 -60.01 0)
(-183.475 -66.9 0)
(-242.093 -91.3266 0)
(-274.684 -127.267 0)
(-289.975 -168.787 0)
(-229.194 -181.385 0)
(999.651 -182.783 0)
(60649.9 -1239.95 0)
(-67519.5 -9398 0)
(53906.5 -5659.04 0)
(-47838.5 -360.447 0)
(585.891 -398.686 0)
(766.961 -447.824 0)
(652.867 -466.41 0)
(435.718 -435.974 0)
(269.02 -375.905 0)
(95.5882 -326.657 0)
(-27.0238 -269.562 0)
(-112.834 -223.702 0)
(-170.079 -194.528 0)
(-189.961 -170.123 0)
(-186.689 -154.832 0)
(-166.164 -139.878 0)
(-140.413 -128.041 0)
(-112.393 -116.556 0)
(-88.1593 -106.514 0)
(-68.2439 -98.3395 0)
(-56.8827 -92.222 0)
(-49.3609 -87.9493 0)
(-42.2134 -83.7761 0)
(-43.826 -80.4633 0)
(-47.067 -78.8888 0)
(-48.6599 -77.7406 0)
(-49.3025 -77.9789 0)
(-49.7319 -78.7009 0)
(-44.7851 -81.6407 0)
(-45.2679 -83.3702 0)
(-41.6513 -88.2824 0)
(-50.1998 -93.0523 0)
(-91.3367 -96.5579 0)
(-129.508 -113.265 0)
(-193.592 -123.843 0)
(-267.178 -151.188 0)
(-309.086 -192.365 0)
(-310.66 -241.167 0)
(-230.001 -253.048 0)
(553.147 -248.424 0)
(56026.2 -1027.17 0)
(-62255.9 -10266.5 0)
(50638.4 -6822.21 0)
(-45019.1 -415.886 0)
(554.746 -443.697 0)
(728.495 -432.498 0)
(645.941 -482.068 0)
(482.37 -450.378 0)
(319.791 -393.587 0)
(148.06 -351.198 0)
(25.6091 -292.533 0)
(-72.4618 -250.956 0)
(-139.305 -225.362 0)
(-166.683 -199.922 0)
(-169.625 -184.066 0)
(-151.737 -166.622 0)
(-128.275 -152.309 0)
(-101.698 -138.443 0)
(-79.5974 -127.211 0)
(-61.8733 -118.846 0)
(-52.4208 -113.182 0)
(-45.474 -109.338 0)
(-38.3392 -105.058 0)
(-41.0033 -101.248 0)
(-45.3041 -99.2187 0)
(-47.9433 -97.7269 0)
(-50.072 -98.1919 0)
(-52.538 -99.6612 0)
(-48.925 -104.317 0)
(-51.5529 -107.974 0)
(-51.5516 -116.322 0)
(-61.1893 -127.004 0)
(-109.981 -134.102 0)
(-151.758 -158.163 0)
(-220.019 -173.411 0)
(-308.124 -212.417 0)
(-361.391 -261.79 0)
(-348.451 -330.323 0)
(-236.188 -355.258 0)
(253.681 -358.227 0)
(50996.1 -843.089 0)
(-56556.5 -11082.1 0)
(46796.4 -7714.68 0)
(-41691.9 -494.091 0)
(569.883 -517.417 0)
(729.985 -514.01 0)
(635.638 -534.707 0)
(520.982 -469.918 0)
(364.593 -427.527 0)
(192.967 -392.038 0)
(69.5731 -333.205 0)
(-48.1062 -301.131 0)
(-120.901 -278.117 0)
(-150.166 -247.334 0)
(-154.599 -228.347 0)
(-135.561 -202.957 0)
(-113.259 -180.805 0)
(-88.2078 -159.156 0)
(-69.2752 -140.567 0)
(-54.7258 -125.851 0)
(-47.7205 -115.19 0)
(-41.5321 -108.761 0)
(-34.4172 -104.873 0)
(-38.1989 -103.815 0)
(-43.6741 -106.703 0)
(-47.6704 -111.247 0)
(-51.1665 -118.579 0)
(-55.6345 -126.579 0)
(-52.7955 -137.667 0)
(-56.8363 -146.439 0)
(-59.9895 -158.329 0)
(-67.3326 -177.576 0)
(-121.362 -188.595 0)
(-167.387 -223.813 0)
(-245.873 -252.037 0)
(-352.344 -311.863 0)
(-422.704 -380.055 0)
(-400.729 -448.95 0)
(-256.891 -485.838 0)
(83.0555 -497.355 0)
(45692.2 -713.54 0)
(-50638.5 -11568 0)
(42584 -8209.75 0)
(-38083.6 -603.3 0)
(535.552 -633.916 0)
(711.834 -671.258 0)
(688.429 -680.478 0)
(585.652 -591.391 0)
(394.839 -552.706 0)
(238.952 -479.886 0)
(113.211 -396.717 0)
(-19.3767 -367.078 0)
(-87.4645 -330.684 0)
(-118.723 -291.246 0)
(-126.862 -264.961 0)
(-105.924 -232.578 0)
(-86.0672 -204.351 0)
(-62.9241 -177.931 0)
(-47.5033 -155.889 0)
(-37.4192 -138.753 0)
(-35.952 -127.33 0)
(-35.5325 -120.504 0)
(-33.5729 -115.827 0)
(-42.7662 -114.627 0)
(-52.4665 -118.454 0)
(-59.3876 -125.055 0)
(-64.8459 -135.957 0)
(-70.9315 -148.642 0)
(-68.063 -165.108 0)
(-71.4638 -181.797 0)
(-81.5567 -202.075 0)
(-90.3549 -238.036 0)
(-154.536 -266.283 0)
(-212.893 -318.253 0)
(-304.868 -363.295 0)
(-431.486 -443.912 0)
(-493.493 -526.941 0)
(-450.388 -592.912 0)
(-282.833 -638.315 0)
(34.2589 -658.254 0)
(40328 -711.873 0)
(-44559.6 -11499.9 0)
(38162.6 -8598.81 0)
(-34391.6 -629.707 0)
(504.396 -657.504 0)
(685.117 -701.022 0)
(712.601 -698.464 0)
(644.107 -647.902 0)
(472.044 -594.294 0)
(343.284 -498.753 0)
(178.279 -439.334 0)
(15.5252 -410.329 0)
(-47.8273 -356.715 0)
(-86.8327 -324.924 0)
(-98.0646 -294.849 0)
(-77.156 -258.725 0)
(-60.5985 -229.826 0)
(-41.508 -201.314 0)
(-31.5217 -178.374 0)
(-27.2053 -158.479 0)
(-30.1359 -142.962 0)
(-30.4468 -133.856 0)
(-28.7533 -131.244 0)
(-40.7305 -133.66 0)
(-53.7233 -141.358 0)
(-64.5367 -151.232 0)
(-73.8956 -165.184 0)
(-83.7255 -179.567 0)
(-84.745 -196.24 0)
(-92.4593 -214.975 0)
(-114.183 -234.891 0)
(-129.206 -274.178 0)
(-198.663 -305.933 0)
(-260.873 -358.631 0)
(-366.963 -411.398 0)
(-510.039 -480.903 0)
(-566.286 -553.855 0)
(-508.054 -598.434 0)
(-319.857 -638.027 0)
(12.1731 -643.585 0)
(35244.8 -668.358 0)
(-38709 -11118.4 0)
(33550.2 -7643.84 0)
(-30431 -469.539 0)
(466.83 -528.751 0)
(672.363 -584.578 0)
(739.617 -591.346 0)
(686.034 -575.1 0)
(538.565 -519.496 0)
(388.277 -433.703 0)
(198.419 -454.141 0)
(60.2382 -421.513 0)
(-5.16484 -368.526 0)
(-59.107 -352.669 0)
(-63.0702 -329.818 0)
(-43.2647 -297.778 0)
(-30.7435 -270.913 0)
(-13.3433 -242.135 0)
(-6.22656 -217.676 0)
(-3.2955 -196.551 0)
(-12.2239 -177.653 0)
(-24.2402 -166.845 0)
(-33.3839 -166.64 0)
(-52.5124 -171.426 0)
(-69.3996 -182.967 0)
(-82.3475 -197.003 0)
(-92.1502 -213.885 0)
(-100.858 -229.597 0)
(-102.183 -242.294 0)
(-108.709 -257.316 0)
(-138.607 -268.832 0)
(-158.814 -297.479 0)
(-235.918 -314.173 0)
(-314.522 -342.929 0)
(-422.694 -376.224 0)
(-568.763 -413.351 0)
(-606.75 -465.665 0)
(-531.499 -488.171 0)
(-326.342 -502.911 0)
(5.0305 -478.645 0)
(30234 -478.152 0)
(-33100.7 -9356.38 0)
(30353 -7258.11 0)
(-27535.2 -137.996 0)
(393.539 -215.7 0)
(624.798 -332.353 0)
(721.734 -390.314 0)
(713.344 -403.938 0)
(608.3 -373.359 0)
(406.263 -322.999 0)
(190.026 -363.489 0)
(98.0273 -344.605 0)
(18.5133 -323.651 0)
(-49.5325 -318.243 0)
(-45.1697 -299.108 0)
(-20.3934 -279.029 0)
(-6.97832 -259.987 0)
(9.79351 -237.351 0)
(12.4048 -213.827 0)
(11.3626 -192.266 0)
(-1.51019 -172.583 0)
(-19.8345 -161.898 0)
(-33.1682 -161.918 0)
(-56.4639 -168.335 0)
(-78.3702 -182.052 0)
(-94.3307 -195.627 0)
(-105.305 -208.693 0)
(-111.101 -217.09 0)
(-111.455 -218.818 0)
(-118.032 -223.686 0)
(-152.886 -220.6 0)
(-172.898 -232.258 0)
(-242.461 -231.284 0)
(-320.666 -232.094 0)
(-434.824 -238.56 0)
(-596.228 -249.091 0)
(-638.385 -276.153 0)
(-543.945 -283.425 0)
(-310.677 -265.895 0)
(36.0321 -227.575 0)
(26689.9 -146.643 0)
(-29325.2 -8565.35 0)
(26817.7 24103.8 0)
(-23644.7 1955.43 0)
(279.54 582.123 0)
(504.099 295.005 0)
(670.635 191.301 0)
(702.373 138.467 0)
(616.561 158.324 0)
(397.787 306.288 0)
(177.599 663.145 0)
(98.6276 1167.77 0)
(20.2384 1822.85 0)
(-35.4564 2350.27 0)
(-25.2824 2820.81 0)
(-5.56585 3138.05 0)
(9.41864 3374.21 0)
(31.1379 3514.6 0)
(37.219 3619.02 0)
(36.4485 3632.54 0)
(17.0405 3675.83 0)
(-13.9626 3584 0)
(-39.587 3582.18 0)
(-71.9147 3681.55 0)
(-95.6997 3644.22 0)
(-108.019 3641.81 0)
(-112.833 3539.01 0)
(-110.615 3418.2 0)
(-108.54 3208.68 0)
(-110.427 2892.13 0)
(-146.867 2538.34 0)
(-169.109 1929.15 0)
(-235.759 1380.29 0)
(-321.534 844.309 0)
(-439.073 473.121 0)
(-604.988 265.971 0)
(-639.836 167.438 0)
(-521.615 132.19 0)
(-272.522 145.299 0)
(119.946 243.226 0)
(22199.5 1656.47 0)
(-25203.1 22589.8 0)
(54333.8 622150 0)
(-50201.6 54623.1 0)
(-1206.51 27292 0)
(248.187 32004.7 0)
(570.888 35863.6 0)
(681.567 41152 0)
(770.018 46386.5 0)
(892.726 51784 0)
(1020.18 56914 0)
(1215.56 61820.6 0)
(1158.01 66338.9 0)
(912.143 70540.3 0)
(713.96 74438.7 0)
(512.883 77752.5 0)
(355.878 80500.4 0)
(245.701 82739.6 0)
(126.064 84445.1 0)
(66.1074 85984.1 0)
(-48.2853 86730.6 0)
(-110.083 87202.7 0)
(60.8292 87175.1 0)
(3.32088 86584.3 0)
(-116.659 85831.6 0)
(-195.713 84045.8 0)
(-320.791 82427.7 0)
(-429.419 79790.8 0)
(-618.395 77107.8 0)
(-763.996 73396.4 0)
(-1080.85 69451.3 0)
(-1288.84 64867.4 0)
(-1287.85 60017.7 0)
(-1194.85 54831.9 0)
(-992.131 49326.3 0)
(-890.795 43622.9 0)
(-767.301 38083.6 0)
(-565.279 32514 0)
(-203.678 28496.6 0)
(1492.26 23387.7 0)
(48223.8 48603.2 0)
(-51326.8 574447 0)
(673923 -697480 0)
(-596872 -58562.3 0)
(-21516.4 -32021.2 0)
(8763.92 -36599.1 0)
(9485.27 -40880.2 0)
(10842.7 -46887.7 0)
(10862 -52829.7 0)
(10542.4 -58982.4 0)
(9849.2 -64703.5 0)
(9180.8 -70234.2 0)
(8422.87 -75449.7 0)
(7769.85 -80120.2 0)
(6924.7 -84404.3 0)
(5835.67 -87997.2 0)
(4815.17 -90938 0)
(3832.43 -93320.9 0)
(3163.69 -95136.8 0)
(2238.79 -96738.3 0)
(1191.32 -97543.2 0)
(414.402 -97948.2 0)
(-635.52 -97887.3 0)
(-1366.62 -97304.9 0)
(-2541.9 -96438.8 0)
(-3388.08 -94511.6 0)
(-4213.03 -92703 0)
(-5237.11 -89808.7 0)
(-6270.45 -86825.7 0)
(-7488.48 -82674.5 0)
(-8365.74 -78256.4 0)
(-9259.71 -72856.9 0)
(-9906.29 -67269.2 0)
(-10624.1 -61190.3 0)
(-11240.5 -54921.1 0)
(-11438.9 -48373.3 0)
(-11344.7 -41989.2 0)
(-9759.91 -35697.4 0)
(-9066.96 -31351.3 0)
(19495.4 -26587.3 0)
(553220 -51758.1 0)
(-619974 -644905 0)
(673923 697480 0)
(-596872 58562.3 0)
(-21516.4 32021.2 0)
(8763.92 36599.1 0)
(9485.27 40880.2 0)
(10842.7 46887.7 0)
(10862 52829.7 0)
(10542.4 58982.4 0)
(9849.2 64703.5 0)
(9180.8 70234.2 0)
(8422.87 75449.7 0)
(7769.85 80120.2 0)
(6924.7 84404.3 0)
(5835.67 87997.2 0)
(4815.17 90938 0)
(3832.43 93320.9 0)
(3163.69 95136.8 0)
(2238.79 96738.3 0)
(1191.32 97543.2 0)
(414.402 97948.2 0)
(-635.52 97887.3 0)
(-1366.62 97304.9 0)
(-2541.9 96438.8 0)
(-3388.08 94511.6 0)
(-4213.03 92703 0)
(-5237.11 89808.7 0)
(-6270.45 86825.7 0)
(-7488.48 82674.5 0)
(-8365.74 78256.4 0)
(-9259.71 72856.9 0)
(-9906.29 67269.2 0)
(-10624.1 61190.3 0)
(-11240.5 54921.1 0)
(-11438.9 48373.3 0)
(-11344.7 41989.2 0)
(-9759.91 35697.4 0)
(-9066.96 31351.3 0)
(19495.4 26587.3 0)
(553220 51758.1 0)
(-619974 644905 0)
(54333.8 -622150 0)
(-50201.6 -54623.1 0)
(-1206.51 -27292 0)
(248.187 -32004.7 0)
(570.888 -35863.6 0)
(681.567 -41152 0)
(770.018 -46386.5 0)
(892.726 -51784 0)
(1020.18 -56914 0)
(1215.56 -61820.6 0)
(1158.01 -66338.9 0)
(912.143 -70540.3 0)
(713.96 -74438.7 0)
(512.883 -77752.5 0)
(355.878 -80500.4 0)
(245.701 -82739.6 0)
(126.064 -84445.1 0)
(66.1074 -85984.1 0)
(-48.2853 -86730.6 0)
(-110.083 -87202.7 0)
(60.8292 -87175.1 0)
(3.32088 -86584.3 0)
(-116.659 -85831.6 0)
(-195.713 -84045.8 0)
(-320.791 -82427.7 0)
(-429.419 -79790.8 0)
(-618.395 -77107.8 0)
(-763.996 -73396.4 0)
(-1080.85 -69451.3 0)
(-1288.84 -64867.4 0)
(-1287.85 -60017.7 0)
(-1194.85 -54831.9 0)
(-992.131 -49326.3 0)
(-890.795 -43622.9 0)
(-767.301 -38083.6 0)
(-565.279 -32514 0)
(-203.678 -28496.6 0)
(1492.26 -23387.7 0)
(48223.8 -48603.2 0)
(-51326.8 -574447 0)
(26817.7 -24103.8 0)
(-23644.7 -1955.43 0)
(279.54 -582.123 0)
(504.099 -295.005 0)
(670.635 -191.301 0)
(702.373 -138.467 0)
(616.561 -158.324 0)
(397.787 -306.288 0)
(177.599 -663.145 0)
(98.6276 -1167.77 0)
(20.2384 -1822.85 0)
(-35.4564 -2350.27 0)
(-25.2824 -2820.81 0)
(-5.56585 -3138.05 0)
(9.41864 -3374.21 0)
(31.1379 -3514.6 0)
(37.219 -3619.02 0)
(36.4485 -3632.54 0)
(17.0405 -3675.83 0)
(-13.9626 -3584 0)
(-39.587 -3582.18 0)
(-71.9147 -3681.55 0)
(-95.6997 -3644.22 0)
(-108.019 -3641.81 0)
(-112.833 -3539.01 0)
(-110.615 -3418.2 0)
(-108.54 -3208.68 0)
(-110.427 -2892.13 0)
(-146.867 -2538.34 0)
(-169.109 -1929.15 0)
(-235.759 -1380.29 0)
(-321.534 -844.309 0)
(-439.073 -473.121 0)
(-604.988 -265.971 0)
(-639.836 -167.438 0)
(-521.615 -132.19 0)
(-272.522 -145.299 0)
(119.946 -243.226 0)
(22199.5 -1656.47 0)
(-25203.1 -22589.8 0)
(30353 7258.11 0)
(-27535.2 137.996 0)
(393.539 215.7 0)
(624.798 332.353 0)
(721.734 390.314 0)
(713.344 403.938 0)
(608.3 373.359 0)
(406.263 322.999 0)
(190.026 363.489 0)
(98.0273 344.605 0)
(18.5133 323.651 0)
(-49.5325 318.243 0)
(-45.1697 299.108 0)
(-20.3934 279.029 0)
(-6.97832 259.987 0)
(9.79351 237.351 0)
(12.4048 213.827 0)
(11.3626 192.266 0)
(-1.51019 172.583 0)
(-19.8345 161.898 0)
(-33.1682 161.918 0)
(-56.4639 168.335 0)
(-78.3702 182.052 0)
(-94.3307 195.627 0)
(-105.305 208.693 0)
(-111.101 217.09 0)
(-111.455 218.818 0)
(-118.032 223.686 0)
(-152.886 220.6 0)
(-172.898 232.258 0)
(-242.461 231.284 0)
(-320.666 232.094 0)
(-434.824 238.56 0)
(-596.228 249.091 0)
(-638.385 276.153 0)
(-543.945 283.425 0)
(-310.677 265.895 0)
(36.0321 227.575 0)
(26689.9 146.643 0)
(-29325.2 8565.35 0)
(33550.2 7643.84 0)
(-30431 469.539 0)
(466.83 528.751 0)
(672.363 584.578 0)
(739.617 591.346 0)
(686.034 575.1 0)
(538.565 519.496 0)
(388.277 433.703 0)
(198.419 454.141 0)
(60.2382 421.513 0)
(-5.16484 368.526 0)
(-59.107 352.669 0)
(-63.0702 329.818 0)
(-43.2647 297.778 0)
(-30.7435 270.913 0)
(-13.3433 242.135 0)
(-6.22656 217.676 0)
(-3.29549 196.551 0)
(-12.2239 177.653 0)
(-24.2402 166.845 0)
(-33.3839 166.64 0)
(-52.5124 171.426 0)
(-69.3996 182.967 0)
(-82.3475 197.003 0)
(-92.1502 213.885 0)
(-100.858 229.597 0)
(-102.183 242.294 0)
(-108.709 257.316 0)
(-138.607 268.832 0)
(-158.814 297.479 0)
(-235.918 314.173 0)
(-314.522 342.929 0)
(-422.694 376.224 0)
(-568.763 413.351 0)
(-606.75 465.665 0)
(-531.499 488.171 0)
(-326.342 502.911 0)
(5.0305 478.645 0)
(30234 478.152 0)
(-33100.7 9356.38 0)
(38162.6 8598.81 0)
(-34391.6 629.707 0)
(504.396 657.504 0)
(685.117 701.022 0)
(712.601 698.464 0)
(644.107 647.902 0)
(472.044 594.294 0)
(343.284 498.753 0)
(178.279 439.334 0)
(15.5252 410.329 0)
(-47.8273 356.715 0)
(-86.8327 324.924 0)
(-98.0646 294.849 0)
(-77.156 258.725 0)
(-60.5985 229.826 0)
(-41.508 201.314 0)
(-31.5217 178.374 0)
(-27.2053 158.479 0)
(-30.1359 142.962 0)
(-30.4468 133.856 0)
(-28.7533 131.244 0)
(-40.7305 133.66 0)
(-53.7233 141.358 0)
(-64.5367 151.232 0)
(-73.8956 165.184 0)
(-83.7255 179.567 0)
(-84.745 196.24 0)
(-92.4593 214.975 0)
(-114.183 234.891 0)
(-129.206 274.178 0)
(-198.663 305.933 0)
(-260.873 358.631 0)
(-366.963 411.398 0)
(-510.039 480.903 0)
(-566.286 553.855 0)
(-508.054 598.434 0)
(-319.857 638.027 0)
(12.1731 643.585 0)
(35244.8 668.358 0)
(-38709 11118.4 0)
(42584 8209.75 0)
(-38083.6 603.3 0)
(535.552 633.916 0)
(711.834 671.258 0)
(688.429 680.478 0)