/*--------------------------------*- C++ -*----------------------------------*\
| =========                 |                                                 |
| \\      /  F ield         | OpenFOAM: The Open Source CFD Toolbox           |
|  \\    /   O peration     | Version:  v1912                                 |
|   \\  /    A nd           | Website:  www.openfoam.com                      |
|    \\/     M anipulation  |                                                 |
\*---------------------------------------------------------------------------*/
FoamFile
{
    version     2.0;
    format      ascii;
    class       volTensorField;
    location    "2.74";
    object      grad(U);
}
// * * * * * * * * * * * * * * * * * * * * * * * * * * * * * * * * * * * * * //

dimensions      [0 0 -1 0 0 0 0];


internalField   nonuniform List<tensor> 
1900
(
(-2.18052 -1.20326e-05 0 -1.12044e-05 -7.36751e-06 0 0 0 0)
(1.54368 -3.5694e-06 0 -3.94603e-05 -1.41819e-05 0 0 0 0)
(-0.0414486 3.64421e-05 0 -5.53263e-05 -2.82581e-05 0 0 0 0)
(-0.0454846 0.000431945 0 -5.46703e-05 6.99326e-05 0 0 0 0)
(-0.0434581 0.00148943 0 0.000253948 0.000831293 0 0 0 0)
(-0.0450182 0.00217361 0 0.00153556 0.00304817 0 0 0 0)
(-0.0456517 -0.00498208 0 0.00486016 0.00531315 0 0 0 0)
(-0.0415739 -0.0242602 0 0.0077151 -0.00414762 0 0 0 0)
(0.024075 -0.0769929 0 -0.00138988 -0.0340515 0 0 0 0)
(0.0118175 -0.23307 0 -0.0713211 -0.146939 0 0 0 0)
(-2.18057 -9.51677e-06 0 -1.27068e-05 5.49491e-06 0 0 0 0)
(1.54363 -1.73212e-05 0 -5.86559e-05 6.53774e-06 0 0 0 0)
(-0.0414638 4.76724e-05 0 -7.40387e-05 9.06431e-06 0 0 0 0)
(-0.0451753 0.000427606 0 2.08152e-05 -2.99044e-05 0 0 0 0)
(-0.0418679 0.00148881 0 0.00062049 -0.00042288 0 0 0 0)
(-0.040412 0.00230825 0 0.0025805 -0.00151933 0 0 0 0)
(-0.0394722 -0.0022137 0 0.00670046 -0.00259649 0 0 0 0)
(-0.0478239 -0.0151044 0 0.00907252 0.00346275 0 0 0 0)
(-0.0549613 -0.0657984 0 -0.00307915 0.0216637 0 0 0 0)
(-0.146697 -0.163963 0 -0.104189 0.0804557 0 0 0 0)
(-2.18059 -3.0949e-13 0 3.57787e-14 3.74519e-06 0 0 0 0)
(1.54362 5.69827e-14 0 5.93601e-14 1.52883e-05 0 0 0 0)
(-0.0413692 3.1012e-13 0 9.21572e-15 3.83876e-05 0 0 0 0)
(-0.04479 3.40776e-13 0 1.93937e-13 -8.00565e-05 0 0 0 0)
(-0.0408984 -1.74355e-15 0 3.75405e-14 -0.000816825 0 0 0 0)
(-0.0389383 -2.52748e-13 0 -3.36103e-14 -0.00305768 0 0 0 0)
(-0.0391597 -7.80125e-14 0 -2.19415e-13 -0.00543332 0 0 0 0)
(-0.0513535 -2.53867e-14 0 -1.32679e-13 0.00136973 0 0 0 0)
(-0.0891865 -1.80113e-13 0 -2.27682e-14 0.0247755 0 0 0 0)
(-0.197347 -4.69009e-14 0 3.30682e-14 0.132966 0 0 0 0)
(-2.18057 9.51677e-06 0 1.27068e-05 5.49491e-06 0 0 0 0)
(1.54363 1.73212e-05 0 5.86559e-05 6.53774e-06 0 0 0 0)
(-0.0414638 -4.76724e-05 0 7.40387e-05 9.06431e-06 0 0 0 0)
(-0.0451753 -0.000427606 0 -2.08152e-05 -2.99044e-05 0 0 0 0)
(-0.0418679 -0.00148881 0 -0.00062049 -0.00042288 0 0 0 0)
(-0.040412 -0.00230825 0 -0.0025805 -0.00151933 0 0 0 0)
(-0.0394722 0.0022137 0 -0.00670046 -0.00259649 0 0 0 0)
(-0.0478239 0.0151044 0 -0.00907252 0.00346275 0 0 0 0)
(-0.0549613 0.0657984 0 0.00307915 0.0216637 0 0 0 0)
(-0.146697 0.163963 0 0.104189 0.0804557 0 0 0 0)
(-2.18052 1.20326e-05 0 1.12044e-05 -7.36751e-06 0 0 0 0)
(1.54368 3.5694e-06 0 3.94603e-05 -1.41819e-05 0 0 0 0)
(-0.0414486 -3.64421e-05 0 5.53263e-05 -2.82581e-05 0 0 0 0)
(-0.0454846 -0.000431945 0 5.46703e-05 6.99326e-05 0 0 0 0)
(-0.0434581 -0.00148943 0 -0.000253948 0.000831293 0 0 0 0)
(-0.0450182 -0.00217361 0 -0.00153556 0.00304817 0 0 0 0)
(-0.0456517 0.00498208 0 -0.00486016 0.00531315 0 0 0 0)
(-0.0415739 0.0242602 0 -0.0077151 -0.00414762 0 0 0 0)
(0.024075 0.0769929 0 0.00138988 -0.0340515 0 0 0 0)
(0.0118175 0.23307 0 0.0713211 -0.146939 0 0 0 0)
(-0.148537 -0.395285 1.36947e-17 -0.229501 0.184268 -2.0542e-17 -5.90052e-17 -6.98091e-17 3.71195e-33)
(-0.290424 -0.482593 0 -0.320248 0.305184 0 1.56828e-16 5.76888e-17 0)
(-0.381077 -0.579108 0 -0.475439 0.329168 0 2.47861e-16 1.06863e-16 0)
(-1.23875 -0.377215 0 -1.1386 0.627081 0 0 0 0)
(0.241345 -1.99064 -4.90703e-16 -3.84341 4.20512 7.36055e-16 1.87994e-15 1.25329e-15 1.33005e-31)
(-0.295129 -0.237341 0 -0.206189 0.237351 0 -1.00476e-16 -3.65118e-17 0)
(-0.496836 -0.321478 0 -0.254672 0.377226 0 -1.56828e-16 -5.76888e-17 0)
(-0.839922 -0.476867 0 -0.52545 0.680115 0 -2.47861e-16 -1.06863e-16 0)
(-1.55107 -0.370268 0 -1.21872 1.20668 0 0 0 0)
(-1.12294 0.302144 0 -1.46005 1.43121 0 0 0 0)
(-0.366659 6.65197e-15 0 -4.95944e-14 0.333526 0 0 0 0)
(-0.63165 3.3957e-13 0 -1.59004e-13 0.522552 0 0 0 0)
(-1.11472 1.06256e-13 0 1.52089e-13 1.00531 0 0 0 0)
(-1.89747 -1.15472e-13 0 -2.24849e-13 1.82526 0 0 0 0)
(-1.4042 2.47535e-13 0 -3.54947e-14 2.59885 0 0 0 0)
(-0.295129 0.237341 0 0.206189 0.237351 0 -1.00476e-16 3.65118e-17 0)
(-0.496836 0.321478 0 0.254672 0.377226 0 -1.56828e-16 5.76888e-17 0)
(-0.839922 0.476867 0 0.52545 0.680115 0 -2.47861e-16 1.06863e-16 0)
(-1.55107 0.370268 0 1.21872 1.20668 0 0 0 0)
(-1.12294 -0.302144 0 1.46005 1.43121 0 0 0 0)
(-0.148537 0.395285 -1.36947e-17 0.229501 0.184268 -2.0542e-17 2.59957e-16 -1.42833e-16 3.71195e-33)
(-0.290424 0.482593 0 0.320248 0.305184 0 1.56828e-16 -5.76888e-17 0)
(-0.381077 0.579108 0 0.475439 0.329168 0 2.47861e-16 -1.06863e-16 0)
(-1.23875 0.377215 -4.01188e-17 1.1386 0.627081 -6.01782e-17 7.44411e-16 -4.96274e-16 1.08742e-32)
(0.241345 1.99064 4.90703e-16 3.84341 4.20512 7.36055e-16 -1.87994e-15 1.25329e-15 1.33005e-31)
(0.104299 0.537247 3.27808e-18 -0.489426 -1.12053 2.95027e-17 -1.1697e-15 9.45823e-17 -8.88525e-34)
(0.65959 -0.0200474 -9.36352e-19 -0.208501 -0.516816 -8.42717e-18 7.99186e-16 -7.2536e-17 -2.53799e-34)
(0.361779 0.0615018 0 0.114937 -0.305068 0 0 0 0)
(-0.196533 0.437727 -1.42474e-18 0.701261 0.306003 -1.28226e-17 -4.74869e-16 6.43256e-17 3.86176e-34)
(-1.21362 0.508604 5.44899e-18 2.26476 1.73614 4.90409e-17 2.76181e-16 -3.06868e-17 1.47695e-33)
(0.430462 0.520086 0 -0.587942 -0.575458 0 5.92221e-16 -3.04178e-17 0)
(0.799996 -0.0297157 0 -0.206692 -0.591419 0 -4.02733e-16 2.84856e-17 0)
(0.669684 0.0900156 0 0.280183 -0.507418 0 0 0 0)
(0.662385 0.495348 0 1.08296 -0.670351 0 2.75439e-16 -4.09162e-17 0)
(1.25153 0.411018 0 3.36685 -1.32364 0 -2.66438e-17 1.07774e-17 0)
(0.552043 3.08227e-13 0 4.49013e-13 -0.869076 0 0 0 0)
(0.914221 4.97547e-13 0 1.42012e-12 -0.708841 0 0 0 0)
(0.837504 4.59313e-13 0 3.44937e-12 -0.600611 0 0 0 0)
(1.12912 2.64597e-13 0 5.89668e-12 -1.10118 0 -9.71297e-17 4.35302e-29 0)
(1.90027 -2.56674e-13 0 8.74891e-12 -2.86284 0 5.32877e-17 -4.83383e-29 0)
(0.430462 -0.520086 0 0.587942 -0.575458 0 5.92221e-16 3.04178e-17 0)
(0.799996 0.0297157 0 0.206692 -0.591419 0 -4.02733e-16 -2.84856e-17 0)
(0.669684 -0.0900156 0 -0.280183 -0.507418 0 0 0 0)
(0.662385 -0.495348 0 -1.08296 -0.670351 0 2.75439e-16 4.09162e-17 0)
(1.25153 -0.411018 0 -3.36685 -1.32364 0 -2.66438e-17 -1.07774e-17 0)
(0.104299 -0.537247 0 0.489426 -1.12053 0 -5.92221e-16 -3.04178e-17 0)
(0.65959 0.0200474 9.36352e-19 0.208501 -0.516816 -8.42717e-18 6.27937e-18 -1.55648e-17 -2.53799e-34)
(0.361779 -0.0615018 0 -0.114937 -0.305068 0 0 0 0)
(-0.196533 -0.437727 1.42474e-18 -0.701261 0.306003 -1.28226e-17 2.11197e-17 -9.21581e-18 3.86176e-34)
(-1.21362 -0.508604 -5.44899e-18 -2.26476 1.73614 4.90409e-17 -2.76181e-16 -3.06868e-17 1.47695e-33)
(0.646497 -0.891643 0 10.3097 -0.138128 0 0 0 0)
(1.45034 -1.07138 0 5.76816 0.628701 0 0 0 0)
(-0.665177 0.1291 0 2.9743 0.977224 0 0 0 0)
(-0.693842 0.50369 0 0.767409 0.886318 0 0 0 0)
(-0.32749 0.27341 0 0.12008 0.557765 0 0 0 0)
(-0.121679 0.0662566 0 0.0295259 0.424235 0 0 0 0)
(-0.00615146 0.0178135 0 0.0174373 0.384911 0 0 0 0)
(0.0612259 0.0101668 0 -0.00326347 0.365863 0 0 0 0)
(0.113074 0.00359246 0 1.08553e-05 0.35399 0 0 0 0)
(0.143703 -0.00132469 0 0.000959418 0.355053 0 0 0 0)
(0.171987 -0.000527611 0 0.00023467 0.355249 0 0 0 0)
(0.195549 -0.00113124 0 -0.000358197 0.356485 0 0 0 0)
(0.213508 -0.00161046 0 -0.00103459 0.358927 0 0 0 0)
(0.225406 -0.00183975 0 -0.00152515 0.361937 0 0 0 0)
(0.233733 -0.00196884 0 -0.00169959 0.365345 0 0 0 0)
(0.244305 -0.00195653 0 -0.00162673 0.368822 0 0 0 0)
(0.264877 -0.00177629 0 -0.00137249 0.372129 0 0 0 0)
(0.295361 -0.00119843 0 -0.00101616 0.374891 0 0 0 0)
(0.343827 -0.00129973 0 -0.000586843 0.376195 0 0 0 0)
(0.351715 -0.000693817 0 -0.00011288 0.379281 0 0 0 0)
(0.352917 0.00122267 0 0.00058244 0.378538 0 0 0 0)
(0.346822 0.00158023 0 0.0010999 0.375154 0 0 0 0)
(0.300818 0.00156057 0 0.00148696 0.373146 0 0 0 0)
(0.274275 0.00212844 0 0.00176613 0.369801 0 0 0 0)
(0.258542 0.00240089 0 0.00190378 0.365859 0 0 0 0)
(0.254733 0.00260985 0 0.00191358 0.361543 0 0 0 0)
(0.256315 0.00283132 0 0.00185296 0.356869 0 0 0 0)
(0.258474 0.00307446 0 0.00178224 0.351819 0 0 0 0)
(0.258559 0.0033377 0 0.00172559 0.346383 0 0 0 0)
(0.255457 0.00362013 0 0.0016786 0.34056 0 0 0 0)
(0.248752 0.00393009 0 0.00161963 0.334356 0 0 0 0)
(0.238882 0.00422943 0 0.00152876 0.327752 0 0 0 0)
(0.227995 0.00460864 0 0.00131782 0.320916 0 0 0 0)
(0.219078 0.00470485 0 0.00110421 0.313376 0 0 0 0)
(0.21114 0.00581368 0 0.000476826 0.306815 0 0 0 0)
(0.192396 0.00403796 0 0.00271816 0.295468 0 0 0 0)
(0.14388 0.00911438 0 -0.00140613 0.294714 0 0 0 0)
(0.287737 0.0220674 0 0.00143605 0.270246 0 0 0 0)
(2.39283 0.0388906 0 0.00546468 0.229614 0 0 0 0)
(2.15999 0.0254346 0 0.00697506 0.14893 0 0 0 0)
(1.51589 -0.767822 0 9.31234 -1.32727 0 0 0 0)
(-0.0325242 -0.918806 0 5.16728 1.82273 0 0 0 0)
(-1.6623 0.151009 0 2.81806 2.35558 0 0 0 0)
(-1.24919 0.389376 0 0.664763 1.37895 0 0 0 0)
(-0.460209 0.166774 0 0.00392902 0.624151 0 0 0 0)
(-0.129054 0.0340388 0 -0.027138 0.439101 0 0 0 0)
(-0.00667427 0.00877531 0 -0.0258322 0.396394 0 0 0 0)
(0.0615324 0.00509879 0 -0.0291497 0.377867 0 0 0 0)
(0.114366 0.00168983 0 -0.0241491 0.361446 0 0 0 0)
(0.14434 -0.000723671 0 -0.0222158 0.365518 0 0 0 0)
(0.172314 -0.000241757 0 -0.0207293 0.365999 0 0 0 0)
(0.195814 -0.00056639 0 -0.0188418 0.367331 0 0 0 0)
(0.213726 -0.000808271 0 -0.01713 0.369888 0 0 0 0)
(0.225681 -0.000910938 0 -0.0154248 0.372867 0 0 0 0)
(0.234116 -0.000968382 0 -0.013514 0.376212 0 0 0 0)
(0.244797 -0.00096128 0 -0.0113481 0.379635 0 0 0 0)
(0.265461 -0.000876191 0 -0.00894465 0.382938 0 0 0 0)
(0.296015 -0.000592682 0 -0.00638079 0.385741 0 0 0 0)
(0.344534 -0.000654538 0 -0.00374041 0.387057 0 0 0 0)
(0.352437 -0.000353774 0 -0.00109138 0.390209 0 0 0 0)
(0.353635 0.000616566 0 0.00141891 0.389442 0 0 0 0)
(0.347501 0.000790531 0 0.00405443 0.386006 0 0 0 0)
(0.30142 0.000769756 0 0.0066125 0.38401 0 0 0 0)
(0.274804 0.00104893 0 0.00909697 0.380642 0 0 0 0)
(0.259005 0.00117862 0 0.0114876 0.376694 0 0 0 0)
(0.255143 0.00127753 0 0.0137943 0.372389 0 0 0 0)
(0.256682 0.00138404 0 0.0160354 0.367722 0 0 0 0)
(0.258795 0.00150348 0 0.0182141 0.362656 0 0 0 0)
(0.258817 0.00163654 0 0.0203033 0.357154 0 0 0 0)
(0.255626 0.00178498 0 0.0222528 0.351183 0 0 0 0)
(0.248804 0.00195518 0 0.0239968 0.34471 0 0 0 0)
(0.238779 0.0021317 0 0.0254629 0.337673 0 0 0 0)
(0.22773 0.002354 0 0.0265252 0.330171 0 0 0 0)
(0.218597 0.00245628 0 0.0272017 0.321831 0 0 0 0)
(0.210767 0.00303501 0 0.027156 0.313998 0 0 0 0)
(0.191526 0.00215378 0 0.028288 0.301846 0 0 0 0)
(0.142877 0.00484446 0 0.0254142 0.300118 0 0 0 0)
(0.287578 0.0113157 0 0.0249636 0.270516 0 0 0 0)
(2.39153 0.0194835 0 0.0204937 0.224261 0 0 0 0)
(2.15866 0.0126831 0 0.00101399 0.136829 0 0 0 0)
(1.6056 -7.00845e-13 0 8.52824e-12 -3.00994 0 0 0 0)
(-0.438908 -5.25341e-13 0 3.15503e-12 2.62213 0 0 0 0)
(-1.975 5.59253e-14 0 8.81222e-13 3.30685 0 0 0 0)
(-1.5125 2.58654e-13 0 -6.60378e-13 1.58394 0 0 0 0)
(-0.52877 4.91366e-13 0 -1.04478e-13 0.629885 0 0 0 0)
(-0.130337 1.02108e-12 0 8.87075e-13 0.437377 0 0 0 0)
(-0.0067367 1.56393e-12 0 3.99972e-12 0.395868 0 0 0 0)
(0.0617155 -1.52815e-12 0 4.47283e-12 0.377047 0 0 0 0)
(0.115091 -8.74458e-12 0 -3.27823e-12 0.360814 0 0 0 0)
(0.144697 -1.32634e-11 0 -1.23619e-11 0.365429 0 0 0 0)
(0.172969 -6.13644e-12 0 -1.6746e-11 0.365789 0 0 0 0)
(0.196596 1.45914e-11 0 -1.59486e-11 0.367091 0 0 0 0)
(0.214502 3.82484e-11 0 -9.71149e-12 0.369683 0 0 0 0)
(0.226458 4.61959e-11 0 2.74973e-11 0.372648 0 0 0 0)
(0.234919 1.51429e-11 0 9.87629e-11 0.375946 0 0 0 0)
(0.245634 3.70999e-11 0 8.22417e-11 0.379306 0 0 0 0)
(0.266322 1.46669e-10 0 -4.0081e-10 0.382555 0 0 0 0)
(0.296875 -1.39805e-10 0 -7.692e-10 0.38533 0 0 0 0)
(0.345366 -4.60926e-10 0 -5.39294e-10 0.386629 0 0 0 0)
(0.353216 5.58501e-11 0 -2.46098e-10 0.38983 0 0 0 0)
(0.354414 5.90239e-10 0 8.99547e-10 0.389061 0 0 0 0)
(0.348333 1.48816e-11 0 4.46883e-10 0.385591 0 0 0 0)
(0.302285 -2.55458e-10 0 -5.57394e-10 0.383627 0 0 0 0)
(0.275694 2.69455e-10 0 -7.40116e-10 0.380299 0 0 0 0)
(0.259908 1.95465e-10 0 2.63656e-10 0.376415 0 0 0 0)
(0.256056 1.40989e-11 0 4.35655e-10 0.372196 0 0 0 0)
(0.257601 1.59183e-10 0 -1.04107e-10 0.367632 0 0 0 0)
(0.259716 1.72947e-10 0 -3.81888e-10 0.36268 0 0 0 0)
(0.259734 -2.96183e-11 0 -3.34235e-10 0.357296 0 0 0 0)
(0.256531 -3.04464e-10 0 -9.85816e-11 0.351429 0 0 0 0)
(0.249685 -4.63619e-10 0 2.04165e-10 0.345024 0 0 0 0)
(0.239618 -5.82901e-10 0 7.41511e-10 0.337987 0 0 0 0)
(0.228501 -6.62434e-10 0 1.24515e-09 0.330369 0 0 0 0)
(0.219261 -7.63332e-10 0 1.68388e-09 0.321804 0 0 0 0)
(0.211456 -7.73883e-10 0 2.24214e-09 0.313482 0 0 0 0)
(0.191889 -5.68127e-10 0 3.19379e-09 0.300938 0 0 0 0)
(0.142912 1.18848e-10 0 3.62254e-09 0.298674 0 0 0 0)
(0.286305 1.0429e-09 0 3.46396e-09 0.267632 0 0 0 0)
(2.38586 8.96495e-10 0 2.74938e-09 0.220879 0 0 0 0)
(2.15432 2.05769e-10 0 -5.98539e-10 0.133683 0 0 0 0)
(1.51589 0.767822 0 -9.31234 -1.32727 0 0 0 0)
(-0.0325242 0.918806 0 -5.16728 1.82273 0 0 0 0)
(-1.6623 -0.151009 0 -2.81806 2.35558 0 0 0 0)
(-1.24919 -0.389376 0 -0.664763 1.37895 0 0 0 0)
(-0.460209 -0.166774 0 -0.00392902 0.624151 0 0 0 0)
(-0.129054 -0.0340388 0 0.027138 0.439101 0 0 0 0)
(-0.00667427 -0.00877531 0 0.0258322 0.396394 0 0 0 0)
(0.0615324 -0.00509879 0 0.0291497 0.377867 0 0 0 0)
(0.114366 -0.00168983 0 0.0241491 0.361446 0 0 0 0)
(0.14434 0.000723671 0 0.0222158 0.365518 0 0 0 0)
(0.172314 0.000241757 0 0.0207293 0.365999 0 0 0 0)
(0.195814 0.00056639 0 0.0188418 0.367331 0 0 0 0)
(0.213726 0.000808271 0 0.01713 0.369888 0 0 0 0)
(0.225681 0.000910938 0 0.0154248 0.372867 0 0 0 0)
(0.234116 0.000968382 0 0.013514 0.376212 0 0 0 0)
(0.244797 0.00096128 0 0.0113481 0.379635 0 0 0 0)
(0.265461 0.000876191 0 0.00894465 0.382938 0 0 0 0)
(0.296015 0.000592682 0 0.00638079 0.385741 0 0 0 0)
(0.344534 0.000654537 0 0.00374041 0.387057 0 0 0 0)
(0.352437 0.000353774 0 0.00109137 0.390209 0 0 0 0)
(0.353635 -0.000616564 0 -0.00141891 0.389442 0 0 0 0)
(0.347501 -0.000790531 0 -0.00405443 0.386006 0 0 0 0)
(0.30142 -0.000769757 0 -0.0066125 0.38401 0 0 0 0)
(0.274804 -0.00104893 0 -0.00909697 0.380642 0 0 0 0)
(0.259005 -0.00117862 0 -0.0114876 0.376694 0 0 0 0)
(0.255143 -0.00127753 0 -0.0137943 0.372389 0 0 0 0)
(0.256682 -0.00138404 0 -0.0160354 0.367722 0 0 0 0)
(0.258795 -0.00150348 0 -0.0182141 0.362656 0 0 0 0)
(0.258817 -0.00163654 0 -0.0203034 0.357154 0 0 0 0)
(0.255626 -0.00178498 0 -0.0222528 0.351183 0 0 0 0)
(0.248804 -0.00195518 0 -0.0239969 0.34471 0 0 0 0)
(0.238779 -0.0021317 0 -0.0254629 0.337673 0 0 0 0)
(0.22773 -0.002354 0 -0.0265252 0.330171 0 0 0 0)
(0.218597 -0.00245628 0 -0.0272017 0.321831 0 0 0 0)
(0.210767 -0.00303501 0 -0.027156 0.313998 0 0 0 0)
(0.191526 -0.00215379 0 -0.028288 0.301846 0 0 0 0)
(0.142877 -0.00484446 0 -0.0254142 0.300118 0 0 0 0)
(0.287578 -0.0113157 0 -0.0249636 0.270516 0 0 0 0)
(2.39153 -0.0194835 0 -0.0204937 0.224261 0 0 0 0)
(2.15866 -0.0126831 0 -0.00101399 0.136829 0 0 0 0)
(0.646497 0.891643 0 -10.3097 -0.138128 0 0 0 0)
(1.45034 1.07138 0 -5.76816 0.628701 0 0 0 0)
(-0.665177 -0.1291 0 -2.9743 0.977224 0 0 0 0)
(-0.693842 -0.50369 0 -0.767409 0.886318 0 0 0 0)
(-0.32749 -0.27341 0 -0.12008 0.557765 0 0 0 0)
(-0.121679 -0.0662566 0 -0.0295259 0.424235 0 0 0 0)
(-0.00615146 -0.0178135 0 -0.0174373 0.384911 0 0 0 0)
(0.0612259 -0.0101668 0 0.00326347 0.365863 0 0 0 0)
(0.113074 -0.00359246 0 -1.08553e-05 0.35399 0 0 0 0)
(0.143703 0.00132469 0 -0.000959418 0.355053 0 0 0 0)
(0.171987 0.000527611 0 -0.00023467 0.355249 0 0 0 0)
(0.195549 0.00113124 0 0.000358197 0.356485 0 0 0 0)
(0.213508 0.00161046 0 0.00103459 0.358927 0 0 0 0)
(0.225406 0.00183975 0 0.00152515 0.361937 0 0 0 0)
(0.233733 0.00196884 0 0.00169959 0.365345 0 0 0 0)
(0.244305 0.00195653 0 0.00162673 0.368822 0 0 0 0)
(0.264877 0.00177629 0 0.00137249 0.372129 0 0 0 0)
(0.295361 0.00119843 0 0.00101616 0.374891 0 0 0 0)
(0.343827 0.00129973 0 0.000586844 0.376195 0 0 0 0)
(0.351715 0.000693817 0 0.000112879 0.379281 0 0 0 0)
(0.352917 -0.00122267 0 -0.00058244 0.378538 0 0 0 0)
(0.346822 -0.00158023 0 -0.0010999 0.375154 0 0 0 0)
(0.300818 -0.00156057 0 -0.00148696 0.373146 0 0 0 0)
(0.274275 -0.00212843 0 -0.00176613 0.369801 0 0 0 0)
(0.258542 -0.00240089 0 -0.00190378 0.365859 0 0 0 0)
(0.254733 -0.00260985 0 -0.00191358 0.361543 0 0 0 0)
(0.256315 -0.00283132 0 -0.00185296 0.356869 0 0 0 0)
(0.258474 -0.00307446 0 -0.00178224 0.351819 0 0 0 0)
(0.258559 -0.0033377 0 -0.00172559 0.346383 0 0 0 0)
(0.255457 -0.00362013 0 -0.0016786 0.34056 0 0 0 0)
(0.248752 -0.00393009 0 -0.00161963 0.334356 0 0 0 0)
(0.238882 -0.00422943 0 -0.00152876 0.327752 0 0 0 0)
(0.227995 -0.00460864 0 -0.00131782 0.320916 0 0 0 0)
(0.219078 -0.00470485 0 -0.00110421 0.313376 0 0 0 0)
(0.21114 -0.00581368 0 -0.000476829 0.306815 0 0 0 0)
(0.192396 -0.00403796 0 -0.00271817 0.295468 0 0 0 0)
(0.14388 -0.00911438 0 0.00140613 0.294714 0 0 0 0)
(0.287737 -0.0220674 0 -0.00143606 0.270246 0 0 0 0)
(2.39283 -0.0388906 0 -0.00546468 0.229614 0 0 0 0)
(2.15999 -0.0254346 0 -0.00697506 0.14893 0 0 0 0)
(2.52024 1.18789 0 -3.72161 -0.0581172 0 0 0 0)
(2.85423 1.44203 0 -2.52308 0.278252 0 0 0 0)
(0.321614 -0.014746 0 -1.55599 0.377558 0 0 0 0)
(-0.100933 -0.520317 0 -0.575687 0.446442 0 0 0 0)
(-0.150812 -0.333328 0 -0.236456 0.434843 0 0 0 0)
(-0.0731978 -0.105213 0 -0.0957889 0.384965 0 0 0 0)
(0.0132891 -0.0349401 0 -0.0537297 0.352224 0 0 0 0)
(0.072818 -0.0186348 0 -0.0153361 0.335409 0 0 0 0)
(0.11321 -0.00627055 0 -0.0117407 0.331238 0 0 0 0)
(0.144938 0.000818578 0 -0.00837273 0.327766 0 0 0 0)
(0.173517 0.00080932 0 -0.00551984 0.327453 0 0 0 0)
(0.196918 0.00221987 0 -0.00328275 0.328619 0 0 0 0)
(0.21471 0.00330073 0 -0.00148859 0.331065 0 0 0 0)
(0.226416 0.0038632 0 -0.000205052 0.334216 0 0 0 0)
(0.234623 0.00413064 0 0.000599119 0.337743 0 0 0 0)
(0.245161 0.00406608 0 0.00103264 0.341283 0 0 0 0)
(0.265753 0.00364192 0 0.00112514 0.344585 0 0 0 0)
(0.296278 0.00244252 0 0.000931676 0.347307 0 0 0 0)
(0.344784 0.00266259 0 0.000540721 0.348632 0 0 0 0)
(0.352539 0.00143053 0 -3.34213e-06 0.351737 0 0 0 0)
(0.353705 -0.00250449 0 -0.000958783 0.351036 0 0 0 0)
(0.34772 -0.00325996 0 -0.00158246 0.347641 0 0 0 0)
(0.301698 -0.00321308 0 -0.00204002 0.345604 0 0 0 0)
(0.275154 -0.00437175 0 -0.00242326 0.342282 0 0 0 0)
(0.259447 -0.00494533 0 -0.00263196 0.338339 0 0 0 0)
(0.255649 -0.00537633 0 -0.00268372 0.333993 0 0 0 0)
(0.257189 -0.00581068 0 -0.00267896 0.329264 0 0 0 0)
(0.259246 -0.00626412 0 -0.00272791 0.324153 0 0 0 0)
(0.25918 -0.00673199 0 -0.0028921 0.318662 0 0 0 0)
(0.255889 -0.00720744 0 -0.00318717 0.312805 0 0 0 0)
(0.248958 -0.00770573 0 -0.00361221 0.306611 0 0 0 0)
(0.23885 -0.00813677 0 -0.00416876 0.300076 0 0 0 0)
(0.227689 -0.00876438 0 -0.0047266 0.293457 0 0 0 0)
(0.218568 -0.00870163 0 -0.00559954 0.28602 0 0 0 0)
(0.209324 -0.0110555 0 -0.00578511 0.280212 0 0 0 0)
(0.191701 -0.00756582 0 -0.0105629 0.268237 0 0 0 0)
(0.142522 -0.0157288 0 -0.00776521 0.267889 0 0 0 0)
(0.283085 -0.0397197 0 -0.012888 0.250391 0 0 0 0)
(2.38655 -0.0731423 0 -0.0157445 0.219897 0 0 0 0)
(2.15617 -0.0485498 0 -0.0224123 0.16435 0 0 0 0)
(2.33212 1.0949 0 -0.458106 0.484724 0 0 0 0)
(2.78439 1.29245 0 -0.762291 0.158465 0 0 0 0)
(0.682258 -0.0283449 0 -0.677277 0.103502 0 0 0 0)
(0.25977 -0.439572 0 -0.411762 0.199491 0 0 0 0)
(0.0402164 -0.300522 0 -0.223058 0.324629 0 0 0 0)
(0.0284058 -0.124981 0 -0.100829 0.335131 0 0 0 0)
(0.0609511 -0.0563839 0 -0.0458276 0.317035 0 0 0 0)
(0.095472 -0.0258495 0 -0.0164729 0.305754 0 0 0 0)
(0.119711 -0.00952118 0 -0.00557591 0.303742 0 0 0 0)
(0.149035 -0.00205142 0 0.0005075 0.29742 0 0 0 0)
(0.176072 0.00119909 0 0.0039126 0.296422 0 0 0 0)
(0.198699 0.00402843 0 0.00644137 0.297036 0 0 0 0)
(0.21583 0.00609736 0 0.00824652 0.298876 0 0 0 0)
(0.226876 0.00718966 0 0.00930939 0.301476 0 0 0 0)
(0.234449 0.00761949 0 0.00963554 0.304431 0 0 0 0)
(0.244353 0.0074192 0 0.00923038 0.307437 0 0 0 0)
(0.26431 0.00658081 0 0.00803665 0.310275 0 0 0 0)
(0.294306 0.00443047 0 0.006097 0.312649 0 0 0 0)
(0.342414 0.00483782 0 0.00365697 0.313778 0 0 0 0)
(0.349828 0.00261572 0 0.000820629 0.316764 0 0 0 0)
(0.350972 -0.00448277 0 -0.00232375 0.316118 0 0 0 0)
(0.345298 -0.00591361 0 -0.00509552 0.312824 0 0 0 0)
(0.299536 -0.00583814 0 -0.00738697 0.311002 0 0 0 0)
(0.273234 -0.00792655 0 -0.00941657 0.308024 0 0 0 0)
(0.257806 -0.0090244 0 -0.0110319 0.304484 0 0 0 0)
(0.254196 -0.00987149 0 -0.0123105 0.300567 0 0 0 0)
(0.255804 -0.0107157 0 -0.0134197 0.296304 0 0 0 0)
(0.257855 -0.0115804 0 -0.0145077 0.291712 0 0 0 0)
(0.257783 -0.0124525 0 -0.0156109 0.286826 0 0 0 0)
(0.254532 -0.0133093 0 -0.0167136 0.281665 0 0 0 0)
(0.247695 -0.0141719 0 -0.0177175 0.276323 0 0 0 0)
(0.237826 -0.0148102 0 -0.0186008 0.270788 0 0 0 0)
(0.226781 -0.0159252 0 -0.0190929 0.265466 0 0 0 0)
(0.218331 -0.0153249 0 -0.0199139 0.259263 0 0 0 0)
(0.20733 -0.020139 0 -0.0191914 0.255325 0 0 0 0)
(0.190861 -0.0140214 0 -0.0238626 0.24438 0 0 0 0)
(0.142367 -0.0227651 0 -0.0215672 0.245032 0 0 0 0)
(0.282542 -0.0588486 0 -0.0239653 0.236966 0 0 0 0)
(2.38702 -0.103435 0 -0.0184824 0.220114 0 0 0 0)
(2.15562 -0.0665661 0 -0.0323773 0.20611 0 0 0 0)
(2.22712 0.873496 0 -0.006817 0.492777 0 0 0 0)
(2.64303 1.07467 0 -0.174273 0.0306401 0 0 0 0)
(0.659397 0.0247876 0 -0.243433 0.0192876 0 0 0 0)
(0.336769 -0.307232 0 -0.25169 0.110278 0 0 0 0)
(0.148814 -0.20262 0 -0.162927 0.256395 0 0 0 0)
(0.0975879 -0.112531 0 -0.0938734 0.28808 0 0 0 0)
(0.0945781 -0.0632487 0 -0.0461141 0.289502 0 0 0 0)
(0.111606 -0.0314449 0 -0.0272475 0.282428 0 0 0 0)
(0.129573 -0.0143019 0 -0.012375 0.27911 0 0 0 0)
(0.154081 -0.00623532 0 -0.00412955 0.272894 0 0 0 0)
(0.179235 0.000439656 0 0.00111375 0.270725 0 0 0 0)
(0.201094 0.00458469 0 0.00517574 0.270161 0 0 0 0)
(0.217474 0.00757934 0 0.00806061 0.270705 0 0 0 0)
(0.227754 0.00921701 0 0.00988257 0.271977 0 0 0 0)
(0.234547 0.0098752 0 0.0106997 0.273608 0 0 0 0)
(0.24362 0.00969727 0 0.0105193 0.275397 0 0 0 0)
(0.262734 0.00866439 0 0.00926744 0.277191 0 0 0 0)
(0.292058 0.00581795 0 0.00701559 0.278765 0 0 0 0)
(0.339699 0.00662779 0 0.00411291 0.279368 0 0 0 0)
(0.346776 0.00368574 0 0.000771013 0.282066 0 0 0 0)
(0.348004 -0.00630171 0 -0.00294835 0.281509 0 0 0 0)
(0.342841 -0.00818998 0 -0.00613371 0.278426 0 0 0 0)
(0.297534 -0.00783799 0 -0.0086968 0.277132 0 0 0 0)
(0.271642 -0.0106532 0 -0.0108562 0.274926 0 0 0 0)
(0.256658 -0.0121318 0 -0.0124082 0.27234 0 0 0 0)
(0.253348 -0.0132588 0 -0.013459 0.269516 0 0 0 0)
(0.255072 -0.0143434 0 -0.0142507 0.266499 0 0 0 0)
(0.257134 -0.0153973 0 -0.0149694 0.263359 0 0 0 0)
(0.257054 -0.0164133 0 -0.0157146 0.260123 0 0 0 0)
(0.253859 -0.0173289 0 -0.0163886 0.256922 0 0 0 0)
(0.247139 -0.0181873 0 -0.0169876 0.253756 0 0 0 0)
(0.237525 -0.0185986 0 -0.0174126 0.250716 0 0 0 0)
(0.226424 -0.0198701 0 -0.0173624 0.24831 0 0 0 0)
(0.218473 -0.0184738 0 -0.0183055 0.244725 0 0 0 0)
(0.205519 -0.0253973 0 -0.0173217 0.244015 0 0 0 0)
(0.189412 -0.0174845 0 -0.0223737 0.236027 0 0 0 0)
(0.142423 -0.0228737 0 -0.0205551 0.238757 0 0 0 0)
(0.286058 -0.0637312 0 -0.0203762 0.241628 0 0 0 0)
(2.37845 -0.102876 0 -0.00962064 0.230398 0 0 0 0)
(2.14278 -0.0620452 0 -0.04711 0.2519 0 0 0 0)
(2.17076 0.649566 0 0.0649881 0.488099 0 0 0 0)
(2.55638 0.836182 0 -0.048438 0.101852 0 0 0 0)
(0.607656 0.0483973 0 -0.108131 0.0577053 0 0 0 0)
(0.337349 -0.211087 0 -0.159558 0.125659 0 0 0 0)
(0.192294 -0.129185 0 -0.12531 0.231779 0 0 0 0)
(0.140971 -0.093078 0 -0.088123 0.257789 0 0 0 0)
(0.125154 -0.0618306 0 -0.0517755 0.268789 0 0 0 0)
(0.127984 -0.0358636 0 -0.0342853 0.265855 0 0 0 0)
(0.141988 -0.0187085 0 -0.0195763 0.262746 0 0 0 0)
(0.162033 -0.0101315 0 -0.0093763 0.258862 0 0 0 0)
(0.185039 -0.00143491 0 -0.00186554 0.256416 0 0 0 0)
(0.205393 0.0040092 0 0.00379194 0.255466 0 0 0 0)
(0.220366 0.00784741 0 0.007779 0.255227 0 0 0 0)
(0.229419 0.00998721 0 0.0102124 0.255603 0 0 0 0)
(0.235063 0.0109152 0 0.0114034 0.256235 0 0 0 0)
(0.242972 0.0108716 0 0.0113777 0.25705 0 0 0 0)
(0.260933 0.0098267 0 0.0100875 0.25793 0 0 0 0)
(0.289339 0.00652814 0 0.00761268 0.258749 0 0 0 0)
(0.336396 0.0080185 0 0.00436752 0.258836 0 0 0 0)
(0.343023 0.00467978 0 0.000700418 0.261336 0 0 0 0)
(0.344319 -0.00799041 0 -0.00354596 0.26095 0 0 0 0)
(0.339759 -0.0101317 0 -0.00708751 0.258071 0 0 0 0)
(0.294985 -0.00921117 0 -0.0100353 0.257375 0 0 0 0)
(0.269657 -0.012545 0 -0.0125124 0.255983 0 0 0 0)
(0.255297 -0.0142377 0 -0.0142429 0.254401 0 0 0 0)
(0.252421 -0.0154996 0 -0.0153479 0.252716 0 0 0 0)
(0.254348 -0.016648 0 -0.0161099 0.250997 0 0 0 0)
(0.256444 -0.017725 0 -0.016831 0.249248 0 0 0 0)
(0.256416 -0.018656 0 -0.0174713 0.247655 0 0 0 0)
(0.253305 -0.0194442 0 -0.0182261 0.246002 0 0 0 0)
(0.246708 -0.0201521 0 -0.0185987 0.244802 0 0 0 0)
(0.237465 -0.0200582 0 -0.0190748 0.243414 0 0 0 0)
(0.22592 -0.0216981 0 -0.0187954 0.243058 0 0 0 0)
(0.21837 -0.0194634 0 -0.0204394 0.240712 0 0 0 0)
(0.20341 -0.0285206 0 -0.0196207 0.241802 0 0 0 0)
(0.187745 -0.0190886 0 -0.0250602 0.235813 0 0 0 0)
(0.144292 -0.0173681 0 -0.0234762 0.238794 0 0 0 0)
(0.293079 -0.0669036 0 -0.0160487 0.24911 0 0 0 0)
(2.36126 -0.0935367 0 -0.00615173 0.234443 0 0 0 0)
(2.11949 -0.045846 0 -0.0607748 0.277177 0 0 0 0)
(2.11781 0.501294 0 0.0389356 0.456947 0 0 0 0)
(2.4762 0.659925 0 -0.00924599 0.146558 0 0 0 0)
(0.552317 0.0477288 0 -0.0575117 0.0988869 0 0 0 0)
(0.320215 -0.139487 0 -0.107528 0.1541 0 0 0 0)
(0.217651 -0.075294 0 -0.0958624 0.224649 0 0 0 0)
(0.168449 -0.0768668 0 -0.0702887 0.241633 0 0 0 0)
(0.146458 -0.0554759 0 -0.049734 0.257003 0 0 0 0)
(0.142634 -0.037268 0 -0.0346542 0.257631 0 0 0 0)
(0.153576 -0.0210411 0 -0.0222577 0.256445 0 0 0 0)
(0.171148 -0.0123349 0 -0.0114127 0.255014 0 0 0 0)
(0.191925 -0.00283263 0 -0.00303263 0.253832 0 0 0 0)
(0.210388 0.00343843 0 0.00353406 0.253157 0 0 0 0)
(0.223661 0.00771072 0 0.00776918 0.25311 0 0 0 0)
(0.231247 0.0101885 0 0.0104359 0.253191 0 0 0 0)
(0.23567 0.0112703 0 0.0116792 0.253485 0 0 0 0)
(0.242352 0.0113308 0 0.0117126 0.253834 0 0 0 0)
(0.259106 0.0103009 0 0.0104107 0.254216 0 0 0 0)
(0.286546 0.0066904 0 0.00783395 0.254585 0 0 0 0)
(0.333039 0.00912133 0 0.00444453 0.254386 0 0 0 0)
(0.33915 0.00572343 0 0.000686574 0.256838 0 0 0 0)
(0.340499 -0.00944824 0 -0.0038877 0.256686 0 0 0 0)
(0.336587 -0.0116353 0 -0.00756047 0.253982 0 0 0 0)
(0.292306 -0.00985041 0 -0.0107226 0.253774 0 0 0 0)
(0.267587 -0.0135188 0 -0.0133992 0.253003 0 0 0 0)
(0.253926 -0.0152793 0 -0.0152318 0.252155 0 0 0 0)
(0.251549 -0.0165392 0 -0.0163252 0.251295 0 0 0 0)
(0.253642 -0.0176859 0 -0.0170987 0.250407 0 0 0 0)
(0.255822 -0.0186175 0 -0.017689 0.24969 0 0 0 0)
(0.25571 -0.0195413 0 -0.0185628 0.248785 0 0 0 0)
(0.252772 -0.020078 0 -0.0189317 0.248479 0 0 0 0)
(0.246322 -0.0206806 0 -0.0196919 0.247675 0 0 0 0)
(0.237335 -0.0202796 0 -0.0199211 0.247374 0 0 0 0)
(0.225109 -0.0224745 0 -0.0194336 0.247882 0 0 0 0)
(0.217678 -0.0196846 0 -0.0220919 0.245366 0 0 0 0)
(0.201067 -0.030118 0 -0.0215271 0.247071 0 0 0 0)
(0.185696 -0.0203824 0 -0.0264198 0.243333 0 0 0 0)
(0.151107 -0.0100602 0 -0.0240493 0.245052 0 0 0 0)
(0.302752 -0.0679244 0 -0.00927879 0.255797 0 0 0 0)
(2.33535 -0.0758297 0 -0.00594865 0.244001 0 0 0 0)
(2.09014 -0.020865 0 -0.0745231 0.287191 0 0 0 0)
(2.12433 0.350463 0 0.0509583 0.43026 0 0 0 0)
(2.46344 0.491142 0 0.00489223 0.168282 0 0 0 0)
(0.512948 0.0556657 0 -0.0323295 0.138612 0 0 0 0)
(0.300393 -0.0898976 0 -0.0672843 0.187495 0 0 0 0)
(0.228179 -0.0448351 0 -0.0702886 0.221001 0 0 0 0)
(0.185422 -0.0619009 0 -0.0543557 0.233222 0 0 0 0)
(0.159493 -0.0464141 0 -0.0448558 0.250462 0 0 0 0)
(0.154461 -0.0364016 0 -0.0329557 0.25245 0 0 0 0)
(0.164385 -0.0212303 0 -0.0223288 0.253565 0 0 0 0)
(0.180559 -0.0126491 0 -0.0118803 0.254604 0 0 0 0)
(0.199442 -0.00322473 0 -0.00249504 0.254133 0 0 0 0)
(0.215802 0.00331314 0 0.00368354 0.254963 0 0 0 0)
(0.227016 0.00788008 0 0.00840526 0.254963 0 0 0 0)
(0.233187 0.0103488 0 0.0108823 0.255467 0 0 0 0)
(0.236293 0.0115351 0 0.0122547 0.255739 0 0 0 0)
(0.24175 0.0115761 0 0.0123178 0.256069 0 0 0 0)
(0.257196 0.0105497 0 0.0110171 0.256344 0 0 0 0)
(0.28359 0.00669233 0 0.00830638 0.256632 0 0 0 0)
(0.329509 0.0101897 0 0.00473961 0.256458 0 0 0 0)
(0.334994 0.00689556 0 0.000815588 0.258983 0 0 0 0)
(0.336372 -0.0107422 0 -0.00418095 0.259046 0 0 0 0)
(0.333172 -0.0129377 0 -0.00808008 0.256397 0 0 0 0)
(0.289359 -0.0101548 0 -0.0115294 0.256358 0 0 0 0)
(0.265312 -0.0141048 0 -0.0144673 0.255796 0 0 0 0)
(0.252478 -0.015883 0 -0.016417 0.255188 0 0 0 0)
(0.250622 -0.0171843 0 -0.0175657 0.254516 0 0 0 0)
(0.253034 -0.0181954 0 -0.018195 0.253958 0 0 0 0)
(0.255033 -0.0192883 0 -0.0190674 0.253131 0 0 0 0)
(0.255218 -0.019823 0 -0.0192589 0.253069 0 0 0 0)
(0.252217 -0.020513 0 -0.0206574 0.251727 0 0 0 0)
(0.245755 -0.0212163 0 -0.0199505 0.252556 0 0 0 0)
(0.237714 -0.0198592 0 -0.0212711 0.25089 0 0 0 0)
(0.223828 -0.023633 0 -0.0201326 0.252099 0 0 0 0)
(0.216353 -0.0202448 0 -0.0232863 0.249331 0 0 0 0)
(0.199239 -0.0304804 0 -0.0227879 0.250956 0 0 0 0)
(0.185315 -0.0210341 0 -0.0265024 0.249108 0 0 0 0)