/*--------------------------------*- C++ -*----------------------------------*\
| =========                 |                                                 |
| \\      /  F ield         | OpenFOAM: The Open Source CFD Toolbox           |
|  \\    /   O peration     | Version:  v1912                                 |
|   \\  /    A nd           | Website:  www.openfoam.com                      |
|    \\/     M anipulation  |                                                 |
\*---------------------------------------------------------------------------*/
FoamFile
{
    version     2.0;
    format      ascii;
    class       volVectorField;
    location    "8.96";
    object      U;
}
// * * * * * * * * * * * * * * * * * * * * * * * * * * * * * * * * * * * * * //

dimensions      [0 1 -1 0 0 0 0];


internalField   nonuniform List<vector> 
1900
(
(0.512448 -1.21142e-07 0)
(0.116216 -5.25675e-07 0)
(0.127253 -1.29562e-06 0)
(0.136698 -4.38005e-06 0)
(0.131715 -1.22831e-05 0)
(0.117775 -3.57886e-05 0)
(0.111328 -6.81535e-05 0)
(0.107121 -0.00035263 0)
(0.105688 0.00370876 0)
(0.0928405 0.0113125 0)
(0.512448 -3.03877e-07 0)
(0.116218 5.42632e-08 0)
(0.127256 -5.22432e-07 0)
(0.136696 -9.71352e-07 0)
(0.131696 -1.71376e-05 0)
(0.117711 -6.05755e-05 0)
(0.111185 -0.000101529 0)
(0.106797 -0.000229684 0)
(0.105852 0.00215878 0)
(0.106538 0.010833 0)
(0.512449 -5.95103e-14 0)
(0.116219 -3.50565e-14 0)
(0.127258 -2.23904e-14 0)
(0.13669 -1.54067e-14 0)
(0.131665 -7.71567e-15 0)
(0.117633 1.00639e-14 0)
(0.111081 2.14838e-14 0)
(0.107072 1.42341e-14 0)
(0.10743 3.86715e-15 0)
(0.113856 -2.70264e-15 0)
(0.512448 3.03877e-07 0)
(0.116218 -5.42632e-08 0)
(0.127256 5.22432e-07 0)
(0.136696 9.71352e-07 0)
(0.131696 1.71376e-05 0)
(0.117711 6.05755e-05 0)
(0.111185 0.000101529 0)
(0.106797 0.000229684 0)
(0.105852 -0.00215878 0)
(0.106538 -0.010833 0)
(0.512448 1.21142e-07 0)
(0.116216 5.25675e-07 0)
(0.127253 1.29562e-06 0)
(0.136698 4.38005e-06 0)
(0.131715 1.22831e-05 0)
(0.117775 3.57886e-05 0)
(0.111328 6.81535e-05 0)
(0.107121 0.00035263 0)
(0.105688 -0.00370876 0)
(0.0928405 -0.0113125 0)
(0.0960768 0.0370252 0)
(0.133196 0.051482 0)
(0.179821 0.0761311 0)
(0.255199 0.11727 0)
(0.39931 0.173485 0)
(0.119752 0.0266226 0)
(0.143711 0.0282338 0)
(0.173524 0.0387001 0)
(0.235707 0.0607084 0)
(0.377338 0.10267 0)
(0.12978 -2.27172e-15 0)
(0.15227 -1.9388e-14 0)
(0.18355 1.38988e-14 0)
(0.246676 -1.23333e-14 0)
(0.387888 4.17719e-16 0)
(0.119752 -0.0266226 0)
(0.143711 -0.0282338 0)
(0.173524 -0.0387001 0)
(0.235707 -0.0607084 0)
(0.377338 -0.10267 0)
(0.0960768 -0.0370252 0)
(0.133196 -0.051482 0)
(0.179821 -0.0761311 0)
(0.255199 -0.11727 0)
(0.39931 -0.173485 0)
(0.846181 0.0302606 0)
(1.10325 -0.0519634 0)
(1.25802 -0.0828057 0)
(1.34334 -0.0954325 0)
(1.43998 -0.105822 0)
(0.818887 -0.0171883 0)
(1.11624 -0.0479181 0)
(1.2895 -0.0591383 0)
(1.37649 -0.0600776 0)
(1.46673 -0.0789257 0)
(0.814849 5.24566e-16 0)
(1.12011 5.88263e-15 0)
(1.28482 -2.47566e-16 0)
(1.36808 3.13694e-16 0)
(1.4528 1.21283e-14 0)
(0.818887 0.0171883 0)
(1.11624 0.0479181 0)
(1.2895 0.0591383 0)
(1.37649 0.0600776 0)
(1.46673 0.0789257 0)
(0.846181 -0.0302606 0)
(1.10325 0.0519634 0)
(1.25802 0.0828057 0)
(1.34334 0.0954325 0)
(1.43998 0.105822 0)
(1.46195 -0.0114736 0)
(1.49301 0.0569935 0)
(1.48487 0.0164938 0)
(1.51128 -0.00993112 0)
(1.51808 -0.0164725 0)
(1.53012 -0.0152826 0)
(1.54805 -0.0123519 0)
(1.56955 -0.0065182 0)
(1.59159 -0.00721682 0)
(1.6078 -0.00387404 0)
(1.62295 0.00205339 0)
(1.65389 -0.00262528 0)
(1.67465 -0.00507304 0)
(1.65855 -0.00704182 0)
(1.57278 -0.0116261 0)
(1.36937 -0.0132531 0)
(1.25368 -0.00778456 0)
(1.2448 -0.00217003 0)
(1.24365 -0.00165016 0)
(1.24526 -0.0113745 0)
(1.23043 -0.0250728 0)
(1.19331 -0.0336957 0)
(1.13309 -0.0410453 0)
(1.06866 -0.0491922 0)
(1.01036 -0.0418582 0)
(0.95332 -0.0326948 0)
(0.910872 -0.0277284 0)
(0.596091 -0.0203877 0)
(0.160547 -0.0178445 0)
(-0.207484 -0.0116672 0)
(-0.349993 -0.00825981 0)
(-0.375196 -0.00837749 0)
(-0.388109 -0.00876837 0)
(-0.399859 -0.00934329 0)
(-0.40885 -0.010305 0)
(-0.417271 -0.0114159 0)
(-0.426545 -0.0116648 0)
(-0.433918 -0.0106146 0)
(-0.438025 -0.00943275 0)
(-0.440081 -0.00836404 0)
(1.4774 -0.0164458 0)
(1.45955 0.0434425 0)
(1.4398 0.0404867 0)
(1.47232 0.00793026 0)
(1.48344 -0.00788468 0)
(1.49992 -0.0167878 0)
(1.52182 -0.022764 0)
(1.54727 -0.0228744 0)
(1.57355 -0.0246592 0)
(1.59185 -0.02123 0)
(1.61057 -0.0158835 0)
(1.64519 -0.0175803 0)
(1.66716 -0.0153973 0)
(1.65494 -0.0144645 0)
(1.56027 -0.0168125 0)
(1.35156 -0.0165846 0)
(1.24361 -0.0105257 0)
(1.23728 -0.0060897 0)
(1.24124 -0.00441479 0)
(1.24592 -0.00702361 0)
(1.23429 -0.0126489 0)
(1.20269 -0.0172035 0)
(1.15051 -0.0218754 0)
(1.08195 -0.0256576 0)
(1.00991 -0.0210886 0)
(0.947279 -0.0158836 0)
(0.907202 -0.0121536 0)
(0.59852 -0.0101713 0)
(0.163597 -0.00978989 0)
(-0.20485 -0.00564737 0)
(-0.349103 -0.00406472 0)
(-0.374286 -0.00416265 0)
(-0.387074 -0.00439684 0)
(-0.39897 -0.00468881 0)
(-0.408536 -0.00516544 0)
(-0.417923 -0.00573045 0)
(-0.428073 -0.00588208 0)
(-0.435815 -0.00536471 0)
(-0.439927 -0.00478169 0)
(-0.44186 -0.00424088 0)
(1.47816 -1.55101e-14 0)
(1.46201 -1.9242e-14 0)
(1.42814 -5.78103e-14 0)
(1.45913 -8.64102e-14 0)
(1.47088 -9.02388e-14 0)
(1.49109 -7.09116e-14 0)
(1.51628 -4.4187e-14 0)
(1.54313 -4.55177e-14 0)
(1.56967 -5.65494e-14 0)
(1.58814 -2.3758e-14 0)
(1.60772 -2.88574e-14 0)
(1.6433 -9.03578e-14 0)
(1.66524 -7.71656e-14 0)
(1.65345 -3.36609e-14 0)
(1.55577 5.78454e-14 0)
(1.34517 7.37671e-14 0)
(1.24046 -7.47871e-14 0)
(1.23543 -6.77178e-14 0)
(1.24112 -2.07042e-14 0)
(1.24693 -3.54518e-14 0)
(1.23435 -4.18926e-13 0)
(1.19964 -1.47186e-12 0)
(1.1458 -3.99689e-13 0)
(1.07813 3.83528e-13 0)
(1.01215 2.34124e-14 0)
(0.952034 -2.32089e-13 0)
(0.912892 -8.44021e-14 0)
(0.604374 -4.83228e-13 0)
(0.16569 -1.27641e-12 0)
(-0.204616 -6.48537e-13 0)
(-0.348909 1.57079e-13 0)
(-0.373998 6.46201e-13 0)
(-0.386647 6.98213e-13 0)
(-0.398416 3.93751e-13 0)
(-0.407816 3.16269e-13 0)
(-0.417009 1.05621e-13 0)
(-0.42709 -2.41408e-13 0)
(-0.434926 -1.82145e-13 0)
(-0.439254 9.18551e-14 0)
(-0.441466 4.67385e-14 0)
(1.4774 0.0164458 0)
(1.45955 -0.0434425 0)
(1.4398 -0.0404867 0)
(1.47232 -0.00793026 0)
(1.48344 0.00788468 0)
(1.49992 0.0167878 0)
(1.52182 0.022764 0)
(1.54727 0.0228744 0)
(1.57355 0.0246592 0)
(1.59185 0.02123 0)
(1.61057 0.0158835 0)
(1.64519 0.0175803 0)
(1.66716 0.0153973 0)
(1.65494 0.0144645 0)
(1.56027 0.0168125 0)
(1.35156 0.0165846 0)
(1.24361 0.0105257 0)
(1.23728 0.0060897 0)
(1.24124 0.00441479 0)
(1.24592 0.00702361 0)
(1.23429 0.0126489 0)
(1.20269 0.0172035 0)
(1.15051 0.0218754 0)
(1.08195 0.0256576 0)
(1.00991 0.0210886 0)
(0.947279 0.0158836 0)
(0.907202 0.0121536 0)
(0.59852 0.0101713 0)
(0.163597 0.00978989 0)
(-0.20485 0.00564737 0)
(-0.349103 0.00406472 0)
(-0.374286 0.00416265 0)
(-0.387074 0.00439684 0)
(-0.39897 0.00468881 0)
(-0.408536 0.00516544 0)
(-0.417923 0.00573045 0)
(-0.428073 0.00588208 0)
(-0.435815 0.00536471 0)
(-0.439927 0.00478169 0)
(-0.44186 0.00424088 0)
(1.46195 0.0114736 0)
(1.49301 -0.0569935 0)
(1.48487 -0.0164938 0)
(1.51128 0.00993112 0)
(1.51808 0.0164725 0)
(1.53012 0.0152826 0)
(1.54805 0.0123519 0)
(1.56955 0.0065182 0)
(1.59159 0.00721682 0)
(1.6078 0.00387404 0)
(1.62295 -0.00205339 0)
(1.65389 0.00262528 0)
(1.67465 0.00507304 0)
(1.65855 0.00704182 0)
(1.57278 0.0116261 0)
(1.36937 0.0132531 0)
(1.25368 0.00778456 0)
(1.2448 0.00217003 0)
(1.24365 0.00165016 0)
(1.24526 0.0113745 0)
(1.23043 0.0250728 0)
(1.19331 0.0336957 0)
(1.13309 0.0410453 0)
(1.06866 0.0491922 0)
(1.01036 0.0418582 0)
(0.95332 0.0326948 0)
(0.910872 0.0277284 0)
(0.596091 0.0203877 0)
(0.160547 0.0178445 0)
(-0.207484 0.0116672 0)
(-0.349993 0.00825981 0)
(-0.375196 0.00837749 0)
(-0.388109 0.00876837 0)
(-0.399859 0.00934329 0)
(-0.40885 0.010305 0)
(-0.417271 0.0114159 0)
(-0.426545 0.0116648 0)
(-0.433918 0.0106146 0)
(-0.438025 0.00943275 0)
(-0.440081 0.00836404 0)
(1.57624 -0.0819536 0)
(1.58756 -0.0737973 0)
(1.58691 -0.0632842 0)
(1.59952 -0.0305436 0)
(1.60368 0.00344604 0)
(1.60524 0.0295106 0)
(1.61193 0.057288 0)
(1.6202 0.0712505 0)
(1.62931 0.084253 0)
(1.63782 0.0803894 0)
(1.6468 0.065521 0)
(1.66633 0.0723653 0)
(1.68499 0.0660735 0)
(1.66266 0.0464193 0)
(1.59623 0.0449931 0)
(1.39846 0.0429098 0)
(1.27599 0.0360658 0)
(1.2587 0.0261096 0)
(1.24751 0.0197081 0)
(1.24208 0.0277824 0)
(1.22475 0.0505395 0)
(1.18523 0.0778152 0)
(1.12678 0.0950777 0)
(1.07058 0.091886 0)
(1.01876 0.0798198 0)
(0.963209 0.068135 0)
(0.920443 0.0585618 0)
(0.604993 0.0489361 0)
(0.160458 0.0383837 0)
(-0.216399 0.0223173 0)
(-0.350092 0.0179243 0)
(-0.374642 0.0182465 0)
(-0.387725 0.0188913 0)
(-0.399496 0.0196284 0)
(-0.408091 0.0209547 0)
(-0.41549 0.0226742 0)
(-0.4234 0.0231699 0)
(-0.429908 0.0214187 0)
(-0.433849 0.0192478 0)
(-0.43612 0.0170913 0)
(1.6806 0.00523708 0)
(1.68149 0.00699748 0)
(1.68356 0.0143123 0)
(1.68486 0.00496331 0)
(1.68521 0.00449179 0)
(1.68588 0.0166729 0)
(1.68322 0.0165651 0)
(1.68092 0.0199775 0)
(1.68091 0.0402231 0)
(1.6787 0.0487799 0)
(1.6789 0.0459898 0)
(1.68816 0.0629022 0)
(1.70033 0.0656084 0)
(1.67402 0.043794 0)
(1.62075 0.0332282 0)
(1.42406 0.0331738 0)
(1.30111 0.0328893 0)
(1.27014 0.0320736 0)
(1.25026 0.0340046 0)
(1.23679 0.0524122 0)
(1.21203 0.0934794 0)
(1.16581 0.14092 0)
(1.10382 0.162291 0)
(1.04933 0.158458 0)
(0.995388 0.146527 0)
(0.941069 0.131467 0)
(0.897354 0.112742 0)
(0.574755 0.0943507 0)
(0.133481 0.0693995 0)
(-0.232148 0.0385287 0)
(-0.35026 0.0335653 0)
(-0.373577 0.0340084 0)
(-0.386706 0.0348741 0)
(-0.398309 0.0356567 0)
(-0.406557 0.0372051 0)
(-0.41333 0.0395068 0)
(-0.420404 0.0404432 0)
(-0.426559 0.0383087 0)
(-0.430816 0.0351656 0)
(-0.433986 0.0313305 0)
(1.71789 0.0757017 0)
(1.71883 0.0716287 0)
(1.71322 0.090437 0)
(1.70862 0.0889084 0)
(1.70645 0.0861378 0)
(1.70536 0.0944122 0)
(1.70461 0.0858907 0)
(1.70233 0.083343 0)
(1.69846 0.104955 0)
(1.69224 0.105385 0)
(1.68831 0.103153 0)
(1.68815 0.133647 0)
(1.69052 0.134503 0)
(1.66875 0.0803294 0)
(1.61361 0.051858 0)
(1.40772 0.0732844 0)
(1.29411 0.0788081 0)
(1.25998 0.0819572 0)
(1.23988 0.0781847 0)
(1.22833 0.0963209 0)
(1.20177 0.155364 0)
(1.1477 0.214302 0)
(1.07885 0.237094 0)
(1.01624 0.230472 0)
(0.960419 0.210736 0)
(0.909453 0.187699 0)
(0.865378 0.161778 0)
(0.535014 0.132236 0)
(0.0968875 0.0953102 0)
(-0.253526 0.0557331 0)
(-0.348899 0.0500235 0)
(-0.37089 0.0507593 0)
(-0.384604 0.0517013 0)
(-0.396658 0.052629 0)
(-0.405198 0.0541202 0)
(-0.411877 0.056222 0)
(-0.418406 0.0571881 0)
(-0.424145 0.0547222 0)
(-0.428373 0.0510134 0)
(-0.432059 0.0455075 0)
(1.70471 0.150378 0)
(1.70483 0.153974 0)
(1.70122 0.154895 0)
(1.69697 0.141688 0)
(1.69251 0.134764 0)
(1.68806 0.139388 0)
(1.68744 0.126805 0)
(1.6868 0.121544 0)
(1.68382 0.138192 0)
(1.68332 0.134174 0)
(1.68377 0.129057 0)
(1.67994 0.159452 0)
(1.65486 0.148763 0)
(1.63403 0.117692 0)
(1.557 0.0954311 0)
(1.36889 0.0981309 0)
(1.28706 0.102769 0)
(1.2513 0.107519 0)
(1.22635 0.107114 0)
(1.19739 0.138606 0)
(1.14978 0.216682 0)
(1.08341 0.283233 0)
(1.01598 0.30329 0)
(0.96307 0.291275 0)
(0.917611 0.26638 0)
(0.875602 0.238372 0)
(0.830839 0.206839 0)
(0.487734 0.167146 0)
(0.0485904 0.117147 0)
(-0.276488 0.0661832 0)
(-0.349312 0.0650555 0)
(-0.369524 0.065778 0)
(-0.383936 0.0677773 0)
(-0.396585 0.0695586 0)
(-0.405813 0.0716207 0)
(-0.412977 0.0734545 0)
(-0.419271 0.0741084 0)
(-0.424334 0.0710128 0)
(-0.427974 0.0671015 0)
(-0.431675 0.0601347 0)
(1.6596 0.196052 0)
(1.65938 0.201945 0)
(1.66193 0.20699 0)
(1.66785 0.196958 0)
(1.67083 0.193299 0)
(1.67082 0.194986 0)
(1.67345 0.182988 0)
(1.67213 0.183689 0)
(1.66683 0.190441 0)
(1.66866 0.175683 0)
(1.67398 0.190576 0)
(1.64501 0.200423 0)
(1.61515 0.168013 0)
(1.59122 0.140865 0)
(1.5013 0.126088 0)
(1.34399 0.12999 0)
(1.29247 0.141891 0)
(1.24793 0.149277 0)
(1.20695 0.155549 0)
(1.15446 0.20812 0)
(1.08546 0.302789 0)
(1.01022 0.358486 0)
(0.953036 0.364026 0)
(0.912001 0.343766 0)
(0.875269 0.313728 0)
(0.840943 0.279291 0)
(0.789157 0.239347 0)
(0.425388 0.184239 0)
(-0.0136975 0.106896 0)
(-0.295906 0.0668012 0)
(-0.348881 0.0623754 0)
(-0.365666 0.0664158 0)
(-0.37992 0.0722346 0)
(-0.391752 0.0780546 0)
(-0.40052 0.0842852 0)
(-0.40824 0.0890357 0)
(-0.415267 0.0900432 0)
(-0.420322 0.0862078 0)
(-0.423617 0.0824343 0)
(-0.427366 0.0743158 0)
(1.61177 0.242869 0)
(1.61017 0.247774 0)
(1.61173 0.247028 0)
(1.61666 0.237709 0)
(1.61927 0.236788 0)
(1.62199 0.231971 0)
(1.62534 0.223321 0)
(1.62628 0.234013 0)
(1.62675 0.233709 0)
(1.6352 0.221951 0)
(1.64816 0.236494 0)
(1.6098 0.225025 0)
(1.58482 0.188794 0)
(1.5457 0.166479 0)
(1.43941 0.16338 0)
(1.32771 0.162185 0)
(1.27679 0.184026 0)
(1.22371 0.197313 0)
(1.16726 0.220239 0)
(1.09075 0.304208 0)
(1.00598 0.396081 0)
(0.93615 0.42691 0)
(0.893163 0.413985 0)
(0.860535 0.382025 0)
(0.828604 0.342805 0)
(0.799781 0.301441 0)
(0.722864 0.248594 0)
(0.321815 0.138334 0)
(-0.107655 0.0434776 0)
(-0.308279 -0.0130208 0)
(-0.339791 -0.00164875 0)
(-0.352536 0.0201391 0)
(-0.368449 0.0430496 0)
(-0.382978 0.063749 0)
(-0.394127 0.0812602 0)
(-0.403582 0.0944947 0)
(-0.412643 0.101977 0)
(-0.41965 0.101247 0)
(-0.423907 0.0979559 0)
(-0.42781 0.0892401 0)
(1.56098 0.284211 0)
(1.55996 0.287786 0)
(1.56105 0.28493 0)
(1.56379 0.280225 0)
(1.56567 0.278984 0)
(1.56905 0.274526 0)
(1.57221 0.270151 0)
(1.57348 0.276617 0)
(1.57648 0.278337 0)
(1.59349 0.273689 0)
(1.59487 0.271911 0)
(1.55444 0.245936 0)
(1.52635 0.2096 0)
(1.47629 0.194257 0)
(1.36869 0.19012 0)
(1.29339 0.203575 0)
(1.23794 0.234068 0)
(1.17244 0.242841 0)
(1.09241 0.306478 0)
(0.999853 0.426703 0)
(0.916978 0.479997 0)
(0.865303 0.475986 0)
(0.828195 0.446108 0)
(0.798397 0.398729 0)
(0.766221 0.334204 0)
(0.73262 0.257826 0)
(0.57583 0.135728 0)
(0.155838 -0.0357468 0)
(-0.192562 -0.139351 0)
(-0.302848 -0.151506 0)
(-0.312921 -0.117114 0)
(-0.323023 -0.0786198 0)
(-0.336916 -0.0383875 0)
(-0.352266 0.00313146 0)
(-0.36822 0.0439454 0)
(-0.384338 0.0782877 0)
(-0.400613 0.100468 0)
(-0.412348 0.109953 0)
(-0.419321 0.112164 0)
(-0.424819 0.103842 0)
(1.50637 0.326397 0)
(1.50594 0.327692 0)
(1.50717 0.324351 0)
(1.50851 0.322381 0)
(1.50984 0.321263 0)
(1.51289 0.316357 0)
(1.51524 0.31607 0)
(1.51395 0.318669 0)
(1.51576 0.309663 0)
(1.53066 0.302261 0)
(1.51234 0.296405 0)
(1.48268 0.274333 0)
(1.45106 0.248961 0)
(1.38074 0.235914 0)
(1.30347 0.239471 0)
(1.23832 0.260226 0)
(1.17004 0.284931 0)
(1.08973 0.346972 0)
(0.983742 0.439715 0)
(0.889421 0.517478 0)
(0.815239 0.533238 0)
(0.776164 0.493433 0)
(0.743996 0.412195 0)
(0.704226 0.308328 0)
(0.671686 0.204269 0)
(0.637415 0.104403 0)
(0.422222 -0.0283509 0)
(0.0358772 -0.18812 0)
(-0.220614 -0.240659 0)
(-0.282005 -0.220243 0)
(-0.281485 -0.180604 0)
(-0.288373 -0.140765 0)
(-0.2999 -0.100927 0)
(-0.311017 -0.0592222 0)
(-0.326563 -0.0135234 0)
(-0.347884 0.0341579 0)
(-0.370507 0.0777422 0)
(-0.394477 0.107035 0)
(-0.411582 0.122137 0)
(-0.42318 0.119352 0)
(1.44068 0.362453 0)
(1.44086 0.362153 0)
(1.44232 0.358659 0)
(1.44329 0.35726 0)
(1.4448 0.355607 0)
(1.44666 0.354674 0)
(1.4471 0.35872 0)
(1.4464 0.363077 0)
(1.4518 0.358111 0)
(1.45483 0.355507 0)
(1.42977 0.34158 0)
(1.40328 0.310332 0)
(1.35886 0.277505 0)
(1.27843 0.266578 0)
(1.21619 0.31129 0)
(1.1452 0.352471 0)
(1.06146 0.353919 0)
(0.940507 0.438201 0)
(0.824755 0.56336 0)
(0.738435 0.555867 0)
(0.692898 0.479319 0)
(0.655073 0.367551 0)
(0.62803 0.25178 0)
(0.610969 0.152904 0)
(0.594801 0.07551 0)
(0.549205 -0.0130663 0)
(0.310646 -0.145582 0)
(-0.0341831 -0.250133 0)
(-0.220227 -0.274678 0)
(-0.253588 -0.242242 0)
(-0.252064 -0.202656 0)
(-0.256555 -0.162809 0)
(-0.265799 -0.124798 0)
(-0.273774 -0.0860805 0)
(-0.283299 -0.0448225 0)
(-0.303721 -0.000810377 0)
(-0.3253 0.0470996 0)
(-0.359088 0.0907829 0)
(-0.388007 0.123796 0)
(-0.415087 0.135399 0)
(1.35871 0.395314 0)
(1.35941 0.394984 0)
(1.36131 0.393893 0)
(1.36325 0.394557 0)
(1.3659 0.39517 0)
(1.36792 0.399108 0)
(1.36798 0.402205 0)
(1.36896 0.394556 0)
(1.36761 0.382033 0)
(1.35261 0.371824 0)
(1.32845 0.352306 0)
(1.28767 0.339884 0)
(1.23854 0.358548 0)
(1.17149 0.380427 0)
(1.10139 0.352252 0)
(0.994225 0.369686 0)
(0.858648 0.486977 0)
(0.704441 0.546947 0)
(0.621965 0.498795 0)
(0.581866 0.408474 0)
(0.563188 0.301772 0)
(0.558652 0.211885 0)
(0.54485 0.144682 0)
(0.5414 0.0728671 0)
(0.540109 -0.0174983 0)
(0.456222 -0.102835 0)
(0.200086 -0.19471 0)
(-0.0797923 -0.27329 0)
(-0.193272 -0.279276 0)
(-0.216053 -0.245348 0)
(-0.219101 -0.208506 0)
(-0.22522 -0.169835 0)
(-0.229375 -0.130931 0)
(-0.240133 -0.0934043 0)
(-0.243054 -0.0520842 0)
(-0.262324 -0.00974179 0)
(-0.278915 0.035672 0)
(-0.311619 0.0802081 0)
(-0.348039 0.123672 0)
(-0.39036 0.147948 0)
(1.2579 0.416077 0)
(1.259 0.416229 0)
(1.26181 0.417289 0)
(1.26502 0.421865 0)
(1.26785 0.42858 0)
(1.27253 0.430909 0)
(1.27553 0.430049 0)
(1.27175 0.428997 0)
(1.25366 0.427823 0)
(1.22537 0.422568 0)
(1.20022 0.402269 0)
(1.15752 0.364681 0)
(1.08806 0.341607 0)
(0.998834 0.353092 0)
(0.865474 0.418779 0)
(0.680296 0.450001 0)
(0.545019 0.453187 0)
(0.495843 0.394196 0)
(0.477396 0.32623 0)
(0.481243 0.266692 0)
(0.479952 0.213536 0)
(0.488825 0.14863 0)
(0.504581 0.0686588 0)
(0.490065 0.0015395 0)
(0.452346 -0.0568148 0)
(0.330486 -0.147005 0)
(0.11626 -0.256591 0)
(-0.0874814 -0.291746 0)
(-0.15702 -0.270864 0)
(-0.177618 -0.239552 0)
(-0.182614 -0.204447 0)
(-0.190874 -0.165343 0)
(-0.192753 -0.123506 0)
(-0.203587 -0.083284 0)
(-0.203293 -0.0409297 0)
(-0.219369 0.00228952 0)
(-0.235848 0.0481704 0)
(-0.264056 0.0944832 0)
(-0.297434 0.1348 0)
(-0.342132 0.150042 0)
(1.12396 0.456527 0)
(1.1259 0.457383 0)
(1.12901 0.459824 0)
(1.13369 0.455521 0)
(1.13207 0.445806 0)
(1.12172 0.431023 0)
(1.11144 0.409161 0)
(1.09629 0.376318 0)
(1.07709 0.337389 0)
(1.04664 0.302428 0)
(0.99651 0.279933 0)
(0.90983 0.283884 0)
(0.776513 0.302289 0)
(0.622751 0.313813 0)
(0.486174 0.334139 0)
(0.399802 0.334637 0)
(0.372217 0.322254 0)
(0.379322 0.296822 0)
(0.395455 0.258305 0)
(0.419213 0.209718 0)
(0.44462 0.143588 0)
(0.446751 0.0791115 0)
(0.435624 0.0280811 0)
(0.408189 -0.0290382 0)
(0.349885 -0.128386 0)
(0.210866 -0.243052 0)
(0.0835222 -0.307945 0)
(-0.0646257 -0.301452 0)
(-0.118579 -0.270598 0)
(-0.139674 -0.239055 0)
(-0.143037 -0.206597 0)
(-0.153064 -0.170484 0)
(-0.153559 -0.128854 0)
(-0.162359 -0.0855194 0)
(-0.160113 -0.0378585 0)
(-0.173393 0.0147748 0)
(-0.190866 0.0701108 0)
(-0.213813 0.117783 0)
(-0.237748 0.149802 0)
(-0.275419 0.15974 0)
(0.936032 0.4697 0)
(0.941555 0.461325 0)
(0.928868 0.432837 0)
(0.907872 0.388677 0)
(0.891731 0.337393 0)
(0.872156 0.286252 0)
(0.837389 0.244605 0)
(0.789517 0.21162 0)
(0.73477 0.185621 0)
(0.672231 0.170068 0)
(0.592553 0.174213 0)
(0.498527 0.206809 0)
(0.398321 0.247593 0)
(0.31395 0.276791 0)
(0.273032 0.295134 0)
(0.274084 0.29315 0)
(0.2918 0.274161 0)
(0.325959 0.244813 0)
(0.358401 0.198338 0)
(0.382826 0.140818 0)
(0.38766 0.0921044 0)
(0.375714 0.0451197 0)
(0.357927 -0.0234101 0)
(0.321151 -0.120326 0)
(0.236908 -0.235551 0)
(0.145876 -0.319169 0)
(0.0770382 -0.333826 0)
(-0.0285874 -0.309942 0)
(-0.0822751 -0.276544 0)
(-0.105131 -0.244052 0)
(-0.103728 -0.206484 0)
(-0.112435 -0.168123 0)
(-0.110728 -0.125281 0)
(-0.118459 -0.0796295 0)
(-0.114352 -0.0308339 0)
(-0.124622 0.0238676 0)
(-0.135357 0.0819414 0)
(-0.153139 0.132244 0)
(-0.168385 0.16274 0)
(-0.200477 0.16902 0)
(0.6728 0.452825 0)
(0.64955 0.423986 0)
(0.613581 0.376567 0)
(0.572487 0.327495 0)
(0.53498 0.290346 0)
(0.495767 0.267726 0)
(0.450702 0.25089 0)
(0.398807 0.230259 0)
(0.342085 0.210886 0)
(0.286547 0.206749 0)
(0.243311 0.222407 0)
(0.217542 0.245826 0)
(0.199369 0.258483 0)
(0.194276 0.261698 0)
(0.202904 0.256983 0)
(0.232187 0.245806 0)
(0.26721 0.218481 0)
(0.297456 0.179156 0)
(0.316127 0.138864 0)
(0.320588 0.0979814 0)
(0.320701 0.0423455 0)
(0.312661 -0.0295781 0)
(0.279366 -0.117128 0)
(0.216052 -0.229755 0)
(0.147254 -0.317193 0)
(0.1262 -0.349914 0)
(0.0901057 -0.349497 0)
(0.0102585 -0.319116 0)
(-0.0461432 -0.281231 0)
(-0.0703433 -0.248062 0)
(-0.0676702 -0.213639 0)
(-0.0712923 -0.175598 0)
(-0.0664202 -0.132101 0)
(-0.0716093 -0.0845059 0)
(-0.0655188 -0.0324079 0)
(-0.0731045 0.0269168 0)
(-0.075239 0.09317 0)
(-0.0889586 0.150449 0)
(-0.0976061 0.182048 0)
(-0.122427 0.189707 0)
(0.30645 0.450816 0)
(0.29047 0.416555 0)
(0.25986 0.38278 0)
(0.226861 0.344953 0)
(0.18775 0.311416 0)
(0.148821 0.284901 0)
(0.114365 0.26786 0)
(0.0887717 0.258045 0)
(0.0750587 0.251023 0)
(0.0760901 0.249042 0)
(0.0915742 0.247648 0)
(0.112412 0.239029 0)
(0.134426 0.230513 0)
(0.16102 0.223774 0)
(0.188109 0.210927 0)
(0.212283 0.191628 0)
(0.235814 0.162458 0)
(0.250236 0.128457 0)
(0.261094 0.0849189 0)
(0.266715 0.028906 0)
(0.260286 -0.0379705 0)
(0.232395 -0.12255 0)
(0.179111 -0.229741 0)
(0.128573 -0.318591 0)
(0.11399 -0.351896 0)
(0.119348 -0.363001 0)
(0.105387 -0.360905 0)
(0.0485535 -0.334372 0)
(-0.00779137 -0.295236 0)
(-0.0338328 -0.255736 0)
(-0.0300746 -0.215175 0)
(-0.0272135 -0.173952 0)
(-0.0196172 -0.128017 0)
(-0.0212921 -0.0778004 0)
(-0.0144665 -0.0264403 0)
(-0.0190275 0.0327524 0)
(-0.0127267 0.0977871 0)
(-0.0201091 0.153949 0)
(-0.0237813 0.186068 0)
(-0.0440971 0.195484 0)
(-0.0127294 0.454216 0)
(-0.0052632 0.434808 0)
(-0.0131562 0.410216 0)
(-0.0216209 0.376143 0)
(-0.0393097 0.343707 0)
(-0.0487596 0.316408 0)
(-0.0481317 0.296217 0)
(-0.0357903 0.281507 0)
(-0.0129845 0.267043 0)
(0.0182463 0.250889 0)
(0.0559985 0.233978 0)
(0.0930402 0.215776 0)
(0.126045 0.201748 0)
(0.152348 0.185008 0)
(0.171268 0.164058 0)
(0.18331 0.139861 0)
(0.195329 0.10791 0)
(0.207033 0.0627276 0)
(0.212322 0.00769554 0)
(0.203342 -0.0563911 0)
(0.177891 -0.140452 0)
(0.134234 -0.241006 0)
(0.0965464 -0.317873 0)
(0.0926221 -0.352177 0)
(0.103525 -0.366605 0)
(0.115311 -0.374083 0)
(0.115036 -0.373097 0)
(0.0832178 -0.353129 0)
(0.0333617 -0.315753 0)
(0.00446795 -0.27617 0)
(0.0079873 -0.233645 0)
(0.0205633 -0.189384 0)
(0.0316526 -0.139914 0)
(0.0359599 -0.0867914 0)
(0.0445069 -0.0314128 0)
(0.0416608 0.0303612 0)
(0.0498831 0.0999519 0)
(0.0477548 0.164996 0)
(0.0460293 0.203612 0)
(0.0254254 0.214067 0)
(-0.17673 0.460978 0)
(-0.157809 0.44484 0)
(-0.152775 0.417007 0)
(-0.141633 0.392779 0)
(-0.136432 0.366898 0)
(-0.121066 0.345797 0)
(-0.100286 0.325631 0)
(-0.0736327 0.304237 0)
(-0.0425808 0.279811 0)
(-0.00683383 0.253966 0)
(0.0331514 0.228862 0)
(0.0715673 0.204021 0)
(0.103892 0.183853 0)
(0.121639 0.160218 0)
(0.134978 0.129509 0)
(0.144837 0.0892363 0)
(0.152754 0.0407245 0)
(0.154962 -0.0159259 0)
(0.146787 -0.0846548 0)
(0.122018 -0.169757 0)
(0.0855518 -0.260179 0)
(0.062018 -0.322966 0)
(0.0659324 -0.353308 0)
(0.0805282 -0.370877 0)
(0.0984013 -0.376656 0)
(0.112459 -0.384119 0)
(0.119438 -0.383798 0)
(0.108228 -0.372157 0)
(0.0752012 -0.338752 0)
(0.0483963 -0.294444 0)
(0.0501171 -0.249694 0)
(0.0712568 -0.207643 0)
(0.0852688 -0.154394 0)
(0.0993708 -0.0944619 0)
(0.106729 -0.0294612 0)
(0.109576 0.0358804 0)
(0.114279 0.102241 0)
(0.115421 0.168823 0)
(0.114504 0.214457 0)
(0.0918473 0.226447 0)
(-0.204731 0.476102 0)
(-0.205006 0.457325 0)
(-0.196134 0.441259 0)
(-0.179479 0.425848 0)
(-0.160907 0.407536 0)
(-0.137506 0.389626 0)
(-0.113177 0.370442 0)
(-0.0882213 0.347906 0)
(-0.0613865 0.321285 0)
(-0.030758 0.291877 0)
(0.00386378 0.260616 0)
(0.036984 0.224791 0)
(0.0642464 0.18362 0)
(0.0812815 0.134859 0)
(0.0948116 0.081436 0)
(0.0989732 0.0221435 0)
(0.0982299 -0.044722 0)
(0.0901611 -0.120655 0)
(0.0701168 -0.204559 0)
(0.0438875 -0.281392 0)
(0.0322532 -0.331011 0)
(0.0399604 -0.357351 0)
(0.0561524 -0.371898 0)
(0.0735083 -0.380407 0)
(0.0911708 -0.383945 0)
(0.105493 -0.391193 0)
(0.117744 -0.392278 0)
(0.119739 -0.388875 0)
(0.109536 -0.365372 0)
(0.0909761 -0.326591 0)
(0.0939881 -0.27914 0)
(0.116842 -0.231177 0)
(0.132677 -0.172828 0)
(0.154224 -0.108869 0)
(0.158522 -0.0372091 0)
(0.170697 0.0328948 0)
(0.176467 0.102733 0)
(0.180102 0.171169 0)
(0.18465 0.219862 0)
(0.159731 0.237659 0)
(-0.208472 0.494974 0)
(-0.227266 0.479116 0)
(-0.219832 0.459475 0)
(-0.200764 0.446039 0)
(-0.179764 0.435167 0)
(-0.157924 0.419687 0)
(-0.138586 0.402208 0)
(-0.119237 0.381158 0)
(-0.097478 0.356724 0)
(-0.070521 0.32883 0)
(-0.0389002 0.29447 0)
(-0.00807101 0.251273 0)
(0.0124573 0.198714 0)
(0.0183697 0.125338 0)
(0.0256902 0.0384482 0)
(0.025894 -0.0548425 0)
(0.0229734 -0.148246 0)
(0.01628 -0.233175 0)
(0.00930544 -0.298285 0)
(0.0108576 -0.33682 0)
(0.0202278 -0.3595 0)
(0.0348488 -0.372467 0)
(0.0510556 -0.379832 0)
(0.0674348 -0.386423 0)
(0.0836471 -0.389533 0)
(0.0980957 -0.396465 0)
(0.112278 -0.399187 0)
(0.124308 -0.399218 0)
(0.130277 -0.38778 0)
(0.129028 -0.358921 0)
(0.135221 -0.31318 0)
(0.149607 -0.257432 0)
(0.162241 -0.190575 0)
(0.183951 -0.119546 0)
(0.188339 -0.0433494 0)
(0.206714 0.0291866 0)
(0.218018 0.0999036 0)
(0.225808 0.172533 0)
(0.237415 0.227924 0)
(0.234267 0.255889 0)
(-0.211236 0.46279 0)
(-0.248922 0.45182 0)
(-0.238881 0.437674 0)
(-0.213812 0.43711 0)
(-0.190681 0.439597 0)
(-0.172895 0.442675 0)
(-0.1565 0.447113 0)
(-0.136652 0.445995 0)
(-0.110872 0.441754 0)
(-0.0787592 0.427291 0)
(-0.0462228 0.392873 0)
(-0.0237297 0.325606 0)
(-0.0104962 0.218067 0)
(-0.00792908 0.0896703 0)
(-0.012498 -0.0470318 0)
(-0.0176592 -0.169684 0)
(-0.0206774 -0.261064 0)
(-0.0194012 -0.318027 0)
(-0.00926716 -0.347759 0)
(0.00473635 -0.363654 0)
(0.0190645 -0.372962 0)
(0.0331274 -0.380523 0)
(0.047264 -0.387042 0)
(0.0607807 -0.393301 0)
(0.0750252 -0.395911 0)
(0.0882468 -0.401924 0)
(0.102438 -0.40458 0)
(0.117036 -0.407494 0)
(0.132677 -0.405838 0)
(0.148319 -0.392304 0)
(0.154758 -0.356319 0)
(0.160004 -0.295953 0)
(0.169082 -0.222838 0)
(0.190914 -0.144606 0)
(0.196276 -0.0647 0)
(0.216997 0.00753256 0)
(0.22824 0.0770023 0)
(0.242061 0.145861 0)
(0.262561 0.224092 0)
(0.264601 0.257834 0)
(-0.211236 -0.46279 0)
(-0.248922 -0.45182 0)
(-0.238881 -0.437674 0)
(-0.213812 -0.43711 0)
(-0.190681 -0.439597 0)
(-0.172895 -0.442675 0)
(-0.1565 -0.447113 0)
(-0.136652 -0.445995 0)
(-0.110872 -0.441754 0)
(-0.0787592 -0.427291 0)
(-0.0462228 -0.392873 0)
(-0.0237297 -0.325606 0)
(-0.0104962 -0.218067 0)
(-0.00792908 -0.0896703 0)
(-0.012498 0.0470318 0)
(-0.0176592 0.169684 0)
(-0.0206774 0.261064 0)
(-0.0194012 0.318027 0)
(-0.00926716 0.347759 0)
(0.00473635 0.363654 0)
(0.0190645 0.372962 0)
(0.0331274 0.380523 0)
(0.047264 0.387042 0)
(0.0607807 0.393301 0)
(0.0750252 0.395911 0)
(0.0882468 0.401924 0)
(0.102438 0.40458 0)
(0.117036 0.407494 0)
(0.132677 0.405838 0)
(0.148319 0.392304 0)
(0.154758 0.356319 0)
(0.160004 0.295953 0)
(0.169082 0.222838 0)
(0.190914 0.144606 0)
(0.196276 0.0647 0)
(0.216997 -0.00753256 0)
(0.22824 -0.0770023 0)
(0.242061 -0.145861 0)
(0.262561 -0.224092 0)
(0.264601 -0.257834 0)
(-0.208472 -0.494974 0)
(-0.227266 -0.479116 0)
(-0.219832 -0.459475 0)
(-0.200764 -0.446039 0)
(-0.179764 -0.435167 0)
(-0.157924 -0.419687 0)
(-0.138586 -0.402208 0)
(-0.119237 -0.381158 0)
(-0.097478 -0.356724 0)
(-0.070521 -0.32883 0)
(-0.0389002 -0.29447 0)
(-0.00807101 -0.251273 0)
(0.0124573 -0.198714 0)
(0.0183697 -0.125338 0)
(0.0256902 -0.0384482 0)
(0.025894 0.0548425 0)
(0.0229734 0.148246 0)
(0.01628 0.233175 0)
(0.00930544 0.298285 0)
(0.0108576 0.33682 0)
(0.0202278 0.3595 0)
(0.0348488 0.372467 0)
(0.0510556 0.379832 0)
(0.0674348 0.386423 0)
(0.0836471 0.389533 0)
(0.0980957 0.396465 0)
(0.112278 0.399187 0)
(0.124308 0.399218 0)
(0.130277 0.38778 0)
(0.129028 0.358921 0)
(0.135221 0.31318 0)
(0.149607 0.257432 0)
(0.162241 0.190575 0)
(0.183951 0.119546 0)
(0.188339 0.0433494 0)
(0.206714 -0.0291866 0)
(0.218018 -0.0999036 0)
(0.225808 -0.172533 0)
(0.237415 -0.227924 0)
(0.234267 -0.255889 0)
(-0.204731 -0.476102 0)
(-0.205006 -0.457325 0)
(-0.196134 -0.441259 0)
(-0.179479 -0.425848 0)
(-0.160907 -0.407536 0)
(-0.137506 -0.389626 0)
(-0.113177 -0.370442 0)
(-0.0882213 -0.347906 0)
(-0.0613865 -0.321285 0)
(-0.030758 -0.291877 0)
(0.00386378 -0.260616 0)
(0.036984 -0.224791 0)
(0.0642464 -0.18362 0)
(0.0812815 -0.134859 0)
(0.0948116 -0.081436 0)
(0.0989732 -0.0221435 0)
(0.0982299 0.044722 0)
(0.0901611 0.120655 0)
(0.0701168 0.204559 0)
(0.0438875 0.281392 0)
(0.0322532 0.331011 0)
(0.0399604 0.357351 0)
(0.0561524 0.371898 0)
(0.0735083 0.380407 0)
(0.0911708 0.383945 0)
(0.105493 0.391193 0)
(0.117744 0.392278 0)
(0.119739 0.388875 0)
(0.109536 0.365372 0)
(0.0909761 0.326591 0)
(0.0939881 0.27914 0)
(0.116842 0.231177 0)
(0.132677 0.172828 0)
(0.154224 0.108869 0)
(0.158522 0.0372091 0)
(0.170697 -0.0328948 0)
(0.176467 -0.102733 0)
(0.180102 -0.171169 0)
(0.18465 -0.219862 0)
(0.159731 -0.237659 0)
(-0.17673 -0.460978 0)
(-0.157809 -0.44484 0)
(-0.152775 -0.417007 0)
(-0.141633 -0.392779 0)
(-0.136432 -0.366898 0)
(-0.121066 -0.345797 0)
(-0.100286 -0.325631 0)
(-0.0736327 -0.304237 0)
(-0.0425808 -0.279811 0)
(-0.00683383 -0.253966 0)
(0.0331514 -0.228862 0)
(0.0715673 -0.204021 0)
(0.103892 -0.183853 0)
(0.121639 -0.160218 0)
(0.134978 -0.129509 0)
(0.144837 -0.0892363 0)
(0.152754 -0.0407245 0)
(0.154962 0.0159259 0)
(0.146787 0.0846548 0)
(0.122018 0.169757 0)
(0.0855518 0.260179 0)
(0.062018 0.322966 0)
(0.0659324 0.353308 0)
(0.0805282 0.370877 0)
(0.0984013 0.376656 0)
(0.112459 0.384119 0)
(0.119438 0.383798 0)
(0.108228 0.372157 0)
(0.0752012 0.338752 0)
(0.0483963 0.294444 0)
(0.0501171 0.249694 0)
(0.0712568 0.207643 0)
(0.0852688 0.154394 0)
(0.0993708 0.0944619 0)
(0.106729 0.0294612 0)
(0.109576 -0.0358804 0)
(0.114279 -0.102241 0)
(0.115421 -0.168823 0)
(0.114504 -0.214457 0)
(0.0918473 -0.226447 0)
(-0.0127294 -0.454216 0)
(-0.0052632 -0.434808 0)
(-0.0131562 -0.410216 0)
(-0.0216209 -0.376143 0)
(-0.0393097 -0.343707 0)
(-0.0487596 -0.316408 0)
(-0.0481317 -0.296217 0)
(-0.0357903 -0.281507 0)
(-0.0129845 -0.267043 0)