/*--------------------------------*- C++ -*----------------------------------*\
| =========                 |                                                 |
| \\      /  F ield         | OpenFOAM: The Open Source CFD Toolbox           |
|  \\    /   O peration     | Version:  v1912                                 |
|   \\  /    A nd           | Website:  www.openfoam.com                      |
|    \\/     M anipulation  |                                                 |
\*---------------------------------------------------------------------------*/
FoamFile
{
    version     2.0;
    format      ascii;
    class       volTensorField;
    location    "3.2";
    object      grad(U);
}
// * * * * * * * * * * * * * * * * * * * * * * * * * * * * * * * * * * * * * //

dimensions      [0 0 -1 0 0 0 0];


internalField   nonuniform List<tensor> 
1900
(
(-2.98194 -2.03641e-05 0 -1.6376e-05 -1.48098e-05 0 0 0 0)
(2.14953 -5.43099e-06 0 -3.84261e-05 -2.00145e-05 0 0 0 0)
(-0.0527002 5.36193e-05 0 -6.52475e-05 -3.17747e-05 0 0 0 0)
(-0.0468659 0.000667731 0 -0.000122953 0.000104448 0 0 0 0)
(-0.048847 0.00191821 0 0.00015564 0.00121549 0 0 0 0)
(-0.0476455 0.00218487 0 0.00176245 0.00374777 0 0 0 0)
(-0.0416605 -0.00529913 0 0.00583699 0.00601913 0 0 0 0)
(-0.0261872 -0.0321546 0 0.0104003 -0.00483365 0 0 0 0)
(0.0607155 -0.094184 0 -6.2773e-05 -0.0462271 0 0 0 0)
(0.0736168 -0.263353 0 -0.0683979 -0.172584 0 0 0 0)
(-2.982 -1.44601e-05 0 -2.07555e-05 9.89893e-06 0 0 0 0)
(2.14948 -1.1534e-05 0 -5.2474e-05 1.04652e-05 0 0 0 0)
(-0.0527847 7.08431e-05 0 -8.03467e-05 1.53299e-05 0 0 0 0)
(-0.046645 0.000579536 0 -3.58388e-05 -4.3154e-05 0 0 0 0)
(-0.0469616 0.00172511 0 0.000609607 -0.000652401 0 0 0 0)
(-0.0419642 0.00261877 0 0.00304927 -0.00196137 0 0 0 0)
(-0.0330226 -0.00328229 0 0.00818616 -0.00283727 0 0 0 0)
(-0.0320869 -0.0200917 0 0.0136514 0.00333776 0 0 0 0)
(-0.0180826 -0.0735665 0 -0.00148826 0.0293173 0 0 0 0)
(-0.0940986 -0.178042 0 -0.108638 0.0975218 0 0 0 0)
(-2.98202 -4.07394e-13 0 -1.86483e-13 9.82174e-06 0 0 0 0)
(2.14947 4.36297e-14 0 -8.11796e-14 1.90985e-05 0 0 0 0)
(-0.0526836 1.26936e-13 0 7.04731e-14 3.28897e-05 0 0 0 0)
(-0.046176 2.30458e-13 0 1.47045e-13 -0.000122588 0 0 0 0)
(-0.0457619 -2.51264e-15 0 -4.22839e-14 -0.00112618 0 0 0 0)
(-0.040069 -1.49593e-13 0 1.01644e-14 -0.0035728 0 0 0 0)
(-0.0310583 4.13819e-14 0 -6.36969e-14 -0.00636372 0 0 0 0)
(-0.0358616 -8.58543e-14 0 -1.175e-13 0.00299178 0 0 0 0)
(-0.0615734 -1.18348e-13 0 1.46367e-14 0.0338196 0 0 0 0)
(-0.156286 5.5405e-14 0 4.47233e-15 0.150125 0 0 0 0)
(-2.982 1.44601e-05 0 2.07555e-05 9.89893e-06 0 0 0 0)
(2.14948 1.1534e-05 0 5.2474e-05 1.04652e-05 0 0 0 0)
(-0.0527847 -7.08431e-05 0 8.03467e-05 1.53299e-05 0 0 0 0)
(-0.046645 -0.000579536 0 3.58388e-05 -4.3154e-05 0 0 0 0)
(-0.0469616 -0.00172511 0 -0.000609607 -0.000652401 0 0 0 0)
(-0.0419642 -0.00261877 0 -0.00304927 -0.00196137 0 0 0 0)
(-0.0330226 0.00328229 0 -0.00818616 -0.00283727 0 0 0 0)
(-0.0320869 0.0200917 0 -0.0136514 0.00333776 0 0 0 0)
(-0.0180826 0.0735665 0 0.00148826 0.0293173 0 0 0 0)
(-0.0940986 0.178042 0 0.108638 0.0975218 0 0 0 0)
(-2.98194 2.03641e-05 0 1.6376e-05 -1.48098e-05 0 0 0 0)
(2.14953 5.43099e-06 0 3.84261e-05 -2.00145e-05 0 0 0 0)
(-0.0527002 -5.36192e-05 0 6.52475e-05 -3.17747e-05 0 0 0 0)
(-0.0468659 -0.000667731 0 0.000122953 0.000104448 0 0 0 0)
(-0.048847 -0.00191821 0 -0.00015564 0.00121549 0 0 0 0)
(-0.0476455 -0.00218487 0 -0.00176245 0.00374777 0 0 0 0)
(-0.0416605 0.00529913 0 -0.00583699 0.00601913 0 0 0 0)
(-0.0261872 0.0321546 0 -0.0104003 -0.00483365 0 0 0 0)
(0.0607155 0.094184 0 6.2773e-05 -0.0462271 0 0 0 0)
(0.0736168 0.263353 0 0.0683979 -0.172584 0 0 0 0)
(-0.0893794 -0.413097 1.22604e-17 -0.227673 0.190918 -1.83906e-17 -6.74504e-17 -7.59299e-17 3.32318e-33)
(-0.229666 -0.446644 0 -0.310136 0.297525 0 1.63244e-16 6.32674e-17 0)
(-0.286481 -0.510212 0 -0.469089 0.299478 0 2.48834e-16 1.10577e-16 0)
(-1.2674 -0.271001 0 -1.15829 0.515202 0 0 0 0)
(0.250542 -2.01457 -4.99595e-16 -4.01468 4.25205 7.49392e-16 1.89453e-15 1.26302e-15 1.35415e-31)
(-0.242013 -0.256463 0 -0.223667 0.273852 0 -1.08591e-16 -4.1431e-17 0)
(-0.435365 -0.317629 0 -0.286126 0.418312 0 -1.63244e-16 -6.32674e-17 0)
(-0.768278 -0.474644 0 -0.595544 0.709378 0 -2.48834e-16 -1.10577e-16 0)
(-1.56189 -0.366001 0 -1.38626 1.21719 0 0 0 0)
(-1.09966 0.328138 0 -1.65438 1.42121 0 0 0 0)
(-0.329426 7.58877e-14 0 4.68937e-14 0.369415 0 0 0 0)
(-0.597864 3.54133e-13 0 1.07885e-13 0.563869 0 0 0 0)
(-1.07827 1.6903e-13 0 2.89497e-13 1.02898 0 0 0 0)
(-1.92522 -1.26349e-13 0 4.85632e-13 1.87194 0 0 0 0)
(-1.3713 8.44057e-14 0 7.71203e-13 2.63264 0 0 0 0)
(-0.242013 0.256463 0 0.223667 0.273852 0 -1.08591e-16 4.1431e-17 0)
(-0.435365 0.317629 0 0.286126 0.418312 0 -1.63244e-16 6.32674e-17 0)
(-0.768278 0.474644 0 0.595544 0.709378 0 -2.48834e-16 1.10577e-16 0)
(-1.56189 0.366001 0 1.38626 1.21719 0 0 0 0)
(-1.09966 -0.328138 0 1.65438 1.42121 0 0 0 0)
(-0.0893794 0.413097 -1.22604e-17 0.227673 0.190918 -1.83906e-17 2.84632e-16 -1.58792e-16 3.32318e-33)
(-0.229666 0.446644 0 0.310136 0.297525 0 1.63244e-16 -6.32674e-17 0)
(-0.286481 0.510212 0 0.469089 0.299478 0 2.48834e-16 -1.10577e-16 0)
(-1.2674 0.271001 -2.81873e-17 1.15829 0.515202 -4.22809e-17 7.23262e-16 -4.82174e-16 7.64018e-33)
(0.250542 2.01457 4.99595e-16 4.01468 4.25205 7.49392e-16 -1.89453e-15 1.26302e-15 1.35415e-31)
(0.243581 0.519173 3.11323e-18 -0.499981 -1.07476 2.8019e-17 -1.15651e-15 9.44602e-17 -8.43842e-34)
(0.847441 -0.045292 -1.08512e-18 -0.281272 -0.522683 -9.76604e-18 7.54623e-16 -6.71643e-17 -2.94121e-34)
(0.5521 0.056458 0 -0.0343023 -0.280207 0 0 0 0)
(0.0748198 0.331872 -1.57078e-18 0.581408 0.365598 -1.4137e-17 -3.79193e-16 5.50887e-17 4.2576e-34)
(-0.87404 0.285382 4.29271e-18 2.08968 1.49518 3.86344e-17 2.04366e-16 -2.27074e-17 1.16354e-33)
(0.588523 0.517062 0 -0.614408 -0.587632 0 5.85785e-16 -3.10461e-17 0)
(0.940551 -0.0483122 0 -0.29555 -0.526067 0 -3.81547e-16 2.57114e-17 0)
(0.832948 0.0794878 0 0.0922871 -0.444678 0 0 0 0)
(0.923939 0.429935 0 0.890076 -0.600597 0 2.1935e-16 -3.679e-17 0)
(1.42943 0.320957 0 3.0458 -1.0184 0 -1.24256e-17 9.26663e-18 0)
(0.72841 3.08533e-13 0 1.44287e-12 -0.88645 0 0 0 0)
(1.04914 5.05237e-13 0 2.78927e-12 -0.655315 0 0 0 0)
(0.990043 3.86073e-13 0 4.45226e-12 -0.483372 0 0 0 0)
(1.33024 2.14848e-13 0 5.98969e-12 -0.993576 0 -7.70175e-17 4.78019e-29 0)
(1.98541 -5.88092e-13 0 8.18818e-12 -2.46152 0 2.48512e-17 -5.13395e-29 0)
(0.588523 -0.517062 0 0.614408 -0.587632 0 5.85785e-16 3.10461e-17 0)
(0.940551 0.0483122 0 0.29555 -0.526067 0 -3.81547e-16 -2.57114e-17 0)
(0.832948 -0.0794878 0 -0.0922871 -0.444678 0 0 0 0)
(0.923939 -0.429935 0 -0.890076 -0.600597 0 2.1935e-16 3.679e-17 0)
(1.42943 -0.320957 0 -3.0458 -1.0184 0 -1.24256e-17 -9.26663e-18 0)
(0.243581 -0.519173 0 0.499981 -1.07476 0 -5.85785e-16 -3.10461e-17 0)
(0.847441 0.045292 1.08512e-18 0.281272 -0.522683 -9.76604e-18 8.47098e-18 -1.57415e-17 -2.94121e-34)
(0.5521 -0.056458 0 0.0343023 -0.280207 0 0 0 0)
(0.0748198 -0.331872 1.57078e-18 -0.581408 0.365598 -1.4137e-17 1.75101e-17 -1.10106e-17 4.2576e-34)
(-0.87404 -0.285382 -4.29271e-18 -2.08968 1.49518 3.86344e-17 -2.04366e-16 -2.27074e-17 1.16354e-33)
(0.677968 -0.888037 0 10.1519 0.104126 0 0 0 0)
(1.27523 -0.988184 0 5.98098 0.749929 0 0 0 0)
(-0.797438 0.112646 0 3.25927 1.17285 0 0 0 0)
(-0.840898 0.537162 0 0.970664 1.0685 0 0 0 0)
(-0.475868 0.328499 0 0.134087 0.70101 0 0 0 0)
(-0.27669 0.0873031 0 0.0450113 0.525599 0 0 0 0)
(-0.0794443 0.0252988 0 0.0177037 0.464568 0 0 0 0)
(0.0163014 0.0139848 0 0.0120221 0.438136 0 0 0 0)
(0.05592 0.00770479 0 0.00631556 0.418501 0 0 0 0)
(0.0879443 0.00251324 0 0.00279179 0.413855 0 0 0 0)
(0.117679 0.00206718 0 0.000277654 0.408857 0 0 0 0)
(0.147386 0.00082575 0 -0.000257538 0.407248 0 0 0 0)
(0.182559 0.000617799 0 -0.000532729 0.405975 0 0 0 0)
(0.224936 0.000448853 0 -0.000584087 0.405098 0 0 0 0)
(0.270633 0.000314104 0 -0.000517455 0.404508 0 0 0 0)
(0.313009 0.000282635 0 -0.000391077 0.404065 0 0 0 0)
(0.347641 0.000219504 0 -0.000246496 0.403539 0 0 0 0)
(0.371144 0.000489197 0 -0.000132584 0.403291 0 0 0 0)
(0.384859 -0.000318458 0 -1.00102e-05 0.401837 0 0 0 0)
(0.391156 -0.000567363 0 6.14009e-05 0.404376 0 0 0 0)
(0.393369 0.000944863 0 0.000206792 0.403797 0 0 0 0)
(0.38962 0.000478039 0 0.000359732 0.401142 0 0 0 0)
(0.378408 -0.000181781 0 0.000551571 0.402153 0 0 0 0)
(0.360135 0.000214797 0 0.000746804 0.401756 0 0 0 0)
(0.333004 0.000316911 0 0.000973285 0.401402 0 0 0 0)
(0.300925 0.000513508 0 0.00118938 0.400642 0 0 0 0)
(0.268018 0.000663387 0 0.00135582 0.399591 0 0 0 0)
(0.239889 0.000765931 0 0.00143145 0.398304 0 0 0 0)
(0.219471 0.000808411 0 0.00135507 0.396901 0 0 0 0)
(0.206368 0.000798161 0 0.00106293 0.395482 0 0 0 0)
(0.198504 0.000783989 0 0.000546846 0.394144 0 0 0 0)
(0.193939 0.000627756 0 -0.000153831 0.392749 0 0 0 0)
(0.190977 0.000975163 0 -0.0009204 0.392068 0 0 0 0)
(0.184376 0.000310778 0 -0.00119518 0.389302 0 0 0 0)
(0.166571 0.00299528 0 -0.00285703 0.391015 0 0 0 0)
(0.13921 8.23496e-05 0 -0.00147286 0.380404 0 0 0 0)
(0.105476 0.0012953 0 -0.00577567 0.390128 0 0 0 0)
(0.147069 -0.0097571 0 -0.0095299 0.376803 0 0 0 0)
(2.38727 -0.0103961 0 -0.0333272 0.414166 0 0 0 0)
(2.2835 0.00399995 0 -0.039441 0.413982 0 0 0 0)
(1.5674 -0.744184 0 8.46356 -0.783706 0 0 0 0)
(-0.00915382 -0.86502 0 5.14559 2.04522 0 0 0 0)
(-1.77338 0.131163 0 2.98399 2.61318 0 0 0 0)
(-1.44467 0.401695 0 0.784295 1.658 0 0 0 0)
(-0.639661 0.199293 0 -0.0440521 0.766682 0 0 0 0)
(-0.277343 0.0444807 0 -0.0459252 0.528789 0 0 0 0)
(-0.0798936 0.0116854 0 -0.0398158 0.466577 0 0 0 0)
(0.0163945 0.00701512 0 -0.040544 0.441824 0 0 0 0)
(0.0565621 0.00387789 0 -0.0350474 0.418504 0 0 0 0)
(0.0881163 0.00113579 0 -0.0328792 0.415339 0 0 0 0)
(0.118062 0.00106083 0 -0.0307826 0.409865 0 0 0 0)
(0.148061 0.000433244 0 -0.0276819 0.408233 0 0 0 0)
(0.183348 0.000330256 0 -0.0244424 0.407027 0 0 0 0)
(0.225822 0.000249629 0 -0.0211163 0.406109 0 0 0 0)
(0.271596 0.000178566 0 -0.0177133 0.405484 0 0 0 0)
(0.314019 0.000156034 0 -0.0142891 0.405029 0 0 0 0)
(0.34867 0.000117755 0 -0.0109062 0.404512 0 0 0 0)
(0.372177 0.000247758 0 -0.00762251 0.404275 0 0 0 0)
(0.385886 -0.000159291 0 -0.00443332 0.402831 0 0 0 0)
(0.392176 -0.000284588 0 -0.00135316 0.405369 0 0 0 0)
(0.394394 0.000472314 0 0.00170296 0.404781 0 0 0 0)
(0.39065 0.000236817 0 0.00480701 0.402121 0 0 0 0)
(0.379434 -9.71945e-05 0 0.00800139 0.403138 0 0 0 0)
(0.361151 9.59948e-05 0 0.0112862 0.402746 0 0 0 0)
(0.334002 0.000140028 0 0.014679 0.402399 0 0 0 0)
(0.301889 0.000230795 0 0.0181494 0.401657 0 0 0 0)
(0.268929 0.000299876 0 0.0216567 0.400634 0 0 0 0)
(0.240733 0.000348967 0 0.0251514 0.399377 0 0 0 0)
(0.220235 0.000372256 0 0.0286026 0.398001 0 0 0 0)
(0.20705 0.000372372 0 0.0320011 0.396598 0 0 0 0)
(0.199112 0.000370015 0 0.0353792 0.395258 0 0 0 0)
(0.194488 0.000298617 0 0.0387861 0.393903 0 0 0 0)
(0.191516 0.000469059 0 0.0422647 0.3931 0 0 0 0)
(0.184735 0.000162409 0 0.0460081 0.390551 0 0 0 0)
(0.167099 0.00154756 0 0.0490968 0.392031 0 0 0 0)
(0.139352 8.78634e-05 0 0.0538402 0.380254 0 0 0 0)
(0.10483 0.000724805 0 0.0562075 0.391748 0 0 0 0)
(0.14228 -0.00563588 0 0.0568443 0.375802 0 0 0 0)
(2.37416 -0.00482358 0 0.0319872 0.425288 0 0 0 0)
(2.27484 0.00319171 0 0.010356 0.411538 0 0 0 0)
(1.68513 -8.19992e-13 0 7.34991e-12 -2.41379 0 0 0 0)
(-0.318827 -5.97839e-14 0 3.55027e-12 2.79419 0 0 0 0)
(-2.06618 1.47004e-13 0 2.68882e-12 3.53322 0 0 0 0)
(-1.72178 -5.3504e-13 0 -3.91298e-13 1.89244 0 0 0 0)
(-0.717387 -1.41163e-12 0 -2.21079e-12 0.77157 0 0 0 0)
(-0.275457 -1.46631e-12 0 -3.60744e-13 0.522304 0 0 0 0)
(-0.0778789 -8.84815e-13 0 2.38722e-12 0.465765 0 0 0 0)
(0.0176886 1.35046e-12 0 5.43481e-12 0.441967 0 0 0 0)
(0.0581498 3.53784e-12 0 -9.67897e-13 0.417536 0 0 0 0)
(0.089185 3.58379e-12 0 -2.77497e-11 0.415307 0 0 0 0)
(0.119191 4.4712e-13 0 -6.50344e-11 0.409728 0 0 0 0)
(0.14923 -1.11869e-11 0 -9.84229e-11 0.408013 0 0 0 0)
(0.184469 -3.10361e-11 0 -1.12925e-10 0.406749 0 0 0 0)
(0.226894 -4.63501e-11 0 -1.11672e-10 0.405743 0 0 0 0)
(0.272619 -2.42491e-11 0 -1.30014e-10 0.405033 0 0 0 0)
(0.31499 7.76201e-11 0 -2.06885e-10 0.404515 0 0 0 0)
(0.34958 1.5109e-10 0 -2.72589e-10 0.40396 0 0 0 0)
(0.373028 -2.82738e-11 0 -2.12218e-10 0.403706 0 0 0 0)
(0.386683 -1.44825e-10 0 -1.46863e-10 0.402257 0 0 0 0)
(0.392941 3.67548e-11 0 -4.09342e-11 0.404801 0 0 0 0)
(0.395161 6.47291e-11 0 -8.77741e-11 0.404213 0 0 0 0)
(0.391452 -2.22925e-10 0 4.77589e-11 0.401554 0 0 0 0)
(0.380292 -2.16408e-10 0 3.56727e-11 0.402585 0 0 0 0)
(0.362077 2.11042e-10 0 -7.9746e-11 0.402222 0 0 0 0)
(0.335001 3.10569e-10 0 -1.91795e-11 0.401925 0 0 0 0)
(0.302955 4.22929e-11 0 5.58906e-11 0.401259 0 0 0 0)
(0.270054 -1.25718e-10 0 -1.66257e-10 0.400338 0 0 0 0)
(0.24191 -1.30974e-10 0 -5.17176e-10 0.399198 0 0 0 0)
(0.221464 -7.58154e-11 0 -6.37816e-10 0.397939 0 0 0 0)
(0.208339 -4.96492e-11 0 -3.92371e-10 0.396638 0 0 0 0)
(0.200478 -4.06795e-12 0 6.21544e-11 0.395379 0 0 0 0)
(0.195942 3.53497e-11 0 5.42168e-10 0.394094 0 0 0 0)
(0.193078 8.17755e-11 0 9.1619e-10 0.393326 0 0 0 0)
(0.186364 6.31621e-11 0 1.16856e-09 0.39087 0 0 0 0)
(0.16885 4.5536e-11 0 1.26433e-09 0.39221 0 0 0 0)
(0.141279 2.57379e-10 0 1.2865e-09 0.38023 0 0 0 0)
(0.10635 6.05917e-11 0 1.25431e-09 0.391606 0 0 0 0)
(0.140023 -2.64836e-10 0 1.04325e-09 0.375247 0 0 0 0)
(2.37375 -1.86692e-10 0 3.02451e-10 0.430352 0 0 0 0)
(2.27721 -6.51201e-11 0 -2.55556e-11 0.408409 0 0 0 0)
(1.5674 0.744184 0 -8.46356 -0.783706 0 0 0 0)
(-0.00915382 0.86502 0 -5.14559 2.04522 0 0 0 0)
(-1.77338 -0.131163 0 -2.98399 2.61318 0 0 0 0)
(-1.44467 -0.401695 0 -0.784295 1.658 0 0 0 0)
(-0.639661 -0.199293 0 0.0440521 0.766682 0 0 0 0)
(-0.277343 -0.0444807 0 0.0459252 0.528789 0 0 0 0)
(-0.0798936 -0.0116854 0 0.0398158 0.466577 0 0 0 0)
(0.0163945 -0.00701512 0 0.040544 0.441824 0 0 0 0)
(0.0565621 -0.00387789 0 0.0350474 0.418504 0 0 0 0)
(0.0881163 -0.00113579 0 0.0328792 0.415339 0 0 0 0)
(0.118062 -0.00106083 0 0.0307826 0.409865 0 0 0 0)
(0.148061 -0.000433244 0 0.0276819 0.408233 0 0 0 0)
(0.183348 -0.000330256 0 0.0244424 0.407027 0 0 0 0)
(0.225822 -0.000249629 0 0.0211163 0.406109 0 0 0 0)
(0.271596 -0.000178566 0 0.0177133 0.405484 0 0 0 0)
(0.314019 -0.000156034 0 0.0142891 0.405029 0 0 0 0)
(0.34867 -0.000117755 0 0.0109062 0.404512 0 0 0 0)
(0.372177 -0.000247758 0 0.00762251 0.404275 0 0 0 0)
(0.385886 0.00015929 0 0.00443332 0.402831 0 0 0 0)
(0.392176 0.000284588 0 0.00135316 0.405369 0 0 0 0)
(0.394394 -0.000472314 0 -0.00170296 0.404781 0 0 0 0)
(0.39065 -0.000236817 0 -0.00480702 0.402121 0 0 0 0)
(0.379434 9.71941e-05 0 -0.00800139 0.403138 0 0 0 0)
(0.361151 -9.59944e-05 0 -0.0112862 0.402746 0 0 0 0)
(0.334002 -0.000140027 0 -0.014679 0.402399 0 0 0 0)
(0.301889 -0.000230795 0 -0.0181494 0.401657 0 0 0 0)
(0.268929 -0.000299876 0 -0.0216567 0.400634 0 0 0 0)
(0.240733 -0.000348968 0 -0.0251514 0.399377 0 0 0 0)
(0.220235 -0.000372256 0 -0.0286026 0.398001 0 0 0 0)
(0.20705 -0.000372372 0 -0.0320011 0.396598 0 0 0 0)
(0.199112 -0.000370015 0 -0.0353792 0.395258 0 0 0 0)
(0.194488 -0.000298617 0 -0.0387861 0.393903 0 0 0 0)
(0.191516 -0.000469059 0 -0.0422647 0.3931 0 0 0 0)
(0.184735 -0.000162409 0 -0.0460081 0.390551 0 0 0 0)
(0.167099 -0.00154756 0 -0.0490968 0.392031 0 0 0 0)
(0.139352 -8.78629e-05 0 -0.0538402 0.380254 0 0 0 0)
(0.10483 -0.000724805 0 -0.0562075 0.391748 0 0 0 0)
(0.14228 0.00563588 0 -0.0568443 0.375802 0 0 0 0)
(2.37416 0.00482358 0 -0.0319872 0.425288 0 0 0 0)
(2.27484 -0.00319171 0 -0.010356 0.411538 0 0 0 0)
(0.677968 0.888037 0 -10.1519 0.104126 0 0 0 0)
(1.27523 0.988184 0 -5.98098 0.749929 0 0 0 0)
(-0.797438 -0.112646 0 -3.25927 1.17285 0 0 0 0)
(-0.840898 -0.537162 0 -0.970664 1.0685 0 0 0 0)
(-0.475868 -0.328499 0 -0.134087 0.70101 0 0 0 0)
(-0.27669 -0.0873031 0 -0.0450113 0.525599 0 0 0 0)
(-0.0794443 -0.0252988 0 -0.0177037 0.464568 0 0 0 0)
(0.0163014 -0.0139848 0 -0.0120221 0.438136 0 0 0 0)
(0.05592 -0.00770479 0 -0.00631556 0.418501 0 0 0 0)
(0.0879443 -0.00251324 0 -0.00279179 0.413855 0 0 0 0)
(0.117679 -0.00206718 0 -0.000277654 0.408857 0 0 0 0)
(0.147386 -0.00082575 0 0.000257538 0.407248 0 0 0 0)
(0.182559 -0.000617799 0 0.000532729 0.405975 0 0 0 0)
(0.224936 -0.000448853 0 0.000584087 0.405098 0 0 0 0)
(0.270633 -0.000314104 0 0.000517455 0.404508 0 0 0 0)
(0.313009 -0.000282635 0 0.000391077 0.404065 0 0 0 0)
(0.347641 -0.000219504 0 0.000246496 0.403539 0 0 0 0)
(0.371144 -0.000489197 0 0.000132584 0.403291 0 0 0 0)
(0.384859 0.000318457 0 1.00105e-05 0.401837 0 0 0 0)
(0.391156 0.000567363 0 -6.14009e-05 0.404376 0 0 0 0)
(0.393369 -0.000944863 0 -0.000206792 0.403797 0 0 0 0)
(0.38962 -0.000478039 0 -0.000359733 0.401142 0 0 0 0)
(0.378408 0.00018178 0 -0.000551572 0.402153 0 0 0 0)
(0.360135 -0.000214797 0 -0.000746805 0.401756 0 0 0 0)
(0.333004 -0.000316911 0 -0.000973286 0.401402 0 0 0 0)
(0.300925 -0.000513507 0 -0.00118938 0.400642 0 0 0 0)
(0.268018 -0.000663388 0 -0.00135582 0.399591 0 0 0 0)
(0.239889 -0.000765931 0 -0.00143145 0.398304 0 0 0 0)
(0.219471 -0.000808411 0 -0.00135507 0.396901 0 0 0 0)
(0.206368 -0.000798161 0 -0.00106293 0.395482 0 0 0 0)
(0.198504 -0.000783989 0 -0.000546845 0.394144 0 0 0 0)
(0.193939 -0.000627756 0 0.000153832 0.392749 0 0 0 0)
(0.190977 -0.000975163 0 0.000920401 0.392068 0 0 0 0)
(0.184376 -0.000310778 0 0.00119519 0.389302 0 0 0 0)
(0.166571 -0.00299528 0 0.00285703 0.391015 0 0 0 0)
(0.13921 -8.23491e-05 0 0.00147286 0.380404 0 0 0 0)
(0.105476 -0.0012953 0 0.00577567 0.390128 0 0 0 0)
(0.147069 0.0097571 0 0.0095299 0.376803 0 0 0 0)
(2.38727 0.0103961 0 0.0333272 0.414166 0 0 0 0)
(2.2835 -0.00399995 0 0.039441 0.413982 0 0 0 0)
(2.50803 1.08696 0 -4.22162 0.0219996 0 0 0 0)
(2.82932 1.39299 0 -2.81569 0.396789 0 0 0 0)
(0.241014 0.0472599 0 -1.79011 0.51003 0 0 0 0)
(-0.182447 -0.541034 0 -0.703617 0.575758 0 0 0 0)
(-0.24841 -0.390446 0 -0.333373 0.563432 0 0 0 0)
(-0.205095 -0.143281 0 -0.130361 0.494152 0 0 0 0)
(-0.0597199 -0.0508081 0 -0.0609479 0.453055 0 0 0 0)
(0.0236456 -0.0278526 0 -0.0414194 0.428556 0 0 0 0)
(0.0630944 -0.0146843 0 -0.0289697 0.414017 0 0 0 0)
(0.0921026 -0.00559299 0 -0.0196926 0.408857 0 0 0 0)
(0.120418 -0.00404123 0 -0.0151913 0.404728 0 0 0 0)
(0.149351 -0.00178665 0 -0.0131519 0.403025 0 0 0 0)
(0.184464 -0.00134682 0 -0.0114981 0.401646 0 0 0 0)
(0.226837 -0.000939493 0 -0.0100472 0.400798 0 0 0 0)
(0.272589 -0.000669399 0 -0.0086012 0.400227 0 0 0 0)
(0.315017 -0.000617667 0 -0.00712595 0.399781 0 0 0 0)
(0.349697 -0.000485881 0 -0.00562748 0.399243 0 0 0 0)
(0.373222 -0.00103607 0 -0.00407122 0.398999 0 0 0 0)
(0.386951 0.000656205 0 -0.00254348 0.397552 0 0 0 0)
(0.39322 0.00118706 0 -0.000939086 0.400134 0 0 0 0)
(0.395392 -0.00195451 0 0.000469147 0.399577 0 0 0 0)
(0.391625 -0.000989282 0 0.00189553 0.396907 0 0 0 0)
(0.380378 0.000384513 0 0.00320482 0.397913 0 0 0 0)
(0.362062 -0.000429663 0 0.00441081 0.397518 0 0 0 0)
(0.334879 -0.000634267 0 0.00544136 0.397182 0 0 0 0)
(0.302764 -0.00103994 0 0.00633582 0.396451 0 0 0 0)
(0.269832 -0.00134645 0 0.00711899 0.395432 0 0 0 0)
(0.241709 -0.00155409 0 0.00786936 0.394191 0 0 0 0)
(0.22135 -0.00163813 0 0.00866819 0.392833 0 0 0 0)
(0.208346 -0.00160976 0 0.00966146 0.391457 0 0 0 0)
(0.200579 -0.00160561 0 0.0108854 0.39018 0 0 0 0)
(0.196044 -0.00122045 0 0.0121408 0.38874 0 0 0 0)
(0.192792 -0.00204604 0 0.0134674 0.3883 0 0 0 0)
(0.186365 -0.000650958 0 0.0133361 0.38519 0 0 0 0)
(0.167883 -0.0054553 0 0.015427 0.38726 0 0 0 0)
(0.141346 -0.000650848 0 0.0132755 0.378134 0 0 0 0)
(0.109138 -0.00232389 0 0.0175487 0.385307 0 0 0 0)
(0.154026 0.0159493 0 0.0204669 0.376465 0 0 0 0)
(2.37777 0.0217017 0 0.0482518 0.393053 0 0 0 0)
(2.26867 -0.00237277 0 -0.0231505 0.385328 0 0 0 0)
(2.32493 1.04256 0 -0.576312 0.59503 0 0 0 0)
(2.78496 1.2414 0 -0.937363 0.348488 0 0 0 0)
(0.680984 -0.0259321 0 -0.827796 0.238463 0 0 0 0)
(0.209788 -0.483627 0 -0.49009 0.303861 0 0 0 0)
(-0.045428 -0.373919 0 -0.312335 0.426388 0 0 0 0)
(-0.052562 -0.163649 0 -0.137169 0.442334 0 0 0 0)
(-0.0043137 -0.0748308 0 -0.0626242 0.424724 0 0 0 0)
(0.0431786 -0.0441672 0 -0.0296085 0.409701 0 0 0 0)
(0.0730097 -0.0229449 0 -0.0154566 0.404625 0 0 0 0)
(0.0989919 -0.00981324 0 -0.00630876 0.398496 0 0 0 0)
(0.122514 -0.00662839 0 -0.00202817 0.395823 0 0 0 0)
(0.149891 -0.00328027 0 -0.000725085 0.394122 0 0 0 0)
(0.18453 -0.0023731 0 -0.000193003 0.392977 0 0 0 0)
(0.226709 -0.00155273 0 -7.95528e-05 0.392466 0 0 0 0)
(0.2724 -0.0011032 0 -3.06584e-05 0.392175 0 0 0 0)
(0.314798 -0.00105156 0 -6.24362e-05 0.391966 0 0 0 0)
(0.349482 -0.00083102 0 -0.000135396 0.391605 0 0 0 0)
(0.373002 -0.0018256 0 -0.000182333 0.391502 0 0 0 0)
(0.386756 0.00123108 0 -0.000294833 0.390153 0 0 0 0)
(0.392952 0.00218677 0 -0.000265783 0.392852 0 0 0 0)
(0.395016 -0.00351311 0 -0.000501812 0.392321 0 0 0 0)
(0.391181 -0.00180789 0 -0.000690415 0.389564 0 0 0 0)
(0.379775 0.000661897 0 -0.00105069 0.390485 0 0 0 0)
(0.361257 -0.000803408 0 -0.00156173 0.389988 0 0 0 0)
(0.333854 -0.00117447 0 -0.00231828 0.389518 0 0 0 0)
(0.301556 -0.00191821 0 -0.00328932 0.388594 0 0 0 0)
(0.268523 -0.00247482 0 -0.0043643 0.387356 0 0 0 0)
(0.240406 -0.00284793 0 -0.00554326 0.385813 0 0 0 0)
(0.220191 -0.00299792 0 -0.00646777 0.384176 0 0 0 0)
(0.207444 -0.00291921 0 -0.00710333 0.382457 0 0 0 0)
(0.199781 -0.00296238 0 -0.00735727 0.380863 0 0 0 0)
(0.195298 -0.0021217 0 -0.00763233 0.37884 0 0 0 0)
(0.191155 -0.00382098 0 -0.00739336 0.378291 0 0 0 0)
(0.185198 -0.00113047 0 -0.0100473 0.373902 0 0 0 0)
(0.16581 -0.00847601 0 -0.00847872 0.375475 0 0 0 0)
(0.14011 -0.00165883 0 -0.0123382 0.367909 0 0 0 0)
(0.110442 -0.00235239 0 -0.00949464 0.37174 0 0 0 0)
(0.172925 0.0139004 0 -0.0091524 0.367732 0 0 0 0)
(2.35033 0.0128744 0 0.0341814 0.363565 0 0 0 0)
(2.22265 -0.0123168 0 -0.0714045 0.348547 0 0 0 0)
(2.16011 0.849378 0 -0.0127169 0.525855 0 0 0 0)
(2.58698 1.04939 0 -0.260544 0.122496 0 0 0 0)
(0.672023 0.00425589 0 -0.334015 0.107965 0 0 0 0)
(0.314269 -0.359942 0 -0.328092 0.181679 0 0 0 0)
(0.091678 -0.257008 0 -0.216869 0.339433 0 0 0 0)
(0.0355358 -0.144884 0 -0.128949 0.383515 0 0 0 0)
(0.0439291 -0.0822547 0 -0.0680873 0.386166 0 0 0 0)
(0.069098 -0.0472207 0 -0.0385121 0.38261 0 0 0 0)
(0.0855468 -0.0254815 0 -0.0199507 0.3851 0 0 0 0)
(0.105043 -0.0140747 0 -0.0106946 0.379961 0 0 0 0)
(0.125799 -0.00825693 0 -0.00523397 0.378726 0 0 0 0)
(0.151119 -0.00452921 0 -0.00275876 0.377362 0 0 0 0)
(0.185086 -0.00294204 0 -0.00162167 0.37685 0 0 0 0)
(0.226993 -0.00171268 0 -0.000992361 0.376857 0 0 0 0)
(0.272605 -0.00115176 0 -0.000760568 0.377132 0 0 0 0)
(0.314916 -0.00116686 0 -0.000621915 0.377347 0 0 0 0)
(0.349581 -0.00093284 0 -0.000618274 0.377347 0 0 0 0)
(0.373069 -0.00243549 0 -0.000585699 0.377502 0 0 0 0)
(0.38687 0.00195685 0 -0.000636481 0.376314 0 0 0 0)
(0.39302 0.00327664 0 -0.000459541 0.379181 0 0 0 0)
(0.394982 -0.00512258 0 -0.000603725 0.378658 0 0 0 0)
(0.391096 -0.00275857 0 -0.000671459 0.375715 0 0 0 0)
(0.379539 0.000792934 0 -0.000951723 0.376446 0 0 0 0)
(0.36084 -0.00136146 0 -0.00139831 0.375732 0 0 0 0)
(0.333214 -0.00197761 0 -0.00214929 0.374957 0 0 0 0)
(0.300792 -0.00312325 0 -0.00307601 0.37371 0 0 0 0)
(0.26766 -0.00402611 0 -0.00432583 0.371942 0 0 0 0)
(0.239682 -0.0046186 0 -0.00526667 0.370013 0 0 0 0)
(0.219847 -0.00487183 0 -0.00631591 0.367686 0 0 0 0)
(0.207489 -0.00480269 0 -0.00656348 0.365361 0 0 0 0)
(0.200069 -0.0050916 0 -0.00607017 0.363268 0 0 0 0)
(0.196009 -0.00369886 0 -0.00644964 0.359898 0 0 0 0)
(0.190465 -0.00680389 0 -0.00500711 0.358957 0 0 0 0)
(0.185319 -0.00336416 0 -0.00851265 0.352518 0 0 0 0)
(0.165676 -0.0112309 0 -0.00551277 0.352546 0 0 0 0)
(0.140367 -0.00424984 0 -0.00907674 0.346503 0 0 0 0)
(0.112208 -0.00249424 0 -0.00532751 0.345894 0 0 0 0)
(0.196114 0.00807104 0 -0.00672225 0.346691 0 0 0 0)
(2.31778 0.00321408 0 0.0460392 0.322315 0 0 0 0)
(2.16692 -0.0168447 0 -0.0781952 0.313066 0 0 0 0)
(2.08611 0.65387 0 0.0621781 0.485335 0 0 0 0)
(2.47535 0.838703 0 -0.0895335 0.150191 0 0 0 0)
(0.615893 0.0310981 0 -0.16478 0.113166 0 0 0 0)
(0.322674 -0.260575 0 -0.198829 0.191659 0 0 0 0)
(0.146473 -0.179422 0 -0.158613 0.295483 0 0 0 0)
(0.0908098 -0.118615 0 -0.111756 0.330203 0 0 0 0)
(0.082835 -0.0757033 0 -0.0640558 0.34508 0 0 0 0)
(0.0895647 -0.0451945 0 -0.0404553 0.349106 0 0 0 0)
(0.0998156 -0.0254976 0 -0.0232885 0.352689 0 0 0 0)
(0.113173 -0.0159556 0 -0.0124593 0.350714 0 0 0 0)
(0.130161 -0.00913268 0 -0.00666299 0.350717 0 0 0 0)
(0.153372 -0.00508785 0 -0.00309344 0.350245 0 0 0 0)
(0.186232 -0.00285987 0 -0.000967125 0.350424 0 0 0 0)
(0.227538 -0.00128168 0 -0.000397004 0.35148 0 0 0 0)
(0.272757 -0.000630901 0 5.19958e-05 0.352338 0 0 0 0)
(0.314936 -0.000843726 0 -7.71081e-05 0.353267 0 0 0 0)
(0.349517 -0.000681799 0 -0.000266378 0.353729 0 0 0 0)
(0.372985 -0.00282133 0 -0.00045344 0.354237 0 0 0 0)
(0.386878 0.00284929 0 -0.000699067 0.353237 0 0 0 0)
(0.392984 0.00444574 0 -0.000634649 0.356301 0 0 0 0)
(0.394812 -0.00685315 0 -0.00094917 0.355772 0 0 0 0)
(0.390846 -0.00393951 0 -0.0011935 0.352566 0 0 0 0)
(0.379074 0.000678201 0 -0.00171428 0.353041 0 0 0 0)
(0.360103 -0.00223829 0 -0.00248757 0.351996 0 0 0 0)
(0.332237 -0.00312254 0 -0.00356504 0.350866 0 0 0 0)
(0.299459 -0.00482414 0 -0.00512354 0.348975 0 0 0 0)
(0.266412 -0.00603767 0 -0.00641426 0.346999 0 0 0 0)
(0.238489 -0.00694865 0 -0.00868698 0.343801 0 0 0 0)
(0.218941 -0.00748056 0 -0.00910701 0.341547 0 0 0 0)
(0.20768 -0.0071768 0 -0.010229 0.337817 0 0 0 0)
(0.199891 -0.00822667 0 -0.00972999 0.335088 0 0 0 0)
(0.196323 -0.00627591 0 -0.0105018 0.330501 0 0 0 0)
(0.189167 -0.0109333 0 -0.00855479 0.32864 0 0 0 0)
(0.18471 -0.00730827 0 -0.0138571 0.320399 0 0 0 0)
(0.165266 -0.0142717 0 -0.0108735 0.31863 0 0 0 0)
(0.140288 -0.00806872 0 -0.0137377 0.31355 0 0 0 0)
(0.112711 -0.0021717 0 -0.00953392 0.309685 0 0 0 0)
(0.222424 -0.00882133 0 -0.0109593 0.315361 0 0 0 0)
(2.28146 -0.0195271 0 0.0439708 0.268526 0 0 0 0)
(2.10294 -0.0212291 0 -0.0878948 0.295864 0 0 0 0)
(2.01392 0.526421 0 0.0435222 0.420347 0 0 0 0)
(2.36828 0.690756 0 -0.0388068 0.1544 0 0 0 0)
(0.566702 0.044216 0 -0.100343 0.114498 0 0 0 0)
(0.320211 -0.184255 0 -0.140753 0.17747 0 0 0 0)
(0.175584 -0.123502 0 -0.121851 0.259761 0 0 0 0)
(0.126655 -0.09709 0 -0.0873189 0.282215 0 0 0 0)
(0.112637 -0.0640388 0 -0.0564992 0.300552 0 0 0 0)
(0.108383 -0.0398891 0 -0.0360032 0.308131 0 0 0 0)
(0.112525 -0.0239324 0 -0.0221816 0.312563 0 0 0 0)
(0.121064 -0.0159747 0 -0.0126138 0.3127 0 0 0 0)
(0.134824 -0.00870873 0 -0.00665024 0.313804 0 0 0 0)
(0.156608 -0.0048115 0 -0.0016931 0.313537 0 0 0 0)
(0.187684 -0.00175178 0 -0.000171152 0.315741 0 0 0 0)
(0.227975 0.000131825 0 0.00159286 0.31672 0 0 0 0)
(0.272913 0.00056991 0 0.00124234 0.319006 0 0 0 0)
(0.314609 0.000173416 0 0.00103174 0.320337 0 0 0 0)
(0.349219 2.22619e-06 0 0.000425694 0.3214 0 0 0 0)
(0.372652 -0.00290979 0 -8.19934e-05 0.322237 0 0 0 0)
(0.386696 0.00394514 0 -0.000620224 0.321418 0 0 0 0)
(0.392779 0.00571952 0 -0.000774451 0.324675 0 0 0 0)
(0.394444 -0.00872143 0 -0.00131345 0.324148 0 0 0 0)
(0.390359 -0.00538968 0 -0.00182401 0.320661 0 0 0 0)
(0.378292 0.000243304 0 -0.00266898 0.320864 0 0 0 0)
(0.359057 -0.00345753 0 -0.00382541 0.319518 0 0 0 0)
(0.330674 -0.00488788 0 -0.00547103 0.317794 0 0 0 0)
(0.298046 -0.00685003 0 -0.00712283 0.315848 0 0 0 0)
(0.264226 -0.00901238 0 -0.0100825 0.312178 0 0 0 0)
(0.237087 -0.00987243 0 -0.0108761 0.310151 0 0 0 0)
(0.218361 -0.0106379 0 -0.0140071 0.3049 0 0 0 0)
(0.206888 -0.0110269 0 -0.0135448 0.302158 0 0 0 0)
(0.199806 -0.0121423 0 -0.0130353 0.298225 0 0 0 0)
(0.197141 -0.00991193 0 -0.0154239 0.291498 0 0 0 0)
(0.187232 -0.0165385 0 -0.0128065 0.28939 0 0 0 0)
(0.183085 -0.0130104 0 -0.0182009 0.281001 0 0 0 0)
(0.165791 -0.0178303 0 -0.016472 0.276765 0 0 0 0)
(0.141658 -0.0128693 0 -0.0167584 0.273142 0 0 0 0)
(0.114885 -0.000748989 0 -0.0132116 0.265682 0 0 0 0)
(0.247673 -0.031591 0 -0.00940757 0.276523 0 0 0 0)
(2.24365 -0.0155741 0 0.0317229 0.222521 0 0 0 0)
(2.03985 0.00949893 0 -0.0986487 0.278778 0 0 0 0)
(2.00678 0.397595 0 0.0409512 0.401186 0 0 0 0)
(2.33671 0.543976 0 -0.00653172 0.15388 0 0 0 0)
(0.517653 0.0533289 0 -0.0532138 0.119619 0 0 0 0)
(0.301948 -0.120594 0 -0.104909 0.168122 0 0 0 0)
(0.197964 -0.078486 0 -0.0966938 0.225636 0 0 0 0)
(0.153785 -0.0793072 0 -0.0667383 0.242627 0 0 0 0)
(0.132285 -0.0507293 0 -0.0481178 0.261944 0 0 0 0)
(0.122634 -0.0336206 0 -0.0319622 0.268448 0 0 0 0)
(0.122355 -0.0210947 0 -0.021248 0.273007 0 0 0 0)
(0.12814 -0.0147592 0 -0.0125157 0.273456 0 0 0 0)
(0.140685 -0.00832652 0 -0.00571368 0.273777 0 0 0 0)
(0.159616 -0.00322116 0 -0.00186712 0.276106 0 0 0 0)
(0.189399 0.000207858 0 0.0026902 0.276156 0 0 0 0)
(0.2289 0.00186461 0 0.00263311 0.279759 0 0 0 0)
(0.272216 0.0028542 0 0.00321878 0.281237 0 0 0 0)
(0.314149 0.00146318 0 0.00220417 0.283537 0 0 0 0)
(0.348444 0.0011488 0 0.0013009 0.28473 0 0 0 0)
(0.371977 -0.00280445 0 0.000378921 0.285829 0 0 0 0)
(0.386211 0.00519849 0 -0.00050042 0.28509 0 0 0 0)
(0.392316 0.0070764 0 -0.000941644 0.288476 0 0 0 0)
(0.3938 -0.0107205 0 -0.00173171 0.287971 0 0 0 0)
(0.38954 -0.00710338 0 -0.00255203 0.284247 0 0 0 0)
(0.377146 -0.000423376 0 -0.00373335 0.284285 0 0 0 0)
(0.357403 -0.0051968 0 -0.00535157 0.282642 0 0 0 0)
(0.32906 -0.00665924 0 -0.00727898 0.280912 0 0 0 0)
(0.295015 -0.0102362 0 -0.0101551 0.277764 0 0 0 0)
(0.262795 -0.0115274 0 -0.0117722 0.27586 0 0 0 0)
(0.234707 -0.013962 0 -0.0163058 0.270037 0 0 0 0)
(0.216369 -0.0151833 0 -0.0151351 0.269233 0 0 0 0)
(0.208617 -0.0136093 0 -0.0183108 0.262425 0 0 0 0)
(0.19808 -0.0184988 0 -0.0156925 0.26069 0 0 0 0)