/*--------------------------------*- C++ -*----------------------------------*\
| =========                 |                                                 |
| \\      /  F ield         | OpenFOAM: The Open Source CFD Toolbox           |
|  \\    /   O peration     | Version:  v1912                                 |
|   \\  /    A nd           | Website:  www.openfoam.com                      |
|    \\/     M anipulation  |                                                 |
\*---------------------------------------------------------------------------*/
FoamFile
{
    version     2.0;
    format      ascii;
    class       volTensorField;
    location    "7.66";
    object      grad(U);
}
// * * * * * * * * * * * * * * * * * * * * * * * * * * * * * * * * * * * * * //

dimensions      [0 0 -1 0 0 0 0];


internalField   nonuniform List<tensor> 
1900
(
(-2.67239 -2.17128e-05 0 2.23402e-05 6.79269e-06 0 0 0 0)
(3.31093 -6.54732e-08 0 -3.76594e-07 -5.27619e-05 0 0 0 0)
(0.404235 -2.8205e-05 0 -3.86065e-05 -2.47996e-05 0 0 0 0)
(-0.00698938 -0.000133028 0 -3.86496e-05 -0.000113222 0 0 0 0)
(-0.00327664 -0.000269213 0 -9.07639e-05 -0.000280377 0 0 0 0)
(-0.0146449 -0.000443892 0 -0.000513897 -0.000736682 0 0 0 0)
(-0.0120469 0.000652694 0 -0.00128635 -0.000793013 0 0 0 0)
(-0.0104614 0.01579 0 -0.00123719 0.00115485 0 0 0 0)
(-0.0528703 0.0585766 0 0.00513664 0.0250421 0 0 0 0)
(-0.0344351 0.207751 0 0.0589365 0.112351 0 0 0 0)
(-2.67236 -2.42564e-05 0 2.54861e-05 3.87125e-06 0 0 0 0)
(3.31087 -3.15268e-05 0 -3.69436e-06 1.78415e-05 0 0 0 0)
(0.404197 -3.22551e-05 0 -7.10653e-05 3.93673e-06 0 0 0 0)
(-0.00704153 -0.000122549 0 -7.55501e-05 4.60465e-05 0 0 0 0)
(-0.00375189 -0.000354247 0 -0.000185786 0.000136964 0 0 0 0)
(-0.0158405 -6.87447e-05 0 -0.000841263 0.00031526 0 0 0 0)
(-0.0127702 0.00123884 0 -0.00175267 0.000580856 0 0 0 0)
(-0.00403843 0.0100452 0 -0.000243566 -0.000337434 0 0 0 0)
(0.00730345 0.0526195 0 0.0107029 -0.0152091 0 0 0 0)
(0.0901977 0.145097 0 0.092537 -0.058914 0 0 0 0)
(-2.67236 -2.08312e-13 0 1.66967e-13 -2.13279e-05 0 0 0 0)
(3.31083 8.57554e-14 0 3.50333e-14 6.98408e-05 0 0 0 0)
(0.404163 -3.65688e-15 0 -2.01526e-13 4.17258e-05 0 0 0 0)
(-0.0071041 -8.3679e-14 0 -4.78404e-14 0.000134351 0 0 0 0)
(-0.00404235 4.36514e-14 0 -5.55654e-15 0.000286825 0 0 0 0)
(-0.0162118 2.44409e-13 0 4.93312e-14 0.000842845 0 0 0 0)
(-0.0114492 7.13675e-14 0 7.18284e-15 0.000424314 0 0 0 0)
(0.00199411 -1.29979e-13 0 -2.3988e-14 -0.00163483 0 0 0 0)
(0.0399103 -7.59211e-14 0 1.3539e-13 -0.0196661 0 0 0 0)
(0.141758 -1.97314e-14 0 7.29126e-14 -0.106874 0 0 0 0)
(-2.67236 2.42564e-05 0 -2.54861e-05 3.87125e-06 0 0 0 0)
(3.31087 3.15268e-05 0 3.69437e-06 1.78415e-05 0 0 0 0)
(0.404197 3.22551e-05 0 7.10653e-05 3.93673e-06 0 0 0 0)
(-0.00704153 0.000122549 0 7.55501e-05 4.60465e-05 0 0 0 0)
(-0.00375189 0.000354247 0 0.000185786 0.000136964 0 0 0 0)
(-0.0158405 6.87447e-05 0 0.000841263 0.00031526 0 0 0 0)
(-0.0127702 -0.00123884 0 0.00175267 0.000580856 0 0 0 0)
(-0.00403843 -0.0100452 0 0.000243566 -0.000337434 0 0 0 0)
(0.00730345 -0.0526195 0 -0.0107029 -0.0152091 0 0 0 0)
(0.0901977 -0.145097 0 -0.092537 -0.058914 0 0 0 0)
(-2.67239 2.17128e-05 0 -2.23402e-05 6.79269e-06 0 0 0 0)
(3.31093 6.5473e-08 0 3.76594e-07 -5.27619e-05 0 0 0 0)
(0.404235 2.8205e-05 0 3.86065e-05 -2.47996e-05 0 0 0 0)
(-0.00698938 0.000133028 0 3.86496e-05 -0.000113222 0 0 0 0)
(-0.00327664 0.000269213 0 9.07639e-05 -0.000280377 0 0 0 0)
(-0.0146449 0.000443892 0 0.000513897 -0.000736682 0 0 0 0)
(-0.0120469 -0.000652694 0 0.00128635 -0.000793013 0 0 0 0)
(-0.0104614 -0.01579 0 0.00123719 0.00115485 0 0 0 0)
(-0.0528703 -0.0585766 0 -0.00513664 0.0250421 0 0 0 0)
(-0.0344351 -0.207751 0 -0.0589365 0.112351 0 0 0 0)
(0.169084 0.418607 -2.11951e-17 0.24228 -0.235698 3.17927e-17 5.75566e-17 7.42597e-17 -5.74496e-33)
(0.511329 0.568699 0 0.290248 -0.4598 0 -1.59159e-16 -4.70801e-17 0)
(0.799239 0.973343 0 0.28958 -0.787739 0 -2.59856e-16 -8.46226e-17 0)
(1.49325 1.58957 0 0.339341 -1.44014 0 0 0 0)
(2.79344 1.8461 2.69545e-16 1.13373 -3.5021 -4.04318e-16 -2.27731e-15 -1.51821e-15 -7.30604e-32)
(0.234004 0.161662 0 0.181743 -0.205136 0 1.01337e-16 3.16691e-17 0)
(0.423503 0.171065 0 0.14129 -0.335671 0 1.59159e-16 4.70801e-17 0)
(0.752815 0.416307 0 0.0556278 -0.622796 0 2.59856e-16 8.46226e-17 0)
(1.68248 0.863064 0 -0.0676379 -1.32082 0 0 0 0)
(3.70063 0.576785 0 -0.176477 -3.08215 0 0 0 0)
(0.287769 -1.26702e-13 0 1.23249e-13 -0.290759 0 0 0 0)
(0.445726 1.48834e-13 0 3.98254e-14 -0.370828 0 0 0 0)
(0.74723 1.69077e-13 0 2.49592e-13 -0.627623 0 0 0 0)
(1.59082 -1.53846e-13 0 1.07804e-13 -1.34887 0 0 0 0)
(3.45857 7.34755e-14 0 2.08128e-13 -3.63511 0 0 0 0)
(0.234004 -0.161662 0 -0.181743 -0.205136 0 1.01337e-16 -3.16691e-17 0)
(0.423503 -0.171065 0 -0.14129 -0.335671 0 1.59159e-16 -4.70801e-17 0)
(0.752815 -0.416307 0 -0.0556278 -0.622796 0 2.59856e-16 -8.46226e-17 0)
(1.68248 -0.863064 0 0.0676379 -1.32082 0 0 0 0)
(3.70063 -0.576785 0 0.176477 -3.08215 0 0 0 0)
(0.169084 -0.418607 2.11951e-17 -0.24228 -0.235698 3.17927e-17 -2.6023e-16 1.37598e-16 -5.74496e-33)
(0.511329 -0.568699 0 -0.290248 -0.4598 0 -1.59159e-16 4.70801e-17 0)
(0.799239 -0.973343 0 -0.28958 -0.787739 0 -2.59856e-16 8.46226e-17 0)
(1.49325 -1.58957 9.56216e-17 -0.339341 -1.44014 1.43432e-16 -9.31166e-16 6.20777e-16 -2.59183e-32)
(2.79344 -1.8461 -2.69545e-16 -1.13373 -3.5021 -4.04318e-16 2.27731e-15 -1.51821e-15 -7.30604e-32)
(4.21809 -0.78185 -1.8493e-17 0.0198529 4.45765 -1.66437e-16 2.27401e-15 -1.18352e-16 5.01253e-33)
(2.31899 -0.307734 9.01792e-18 0.54149 2.76548 8.11613e-17 -2.55646e-15 1.98952e-16 2.44431e-33)
(1.37971 0.00191081 0 0.729483 2.25976 0 0 0 0)
(1.03887 0.0775745 -5.36165e-18 0.666599 2.11493 -4.82549e-17 2.39235e-15 -1.99891e-16 1.45328e-33)
(0.736178 0.490091 4.52219e-18 0.480764 1.7226 4.06997e-17 -1.13301e-15 1.2589e-16 1.22574e-33)
(4.34005 -0.947672 0 -0.680184 -0.666342 0 -1.1373e-15 -7.94907e-18 0)
(2.60136 -0.199883 0 0.317739 0.995435 0 1.28639e-15 -5.78327e-17 0)
(1.4655 -0.0116674 0 0.444402 1.38904 0 0 0 0)
(0.979356 -0.0621263 0 0.362407 1.3869 0 -1.51049e-15 7.46803e-17 0)
(0.576243 0.196966 0 0.16481 1.41434 0 2.88113e-16 -7.85396e-18 0)
(4.34078 2.75353e-14 0 1.97128e-13 0.8048 0 0 0 0)
(2.57706 -2.68725e-14 0 1.57534e-13 1.8497 0 0 0 0)
(1.36053 -2.77952e-14 0 -3.21245e-14 1.97378 0 0 0 0)
(0.900168 8.35615e-14 0 8.50355e-14 1.74847 0 6.08563e-16 6.41528e-31 0)
(0.568241 -1.21497e-13 0 -2.59955e-13 2.08627 0 -5.76226e-16 -5.23542e-30 0)
(4.34005 0.947672 0 0.680184 -0.666342 0 -1.1373e-15 7.94907e-18 0)
(2.60136 0.199883 0 -0.317739 0.995435 0 1.28639e-15 5.78327e-17 0)
(1.4655 0.0116674 0 -0.444402 1.38904 0 0 0 0)
(0.979356 0.0621263 0 -0.362407 1.3869 0 -1.51049e-15 -7.46803e-17 0)
(0.576243 -0.196966 0 -0.16481 1.41434 0 2.88113e-16 7.85396e-18 0)
(4.21809 0.78185 0 -0.0198529 4.45765 0 1.1373e-15 -7.94907e-18 0)
(2.31899 0.307734 -9.01792e-18 -0.54149 2.76548 8.11613e-17 -1.63079e-17 8.32871e-17 2.44431e-33)
(1.37971 -0.00191081 0 -0.729483 2.25976 0 0 0 0)
(1.03887 -0.0775745 5.36165e-18 -0.666599 2.11493 -4.82549e-17 2.00758e-17 -6.36947e-17 1.45328e-33)
(0.736178 -0.490091 -4.52219e-18 -0.480764 1.7226 4.06997e-17 1.13301e-15 1.2589e-16 1.22574e-33)
(0.344778 0.546331 0 -0.360928 -0.320458 0 0 0 0)
(0.198434 0.11968 0 -0.671115 -0.184506 0 0 0 0)
(0.113905 -0.132922 0 -0.662597 0.102981 0 0 0 0)
(0.11644 -0.115303 0 -0.617764 0.208744 0 0 0 0)
(0.172436 -0.122454 0 -0.508475 0.129074 0 0 0 0)
(0.253393 0.00166469 0 -0.329428 0.257923 0 0 0 0)
(0.121167 0.149377 0 -0.0947107 0.0999301 0 0 0 0)
(-0.482321 0.163382 0 0.0163277 -0.0958143 0 0 0 0)
(-1.53674 -0.02743 0 0.378634 -0.00427864 0 0 0 0)
(-1.21776 -0.161617 0 0.322405 0.111601 0 0 0 0)
(-0.252204 -0.0942428 0 0.161623 0.292891 0 0 0 0)
(-0.363937 -0.138104 0 0.0830976 0.531403 0 0 0 0)
(-0.6365 -0.125595 0 0.0615805 0.796825 0 0 0 0)
(-0.805966 -0.0390903 0 0.0680172 0.955773 0 0 0 0)
(-0.831225 0.0571559 0 0.0911482 0.900898 0 0 0 0)
(-0.770438 0.0914559 0 0.148854 0.743557 0 0 0 0)
(-0.677941 0.085743 0 0.131437 0.539541 0 0 0 0)
(-0.650876 0.0705536 0 0.101928 0.394771 0 0 0 0)
(-0.767975 0.0520181 0 0.0889013 0.320083 0 0 0 0)
(-0.908974 0.0398766 0 0.0694453 0.247712 0 0 0 0)
(-0.712183 0.0253959 0 0.0338347 0.180779 0 0 0 0)
(-0.274352 0.00946208 0 0.00792892 0.151422 0 0 0 0)
(-0.0297743 0.00270471 0 0.00294247 0.145023 0 0 0 0)
(0.0187803 0.00195516 0 0.00301863 0.1417 0 0 0 0)
(0.0274485 0.00176184 0 0.00243547 0.138728 0 0 0 0)
(0.0408592 0.000840592 0 0.00171829 0.136329 0 0 0 0)
(0.0647016 0.0003008 0 0.00140502 0.136153 0 0 0 0)
(0.0865087 -0.000341008 0 0.00151436 0.134989 0 0 0 0)
(0.0971122 -0.000300496 0 0.00170015 0.137083 0 0 0 0)
(0.102422 -0.000700182 0 0.00194129 0.135994 0 0 0 0)
(0.0691486 -0.000604966 0 0.00225523 0.139495 0 0 0 0)
(-0.185087 -0.000287729 0 0.00257404 0.138299 0 0 0 0)
(-0.816554 -0.000937359 0 0.00347462 0.141178 0 0 0 0)
(-0.998116 -0.000732515 0 0.00350526 0.142762 0 0 0 0)
(-0.518779 -0.000243049 0 0.00634706 0.14466 0 0 0 0)
(-0.191933 -0.00039815 0 0.0103312 0.143494 0 0 0 0)
(-0.117487 -0.00451327 0 0.0152218 0.146926 0 0 0 0)
(-0.130541 -0.0163949 0 0.0100089 0.150529 0 0 0 0)
(-0.176293 9.81365e-05 0 -0.0245725 0.185893 0 0 0 0)
(-0.106523 0.012641 0 -0.0437788 0.152627 0 0 0 0)
(0.114903 0.376986 0 0.00125169 0.289974 0 0 0 0)
(0.0619378 0.151656 0 -0.487712 -0.305501 0 0 0 0)
(0.109245 -0.0187347 0 -0.607912 -0.121426 0 0 0 0)
(0.121909 -0.115905 0 -0.612686 0.151417 0 0 0 0)
(0.213453 -0.153277 0 -0.603588 0.274928 0 0 0 0)
(0.305358 -0.034387 0 -0.430388 0.572353 0 0 0 0)
(0.147066 0.0891314 0 -0.355142 0.269206 0 0 0 0)
(-0.454059 0.152328 0 -0.337117 0.058868 0 0 0 0)
(-1.44469 0.0110017 0 -0.263119 -0.292419 0 0 0 0)
(-1.18029 -0.108634 0 0.103881 0.153159 0 0 0 0)
(-0.304637 -0.0407567 0 -0.0166428 0.263141 0 0 0 0)
(-0.401125 -0.0641095 0 -0.0610057 0.477118 0 0 0 0)
(-0.647965 -0.0605899 0 -0.0785602 0.737874 0 0 0 0)
(-0.774597 -0.0188822 0 -0.00107911 0.908853 0 0 0 0)
(-0.762493 0.0301955 0 0.143076 0.872247 0 0 0 0)
(-0.722832 0.0366756 0 0.284767 0.712379 0 0 0 0)
(-0.683602 0.0298142 0 0.301217 0.557868 0 0 0 0)
(-0.671605 0.0398743 0 0.141094 0.417638 0 0 0 0)
(-0.786028 0.0350208 0 0.0437359 0.31534 0 0 0 0)
(-0.927727 0.0213452 0 0.0242102 0.238825 0 0 0 0)
(-0.725095 0.0115075 0 0.0151228 0.178264 0 0 0 0)
(-0.27795 0.00423787 0 0.00417674 0.151527 0 0 0 0)
(-0.0299591 0.00134382 0 0.00187182 0.145738 0 0 0 0)
(0.0188176 0.000998884 0 0.00194692 0.142229 0 0 0 0)
(0.0274114 0.000899293 0 0.0016187 0.139017 0 0 0 0)
(0.0409163 0.00043121 0 0.00124155 0.136173 0 0 0 0)
(0.06485 0.000137067 0 0.00138684 0.136128 0 0 0 0)
(0.0866735 -0.000180676 0 0.00172428 0.135139 0 0 0 0)
(0.0972859 -0.000149023 0 0.0020469 0.1373 0 0 0 0)
(0.102622 -0.000343979 0 0.00240289 0.136172 0 0 0 0)
(0.0693799 -0.000292552 0 0.00285608 0.139707 0 0 0 0)
(-0.18466 -0.000107763 0 0.00339149 0.138252 0 0 0 0)
(-0.815841 -0.000384284 0 0.00469131 0.140696 0 0 0 0)
(-0.996906 -0.000285672 0 0.00645035 0.141474 0 0 0 0)
(-0.517016 -6.47122e-05 0 0.0107487 0.143214 0 0 0 0)
(-0.189849 -0.000279109 0 0.0168851 0.142309 0 0 0 0)
(-0.117694 -0.00265576 0 0.0244978 0.144583 0 0 0 0)
(-0.137457 -0.00857625 0 0.0228537 0.157824 0 0 0 0)
(-0.184617 0.000279559 0 0.00311762 0.20094 0 0 0 0)
(-0.109261 0.00664209 0 -0.00751198 0.157486 0 0 0 0)
(0.147535 -8.88513e-14 0 7.0966e-14 0.587381 0 0 0 0)
(0.0212227 1.68616e-13 0 5.67728e-13 -0.306863 0 0 0 0)
(0.0775489 -2.4989e-13 0 4.96762e-13 -0.455257 0 0 0 0)
(0.117698 -3.42323e-13 0 6.93889e-13 -0.178062 0 0 0 0)
(0.225468 -2.24262e-13 0 6.70234e-13 0.34159 0 0 0 0)
(0.325668 -3.43378e-14 0 5.44072e-13 0.87572 0 0 0 0)
(0.1483 3.78419e-13 0 -3.23289e-13 0.578 0 0 0 0)
(-0.455551 3.72123e-13 0 -6.15038e-13 0.262941 0 0 0 0)
(-1.40845 1.7747e-12 0 4.24219e-12 -0.469252 0 0 0 0)
(-1.14605 7.07472e-13 0 4.36835e-12 0.187305 0 0 0 0)
(-0.300171 -3.63235e-12 0 -2.0935e-12 0.277609 0 0 0 0)
(-0.381949 -2.10752e-12 0 -6.70234e-12 0.467507 0 0 0 0)
(-0.619067 3.90907e-12 0 -1.05148e-11 0.718362 0 0 0 0)
(-0.74149 3.57107e-12 0 -8.24782e-12 0.884063 0 0 0 0)
(-0.748069 -9.73041e-13 0 -4.00169e-12 0.848177 0 0 0 0)
(-0.724433 -1.33187e-12 0 -8.98902e-13 0.676469 0 0 0 0)
(-0.719737 -6.36578e-13 0 6.57815e-12 0.596032 0 0 0 0)
(-0.72578 -1.6849e-12 0 2.43413e-11 0.471496 0 0 0 0)
(-0.801978 -4.7535e-12 0 3.78051e-11 0.321897 0 0 0 0)
(-0.917298 -1.90311e-12 0 2.56552e-11 0.230728 0 0 0 0)
(-0.71801 5.17243e-12 0 -1.15458e-11 0.175148 0 0 0 0)
(-0.278207 4.01754e-12 0 -2.68468e-11 0.151614 0 0 0 0)
(-0.030423 2.76031e-12 0 -1.369e-11 0.146013 0 0 0 0)
(0.0187066 1.08721e-12 0 3.64883e-12 0.142375 0 0 0 0)
(0.0272433 -3.07263e-12 0 1.63217e-11 0.139146 0 0 0 0)
(0.0407918 -3.17452e-12 0 2.11863e-11 0.136193 0 0 0 0)
(0.064842 -3.31208e-12 0 7.50268e-12 0.136181 0 0 0 0)
(0.0867007 -2.15341e-13 0 -2.05855e-11 0.13525 0 0 0 0)
(0.0973096 4.23578e-12 0 -4.44104e-11 0.137423 0 0 0 0)
(0.102657 2.45017e-13 0 -5.20782e-11 0.136275 0 0 0 0)
(0.0694362 -1.57494e-12 0 -4.98023e-11 0.139788 0 0 0 0)
(-0.184553 2.0009e-12 0 -4.67538e-11 0.138286 0 0 0 0)
(-0.815664 1.99873e-12 0 -3.08697e-11 0.140529 0 0 0 0)
(-0.996354 -1.76568e-12 0 2.06331e-12 0.140928 0 0 0 0)
(-0.515743 -1.86763e-12 0 7.53323e-12 0.142493 0 0 0 0)
(-0.187934 2.39609e-12 0 -4.4955e-12 0.141373 0 0 0 0)
(-0.115751 3.77532e-13 0 -3.74296e-12 0.144412 0 0 0 0)
(-0.13676 -4.09437e-12 0 5.353e-12 0.159631 0 0 0 0)
(-0.185127 -8.15379e-13 0 7.47705e-12 0.203374 0 0 0 0)
(-0.109615 1.67393e-12 0 4.52802e-12 0.157709 0 0 0 0)
(0.114903 -0.376986 0 -0.00125169 0.289974 0 0 0 0)
(0.0619378 -0.151656 0 0.487712 -0.305501 0 0 0 0)
(0.109245 0.0187347 0 0.607912 -0.121426 0 0 0 0)
(0.121909 0.115905 0 0.612686 0.151417 0 0 0 0)
(0.213453 0.153277 0 0.603588 0.274928 0 0 0 0)
(0.305358 0.034387 0 0.430388 0.572353 0 0 0 0)
(0.147066 -0.0891314 0 0.355142 0.269206 0 0 0 0)
(-0.454059 -0.152328 0 0.337117 0.058868 0 0 0 0)
(-1.44469 -0.0110017 0 0.263119 -0.292419 0 0 0 0)
(-1.18029 0.108634 0 -0.103881 0.153159 0 0 0 0)
(-0.304637 0.0407567 0 0.0166428 0.263141 0 0 0 0)
(-0.401125 0.0641095 0 0.0610057 0.477118 0 0 0 0)
(-0.647965 0.0605899 0 0.0785602 0.737874 0 0 0 0)
(-0.774597 0.0188822 0 0.00107911 0.908853 0 0 0 0)
(-0.762493 -0.0301955 0 -0.143076 0.872247 0 0 0 0)
(-0.722832 -0.0366756 0 -0.284767 0.712379 0 0 0 0)
(-0.683602 -0.0298142 0 -0.301217 0.557868 0 0 0 0)
(-0.671605 -0.0398743 0 -0.141094 0.417638 0 0 0 0)
(-0.786028 -0.0350208 0 -0.0437359 0.31534 0 0 0 0)
(-0.927727 -0.0213452 0 -0.0242102 0.238825 0 0 0 0)
(-0.725095 -0.0115075 0 -0.0151228 0.178264 0 0 0 0)
(-0.27795 -0.00423787 0 -0.00417674 0.151527 0 0 0 0)
(-0.0299591 -0.00134382 0 -0.00187182 0.145738 0 0 0 0)
(0.0188176 -0.000998884 0 -0.00194692 0.142229 0 0 0 0)
(0.0274114 -0.000899293 0 -0.0016187 0.139017 0 0 0 0)
(0.0409163 -0.00043121 0 -0.00124155 0.136173 0 0 0 0)
(0.06485 -0.000137067 0 -0.00138684 0.136128 0 0 0 0)
(0.0866735 0.000180676 0 -0.00172428 0.135139 0 0 0 0)
(0.0972859 0.000149023 0 -0.0020469 0.1373 0 0 0 0)
(0.102622 0.000343979 0 -0.00240289 0.136172 0 0 0 0)
(0.0693799 0.000292552 0 -0.00285608 0.139707 0 0 0 0)
(-0.18466 0.000107763 0 -0.00339149 0.138252 0 0 0 0)
(-0.815841 0.000384284 0 -0.00469131 0.140696 0 0 0 0)
(-0.996906 0.000285672 0 -0.00645035 0.141474 0 0 0 0)
(-0.517016 6.47122e-05 0 -0.0107487 0.143214 0 0 0 0)
(-0.189849 0.000279109 0 -0.0168851 0.142309 0 0 0 0)
(-0.117694 0.00265576 0 -0.0244978 0.144583 0 0 0 0)
(-0.137457 0.00857625 0 -0.0228537 0.157824 0 0 0 0)
(-0.184617 -0.000279559 0 -0.00311762 0.20094 0 0 0 0)
(-0.109261 -0.00664209 0 0.00751198 0.157486 0 0 0 0)
(0.344778 -0.546331 0 0.360928 -0.320458 0 0 0 0)
(0.198434 -0.11968 0 0.671115 -0.184506 0 0 0 0)
(0.113905 0.132922 0 0.662597 0.102981 0 0 0 0)
(0.11644 0.115303 0 0.617764 0.208744 0 0 0 0)
(0.172436 0.122454 0 0.508475 0.129074 0 0 0 0)
(0.253393 -0.00166469 0 0.329428 0.257923 0 0 0 0)
(0.121167 -0.149377 0 0.0947107 0.0999301 0 0 0 0)
(-0.482321 -0.163382 0 -0.0163277 -0.0958143 0 0 0 0)
(-1.53674 0.02743 0 -0.378634 -0.00427864 0 0 0 0)
(-1.21776 0.161617 0 -0.322405 0.111601 0 0 0 0)
(-0.252204 0.0942428 0 -0.161623 0.292891 0 0 0 0)
(-0.363937 0.138104 0 -0.0830976 0.531403 0 0 0 0)
(-0.6365 0.125595 0 -0.0615805 0.796825 0 0 0 0)
(-0.805966 0.0390903 0 -0.0680172 0.955773 0 0 0 0)
(-0.831225 -0.0571559 0 -0.0911482 0.900898 0 0 0 0)
(-0.770438 -0.0914559 0 -0.148854 0.743557 0 0 0 0)
(-0.677941 -0.085743 0 -0.131437 0.539541 0 0 0 0)
(-0.650876 -0.0705536 0 -0.101928 0.394771 0 0 0 0)
(-0.767975 -0.0520181 0 -0.0889013 0.320083 0 0 0 0)
(-0.908974 -0.0398766 0 -0.0694453 0.247712 0 0 0 0)
(-0.712183 -0.0253959 0 -0.0338347 0.180779 0 0 0 0)
(-0.274352 -0.00946208 0 -0.00792892 0.151422 0 0 0 0)
(-0.0297743 -0.00270471 0 -0.00294247 0.145023 0 0 0 0)
(0.0187803 -0.00195516 0 -0.00301863 0.1417 0 0 0 0)
(0.0274485 -0.00176184 0 -0.00243547 0.138728 0 0 0 0)
(0.0408592 -0.000840592 0 -0.00171829 0.136329 0 0 0 0)
(0.0647016 -0.0003008 0 -0.00140502 0.136153 0 0 0 0)
(0.0865087 0.000341008 0 -0.00151436 0.134989 0 0 0 0)
(0.0971122 0.000300496 0 -0.00170015 0.137083 0 0 0 0)
(0.102422 0.000700182 0 -0.00194129 0.135994 0 0 0 0)
(0.0691486 0.000604966 0 -0.00225523 0.139495 0 0 0 0)
(-0.185087 0.000287729 0 -0.00257404 0.138299 0 0 0 0)
(-0.816554 0.000937359 0 -0.00347462 0.141178 0 0 0 0)
(-0.998116 0.000732515 0 -0.00350526 0.142762 0 0 0 0)
(-0.518779 0.000243049 0 -0.00634706 0.14466 0 0 0 0)
(-0.191933 0.00039815 0 -0.0103312 0.143494 0 0 0 0)
(-0.117487 0.00451327 0 -0.0152218 0.146926 0 0 0 0)
(-0.130541 0.0163948 0 -0.0100089 0.150529 0 0 0 0)
(-0.176293 -9.81365e-05 0 0.0245725 0.185893 0 0 0 0)
(-0.106523 -0.012641 0 0.0437788 0.152627 0 0 0 0)
(0.0371526 0.00510793 0 0.467331 0.227315 0 0 0 0)
(0.0933429 0.076983 0 0.288558 0.432602 0 0 0 0)
(0.0703925 0.133381 0 0.238267 0.40534 0 0 0 0)
(0.0315564 0.132969 0 0.149554 0.286919 0 0 0 0)
(0.0800143 0.219765 0 0.0286889 0.254418 0 0 0 0)
(0.105899 0.0577904 0 -0.10171 0.368404 0 0 0 0)
(-0.0398701 -0.241362 0 -0.425731 0.299268 0 0 0 0)
(-0.718297 -0.204914 0 -0.632616 0.138352 0 0 0 0)
(-1.53026 0.0746679 0 -1.08055 0.180941 0 0 0 0)
(-1.00085 0.233779 0 -0.4334 0.0824731 0 0 0 0)
(-0.215151 0.242244 0 -0.423708 0.232044 0 0 0 0)
(-0.38137 0.294658 0 -0.467286 0.500092 0 0 0 0)
(-0.651762 0.251623 0 -0.54634 0.784538 0 0 0 0)
(-0.756873 0.0607984 0 -0.517011 0.894704 0 0 0 0)
(-0.73373 -0.13214 0 -0.371444 0.822741 0 0 0 0)
(-0.693059 -0.200005 0 -0.207533 0.678176 0 0 0 0)
(-0.660712 -0.183931 0 -0.112519 0.521471 0 0 0 0)
(-0.668891 -0.142061 0 -0.0875862 0.405597 0 0 0 0)
(-0.786525 -0.107614 0 -0.0850261 0.319286 0 0 0 0)
(-0.914869 -0.0872999 0 -0.08807 0.239149 0 0 0 0)
(-0.701437 -0.0558489 0 -0.0594544 0.175339 0 0 0 0)
(-0.262731 -0.020626 0 -0.0156089 0.150165 0 0 0 0)
(-0.0270926 -0.00586845 0 -0.00475092 0.143878 0 0 0 0)
(0.0191788 -0.00384203 0 -0.00414619 0.140888 0 0 0 0)
(0.0281842 -0.00327117 0 -0.00325986 0.138374 0 0 0 0)
(0.0416287 -0.00157339 0 -0.0012904 0.136398 0 0 0 0)
(0.0651495 -0.000788587 0 0.000450632 0.136198 0 0 0 0)
(0.0866789 0.000578806 0 0.00105342 0.134872 0 0 0 0)
(0.0972188 0.000604796 0 0.00130192 0.136822 0 0 0 0)
(0.102505 0.00144535 0 0.00149751 0.135744 0 0 0 0)
(0.0692505 0.00137715 0 0.00170035 0.139038 0 0 0 0)
(-0.184931 0.000955069 0 0.00198013 0.138256 0 0 0 0)
(-0.8156 0.00254377 0 0.00266355 0.141093 0 0 0 0)
(-0.997309 0.00195334 0 0.00616411 0.142911 0 0 0 0)
(-0.51926 0.000317706 0 0.00672242 0.144477 0 0 0 0)
(-0.193005 0.00156302 0 0.0046541 0.141877 0 0 0 0)
(-0.11773 0.00492137 0 0.00387055 0.150451 0 0 0 0)
(-0.120492 0.0239786 0 0.00130293 0.14192 0 0 0 0)
(-0.160502 0.000826173 0 0.0227868 0.167172 0 0 0 0)
(-0.100378 -0.0205728 0 0.034546 0.149368 0 0 0 0)
(0.0194272 -0.0710374 0 -0.0376898 0.877655 0 0 0 0)
(0.0340533 -0.0535861 0 -0.0976409 0.856587 0 0 0 0)
(0.0032878 -0.00771001 0 -0.168682 0.809321 0 0 0 0)
(-0.0400001 -0.0396036 0 -0.175578 0.733038 0 0 0 0)
(-0.0201311 0.148794 0 -0.155742 0.603822 0 0 0 0)
(-0.105412 0.00967277 0 -0.204047 0.440865 0 0 0 0)
(-0.304081 -0.321738 0 -0.495678 0.301827 0 0 0 0)
(-0.986789 -0.255136 0 -0.693761 0.319643 0 0 0 0)
(-1.34824 -0.0517478 0 -0.782549 0.323777 0 0 0 0)
(-0.701109 0.172167 0 -0.240346 0.261497 0 0 0 0)
(-0.304727 0.417313 0 -0.475005 0.341498 0 0 0 0)
(-0.47276 0.586559 0 -0.709322 0.588796 0 0 0 0)
(-0.676233 0.438278 0 -0.8337 0.777013 0 0 0 0)
(-0.663756 0.0642632 0 -0.75028 0.73247 0 0 0 0)
(-0.58528 -0.225602 0 -0.576816 0.6304 0 0 0 0)
(-0.562421 -0.323563 0 -0.417042 0.525193 0 0 0 0)
(-0.571595 -0.295759 0 -0.301894 0.429571 0 0 0 0)
(-0.614723 -0.227042 0 -0.222059 0.355349 0 0 0 0)
(-0.758495 -0.182601 0 -0.180969 0.286167 0 0 0 0)
(-0.881172 -0.153159 0 -0.161341 0.214275 0 0 0 0)
(-0.648119 -0.0948137 0 -0.0934209 0.16331 0 0 0 0)
(-0.22787 -0.0337928 0 -0.0230482 0.146894 0 0 0 0)
(-0.0201665 -0.009948 0 -0.00749844 0.141935 0 0 0 0)
(0.0200034 -0.00624753 0 -0.00633782 0.139356 0 0 0 0)
(0.0298059 -0.00527889 0 -0.00528083 0.137193 0 0 0 0)
(0.0440222 -0.0025441 0 -0.00236278 0.13546 0 0 0 0)
(0.06672 -0.00151005 0 0.000513695 0.135446 0 0 0 0)
(0.0872377 0.000814254 0 0.00169357 0.134035 0 0 0 0)
(0.097483 0.000977192 0 0.00210422 0.135771 0 0 0 0)
(0.102762 0.00243652 0 0.00240814 0.134747 0 0 0 0)
(0.069559 0.0026117 0 0.00273202 0.137658 0 0 0 0)
(-0.184242 0.00191027 0 0.00309301 0.137378 0 0 0 0)
(-0.813033 0.00456148 0 0.00438003 0.13961 0 0 0 0)
(-0.994637 0.00333843 0 0.00924933 0.141112 0 0 0 0)
(-0.519976 -0.000792694 0 0.0109038 0.142169 0 0 0 0)
(-0.194107 0.00553075 0 0.00744627 0.138032 0 0 0 0)
(-0.120586 0.00433542 0 0.00853645 0.152643 0 0 0 0)
(-0.117701 0.0284405 0 0.000704373 0.137638 0 0 0 0)
(-0.152727 0.00658334 0 0.00860334 0.15489 0 0 0 0)
(-0.0984867 -0.0255443 0 0.0122021 0.14836 0 0 0 0)
(-0.0206185 -0.0151935 0 -0.339709 0.52678 0 0 0 0)
(-0.032886 0.0111335 0 -0.344891 0.580785 0 0 0 0)
(-0.00471053 0.0143245 0 -0.345977 0.612669 0 0 0 0)
(0.0440257 -0.0650577 0 -0.310344 0.655379 0 0 0 0)
(0.0525802 -0.0617832 0 -0.185783 0.617155 0 0 0 0)
(-0.221676 -0.233223 0 -0.398824 0.387178 0 0 0 0)
(-0.511776 -0.358176 0 -0.458264 0.38883 0 0 0 0)
(-0.994737 -0.183761 0 -0.613138 0.362974 0 0 0 0)
(-1.09333 0.0186366 0 -0.378961 0.435963 0 0 0 0)
(-0.704494 0.250855 0 -0.275455 0.506792 0 0 0 0)
(-0.667073 0.557641 0 -0.589777 0.670479 0 0 0 0)
(-0.727022 0.714336 0 -0.888791 0.870849 0 0 0 0)
(-0.691231 0.390072 0 -0.943915 0.764715 0 0 0 0)
(-0.50933 -0.0804832 0 -0.783155 0.559539 0 0 0 0)
(-0.41261 -0.331878 0 -0.607223 0.441052 0 0 0 0)
(-0.428135 -0.393531 0 -0.466584 0.375417 0 0 0 0)
(-0.472819 -0.347599 0 -0.356309 0.336021 0 0 0 0)
(-0.552363 -0.280251 0 -0.275476 0.29571 0 0 0 0)
(-0.728015 -0.243557 0 -0.24047 0.241197 0 0 0 0)
(-0.830504 -0.20569 0 -0.216056 0.181623 0 0 0 0)
(-0.568173 -0.12078 0 -0.113754 0.149623 0 0 0 0)
(-0.179933 -0.0412234 0 -0.0273169 0.143192 0 0 0 0)
(-0.0109898 -0.0131318 0 -0.0098704 0.139699 0 0 0 0)
(0.0213157 -0.00841152 0 -0.00866587 0.137284 0 0 0 0)
(0.0320147 -0.00702588 0 -0.00712843 0.135293 0 0 0 0)
(0.0472125 -0.0032566 0 -0.00367727 0.133845 0 0 0 0)
(0.0690584 -0.00216145 0 -0.000141304 0.134067 0 0 0 0)
(0.0882116 0.000891237 0 0.00148772 0.132631 0 0 0 0)
(0.0979074 0.00129085 0 0.00202365 0.134142 0 0 0 0)
(0.10311 0.00326452 0 0.00239397 0.133244 0 0 0 0)
(0.0699104 0.00391192 0 0.0027479 0.135654 0 0 0 0)
(-0.183343 0.00283578 0 0.00300418 0.135896 0 0 0 0)
(-0.809668 0.00614216 0 0.00436279 0.137621 0 0 0 0)
(-0.991023 0.00441876 0 0.00920992 0.139189 0 0 0 0)
(-0.520998 -0.00265 0 0.0103004 0.140731 0 0 0 0)
(-0.195286 0.011657 0 0.00514326 0.13659 0 0 0 0)
(-0.124227 0.00454191 0 0.00710271 0.153234 0 0 0 0)
(-0.120427 0.0261432 0 -0.00113834 0.137703 0 0 0 0)
(-0.149422 0.0111577 0 0.00149634 0.147224 0 0 0 0)
(-0.0969103 -0.0268653 0 0.00454013 0.145403 0 0 0 0)
(0.0144335 -0.0189962 0 -0.559065 0.446014 0 0 0 0)
(0.0280137 0.0291792 0 -0.527072 0.449353 0 0 0 0)
(0.0365792 0.0641714 0 -0.518171 0.473023 0 0 0 0)
(0.114368 -0.0352807 0 -0.522986 0.471231 0 0 0 0)
(-0.105394 -0.109655 0 -0.517114 0.44558 0 0 0 0)
(-0.367984 -0.210349 0 -0.72775 0.347011 0 0 0 0)
(-0.510601 -0.345062 0 -0.697588 0.3778 0 0 0 0)
(-0.91037 -0.209716 0 -0.824838 0.395281 0 0 0 0)
(-1.02284 0.08684 0 -0.592535 0.523859 0 0 0 0)
(-0.904258 0.398155 0 -0.771045 0.678985 0 0 0 0)
(-0.89576 0.768132 0 -0.952141 0.984997 0 0 0 0)
(-0.814021 0.677369 0 -1.065 0.936909 0 0 0 0)
(-0.574438 0.138289 0 -0.912943 0.587815 0 0 0 0)
(-0.339308 -0.24763 0 -0.709102 0.387397 0 0 0 0)
(-0.280221 -0.403028 0 -0.56653 0.294947 0 0 0 0)
(-0.320631 -0.424774 0 -0.462629 0.262648 0 0 0 0)
(-0.387435 -0.372568 0 -0.373942 0.252169 0 0 0 0)
(-0.503096 -0.318418 0 -0.311756 0.230916 0 0 0 0)
(-0.701236 -0.292539 0 -0.292122 0.188492 0 0 0 0)
(-0.759064 -0.241402 0 -0.254952 0.145029 0 0 0 0)
(-0.466242 -0.131848 0 -0.118575 0.136617 0 0 0 0)
(-0.127764 -0.043356 0 -0.0291851 0.139478 0 0 0 0)
(-0.00219368 -0.0156416 0 -0.0124907 0.137562 0 0 0 0)
(0.0226457 -0.0104942 0 -0.01102 0.135183 0 0 0 0)
(0.034613 -0.0085928 0 -0.00853572 0.133323 0 0 0 0)
(0.0507552 -0.00372548 0 -0.0043195 0.132081 0 0 0 0)
(0.0716971 -0.00267963 0 -0.000129582 0.132489 0 0 0 0)
(0.0893239 0.000886905 0 0.00199321 0.131052 0 0 0 0)
(0.0983563 0.00156822 0 0.00280338 0.132361 0 0 0 0)
(0.10346 0.00389399 0 0.00342712 0.131577 0 0 0 0)
(0.070147 0.00516708 0 0.00406502 0.133416 0 0 0 0)
(-0.182686 0.0038058 0 0.00447971 0.133958 0 0 0 0)
(-0.807053 0.00773422 0 0.00691882 0.135105 0 0 0 0)
(-0.988916 0.00633482 0 0.0135734 0.13657 0 0 0 0)
(-0.523894 -0.00329705 0 0.0155082 0.138644 0 0 0 0)
(-0.197188 0.0175791 0 0.0107255 0.13561 0 0 0 0)
(-0.126639 0.00540843 0 0.014404 0.150106 0 0 0 0)
(-0.123103 0.0226492 0 0.00898732 0.138643 0 0 0 0)
(-0.147255 0.0140031 0 0.0117496 0.143869 0 0 0 0)
(-0.0955536 -0.0272993 0 0.0140646 0.142937 0 0 0 0)
(0.0102103 -0.0119757 0 -0.742326 0.475331 0 0 0 0)
(0.0065208 0.0371602 0 -0.75583 0.50067 0 0 0 0)
(-0.000772743 0.0354063 0 -0.798429 0.445561 0 0 0 0)
(0.0450444 -0.091503 0 -0.85108 0.338199 0 0 0 0)
(-0.144738 -0.181486 0 -1.01959 0.26738 0 0 0 0)
(-0.395588 -0.298538 0 -0.968122 0.218511 0 0 0 0)
(-0.605334 -0.311661 0 -1.07098 0.310022 0 0 0 0)
(-0.893504 -0.0430128 0 -1.1653 0.57568 0 0 0 0)
(-1.0415 0.292024 0 -1.13344 0.753677 0 0 0 0)
(-1.05102 0.695223 0 -1.26752 1.02939 0 0 0 0)
(-0.950335 0.806186 0 -1.28697 1.11186 0 0 0 0)
(-0.689249 0.331597 0 -1.11227 0.704426 0 0 0 0)
(-0.348278 -0.139458 0 -0.812379 0.395856 0 0 0 0)
(-0.175514 -0.362702 0 -0.617363 0.244523 0 0 0 0)
(-0.175099 -0.452091 0 -0.513145 0.176028 0 0 0 0)
(-0.24255 -0.434752 0 -0.442594 0.171249 0 0 0 0)
(-0.327433 -0.378178 0 -0.378298 0.179899 0 0 0 0)
(-0.473519 -0.341613 0 -0.339627 0.170902 0 0 0 0)
(-0.673277 -0.326321 0 -0.334682 0.137439 0 0 0 0)
(-0.663267 -0.255678 0 -0.269528 0.11454 0 0 0 0)
(-0.350615 -0.12613 0 -0.10666 0.129041 0 0 0 0)
(-0.0777069 -0.0403129 0 -0.0276126 0.136633 0 0 0 0)
(0.0065147 -0.0172703 0 -0.0147716 0.135439 0 0 0 0)
(0.0251269 -0.0124963 0 -0.0133378 0.132784 0 0 0 0)
(0.0384715 -0.0100151 0 -0.0102285 0.131086 0 0 0 0)
(0.055313 -0.00406049 0 -0.00569907 0.130065 0 0 0 0)
(0.0751415 -0.00315287 0 -0.00145383 0.130656 0 0 0 0)
(0.0910379 0.000767857 0 0.000660202 0.129245 0 0 0 0)
(0.0992892 0.00179704 0 0.00132673 0.130405 0 0 0 0)
(0.104326 0.00428096 0 0.00183068 0.129749 0 0 0 0)
(0.0709247 0.00620597 0 0.0023564 0.131024 0 0 0 0)
(-0.180593 0.00446355 0 0.00234216 0.131727 0 0 0 0)
(-0.800905 0.00865923 0 0.00413877 0.132383 0 0 0 0)
(-0.982746 0.00782897 0 0.0104107 0.133623 0 0 0 0)
(-0.523742 -0.00357539 0 0.0123426 0.136084 0 0 0 0)
(-0.19635 0.022703 0 0.00698139 0.134501 0 0 0 0)
(-0.125902 0.00746512 0 0.0099476 0.146245 0 0 0 0)
(-0.122985 0.020133 0 0.00564814 0.138673 0 0 0 0)
(-0.14453 0.0152956 0 0.0090548 0.142086 0 0 0 0)
(-0.0946795 -0.0277635 0 0.0104649 0.141028 0 0 0 0)
(0.00142112 0.00542165 0 -1.01387 0.409916 0 0 0 0)
(-0.0260491 0.000491828 0 -1.03258 0.393294 0 0 0 0)
(-0.0552071 -0.0923918 0 -1.0893 0.299902 0 0 0 0)
(-0.0987463 -0.206983 0 -1.17738 0.249448 0 0 0 0)
(-0.218181 -0.22499 0 -1.34759 0.270546 0 0 0 0)
(-0.417513 -0.169258 0 -1.36958 0.348663 0 0 0 0)
(-0.70061 -0.000881585 0 -1.51346 0.598166 0 0 0 0)
(-0.970558 0.217807 0 -1.62287 0.845738 0 0 0 0)
(-1.12134 0.524048 0 -1.72558 1.04576 0 0 0 0)
(-1.0522 0.743317 0 -1.63294 1.20071 0 0 0 0)
(-0.746157 0.454988 0 -1.34775 0.815105 0 0 0 0)
(-0.356692 -0.0126035 0 -0.941319 0.407262 0 0 0 0)
(-0.0975256 -0.30489 0 -0.653091 0.203929 0 0 0 0)
(-0.0509551 -0.459464 0 -0.519591 0.0923028 0 0 0 0)
(-0.111808 -0.473638 0 -0.466716 0.0784551 0 0 0 0)
(-0.190688 -0.421044 0 -0.420434 0.102895 0 0 0 0)
(-0.288212 -0.372902 0 -0.375294 0.122289 0 0 0 0)
(-0.461066 -0.359335 0 -0.361426 0.114508 0 0 0 0)
(-0.633686 -0.346851 0 -0.364012 0.0857457 0 0 0 0)
(-0.539333 -0.249495 0 -0.255772 0.0909814 0 0 0 0)
(-0.233124 -0.110558 0 -0.0876962 0.124741 0 0 0 0)
(-0.0392165 -0.0371903 0 -0.0268206 0.133931 0 0 0 0)
(0.011562 -0.0193511 0 -0.0177106 0.13262 0 0 0 0)
(0.0270236 -0.0146884 0 -0.0150089 0.129702 0 0 0 0)
(0.041974 -0.0112125 0 -0.010419 0.128265 0 0 0 0)
(0.0592108 -0.00414056 0 -0.00487013 0.127414 0 0 0 0)
(0.0778252 -0.00347034 0 -2.12437e-06 0.128077 0 0 0 0)
(0.0920034 0.000645561 0 0.00257736 0.126645 0 0 0 0)
(0.0994842 0.0020539 0 0.00352692 0.127712 0 0 0 0)
(0.104452 0.00449038 0 0.00427286 0.127162 0 0 0 0)
(0.0706399 0.00707321 0 0.00501934 0.127964 0 0 0 0)
(-0.180968 0.00511529 0 0.00513032 0.128681 0 0 0 0)
(-0.799278 0.00956191 0 0.00821181 0.129258 0 0 0 0)
(-0.98101 0.00990155 0 0.0159087 0.130636 0 0 0 0)
(-0.527199 -0.00245128 0 0.0174796 0.133519 0 0 0 0)