/*--------------------------------*- C++ -*----------------------------------*\
| =========                 |                                                 |
| \\      /  F ield         | OpenFOAM: The Open Source CFD Toolbox           |
|  \\    /   O peration     | Version:  v1912                                 |
|   \\  /    A nd           | Website:  www.openfoam.com                      |
|    \\/     M anipulation  |                                                 |
\*---------------------------------------------------------------------------*/
FoamFile
{
    version     2.0;
    format      ascii;
    class       volVectorField;
    location    "3.56";
    object      grad(p);
}
// * * * * * * * * * * * * * * * * * * * * * * * * * * * * * * * * * * * * * //

dimensions      [1 -2 -2 0 0 0 0];


internalField   nonuniform List<vector> 
1900
(
(85084.3 0.0675997 0)
(-63715.2 1.01372 0)
(-5216.29 0.642777 0)
(375.548 -5.35866 0)
(58.8748 -4.41332 0)
(-203.294 8.0057 0)
(-597.081 -27.4429 0)
(-935.424 -72.0566 0)
(-791.469 -224.109 0)
(-1806.92 -613.187 0)
(85085.4 0.339328 0)
(-63714.6 1.8008 0)
(-5222.66 1.38884 0)
(370.492 -10.6034 0)
(72.2392 -13.2849 0)
(-226.323 0.312106 0)
(-677.144 -67.4027 0)
(-1132.09 -81.6479 0)
(-1332.6 -163.9 0)
(-1788.81 -580.492 0)
(85086.4 -4.65405e-09 0)
(-63714.2 -6.91003e-09 0)
(-5228.69 -1.19016e-09 0)
(360.874 1.77636e-11 0)
(69.7903 -1.24345e-10 0)
(-257.411 1.77636e-10 0)
(-679.042 -4.26326e-10 0)
(-1031.92 -6.21725e-10 0)
(-1290.31 1.27898e-09 0)
(-1753.45 7.10543e-11 0)
(85085.4 -0.339328 0)
(-63714.6 -1.8008 0)
(-5222.66 -1.38884 0)
(370.492 10.6034 0)
(72.2392 13.2849 0)
(-226.323 -0.312106 0)
(-677.144 67.4027 0)
(-1132.09 81.6479 0)
(-1332.6 163.9 0)
(-1788.81 580.492 0)
(85084.3 -0.0675997 0)
(-63715.2 -1.01372 0)
(-5216.29 -0.642777 0)
(375.548 5.35866 0)
(58.8748 4.41332 0)
(-203.294 -8.0057 0)
(-597.081 27.4429 0)
(-935.424 72.0566 0)
(-791.469 224.109 0)
(-1806.92 613.187 0)
(-2241.1 -316.278 1.09655e-11)
(-2241.13 -570.59 -1.30727e-11)
(-4711.67 -1182.04 -1.62054e-11)
(-14268.5 -380.991 0)
(-10150.3 9027.85 -5.80128e-11)
(-2047.37 -226.666 1.09083e-11)
(-2922.74 -571.624 1.30727e-11)
(-4392.82 -1143.5 1.62054e-11)
(-9238.25 -778.034 0)
(-7792.56 7063.05 0)
(-2250.2 6.59698e-10 0)
(-3262.14 8.76492e-10 0)
(-5128.29 -1.55431e-09 0)
(-10259.3 -9.08364e-10 0)
(-4155.61 -4.28229e-09 0)
(-2047.37 226.666 1.09083e-11)
(-2922.74 571.624 1.30727e-11)
(-4392.82 1143.5 1.62054e-11)
(-9238.25 778.034 0)
(-7792.56 -7063.05 0)
(-2241.1 316.278 -3.27821e-11)
(-2241.13 570.59 -1.30727e-11)
(-4711.67 1182.04 -1.62054e-11)
(-14268.5 380.991 -4.2702e-11)
(-10150.3 -9027.85 5.80128e-11)
(3087.75 -3341.2 2.85898e-11)
(-6522.89 43.1315 -2.21161e-11)
(-3264.1 674.497 0)
(-4103.62 844.832 1.5885e-11)
(-9758.94 -2561.58 -6.75745e-12)
(105.274 -3519.36 -1.42446e-11)
(-5511.02 122.862 1.10587e-11)
(-2963.23 647.093 0)
(-5487.15 6.03437 -9.94407e-12)
(-9768.59 -4677.5 1.63486e-12)
(998.765 -3.31945e-09 0)
(-5482.75 -1.51825e-09 0)
(-3360.94 -6.5791e-11 0)
(-6456.89 -5.63094e-09 3.9777e-12)
(-10440.6 4.31104e-09 -3.26972e-12)
(105.274 3519.36 -1.42446e-11)
(-5511.02 -122.862 1.10587e-11)
(-2963.23 -647.093 0)
(-5487.15 -6.03437 -9.94407e-12)
(-9768.59 4677.5 1.63486e-12)
(3087.75 3341.2 1.42446e-11)
(-6522.89 -43.1315 -1.29898e-15)
(-3264.1 -674.497 0)
(-4103.62 -844.832 2.54436e-14)
(-9758.94 2561.58 6.75745e-12)
(-20640.5 -2399.92 0)
(-12566.7 5232.63 0)
(1818.8 2999.32 0)
(66.8852 1718.54 0)
(-1546.94 953.643 0)
(-1465.76 390.102 0)
(-863.244 156.11 0)
(-171.365 72.011 0)
(59.6503 54.3091 0)
(95.1296 44.8855 0)
(118.498 33.8596 0)
(84.7794 25.3021 0)
(43.1238 22.0144 0)
(3.18168 19.996 0)
(-20.3891 18.5411 0)
(-29.7317 17.373 0)
(-29.9543 16.4224 0)
(-25.7778 15.6823 0)
(-28.2323 15.0189 0)
(-35.3116 14.6512 0)
(-41.6332 14.4635 0)
(-55.636 14.2568 0)
(-72.8416 14.1745 0)
(-95.0754 14.1646 0)
(-130.895 14.2654 0)
(-180.745 14.4819 0)
(-246.823 14.8416 0)
(-328.423 15.325 0)
(-419.359 15.9994 0)
(-508.525 16.6496 0)
(-579.77 17.2299 0)
(-620.349 17.0156 0)
(-609.5 15.8772 0)
(-547.644 14.6668 0)
(-428.092 11.7756 0)
(-319.325 17.8711 0)
(-241.747 12.5288 0)
(708.98 25.7104 0)
(40320 44.0025 0)
(-50663.1 -2883.38 0)
(-18939.6 -1304.31 0)
(-12470.9 6597.58 0)
(1232.72 3146.17 0)
(-321.327 1062.25 0)
(-1678.15 540.524 0)
(-1556.85 189.589 0)
(-893.644 63.9571 0)
(-180.478 32.3167 0)
(57.2195 19.6969 0)
(94.4296 18.1008 0)
(116.82 12.6835 0)
(83.8938 8.82823 0)
(42.8129 7.27995 0)
(3.03663 6.49834 0)
(-20.4844 5.99079 0)
(-29.8025 5.63563 0)
(-30.0116 5.38329 0)
(-25.8362 5.20372 0)
(-28.2832 5.01783 0)
(-35.3438 4.91774 0)
(-41.6757 4.85072 0)
(-55.6924 4.72721 0)
(-72.9011 4.62156 0)
(-95.1382 4.52542 0)
(-130.958 4.47117 0)
(-180.801 4.4793 0)
(-246.865 4.60445 0)
(-328.436 4.88724 0)
(-419.344 5.42428 0)
(-508.488 6.21444 0)
(-579.769 7.3154 0)
(-620.453 8.52374 0)
(-609.637 9.82048 0)
(-547.926 11.744 0)
(-427.579 13.8436 0)
(-319.097 20.8388 0)
(-240.719 23.8777 0)
(709.68 35.3105 0)
(40295.2 40.3935 0)
(-50641.9 2884.24 0)
(-17230.1 1.21438e-08 0)
(-11272 7.92901e-09 0)
(208.518 9.9476e-09 0)
(-691.121 -3.92413e-09 0)
(-1800.81 -1.08196e-08 0)
(-1604.4 7.60604e-09 0)
(-908.996 5.47279e-08 0)
(-184.24 9.47929e-08 0)
(55.5148 -2.27374e-08 0)
(93.0893 8.29074e-08 0)
(115.801 4.63952e-08 0)
(83.2075 -4.27456e-08 0)
(42.446 -1.20421e-07 0)
(2.80665 -1.19032e-07 0)
(-20.6401 -4.08562e-08 0)
(-29.9084 6.08967e-08 0)
(-30.08 1.37538e-07 0)
(-25.8842 1.25378e-07 0)
(-28.3155 1.27575e-09 0)
(-35.3602 -1.54365e-07 0)
(-41.6886 -1.36925e-07 0)
(-55.7026 3.50911e-08 0)
(-72.9003 3.69967e-08 0)
(-95.1191 -3.69805e-08 0)
(-130.909 -4.10823e-08 0)
(-180.706 -4.71381e-08 0)
(-246.705 -4.78001e-08 0)
(-328.185 -6.70171e-09 0)
(-418.973 4.56443e-08 0)
(-507.975 9.83779e-08 0)
(-579.098 8.3618e-08 0)
(-619.62 3.92656e-08 0)
(-608.563 -9.28146e-08 0)
(-546.474 -2.13106e-07 0)
(-425.446 -1.29642e-07 0)
(-316.406 -2.03143e-07 0)
(-237.537 -2.06275e-07 0)
(713.784 -5.57219e-07 0)
(41148.8 -9.25974e-07 0)
(-51513.9 -2.86607e-06 0)
(-18939.6 1304.31 0)
(-12470.9 -6597.58 0)
(1232.72 -3146.17 0)
(-321.327 -1062.25 0)
(-1678.15 -540.524 0)
(-1556.85 -189.589 0)
(-893.644 -63.9571 0)
(-180.478 -32.3167 0)
(57.2195 -19.6969 0)
(94.4296 -18.1008 0)
(116.82 -12.6835 0)
(83.8938 -8.82823 0)
(42.8129 -7.27995 0)
(3.03663 -6.49834 0)
(-20.4844 -5.99079 0)
(-29.8025 -5.63563 0)
(-30.0116 -5.38329 0)
(-25.8362 -5.20372 0)
(-28.2832 -5.01783 0)
(-35.3438 -4.91774 0)
(-41.6757 -4.85072 0)
(-55.6924 -4.72721 0)
(-72.9011 -4.62156 0)
(-95.1382 -4.52542 0)
(-130.958 -4.47117 0)
(-180.801 -4.4793 0)
(-246.865 -4.60445 0)
(-328.436 -4.88724 0)
(-419.344 -5.42428 0)
(-508.488 -6.21444 0)
(-579.769 -7.3154 0)
(-620.453 -8.52374 0)
(-609.637 -9.82048 0)
(-547.926 -11.744 0)
(-427.579 -13.8436 0)
(-319.097 -20.8388 0)
(-240.719 -23.8777 0)
(709.68 -35.3105 0)
(40295.2 -40.3935 0)
(-50641.9 -2884.24 0)
(-20640.5 2399.92 0)
(-12566.7 -5232.63 0)
(1818.8 -2999.32 0)
(66.8852 -1718.54 0)
(-1546.94 -953.643 0)
(-1465.76 -390.102 0)
(-863.244 -156.11 0)
(-171.365 -72.011 0)
(59.6503 -54.3091 0)
(95.1296 -44.8855 0)
(118.498 -33.8596 0)
(84.7794 -25.3021 0)
(43.1238 -22.0144 0)
(3.18168 -19.996 0)
(-20.3891 -18.5411 0)
(-29.7317 -17.373 0)
(-29.9543 -16.4224 0)
(-25.7778 -15.6823 0)
(-28.2323 -15.0189 0)
(-35.3116 -14.6512 0)
(-41.6332 -14.4635 0)
(-55.636 -14.2568 0)
(-72.8416 -14.1745 0)
(-95.0754 -14.1646 0)
(-130.895 -14.2654 0)
(-180.745 -14.4819 0)
(-246.823 -14.8416 0)
(-328.423 -15.325 0)
(-419.359 -15.9994 0)
(-508.525 -16.6496 0)
(-579.77 -17.2299 0)
(-620.349 -17.0156 0)
(-609.5 -15.8772 0)
(-547.644 -14.6668 0)
(-428.092 -11.7756 0)
(-319.325 -17.8711 0)
(-241.747 -12.5288 0)
(708.98 -25.7104 0)
(40320 -44.0025 0)
(-50663.1 2883.38 0)
(30254.2 5818.26 0)
(-15747 -3852.85 0)
(2759.36 -2231.5 0)
(512.997 -2331.77 0)
(-996.556 -1362.41 0)
(-1161.9 -697.495 0)
(-729.263 -294.944 0)
(-127.158 -143.499 0)
(71.4241 -121.693 0)
(106.448 -90.7342 0)
(127.165 -68.8013 0)
(90.3 -53.1725 0)
(45.7818 -46.3452 0)
(5.04764 -41.8012 0)
(-18.9493 -38.4845 0)
(-28.5554 -35.7838 0)
(-29.0172 -33.5691 0)
(-25.0234 -31.8668 0)
(-27.6953 -30.4044 0)
(-35.0326 -29.5724 0)
(-41.4776 -29.1978 0)
(-55.5764 -28.9008 0)
(-72.9121 -28.9084 0)
(-95.268 -29.1248 0)
(-131.229 -29.6387 0)
(-181.227 -30.4457 0)
(-247.441 -31.6379 0)
(-329.178 -33.1851 0)
(-420.158 -35.1097 0)
(-509.216 -37.216 0)
(-579.998 -39.1748 0)
(-619.726 -40.1092 0)
(-608.322 -38.5832 0)
(-545.679 -37.3289 0)
(-428.995 -34.1755 0)
(-319.306 -41.9069 0)
(-244.449 -39.5066 0)
(690.746 -54.0652 0)
(42091.3 -173.782 0)
(-52398.5 446.473 0)
(31072.4 4342.47 0)
(-18618.4 -1539.59 0)
(2780.21 -1689.39 0)
(665.154 -2005.97 0)
(-267.236 -1402.1 0)
(-600.057 -886.405 0)
(-401.239 -408.954 0)
(-28.1183 -236.807 0)
(104.183 -196.826 0)
(140.029 -137.747 0)
(150.047 -108.866 0)
(103.459 -87.6123 0)
(52.6562 -76.9684 0)
(9.75593 -69.5125 0)
(-15.3626 -64.119 0)
(-25.6258 -59.7229 0)
(-26.6823 -56.1452 0)
(-23.1328 -53.4562 0)
(-26.3092 -51.144 0)
(-34.2985 -49.8317 0)
(-41.0695 -49.2672 0)
(-55.389 -48.8105 0)
(-73.0197 -48.8383 0)
(-95.6759 -49.2135 0)
(-131.989 -50.0112 0)
(-182.413 -51.4137 0)
(-249.132 -53.284 0)
(-331.364 -55.8693 0)
(-422.815 -59.1919 0)
(-512.072 -62.8115 0)
(-582.436 -66.1152 0)
(-620.113 -68.6749 0)
(-607.452 -66.7807 0)
(-544.45 -65.8696 0)
(-432.018 -63.9928 0)
(-324.473 -73.3369 0)
(-252.014 -77.3278 0)
(589.365 -87.7742 0)
(39852.5 -323.712 0)
(-49995.3 -3076.21 0)
(32955.1 5995.33 0)
(-21559.5 -496.144 0)
(2309.94 -1284.19 0)
(789.832 -1475.12 0)
(82.3013 -1202.7 0)
(-204.862 -853.28 0)
(-103.287 -486.417 0)
(77.2562 -327.042 0)
(166.882 -265.107 0)
(191.209 -189.846 0)
(175.476 -156.854 0)
(121.037 -131.384 0)
(63.2235 -116.584 0)
(17.4298 -105.564 0)
(-9.51562 -97.2424 0)
(-20.8716 -90.7676 0)
(-22.9784 -85.4029 0)
(-20.2041 -81.5618 0)
(-24.2027 -78.2578 0)
(-33.224 -76.4219 0)
(-40.4935 -75.6827 0)
(-55.1631 -75.05 0)
(-73.3005 -75.176 0)
(-96.3982 -75.7802 0)
(-133.349 -77.1471 0)
(-184.381 -79.0429 0)
(-251.735 -82.1631 0)
(-334.871 -85.8652 0)
(-426.847 -90.2874 0)
(-515.888 -95.9583 0)
(-585.648 -100.253 0)
(-620.367 -103.689 0)
(-605.619 -100.974 0)
(-542.993 -100.285 0)
(-436.191 -100.419 0)
(-332.156 -111.823 0)
(-258.361 -118.814 0)
(453.321 -124.207 0)
(39211.5 -451.776 0)
(-49122.2 -2411.92 0)
(36371.6 1906.1 0)
(-25633.2 -399.981 0)
(1836.83 -1001.7 0)
(743.68 -1167.8 0)
(331.989 -1037.54 0)
(90.1764 -761.374 0)
(105.863 -528.271 0)
(185.144 -388.29 0)
(236.39 -314.368 0)
(244.345 -246.469 0)
(206.383 -207.78 0)
(142.264 -179.441 0)
(77.538 -160.879 0)
(28.3944 -146.13 0)
(-1.10467 -135.029 0)
(-14.2168 -125.734 0)
(-17.8113 -118.731 0)
(-16.2475 -113.713 0)
(-21.3562 -109.423 0)
(-31.817 -107.098 0)
(-39.7475 -106.241 0)
(-54.9007 -105.432 0)
(-73.7233 -105.68 0)
(-97.5752 -106.707 0)
(-135.133 -108.419 0)
(-187.247 -111.756 0)
(-255.706 -115.062 0)
(-339.193 -120.868 0)
(-432.541 -126.925 0)
(-521.675 -134.105 0)
(-589.886 -139.296 0)
(-620.808 -144.901 0)
(-604.172 -142.401 0)
(-543.915 -142.08 0)
(-443.137 -145.427 0)
(-342.199 -158.636 0)
(-263.947 -167.09 0)
(268.511 -169.311 0)
(37647.9 -593.988 0)
(-47235.8 -3811.45 0)
(34406.5 -2403.05 0)
(-24361.6 -485.18 0)
(1570.04 -943.73 0)
(755.294 -961.174 0)
(473.949 -892.216 0)
(285.892 -711.724 0)
(256.23 -554.406 0)
(283.381 -441.417 0)
(303.545 -366.478 0)
(293.921 -307.699 0)
(240.067 -266.964 0)
(166.232 -236.873 0)
(95.323 -214.37 0)
(42.3399 -197.365 0)
(10.1388 -181.773 0)
(-5.16578 -170.044 0)
(-11.3945 -161.012 0)
(-11.2351 -154.861 0)
(-17.8287 -149.6 0)
(-30.1578 -146.869 0)
(-38.8878 -145.95 0)
(-54.6222 -144.985 0)
(-74.5291 -145.519 0)
(-99.0377 -146.983 0)
(-138.215 -149.888 0)
(-190.782 -153.167 0)
(-260.515 -159.98 0)
(-346.302 -165.094 0)
(-439.603 -174.031 0)
(-527.809 -184.904 0)
(-596.052 -189.849 0)
(-623.36 -197.839 0)
(-602.9 -196.166 0)
(-545.909 -199.847 0)
(-452.146 -205.438 0)
(-353.031 -224.582 0)
(-268.648 -234.606 0)
(41.9466 -240.085 0)
(35701.8 -736.095 0)
(-44876.9 -4822.7 0)
(33588.4 -1218.38 0)
(-24227 -497.679 0)
(1378.15 -829.49 0)
(793.321 -823.516 0)
(572.367 -779.366 0)
(415.703 -679.731 0)
(366.34 -578.01 0)
(366.238 -493.975 0)
(365.246 -429.018 0)
(340.24 -378.786 0)
(274.634 -339.563 0)
(192.946 -308.76 0)
(115.609 -284.654 0)
(59.8063 -261.921 0)
(25.2228 -243.925 0)
(5.78905 -228.526 0)
(-3.17966 -217.262 0)
(-5.24998 -209.786 0)
(-13.655 -203.693 0)
(-28.3002 -200.724 0)
(-37.9321 -199.67 0)
(-54.4852 -198.631 0)
(-75.6485 -199.62 0)
(-101.785 -201.856 0)
(-141.093 -205.636 0)
(-196.972 -211.383 0)
(-267.199 -217.34 0)
(-352.732 -227.724 0)
(-451.63 -236.257 0)
(-536.919 -249.276 0)
(-602.351 -254.944 0)
(-626.895 -265.496 0)
(-606.107 -261.347 0)
(-552.85 -266.362 0)
(-466.972 -272.511 0)
(-370.307 -295.208 0)
(-278.886 -306.656 0)
(-214.742 -311.87 0)
(33232 -797.988 0)
(-41879.1 -5600.05 0)
(32752.8 -2110.31 0)
(-23986.8 -527.391 0)
(1256.05 -753.207 0)
(803.595 -794.784 0)
(612.504 -765.667 0)
(479.926 -710.237 0)
(435.231 -639.376 0)
(426.955 -571.881 0)
(414.546 -517.447 0)
(380.123 -473.851 0)
(307.547 -436.159 0)
(219.145 -403.343 0)
(140.459 -373.909 0)
(81.5876 -346.963 0)
(42.3187 -324.849 0)
(20.5279 -305.892 0)
(6.66454 -292.518 0)
(1.84077 -283.326 0)
(-9.09674 -276.605 0)
(-26.2808 -273.437 0)
(-36.8707 -272.18 0)
(-54.5749 -271.297 0)
(-77.6362 -272.877 0)
(-104.834 -276.357 0)
(-147.396 -280.928 0)
(-202.061 -288.875 0)
(-276.262 -296.966 0)
(-364.532 -310.833 0)
(-460.371 -320.543 0)
(-545.816 -342.29 0)
(-611.682 -347.736 0)
(-629.529 -363.327 0)
(-603.734 -365.092 0)
(-556.667 -371.763 0)
(-479.943 -385.051 0)
(-385.935 -411.37 0)
(-284.704 -439.55 0)
(-431.518 -438.301 0)
(30606 -789.737 0)
(-38711.6 -6076.52 0)
(31046.6 -3150.65 0)
(-22919.2 -572.572 0)
(1120.48 -727.779 0)
(781.314 -804.97 0)
(653.839 -784.987 0)
(537.402 -742.117 0)
(499.665 -684.686 0)
(483.733 -634.046 0)
(459.711 -597.014 0)
(418.572 -567.249 0)
(342.578 -536.103 0)
(252.933 -507.862 0)
(169.939 -475.837 0)
(107.081 -449.594 0)
(64.8003 -422.669 0)
(36.9448 -402.393 0)
(18.5656 -386.52 0)
(10.0842 -376.017 0)
(-4.12517 -368.703 0)
(-24.0363 -365.144 0)
(-35.8705 -363.774 0)
(-55.157 -363.32 0)
(-80.5245 -365.732 0)
(-109.543 -369.967 0)
(-153.155 -376.804 0)
(-212.427 -384.056 0)
(-288.359 -397.283 0)
(-375.452 -407.415 0)
(-481.944 -419.215 0)
(-563.123 -441.219 0)
(-622.623 -450.083 0)
(-643.619 -462.254 0)
(-614.237 -467.579 0)
(-572.084 -474.022 0)
(-505.139 -493.021 0)
(-422.823 -520.638 0)
(-304.838 -559.137 0)
(-552.196 -563.698 0)
(27798.8 -718.796 0)
(-35262.5 -6350.53 0)
(29165 -3556.49 0)
(-21652.1 -590.441 0)
(1032.11 -702.304 0)
(748.468 -786.389 0)
(673.072 -810.922 0)
(576.579 -792.949 0)
(539.373 -751.753 0)
(511.439 -724.732 0)
(478.913 -703.701 0)
(438.82 -686.681 0)
(364.774 -660.316 0)
(277.22 -629.001 0)
(196.608 -594.953 0)
(132.822 -560.702 0)
(87.8038 -531.236 0)
(55.3628 -508.096 0)
(32.0818 -490.605 0)
(19.0094 -479.219 0)
(1.38008 -471.555 0)
(-21.5309 -467.539 0)
(-35.1126 -466.08 0)
(-56.4623 -466.271 0)
(-84.0418 -469.506 0)
(-115.503 -474.707 0)
(-160.973 -482.683 0)
(-221.795 -493.654 0)
(-298.771 -505.709 0)
(-385.666 -525.747 0)
(-492.946 -537.944 0)
(-575.562 -560.073 0)
(-631.952 -570.969 0)
(-646.388 -574.928 0)
(-615.075 -573.706 0)
(-581.184 -572.146 0)
(-524.863 -582.677 0)
(-449.647 -601.584 0)
(-326.198 -624.122 0)
(-585.372 -634.264 0)
(25029.6 -631.875 0)
(-31899.3 -6307.18 0)
(27050.5 -3890.14 0)
(-20168.8 -601.082 0)
(931.656 -698.083 0)
(676.645 -776.572 0)
(647.518 -826.484 0)
(594.419 -826.727 0)
(565.402 -800.623 0)
(530.037 -790.44 0)
(496.378 -778.664 0)
(460.379 -771.013 0)
(398.161 -746.269 0)
(315.919 -717.165 0)
(235.755 -682.898 0)
(168.481 -650.587 0)
(115.494 -624.466 0)
(76.0989 -602.189 0)
(46.3925 -586.213 0)
(28.4409 -574.955 0)
(7.13041 -567.856 0)
(-18.76 -563.598 0)
(-34.6491 -561.949 0)
(-58.4586 -562.733 0)
(-88.6539 -565.993 0)
(-122.24 -571.217 0)
(-171.413 -577.625 0)
(-234.616 -587.826 0)
(-319.285 -596.317 0)
(-406.514 -614.052 0)
(-515.022 -623.52 0)
(-594.948 -642.063 0)
(-636.937 -648.362 0)
(-646.257 -643.809 0)
(-611.556 -637.315 0)
(-580.728 -628.74 0)
(-533.507 -628.801 0)
(-462.761 -640.283 0)
(-336.33 -650.491 0)
(-559.667 -657.109 0)
(22332.1 -593.13 0)
(-28575.8 -6055.84 0)
(24837.1 -4027.68 0)
(-18576.1 -580.675 0)
(862.997 -663.487 0)
(624.735 -712.29 0)
(624.74 -763.346 0)
(601.5 -771.2 0)
(574.341 -771.021 0)
(532.599 -779.701 0)
(497.633 -784.68 0)
(470.036 -792.252 0)
(416.665 -778.678 0)
(338.287 -761.914 0)
(260.765 -731.345 0)
(189.129 -705.588 0)
(134.442 -682.107 0)
(92.2253 -663.184 0)
(58.3255 -649.934 0)
(36.6982 -640.3 0)
(12.3244 -634.785 0)
(-15.8382 -630.883 0)
(-34.2792 -629.09 0)
(-60.359 -629.919 0)
(-92.2167 -632.115 0)
(-126.712 -635.579 0)
(-176.978 -639.798 0)
(-239.807 -645.448 0)
(-324.043 -651.284 0)
(-411.88 -658.242 0)
(-519.939 -660.312 0)
(-599.5 -663.811 0)
(-633.635 -660.003 0)
(-635.743 -642.014 0)
(-600.554 -627.099 0)
(-572.979 -612.885 0)
(-535.986 -606.455 0)
(-470.548 -612.578 0)
(-342.412 -617.187 0)
(-530.097 -618.394 0)
(19827.1 -553.58 0)
(-25492.1 -5686.92 0)
(22609.7 -3974.91 0)
(-16927 -545.029 0)
(804.826 -628.996 0)
(580.417 -664.339 0)
(590.75 -707.093 0)
(587.024 -719.894 0)
(557.21 -741.28 0)
(516.875 -759.697 0)
(484.284 -773.154 0)
(466.162 -781.749 0)
(427.396 -775.035 0)
(361.531 -757.103 0)
(290.032 -730.022 0)
(215.929 -708.366 0)
(156.356 -688.342 0)
(107.102 -675.197 0)
(68.4444 -666.386 0)
(43.0398 -661.178 0)
(16.2047 -658.509 0)
(-13.2723 -656.324 0)
(-33.7199 -654.542 0)
(-61.3741 -653.585 0)
(-94.1086 -652.789 0)
(-129.644 -651.657 0)
(-180.923 -651.765 0)
(-245.684 -651.868 0)
(-331.614 -652.651 0)
(-415.214 -656.287 0)
(-520.388 -652.282 0)
(-594.65 -654.158 0)
(-615.932 -643.916 0)
(-614.549 -622.451 0)
(-583.486 -605.037 0)
(-560.835 -590.889 0)
(-533.21 -582.947 0)
(-473.103 -585.221 0)
(-341.935 -586.773 0)
(-498.373 -585.425 0)
(17447.9 -524.286 0)
(-22562.2 -5288.44 0)
(20481.5 -3910.02 0)
(-15351.8 -508.292 0)
(748.025 -591.289 0)
(549.478 -632.101 0)
(571.205 -661.513 0)
(568.556 -671.388 0)
(535.985 -702.191 0)
(501.885 -718.071 0)
(476.383 -729.809 0)
(468.224 -731.339 0)
(440.415 -720.278 0)
(381.662 -704.898 0)
(307.729 -680.668 0)
(229.294 -661.065 0)
(166.404 -644.435 0)
(113.382 -634.043 0)
(71.8343 -627.763 0)
(44.2887 -625.077 0)
(17.0017 -624.081 0)
(-12.0153 -623.254 0)
(-31.6398 -621.442 0)
(-58.6698 -618.858 0)
(-90.3589 -616.048 0)
(-125.726 -612.361 0)
(-177.181 -609.71 0)
(-240.66 -608.313 0)
(-328.301 -605.158 0)
(-411.525 -611.044 0)
(-517.888 -607.352 0)
(-591.439 -607.007 0)
(-603.082 -599.581 0)
(-598.278 -585.178 0)
(-570.139 -572.544 0)
(-551.693 -563.343 0)
(-530.525 -558.536 0)
(-474.235 -560.15 0)
(-342.608 -561.559 0)
(-469.882 -560.324 0)
(15295.1 -501.737 0)
(-19890.8 -4936.95 0)
(18352.1 -3785.31 0)
(-13728.9 -486.864 0)
(685.52 -568.827 0)
(512.747 -611.84 0)
(552.892 -640.332 0)
(547.825 -650.53 0)
(512.224 -675.888 0)
(490.261 -685.728 0)
(471.498 -694.176 0)
(475.347 -686.404 0)
(452.875 -669.486 0)
(399.7 -647.651 0)
(332.272 -611.596 0)
(250.844 -590.343 0)
(182.395 -569.757 0)
(123.167 -555.281 0)
(77.085 -546.507 0)
(46.5879 -542.305 0)
(17.9609 -541.322 0)
(-10.7293 -542.047 0)
(-29.4835 -540.166 0)
(-56.1758 -535.63 0)
(-87.8475 -532.371 0)
(-123.537 -530.499 0)
(-177.023 -530.609 0)
(-241.298 -535.39 0)
(-334.245 -536.181 0)
(-417.329 -548.67 0)
(-516.498 -556.481 0)
(-587.161 -563.488 0)
(-594.897 -563.544 0)
(-588.495 -556.051 0)
(-562.445 -549.032 0)
(-547.337 -544.7 0)
(-530.134 -543.615 0)
(-476.015 -545.451 0)
(-342.102 -547.325 0)
(-440.727 -545.579 0)
(13230.5 -487.498 0)
(-17321.3 -4550.84 0)
(16364.7 -3740.03 0)
(-12252.3 -460.203 0)
(627.595 -542.56 0)
(480.573 -590.43 0)
(533.922 -615.405 0)
(534.293 -627.617 0)
(502.067 -639.026 0)
(484.261 -640.717 0)
(475.732 -644.836 0)
(492.017 -628.285 0)
(477.758 -601.983 0)
(437.447 -566.342 0)
(362.954 -523.603 0)
(269.612 -494.305 0)
(200.191 -467.974 0)
(135.787 -447.964 0)
(84.3387 -434.108 0)
(49.2849 -424.643 0)
(17.2501 -418.573 0)
(-10.9014 -416.194 0)
(-25.4562 -414.094 0)
(-51.1579 -412.296 0)
(-85.415 -413.881 0)
(-124.028 -417.53 0)
(-181.893 -424.026 0)
(-246.03 -435.91 0)
(-341.098 -444.707 0)
(-431.087 -468.268 0)
(-532.167 -486.859 0)
(-598.245 -505.234 0)
(-595.916 -516.252 0)
(-584.294 -517.886 0)
(-559.2 -518.343 0)
(-546.472 -519.2 0)
(-531.248 -520.696 0)
(-477.811 -520.971 0)
(-342.732 -524.526 0)
(-412.231 -517.569 0)
(11435.5 -455.541 0)
(-15035.6 -4220.92 0)
(14304.6 -3325.45 0)
(-10647.7 -383.45 0)
(560.028 -478.915 0)
(442.55 -530.899 0)
(517.057 -549.994 0)
(525.064 -560.891 0)
(499.6 -563.995 0)
(484.662 -559.347 0)
(483.479 -554.98 0)
(516.641 -537.059 0)
(512.565 -507.834 0)
(475.23 -464.824 0)
(401.69 -421.319 0)
(304.451 -392.492 0)
(227.05 -366.115 0)
(155.802 -347.838 0)
(99.5582 -333.429 0)
(61.5585 -322.231 0)
(26.1028 -314.917 0)
(-6.41312 -311.187 0)
(-25.7274 -308.718 0)
(-55.9708 -308.53 0)
(-92.8907 -312.21 0)
(-133.313 -318.598 0)
(-194.735 -327.139 0)
(-261.227 -340.31 0)
(-365.426 -350.692 0)
(-457.948 -375.78 0)
(-552.12 -397.708 0)
(-615.485 -419.472 0)
(-607.09 -436.402 0)
(-590.51 -443.445 0)
(-563.711 -448.375 0)
(-549.605 -451.609 0)
(-531.84 -453.864 0)
(-479.706 -454.943 0)
(-338.824 -454.31 0)
(-374.25 -430.994 0)
(9661.77 -360.137 0)
(-12814.9 -3520.91 0)
(12790.7 -2911.78 0)
(-9509.28 -179.521 0)
(485.507 -270.548 0)
(412.078 -359.174 0)
(505.021 -396.235 0)
(520.802 -419.714 0)
(503.555 -418.701 0)
(492.948 -412.405 0)
(497.209 -399.208 0)
(537.449 -373.833 0)
(547.367 -352.985 0)
(520.816 -324.109 0)
(432.656 -295.797 0)
(322.809 -286.304 0)
(243.221 -272.318 0)
(167.284 -267.296 0)
(109.014 -261.391 0)
(67.1238 -253.473 0)
(27.8923 -245.778 0)
(-4.92784 -238.472 0)
(-22.8953 -236.588 0)
(-54.5232 -240.701 0)
(-95.1169 -245.329 0)
(-138.414 -249.671 0)
(-202.816 -251.421 0)
(-268.726 -255.948 0)
(-375.279 -255.866 0)
(-476.393 -267.219 0)
(-574.27 -279.168 0)
(-635.532 -287.415 0)
(-619.017 -296.822 0)
(-595.831 -299.451 0)
(-567.068 -302.247 0)
(-551.762 -302.004 0)
(-534.461 -301.828 0)
(-478.24 -298.711 0)
(-319.653 -280.374 0)
(-321.483 -229.155 0)
(8457.98 -146.693 0)
(-11295.7 -2853.13 0)
(11325.7 3110.14 0)
(-8102.54 180.493 0)
(386.908 -142.677 0)
(321.433 -293.681 0)
(458.719 -386.776 0)
(503.415 -449.509 0)
(506.643 -491.083 0)
(503.447 -525.387 0)
(520.648 -551.406 0)
(561.183 -568.632 0)
(560.481 -577.901 0)
(530.339 -519.115 0)
(438.12 -339.028 0)
(327.076 -74.9326 0)
(245.367 241.502 0)
(166.331 510.784 0)
(112.878 735.978 0)
(76.6038 883.452 0)
(40.559 958.856 0)
(2.4425 969.705 0)
(-27.8756 971.235 0)
(-64.394 964.482 0)
(-101.534 893.263 0)
(-139.183 749.126 0)
(-200.784 535.959 0)
(-265.51 261.371 0)
(-376.287 -21.9359 0)
(-480.403 -297.662 0)
(-571.581 -468.088 0)
(-632.497 -521.775 0)
(-618.689 -518.556 0)
(-595.738 -487.419 0)
(-566.17 -456.569 0)
(-549.201 -424.729 0)
(-528.668 -391.683 0)
(-459.032 -354.916 0)
(-271.797 -296.882 0)
(-245.43 -204.81 0)
(7133.21 122.799 0)
(-9924.17 3525.95 0)
(15961.7 151225 0)
(-12643.8 13290.8 0)
(28.5752 8351.67 0)
(176.855 9685.24 0)
(354.859 10957.9 0)
(420.288 12841.3 0)
(430.436 14765.7 0)
(434.818 17018.3 0)
(455.537 19384.5 0)
(511.918 22044.8 0)
(595.082 24805.8 0)
(751.003 27746.6 0)
(860.687 30657 0)
(882.229 33563 0)
(807.639 36250.3 0)
(643.779 38693.5 0)
(468.13 40552.8 0)
(281.897 42067.2 0)
(111.009 42723 0)
(7.00154 43455.4 0)
(-27.9284 43459.5 0)
(-129.66 42717.3 0)
(-302.642 42062.4 0)
(-482.725 40528 0)
(-672.834 38681.8 0)
(-806.334 36190.4 0)
(-913.982 33509.4 0)
(-906.322 30581.1 0)
(-790.234 27646.1 0)
(-684.165 24702.7 0)
(-585.91 21904.8 0)
(-536.099 19220.7 0)
(-506.657 16790.5 0)
(-489.236 14463.8 0)
(-467.187 12452.6 0)
(-386.886 10451.5 0)
(-175.006 9085.18 0)
(82.9369 7588.77 0)
(12053.1 12109.9 0)
(-14811.8 142623 0)
(169859 -176287 0)
(-145780 -16545.9 0)
(-3087.57 -11884.4 0)
(2832.91 -13371.5 0)
(3499.99 -15007.7 0)
(4172.77 -17371.8 0)
(4531.79 -19774.1 0)
(4954.22 -22521.3 0)
(5364.34 -25366.5 0)
(5785.38 -28560.8 0)
(6054.98 -31901.4 0)
(6168.74 -35461.8 0)
(6042.97 -39082.3 0)
(5717.04 -42626 0)
(5189.37 -45930.6 0)
(4312.37 -48849.3 0)
(3363.83 -51073.8 0)
(2167.86 -52825.8 0)
(1378.25 -53616 0)
(712.163 -54371.3 0)
(-739.039 -54362.3 0)
(-1410.71 -53575.4 0)
(-2211.27 -52763.8 0)
(-3396.79 -50966.6 0)
(-4380.62 -48737.9 0)
(-5249.88 -45722.5 0)
(-5781.7 -42453.1 0)
(-6130.5 -38774.1 0)
(-6236.15 -35150.8 0)
(-6164.96 -31482.6 0)
(-5901.41 -28043.2 0)
(-5524.08 -24750.5 0)
(-5150.04 -21754.3 0)
(-4729.37 -18880.3 0)
(-4395.04 -16338.8 0)
(-3704.02 -13834.6 0)
(-3030.46 -12093.5 0)
(2669.27 -10508.2 0)
(137257 -14949.6 0)
(-159030 -165452 0)
(169859 176287 0)
(-145780 16545.9 0)
(-3087.57 11884.4 0)
(2832.91 13371.5 0)
(3499.99 15007.7 0)
(4172.77 17371.8 0)
(4531.79 19774.1 0)
(4954.22 22521.3 0)
(5364.34 25366.5 0)
(5785.38 28560.8 0)
(6054.98 31901.4 0)
(6168.74 35461.8 0)
(6042.97 39082.3 0)
(5717.04 42626 0)
(5189.37 45930.6 0)
(4312.37 48849.3 0)
(3363.83 51073.8 0)
(2167.86 52825.8 0)
(1378.25 53616 0)
(712.163 54371.3 0)
(-739.039 54362.3 0)
(-1410.71 53575.4 0)
(-2211.27 52763.8 0)
(-3396.79 50966.6 0)
(-4380.62 48737.9 0)
(-5249.88 45722.5 0)
(-5781.7 42453.1 0)
(-6130.5 38774.1 0)
(-6236.15 35150.8 0)
(-6164.96 31482.6 0)
(-5901.41 28043.2 0)
(-5524.08 24750.5 0)
(-5150.04 21754.3 0)
(-4729.37 18880.3 0)
(-4395.04 16338.8 0)
(-3704.02 13834.6 0)
(-3030.46 12093.5 0)
(2669.27 10508.2 0)
(137257 14949.6 0)
(-159030 165452 0)
(15961.7 -151225 0)
(-12643.8 -13290.8 0)
(28.5752 -8351.67 0)
(176.855 -9685.24 0)
(354.859 -10957.9 0)
(420.288 -12841.3 0)
(430.436 -14765.7 0)
(434.818 -17018.3 0)
(455.537 -19384.5 0)
(511.918 -22044.8 0)
(595.082 -24805.8 0)
(751.003 -27746.6 0)
(860.687 -30657 0)
(882.229 -33563 0)
(807.639 -36250.3 0)
(643.779 -38693.5 0)
(468.13 -40552.8 0)
(281.897 -42067.2 0)
(111.009 -42723 0)
(7.00154 -43455.4 0)
(-27.9284 -43459.5 0)
(-129.66 -42717.3 0)
(-302.642 -42062.4 0)
(-482.725 -40528 0)
(-672.834 -38681.8 0)
(-806.334 -36190.4 0)
(-913.982 -33509.4 0)
(-906.322 -30581.1 0)
(-790.234 -27646.1 0)
(-684.165 -24702.7 0)
(-585.91 -21904.8 0)
(-536.099 -19220.7 0)
(-506.657 -16790.5 0)
(-489.236 -14463.8 0)
(-467.187 -12452.6 0)
(-386.886 -10451.5 0)
(-175.006 -9085.18 0)
(82.9369 -7588.77 0)
(12053.1 -12109.9 0)
(-14811.8 -142623 0)
(11325.7 -3110.14 0)
(-8102.54 -180.493 0)
(386.908 142.677 0)
(321.433 293.681 0)
(458.719 386.776 0)
(503.415 449.509 0)
(506.643 491.083 0)
(503.447 525.387 0)
(520.648 551.406 0)
(561.183 568.632 0)
(560.481 577.901 0)
(530.339 519.115 0)
(438.12 339.028 0)
(327.076 74.9326 0)
(245.367 -241.502 0)
(166.331 -510.784 0)
(112.878 -735.978 0)
(76.6038 -883.452 0)
(40.559 -958.856 0)
(2.4425 -969.705 0)
(-27.8756 -971.235 0)
(-64.394 -964.482 0)
(-101.534 -893.263 0)
(-139.183 -749.126 0)
(-200.784 -535.959 0)
(-265.51 -261.371 0)
(-376.287 21.9359 0)
(-480.403 297.662 0)
(-571.581 468.088 0)
(-632.497 521.775 0)
(-618.689 518.556 0)
(-595.738 487.419 0)
(-566.17 456.569 0)
(-549.201 424.729 0)
(-528.668 391.683 0)
(-459.032 354.916 0)
(-271.797 296.882 0)
(-245.43 204.81 0)
(7133.21 -122.799 0)
(-9924.17 -3525.95 0)
(12790.7 2911.78 0)
(-9509.28 179.521 0)
(485.507 270.548 0)
(412.078 359.174 0)
(505.021 396.235 0)
(520.802 419.714 0)
(503.555 418.701 0)
(492.948 412.405 0)
(497.209 399.208 0)
(537.449 373.833 0)
(547.367 352.985 0)
(520.816 324.109 0)
(432.656 295.797 0)
(322.809 286.304 0)
(243.221 272.318 0)
(167.284 267.296 0)
(109.014 261.391 0)
(67.1238 253.473 0)
(27.8923 245.778 0)
(-4.92784 238.472 0)
(-22.8953 236.588 0)
(-54.5232 240.701 0)
(-95.1169 245.329 0)
(-138.414 249.671 0)
(-202.816 251.421 0)
(-268.726 255.948 0)
(-375.279 255.866 0)
(-476.393 267.219 0)
(-574.27 279.168 0)
(-635.532 287.415 0)
(-619.017 296.822 0)
(-595.831 299.451 0)
(-567.068 302.247 0)
(-551.762 302.004 0)
(-534.461 301.828 0)
(-478.24 298.711 0)
(-319.653 280.374 0)
(-321.483 229.155 0)
(8457.98 146.693 0)
(-11295.7 2853.13 0)
(14304.6 3325.45 0)
(-10647.7 383.45 0)
(560.028 478.915 0)
(442.55 530.899 0)
(517.057 549.994 0)
(525.064 560.891 0)
(499.6 563.995 0)
(484.662 559.347 0)
(483.479 554.98 0)
(516.641 537.059 0)
(512.565 507.834 0)
(475.23 464.824 0)
(401.69 421.319 0)
(304.451 392.492 0)
(227.05 366.115 0)
(155.802 347.838 0)
(99.5582 333.429 0)
(61.5585 322.231 0)
(26.1028 314.917 0)
(-6.41312 311.187 0)
(-25.7274 308.718 0)
(-55.9708 308.53 0)
(-92.8907 312.21 0)
(-133.313 318.598 0)
(-194.735 327.139 0)
(-261.227 340.31 0)
(-365.426 350.692 0)
(-457.948 375.78 0)
(-552.12 397.708 0)
(-615.485 419.472 0)
(-607.09 436.402 0)
(-590.51 443.445 0)
(-563.711 448.375 0)
(-549.605 451.609 0)
(-531.84 453.864 0)
(-479.706 454.943 0)
(-338.824 454.31 0)
(-374.25 430.994 0)
(9661.77 360.137 0)
(-12814.9 3520.91 0)
(16364.7 3740.03 0)
(-12252.3 460.203 0)
(627.595 542.56 0)
(480.573 590.43 0)
(533.922 615.405 0)
(534.293 627.617 0)
(502.067 639.026 0)
(484.261 640.717 0)
(475.732 644.836 0)
(492.017 628.285 0)
(477.758 601.983 0)
(437.447 566.342 0)
(362.954 523.603 0)
(269.612 494.305 0)
(200.191 467.974 0)
(135.787 447.964 0)
(84.3387 434.108 0)
(49.2849 424.643 0)
(17.2501 418.573 0)
(-10.9014 416.194 0)
(-25.4562 414.094 0)
(-51.1579 412.296 0)
(-85.415 413.881 0)
(-124.028 417.53 0)
(-181.893 424.026 0)
(-246.03 435.91 0)
(-341.098 444.707 0)
(-431.087 468.268 0)
(-532.167 486.859 0)
(-598.245 505.234 0)
(-595.916 516.252 0)
(-584.294 517.886 0)
(-559.2 518.343 0)
(-546.472 519.2 0)
(-531.248 520.696 0)
(-477.811 520.971 0)
(-342.732 524.526 0)
(-412.231 517.569 0)
(11435.5 455.541 0)
(-15035.6 4220.92 0)
(18352.1 3785.31 0)
(-13728.9 486.864 0)
(685.52 568.827 0)
(512.747 611.84 0)
(552.892 640.332 0)
(547.825 650.53 0)
(512.224 675.888 0)
(490.261 685.728 0)
(471.498 694.176 0)
(475.347 686.404 0)
(452.875 669.486 0)
(399.7 647.651 0)
(332.272 611.596 0)
(250.844 590.343 0)
(182.395 569.757 0)