/*--------------------------------*- C++ -*----------------------------------*\
| =========                 |                                                 |
| \\      /  F ield         | OpenFOAM: The Open Source CFD Toolbox           |
|  \\    /   O peration     | Version:  v1912                                 |
|   \\  /    A nd           | Website:  www.openfoam.com                      |
|    \\/     M anipulation  |                                                 |
\*---------------------------------------------------------------------------*/
FoamFile
{
    version     2.0;
    format      ascii;
    class       volScalarField;
    location    "3.56";
    object      Ma;
}
// * * * * * * * * * * * * * * * * * * * * * * * * * * * * * * * * * * * * * //

dimensions      [0 0 0 0 0 0 0];


internalField   nonuniform List<scalar> 
1900
(
0.579008
0.0947111
0.100783
0.103976
0.104849
0.105416
0.104136
0.0992947
0.0927356
0.0767586
0.579015
0.0947306
0.100798
0.103963
0.104677
0.104942
0.102891
0.0973379
0.0907811
0.0840036
0.579018
0.0947431
0.100797
0.103935
0.104519
0.104577
0.102108
0.0967792
0.092119
0.0905536
0.579015
0.0947306
0.100798
0.103963
0.104677
0.104942
0.102891
0.0973379
0.0907811
0.0840036
0.579008
0.0947111
0.100783
0.103976
0.104849
0.105416
0.104136
0.0992947
0.0927356
0.0767586
0.079421
0.0958916
0.11049
0.141318
0.261937
0.0918149
0.10724
0.132007
0.188852
0.313983
0.0981833
0.113404
0.144323
0.209076
0.329507
0.0918149
0.10724
0.132007
0.188852
0.313983
0.079421
0.0958916
0.11049
0.141318
0.261937
0.305342
0.233692
0.182381
0.147421
0.163979
0.319738
0.245468
0.186782
0.115938
0.0829973
0.327554
0.250342
0.183864
0.0905682
0.0586824
0.319738
0.245468
0.186782
0.115938
0.0829973
0.305342
0.233692
0.182381
0.147421
0.163979
0.340146
0.210729
0.246432
0.267051
0.324085
0.401331
0.455833
0.473574
0.472795
0.4632
0.445113
0.41808
0.383476
0.342478
0.296509
0.246699
0.194326
0.140597
0.0870867
0.0415609
0.0488023
0.0983005
0.153998
0.210603
0.267024
0.322417
0.375867
0.426395
0.473043
0.515229
0.553086
0.587551
0.619635
0.64945
0.675843
0.697225
0.716341
0.731196
0.770443
1.72855
0.197292
0.457337
0.259738
0.171162
0.311916
0.399683
0.455554
0.473724
0.473079
0.463512
0.445374
0.41819
0.383372
0.342097
0.29578
0.245517
0.192503
0.137723
0.0819989
0.0287473
0.0385454
0.0938831
0.151442
0.208993
0.266012
0.321838
0.375627
0.426431
0.47331
0.51569
0.553708
0.588308
0.620486
0.650418
0.676771
0.698215
0.717274
0.731995
0.770767
1.72914
0.324702
0.545857
0.288583
0.108953
0.31101
0.402431
0.457578
0.475396
0.474555
0.464692
0.446341
0.418927
0.383888
0.342397
0.295861
0.245362
0.192062
0.136865
0.0802988
0.0229772
0.0344948
0.0924384
0.150703
0.208633
0.265924
0.321982
0.375989
0.427014
0.474126
0.516758
0.555053
0.589962
0.622481
0.652814
0.67961
0.701499
0.721123
0.736155
0.774472
1.73336
0.197292
0.457337
0.259738
0.171162
0.311916
0.399683
0.455554
0.473724
0.473079
0.463512
0.445374
0.41819
0.383372
0.342097
0.29578
0.245517
0.192503
0.137723
0.0819989
0.0287473
0.0385454
0.0938831
0.151442
0.208993
0.266012
0.321838
0.375627
0.426431
0.47331
0.51569
0.553708
0.588308
0.620486
0.650418
0.676771
0.698215
0.717274
0.731995
0.770767
1.72914
0.340146
0.210729
0.246432
0.267051
0.324085
0.401331
0.455833
0.473574
0.472795
0.4632
0.445113
0.41808
0.383476
0.342478
0.296509
0.246699
0.194326
0.140597
0.0870867
0.0415609
0.0488023
0.0983005
0.153998
0.210603
0.267024
0.322417
0.375867
0.426395
0.473043
0.515229
0.553086
0.587551
0.619635
0.64945
0.675843
0.697225
0.716341
0.731196
0.770443
1.72855
1.27488
0.46362
0.436914
0.3991
0.381954
0.427309
0.470999
0.484531
0.482361
0.471613
0.452829
0.425592
0.390998
0.350251
0.304815
0.255966
0.205286
0.154724
0.107729
0.0756705
0.0798242
0.116941
0.166952
0.220694
0.275527
0.329981
0.382875
0.433095
0.479609
0.521787
0.559726
0.59429
0.626567
0.656383
0.683312
0.704814
0.724557
0.740063
0.780851
1.73262
1.65026
0.775736
0.641766
0.528938
0.484669
0.479363
0.501234
0.503622
0.49984
0.486873
0.467236
0.440234
0.406466
0.367136
0.323779
0.277981
0.231849
0.188286
0.151712
0.131279
0.13358
0.158188
0.198185
0.245213
0.295575
0.346913
0.397555
0.446097
0.491339
0.532518
0.569674
0.603452
0.63525
0.664024
0.691057
0.71183
0.73179
0.747394
0.79247
1.72994
1.70554
0.858893
0.725961
0.609418
0.557648
0.538972
0.538553
0.532795
0.524232
0.509238
0.488902
0.462282
0.429594
0.392101
0.351357
0.309234
0.268102
0.231134
0.202071
0.187646
0.189128
0.206789
0.238995
0.279334
0.324573
0.372038
0.419769
0.466097
0.509662
0.549577
0.58581
0.618576
0.649986
0.677599
0.704965
0.7253
0.745803
0.761632
0.814168
1.7363
1.69968
0.894021
0.77311
0.671567
0.618033
0.593052
0.579435
0.567889
0.554383
0.537813
0.51687
0.490609
0.459061
0.423509
0.385461
0.346938
0.310322
0.278614
0.254599
0.243766
0.244763
0.258152
0.284859
0.319599
0.359986
0.403487
0.448011
0.491853
0.533484
0.571769
0.60692
0.638344
0.669267
0.69534
0.722844
0.742743
0.763532
0.778882
0.839662
1.73125
1.71003
0.921397
0.811325
0.721905
0.672502
0.642771
0.622291
0.60561
0.58911
0.571012
0.549557
0.523619
0.4932
0.459534
0.423975
0.388669
0.355818
0.328132
0.307574
0.299169
0.299831
0.310308
0.333123
0.363413
0.399606
0.439338
0.48082
0.521974
0.561576
0.598292
0.632168
0.661856
0.692578
0.717323
0.744951
0.764845
0.786127
0.801213
0.871294
1.73502
1.72655
0.944148
0.843459
0.764442
0.720221
0.687819
0.663928
0.644139
0.625995
0.606848
0.585116
0.559694
0.530429
0.498326
0.465061
0.432429
0.402617
0.377969
0.359839
0.353229
0.353633
0.361964
0.381969
0.408797
0.441446
0.477987
0.516333
0.555309
0.592712
0.627292
0.660584
0.687925
0.718073
0.741006
0.768839
0.787891
0.809009
0.82296
0.900529
1.734
1.74072
0.969218
0.875506
0.807672
0.767452
0.732067
0.706336
0.684182
0.66453
0.644273
0.62251
0.597516
0.568811
0.538398
0.506821
0.476462
0.449021
0.426678
0.410281
0.405097
0.405285
0.411932
0.429879
0.45399
0.48382
0.517392
0.553628
0.589485
0.626135
0.658486
0.690578
0.716519
0.746635
0.768778
0.796331
0.816967
0.837982
0.851975
0.933261
1.73855
1.73958
0.987658
0.900026
0.841955
0.80466
0.767311
0.742198
0.719129
0.699727
0.679857
0.658895
0.633937
0.607168
0.577475
0.547666
0.519062
0.493483
0.472881
0.457724
0.453729
0.453728
0.458986
0.475415
0.497413
0.524927
0.556242
0.589717
0.624609
0.657686
0.688941
0.719946
0.742746
0.771659
0.792569
0.818784
0.839167
0.860258
0.872917
0.955153
1.7386
1.74815
1.01075
0.92535
0.877734
0.843374
0.806012
0.78146
0.756567
0.737195
0.716477
0.694784
0.671081
0.643617
0.614985
0.586225
0.558867
0.534732
0.515423
0.501136
0.498166
0.497996
0.502062
0.517371
0.537756
0.563395
0.592957
0.624988
0.657221
0.691407
0.718913
0.750081
0.772081
0.800312
0.820824
0.847497
0.8681
0.891084
0.903418
0.98279
1.74464
1.74938
1.02742
0.944637
0.904758
0.87188
0.83384
0.809607
0.783536
0.765245
0.744301
0.72497
0.701285
0.675714
0.648528
0.62091
0.594996
0.572007
0.553727
0.54004
0.537985
0.537667
0.540662
0.555143
0.574188
0.598376
0.625834
0.656334
0.686212
0.717597
0.743853
0.772555
0.792587
0.81991
0.839417
0.865871
0.886145
0.910799
0.92249
0.999025
1.74477
1.75919
1.04977
0.967476
0.936048
0.90107
0.86597
0.842405
0.815606
0.798087
0.776614
0.757302
0.733477
0.70829
0.680707
0.653495
0.628108
0.605782
0.58822
0.574887
0.57365
0.57321
0.575228
0.589138
0.60721
0.630411
0.657002
0.68641
0.716023
0.746739
0.771225
0.800436
0.819505
0.846555
0.865964
0.893216
0.913413
0.939621
0.951286
1.02457
1.74938
1.76128
1.06736
0.987289
0.960026
0.922446
0.89114
0.866752
0.839367
0.822284
0.799787
0.781203
0.757552
0.733089
0.706805
0.681311
0.657348
0.636303
0.619702
0.606781
0.606382
0.605857
0.606866
0.620141
0.637044
0.658672
0.683436
0.711001
0.73796
0.768183
0.790401
0.819106
0.83721
0.863794
0.882743
0.910786
0.931164
0.958565
0.970154
1.04096
1.74719
1.77039
1.09113
1.0121
0.98727
0.948285
0.921623
0.895046
0.868509
0.851549
0.828474
0.810751
0.787101
0.763123
0.736909
0.711237
0.687178
0.666259
0.649828
0.636881
0.637137
0.636563
0.636776
0.649912
0.666521
0.687884
0.712341
0.74017
0.766023
0.796074
0.81701
0.845173
0.862971
0.889757
0.908804
0.937837
0.95891
0.98728
0.999035
1.06728
1.74924
1.77159
1.11045
1.03421
1.01103
0.972203
0.947607
0.918367
0.893349
0.875895
0.851685
0.834797
0.809794
0.786041
0.759911
0.735026
0.712047
0.692141
0.676814
0.664455
0.665741
0.665128
0.664128
0.676489
0.691805
0.712056
0.734895
0.762055
0.786456
0.816518
0.836911
0.864844
0.882128
0.90897
0.927853
0.957716
0.979268
1.0086
1.02041
1.08576
1.74474
1.7779
1.13541
1.06051
1.03991
1.0024
0.97837
0.946845
0.923883
0.904483
0.879738
0.86164
0.835528
0.813545
0.786503
0.761717
0.73826
0.718051
0.702385
0.689413
0.691041
0.690459
0.689056
0.701943
0.717504
0.738038
0.760941
0.788449
0.812419
0.842043
0.861802
0.890818
0.908952
0.936893
0.956811
0.987836
1.01041
1.04037
1.05198
1.11428
1.74346
1.77781
1.15713
1.08612
1.06656
1.02985
1.00539
0.97198
0.949964
0.92855
0.902559
0.884479
0.857645
0.833684
0.806118
0.781042
0.757544
0.737454
0.722061
0.709155
0.711635
0.711015
0.708505
0.721151
0.736283
0.7567
0.779123
0.807159
0.830565
0.861699
0.881387
0.910237
0.928414
0.956918
0.977357
1.00945
1.03306
1.06389
1.07548
1.13427
1.73618
1.7723
1.17244
1.10722
1.09344
1.05776
1.03175
0.996885
0.975832
0.951201
0.926385
0.906556
0.876427
0.854437
0.825167
0.800879
0.776968
0.756686
0.740901
0.727373
0.73031
0.72983
0.726876
0.740123
0.755573
0.776412
0.798727
0.827065
0.850245
0.881712
0.902414
0.932988
0.95255
0.982155
1.00358
1.03627
1.0608
1.0917
1.09892
1.15018
1.7204
1.72533
1.16633
1.10833
1.10174
1.07055
1.04576
1.01166
0.991013
0.962868
0.939783
0.917303
0.88826
0.866563
0.837647
0.814965
0.791333
0.77168
0.755873
0.741716
0.74456
0.744157
0.741252
0.755179
0.770612
0.791196
0.812439
0.840163
0.861406
0.892422
0.912169
0.942574
0.961948
0.991723
1.01308
1.04577
1.07006
1.0974
1.09954
1.14406
1.66117
1.71241
1.16455
1.13945
1.14306
1.12126
1.10203
1.07326
1.05648
1.03131
1.01299
0.991856
0.966634
0.941248
0.908175
0.875579
0.841692
0.811866
0.788532
0.770468
0.771872
0.771666
0.770106
0.788075
0.811075
0.841798
0.873322
0.909692
0.937969
0.969597
0.989031
1.01614
1.03266
1.05939
1.0776
1.10697
1.1275
1.14762
1.14189
1.15319
1.68801
2.35205
1.69279
1.65583
1.71219
1.728
1.737
1.74003
1.74573
1.74489
1.74752
1.74363
1.74436
1.74124
1.7433
1.74066
1.74138
1.73713
1.73991
1.72729
1.75135
1.7514
1.72723
1.74008
1.73712
1.74185
1.74083
1.74428
1.7418
1.74576
1.74476
1.74937
1.74718
1.74923
1.74432
1.74291
1.73542
1.72004
1.65984
1.68304
2.3542
2.35205
1.69279
1.65583
1.71219
1.728
1.737
1.74003
1.74573
1.74489
1.74752
1.74363
1.74436
1.74124
1.7433
1.74066
1.74138
1.73713
1.73991
1.72729
1.75135
1.7514
1.72723
1.74008
1.73712
1.74185
1.74083
1.74428
1.7418
1.74576
1.74476
1.74937
1.74718
1.74923
1.74432
1.74291
1.73542
1.72004
1.65984
1.68304
2.3542
1.71241
1.16455
1.13945
1.14306
1.12126
1.10203
1.07326
1.05648
1.03131
1.01299
0.991856
0.966634
0.941248
0.908175
0.875579
0.841692
0.811866
0.788532
0.770468
0.771872
0.771666
0.770106
0.788075
0.811075
0.841798
0.873322
0.909692
0.937969
0.969597
0.989031
1.01614
1.03266
1.05939
1.0776
1.10697
1.1275
1.14762
1.14189
1.15319
1.68801
1.72533
1.16633
1.10833
1.10174
1.07055
1.04576
1.01166
0.991013
0.962868
0.939783
0.917303
0.88826
0.866563
0.837647
0.814965
0.791333
0.77168
0.755873
0.741716
0.74456
0.744157
0.741252
0.755179
0.770612
0.791196
0.812439
0.840163
0.861406
0.892422
0.912169
0.942574
0.961948
0.991723
1.01308
1.04577
1.07006
1.0974
1.09954
1.14406
1.66117
1.7723
1.17244
1.10722
1.09344
1.05776
1.03175
0.996885
0.975832
0.951201
0.926385
0.906556
0.876427
0.854437
0.825167
0.800879
0.776968
0.756686
0.740901
0.727373
0.73031
0.72983
0.726876
0.740123
0.755573
0.776412
0.798727
0.827065
0.850245
0.881712
0.902414
0.932988
0.95255
0.982155
1.00358
1.03627
1.0608
1.0917
1.09892
1.15018
1.7204
1.77781
1.15713
1.08612
1.06656
1.02985
1.00539
0.97198
0.949964
0.92855
0.902559
0.884479
0.857645
0.833684
0.806118
0.781042
0.757544
0.737454
0.722061
0.709155
0.711635
0.711015
0.708505
0.721151
0.736283
0.7567
0.779123
0.807159
0.830565
0.861699
0.881387
0.910237
0.928414
0.956918
0.977357
1.00945
1.03306
1.06389
1.07548
1.13427
1.73618
1.7779
1.13541
1.06051
1.03991
1.0024
0.97837
0.946845
0.923883
0.904483
0.879738
0.86164
0.835528
0.813545
0.786503
0.761717
0.73826
0.718051
0.702385
0.689413
0.691041
0.690459
0.689056
0.701943
0.717504
0.738038
0.760941
0.788449
0.812419
0.842043
0.861802
0.890818
0.908952
0.936893
0.956811
0.987836
1.01041
1.04037
1.05198
1.11428
1.74346
1.77159
1.11045
1.03421
1.01103
0.972203
0.947607
0.918367
0.893349
0.875895
0.851685
0.834797
0.809794
0.786041
0.759911
0.735026
0.712047
0.692141
0.676814
0.664455
0.665741
0.665128
0.664128
0.676489
0.691805
0.712056
0.734895
0.762055
0.786456
0.816518
0.836911
0.864844
0.882128
0.90897
0.927853
0.957716
0.979268
1.0086
1.02041
1.08576
1.74474
1.77039
1.09113
1.0121
0.98727
0.948285
0.921623
0.895046
0.868509
0.851549
0.828474
0.810751
0.787101
0.763123
0.736909
0.711237
0.687178
0.666259
0.649828
0.636881
0.637137
0.636563
0.636776
0.649912
0.666521
0.687884
0.712341
0.74017
0.766023
0.796074
0.81701
0.845173
0.862971
0.889757
0.908804
0.937837
0.95891
0.98728
0.999035
1.06728
1.74924
1.76128
1.06736
0.987289
0.960026
0.922446
0.89114
0.866752
0.839367
0.822284
0.799787
0.781203
0.757552
0.733089
0.706805
0.681311
0.657348
0.636303
0.619702
0.606781
0.606382
0.605857
0.606866
0.620141
0.637044
0.658672
0.683436
0.711001
0.73796
0.768183
0.790401
0.819106
0.83721
0.863794
0.882743
0.910786
0.931164
0.958565
0.970154
1.04096
1.74719
1.75919
1.04977
0.967476
0.936048
0.90107
0.86597
0.842405
0.815606
0.798087
0.776614
0.757302
0.733477
0.70829
0.680707
0.653495
0.628108
0.605782
0.58822
0.574887
0.57365
0.57321
0.575228
0.589138
0.60721
0.630411
0.657002
0.68641
0.716023
0.746739
0.771225
0.800436
0.819505
0.846555
0.865964
0.893216
0.913413
0.939621
0.951286
1.02457
1.74938
1.74938
1.02742
0.944637
0.904758
0.87188
0.83384
0.809607
0.783536
0.765245
0.744301
0.72497
0.701285
0.675714
0.648528
0.62091
0.594996
0.572007
0.553727
0.54004
0.537985
0.537667
0.540662
0.555143
0.574188
0.598376
0.625834
0.656334
0.686212
0.717597
0.743853
0.772555
0.792587
0.81991
0.839417
0.865871
0.886145
0.910799
0.92249
0.999025
1.74477
1.74815
1.01075
0.92535
0.877734
0.843374
0.806012
0.78146
0.756567
0.737195
0.716477
0.694784
0.671081
0.643617
0.614985
0.586225
0.558867
0.534732
0.515423
0.501136
0.498166
0.497996
0.502062
0.517371
0.537756
0.563395
0.592957
0.624988
0.657221
0.691407
0.718913
0.750081
0.772081
0.800312
0.820824
0.847497
0.8681
0.891084
0.903418
0.98279
1.74464
1.73958
0.987658
0.900026
0.841955
0.80466
0.767311
0.742198
0.719129
0.699727
0.679857
0.658895
0.633937
0.607168
0.577475
0.547666
0.519062
0.493483
0.472881
0.457724
0.453729
0.453728
0.458986
0.475415
0.497413
0.524927
0.556242
0.589717
0.624609
0.657686
0.688941
0.719946
0.742746
0.771659
0.792569
0.818784
0.839167
0.860258
0.872917
0.955153
1.7386
1.74072
0.969218
0.875506
0.807672
0.767452
0.732067
0.706336
0.684182
0.66453
0.644273
0.62251
0.597516
0.568811
0.538398
0.506821
0.476462
0.449021
0.426678
0.410281
0.405097
0.405285
0.411932
0.429879
0.45399
0.48382
0.517392
0.553628
0.589485
0.626135
0.658486
0.690578
0.716519
0.746635
0.768778
0.796331
0.816967
0.837982
0.851975
0.933261
1.73855
1.72655
0.944148
0.843459
0.764442
0.720221
0.687819
0.663928
0.644139
0.625995
0.606848
0.585116
0.559694
0.530429
0.498326
0.465061
0.432429
0.402617
0.377969
0.359839
0.353229
0.353633
0.361964
0.381969
0.408797
0.441446
0.477987
0.516333
0.555309
0.592712
0.627292
0.660584
0.687925
0.718073
0.741006
0.768839
0.787891
0.809009
0.82296
0.900529
1.734
1.71003
0.921397
0.811325
0.721905
0.672502
0.642771
0.622291
0.60561
0.58911
0.571012
0.549557
0.523619
0.4932
0.459534
0.423975
0.388669
0.355818
0.328132
0.307574
0.299169
0.299831
0.310308
0.333123
0.363413
0.399606
0.439338
0.48082
0.521974
0.561576
0.598292
0.632168
0.661856
0.692578
0.717323
0.744951
0.764845
0.786127
0.801213
0.871294
1.73502
1.69968
0.894021
0.77311
0.671567
0.618033
0.593052
0.579435
0.567889
0.554383
0.537813
0.51687
0.490609
0.459061
0.423509
0.385461
0.346938
0.310322
0.278614
0.254599
0.243766
0.244763
0.258152
0.284859
0.319599
0.359986
0.403487
0.448011
0.491853
0.533484
0.571769
0.60692
0.638344
0.669267
0.69534
0.722844
0.742743
0.763532
0.778882
0.839662
1.73125
1.70554
0.858893
0.725961
0.609418
0.557648
0.538972
0.538553
0.532795
0.524232
0.509238
0.488902
0.462282
0.429594
0.392101
0.351357
0.309234
0.268102
0.231134
0.202071
0.187646
0.189128
0.206789
0.238995
0.279334
0.324573
0.372038
0.419769
0.466097
0.509662
0.549577
0.58581
0.618576
0.649986
0.677599
0.704965
0.7253
0.745803
0.761632
0.814168
1.7363
1.65026
0.775736
0.641766
0.528938
0.484669
0.479363
0.501234
0.503622
0.49984
0.486873
0.467236
0.440234
0.406466
0.367136
0.323779
0.277981
0.231849
0.188286
0.151712
0.131279
0.13358
0.158188
0.198185
0.245213
0.295575
0.346913
0.397555
0.446097
0.491339
0.532518
0.569674
0.603452
0.63525
0.664024
0.691057
0.71183
0.73179
0.747394
0.79247
1.72994
1.27488
0.46362
0.436914
0.3991
0.381954
0.427309
0.470999
0.484531
0.482361
0.471613
0.452829
0.425592
0.390998
0.350251
0.304815
0.255966
0.205286
0.154724
0.107729
0.0756705
0.0798242
0.116941
0.166952
0.220694
0.275527
0.329981
0.382875
0.433095
0.479609
0.521787
0.559726
0.59429
0.626567
0.656383
0.683312
0.704814
0.724557
0.740063
0.780851
1.73262
)
;

boundaryField
{
    inlet
    {
        type            calculated;
        value           uniform 0;
    }
    outlet
    {
        type            calculated;
        value           nonuniform List<scalar> 
165
(
1.27488
1.65026
1.70554
1.69968
1.71003
1.72655
1.74072
1.73958
1.74815
1.74938
1.75919
1.76128
1.77039
1.77159
1.7779
1.77781
1.7723
1.72533
1.71241
2.35205
2.35205
1.69279
1.65583
1.71219
1.728
1.737
1.74003
1.74573
1.74489
1.74752
1.74363
1.74436
1.74124
1.7433
1.74066
1.74138
1.73713
1.73991
1.72729
1.75135
1.7514
1.72723
1.74008
1.73712
1.74185
1.74083
1.74428
1.7418
1.74576
1.74476
1.74937
1.74718
1.74923
1.74432
1.74291
1.73542
1.72004
1.65984
1.68304
2.3542
1.73262
1.72994
1.7363
1.73125
1.73502
1.734
1.73855
1.7386
1.74464
1.74477
1.74938
1.74719
1.74924
1.74474
1.74346
1.73618
1.7204
1.66117
1.68801
2.3542
1.72855
1.72914
1.73336
1.72914
1.72855
2.3542
1.68801
1.66117
1.7204
1.73618
1.74346
1.74474
1.74924
1.74719
1.74938
1.74477
1.74464
1.7386
1.73855
1.734
1.73502
1.73125
1.7363
1.72994
1.73262
2.35205
1.69279
1.65583
1.71219
1.728
1.737
1.74003
1.74573
1.74489
1.74752
1.74363
1.74436
1.74124
1.7433
1.74066
1.74138
1.73713
1.73991
1.72729
1.75135
1.7514
1.72723
1.74008
1.73712
1.74185
1.74083
1.74428
1.7418
1.74576
1.74476
1.74937
1.74718
1.74923
1.74432
1.74291
1.73542
1.72004
1.65984
1.68304
2.3542
2.35205
1.71241
1.72533
1.7723
1.77781
1.7779
1.77159
1.77039
1.76128
1.75919
1.74938
1.74815
1.73958
1.74072
1.72655
1.71003
1.69968
1.70554
1.65026
1.27488
)
;
    }
    obstacle
    {
        type            calculated;
        value           nonuniform List<scalar> 
40
(
0.579008
0.0947111
0.100783
0.103976
0.104849
0.105415
0.104135
0.0992941
0.0926223
0.075214
0.579008
0.0947111
0.100783
0.103976
0.104849
0.105415
0.104135
0.0992941
0.0926223
0.075214
0.0791499
0.0955548
0.110456
0.141281
0.247105
0.0791499
0.0955548
0.110456
0.141281
0.247105
0.304825
0.233606
0.182378
0.145877
0.157601
0.304825
0.233606
0.182378
0.145877
0.157601
)
;
    }
    empty
    {
        type            empty;
    }
}


// ************************************************************************* //
