/*--------------------------------*- C++ -*----------------------------------*\
| =========                 |                                                 |
| \\      /  F ield         | OpenFOAM: The Open Source CFD Toolbox           |
|  \\    /   O peration     | Version:  v1912                                 |
|   \\  /    A nd           | Website:  www.openfoam.com                      |
|    \\/     M anipulation  |                                                 |
\*---------------------------------------------------------------------------*/
FoamFile
{
    version     2.0;
    format      ascii;
    class       volTensorField;
    location    "0.86";
    object      grad(U);
}
// * * * * * * * * * * * * * * * * * * * * * * * * * * * * * * * * * * * * * //

dimensions      [0 0 -1 0 0 0 0];


internalField   nonuniform List<tensor> 
1900
(
(1.69743e-09 1.51199e-11 0 6.68009e-13 1.28463e-13 0 0 0 0)
(7.64896e-08 6.04952e-10 0 1.76571e-10 7.03745e-11 0 0 0 0)
(6.07745e-07 4.14707e-09 0 3.56279e-09 2.41524e-09 0 0 0 0)
(1.365e-06 7.22675e-09 0 5.19119e-09 1.24325e-08 0 0 0 0)
(1.11624e-06 1.95903e-09 0 -1.66139e-08 1.0731e-08 0 0 0 0)
(-1.80686e-05 -2.60571e-07 0 -2.88394e-08 -1.41316e-08 0 0 0 0)
(-0.00112062 -2.73252e-05 0 -1.89081e-06 -1.44428e-06 0 0 0 0)
(-0.0146721 -0.000663498 0 -0.000156333 -0.000122639 0 0 0 0)
(-0.0619047 -0.00637265 0 -0.00305169 -0.00247067 0 0 0 0)
(-0.135653 -0.0313927 0 -0.0210128 -0.0183481 0 0 0 0)
(1.87467e-09 5.53831e-11 0 1.32888e-12 -1.29591e-14 0 0 0 0)
(8.00517e-08 1.81016e-09 0 3.22952e-10 -1.51072e-11 0 0 0 0)
(6.12759e-07 8.21502e-09 0 6.18631e-09 -6.0503e-10 0 0 0 0)
(1.34482e-06 1.08901e-09 0 7.99689e-09 -4.16222e-09 0 0 0 0)
(1.08221e-06 -2.85231e-08 0 -3.03758e-08 -7.83184e-09 0 0 0 0)
(-1.99428e-05 -1.19444e-06 0 -5.71991e-08 -6.12122e-09 0 0 0 0)
(-0.00127692 -9.53e-05 0 -5.16093e-06 2.5274e-07 0 0 0 0)
(-0.0177219 -0.00180573 0 -0.00034681 2.73191e-05 0 0 0 0)
(-0.0827612 -0.0118528 0 -0.00524234 0.00066375 0 0 0 0)
(-0.182373 -0.0391065 0 -0.0286408 0.00639997 0 0 0 0)
(2.02172e-09 -3.03248e-16 0 -2.11969e-14 -2.74301e-13 0 0 0 0)
(8.26745e-08 -6.53418e-14 0 6.64574e-15 -1.10545e-10 0 0 0 0)
(6.15419e-07 -4.2076e-14 0 -1.63006e-13 -3.62093e-09 0 0 0 0)
(1.32844e-06 -5.38831e-14 0 6.69568e-14 -1.65407e-08 0 0 0 0)
(1.05104e-06 2.85758e-14 0 3.06987e-14 -5.79888e-09 0 0 0 0)
(-2.31992e-05 2.06441e-13 0 1.28583e-13 4.05057e-08 0 0 0 0)
(-0.00146737 -9.00917e-14 0 1.5911e-13 2.38308e-06 0 0 0 0)
(-0.0199093 -9.81978e-14 0 -1.92042e-13 0.000190641 0 0 0 0)
(-0.0901987 9.4589e-14 0 1.09005e-13 0.00361385 0 0 0 0)
(-0.193201 -2.30352e-14 0 -2.96123e-14 0.0238963 0 0 0 0)
(1.87466e-09 -5.54364e-11 0 -1.43544e-12 -3.82632e-14 0 0 0 0)
(8.00515e-08 -1.8105e-09 0 -3.22879e-10 -1.51035e-11 0 0 0 0)
(6.12759e-07 -8.2151e-09 0 -6.18679e-09 -6.05118e-10 0 0 0 0)
(1.34482e-06 -1.08894e-09 0 -7.9967e-09 -4.16217e-09 0 0 0 0)
(1.08221e-06 2.85232e-08 0 3.03759e-08 -7.83179e-09 0 0 0 0)
(-1.99428e-05 1.19444e-06 0 5.71993e-08 -6.12123e-09 0 0 0 0)
(-0.00127692 9.53e-05 0 5.16093e-06 2.52739e-07 0 0 0 0)
(-0.0177219 0.00180573 0 0.00034681 2.73191e-05 0 0 0 0)
(-0.0827612 0.0118528 0 0.00524234 0.00066375 0 0 0 0)
(-0.182373 0.0391065 0 0.0286408 0.00639997 0 0 0 0)
(1.6974e-09 -1.51421e-11 0 -7.53367e-13 1.97061e-13 0 0 0 0)
(7.64892e-08 -6.05145e-10 0 -1.76504e-10 7.03814e-11 0 0 0 0)
(6.07745e-07 -4.14711e-09 0 -3.56311e-09 2.41584e-09 0 0 0 0)
(1.365e-06 -7.22673e-09 0 -5.19107e-09 1.24326e-08 0 0 0 0)
(1.11624e-06 -1.95903e-09 0 1.6614e-08 1.07315e-08 0 0 0 0)
(-1.80686e-05 2.60571e-07 0 2.88394e-08 -1.41316e-08 0 0 0 0)
(-0.00112062 2.73252e-05 0 1.89081e-06 -1.44428e-06 0 0 0 0)
(-0.0146721 0.000663498 0 0.000156333 -0.000122639 0 0 0 0)
(-0.0619047 0.00637265 0 0.00305169 -0.00247067 0 0 0 0)
(-0.135653 0.0313927 0 0.0210128 -0.0183481 0 0 0 0)
(-0.160103 -0.135599 1.1128e-17 -0.109158 0.0834973 -1.6692e-17 -1.05235e-17 -2.11346e-17 3.01625e-33)
(-0.191498 -0.24563 0 -0.163643 0.158354 0 5.6408e-17 1.34412e-17 0)
(-0.163617 -0.38984 0 -0.212707 0.245552 0 9.81497e-17 3.04354e-17 0)
(-0.385412 -0.350327 0 -0.324775 0.311542 0 0 0 0)
(-0.0644516 -0.612399 -1.31877e-16 -1.03357 1.34935 1.97816e-16 7.08703e-16 4.72468e-16 3.57453e-32)
(-0.235212 -0.0624631 0 -0.0605033 0.029024 0 -3.02484e-17 -6.04664e-18 0)
(-0.261295 -0.100174 0 -0.074243 0.0774303 0 -5.6408e-17 -1.34412e-17 0)
(-0.323903 -0.174719 0 -0.100153 0.188756 0 -9.81497e-17 -3.04354e-17 0)
(-0.527331 -0.198639 0 -0.275386 0.464082 0 0 0 0)
(-0.457641 -0.00702132 0 -0.352601 0.759968 0 0 0 0)
(-0.25398 -5.33299e-14 0 1.73089e-14 0.075801 0 0 0 0)
(-0.28784 1.92113e-13 0 2.55596e-14 0.142675 0 0 0 0)
(-0.37826 7.53065e-14 0 1.0202e-13 0.296208 0 0 0 0)
(-0.609398 -1.27095e-13 0 -2.05341e-15 0.630707 0 0 0 0)
(-0.551541 9.00155e-14 0 -5.64689e-14 1.01067 0 0 0 0)
(-0.235212 0.0624631 0 0.0605033 0.029024 0 -3.02484e-17 6.04664e-18 0)
(-0.261295 0.100174 0 0.074243 0.0774303 0 -5.6408e-17 1.34412e-17 0)
(-0.323903 0.174719 0 0.100153 0.188756 0 -9.81497e-17 3.04354e-17 0)
(-0.527331 0.198639 0 0.275386 0.464082 0 0 0 0)
(-0.457641 0.00702132 0 0.352601 0.759968 0 0 0 0)
(-0.160103 0.135599 -1.1128e-17 0.109158 0.0834973 -1.6692e-17 7.10203e-17 -3.32279e-17 3.01625e-33)
(-0.191498 0.24563 0 0.163643 0.158354 0 5.6408e-17 -1.34412e-17 0)
(-0.163617 0.38984 0 0.212707 0.245552 0 9.81497e-17 -3.04354e-17 0)
(-0.385412 0.350327 -1.96137e-17 0.324775 0.311542 -2.94205e-17 2.9571e-16 -1.9714e-16 5.3163e-33)
(-0.0644516 0.612399 1.31877e-16 1.03357 1.34935 1.97816e-16 -7.08703e-16 4.72468e-16 3.57453e-32)
(-0.0070178 0.246659 1.87094e-18 -0.140643 -0.550834 1.68384e-17 -4.37524e-16 3.15538e-17 -5.07119e-34)
(0.272649 0.00948724 -6.06044e-19 -0.142136 -0.243835 -5.45439e-18 3.0256e-16 -2.57987e-17 -1.64268e-34)
(0.120483 0.0912054 0 0.0261818 -0.0795053 0 0 0 0)
(-0.3489 0.33641 -1.42293e-18 0.398226 0.374068 -1.28064e-17 -1.80426e-16 3.26456e-17 3.85686e-34)
(-1.057 0.234354 3.82934e-18 1.78415 1.33591 3.44641e-17 1.41349e-16 -1.57055e-17 1.03795e-33)
(0.0612793 0.202427 0 -0.155777 -0.120085 0 2.2088e-16 -7.48225e-18 0)
(0.305471 0.00513154 0 -0.170878 -0.18456 0 -1.53421e-16 9.22757e-18 0)
(0.292482 0.0892434 0 0.0487253 -0.191496 0 0 0 0)
(0.358487 0.387028 0 0.576883 -0.390087 0 1.00927e-16 -2.45075e-17 0)
(0.827167 0.213007 0 2.56013 -0.832918 0 -2.62844e-18 7.71345e-18 0)
(0.0659281 2.91702e-15 0 -8.07676e-14 -0.256713 0 0 0 0)
(0.339097 -4.88752e-14 0 -1.42475e-13 -0.243667 0 0 0 0)
(0.393072 1.11558e-13 0 6.57549e-14 -0.259102 0 0 0 0)
(0.723077 1.59133e-13 0 3.91075e-13 -0.677862 0 -3.34212e-17 1.04158e-29 0)
(1.2641 1.67499e-13 0 8.08842e-13 -2.04895 0 5.25688e-18 -1.15982e-29 0)
(0.0612793 -0.202427 0 0.155777 -0.120085 0 2.2088e-16 7.48225e-18 0)
(0.305471 -0.00513154 0 0.170878 -0.18456 0 -1.53421e-16 -9.22757e-18 0)
(0.292482 -0.0892434 0 -0.0487253 -0.191496 0 0 0 0)
(0.358487 -0.387028 0 -0.576883 -0.390087 0 1.00927e-16 2.45075e-17 0)
(0.827167 -0.213007 0 -2.56013 -0.832918 0 -2.62844e-18 -7.71345e-18 0)
(-0.0070178 -0.246659 0 0.140643 -0.550834 0 -2.2088e-16 -7.48225e-18 0)
(0.272649 -0.00948724 6.06044e-19 0.142136 -0.243835 -5.45439e-18 4.28067e-18 -7.34352e-18 -1.64268e-34)
(0.120483 -0.0912054 0 -0.0261818 -0.0795053 0 0 0 0)
(-0.3489 -0.33641 1.42293e-18 -0.398226 0.374068 -1.28064e-17 1.19933e-17 -1.12657e-17 3.85686e-34)
(-1.057 -0.234354 -3.82934e-18 -1.78415 1.33591 3.44641e-17 -1.41349e-16 -1.57055e-17 1.03795e-33)
(-0.0135104 -0.732679 0 8.87755 -0.00639642 0 0 0 0)
(0.574597 -0.548399 0 3.79607 0.554293 0 0 0 0)
(-0.286952 0.341334 0 1.47296 0.573822 0 0 0 0)
(0.0360661 0.350758 0 0.403763 0.314766 0 0 0 0)
(0.317797 0.134778 0 0.0299358 0.124793 0 0 0 0)
(0.413398 0.0463038 0 -0.0047631 0.048753 0 0 0 0)
(0.373105 0.00794399 0 0.00192932 0.0174969 0 0 0 0)
(0.243813 0.00267538 0 0.00320094 0.00421827 0 0 0 0)
(0.0969827 0.000707015 0 0.000739792 0.000532167 0 0 0 0)
(0.0184839 7.52029e-05 0 3.47655e-05 2.05846e-05 0 0 0 0)
(0.00116769 6.65237e-07 0 9.00708e-08 1.64291e-07 0 0 0 0)
(1.59212e-05 -2.48054e-08 0 -9.82227e-10 1.65285e-10 0 0 0 0)
(3.16655e-08 -1.31535e-10 0 -6.31376e-13 3.25004e-14 0 0 0 0)
(6.57379e-12 -9.37502e-14 0 -1.14068e-15 1.43102e-15 0 0 0 0)
(1.48437e-15 1.25834e-16 0 -1.75676e-18 1.03595e-15 0 0 0 0)
(-7.7266e-17 -3.38912e-16 0 5.70842e-16 2.28689e-15 0 0 0 0)
(-8.58572e-16 1.04022e-16 0 4.20063e-16 1.45122e-15 0 0 0 0)
(-4.2711e-16 9.15229e-16 0 -3.02745e-16 2.52948e-15 0 0 0 0)
(3.3934e-16 1.97978e-16 0 -1.32952e-15 6.02567e-15 0 0 0 0)
(6.22332e-16 -4.63068e-16 0 8.98576e-17 4.11627e-15 0 0 0 0)
(1.15363e-16 -3.16262e-16 0 4.93262e-16 1.9388e-15 0 0 0 0)
(-1.231e-16 2.33212e-16 0 1.26408e-15 4.9921e-15 0 0 0 0)
(-1.03524e-15 2.50157e-15 0 2.5505e-16 3.8416e-15 0 0 0 0)
(-2.7586e-16 -4.50484e-16 0 -2.23628e-15 6.96619e-15 0 0 0 0)
(1.34857e-15 -2.00579e-15 0 -1.69548e-15 5.3297e-15 0 0 0 0)
(1.52737e-15 8.92692e-30 0 3.74492e-16 -6.75661e-16 0 0 0 0)
(8.0548e-12 -2.16937e-15 0 8.17116e-16 -5.52381e-15 0 0 0 0)
(3.85811e-08 1.77167e-13 0 -9.55557e-15 3.22245e-14 0 0 0 0)
(1.93219e-05 -8.6662e-14 0 3.26052e-13 4.18654e-13 0 0 0 0)
(0.00140812 -2.56826e-14 0 -5.88206e-13 -5.11837e-14 0 0 0 0)
(0.0221244 -2.52069e-13 0 2.7606e-13 7.52847e-15 0 0 0 0)
(0.115764 1.30151e-13 0 -5.0976e-13 -2.84996e-13 0 0 0 0)
(0.294353 5.59111e-14 0 4.20375e-13 -6.08792e-13 0 0 0 0)
(0.472229 -2.04577e-14 0 -1.57209e-13 5.99254e-13 0 0 0 0)
(0.58153 1.66631e-13 0 4.92819e-15 -1.281e-13 0 0 0 0)
(0.624271 -9.50771e-14 0 5.22388e-14 6.46396e-14 0 0 0 0)
(0.601381 2.02503e-13 0 9.85638e-15 -6.74156e-14 0 0 0 0)
(0.607883 -5.99654e-14 0 1.37989e-14 -3.01723e-13 0 0 0 0)
(2.67937 -4.99585e-14 0 5.12532e-14 -3.27771e-13 0 0 0 0)
(2.35723 -7.19713e-14 0 3.31174e-13 -1.42888e-13 0 0 0 0)
(0.476011 -0.641722 0 6.72691 -0.510765 0 0 0 0)
(-0.662841 -0.484484 0 3.4145 1.66638 0 0 0 0)
(-0.933368 0.264704 0 1.32311 1.37436 0 0 0 0)
(-0.244051 0.23106 0 0.326872 0.493039 0 0 0 0)
(0.241713 0.0781807 0 -0.0131096 0.168624 0 0 0 0)
(0.414839 0.0257806 0 -0.024398 0.0297401 0 0 0 0)
(0.378129 0.00323539 0 -0.00438897 0.00945506 0 0 0 0)
(0.244689 0.000773907 0 0.00119429 0.00243265 0 0 0 0)
(0.0967076 0.000247325 0 0.000298411 0.000258425 0 0 0 0)
(0.0184152 2.44273e-05 0 7.74534e-06 2.2863e-06 0 0 0 0)
(0.00116583 -5.43155e-08 0 -1.47268e-07 -8.52688e-08 0 0 0 0)
(1.59491e-05 -2.38534e-08 0 -9.82342e-10 -4.52111e-10 0 0 0 0)
(3.18677e-08 -9.85808e-11 0 -4.91803e-13 -5.28487e-13 0 0 0 0)
(6.69637e-12 -5.88876e-14 0 -1.19125e-15 6.34411e-15 0 0 0 0)
(1.52007e-15 -5.87223e-17 0 -3.64694e-16 -1.2371e-15 0 0 0 0)
(8.12786e-17 8.3889e-19 0 3.22706e-16 1.67831e-15 0 0 0 0)
(-7.9134e-16 1.51e-16 0 3.84083e-16 7.52642e-16 0 0 0 0)
(-7.49863e-16 1.46135e-15 0 7.44711e-16 1.83114e-15 0 0 0 0)
(2.96177e-16 5.38568e-16 0 4.46153e-16 2.51457e-15 0 0 0 0)
(8.75842e-16 -1.06371e-15 0 -1.13087e-15 4.26785e-15 0 0 0 0)
(4.03452e-16 4.16929e-16 0 2.35688e-16 2.12239e-15 0 0 0 0)
(-1.35308e-16 9.61368e-16 0 9.88142e-16 8.61645e-15 0 0 0 0)
(-1.69415e-15 1.70966e-15 0 -2.6698e-16 5.57705e-15 0 0 0 0)
(-7.15351e-16 -4.53001e-17 0 -5.10403e-16 -1.61486e-16 0 0 0 0)
(1.73833e-15 -3.15255e-15 0 -2.37366e-15 7.33898e-15 0 0 0 0)
(1.83982e-15 -2.6316e-15 0 -2.55704e-15 3.25856e-15 0 0 0 0)
(8.04837e-12 1.00256e-14 0 1.00998e-15 -3.25568e-15 0 0 0 0)
(3.85812e-08 2.52171e-13 0 7.16574e-15 1.69835e-13 0 0 0 0)
(1.93219e-05 -1.2502e-13 0 4.82225e-13 6.79252e-14 0 0 0 0)
(0.00140812 -1.47883e-13 0 -7.34698e-13 -9.27715e-14 0 0 0 0)
(0.0221244 -2.61496e-13 0 3.10445e-13 -4.52259e-13 0 0 0 0)
(0.115764 1.28457e-13 0 -4.81053e-13 1.62273e-14 0 0 0 0)
(0.294353 2.05514e-13 0 5.6859e-13 -3.23747e-13 0 0 0 0)
(0.472229 -1.44569e-14 0 -3.74543e-14 6.72191e-13 0 0 0 0)
(0.58153 6.92659e-14 0 -5.86455e-14 -5.71281e-13 0 0 0 0)
(0.624271 -1.01551e-13 0 1.01521e-13 2.73743e-13 0 0 0 0)
(0.601381 1.29701e-13 0 3.74543e-14 -3.12563e-13 0 0 0 0)
(0.607883 -1.46711e-13 0 -4.33681e-14 -3.67568e-13 0 0 0 0)
(2.67937 -7.80461e-14 0 -1.02506e-13 -4.65461e-13 0 0 0 0)
(2.35723 -1.91236e-14 0 1.49817e-13 -6.00556e-13 0 0 0 0)
(0.543689 4.69895e-14 0 1.29907e-12 -1.55956 0 0 0 0)
(-0.997417 -2.1977e-13 0 9.12701e-13 2.38128 0 0 0 0)
(-1.18517 -1.35567e-13 0 8.09702e-13 1.77127 0 0 0 0)
(-0.352651 1.32207e-13 0 7.11631e-13 0.561436 0 0 0 0)
(0.215609 1.97955e-13 0 3.38074e-13 0.18273 0 0 0 0)
(0.415935 5.7067e-14 0 9.36356e-14 0.0239433 0 0 0 0)
(0.38055 -3.36859e-13 0 -3.20825e-13 0.00548838 0 0 0 0)
(0.245176 -1.13774e-13 0 -3.51134e-14 0.00169998 0 0 0 0)
(0.0966376 2.82657e-13 0 7.35841e-14 0.000167774 0 0 0 0)
(0.018397 -9.22933e-14 0 -9.08943e-14 -3.74096e-07 0 0 0 0)
(0.00116544 -1.20739e-13 0 -2.97459e-14 -1.63993e-07 0 0 0 0)
(1.59641e-05 -5.05565e-14 0 -2.17699e-13 -6.77646e-10 0 0 0 0)
(3.19513e-08 -9.76552e-15 0 1.66262e-13 -5.50176e-13 0 0 0 0)
(6.71676e-12 5.96317e-14 0 -3.41382e-16 6.8574e-15 0 0 0 0)
(1.92479e-15 -1.23149e-15 0 6.29164e-17 1.19673e-15 0 0 0 0)
(1.4056e-16 2.39923e-16 0 -6.21413e-16 7.78595e-17 0 0 0 0)
(-7.35807e-16 1.48484e-16 0 -3.8755e-16 0 0 0 0 0)
(-4.09053e-16 1.42779e-15 0 4.94581e-16 -4.41204e-16 0 0 0 0)
(-2.06283e-16 9.06841e-16 0 2.24122e-15 -3.34508e-15 0 0 0 0)
(5.61106e-16 -5.77157e-16 0 -8.76367e-16 -9.86221e-16 0 0 0 0)
(7.31802e-16 9.48785e-16 0 -1.13672e-16 -2.88369e-16 0 0 0 0)
(-2.6933e-16 1.2382e-15 0 5.36682e-16 -1.81095e-15 0 0 0 0)
(-1.47118e-15 -5.20112e-17 0 -2.8573e-16 -4.07176e-15 0 0 0 0)
(-8.88712e-16 6.20779e-17 0 5.83339e-16 -7.73405e-15 0 0 0 0)
(7.53184e-16 -1.01086e-15 0 -2.7495e-16 2.10509e-16 0 0 0 0)
(2.5117e-15 -3.08208e-15 0 -2.22659e-15 7.31303e-15 0 0 0 0)
(8.05763e-12 4.62891e-14 0 -9.08406e-16 3.28452e-15 0 0 0 0)
(3.85812e-08 1.97874e-13 0 1.31418e-13 3.64988e-14 0 0 0 0)
(1.93219e-05 -1.63057e-13 0 2.71736e-13 -6.23127e-13 0 0 0 0)
(0.00140812 -1.77009e-13 0 -4.7286e-13 4.39554e-13 0 0 0 0)
(0.0221244 -2.2036e-13 0 1.16929e-14 -7.62321e-13 0 0 0 0)
(0.115764 1.67536e-13 0 -1.8493e-13 8.48271e-14 0 0 0 0)
(0.294353 2.46737e-13 0 5.53066e-13 -3.22567e-13 0 0 0 0)
(0.472229 -9.24676e-14 0 -2.61441e-13 3.69753e-13 0 0 0 0)
(0.58153 5.07191e-14 0 -4.92819e-14 -6.41021e-13 0 0 0 0)
(0.624271 -1.98137e-14 0 2.02056e-13 4.06993e-13 0 0 0 0)
(0.601381 1.59401e-14 0 -4.43537e-14 -2.44683e-13 0 0 0 0)
(0.607883 -1.04445e-13 0 -7.68798e-14 -3.03681e-13 0 0 0 0)
(2.67937 -1.17737e-13 0 -1.28133e-13 3.75894e-15 0 0 0 0)
(2.35723 -1.11272e-13 0 -4.21853e-13 -7.24405e-14 0 0 0 0)
(0.476011 0.641722 0 -6.72691 -0.510765 0 0 0 0)
(-0.662841 0.484484 0 -3.4145 1.66638 0 0 0 0)
(-0.933368 -0.264704 0 -1.32311 1.37436 0 0 0 0)
(-0.244051 -0.23106 0 -0.326872 0.493039 0 0 0 0)
(0.241713 -0.0781807 0 0.0131096 0.168624 0 0 0 0)
(0.414839 -0.0257806 0 0.024398 0.0297401 0 0 0 0)
(0.378129 -0.00323539 0 0.00438897 0.00945506 0 0 0 0)
(0.244689 -0.000773907 0 -0.00119429 0.00243265 0 0 0 0)
(0.0967076 -0.000247325 0 -0.000298411 0.000258425 0 0 0 0)
(0.0184152 -2.44273e-05 0 -7.74534e-06 2.2863e-06 0 0 0 0)
(0.00116583 5.43153e-08 0 1.47268e-07 -8.52688e-08 0 0 0 0)
(1.59491e-05 2.38534e-08 0 9.82139e-10 -4.52014e-10 0 0 0 0)
(3.18678e-08 9.85547e-11 0 5.51495e-13 9.31978e-14 0 0 0 0)
(6.64802e-12 1.01512e-13 0 1.87743e-15 -1.91188e-15 0 0 0 0)
(1.43861e-15 -2.03095e-15 0 2.51471e-17 3.58442e-15 0 0 0 0)
(-4.97661e-17 -3.47301e-16 0 -2.21578e-15 0 0 0 0 0)
(-4.66687e-16 0 0 -1.08357e-15 0 0 0 0 0)
(1.48701e-17 4.88234e-16 0 8.56937e-17 -5.10412e-16 0 0 0 0)
(-1.02645e-16 3.80017e-16 0 1.1849e-15 -5.85965e-15 0 0 0 0)
(1.90782e-16 -1.74489e-16 0 7.10046e-16 -4.60525e-15 0 0 0 0)
(8.14521e-16 1.77006e-16 0 -7.87175e-16 -2.92406e-15 0 0 0 0)
(-1.85361e-16 -1.39256e-16 0 -1.14809e-15 -7.67349e-15 0 0 0 0)
(-1.68058e-15 -1.34222e-17 0 1.13547e-16 -1.2521e-14 0 0 0 0)
(-7.12215e-16 1.20045e-15 0 1.73232e-15 -8.11758e-15 0 0 0 0)
(9.20897e-16 1.22478e-15 0 2.12082e-15 -6.05574e-15 0 0 0 0)
(1.65555e-15 -1.73734e-15 0 4.08543e-16 8.93943e-16 0 0 0 0)
(8.08725e-12 1.8516e-14 0 -3.78219e-15 3.20089e-15 0 0 0 0)
(3.85812e-08 6.99425e-14 0 6.24937e-14 -2.81084e-13 0 0 0 0)
(1.93219e-05 -7.76806e-15 0 1.29074e-13 -6.89201e-13 0 0 0 0)
(0.00140812 -1.88376e-13 0 9.0126e-14 7.78905e-13 0 0 0 0)
(0.0221244 -3.64689e-13 0 -4.94471e-13 -7.99567e-13 0 0 0 0)
(0.115764 2.56385e-13 0 -1.28595e-13 3.36732e-14 0 0 0 0)
(0.294353 2.88401e-13 0 4.74462e-13 -4.93503e-13 0 0 0 0)
(0.472229 -1.07098e-13 0 -3.58526e-13 4.86119e-13 0 0 0 0)
(0.58153 8.00994e-14 0 4.43537e-14 -2.43627e-13 0 0 0 0)
(0.624271 1.37477e-14 0 3.0949e-13 2.53935e-13 0 0 0 0)
(0.601381 -7.70403e-14 0 -1.07435e-13 -4.88776e-13 0 0 0 0)
(0.607883 -7.44368e-14 0 -1.55731e-13 -1.97931e-13 0 0 0 0)
(2.67937 -1.07761e-14 0 -1.55731e-13 -2.85626e-13 0 0 0 0)
(2.35723 -4.12908e-14 0 -4.41566e-13 2.61763e-13 0 0 0 0)
(-0.0135104 0.732679 0 -8.87755 -0.00639642 0 0 0 0)
(0.574597 0.548399 0 -3.79607 0.554293 0 0 0 0)
(-0.286952 -0.341334 0 -1.47296 0.573822 0 0 0 0)
(0.0360661 -0.350758 0 -0.403763 0.314766 0 0 0 0)
(0.317797 -0.134778 0 -0.0299358 0.124793 0 0 0 0)
(0.413398 -0.0463038 0 0.0047631 0.048753 0 0 0 0)
(0.373105 -0.00794399 0 -0.00192932 0.0174969 0 0 0 0)
(0.243813 -0.00267538 0 -0.00320094 0.00421827 0 0 0 0)
(0.0969827 -0.000707015 0 -0.000739792 0.000532167 0 0 0 0)
(0.0184839 -7.52029e-05 0 -3.47655e-05 2.05846e-05 0 0 0 0)
(0.00116769 -6.65237e-07 0 -9.00707e-08 1.64291e-07 0 0 0 0)
(1.59212e-05 2.48054e-08 0 9.82262e-10 1.65288e-10 0 0 0 0)
(3.16656e-08 1.31485e-10 0 4.937e-13 3.37841e-13 0 0 0 0)
(6.55633e-12 3.35623e-14 0 1.80569e-15 -6.27236e-15 0 0 0 0)
(7.34037e-16 -6.75307e-16 0 -1.8907e-16 1.03087e-15 0 0 0 0)
(-1.81975e-16 -8.02818e-16 0 -1.46991e-15 4.91745e-16 0 0 0 0)
(-6.62873e-17 0 0 -5.40956e-16 0 0 0 0 0)
(2.50864e-16 -2.76834e-16 0 1.25971e-16 -3.22985e-18 0 0 0 0)
(-2.46532e-17 -2.84384e-16 0 -7.5305e-17 -2.52732e-15 0 0 0 0)
(-1.25884e-17 2.76834e-16 0 5.54159e-16 -1.68315e-15 0 0 0 0)
(1.91254e-16 5.62057e-17 0 -6.32163e-16 -1.0785e-15 0 0 0 0)
(-7.30196e-18 -1.55363e-15 0 -1.88615e-15 -2.79764e-15 0 0 0 0)
(-6.3324e-16 -1.812e-16 0 -5.41994e-17 -4.78138e-15 0 0 0 0)
(-3.04777e-16 1.94287e-15 0 2.41106e-15 -3.76781e-15 0 0 0 0)
(3.68086e-16 1.61067e-15 0 1.9708e-15 -4.24868e-15 0 0 0 0)
(7.94463e-16 -3.89245e-16 0 8.32964e-17 -3.30127e-15 0 0 0 0)
(8.07569e-12 -3.57409e-14 0 -2.19056e-15 7.88324e-16 0 0 0 0)
(3.85813e-08 -3.55186e-15 0 -6.66566e-14 -1.34785e-13 0 0 0 0)
(1.93219e-05 1.45304e-13 0 1.06296e-13 -3.55475e-13 0 0 0 0)
(0.00140812 -2.09115e-13 0 3.73454e-13 5.53713e-13 0 0 0 0)
(0.0221244 -4.37155e-13 0 -6.25622e-13 -1.79704e-13 0 0 0 0)
(0.115764 2.56573e-13 0 -7.7927e-14 1.37768e-13 0 0 0 0)
(0.294353 3.78357e-13 0 3.42386e-13 -3.9178e-13 0 0 0 0)
(0.472229 -1.97765e-14 0 -2.40742e-13 7.35297e-13 0 0 0 0)
(0.58153 -1.68252e-14 0 8.92003e-14 -3.99961e-14 0 0 0 0)
(0.624271 -9.11298e-14 0 1.39961e-13 1.70914e-13 0 0 0 0)
(0.601381 -1.15512e-13 0 -1.37989e-14 -4.05176e-13 0 0 0 0)
(0.607883 -4.53467e-14 0 -7.68798e-14 -8.39418e-14 0 0 0 0)
(2.67937 1.59923e-14 0 -9.65926e-14 -1.2657e-13 0 0 0 0)
(2.35723 4.7969e-14 0 -1.41932e-13 1.11684e-13 0 0 0 0)
(2.25203 0.855384 0 -4.27571 0.0783173 0 0 0 0)
(2.55107 0.774537 0 -1.73428 -0.0853086 0 0 0 0)
(0.447112 -0.32635 0 -0.793483 -0.0254567 0 0 0 0)
(0.337235 -0.374322 0 -0.291253 0.0917216 0 0 0 0)
(0.409998 -0.179603 0 -0.103744 0.0616697 0 0 0 0)
(0.434072 -0.0693547 0 -0.0448391 0.0451275 0 0 0 0)
(0.378942 -0.0257265 0 -0.0187136 0.0167574 0 0 0 0)
(0.246448 -0.00921686 0 -0.00685981 0.00425297 0 0 0 0)
(0.0983756 -0.0023489 0 -0.00133781 0.000608319 0 0 0 0)
(0.0187998 -0.000299429 0 -7.97293e-05 3.31823e-05 0 0 0 0)
(0.00118549 -1.20258e-05 0 -8.38909e-07 3.87784e-07 0 0 0 0)
(1.60378e-05 -8.03026e-08 0 -8.54435e-10 7.19433e-10 0 0 0 0)
(3.14854e-08 -4.32051e-11 0 -5.42394e-14 1.53463e-13 0 0 0 0)
(6.44424e-12 -3.11941e-14 0 5.78852e-16 -1.11983e-15 0 0 0 0)
(1.98569e-16 6.44521e-16 0 1.63566e-16 -5.24983e-16 0 0 0 0)
(-1.17629e-16 -4.67246e-16 0 -4.77856e-16 1.13089e-15 0 0 0 0)
(7.1406e-17 -3.10484e-16 0 1.78412e-16 3.87114e-16 0 0 0 0)
(3.40921e-17 -2.12477e-16 0 -4.43164e-16 -1.1274e-18 0 0 0 0)
(7.5768e-17 9.44622e-17 0 -2.11768e-16 5.4569e-16 0 0 0 0)
(7.66275e-17 2.12477e-16 0 -7.51354e-18 1.26379e-15 0 0 0 0)
(4.43452e-18 -3.82407e-16 0 6.75625e-17 2.3968e-16 0 0 0 0)
(-2.87016e-17 -8.26608e-16 0 -3.01887e-16 2.02403e-16 0 0 0 0)
(-1.96039e-16 -4.27992e-16 0 8.52781e-18 1.78397e-15 0 0 0 0)
(8.69111e-17 6.76177e-16 0 2.89042e-16 3.10378e-17 0 0 0 0)
(9.9942e-17 1.07125e-15 0 5.85823e-16 -8.78486e-16 0 0 0 0)
(4.087e-17 -1.36502e-16 0 -2.4218e-16 -1.71851e-15 0 0 0 0)
(8.05875e-12 -1.22548e-15 0 -1.74399e-16 -2.93962e-16 0 0 0 0)
(3.85813e-08 -6.85537e-14 0 -8.02179e-15 4.72227e-14 0 0 0 0)
(1.93219e-05 2.47118e-13 0 -1.40639e-13 -1.59918e-13 0 0 0 0)
(0.00140812 -5.41398e-14 0 4.75027e-13 5.463e-15 0 0 0 0)
(0.0221244 -5.41811e-13 0 -4.83555e-13 2.30585e-13 0 0 0 0)
(0.115764 1.23138e-13 0 -1.12419e-13 -2.16808e-14 0 0 0 0)
(0.294353 5.59204e-13 0 3.31658e-13 -1.39755e-13 0 0 0 0)
(0.472229 1.26015e-14 0 -4.78314e-14 4.06676e-13 0 0 0 0)
(0.58153 -1.61853e-13 0 1.10391e-13 -2.46312e-13 0 0 0 0)
(0.624271 -9.40548e-14 0 -4.40376e-14 1.78004e-13 0 0 0 0)
(0.601381 -1.92422e-13 0 -5.98078e-14 8.23831e-14 0 0 0 0)
(0.607883 6.66893e-14 0 1.60678e-14 6.70642e-15 0 0 0 0)
(2.67937 8.09839e-14 0 -7.14123e-14 2.14829e-13 0 0 0 0)
(2.35723 4.95336e-15 0 1.1902e-14 2.00309e-13 0 0 0 0)
(2.44623 0.356612 0 -0.641856 0.42895 0 0 0 0)
(2.87035 0.327136 0 -0.474749 -0.336146 0 0 0 0)
(0.709975 -0.178777 0 -0.392169 -0.239148 0 0 0 0)
(0.539228 -0.254164 0 -0.232302 -0.0669624 0 0 0 0)
(0.505809 -0.155641 0 -0.129531 -0.00330007 0 0 0 0)
(0.48425 -0.0772223 0 -0.069009 0.00886714 0 0 0 0)
(0.406574 -0.0377966 0 -0.0306503 0.00482484 0 0 0 0)
(0.259143 -0.0147295 0 -0.0103837 0.00156775 0 0 0 0)
(0.102769 -0.00389293 0 -0.00194888 0.000284416 0 0 0 0)
(0.0196028 -0.00054079 0 -0.000128909 1.91922e-05 0 0 0 0)
(0.00123497 -2.65483e-05 0 -1.85937e-06 2.97867e-07 0 0 0 0)
(1.66671e-05 -2.92515e-07 0 -3.88743e-09 6.42323e-10 0 0 0 0)
(3.25856e-08 -4.68114e-10 0 -8.52202e-13 7.19254e-14 0 0 0 0)
(6.66886e-12 -8.01012e-14 0 3.03592e-16 1.08408e-15 0 0 0 0)
(2.88996e-18 7.85835e-16 0 -2.94994e-16 -1.56107e-16 0 0 0 0)
(-2.02173e-16 -1.03832e-16 0 -1.5116e-16 -3.02228e-17 0 0 0 0)
(-1.06693e-16 -9.24362e-16 0 -4.90015e-17 4.79885e-16 0 0 0 0)
(-8.88741e-18 -1.58534e-16 0 -4.14584e-16 1.91849e-16 0 0 0 0)
(3.41307e-16 7.31386e-16 0 -2.54228e-16 2.20495e-16 0 0 0 0)
(2.08744e-16 1.64612e-17 0 3.5162e-18 1.48486e-16 0 0 0 0)
(7.76334e-18 -7.31386e-16 0 9.75218e-17 2.31244e-31 0 0 0 0)
(-5.27148e-17 -4.55343e-16 0 6.21553e-18 3.43488e-16 0 0 0 0)
(-2.98239e-16 -2.13996e-16 0 1.952e-17 1.29642e-15 0 0 0 0)
(4.14892e-17 5.64747e-17 0 2.05815e-17 8.22847e-16 0 0 0 0)
(-3.15965e-20 2.13996e-16 0 -1.03995e-16 3.30348e-16 0 0 0 0)
(4.65986e-16 3.8494e-17 0 -9.00144e-17 -4.40727e-16 0 0 0 0)
(8.07727e-12 -7.08771e-15 0 7.318e-16 7.04322e-16 0 0 0 0)
(3.85811e-08 -1.22515e-13 0 -1.70055e-14 6.62272e-17 0 0 0 0)
(1.93219e-05 5.04669e-14 0 -2.30515e-13 -4.05658e-14 0 0 0 0)
(0.00140812 8.40848e-14 0 3.19307e-13 -2.59943e-13 0 0 0 0)
(0.0221244 -4.07192e-13 0 -2.3366e-13 2.94452e-14 0 0 0 0)
(0.115764 -2.87483e-14 0 -2.15985e-13 1.27634e-13 0 0 0 0)
(0.294353 6.94162e-13 0 2.96101e-13 -4.00904e-14 0 0 0 0)
(0.472229 -1.39821e-13 0 5.45263e-14 5.70301e-14 0 0 0 0)
(0.58153 -1.59413e-13 0 6.87343e-14 -2.88777e-13 0 0 0 0)
(0.624271 2.27181e-13 0 5.26666e-14 1.32413e-13 0 0 0 0)
(0.601381 -2.39339e-13 0 4.46327e-15 2.35929e-13 0 0 0 0)
(0.607883 2.22055e-14 0 5.35592e-15 8.08684e-14 0 0 0 0)
(2.67937 1.67704e-13 0 1.33303e-13 1.03132e-13 0 0 0 0)
(2.35723 5.70433e-14 0 1.54727e-14 2.68751e-13 0 0 0 0)
(2.41306 0.11811 0 -0.0268791 0.0557978 0 0 0 0)
(2.79168 0.130734 0 -0.0870374 -0.26977 0 0 0 0)
(0.680742 -0.0669547 0 -0.169779 -0.228973 0 0 0 0)
(0.590323 -0.147051 0 -0.160343 -0.117568 0 0 0 0)
(0.567353 -0.106531 0 -0.107017 -0.0477659 0 0 0 0)
(0.529357 -0.0615253 0 -0.0618619 -0.0197379 0 0 0 0)
(0.435435 -0.0327604 0 -0.0295081 -0.00678106 0 0 0 0)
(0.274106 -0.0135922 0 -0.0103999 -0.00161966 0 0 0 0)
(0.108258 -0.00384115 0 -0.00203529 -0.000206091 0 0 0 0)
(0.020676 -0.000573216 0 -0.00014329 -9.14903e-06 0 0 0 0)
(0.00130971 -3.05195e-05 0 -2.25264e-06 -8.90975e-08 0 0 0 0)
(1.78295e-05 -3.67338e-07 0 -5.18826e-09 -1.10906e-10 0 0 0 0)
(3.52314e-08 -6.6217e-10 0 -1.1908e-12 -2.50231e-14 0 0 0 0)
(7.26517e-12 -1.00654e-13 0 1.43981e-17 9.46104e-17 0 0 0 0)
(-2.39647e-16 -4.29259e-16 0 -3.77026e-16 -4.94865e-16 0 0 0 0)
(1.19419e-16 1.45619e-16 0 -4.0787e-17 -1.29564e-15 0 0 0 0)
(-1.82439e-16 -9.64882e-17 0 1.86495e-16 -9.52148e-16 0 0 0 0)
(-1.63672e-16 -4.62434e-16 0 2.33863e-16 -1.89746e-16 0 0 0 0)
(4.78665e-16 5.2676e-17 0 5.91488e-17 -2.22597e-16 0 0 0 0)
(4.15586e-16 3.0392e-30 0 9.38933e-17 -7.58985e-16 0 0 0 0)
(7.03569e-18 -1.94496e-16 0 2.21214e-16 -2.3968e-16 0 0 0 0)
(-1.03867e-16 4.22674e-16 0 8.83559e-18 1.40398e-31 0 0 0 0)
(-1.82195e-16 3.39355e-17 0 3.31155e-17 4.3915e-16 0 0 0 0)
(-3.2113e-17 -2.54769e-16 0 4.72e-17 2.22072e-16 0 0 0 0)
(-6.63231e-18 -1.46378e-16 0 -8.11116e-17 2.09982e-16 0 0 0 0)
(8.46273e-16 2.23873e-16 0 2.27106e-16 3.99729e-16 0 0 0 0)
(8.04245e-12 -7.36957e-16 0 3.0993e-16 1.92637e-16 0 0 0 0)
(3.85811e-08 -1.08323e-13 0 5.30791e-15 3.37948e-14 0 0 0 0)
(1.93219e-05 -3.43612e-15 0 -2.54966e-13 8.00154e-14 0 0 0 0)
(0.00140812 1.33253e-14 0 2.70734e-13 1.30699e-13 0 0 0 0)
(0.0221244 -1.68328e-13 0 -2.02461e-13 -7.26692e-14 0 0 0 0)
(0.115764 5.61312e-14 0 -2.8723e-14 6.07639e-13 0 0 0 0)
(0.294353 4.91167e-13 0 2.14348e-13 -7.22794e-14 0 0 0 0)
(0.472229 -2.27042e-13 0 1.16789e-13 1.77609e-14 0 0 0 0)
(0.58153 -8.92117e-14 0 -4.374e-14 -5.82579e-15 0 0 0 0)
(0.624271 4.11571e-13 0 8.48021e-14 6.02844e-14 0 0 0 0)
(0.601381 -2.42092e-13 0 7.94462e-14 1.39961e-13 0 0 0 0)
(0.607883 -6.12789e-14 0 -3.45159e-14 -1.72622e-14 0 0 0 0)
(2.67937 2.62034e-13 0 1.16045e-13 5.74359e-14 0 0 0 0)
(2.35723 1.6455e-13 0 3.80866e-14 3.48615e-14 0 0 0 0)
(2.38825 0.0428832 0 0.0225196 -0.0394662 0 0 0 0)
(2.73264 0.0527197 0 -0.0253399 -0.162323 0 0 0 0)
(0.639335 -0.0321092 0 -0.0760962 -0.174357 0 0 0 0)
(0.599708 -0.0795461 0 -0.0907625 -0.110903 0 0 0 0)
(0.600709 -0.0613683 0 -0.0661579 -0.0580847 0 0 0 0)
(0.55894 -0.0377278 0 -0.0399467 -0.0283834 0 0 0 0)
(0.456165 -0.0203372 0 -0.0196958 -0.0112039 0 0 0 0)
(0.285617 -0.0083936 0 -0.00702413 -0.00315001 0 0 0 0)
(0.112653 -0.00234098 0 -0.00137196 -0.000482978 0 0 0 0)
(0.0215619 -0.000342279 0 -9.56035e-05 -2.66393e-05 0 0 0 0)
(0.00137305 -1.77321e-05 0 -1.48366e-06 -3.31507e-07 0 0 0 0)
(1.88378e-05 -2.06658e-07 0 -3.38731e-09 -6.14752e-10 0 0 0 0)
(3.75852e-08 -3.61241e-10 0 -7.83151e-13 -8.38797e-14 0 0 0 0)
(7.816e-12 -5.64649e-14 0 -1.86051e-16 -7.35333e-16 0 0 0 0)
(-5.02884e-17 -5.53858e-16 0 -2.56062e-16 -6.26268e-16 0 0 0 0)
(3.40857e-16 -5.44487e-16 0 1.25473e-16 -9.51885e-16 0 0 0 0)
(1.5797e-16 1.41313e-16 0 2.08828e-16 -6.57542e-16 0 0 0 0)
(-1.31603e-16 5.44487e-16 0 6.33692e-16 -1.89746e-16 0 0 0 0)
(2.06427e-16 1.82846e-16 0 1.60402e-16 0 0 0 0 0)
(3.64915e-16 0 0 1.83685e-16 -2.4441e-16 0 0 0 0)
(-7.42014e-17 0 0 2.51325e-16 0 0 0 0 0)
(-2.33973e-16 1.98801e-16 0 9.70972e-18 -4.25747e-17 0 0 0 0)
(-2.6127e-16 5.08736e-30 0 3.44403e-17 -7.48736e-16 0 0 0 0)
(-6.85842e-17 -1.64359e-16 0 -1.2641e-16 -2.68063e-17 0 0 0 0)
(1.73333e-16 3.85193e-16 0 -2.58219e-17 1.65568e-17 0 0 0 0)
(8.42808e-16 2.17795e-17 0 8.41437e-18 6.63849e-16 0 0 0 0)
(8.08217e-12 2.5093e-14 0 -9.16661e-17 -2.34686e-16 0 0 0 0)
(3.85809e-08 -4.55954e-14 0 5.3613e-14 -9.445e-15 0 0 0 0)
(1.93219e-05 1.43848e-13 0 -1.93993e-13 1.23208e-13 0 0 0 0)
(0.00140812 -6.30476e-14 0 5.27077e-13 2.68505e-13 0 0 0 0)
(0.0221244 5.24045e-14 0 -4.54334e-13 4.97336e-14 0 0 0 0)
(0.115764 -2.83726e-14 0 2.9585e-13 4.65589e-13 0 0 0 0)
(0.294353 1.25734e-13 0 -4.55625e-14 -4.65285e-13 0 0 0 0)
(0.472229 -7.57836e-14 0 1.91474e-13 -1.30253e-14 0 0 0 0)
(0.58153 -1.18436e-13 0 -1.59785e-13 4.63754e-14 0 0 0 0)
(0.624271 3.67667e-13 0 8.56947e-14 -5.17453e-14 0 0 0 0)
(0.601381 -3.14066e-13 0 4.52278e-14 -2.02521e-14 0 0 0 0)
(0.607883 -5.73188e-14 0 4.16572e-15 -1.91133e-13 0 0 0 0)
(2.67937 2.17932e-13 0 -1.7377e-13 -1.69493e-14 0 0 0 0)
(2.35723 3.52899e-14 0 1.66629e-14 -1.42283e-13 0 0 0 0)
(2.36694 -0.000278686 0 0.0189666 -0.0539876 0 0 0 0)
(2.69665 0.000748046 0 -0.0105218 -0.104252 0 0 0 0)
(0.617699 -0.0174053 0 -0.0319779 -0.115946 0 0 0 0)
(0.5999 -0.0350063 0 -0.0415825 -0.0775949 0 0 0 0)
(0.616321 -0.027012 0 -0.0310994 -0.0432693 0 0 0 0)
(0.574129 -0.0163492 0 -0.0188352 -0.0213846 0 0 0 0)
(0.467161 -0.0084446 0 -0.00918743 -0.00836061 0 0 0 0)
(0.291763 -0.00326113 0 -0.00314442 -0.00229869 0 0 0 0)
(0.114934 -0.000831356 0 -0.000570842 -0.000340196 0 0 0 0)
(0.0219967 -0.00010812 0 -3.60992e-05 -1.79237e-05 0 0 0 0)
(0.00140184 -4.84951e-06 0 -5.04712e-07 -2.1175e-07 0 0 0 0)
(1.92592e-05 -4.78861e-08 0 -1.04776e-09 -3.72992e-10 0 0 0 0)
(3.84956e-08 -6.97735e-11 0 -2.41906e-13 -6.05199e-14 0 0 0 0)
(8.01959e-12 -2.04284e-14 0 5.50332e-18 -3.48744e-16 0 0 0 0)
(6.05493e-17 -6.37937e-16 0 3.89617e-17 2.50717e-16 0 0 0 0)
(5.67404e-16 1.15482e-16 0 2.30816e-16 2.73582e-16 0 0 0 0)
(3.07298e-16 6.37937e-16 0 -1.77015e-16 5.65034e-16 0 0 0 0)
(-2.10337e-16 1.71197e-16 0 3.53238e-16 1.89746e-16 0 0 0 0)
(4.50223e-17 0 0 -4.08427e-17 0 0 0 0 0)
(5.03203e-16 0 0 1.39153e-16 -2.9776e-16 0 0 0 0)
(-1.60613e-16 0 0 -4.19336e-16 0 0 0 0 0)
(-3.12865e-16 -2.98835e-16 0 -1.19088e-16 -2.9776e-16 0 0 0 0)
(-3.13365e-16 4.91305e-17 0 2.96017e-16 -6.3862e-16 0 0 0 0)
(-9.01839e-17 4.82694e-16 0 2.55841e-16 -2.97497e-16 0 0 0 0)
(1.23289e-16 5.19162e-16 0 2.11293e-16 -1.93688e-16 0 0 0 0)
(7.82823e-16 -1.8234e-17 0 -1.91963e-16 -8.54647e-16 0 0 0 0)
(8.0941e-12 -1.04782e-14 0 -1.13442e-16 -2.32847e-16 0 0 0 0)