/*--------------------------------*- C++ -*----------------------------------*\
| =========                 |                                                 |
| \\      /  F ield         | OpenFOAM: The Open Source CFD Toolbox           |
|  \\    /   O peration     | Version:  v1912                                 |
|   \\  /    A nd           | Website:  www.openfoam.com                      |
|    \\/     M anipulation  |                                                 |
\*---------------------------------------------------------------------------*/
FoamFile
{
    version     2.0;
    format      ascii;
    class       volScalarField;
    location    "0.86";
    object      Ma;
}
// * * * * * * * * * * * * * * * * * * * * * * * * * * * * * * * * * * * * * //

dimensions      [0 0 0 0 0 0 0];


internalField   nonuniform List<scalar> 
1900
(
8.46284e-13
3.38655e-10
1.52993e-08
1.21891e-07
2.88304e-07
3.45138e-07
3.32582e-06
0.000223835
0.002939
0.0126358
9.80145e-13
3.74119e-10
1.60154e-08
1.22937e-07
2.84977e-07
3.39392e-07
3.71126e-06
0.000255744
0.00356394
0.0169201
1.11206e-12
4.03232e-10
1.65361e-08
1.23487e-07
2.82224e-07
3.33696e-07
4.35762e-06
0.000293124
0.00398307
0.0182677
9.76169e-13
3.7412e-10
1.60154e-08
1.22937e-07
2.84977e-07
3.39392e-07
3.71126e-06
0.000255744
0.00356394
0.0169201
8.25e-13
3.3867e-10
1.52992e-08
1.21891e-07
2.88304e-07
3.45138e-07
3.32582e-06
0.000223835
0.002939
0.0126358
0.0268321
0.0440117
0.0641399
0.086007
0.135824
0.0356222
0.0527876
0.0711656
0.0984827
0.148003
0.0372988
0.0535167
0.0718475
0.099773
0.14807
0.0356222
0.0527876
0.0711656
0.0984827
0.148003
0.0268321
0.0440117
0.0641399
0.086007
0.135824
0.155786
0.126522
0.106019
0.107697
0.181143
0.159444
0.132536
0.104061
0.0841474
0.0893727
0.162685
0.134864
0.102579
0.0660839
0.0206353
0.159444
0.132536
0.104061
0.0841474
0.0893727
0.155786
0.126522
0.106019
0.107697
0.181143
0.365193
0.206416
0.23781
0.231838
0.193589
0.13313
0.0732018
0.0271385
0.00509266
0.000321145
4.37836e-06
8.70812e-09
1.80797e-12
2.87051e-16
3.56212e-17
2.21428e-16
6.0716e-17
1.21521e-16
2.28813e-16
6.1082e-17
7.8852e-17
1.52716e-16
1.28829e-16
5.92014e-16
6.39889e-17
1.51191e-16
3.56216e-16
2.21523e-12
1.06098e-08
5.31355e-06
0.000387273
0.00609692
0.0324307
0.0885761
0.167468
0.259415
0.356742
0.453502
0.590495
1.3518
0.0884053
0.118116
0.146
0.208867
0.193848
0.134465
0.0734198
0.0270605
0.00507371
0.000320634
4.38602e-06
8.76368e-09
1.84157e-12
2.57003e-16
7.06878e-18
1.61329e-16
2.94167e-17
6.65426e-17
4.39042e-16
1.85104e-16
1.26733e-16
3.27615e-16
3.7469e-16
8.36058e-16
3.99214e-16
1.78028e-16
4.94269e-16
2.21346e-12
1.06098e-08
5.31355e-06
0.000387273
0.00609692
0.0324307
0.0885761
0.167468
0.259415
0.356742
0.453502
0.590495
1.3518
0.184151
0.140249
0.0944246
0.200674
0.194145
0.135123
0.0735489
0.0270407
0.00506869
0.000320526
4.39013e-06
8.78663e-09
1.8472e-12
4.71061e-16
6.783e-17
2.01894e-16
2.29159e-17
4.08356e-17
4.02731e-16
2.95795e-16
2.42716e-16
5.69649e-16
5.74508e-16
5.96699e-16
6.43627e-16
2.64288e-16
5.06489e-16
2.21584e-12
1.06099e-08
5.31355e-06
0.000387273
0.00609692
0.0324307
0.0885761
0.167468
0.259415
0.356742
0.453502
0.590495
1.3518
0.0884053
0.118116
0.146
0.208867
0.193848
0.134465
0.0734198
0.0270605
0.00507371
0.000320634
4.38602e-06
8.7637e-09
1.82841e-12
6.26628e-16
9.62711e-17
1.11496e-16
1.58737e-18
1.68434e-17
1.34288e-16
1.1381e-16
1.02302e-16
2.35538e-16
4.81505e-17
3.20266e-16
4.24005e-16
4.8723e-16
2.81632e-16
2.22398e-12
1.06099e-08
5.31355e-06
0.000387273
0.00609692
0.0324307
0.0885761
0.167468
0.259415
0.356742
0.453502
0.590495
1.3518
0.365193
0.206416
0.23781
0.231838
0.193589
0.13313
0.0732018
0.0271385
0.00509266
0.000321145
4.37836e-06
8.70814e-09
1.80303e-12
2.56707e-16
2.21202e-16
2.46309e-17
6.37696e-17
6.40189e-18
7.63081e-17
7.82067e-17
1.75635e-18
8.16339e-17
4.27248e-16
1.65951e-16
1.36107e-16
3.31004e-16
1.34412e-16
2.22082e-12
1.06099e-08
5.31355e-06
0.000387273
0.00609692
0.0324307
0.0885761
0.167468
0.259415
0.356742
0.453502
0.590495
1.3518
1.11168
0.442645
0.333583
0.264168
0.201272
0.135435
0.0740868
0.0275385
0.00518038
0.000326058
4.41046e-06
8.65851e-09
1.77218e-12
1.33424e-16
1.28832e-16
9.44899e-17
2.30043e-17
2.19978e-17
5.99996e-17
2.54462e-17
7.44371e-18
7.97423e-17
2.27318e-16
2.04651e-16
4.75533e-17
1.00666e-16
8.61956e-17
2.21614e-12
1.06099e-08
5.31355e-06
0.000387273
0.00609692
0.0324307
0.0885761
0.167468
0.259415
0.356742
0.453502
0.590495
1.3518
1.34271
0.560851
0.401402
0.300886
0.220309
0.144921
0.0779732
0.0287864
0.00540324
0.000339729
4.58418e-06
8.96199e-09
1.83406e-12
7.73045e-17
1.32269e-16
2.62747e-16
1.09519e-16
9.5812e-17
7.17202e-17
2.01141e-16
6.56514e-17
1.82558e-19
6.17407e-17
1.00797e-16
4.81136e-17
8.18422e-17
1.46072e-16
2.22117e-12
1.06098e-08
5.31355e-06
0.000387273
0.00609692
0.0324307
0.0885761
0.167468
0.259415
0.356742
0.453502
0.590495
1.3518
1.35584
0.578632
0.428756
0.327027
0.23781
0.154752
0.082491
0.0303317
0.00569946
0.000360305
4.90418e-06
9.69038e-09
1.99819e-12
1.95502e-16
1.11033e-16
1.12131e-16
1.32164e-16
1.41118e-16
8.09995e-17
6.47692e-17
3.3287e-17
1.14115e-17
1.16332e-16
5.25996e-17
4.63562e-17
5.39196e-17
2.52733e-16
2.21163e-12
1.06098e-08
5.31355e-06
0.000387273
0.00609692
0.0324307
0.0885761
0.167468
0.259415
0.356742
0.453502
0.590495
1.3518
1.3529
0.58436
0.442273
0.343411
0.249815
0.161886
0.0859519
0.0315604
0.00594247
0.00037766
5.18074e-06
1.03364e-08
2.14954e-12
8.95324e-17
8.26645e-17
1.17978e-16
1.50143e-16
6.06085e-17
2.51195e-17
2.29294e-17
7.52325e-17
2.524e-18
5.57445e-17
6.93255e-17
1.23793e-17
1.0812e-16
2.24335e-16
2.22259e-12
1.06098e-08
5.31355e-06
0.000387273
0.00609692
0.0324307
0.0885761
0.167468
0.259415
0.356742
0.453502
0.590495
1.3518
1.34968
0.587656
0.448984
0.352086
0.256241
0.165713
0.0878004
0.0321982
0.00606176
0.000385548
5.29633e-06
1.05863e-08
2.20554e-12
6.50855e-17
1.57792e-16
1.81996e-16
5.09007e-17
3.60728e-17
3.84928e-17
4.8454e-17
9.98884e-17
4.28525e-18
8.33388e-17
8.29975e-17
5.17337e-17
1.63482e-16
2.09341e-16
2.22584e-12
1.06098e-08
5.31355e-06
0.000387273
0.00609692
0.0324307
0.0885761
0.167468
0.259415
0.356742
0.453502
0.590495
1.3518
1.35046
0.589596
0.452322
0.355764
0.258789
0.167147
0.0884476
0.0323983
0.00609338
0.000387196
5.31418e-06
1.06136e-08
2.21359e-12
6.85465e-17
9.82208e-17
2.31668e-17
3.58377e-17
5.977e-17
3.59429e-17
9.90096e-17
3.58918e-17
8.40788e-17
1.45278e-16
7.88517e-17
6.37025e-17
1.4069e-16
1.99182e-16
2.21762e-12
1.06098e-08
5.31355e-06
0.000387273
0.00609692
0.0324307
0.0885761
0.167468
0.259415
0.356742
0.453502
0.590495
1.3518
1.35151
0.590368
0.453366
0.356656
0.259362
0.167444
0.0885674
0.032429
0.00609683
0.000387278
5.31374e-06
1.06104e-08
2.20896e-12
1.04068e-15
1.27604e-15
1.37186e-15
1.25245e-15
1.15864e-15
1.13458e-15
1.2009e-15
1.13555e-15
1.20281e-15
1.18885e-15
1.08074e-15
1.17636e-15
1.06519e-15
1.15558e-15
2.23005e-12
1.06098e-08
5.31355e-06
0.000387273
0.00609692
0.0324307
0.0885761
0.167468
0.259415
0.356742
0.453502
0.590495
1.3518
1.35178
0.59049
0.453497
0.35674
0.259413
0.167468
0.0885759
0.0324307
0.00609692
0.000387274
5.31355e-06
1.06098e-08
2.41977e-11
2.40873e-11
2.40828e-11
2.40948e-11
2.40777e-11
2.40764e-11
2.40994e-11
2.41057e-11
2.41067e-11
2.41022e-11
2.40823e-11
2.40681e-11
2.40832e-11
2.41016e-11
2.41057e-11
2.41763e-11
1.06099e-08
5.31355e-06
0.000387273
0.00609692
0.0324307
0.0885761
0.167468
0.259415
0.356742
0.453502
0.590495
1.3518
1.3518
0.590495
0.453502
0.356742
0.259415
0.167468
0.0885761
0.0324307
0.00609692
0.000387273
5.31391e-06
6.29699e-08
6.20695e-08
6.20695e-08
6.20695e-08
6.20695e-08
6.20695e-08
6.20695e-08
6.20695e-08
6.20695e-08
6.20695e-08
6.20695e-08
6.20695e-08
6.20695e-08
6.20695e-08
6.20695e-08
6.20695e-08
6.20694e-08
6.29697e-08
5.31391e-06
0.000387273
0.00609692
0.0324307
0.0885761
0.167468
0.259415
0.356742
0.453502
0.590495
1.3518
1.3518
0.590495
0.453502
0.356742
0.259415
0.167468
0.0885759
0.0324306
0.00609692
0.0003877
1.89787e-05
1.82197e-05
1.82197e-05
1.82197e-05
1.82197e-05
1.82197e-05
1.82197e-05
1.82197e-05
1.82197e-05
1.82197e-05
1.82197e-05
1.82197e-05
1.82197e-05
1.82197e-05
1.82197e-05
1.82197e-05
1.82197e-05
1.82197e-05
1.82197e-05
1.89787e-05
0.0003877
0.00609692
0.0324306
0.0885759
0.167468
0.259414
0.356742
0.453502
0.590495
1.3518
1.35183
0.590485
0.453476
0.356741
0.259412
0.167464
0.0885735
0.0324379
0.00615576
0.000942098
0.000858978
0.000858962
0.000858962
0.000858962
0.000858962
0.000858962
0.000858962
0.000858962
0.000858962
0.000858962
0.000858962
0.000858962
0.000858962
0.000858962
0.000858962
0.000858962
0.000858962
0.000858962
0.000858962
0.000858978
0.000942098
0.00615576
0.0324379
0.0885735
0.167464
0.259412
0.35674
0.453476
0.590485
1.35183
1.35255
0.59046
0.453279
0.356842
0.259546
0.167663
0.0890179
0.033813
0.0115309
0.00981652
0.00980968
0.00980968
0.00980968
0.00980968
0.00980968
0.00980968
0.00980968
0.00980968
0.00980968
0.00980968
0.00980968
0.00980968
0.00980968
0.00980968
0.00980968
0.00980968
0.00980968
0.00980968
0.00980968
0.00980968
0.00981652
0.0115309
0.033813
0.0890179
0.167663
0.259546
0.356842
0.453279
0.59046
1.35255
1.35669
0.591537
0.454239
0.358972
0.262474
0.172206
0.0976779
0.0531555
0.0428844
0.042494
0.0424944
0.0424944
0.0424944
0.0424944
0.0424944
0.0424944
0.0424944
0.0424944
0.0424944
0.0424944
0.0424944
0.0424944
0.0424944
0.0424944
0.0424944
0.0424944
0.0424944
0.0424944
0.0424944
0.0424944
0.042494
0.0428844
0.0531555
0.0976779
0.172206
0.262474
0.358972
0.454239
0.591537
1.35669
1.36669
0.598951
0.463977
0.37068
0.278267
0.195439
0.135017
0.107947
0.103538
0.103416
0.103419
0.103419
0.103419
0.103419
0.103419
0.103419
0.103419
0.103419
0.103419
0.103419
0.103419
0.103419
0.103419
0.103419
0.103419
0.103419
0.103419
0.103419
0.103419
0.103419
0.103416
0.103538
0.107947
0.135017
0.195439
0.278267
0.37068
0.463977
0.598951
1.36669
1.38288
0.619304
0.49181
0.401048
0.317003
0.247094
0.202881
0.186304
0.183916
0.183864
0.183867
0.183867
0.183867
0.183867
0.183867
0.183867
0.183867
0.183867
0.183867
0.183867
0.183867
0.183867
0.183867
0.183867
0.183867
0.183867
0.183867
0.183867
0.183867
0.183867
0.183864
0.183916
0.186304
0.202881
0.247094
0.317003
0.401048
0.49181
0.619304
1.38288
1.39576
0.656207
0.542741
0.451729
0.379069
0.321309
0.288348
0.276904
0.275292
0.275248
0.275249
0.275249
0.275249
0.275249
0.275249
0.275249
0.275249
0.275249
0.275249
0.275249
0.275249
0.275249
0.275249
0.275249
0.275249
0.275249
0.275249
0.275249
0.275249
0.275249
0.275248
0.275292
0.276904
0.288348
0.321309
0.379069
0.451729
0.542741
0.656207
1.39576
1.42758
0.701833
0.600639
0.517547
0.453478
0.406406
0.380446
0.371843
0.370639
0.370603
0.370604
0.370605
0.370605
0.370605
0.370605
0.370605
0.370605
0.370605
0.370605
0.370605
0.370605
0.370605
0.370605
0.370605
0.370605
0.370605
0.370605
0.370605
0.370605
0.370604
0.370603
0.370639
0.371843
0.380446
0.406406
0.453478
0.517547
0.600639
0.701833
1.42758
1.42842
0.773728
0.700179
0.599723
0.542507
0.495036
0.471136
0.464167
0.463879
0.464041
0.464053
0.464053
0.464053
0.464053
0.464053
0.464053
0.464053
0.464053
0.464053
0.464053
0.464053
0.464053
0.464053
0.464053
0.464053
0.464053
0.464053
0.464053
0.464053
0.464053
0.464041
0.463879
0.464167
0.471136
0.495036
0.542507
0.599723
0.700179
0.773728
1.42842
1.47692
0.856179
0.776486
0.70423
0.659549
0.624752
0.607058
0.601572
0.601025
0.601063
0.601067
0.601067
0.601067
0.601067
0.601067
0.601067
0.601067
0.601067
0.601067
0.601067
0.601067
0.601067
0.601067
0.601067
0.601067
0.601067
0.601067
0.601067
0.601067
0.601067
0.601063
0.601025
0.601572
0.607058
0.624752
0.659549
0.70423
0.776486
0.856179
1.47692
1.96381
1.48532
1.43808
1.43777
1.40732
1.39392
1.37868
1.36997
1.36693
1.36653
1.36652
1.36652
1.36652
1.36652
1.36652
1.36652
1.36652
1.36652
1.36652
1.36652
1.36652
1.36652
1.36652
1.36652
1.36652
1.36652
1.36652
1.36652
1.36652
1.36652
1.36653
1.36693
1.36997
1.37868
1.39392
1.40732
1.43777
1.43808
1.48532
1.96381
1.96381
1.48532
1.43808
1.43777
1.40732
1.39392
1.37868
1.36997
1.36693
1.36653
1.36652
1.36652
1.36652
1.36652
1.36652
1.36652
1.36652
1.36652
1.36652
1.36652
1.36652
1.36652
1.36652
1.36652
1.36652
1.36652
1.36652
1.36652
1.36652
1.36652
1.36653
1.36693
1.36997
1.37868
1.39392
1.40732
1.43777
1.43808
1.48532
1.96381
1.47692
0.856179
0.776486
0.70423
0.659549
0.624752
0.607058
0.601572
0.601025
0.601063
0.601067
0.601067
0.601067
0.601067
0.601067
0.601067
0.601067
0.601067
0.601067
0.601067
0.601067
0.601067
0.601067
0.601067
0.601067
0.601067
0.601067
0.601067
0.601067
0.601067
0.601063
0.601025
0.601572
0.607058
0.624752
0.659549
0.70423
0.776486
0.856179
1.47692
1.42842
0.773728
0.700179
0.599723
0.542507
0.495036
0.471136
0.464167
0.463879
0.464041
0.464053
0.464053
0.464053
0.464053
0.464053
0.464053
0.464053
0.464053
0.464053
0.464053
0.464053
0.464053
0.464053
0.464053
0.464053
0.464053
0.464053
0.464053
0.464053
0.464053
0.464041
0.463879
0.464167
0.471136
0.495036
0.542507
0.599723
0.700179
0.773728
1.42842
1.42758
0.701833
0.600639
0.517547
0.453478
0.406406
0.380446
0.371843
0.370639
0.370603
0.370604
0.370605
0.370605
0.370605
0.370605
0.370605
0.370605
0.370605
0.370605
0.370605
0.370605
0.370605
0.370605
0.370605
0.370605
0.370605
0.370605
0.370605
0.370605
0.370604
0.370603
0.370639
0.371843
0.380446
0.406406
0.453478
0.517547
0.600639
0.701833
1.42758
1.39576
0.656207
0.542741
0.451729
0.379069
0.321309
0.288348
0.276904
0.275292
0.275248
0.275249
0.275249
0.275249
0.275249
0.275249
0.275249
0.275249
0.275249
0.275249
0.275249
0.275249
0.275249
0.275249
0.275249
0.275249
0.275249
0.275249
0.275249
0.275249
0.275249
0.275248
0.275292
0.276904
0.288348
0.321309
0.379069
0.451729
0.542741
0.656207
1.39576
1.38288
0.619304
0.49181
0.401048
0.317003
0.247094
0.202881
0.186304
0.183916
0.183864
0.183867
0.183867
0.183867
0.183867
0.183867
0.183867
0.183867
0.183867
0.183867
0.183867
0.183867
0.183867
0.183867
0.183867
0.183867
0.183867
0.183867
0.183867
0.183867
0.183867
0.183864
0.183916
0.186304
0.202881
0.247094
0.317003
0.401048
0.49181
0.619304
1.38288
1.36669
0.598951
0.463977
0.37068
0.278267
0.195439
0.135017
0.107947
0.103538
0.103416
0.103419
0.103419
0.103419
0.103419
0.103419
0.103419
0.103419
0.103419
0.103419
0.103419
0.103419
0.103419
0.103419
0.103419
0.103419
0.103419
0.103419
0.103419
0.103419
0.103419
0.103416
0.103538
0.107947
0.135017
0.195439
0.278267
0.37068
0.463977
0.598951
1.36669
1.35669
0.591537
0.454239
0.358972
0.262474
0.172206
0.0976779
0.0531555
0.0428844
0.042494
0.0424944
0.0424944
0.0424944
0.0424944
0.0424944
0.0424944
0.0424944
0.0424944
0.0424944
0.0424944
0.0424944
0.0424944
0.0424944
0.0424944
0.0424944
0.0424944
0.0424944
0.0424944
0.0424944
0.0424944
0.042494
0.0428844
0.0531555
0.0976779
0.172206
0.262474
0.358972
0.454239
0.591537
1.35669
1.35255
0.59046
0.453279
0.356842
0.259546
0.167663
0.0890179
0.033813
0.0115309
0.00981652
0.00980968
0.00980968
0.00980968
0.00980968
0.00980968
0.00980968
0.00980968
0.00980968
0.00980968
0.00980968
0.00980968
0.00980968
0.00980968
0.00980968
0.00980968
0.00980968
0.00980968
0.00980968
0.00980968
0.00980968
0.00981652
0.0115309
0.033813
0.0890179
0.167663
0.259546
0.356842
0.453279
0.59046
1.35255
1.35183
0.590485
0.453476
0.356741
0.259412
0.167464
0.0885735
0.0324379
0.00615576
0.000942098
0.000858978
0.000858962
0.000858962
0.000858962
0.000858962
0.000858962
0.000858962
0.000858962
0.000858962
0.000858962
0.000858962
0.000858962
0.000858962
0.000858962
0.000858962
0.000858962
0.000858962
0.000858962
0.000858962
0.000858978
0.000942098
0.00615576
0.0324379
0.0885735
0.167464
0.259412
0.35674
0.453476
0.590485
1.35183
1.3518
0.590495
0.453502
0.356742
0.259415
0.167468
0.0885759
0.0324306
0.00609692
0.0003877
1.89787e-05
1.82197e-05
1.82197e-05
1.82197e-05
1.82197e-05
1.82197e-05
1.82197e-05
1.82197e-05
1.82197e-05
1.82197e-05
1.82197e-05
1.82197e-05
1.82197e-05
1.82197e-05
1.82197e-05
1.82197e-05
1.82197e-05
1.82197e-05
1.82197e-05
1.89787e-05
0.0003877
0.00609692
0.0324306
0.0885759
0.167468
0.259414
0.356742
0.453502
0.590495
1.3518
1.3518
0.590495
0.453502
0.356742
0.259415
0.167468
0.0885761
0.0324307
0.00609692
0.000387273
5.31391e-06
6.29698e-08
6.20695e-08
6.20695e-08
6.20695e-08
6.20695e-08
6.20695e-08
6.20696e-08
6.20695e-08
6.20695e-08
6.20695e-08
6.20695e-08
6.20695e-08
6.20695e-08
6.20695e-08
6.20695e-08
6.20694e-08
6.20696e-08
6.29695e-08
5.31391e-06
0.000387273
0.00609692
0.0324307
0.0885761
0.167468
0.259415
0.356742
0.453502
0.590495
1.3518
1.35178
0.59049
0.453497
0.35674
0.259413
0.167468
0.0885759
0.0324307
0.00609692
0.000387274
5.31355e-06
1.06098e-08
2.41977e-11
2.40874e-11
2.40828e-11
2.40947e-11
2.40775e-11
2.40765e-11
2.40995e-11
2.41058e-11
2.41067e-11
2.41021e-11
2.40821e-11
2.40681e-11
2.40834e-11
2.41016e-11
2.41051e-11
2.4198e-11
1.06099e-08
5.31355e-06
0.000387273
0.00609692
0.0324307
0.0885761
0.167468
0.259415
0.356742
0.453502
0.590495
1.3518
1.35151
0.590368
0.453366
0.356656
0.259362
0.167444
0.0885674
0.032429
0.00609683
0.000387278
5.31374e-06
1.06105e-08
2.20892e-12
1.20838e-15
1.22129e-15
1.19842e-15
1.14005e-15
1.00834e-15
1.13403e-15
1.24604e-15
1.20967e-15
1.27386e-15
1.34724e-15
1.24157e-15
1.24201e-15
1.1406e-15
1.10529e-15
2.21055e-12
1.06098e-08
5.31355e-06
0.000387273
0.00609692
0.0324307
0.0885761
0.167468
0.259415
0.356742
0.453502
0.590495
1.3518
1.35046
0.589596
0.452322
0.355764
0.258789
0.167147
0.0884476
0.0323983
0.00609338
0.000387196
5.31418e-06
1.06136e-08
2.21364e-12
3.93974e-17
1.04696e-16
1.49572e-16
2.5095e-17
1.47733e-16
7.38976e-17
1.10495e-16
7.86976e-18
7.35513e-17
7.38821e-17
2.02804e-17
1.03845e-16
6.14452e-17
1.61003e-16
2.2089e-12
1.06099e-08
5.31355e-06
0.000387273
0.00609692
0.0324307
0.0885761
0.167468
0.259415
0.356742
0.453502
0.590495
1.3518
1.34968
0.587656
0.448984
0.352086
0.256241
0.165713
0.0878004
0.0321982
0.00606176
0.000385548
5.29633e-06
1.05863e-08
2.20603e-12
2.09023e-17
2.32068e-17
6.49606e-17
1.5631e-17
8.19044e-17
1.49622e-18
9.46018e-18
6.65249e-20
9.33228e-18
1.13729e-16
1.0586e-17
2.57682e-18
2.91882e-18
2.03593e-16
2.22282e-12
1.06098e-08
5.31355e-06
0.000387273
0.00609692
0.0324307
0.0885761
0.167468
0.259415
0.356742
0.453502
0.590495
1.3518
1.3529
0.58436
0.442273
0.343411
0.249815
0.161886
0.0859519
0.0315604
0.00594247
0.00037766
5.18074e-06
1.03364e-08
2.1496e-12
1.39624e-16
1.27054e-16
2.15852e-16
1.17944e-16
1.74146e-16
4.63668e-17
3.16563e-17
5.7232e-19
0
6.40028e-17
2.87684e-19
0
2.95188e-18
1.0879e-16
2.21246e-12
1.06098e-08
5.31355e-06
0.000387273
0.00609692
0.0324307
0.0885761
0.167468
0.259415
0.356742
0.453502
0.590495
1.3518
1.35584
0.578632
0.428756
0.327027
0.23781
0.154752
0.082491
0.0303317
0.00569946
0.000360305
4.90418e-06
9.6904e-09
1.99533e-12
1.21336e-16
3.57845e-18
1.51751e-16
1.61498e-17
6.13815e-17
2.22616e-18
7.97311e-17
1.3806e-18
0
6.40028e-17
5.20494e-18
0
2.21407e-17
5.67373e-17
2.2236e-12
1.06098e-08
5.31355e-06
0.000387273
0.00609692
0.0324307
0.0885761
0.167468
0.259415
0.356742
0.453502
0.590495
1.3518
1.34271
0.560851
0.401402
0.300886
0.220309
0.144921
0.0779732
0.0287864
0.00540324
0.000339729
4.58418e-06
8.962e-09
1.82488e-12
4.81788e-17
7.57029e-17
8.49951e-17
5.15404e-17
1.4916e-16
2.29477e-17
1.55316e-16
4.65412e-17
0
0
6.59108e-17
2.97379e-17
6.0147e-17
1.29015e-16
2.21431e-12
1.06098e-08
5.31355e-06
0.000387273
0.00609692
0.0324307
0.0885761
0.167468
0.259415
0.356742
0.453502
0.590495
1.3518
1.11168
0.442645
0.333583
0.264168
0.201272
0.135435
0.0740868
0.0275385
0.00518038
0.000326058
4.41046e-06
8.65849e-09
1.77157e-12
9.35953e-17
2.17344e-16
2.56749e-16
1.80716e-16
2.38061e-16
3.94353e-16
2.55379e-16
1.72813e-16
5.86728e-17
5.13838e-18
1.94507e-16
1.45457e-16
1.23613e-16
2.39175e-16
2.21306e-12
1.06098e-08
5.31355e-06
0.000387273
0.00609692
0.0324307
0.0885761
0.167468
0.259415
0.356742
0.453502
0.590495
1.3518
)
;

boundaryField
{
    inlet
    {
        type            calculated;
        value           uniform 0;
    }
    outlet
    {
        type            calculated;
        value           nonuniform List<scalar> 
165
(
1.11168
1.34271
1.35584
1.3529
1.34968
1.35046
1.35151
1.35178
1.3518
1.3518
1.35183
1.35255
1.35669
1.36669
1.38288
1.39576
1.42758
1.42842
1.47692
1.96381
1.96381
1.48532
1.43808
1.43777
1.40732
1.39392
1.37868
1.36997
1.36693
1.36653
1.36652
1.36652
1.36652
1.36652
1.36652
1.36652
1.36652
1.36652
1.36652
1.36652
1.36652
1.36652
1.36652
1.36652
1.36652
1.36652
1.36652
1.36652
1.36652
1.36652
1.36653
1.36693
1.36997
1.37868
1.39392
1.40732
1.43777
1.43808
1.48532
1.96381
1.3518
1.3518
1.3518
1.3518
1.3518
1.3518
1.3518
1.3518
1.3518
1.3518
1.35183
1.35255
1.35669
1.36669
1.38288
1.39576
1.42758
1.42842
1.47692
1.96381
1.3518
1.3518
1.3518
1.3518
1.3518
1.96381
1.47692
1.42842
1.42758
1.39576
1.38288
1.36669
1.35669
1.35255
1.35183
1.3518
1.3518
1.3518
1.3518
1.3518
1.3518
1.3518
1.3518
1.3518
1.3518
1.96381
1.48532
1.43808
1.43777
1.40732
1.39392
1.37868
1.36997
1.36693
1.36653
1.36652
1.36652
1.36652
1.36652
1.36652
1.36652
1.36652
1.36652
1.36652
1.36652
1.36652
1.36652
1.36652
1.36652
1.36652
1.36652
1.36652
1.36652
1.36652
1.36652
1.36653
1.36693
1.36997
1.37868
1.39392
1.40732
1.43777
1.43808
1.48532
1.96381
1.96381
1.47692
1.42842
1.42758
1.39576
1.38288
1.36669
1.35669
1.35255
1.35183
1.3518
1.3518
1.35178
1.35151
1.35046
1.34968
1.3529
1.35584
1.34271
1.11168
)
;
    }
    obstacle
    {
        type            calculated;
        value           nonuniform List<scalar> 
40
(
8.24967e-13
3.38656e-10
1.52987e-08
1.21888e-07
2.88299e-07
3.45136e-07
3.32544e-06
0.000223769
0.002936
0.0125711
8.46279e-13
3.38642e-10
1.52988e-08
1.21888e-07
2.88299e-07
3.45136e-07
3.32544e-06
0.000223769
0.002936
0.0125711
0.0248317
0.0417884
0.0624453
0.0855844
0.130823
0.0248317
0.0417884
0.0624453
0.0855844
0.130823
0.155318
0.126438
0.106018
0.106756
0.175987
0.155318
0.126438
0.106018
0.106756
0.175987
)
;
    }
    empty
    {
        type            empty;
    }
}


// ************************************************************************* //
