/*--------------------------------*- C++ -*----------------------------------*\
| =========                 |                                                 |
| \\      /  F ield         | OpenFOAM: The Open Source CFD Toolbox           |
|  \\    /   O peration     | Version:  v1912                                 |
|   \\  /    A nd           | Website:  www.openfoam.com                      |
|    \\/     M anipulation  |                                                 |
\*---------------------------------------------------------------------------*/
FoamFile
{
    version     2.0;
    format      ascii;
    class       volScalarField;
    location    "4.16";
    object      Ma;
}
// * * * * * * * * * * * * * * * * * * * * * * * * * * * * * * * * * * * * * //

dimensions      [0 0 0 0 0 0 0];


internalField   nonuniform List<scalar> 
1900
(
0.724777
0.110557
0.0694559
0.0638786
0.0580107
0.0508867
0.0435015
0.0350825
0.0255941
0.0132147
0.724782
0.110559
0.0694772
0.0639045
0.0580352
0.0508204
0.0430551
0.0335143
0.0232164
0.0112571
0.724783
0.110558
0.0694832
0.0639003
0.0580007
0.0506945
0.0427043
0.0328304
0.0222526
0.0106221
0.724782
0.110559
0.0694772
0.0639045
0.0580352
0.0508204
0.0430551
0.0335143
0.0232164
0.0112571
0.724777
0.110557
0.0694559
0.0638786
0.0580107
0.0508867
0.0435015
0.0350825
0.0255941
0.0132147
0.00869082
0.0063618
0.0135303
0.0290772
0.0552983
0.00421275
0.00488763
0.0133402
0.0282502
0.0519856
0.00199328
0.00508244
0.0132662
0.0273069
0.0509581
0.00421275
0.00488763
0.0133402
0.0282502
0.0519856
0.00869082
0.0063618
0.0135303
0.0290772
0.0552983
0.096398
0.119882
0.141996
0.161987
0.155705
0.093998
0.117256
0.138192
0.175606
0.240825
0.0931188
0.116768
0.137876
0.181896
0.275806
0.093998
0.117256
0.138192
0.175606
0.240825
0.096398
0.119882
0.141996
0.161987
0.155705
0.032333
0.346516
0.270445
0.218033
0.266567
0.320731
0.368088
0.413307
0.433018
0.425341
0.401729
0.370584
0.335158
0.296267
0.254536
0.210561
0.164904
0.118244
0.0719526
0.0347685
0.0481317
0.0933867
0.14346
0.194609
0.246032
0.297309
0.34818
0.398435
0.447891
0.496402
0.543693
0.588925
0.630908
0.667386
0.698833
0.722954
0.743618
0.755683
0.760177
1.70772
0.41136
0.638902
0.376294
0.115607
0.232023
0.316866
0.366706
0.413156
0.432907
0.425504
0.401892
0.370582
0.334955
0.295811
0.253758
0.209352
0.16307
0.115364
0.0667699
0.0214835
0.0396822
0.0895341
0.141181
0.193147
0.245094
0.296748
0.347914
0.398407
0.448062
0.496745
0.544172
0.589531
0.63157
0.668106
0.699507
0.723538
0.744167
0.756092
0.760391
1.70682
0.503703
0.715359
0.437119
0.0334756
0.215529
0.318715
0.368959
0.41525
0.433788
0.426218
0.402525
0.371019
0.335201
0.295883
0.253656
0.209056
0.162526
0.114434
0.0649769
0.0146001
0.0364535
0.0882457
0.140466
0.192736
0.244894
0.296721
0.348046
0.398702
0.448533
0.497421
0.545094
0.59077
0.633208
0.670223
0.702254
0.726896
0.748316
0.760701
0.76443
1.71111
0.41136
0.638902
0.376294
0.115607
0.232023
0.316866
0.366706
0.413156
0.432907
0.425504
0.401892
0.370582
0.334955
0.295811
0.253758
0.209352
0.16307
0.115364
0.0667699
0.0214835
0.0396822
0.0895341
0.141181
0.193147
0.245094
0.296748
0.347914
0.398407
0.448062
0.496745
0.544172
0.589531
0.63157
0.668106
0.699507
0.723538
0.744167
0.756092
0.760391
1.70682
0.032333
0.346516
0.270445
0.218033
0.266567
0.320731
0.368088
0.413307
0.433018
0.425341
0.401729
0.370584
0.335158
0.296267
0.254536
0.210561
0.164904
0.118244
0.0719526
0.0347685
0.0481317
0.0933867
0.14346
0.194609
0.246032
0.297309
0.34818
0.398435
0.447891
0.496402
0.543693
0.588925
0.630908
0.667386
0.698833
0.722954
0.743618
0.755683
0.760177
1.70772
0.972862
0.336317
0.401929
0.37464
0.344963
0.349258
0.38829
0.427376
0.442309
0.432248
0.40835
0.377179
0.34184
0.303255
0.262126
0.219194
0.175319
0.131903
0.0922245
0.0672536
0.0749913
0.109709
0.154843
0.203434
0.253374
0.303728
0.354002
0.403865
0.453073
0.501421
0.548655
0.593808
0.635966
0.6725
0.70437
0.728905
0.750136
0.763061
0.767944
1.708
1.50189
0.747496
0.650665
0.527146
0.450029
0.418764
0.435822
0.457094
0.460241
0.446688
0.422403
0.391614
0.357009
0.319692
0.280536
0.240554
0.201075
0.1643
0.134251
0.11868
0.123098
0.146559
0.182885
0.225588
0.271562
0.319142
0.367398
0.41574
0.463777
0.511133
0.557633
0.601905
0.643731
0.679579
0.711415
0.735732
0.75701
0.770453
0.776647
1.70843
1.62041
0.86668
0.756323
0.611436
0.529751
0.493047
0.491002
0.492488
0.4858
0.468268
0.443074
0.412616
0.379033
0.343451
0.306838
0.270385
0.235623
0.204843
0.181357
0.170397
0.173366
0.190368
0.219622
0.256334
0.29766
0.341694
0.387226
0.433438
0.479803
0.525698
0.571159
0.614154
0.655553
0.690593
0.722447
0.746647
0.76829
0.782613
0.794642
1.7298
1.65136
0.909094
0.800686
0.672023
0.593945
0.562447
0.542564
0.532467
0.51733
0.496253
0.469868
0.439609
0.407086
0.373346
0.339325
0.306256
0.275623
0.249453
0.230244
0.221966
0.22411
0.237108
0.261269
0.29291
0.329803
0.370169
0.412726
0.456513
0.500951
0.545074
0.589338
0.630729
0.671569
0.70572
0.737439
0.761327
0.78293
0.797524
0.811989
1.71989
1.65338
0.93444
0.828144
0.719461
0.652869
0.621106
0.593258
0.573791
0.552795
0.528698
0.501274
0.471185
0.439704
0.407747
0.376128
0.346023
0.318754
0.296017
0.279697
0.273191
0.274791
0.285065
0.305553
0.333132
0.366134
0.403039
0.442644
0.48391
0.526313
0.568439
0.61148
0.651117
0.691332
0.724725
0.756458
0.780357
0.802211
0.817599
0.837064
1.73359
1.65339
0.951291
0.851373
0.762529
0.706396
0.669208
0.639984
0.61473
0.58999
0.563902
0.535845
0.506092
0.475661
0.445355
0.415845
0.388217
0.363608
0.343423
0.329127
0.323902
0.325108
0.333389
0.35117
0.375548
0.405271
0.43909
0.475931
0.514704
0.555096
0.594981
0.636681
0.674255
0.713512
0.745639
0.776711
0.799648
0.820218
0.83455
0.859785
1.72861
1.67635
0.975714
0.881285
0.806206
0.757946
0.718049
0.686648
0.657586
0.629952
0.602025
0.573244
0.543679
0.514113
0.4852
0.457444
0.431819
0.409289
0.391016
0.378185
0.373953
0.374853
0.38159
0.397325
0.41918
0.446191
0.477348
0.511758
0.548224
0.586896
0.624724
0.665525
0.70155
0.740477
0.772577
0.803992
0.827866
0.8488
0.863574
0.894445
1.73953
1.69127
0.993117
0.905129
0.842357
0.799848
0.758329
0.725405
0.695482
0.667102
0.638949
0.610562
0.581908
0.553584
0.526128
0.499982
0.476053
0.45519
0.438388
0.426655
0.423243
0.423895
0.429374
0.443517
0.463347
0.488081
0.51687
0.549008
0.583073
0.619813
0.654834
0.694063
0.727414
0.764513
0.794884
0.824925
0.847484
0.866953
0.879977
0.920937
1.73926
1.71009
1.0201
0.937456
0.884292
0.845661
0.803554
0.770306
0.739108
0.709617
0.680351
0.65146
0.622866
0.595037
0.568406
0.543348
0.520641
0.501021
0.485315
0.474405
0.471699
0.472141
0.476558
0.48946
0.507701
0.530631
0.557565
0.588024
0.620293
0.656159
0.689349
0.728313
0.760879
0.797799
0.828492
0.859009
0.882234
0.901851
0.914344
0.960954
1.74579
1.71277
1.03945
0.961247
0.91716
0.881607
0.839243
0.806715
0.774238
0.745137
0.715953
0.688028
0.660678
0.634365
0.609276
0.585745
0.564454
0.546108
0.531428
0.521258
0.519239
0.519503
0.522944
0.534744
0.55151
0.572633
0.597497
0.625915
0.655457
0.689537
0.719578
0.756782
0.787005
0.822425
0.851961
0.882119
0.904234
0.923505
0.934218
0.991033
1.74567
1.72293
1.06541
0.989934
0.954371
0.920499
0.879147
0.84849
0.815254
0.786708
0.757339
0.729803
0.702649
0.676791
0.652112
0.629132
0.608465
0.590784
0.576682
0.566979
0.565552
0.565653
0.568271
0.579309
0.595136
0.615175
0.638843
0.666401
0.694464
0.728189
0.756497
0.793293
0.822462
0.857213
0.886451
0.917228
0.939206
0.958673
0.968308
1.02798
1.74902
1.72841
1.08942
1.01646
0.987411
0.951134
0.914244
0.884962
0.850448
0.82261
0.792889
0.766004
0.739161
0.7143
0.690494
0.668613
0.649085
0.632512
0.619333
0.610342
0.609669
0.609616
0.611282
0.621328
0.635832
0.654302
0.676089
0.70215
0.727851
0.760835
0.786722
0.822789
0.850581
0.884751
0.912844
0.944091
0.965264
0.984554
0.993006
1.05543
1.74772
1.73823
1.11629
1.04576
1.02131
0.983584
0.95226
0.922245
0.887315
0.860628
0.83017
0.804336
0.777566
0.753357
0.729718
0.708195
0.688916
0.672579
0.659527
0.65065
0.650455
0.650256
0.651316
0.661074
0.675198
0.693158
0.714157
0.739779
0.763879
0.796865
0.821022
0.856622
0.883822
0.918421
0.946242
0.978596
0.999498
1.01906
1.02632
1.08681
1.74917
1.74162
1.14009
1.07221
1.05016
1.01415
0.988053
0.955116
0.921107
0.894153
0.862812
0.838461
0.810488
0.786583
0.76279
0.741419
0.722321
0.70633
0.693608
0.685083
0.685561
0.685168
0.685347
0.694488
0.707919
0.725176
0.745161
0.770711
0.793005
0.826522
0.849462
0.885057
0.910901
0.945299
0.972036
1.00397
1.02536
1.04491
1.05194
1.1098
1.74563
1.74667
1.16311
1.09756
1.07848
1.04299
1.01824
0.983203
0.953429
0.92698
0.894118
0.870084
0.840641
0.817639
0.793287
0.771816
0.752523
0.736448
0.723581
0.714951
0.715847
0.715374
0.715086
0.724204
0.737587
0.754779
0.774211
0.800148
0.821074
0.854915
0.876953
0.91301
0.939186
0.974798
1.00121
1.0336
1.0547
1.07442
1.08036
1.13426
1.74167
1.74601
1.1835
1.12025
1.1032
1.0699
1.0443
1.00827
0.980893
0.950595
0.917628
0.895307
0.864431
0.841549
0.816336
0.794925
0.775513
0.759451
0.746467
0.73767
0.739013
0.738334
0.737393
0.746387
0.759596
0.776665
0.79523
0.821856
0.841396
0.876218
0.897218
0.933286
0.958301
0.993643
1.02014
1.05247
1.07557
1.09512
1.10161
1.15192
1.73076
1.73495
1.19038
1.13224
1.11798
1.08543
1.06052
1.02438
0.999415
0.966531
0.936842
0.913576
0.881689
0.860545
0.835133
0.814468
0.794907
0.778711
0.765138
0.75622
0.758222
0.75742
0.756051
0.765292
0.778724
0.796009
0.813508
0.840337
0.857882
0.892626
0.912797
0.948713
0.973789
1.0093
1.03588
1.06809
1.0911
1.10995
1.11328
1.15839
1.70781
1.6942
1.18362
1.12823
1.12128
1.09378
1.06954
1.03404
1.0092
0.975549
0.947536
0.923871
0.893248
0.873718
0.847732
0.828025
0.808029
0.791288
0.776676
0.767076
0.768945
0.767962
0.766907
0.777033
0.791183
0.809425
0.826389
0.853982
0.870127
0.904701
0.923548
0.958543
0.982189
1.01657
1.04242
1.07375
1.09691
1.11281
1.11464
1.15332
1.65041
1.73503
1.14798
1.14397
1.14894
1.13122
1.11297
1.08389
1.05996
1.02508
0.994753
0.961443
0.924992
0.895381
0.86268
0.835592
0.81073
0.78961
0.77483
0.762974
0.76536
0.764851
0.762847
0.775335
0.789561
0.8129
0.835193
0.86892
0.895157
0.935364
0.966124
1.00546
1.037
1.07163
1.09775
1.12601
1.14604
1.1559
1.15057
1.13473
1.70945
2.40167
1.72306
1.64875
1.69962
1.71826
1.72845
1.73273
1.73772
1.73932
1.74394
1.7422
1.7436
1.73824
1.73596
1.72964
1.72772
1.71544
1.7221
1.70511
1.72781
1.72803
1.70429
1.72357
1.71241
1.73158
1.72723
1.73989
1.74001
1.74755
1.74791
1.75133
1.74869
1.74925
1.74498
1.74141
1.73141
1.70916
1.65077
1.70293
2.39348
2.40167
1.72306
1.64875
1.69962
1.71826
1.72845
1.73273
1.73772
1.73932
1.74394
1.7422
1.7436
1.73824
1.73596
1.72964
1.72772
1.71544
1.7221
1.70511
1.72781
1.72803
1.70429
1.72357
1.71241
1.73158
1.72723
1.73989
1.74001
1.74755
1.74791
1.75133
1.74869
1.74925
1.74498
1.74141
1.73141
1.70916
1.65077
1.70293
2.39348
1.73503
1.14798
1.14397
1.14894
1.13122
1.11297
1.08389
1.05996
1.02508
0.994753
0.961443
0.924992
0.895381
0.86268
0.835592
0.81073
0.78961
0.77483
0.762974
0.76536
0.764851
0.762847
0.775335
0.789561
0.8129
0.835193
0.86892
0.895157
0.935364
0.966124
1.00546
1.037
1.07163
1.09775
1.12601
1.14604
1.1559
1.15057
1.13473
1.70945
1.6942
1.18362
1.12823
1.12128
1.09378
1.06954
1.03404
1.0092
0.975549
0.947536
0.923871
0.893248
0.873718
0.847732
0.828025
0.808029
0.791288
0.776676
0.767076
0.768945
0.767962
0.766907
0.777033
0.791183
0.809425
0.826389
0.853982
0.870127
0.904701
0.923548
0.958543
0.982189
1.01657
1.04242
1.07375
1.09691
1.11281
1.11464
1.15332
1.65041
1.73495
1.19038
1.13224
1.11798
1.08543
1.06052
1.02438
0.999415
0.966531
0.936842
0.913576
0.881689
0.860545
0.835133
0.814468
0.794907
0.778711
0.765138
0.75622
0.758222
0.75742
0.756051
0.765292
0.778724
0.796009
0.813508
0.840337
0.857882
0.892626
0.912797
0.948713
0.973789
1.0093
1.03588
1.06809
1.0911
1.10995
1.11328
1.15839
1.70781
1.74601
1.1835
1.12025
1.1032
1.0699
1.0443
1.00827
0.980893
0.950595
0.917628
0.895307
0.864431
0.841549
0.816336
0.794925
0.775513
0.759451
0.746467
0.73767
0.739013
0.738334
0.737393
0.746387
0.759596
0.776665
0.79523
0.821856
0.841396
0.876218
0.897218
0.933286
0.958301
0.993643
1.02014
1.05247
1.07557
1.09512
1.10161
1.15192
1.73076
1.74667
1.16311
1.09756
1.07848
1.04299
1.01824
0.983203
0.953429
0.92698
0.894118
0.870084
0.840641
0.817639
0.793287
0.771816
0.752523
0.736448
0.723581
0.714951
0.715847
0.715374
0.715086
0.724204
0.737587
0.754779
0.774211
0.800148
0.821074
0.854915
0.876953
0.91301
0.939186
0.974798
1.00121
1.0336
1.0547
1.07442
1.08036
1.13426
1.74167
1.74162
1.14009
1.07221
1.05016
1.01415
0.988053
0.955116
0.921107
0.894153
0.862812
0.838461
0.810488
0.786583
0.76279
0.741419
0.722321
0.70633
0.693608
0.685083
0.685561
0.685168
0.685347
0.694488
0.707919
0.725176
0.745161
0.770711
0.793005
0.826522
0.849462
0.885057
0.910901
0.945299
0.972036
1.00397
1.02536
1.04491
1.05194
1.1098
1.74563
1.73823
1.11629
1.04576
1.02131
0.983584
0.95226
0.922245
0.887315
0.860628
0.83017
0.804336
0.777566
0.753357
0.729718
0.708195
0.688916
0.672579
0.659527
0.65065
0.650455
0.650256
0.651316
0.661074
0.675198
0.693158
0.714157
0.739779
0.763879
0.796865
0.821022
0.856622
0.883822
0.918421
0.946242
0.978596
0.999498
1.01906
1.02632
1.08681
1.74917
1.72841
1.08942
1.01646
0.987411
0.951134
0.914244
0.884962
0.850448
0.82261
0.792889
0.766004
0.739161
0.7143
0.690494
0.668613
0.649085
0.632512
0.619333
0.610342
0.609669
0.609616
0.611282
0.621328
0.635832
0.654302
0.676089
0.70215
0.727851
0.760835
0.786722
0.822789
0.850581
0.884751
0.912844
0.944091
0.965264
0.984554
0.993006
1.05543
1.74772
1.72293
1.06541
0.989934
0.954371
0.920499
0.879147
0.84849
0.815254
0.786708
0.757339
0.729803
0.702649
0.676791
0.652112
0.629132
0.608465
0.590784
0.576682
0.566979
0.565552
0.565653
0.568271
0.579309
0.595136
0.615175
0.638843
0.666401
0.694464
0.728189
0.756497
0.793293
0.822462
0.857213
0.886451
0.917228
0.939206
0.958673
0.968308
1.02798
1.74902
1.71277
1.03945
0.961247
0.91716
0.881607
0.839243
0.806715
0.774238
0.745137
0.715953
0.688028
0.660678
0.634365
0.609276
0.585745
0.564454
0.546108
0.531428
0.521258
0.519239
0.519503
0.522944
0.534744
0.55151
0.572633
0.597497
0.625915
0.655457
0.689537
0.719578
0.756782
0.787005
0.822425
0.851961
0.882119
0.904234
0.923505
0.934218
0.991033
1.74567
1.71009
1.0201
0.937456
0.884292
0.845661
0.803554
0.770306
0.739108
0.709617
0.680351
0.65146
0.622866
0.595037
0.568406
0.543348
0.520641
0.501021
0.485315
0.474405
0.471699
0.472141
0.476558
0.48946
0.507701
0.530631
0.557565
0.588024
0.620293
0.656159
0.689349
0.728313
0.760879
0.797799
0.828492
0.859009
0.882234
0.901851
0.914344
0.960954
1.74579
1.69127
0.993117
0.905129
0.842357
0.799848
0.758329
0.725405
0.695482
0.667102
0.638949
0.610562
0.581908
0.553584
0.526128
0.499982
0.476053
0.45519
0.438388
0.426655
0.423243
0.423895
0.429374
0.443517
0.463347
0.488081
0.51687
0.549008
0.583073
0.619813
0.654834
0.694063
0.727414
0.764513
0.794884
0.824925
0.847484
0.866953
0.879977
0.920937
1.73926
1.67635
0.975714
0.881285
0.806206
0.757946
0.718049
0.686648
0.657586
0.629952
0.602025
0.573244
0.543679
0.514113
0.4852
0.457444
0.431819
0.409289
0.391016
0.378185
0.373953
0.374853
0.38159
0.397325
0.41918
0.446191
0.477348
0.511758
0.548224
0.586896
0.624724
0.665525
0.70155
0.740477
0.772577
0.803992
0.827866
0.8488
0.863574
0.894445
1.73953
1.65339
0.951291
0.851373
0.762529
0.706396
0.669208
0.639984
0.61473
0.58999
0.563902
0.535845
0.506092
0.475661
0.445355
0.415845
0.388217
0.363608
0.343423
0.329127
0.323902
0.325108
0.333389
0.35117
0.375548
0.405271
0.43909
0.475931
0.514704
0.555096
0.594981
0.636681
0.674255
0.713512
0.745639
0.776711
0.799648
0.820218
0.83455
0.859785
1.72861
1.65338
0.93444
0.828144
0.719461
0.652869
0.621106
0.593258
0.573791
0.552795
0.528698
0.501274
0.471185
0.439704
0.407747
0.376128
0.346023
0.318754
0.296017
0.279697
0.273191
0.274791
0.285065
0.305553
0.333132
0.366134
0.403039
0.442644
0.48391
0.526313
0.568439
0.61148
0.651117
0.691332
0.724725
0.756458
0.780357
0.802211
0.817599
0.837064
1.73359
1.65136
0.909094
0.800686
0.672023
0.593945
0.562447
0.542564
0.532467
0.51733
0.496253
0.469868
0.439609
0.407086
0.373346
0.339325
0.306256
0.275623
0.249453
0.230244
0.221966
0.22411
0.237108
0.261269
0.29291
0.329803
0.370169
0.412726
0.456513
0.500951
0.545074
0.589338
0.630729
0.671569
0.70572
0.737439
0.761327
0.78293
0.797524
0.811989
1.71989
1.62041
0.86668
0.756323
0.611436
0.529751
0.493047
0.491002
0.492488
0.4858
0.468268
0.443074
0.412616
0.379033
0.343451
0.306838
0.270385
0.235623
0.204843
0.181357
0.170397
0.173366
0.190368
0.219622
0.256334
0.29766
0.341694
0.387226
0.433438
0.479803
0.525698
0.571159
0.614154
0.655553
0.690593
0.722447
0.746647
0.76829
0.782613
0.794642
1.7298
1.50189
0.747496
0.650665
0.527146
0.450029
0.418764
0.435822
0.457094
0.460241
0.446688
0.422403
0.391614
0.357009
0.319692
0.280536
0.240554
0.201075
0.1643
0.134251
0.11868
0.123098
0.146559
0.182885
0.225588
0.271562
0.319142
0.367398
0.41574
0.463777
0.511133
0.557633
0.601905
0.643731
0.679579
0.711415
0.735732
0.75701
0.770453
0.776647
1.70843
0.972862
0.336317
0.401929
0.37464
0.344963
0.349258
0.38829
0.427376
0.442309
0.432248
0.40835
0.377179
0.34184
0.303255
0.262126
0.219194
0.175319
0.131903
0.0922245
0.0672536
0.0749913
0.109709
0.154843
0.203434
0.253374
0.303728
0.354002
0.403865
0.453073
0.501421
0.548655
0.593808
0.635966
0.6725
0.70437
0.728905
0.750136
0.763061
0.767944
1.708
)
;

boundaryField
{
    inlet
    {
        type            calculated;
        value           uniform 0;
    }
    outlet
    {
        type            calculated;
        value           nonuniform List<scalar> 
165
(
0.972862
1.50189
1.62041
1.65136
1.65338
1.65339
1.67635
1.69127
1.71009
1.71277
1.72293
1.72841
1.73823
1.74162
1.74667
1.74601
1.73495
1.6942
1.73503
2.40167
2.40167
1.72306
1.64875
1.69962
1.71826
1.72845
1.73273
1.73772
1.73932
1.74394
1.7422
1.7436
1.73824
1.73596
1.72964
1.72772
1.71544
1.7221
1.70511
1.72781
1.72803
1.70429
1.72357
1.71241
1.73158
1.72723
1.73989
1.74001
1.74755
1.74791
1.75133
1.74869
1.74925
1.74498
1.74141
1.73141
1.70916
1.65077
1.70293
2.39348
1.708
1.70843
1.7298
1.71989
1.73359
1.72861
1.73953
1.73926
1.74579
1.74567
1.74902
1.74772
1.74917
1.74563
1.74167
1.73076
1.70781
1.65041
1.70945
2.39348
1.70772
1.70682
1.71111
1.70682
1.70772
2.39348
1.70945
1.65041
1.70781
1.73076
1.74167
1.74563
1.74917
1.74772
1.74902
1.74567
1.74579
1.73926
1.73953
1.72861
1.73359
1.71989
1.7298
1.70843
1.708
2.40167
1.72306
1.64875
1.69962
1.71826
1.72845
1.73273
1.73772
1.73932
1.74394
1.7422
1.7436
1.73824
1.73596
1.72964
1.72772
1.71544
1.7221
1.70511
1.72781
1.72803
1.70429
1.72357
1.71241
1.73158
1.72723
1.73989
1.74001
1.74755
1.74791
1.75133
1.74869
1.74925
1.74498
1.74141
1.73141
1.70916
1.65077
1.70293
2.39348
2.40167
1.73503
1.6942
1.73495
1.74601
1.74667
1.74162
1.73823
1.72841
1.72293
1.71277
1.71009
1.69127
1.67635
1.65339
1.65338
1.65136
1.62041
1.50189
0.972862
)
;
    }
    obstacle
    {
        type            calculated;
        value           nonuniform List<scalar> 
40
(
0.724777
0.110557
0.0694559
0.0638786
0.0580106
0.0508864
0.0434985
0.0350675
0.0255864
0.0131572
0.724777
0.110557
0.0694559
0.0638786
0.0580106
0.0508864
0.0434985
0.0350675
0.0255864
0.0131572
0.00834494
0.000561435
0.0113711
0.0269861
0.0515817
0.00834494
0.000561435
0.0113711
0.0269861
0.0515817
0.0960692
0.119785
0.141761
0.1608
0.150245
0.0960692
0.119785
0.141761
0.1608
0.150245
)
;
    }
    empty
    {
        type            empty;
    }
}


// ************************************************************************* //
