/*--------------------------------*- C++ -*----------------------------------*\
| =========                 |                                                 |
| \\      /  F ield         | OpenFOAM: The Open Source CFD Toolbox           |
|  \\    /   O peration     | Version:  v1912                                 |
|   \\  /    A nd           | Website:  www.openfoam.com                      |
|    \\/     M anipulation  |                                                 |
\*---------------------------------------------------------------------------*/
FoamFile
{
    version     2.0;
    format      ascii;
    class       volScalarField;
    location    "8.1";
    object      p;
}
// * * * * * * * * * * * * * * * * * * * * * * * * * * * * * * * * * * * * * //

dimensions      [1 -1 -2 0 0 0 0];


internalField   nonuniform List<scalar> 
1900
(
16267.4
8945.19
8439.91
8406.93
8385.51
8401.48
8421.23
8423.31
8408.48
8393.01
16267.4
8945.23
8439.92
8406.8
8385.21
8401.16
8422.47
8424.8
8415.08
8383.21
16267.5
8945.27
8439.89
8406.76
8385.25
8401.33
8422.03
8421.59
8405.24
8366.13
16267.4
8945.23
8439.92
8406.8
8385.21
8401.16
8422.47
8424.8
8415.08
8383.21
16267.4
8945.19
8439.91
8406.93
8385.51
8401.48
8421.23
8423.31
8408.48
8393.01
8519.04
8335.54
8252.1
8068.81
8276.23
8347.05
8225.46
8150.86
7967.96
7839.23
8312.45
8205.97
8141.54
7996.88
7876.42
8347.05
8225.46
8150.86
7967.96
7839.23
8519.04
8335.54
8252.1
8068.81
8276.23
3464.25
2013.45
1411.57
1098.01
835.415
3919.53
2222.69
1522.89
1183.61
885.089
4028.85
2184.32
1475.95
1150.07
841.34
3919.53
2222.69
1522.89
1183.61
885.089
3464.25
2013.45
1411.57
1098.01
835.415
873.149
891.201
869.067
844.539
806.594
766.584
712.887
621.557
568.603
589.431
820.937
1203.64
1283.49
1269.97
1248.85
1241.07
1227.67
1184.03
1094.72
969.556
827.629
660.589
464.88
311.337
258.948
248.245
242.62
237.189
233.065
234.87
275.843
428.612
569.04
641.195
696.502
753.107
809.717
867.517
924.86
968.118
819.878
858.838
888.462
865.879
819.233
763.172
702.706
609.229
562.072
583.335
819.626
1203
1283.29
1267.28
1249.99
1246.49
1234.92
1191.56
1095.87
969.845
828.651
663.366
467.286
312.046
258.992
248.225
242.609
237.171
233.04
234.84
275.815
428.594
568.975
641.097
696.381
753.028
809.735
867.522
924.948
968.274
802.444
827.208
870.758
867.464
835.941
777.664
711.517
611.952
566.078
586.855
813.107
1202.2
1285.39
1267.97
1250.55
1246.54
1235.13
1206.04
1119.8
989.457
834.71
664.213
466.848
311.932
258.996
248.218
242.608
237.166
233.031
234.83
275.811
428.598
568.945
641.046
696.325
752.996
809.752
867.52
924.872
968.118
819.878
858.838
888.462
865.879
819.233
763.172
702.706
609.229
562.072
583.335
819.626
1203
1283.29
1267.28
1249.99
1246.49
1234.92
1191.56
1095.87
969.845
828.651
663.366
467.286
312.046
258.992
248.225
242.609
237.171
233.04
234.84
275.815
428.594
568.975
641.097
696.381
753.028
809.735
867.522
924.948
968.274
873.149
891.201
869.067
844.539
806.594
766.584
712.887
621.557
568.603
589.431
820.937
1203.64
1283.49
1269.97
1248.85
1241.07
1227.67
1184.03
1094.72
969.556
827.629
660.589
464.88
311.337
258.948
248.245
242.62
237.189
233.065
234.87
275.843
428.612
569.04
641.195
696.502
753.107
809.717
867.517
924.86
968.118
966.451
886.725
833.777
796.452
759.693
732.318
692.706
624.755
576.676
599.622
856.013
1192.59
1286.67
1284.18
1268.64
1251.75
1227.17
1172.64
1082.42
965.26
825.885
657.772
460.052
308.769
258.704
248.314
242.673
237.276
233.175
235.016
275.895
428.588
569.219
641.495
696.81
753.244
809.549
867.372
924.705
968.204
965.413
874.77
797.97
741.397
697.8
669.717
636.978
596.381
580.003
625.184
915.636
1170.34
1244.41
1221.24
1217.62
1212.51
1187.42
1134.22
1046.1
930.678
795.613
633.145
442.76
302.779
258.234
248.475
242.812
237.488
233.435
235.38
276.008
428.495
569.617
642.256
697.725
754.013
809.688
866.983
924.102
967.897
969.075
937.817
896.414
844.043
789.276
730.82
680.43
642.204
624.9
691.323
965.707
1149.78
1211.03
1182.57
1184.77
1172.64
1139.78
1085.5
1002.37
892.268
760.508
600.513
418.836
294.854
257.69
248.755
243.07
237.822
233.833
235.937
276.223
428.344
570.025
643.173
698.975
755.161
810.321
866.873
923.923
968.127
972.33
917.537
867.355
815.358
759.911
690.167
647.156
647.047
662.422
774.523
975.072
1119.83
1169.82
1152.77
1158.77
1131.1
1089.72
1032.36
948.943
841.825
715.135
560.319
391.007
286.533
257.297
249.163
243.463
238.305
234.404
236.705
276.692
428.57
570.913
644.57
700.784
756.685
811.446
867.108
924.064
968.615
976.289
925.563
871.569
819.867
765.136
696.429
673.465
692.538
750.768
869.9
1012.15
1106.34
1103.26
1116.63
1114.53
1077.39
1033.02
971.652
887.687
784.854
664.17
514.952
361.662
279.057
257.207
249.731
244.025
238.972
235.175
237.703
277.254
428.591
571.589
645.764
702.427
757.954
812.37
867.055
923.87
968.874
976.838
929.184
874.715
822.313
775.421
736.037
732.415
752.257
800.069
900.442
1004.35
1031.92
1044.25
1078.13
1050.63
1013.14
969.379
906.289
823.495
726.101
610.38
466.656
333.968
273.58
257.598
250.519
244.818
239.895
236.227
238.997
278.381
429.562
573.054
647.467
704.507
759.575
813.596
867.265
923.746
969.169
976.151
927.376
875.881
833.389
802.811
782.32
784.178
800.521
836.728
904.201
948.274
963.885
1007.96
1000.12
977.045
949.907
904.71
839.382
759.094
667.081
554.225
417.781
310.707
270.007
258.024
251.147
245.456
240.68
237.159
240.173
278.908
429.014
572.937
647.625
705.137
760.133
814.136
867.178
923.439
969.249
975.916
929.218
884.221
848.949
820.125
800.706
798.489
810.854
848.127
886.42
890.714
916.195
937.047
935.807
918.43
887.152
837.639
772.246
696.117
607.671
495.428
371.708
293.656
267.841
258.052
251.238
245.598
241.007
237.672
240.916
279.257
428.235
572.195
647.127
705.043
760.182
814.261
867.164
923.343
969.549
977.745
933.208
887.737
854.531
834.49
824.175
817.079
819.389
833.806
829.029
834.408
875.105
889.176
877.698
859.991
823.296
769.443
704.834
632.914
547.618
438.184
334.794
283.879
267.094
258.606
252.056
246.665
242.463
239.416
243.009
280.977
431.133
579.103
656.078
713.586
765.521
816.505
867.86
923.531
969.807
983.541
930.302
890.499
861.246
836.56
812.907
790.624
787.549
787.803
789.134
823.862
837.327
831.066
821.662
795.542
754.216
703.255
646.658
581.113
495.051
393.766
316.93
286.76
275.242
267.504
261.376
256.514
252.885
250.217
254.507
294.513
453.043
609.553
687.738
742.923
790.737
836.201
877.507
926.885
970.962
977.159
910.242
862.831
824.07
787.704
766.306
767.464
773.768
774.647
785.94
784.95
784.28
780.247
766.032
741.614
708.415
668.313
624.371
569.251
483.144
391.597
348.022
335.392
329.548
325.156
321.857
319.06
317.636
315.95
323.647
381.583
586.168
762.437
828.02
857.86
870.936
885.797
907.19
939.394
972.614
952.18
895.72
840.711
812.891
802.852
805.015
791.394
770.386
754.59
744.126
745.429
751.749
759.468
761.752
755.676
746.903
739.091
716.163
654.848
571.075
513.586
493.879
487.78
483.107
478.559
475.32
472.33
470.97
469.601
482.588
570.921
807.77
975.015
1020.88
1036.88
1029.11
1006.17
983.877
978.45
979.068
974.296
942.253
908.034
883.734
860.95
831.882
801.029
778.697
765.615
774.827
803.812
845.398
886.901
917.805
936.262
940.377
920.713
860.904
762.263
674.564
638.016
625.772
616.955
608.383
600.406
595.061
590.617
587.793
586.993
603.123
700.86
927.615
1085.56
1129.77
1154.38
1156.21
1131.22
1090.39
1047.93
995.943
1014.9
998.727
995.397
998.334
1008.23
1022.71
1045.32
1043.59
1041.12
1057.49
1089.94
1112.17
1115.81
1104.63
1080.28
1039.41
967.077
861.684
766.621
719.955
703.602
693.894
684.109
674.663
666.424
661.254
656.833
653.653
653.371
670.572
757.563
959.011
1110.84
1152.92
1183.25
1196.83
1183.75
1152.07
1105.19
1021.51
1051.79
1096.82
1163.58
1227.64
1299.7
1375.43
1440.92
1449.55
1404.77
1328.36
1264.89
1212.44
1163.67
1120.1
1073.7
1006.35
913.344
825.725
778.337
761.422
753.229
744.968
735.649
727.107
720.129
716.207
712.836
710.356
710.006
727.649
794.825
969.756
1124.98
1175.32
1204.83
1212.56
1196.53
1162.72
1114.56
1026.04
1084.7
1153.67
1248.29
1328.73
1413.02
1502.83
1565.52
1565.75
1496.26
1362.48
1247.82
1177.06
1129.9
1084.39
1021.49
940.467
867.463
827.706
813.697
808.718
803.523
795.902
787.303
779.808
773.912
770.839
768.17
766.13
765.046
780.116
826.151
966.807
1122.94
1188.66
1214.24
1220.71
1205.53
1165.4
1108.81
1024.46
1072.24
1147.7
1242.59
1324.69
1415.35
1506.15
1572.29
1569.94
1474.1
1314.89
1196.26
1129.98
1080.48
1025.25
959.992
902.615
870.041
858.682
856.935
854.903
850.671
843.634
835.905
829.467
824.483
822.011
819.958
818.4
816.879
826.266
857.662
953.94
1093.06
1172.24
1196.53
1205.24
1196.01
1152.81
1082.18
1009.9
1047.76
1098.71
1189.53
1260.06
1349.72
1426.11
1477.24
1467.52
1367.57
1228.48
1136.75
1080.34
1028.71
975.762
930.793
905.739
897.495
898.655
899.939
899.136
895.942
890.068
883.281
877.539
873.007
870.65
868.692
867.384
866.185
869.35
890.46
944.969
1050.13
1135.12
1158.34
1162.08
1150.08
1127.41
1065.44
988.743
1053.11
965.22
1095.28
1156.6
1241.83
1301.57
1335.26
1317.49
1233.77
1139.65
1081.24
1040.58
1002.45
969.707
946.115
937.792
938.844
941.591
942.713
942.154
940.248
936.69
932.47
929.031
926.328
924.744
923.252
922.268
921.516
922.42
929.643
957.229
1017.71
1085.6
1107.7
1105.2
1080.96
1066.23
966.844
889.887
3640.32
932.242
1012.08
1053.4
1096.13
1117.57
1118.9
1092.04
1051
1017.16
996.959
982.022
970.656
966.424
966.511
968.944
971.029
971.979
972.095
971.865
971.446
970.713
969.984
969.668
969.578
969.789
969.7
969.855
969.932
970.61
971.636
976.554
987.905
1012.64
1022.75
1024.16
1010.73
991.687
889.617
1597.78
3640.32
932.242
1012.08
1053.4
1096.13
1117.57
1118.9
1092.04
1051
1017.16
996.959
982.022
970.656
966.424
966.511
968.944
971.029
971.979
972.095
971.865
971.446
970.713
969.984
969.668
969.578
969.789
969.7
969.855
969.932
970.61
971.636
976.554
987.905
1012.64
1022.75
1024.16
1010.73
991.687
889.617
1597.78
1053.11
965.22
1095.28
1156.6
1241.83
1301.57
1335.26
1317.49
1233.77
1139.65
1081.24
1040.58
1002.45
969.707
946.115
937.792
938.844
941.591
942.713
942.154
940.248
936.69
932.47
929.031
926.328
924.744
923.252
922.268
921.516
922.42
929.643
957.229
1017.71
1085.6
1107.7
1105.2
1080.96
1066.23
966.844
889.887
1047.76
1098.71
1189.53
1260.06
1349.72
1426.11
1477.24
1467.52
1367.57
1228.48
1136.75
1080.34
1028.71
975.762
930.793
905.739
897.495
898.655
899.939
899.136
895.942
890.068
883.281
877.539
873.007
870.65
868.692
867.384
866.185
869.35
890.46
944.969
1050.13
1135.12
1158.34
1162.08
1150.08
1127.41
1065.44
988.743
1072.24
1147.7
1242.59
1324.69
1415.35
1506.15
1572.29
1569.94
1474.1
1314.89
1196.26
1129.98
1080.48
1025.25
959.992
902.615
870.041
858.682
856.935
854.903
850.671
843.634
835.905
829.467
824.483
822.011
819.958
818.4
816.879
826.266
857.662
953.94
1093.06
1172.24
1196.53
1205.24
1196.01
1152.81
1082.18
1009.9
1084.7
1153.67
1248.29
1328.73
1413.02
1502.83
1565.52
1565.75
1496.26
1362.48
1247.82
1177.06
1129.9
1084.39
1021.49
940.467
867.463
827.706
813.697
808.718
803.523
795.902
787.303
779.808
773.912
770.839
768.17
766.13
765.046
780.116
826.151
966.807
1122.94
1188.66
1214.24
1220.71
1205.53
1165.4
1108.81
1024.46
1051.79
1096.82
1163.58
1227.64
1299.7
1375.43
1440.92
1449.55
1404.77
1328.36
1264.89
1212.44
1163.67
1120.1
1073.7
1006.35
913.344
825.725
778.337
761.422
753.229
744.968
735.649
727.107
720.129
716.207
712.836
710.356
710.006
727.649
794.825
969.756
1124.98
1175.32
1204.83
1212.56
1196.53
1162.72
1114.56
1026.04
1014.9
998.727
995.397
998.334
1008.23
1022.71
1045.32
1043.59
1041.12
1057.49
1089.94
1112.17
1115.81
1104.63
1080.28
1039.41
967.077
861.684
766.621
719.955
703.602
693.894
684.109
674.663
666.424
661.254
656.833
653.653
653.371
670.572
757.563
959.011
1110.84
1152.92
1183.25
1196.83
1183.75
1152.07
1105.19
1021.51
974.296
942.253
908.034
883.734
860.95
831.882
801.029
778.697
765.615
774.827
803.812
845.398
886.901
917.805
936.262
940.377
920.713
860.904
762.263
674.564
638.016
625.772
616.955
608.383
600.406
595.061
590.617
587.793
586.993
603.123
700.86
927.615
1085.56
1129.77
1154.38
1156.21
1131.22
1090.39
1047.93
995.943
952.18
895.72
840.711
812.891
802.852
805.015
791.394
770.386
754.59
744.126
745.429
751.749
759.468
761.752
755.676
746.903
739.091
716.163
654.848
571.075
513.586
493.879
487.78
483.107
478.559
475.32
472.33
470.97
469.601
482.588
570.921
807.77
975.015
1020.88
1036.88
1029.11
1006.17
983.877
978.45
979.068
977.159
910.242
862.831
824.07
787.704
766.306
767.464
773.768
774.647
785.94
784.95
784.28
780.247
766.032
741.614
708.415
668.313
624.371
569.251
483.144
391.597
348.022
335.392
329.548
325.156
321.857
319.06
317.636
315.95
323.647
381.583
586.168
762.437
828.02
857.86
870.936
885.797
907.19
939.394
972.614
983.541
930.302
890.499
861.246
836.56
812.907
790.624
787.549
787.803
789.134
823.862
837.327
831.066
821.662
795.542
754.216
703.255
646.658
581.113
495.051
393.766
316.93
286.76
275.242
267.504
261.376
256.514
252.885
250.217
254.507
294.513
453.043
609.553
687.738
742.923
790.737
836.201
877.507
926.885
970.962
977.745
933.208
887.737
854.531
834.49
824.175
817.079
819.389
833.806
829.029
834.408
875.105
889.176
877.698
859.991
823.296
769.443
704.834
632.914
547.618
438.184
334.794
283.879
267.094
258.606
252.056
246.665
242.463
239.416
243.009
280.977
431.133
579.103
656.078
713.586
765.521
816.505
867.86
923.531
969.807
975.916
929.218
884.221
848.949
820.125
800.706
798.489
810.854
848.127
886.42
890.714
916.195
937.047
935.807
918.43
887.152
837.639
772.246
696.117
607.671
495.428
371.708
293.656
267.841
258.052
251.238
245.598
241.007
237.672
240.916
279.257
428.235
572.195
647.127
705.043
760.182
814.261
867.164
923.343
969.549
976.151
927.376
875.881
833.389
802.811
782.32
784.178
800.521
836.728
904.201
948.274
963.885
1007.96
1000.12
977.045
949.907
904.71
839.382
759.094
667.081
554.225
417.781
310.707
270.007
258.024
251.147
245.456
240.68
237.159
240.173
278.908
429.014
572.937
647.625
705.137
760.133
814.136
867.178
923.439
969.249
976.838
929.184
874.715
822.313
775.421
736.037
732.415
752.257
800.069
900.442
1004.35
1031.92
1044.25
1078.13
1050.63
1013.14
969.379
906.289
823.495
726.101
610.38
466.656
333.968
273.58
257.598
250.519
244.818
239.895
236.227
238.997
278.381
429.562
573.054
647.467
704.507
759.575
813.596
867.265
923.746
969.169
976.289
925.563
871.569
819.867
765.136
696.429
673.465
692.538
750.768
869.9
1012.15
1106.34
1103.26
1116.63
1114.53
1077.39
1033.02
971.652
887.687
784.854
664.17
514.952
361.662
279.057
257.207
249.731
244.025
238.972
235.175
237.703
277.254
428.591
571.589
645.764
702.427
757.954
812.37
867.055
923.87
968.874
972.33
917.537
867.355
815.358
759.911
690.167
647.156
647.047
662.422
774.523
975.072
1119.83
1169.82
1152.77
1158.77
1131.1
1089.72
1032.36
948.943
841.825
715.135
560.319
391.007
286.533
257.297
249.163
243.463
238.305
234.404
236.705
276.692
428.57
570.913
644.57
700.784
756.685
811.446
867.108
924.064
968.615
969.075
937.817
896.414
844.043
789.276
730.82
680.43
642.204
624.9
691.323
965.707
1149.78
1211.03
1182.57
1184.77
1172.64
1139.78
1085.5
1002.37
892.268
760.508
600.513
418.836
294.854
257.69
248.755
243.07
237.822
233.833
235.937
276.223
428.344
570.025
643.173
698.975
755.161
810.321
866.873
923.923
968.127
965.413
874.77
797.97
741.397
697.8
669.717
636.978
596.381
580.003
625.184
915.636
1170.34
1244.41
1221.24
1217.62
1212.51
1187.42
1134.22
1046.1
930.678
795.613
633.145
442.76
302.779
258.234
248.475
242.812
237.488
233.435
235.38
276.008
428.495
569.617
642.256
697.725
754.013
809.688
866.983
924.102
967.897
966.451
886.725
833.777
796.452
759.693
732.318
692.706
624.755
576.676
599.622
856.013
1192.59
1286.67
1284.18
1268.64
1251.75
1227.17
1172.64
1082.42
965.26
825.885
657.772
460.052
308.769
258.704
248.314
242.673
237.276
233.175
235.016
275.895
428.588
569.219
641.495
696.81
753.244
809.549
867.372
924.705
968.204
)
;

boundaryField
{
    inlet
    {
        type            fixedValue;
        value           uniform 10000;
    }
    outlet
    {
        type            fixedValue;
        value           uniform 1000;
    }
    obstacle
    {
        type            zeroGradient;
    }
    empty
    {
        type            empty;
    }
}


// ************************************************************************* //
