/*--------------------------------*- C++ -*----------------------------------*\
| =========                 |                                                 |
| \\      /  F ield         | OpenFOAM: The Open Source CFD Toolbox           |
|  \\    /   O peration     | Version:  v1912                                 |
|   \\  /    A nd           | Website:  www.openfoam.com                      |
|    \\/     M anipulation  |                                                 |
\*---------------------------------------------------------------------------*/
FoamFile
{
    version     2.0;
    format      ascii;
    class       volTensorField;
    location    "5.02";
    object      grad(U);
}
// * * * * * * * * * * * * * * * * * * * * * * * * * * * * * * * * * * * * * //

dimensions      [0 0 -1 0 0 0 0];


internalField   nonuniform List<tensor> 
1900
(
(-4.80056 2.60563e-05 0 1.21076e-06 1.68274e-05 0 0 0 0)
(4.48475 -6.94992e-05 0 -1.06335e-05 3.44746e-05 0 0 0 0)
(0.557978 -0.000215429 0 1.05078e-05 -0.000200484 0 0 0 0)
(0.0780687 -0.000322893 0 -0.000285813 -0.000449581 0 0 0 0)
(0.0919674 -0.000933081 0 -0.000593341 -0.000926869 0 0 0 0)
(0.0935094 -0.00140424 0 -0.00136793 -0.00235091 0 0 0 0)
(0.0916828 0.00296986 0 -0.00297429 -0.00338166 0 0 0 0)
(0.0883726 0.0156982 0 -0.000634763 0.00235157 0 0 0 0)
(0.0420508 0.0506475 0 0.0077879 0.0281882 0 0 0 0)
(0.0270778 0.169482 0 0.0596685 0.105287 0 0 0 0)
(-4.80057 2.52457e-05 0 3.13784e-06 -7.96476e-06 0 0 0 0)
(4.48476 -0.000147813 0 -2.24568e-05 -1.80915e-05 0 0 0 0)
(0.557703 -0.000268626 0 -4.65162e-05 6.15344e-05 0 0 0 0)
(0.0774648 -0.000403491 0 -0.00046785 0.000197338 0 0 0 0)
(0.0908853 -0.000968249 0 -0.000926888 0.000384428 0 0 0 0)
(0.0911284 -0.00105055 0 -0.0020765 0.00113042 0 0 0 0)
(0.092416 0.00173262 0 -0.00399329 0.00178867 0 0 0 0)
(0.0991348 0.0158717 0 -0.000490044 -0.00183944 0 0 0 0)
(0.102354 0.0522884 0 0.0122699 -0.0139095 0 0 0 0)
(0.146668 0.126627 0 0.0892898 -0.0524869 0 0 0 0)
(-4.80058 -1.05447e-12 0 -2.34188e-13 -1.77253e-05 0 0 0 0)
(4.4847 -1.34285e-12 0 5.00088e-14 -3.27661e-05 0 0 0 0)
(0.557533 2.61786e-12 0 -8.13287e-13 0.0002779 0 0 0 0)
(0.0771883 1.92069e-12 0 -5.10761e-13 0.000504487 0 0 0 0)
(0.0903588 -2.13171e-12 0 1.84856e-13 0.00108488 0 0 0 0)
(0.090443 -1.65359e-13 0 1.33357e-13 0.00244098 0 0 0 0)
(0.0932693 3.62155e-14 0 3.39491e-14 0.00318599 0 0 0 0)
(0.104636 -1.76489e-13 0 -1.69542e-13 -0.00102426 0 0 0 0)
(0.131831 -1.14982e-13 0 -2.38524e-14 -0.0285574 0 0 0 0)
(0.198853 1.43104e-13 0 1.87567e-13 -0.105601 0 0 0 0)
(-4.80057 -2.52457e-05 0 -3.13784e-06 -7.96476e-06 0 0 0 0)
(4.48476 0.000147813 0 2.24568e-05 -1.80915e-05 0 0 0 0)
(0.557703 0.000268626 0 4.65162e-05 6.15345e-05 0 0 0 0)
(0.0774648 0.000403491 0 0.00046785 0.000197338 0 0 0 0)
(0.0908853 0.000968249 0 0.000926888 0.000384428 0 0 0 0)
(0.0911284 0.00105055 0 0.0020765 0.00113042 0 0 0 0)
(0.092416 -0.00173262 0 0.00399329 0.00178867 0 0 0 0)
(0.0991348 -0.0158717 0 0.000490044 -0.00183944 0 0 0 0)
(0.102354 -0.0522884 0 -0.0122699 -0.0139095 0 0 0 0)
(0.146668 -0.126627 0 -0.0892898 -0.0524869 0 0 0 0)
(-4.80056 -2.60563e-05 0 -1.21076e-06 1.68274e-05 0 0 0 0)
(4.48475 6.94992e-05 0 1.06335e-05 3.44746e-05 0 0 0 0)
(0.557978 0.000215429 0 -1.05078e-05 -0.000200484 0 0 0 0)
(0.0780687 0.000322893 0 0.000285813 -0.000449581 0 0 0 0)
(0.0919674 0.000933081 0 0.000593341 -0.000926869 0 0 0 0)
(0.0935094 0.00140424 0 0.00136793 -0.00235091 0 0 0 0)
(0.0916828 -0.00296986 0 0.00297429 -0.00338166 0 0 0 0)
(0.0883726 -0.0156982 0 0.000634763 0.00235157 0 0 0 0)
(0.0420508 -0.0506475 0 -0.0077879 0.0281882 0 0 0 0)
(0.0270778 -0.169482 0 -0.0596685 0.105287 0 0 0 0)
(0.175074 0.333177 -1.8383e-17 0.224827 -0.189069 2.75745e-17 4.63497e-17 6.15243e-17 -4.98272e-33)
(0.46783 0.497194 0 0.293274 -0.404268 0 -1.39987e-16 -3.91343e-17 0)
(0.737868 0.885293 0 0.29285 -0.715244 0 -2.31199e-16 -7.18706e-17 0)
(1.35381 1.4388 0 0.332343 -1.33833 0 0 0 0)
(1.89161 1.71685 2.70754e-16 1.04073 -3.25639 -4.06131e-16 -2.03204e-15 -1.35469e-15 -7.3388e-32)
(0.244538 0.12611 0 0.178555 -0.169644 0 8.6976e-17 2.73595e-17 0)
(0.391075 0.128361 0 0.156751 -0.271283 0 1.39987e-16 3.91343e-17 0)
(0.663453 0.355348 0 0.0751235 -0.523675 0 2.31199e-16 7.18706e-17 0)
(1.48424 0.759524 0 -0.0629847 -1.1321 0 0 0 0)
(2.84481 0.4918 0 -0.205047 -2.62469 0 0 0 0)
(0.306456 1.2671e-14 0 5.7942e-14 -0.266345 0 0 0 0)
(0.426219 2.44822e-13 0 2.67484e-15 -0.323716 0 0 0 0)
(0.668067 1.48548e-13 0 1.90112e-13 -0.543584 0 0 0 0)
(1.41268 -1.19403e-13 0 -3.4908e-14 -1.1767 0 0 0 0)
(2.59746 1.35697e-13 0 9.68038e-14 -3.23167 0 0 0 0)
(0.244538 -0.12611 0 -0.178555 -0.169644 0 8.6976e-17 -2.73595e-17 0)
(0.391075 -0.128361 0 -0.156751 -0.271283 0 1.39987e-16 -3.91343e-17 0)
(0.663453 -0.355348 0 -0.0751235 -0.523675 0 2.31199e-16 -7.18706e-17 0)
(1.48424 -0.759524 0 0.0629847 -1.1321 0 0 0 0)
(2.84481 -0.4918 0 0.205047 -2.62469 0 0 0 0)
(0.175074 -0.333177 1.8383e-17 -0.224827 -0.189069 2.75745e-17 -2.20302e-16 1.16243e-16 -4.98272e-33)
(0.46783 -0.497194 0 -0.293274 -0.404268 0 -1.39987e-16 3.91343e-17 0)
(0.737868 -0.885293 0 -0.29285 -0.715244 0 -2.31199e-16 7.18706e-17 0)
(1.35381 -1.4388 9.57213e-17 -0.332343 -1.33833 1.43582e-16 -8.29085e-16 5.52723e-16 -2.59453e-32)
(1.89161 -1.71685 -2.70754e-16 -1.04073 -3.25639 -4.06131e-16 2.03204e-15 -1.35469e-15 -7.3388e-32)
(1.74399 -0.729062 -1.29576e-17 0.167394 3.24716 -1.16619e-16 1.73731e-15 -9.46807e-17 3.51217e-33)
(0.0140769 -0.20857 3.76066e-18 0.617381 1.31378 3.3846e-17 -1.50934e-15 1.26071e-16 1.01933e-33)
(0.0674007 0.0417815 0 0.457965 0.976383 0 0 0 0)
(0.316853 0.0832893 -1.96431e-18 0.333802 0.90495 -1.76788e-17 1.16062e-15 -1.00587e-16 5.32428e-34)
(0.522206 -0.454988 2.25014e-18 0.305806 0.936886 2.02513e-17 -5.43541e-16 6.03935e-17 6.09902e-34)
(1.99998 -0.761349 0 -0.18755 -0.338372 0 -8.71176e-16 -1.55654e-18 0)
(0.183003 -0.0785744 0 0.610536 0.813054 0 7.63965e-16 -4.32523e-17 0)
(0.0167503 0.0419949 0 0.341962 0.832281 0 0 0 0)
(0.278373 0.0417857 0 0.15947 0.767705 0 -7.32871e-16 4.00526e-17 0)
(0.707711 -0.149469 0 0.147489 0.666444 0 1.39298e-16 -3.02661e-18 0)
(1.97178 1.89941e-14 0 6.57092e-14 0.573376 0 0 0 0)
(0.117915 -6.12334e-14 0 -2.03867e-13 1.2462 0 0 0 0)
(-0.0840376 1.11644e-14 0 7.62957e-14 1.08443 0 0 0 0)
(0.237319 2.83173e-13 0 2.90538e-13 0.89953 0 2.9507e-16 2.3022e-30 0)
(0.650502 1.52525e-12 0 5.70633e-14 0.803968 0 -2.78597e-16 -1.77678e-29 0)
(1.99998 0.761349 0 0.18755 -0.338372 0 -8.71176e-16 1.55654e-18 0)
(0.183003 0.0785744 0 -0.610536 0.813054 0 7.63965e-16 4.32523e-17 0)
(0.0167503 -0.0419949 0 -0.341962 0.832281 0 0 0 0)
(0.278373 -0.0417857 0 -0.15947 0.767705 0 -7.32871e-16 -4.00526e-17 0)
(0.707711 0.149469 0 -0.147489 0.666444 0 1.39298e-16 3.02661e-18 0)
(1.74399 0.729062 0 -0.167394 3.24716 0 8.71176e-16 -1.55654e-18 0)
(0.0140769 0.20857 -3.76066e-18 -0.617381 1.31378 3.3846e-17 -1.85935e-17 3.95668e-17 1.01933e-33)
(0.0674007 -0.0417815 0 -0.457965 0.976383 0 0 0 0)
(0.316853 -0.0832893 1.96431e-18 -0.333802 0.90495 -1.76788e-17 1.0053e-17 -2.72541e-17 5.32428e-34)
(0.522206 0.454988 -2.25014e-18 -0.305806 0.936886 2.02513e-17 5.43541e-16 6.03935e-17 6.09902e-34)
(0.468083 -0.508011 0 4.66685 1.83118 0 0 0 0)
(-0.835372 0.0917028 0 4.65641 1.7694 0 0 0 0)
(-1.95657 -0.0566078 0 4.12345 1.60741 0 0 0 0)
(-1.68724 0.0193481 0 2.72435 1.5865 0 0 0 0)
(-1.13041 0.385562 0 1.33998 1.1905 0 0 0 0)
(-0.631519 0.36138 0 0.326971 0.751866 0 0 0 0)
(-0.363535 0.151638 0 0.0980524 0.511128 0 0 0 0)
(-0.169322 0.0534787 0 0.0410286 0.397573 0 0 0 0)
(-0.0855764 0.0250782 0 0.021744 0.342199 0 0 0 0)
(-0.0665708 0.0174914 0 0.0105893 0.309009 0 0 0 0)
(-0.0443807 0.0152787 0 0.00890968 0.281809 0 0 0 0)
(0.0121742 0.00873407 0 0.00183373 0.261338 0 0 0 0)
(0.0878571 0.00245555 0 -0.00249551 0.253879 0 0 0 0)
(0.147148 0.000937768 0 -0.003045 0.250869 0 0 0 0)
(0.177129 0.000762032 0 -0.00250573 0.249356 0 0 0 0)
(0.190063 0.000772745 0 -0.00183291 0.247956 0 0 0 0)
(0.197378 0.00073053 0 -0.0012888 0.246634 0 0 0 0)
(0.203618 0.000586334 0 -0.000869465 0.245463 0 0 0 0)
(0.209191 0.000171297 0 -0.000470438 0.244644 0 0 0 0)
(0.21368 8.02677e-05 0 -3.89583e-05 0.244861 0 0 0 0)
(0.217668 0.00046992 0 0.000423332 0.244349 0 0 0 0)
(0.221075 0.000395555 0 0.00089043 0.24323 0 0 0 0)
(0.223296 7.94246e-05 0 0.00133765 0.24298 0 0 0 0)
(0.224646 -5.75786e-06 0 0.00176739 0.242958 0 0 0 0)
(0.225618 -3.9474e-05 0 0.00218143 0.243007 0 0 0 0)
(0.226223 -9.91641e-05 0 0.00257382 0.243101 0 0 0 0)
(0.226714 -2.13275e-05 0 0.00294976 0.243362 0 0 0 0)
(0.226082 -0.000258444 0 0.00330097 0.243178 0 0 0 0)
(0.223398 0.000100187 0 0.00358568 0.244255 0 0 0 0)
(0.219192 -0.000388947 0 0.00381539 0.242846 0 0 0 0)
(0.211336 1.077e-05 0 0.00384747 0.245536 0 0 0 0)
(0.202577 -0.000476173 0 0.00361513 0.242869 0 0 0 0)
(0.192335 -8.35717e-05 0 0.00323501 0.247158 0 0 0 0)
(0.18244 -0.00203114 0 0.00233856 0.243322 0 0 0 0)
(0.170045 0.00145701 0 0.00150796 0.253709 0 0 0 0)
(0.157724 -0.00416418 0 -0.00101997 0.239116 0 0 0 0)
(0.112122 0.000654541 0 -0.000585328 0.267854 0 0 0 0)
(-0.020017 -0.00659437 0 -0.0137542 0.235453 0 0 0 0)
(1.62698 -0.0214826 0 1.58898e-05 0.29943 0 0 0 0)
(1.68173 -0.00537907 0 -0.0368618 0.303897 0 0 0 0)
(0.92739 -0.196343 0 0.559996 2.15049 0 0 0 0)
(-0.459375 -0.0638208 0 1.84665 2.04978 0 0 0 0)
(-2.00014 -0.113814 0 2.63997 1.83526 0 0 0 0)
(-2.05485 0.00594782 0 2.23517 2.24437 0 0 0 0)
(-1.52503 0.245791 0 1.2244 1.76875 0 0 0 0)
(-0.855505 0.232682 0 0.248743 0.918998 0 0 0 0)
(-0.413802 0.0878842 0 0.0043178 0.526507 0 0 0 0)
(-0.176961 0.0267208 0 -0.0135807 0.397744 0 0 0 0)
(-0.0878112 0.0119098 0 -0.0114335 0.342674 0 0 0 0)
(-0.0676729 0.00868674 0 -0.0113555 0.311538 0 0 0 0)
(-0.0447794 0.0077459 0 -0.0104241 0.282547 0 0 0 0)
(0.0120666 0.00419608 0 -0.0115758 0.259017 0 0 0 0)
(0.088337 0.00110208 0 -0.0107422 0.252524 0 0 0 0)
(0.147771 0.000422442 0 -0.00897257 0.250576 0 0 0 0)
(0.177729 0.000364478 0 -0.00729554 0.2493 0 0 0 0)
(0.190655 0.000385145 0 -0.00575407 0.247957 0 0 0 0)
(0.197945 0.000364834 0 -0.00433582 0.246644 0 0 0 0)
(0.204161 0.000289531 0 -0.00303327 0.245445 0 0 0 0)
(0.209726 7.97566e-05 0 -0.00179433 0.244629 0 0 0 0)
(0.214213 3.65249e-05 0 -0.000578591 0.244857 0 0 0 0)
(0.218194 0.000232419 0 0.000620619 0.244353 0 0 0 0)
(0.221588 0.000195731 0 0.00180272 0.243241 0 0 0 0)
(0.223794 3.808e-05 0 0.00296697 0.242993 0 0 0 0)
(0.225128 -4.30429e-06 0 0.00412443 0.242968 0 0 0 0)
(0.226081 -2.13984e-05 0 0.00528649 0.243013 0 0 0 0)
(0.226662 -5.12654e-05 0 0.00646002 0.243104 0 0 0 0)
(0.22713 -1.23647e-05 0 0.00764796 0.243354 0 0 0 0)
(0.226467 -0.000130339 0 0.00888743 0.243177 0 0 0 0)
(0.223742 5.02298e-05 0 0.0101613 0.244242 0 0 0 0)
(0.219482 -0.000192273 0 0.011508 0.242833 0 0 0 0)
(0.211547 2.14065e-05 0 0.0129397 0.245579 0 0 0 0)
(0.202711 -0.000210309 0 0.0145339 0.242796 0 0 0 0)
(0.192395 1.91381e-05 0 0.0165992 0.247216 0 0 0 0)
(0.182464 -0.000946816 0 0.0192313 0.243083 0 0 0 0)
(0.169779 0.000828188 0 0.0230477 0.254198 0 0 0 0)
(0.157677 -0.00192006 0 0.0261947 0.238075 0 0 0 0)
(0.111192 0.0004299 0 0.0340581 0.268512 0 0 0 0)
(-0.0193446 -0.00382665 0 0.0341935 0.235825 0 0 0 0)
(1.6231 -0.00991154 0 0.0416243 0.291181 0 0 0 0)
(1.67602 -0.00131154 0 0.0560435 0.309671 0 0 0 0)
(0.991066 9.90254e-13 0 1.89243e-12 1.72614 0 0 0 0)
(-0.230289 -9.3514e-12 0 4.2343e-12 1.90457 0 0 0 0)
(-1.84355 -9.64497e-12 0 -3.52504e-11 2.1649 0 0 0 0)
(-2.09904 1.47994e-12 0 -6.23811e-11 2.68704 0 0 0 0)
(-1.70828 2.12566e-13 0 -5.59261e-11 2.12401 0 0 0 0)
(-0.986452 9.74778e-12 0 -1.86785e-11 0.997225 0 0 0 0)
(-0.439848 1.90797e-11 0 -2.8547e-11 0.524324 0 0 0 0)
(-0.173904 5.34548e-12 0 -5.24754e-11 0.393022 0 0 0 0)
(-0.084929 -4.08023e-12 0 -5.48128e-11 0.340618 0 0 0 0)
(-0.0662772 -3.02526e-12 0 -4.5705e-11 0.311142 0 0 0 0)
(-0.0444448 -5.6699e-12 0 -3.17316e-11 0.280897 0 0 0 0)
(0.0120817 -8.65151e-13 0 -4.17881e-11 0.257889 0 0 0 0)
(0.0886145 1.1088e-11 0 -6.46288e-11 0.252049 0 0 0 0)
(0.148151 1.98482e-11 0 -8.61054e-11 0.250312 0 0 0 0)
(0.178065 2.29771e-11 0 -9.4466e-11 0.249145 0 0 0 0)
(0.190924 5.44513e-12 0 -8.39567e-11 0.247806 0 0 0 0)
(0.198169 -3.81287e-11 0 -5.64342e-11 0.246497 0 0 0 0)
(0.204357 -8.10839e-11 0 -1.92209e-11 0.245298 0 0 0 0)
(0.209905 -4.48361e-11 0 1.37787e-11 0.244506 0 0 0 0)
(0.214383 4.22684e-11 0 3.9414e-11 0.24475 0 0 0 0)
(0.218361 8.82849e-11 0 6.13073e-11 0.244255 0 0 0 0)
(0.221757 3.06542e-11 0 8.08783e-11 0.243152 0 0 0 0)
(0.223971 -8.60232e-11 0 9.12538e-11 0.24291 0 0 0 0)
(0.225321 -1.12769e-10 0 8.24408e-11 0.24289 0 0 0 0)
(0.226297 -3.72906e-11 0 5.56048e-11 0.242939 0 0 0 0)
(0.22691 3.29805e-11 0 2.75841e-11 0.243037 0 0 0 0)
(0.227421 8.42669e-11 0 1.11407e-11 0.243292 0 0 0 0)
(0.226813 7.32916e-11 0 4.8385e-12 0.243122 0 0 0 0)
(0.22416 2.68456e-11 0 -1.00338e-11 0.244188 0 0 0 0)
(0.220001 3.85101e-11 0 -5.07574e-11 0.242777 0 0 0 0)
(0.212216 -3.47698e-11 0 -1.30102e-10 0.24551 0 0 0 0)
(0.203642 -3.46814e-11 0 -2.34872e-10 0.242629 0 0 0 0)
(0.193701 5.77617e-11 0 -3.42768e-10 0.246955 0 0 0 0)
(0.184316 -2.51937e-11 0 -4.45231e-10 0.242498 0 0 0 0)
(0.17207 -7.00205e-11 0 -4.792e-10 0.253465 0 0 0 0)
(0.160927 3.86426e-11 0 -4.45073e-10 0.236804 0 0 0 0)
(0.114449 4.31032e-11 0 -3.45105e-10 0.266665 0 0 0 0)
(-0.017816 -4.22164e-11 0 -2.22853e-10 0.233849 0 0 0 0)
(1.63334 -6.69282e-11 0 -9.26027e-11 0.292974 0 0 0 0)
(1.68592 -3.30798e-11 0 2.40969e-11 0.30199 0 0 0 0)
(0.92739 0.196343 0 -0.559996 2.15049 0 0 0 0)
(-0.459375 0.0638208 0 -1.84665 2.04978 0 0 0 0)
(-2.00014 0.113814 0 -2.63997 1.83526 0 0 0 0)
(-2.05485 -0.00594782 0 -2.23517 2.24437 0 0 0 0)
(-1.52503 -0.245791 0 -1.2244 1.76875 0 0 0 0)
(-0.855505 -0.232682 0 -0.248743 0.918998 0 0 0 0)
(-0.413802 -0.0878842 0 -0.0043178 0.526507 0 0 0 0)
(-0.176961 -0.0267208 0 0.0135807 0.397744 0 0 0 0)
(-0.0878112 -0.0119098 0 0.0114335 0.342674 0 0 0 0)
(-0.0676729 -0.00868674 0 0.0113555 0.311538 0 0 0 0)
(-0.0447794 -0.0077459 0 0.0104241 0.282547 0 0 0 0)
(0.0120666 -0.00419608 0 0.0115758 0.259017 0 0 0 0)
(0.088337 -0.00110208 0 0.0107422 0.252524 0 0 0 0)
(0.147771 -0.000422442 0 0.00897257 0.250576 0 0 0 0)
(0.177729 -0.000364478 0 0.00729554 0.2493 0 0 0 0)
(0.190655 -0.000385145 0 0.00575407 0.247957 0 0 0 0)
(0.197945 -0.000364834 0 0.00433582 0.246644 0 0 0 0)
(0.204161 -0.000289531 0 0.00303327 0.245445 0 0 0 0)
(0.209726 -7.97566e-05 0 0.00179433 0.244629 0 0 0 0)
(0.214213 -3.65248e-05 0 0.000578591 0.244857 0 0 0 0)
(0.218194 -0.000232419 0 -0.000620619 0.244353 0 0 0 0)
(0.221588 -0.000195731 0 -0.00180272 0.243241 0 0 0 0)
(0.223794 -3.80802e-05 0 -0.00296697 0.242993 0 0 0 0)
(0.225128 4.30406e-06 0 -0.00412443 0.242968 0 0 0 0)
(0.226081 2.13983e-05 0 -0.00528648 0.243013 0 0 0 0)
(0.226662 5.12654e-05 0 -0.00646002 0.243104 0 0 0 0)
(0.22713 1.23649e-05 0 -0.00764796 0.243354 0 0 0 0)
(0.226467 0.000130339 0 -0.00888743 0.243177 0 0 0 0)
(0.223742 -5.02297e-05 0 -0.0101613 0.244242 0 0 0 0)
(0.219482 0.000192274 0 -0.011508 0.242833 0 0 0 0)
(0.211547 -2.14066e-05 0 -0.0129397 0.245579 0 0 0 0)
(0.202711 0.000210308 0 -0.0145339 0.242796 0 0 0 0)
(0.192395 -1.9138e-05 0 -0.0165992 0.247216 0 0 0 0)
(0.182464 0.000946816 0 -0.0192313 0.243083 0 0 0 0)
(0.169779 -0.000828188 0 -0.0230477 0.254198 0 0 0 0)
(0.157677 0.00192006 0 -0.0261947 0.238075 0 0 0 0)
(0.111192 -0.0004299 0 -0.0340581 0.268512 0 0 0 0)
(-0.0193446 0.00382665 0 -0.0341935 0.235825 0 0 0 0)
(1.6231 0.00991154 0 -0.0416243 0.291181 0 0 0 0)
(1.67602 0.00131154 0 -0.0560435 0.309671 0 0 0 0)
(0.468083 0.508011 0 -4.66685 1.83118 0 0 0 0)
(-0.835372 -0.0917028 0 -4.65641 1.7694 0 0 0 0)
(-1.95657 0.0566078 0 -4.12345 1.60741 0 0 0 0)
(-1.68724 -0.0193481 0 -2.72435 1.5865 0 0 0 0)
(-1.13041 -0.385562 0 -1.33998 1.1905 0 0 0 0)
(-0.631519 -0.36138 0 -0.326971 0.751866 0 0 0 0)
(-0.363535 -0.151638 0 -0.0980524 0.511128 0 0 0 0)
(-0.169322 -0.0534787 0 -0.0410286 0.397573 0 0 0 0)
(-0.0855764 -0.0250782 0 -0.021744 0.342199 0 0 0 0)
(-0.0665708 -0.0174914 0 -0.0105893 0.309009 0 0 0 0)
(-0.0443807 -0.0152787 0 -0.00890968 0.281809 0 0 0 0)
(0.0121742 -0.00873407 0 -0.00183373 0.261338 0 0 0 0)
(0.0878571 -0.00245555 0 0.00249551 0.253879 0 0 0 0)
(0.147148 -0.000937768 0 0.003045 0.250869 0 0 0 0)
(0.177129 -0.000762032 0 0.00250573 0.249356 0 0 0 0)
(0.190063 -0.000772745 0 0.00183291 0.247956 0 0 0 0)
(0.197378 -0.00073053 0 0.0012888 0.246634 0 0 0 0)
(0.203618 -0.000586334 0 0.000869465 0.245463 0 0 0 0)
(0.209191 -0.000171297 0 0.000470438 0.244644 0 0 0 0)
(0.21368 -8.02677e-05 0 3.8958e-05 0.244861 0 0 0 0)
(0.217668 -0.00046992 0 -0.000423332 0.244349 0 0 0 0)
(0.221075 -0.000395555 0 -0.00089043 0.24323 0 0 0 0)
(0.223296 -7.94247e-05 0 -0.00133765 0.24298 0 0 0 0)
(0.224646 5.75764e-06 0 -0.00176739 0.242958 0 0 0 0)
(0.225618 3.94739e-05 0 -0.00218143 0.243007 0 0 0 0)
(0.226223 9.91642e-05 0 -0.00257383 0.243101 0 0 0 0)
(0.226714 2.13277e-05 0 -0.00294976 0.243362 0 0 0 0)
(0.226082 0.000258444 0 -0.00330097 0.243178 0 0 0 0)
(0.223398 -0.000100187 0 -0.00358568 0.244255 0 0 0 0)
(0.219192 0.000388947 0 -0.00381539 0.242846 0 0 0 0)
(0.211336 -1.077e-05 0 -0.00384747 0.245536 0 0 0 0)
(0.202577 0.000476173 0 -0.00361513 0.242869 0 0 0 0)
(0.192335 8.35719e-05 0 -0.00323501 0.247158 0 0 0 0)
(0.18244 0.00203114 0 -0.00233856 0.243322 0 0 0 0)
(0.170045 -0.00145701 0 -0.00150795 0.253709 0 0 0 0)
(0.157724 0.00416418 0 0.00101997 0.239116 0 0 0 0)
(0.112122 -0.000654541 0 0.000585329 0.267854 0 0 0 0)
(-0.020017 0.00659437 0 0.0137542 0.235453 0 0 0 0)
(1.62698 0.0214826 0 -1.58893e-05 0.29943 0 0 0 0)
(1.68173 0.00537907 0 0.0368618 0.303897 0 0 0 0)
(0.758884 0.0510831 0 -6.5593 0.363485 0 0 0 0)
(0.316234 0.10328 0 -5.05157 0.879349 0 0 0 0)
(-0.838594 0.0652286 0 -3.52622 1.2794 0 0 0 0)
(-0.733908 -0.251969 0 -2.01606 1.00974 0 0 0 0)
(-0.477488 -0.607722 0 -0.992083 0.741126 0 0 0 0)
(-0.335464 -0.510029 0 -0.385883 0.573579 0 0 0 0)
(-0.292559 -0.236408 0 -0.200818 0.461613 0 0 0 0)
(-0.137928 -0.101747 0 -0.0930894 0.382751 0 0 0 0)
(-0.0713015 -0.0522372 0 -0.0589718 0.333718 0 0 0 0)
(-0.0608966 -0.0363873 0 -0.0427344 0.300574 0 0 0 0)
(-0.0397483 -0.0289389 0 -0.0360408 0.276478 0 0 0 0)
(0.0190963 -0.0164692 0 -0.0215233 0.261393 0 0 0 0)
(0.0919521 -0.00610405 0 -0.00960617 0.254309 0 0 0 0)
(0.148497 -0.00266374 0 -0.00547366 0.250633 0 0 0 0)
(0.177664 -0.00173203 0 -0.00454874 0.248838 0 0 0 0)
(0.190577 -0.00164429 0 -0.00407624 0.247365 0 0 0 0)
(0.197996 -0.00150567 0 -0.00339728 0.246056 0 0 0 0)
(0.204276 -0.00119469 0 -0.00256309 0.244944 0 0 0 0)
(0.209824 -0.00035166 0 -0.00173977 0.24417 0 0 0 0)
(0.214268 -0.000170916 0 -0.000995609 0.244413 0 0 0 0)
(0.218219 -0.000980706 0 -0.000340343 0.243914 0 0 0 0)
(0.221608 -0.000823494 0 0.000265891 0.242802 0 0 0 0)
(0.223819 -0.00016136 0 0.000863862 0.242557 0 0 0 0)
(0.225155 1.94353e-05 0 0.00144543 0.242545 0 0 0 0)
(0.22611 9.04191e-05 0 0.00200185 0.242601 0 0 0 0)
(0.226688 0.000218907 0 0.00253084 0.242703 0 0 0 0)
(0.227154 5.02711e-05 0 0.00300761 0.242982 0 0 0 0)
(0.226513 0.000542111 0 0.0034457 0.242781 0 0 0 0)
(0.223817 -0.000200626 0 0.00388198 0.243874 0 0 0 0)
(0.219653 0.000768534 0 0.00428254 0.24246 0 0 0 0)
(0.211917 -1.95606e-05 0 0.00485076 0.245022 0 0 0 0)
(0.20325 0.000920105 0 0.00566093 0.242433 0 0 0 0)
(0.193265 0.000146636 0 0.00645397 0.246365 0 0 0 0)
(0.183575 0.00380255 0 0.00799771 0.242599 0 0 0 0)
(0.171578 -0.00273981 0 0.00906491 0.251538 0 0 0 0)
(0.158937 0.00819818 0 0.0119425 0.239367 0 0 0 0)
(0.118105 -0.00246791 0 0.0112796 0.263108 0 0 0 0)
(-0.0189442 0.0204332 0 0.0321089 0.233951 0 0 0 0)
(1.63312 0.0394659 0 0.0103432 0.310718 0 0 0 0)
(1.69254 -0.000589346 0 -0.00680197 0.298243 0 0 0 0)
(1.31902 0.424707 0 -3.36937 -0.310686 0 0 0 0)
(1.46988 0.686355 0 -2.9223 0.258083 0 0 0 0)
(0.369057 0.177631 0 -2.13009 0.480558 0 0 0 0)
(0.243549 -0.413314 0 -1.25758 0.340206 0 0 0 0)
(0.0903691 -0.68673 0 -0.730884 0.265316 0 0 0 0)
(-0.0277817 -0.551018 0 -0.46539 0.371772 0 0 0 0)
(-0.119448 -0.29007 0 -0.247241 0.383231 0 0 0 0)
(-0.049469 -0.15084 0 -0.127129 0.352674 0 0 0 0)
(-0.0447071 -0.0897037 0 -0.0771909 0.319448 0 0 0 0)
(-0.0475164 -0.0625172 0 -0.0608973 0.289568 0 0 0 0)
(-0.026425 -0.0457097 0 -0.0446461 0.270987 0 0 0 0)
(0.0339358 -0.0259495 0 -0.0258285 0.259523 0 0 0 0)
(0.101127 -0.0108676 0 -0.0105189 0.253664 0 0 0 0)
(0.151298 -0.00528396 0 -0.00470703 0.250116 0 0 0 0)
(0.178188 -0.00339137 0 -0.00351969 0.24793 0 0 0 0)
(0.190897 -0.00298639 0 -0.00326619 0.246338 0 0 0 0)
(0.198505 -0.0026481 0 -0.00285139 0.245047 0 0 0 0)
(0.204862 -0.00207799 0 -0.00225994 0.243963 0 0 0 0)
(0.210362 -0.000586023 0 -0.00168217 0.243229 0 0 0 0)
(0.214714 -0.000278049 0 -0.00120322 0.243502 0 0 0 0)
(0.218588 -0.00174834 0 -0.000842624 0.243018 0 0 0 0)
(0.221949 -0.00147337 0 -0.000543004 0.241911 0 0 0 0)
(0.224152 -0.000283587 0 -0.00024344 0.241671 0 0 0 0)
(0.22547 4.07428e-05 0 3.91366e-05 0.241669 0 0 0 0)
(0.2264 0.000164714 0 0.000288716 0.241732 0 0 0 0)
(0.226943 0.000402205 0 0.000500176 0.241833 0 0 0 0)
(0.22736 8.13668e-05 0 0.000652382 0.242132 0 0 0 0)
(0.226693 0.000965628 0 0.000720361 0.24189 0 0 0 0)
(0.22398 -0.000355867 0 0.000790498 0.24301 0 0 0 0)
(0.219879 0.0012913 0 0.000808187 0.241598 0 0 0 0)
(0.212352 -3.19095e-05 0 0.00102948 0.244002 0 0 0 0)
(0.203761 0.00153215 0 0.00156439 0.241713 0 0 0 0)
(0.194088 0.000209566 0 0.00197585 0.245153 0 0 0 0)
(0.184347 0.00606637 0 0.00319244 0.241965 0 0 0 0)
(0.173023 -0.00388369 0 0.00334071 0.24918 0 0 0 0)
(0.159208 0.0131503 0 0.00591193 0.240639 0 0 0 0)
(0.128347 -0.00490142 0 0.00404234 0.257546 0 0 0 0)
(-0.0214948 0.0450528 0 0.0267155 0.237095 0 0 0 0)
(1.5862 0.073794 0 0.00537465 0.299465 0 0 0 0)
(1.65941 -0.00344186 0 -0.0111274 0.309873 0 0 0 0)
(1.1897 0.59917 0 -0.853985 -0.0703085 0 0 0 0)
(1.51045 0.865752 0 -1.08691 0.0334538 0 0 0 0)
(0.765589 0.144365 0 -0.889762 -0.00348924 0 0 0 0)
(0.614416 -0.459384 0 -0.675455 -0.0592142 0 0 0 0)
(0.285897 -0.577304 0 -0.468997 0.0384998 0 0 0 0)
(0.130592 -0.396402 0 -0.419439 0.228467 0 0 0 0)
(0.0334016 -0.254811 0 -0.224385 0.315265 0 0 0 0)
(0.0259389 -0.16321 0 -0.156301 0.310624 0 0 0 0)
(-0.00747822 -0.113048 0 -0.0954429 0.299377 0 0 0 0)
(-0.0295353 -0.0830865 0 -0.080617 0.276784 0 0 0 0)
(-0.00595467 -0.0578911 0 -0.0537782 0.264708 0 0 0 0)
(0.0519825 -0.0331619 0 -0.0311646 0.257057 0 0 0 0)
(0.112305 -0.015169 0 -0.0138909 0.252578 0 0 0 0)
(0.155242 -0.00819003 0 -0.0065881 0.249233 0 0 0 0)
(0.179052 -0.00537289 0 -0.00460043 0.246808 0 0 0 0)
(0.191221 -0.00442184 0 -0.00402148 0.245109 0 0 0 0)
(0.198965 -0.00379391 0 -0.0034508 0.243823 0 0 0 0)
(0.205402 -0.00294686 0 -0.00274959 0.242766 0 0 0 0)
(0.210842 -0.000795943 0 -0.00209361 0.242069 0 0 0 0)
(0.215077 -0.000374072 0 -0.00156533 0.242364 0 0 0 0)
(0.218855 -0.00251416 0 -0.001183 0.241885 0 0 0 0)
(0.222186 -0.00212144 0 -0.000872052 0.240773 0 0 0 0)
(0.22438 -0.000394971 0 -0.000554051 0.240533 0 0 0 0)
(0.225668 7.81997e-05 0 -0.000260846 0.240542 0 0 0 0)
(0.226554 0.000248837 0 -1.87309e-05 0.240613 0 0 0 0)
(0.227039 0.000604674 0 0.000168605 0.240707 0 0 0 0)
(0.227367 0.000104917 0 0.000285316 0.241039 0 0 0 0)
(0.226647 0.0013882 0 0.000254177 0.240727 0 0 0 0)
(0.223902 -0.000481678 0 0.000242235 0.241892 0 0 0 0)
(0.219883 0.00172439 0 0.000161228 0.240487 0 0 0 0)
(0.212645 9.15004e-05 0 0.00035306 0.242659 0 0 0 0)
(0.204162 0.00202841 0 0.000969261 0.240863 0 0 0 0)
(0.194833 0.000389157 0 0.00139423 0.243579 0 0 0 0)
(0.18489 0.00768359 0 0.0027488 0.241293 0 0 0 0)
(0.174199 -0.00401791 0 0.00268219 0.246394 0 0 0 0)
(0.159613 0.0162598 0 0.00555233 0.241594 0 0 0 0)
(0.138152 -0.00588294 0 0.00421476 0.25165 0 0 0 0)
(-0.0176603 0.0608283 0 0.0241855 0.240555 0 0 0 0)
(1.59665 0.109597 0 -0.00012337 0.282017 0 0 0 0)
(1.67664 0.00943963 0 -0.0125103 0.285633 0 0 0 0)
(1.09457 0.524696 0 -0.195042 0.138018 0 0 0 0)
(1.43541 0.750745 0 -0.273355 -0.0175509 0 0 0 0)
(0.765549 0.0883325 0 -0.267842 -0.11739 0 0 0 0)
(0.649014 -0.372852 0 -0.392791 -0.155515 0 0 0 0)
(0.337076 -0.40951 0 -0.317244 0.0898453 0 0 0 0)
(0.207935 -0.284317 0 -0.324574 0.187631 0 0 0 0)
(0.134121 -0.2109 0 -0.204502 0.269409 0 0 0 0)
(0.0747844 -0.16615 0 -0.160522 0.273073 0 0 0 0)
(0.0282247 -0.122314 0 -0.115237 0.273511 0 0 0 0)
(-0.00736678 -0.0959261 0 -0.0935321 0.262268 0 0 0 0)
(0.0212291 -0.064719 0 -0.0619828 0.256094 0 0 0 0)
(0.0723726 -0.0376378 0 -0.0354842 0.25323 0 0 0 0)
(0.12481 -0.018407 0 -0.0176857 0.250241 0 0 0 0)
(0.160251 -0.0108447 0 -0.00951513 0.247587 0 0 0 0)
(0.180661 -0.00736568 0 -0.0066948 0.245314 0 0 0 0)
(0.192005 -0.00586256 0 -0.00552002 0.243685 0 0 0 0)
(0.199731 -0.00490596 0 -0.00455934 0.242443 0 0 0 0)
(0.20617 -0.00376803 0 -0.00359204 0.241462 0 0 0 0)
(0.211503 -0.000973125 0 -0.00274139 0.24082 0 0 0 0)
(0.215591 -0.000455504 0 -0.00205196 0.241148 0 0 0 0)
(0.219256 -0.00328153 0 -0.00152956 0.240675 0 0 0 0)
(0.222555 -0.00277657 0 -0.00108509 0.239549 0 0 0 0)
(0.224741 -0.000506212 0 -0.000626417 0.239292 0 0 0 0)
(0.225986 0.000118497 0 -0.000202436 0.239295 0 0 0 0)
(0.226814 0.000323662 0 0.000151358 0.239345 0 0 0 0)
(0.227236 0.000811895 0 0.000440717 0.239394 0 0 0 0)
(0.227443 0.000100639 0 0.000670657 0.239736 0 0 0 0)
(0.226652 0.00178798 0 0.000678329 0.2393 0 0 0 0)
(0.22389 -0.000586877 0 0.000747597 0.240478 0 0 0 0)
(0.219986 0.00203072 0 0.000761064 0.239051 0 0 0 0)
(0.213131 0.000330249 0 0.00113085 0.240896 0 0 0 0)
(0.204764 0.00241857 0 0.00205553 0.239584 0 0 0 0)
(0.195803 0.000623197 0 0.00278133 0.241545 0 0 0 0)
(0.185588 0.0087785 0 0.00454071 0.240078 0 0 0 0)
(0.175725 -0.00359345 0 0.0048213 0.243412 0 0 0 0)
(0.160685 0.018216 0 0.00820597 0.240928 0 0 0 0)
(0.146303 -0.00590269 0 0.00786792 0.245763 0 0 0 0)
(-0.0256752 0.0743151 0 0.0249997 0.241351 0 0 0 0)
(1.55083 0.117233 0 -0.00493087 0.278722 0 0 0 0)
(1.64747 4.25955e-05 0 -0.0356936 0.282039 0 0 0 0)
(1.11423 0.449258 0 -0.0590243 0.203401 0 0 0 0)
(1.4403 0.619631 0 -0.0364207 0.0157713 0 0 0 0)
(0.650496 0.0114183 0 -0.0687804 -0.0739439 0 0 0 0)
(0.56681 -0.259684 0 -0.251276 -0.0911579 0 0 0 0)
(0.351633 -0.246636 0 -0.235658 0.138376 0 0 0 0)
(0.239235 -0.223368 0 -0.225631 0.186817 0 0 0 0)
(0.191488 -0.172477 0 -0.18378 0.235501 0 0 0 0)
(0.111958 -0.159257 0 -0.143369 0.249611 0 0 0 0)
(0.0570756 -0.123461 0 -0.124255 0.250167 0 0 0 0)
(0.0217821 -0.0998698 0 -0.0936858 0.249648 0 0 0 0)
(0.0499824 -0.0665996 0 -0.0635073 0.248296 0 0 0 0)
(0.0946688 -0.038802 0 -0.0360152 0.249123 0 0 0 0)
(0.13733 -0.0206075 0 -0.0193887 0.247443 0 0 0 0)
(0.165833 -0.0129383 0 -0.0113973 0.245478 0 0 0 0)
(0.182902 -0.00913231 0 -0.00821176 0.243536 0 0 0 0)
(0.193279 -0.00718835 0 -0.00662871 0.242095 0 0 0 0)
(0.200823 -0.00593616 0 -0.00537049 0.240955 0 0 0 0)
(0.207154 -0.00451013 0 -0.00422666 0.240078 0 0 0 0)
(0.212326 -0.0010987 0 -0.00326743 0.239513 0 0 0 0)
(0.216245 -0.00051397 0 -0.00248496 0.239889 0 0 0 0)
(0.219787 -0.00405482 0 -0.00187568 0.239424 0 0 0 0)
(0.223056 -0.00345421 0 -0.00134502 0.238275 0 0 0 0)
(0.225231 -0.000640582 0 -0.000798354 0.237984 0 0 0 0)
(0.226417 0.00012949 0 -0.000311143 0.23796 0 0 0 0)
(0.227174 0.000344423 0 6.72826e-05 0.237965 0 0 0 0)
(0.227539 0.000980662 0 0.000351751 0.237927 0 0 0 0)
(0.227595 1.44697e-05 0 0.000604001 0.238261 0 0 0 0)
(0.226721 0.00210327 0 0.000457339 0.237669 0 0 0 0)
(0.223981 -0.000721418 0 0.000385402 0.238847 0 0 0 0)
(0.220252 0.00212735 0 0.00022449 0.237407 0 0 0 0)
(0.213893 0.000605198 0 0.00038631 0.238894 0 0 0 0)
(0.205753 0.00265383 0 0.00111256 0.238063 0 0 0 0)
(0.197228 0.000864673 0 0.00152493 0.23934 0 0 0 0)
(0.186856 0.00948316 0 0.00281182 0.238579 0 0 0 0)
(0.177731 -0.00319858 0 0.00235598 0.240548 0 0 0 0)
(0.162548 0.0185254 0 0.00428083 0.239933 0 0 0 0)
(0.154335 -0.00547486 0 0.00243077 0.241093 0 0 0 0)
(-0.0299937 0.092588 0 0.0135557 0.242305 0 0 0 0)
(1.53816 0.148805 0 -0.0124444 0.275336 0 0 0 0)
(1.647 0.012636 0 -0.0407421 0.27789 0 0 0 0)
(1.11635 0.34389 0 -0.0547841 0.248358 0 0 0 0)
(1.42601 0.483486 0 -0.0121595 0.054483 0 0 0 0)
(0.558507 -0.0147084 0 -0.0452652 0.00955858 0 0 0 0)
(0.488205 -0.168253 0 -0.16289 0.0323227 0 0 0 0)
(0.361788 -0.141643 0 -0.18879 0.153098 0 0 0 0)
(0.257927 -0.190724 0 -0.165783 0.186102 0 0 0 0)
(0.213392 -0.15039 0 -0.163351 0.210336 0 0 0 0)
(0.132145 -0.152018 0 -0.137525 0.228377 0 0 0 0)
(0.0761016 -0.122278 0 -0.128316 0.230883 0 0 0 0)
(0.0511724 -0.0977286 0 -0.0956351 0.237297 0 0 0 0)
(0.0768025 -0.0652252 0 -0.0642643 0.241542 0 0 0 0)
(0.114887 -0.0384597 0 -0.0380748 0.244344 0 0 0 0)
(0.148533 -0.0219191 0 -0.0223742 0.244016 0 0 0 0)
(0.171021 -0.0146097 0 -0.0144209 0.242733 0 0 0 0)
(0.185257 -0.0106253 0 -0.0106634 0.241227 0 0 0 0)
(0.194743 -0.00834974 0 -0.00843327 0.240032 0 0 0 0)
(0.202045 -0.00685033 0 -0.00667593 0.23928 0 0 0 0)
(0.208197 -0.00515779 0 -0.00521391 0.238528 0 0 0 0)
(0.213182 -0.001155 0 -0.00402472 0.23808 0 0 0 0)
(0.216932 -0.000541217 0 -0.00305055 0.238531 0 0 0 0)
(0.220355 -0.00483659 0 -0.00225646 0.238083 0 0 0 0)
(0.223593 -0.00416395 0 -0.00153677 0.236903 0 0 0 0)
(0.225737 -0.000809588 0 -0.000788921 0.23656 0 0 0 0)
(0.22682 9.93171e-05 0 -0.000104475 0.236486 0 0 0 0)
(0.227453 0.000291611 0 0.000467488 0.236413 0 0 0 0)
(0.227753 0.00109788 0 0.000975307 0.236244 0 0 0 0)
(0.227544 -0.000147651 0 0.00153884 0.236546 0 0 0 0)
(0.226441 0.002352 0 0.00163442 0.235759 0 0 0 0)
(0.223666 -0.000839207 0 0.00192937 0.236923 0 0 0 0)
(0.219987 0.00207633 0 0.00224495 0.235481 0 0 0 0)
(0.213987 0.000961959 0 0.00300706 0.2366 0 0 0 0)
(0.205861 0.00284839 0 0.00448034 0.236221 0 0 0 0)