/*--------------------------------*- C++ -*----------------------------------*\
| =========                 |                                                 |
| \\      /  F ield         | OpenFOAM: The Open Source CFD Toolbox           |
|  \\    /   O peration     | Version:  v1912                                 |
|   \\  /    A nd           | Website:  www.openfoam.com                      |
|    \\/     M anipulation  |                                                 |
\*---------------------------------------------------------------------------*/
FoamFile
{
    version     2.0;
    format      ascii;
    class       volScalarField;
    location    "5.02";
    object      T;
}
// * * * * * * * * * * * * * * * * * * * * * * * * * * * * * * * * * * * * * //

dimensions      [0 0 0 1 0 0 0];


internalField   nonuniform List<scalar> 
1900
(
1.16748
0.94269
0.965923
0.987099
0.991186
0.990011
0.987282
0.984608
0.983617
0.98078
1.16749
0.942687
0.965934
0.987108
0.991198
0.990033
0.987312
0.984731
0.983029
0.980316
1.16749
0.942688
0.96594
0.987118
0.991206
0.990039
0.987302
0.984631
0.982758
0.980106
1.16749
0.942687
0.965934
0.987108
0.991198
0.990033
0.987312
0.984731
0.983029
0.980316
1.16748
0.94269
0.965923
0.987099
0.991186
0.990011
0.987282
0.984608
0.983617
0.98078
0.982546
0.974892
0.96684
0.959964
0.981425
0.977922
0.971236
0.963104
0.95505
0.963877
0.977425
0.970744
0.962578
0.955502
0.96494
0.977922
0.971236
0.963104
0.95505
0.963877
0.982546
0.974892
0.96684
0.959964
0.981425
0.844466
0.79366
0.754827
0.709912
0.66029
0.860157
0.801189
0.759848
0.714134
0.666516
0.86008
0.79904
0.756927
0.712024
0.66443
0.860157
0.801189
0.759848
0.714134
0.666516
0.844466
0.79366
0.754827
0.709912
0.66029
0.586853
0.535947
0.573655
0.622653
0.631648
0.615843
0.592966
0.577164
0.565799
0.55458
0.543181
0.532671
0.525014
0.52041
0.517521
0.51533
0.51345
0.511809
0.51041
0.509234
0.508283
0.507532
0.506947
0.506524
0.506241
0.506074
0.505997
0.50601
0.506107
0.506405
0.506855
0.50779
0.508877
0.510605
0.51223
0.514895
0.517822
0.523498
0.493085
0.405561
0.5878
0.528075
0.562807
0.619204
0.633777
0.618143
0.593824
0.577384
0.565887
0.554648
0.543336
0.532719
0.525023
0.520406
0.517518
0.515327
0.513448
0.511806
0.510406
0.509229
0.508278
0.507527
0.506942
0.506519
0.506235
0.506068
0.505991
0.506003
0.506101
0.506398
0.506848
0.507784
0.508873
0.510609
0.512233
0.514911
0.517826
0.523608
0.493529
0.406454
0.586488
0.520963
0.562266
0.623186
0.636485
0.619349
0.594136
0.57746
0.565924
0.554668
0.543397
0.532737
0.525026
0.520406
0.517517
0.515328
0.513448
0.511805
0.510405
0.509228
0.508276
0.507525
0.50694
0.506517
0.506234
0.506066
0.505989
0.506001
0.506098
0.506396
0.506846
0.507783
0.508873
0.510616
0.512247
0.514939
0.517872
0.523735
0.493864
0.407568
0.5878
0.528075
0.562807
0.619204
0.633777
0.618143
0.593824
0.577384
0.565887
0.554648
0.543336
0.532719
0.525023
0.520406
0.517518
0.515327
0.513448
0.511806
0.510406
0.509229
0.508278
0.507527
0.506942
0.506519
0.506235
0.506068
0.505991
0.506003
0.506101
0.506398
0.506848
0.507784
0.508873
0.510609
0.512233
0.514911
0.517826
0.523608
0.493529
0.406454
0.586853
0.535947
0.573655
0.622653
0.631648
0.615843
0.592966
0.577164
0.565799
0.55458
0.543181
0.532671
0.525014
0.52041
0.517521
0.51533
0.51345
0.511809
0.51041
0.509234
0.508283
0.507532
0.506947
0.506524
0.506241
0.506074
0.505997
0.50601
0.506107
0.506405
0.506855
0.50779
0.508877
0.510605
0.51223
0.514895
0.517822
0.523498
0.493085
0.405561
0.578055
0.536661
0.57905
0.617651
0.623478
0.608986
0.590176
0.576017
0.565126
0.554002
0.542579
0.532339
0.524912
0.520396
0.517517
0.515324
0.513447
0.51181
0.510416
0.509244
0.508295
0.507545
0.506961
0.506538
0.506254
0.506086
0.506009
0.506022
0.506119
0.506417
0.506865
0.50779
0.508876
0.510583
0.512222
0.514849
0.517846
0.523187
0.492794
0.409642
0.511285
0.522171
0.572974
0.605436
0.605463
0.595126
0.583108
0.572734
0.56316
0.55239
0.541238
0.531596
0.524671
0.520358
0.517512
0.515318
0.513446
0.511822
0.510441
0.509279
0.508337
0.507591
0.507007
0.506584
0.5063
0.506133
0.506055
0.50607
0.506168
0.506467
0.506911
0.507819
0.508893
0.510564
0.512218
0.514796
0.517859
0.522721
0.493378
0.405821
0.454918
0.526442
0.570529
0.588516
0.588744
0.583049
0.575633
0.568407
0.560093
0.550022
0.539445
0.530611
0.524312
0.520277
0.517498
0.515316
0.513459
0.511855
0.510494
0.509346
0.508413
0.507673
0.507091
0.506669
0.506384
0.506218
0.506141
0.50616
0.50626
0.506562
0.507003
0.507886
0.508942
0.510565
0.512238
0.514757
0.517839
0.522259
0.494384
0.407535
0.441436
0.530762
0.564273
0.573034
0.575154
0.572945
0.568754
0.563824
0.556469
0.547151
0.537365
0.529496
0.523873
0.520147
0.517461
0.515309
0.513476
0.511901
0.510565
0.509436
0.508515
0.507781
0.507202
0.506781
0.506498
0.506333
0.506259
0.506285
0.50639
0.506699
0.507137
0.507991
0.509028
0.510596
0.512276
0.514747
0.517786
0.522062
0.494998
0.408509
0.438042
0.528295
0.557258
0.56054
0.565648
0.565013
0.562801
0.55904
0.552451
0.543913
0.535196
0.528314
0.523386
0.519966
0.517392
0.515287
0.513493
0.511953
0.510647
0.509538
0.508632
0.507907
0.507333
0.506915
0.506635
0.506476
0.506406
0.506445
0.506558
0.506878
0.507313
0.508136
0.509148
0.510658
0.512328
0.514739
0.517686
0.522006
0.495653
0.409169
0.43403
0.523312
0.551004
0.552598
0.559126
0.558984
0.557876
0.554534
0.548422
0.540669
0.533116
0.527203
0.522899
0.519763
0.517304
0.515258
0.513511
0.512009
0.510734
0.509647
0.508756
0.508042
0.507475
0.507065
0.506793
0.506645
0.506587
0.506646
0.506776
0.507113
0.507553
0.50835
0.509346
0.510809
0.512473
0.514837
0.517711
0.522183
0.496123
0.40925
0.429709
0.518493
0.546646
0.548464
0.554647
0.554183
0.553255
0.549965
0.544282
0.537481
0.531118
0.52613
0.522384
0.519516
0.517185
0.515214
0.513518
0.512059
0.510814
0.50975
0.508877
0.508176
0.507619
0.507219
0.50696
0.506827
0.506781
0.506863
0.507008
0.50736
0.507798
0.508561
0.509526
0.510927
0.512557
0.514861
0.517629
0.522405
0.497112
0.409721
0.426958
0.51478
0.542923
0.545171
0.550935
0.550039
0.548917
0.545634
0.540462
0.534697
0.529442
0.525257
0.521975
0.519337
0.517123
0.515217
0.513564
0.512141
0.510923
0.50988
0.509026
0.508341
0.5078
0.507417
0.507179
0.507068
0.507044
0.507163
0.507331
0.507703
0.508147
0.508881
0.509818
0.51117
0.512789
0.515057
0.517766
0.522774
0.49784
0.410163
0.427812
0.513052
0.54044
0.542785
0.547668
0.546252
0.544715
0.541518
0.53697
0.532222
0.527935
0.524435
0.521557
0.519141
0.517043
0.515209
0.513614
0.512235
0.511049
0.510029
0.509195
0.508528
0.508003
0.507639
0.507419
0.507327
0.507319
0.50747
0.507649
0.508024
0.508454
0.509139
0.510024
0.511303
0.512883
0.515106
0.517747
0.523076
0.499014
0.411048
0.428099
0.511743
0.538374
0.540455
0.544341
0.542518
0.540667
0.537768
0.533967
0.530207
0.52677
0.523852
0.521319
0.519097
0.517124
0.515388
0.513858
0.512519
0.511363
0.510365
0.509552
0.508904
0.508398
0.508052
0.507849
0.507772
0.507779
0.507953
0.508135
0.5085
0.508899
0.509519
0.51033
0.511521
0.513043
0.5152
0.517803
0.523367
0.49989
0.411949
0.428892
0.510996
0.536717
0.538311
0.541074
0.539075
0.537086
0.534624
0.531557
0.528643
0.525884
0.523424
0.521163
0.519117
0.517287
0.515643
0.514182
0.512896
0.51178
0.510813
0.510026
0.509401
0.508913
0.508582
0.508388
0.50832
0.508335
0.508521
0.508693
0.509035
0.509389
0.509928
0.510639
0.511717
0.51316
0.515249
0.517772
0.523529
0.501074
0.413492
0.4289
0.510101
0.534945
0.536031
0.537767
0.535843
0.533991
0.532069
0.529707
0.527513
0.525305
0.523243
0.521284
0.519489
0.51781
0.516286
0.514919
0.513708
0.512649
0.511722
0.510963
0.510352
0.509863
0.509522
0.509311
0.509227
0.509214
0.509385
0.509513
0.509798
0.510075
0.510507
0.511085
0.512028
0.513378
0.515404
0.517892
0.523802
0.502238
0.414937
0.429674
0.509358
0.53331
0.533899
0.534764
0.533152
0.53166
0.530282
0.528517
0.52687
0.525087
0.523383
0.521686
0.52005
0.51851
0.517085
0.515792
0.514641
0.513632
0.512744
0.512018
0.511431
0.510955
0.51062
0.510409
0.510324
0.510298
0.510467
0.510554
0.510784
0.510975
0.51129
0.511714
0.512487
0.513708
0.515641
0.518018
0.523993
0.503655
0.417401
0.429972
0.508979
0.53201
0.53222
0.532427
0.531218
0.530124
0.529177
0.527886
0.52671
0.52535
0.523966
0.522487
0.521057
0.519668
0.518369
0.517181
0.516121
0.515188
0.514353
0.513655
0.51307
0.512575
0.512211
0.511967
0.511862
0.511799
0.511929
0.511956
0.512117
0.512213
0.512401
0.512652
0.513251
0.514334
0.516219
0.518518
0.524552
0.505539
0.419644
0.431966
0.509527
0.531315
0.531244
0.530946
0.53008
0.529414
0.528901
0.528113
0.527269
0.526095
0.524925
0.523616
0.52232
0.521016
0.519775
0.518624
0.51759
0.516682
0.515878
0.515226
0.514692
0.514239
0.513904
0.513677
0.51359
0.513526
0.513659
0.513664
0.513788
0.513834
0.51395
0.514091
0.514591
0.515597
0.517507
0.519708
0.525655
0.508134
0.423637
0.434536
0.511267
0.532056
0.531696
0.531204
0.530655
0.530313
0.529944
0.529363
0.528696
0.527715
0.526728
0.52555
0.524394
0.523192
0.522045
0.520981
0.520032
0.519201
0.518452
0.517821
0.517275
0.516791
0.516422
0.516152
0.516037
0.515932
0.516031
0.515993
0.516058
0.516052
0.516107
0.516155
0.516581
0.517527
0.519616
0.521978
0.528063
0.511738
0.428535
0.440329
0.514761
0.534047
0.533211
0.532547
0.532072
0.532057
0.531842
0.531496
0.530957
0.530042
0.529191
0.528114
0.527091
0.525997
0.524962
0.52398
0.523047
0.522167
0.521367
0.520804
0.52042
0.520052
0.519695
0.519348
0.519163
0.518956
0.518994
0.518878
0.5189
0.518822
0.518849
0.518796
0.519131
0.519938
0.522114
0.524574
0.530842
0.515673
0.436328
0.451023
0.521727
0.54051
0.538884
0.537892
0.537244
0.537414
0.537123
0.536771
0.536095
0.535133
0.534077
0.532784
0.531532
0.530253
0.529185
0.528373
0.527839
0.527495
0.52709
0.526513
0.525758
0.524975
0.524452
0.524144
0.52419
0.524296
0.524551
0.524764
0.525015
0.525136
0.525349
0.52538
0.525777
0.526605
0.529017
0.531925
0.537995
0.521917
0.448285
0.399673
0.504297
0.530388
0.526109
0.523943
0.521365
0.519929
0.517762
0.515908
0.513789
0.511924
0.509793
0.507828
0.505712
0.503681
0.501782
0.500185
0.498926
0.498203
0.498091
0.497507
0.496504
0.496144
0.496215
0.496694
0.497286
0.498363
0.499076
0.500344
0.501307
0.502585
0.503795
0.505222
0.50699
0.509491
0.513361
0.517831
0.523282
0.503135
0.404254
0.355321
0.408213
0.45512
0.44411
0.437816
0.434177
0.430442
0.427813
0.425034
0.422371
0.420099
0.417865
0.415963
0.414131
0.412538
0.41105
0.409978
0.409309
0.408962
0.40895
0.408757
0.408219
0.408498
0.407837
0.408461
0.408726
0.409547
0.410147
0.411294
0.412287
0.413945
0.415384
0.41779
0.41983
0.42358
0.428232
0.435963
0.447665
0.403053
0.353873
0.355321
0.408213
0.45512
0.44411
0.437816
0.434177
0.430442
0.427813
0.425034
0.422371
0.420099
0.417865
0.415963
0.414131
0.412538
0.41105
0.409978
0.409309
0.408962
0.40895
0.408757
0.408219
0.408498
0.407837
0.408461
0.408726
0.409547
0.410147
0.411294
0.412287
0.413945
0.415384
0.41779
0.41983
0.42358
0.428232
0.435963
0.447665
0.403053
0.353873
0.399673
0.504297
0.530388
0.526109
0.523943
0.521365
0.519929
0.517762
0.515908
0.513789
0.511924
0.509793
0.507828
0.505712
0.503681
0.501782
0.500185
0.498926
0.498203
0.498091
0.497507
0.496504
0.496144
0.496215
0.496694
0.497286
0.498363
0.499076
0.500344
0.501307
0.502585
0.503795
0.505222
0.50699
0.509491
0.513361
0.517831
0.523282
0.503135
0.404254
0.451023
0.521727
0.54051
0.538884
0.537892
0.537244
0.537414
0.537123
0.536771
0.536095
0.535133
0.534077
0.532784
0.531532
0.530253
0.529185
0.528373
0.527839
0.527495
0.52709
0.526513
0.525758
0.524975
0.524452
0.524144
0.52419
0.524296
0.524551
0.524764
0.525015
0.525136
0.525349
0.52538
0.525777
0.526605
0.529017
0.531925
0.537995
0.521917
0.448285
0.440329
0.514761
0.534047
0.533211
0.532547
0.532072
0.532057
0.531842
0.531496
0.530957
0.530042
0.529191
0.528114
0.527091
0.525997
0.524962
0.52398
0.523047
0.522167
0.521367
0.520804
0.52042
0.520052
0.519695
0.519348
0.519163
0.518956
0.518994
0.518878
0.5189
0.518822
0.518849
0.518796
0.519131
0.519938
0.522114
0.524574
0.530842
0.515673
0.436328
0.434536
0.511267
0.532056
0.531696
0.531204
0.530655
0.530313
0.529944
0.529363
0.528696
0.527715
0.526728
0.52555
0.524394
0.523192
0.522045
0.520981
0.520032
0.519201
0.518452
0.517821
0.517275
0.516791
0.516422
0.516152
0.516037
0.515932
0.516031
0.515993
0.516058
0.516052
0.516107
0.516155
0.516581
0.517527
0.519616
0.521978
0.528063
0.511738
0.428535
0.431966
0.509527
0.531315
0.531244
0.530946
0.53008
0.529414
0.528901
0.528113
0.527269
0.526095
0.524925
0.523616
0.52232
0.521016
0.519775
0.518624
0.51759
0.516682
0.515878
0.515226
0.514692
0.514239
0.513904
0.513677
0.51359
0.513526
0.513659
0.513664
0.513788
0.513834
0.51395
0.514091
0.514591
0.515597
0.517507
0.519708
0.525655
0.508134
0.423637
0.429972
0.508979
0.53201
0.53222
0.532427
0.531218
0.530124
0.529177
0.527886
0.52671
0.52535
0.523966
0.522487
0.521057
0.519668
0.518369
0.517181
0.516121
0.515188
0.514353
0.513655
0.51307
0.512575
0.512211
0.511967
0.511862
0.511799
0.511929
0.511956
0.512117
0.512213
0.512401
0.512652
0.513251
0.514334
0.516219
0.518518
0.524552
0.505539
0.419644
0.429674
0.509358
0.53331
0.533899
0.534764
0.533152
0.53166
0.530282
0.528517
0.52687
0.525087
0.523383
0.521686
0.52005
0.51851
0.517085
0.515792
0.514641
0.513632
0.512744
0.512018
0.511431
0.510955
0.51062
0.510409
0.510324
0.510298
0.510467
0.510554
0.510784
0.510975
0.51129
0.511714
0.512487
0.513708
0.515641
0.518018
0.523993
0.503655
0.417401
0.4289
0.510101
0.534945
0.536031
0.537767
0.535843
0.533991
0.532069
0.529707
0.527513
0.525305
0.523243
0.521284
0.519489
0.51781
0.516286
0.514919
0.513708
0.512649
0.511722
0.510963
0.510352
0.509863
0.509522
0.509311
0.509227
0.509214
0.509385
0.509513
0.509798
0.510075
0.510507
0.511085
0.512028
0.513378
0.515404
0.517892
0.523802
0.502238
0.414937
0.428892
0.510996
0.536717
0.538311
0.541074
0.539075
0.537086
0.534624
0.531557
0.528643
0.525884
0.523424
0.521163
0.519117
0.517287
0.515643
0.514182
0.512896
0.51178
0.510813
0.510026
0.509401
0.508913
0.508582
0.508388
0.50832
0.508335
0.508521
0.508693
0.509035
0.509389
0.509928
0.510639
0.511717
0.51316
0.515249
0.517772
0.523529
0.501074
0.413492
0.428099
0.511743
0.538374
0.540455
0.544341
0.542518
0.540667
0.537768
0.533967
0.530207
0.52677
0.523852
0.521319
0.519097
0.517124
0.515388
0.513858
0.512519
0.511363
0.510365
0.509552
0.508904
0.508398
0.508052
0.507849
0.507772
0.507779
0.507953
0.508135
0.5085
0.508899
0.509519
0.51033
0.511521
0.513043
0.5152
0.517803
0.523367
0.49989
0.411949
0.427812
0.513052
0.54044
0.542785
0.547668
0.546252
0.544715
0.541518
0.53697
0.532222
0.527935
0.524435
0.521557
0.519141
0.517043
0.515209
0.513614
0.512235
0.511049
0.510029
0.509195
0.508528
0.508003
0.507639
0.507419
0.507327
0.507319
0.50747
0.507649
0.508024
0.508454
0.509139
0.510024
0.511303
0.512883
0.515106
0.517747
0.523076
0.499014
0.411048
0.426958
0.51478
0.542923
0.545171
0.550935
0.550039
0.548917
0.545634
0.540462
0.534697
0.529442
0.525257
0.521975
0.519337
0.517123
0.515217
0.513564
0.512141
0.510923
0.50988
0.509026
0.508341
0.5078
0.507417
0.507179
0.507068
0.507044
0.507163
0.507331
0.507703
0.508147
0.508881
0.509818
0.51117
0.512789
0.515057
0.517766
0.522774
0.49784
0.410163
0.429709
0.518493
0.546646
0.548464
0.554647
0.554183
0.553255
0.549965
0.544282
0.537481
0.531118
0.52613
0.522384
0.519516
0.517185
0.515214
0.513518
0.512059
0.510814
0.50975
0.508877
0.508176
0.507619
0.507219
0.50696
0.506827
0.506781
0.506863
0.507008
0.50736
0.507798
0.508561
0.509526
0.510927
0.512557
0.514861
0.517629
0.522405
0.497112
0.409721
0.43403
0.523312
0.551004
0.552598
0.559126
0.558984
0.557876
0.554534
0.548422
0.540669
0.533116
0.527203
0.522899
0.519763
0.517304
0.515258
0.513511
0.512009
0.510734
0.509647
0.508756
0.508042
0.507475
0.507065
0.506793
0.506645
0.506587
0.506646
0.506776
0.507113
0.507553
0.50835
0.509346
0.510809
0.512473
0.514837
0.517711
0.522183
0.496123
0.40925
0.438042
0.528295
0.557258
0.56054
0.565648
0.565013
0.562801
0.55904
0.552451
0.543913
0.535196
0.528314
0.523386
0.519966
0.517392
0.515287
0.513493
0.511953
0.510647
0.509538
0.508632
0.507907
0.507333
0.506915
0.506635
0.506476
0.506406
0.506445
0.506558
0.506878
0.507313
0.508136
0.509148
0.510658
0.512328
0.514739
0.517686
0.522006
0.495653
0.409169
0.441436
0.530762
0.564273
0.573034
0.575154
0.572945
0.568754
0.563824
0.556469
0.547151
0.537365
0.529496
0.523873
0.520147
0.517461
0.515309
0.513476
0.511901
0.510565
0.509436
0.508515
0.507781
0.507202
0.506781
0.506498
0.506333
0.506259
0.506285
0.50639
0.506699
0.507137
0.507991
0.509028
0.510596
0.512276
0.514747
0.517786
0.522062
0.494998
0.408509
0.454918
0.526442
0.570529
0.588516
0.588744
0.583049
0.575633
0.568407
0.560093
0.550022
0.539445
0.530611
0.524312
0.520277
0.517498
0.515316
0.513459
0.511855
0.510494
0.509346
0.508413
0.507673
0.507091
0.506669
0.506384
0.506218
0.506141
0.50616
0.50626
0.506562
0.507003
0.507886
0.508942
0.510565
0.512238
0.514757
0.517839
0.522259
0.494384
0.407535
0.511285
0.522171
0.572974
0.605436
0.605463
0.595126
0.583108
0.572734
0.56316
0.55239
0.541238
0.531596
0.524671
0.520358
0.517512
0.515318
0.513446
0.511822
0.510441
0.509279
0.508337
0.507591
0.507007
0.506584
0.5063
0.506133
0.506055
0.50607
0.506168
0.506467
0.506911
0.507819
0.508893
0.510564
0.512218
0.514796
0.517859
0.522721
0.493378
0.405821
0.578055
0.536661
0.57905
0.617651
0.623478
0.608986
0.590176
0.576017
0.565126
0.554002
0.542579
0.532339
0.524912
0.520396
0.517517
0.515324
0.513447
0.51181
0.510416
0.509244
0.508295
0.507545
0.506961
0.506538
0.506254
0.506086
0.506009
0.506022
0.506119
0.506417
0.506865
0.50779
0.508876
0.510583
0.512222
0.514849
0.517846
0.523187
0.492794
0.409642
)
;

boundaryField
{
    inlet
    {
        type            fixedValue;
        value           uniform 1;
    }
    outlet
    {
        type            zeroGradient;
    }
    obstacle
    {
        type            zeroGradient;
    }
    empty
    {
        type            empty;
    }
}


// ************************************************************************* //
