/*--------------------------------*- C++ -*----------------------------------*\
| =========                 |                                                 |
| \\      /  F ield         | OpenFOAM: The Open Source CFD Toolbox           |
|  \\    /   O peration     | Version:  v1912                                 |
|   \\  /    A nd           | Website:  www.openfoam.com                      |
|    \\/     M anipulation  |                                                 |
\*---------------------------------------------------------------------------*/
FoamFile
{
    version     2.0;
    format      ascii;
    class       volTensorField;
    location    "8.54";
    object      grad(U);
}
// * * * * * * * * * * * * * * * * * * * * * * * * * * * * * * * * * * * * * //

dimensions      [0 0 -1 0 0 0 0];


internalField   nonuniform List<tensor> 
1900
(
(0.147583 -1.53778e-05 0 2.30318e-07 -7.39111e-06 0 0 0 0)
(1.04066 -2.68432e-05 0 -6.44756e-06 -3.89406e-05 0 0 0 0)
(-0.0514137 -5.10078e-05 0 7.20394e-06 -5.83243e-05 0 0 0 0)
(-0.0222921 -8.09317e-05 0 -3.46164e-05 -0.000110838 0 0 0 0)
(-0.00943755 -0.000174284 0 -0.000178995 -0.000202979 0 0 0 0)
(-0.00880659 -0.000399249 0 -0.0005582 -0.000563816 0 0 0 0)
(-0.0227409 0.000771865 0 -0.000918836 -0.00102333 0 0 0 0)
(-0.026825 0.019773 0 -0.000298481 0.00149704 0 0 0 0)
(-0.0720661 0.0627308 0 0.00654085 0.0326533 0 0 0 0)
(-0.0343951 0.212639 0 0.0658208 0.121687 0 0 0 0)
(0.147576 -3.09539e-05 0 -3.38726e-06 1.55879e-06 0 0 0 0)
(1.04066 -2.409e-05 0 -9.14548e-06 1.3819e-05 0 0 0 0)
(-0.0514418 -2.08894e-05 0 1.02943e-05 2.8402e-05 0 0 0 0)
(-0.0224783 -6.37231e-05 0 -7.79896e-05 6.48268e-05 0 0 0 0)
(-0.00996114 -0.000278694 0 -0.000321981 0.000109334 0 0 0 0)
(-0.00954643 -0.000421101 0 -0.00100499 0.000239111 0 0 0 0)
(-0.0224811 0.00128899 0 -0.0016351 0.000508583 0 0 0 0)
(-0.0193653 0.0139036 0 0.00106062 -0.000532754 0 0 0 0)
(-0.00594685 0.0574595 0 0.0145291 -0.0192644 0 0 0 0)
(0.0898224 0.146472 0 0.103606 -0.0632636 0 0 0 0)
(0.14757 -1.81442e-13 0 -1.05168e-13 1.16646e-05 0 0 0 0)
(1.04067 3.69957e-14 0 6.77626e-15 5.02432e-05 0 0 0 0)
(-0.0514825 1.24261e-13 0 -2.27682e-14 5.98446e-05 0 0 0 0)
(-0.0226244 1.92694e-14 0 -1.03948e-13 9.20221e-05 0 0 0 0)
(-0.0103646 -2.24092e-14 0 -2.19958e-13 0.000187291 0 0 0 0)
(-0.0101197 6.70384e-14 0 1.35796e-13 0.00064941 0 0 0 0)
(-0.0206753 2.401e-14 0 2.4259e-14 0.00102949 0 0 0 0)
(-0.0106608 -5.02915e-14 0 -6.58653e-14 -0.00192857 0 0 0 0)
(0.0304793 -6.01236e-14 0 5.51588e-14 -0.0267778 0 0 0 0)
(0.1384 -3.09961e-14 0 7.56231e-14 -0.116848 0 0 0 0)
(0.147576 3.09539e-05 0 3.38726e-06 1.55879e-06 0 0 0 0)
(1.04066 2.409e-05 0 9.14548e-06 1.3819e-05 0 0 0 0)
(-0.0514418 2.08894e-05 0 -1.02943e-05 2.8402e-05 0 0 0 0)
(-0.0224783 6.37231e-05 0 7.79896e-05 6.48268e-05 0 0 0 0)
(-0.00996114 0.000278694 0 0.000321981 0.000109334 0 0 0 0)
(-0.00954643 0.000421101 0 0.00100499 0.000239111 0 0 0 0)
(-0.0224811 -0.00128899 0 0.0016351 0.000508583 0 0 0 0)
(-0.0193653 -0.0139036 0 -0.00106062 -0.000532754 0 0 0 0)
(-0.00594685 -0.0574595 0 -0.0145291 -0.0192644 0 0 0 0)
(0.0898224 -0.146472 0 -0.103606 -0.0632636 0 0 0 0)
(0.147583 1.53778e-05 0 -2.30318e-07 -7.39111e-06 0 0 0 0)
(1.04066 2.68432e-05 0 6.44756e-06 -3.89406e-05 0 0 0 0)
(-0.0514137 5.10078e-05 0 -7.20394e-06 -5.83243e-05 0 0 0 0)
(-0.0222921 8.09317e-05 0 3.46164e-05 -0.000110838 0 0 0 0)
(-0.00943755 0.000174284 0 0.000178995 -0.000202979 0 0 0 0)
(-0.00880659 0.000399249 0 0.0005582 -0.000563816 0 0 0 0)
(-0.0227409 -0.000771865 0 0.000918836 -0.00102333 0 0 0 0)
(-0.026825 -0.019773 0 0.000298481 0.00149704 0 0 0 0)
(-0.0720661 -0.0627308 0 -0.00654085 0.0326533 0 0 0 0)
(-0.0343951 -0.212639 0 -0.0658208 0.121687 0 0 0 0)
(0.179207 0.438569 -2.20102e-17 0.249203 -0.24577 3.30152e-17 6.02004e-17 7.73493e-17 -5.96586e-33)
(0.518649 0.587316 0 0.288306 -0.471813 0 -1.64074e-16 -4.93887e-17 0)
(0.805538 0.98086 0 0.277847 -0.801613 0 -2.65712e-16 -8.79795e-17 0)
(1.49364 1.59125 0 0.331107 -1.45609 0 0 0 0)
(2.80264 1.85107 2.70011e-16 1.13545 -3.53362 -4.05016e-16 -2.30346e-15 -1.53564e-15 -7.31865e-32)
(0.234246 0.164559 0 0.184622 -0.213814 0 1.05231e-16 3.29386e-17 0)
(0.416761 0.178926 0 0.140625 -0.353951 0 1.64074e-16 4.93887e-17 0)
(0.755044 0.427705 0 0.0439368 -0.649186 0 2.65712e-16 8.79795e-17 0)
(1.69232 0.870791 0 -0.0727396 -1.35518 0 0 0 0)
(3.7122 0.581099 0 -0.184215 -3.12845 0 0 0 0)
(0.285555 -1.32867e-13 0 8.10205e-14 -0.301503 0 0 0 0)
(0.43621 7.6572e-14 0 1.22151e-13 -0.38537 0 0 0 0)
(0.744276 6.59098e-14 0 3.60648e-13 -0.649151 0 0 0 0)
(1.59608 -1.12055e-13 0 1.653e-13 -1.38426 0 0 0 0)
(3.46588 1.25735e-13 0 4.16256e-13 -3.6724 0 0 0 0)
(0.234246 -0.164559 0 -0.184622 -0.213814 0 1.05231e-16 -3.29386e-17 0)
(0.416761 -0.178926 0 -0.140625 -0.353951 0 1.64074e-16 -4.93887e-17 0)
(0.755044 -0.427705 0 -0.0439368 -0.649186 0 2.65712e-16 -8.79795e-17 0)
(1.69232 -0.870791 0 0.0727396 -1.35518 0 0 0 0)
(3.7122 -0.581099 0 0.184215 -3.12845 0 0 0 0)
(0.179207 -0.438569 2.20102e-17 -0.249203 -0.24577 3.30152e-17 -2.70663e-16 1.43226e-16 -5.96586e-33)
(0.518649 -0.587316 0 -0.288306 -0.471813 0 -1.64074e-16 4.93887e-17 0)
(0.805538 -0.98086 0 -0.277847 -0.801613 0 -2.65712e-16 8.79795e-17 0)
(1.49364 -1.59125 9.55344e-17 -0.331107 -1.45609 1.43302e-16 -9.49598e-16 6.33066e-16 -2.58946e-32)
(2.80264 -1.85107 -2.70011e-16 -1.13545 -3.53362 -4.05016e-16 2.30346e-15 -1.53564e-15 -7.31865e-32)
(4.24502 -0.789099 -1.88641e-17 0.00109692 4.53449 -1.69777e-16 2.29173e-15 -1.1807e-16 5.11312e-33)
(2.34384 -0.31496 9.099e-18 0.546998 2.78877 8.1891e-17 -2.57686e-15 2.00499e-16 2.46629e-33)
(1.37667 -0.00275519 0 0.742425 2.28729 0 0 0 0)
(1.04421 0.0835758 -5.28449e-18 0.666977 2.1052 -4.75604e-17 2.40724e-15 -2.01837e-16 1.43236e-33)
(0.662715 0.546597 4.72761e-18 0.55175 1.7455 4.25485e-17 -1.14233e-15 1.26926e-16 1.28142e-33)
(4.36666 -0.958503 0 -0.714193 -0.704923 0 -1.14588e-15 -9.24723e-18 0)
(2.63631 -0.204378 0 0.324937 1.00198 0 1.29667e-15 -5.82553e-17 0)
(1.46223 -0.0142584 0 0.457474 1.39218 0 0 0 0)
(1.01016 -0.0681357 0 0.365643 1.41216 0 -1.51983e-15 7.589e-17 0)
(0.506707 0.251364 0 0.250668 1.40084 0 2.91624e-16 -8.04209e-18 0)
(4.37301 5.05145e-14 0 2.79264e-13 0.795753 0 0 0 0)
(2.61387 -3.04244e-14 0 1.946e-13 1.86467 0 0 0 0)
(1.35554 -3.45401e-14 0 0 1.99531 0 0 0 0)
(0.939001 5.19777e-14 0 2.83452e-14 1.77232 0 6.12338e-16 1.0034e-30 0)
(0.497668 -3.97413e-14 0 5.07229e-14 2.13625 0 -5.83248e-16 -1.45184e-30 0)
(4.36666 0.958503 0 0.714193 -0.704923 0 -1.14588e-15 9.24723e-18 0)
(2.63631 0.204378 0 -0.324937 1.00198 0 1.29667e-15 5.82553e-17 0)
(1.46223 0.0142584 0 -0.457474 1.39218 0 0 0 0)
(1.01016 0.0681357 0 -0.365643 1.41216 0 -1.51983e-15 -7.589e-17 0)
(0.506707 -0.251364 0 -0.250668 1.40084 0 2.91624e-16 8.04209e-18 0)
(4.24502 0.789099 0 -0.00109692 4.53449 0 1.14588e-15 -9.24723e-18 0)
(2.34384 0.31496 -9.099e-18 -0.546998 2.78877 8.1891e-17 -1.64738e-17 8.39886e-17 2.46629e-33)
(1.37667 0.00275519 0 -0.742425 2.28729 0 0 0 0)
(1.04421 -0.0835758 5.28449e-18 -0.666977 2.1052 -4.75604e-17 2.00872e-17 -6.34017e-17 1.43236e-33)
(0.662715 -0.546597 -4.72761e-18 -0.55175 1.7455 4.25485e-17 1.14233e-15 1.26926e-16 1.28142e-33)
(0.1837 0.641797 0 -0.522881 -0.522486 0 0 0 0)
(0.144616 0.111271 0 -0.979063 -0.245922 0 0 0 0)
(0.113518 -0.217273 0 -1.12829 0.088224 0 0 0 0)
(0.0854702 -0.130453 0 -0.935502 0.0513385 0 0 0 0)
(0.0903098 -0.0335722 0 -0.859172 0.11328 0 0 0 0)
(0.105065 -0.0033776 0 -0.71703 0.0624344 0 0 0 0)
(0.12308 0.0137035 0 -0.547623 0.137516 0 0 0 0)
(0.139292 0.0485715 0 -0.415714 0.192515 0 0 0 0)
(0.219873 0.00412236 0 -0.291118 0.185967 0 0 0 0)
(0.200875 -0.00335709 0 -0.12573 0.274849 0 0 0 0)
(-0.00479639 0.0334267 0 -0.0960084 0.202813 0 0 0 0)
(-0.511382 0.028401 0 -0.0999224 0.0982368 0 0 0 0)
(-1.24176 -0.00533476 0 -0.303624 0.00283044 0 0 0 0)
(-1.03865 -0.019745 0 -0.0970401 0.0688601 0 0 0 0)
(-0.270012 0.00933559 0 -0.0699827 0.0775475 0 0 0 0)
(-0.040151 -0.0163128 0 0.0957486 0.0842305 0 0 0 0)
(-0.0984957 -0.0673967 0 0.221158 0.207897 0 0 0 0)
(-0.267059 -0.121901 0 0.313704 0.361634 0 0 0 0)
(-0.45271 -0.116395 0 0.280967 0.532784 0 0 0 0)
(-0.543212 -0.0371191 0 0.10773 0.639813 0 0 0 0)
(-0.538824 0.0233591 0 -0.078614 0.628575 0 0 0 0)
(-0.519749 0.0476158 0 -0.101068 0.581375 0 0 0 0)
(-0.507118 0.0526607 0 -0.00701409 0.50039 0 0 0 0)
(-0.576818 0.0498344 0 0.0715823 0.409015 0 0 0 0)
(-0.928201 0.0537781 0 0.0971255 0.308377 0 0 0 0)
(-1.46929 0.0544106 0 0.109256 0.245212 0 0 0 0)
(-1.27113 0.0341205 0 0.064271 0.157797 0 0 0 0)
(-0.737283 0.00909452 0 0.00753997 0.11684 0 0 0 0)
(-1.11363 -0.000739189 0 0.000847023 0.116464 0 0 0 0)
(-1.20361 -0.000992607 0 0.00136817 0.119314 0 0 0 0)
(-0.576698 0.000350663 0 0.00458513 0.120266 0 0 0 0)
(-0.233888 0.000661423 0 0.0065448 0.118617 0 0 0 0)
(-0.148333 -0.000427384 0 0.00902342 0.118733 0 0 0 0)
(-0.121927 -0.00195591 0 0.0114158 0.120236 0 0 0 0)
(-0.0945672 -0.00465807 0 0.0112506 0.123973 0 0 0 0)
(-0.0764373 -0.00827788 0 0.00447547 0.131204 0 0 0 0)
(-0.074534 -0.00601613 0 -0.0138093 0.144447 0 0 0 0)
(-0.0660532 0.00190692 0 -0.0359236 0.147316 0 0 0 0)
(-0.052844 0.0108578 0 -0.0474078 0.141102 0 0 0 0)
(-0.0248867 0.00802121 0 -0.0489298 0.115504 0 0 0 0)
(-0.0737524 0.484692 0 0.00952408 0.174629 0 0 0 0)
(-0.0602127 0.184387 0 -0.441605 -0.624221 0 0 0 0)
(0.0972398 -0.0881989 0 -0.915932 -0.207864 0 0 0 0)
(0.14397 -0.164459 0 -0.637743 0.122656 0 0 0 0)
(0.126266 -0.121371 0 -0.628866 0.240569 0 0 0 0)
(0.152889 -0.0747886 0 -0.50515 0.23806 0 0 0 0)
(0.163515 -0.0157556 0 -0.366638 0.252179 0 0 0 0)
(0.1702 0.0257291 0 -0.305246 0.190955 0 0 0 0)
(0.256741 0.00109831 0 -0.227432 0.0852148 0 0 0 0)
(0.225753 0.00973491 0 -0.145243 0.176784 0 0 0 0)
(0.000442277 0.0358042 0 -0.130725 0.0967548 0 0 0 0)
(-0.546056 0.0250427 0 -0.126737 0.0618796 0 0 0 0)
(-1.24065 0.0204794 0 -0.29456 -0.000873483 0 0 0 0)
(-0.989554 0.0131601 0 -0.125676 0.0802178 0 0 0 0)
(-0.232508 0.0170669 0 -0.0408275 0.0670001 0 0 0 0)
(0.016405 0.0104836 0 0.0649204 0.0481267 0 0 0 0)
(-0.030791 -0.0268701 0 0.200215 0.123075 0 0 0 0)
(-0.238625 -0.0706051 0 0.316628 0.279803 0 0 0 0)
(-0.498223 -0.0552561 0 0.243473 0.542111 0 0 0 0)
(-0.619781 -0.0104383 0 0.101618 0.679909 0 0 0 0)
(-0.577309 0.0200221 0 0.0452864 0.669708 0 0 0 0)
(-0.490658 0.0274298 0 0.0930669 0.599612 0 0 0 0)
(-0.466324 0.0158704 0 0.198519 0.506029 0 0 0 0)
(-0.574095 0.00911965 0 0.240422 0.418591 0 0 0 0)
(-0.945964 0.0279878 0 0.160154 0.334723 0 0 0 0)
(-1.48825 0.038254 0 0.0493483 0.233729 0 0 0 0)
(-1.28947 0.0176571 0 0.00981583 0.147686 0 0 0 0)
(-0.746015 0.00291516 0 0.0016842 0.11644 0 0 0 0)
(-1.11398 -0.000515724 0 0.00071879 0.116424 0 0 0 0)
(-1.20253 -0.000447344 0 0.00135877 0.118981 0 0 0 0)
(-0.575232 0.000213761 0 0.0044469 0.119836 0 0 0 0)
(-0.23227 0.000309542 0 0.00863114 0.117775 0 0 0 0)
(-0.146675 -0.000297675 0 0.0136379 0.117562 0 0 0 0)
(-0.121051 -0.00108192 0 0.0183258 0.119244 0 0 0 0)
(-0.0958563 -0.00243993 0 0.0205261 0.124286 0 0 0 0)
(-0.0814443 -0.00422799 0 0.0176716 0.135257 0 0 0 0)
(-0.0820035 -0.00305466 0 0.00690084 0.152741 0 0 0 0)
(-0.0715436 0.00099675 0 -0.00625707 0.155937 0 0 0 0)
(-0.0544373 0.00553295 0 -0.0134396 0.146186 0 0 0 0)
(-0.0248359 0.00405162 0 -0.0161777 0.118613 0 0 0 0)
(-0.0284901 -5.47278e-14 0 -2.36553e-13 0.294931 0 0 0 0)
(-0.124607 -1.22911e-13 0 -8.98902e-13 -0.926019 0 0 0 0)
(0.0564593 -1.88347e-13 0 -1.06449e-12 -0.972733 0 0 0 0)
(0.16898 -4.65786e-14 0 -6.30809e-13 -0.319651 0 0 0 0)
(0.128882 6.25732e-14 0 -5.51957e-13 0.157924 0 0 0 0)
(0.181349 1.15067e-13 0 -5.59843e-13 0.514775 0 0 0 0)
(0.181234 -1.27291e-15 0 -6.93889e-13 0.672095 0 0 0 0)
(0.179789 -7.03306e-14 0 -4.17911e-13 0.623095 0 0 0 0)
(0.266419 8.82161e-15 0 -2.52323e-13 0.495208 0 0 0 0)
(0.229008 1.247e-13 0 -5.51957e-14 0.615544 0 0 0 0)
(0.000587363 1.9691e-13 0 9.46213e-14 0.42828 0 0 0 0)
(-0.559044 3.37799e-13 0 2.83864e-13 0.36939 0 0 0 0)
(-1.24145 8.94653e-14 0 4.65221e-13 0.256112 0 0 0 0)
(-0.964834 -4.52182e-13 0 1.10786e-12 0.228594 0 0 0 0)
(-0.214566 -5.11675e-13 0 2.44438e-13 0.165636 0 0 0 0)
(0.0299706 -1.3553e-12 0 -6.15038e-13 0.111259 0 0 0 0)
(-0.0252717 -2.69138e-12 0 -1.58096e-12 0.0935617 0 0 0 0)
(-0.254475 -1.56505e-12 0 -6.05576e-12 0.295991 0 0 0 0)
(-0.515258 2.19407e-12 0 1.70318e-12 0.578972 0 0 0 0)
(-0.600866 6.24548e-12 0 4.25007e-12 0.675877 0 0 0 0)
(-0.541312 4.57665e-12 0 4.08449e-12 0.650735 0 0 0 0)
(-0.475173 -2.57778e-12 0 4.71135e-12 0.538225 0 0 0 0)
(-0.464251 -4.0228e-12 0 2.12109e-12 0.462155 0 0 0 0)
(-0.587979 9.21309e-13 0 -1.60068e-12 0.429115 0 0 0 0)
(-0.983786 2.86984e-12 0 -2.7795e-13 0.399458 0 0 0 0)
(-1.51303 -1.0051e-12 0 5.98874e-12 0.236699 0 0 0 0)
(-1.28499 -4.37585e-12 0 1.43184e-11 0.136461 0 0 0 0)
(-0.739929 -5.10884e-12 0 4.18305e-12 0.115306 0 0 0 0)
(-1.11373 -2.92433e-12 0 -2.78906e-11 0.11642 0 0 0 0)
(-1.20252 2.61623e-12 0 -6.63394e-11 0.118852 0 0 0 0)
(-0.574582 5.32335e-12 0 -6.00973e-11 0.119495 0 0 0 0)
(-0.231214 4.64512e-12 0 -3.2053e-11 0.117382 0 0 0 0)
(-0.145512 1.49855e-12 0 -1.02221e-11 0.117367 0 0 0 0)
(-0.119923 -1.25923e-12 0 -1.03492e-13 0.119429 0 0 0 0)
(-0.0947575 -5.23806e-13 0 3.49803e-12 0.124805 0 0 0 0)
(-0.080401 -1.23619e-12 0 6.79598e-12 0.136203 0 0 0 0)
(-0.081495 -2.92739e-12 0 8.26359e-12 0.153873 0 0 0 0)
(-0.0719704 -6.90902e-13 0 4.79217e-12 0.157204 0 0 0 0)
(-0.05573 1.48676e-12 0 1.03492e-12 0.14702 0 0 0 0)
(-0.0256832 6.3396e-13 0 -2.60209e-13 0.119165 0 0 0 0)
(-0.0737524 -0.484692 0 -0.00952408 0.174629 0 0 0 0)
(-0.0602127 -0.184387 0 0.441605 -0.624221 0 0 0 0)
(0.0972398 0.0881989 0 0.915932 -0.207864 0 0 0 0)
(0.14397 0.164459 0 0.637743 0.122656 0 0 0 0)
(0.126266 0.121371 0 0.628866 0.240569 0 0 0 0)
(0.152889 0.0747886 0 0.50515 0.23806 0 0 0 0)
(0.163515 0.0157556 0 0.366638 0.252179 0 0 0 0)
(0.1702 -0.0257291 0 0.305246 0.190955 0 0 0 0)
(0.256741 -0.00109831 0 0.227432 0.0852148 0 0 0 0)
(0.225753 -0.00973491 0 0.145243 0.176784 0 0 0 0)
(0.000442277 -0.0358042 0 0.130725 0.0967548 0 0 0 0)
(-0.546056 -0.0250427 0 0.126737 0.0618796 0 0 0 0)
(-1.24065 -0.0204794 0 0.29456 -0.000873483 0 0 0 0)
(-0.989554 -0.0131601 0 0.125676 0.0802178 0 0 0 0)
(-0.232508 -0.0170669 0 0.0408275 0.0670001 0 0 0 0)
(0.016405 -0.0104836 0 -0.0649204 0.0481267 0 0 0 0)
(-0.030791 0.0268701 0 -0.200215 0.123075 0 0 0 0)
(-0.238625 0.0706051 0 -0.316628 0.279803 0 0 0 0)
(-0.498223 0.0552561 0 -0.243473 0.542111 0 0 0 0)
(-0.619781 0.0104383 0 -0.101618 0.679909 0 0 0 0)
(-0.577309 -0.0200221 0 -0.0452864 0.669708 0 0 0 0)
(-0.490658 -0.0274298 0 -0.0930669 0.599612 0 0 0 0)
(-0.466324 -0.0158704 0 -0.198519 0.506029 0 0 0 0)
(-0.574095 -0.00911965 0 -0.240422 0.418591 0 0 0 0)
(-0.945964 -0.0279878 0 -0.160154 0.334723 0 0 0 0)
(-1.48825 -0.038254 0 -0.0493483 0.233729 0 0 0 0)
(-1.28947 -0.0176571 0 -0.00981583 0.147686 0 0 0 0)
(-0.746015 -0.00291516 0 -0.0016842 0.11644 0 0 0 0)
(-1.11398 0.000515724 0 -0.00071879 0.116424 0 0 0 0)
(-1.20253 0.000447344 0 -0.00135877 0.118981 0 0 0 0)
(-0.575232 -0.000213761 0 -0.0044469 0.119836 0 0 0 0)
(-0.23227 -0.000309542 0 -0.00863114 0.117775 0 0 0 0)
(-0.146675 0.000297675 0 -0.0136379 0.117562 0 0 0 0)
(-0.121051 0.00108192 0 -0.0183258 0.119244 0 0 0 0)
(-0.0958563 0.00243993 0 -0.0205261 0.124286 0 0 0 0)
(-0.0814443 0.00422799 0 -0.0176716 0.135257 0 0 0 0)
(-0.0820035 0.00305466 0 -0.00690084 0.152741 0 0 0 0)
(-0.0715436 -0.00099675 0 0.00625707 0.155937 0 0 0 0)
(-0.0544373 -0.00553295 0 0.0134396 0.146186 0 0 0 0)
(-0.0248359 -0.00405162 0 0.0161777 0.118613 0 0 0 0)
(0.1837 -0.641797 0 0.522881 -0.522486 0 0 0 0)
(0.144616 -0.111271 0 0.979063 -0.245922 0 0 0 0)
(0.113518 0.217273 0 1.12829 0.088224 0 0 0 0)
(0.0854702 0.130453 0 0.935502 0.0513385 0 0 0 0)
(0.0903098 0.0335722 0 0.859172 0.11328 0 0 0 0)
(0.105065 0.0033776 0 0.71703 0.0624344 0 0 0 0)
(0.12308 -0.0137035 0 0.547623 0.137516 0 0 0 0)
(0.139292 -0.0485715 0 0.415714 0.192515 0 0 0 0)
(0.219873 -0.00412236 0 0.291118 0.185967 0 0 0 0)
(0.200875 0.00335709 0 0.12573 0.274849 0 0 0 0)
(-0.00479639 -0.0334267 0 0.0960084 0.202813 0 0 0 0)
(-0.511382 -0.028401 0 0.0999224 0.0982368 0 0 0 0)
(-1.24176 0.00533476 0 0.303624 0.00283044 0 0 0 0)
(-1.03865 0.019745 0 0.0970401 0.0688601 0 0 0 0)
(-0.270012 -0.00933559 0 0.0699827 0.0775475 0 0 0 0)
(-0.040151 0.0163128 0 -0.0957486 0.0842305 0 0 0 0)
(-0.0984957 0.0673967 0 -0.221158 0.207897 0 0 0 0)
(-0.267059 0.121901 0 -0.313704 0.361634 0 0 0 0)
(-0.45271 0.116395 0 -0.280967 0.532784 0 0 0 0)
(-0.543212 0.0371191 0 -0.10773 0.639813 0 0 0 0)
(-0.538824 -0.0233591 0 0.078614 0.628575 0 0 0 0)
(-0.519749 -0.0476158 0 0.101068 0.581375 0 0 0 0)
(-0.507118 -0.0526607 0 0.00701409 0.50039 0 0 0 0)
(-0.576818 -0.0498344 0 -0.0715823 0.409015 0 0 0 0)
(-0.928201 -0.0537781 0 -0.0971255 0.308377 0 0 0 0)
(-1.46929 -0.0544106 0 -0.109256 0.245212 0 0 0 0)
(-1.27113 -0.0341205 0 -0.064271 0.157797 0 0 0 0)
(-0.737283 -0.00909452 0 -0.00753997 0.11684 0 0 0 0)
(-1.11363 0.000739189 0 -0.000847023 0.116464 0 0 0 0)
(-1.20361 0.000992607 0 -0.00136817 0.119314 0 0 0 0)
(-0.576698 -0.000350663 0 -0.00458513 0.120266 0 0 0 0)
(-0.233888 -0.000661423 0 -0.0065448 0.118617 0 0 0 0)
(-0.148333 0.000427384 0 -0.00902342 0.118733 0 0 0 0)
(-0.121927 0.00195591 0 -0.0114158 0.120236 0 0 0 0)
(-0.0945672 0.00465807 0 -0.0112506 0.123973 0 0 0 0)
(-0.0764373 0.00827788 0 -0.00447547 0.131204 0 0 0 0)
(-0.074534 0.00601613 0 0.0138093 0.144447 0 0 0 0)
(-0.0660532 -0.00190692 0 0.0359236 0.147316 0 0 0 0)
(-0.052844 -0.0108578 0 0.0474078 0.141102 0 0 0 0)
(-0.0248867 -0.00802121 0 0.0489298 0.115504 0 0 0 0)
(0.0468178 0.0592505 0 0.886717 -0.123867 0 0 0 0)
(0.0827112 0.114153 0 0.817107 0.248992 0 0 0 0)
(0.051094 0.125421 0 0.742995 0.0525576 0 0 0 0)
(0.0427991 0.219495 0 0.695861 -0.020628 0 0 0 0)
(0.0307981 0.229849 0 0.633022 -0.0224332 0 0 0 0)
(0.012759 0.172561 0 0.5516 0.0495575 0 0 0 0)
(0.0212613 0.131414 0 0.440058 0.177727 0 0 0 0)
(0.0450383 0.0310743 0 0.319296 0.215992 0 0 0 0)
(0.117471 0.0540442 0 0.21167 0.261504 0 0 0 0)
(0.13213 -0.0143057 0 0.0705383 0.374522 0 0 0 0)
(-0.00968899 -0.149337 0 0.00473357 0.316396 0 0 0 0)
(-0.455915 -0.146603 0 0.000124624 0.20206 0 0 0 0)
(-1.24118 -0.0687543 0 0.0918763 0.109973 0 0 0 0)
(-1.07935 -0.0043386 0 -0.0111981 0.130489 0 0 0 0)
(-0.310074 -0.0163649 0 0.0317702 0.151054 0 0 0 0)
(-0.100827 0.0402981 0 -0.0847749 0.178915 0 0 0 0)
(-0.0892247 0.154019 0 -0.124437 0.249034 0 0 0 0)
(-0.243265 0.215086 0 -0.117779 0.426613 0 0 0 0)
(-0.421646 0.159059 0 -0.125143 0.557154 0 0 0 0)
(-0.482758 0.0396758 0 -0.103858 0.612446 0 0 0 0)
(-0.490835 -0.0528203 0 -0.0581823 0.591887 0 0 0 0)
(-0.501934 -0.0844967 0 -0.0283123 0.527908 0 0 0 0)
(-0.527455 -0.081448 0 -0.0113444 0.462143 0 0 0 0)
(-0.63627 -0.0824875 0 -0.0276262 0.397259 0 0 0 0)
(-0.990134 -0.100917 0 -0.0770607 0.32722 0 0 0 0)
(-1.48957 -0.114028 0 -0.132642 0.240588 0 0 0 0)
(-1.24687 -0.0791456 0 -0.0930199 0.148252 0 0 0 0)
(-0.716329 -0.0216973 0 -0.0104323 0.115306 0 0 0 0)
(-1.1105 0.00180924 0 0.00214282 0.115944 0 0 0 0)
(-1.20363 0.00220151 0 0.0042219 0.118969 0 0 0 0)
(-0.576785 -0.000493027 0 0.0017297 0.119824 0 0 0 0)
(-0.233182 -0.000864479 0 0.00271131 0.118567 0 0 0 0)
(-0.147814 0.00116372 0 0.00409182 0.119066 0 0 0 0)
(-0.121436 0.00335872 0 0.0053143 0.120498 0 0 0 0)
(-0.0929934 0.00675462 0 0.00674592 0.122891 0 0 0 0)
(-0.0715142 0.0123881 0 0.00972049 0.126521 0 0 0 0)
(-0.065299 0.00973702 0 0.017601 0.134344 0 0 0 0)
(-0.0568165 -0.00204308 0 0.0296138 0.137518 0 0 0 0)
(-0.0481212 -0.0193303 0 0.0372943 0.137704 0 0 0 0)
(-0.0238224 -0.0155181 0 0.0375799 0.116778 0 0 0 0)
(0.0181015 -0.0294804 0 0.390221 0.698968 0 0 0 0)
(0.0393167 -0.0621409 0 0.321505 0.65006 0 0 0 0)
(0.0301544 0.00671193 0 0.274978 0.60755 0 0 0 0)
(0.00237779 0.0104423 0 0.255328 0.574327 0 0 0 0)
(-0.0167932 -0.00404414 0 0.228356 0.379806 0 0 0 0)
(-0.031385 0.105538 0 0.218658 0.29716 0 0 0 0)
(-0.0461778 0.068862 0 0.187752 0.253955 0 0 0 0)
(-0.0302491 -0.0105496 0 0.165414 0.150717 0 0 0 0)
(0.0350726 0.117453 0 0.129945 0.174363 0 0 0 0)
(0.0383263 0.0657253 0 0.0382008 0.225025 0 0 0 0)
(-0.070026 -0.137462 0 -0.0448911 0.173743 0 0 0 0)
(-0.457152 -0.163934 0 -0.0769755 0.103419 0 0 0 0)
(-1.25298 -0.0239046 0 -0.160681 0.15491 0 0 0 0)
(-1.07474 0.0722469 0 -0.091693 0.187135 0 0 0 0)
(-0.319431 0.0410984 0 -0.0182702 0.218694 0 0 0 0)
(-0.158142 0.0978683 0 -0.0633739 0.223662 0 0 0 0)
(-0.135271 0.259638 0 -0.131157 0.270355 0 0 0 0)
(-0.280498 0.368848 0 -0.237758 0.44459 0 0 0 0)
(-0.455953 0.272593 0 -0.331038 0.590872 0 0 0 0)
(-0.511103 0.069218 0 -0.364257 0.626234 0 0 0 0)
(-0.491759 -0.0890252 0 -0.335499 0.59015 0 0 0 0)
(-0.484168 -0.152866 0 -0.280597 0.524427 0 0 0 0)
(-0.495552 -0.163122 0 -0.228947 0.442428 0 0 0 0)
(-0.608264 -0.162341 0 -0.191932 0.361951 0 0 0 0)
(-0.996188 -0.179474 0 -0.192019 0.288618 0 0 0 0)
(-1.4738 -0.194903 0 -0.226734 0.201445 0 0 0 0)
(-1.16637 -0.130702 0 -0.1398 0.129862 0 0 0 0)
(-0.656817 -0.0334697 0 -0.0145503 0.112966 0 0 0 0)
(-1.10119 0.00369494 0 0.0049656 0.113978 0 0 0 0)
(-1.204 0.00408324 0 0.00896316 0.116677 0 0 0 0)
(-0.578107 -0.000661737 0 0.00525352 0.11798 0 0 0 0)
(-0.23199 -0.00128308 0 0.00643466 0.11723 0 0 0 0)
(-0.146102 0.00189303 0 0.00847855 0.117906 0 0 0 0)
(-0.119633 0.00488984 0 0.0101792 0.119339 0 0 0 0)
(-0.0911652 0.00933815 0 0.01113 0.121623 0 0 0 0)
(-0.0686168 0.0171103 0 0.0114298 0.124448 0 0 0 0)
(-0.0603161 0.0146177 0 0.0133699 0.129328 0 0 0 0)
(-0.0520291 0.00140381 0 0.017086 0.130997 0 0 0 0)
(-0.0477 -0.0263 0 0.0211715 0.135836 0 0 0 0)
(-0.025182 -0.0241659 0 0.01981 0.120312 0 0 0 0)
(-0.0193996 0.0121209 0 -0.0144065 0.574826 0 0 0 0)
(-0.0283409 0.0260589 0 -0.0286764 0.54644 0 0 0 0)
(-0.0126762 0.0524417 0 -0.0661008 0.56581 0 0 0 0)
(-0.00212716 3.33259e-05 0 -0.0955763 0.554611 0 0 0 0)
(-0.00453875 -0.0372398 0 -0.0912917 0.548147 0 0 0 0)
(-0.0263685 0.0512856 0 -0.0865789 0.531229 0 0 0 0)
(-0.0300463 -0.00970398 0 -0.0788859 0.477087 0 0 0 0)
(-0.010667 -0.0456228 0 -0.0402934 0.400092 0 0 0 0)
(-0.0051165 0.12565 0 0.0167986 0.411103 0 0 0 0)
(-0.0363482 -0.0149035 0 -0.108031 0.374673 0 0 0 0)
(-0.120677 -0.266521 0 -0.248102 0.324512 0 0 0 0)
(-0.567495 -0.164751 0 -0.336832 0.306878 0 0 0 0)
(-1.25536 0.0119174 0 -0.456869 0.314165 0 0 0 0)
(-0.942113 0.0571254 0 -0.123063 0.250781 0 0 0 0)
(-0.282785 0.0188336 0 -0.0712919 0.265147 0 0 0 0)
(-0.209608 0.0900811 0 -0.127278 0.269646 0 0 0 0)
(-0.257267 0.366913 0 -0.265347 0.383172 0 0 0 0)
(-0.435878 0.523947 0 -0.435052 0.57633 0 0 0 0)
(-0.543545 0.334098 0 -0.547716 0.635669 0 0 0 0)
(-0.487057 0.0389801 0 -0.516136 0.576828 0 0 0 0)
(-0.410217 -0.150926 0 -0.42942 0.50862 0 0 0 0)
(-0.399257 -0.226847 0 -0.341458 0.445706 0 0 0 0)
(-0.442013 -0.238016 0 -0.270461 0.379663 0 0 0 0)
(-0.600685 -0.230704 0 -0.243002 0.317485 0 0 0 0)
(-1.02367 -0.255586 0 -0.265888 0.246272 0 0 0 0)
(-1.43925 -0.267011 0 -0.312144 0.158995 0 0 0 0)
(-1.0424 -0.164407 0 -0.164618 0.11228 0 0 0 0)
(-0.576827 -0.0370038 0 -0.016357 0.110906 0 0 0 0)
(-1.08784 0.00538497 0 0.00618745 0.11229 0 0 0 0)
(-1.20335 0.00605798 0 0.00979665 0.115134 0 0 0 0)
(-0.579222 3.9957e-05 0 0.00371894 0.118277 0 0 0 0)
(-0.230075 -0.00093558 0 0.00367285 0.119393 0 0 0 0)
(-0.144206 0.00319619 0 0.00501716 0.120789 0 0 0 0)
(-0.118881 0.00694046 0 0.00593238 0.122537 0 0 0 0)
(-0.0917882 0.011678 0 0.00588244 0.125002 0 0 0 0)
(-0.0693557 0.0198133 0 0.00504054 0.126385 0 0 0 0)
(-0.0598486 0.0160479 0 0.00534676 0.128354 0 0 0 0)
(-0.0492986 0.00422856 0 0.00573566 0.125805 0 0 0 0)
(-0.0454962 -0.0296271 0 0.0105328 0.13196 0 0 0 0)
(-0.0251344 -0.030478 0 0.0118111 0.121437 0 0 0 0)
(0.0043505 -0.056834 0 -0.2979 0.480311 0 0 0 0)
(-0.0104979 -0.0708292 0 -0.267069 0.440497 0 0 0 0)
(-0.0343128 0.0145861 0 -0.252026 0.430333 0 0 0 0)
(-0.0218971 -0.00657863 0 -0.246738 0.413509 0 0 0 0)
(-0.0081229 -0.0265761 0 -0.235998 0.424866 0 0 0 0)
(-0.0194303 0.0370622 0 -0.226509 0.439809 0 0 0 0)
(-0.00157547 -0.0575068 0 -0.196082 0.386958 0 0 0 0)
(0.061956 -0.0741343 0 -0.124149 0.389438 0 0 0 0)
(-0.030202 0.0929584 0 -0.115313 0.422208 0 0 0 0)
(-0.216942 -0.0177172 0 -0.292841 0.205176 0 0 0 0)
(-0.290506 -0.202792 0 -0.345969 0.240006 0 0 0 0)
(-0.658327 -0.173905 0 -0.497488 0.303829 0 0 0 0)
(-1.04698 -0.0779614 0 -0.541499 0.288986 0 0 0 0)
(-0.703188 0.025012 0 -0.0616827 0.266036 0 0 0 0)
(-0.323492 0.0592772 0 -0.104725 0.299109 0 0 0 0)
(-0.345141 0.211601 0 -0.226133 0.371546 0 0 0 0)
(-0.431853 0.555169 0 -0.424237 0.596804 0 0 0 0)
(-0.552599 0.612164 0 -0.608536 0.713853 0 0 0 0)
(-0.534089 0.273073 0 -0.632524 0.604206 0 0 0 0)
(-0.397109 -0.0532113 0 -0.52834 0.474791 0 0 0 0)
(-0.323433 -0.215379 0 -0.433354 0.401684 0 0 0 0)
(-0.330989 -0.277133 0 -0.360275 0.351153 0 0 0 0)
(-0.400675 -0.286681 0 -0.309155 0.308317 0 0 0 0)
(-0.603857 -0.290881 0 -0.294825 0.261591 0 0 0 0)
(-1.06282 -0.332201 0 -0.338669 0.19289 0 0 0 0)
(-1.37621 -0.324022 0 -0.379759 0.115238 0 0 0 0)
(-0.881341 -0.177043 0 -0.160679 0.103252 0 0 0 0)
(-0.492222 -0.0334598 0 -0.0147457 0.113098 0 0 0 0)
(-1.07599 0.00776883 0 0.0101093 0.114243 0 0 0 0)
(-1.20637 0.00985256 0 0.01599 0.118475 0 0 0 0)
(-0.584008 0.00344267 0 0.00998475 0.121875 0 0 0 0)
(-0.230739 0.00113793 0 0.0100531 0.123837 0 0 0 0)
(-0.143925 0.00492232 0 0.0116624 0.12616 0 0 0 0)
(-0.118799 0.00894933 0 0.0128647 0.128004 0 0 0 0)
(-0.0920246 0.0130469 0 0.0137811 0.13023 0 0 0 0)
(-0.069133 0.0203405 0 0.0145832 0.129142 0 0 0 0)
(-0.0596462 0.0140589 0 0.0164794 0.128782 0 0 0 0)
(-0.0470317 0.00487867 0 0.0153836 0.12228 0 0 0 0)
(-0.0418455 -0.0305098 0 0.0189389 0.126976 0 0 0 0)
(-0.0239501 -0.0343066 0 0.0205938 0.120672 0 0 0 0)
(0.01031 -0.0262455 0 -0.413312 0.356876 0 0 0 0)
(0.015865 -0.022102 0 -0.413076 0.395307 0 0 0 0)
(0.00691544 0.0264355 0 -0.39288 0.418695 0 0 0 0)
(0.0133173 -0.00523448 0 -0.361755 0.396317 0 0 0 0)
(0.0149542 -0.011897 0 -0.34231 0.425885 0 0 0 0)
(0.0120966 0.0147557 0 -0.329475 0.443429 0 0 0 0)
(0.0685916 -0.0582428 0 -0.296835 0.378298 0 0 0 0)
(0.0671648 -0.0116545 0 -0.230572 0.428718 0 0 0 0)
(-0.167674 -0.0519112 0 -0.314629 0.413802 0 0 0 0)
(-0.258617 -0.190479 0 -0.417239 0.234065 0 0 0 0)
(-0.317882 -0.171456 0 -0.408575 0.187871 0 0 0 0)
(-0.755914 -0.117553 0 -0.491481 0.244779 0 0 0 0)
(-0.835403 -0.0245006 0 -0.422116 0.293537 0 0 0 0)
(-0.521222 0.0668801 0 -0.129306 0.377502 0 0 0 0)
(-0.441255 0.120507 0 -0.23301 0.408291 0 0 0 0)
(-0.517502 0.376952 0 -0.403082 0.574179 0 0 0 0)
(-0.625765 0.696772 0 -0.602404 0.847049 0 0 0 0)
(-0.63659 0.53108 0 -0.716332 0.749584 0 0 0 0)
(-0.466265 0.103729 0 -0.620791 0.514107 0 0 0 0)
(-0.295129 -0.156178 0 -0.498856 0.381463 0 0 0 0)
(-0.248264 -0.270068 0 -0.420286 0.313968 0 0 0 0)
(-0.279574 -0.316819 0 -0.36611 0.271036 0 0 0 0)
(-0.378943 -0.324321 0 -0.336321 0.241507 0 0 0 0)
(-0.629126 -0.341933 0 -0.343811 0.201434 0 0 0 0)
(-1.10552 -0.396617 0 -0.412957 0.135912 0 0 0 0)
(-1.26773 -0.35339 0 -0.41699 0.0821573 0 0 0 0)
(-0.690659 -0.16647 0 -0.134635 0.104736 0 0 0 0)
(-0.412249 -0.026412 0 -0.0142396 0.119571 0 0 0 0)
(-1.05823 0.0105664 0 0.00965034 0.120915 0 0 0 0)
(-1.20347 0.0134117 0 0.0158555 0.124239 0 0 0 0)
(-0.584943 0.00520685 0 0.0100284 0.126121 0 0 0 0)
(-0.228458 0.00319405 0 0.00997786 0.127767 0 0 0 0)
(-0.141496 0.00721215 0 0.0114284 0.1304 0 0 0 0)
(-0.116839 0.0108628 0 0.0120952 0.132516 0 0 0 0)
(-0.0901322 0.0127739 0 0.0125646 0.135729 0 0 0 0)
(-0.0667555 0.0184176 0 0.0128153 0.132279 0 0 0 0)
(-0.0590773 0.00943565 0 0.0152824 0.131426 0 0 0 0)
(-0.0469285 0.00248833 0 0.0140366 0.122316 0 0 0 0)
(-0.0404754 -0.0311767 0 0.0162017 0.124646 0 0 0 0)
(-0.0235397 -0.0365533 0 0.0171815 0.12065 0 0 0 0)
(0.00457734 -0.0198006 0 -0.443442 0.334963 0 0 0 0)
(0.0091913 -0.0112583 0 -0.451182 0.354098 0 0 0 0)
(0.0151428 0.0155596 0 -0.457299 0.366127 0 0 0 0)
(0.0268341 0.000350183 0 -0.452864 0.343677 0 0 0 0)
(0.0229834 0.018823 0 -0.454807 0.371144 0 0 0 0)
(0.0243904 -0.00879436 0 -0.449248 0.357299 0 0 0 0)
(0.0937302 -0.071683 0 -0.438392 0.314787 0 0 0 0)
(0.044809 -0.0399211 0 -0.459817 0.35514 0 0 0 0)
(-0.210081 -0.0946168 0 -0.54365 0.270166 0 0 0 0)
(-0.307472 -0.235432 0 -0.499598 0.280135 0 0 0 0)
(-0.362049 -0.192468 0 -0.603935 0.224813 0 0 0 0)
(-0.671375 -0.0720823 0 -0.643642 0.259414 0 0 0 0)
(-0.697976 0.0499356 0 -0.431338 0.369149 0 0 0 0)
(-0.520958 0.135593 0 -0.400274 0.427328 0 0 0 0)
(-0.587313 0.248802 0 -0.554342 0.501691 0 0 0 0)
(-0.701103 0.634405 0 -0.728002 0.878033 0 0 0 0)
(-0.733711 0.724196 0 -0.848654 0.952907 0 0 0 0)
(-0.570317 0.291329 0 -0.76255 0.62456 0 0 0 0)
(-0.324521 -0.0816619 0 -0.57674 0.397255 0 0 0 0)
(-0.203896 -0.246072 0 -0.463362 0.293246 0 0 0 0)
(-0.195515 -0.32179 0 -0.401824 0.237514 0 0 0 0)
(-0.250077 -0.34696 0 -0.3665 0.206831 0 0 0 0)
(-0.379187 -0.353752 0 -0.355932 0.181897 0 0 0 0)
(-0.677706 -0.392636 0 -0.391665 0.146188 0 0 0 0)
(-1.13333 -0.447141 0 -0.4803 0.0777061 0 0 0 0)
(-1.10801 -0.354064 0 -0.40845 0.0364936 0 0 0 0)
(-0.493236 -0.14099 0 -0.0945972 0.102556 0 0 0 0)
(-0.353184 -0.0178694 0 -0.0115392 0.118339 0 0 0 0)
(-1.04699 0.0122672 0 0.00928963 0.116981 0 0 0 0)
(-1.20601 0.0148698 0 0.0107378 0.110742 0 0 0 0)
(-0.589672 0.00684295 0 0.00389915 0.100098 0 0 0 0)
(-0.22939 0.00526109 0 0.00544115 0.0934875 0 0 0 0)
(-0.141885 0.0094984 0 0.00957456 0.0955275 0 0 0 0)
(-0.117704 0.0140842 0 0.0132783 0.104483 0 0 0 0)
(-0.0913307 0.0128182 0 0.0157086 0.118854 0 0 0 0)
(-0.0665141 0.0161941 0 0.0143164 0.126135 0 0 0 0)
(-0.0584694 0.00445852 0 0.0138919 0.132381 0 0 0 0)