/*--------------------------------*- C++ -*----------------------------------*\
| =========                 |                                                 |
| \\      /  F ield         | OpenFOAM: The Open Source CFD Toolbox           |
|  \\    /   O peration     | Version:  v1912                                 |
|   \\  /    A nd           | Website:  www.openfoam.com                      |
|    \\/     M anipulation  |                                                 |
\*---------------------------------------------------------------------------*/
FoamFile
{
    version     2.0;
    format      ascii;
    class       volScalarField;
    location    "4.02";
    object      p;
}
// * * * * * * * * * * * * * * * * * * * * * * * * * * * * * * * * * * * * * //

dimensions      [1 -1 -2 0 0 0 0];


internalField   nonuniform List<scalar> 
1900
(
29687.9
13042
11724.5
11567.5
11362.1
11165
10982.1
10811.4
10651.2
10531.5
29688.1
13042.1
11724.5
11567.8
11363.1
11167
10984.7
10811.8
10623.2
10460.8
29688.3
13042.1
11724.3
11567.5
11362
11165.1
10982.6
10811.6
10627
10460.5
29688.1
13042.1
11724.5
11567.8
11363.1
11167
10984.7
10811.8
10623.2
10460.8
29687.9
13042
11724.5
11567.5
11362.1
11165
10982.1
10811.4
10651.2
10531.5
10369.9
10258.4
10077.3
9832.7
9349.48
10289.4
10140.2
9944.23
9691.24
9278.4
10284.3
10135.2
9945.35
9702.15
9293.41
10289.4
10140.2
9944.23
9691.24
9278.4
10369.9
10258.4
10077.3
9832.7
9349.48
8833.55
7784.35
7121.08
6510.14
5962.35
8810.87
7819.73
7161.56
6551.98
5858.87
8803.8
7827.78
7159.01
6515.61
5784.67
8810.87
7819.73
7161.56
6551.98
5858.87
8833.55
7784.35
7121.08
6510.14
5962.35
4778.03
2443.91
2721.04
3023.23
2931.05
2777.61
2584.49
2387.18
2288.33
2214.33
2169.21
2130.83
2099.19
2073.27
2052.5
2035.85
2022.6
2012.04
2003.8
1996.82
1991.08
1986.07
1981.05
1976.27
1971.53
1967.04
1962.81
1958.61
1953.72
1947.06
1936.8
1922.92
1904.02
1885.92
1863.88
1846.19
1822.63
1807.04
2047.16
9465.43
4797.35
2572.56
2777.82
3062.11
2954.25
2788.24
2589.37
2388.27
2289.47
2214.69
2169.52
2131.04
2099.35
2073.4
2052.6
2035.94
2022.69
2012.13
2003.89
1996.9
1991.16
1986.14
1981.12
1976.33
1971.58
1967.09
1962.86
1958.65
1953.76
1947.09
1936.82
1922.94
1904.04
1886.01
1863.99
1846.52
1823
1807.6
2047.68
9470.51
4697.01
2800.82
2918.19
3109.63
2969.73
2793.47
2591.68
2389.25
2289.87
2214.98
2169.73
2131.17
2099.44
2073.46
2052.66
2035.99
2022.74
2012.17
2003.93
1996.94
1991.2
1986.18
1981.15
1976.36
1971.61
1967.13
1962.89
1958.69
1953.81
1947.16
1936.93
1923.1
1904.32
1886.45
1864.71
1847.66
1824.72
1809.8
2049.97
9591.25
4797.35
2572.56
2777.82
3062.11
2954.25
2788.24
2589.37
2388.27
2289.47
2214.69
2169.52
2131.04
2099.35
2073.4
2052.6
2035.94
2022.69
2012.13
2003.89
1996.9
1991.16
1986.14
1981.12
1976.33
1971.58
1967.09
1962.86
1958.65
1953.76
1947.09
1936.82
1922.94
1904.04
1886.01
1863.99
1846.52
1823
1807.6
2047.68
9470.51
4778.03
2443.91
2721.04
3023.23
2931.05
2777.61
2584.49
2387.18
2288.33
2214.33
2169.21
2130.83
2099.19
2073.27
2052.5
2035.85
2022.6
2012.04
2003.8
1996.82
1991.08
1986.07
1981.05
1976.27
1971.53
1967.04
1962.81
1958.61
1953.72
1947.06
1936.8
1922.92
1904.02
1885.92
1863.88
1846.19
1822.63
1807.04
2047.16
9465.43
5029.62
2144.76
2512
2856.8
2850.81
2733.93
2558.19
2379.58
2281.62
2211.25
2166.78
2128.98
2097.7
2072.08
2051.49
2034.94
2021.77
2011.26
2003.08
1996.13
1990.43
1985.43
1980.42
1975.64
1970.89
1966.38
1962.12
1957.88
1952.95
1946.26
1935.96
1922.12
1903.26
1884.93
1863.03
1844.64
1821.31
1804.84
2049.29
9912.17
5438.7
1911.51
2342.16
2624.7
2688.59
2620.46
2493.73
2356.71
2264.67
2204.5
2161.11
2124.65
2094.32
2069.38
2049.17
2032.86
2019.84
2009.47
2001.4
1994.54
1988.91
1983.97
1978.99
1974.22
1969.46
1964.94
1960.64
1956.34
1951.31
1944.58
1934.24
1920.46
1901.7
1882.83
1860.87
1841.11
1817.47
1799.52
2032.55
9368.94
5948.29
1850.51
2229.77
2468.26
2534.02
2499.41
2415.98
2318.66
2243.3
2192.88
2152.32
2118.06
2089.21
2065.22
2045.58
2029.6
2016.85
2006.68
1998.79
1992.08
1986.56
1981.71
1976.77
1972.02
1967.25
1962.69
1958.32
1953.92
1948.75
1941.94
1931.52
1917.8
1899.21
1879.53
1857.29
1835.83
1811.54
1792.23
2010.06
9222.64
6551.39
1836.95
2138.09
2325.38
2401.86
2389.47
2338.06
2274.73
2218.68
2177.39
2141.03
2109.7
2082.72
2059.87
2040.92
2025.42
2013.02
2003.15
1995.51
1988.99
1983.63
1978.89
1974
1969.27
1964.49
1959.88
1955.4
1950.86
1945.48
1938.61
1928.1
1914.39
1895.93
1875.28
1852.43
1829.23
1803.96
1783.96
1991.32
9051.48
6640.35
1815
2073.37
2209.2
2284.59
2293.3
2267.9
2229.99
2192.19
2158.96
2127.93
2099.85
2074.99
2053.43
2035.31
2020.41
2008.49
1999.01
1991.7
1985.41
1980.24
1975.64
1970.8
1966.09
1961.27
1956.58
1951.95
1947.22
1941.51
1934.53
1923.85
1910.07
1891.53
1869.59
1845.6
1820.52
1794.32
1774.31
1965.56
8896.49
6670.3
1784.34
2001.12
2113.43
2186.34
2212.04
2206.77
2189.56
2165.35
2139.7
2113.86
2089.07
2066.28
2046.08
2028.91
2014.74
2003.41
1994.43
1987.52
1981.52
1976.58
1972.13
1967.35
1962.63
1957.76
1952.95
1948.1
1943.14
1937.1
1930.03
1919.18
1905.17
1886.49
1863.17
1837.84
1810.95
1783.78
1764.21
1931.73
8632.91
6838.38
1754.24
1940.69
2037.15
2107.18
2144.1
2153.92
2151.18
2137.89
2119.45
2098.62
2077.1
2056.46
2037.8
2021.72
2008.43
1997.84
1989.47
1983.05
1977.39
1972.71
1968.42
1963.67
1958.93
1953.94
1948.95
1943.77
1938.49
1931.89
1924.67
1913.59
1899.12
1880.06
1855.19
1828.03
1799.4
1771.45
1753.22
1892.85
8355.73
6525.27
1721.62
1883.24
1968.3
2041.28
2086.83
2110.38
2118.68
2113.05
2100.98
2084.05
2065.13
2046.23
2028.85
2013.8
2001.44
1991.67
1983.99
1978.12
1972.84
1968.45
1964.33
1959.6
1954.83
1949.72
1944.55
1939.12
1933.67
1926.73
1919.56
1908.58
1893.64
1874.45
1847.86
1818.61
1787.67
1758.5
1740.73
1828.31
7969.03
6392.49
1693.78
1838.78
1914.96
1989.05
2038.8
2070.61
2086.9
2087.47
2080.58
2067.14
2050.8
2033.75
2017.92
2004.16
1992.95
1984.17
1977.32
1972.09
1967.23
1963.15
1959.19
1954.45
1949.58
1944.28
1938.84
1932.92
1927.08
1919.53
1912.38
1901.46
1885.79
1866.46
1838.53
1807.16
1774.33
1744.93
1728.76
1765.84
7551.29
6156.85
1661.18
1792.26
1860.68
1936.2
1991.92
2032.39
2056.23
2063.49
2061.37
2051.11
2036.86
2020.99
2006.09
1993.15
1982.79
1974.84
1968.72
1964.06
1959.6
1955.85
1952.1
1947.41
1942.59
1937.27
1931.84
1925.84
1920.06
1912.46
1905
1894
1876.66
1855.93
1824.78
1789.4
1752.45
1721.86
1705.77
1687.63
7071.23
5861.4
1631.67
1757.79
1820.8
1895.75
1952.72
1998.36
2026.5
2038.45
2039.79
2031.02
2018.37
2003.44
1989.74
1977.86
1968.56
1961.61
1956.31
1952.27
1948.22
1944.81
1941.26
1936.6
1931.83
1926.48
1921.05
1914.92
1909.19
1901.71
1894.36
1884.12
1866.14
1844.94
1811.8
1772.84
1732.59
1700.92
1685.78
1631.5
6551.14
5520.85
1597.42
1717.21
1780.11
1846.92
1905.47
1956.01
1988.09
2005.41
2010.33
2004.17
1994.48
1981.58
1969.76
1959.32
1951.28
1945.33
1940.81
1937.33
1933.63
1930.53
1927.2
1922.64
1917.93
1912.49
1906.77
1900.16
1893.83
1885.42
1876.39
1865.28
1844.74
1822
1785.02
1741.63
1696.82
1663.05
1648.44
1577.8
5992.49
5141.34
1554.23
1667.63
1730.65
1794.91
1856.97
1912.43
1948.6
1972.03
1978.42
1974.19
1966.57
1954.88
1944.83
1935.95
1929.3
1924.38
1920.56
1917.49
1914.05
1911.26
1908.29
1903.99
1899.56
1894.18
1888.37
1881.28
1874.56
1865.56
1855.2
1843.65
1820.52
1794.99
1752.61
1703.97
1654.24
1617.19
1601.36
1527.7
5425.95
4741.05
1506.58
1611.64
1668.45
1730.59
1797.52
1854.12
1896.74
1926.18
1934.84
1934.11
1929.93
1921.11
1914.43
1908.55
1904.53
1901.79
1899.71
1898.05
1895.4
1892.74
1889.54
1884.54
1879.18
1872.55
1865.28
1856.57
1848.19
1837.81
1823.75
1809.65
1781.88
1751.51
1703.83
1650.57
1598.32
1558.93
1542.92
1475.25
4863.82
4341.9
1452.09
1548.92
1602.38
1662.53
1730.58
1788.51
1837.09
1872.21
1885.76
1891.28
1889.71
1884.6
1881.68
1878.66
1877.15
1876.2
1875.31
1874.33
1872.06
1869.78
1866.92
1861.91
1856.23
1848.71
1840.16
1829.7
1819.01
1806.1
1788.14
1770.68
1738.99
1704.09
1651.76
1594.9
1539.86
1498.57
1481.64
1420.47
4346.9
3929.47
1406.59
1495.29
1543.04
1603.19
1671.62
1732.46
1786.91
1819.24
1835.24
1846.29
1848.46
1846.84
1847.98
1848.11
1849.55
1851.05
1852.28
1853.35
1852.25
1849.84
1846.22
1839.82
1832.62
1823.35
1813.13
1801.15
1788.69
1774.77
1753.89
1734.16
1698.93
1659.94
1604.87
1545.14
1489.7
1446.86
1432.06
1376.72
3854.73
3652.51
1377.95
1454.82
1496.92
1553.06
1620.49
1684.19
1743.05
1775.34
1796.86
1809.4
1812.63
1812.53
1815.55
1817.72
1821.09
1824.31
1826.72
1828.85
1828.24
1825.87
1822.33
1815.39
1807.33
1797.14
1786.07
1773.72
1760.73
1746.54
1724.48
1704.61
1669.25
1628.79
1571.98
1510.28
1453.29
1410.55
1398.43
1352.02
3531.29
3338.2
1383.09
1455.3
1485.92
1537.04
1601.04
1663.74
1722.46
1754.27
1774.77
1786.32
1789.16
1790.47
1793.57
1796.01
1800.2
1804.68
1808.74
1812.76
1813.5
1811.01
1806.21
1797.8
1788.84
1778.25
1767.49
1756.23
1744.01
1731.87
1710.27
1691.4
1656.55
1615.64
1559.18
1497.12
1441.73
1401.84
1393.14
1357.28
3174.39
5286.06
1508.32
1465.44
1469.96
1505.52
1556.72
1608.13
1662.66
1714.74
1774.16
1849.46
1911.12
1971.22
2009.72
2042.59
2062.63
2077.75
2082.24
2089.31
2083.55
2080.74
2082.96
2071.84
2062.72
2042.46
2015.01
1980.17
1924.5
1871.54
1778.06
1706.6
1629.63
1565.36
1503.83
1444.53
1394.14
1362.12
1365.98
1446.85
5058.1
46037.4
5470.21
3632.19
4008.61
4358.91
4870.11
5387.38
5941.82
6469.3
6983.34
7453.64
7893.98
8301.21
8652.43
8943.22
9180.19
9343.59
9511.86
9589.22
9654.46
9650.15
9569.73
9488.95
9291.64
9135.59
8852.2
8567.17
8167.2
7743.33
7261.11
6749.18
6199.62
5629.69
5045.87
4497.86
3962.91
3604.94
3207.14
4939.62
42312.8
46037.4
5470.21
3632.19
4008.61
4358.91
4870.11
5387.38
5941.82
6469.3
6983.34
7453.64
7893.98
8301.21
8652.43
8943.22
9180.19
9343.59
9511.86
9589.22
9654.46
9650.15
9569.73
9488.95
9291.64
9135.59
8852.2
8567.17
8167.2
7743.33
7261.11
6749.18
6199.62
5629.69
5045.87
4497.86
3962.91
3604.94
3207.14
4939.62
42312.8
5286.06
1508.32
1465.44
1469.96
1505.52
1556.72
1608.13
1662.66
1714.74
1774.16
1849.46
1911.12
1971.22
2009.72
2042.59
2062.63
2077.75
2082.24
2089.31
2083.55
2080.74
2082.96
2071.84
2062.72
2042.46
2015.01
1980.17
1924.5
1871.54
1778.06
1706.6
1629.63
1565.36
1503.83
1444.53
1394.14
1362.12
1365.98
1446.85
5058.1
3338.2
1383.09
1455.3
1485.92
1537.04
1601.04
1663.74
1722.46
1754.27
1774.77
1786.32
1789.16
1790.47
1793.57
1796.01
1800.2
1804.68
1808.74
1812.76
1813.5
1811.01
1806.21
1797.8
1788.84
1778.25
1767.49
1756.23
1744.01
1731.87
1710.27
1691.4
1656.55
1615.64
1559.18
1497.12
1441.73
1401.84
1393.14
1357.28
3174.39
3652.51
1377.95
1454.82
1496.92
1553.06
1620.49
1684.19
1743.05
1775.34
1796.86
1809.4
1812.63
1812.53
1815.55
1817.72
1821.09
1824.31
1826.72
1828.85
1828.24
1825.87
1822.33
1815.39
1807.33
1797.14
1786.07
1773.72
1760.73
1746.54
1724.48
1704.61
1669.25
1628.79
1571.98
1510.28
1453.29
1410.55
1398.43
1352.02
3531.29
3929.47
1406.59
1495.29
1543.04
1603.19
1671.62
1732.46
1786.91
1819.24
1835.24
1846.29
1848.46
1846.84
1847.98
1848.11
1849.55
1851.05
1852.28
1853.35
1852.25
1849.84
1846.22
1839.82
1832.62
1823.35
1813.13
1801.15
1788.69
1774.77
1753.89
1734.16
1698.93
1659.94
1604.87
1545.14
1489.7
1446.86
1432.06
1376.72
3854.73
4341.9
1452.09
1548.92
1602.38
1662.53
1730.58
1788.51
1837.09
1872.21
1885.76
1891.28
1889.71
1884.6
1881.68
1878.66
1877.15
1876.2
1875.31
1874.33
1872.06
1869.78
1866.92
1861.91
1856.23
1848.71
1840.16
1829.7
1819.01
1806.1
1788.14
1770.68
1738.99
1704.09
1651.76
1594.9
1539.86
1498.57
1481.64
1420.47
4346.9
4741.05
1506.58
1611.64
1668.45
1730.59
1797.52
1854.12
1896.74
1926.18
1934.84
1934.11
1929.93
1921.11
1914.43
1908.55
1904.53
1901.79
1899.71
1898.05
1895.4
1892.74
1889.54
1884.54
1879.18
1872.55
1865.28
1856.57
1848.19
1837.81
1823.75
1809.65
1781.88
1751.51
1703.83
1650.57
1598.32
1558.93
1542.92
1475.25
4863.82
5141.34
1554.23
1667.63
1730.65
1794.91
1856.97
1912.43
1948.6
1972.03
1978.42
1974.19
1966.57
1954.88
1944.83
1935.95
1929.3
1924.38
1920.56
1917.49
1914.05
1911.26
1908.29
1903.99
1899.56
1894.18
1888.37
1881.28
1874.56
1865.56
1855.2
1843.65
1820.52
1794.99
1752.61
1703.97
1654.24
1617.19
1601.36
1527.7
5425.95
5520.85
1597.42
1717.21
1780.11
1846.92
1905.47
1956.01
1988.09
2005.41
2010.33
2004.17
1994.48
1981.58
1969.76
1959.32
1951.28
1945.33
1940.81
1937.33
1933.63
1930.53
1927.2
1922.64
1917.93
1912.49
1906.77
1900.16
1893.83
1885.42
1876.39
1865.28
1844.74
1822
1785.02
1741.63
1696.82
1663.05
1648.44
1577.8
5992.49
5861.4
1631.67
1757.79
1820.8
1895.75
1952.72
1998.36
2026.5
2038.45
2039.79
2031.02
2018.37
2003.44
1989.74
1977.86
1968.56
1961.61
1956.31
1952.27
1948.22
1944.81
1941.26
1936.6
1931.83
1926.48
1921.05
1914.92
1909.19
1901.71
1894.36
1884.12
1866.14
1844.94
1811.8
1772.84
1732.59
1700.92
1685.78
1631.5
6551.14
6156.85
1661.18
1792.26
1860.68
1936.2
1991.92
2032.39
2056.23
2063.49
2061.37
2051.11
2036.86
2020.99
2006.09
1993.15
1982.79
1974.84
1968.72
1964.06
1959.6
1955.85
1952.1
1947.41
1942.59
1937.27
1931.84
1925.84
1920.06
1912.46
1905
1894
1876.66
1855.93
1824.78
1789.4
1752.45
1721.86
1705.77
1687.63
7071.23
6392.49
1693.78
1838.78
1914.96
1989.05
2038.8
2070.61
2086.9
2087.47
2080.58
2067.14
2050.8
2033.75
2017.92
2004.16
1992.95
1984.17
1977.32
1972.09
1967.23
1963.15
1959.19
1954.45
1949.58
1944.28
1938.84
1932.92
1927.08
1919.53
1912.38
1901.46
1885.79
1866.46
1838.53
1807.16
1774.33
1744.93
1728.76
1765.84
7551.29
6525.27
1721.62
1883.24
1968.3
2041.28
2086.83
2110.38
2118.68
2113.05
2100.98
2084.05
2065.13
2046.23
2028.85
2013.8
2001.44
1991.67
1983.99
1978.12
1972.84
1968.45
1964.33
1959.6
1954.83
1949.72
1944.55
1939.12
1933.67
1926.73
1919.56
1908.58
1893.64
1874.45
1847.86
1818.61
1787.67
1758.5
1740.73
1828.31
7969.03
6838.38
1754.24
1940.69
2037.15
2107.18
2144.1
2153.92
2151.18
2137.89
2119.45
2098.62
2077.1
2056.46
2037.8
2021.72
2008.43
1997.84
1989.47
1983.05
1977.39
1972.71
1968.42
1963.67
1958.93
1953.94
1948.95
1943.77
1938.49
1931.89
1924.67
1913.59
1899.12
1880.06
1855.19
1828.03
1799.4
1771.45
1753.22
1892.85
8355.73
6670.3
1784.34
2001.12
2113.43
2186.34
2212.04
2206.77
2189.56
2165.35
2139.7
2113.86
2089.07
2066.28
2046.08
2028.91
2014.74
2003.41
1994.43
1987.52
1981.52
1976.58
1972.13
1967.35
1962.63
1957.76
1952.95
1948.1
1943.14
1937.1
1930.03
1919.18
1905.17
1886.49
1863.17
1837.84
1810.95
1783.78
1764.21
1931.73
8632.91
6640.35
1815
2073.37
2209.2
2284.59
2293.3
2267.9
2229.99
2192.19
2158.96
2127.93
2099.85
2074.99
2053.43
2035.31
2020.41
2008.49
1999.01
1991.7
1985.41
1980.24
1975.64
1970.8
1966.09
1961.27
1956.58
1951.95
1947.22
1941.51
1934.53
1923.85
1910.07
1891.53
1869.59
1845.6
1820.52
1794.32
1774.31
1965.56
8896.49
6551.39
1836.95
2138.09
2325.38
2401.86
2389.47
2338.06
2274.73
2218.68
2177.39
2141.03
2109.7
2082.72
2059.87
2040.92
2025.42
2013.02
2003.15
1995.51
1988.99
1983.63
1978.89
1974
1969.27
1964.49
1959.88
1955.4
1950.86
1945.48
1938.61
1928.1
1914.39
1895.93
1875.28
1852.43
1829.23
1803.96
1783.96
1991.32
9051.48
5948.29
1850.51
2229.77
2468.26
2534.02
2499.41
2415.98
2318.66
2243.3
2192.88
2152.32
2118.06
2089.21
2065.22
2045.58
2029.6
2016.85
2006.68
1998.79
1992.08
1986.56
1981.71
1976.77
1972.02
1967.25
1962.69
1958.32
1953.92
1948.75
1941.94
1931.52
1917.8
1899.21
1879.53
1857.29
1835.83
1811.54
1792.23
2010.06
9222.64
5438.7
1911.51
2342.16
2624.7
2688.59
2620.46
2493.73
2356.71
2264.67
2204.5
2161.11
2124.65
2094.32
2069.38
2049.17
2032.86
2019.84
2009.47
2001.4
1994.54
1988.91
1983.97
1978.99
1974.22
1969.46
1964.94
1960.64
1956.34
1951.31
1944.58
1934.24
1920.46
1901.7
1882.83
1860.87
1841.11
1817.47
1799.52
2032.55
9368.94
5029.62
2144.76
2512
2856.8
2850.81
2733.93
2558.19
2379.58
2281.62
2211.25
2166.78
2128.98
2097.7
2072.08
2051.49
2034.94
2021.77
2011.26
2003.08
1996.13
1990.43
1985.43
1980.42
1975.64
1970.89
1966.38
1962.12
1957.88
1952.95
1946.26
1935.96
1922.12
1903.26
1884.93
1863.03
1844.64
1821.31
1804.84
2049.29
9912.17
)
;

boundaryField
{
    inlet
    {
        type            fixedValue;
        value           uniform 10000;
    }
    outlet
    {
        type            fixedValue;
        value           uniform 1000;
    }
    obstacle
    {
        type            zeroGradient;
    }
    empty
    {
        type            empty;
    }
}


// ************************************************************************* //
