/*--------------------------------*- C++ -*----------------------------------*\
| =========                 |                                                 |
| \\      /  F ield         | OpenFOAM: The Open Source CFD Toolbox           |
|  \\    /   O peration     | Version:  v1912                                 |
|   \\  /    A nd           | Website:  www.openfoam.com                      |
|    \\/     M anipulation  |                                                 |
\*---------------------------------------------------------------------------*/
FoamFile
{
    version     2.0;
    format      ascii;
    class       volVectorField;
    location    "0.98";
    object      grad(rho);
}
// * * * * * * * * * * * * * * * * * * * * * * * * * * * * * * * * * * * * * //

dimensions      [1 -4 0 0 0 0 0];


internalField   nonuniform List<vector> 
1900
(
(-0.00341453 -5.65153e-06 0)
(-0.0118129 -1.389e-05 0)
(-0.0154401 8.26111e-05 0)
(-0.00513133 0.000207228 0)
(1.06144 0.000222886 0)
(40.7693 0.0159342 0)
(377.861 0.991188 0)
(1247.91 16.6273 0)
(2035.4 112.06 0)
(1436.83 296.632 0)
(-0.00343407 -1.02935e-05 0)
(-0.0117246 -2.64129e-05 0)
(-0.015219 0.000140272 0)
(-0.00499106 0.000374579 0)
(1.07716 0.00058351 0)
(41.7603 0.0833747 0)
(394.472 3.55211 0)
(1358.97 38.244 0)
(2315.4 160.583 0)
(2240.45 295.435 0)
(-0.00345123 4.06786e-09 0)
(-0.0116623 2.07834e-09 0)
(-0.0150391 1.00719e-08 0)
(-0.0046881 -8.34888e-10 0)
(1.14444 -1.22036e-08 0)
(44.3209 -1.52589e-08 0)
(416.022 -2.61124e-09 0)
(1404.94 6.51923e-09 0)
(2292.59 7.95808e-09 0)
(2088.61 3.8014e-09 0)
(-0.00343406 1.03047e-05 0)
(-0.0117246 2.64152e-05 0)
(-0.015219 -0.000140261 0)
(-0.00499108 -0.000374581 0)
(1.07716 -0.000583523 0)
(41.7603 -0.0833747 0)
(394.472 -3.55211 0)
(1358.97 -38.244 0)
(2315.4 -160.583 0)
(2240.45 -295.435 0)
(-0.00341451 5.65869e-06 0)
(-0.0118129 1.38902e-05 0)
(-0.0154401 -8.26105e-05 0)
(-0.00513136 -0.00020723 0)
(1.06144 -0.000222887 0)
(40.7693 -0.0159342 0)
(377.861 -0.991188 0)
(1247.91 -16.6273 0)
(2035.4 -112.06 0)
(1436.83 -296.632 0)
(712.079 854.874 1.41943e-11)
(897.358 975.538 -1.74741e-11)
(367.225 966.592 -2.21996e-11)
(-3244.05 1106.39 0)
(534.243 6045.38 -9.22621e-11)
(1306.54 765.742 1.43488e-11)
(593.73 772.138 1.74741e-11)
(-39.0348 755.169 2.21996e-11)
(-1591.53 720.327 0)
(645.508 5644.58 0)
(1438.59 1.44812e-09 0)
(924.661 9.7388e-10 0)
(360.657 -3.40468e-09 0)
(-1092.9 -2.22045e-09 0)
(3324.56 -4.01795e-09 0)
(1306.54 -765.742 1.43488e-11)
(593.73 -772.138 1.74741e-11)
(-39.0348 -755.169 2.21996e-11)
(-1591.53 -720.327 0)
(645.508 -5644.58 0)
(712.079 -854.874 -4.28919e-11)
(897.358 -975.538 -1.74741e-11)
(367.225 -966.592 -2.21996e-11)
(-3244.05 -1106.39 -6.04204e-11)
(534.243 -6045.38 9.22621e-11)
(7837.72 -2990.84 4.29636e-11)
(825.039 -351.281 -3.62582e-11)
(1738.54 -80.6751 0)
(3609.77 295.056 2.83076e-11)
(-2495.09 -6623.57 -1.30721e-11)
(5724.31 -3069.53 -2.14368e-11)
(1503.06 -254.868 1.81238e-11)
(1952.07 -181.761 0)
(709.057 -234.417 -1.76961e-11)
(-7326.26 -11566.9 3.13108e-12)
(6084.09 -6.99777e-09 0)
(1508.61 -2.42921e-09 0)
(1722.68 1.97373e-09 0)
(-1443.2 -1.50932e-09 7.0756e-12)
(-9589.25 -2.44119e-09 -6.26216e-12)
(5724.31 3069.53 -2.14368e-11)
(1503.06 254.868 1.81238e-11)
(1952.07 181.761 0)
(709.057 234.417 -1.76961e-11)
(-7326.26 11566.9 3.13108e-12)
(7837.72 2990.84 2.14368e-11)
(825.039 351.281 1.05794e-14)
(1738.54 80.6751 0)
(3609.77 -295.056 8.88611e-15)
(-2495.09 6623.57 1.30721e-11)
(-23689.9 -44627.6 0)
(-18285.7 2160.62 0)
(1161.56 2304.75 0)
(2353.14 1044.56 0)
(4059.59 819.902 0)
(4886.09 174.994 0)
(5402.06 78.2714 0)
(4679.97 71.0515 0)
(2959.25 43.4323 0)
(1132.35 10.5511 0)
(203.311 0.69111 0)
(11.8275 0.00783597 0)
(0.146425 9.10309e-06 0)
(0.00026315 -6.45948e-10 0)
(4.92697e-08 -6.45948e-11 0)
(-1.61487e-11 0 0)
(0 0 0)
(0 0 0)
(0 -6.45948e-11 0)
(0 0 0)
(0 -6.45948e-11 0)
(0 0 0)
(0 0 0)
(0 -6.45948e-11 0)
(0 0 0)
(-6.28346e-08 -6.45948e-11 0)
(-0.000328248 5.94272e-09 0)
(-0.179517 1.2273e-09 0)
(-14.2304 -7.23462e-09 0)
(-240.242 4.84461e-09 0)
(-1318.74 -5.74894e-09 0)
(-3418.58 3.35893e-09 0)
(-5442.09 -4.32785e-09 0)
(-6509.82 5.23218e-09 0)
(-6804.78 -2.26082e-09 0)
(-6563.81 -1.2919e-10 0)
(-5088.19 -4.71542e-09 0)
(-1730.74 -2.97136e-09 0)
(68380.2 -7.04083e-09 0)
(-118525 -1.7053e-08 0)
(-21967.4 -18330.6 0)
(-14648 6512.47 0)
(1058.47 1188.7 0)
(2140.81 572.74 0)
(3946.78 304.354 0)
(4813.79 69.0465 0)
(5400.85 13.1559 0)
(4683 24.3127 0)
(2955.03 19.9935 0)
(1128.13 5.40259 0)
(202.192 0.351688 0)
(11.7559 0.0032929 0)
(0.145741 9.748e-07 0)
(0.000262888 2.77758e-09 0)
(4.93504e-08 -6.45948e-11 0)
(0 0 0)
(0 0 0)
(0 0 0)
(0 0 0)
(0 0 0)
(0 0 0)
(-1.61487e-11 0 0)
(0 0 0)
(1.61487e-11 0 0)
(0 0 0)
(-6.11551e-08 0 0)
(-0.000328247 7.4284e-09 0)
(-0.179517 2.13163e-09 0)
(-14.2304 -1.10457e-08 0)
(-240.242 3.7465e-09 0)
(-1318.74 -2.71298e-09 0)
(-3418.58 1.35649e-09 0)
(-5442.09 -1.16271e-09 0)
(-6509.82 5.49056e-09 0)
(-6804.78 -1.58257e-09 0)
(-6563.81 2.09933e-09 0)
(-5088.19 -1.09811e-09 0)
(-1730.74 -1.58257e-09 0)
(68380.2 -3.55271e-10 0)
(-118525 3.48812e-09 0)
(-19062.7 -8.91408e-09 0)
(-12607.3 -4.58623e-09 0)
(-566.359 -7.4284e-10 0)
(2095.88 4.10177e-09 0)
(3913.06 1.90555e-09 0)
(4801.38 1.35649e-09 0)
(5389.05 5.94272e-09 0)
(4681.96 3.22974e-10 0)
(2953.75 1.03352e-09 0)
(1126.63 -4.9092e-09 0)
(201.741 3.94028e-09 0)
(11.7252 -3.42352e-09 0)
(0.145468 6.78245e-09 0)
(0.000262867 -2.97136e-09 0)
(4.84784e-08 6.45948e-11 0)
(0 0 0)
(0 0 0)
(-1.61487e-11 0 0)
(0 0 0)
(0 0 0)
(0 0 0)
(0 0 0)
(0 0 0)
(0 0 0)
(1.61487e-11 0 0)
(-6.06868e-08 0 0)
(-0.000328247 2.77758e-09 0)
(-0.179517 -6.2011e-09 0)
(-14.2304 -9.17246e-09 0)
(-240.242 6.58867e-09 0)
(-1318.74 1.61487e-09 0)
(-3418.58 -1.67946e-09 0)
(-5442.09 -3.03596e-09 0)
(-6509.82 9.10787e-09 0)
(-6804.78 4.48934e-09 0)
(-6563.81 1.84095e-09 0)
(-5088.19 -4.19866e-10 0)
(-1730.74 -5.49056e-10 0)
(68380.2 1.87325e-09 0)
(-118525 2.49336e-08 0)
(-21967.4 18330.6 0)
(-14648 -6512.47 0)
(1058.47 -1188.7 0)
(2140.81 -572.74 0)
(3946.78 -304.354 0)
(4813.79 -69.0465 0)
(5400.85 -13.1559 0)
(4683 -24.3127 0)
(2955.03 -19.9935 0)
(1128.13 -5.40259 0)
(202.192 -0.351688 0)
(11.7559 -0.0032929 0)
(0.145741 -9.72604e-07 0)
(0.000262886 -5.36137e-09 0)
(5.02225e-08 -6.45948e-11 0)
(-1.61487e-11 0 0)
(0 0 0)
(0 0 0)
(-1.61487e-11 0 0)
(1.61487e-11 0 0)
(-1.61487e-11 0 0)
(0 0 0)
(0 0 0)
(0 0 0)
(1.61487e-11 0 0)
(-6.03315e-08 0 0)
(-0.000328249 1.09811e-09 0)
(-0.179517 -5.61975e-09 0)
(-14.2304 -2.5192e-09 0)
(-240.242 2.90677e-09 0)
(-1318.74 1.42109e-09 0)
(-3418.58 3.22974e-09 0)
(-5442.09 -3.7465e-09 0)
(-6509.82 1.35003e-08 0)
(-6804.78 7.71908e-09 0)
(-6563.81 -5.81353e-10 0)
(-5088.19 -3.29433e-09 0)
(-1730.74 3.00366e-09 0)
(68380.2 5.23218e-09 0)
(-118525 1.434e-08 0)
(-23689.9 44627.6 0)
(-18285.7 -2160.62 0)
(1161.56 -2304.75 0)
(2353.14 -1044.56 0)
(4059.59 -819.902 0)
(4886.09 -174.994 0)
(5402.06 -78.2714 0)
(4679.97 -71.0515 0)
(2959.25 -43.4323 0)
(1132.35 -10.5511 0)
(203.311 -0.69111 0)
(11.8275 -0.00783597 0)
(0.146425 -9.10877e-06 0)
(0.000263149 2.26082e-09 0)
(5.00448e-08 0 0)
(0 0 0)
(0 0 0)
(0 0 0)
(0 0 0)
(0 0 0)
(0 0 0)
(0 0 0)
(0 0 0)
(0 0 0)
(0 0 0)
(-6.03638e-08 0 0)
(-0.000328249 -5.16758e-10 0)
(-0.179517 1.42109e-09 0)
(-14.2304 -1.55028e-09 0)
(-240.242 5.81353e-10 0)
(-1318.74 1.55028e-09 0)
(-3418.58 -1.2273e-09 0)
(-5442.09 -2.58379e-10 0)
(-6509.82 7.4284e-09 0)
(-6804.78 3.55271e-09 0)
(-6563.81 -1.03352e-09 0)
(-5088.19 2.71298e-09 0)
(-1730.74 3.84339e-09 0)
(68380.2 7.94516e-09 0)
(-118525 9.30165e-09 0)
(100004 52769.9 0)
(-39881.3 -3148.39 0)
(1639.35 -2831.91 0)
(2826.71 -1603.11 0)
(4361.79 -1187.06 0)
(5195.4 -449.068 0)
(5464.64 -249.421 0)
(4708.37 -148.594 0)
(2988.11 -68.0482 0)
(1150.07 -14.8194 0)
(207.511 -0.98088 0)
(12.1066 -0.0126966 0)
(0.149865 -2.15746e-05 0)
(0.000268295 -1.15052e-09 0)
(4.90043e-08 0 0)
(0 0 0)
(0 0 0)
(0 0 0)
(0 0 0)
(0 0 0)
(0 0 0)
(0 0 0)
(0 0 0)
(0 0 0)
(0 0 0)
(-6.05485e-08 0 0)
(-0.000328248 -4.68008e-10 0)
(-0.179517 8.38514e-10 0)
(-14.2304 1.07252e-09 0)
(-240.242 -8.67764e-09 0)
(-1318.74 4.13407e-09 0)
(-3418.58 -8.69714e-09 0)
(-5442.09 -1.17002e-10 0)
(-6509.82 4.05607e-09 0)
(-6804.78 -3.37355e-09 0)
(-6563.81 -1.10177e-09 0)
(-5088.19 2.01828e-09 0)
(-1730.74 5.16758e-10 0)
(68380.2 -8.19013e-10 0)
(-118525 2.61304e-09 0)
(115874 27908.2 0)
(-60285.4 -2086.22 0)
(2394.45 -2497.27 0)
(3684.24 -1801.41 0)
(5009.61 -1172.91 0)
(5623.76 -638.42 0)
(5658.05 -396.463 0)
(4839.52 -217.46 0)
(3072.68 -86.9439 0)
(1187.47 -17.752 0)
(215.328 -1.19345 0)
(12.623 -0.0168571 0)
(0.156816 -3.37721e-05 0)
(0.00028118 -8.20963e-09 0)
(5.16953e-08 0 0)
(0 0 0)
(0 0 0)
(0 0 0)
(0 0 0)
(0 0 0)
(0 0 0)
(0 0 0)
(0 0 0)
(0 0 0)
(0 0 0)
(-6.0724e-08 0 0)
(-0.000328248 -1.11152e-09 0)
(-0.179517 3.00305e-09 0)
(-14.2304 8.01463e-09 0)
(-240.242 -9.61366e-09 0)
(-1318.74 9.49665e-09 0)
(-3418.58 -5.07008e-09 0)
(-5442.09 2.45704e-09 0)
(-6509.82 2.76904e-09 0)
(-6804.78 -9.36015e-10 0)
(-6563.81 -1.35527e-09 0)
(-5088.19 -2.12553e-09 0)
(-1730.74 -6.63011e-10 0)
(68380.2 -7.99513e-10 0)
(-118525 -7.13712e-09 0)
(123579 8671.74 0)
(-69181.1 -772.075 0)
(1913.81 -1795.88 0)
(4102.91 -1567.22 0)
(5482.5 -1069.45 0)
(5943.62 -684.428 0)
(5870.29 -436.847 0)
(5006.63 -235.901 0)
(3180.56 -90.6664 0)
(1232.7 -18.1594 0)
(224.601 -1.23748 0)
(13.2566 -0.0182457 0)
(0.166109 -3.90007e-05 0)
(0.000300839 -7.62462e-09 0)
(5.69409e-08 0 0)
(0 0 0)
(0 0 0)
(0 0 0)
(0 0 0)
(0 0 0)
(0 0 0)
(0 0 0)
(0 0 0)
(0 0 0)
(0 0 0)
(-6.16405e-08 0 0)
(-0.000328245 -2.22304e-09 0)
(-0.179517 -9.75016e-11 0)
(-14.2304 1.08617e-08 0)
(-240.242 -9.55515e-09 0)
(-1318.74 1.36502e-08 0)
(-3418.58 -1.07252e-09 0)
(-5442.09 1.38452e-09 0)
(-6509.82 -6.2401e-10 0)
(-6804.78 -3.70506e-10 0)
(-6563.81 -1.00427e-09 0)
(-5088.19 -3.12005e-09 0)
(-1730.74 -2.54479e-09 0)
(68380.2 -5.26509e-10 0)
(-118525 -1.38842e-08 0)
(123604 -342.33 0)
(-70372.4 -934.598 0)
(1628.21 -1517.07 0)
(4384.26 -1329.22 0)
(5860.3 -949.434 0)
(6233.36 -631.633 0)
(6090.26 -388.319 0)
(5173.11 -199.281 0)
(3282.5 -72.4546 0)
(1273.65 -13.8156 0)
(232.809 -0.906107 0)
(13.8154 -0.0130205 0)
(0.174398 -2.74197e-05 0)
(0.000318763 -4.93358e-09 0)
(5.90275e-08 0 0)
(0 0 0)
(0 1.95003e-11 0)
(0 0 0)
(0 0 0)
(0 1.95003e-11 0)
(0 0 0)
(0 0 0)
(0 0 0)
(0 0 0)
(0 0 0)
(-6.2869e-08 0 0)
(-0.000328249 2.53504e-10 0)
(-0.179517 -5.26509e-09 0)
(-14.2304 8.50214e-09 0)
(-240.242 -1.39037e-08 0)
(-1318.74 1.19732e-08 0)
(-3418.58 -3.72456e-09 0)
(-5442.09 -1.05302e-09 0)
(-6509.82 -1.44302e-09 0)
(-6804.78 1.88178e-09 0)
(-6563.81 4.38757e-10 0)
(-5088.19 -1.48202e-09 0)
(-1730.74 -6.3376e-10 0)
(68380.2 -1.06277e-09 0)
(-118525 -1.91103e-09 0)
(122380 -2023.42 0)
(-70313.1 -978.027 0)
(1533.53 -1258.39 0)
(4649.9 -1027.51 0)
(6154.72 -736.98 0)
(6484.33 -481.023 0)
(6286.92 -277.388 0)
(5311.01 -131.091 0)
(3359.28 -43.1384 0)
(1301.65 -7.32792 0)
(237.901 -0.424198 0)
(14.1298 -0.00540024 0)
(0.178656 -1.02423e-05 0)
(0.000327262 -4.56307e-09 0)
(6.1699e-08 0 0)
(0 0 0)
(0 0 0)
(0 0 0)
(0 0 0)
(0 0 0)
(-1.95003e-11 0 0)
(0 0 0)
(0 0 0)
(0 0 0)
(0 0 0)
(-6.14065e-08 0 0)
(-0.00032825 -7.80013e-11 0)
(-0.179517 -8.19013e-10 0)
(-14.2304 -8.58014e-10 0)
(-240.242 -1.21487e-08 0)
(-1318.74 4.62157e-09 0)
(-3418.58 -2.90555e-09 0)
(-5442.09 2.28154e-09 0)
(-6509.82 2.41804e-09 0)
(-6804.78 2.76904e-09 0)
(-6563.81 2.82755e-10 0)
(-5088.19 5.46009e-10 0)
(-1730.74 2.26204e-09 0)
(68380.2 3.70506e-10 0)
(-118525 3.51006e-09 0)
(120671 -2389.55 0)
(-69635.2 -802.284 0)
(1580.53 -848.777 0)
(4886.71 -654.927 0)
(6386.91 -448.436 0)
(6676.24 -275.558 0)
(6427.47 -145.612 0)
(5398.85 -61.4566 0)
(3401.77 -17.4138 0)
(1314.81 -2.41457 0)
(239.865 -0.105889 0)
(14.2242 -0.000932494 0)
(0.179602 -2.10325e-06 0)
(0.000328632 -9.76459e-07 0)
(6.34345e-08 -9.79423e-07 0)
(0 -9.78974e-07 0)
(0 -9.76303e-07 0)
(-1.95003e-11 -9.772e-07 0)
(1.95003e-11 -9.75854e-07 0)
(-1.95003e-11 -9.76576e-07 0)
(1.95003e-11 -9.75757e-07 0)
(0 -9.76771e-07 0)
(0 -9.772e-07 0)
(0 -9.75854e-07 0)
(-1.95003e-11 -9.76556e-07 0)
(-6.2947e-08 -9.75679e-07 0)
(-0.000328249 -9.81548e-07 0)
(-0.179517 -9.82114e-07 0)
(-14.2304 -9.76537e-07 0)
(-240.242 -9.80924e-07 0)
(-1318.74 -9.6899e-07 0)
(-3418.58 -9.25816e-07 0)
(-5442.09 -8.03354e-07 0)
(-6509.82 -6.13733e-07 0)
(-6804.78 -4.10735e-07 0)
(-6563.81 -2.45402e-07 0)
(-5088.19 -1.31305e-07 0)
(-1730.74 -5.73797e-08 0)
(68380.2 -1.62828e-08 0)
(-118525 -1.62243e-08 0)
(119212 -1615.56 0)
(-68828.4 -428.847 0)
(1675.53 -382.757 0)
(5035.69 -281.053 0)
(6520.29 -179.297 0)
(6776.14 -101.924 0)
(6493.24 -48.5217 0)
(5434.54 -17.7438 0)
(3416.18 -4.07494 0)
(1318.33 -0.39431 0)
(240.227 -0.00913587 0)
(14.2318 -0.00246408 0)
(0.179554 -0.00254861 0)
(0.000328345 -0.00254901 0)
(5.92225e-08 -0.002549 0)
(3.02255e-09 -0.002549 0)
(1.69653e-09 -0.002549 0)
(4.29007e-10 -0.002549 0)
(6.2401e-10 -0.00254901 0)
(9.75016e-11 -0.00254901 0)
(-2.14503e-10 -0.00254901 0)
(-1.40402e-09 -0.00254901 0)
(8.77514e-10 -0.002549 0)
(6.4351e-10 -0.002549 0)
(1.75503e-10 -0.002549 0)
(-6.62231e-08 -0.00254901 0)
(-0.000328257 -0.00254901 0)
(-0.179517 -0.002549 0)
(-14.2304 -0.00254902 0)
(-240.242 -0.00254778 0)
(-1318.74 -0.00252729 0)
(-3418.58 -0.00241565 0)
(-5442.09 -0.0021406 0)
(-6509.82 -0.00172337 0)
(-6804.78 -0.0012583 0)
(-6563.81 -0.00084426 0)
(-5088.19 -0.000515021 0)
(-1730.74 -0.000260467 0)
(68380.2 -8.83762e-05 0)
(-118525 -4.63102e-05 0)
(118619 -554.97 0)
(-68447.2 -121.892 0)
(1722.95 -92.4087 0)
(5082.77 -64.9606 0)
(6559.52 -38.1833 0)
(6802.26 -20.0572 0)
(6508.59 -8.72177 0)
(5441.68 -3.15825 0)
(3418.48 -1.15767 0)
(1318.73 -0.775065 0)
(240.243 -0.762658 0)
(14.2305 -0.764375 0)
(0.17952 -0.764417 0)
(0.000328259 -0.764417 0)
(6.57551e-08 -0.764417 0)
(1.26752e-09 -0.764417 0)
(2.88605e-09 -0.764417 0)
(-5.65509e-09 -0.764417 0)
(-7.07861e-09 -0.764417 0)
(-2.51554e-09 -0.764417 0)
(1.24802e-09 -0.764417 0)
(6.2986e-09 -0.764417 0)
(8.46314e-09 -0.764417 0)
(-3.31505e-10 -0.764417 0)
(-8.56064e-09 -0.764417 0)
(-6.86216e-08 -0.764417 0)
(-0.000328239 -0.764417 0)
(-0.179517 -0.764417 0)
(-14.2304 -0.764413 0)
(-240.242 -0.764079 0)
(-1318.74 -0.758532 0)
(-3418.58 -0.729648 0)
(-5442.09 -0.660594 0)
(-6509.82 -0.55642 0)
(-6804.78 -0.436635 0)
(-6563.81 -0.322445 0)
(-5088.19 -0.221001 0)
(-1730.74 -0.134403 0)
(68380.2 -0.0595359 0)
(-118525 -0.0593159 0)
(118528 -87.1285 0)
(-68382.6 -19.7799 0)
(1730.39 -18.9577 0)
(5087.94 -20.245 0)
(6563.56 -22.1309 0)
(6804.53 -25.2543 0)
(6509.52 -29.1033 0)
(5441.83 -32.8817 0)
(3418.47 -35.5764 0)
(1318.71 -36.7788 0)
(240.238 -37.0251 0)
(14.2301 -37.0409 0)
(0.179513 -37.0411 0)
(0.000328225 -37.0411 0)
(6.1036e-08 -37.0411 0)
(4.48507e-09 -37.0411 0)
(7.13712e-09 -37.0411 0)
(3.31505e-09 -37.0411 0)
(1.50152e-09 -37.0411 0)
(2.86655e-09 -37.0411 0)
(-6.4351e-10 -37.0411 0)
(-3.51006e-09 -37.0411 0)
(-4.69958e-09 -37.0411 0)
(-1.75503e-09 -37.0411 0)
(5.9866e-09 -37.0411 0)
(-5.97295e-08 -37.0411 0)
(-0.000328232 -37.0411 0)
(-0.179513 -37.0411 0)
(-14.2301 -37.0409 0)
(-240.237 -37.0253 0)
(-1318.7 -36.7785 0)
(-3418.49 -35.5562 0)
(-5441.92 -32.7584 0)
(-6509.61 -28.632 0)
(-6804.55 -23.8326 0)
(-6563.6 -19.0282 0)
(-5088.01 -14.3614 0)
(-1730.59 -10.2211 0)
(68380.3 -5.8256 0)
(-118525 -9.30212 0)
(118511 -268.643 0)
(-68381.5 -119.864 0)
(1722.5 -168.486 0)
(5079.71 -209.516 0)
(6554.7 -257.583 0)
(6795.54 -304.346 0)
(6501.24 -349.837 0)
(5435.44 -389.26 0)
(3414.73 -417.071 0)
(1317.33 -429.887 0)
(239.99 -432.622 0)
(14.2152 -432.804 0)
(0.179314 -432.806 0)
(0.000327854 -432.806 0)
(6.68666e-08 -432.806 0)
(-9.75016e-10 -432.806 0)
(-1.03937e-08 -432.806 0)
(-9.47715e-09 -432.806 0)
(-5.9281e-09 -432.806 0)
(-3.72456e-09 -432.806 0)
(-1.56003e-09 -432.806 0)
(1.32602e-09 -432.806 0)
(7.60512e-09 -432.806 0)
(8.44364e-09 -432.806 0)
(4.79708e-09 -432.806 0)
(-5.9515e-08 -432.806 0)
(-0.000327851 -432.806 0)
(-0.179315 -432.806 0)
(-14.2152 -432.804 0)
(-239.99 -432.622 0)
(-1317.32 -429.888 0)
(-3414.71 -417.071 0)
(-5435.42 -389.235 0)
(-6501.22 -349.712 0)
(-6795.52 -304.162 0)
(-6554.68 -257.326 0)
(-5079.71 -209.159 0)
(-1722.52 -168.079 0)
(68381.1 -119.362 0)
(-118510 -265.953 0)
(118140 -2118.74 0)
(-68286.1 -766.298 0)
(1644 -909.51 0)
(5002.08 -1041.14 0)
(6472.18 -1215.05 0)
(6715.63 -1381.4 0)
(6427.7 -1541.96 0)
(5377.04 -1684.57 0)
(3379.32 -1789.75 0)
(1303.72 -1840.94 0)
(237.427 -1852.48 0)
(14.0522 -1853.29 0)
(0.177048 -1853.3 0)
(0.000323208 -1853.3 0)
(7.04546e-08 -1853.3 0)
(3.70506e-10 -1853.3 0)
(8.11213e-09 -1853.3 0)
(8.19013e-09 -1853.3 0)
(2.57404e-09 -1853.3 0)
(3.64656e-09 -1853.3 0)
(5.9281e-09 -1853.3 0)
(5.40159e-09 -1853.3 0)
(1.15052e-09 -1853.3 0)
(-4.56307e-09 -1853.3 0)
(-5.26509e-09 -1853.3 0)
(-6.92846e-08 -1853.3 0)
(-0.000323204 -1853.3 0)
(-0.177048 -1853.3 0)
(-14.0523 -1853.29 0)
(-237.427 -1852.48 0)
(-1303.72 -1840.94 0)
(-3379.31 -1789.76 0)
(-5377.01 -1684.59 0)
(-6427.63 -1541.98 0)
(-6715.53 -1381.43 0)
(-6472.05 -1215.07 0)
(-5002.01 -1041.15 0)
(-1644.05 -909.526 0)
(68286 -766.315 0)
(-118140 -2118.35 0)
(115621 -7035.56 0)
(-67216.2 -2226.38 0)
(1457.65 -2339.86 0)
(4785.28 -2538.72 0)
(6226.81 -2854.83 0)
(6480.52 -3164.17 0)
(6209.1 -3464.62 0)
(5196.65 -3739.39 0)
(3264.04 -3951.91 0)
(1256.88 -4061.3 0)
(228.093 -4087.33 0)
(13.4257 -4089.24 0)
(0.167903 -4089.27 0)
(0.000303745 -4089.27 0)
(5.49714e-08 -4089.27 0)
(-2.51554e-09 -4089.27 0)
(-5.44059e-09 -4089.27 0)
(-4.99208e-09 -4089.27 0)
(-3.66606e-09 -4089.27 0)
(-5.22608e-09 -4089.27 0)
(-5.03108e-09 -4089.27 0)
(-3.15905e-09 -4089.27 0)
(7.41012e-10 -4089.27 0)
(1.07252e-09 -4089.27 0)
(6.4351e-10 -4089.27 0)
(-5.33334e-08 -4089.27 0)
(-0.000303744 -4089.27 0)
(-0.167903 -4089.27 0)
(-13.4258 -4089.24 0)
(-228.093 -4087.33 0)
(-1256.88 -4061.3 0)
(-3264.04 -3951.91 0)
(-5196.65 -3739.4 0)
(-6209.08 -3464.66 0)
(-6480.5 -3164.26 0)
(-6226.78 -2854.98 0)
(-4785.27 -2538.93 0)
(-1457.67 -2340.09 0)
(67216.2 -2226.54 0)
(-115621 -7035.65 0)
(108845 -13197.1 0)
(-63761.2 -3812.94 0)
(1343.02 -3708.27 0)
(4505.85 -3898.52 0)
(5869.47 -4270.34 0)
(6128.02 -4659.54 0)
(5873.4 -5042.31 0)
(4907.48 -5402.84 0)
(3069.12 -5694.13 0)
(1173.22 -5852.25 0)
(210.498 -5891.78 0)
(12.1857 -5894.79 0)
(0.149114 -5894.83 0)
(0.000262814 -5894.83 0)
(5.52054e-08 -5894.83 0)
(6.84461e-09 -5894.83 0)
(1.42352e-09 -5894.83 0)
(-2.00853e-09 -5894.83 0)
(-1.89153e-09 -5894.83 0)
(-3.31505e-10 -5894.83 0)
(2.53504e-09 -5894.83 0)
(7.13712e-09 -5894.83 0)
(6.57161e-09 -5894.83 0)
(7.02011e-10 -5894.83 0)
(-2.02803e-09 -5894.83 0)
(-5.03498e-08 -5894.83 0)
(-0.000262806 -5894.83 0)
(-0.149114 -5894.83 0)
(-12.1857 -5894.79 0)
(-210.498 -5891.78 0)
(-1173.22 -5852.25 0)
(-3069.12 -5694.13 0)
(-4907.48 -5402.84 0)
(-5873.4 -5042.31 0)
(-6128.02 -4659.56 0)
(-5869.47 -4270.37 0)
(-4505.85 -3898.57 0)
(-1343.02 -3708.31 0)
(63761.2 -3812.97 0)
(-108845 -13197.1 0)
(98510.4 -17020 0)
(-58072.5 -4689.37 0)
(1375.19 -4426.18 0)
(4243.65 -4574.2 0)
(5493.47 -4942.18 0)
(5736.63 -5345.33 0)
(5492.82 -5753.65 0)
(4568.54 -6145.45 0)
(2830.98 -6473.06 0)
(1066.41 -6658.15 0)
(187.1 -6705.89 0)
(10.4867 -6709.57 0)
(0.12304 -6709.62 0)
(0.000206209 -6709.62 0)
(3.63876e-08 -6709.62 0)
(-3.79281e-09 -6709.62 0)
(-4.64108e-09 -6709.62 0)
(-1.20902e-09 -6709.62 0)
(3.02255e-10 -6709.62 0)
(-1.52102e-09 -6709.62 0)
(1.07252e-10 -6709.62 0)
(0 -6709.62 0)
(1.45277e-09 -6709.62 0)
(2.26204e-09 -6709.62 0)
(3.70506e-10 -6709.62 0)
(-3.48373e-08 -6709.62 0)
(-0.000206216 -6709.62 0)
(-0.12304 -6709.62 0)
(-10.4867 -6709.57 0)
(-187.1 -6705.89 0)
(-1066.41 -6658.15 0)
(-2830.98 -6473.06 0)
(-4568.54 -6145.45 0)
(-5492.83 -5753.65 0)
(-5736.63 -5345.33 0)
(-5493.47 -4942.18 0)
(-4243.65 -4574.2 0)
(-1375.19 -4426.18 0)
(58072.5 -4689.36 0)
(-98510.4 -17020 0)
(86960 -18643.9 0)
(-51625.3 -4836.53 0)
(1453.99 -4574.46 0)
(4008.61 -4725.89 0)
(5126.38 -5065.3 0)
(5346.05 -5477.15 0)
(5102.38 -5881.16 0)
(4214.23 -6280.18 0)
(2575.07 -6621.29 0)
(948.853 -6817.62 0)
(160.951 -6868.31 0)
(8.59127 -6872.14 0)
(0.0945888 -6872.19 0)
(0.000146893 -6872.19 0)
(2.65984e-08 -6872.19 0)
(-1.70628e-09 -6872.19 0)
(-6.82511e-10 -6872.19 0)
(1.95003e-09 -6872.19 0)
(1.87203e-09 -6872.19 0)
(1.46252e-10 -6872.19 0)
(-5.75259e-10 -6872.19 0)
(-1.68678e-09 -6872.19 0)
(1.13102e-09 -6872.19 0)
(4.32907e-09 -6872.19 0)
(2.47654e-09 -6872.19 0)
(-2.18891e-08 -6872.19 0)
(-0.000146896 -6872.19 0)
(-0.0945888 -6872.19 0)
(-8.59127 -6872.14 0)
(-160.951 -6868.31 0)
(-948.853 -6817.62 0)
(-2575.07 -6621.29 0)
(-4214.23 -6280.18 0)
(-5102.38 -5881.16 0)
(-5346.06 -5477.15 0)
(-5126.38 -5065.3 0)
(-4008.61 -4725.89 0)
(-1453.99 -4574.46 0)
(51625.3 -4836.53 0)
(-86960 -18643.9 0)
(74797.8 -17424 0)
(-44514.6 -4531.63 0)
(1481.8 -4374.8 0)
(3770.66 -4517.09 0)
(4769.53 -4831.62 0)
(4950.43 -5201.76 0)
(4719 -5581.34 0)
(3855.33 -5966.47 0)
(2313.08 -6311.28 0)
(828.369 -6513.39 0)
(134.565 -6564.54 0)
(6.74775 -6568.21 0)
(0.0684779 -6568.26 0)
(9.64077e-05 -6568.26 0)
(1.36697e-08 -6568.26 0)
(5.16758e-10 -6568.26 0)
(-7.99513e-10 -6568.26 0)
(-4.29007e-10 -6568.26 0)
(3.80256e-10 -6568.26 0)
(8.87264e-10 -6568.26 0)
(-4.09507e-10 -6568.26 0)
(-1.20902e-09 -6568.26 0)
(-1.85253e-10 -6568.26 0)
(1.07252e-09 -6568.26 0)
(1.77453e-09 -6568.26 0)
(-1.23339e-08 -6568.26 0)
(-9.64092e-05 -6568.26 0)
(-0.0684779 -6568.26 0)
(-6.74775 -6568.21 0)
(-134.565 -6564.54 0)
(-828.369 -6513.39 0)
(-2313.08 -6311.28 0)
(-3855.33 -5966.47 0)
(-4719 -5581.34 0)
(-4950.43 -5201.75 0)
(-4769.53 -4831.62 0)
(-3770.66 -4517.09 0)
(-1481.8 -4374.8 0)
(44514.6 -4531.63 0)
(-74797.8 -17424 0)
(64869.8 -14485.3 0)
(-39050.7 -3562.59 0)
(1468 -3545.95 0)
(3568.4 -3569.29 0)
(4466.61 -3778.89 0)
(4623.6 -4031.91 0)
(4365.47 -4280.67 0)
(3510.83 -4551.77 0)
(2048.03 -4823.23 0)
(704.797 -4999.89 0)
(108.123 -5046.55 0)
(5.01063 -5049.83 0)
(0.0460266 -5049.87 0)
(5.76023e-05 -5049.87 0)
(8.43389e-09 -5049.87 0)
(1.95978e-09 -5049.87 0)
(-1.23827e-09 -5049.87 0)
(-2.92505e-11 -5049.87 0)
(8.77514e-10 -5049.87 0)
(-1.36502e-10 -5049.87 0)
(-5.65509e-10 -5049.87 0)
(-1.61853e-09 -5049.87 0)
(-3.60756e-10 -5049.87 0)
(-2.34004e-10 -5049.87 0)
(-1.75503e-10 -5049.87 0)
(-4.09507e-09 -5049.87 0)
(-5.76042e-05 -5049.87 0)
(-0.0460266 -5049.87 0)
(-5.01063 -5049.83 0)
(-108.123 -5046.55 0)
(-704.797 -4999.89 0)
(-2048.03 -4823.23 0)
(-3510.83 -4551.77 0)
(-4365.47 -4280.67 0)
(-4623.6 -4031.91 0)
(-4466.61 -3778.89 0)
(-3568.4 -3569.29 0)
(-1468 -3545.95 0)
(39050.7 -3562.59 0)
(-64869.8 -14485.3 0)
(56302.3 -7485.44 0)
(-33973.1 -1665.2 0)
(1475.35 -1432.62 0)
(3546.2 -1413.3 0)
(4323.72 -1417.88 0)
(4466.89 -1348.61 0)
(4218.04 -1235.85 0)
(3332.5 -1212.94 0)
(1881.26 -1363.76 0)
(613.169 -1535.15 0)
(86.4382 -1584.64 0)
(3.54962 -1587.87 0)
(0.0279697 -1587.9 0)
(2.93025e-05 -1587.9 0)
(4.85558e-09 -1587.9 0)
(2.27179e-09 -1587.9 0)
(-4.09507e-10 -1587.9 0)
(7.60512e-10 -1587.9 0)
(-5.55759e-10 -1587.9 0)
(2.04753e-10 -1587.9 0)
(-3.31505e-10 -1587.9 0)
(-1.67703e-09 -1587.9 0)
(4.09507e-10 -1587.9 0)
(-7.89763e-10 -1587.9 0)
(1.23827e-09 -1587.9 0)
(-4.58257e-10 -1587.9 0)
(-2.93066e-05 -1587.9 0)
(-0.0279697 -1587.9 0)
(-3.54962 -1587.87 0)
(-86.4382 -1584.64 0)
(-613.169 -1535.15 0)
(-1881.26 -1363.76 0)
(-3332.5 -1212.94 0)
(-4218.04 -1235.85 0)
(-4466.89 -1348.61 0)
(-4323.72 -1417.88 0)
(-3546.2 -1413.3 0)
(-1475.35 -1432.62 0)
(33973.1 -1665.2 0)
(-56302.3 -7485.44 0)
(52974 136185 0)
(-33217.9 35936 0)
(1710.74 36862.4 0)
(3582.6 42669.4 0)
(4528.95 48814.1 0)
(4799.01 56646 0)
(4496.21 63685.9 0)
(3387.57 69484.4 0)
(1737.54 72560.2 0)
(491.95 73296.4 0)
(57.3231 73337.4 0)
(1.86655 73336.7 0)
(0.0114128 73336.7 0)
(9.22564e-06 73336.7 0)
(-9.06765e-10 73336.7 0)
(-1.60878e-09 73336.7 0)
(1.58928e-09 73336.7 0)
(7.80013e-10 73336.7 0)
(0 73336.7 0)
(1.20902e-09 73336.7 0)
(-2.43754e-10 73336.7 0)
(-1.54052e-09 73336.7 0)
(-1.01402e-09 73336.7 0)
(7.60512e-10 73336.7 0)
(1.48202e-09 73336.7 0)
(1.31627e-09 73336.7 0)
(-9.22624e-06 73336.7 0)
(-0.0114128 73336.7 0)
(-1.86655 73336.7 0)
(-57.3231 73337.4 0)
(-491.95 73296.4 0)
(-1737.54 72560.2 0)
(-3387.57 69484.4 0)
(-4496.21 63685.9 0)
(-4799.01 56646 0)
(-4528.95 48814.1 0)
(-3582.6 42669.4 0)
(-1710.74 36862.4 0)
(33217.9 35936 0)
(-52974 136185 0)
(220007 -226874 0)
(-129684 -56336.4 0)
(7963.88 -59948.2 0)
(15063.3 -69564.3 0)
(17792.1 -80506.1 0)
(18797.9 -93733.6 0)
(16589.5 -106142 0)
(11884.1 -116601 0)
(5554.71 -122668 0)
(1362.14 -124475 0)
(125.246 -124666 0)
(2.84042 -124671 0)
(0.010487 -124671 0)
(4.25934e-06 -124671 0)
(7.80013e-11 -124671 0)
(1.12712e-08 -124671 0)
(1.24802e-08 -124671 0)
(6.63011e-09 -124671 0)
(5.61609e-09 -124671 0)
(2.18404e-09 -124671 0)
(0 -124671 0)
(-8.07313e-09 -124671 0)
(-1.01402e-09 -124671 0)
(4.83608e-09 -124671 0)
(-7.64412e-09 -124671 0)
(1.98903e-09 -124671 0)
(-4.28001e-06 -124671 0)
(-0.010487 -124671 0)
(-2.84042 -124671 0)
(-125.246 -124666 0)
(-1362.14 -124475 0)
(-5554.71 -122668 0)
(-11884.1 -116601 0)
(-16589.5 -106142 0)
(-18797.9 -93733.6 0)
(-17792.1 -80506.1 0)
(-15063.3 -69564.3 0)
(-7963.88 -59948.2 0)
(129684 -56336.4 0)
(-220007 -226874 0)
(220007 226874 0)
(-129684 56336.4 0)
(7963.88 59948.2 0)
(15063.3 69564.3 0)
(17792.1 80506.1 0)
(18797.9 93733.6 0)
(16589.5 106142 0)
(11884.1 116601 0)
(5554.71 122668 0)
(1362.14 124475 0)
(125.246 124666 0)
(2.84042 124671 0)
(0.010487 124671 0)
(4.27755e-06 124671 0)
(1.56003e-10 124671 0)
(2.49604e-09 124671 0)
(-1.09982e-08 124671 0)
(-9.90616e-09 124671 0)
(-1.09202e-08 124671 0)
(-4.91408e-09 124671 0)
(-2.06703e-09 124671 0)
(-3.08105e-09 124671 0)
(1.01402e-09 124671 0)
(-2.34004e-10 124671 0)
(3.78306e-09 124671 0)
(7.48812e-09 124671 0)
(-4.2616e-06 124671 0)
(-0.010487 124671 0)
(-2.84042 124671 0)
(-125.246 124666 0)
(-1362.14 124475 0)
(-5554.71 122668 0)
(-11884.1 116601 0)
(-16589.5 106142 0)
(-18797.9 93733.6 0)
(-17792.1 80506.1 0)
(-15063.3 69564.3 0)
(-7963.88 59948.2 0)
(129684 56336.4 0)
(-220007 226874 0)
(52974 -136185 0)
(-33217.9 -35936 0)
(1710.74 -36862.4 0)
(3582.6 -42669.4 0)
(4528.95 -48814.1 0)
(4799.01 -56646 0)
(4496.21 -63685.9 0)
(3387.57 -69484.4 0)
(1737.54 -72560.2 0)
(491.95 -73296.4 0)
(57.3231 -73337.4 0)
(1.86655 -73336.7 0)
(0.0114128 -73336.7 0)
(9.22848e-06 -73336.7 0)
(-3.76356e-09 -73336.7 0)
(-3.90981e-09 -73336.7 0)
(5.36259e-10 -73336.7 0)
(1.52102e-09 -73336.7 0)
(-3.70506e-10 -73336.7 0)
(5.16758e-10 -73336.7 0)
(-1.05302e-09 -73336.7 0)
(-2.27179e-09 -73336.7 0)
(-2.34004e-10 -73336.7 0)
(7.99513e-10 -73336.7 0)
(2.09628e-09 -73336.7 0)
(1.72578e-09 -73336.7 0)
(-9.22507e-06 -73336.7 0)
(-0.0114128 -73336.7 0)
(-1.86655 -73336.7 0)
(-57.3231 -73337.4 0)
(-491.95 -73296.4 0)
(-1737.54 -72560.2 0)
(-3387.57 -69484.4 0)
(-4496.21 -63685.9 0)
(-4799.01 -56646 0)
(-4528.95 -48814.1 0)
(-3582.6 -42669.4 0)
(-1710.74 -36862.4 0)
(33217.9 -35936 0)
(-52974 -136185 0)
(56302.3 7485.44 0)
(-33973.1 1665.2 0)
(1475.35 1432.62 0)
(3546.2 1413.3 0)
(4323.72 1417.88 0)
(4466.89 1348.61 0)
(4218.04 1235.85 0)
(3332.5 1212.94 0)
(1881.26 1363.76 0)
(613.169 1535.15 0)
(86.4382 1584.64 0)
(3.54962 1587.87 0)
(0.0279697 1587.9 0)
(2.9307e-05 1587.9 0)
(1.40402e-09 1587.9 0)
(-5.85009e-10 1587.9 0)
(-2.16453e-09 1587.9 0)
(7.60512e-10 1587.9 0)
(-1.50152e-09 1587.9 0)
(-4.38757e-10 1587.9 0)
(-2.53504e-10 1587.9 0)
(-1.07252e-09 1587.9 0)
(1.76478e-09 1587.9 0)
(-3.21755e-10 1587.9 0)
(3.21755e-10 1587.9 0)
(4.77758e-10 1587.9 0)
(-2.93056e-05 1587.9 0)
(-0.0279697 1587.9 0)
(-3.54962 1587.87 0)
(-86.4382 1584.64 0)
(-613.169 1535.15 0)
(-1881.26 1363.76 0)
(-3332.5 1212.94 0)
(-4218.04 1235.85 0)
(-4466.89 1348.61 0)
(-4323.72 1417.88 0)
(-3546.2 1413.3 0)
(-1475.35 1432.62 0)
(33973.1 1665.2 0)
(-56302.3 7485.44 0)
(64869.8 14485.3 0)
(-39050.7 3562.59 0)
(1468 3545.95 0)
(3568.4 3569.29 0)
(4466.61 3778.89 0)
(4623.6 4031.91 0)
(4365.47 4280.67 0)
(3510.83 4551.77 0)
(2048.03 4823.23 0)
(704.797 4999.89 0)
(108.123 5046.55 0)
(5.01063 5049.83 0)
(0.0460266 5049.87 0)
(5.76074e-05 5049.87 0)
(4.89458e-09 5049.87 0)
(-9.75016e-11 5049.87 0)
(-2.68129e-09 5049.87 0)
(-3.41256e-10 5049.87 0)
(-9.84766e-10 5049.87 0)
(-5.85009e-11 5049.87 0)
(-3.51006e-10 5049.87 0)
(-1.27727e-09 5049.87 0)
(1.35527e-09 5049.87 0)
(4.19257e-10 5049.87 0)
(1.35527e-09 5049.87 0)
(-4.97258e-09 5049.87 0)
(-5.7606e-05 5049.87 0)
(-0.0460266 5049.87 0)
(-5.01063 5049.83 0)
(-108.123 5046.55 0)
(-704.797 4999.89 0)
(-2048.03 4823.23 0)
(-3510.83 4551.77 0)
(-4365.47 4280.67 0)
(-4623.6 4031.91 0)
(-4466.61 3778.89 0)
(-3568.4 3569.29 0)
(-1468 3545.95 0)
(39050.7 3562.59 0)
(-64869.8 14485.3 0)
(74797.8 17424 0)
(-44514.6 4531.63 0)
(1481.8 4374.8 0)
(3770.66 4517.09 0)
(4769.53 4831.62 0)
(4950.43 5201.76 0)
(4719 5581.34 0)
(3855.33 5966.47 0)
(2313.08 6311.28 0)
(828.369 6513.39 0)
(134.565 6564.54 0)
(6.74775 6568.21 0)
(0.0684779 6568.26 0)
(9.64114e-05 6568.26 0)
(1.18172e-08 6568.26 0)
(-9.75016e-11 6568.26 0)
(-2.7983e-09 6568.26 0)
(-1.63803e-09 6568.26 0)
(2.24254e-10 6568.26 0)
(7.21512e-10 6568.26 0)
(0 6568.26 0)
(3.60756e-10 6568.26 0)
(-5.9476e-10 6568.26 0)
(0 6568.26 0)
(6.82511e-10 6568.26 0)
(-1.28117e-08 6568.26 0)
(-9.6408e-05 6568.26 0)
(-0.0684779 6568.26 0)
(-6.74775 6568.21 0)
(-134.565 6564.54 0)
(-828.369 6513.39 0)
(-2313.08 6311.28 0)
(-3855.33 5966.47 0)
(-4719 5581.34 0)
(-4950.43 5201.75 0)
(-4769.53 4831.62 0)
(-3770.66 4517.09 0)
(-1481.8 4374.8 0)
(44514.6 4531.63 0)
(-74797.8 17424 0)
(86960 18643.9 0)
(-51625.3 4836.53 0)
(1453.99 4574.46 0)
(4008.61 4725.89 0)
(5126.38 5065.3 0)
(5346.05 5477.15 0)
(5102.38 5881.16 0)
(4214.23 6280.18 0)
(2575.07 6621.29 0)
(948.853 6817.62 0)
(160.951 6868.31 0)
(8.59127 6872.14 0)
(0.0945888 6872.19 0)
(0.000146894 6872.19 0)
(2.23474e-08 6872.19 0)
(-2.92505e-10 6872.19 0)
(6.82511e-11 6872.19 0)
(2.30104e-09 6872.19 0)
(3.45156e-09 6872.19 0)
(1.77453e-09 6872.19 0)