/*--------------------------------*- C++ -*----------------------------------*\
| =========                 |                                                 |
| \\      /  F ield         | OpenFOAM: The Open Source CFD Toolbox           |
|  \\    /   O peration     | Version:  v1912                                 |
|   \\  /    A nd           | Website:  www.openfoam.com                      |
|    \\/     M anipulation  |                                                 |
\*---------------------------------------------------------------------------*/
FoamFile
{
    version     2.0;
    format      ascii;
    class       volVectorField;
    location    "5.1";
    object      grad(p);
}
// * * * * * * * * * * * * * * * * * * * * * * * * * * * * * * * * * * * * * //

dimensions      [1 -2 -2 0 0 0 0];


internalField   nonuniform List<vector> 
1900
(
(135841 0.227717 0)
(-128496 -0.289077 0)
(-8436.05 1.41211 0)
(-1431.16 -0.756683 0)
(-1619.14 -0.539215 0)
(-1458.76 -0.194404 0)
(-1239.48 -2.63793 0)
(-817.515 17.4946 0)
(-613.331 -82.9411 0)
(237.844 -75.5997 0)
(135841 0.175729 0)
(-128495 -0.236581 0)
(-8436.51 1.62472 0)
(-1433.11 -0.997381 0)
(-1618.58 0.140062 0)
(-1460.86 0.865905 0)
(-1221.79 -6.07244 0)
(-897.819 -0.00716617 0)
(-706.425 -120.379 0)
(-551.041 -100.35 0)
(135841 -1.5703e-08 0)
(-128495 1.46372e-08 0)
(-8436.81 -1.78701e-08 0)
(-1432.65 -3.55271e-10 0)
(-1617.28 2.84217e-10 0)
(-1464.97 2.73559e-09 0)
(-1240.36 3.81917e-09 0)
(-931.822 2.80664e-09 0)
(-713.674 2.14939e-09 0)
(-623.201 6.75016e-10 0)
(135841 -0.175729 0)
(-128495 0.236581 0)
(-8436.51 -1.62472 0)
(-1433.11 0.997381 0)
(-1618.58 -0.140062 0)
(-1460.86 -0.865905 0)
(-1221.79 6.07244 0)
(-897.819 0.00716618 0)
(-706.425 120.379 0)
(-551.041 100.35 0)
(135841 -0.227717 0)
(-128496 0.289077 0)
(-8436.05 -1.41211 0)
(-1431.16 0.756683 0)
(-1619.14 0.539215 0)
(-1458.76 0.194404 0)
(-1239.48 2.63793 0)
(-817.515 -17.4946 0)
(-613.331 82.9411 0)
(237.844 75.5997 0)
(-308.686 -767.019 9.13505e-12)
(-1850.03 -673.543 -1.07255e-11)
(-2142.98 -835.778 -1.34493e-11)
(-272.076 -1317.12 0)
(-14248.3 -9052.44 -5.76369e-11)
(-831.412 -866.9 8.99645e-12)
(-1472.5 -792.725 1.07255e-11)
(-2219.94 -1007.26 1.34493e-11)
(-3324.94 -1094.22 0)
(-13498.1 -7499.65 0)
(-1212.39 1.09413e-09 0)
(-1742.78 7.01193e-10 0)
(-2248.06 -1.38161e-09 0)
(-3011.09 2.69145e-10 0)
(-16725.4 -3.38354e-09 0)
(-831.412 866.9 8.99645e-12)
(-1472.5 792.725 1.07255e-11)
(-2219.94 1007.26 1.34493e-11)
(-3324.94 1094.22 0)
(-13498.1 7499.65 0)
(-308.686 767.019 -2.7128e-11)
(-1850.03 673.543 -1.07255e-11)
(-2142.98 835.778 -1.34493e-11)
(-272.076 1317.12 -3.59964e-11)
(-14248.3 9052.44 5.76369e-11)
(-26411.2 10639.9 1.3956e-11)
(-4849.09 2878.81 -1.01435e-11)
(-3883.28 1573.51 0)
(-5343.16 1115.01 6.46325e-12)
(-8045.39 1428.35 -2.44457e-12)
(-22485.4 12323.5 -7.1382e-12)
(-6870.54 1992.61 5.11508e-12)
(-4308.16 516.615 0)
(-5268.04 457.317 -4.06396e-12)
(-7605.3 856.191 6.28343e-13)
(-23941.3 -1.34572e-10 0)
(-7816.84 5.69345e-10 0)
(-4420.13 -3.28955e-11 0)
(-5250.07 1.04492e-09 1.63109e-12)
(-7429.3 3.63582e-10 -1.25669e-12)
(-22485.4 -12323.5 -7.1382e-12)
(-6870.54 -1992.61 5.11508e-12)
(-4308.16 -516.615 0)
(-5268.04 -457.317 -4.06396e-12)
(-7605.3 -856.191 6.28343e-13)
(-26411.2 -10639.9 7.1382e-12)
(-4849.09 -2878.81 -8.67004e-14)
(-3883.28 -1573.51 0)
(-5343.16 -1115.01 3.35806e-14)
(-8045.39 -1428.35 2.44457e-12)
(-7146.65 3880.41 0)
(-945.725 901.865 0)
(2240.1 154.578 0)
(1059.36 949.53 0)
(-728.192 1050.63 0)
(-1490.61 673.009 0)
(-1343.3 260.949 0)
(-918.866 97.4175 0)
(-679.945 46.0067 0)
(-619.87 30.9451 0)
(-584.427 35.8866 0)
(-493.222 21.3177 0)
(-344.346 7.28526 0)
(-207.876 0.190955 0)
(-130.45 -0.959077 0)
(-97.4801 -0.807621 0)
(-82.3248 -0.710967 0)
(-71.0918 -0.798353 0)
(-60.3307 -1.02332 0)
(-49.7425 -1.22661 0)
(-39.6205 -1.36123 0)
(-30.8897 -1.42845 0)
(-23.2222 -1.44594 0)
(-16.3962 -1.44129 0)
(-10.7042 -1.43138 0)
(-6.06093 -1.43224 0)
(-1.87629 -1.42903 0)
(2.44428 -1.47508 0)
(9.58144 -1.48193 0)
(18.2601 -1.47985 0)
(32.8347 -1.42783 0)
(47.1428 -0.946434 0)
(64.7805 -0.748495 0)
(77.0325 0.239408 0)
(101.173 -0.882882 0)
(123.646 1.95012 0)
(190.518 -2.57958 0)
(611.695 12.213 0)
(6869.05 -11.5788 0)
(-7238.55 -703.074 0)
(-7304.25 2327.89 0)
(-1618.89 124.254 0)
(2110.58 -481.014 0)
(1235.24 765.657 0)
(-706.958 846.501 0)
(-1577.51 431.769 0)
(-1415.29 146.603 0)
(-946.133 41.5544 0)
(-686.897 16.7361 0)
(-620.079 9.27391 0)
(-584.898 16.7993 0)
(-496.144 7.35301 0)
(-346.051 2.12337 0)
(-208.502 -0.491714 0)
(-130.477 -0.751387 0)
(-97.434 -0.593579 0)
(-82.303 -0.509013 0)
(-71.1025 -0.489106 0)
(-60.362 -0.567539 0)
(-49.7692 -0.644273 0)
(-39.637 -0.69648 0)
(-30.8977 -0.727076 0)
(-23.2255 -0.742472 0)
(-16.3984 -0.753278 0)
(-10.7078 -0.765423 0)
(-6.06563 -0.783846 0)
(-1.88667 -0.800901 0)
(2.43231 -0.841504 0)
(9.57363 -0.859437 0)
(18.2536 -0.870867 0)
(32.8772 -0.863861 0)
(47.1986 -0.620208 0)
(64.901 -0.511013 0)
(77.0172 0.202781 0)
(101.382 0.0630024 0)
(123.599 2.24714 0)
(191.409 2.07143 0)
(611.563 10.4829 0)
(6873.41 1.64215 0)
(-7243.65 147.427 0)
(-7251.41 -9.12401e-09 0)
(-1762.86 4.12317e-08 0)
(2426.69 5.94999e-08 0)
(1445.55 4.42394e-08 0)
(-825.323 3.64961e-09 0)
(-1694.21 6.24147e-09 0)
(-1456.81 2.34156e-09 0)
(-956.646 -2.17765e-08 0)
(-689.336 -1.28423e-08 0)
(-619.852 2.12355e-09 0)
(-584.986 -5.38963e-09 0)
(-497.491 -4.69523e-09 0)
(-346.628 -3.85954e-09 0)
(-208.712 -4.8002e-09 0)
(-130.48 1.25556e-09 0)
(-97.4096 3.22167e-09 0)
(-82.2945 1.34438e-09 0)
(-71.1088 -6.09613e-09 0)
(-60.3758 -2.76546e-09 0)
(-49.78 7.10543e-10 0)
(-39.6446 4.51356e-09 0)
(-30.903 8.92619e-09 0)
(-23.2299 1.13646e-08 0)
(-16.4029 1.05088e-08 0)
(-10.7131 9.9476e-09 0)
(-6.07126 1.11466e-08 0)
(-1.89306 1.06299e-08 0)
(2.42725 5.2564e-09 0)
(9.57289 -5.73279e-10 0)
(18.2588 -8.2641e-09 0)
(32.9076 -8.99079e-09 0)
(47.2454 -3.22974e-10 0)
(65.0199 1.62577e-08 0)
(77.1995 2.04402e-08 0)
(101.768 2.0634e-08 0)
(124.231 1.70046e-08 0)
(192.914 5.29556e-08 0)
(611.57 1.82521e-08 0)
(6908.89 -3.74004e-08 0)
(-7281.91 -6.15911e-08 0)
(-7304.25 -2327.89 0)
(-1618.89 -124.254 0)
(2110.58 481.014 0)
(1235.24 -765.657 0)
(-706.958 -846.501 0)
(-1577.51 -431.769 0)
(-1415.29 -146.603 0)
(-946.133 -41.5544 0)
(-686.897 -16.7361 0)
(-620.079 -9.27391 0)
(-584.898 -16.7993 0)
(-496.144 -7.35301 0)
(-346.051 -2.12337 0)
(-208.502 0.491714 0)
(-130.477 0.751387 0)
(-97.434 0.593579 0)
(-82.303 0.509013 0)
(-71.1025 0.489106 0)
(-60.362 0.567539 0)
(-49.7692 0.644273 0)
(-39.637 0.69648 0)
(-30.8977 0.727076 0)
(-23.2255 0.742472 0)
(-16.3984 0.753278 0)
(-10.7078 0.765423 0)
(-6.06563 0.783846 0)
(-1.88667 0.800901 0)
(2.43231 0.841504 0)
(9.57363 0.859437 0)
(18.2536 0.870867 0)
(32.8772 0.863861 0)
(47.1986 0.620208 0)
(64.901 0.511012 0)
(77.0172 -0.202781 0)
(101.382 -0.0630025 0)
(123.599 -2.24714 0)
(191.409 -2.07143 0)
(611.563 -10.4829 0)
(6873.41 -1.64215 0)
(-7243.65 -147.427 0)
(-7146.65 -3880.41 0)
(-945.725 -901.865 0)
(2240.1 -154.578 0)
(1059.36 -949.53 0)
(-728.192 -1050.63 0)
(-1490.61 -673.009 0)
(-1343.3 -260.949 0)
(-918.866 -97.4175 0)
(-679.945 -46.0067 0)
(-619.87 -30.9451 0)
(-584.427 -35.8866 0)
(-493.222 -21.3177 0)
(-344.346 -7.28526 0)
(-207.876 -0.190955 0)
(-130.45 0.959077 0)
(-97.4801 0.807621 0)
(-82.3248 0.710967 0)
(-71.0918 0.798353 0)
(-60.3307 1.02332 0)
(-49.7425 1.22661 0)
(-39.6205 1.36123 0)
(-30.8897 1.42845 0)
(-23.2222 1.44594 0)
(-16.3962 1.44129 0)
(-10.7042 1.43138 0)
(-6.06093 1.43224 0)
(-1.87629 1.42903 0)
(2.44428 1.47508 0)
(9.58144 1.48193 0)
(18.2601 1.47985 0)
(32.8347 1.42783 0)
(47.1428 0.946434 0)
(64.7805 0.748495 0)
(77.0325 -0.239408 0)
(101.173 0.882882 0)
(123.646 -1.95012 0)
(190.518 2.57958 0)
(611.695 -12.213 0)
(6869.05 11.5788 0)
(-7238.55 703.074 0)
(3502.04 -1402.84 0)
(-60.1274 -622.519 0)
(1930.93 -1126.75 0)
(876.526 -1490.18 0)
(-508.952 -1380.5 0)
(-1182.64 -896.03 0)
(-1137.48 -415.441 0)
(-842.833 -183.521 0)
(-653.239 -95.4037 0)
(-613.972 -68.2511 0)
(-579.403 -61.3944 0)
(-481.583 -39.0588 0)
(-334.771 -14.4707 0)
(-204.053 -1.87928 0)
(-129.881 0.76253 0)
(-97.5363 0.734068 0)
(-82.2835 0.685483 0)
(-70.9189 1.00229 0)
(-60.1296 1.46396 0)
(-49.5881 1.84984 0)
(-39.5296 2.10465 0)
(-30.8539 2.23149 0)
(-23.2212 2.26593 0)
(-16.41 2.25992 0)
(-10.7176 2.24361 0)
(-6.07254 2.24583 0)
(-1.87181 2.245 0)
(2.45166 2.31915 0)
(9.56759 2.33858 0)
(18.2122 2.3394 0)
(32.5918 2.18694 0)
(46.837 1.44108 0)
(64.2965 0.996139 0)
(77.0838 -0.429561 0)
(100.551 0.724298 0)
(124.609 -2.32346 0)
(186.002 3.06354 0)
(617.055 -18.6638 0)
(7327.14 0.758905 0)
(-7697.83 163.419 0)
(3494.36 340.331 0)
(-1154.56 -676.552 0)
(1569.78 -1122.7 0)
(912.872 -1360.29 0)
(-273.21 -1328.94 0)
(-725.778 -932.827 0)
(-767.066 -530.064 0)
(-651.238 -264.655 0)
(-583.187 -154.424 0)
(-590.26 -110.988 0)
(-558.99 -88.32 0)
(-454.246 -53.715 0)
(-313.652 -21.1115 0)
(-195.247 -4.0148 0)
(-128.237 0.448565 0)
(-97.5242 0.862822 0)
(-82.0886 1.03217 0)
(-70.4343 1.61854 0)
(-59.6218 2.34069 0)
(-49.2079 2.927 0)
(-39.3015 3.317 0)
(-30.7534 3.51819 0)
(-23.1954 3.58602 0)
(-16.4104 3.60147 0)
(-10.7106 3.61006 0)
(-6.05338 3.65301 0)
(-1.80804 3.69657 0)
(2.53051 3.86763 0)
(9.60837 3.96112 0)
(18.1396 4.03538 0)
(32.0994 3.84422 0)
(46.1593 2.83313 0)
(63.2375 2.20697 0)
(76.743 0.306918 0)
(99.6823 1.30127 0)
(125.385 -1.62428 0)
(177.193 1.55359 0)
(606.599 -20.4987 0)
(6798.86 -15.943 0)
(-7150.47 -683.719 0)
(3178.05 254.645 0)
(-1469.96 -444.826 0)
(1272.05 -577.871 0)
(677.789 -1090.74 0)
(-97.0331 -1057.7 0)
(-412.819 -789.693 0)
(-493.601 -509.332 0)
(-480.853 -295.299 0)
(-505.16 -198.648 0)
(-550.272 -148.16 0)
(-524.213 -111.473 0)
(-416.818 -65.0307 0)
(-286.878 -26.9449 0)
(-183.277 -6.86762 0)
(-125.181 -0.619888 0)
(-96.9739 0.611975 0)
(-81.5553 1.25356 0)
(-69.658 2.17608 0)
(-58.8687 3.17056 0)
(-48.6473 3.95733 0)
(-38.9599 4.48546 0)
(-30.5946 4.76974 0)
(-23.1409 4.88499 0)
(-16.3868 4.94316 0)
(-10.668 5.0066 0)
(-5.98917 5.12533 0)
(-1.66499 5.24301 0)
(2.70659 5.56407 0)
(9.72924 5.77457 0)
(18.0996 5.96206 0)
(31.4332 5.78185 0)
(45.2593 4.53555 0)
(61.8621 3.79287 0)
(76.2111 1.56052 0)
(98.6897 2.30562 0)
(124.852 -0.579027 0)
(167.814 -0.268742 0)
(600.195 -15.3596 0)
(6688.04 2.41104 0)
(-7023.61 -241.719 0)
(3311.09 637.365 0)
(-1956.8 -221.857 0)
(947.357 -380.104 0)
(450.488 -840.781 0)
(16.8851 -781.228 0)
(-197.347 -627.644 0)
(-290.649 -437.728 0)
(-351.852 -293.95 0)
(-441.399 -220.502 0)
(-506.255 -173.73 0)
(-478.884 -124.15 0)
(-372.792 -71.0552 0)
(-257.604 -30.1473 0)
(-169.879 -9.51091 0)
(-121.029 -2.24818 0)
(-95.7188 -0.118841 0)
(-80.5813 1.14124 0)
(-68.587 2.42499 0)
(-57.9053 3.65132 0)
(-47.9408 4.58877 0)
(-38.5186 5.22833 0)
(-30.3684 5.59633 0)
(-23.0283 5.78358 0)
(-16.2932 5.92845 0)
(-10.535 6.10377 0)
(-5.82556 6.35807 0)
(-1.38525 6.60482 0)
(3.04274 7.13076 0)
(9.99188 7.50611 0)
(18.1466 7.83548 0)
(30.7247 7.68796 0)
(44.2426 6.31708 0)
(60.3706 5.42149 0)
(75.3098 3.06514 0)
(97.6205 3.14049 0)
(122.904 0.308962 0)
(162.95 -2.46605 0)
(609.181 -7.23331 0)
(6580.74 9.75806 0)
(-6919.87 -253.556 0)
(3578.45 663.848 0)
(-2450.43 -160.25 0)
(675.636 -317.492 0)
(291.251 -626.201 0)
(108.353 -530.412 0)
(-81.8101 -465.732 0)
(-172.041 -352.274 0)
(-271.525 -276.796 0)
(-389.311 -227.473 0)
(-457.424 -184.927 0)
(-425.272 -125.718 0)
(-326.234 -70.8873 0)
(-227.571 -30.6755 0)
(-156.393 -11.1257 0)
(-116.131 -3.58837 0)
(-93.7077 -0.749926 0)
(-79.1039 1.00514 0)
(-67.2392 2.58395 0)
(-56.7836 3.94774 0)
(-47.1276 4.9629 0)
(-37.989 5.68176 0)
(-30.0596 6.14045 0)
(-22.8209 6.44044 0)
(-16.0783 6.73886 0)
(-10.2539 7.10911 0)
(-5.50634 7.58038 0)
(-0.920406 8.04438 0)
(3.5751 8.89254 0)
(10.4083 9.51916 0)
(18.2748 10.0787 0)
(29.97 10.092 0)
(43.0752 8.79308 0)
(58.7285 7.93928 0)
(74.013 5.77901 0)
(96.0337 5.61614 0)
(119.449 3.13893 0)
(160.546 -0.880487 0)
(611.975 1.02157 0)
(6450.67 9.11395 0)
(-6788.68 -310.058 0)
(3796.38 523.852 0)
(-2902.46 -152.68 0)
(498.349 -278.422 0)
(245.311 -387.185 0)
(171.519 -352.032 0)
(-25.6874 -341.94 0)
(-108.584 -288.241 0)
(-231.589 -257.796 0)
(-352.87 -229.308 0)
(-408.2 -185.189 0)
(-368.99 -121.632 0)
(-281.205 -67.0604 0)
(-200.016 -30.3294 0)
(-143.777 -12.3579 0)
(-111.031 -4.75146 0)
(-91.2924 -1.30989 0)
(-77.3687 0.767408 0)
(-65.7514 2.5664 0)
(-55.6129 4.0095 0)
(-46.2698 5.0706 0)
(-37.3839 5.85454 0)
(-29.6373 6.4087 0)
(-22.4517 6.83909 0)
(-15.6488 7.3106 0)
(-9.72411 7.87995 0)
(-4.9243 8.55571 0)
(-0.120797 9.20868 0)
(4.46389 10.3074 0)
(11.1349 11.0667 0)
(18.6987 11.6833 0)
(29.4859 11.6784 0)
(42.1682 10.3002 0)
(57.4662 9.30072 0)
(73.0711 7.04543 0)
(95.0765 6.43217 0)
(116.643 4.22632 0)
(160.91 -0.517232 0)
(618.812 5.88728 0)
(6280.97 9.57233 0)
(-6629.86 -351.991 0)
(3936.12 360.103 0)
(-3223.53 -126.807 0)
(449.659 -217.886 0)
(220.318 -227.689 0)
(151.953 -248.932 0)
(-20.3392 -263.337 0)
(-90.9576 -252.594 0)
(-214.735 -245.594 0)
(-319.344 -224.673 0)
(-353.663 -174.402 0)
(-311.439 -110.618 0)
(-238.251 -59.2961 0)
(-174.858 -27.1196 0)
(-131.745 -11.2418 0)
(-105.484 -4.07363 0)
(-88.3896 -0.576135 0)
(-75.3686 1.65573 0)
(-64.115 3.46209 0)
(-54.3704 4.8788 0)
(-45.3497 5.92729 0)
(-36.6995 6.75141 0)
(-29.1108 7.41064 0)
(-21.9518 8.00985 0)
(-15.0753 8.70804 0)
(-9.05411 9.52453 0)
(-4.22593 10.4227 0)
(0.767623 11.2972 0)
(5.3656 12.7114 0)
(11.7342 13.5861 0)
(18.8642 14.1901 0)
(28.6373 14.0898 0)
(40.784 12.5572 0)
(55.592 11.2713 0)
(71.2488 8.83452 0)
(93.3171 7.96403 0)
(112.753 6.04275 0)
(162.147 1.80101 0)
(621.697 9.40461 0)
(6105.81 5.86297 0)
(-6458.71 -388.126 0)
(4021.19 318.207 0)
(-3459.43 -88.1896 0)
(401.135 -175.286 0)
(215.394 -171.413 0)
(137.168 -198.387 0)
(-29.2159 -219.234 0)
(-91.4862 -230.806 0)
(-204.685 -231.645 0)
(-284.267 -208.198 0)
(-298.293 -154.821 0)
(-258.07 -95.6519 0)
(-200.743 -50.5881 0)
(-153.709 -23.4049 0)
(-121.569 -9.54828 0)
(-100.753 -3.06311 0)
(-85.7713 0.459778 0)
(-73.4773 3.0694 0)
(-62.6455 5.03801 0)
(-53.2373 6.47895 0)
(-44.4653 7.52889 0)
(-35.9545 8.39748 0)
(-28.4246 9.15261 0)
(-21.2014 9.88453 0)
(-14.1892 10.732 0)
(-8.07178 11.6811 0)
(-3.21605 12.6305 0)
(2.08465 13.5395 0)
(6.66954 15.1175 0)
(12.5598 15.858 0)
(19.184 16.2019 0)
(27.9123 15.7449 0)
(39.4522 13.8094 0)
(53.8789 11.9493 0)
(69.8841 9.23496 0)
(92.3862 8.04111 0)
(110.704 6.16255 0)
(164.149 3.01002 0)
(622.727 11.1387 0)
(5897.89 3.63834 0)
(-6261.5 -415.625 0)
(4157.77 228.233 0)
(-3699.07 -58.6348 0)
(369.462 -124.177 0)
(198.058 -130.072 0)
(105.871 -174.079 0)
(-51.5801 -198.335 0)
(-102.917 -219.745 0)
(-192.949 -217.447 0)
(-245.314 -186.562 0)
(-245.21 -132.475 0)
(-210.997 -79.5736 0)
(-168.631 -41.2185 0)
(-135.311 -18.3409 0)
(-112.143 -6.04136 0)
(-95.8401 0.793117 0)
(-82.48 5.29825 0)
(-70.9568 8.39901 0)
(-60.8294 10.5657 0)
(-51.9701 12.0612 0)
(-43.5009 13.1281 0)
(-35.1348 14.0347 0)
(-27.6779 14.8391 0)
(-20.4299 15.5956 0)
(-13.344 16.3948 0)
(-7.2246 17.1563 0)
(-2.43515 17.8997 0)
(3.16414 18.55 0)
(7.59985 19.7548 0)
(12.7792 19.9718 0)
(18.7552 19.6344 0)
(26.3318 18.3735 0)
(37.1265 15.5811 0)
(51.1839 12.6699 0)
(67.4827 9.12963 0)
(90.3564 7.02637 0)
(107.904 4.33554 0)
(166.942 1.42836 0)
(622.303 9.05398 0)
(5694.56 -3.74206 0)
(-6061.7 -443.32 0)
(4184.62 80.1704 0)
(-3799.02 -37.2309 0)
(332.295 -90.2116 0)
(167.307 -113.305 0)
(71.3867 -166.139 0)
(-73.2216 -185.809 0)
(-109.903 -204.114 0)
(-172.708 -192.341 0)
(-202.385 -156.165 0)
(-195.195 -105.546 0)
(-170.132 -60.77 0)
(-141.737 -29.6025 0)
(-119.811 -11.0948 0)
(-103.131 -0.264123 0)
(-89.8256 7.28054 0)
(-78.442 12.2758 0)
(-68.4014 15.7163 0)
(-59.1164 18.0884 0)
(-50.7681 19.7567 0)
(-42.5636 20.9444 0)
(-34.3057 21.9509 0)
(-26.9205 22.8213 0)
(-19.7024 23.5595 0)
(-12.6853 24.2253 0)
(-6.62157 24.6951 0)
(-1.87299 25.2345 0)
(3.87228 25.6419 0)
(8.03955 26.3096 0)
(12.4438 26.0127 0)
(17.6439 25.0507 0)
(24.0064 23.0863 0)
(33.9559 19.5456 0)
(47.662 15.5771 0)
(64.4459 11.106 0)
(87.7664 8.22195 0)
(105.31 5.2994 0)
(168.696 2.2323 0)
(617.744 7.1299 0)
(5461.97 -9.385 0)
(-5830.7 -462.173 0)
(4199.15 -84.4864 0)
(-3863.26 -31.5913 0)
(296.154 -73.6999 0)
(124.891 -106.009 0)
(36.0025 -162.658 0)
(-88.1739 -172.503 0)
(-109.211 -180.796 0)
(-146.744 -160.301 0)
(-161.675 -123.105 0)
(-153.284 -79.1799 0)
(-137.815 -43.0168 0)
(-120.762 -17.4925 0)
(-107.039 -0.802071 0)
(-94.4356 10.7271 0)
(-83.7562 18.231 0)
(-74.351 23.6742 0)
(-65.3556 27.7869 0)
(-56.9359 30.8562 0)
(-49.218 33.0792 0)
(-41.3865 34.6029 0)
(-33.3262 35.6987 0)
(-26.1278 36.383 0)
(-19.0769 36.6559 0)
(-12.2497 36.6703 0)
(-6.2521 36.4407 0)
(-1.5228 36.2656 0)
(4.20019 35.8212 0)
(7.95714 35.6299 0)
(11.566 34.3062 0)
(15.9353 32.3105 0)
(21.0269 29.3024 0)
(29.8903 24.7575 0)
(43.0512 19.4763 0)
(60.395 13.9119 0)
(84.761 10.2076 0)
(102.133 7.26735 0)
(168.706 4.38006 0)
(611.108 7.94904 0)
(5242.33 -15.0304 0)
(-5607.29 -504.19 0)
(4072.77 -226.898 0)
(-3788.63 -32.739 0)
(260.584 -69.6875 0)
(81.5836 -104.122 0)
(7.30981 -156.664 0)
(-90.7001 -153.678 0)
(-98.1439 -148.521 0)
(-117.115 -122.79 0)
(-124.214 -88.2965 0)
(-118.019 -52.4444 0)
(-110.688 -23.669 0)
(-101.057 -1.78636 0)
(-92.6178 13.635 0)
(-84.7897 24.2261 0)
(-77.3493 31.4133 0)
(-69.2336 36.8465 0)
(-61.4805 40.8519 0)
(-54.0166 43.9419 0)
(-47.1577 46.2854 0)
(-40.0394 47.9473 0)
(-32.5903 49.147 0)
(-25.9981 49.8401 0)
(-19.4255 50.0052 0)
(-12.8926 49.8574 0)
(-7.01158 49.4914 0)
(-2.47 49.1187 0)
(3.25973 48.2981 0)
(6.57966 47.8676 0)
(9.24513 45.9083 0)
(12.822 43.2659 0)
(16.728 39.4628 0)
(24.4871 34.2055 0)
(37.2109 27.8414 0)
(55.5142 21.2841 0)
(81.3635 16.8087 0)
(99.6943 13.3511 0)
(169.353 10.0504 0)
(599.04 11.8972 0)
(4968.45 -20.7672 0)
(-5330.36 -514.647 0)
(3948.96 -357.181 0)
(-3711.77 -25.4726 0)
(227.367 -55.9621 0)
(41.0777 -87.0053 0)
(-11.751 -132.712 0)
(-80.3271 -121.179 0)
(-79.4467 -107.957 0)
(-88.7096 -82.698 0)
(-93.8882 -53.2643 0)
(-91.0062 -24.1695 0)
(-88.9986 0.097996 0)
(-84.815 18.16 0)
(-81.9725 30.7084 0)
(-77.3038 40.079 0)
(-71.5948 47.3546 0)
(-65.2556 52.6735 0)
(-58.5182 56.7246 0)
(-51.7 59.9965 0)
(-45.3583 62.6076 0)
(-38.6289 64.4484 0)
(-31.5022 65.571 0)
(-25.3008 65.9232 0)
(-19.0603 65.6507 0)
(-12.7448 65.1337 0)
(-6.96393 64.4909 0)
(-2.67269 64.1083 0)
(2.99463 63.0683 0)
(5.65427 62.2244 0)
(7.13163 59.9875 0)
(9.72409 57.218 0)
(12.296 53.1374 0)
(18.6915 47.6922 0)
(30.5996 40.7729 0)
(49.7634 33.6379 0)
(77.1164 28.757 0)
(95.62 25.6463 0)
(167.305 21.8096 0)
(581.411 23.3427 0)
(4734.93 -23.5076 0)
(-5091.35 -548.497 0)
(3704.03 -391.209 0)
(-3498.36 -4.0737 0)
(201.289 -33.0408 0)
(7.62469 -57.5152 0)
(-25.6216 -96.4342 0)
(-66.8449 -82.5875 0)
(-61.0618 -64.6675 0)
(-64.4114 -40.4127 0)
(-67.8137 -13.5452 0)
(-66.5973 8.81164 0)
(-69.8979 25.4516 0)
(-71.5597 39.2932 0)
(-71.4958 49.4528 0)
(-68.7488 57.996 0)
(-65.2128 63.8841 0)
(-60.2043 68.1434 0)
(-54.4238 71.1274 0)
(-48.3475 73.3734 0)
(-42.8676 75.1975 0)
(-37.1838 76.7022 0)
(-31.1692 78.1026 0)
(-25.9212 79.1552 0)
(-20.1863 79.6504 0)
(-14.0102 79.7725 0)
(-7.99971 79.5761 0)
(-3.84085 79.645 0)
(1.44435 78.8131 0)
(3.61082 78.0695 0)
(4.4208 76.2435 0)
(6.22107 74.0532 0)
(7.54859 70.7438 0)
(12.5722 66.3097 0)
(23.6677 60.4561 0)
(43.9353 54.9193 0)
(73.6624 51.9286 0)
(92.9995 52.3409 0)
(167.133 49.9439 0)
(555.37 51.9056 0)
(4417.41 -6.14094 0)
(-4779.15 -512.515 0)
(3568.05 -372.482 0)
(-3366.62 41.5066 0)
(175.869 12.752 0)
(-20.0104 -6.33892 0)
(-35.9116 -31.943 0)
(-49.7156 -16.8154 0)
(-38.8054 1.43721 0)
(-39.4463 18.4482 0)
(-46.4539 37.7369 0)
(-53.4275 51.7982 0)
(-59.6255 62.0002 0)
(-61.6866 72.1332 0)
(-63.9499 79.716 0)
(-63.3973 86.4072 0)
(-61.8163 90.9681 0)
(-58.2757 94.4165 0)
(-53.4784 96.9886 0)
(-47.7778 99.2221 0)
(-42.1505 101.296 0)
(-35.8295 102.977 0)
(-29.1384 104.123 0)
(-23.8093 104.529 0)
(-18.4655 104.401 0)
(-12.8164 104.17 0)
(-7.08683 103.639 0)
(-3.40797 103.515 0)
(1.47642 102.608 0)
(3.17818 101.929 0)
(3.26144 100.396 0)
(4.42435 98.402 0)
(4.83405 96.0364 0)
(8.77795 92.8048 0)
(19.6234 88.3426 0)
(41.546 84.9233 0)
(74.6317 83.7809 0)
(93.7075 89.6169 0)
(166.886 92.6028 0)
(527.366 100.775 0)
(4191.03 21.6502 0)
(-4591.55 -428.473 0)
(3385.09 -158.293 0)
(-3127.14 108.084 0)
(155.183 69.188 0)
(-35.445 49.5107 0)
(-35.7171 33.9635 0)
(-34.6785 44.6222 0)
(-27.0805 60.3229 0)
(-29.4316 69.063 0)
(-35.6765 80.978 0)
(-43.2163 89.4227 0)
(-50.3024 96.4533 0)
(-54.4881 104.127 0)
(-57.7408 109.757 0)
(-57.9058 116.419 0)
(-57.4947 121.425 0)
(-54.4028 126.001 0)
(-49.7929 129.305 0)
(-44.1967 130.656 0)
(-39.2497 130.064 0)
(-34.46 129.158 0)
(-29.673 130.677 0)
(-25.6534 134.03 0)
(-20.5322 136.101 0)
(-14.7438 135.572 0)
(-8.63149 132.772 0)
(-4.83449 130.356 0)
(-0.0838978 126.889 0)
(1.47951 124.433 0)
(1.02225 121.287 0)
(2.01959 118.746 0)
(2.15495 116.134 0)
(5.15823 113.599 0)
(16.0728 109.022 0)
(39.5395 105.539 0)
(78.1853 102.906 0)
(101.501 110.569 0)
(177.886 116.235 0)
(486.998 128.701 0)
(3907.41 52.7754 0)
(-4387.12 -157.106 0)
(3519.66 309.858 0)
(-3147.41 219.543 0)
(119.425 173.109 0)
(-53.954 148.291 0)
(-40.6223 133.747 0)
(-24.3148 135.026 0)
(-15.2534 148.039 0)
(-19.5422 152.416 0)
(-26.8346 160.272 0)
(-38.515 163.608 0)
(-45.456 166.27 0)
(-48.8663 168.078 0)
(-52.1044 168.129 0)
(-52.1535 168.544 0)
(-52.5828 168.535 0)
(-50.6831 171.06 0)
(-48.9932 176.398 0)
(-47.0459 184.303 0)
(-43.5941 193.053 0)
(-35.2387 198.528 0)
(-24.4437 199.476 0)
(-18.5832 196.106 0)
(-16.9794 189.876 0)
(-16.0236 185.575 0)
(-12.1132 182.853 0)
(-9.07741 184.311 0)
(-4.23063 186.359 0)
(-2.22042 188.063 0)
(-2.2188 190.243 0)
(-0.540769 191.815 0)
(-0.126373 192.707 0)
(1.92439 193.893 0)
(11.8572 191.925 0)
(35.6522 190.744 0)
(79.4787 189.256 0)
(106.552 201.196 0)
(184.358 213.794 0)
(466.214 218.267 0)
(3915.62 119.567 0)
(-4491.02 152.359 0)
(3895.24 10744 0)
(-3258.92 1303.02 0)
(86.5223 747.993 0)
(-73.3749 694.3 0)
(-48.4992 731.485 0)
(-20.9061 753.749 0)
(-10.3232 782.932 0)
(-17.6435 790.664 0)
(-24.8919 796.738 0)
(-37.4363 791.924 0)
(-45.995 789.991 0)
(-52.6976 778.002 0)
(-57.291 764.73 0)
(-57.5144 745.776 0)
(-55.0701 724.637 0)
(-46.8259 702.225 0)
(-37.0319 679.846 0)
(-28.1468 657.831 0)
(-25.5415 650.94 0)
(-28.271 644.719 0)
(-32.0074 645.839 0)
(-34.9044 656.318 0)
(-30.6803 658.542 0)
(-21.5107 680.323 0)
(-9.84918 687.903 0)
(-1.45677 703.927 0)
(3.53098 713.171 0)
(5.22279 720.329 0)
(4.63784 724.823 0)
(4.3943 723.916 0)
(4.15759 720.46 0)
(4.40418 711.049 0)
(13.0382 696.732 0)
(36.9674 671.213 0)
(88.2574 645.904 0)
(125.146 611.462 0)
(194.336 604.943 0)
(396.198 529.483 0)
(3843.89 1032.37 0)
(-4649.16 9606.32 0)
(15128.6 168313 0)
(-12779.9 14941.5 0)
(-467.157 5594.69 0)
(-69.8614 5478.16 0)
(16.6649 5578.31 0)
(25.2609 5894.66 0)
(20.3184 6123.59 0)
(-6.23764 6392.82 0)
(-25.6202 6580.25 0)
(-45.017 6732.98 0)
(-58.8719 6870.45 0)
(-73.2087 6959.49 0)
(-83.1577 7047.34 0)
(-90.7888 7103.72 0)
(-94.5501 7154.53 0)
(-93.8451 7182.28 0)
(-91.7737 7203.35 0)
(-74.9003 7202.98 0)
(-56.2288 7202.42 0)
(-40.1548 7181.5 0)
(-13.2663 7161.87 0)
(-6.34205 7124.72 0)
(6.15242 7097.95 0)
(12.2701 6952.81 0)
(10.6322 6822.39 0)
(15.2712 6647.58 0)
(11.5749 6477.7 0)
(9.00799 6256.7 0)
(1.23822 6047.31 0)
(-4.7452 5791.79 0)
(-12.5256 5549.75 0)
(-20.9408 5241.7 0)
(-26.5307 4967.83 0)
(-13.3269 4590.71 0)
(21.9008 4304.97 0)
(67.0796 3951.86 0)
(105.36 3920.51 0)
(878.1 3810.28 0)
(12662.4 12554.9 0)
(-14742.8 150867 0)
(180486 -186374 0)
(-160061 -16622.9 0)
(-9032.71 -7010.98 0)
(-89.1634 -6764.52 0)
(352.848 -6845.95 0)
(504.545 -7147.98 0)
(469.727 -7395.75 0)
(422.412 -7656.52 0)
(302.899 -7827.63 0)
(242.212 -7944.26 0)
(172.281 -8032.27 0)
(117.756 -8061.95 0)
(81.6936 -8078.5 0)
(45.781 -8060.43 0)
(20.6344 -8031.79 0)
(0.219765 -7983.72 0)
(-17.0899 -7934.63 0)
(-29.0454 -7870.75 0)
(-46.2397 -7826.76 0)
(-67.3429 -7764.41 0)
(-86.7258 -7715.21 0)
(-96.5025 -7660.65 0)
(-196.335 -7608.48 0)
(-287.052 -7463.29 0)
(-303.979 -7323.33 0)
(-333.604 -7158.87 0)
(-373.133 -6992.99 0)
(-409.521 -6783.67 0)
(-443.369 -6577.36 0)
(-475.072 -6324.86 0)
(-525.927 -6079.44 0)
(-556.355 -5766.08 0)
(-614.282 -5480.36 0)
(-601.795 -5101.09 0)
(-527.363 -4842.02 0)
(-245.326 -4576.55 0)
(57.9008 -4657.05 0)
(8716.6 -4745.98 0)
(145553 -14613.8 0)
(-162128 -168932 0)
(180486 186374 0)
(-160061 16622.9 0)
(-9032.71 7010.98 0)
(-89.1634 6764.52 0)
(352.848 6845.95 0)
(504.545 7147.98 0)
(469.727 7395.75 0)
(422.412 7656.52 0)
(302.899 7827.63 0)
(242.212 7944.26 0)
(172.281 8032.27 0)
(117.756 8061.95 0)
(81.6936 8078.5 0)
(45.781 8060.43 0)
(20.6344 8031.79 0)
(0.219764 7983.72 0)
(-17.0899 7934.63 0)
(-29.0454 7870.75 0)
(-46.2397 7826.76 0)
(-67.3429 7764.41 0)
(-86.7258 7715.21 0)
(-96.5025 7660.65 0)
(-196.335 7608.48 0)
(-287.052 7463.29 0)
(-303.979 7323.33 0)
(-333.604 7158.87 0)
(-373.133 6992.99 0)
(-409.521 6783.67 0)
(-443.369 6577.36 0)
(-475.072 6324.86 0)
(-525.927 6079.44 0)
(-556.355 5766.08 0)
(-614.282 5480.36 0)
(-601.795 5101.09 0)
(-527.363 4842.02 0)
(-245.326 4576.55 0)
(57.9008 4657.05 0)
(8716.6 4745.98 0)
(145553 14613.8 0)
(-162128 168932 0)
(15128.6 -168313 0)
(-12779.9 -14941.5 0)
(-467.157 -5594.69 0)
(-69.8614 -5478.16 0)
(16.6649 -5578.31 0)
(25.2609 -5894.66 0)
(20.3184 -6123.59 0)
(-6.23764 -6392.82 0)
(-25.6202 -6580.25 0)
(-45.017 -6732.98 0)
(-58.8719 -6870.45 0)
(-73.2087 -6959.49 0)
(-83.1577 -7047.34 0)
(-90.7888 -7103.72 0)
(-94.5501 -7154.53 0)
(-93.8451 -7182.28 0)
(-91.7737 -7203.35 0)
(-74.9003 -7202.98 0)
(-56.2288 -7202.42 0)
(-40.1548 -7181.5 0)
(-13.2663 -7161.87 0)
(-6.34205 -7124.72 0)
(6.15242 -7097.95 0)
(12.2701 -6952.81 0)
(10.6322 -6822.39 0)
(15.2712 -6647.58 0)
(11.5749 -6477.7 0)
(9.00799 -6256.7 0)
(1.23822 -6047.31 0)
(-4.7452 -5791.79 0)
(-12.5256 -5549.75 0)
(-20.9408 -5241.7 0)
(-26.5307 -4967.83 0)
(-13.3269 -4590.71 0)
(21.9008 -4304.97 0)
(67.0796 -3951.86 0)
(105.36 -3920.51 0)
(878.1 -3810.28 0)
(12662.4 -12554.9 0)
(-14742.8 -150867 0)
(3895.24 -10744 0)
(-3258.92 -1303.02 0)
(86.5223 -747.993 0)
(-73.3749 -694.3 0)
(-48.4992 -731.485 0)
(-20.9061 -753.749 0)
(-10.3232 -782.932 0)
(-17.6435 -790.664 0)
(-24.8919 -796.738 0)
(-37.4363 -791.924 0)
(-45.995 -789.991 0)
(-52.6976 -778.002 0)
(-57.291 -764.73 0)
(-57.5144 -745.776 0)
(-55.0701 -724.637 0)
(-46.8259 -702.225 0)
(-37.0319 -679.846 0)
(-28.1468 -657.831 0)
(-25.5415 -650.94 0)
(-28.271 -644.719 0)
(-32.0074 -645.839 0)
(-34.9044 -656.318 0)
(-30.6803 -658.542 0)
(-21.5107 -680.323 0)
(-9.84918 -687.903 0)
(-1.45677 -703.927 0)
(3.53098 -713.171 0)
(5.22279 -720.329 0)
(4.63784 -724.823 0)
(4.3943 -723.916 0)
(4.15759 -720.46 0)
(4.40418 -711.049 0)
(13.0382 -696.732 0)
(36.9674 -671.213 0)
(88.2574 -645.904 0)
(125.146 -611.462 0)
(194.336 -604.943 0)
(396.198 -529.483 0)
(3843.89 -1032.37 0)
(-4649.16 -9606.32 0)
(3519.66 -309.858 0)
(-3147.41 -219.543 0)
(119.425 -173.109 0)
(-53.954 -148.291 0)
(-40.6223 -133.747 0)
(-24.3148 -135.026 0)
(-15.2534 -148.039 0)
(-19.5422 -152.416 0)
(-26.8346 -160.272 0)
(-38.515 -163.608 0)
(-45.456 -166.27 0)
(-48.8663 -168.078 0)
(-52.1044 -168.129 0)
(-52.1535 -168.544 0)
(-52.5828 -168.535 0)
(-50.6831 -171.06 0)
(-48.9932 -176.398 0)
(-47.0459 -184.303 0)
(-43.5941 -193.053 0)
(-35.2387 -198.528 0)
(-24.4437 -199.476 0)
(-18.5832 -196.106 0)
(-16.9794 -189.876 0)
(-16.0236 -185.575 0)
(-12.1132 -182.853 0)
(-9.07741 -184.311 0)
(-4.23063 -186.359 0)
(-2.22042 -188.063 0)
(-2.2188 -190.243 0)
(-0.540769 -191.815 0)
(-0.126373 -192.707 0)
(1.92439 -193.893 0)
(11.8572 -191.925 0)
(35.6522 -190.744 0)
(79.4787 -189.256 0)
(106.552 -201.196 0)
(184.358 -213.794 0)
(466.214 -218.267 0)
(3915.62 -119.567 0)
(-4491.02 -152.359 0)
(3385.09 158.293 0)
(-3127.14 -108.084 0)
(155.183 -69.188 0)
(-35.445 -49.5107 0)
(-35.7171 -33.9635 0)
(-34.6785 -44.6222 0)
(-27.0805 -60.3229 0)
(-29.4316 -69.063 0)
(-35.6765 -80.978 0)
(-43.2163 -89.4227 0)
(-50.3024 -96.4533 0)
(-54.4881 -104.127 0)
(-57.7408 -109.757 0)
(-57.9058 -116.419 0)
(-57.4947 -121.425 0)
(-54.4028 -126.001 0)
(-49.7929 -129.305 0)
(-44.1967 -130.656 0)
(-39.2497 -130.064 0)
(-34.46 -129.158 0)
(-29.673 -130.677 0)
(-25.6534 -134.03 0)
(-20.5322 -136.101 0)
(-14.7438 -135.572 0)
(-8.63149 -132.772 0)
(-4.83449 -130.356 0)
(-0.0838978 -126.889 0)
(1.47951 -124.433 0)
(1.02225 -121.287 0)
(2.01959 -118.746 0)
(2.15495 -116.134 0)
(5.15823 -113.599 0)
(16.0728 -109.022 0)
(39.5395 -105.539 0)
(78.1853 -102.906 0)
(101.501 -110.569 0)
(177.886 -116.235 0)
(486.998 -128.701 0)
(3907.41 -52.7754 0)
(-4387.12 157.106 0)
(3568.05 372.482 0)
(-3366.62 -41.5066 0)
(175.869 -12.752 0)
(-20.0104 6.33892 0)
(-35.9116 31.943 0)
(-49.7156 16.8154 0)
(-38.8054 -1.43721 0)
(-39.4463 -18.4482 0)
(-46.4539 -37.7369 0)
(-53.4275 -51.7982 0)
(-59.6255 -62.0002 0)
(-61.6866 -72.1332 0)
(-63.9499 -79.716 0)
(-63.3973 -86.4072 0)
(-61.8163 -90.9681 0)
(-58.2757 -94.4165 0)
(-53.4784 -96.9886 0)
(-47.7778 -99.2221 0)
(-42.1505 -101.296 0)
(-35.8295 -102.977 0)
(-29.1384 -104.123 0)
(-23.8093 -104.529 0)
(-18.4655 -104.401 0)
(-12.8164 -104.17 0)
(-7.08683 -103.639 0)
(-3.40797 -103.515 0)
(1.47642 -102.608 0)
(3.17818 -101.929 0)
(3.26144 -100.396 0)
(4.42435 -98.402 0)
(4.83405 -96.0364 0)
(8.77795 -92.8048 0)
(19.6234 -88.3426 0)
(41.546 -84.9233 0)
(74.6317 -83.7809 0)
(93.7075 -89.6169 0)
(166.886 -92.6028 0)
(527.366 -100.775 0)
(4191.03 -21.6502 0)
(-4591.55 428.473 0)
(3704.03 391.209 0)
(-3498.36 4.0737 0)
(201.289 33.0408 0)
(7.62469 57.5152 0)
(-25.6216 96.4342 0)
(-66.8449 82.5875 0)
(-61.0618 64.6675 0)
(-64.4114 40.4127 0)
(-67.8137 13.5452 0)
(-66.5973 -8.81164 0)
(-69.8979 -25.4516 0)
(-71.5597 -39.2932 0)
(-71.4958 -49.4528 0)
(-68.7488 -57.996 0)
(-65.2128 -63.8841 0)
(-60.2043 -68.1434 0)
(-54.4238 -71.1274 0)
(-48.3475 -73.3734 0)
(-42.8676 -75.1975 0)
(-37.1838 -76.7022 0)
(-31.1692 -78.1026 0)