/*--------------------------------*- C++ -*----------------------------------*\
| =========                 |                                                 |
| \\      /  F ield         | OpenFOAM: The Open Source CFD Toolbox           |
|  \\    /   O peration     | Version:  v1912                                 |
|   \\  /    A nd           | Website:  www.openfoam.com                      |
|    \\/     M anipulation  |                                                 |
\*---------------------------------------------------------------------------*/
FoamFile
{
    version     2.0;
    format      ascii;
    class       volScalarField;
    location    "5.1";
    object      p;
}
// * * * * * * * * * * * * * * * * * * * * * * * * * * * * * * * * * * * * * //

dimensions      [1 -1 -2 0 0 0 0];


internalField   nonuniform List<scalar> 
1900
(
35649.2
11519
9949.98
9831.77
9663.75
9507.94
9372
9260.04
9208.5
9137.37
35649.3
11518.9
9950.27
9831.61
9663.64
9507.9
9371.47
9263.54
9191.91
9122.25
35649.3
11518.9
9950.31
9831.57
9663.78
9508.11
9370.78
9260.04
9184.42
9117.3
35649.3
11518.9
9950.27
9831.61
9663.64
9507.9
9371.47
9263.54
9191.91
9122.25
35649.2
11519
9949.98
9831.77
9663.75
9507.94
9372
9260.04
9208.5
9137.37
9231.29
9073.16
8981.63
8765.01
8931
9090.16
8970.78
8881.33
8649.1
8424.06
9071.79
8952.67
8860.76
8668.71
8511.02
9090.16
8970.78
8881.33
8649.1
8424.06
9231.29
9073.16
8981.63
8765.01
8931
4980.31
4341.04
4054.92
3629.36
3084.45
5448.47
4490.73
4149.33
3705.18
3193.01
5522.55
4444.65
4085.92
3660.45
3149.52
5448.47
4490.73
4149.33
3705.18
3193.01
4980.31
4341.04
4054.92
3629.36
3084.45
1944.24
1366.82
1684.17
1982.85
1975.49
1782.6
1565.57
1413.19
1312.88
1226.2
1142.42
1065.49
1006.78
970.791
949.618
934.917
922.811
912.278
903.261
895.687
889.582
884.792
881.087
878.405
876.578
875.462
874.911
874.946
875.584
877.581
880.605
886.61
893.569
904.425
914.753
932.248
948.756
984.64
1116.97
2873.63
2113.38
1418.87
1668.18
1999.29
2007.87
1804.87
1574.06
1415.67
1313.87
1226.77
1143.35
1065.92
1006.91
970.759
949.571
934.878
922.777
912.245
903.224
895.645
889.537
884.745
881.04
878.358
876.531
875.414
874.863
874.895
875.532
877.528
880.551
886.569
893.531
904.417
914.711
932.297
948.701
984.934
1116.88
2875.12
2130.47
1376.76
1645.68
2044.1
2043.21
1817.14
1577.3
1416.51
1314.22
1226.95
1143.76
1066.07
1006.95
970.752
949.558
934.87
922.771
912.239
903.216
895.636
889.526
884.733
881.028
878.345
876.517
875.399
874.847
874.878
875.515
877.511
880.536
886.561
893.529
904.441
914.758
932.427
948.922
985.479
1117.1
2885.42
2113.38
1418.87
1668.18
1999.29
2007.87
1804.87
1574.06
1415.67
1313.87
1226.77
1143.35
1065.92
1006.91
970.759
949.571
934.878
922.777
912.245
903.224
895.645
889.537
884.745
881.04
878.358
876.531
875.414
874.863
874.895
875.532
877.528
880.551
886.569
893.531
904.417
914.711
932.297
948.701
984.934
1116.88
2875.12
1944.24
1366.82
1684.17
1982.85
1975.49
1782.6
1565.57
1413.19
1312.88
1226.2
1142.42
1065.49
1006.78
970.791
949.618
934.917
922.811
912.278
903.261
895.687
889.582
884.792
881.087
878.405
876.578
875.462
874.911
874.946
875.584
877.581
880.605
886.61
893.569
904.425
914.753
932.248
948.756
984.64
1116.97
2873.63
1639.57
1323.49
1623.04
1854.5
1864.08
1714.53
1538.85
1401.73
1307.07
1222.09
1138.23
1062.75
1005.8
970.69
949.682
934.973
922.86
912.345
903.357
895.809
889.72
884.938
881.236
878.552
876.723
875.605
875.053
875.09
875.727
877.721
880.736
886.684
893.616
904.366
914.814
932.017
949.081
983.168
1118.77
2998.13
1735.86
1225.09
1418.36
1656.78
1669.4
1581.64
1469.81
1370.7
1290.72
1210.32
1128.4
1056.6
1003.48
970.348
949.786
935.082
922.967
912.508
903.597
896.112
890.065
885.304
881.608
878.925
877.095
875.98
875.431
875.483
876.126
878.125
881.115
886.952
893.809
904.343
914.913
931.755
949.394
980.483
1116.21
2850.17
1729.76
1144.2
1325.52
1494.02
1511.91
1467.34
1398.39
1331.6
1266.15
1192.68
1114.83
1048.52
1000.2
969.626
949.801
935.201
923.133
912.773
903.978
896.585
890.6
885.871
882.186
879.507
877.68
876.573
876.033
876.115
876.777
878.791
881.754
887.435
894.201
904.447
915.159
931.587
949.493
977.736
1114.55
2816.95
1803.34
1107.21
1265.22
1367.73
1389.11
1372.37
1334.84
1292.45
1238.08
1171.06
1098.86
1039.37
996.338
968.528
949.622
935.245
923.299
913.085
904.438
897.161
891.254
886.568
882.903
880.235
878.422
877.338
876.82
876.957
877.657
879.705
882.647
888.154
894.814
904.756
915.524
931.602
949.322
976.413
1116.85
2786.12
1898.66
1085.41
1224.79
1271.21
1304.89
1301.01
1282.39
1253.7
1207.72
1146.64
1081.93
1029.69
992.213
967.106
949.206
935.17
923.436
913.416
904.945
897.801
891.985
887.354
883.719
881.078
879.297
878.258
877.783
878.005
878.766
880.867
883.792
889.109
895.637
905.259
915.991
931.669
948.839
975.819
1117.13
2749.75
1979.26
1064.74
1181.09
1201.79
1248.55
1248.96
1241.48
1219.1
1177.8
1122.06
1065.54
1020.58
988.209
965.579
948.671
935.046
923.565
913.769
905.484
898.476
892.76
888.195
884.609
882.021
880.306
879.347
878.952
879.314
880.179
882.376
885.321
890.484
896.918
906.288
917.012
932.434
949.089
976.684
1119.26
2703.95
2037.48
1044.95
1151.01
1168.61
1211.6
1210.4
1206
1185.38
1146.95
1097.56
1049.7
1011.92
984.176
963.831
947.946
934.823
923.639
914.096
906.008
899.144
893.536
889.052
885.531
883.015
881.385
880.525
880.223
880.736
881.699
883.963
886.886
891.839
898.102
907.126
917.695
932.789
948.702
977.379
1119.67
2656.48
2074.69
1031.14
1123.35
1141.45
1182.58
1179.17
1174.55
1154.01
1118.26
1075.84
1036.23
1004.87
981.023
962.6
947.591
934.893
924.004
914.687
906.777
900.047
894.549
890.159
886.732
884.329
882.83
882.109
881.945
882.682
883.78
886.136
889.055
893.812
899.905
908.629
919.123
934.035
949.566
979.176
1120.82
2601.1
2121.81
1021.58
1104.56
1123.18
1159.03
1152.3
1144.84
1124
1091.78
1056.53
1024.35
998.511
977.974
961.3
947.135
934.944
924.453
915.431
907.725
901.139
895.762
891.477
888.15
885.859
884.481
883.872
883.811
884.743
885.901
888.257
891.059
895.498
901.269
909.574
919.826
934.422
949.5
980.331
1120.63
2546.34
2135.17
1015.6
1090.44
1106.98
1136.45
1126.61
1116.31
1096.39
1068.82
1040.73
1015.14
993.947
976.162
960.999
947.801
936.297
926.23
917.487
909.973
903.526
898.268
894.092
890.865
888.673
887.376
886.852
886.861
887.917
889.072
891.339
893.924
897.941
903.262
911.048
920.985
935.184
949.945
981.575
1119.82
2483.62
2143.05
1011.72
1080.65
1093.16
1115
1103.06
1090.75
1073.03
1050.4
1028.57
1008.24
990.666
975.034
961.23
949.064
938.197
928.617
920.225
912.96
906.69
901.579
897.525
894.394
892.279
891.025
890.56
890.606
891.715
892.794
894.895
897.177
900.678
905.396
912.517
922.005
935.826
950.092
982.22
1118.15
2423.86
2112.78
1007.23
1070.91
1078.89
1093.34
1080.9
1068.4
1053.91
1036.2
1019.75
1003.74
989.312
975.95
963.842
952.633
942.571
933.593
925.664
918.739
912.695
907.728
903.733
900.579
898.391
897.033
896.463
896.354
897.359
898.163
899.902
901.689
904.502
908.423
914.735
923.69
937.11
951.106
983.682
1115.84
2350.01
2082.92
1003.04
1062.19
1065.57
1073.48
1062.33
1051.39
1040.49
1027
1014.67
1001.97
990.193
978.647
967.65
957.389
947.962
939.443
931.869
925.226
919.396
914.603
910.733
907.645
905.491
904.14
903.576
903.405
904.4
904.96
906.361
907.634
909.742
912.774
918.157
926.459
939.364
952.755
985.373
1112.64
2287.48
2018.13
1000.48
1056.08
1055.83
1058.18
1048.79
1039.79
1031.99
1022.08
1013.35
1003.77
994.124
984.088
974.463
965.182
956.529
948.625
941.563
935.33
929.774
925.104
921.203
917.976
915.651
914.123
913.452
913.067
913.849
914.06
915.064
915.771
917.14
919.228
923.649
931.31
943.906
956.885
989.868
1109.61
2204.65
1979.25
1001.96
1053.43
1050.32
1047.93
1040.45
1034.26
1029.78
1023.41
1017
1008.72
1000.61
991.752
983.019
974.318
966.02
958.292
951.313
945.153
939.722
935.3
931.709
928.752
926.631
925.228
924.682
924.291
925.088
925.165
925.985
926.381
927.314
928.795
932.711
940.22
953.234
965.99
999.128
1111.02
2151.66
1919.42
1011.48
1059.46
1054.15
1049.71
1044.33
1040.17
1036.88
1032.08
1027.07
1020.2
1013.24
1005.21
997.361
989.288
981.55
974.327
967.857
962.173
957.063
952.697
948.903
945.642
943.257
941.588
940.883
940.258
940.86
940.665
941.141
941.22
941.734
942.639
946.154
953.512
967.655
981.425
1016.57
1115.35
2091.11
1937.3
1030.6
1071.77
1063.44
1056.93
1052.27
1050.24
1048.08
1044.87
1040.7
1034.28
1028.2
1020.84
1013.87
1006.5
999.41
992.558
985.937
979.62
973.949
969.929
967.227
964.819
962.557
960.413
959.226
957.916
958.063
957.306
957.453
957.157
957.418
957.686
960.679
967.491
982.535
996.792
1033.23
1125
2110.03
2001.53
1069.66
1105.33
1093.45
1085.15
1080.11
1079.41
1077.27
1074.55
1070.43
1064.26
1057.78
1049.77
1042.02
1033.95
1026.88
1021.07
1016.7
1013.33
1009.67
1005.56
1000.87
995.959
992.434
990.044
989.725
989.643
990.696
991.079
991.972
992.288
993.115
993.499
996.701
1003.67
1020.97
1038.08
1074.41
1147.03
2131.48
4784.46
1375.9
1269.98
1247.43
1250.77
1252.02
1257.72
1257.6
1256
1250.56
1243.62
1234.37
1223.49
1211.5
1198.52
1185.5
1172.72
1160.26
1152.12
1144.8
1141.08
1141.15
1139.33
1142.84
1142.71
1145.77
1146.91
1148.95
1149.38
1149.29
1148.08
1145.85
1142.32
1138.55
1138.66
1144.57
1157.1
1173.55
1398.58
4655.7
46604.6
5029.16
2587.93
2545.16
2563.41
2642.2
2702.16
2771.37
2818.32
2854.67
2884.93
2902.05
2917.31
2924.51
2929.9
2930.19
2929.96
2925.49
2921.97
2912.77
2903.45
2888.92
2876.92
2834.93
2797.98
2751.33
2706.23
2648.72
2593.62
2526.8
2462.97
2382.17
2309.97
2213.24
2144.48
2068.21
2077.02
2084.14
4474.08
42111.2
46604.6
5029.16
2587.93
2545.16
2563.41
2642.2
2702.16
2771.37
2818.32
2854.67
2884.93
2902.05
2917.31
2924.51
2929.9
2930.19
2929.96
2925.49
2921.97
2912.77
2903.45
2888.92
2876.92
2834.93
2797.98
2751.33
2706.23
2648.72
2593.62
2526.8
2462.97
2382.17
2309.97
2213.24
2144.48
2068.21
2077.02
2084.14
4474.08
42111.2
4784.46
1375.9
1269.98
1247.43
1250.77
1252.02
1257.72
1257.6
1256
1250.56
1243.62
1234.37
1223.49
1211.5
1198.52
1185.5
1172.72
1160.26
1152.12
1144.8
1141.08
1141.15
1139.33
1142.84
1142.71
1145.77
1146.91
1148.95
1149.38
1149.29
1148.08
1145.85
1142.32
1138.55
1138.66
1144.57
1157.1
1173.55
1398.58
4655.7
2001.53
1069.66
1105.33
1093.45
1085.15
1080.11
1079.41
1077.27
1074.55
1070.43
1064.26
1057.78
1049.77
1042.02
1033.95
1026.88
1021.07
1016.7
1013.33
1009.67
1005.56
1000.87
995.959
992.434
990.044
989.725
989.643
990.696
991.079
991.972
992.288
993.115
993.499
996.701
1003.67
1020.97
1038.08
1074.41
1147.03
2131.48
1937.3
1030.6
1071.77
1063.44
1056.93
1052.27
1050.24
1048.08
1044.87
1040.7
1034.28
1028.2
1020.84
1013.87
1006.5
999.41
992.558
985.937
979.62
973.949
969.929
967.227
964.819
962.557
960.413
959.226
957.916
958.063
957.306
957.453
957.157
957.418
957.686
960.679
967.491
982.535
996.792
1033.23
1125
2110.03
1919.42
1011.48
1059.46
1054.15
1049.71
1044.33
1040.17
1036.88
1032.08
1027.07
1020.2
1013.24
1005.21
997.361
989.288
981.55
974.327
967.857
962.173
957.063
952.697
948.903
945.642
943.257
941.588
940.883
940.258
940.86
940.665
941.141
941.22
941.734
942.639
946.154
953.512
967.655
981.425
1016.57
1115.35
2091.11
1979.25
1001.96
1053.43
1050.32
1047.93
1040.45
1034.26
1029.78
1023.41
1017
1008.72
1000.61
991.752
983.019
974.318
966.02
958.292
951.313
945.153
939.722
935.3
931.709
928.752
926.631
925.228
924.682
924.291
925.088
925.165
925.985
926.381
927.314
928.795
932.711
940.22
953.234
965.99
999.128
1111.02
2151.66
2018.13
1000.48
1056.08
1055.83
1058.18
1048.79
1039.79
1031.99
1022.08
1013.35
1003.77
994.124
984.088
974.463
965.182
956.529
948.625
941.563
935.33
929.774
925.104
921.203
917.976
915.651
914.123
913.452
913.067
913.849
914.06
915.064
915.771
917.14
919.228
923.649
931.31
943.906
956.885
989.868
1109.61
2204.65
2082.92
1003.04
1062.19
1065.57
1073.48
1062.33
1051.39
1040.49
1027
1014.67
1001.97
990.193
978.647
967.65
957.389
947.962
939.443
931.869
925.226
919.396
914.603
910.733
907.645
905.491
904.14
903.576
903.405
904.4
904.96
906.361
907.634
909.742
912.774
918.157
926.459
939.364
952.755
985.373
1112.64
2287.48
2112.78
1007.23
1070.91
1078.89
1093.34
1080.9
1068.4
1053.91
1036.2
1019.75
1003.74
989.312
975.95
963.842
952.633
942.571
933.593
925.664
918.739
912.695
907.728
903.733
900.579
898.391
897.033
896.463
896.354
897.359
898.163
899.902
901.689
904.502
908.423
914.735
923.69
937.11
951.106
983.682
1115.84
2350.01
2143.05
1011.72
1080.65
1093.16
1115
1103.06
1090.75
1073.03
1050.4
1028.57
1008.24
990.666
975.034
961.23
949.064
938.197
928.617
920.225
912.96
906.69
901.579
897.525
894.394
892.279
891.025
890.56
890.606
891.715
892.794
894.895
897.177
900.678
905.396
912.517
922.005
935.826
950.092
982.22
1118.15
2423.86
2135.17
1015.6
1090.44
1106.98
1136.45
1126.61
1116.31
1096.39
1068.82
1040.73
1015.14
993.947
976.162
960.999
947.801
936.297
926.23
917.487
909.973
903.526
898.268
894.092
890.865
888.673
887.376
886.852
886.861
887.917
889.072
891.339
893.924
897.941
903.262
911.048
920.985
935.184
949.945
981.575
1119.82
2483.62
2121.81
1021.58
1104.56
1123.18
1159.03
1152.3
1144.84
1124
1091.78
1056.53
1024.35
998.511
977.974
961.3
947.135
934.944
924.453
915.431
907.725
901.139
895.762
891.477
888.15
885.859
884.481
883.872
883.811
884.743
885.901
888.257
891.059
895.498
901.269
909.574
919.826
934.422
949.5
980.331
1120.63
2546.34
2074.69
1031.14
1123.35
1141.45
1182.58
1179.17
1174.55
1154.01
1118.26
1075.84
1036.23
1004.87
981.023
962.6
947.591
934.893
924.004
914.687
906.777
900.047
894.549
890.159
886.732
884.329
882.83
882.109
881.945
882.682
883.78
886.136
889.055
893.812
899.905
908.629
919.123
934.035
949.566
979.176
1120.82
2601.1
2037.48
1044.95
1151.01
1168.61
1211.6
1210.4
1206
1185.38
1146.95
1097.56
1049.7
1011.92
984.176
963.831
947.946
934.823
923.639
914.096
906.008
899.144
893.536
889.052
885.531
883.015
881.385
880.525
880.223
880.736
881.699
883.963
886.886
891.839
898.102
907.126
917.695
932.789
948.702
977.379
1119.67
2656.48
1979.26
1064.74
1181.09
1201.79
1248.55
1248.96
1241.48
1219.1
1177.8
1122.06
1065.54
1020.58
988.209
965.579
948.671
935.046
923.565
913.769
905.484
898.476
892.76
888.195
884.609
882.021
880.306
879.347
878.952
879.314
880.179
882.376
885.321
890.484
896.918
906.288
917.012
932.434
949.089
976.684
1119.26
2703.95
1898.66
1085.41
1224.79
1271.21
1304.89
1301.01
1282.39
1253.7
1207.72
1146.64
1081.93
1029.69
992.213
967.106
949.206
935.17
923.436
913.416
904.945
897.801
891.985
887.354
883.719
881.078
879.297
878.258
877.783
878.005
878.766
880.867
883.792
889.109
895.637
905.259
915.991
931.669
948.839
975.819
1117.13
2749.75
1803.34
1107.21
1265.22
1367.73
1389.11
1372.37
1334.84
1292.45
1238.08
1171.06
1098.86
1039.37
996.338
968.528
949.622
935.245
923.299
913.085
904.438
897.161
891.254
886.568
882.903
880.235
878.422
877.338
876.82
876.957
877.657
879.705
882.647
888.154
894.814
904.756
915.524
931.602
949.322
976.413
1116.85
2786.12
1729.76
1144.2
1325.52
1494.02
1511.91
1467.34
1398.39
1331.6
1266.15
1192.68
1114.83
1048.52
1000.2
969.626
949.801
935.201
923.133
912.773
903.978
896.585
890.6
885.871
882.186
879.507
877.68
876.573
876.033
876.115
876.777
878.791
881.754
887.435
894.201
904.447
915.159
931.587
949.493
977.736
1114.55
2816.95
1735.86
1225.09
1418.36
1656.78
1669.4
1581.64
1469.81
1370.7
1290.72
1210.32
1128.4
1056.6
1003.48
970.348
949.786
935.082
922.967
912.508
903.597
896.112
890.065
885.304
881.608
878.925
877.095
875.98
875.431
875.483
876.126
878.125
881.115
886.952
893.809
904.343
914.913
931.755
949.394
980.483
1116.21
2850.17
1639.57
1323.49
1623.04
1854.5
1864.08
1714.53
1538.85
1401.73
1307.07
1222.09
1138.23
1062.75
1005.8
970.69
949.682
934.973
922.86
912.345
903.357
895.809
889.72
884.938
881.236
878.552
876.723
875.605
875.053
875.09
875.727
877.721
880.736
886.684
893.616
904.366
914.814
932.017
949.081
983.168
1118.77
2998.13
)
;

boundaryField
{
    inlet
    {
        type            fixedValue;
        value           uniform 10000;
    }
    outlet
    {
        type            fixedValue;
        value           uniform 1000;
    }
    obstacle
    {
        type            zeroGradient;
    }
    empty
    {
        type            empty;
    }
}


// ************************************************************************* //
