/*--------------------------------*- C++ -*----------------------------------*\
| =========                 |                                                 |
| \\      /  F ield         | OpenFOAM: The Open Source CFD Toolbox           |
|  \\    /   O peration     | Version:  v1912                                 |
|   \\  /    A nd           | Website:  www.openfoam.com                      |
|    \\/     M anipulation  |                                                 |
\*---------------------------------------------------------------------------*/
FoamFile
{
    version     2.0;
    format      ascii;
    class       volScalarField;
    location    "6.84";
    object      Ma;
}
// * * * * * * * * * * * * * * * * * * * * * * * * * * * * * * * * * * * * * //

dimensions      [0 0 0 0 0 0 0];


internalField   nonuniform List<scalar> 
1900
(
0.663388
0.0317899
0.0885273
0.0868228
0.0892214
0.091703
0.0949275
0.098564
0.100663
0.0937395
0.663386
0.0317914
0.0885269
0.0868194
0.0892108
0.0916603
0.0948352
0.0981404
0.1021
0.105388
0.663386
0.031793
0.0885247
0.0868141
0.089199
0.0916379
0.094823
0.0982367
0.102659
0.111713
0.663386
0.0317914
0.0885269
0.0868194
0.0892108
0.0916603
0.0948352
0.0981404
0.1021
0.105388
0.663388
0.0317899
0.0885273
0.0868228
0.0892214
0.091703
0.0949275
0.098564
0.100663
0.0937395
0.102493
0.141908
0.195555
0.282512
0.431593
0.122337
0.148898
0.180981
0.247238
0.392314
0.130328
0.155569
0.187793
0.250941
0.389244
0.122337
0.148898
0.180981
0.247238
0.392314
0.102493
0.141908
0.195555
0.282512
0.431593
0.948712
1.34525
1.59857
1.77531
1.95889
0.907348
1.34366
1.62089
1.79512
1.97817
0.902963
1.35264
1.6215
1.7894
1.97363
0.907348
1.34366
1.62089
1.79512
1.97817
0.948712
1.34525
1.59857
1.77531
1.95889
2.07799
2.13987
2.23035
2.3275
2.30018
1.90995
1.30676
1.20308
1.1089
0.952282
0.786293
0.649843
0.544614
0.444574
0.315135
0.181105
0.116203
0.102516
0.102679
0.105911
0.112165
0.124982
0.145986
0.172756
0.201814
0.231219
0.259934
0.288362
0.315889
0.343031
0.369479
0.393487
0.415484
0.434573
0.447531
0.408251
0.23299
0.0485663
0.02314
0.11376
2.10848
2.15912
2.24997
2.34271
2.3036
1.91023
1.29131
1.19323
1.09319
0.949694
0.79886
0.665829
0.556462
0.449867
0.315817
0.180082
0.114341
0.100476
0.100836
0.104275
0.110661
0.123703
0.144954
0.171957
0.201215
0.230788
0.259632
0.288186
0.315795
0.343034
0.369541
0.393627
0.415639
0.434773
0.44783
0.408627
0.233259
0.0472658
0.0128869
0.112739
2.1084
2.15992
2.25086
2.35148
2.29565
1.90198
1.28203
1.18795
1.09776
0.955019
0.790376
0.654192
0.549127
0.448948
0.31751
0.180676
0.113921
0.0998917
0.10029
0.103804
0.110201
0.123272
0.144589
0.171662
0.200976
0.230592
0.259469
0.288057
0.315689
0.342959
0.369492
0.393618
0.415662
0.434858
0.448029
0.409009
0.233828
0.0476871
0.00793076
0.110405
2.10848
2.15912
2.24997
2.34271
2.3036
1.91023
1.29131
1.19323
1.09319
0.949694
0.79886
0.665829
0.556462
0.449867
0.315817
0.180082
0.114341
0.100476
0.100836
0.104275
0.110661
0.123703
0.144954
0.171957
0.201215
0.230788
0.259632
0.288186
0.315795
0.343034
0.369541
0.393627
0.415639
0.434773
0.44783
0.408627
0.233259
0.0472658
0.0128869
0.112739
2.07799
2.13987
2.23035
2.3275
2.30018
1.90995
1.30676
1.20308
1.1089
0.952282
0.786293
0.649843
0.544614
0.444574
0.315135
0.181105
0.116203
0.102516
0.102679
0.105911
0.112165
0.124982
0.145986
0.172756
0.201814
0.231219
0.259934
0.288362
0.315889
0.343031
0.369479
0.393487
0.415484
0.434573
0.447531
0.408251
0.23299
0.0485663
0.02314
0.11376
2.09898
2.11317
2.1502
2.23111
2.14949
1.76698
1.28677
1.16321
1.04187
0.897453
0.764705
0.648375
0.548861
0.446775
0.313879
0.182117
0.122052
0.109784
0.109634
0.112381
0.118367
0.130668
0.150924
0.176962
0.205428
0.234373
0.262774
0.290892
0.318285
0.345229
0.371633
0.395524
0.417656
0.43675
0.449592
0.410397
0.236338
0.0574868
0.045765
0.115128
2.08781
2.10053
2.10226
2.0179
1.84701
1.49588
1.18811
1.04294
0.93525
0.82376
0.718713
0.620297
0.532942
0.435368
0.305035
0.185892
0.138118
0.128624
0.127786
0.129326
0.134532
0.145725
0.164296
0.18852
0.215431
0.243135
0.270685
0.297946
0.324958
0.351345
0.377604
0.401138
0.423575
0.442568
0.455247
0.416187
0.245033
0.0767654
0.0791891
0.128155
1.96902
1.96857
1.91033
1.76038
1.54605
1.24494
1.02197
0.923354
0.841829
0.76187
0.677699
0.595089
0.516574
0.419769
0.293007
0.194247
0.160617
0.153438
0.15165
0.152056
0.156384
0.166337
0.18301
0.205065
0.229987
0.256014
0.282369
0.308407
0.334839
0.360394
0.386369
0.409325
0.432059
0.450829
0.463279
0.424316
0.257144
0.100507
0.111975
0.146834
1.69237
1.65143
1.55744
1.41858
1.20176
0.976598
0.872455
0.837317
0.786835
0.727175
0.645663
0.573173
0.499267
0.400168
0.282565
0.209656
0.187575
0.18154
0.178661
0.17815
0.181716
0.19051
0.205388
0.225283
0.2481
0.272256
0.297233
0.321829
0.347533
0.372063
0.397626
0.419846
0.442781
0.461273
0.473439
0.43452
0.272297
0.126947
0.144215
0.169268
1.35192
1.26374
1.15732
1.01357
0.876047
0.828436
0.837728
0.812196
0.760965
0.685846
0.616662
0.553695
0.478705
0.377049
0.27808
0.230654
0.216367
0.210579
0.206764
0.20573
0.208909
0.2167
0.23006
0.248042
0.268909
0.291257
0.31488
0.338039
0.362999
0.386479
0.411613
0.433091
0.456209
0.474441
0.486394
0.44785
0.291387
0.155306
0.175482
0.192029
0.95878
0.852226
0.781476
0.791343
0.84265
0.865908
0.845629
0.791712
0.720658
0.655728
0.597288
0.535573
0.455991
0.359198
0.28745
0.25813
0.247273
0.240688
0.235896
0.234459
0.237106
0.244072
0.256065
0.272283
0.291284
0.311824
0.334029
0.355661
0.379703
0.401976
0.426481
0.447032
0.470041
0.487736
0.499179
0.460805
0.310145
0.183322
0.206148
0.219504
0.743806
0.76041
0.824936
0.892222
0.904903
0.875866
0.8203
0.756098
0.690802
0.633889
0.57842
0.513624
0.431276
0.350443
0.304753
0.2862
0.276686
0.269406
0.264262
0.262938
0.265422
0.271821
0.28283
0.297748
0.315363
0.334544
0.35578
0.376158
0.399611
0.420996
0.445098
0.464977
0.487975
0.505249
0.516445
0.479118
0.334559
0.213383
0.236439
0.244362
0.792421
0.835901
0.891269
0.916175
0.895626
0.849018
0.791186
0.728891
0.671081
0.617854
0.56138
0.493452
0.41778
0.360721
0.331767
0.317215
0.307193
0.298951
0.293403
0.291889
0.29406
0.299788
0.309701
0.323204
0.339299
0.356924
0.376961
0.395778
0.418405
0.438702
0.462147
0.481167
0.503878
0.520495
0.531138
0.494721
0.356199
0.241966
0.266037
0.272316
0.779431
0.819101
0.86998
0.890135
0.867183
0.821237
0.767472
0.707266
0.654787
0.601187
0.542024
0.475424
0.415462
0.378377
0.358378
0.345472
0.335132
0.326669
0.321315
0.320233
0.322414
0.32777
0.337023
0.349667
0.364854
0.381484
0.400797
0.418571
0.440675
0.460207
0.483149
0.501455
0.523798
0.539643
0.549694
0.514674
0.381593
0.271445
0.295366
0.298942
0.750842
0.784082
0.824214
0.85428
0.83962
0.798163
0.749153
0.691988
0.642112
0.588012
0.529766
0.473338
0.431686
0.405571
0.388391
0.375209
0.364094
0.355053
0.349622
0.348321
0.350305
0.355045
0.363366
0.374867
0.388863
0.404204
0.42254
0.439113
0.460498
0.479215
0.501575
0.519168
0.541104
0.556207
0.565679
0.532308
0.405043
0.30023
0.324114
0.326038
0.709887
0.738048
0.77389
0.823269
0.819701
0.780591
0.734235
0.679569
0.629606
0.57607
0.523345
0.479801
0.449845
0.428751
0.41329
0.400237
0.388935
0.380897
0.376142
0.37509
0.377124
0.381677
0.389679
0.400761
0.414306
0.429017
0.44692
0.462833
0.483737
0.501923
0.523801
0.540773
0.562191
0.576534
0.585307
0.553397
0.430979
0.328789
0.352143
0.351285
0.667976
0.695545
0.730096
0.799391
0.804606
0.76383
0.721405
0.669092
0.621304
0.573211
0.531389
0.498928
0.474554
0.455819
0.439996
0.425934
0.414934
0.405906
0.400346
0.399203
0.40092
0.40485
0.412052
0.422244
0.434935
0.448687
0.465927
0.480984
0.501263
0.518892
0.54023
0.556601
0.577549
0.591276
0.599404
0.568791
0.452876
0.35653
0.379602
0.3774
0.635417
0.665337
0.697263
0.781753
0.793685
0.753404
0.714521
0.663731
0.618346
0.575938
0.541742
0.513972
0.492446
0.47451
0.459334
0.446102
0.434308
0.425548
0.420586
0.419985
0.422092
0.426271
0.433708
0.444093
0.456943
0.470578
0.487808
0.502581
0.522407
0.539711
0.560518
0.576335
0.596621
0.609637
0.616941
0.587464
0.476766
0.382495
0.404723
0.399383
0.622862
0.652133
0.67738
0.765728
0.78141
0.743594
0.704481
0.655818
0.617126
0.58396
0.558136
0.534299
0.513943
0.495253
0.478578
0.464389
0.452669
0.443925
0.439002
0.438355
0.440252
0.443995
0.45094
0.460847
0.473281
0.486316
0.503104
0.517276
0.536178
0.552837
0.572922
0.588096
0.607707
0.619986
0.626307
0.597563
0.493421
0.40537
0.428193
0.421135
0.613554
0.641693
0.660722
0.743587
0.762639
0.728705
0.695666
0.654131
0.624055
0.59187
0.565773
0.542023
0.521743
0.503789
0.48857
0.47541
0.464355
0.456231
0.451758
0.451384
0.453055
0.456014
0.461998
0.470997
0.482624
0.49462
0.510682
0.524194
0.542121
0.558094
0.577455
0.591864
0.610642
0.621883
0.62687
0.598732
0.502853
0.422717
0.447459
0.437907
0.60641
0.627332
0.634697
0.712698
0.741878
0.712655
0.682746
0.642349
0.615036
0.584414
0.559864
0.535611
0.51394
0.493432
0.47405
0.456521
0.442046
0.431028
0.423992
0.42139
0.420583
0.420825
0.424474
0.431732
0.442158
0.45298
0.469109
0.482562
0.500816
0.517511
0.537671
0.552753
0.572379
0.584067
0.58982
0.566215
0.486062
0.424756
0.465185
0.4598
0.606345
0.619314
0.599357
0.65302
0.681694
0.653334
0.62373
0.580243
0.550003
0.51355
0.482606
0.450799
0.42054
0.390768
0.362686
0.337089
0.314932
0.296949
0.284215
0.277367
0.273098
0.270782
0.273777
0.282349
0.29564
0.310151
0.33103
0.349349
0.372388
0.394151
0.419054
0.440652
0.465309
0.483553
0.497197
0.4875
0.43666
0.406796
0.473925
0.474321
0.654761
0.652648
0.56694
0.555715
0.558813
0.524306
0.492521
0.44609
0.409318
0.367944
0.330892
0.29388
0.258941
0.225597
0.194897
0.167023
0.142659
0.123276
0.111105
0.107385
0.108221
0.113065
0.125054
0.143416
0.166144
0.190014
0.217704
0.243846
0.272008
0.299489
0.327785
0.355395
0.382194
0.406701
0.426883
0.433252
0.414424
0.432738
0.546755
0.558953
1.11238
0.801156
0.603756
0.531344
0.517947
0.486989
0.458119
0.418414
0.383572
0.345968
0.3099
0.274211
0.240215
0.207593
0.176669
0.147118
0.118808
0.0924041
0.0711846
0.0625346
0.069362
0.0886005
0.11554
0.144996
0.174696
0.203477
0.233183
0.261573
0.29048
0.318899
0.347321
0.37524
0.401747
0.427022
0.448849
0.468754
0.478525
0.547581
0.728154
1.03159
2.44323
1.11443
0.556531
0.469863
0.447705
0.419702
0.389974
0.355065
0.320522
0.2863
0.251657
0.219379
0.188771
0.160387
0.133216
0.10729
0.0827789
0.0615224
0.0475313
0.0473734
0.0641607
0.0897246
0.11734
0.145293
0.173002
0.202767
0.230765
0.260163
0.288669
0.317218
0.344469
0.372098
0.396466
0.421073
0.441034
0.464339
0.480396
0.560277
0.99116
2.37797
2.44323
1.11443
0.556531
0.469863
0.447705
0.419702
0.389974
0.355065
0.320522
0.2863
0.251657
0.219379
0.188771
0.160387
0.133216
0.10729
0.0827789
0.0615224
0.0475313
0.0473734
0.0641607
0.0897246
0.11734
0.145293
0.173002
0.202767
0.230765
0.260163
0.288669
0.317218
0.344469
0.372098
0.396466
0.421073
0.441034
0.464339
0.480396
0.560277
0.99116
2.37797
1.11238
0.801156
0.603756
0.531344
0.517947
0.486989
0.458119
0.418414
0.383572
0.345968
0.3099
0.274211
0.240215
0.207593
0.176669
0.147118
0.118808
0.0924041
0.0711846
0.0625346
0.069362
0.0886005
0.11554
0.144996
0.174696
0.203477
0.233183
0.261573
0.29048
0.318899
0.347321
0.37524
0.401747
0.427022
0.448849
0.468754
0.478525
0.547581
0.728154
1.03159
0.654761
0.652648
0.56694
0.555715
0.558813
0.524306
0.492521
0.44609
0.409318
0.367944
0.330892
0.29388
0.258941
0.225597
0.194897
0.167023
0.142659
0.123276
0.111105
0.107385
0.108221
0.113065
0.125054
0.143416
0.166144
0.190014
0.217704
0.243846
0.272008
0.299489
0.327785
0.355395
0.382194
0.406701
0.426883
0.433252
0.414424
0.432738
0.546755
0.558953
0.606345
0.619314
0.599357
0.65302
0.681694
0.653334
0.62373
0.580243
0.550003
0.51355
0.482606
0.450799
0.42054
0.390768
0.362686
0.337089
0.314932
0.296949
0.284215
0.277367
0.273098
0.270782
0.273777
0.282349
0.29564
0.310151
0.33103
0.349349
0.372388
0.394151
0.419054
0.440652
0.465309
0.483553
0.497197
0.4875
0.43666
0.406796
0.473925
0.474321
0.60641
0.627332
0.634697
0.712698
0.741878
0.712655
0.682746
0.642349
0.615036
0.584414
0.559864
0.535611
0.51394
0.493432
0.47405
0.456521
0.442046
0.431028
0.423992
0.42139
0.420583
0.420825
0.424474
0.431732
0.442158
0.45298
0.469109
0.482562
0.500816
0.517511
0.537671
0.552753
0.572379
0.584067
0.58982
0.566215
0.486062
0.424756
0.465185
0.4598
0.613554
0.641693
0.660722
0.743587
0.762639
0.728705
0.695666
0.654131
0.624055
0.59187
0.565773
0.542023
0.521743
0.503789
0.48857
0.47541
0.464355
0.456231
0.451758
0.451384
0.453055
0.456014
0.461998
0.470997
0.482624
0.49462
0.510682
0.524194
0.542121
0.558094
0.577455
0.591864
0.610642
0.621883
0.62687
0.598732
0.502853
0.422717
0.447459
0.437907
0.622862
0.652133
0.67738
0.765728
0.78141
0.743594
0.704481
0.655818
0.617126
0.58396
0.558136
0.534299
0.513943
0.495253
0.478578
0.464389
0.452669
0.443925
0.439002
0.438355
0.440252
0.443995
0.45094
0.460847
0.473281
0.486316
0.503104
0.517276
0.536178
0.552837
0.572922
0.588096
0.607707
0.619986
0.626307
0.597563
0.493421
0.40537
0.428193
0.421135
0.635417
0.665337
0.697263
0.781753
0.793685
0.753404
0.714521
0.663731
0.618346
0.575938
0.541742
0.513972
0.492446
0.47451
0.459334
0.446102
0.434308
0.425548
0.420586
0.419985
0.422092
0.426271
0.433708
0.444093
0.456943
0.470578
0.487808
0.502581
0.522407
0.539711
0.560518
0.576335
0.596621
0.609637
0.616941
0.587464
0.476766
0.382495
0.404723
0.399383
0.667976
0.695545
0.730096
0.799391
0.804606
0.76383
0.721405
0.669092
0.621304
0.573211
0.531389
0.498928
0.474554
0.455819
0.439996
0.425934
0.414934
0.405906
0.400346
0.399203
0.40092
0.40485
0.412052
0.422244
0.434935
0.448687
0.465927
0.480984
0.501263
0.518892
0.54023
0.556601
0.577549
0.591276
0.599404
0.568791
0.452876
0.35653
0.379602
0.3774
0.709887
0.738048
0.77389
0.823269
0.819701
0.780591
0.734235
0.679569
0.629606
0.57607
0.523345
0.479801
0.449845
0.428751
0.41329
0.400237
0.388935
0.380897
0.376142
0.37509
0.377124
0.381677
0.389679
0.400761
0.414306
0.429017
0.44692
0.462833
0.483737
0.501923
0.523801
0.540773
0.562191
0.576534
0.585307
0.553397
0.430979
0.328789
0.352143
0.351285
0.750842
0.784082
0.824214
0.85428
0.83962
0.798163
0.749153
0.691988
0.642112
0.588012
0.529766
0.473338
0.431686
0.405571
0.388391
0.375209
0.364094
0.355053
0.349622
0.348321
0.350305
0.355045
0.363366
0.374867
0.388863
0.404204
0.42254
0.439113
0.460498
0.479215
0.501575
0.519168
0.541104
0.556207
0.565679
0.532308
0.405043
0.30023
0.324114
0.326038
0.779431
0.819101
0.86998
0.890135
0.867183
0.821237
0.767472
0.707266
0.654787
0.601187
0.542024
0.475424
0.415462
0.378377
0.358378
0.345472
0.335132
0.326669
0.321315
0.320233
0.322414
0.32777
0.337023
0.349667
0.364854
0.381484
0.400797
0.418571
0.440675
0.460207
0.483149
0.501455
0.523798
0.539643
0.549694
0.514674
0.381593
0.271445
0.295366
0.298942
0.792421
0.835901
0.891269
0.916175
0.895626
0.849018
0.791186
0.728891
0.671081
0.617854
0.56138
0.493452
0.41778
0.360721
0.331767
0.317215
0.307193
0.298951
0.293403
0.291889
0.29406
0.299788
0.309701
0.323204
0.339299
0.356924
0.376961
0.395778
0.418405
0.438702
0.462147
0.481167
0.503878
0.520495
0.531138
0.494721
0.356199
0.241966
0.266037
0.272316
0.743806
0.76041
0.824936
0.892222
0.904903
0.875866
0.8203
0.756098
0.690802
0.633889
0.57842
0.513624
0.431276
0.350443
0.304753
0.2862
0.276686
0.269406
0.264262
0.262938
0.265422
0.271821
0.28283
0.297748
0.315363
0.334544
0.35578
0.376158
0.399611
0.420996
0.445098
0.464977
0.487975
0.505249
0.516445
0.479118
0.334559
0.213383
0.236439
0.244362
0.95878
0.852226
0.781476
0.791343
0.84265
0.865908
0.845629
0.791712
0.720658
0.655728
0.597288
0.535573
0.455991
0.359198
0.28745
0.25813
0.247273
0.240688
0.235896
0.234459
0.237106
0.244072
0.256065
0.272283
0.291284
0.311824
0.334029
0.355661
0.379703
0.401976
0.426481
0.447032
0.470041
0.487736
0.499179
0.460805
0.310145
0.183322
0.206148
0.219504
1.35192
1.26374
1.15732
1.01357
0.876047
0.828436
0.837728
0.812196
0.760965
0.685846
0.616662
0.553695
0.478705
0.377049
0.27808
0.230654
0.216367
0.210579
0.206764
0.20573
0.208909
0.2167
0.23006
0.248042
0.268909
0.291257
0.31488
0.338039
0.362999
0.386479
0.411613
0.433091
0.456209
0.474441
0.486394
0.44785
0.291387
0.155306
0.175482
0.192029
1.69237
1.65143
1.55744
1.41858
1.20176
0.976598
0.872455
0.837317
0.786835
0.727175
0.645663
0.573173
0.499267
0.400168
0.282565
0.209656
0.187575
0.18154
0.178661
0.17815
0.181716
0.19051
0.205388
0.225283
0.2481
0.272256
0.297233
0.321829
0.347533
0.372063
0.397626
0.419846
0.442781
0.461273
0.473439
0.43452
0.272297
0.126947
0.144215
0.169268
1.96902
1.96857
1.91033
1.76038
1.54605
1.24494
1.02197
0.923354
0.841829
0.76187
0.677699
0.595089
0.516574
0.419769
0.293007
0.194247
0.160617
0.153438
0.15165
0.152056
0.156384
0.166337
0.18301
0.205065
0.229987
0.256014
0.282369
0.308407
0.334839
0.360394
0.386369
0.409325
0.432059
0.450829
0.463279
0.424316
0.257144
0.100507
0.111975
0.146834
2.08781
2.10053
2.10226
2.0179
1.84701
1.49588
1.18811
1.04294
0.93525
0.82376
0.718713
0.620297
0.532942
0.435368
0.305035
0.185892
0.138118
0.128624
0.127786
0.129326
0.134532
0.145725
0.164296
0.18852
0.215431
0.243135
0.270685
0.297946
0.324958
0.351345
0.377604
0.401138
0.423575
0.442568
0.455247
0.416187
0.245033
0.0767654
0.0791891
0.128155
2.09898
2.11317
2.1502
2.23111
2.14949
1.76698
1.28677
1.16321
1.04187
0.897453
0.764705
0.648375
0.548861
0.446775
0.313879
0.182117
0.122052
0.109784
0.109634
0.112381
0.118367
0.130668
0.150924
0.176962
0.205428
0.234373
0.262774
0.290892
0.318285
0.345229
0.371633
0.395524
0.417656
0.43675
0.449592
0.410397
0.236338
0.0574868
0.045765
0.115128
)
;

boundaryField
{
    inlet
    {
        type            calculated;
        value           uniform 0;
    }
    outlet
    {
        type            calculated;
        value           nonuniform List<scalar> 
165
(
2.09898
2.08781
1.96902
1.69237
1.35192
0.95878
0.743806
0.792421
0.779431
0.750842
0.709887
0.667976
0.635417
0.622862
0.613554
0.60641
0.606345
0.654761
1.11238
2.44323
2.44323
1.11443
0.556531
0.469863
0.447705
0.419702
0.389974
0.355065
0.320522
0.2863
0.251657
0.219379
0.188771
0.160387
0.133216
0.10729
0.0827789
0.0615224
0.0475313
0.0473734
0.0641607
0.0897246
0.11734
0.145293
0.173002
0.202767
0.230765
0.260163
0.288669
0.317218
0.344469
0.372098
0.396466
0.421073
0.441034
0.464339
0.480396
0.560277
0.99116
2.37797
0.115128
0.128155
0.146834
0.169268
0.192029
0.219504
0.244362
0.272316
0.298942
0.326038
0.351285
0.3774
0.399383
0.421135
0.437907
0.4598
0.474321
0.558953
1.03159
2.37797
0.11376
0.112739
0.110405
0.112739
0.11376
2.37797
1.03159
0.558953
0.474321
0.4598
0.437907
0.421135
0.399383
0.3774
0.351285
0.326038
0.298942
0.272316
0.244362
0.219504
0.192029
0.169268
0.146834
0.128155
0.115128
2.44323
1.11443
0.556531
0.469863
0.447705
0.419702
0.389974
0.355065
0.320522
0.2863
0.251657
0.219379
0.188771
0.160387
0.133216
0.10729
0.0827789
0.0615224
0.0475313
0.0473734
0.0641607
0.0897246
0.11734
0.145293
0.173002
0.202767
0.230765
0.260163
0.288669
0.317218
0.344469
0.372098
0.396466
0.421073
0.441034
0.464339
0.480396
0.560277
0.99116
2.37797
2.44323
1.11238
0.654761
0.606345
0.60641
0.613554
0.622862
0.635417
0.667976
0.709887
0.750842
0.779431
0.792421
0.743806
0.95878
1.35192
1.69237
1.96902
2.08781
2.09898
)
;
    }
    obstacle
    {
        type            calculated;
        value           nonuniform List<scalar> 
40
(
0.663388
0.0317899
0.0885273
0.0868228
0.0892214
0.091703
0.0949274
0.0985638
0.100615
0.0929351
0.663388
0.0317899
0.0885273
0.0868228
0.0892214
0.091703
0.0949274
0.0985638
0.100615
0.0929351
0.100533
0.138831
0.192266
0.279199
0.424943
0.100533
0.138831
0.192266
0.279199
0.424943
0.938653
1.34248
1.59706
1.7738
1.95767
0.938653
1.34248
1.59706
1.7738
1.95767
)
;
    }
    empty
    {
        type            empty;
    }
}


// ************************************************************************* //
