/*--------------------------------*- C++ -*----------------------------------*\
| =========                 |                                                 |
| \\      /  F ield         | OpenFOAM: The Open Source CFD Toolbox           |
|  \\    /   O peration     | Version:  v1912                                 |
|   \\  /    A nd           | Website:  www.openfoam.com                      |
|    \\/     M anipulation  |                                                 |
\*---------------------------------------------------------------------------*/
FoamFile
{
    version     2.0;
    format      ascii;
    class       volScalarField;
    location    "6.9";
    object      s;
}
// * * * * * * * * * * * * * * * * * * * * * * * * * * * * * * * * * * * * * //

dimensions      [0 2 -2 0 0 0 0];


internalField   nonuniform List<scalar> 
10000
(
-7.76198e-17
2.61643e-14
-8.19452e-13
-2.93277e-11
1.232e-09
-2.77705e-08
1.35568e-06
5.84245e-06
-1.13821e-05
9.4327e-06
5.42807e-06
-3.11222e-05
6.0858e-05
-8.68554e-05
0.000102991
-0.000102606
8.98618e-05
-6.6707e-05
5.65239e-06
2.37695e-05
-7.15376e-05
0.000170415
-0.000163417
0.000265632
-0.000282872
0.000298882
-0.000371581
0.000309648
-0.000384278
0.000316715
-0.000333981
0.000302404
-0.000256135
0.000252671
-0.000174991
0.000175148
-9.99629e-05
8.84505e-05
-3.44668e-05
1.04987e-05
1.83392e-05
-4.64322e-05
5.44512e-05
-7.65283e-05
7.06191e-05
-7.97094e-05
6.648e-05
-6.07231e-05
4.56763e-05
-2.83068e-05
1.56987e-05
6.06414e-06
-1.31771e-05
3.0178e-05
-2.98172e-05
3.37331e-05
-2.52931e-05
1.14861e-05
2.97567e-06
-3.31237e-05
4.69388e-05
-8.45135e-05
8.55665e-05
-0.000114295
8.78979e-05
-8.9001e-05
2.63793e-05
7.27703e-06
-9.59085e-05
0.00013828
-0.00021304
0.00020088
-0.000202811
9.38177e-05
-6.25824e-06
-0.000125769
0.000195455
-0.000226144
0.000131435
-6.17607e-06
-0.00011222
9.19956e-05
-2.81492e-06
-1.2872e-06
2.22887e-05
1.05129e-05
9.85577e-06
6.53894e-06
2.08724e-06
-4.40904e-07
-1.46863e-06
-1.09139e-06
-2.98536e-07
5.9894e-08
1.55205e-09
-8.07431e-12
-1.0628e-11
-9.39514e-13
-2.22036e-14
-6.38287e-17
-2.57171e-14
5.36608e-12
-2.32077e-10
-2.50183e-09
2.7538e-07
-8.8176e-06
-0.000270742
-0.000189613
0.000679511
-0.000953
0.00080358
-0.000229082
-0.000636817
0.00159809
-0.00258797
0.00337122
-0.00364577
0.00460638
-0.00421691
0.00290548
-0.00472957
0.00202066
-0.00207675
0.00203263
0.00142465
0.000955385
0.00338396
-0.00194885
0.00357171
-0.0050589
0.0037768
-0.00691576
0.00481863
-0.00740675
0.00606105
-0.00713319
0.00686046
-0.00653674
0.00697338
-0.00579568
0.00639667
-0.00489903
0.005248
-0.00377222
0.00368754
-0.00241582
0.00187659
-0.000937256
-2.32058e-06
0.000511883
-0.00172141
0.00178347
-0.00303415
0.00271651
-0.0037261
0.00310542
-0.00363316
0.00272182
-0.00262779
0.00141151
-0.000649088
-0.000757734
0.00213268
-0.00333365
0.00500182
-0.00533769
0.00643911
-0.00527768
0.00453098
-0.00171598
-0.00124677
0.00493734
-0.00753817
0.00993777
-0.00815488
0.00634116
-0.00192242
-0.0040159
0.00787754
-0.00887551
0.00353281
0.00345352
-0.00287887
0.0011168
0.000498274
-3.96612e-05
0.000250083
-9.85522e-06
-0.000109709
-0.000119075
-0.000113369
-6.17704e-05
-6.64613e-06
1.64188e-05
1.58702e-08
1.35549e-08
2.26962e-09
1.65014e-10
4.306e-12
2.31625e-14
-7.12913e-13
2.05088e-10
-2.07533e-08
5.25694e-07
-7.61089e-06
0.00153837
0.0065487
-0.00299858
-0.0033043
0.00850438
-0.0106137
0.00940086
-0.00544385
0.000642264
0.00444793
-0.0119031
0.0135167
-0.0160235
0.0295059
-0.0180293
0.0217443
-0.0259577
0.016679
-0.0328036
0.00977294
-0.0258415
0.0136145
-0.00772264
0.0194892
0.00366252
0.0162463
0.00252793
0.00589946
0.00148769
-0.00278182
0.00315141
-0.00923364
0.00564526
-0.0135768
0.00908167
-0.0165468
0.0132327
-0.0199257
0.0169805
-0.0240252
0.0199585
-0.0270133
0.0225409
-0.0270106
0.0245578
-0.0240191
0.024972
-0.019645
0.0229254
-0.0153364
0.0187262
-0.0110404
0.0135115
-0.00532941
0.00788473
0.00323354
0.000936347
0.0145783
-0.00935315
0.0265882
-0.0234315
0.0353312
-0.0351931
0.035784
-0.0306048
0.0218214
3.44411e-05
-0.0100014
0.0335953
-0.0427966
0.0285993
-0.0474319
0.0272254
-0.0233073
-0.0115642
0.0597705
-0.0396927
-0.00511045
0.0153868
-0.00770795
0.0021983
0.00148276
-0.00311497
-0.00142273
-0.0011985
-0.00104203
-0.000257954
0.000373082
0.000497164
-8.60041e-05
-2.39529e-06
-1.49192e-07
-7.81561e-09
-1.84527e-10
-1.10776e-12
3.17524e-11
-4.17307e-09
-3.91849e-07
2.42803e-05
-0.00288752
-0.0280163
-0.0300715
0.0358183
-0.0163045
-0.00538383
0.0191109
-0.0240945
0.0195157
-0.00994413
0.00740288
-0.00042211
-0.0190221
0.00856593
-0.00864858
0.0374525
-0.0384207
0.00204674
0.00257551
0.0507536
0.00458042
0.0322286
-0.0156062
-0.0209002
-0.039721
-0.0236365
-0.00799655
0.0107397
-0.00850356
0.00953099
-0.0185201
0.0125639
-0.0135131
0.0179037
-0.0145094
0.0160537
-0.026424
0.0170914
-0.0318072
0.0283671
-0.0211052
0.0408052
-0.00261961
0.0392379
0.0108126
0.0193319
0.0153736
-0.00771615
0.0167239
-0.0253192
0.0208634
-0.0249052
0.026738
-0.0118458
0.0289652
-0.00124614
0.0260306
-0.00531184
0.0226621
-0.0228326
0.0288233
-0.0437064
0.0509437
-0.0540798
0.0685238
-0.0467949
0.0360808
-0.0154999
-0.0804978
0.0556467
-0.149246
0.0482077
-0.00493011
-0.0748316
0.0866516
0.0578073
-0.124375
0.00125852
0.0599092
-0.048401
0.011206
0.0360628
-0.0213429
-0.0134496
0.00607739
-0.00305009
-0.00140977
0.00261457
0.00427258
0.00300871
-0.0022354
0.000147436
4.04903e-06
1.60819e-07
3.02365e-09
1.58274e-11
1.04132e-09
-3.00918e-07
-1.75587e-06
0.00252649
0.0399135
0.116489
-0.00770658
-0.0419441
0.0348119
-0.0123394
-0.00333478
0.0132545
-0.0153042
-0.00230585
0.018253
-0.00288095
-0.00835238
-0.0311119
0.0100275
0.0169212
0.0489358
-0.00267732
-0.0306281
-0.0192968
-0.0642968
-0.0302298
0.0105465
0.13062
-0.0155149
0.0301004
-0.136735
0.0872998
-0.0645938
0.12649
-0.0616957
0.0631837
-0.0883514
0.0308421
-0.0674641
0.0591743
-0.00895292
0.0797555
0.0377958
0.0406738
0.0461829
-0.0422487
0.034412
-0.112314
0.0358343
-0.125511
0.0580859
-0.0826942
0.0762345
-0.0231286
0.0591137
0.012183
-0.000260648
0.0158463
-0.0678972
0.00861285
-0.0812199
0.0115531
-0.010284
0.0349985
0.0893931
0.0376791
0.12956
-0.0461881
0.0487166
-0.150175
-0.0638754
-0.116639
-0.0594496
0.240178
-0.138229
0.197179
-0.0753272
-0.288495
0.228829
-0.0615796
0.0251767
0.065789
-0.153223
0.100572
0.140319
-0.0569357
-0.0887733
0.0580511
0.0313118
-0.0219994
0.00628191
0.00990585
0.0085873
0.00176415
-0.0123868
0.00337425
-0.000140095
-2.57893e-06
-2.74922e-08
-6.83491e-11
1.4483e-08
-9.41783e-06
-0.000937665
-0.0179389
-0.104652
-0.0871023
0.0838156
-0.0761653
0.0742313
-0.0669945
0.0556434
-0.0459301
0.0541081
-0.0468285
0.0138147
0.0223283
-0.00733759
0.0185961
-0.0339899
0.0217398
-0.106267
0.0595553
-0.0809454
0.221224
-0.0092584
0.121534
-0.270365
-0.0505882
-0.0102239
0.145005
-0.0942246
0.0202117
-0.0130367
-0.0864522
0.130685
-0.118271
0.198774
-0.122969
0.200097
-0.163518
0.166378
-0.222461
0.135687
-0.226209
0.127685
-0.143116
0.124248
-0.0172904
0.0854587
0.0793666
-0.0112397
0.106003
-0.144432
0.0762947
-0.249486
0.0448151
-0.258248
0.0594115
-0.14544
0.109416
0.0626391
0.128743
0.261839
0.0654028
0.267613
-0.0720603
0.0782691
-0.194599
-0.0473653
-0.0713919
0.0319014
0.159035
0.0741933
0.0909301
-0.511308
0.216316
0.0619959
-0.0865842
0.319292
-0.335332
-0.123079
0.248194
0.155944
0.00299471
-0.140838
-0.130408
0.082987
0.187329
-0.0788841
-0.0473316
0.0270255
-0.00684703
-0.00124384
-0.00589245
-0.0157619
0.0111116
-0.00193472
7.89419e-05
2.14592e-07
-1.37749e-09
6.82481e-07
-1.40397e-05
-0.0040869
-0.0216293
0.0217454
-0.0602293
0.0330828
0.0196126
-0.0433944
0.0193512
0.00288971
-0.00893563
0.000458432
0.0424135
-0.11634
0.0542522
-0.0673308
0.107738
0.030646
0.0867396
0.0207861
-0.111759
-0.0511443
-0.278291
0.210966
-0.205737
0.516435
-0.252963
0.403446
-0.460267
0.202193
-0.428463
0.23476
-0.269756
0.331796
-0.0922417
0.250236
-0.010833
0.061021
-0.00796741
-0.0899802
0.00647962
-0.177878
0.0758843
-0.234457
0.175105
-0.267782
0.254156
-0.266127
0.278512
-0.211554
0.244314
-0.106961
0.164323
-0.00673757
0.0437309
0.0353781
-0.0985819
0.0491656
-0.21595
0.110898
-0.259667
0.222513
-0.167932
0.283351
0.0445258
0.186339
0.171872
-0.0324342
0.100762
-0.221376
-0.151259
-0.141974
0.00224468
-0.133878
0.427142
-0.210541
-0.432893
0.309276
-0.0325635
0.351561
-0.0164963
-0.422676
-0.166814
0.0294065
0.135005
0.230288
0.00722753
-0.183261
0.044395
-0.00847029
-0.0349075
0.00949302
0.000893381
-0.00205682
-0.00390889
0.00212472
8.42948e-05
-1.4453e-05
6.11706e-08
2.8766e-05
0.00382952
0.0609527
0.134936
-0.050091
0.049243
-0.0598192
0.0596184
-0.0224898
0.0350061
-0.0673523
0.0431814
-0.0289359
0.0529051
0.195771
-0.295892
0.233067
-0.476309
0.29396
-0.493138
0.532919
-0.184887
0.560738
-0.297341
0.12571
-0.19585
-0.0857005
-0.0537653
-0.105541
0.231079
-0.134466
0.325026
-0.227646
0.239899
-0.298122
0.134461
-0.322495
0.150057
-0.242708
0.211243
-0.116602
0.221755
-0.00862266
0.172742
0.0308242
0.0600744
0.00214062
-0.0554099
-0.0393692
-0.126015
-0.0356811
-0.175627
-0.00357299
-0.204977
0.0286436
-0.174878
0.0734798
-0.0991936
0.129429
-0.0367578
0.156335
-0.00702222
0.0949028
0.00155594
-0.0403651
0.0426907
-0.105018
0.154316
-0.0671139
0.209288
0.0583924
-0.0200606
0.0762651
-0.182626
-0.406121
0.111425
0.0140792
0.258799
0.275261
-0.504449
-0.0530859
-0.255161
-0.227973
0.456881
0.301727
0.0284114
0.0824287
-0.0617746
-0.101168
0.00699273
-0.0690936
0.0344544
0.0129221
-0.0129937
0.000631263
-0.010605
0.0248678
-0.00568565
0.000202295
-5.0892e-07
-0.000341529
-0.0196957
-0.130003
-0.00593984
0.102595
-0.0855305
0.081446
-0.0854895
0.018076
1.25237e-05
0.0668592
-0.107298
0.0493581
-0.158955
0.161376
0.203444
-0.060838
0.364401
-0.382391
0.308179
-0.876967
0.225038
-0.428785
0.549755
-0.283506
0.533263
-0.152974
0.473845
-0.117566
0.158937
-0.210672
-0.0069598
-0.215761
-0.0516529
-0.112318
0.0132151
-0.0269758
0.0719477
-0.0299472
0.102194
-0.0587659
0.0958522
-0.0890657
0.0852447
-0.0984614
0.0843922
-0.074896
0.0943457
-0.0472519
0.0707999
-0.0401291
-0.0020909
-0.0568719
-0.0942889
-0.0757578
-0.186837
-0.0552504
-0.241543
0.0325794
-0.202099
0.165594
-0.0627268
0.276151
0.0958045
0.259443
0.153453
0.0664634
0.111508
-0.157032
0.0331627
-0.109769
-0.0614213
0.0132531
0.21096
-0.201764
-0.0380984
-0.331694
-0.4433
-0.161242
-0.136486
0.709691
0.252383
0.103725
0.485777
0.0172898
-0.274977
0.112222
-0.149462
-0.227306
0.0397226
0.0723877
0.0428931
-0.0735714
0.00814816
0.0378323
0.0185008
0.00550797
-0.0137133
0.00160622
-2.14624e-05
0.00117093
0.0345985
0.0631126
-0.145008
0.124357
-0.0601109
0.064369
0.00215137
-0.0477105
0.15404
-0.388179
0.594529
-0.691861
0.673115
-0.869798
0.643891
-0.717936
0.607493
0.0161789
0.639579
-0.0831451
0.148796
-0.202917
-0.0503643
-0.413572
0.0497221
-0.106284
0.172424
-0.0422767
0.307361
0.0594883
0.296586
0.0152618
0.199314
-0.0749089
0.0610825
-0.186011
-0.0736259
-0.238664
-0.106234
-0.187648
-0.0911627
-0.0716466
-0.0621688
0.0451037
-0.00917727
0.139692
0.0388686
0.1966
0.0541887
0.205843
0.0363906
0.170577
-0.0261219
0.112623
-0.137356
0.0388886
-0.241986
-0.0532915
-0.27381
-0.150581
-0.203763
-0.219109
-0.00979819
-0.176435
0.270195
-0.0572971
0.361985
-0.0435999
0.129312
-0.120343
-0.175421
-0.339182
-0.153433
-0.0408741
-0.000356311
0.272539
0.348373
0.583006
0.123844
0.216141
-0.202916
-0.1796
0.309222
-0.295731
-0.321181
0.0890525
-0.213274
-0.0595037
0.139218
0.0252027
-0.0991932
-0.0740225
0.0930236
0.0242557
-0.0242135
-0.0306442
0.0013712
0.00219435
-7.88013e-05
-0.00173865
-0.017448
0.103539
0.155849
0.034774
0.0037043
-0.170452
0.216211
-0.290263
0.350624
-0.0839786
-0.123654
0.3697
-0.556012
0.551239
-0.498654
0.157998
-0.647418
-0.00534325
-0.0276277
0.0801356
0.15086
0.36056
0.222553
0.319266
0.216543
0.200278
-0.012039
0.133503
-0.00836807
-0.0346215
-0.0122932
-0.0566812
0.0181003
0.00278325
0.0443002
0.0558505
0.0612273
0.111385
0.0869886
0.109996
0.0796603
0.0738
0.0217609
0.0214884
-0.0526789
-0.0271816
-0.109748
-0.03168
-0.130807
0.0175084
-0.119792
0.0880406
-0.0881171
0.135671
-0.053119
0.134326
-0.0305105
0.0902375
-0.0322544
0.0210966
-0.064263
-0.0608706
-0.117485
-0.129008
-0.117633
-0.0754304
0.0327208
0.119451
0.251714
0.297124
0.35714
0.297461
0.229579
0.128596
-0.010964
-0.314107
-0.37466
-0.223266
-0.304932
0.154096
0.011353
-0.0415406
0.356322
-0.390592
-0.281107
0.258227
-0.0718855
0.0347395
0.0302684
0.026086
-0.00171543
0.0599393
0.102597
-0.0346333
-0.026898
-0.00183001
0.0132236
-0.000425936
-7.40508e-05
0.000812117
-0.0206728
-0.141997
-0.0893841
-0.124883
0.0842441
0.0692191
-0.33238
0.706809
-1.19397
1.24819
-0.911524
0.745888
-0.47563
0.331727
-0.138681
0.464753
-0.532866
0.177239
-0.526605
-0.0244388
-0.610614
-0.0616847
-0.556838
-0.0986014
-0.245281
-0.0610144
0.0577689
0.184732
0.15831
0.276412
0.187154
0.269842
0.117391
0.245357
0.00841903
0.196125
-0.0767308
0.150334
-0.155297
0.104093
-0.19297
0.0767166
-0.185547
0.0837492
-0.143465
0.114387
-0.0784189
0.144497
-0.00960592
0.157305
0.0441922
0.152743
0.0691718
0.135882
0.0626916
0.10915
0.0418608
0.0722351
0.0461833
0.0213341
0.108163
-0.0436706
0.207345
-0.136913
0.226678
-0.268582
0.0800674
-0.389272
-0.203544
-0.427457
-0.426506
-0.412406
-0.388546
-0.0466839
0.100843
0.423726
0.0860157
0.171137
-0.032171
0.154289
0.133576
-0.0978345
0.238333
-0.40073
-0.0788812
0.392971
-0.00908527
-0.0237395
0.114996
0.120791
-0.00380061
0.0365101
-0.0029165
-0.0688846
0.00252154
0.00722772
0.00668355
-0.00181292
5.92006e-06
0.000341277
0.02065
0.0463067
0.112386
0.0684363
-0.323371
0.61149
-0.482601
0.057226
0.404094
-0.718509
0.415715
-0.0819294
-0.0925573
0.158202
0.0692781
0.384312
-0.0816298
0.155628
0.111308
0.141139
-0.110944
0.321236
-0.411973
0.133272
-0.501497
-0.0221107
-0.411104
-0.162297
-0.431617
-0.168455
-0.438431
-0.126683
-0.365588
-0.0593341
-0.274455
0.00402458
-0.179438
0.0387294
-0.105098
0.0755085
-0.0471036
0.122483
-0.00160645
0.166249
0.0287136
0.191326
0.0353518
0.192953
0.0113622
0.175882
-0.0371237
0.138854
-0.0899714
0.0731018
-0.127971
-0.0285275
-0.147868
-0.162129
-0.157454
-0.296718
-0.161987
-0.36247
-0.141377
-0.278337
-0.0656159
-0.0468067
0.0669637
0.242597
0.202872
0.420253
0.281225
0.379232
0.0557201
0.167011
-0.0735597
0.283963
0.162284
-0.0908369
-0.323334
-0.195376
-0.0141364
-0.108189
0.177111
-0.251252
0.019052
0.272093
-0.276864
-0.155358
0.130436
0.0391244
-0.158335
-0.0252916
-0.041451
-0.0269322
0.0396875
0.0171769
-0.000337879
-0.00177124
4.5017e-05
-0.000567874
-0.0207081
-0.123177
-0.173988
0.231106
-0.077857
-0.939769
1.51004
-1.17965
0.779752
-0.46573
0.378371
-0.486105
0.513428
-0.478839
0.301346
0.0821376
0.0835563
0.165669
-0.00800916
0.273387
-0.0146507
0.216196
-0.208737
0.20763
-0.0164843
0.294069
0.0921801
0.355746
0.137651
0.371592
0.0808186
0.320713
0.0328255
0.179535
-0.0518915
0.0223776
-0.164252
-0.106216
-0.251843
-0.178556
-0.294209
-0.20122
-0.289103
-0.188878
-0.240674
-0.148213
-0.160598
-0.0825621
-0.0620512
-0.00372359
0.0463609
0.0667436
0.15626
0.111314
0.254629
0.13098
0.329985
0.138182
0.372787
0.135504
0.366954
0.103787
0.297396
0.0214204
0.168058
-0.121955
-0.00406543
-0.275446
-0.184381
-0.325506
-0.317864
-0.124522
-0.367603
0.0781485
-0.361998
0.20554
0.158999
0.33779
-0.193058
-0.308523
-0.176448
-0.134546
0.236683
-0.05689
0.040745
0.27461
-0.0984632
-0.0873951
0.157224
0.034698
-0.123572
0.0145593
0.00364226
0.036118
0.0217419
-0.0198169
-0.0130528
-0.00109962
9.33754e-05
0.00113148
0.0277077
0.0676707
-0.10304
-0.208971
1.35888
-0.584656
-0.269159
0.181446
0.279285
-0.523151
0.53492
-0.317123
0.212508
-0.476218
0.174001
-0.179228
0.104502
-0.279348
0.400124
-0.0820912
0.00598972
-0.139781
-0.290254
-0.100412
-0.244485
-0.212123
-0.167528
-0.201715
-0.153175
-0.139333
-0.12317
-0.00297294
-0.0646742
0.0669022
0.0493362
0.103541
0.166078
0.149122
0.249482
0.199218
0.282047
0.242715
0.272647
0.266817
0.240133
0.259185
0.197462
0.217596
0.150617
0.149801
0.10292
0.0646511
0.0539145
-0.0335636
-0.00249211
-0.143252
-0.070067
-0.254916
-0.136286
-0.340586
-0.169685
-0.358686
-0.137756
-0.273499
-0.0278927
-0.0870217
0.09794
0.146766
0.121475
0.309124
-0.0294109
0.31316
-0.180583
0.164426
-0.133159
-0.143603
0.0311883
0.270441
0.233551
-0.222005
-0.201317
-0.0475069
0.233486
0.211841
0.0857568
0.283606
-0.169782
-0.141189
0.245092
0.0441157
-0.144551
0.0300036
0.0278761
-0.00887079
-0.0696168
-0.039058
0.00062768
0.00171089
0.000109456
-0.00109239
-0.0174676
1.16939e-05
0.0763095
-0.69195
-0.558055
1.07798
-0.476309
0.145671
-0.439093
0.392595
-0.121933
0.0121392
0.218759
-0.472846
0.227911
-0.321645
0.118414
-0.166064
0.187125
-0.366379
0.024874
-0.310433
0.0719191
-0.123414
0.141183
-0.00418683
0.244578
0.0610049
0.198888
0.0881651
0.120961
0.0655113
-0.000301052
0.0120051
-0.0993013
-0.0869585
-0.167956
-0.191113
-0.222123
-0.263525
-0.259676
-0.281207
-0.273545
-0.24308
-0.255492
-0.164104
-0.196651
-0.0632241
-0.0945386
0.0431515
0.0422687
0.143289
0.195757
0.229058
0.341428
0.289482
0.449249
0.304985
0.48645
0.255052
0.428133
0.138656
0.274898
-0.0112493
0.0699903
-0.117938
-0.111815
-0.105113
-0.186752
0.0271993
-0.16409
0.109465
-0.134867
-0.0236132
-0.0865292
-0.0564128
-0.175642
-0.0136228
0.241185
0.0258729
-0.324983
-0.261545
0.0528131
0.146096
-0.0533671
0.234906
-0.188245
-0.0738211
0.226572
0.105657
-0.105692
0.0545948
0.115221
-0.0429372
-0.0131847
0.0494152
0.0228038
0.000638945
3.27439e-05
0.00134506
0.0119283
-0.00555907
0.232078
0.314759
-1.24326
0.0123613
-0.717055
0.851711
-0.516631
0.211366
-0.22617
0.357085
-0.123108
0.0709383
-0.0219198
-0.0963826
0.175938
-0.364332
0.325187
-0.339123
0.124633
-0.0780092
0.00838235
-0.0243892
0.191226
-0.0931295
0.301406
-0.200476
0.231318
-0.119834
0.170328
0.0214695
0.1625
0.124141
0.182218
0.165802
0.225222
0.164746
0.266203
0.148059
0.285899
0.123831
0.27303
0.0869819
0.226682
0.0309821
0.156424
-0.0454588
0.076795
-0.134816
0.0029463
-0.220857
-0.0506804
-0.283009
-0.0715221
-0.303476
-0.0530414
-0.27468
-0.00153444
-0.20358
0.0612805
-0.109785
0.104697
-0.0182966
0.0953146
0.0507521
0.021056
0.0875897
-0.0689443
0.125285
-0.0392773
0.162543
0.10776
0.0524198
0.0207954
-0.175532
0.0485973
-0.318861
0.274077
-0.0460539
0.102765
-0.407094
0.0125837
0.116559
0.0250727
0.0981466
-0.182151
-0.25112
0.0428904
0.0371601
-0.149052
-0.0381253
0.0365936
-0.0277704
0.102165
0.0228613
-0.00472736
-0.000462752
5.2896e-05
-0.000777518
-0.00169845
-0.0905012
-0.00620229
0.731762
-0.0469533
0.603307
0.143266
0.12752
-0.270741
0.317081
-0.384741
0.356538
-0.247387
0.0440663
-0.258264
0.0309173
-0.197409
-0.104925
0.0821583
-0.263486
0.248112
-0.293192
0.21615
0.0134113
0.135951
-0.00847904
0.0900092
-0.18697
0.212624
-0.188958
0.245321
-0.155654
0.138657
-0.153137
0.00735172
-0.171858
-0.077152
-0.195223
-0.100875
-0.200967
-0.0848042
-0.183728
-0.052801
-0.148963
-0.0162957
-0.102956
0.0232464
-0.0518103
0.0656567
-0.0023699
0.106413
0.0389161
0.137661
0.0683709
0.153681
0.0867835
0.15499
0.0990395
0.145943
0.111788
0.126922
0.132113
0.0905468
0.167002
0.029604
0.206179
-0.0533245
0.201655
-0.148748
0.102752
-0.190125
0.0401658
-0.070865
0.192037
0.0804226
0.0560819
0.00678237
-0.171619
-0.0151957
0.127415
-0.0104173
-0.157301
-0.261417
0.0561217
0.129449
0.157153
-0.00692396
-0.227088
0.155337
-0.0669262
-0.20294
0.0122953
-0.0505629
0.0836436
-0.0216352
-0.105
0.00963274
0.000797997
-0.000108479
0.000927462
0.0202831
0.0624243
-0.169352
0.699333
0.511252
-0.235276
0.257876
-0.190817
0.118104
0.0837141
-0.248518
0.347254
-0.128155
0.325479
-0.248673
0.272683
-0.165837
0.136021
0.173998
0.0554844
-0.0463612
0.00484773
0.140809
-0.135994
0.045058
-0.210152
-0.00450635
-0.0508115
0.124715
0.00736914
0.164213
-0.021921
0.156482
-0.0165585
0.160574
0.0316919
0.190754
0.088321
0.231507
0.118123
0.251343
0.108284
0.235835
0.0669357
0.192285
0.00929163
0.135045
-0.0519597
0.0749724
-0.108741
0.0175789
-0.156676
-0.03502
-0.194479
-0.0820684
-0.222701
-0.123022
-0.239633
-0.157225
-0.236237
-0.18351
-0.197002
-0.1965
-0.110187
-0.178283
0.0191188
-0.108555
0.152819
-0.0141118
0.19505
-0.032545
0.0765714
-0.142788
-0.0454775
0.0650096
-0.0565367
0.21391
-0.205246
0.0242862
-0.0666076
0.209235
0.00387789
-0.17272
0.113281
0.0241445
0.332939
0.0591401
-0.0515132
0.222057
0.00507606
-0.0188642
0.238533
-0.01982
0.0880518
-0.169068
0.0607211
0.025332
-0.00800899
-3.74609e-05
-0.000785921
-0.0140216
-0.0247948
-0.419193
-0.175039
0.402477
-0.338057
0.103455
-0.381717
0.088566
-0.0476918
-0.245684
0.206796
-0.175496
0.136946
-0.200804
0.191043
-0.134024
0.293015
-0.0322157
-0.176011
-0.0670571
-0.00933409
-0.14062
-0.135932
-0.0478037
-0.130102
0.257085
-0.0416809
0.28599
-0.0719437
0.17689
-0.103788
0.0910839
-0.10495
0.0445502
-0.0887631
0.0176126
-0.0810183
-0.00814992
-0.0935255
-0.0316549
-0.112529
-0.042481
-0.120747
-0.0351738
-0.113346
-0.0119316
-0.0947435
0.0212107
-0.0697474
0.0579718
-0.0393384
0.0930431
-0.00205695
0.120595
0.04172
0.130656
0.0855489
0.106982
0.115684
0.0327569
0.115693
-0.0930953
0.0788741
-0.235639
0.0285085
-0.314098
0.0290691
-0.23614
0.151946
-0.0303286
0.253693
0.0735866
0.085346
0.0690721
0.00515853
0.1429
0.0668361
-0.0290265
0.0374154
-0.119971
0.157541
-0.37071
0.0141307
-0.0757389
0.110328
-0.108284
-0.167941
-0.003308
0.100055
0.00573598
0.195012
-0.00182583
-0.0807033
-0.00593964
0.067149
-0.0249939
-0.00697003
0.000229658
0.00112896
0.0236838
0.0401752
-0.198899
-0.471019
0.115014
-0.502607
0.292468
-0.0407785
0.550173
-0.213083
-0.129107
-0.00497421
0.0686386
0.194914
-0.197232
0.375646
-0.0969854
0.153243
-0.222077
-0.0902024
-0.130319
-0.0603295
-0.220243
0.0429412
-0.0506236
0.220581
0.101972
0.030832
0.101329
-0.139601
0.0849763
-0.185405
0.0921781
-0.159339
0.112522
-0.118848
0.122167
-0.0967554
0.118508
-0.0949532
0.112922
-0.106794
0.10816
-0.12889
0.0973203
-0.158695
0.0733841
-0.191596
0.0337391
-0.221098
-0.0199475
-0.23953
-0.0814293
-0.237844
-0.138292
-0.205883
-0.172744
-0.1364
-0.169282
-0.034913
-0.129043
0.0692739
-0.0813555
0.123791
-0.0767252
0.0790741
-0.15079
-0.0551351
-0.265193
-0.152084
-0.232229
-0.0691841
0.00597607
-0.0178709
0.12902
-0.134067
0.126674
-0.114605
0.125898
0.0587277
0.122485
0.189426
-0.0584469
-0.00384935
0.0306848
0.155906
-0.00565564
-0.280291
-0.121959
0.0834953
-0.0735348
-0.0765417
-0.024674
-0.123291
0.0625611
-0.0661558
0.0252155
-0.000484947
0.000315746
-0.00104095
-0.00693373
0.0851944
-0.018388
-0.547627
0.137993
-0.449071
0.194918
-0.504818
0.0989228
-0.430189
0.135091
0.00893528
0.144433
-0.0462704
0.0580277
0.214111
-0.258946
0.150086
-0.307589
-0.0787199
-0.102041
-0.00533852
-0.0139429
0.158853
0.132476
0.145975
-0.0370746
-0.000829224
-0.0625429
-0.0846137
-0.0468535
-0.0872163
-0.0293501
-0.0698645
-0.0159135
-0.0704328
-0.0114489
-0.0822785
-0.0089164
-0.0896131
-0.00420348
-0.0883182
0.0022123
-0.0810707
0.00980106
-0.0703657
0.0175355
-0.0580686
0.0218818
-0.0474671
0.0169285
-0.0443045
-0.00326313
-0.0552256
-0.0407751
-0.0825077
-0.0891373
-0.116124
-0.130664
-0.129682
-0.141753
-0.0910916
-0.109467
0.00815886
-0.0506641
0.122908
-0.0165073
0.158764
-0.0626294
0.0366077
-0.14261
-0.111775
-0.0327065
-0.113607
0.142909
-0.0362736
0.123595
-0.0959211
-0.108038
0.00803924
-0.0320101
0.25262
-0.147879
-0.0195339
0.000163293
0.11941
0.154717
-0.189202
0.0176044
0.146671
0.0790152
-0.0204209
-0.0370803
-0.102799
0.0590876
0.0633713
0.0351575
-0.00327602
0.000178158
0.00113159
0.0150823
0.0657864
0.17547
-0.458146
-0.09023
-0.078115
0.304895
0.112061
0.564808
-0.277708
0.135083
-0.237009
0.286186
-0.0990238
0.0993034
-0.0650036
-0.106844
-0.0176173
-0.392246
0.103253
-0.0761762
0.140193
-0.0673341
0.181681
-0.104207
-0.0415692
-0.146783
-0.09048
-0.0828958
-0.156725
-0.00557461
-0.129511
0.0157894
-0.0454028
0.000389035
0.0182325
-0.0112003
0.0431422
-0.00130558
0.0385436
0.0247705
0.0186287
0.0548141
-0.0034702
0.0799623
-0.0187161
0.0965683
-0.0225092
0.104197
-0.0136547
0.102744
0.00568281
0.0898188
0.0288879
0.0591234
0.0449759
0.00171586
0.0431457
-0.0866984
0.0224176
-0.192169
-0.00126772
-0.273031
-0.00417621
-0.27616
0.0205298
-0.18749
0.0453585
-0.0719534
0.00637447
-0.0312912
-0.125965
0.00344761
-0.154379
0.0264762
-0.142824
0.235235
-0.0688062
0.0164304
-0.101267
-0.0429416
0.287211
0.107305
-0.082282
-0.0682889
0.0428782
0.105759
-0.241611
-0.0239732
0.151796
0.0980969
-0.0522203
-0.0480137
-0.127381
0.13824
-0.0136472
-0.0402545
-0.00673369
0.000267594
-0.00129188
-0.0106343
0.0579832
0.133276
-0.115127
0.124613
0.217423
0.22753
-0.165498
-0.208776
-0.469913
0.350474
-0.135078
0.191765
-0.123881
0.0836508
-0.0650764
-0.0345212
-0.155925
-0.0398496
0.257278
-0.020745
0.098081
-0.0868444
0.116926
-0.195936
0.074832
-0.145214
0.0710079
-0.136172
0.0135128
0.0163591
-0.0628126
0.113486
-0.0976323
0.0817226
-0.0859942
0.00110657
-0.0506442
-0.0641046
-0.01757
-0.0975053
-0.00180928
-0.106379
-0.00374938
-0.103353
-0.0144396
-0.0979713
-0.0229112
-0.0937889
-0.020761
-0.088607
-0.00374276
-0.0769402
0.0276485
-0.0547985
0.0668342
-0.0260227
0.0991871
-0.00546702
0.103204
-0.0105209
0.0621087
-0.0399984
-0.0122261
-0.0636865
-0.0680518
-0.0506851
-0.0691323
-0.00997271
-0.0870539
0.00408878
-0.196334
-0.00861331
-0.166333
0.169583
-0.310571
0.168679
0.0315116
-0.0754054
0.00504233
-0.287242
0.143757
0.157166
0.131611
-0.0378377
-0.0177248
0.277311
-0.182125
-0.0879133
0.055494
-0.0073155
0.0146339
-0.0558665
0.136355
0.0679944
-0.0464308
-0.0690842
0.0034406
0.000309453
0.0013035
0.00815862
0.0464243
0.269285
-0.0641604
0.18054
-0.00404033
-0.262051
-0.0578514
0.0178267
0.232357
0.183119
-0.419627
0.355272
-0.212082
0.125753
-0.123715
-0.068648
-0.0523041
0.155641
0.0548209
-0.163572
0.0108147
-0.125234
0.071841
-0.169726
0.0445127
-0.16146
-0.0333073
-0.19651
0.0696924
-0.185602
0.0267025
-0.123475
-0.0890477
-0.0624381
-0.125872
-0.0248797
-0.0834394
-0.0146722
-0.0188027
-0.0258465
0.0313201
-0.0463594
0.0576177
-0.0658014
0.0640642
-0.0801382
0.0573265
-0.090553
0.043128
-0.0994901
0.0272434
-0.107291
0.0179819
-0.110926
0.0263062
-0.105494
0.0593061
-0.0892907
0.107067
-0.0715836
0.136518
-0.0741216
0.11636
-0.105399
0.0659415
-0.108135
0.0517061
0.0017671
0.07785
0.0863125
-0.0286558
-0.0568007
-0.309517
0.16159
-0.171654
-0.071368
0.167959
-0.00604585
0.0333594
-0.157751
-0.0651634
0.0636223
0.174317
0.0237581
-0.0667781
0.117941
0.0565215
-0.0487193
0.123981
-0.0311139
0.084622
0.0522833
0.0728725
3.70516e-05
0.000120875
0.00939533
-0.00751545
0.000138982
-0.00150073
-0.00666595
0.0308382
0.292366
-0.063204
-0.0504733
0.261576
-0.0763057
0.0903988
-0.0427553
0.0587842
-0.163363
-0.139288
0.235859
-0.188423
0.119621
-0.226565
0.131793
0.0776434
0.131423
-0.119577
-0.0589914
0.0701253
-0.0238957
0.0952726
-0.199907
0.0511057
-0.231845
-0.0416457
-0.0455385
-0.0392832
-0.0977622
-0.00111482
-0.141784
0.0103582
-0.0733715
0.0098579
0.0100739
0.0100201
0.0486986
0.0139431
0.0505122
0.0240324
0.0396053
0.0401363
0.0286455
0.0585471
0.0176771
0.0745822
0.000834885
0.084878
-0.0279045
0.0877887
-0.0706792
0.0829625
-0.121589
0.0715719
-0.162706
0.0574946
-0.166561
0.0470322
-0.116077
0.0409036
-0.0393921
0.0156541
-0.0137407
-0.073976
-0.0749877
-0.192849
-0.0932158
-0.13338
0.130678
-0.00504783
0.350587
-0.379355
0.0926551
-0.0987286
-0.12448
0.00644551
0.0795607
0.074381
-0.145637
0.00874712
-0.159447
0.200881
0.0814505
-0.0814998
0.0357355
-0.0980789
0.0585201
0.075336
-0.017133
-0.0632474
0.000992595
-0.0510046
0.0392165
-0.0292199
0.045604
-0.0152342
0.00101625
0.00123445
-0.0201681
-0.0578605
0.356238
0.323406
-0.228364
0.139396
-0.35794
0.0506558
0.021402
0.0502774
-0.159896
-0.0739229
0.327684
-0.227896
0.0104432
0.00636881
0.29924
-0.0627043
-0.0258236
-0.215449
0.0898092
0.0315048
-0.0575299
-0.0695865
-0.271209
-0.0138209
-0.315009
0.126394
-0.211302
-0.045645
-0.124514
-0.0726127
-0.0945854
0.0260863
-0.0638523
0.105892
-0.0250526
0.152282
0.0102991
0.196442
0.038751
0.249481
0.0603784
0.304631
0.0745988
0.352727
0.0809929
0.388159
0.0802515
0.407018
0.0739026
0.403421
0.0635563
0.368291
0.0502325
0.293964
0.0343297
0.186891
0.0176767
0.0835984
0.0089123
0.0471474
0.0256017
0.109994
0.0675517
0.181127
0.0549893
0.0668109
-0.0942092
-0.24114
-0.0700866
-0.29131
0.317682
0.0091646
-0.132543
0.0893071
-0.198842
-0.00653722
-0.0194044
0.175951
-0.138476
0.0857489
-0.158792
0.0195159
0.20355
0.0305828
0.0227701
-0.107879
-0.00850921
0.0636153
0.0607004
-0.0988094
-0.0290689
0.0822951
-0.0777134
0.00723182
0.00338317
0.0308917
0.00115408
-0.000646167
0.0219028
-0.0697014
-0.00187978
0.336297
-0.0822507
0.321664
-0.24649
0.297269
-0.106685
0.0883769
-0.0767538
0.171808
0.0786527
-0.342864
0.277933
0.112277
0.0915409
-0.244776
-0.0272268
0.0142992
0.25605
-0.135027
-0.0568893
-0.218047
-0.162714
-0.0420565
-0.116031
0.0658883
-0.259888
0.0763721
-0.123169
0.0541418
0.0551191
0.0814817
0.148748
0.127104
0.19055
0.161087
0.208122
0.182641
0.204835
0.197211
0.183968
0.207154
0.155539
0.213049
0.131912
0.215202
0.123148
0.213739
0.13417
0.208415
0.161928
0.198483
0.191535
0.182308
0.194362
0.156341
0.137286
0.1149
0.0144209
0.0574268
-0.107367
0.0106397
-0.0929976
0.0333825
0.115969
0.0912829
0.296547
-0.0909912
0.115684
-0.363397
-0.0693559
0.11314
0.0101211
-0.0155915
0.019553
-0.174901
-0.0194328
0.169873
-0.116888
0.0935334
-0.0809141
-0.0729398
0.0130248
0.0673329
0.118351
-0.142865
0.0787438
0.0371411
0.0570199
-0.0210652
-0.00818571
0.0379835
-0.0838964
0.0805475
-0.0113011
0.0389389
9.75145e-05
0.000174864
-0.0143095
-0.0221289
-0.0565463
0.25398
-0.274253
0.0524898
-0.23308
0.161277
-0.040802
0.115893
-0.182623
0.00783617
-0.053833
-0.0162637
0.321774
-0.0493161
-0.0199714
-0.186883
0.232631
0.0918082
-0.0682329
-0.276576
-0.1486
-0.230041
-0.0535119
-0.0251257
-0.136993
-0.0403243
-0.142452
0.145236
-0.108834
0.227303
-0.0196061
0.223796
0.0488683
0.190515
0.0772548
0.141298
0.0854454
0.0869634
0.0873837
0.0406187
0.0872086