/*--------------------------------*- C++ -*----------------------------------*\
| =========                 |                                                 |
| \\      /  F ield         | OpenFOAM: The Open Source CFD Toolbox           |
|  \\    /   O peration     | Version:  v1912                                 |
|   \\  /    A nd           | Website:  www.openfoam.com                      |
|    \\/     M anipulation  |                                                 |
\*---------------------------------------------------------------------------*/
FoamFile
{
    version     2.0;
    format      ascii;
    class       volScalarField;
    location    "7.84";
    object      Ma;
}
// * * * * * * * * * * * * * * * * * * * * * * * * * * * * * * * * * * * * * //

dimensions      [0 0 0 0 0 0 0];


internalField   nonuniform List<scalar> 
1900
(
0.439978
0.039287
0.103567
0.107724
0.110187
0.110902
0.111
0.109405
0.107867
0.0961635
0.439976
0.0392888
0.103567
0.107712
0.110142
0.110787
0.110881
0.109101
0.10869
0.108762
0.439975
0.0392898
0.103564
0.107699
0.110102
0.110681
0.110789
0.109342
0.110127
0.115438
0.439976
0.0392888
0.103567
0.107712
0.110142
0.110787
0.110881
0.109101
0.10869
0.108762
0.439978
0.039287
0.103567
0.107724
0.110187
0.110902
0.111
0.109405
0.107867
0.0961635
0.104244
0.144186
0.197641
0.284291
0.433312
0.124676
0.149956
0.181989
0.24814
0.393352
0.132269
0.155891
0.188383
0.251766
0.390501
0.124676
0.149956
0.181989
0.24814
0.393352
0.104244
0.144186
0.197641
0.284291
0.433312
0.949088
1.34051
1.6055
1.78322
1.95825
0.907315
1.33983
1.62697
1.80336
1.97811
0.902816
1.34874
1.62743
1.79783
1.9741
0.907315
1.33983
1.62697
1.80336
1.97811
0.949088
1.34051
1.6055
1.78322
1.95825
2.07345
2.16061
2.20488
2.24889
2.2848
2.33396
2.42899
2.47294
2.41746
2.02241
1.60924
1.54128
1.50487
1.42603
1.30851
1.19082
1.08264
0.975585
0.870227
0.756077
0.597528
0.391616
0.264575
0.242614
0.246266
0.252353
0.259581
0.270646
0.288367
0.311514
0.325294
0.260699
0.0194428
0.204219
0.265694
0.29282
0.312659
0.329576
0.35153
0.38705
2.04906
2.04618
2.07412
2.11756
2.16945
2.23893
2.35717
2.41389
2.35935
1.98788
1.59718
1.53639
1.49583
1.4125
1.29515
1.1851
1.09344
0.99304
0.882678
0.764621
0.603085
0.393698
0.264465
0.242243
0.245956
0.25208
0.259329
0.270446
0.288211
0.31143
0.325267
0.260656
0.0121892
0.202899
0.264124
0.290975
0.310635
0.328466
0.352398
0.389018
2.04302
2.03344
2.03361
2.0768
2.11819
2.19452
2.32389
2.38371
2.3334
1.96637
1.58915
1.53187
1.49424
1.41339
1.30154
1.19733
1.10332
1.00619
0.892138
0.762476
0.59902
0.392753
0.264493
0.242143
0.245838
0.251942
0.259159
0.270276
0.288051
0.311288
0.325136
0.260501
0.00871536
0.202608
0.263611
0.29015
0.309448
0.327054
0.351037
0.387909
2.04906
2.04618
2.07412
2.11756
2.16945
2.23893
2.35717
2.41389
2.35935
1.98788
1.59718
1.53639
1.49583
1.4125
1.29515
1.1851
1.09344
0.99304
0.882678
0.764621
0.603085
0.393698
0.264465
0.242243
0.245956
0.25208
0.259329
0.270446
0.288211
0.31143
0.325267
0.260656
0.0121892
0.202899
0.264124
0.290975
0.310635
0.328466
0.352398
0.389018
2.07345
2.16061
2.20488
2.24889
2.2848
2.33396
2.42899
2.47294
2.41746
2.02241
1.60924
1.54128
1.50487
1.42603
1.30851
1.19082
1.08264
0.975585
0.870227
0.756077
0.597528
0.391616
0.264575
0.242614
0.246266
0.252353
0.259581
0.270646
0.288367
0.311514
0.325294
0.260699
0.0194428
0.204219
0.265694
0.29282
0.312659
0.329576
0.35153
0.38705
2.41181
2.43463
2.45892
2.48013
2.48265
2.50172
2.54649
2.54272
2.44968
1.9644
1.60877
1.53583
1.49262
1.41027
1.29575
1.18811
1.0904
0.99006
0.882426
0.760139
0.594584
0.387547
0.2649
0.24442
0.248056
0.254161
0.261473
0.272534
0.290251
0.313288
0.327075
0.263027
0.0367442
0.206008
0.267147
0.294049
0.314091
0.329967
0.348609
0.381445
2.64035
2.65112
2.66098
2.6654
2.65225
2.64677
2.63688
2.55272
2.37626
1.84532
1.58502
1.48239
1.42024
1.3356
1.23596
1.14819
1.0626
0.966878
0.861351
0.741417
0.576663
0.376287
0.266628
0.24969
0.253349
0.259351
0.266924
0.27807
0.295805
0.31852
0.332338
0.269717
0.0644144
0.210819
0.270664
0.297227
0.317523
0.333068
0.349981
0.380884
2.6255
2.60467
2.59952
2.60652
2.62244
2.62856
2.61232
2.49116
2.25025
1.80698
1.59878
1.45195
1.34517
1.24763
1.16385
1.09591
1.02127
0.931524
0.832248
0.715895
0.5506
0.36103
0.270005
0.257689
0.261419
0.26723
0.275108
0.28633
0.30411
0.326368
0.340215
0.279544
0.0919537
0.218066
0.275927
0.30231
0.322916
0.338208
0.35476
0.383663
2.54449
2.55242
2.56242
2.5772
2.61252
2.59148
2.47675
2.35905
2.07966
1.76821
1.54672
1.37169
1.25471
1.16952
1.1057
1.04768
0.976499
0.892235
0.79979
0.684736
0.517444
0.345308
0.276203
0.268285
0.271891
0.277448
0.285596
0.296792
0.314569
0.336227
0.350044
0.291563
0.11939
0.228944
0.284615
0.310982
0.331699
0.346002
0.362618
0.3895
2.44731
2.45335
2.46184
2.46079
2.48305
2.43744
2.31282
2.15757
1.89799
1.64035
1.41542
1.26335
1.17277
1.10628
1.05581
0.999448
0.929576
0.850955
0.763449
0.64614
0.477908
0.331809
0.284958
0.280921
0.284393
0.289829
0.298379
0.309587
0.32743
0.3485
0.362366
0.306545
0.146158
0.239478
0.292041
0.317672
0.338004
0.350705
0.36708
0.391949
2.29556
2.29949
2.30035
2.27902
2.25459
2.18492
2.07263
1.90103
1.67085
1.43817
1.2542
1.16188
1.10304
1.05894
1.01332
0.953049
0.88397
0.810104
0.724237
0.60122
0.437746
0.325703
0.297056
0.295269
0.298179
0.303349
0.312113
0.323082
0.340778
0.361029
0.374649
0.321009
0.172426
0.255102
0.305377
0.330803
0.351321
0.362631
0.37877
0.40175
2.08186
2.08073
2.06315
2.02353
1.97391
1.89625
1.77595
1.60145
1.39841
1.20838
1.11885
1.08672
1.05707
1.02352
0.96759
0.904359
0.838109
0.7678
0.679716
0.549017
0.400828
0.325715
0.3108
0.310574
0.313368
0.318739
0.328113
0.339129
0.356941
0.376628
0.390282
0.339516
0.197952
0.267118
0.31454
0.33934
0.359905
0.369904
0.385779
0.406999
1.79395
1.78698
1.76252
1.72136
1.6622
1.57362
1.44297
1.28123
1.12426
1.06403
1.07003
1.05304
1.02618
0.976807
0.918732
0.857089
0.794206
0.725436
0.630765
0.495212
0.376992
0.333867
0.326094
0.326013
0.328458
0.333819
0.343534
0.354288
0.371889
0.390755
0.404065
0.355513
0.223218
0.284469
0.329449
0.35332
0.373532
0.382127
0.397411
0.416852
1.45025
1.45007
1.43045
1.39303
1.32529
1.22776
1.11978
1.03759
1.03078
1.05552
1.04869
1.02195
0.977751
0.925777
0.868547
0.810074
0.750992
0.679448
0.573928
0.444787
0.367351
0.346664
0.34318
0.343478
0.346464
0.352402
0.362888
0.373694
0.391227
0.409429
0.422486
0.376666
0.248948
0.298758
0.341438
0.364535
0.3846
0.391928
0.406707
0.42458
1.08341
1.08591
1.07019
1.03885
1.00381
0.981075
0.994716
1.02817
1.04593
1.04123
1.01398
0.975589
0.929904
0.877312
0.821526
0.767063
0.709481
0.630175
0.51694
0.412304
0.371465
0.362956
0.360543
0.360531
0.363651
0.369676
0.380542
0.391075
0.408191
0.425502
0.437932
0.394081
0.272935
0.315885
0.356311
0.379003
0.399413
0.405604
0.419339
0.435275
0.785682
0.815636
0.836222
0.872093
0.925079
0.979619
1.02172
1.03657
1.03051
1.0069
0.973238
0.931248
0.881634
0.828047
0.777157
0.726928
0.662932
0.563554
0.448765
0.395637
0.377668
0.370878
0.367313
0.366615
0.36959
0.375369
0.386398
0.396651
0.413416
0.430075
0.442131
0.398272
0.273911
0.309842
0.349485
0.375213
0.398459
0.408859
0.424966
0.440748
0.73364
0.770663
0.819836
0.874064
0.923255
0.966819
1.00331
1.01262
0.998269
0.968384
0.927885
0.877373
0.82059
0.766193
0.713252
0.647401
0.560192
0.466079
0.387396
0.34246
0.32413
0.311834
0.302678
0.298443
0.299424
0.304409
0.316228
0.327402
0.345415
0.363373
0.375942
0.32073
0.165763
0.223636
0.279251
0.328043
0.367354
0.396321
0.425104
0.44814
0.725223
0.747091
0.795787
0.841915
0.88692
0.930602
0.963568
0.968611
0.946304
0.902938
0.847989
0.782285
0.709769
0.632215
0.551746
0.461047
0.345799
0.232288
0.17512
0.154282
0.148063
0.149523
0.157487
0.170939
0.187355
0.206831
0.227717
0.248274
0.270863
0.295066
0.306986
0.243859
0.0524002
0.118765
0.156965
0.21935
0.275787
0.340317
0.397708
0.444263
0.698956
0.706009
0.743271
0.776026
0.807706
0.837685
0.855119
0.84318
0.79065
0.705691
0.60698
0.505679
0.41736
0.337089
0.252583
0.158522
0.0850097
0.0852949
0.113693
0.140547
0.165778
0.188817
0.209936
0.22952
0.247259
0.266458
0.282499
0.301717
0.319143
0.339937
0.346079
0.295139
0.161813
0.125025
0.0958888
0.130013
0.174032
0.250891
0.336335
0.410899
0.660646
0.640551
0.632014
0.614871
0.597755
0.570735
0.540841
0.51112
0.459414
0.387489
0.317762
0.254746
0.197162
0.127984
0.0550533
0.0530744
0.102685
0.136346
0.162717
0.18656
0.20873
0.229694
0.249004
0.266732
0.281976
0.299594
0.313306
0.331314
0.347292
0.366985
0.371506
0.332778
0.205861
0.109666
0.0392826
0.0577258
0.115628
0.194881
0.282518
0.349357
0.631295
0.567974
0.50976
0.463141
0.428502
0.384261
0.345129
0.3102
0.273982
0.230625
0.179662
0.118682
0.0528625
0.0213643
0.0773758
0.122119
0.149599
0.171088
0.191614
0.210929
0.230117
0.249553
0.268011
0.285174
0.299705
0.317308
0.330329
0.347894
0.36327
0.382526
0.388298
0.365528
0.266909
0.157581
0.079446
0.0226703
0.0979525
0.195481
0.29173
0.342643
0.611614
0.540433
0.482031
0.424975
0.366224
0.305077
0.244415
0.219202
0.207312
0.180663
0.141777
0.108663
0.0978274
0.120366
0.145956
0.162851
0.177656
0.194955
0.213691
0.231614
0.249345
0.267977
0.286493
0.303766
0.317772
0.335453
0.348197
0.365256
0.380167
0.398892
0.40738
0.394301
0.32298
0.212124
0.13835
0.107833
0.150407
0.224594
0.315572
0.346966
0.634181
0.583134
0.495626
0.41451
0.333272
0.257886
0.18612
0.164387
0.167143
0.159546
0.147107
0.150905
0.162288
0.178161
0.187141
0.195387
0.207172
0.221768
0.237078
0.250915
0.265218
0.281606
0.298973
0.315005
0.327084
0.343248
0.354593
0.370389
0.384113
0.401306
0.411728
0.410501
0.372765
0.286916
0.216502
0.206799
0.226886
0.315492
0.442919
0.455891
0.852936
0.718102
0.572776
0.457751
0.362551
0.277234
0.21564
0.212967
0.222588
0.221974
0.214219
0.214997
0.213899
0.212947
0.211251
0.214613
0.2236
0.236272
0.250454
0.264835
0.281181
0.297855
0.313545
0.32805
0.339004
0.354717
0.365745
0.380933
0.394107
0.410141
0.420893
0.428425
0.414105
0.361305
0.300329
0.299185
0.312274
0.438405
0.594133
0.727766
2.0554
0.975005
0.561189
0.467942
0.383026
0.290239
0.239547
0.244177
0.261274
0.269178
0.265919
0.265256
0.257389
0.251072
0.24921
0.254002
0.263887
0.276703
0.29033
0.303645
0.318658
0.331794
0.342429
0.352765
0.360634
0.374108
0.383142
0.396404
0.407842
0.422004
0.431622
0.443287
0.445669
0.425358
0.367236
0.349518
0.343735
0.452236
0.714757
1.79875
2.0554
0.975005
0.561189
0.467942
0.383026
0.290239
0.239547
0.244177
0.261274
0.269178
0.265919
0.265256
0.257389
0.251072
0.24921
0.254002
0.263887
0.276703
0.29033
0.303645
0.318658
0.331794
0.342429
0.352765
0.360634
0.374108
0.383142
0.396404
0.407842
0.422004
0.431622
0.443287
0.445669
0.425358
0.367236
0.349518
0.343735
0.452236
0.714757
1.79875
0.852936
0.718102
0.572776
0.457751
0.362551
0.277234
0.21564
0.212967
0.222588
0.221974
0.214219
0.214997
0.213899
0.212947
0.211251
0.214613
0.2236
0.236272
0.250454
0.264835
0.281181
0.297855
0.313545
0.32805
0.339004
0.354717
0.365745
0.380933
0.394107
0.410141
0.420893
0.428425
0.414105
0.361305
0.300329
0.299185
0.312274
0.438405
0.594133
0.727766
0.634181
0.583134
0.495626
0.41451
0.333272
0.257886
0.18612
0.164387
0.167143
0.159546
0.147107
0.150905
0.162288
0.178161
0.187141
0.195387
0.207172
0.221768
0.237078
0.250915
0.265218
0.281606
0.298973
0.315005
0.327084
0.343248
0.354593
0.370389
0.384113
0.401306
0.411728
0.410501
0.372765
0.286916
0.216502
0.206799
0.226886
0.315492
0.442919
0.455891
0.611614
0.540433
0.482031
0.424975
0.366224
0.305077
0.244415
0.219202
0.207312
0.180663
0.141777
0.108663
0.0978274
0.120366
0.145956
0.162851
0.177656
0.194955
0.213691
0.231614
0.249345
0.267977
0.286493
0.303766
0.317772
0.335453
0.348197
0.365256
0.380167
0.398892
0.40738
0.394301
0.32298
0.212124
0.13835
0.107833
0.150407
0.224594
0.315572
0.346966
0.631295
0.567974
0.50976
0.463141
0.428502
0.384261
0.345129
0.3102
0.273982
0.230625
0.179662
0.118682
0.0528625
0.0213643
0.0773758
0.122119
0.149599
0.171088
0.191614
0.210929
0.230117
0.249553
0.268011
0.285174
0.299705
0.317308
0.330329
0.347894
0.36327
0.382526
0.388298
0.365528
0.266909
0.157581
0.079446
0.0226703
0.0979525
0.195481
0.29173
0.342643
0.660646
0.640551
0.632014
0.614871
0.597755
0.570735
0.540841
0.51112
0.459414
0.387489
0.317762
0.254746
0.197162
0.127984
0.0550533
0.0530744
0.102685
0.136346
0.162717
0.18656
0.20873
0.229694
0.249004
0.266732
0.281976
0.299594
0.313306
0.331314
0.347292
0.366985
0.371506
0.332778
0.205861
0.109666
0.0392826
0.0577258
0.115628
0.194881
0.282518
0.349357
0.698956
0.706009
0.743271
0.776026
0.807706
0.837685
0.855119
0.84318
0.79065
0.705691
0.60698
0.505679
0.41736
0.337089
0.252583
0.158522
0.0850097
0.0852949
0.113693
0.140547
0.165778
0.188817
0.209936
0.22952
0.247259
0.266458
0.282499
0.301717
0.319143
0.339937
0.346079
0.295139
0.161813
0.125025
0.0958888
0.130013
0.174032
0.250891
0.336335
0.410899
0.725223
0.747091
0.795787
0.841915
0.88692
0.930602
0.963568
0.968611
0.946304
0.902938
0.847989
0.782285
0.709769
0.632215
0.551746
0.461047
0.345799
0.232288
0.17512
0.154282
0.148063
0.149523
0.157487
0.170939
0.187355
0.206831
0.227717
0.248274
0.270863
0.295066
0.306986
0.243859
0.0524002
0.118765
0.156965
0.21935
0.275787
0.340317
0.397708
0.444263
0.73364
0.770663
0.819836
0.874064
0.923255
0.966819
1.00331
1.01262
0.998269
0.968384
0.927885
0.877373
0.82059
0.766193
0.713252
0.647401
0.560192
0.466079
0.387396
0.34246
0.32413
0.311834
0.302678
0.298443
0.299424
0.304409
0.316228
0.327402
0.345415
0.363373
0.375942
0.32073
0.165763
0.223636
0.279251
0.328043
0.367354
0.396321
0.425104
0.44814
0.785682
0.815636
0.836222
0.872093
0.925079
0.979619
1.02172
1.03657
1.03051
1.0069
0.973238
0.931248
0.881634
0.828047
0.777157
0.726928
0.662932
0.563554
0.448765
0.395637
0.377668
0.370878
0.367313
0.366615
0.36959
0.375369
0.386398
0.396651
0.413416
0.430075
0.442131
0.398272
0.273911
0.309842
0.349485
0.375213
0.398459
0.408859
0.424966
0.440748
1.08341
1.08591
1.07019
1.03885
1.00381
0.981075
0.994716
1.02817
1.04593
1.04123
1.01398
0.975589
0.929904
0.877312
0.821526
0.767063
0.709481
0.630175
0.51694
0.412304
0.371465
0.362956
0.360543
0.360531
0.363651
0.369676
0.380542
0.391075
0.408191
0.425502
0.437932
0.394081
0.272935
0.315885
0.356311
0.379003
0.399413
0.405604
0.419339
0.435275
1.45025
1.45007
1.43045
1.39303
1.32529
1.22776
1.11978
1.03759
1.03078
1.05552
1.04869
1.02195
0.977751
0.925777
0.868547
0.810074
0.750992
0.679448
0.573928
0.444787
0.367351
0.346664
0.34318
0.343478
0.346464
0.352402
0.362888
0.373694
0.391227
0.409429
0.422486
0.376666
0.248948
0.298758
0.341438
0.364535
0.3846
0.391928
0.406707
0.42458
1.79395
1.78698
1.76252
1.72136
1.6622
1.57362
1.44297
1.28123
1.12426
1.06403
1.07003
1.05304
1.02618
0.976807
0.918732
0.857089
0.794206
0.725436
0.630765
0.495212
0.376992
0.333867
0.326094
0.326013
0.328458
0.333819
0.343534
0.354288
0.371889
0.390755
0.404065
0.355513
0.223218
0.284469
0.329449
0.35332
0.373532
0.382127
0.397411
0.416852
2.08186
2.08073
2.06315
2.02353
1.97391
1.89625
1.77595
1.60145
1.39841
1.20838
1.11885
1.08672
1.05707
1.02352
0.96759
0.904359
0.838109
0.7678
0.679716
0.549017
0.400828
0.325715
0.3108
0.310574
0.313368
0.318739
0.328113
0.339129
0.356941
0.376628
0.390282
0.339516
0.197952
0.267118
0.31454
0.33934
0.359905
0.369904
0.385779
0.406999
2.29556
2.29949
2.30035
2.27902
2.25459
2.18492
2.07263
1.90103
1.67085
1.43817
1.2542
1.16188
1.10304
1.05894
1.01332
0.953049
0.88397
0.810104
0.724237
0.60122
0.437746
0.325703
0.297056
0.295269
0.298179
0.303349
0.312113
0.323082
0.340778
0.361029
0.374649
0.321009
0.172426
0.255102
0.305377
0.330803
0.351321
0.362631
0.37877
0.40175
2.44731
2.45335
2.46184
2.46079
2.48305
2.43744
2.31282
2.15757
1.89799
1.64035
1.41542
1.26335
1.17277
1.10628
1.05581
0.999448
0.929576
0.850955
0.763449
0.64614
0.477908
0.331809
0.284958
0.280921
0.284393
0.289829
0.298379
0.309587
0.32743
0.3485
0.362366
0.306545
0.146158
0.239478
0.292041
0.317672
0.338004
0.350705
0.36708
0.391949
2.54449
2.55242
2.56242
2.5772
2.61252
2.59148
2.47675
2.35905
2.07966
1.76821
1.54672
1.37169
1.25471
1.16952
1.1057
1.04768
0.976499
0.892235
0.79979
0.684736
0.517444
0.345308
0.276203
0.268285
0.271891
0.277448
0.285596
0.296792
0.314569
0.336227
0.350044
0.291563
0.11939
0.228944
0.284615
0.310982
0.331699
0.346002
0.362618
0.3895
2.6255
2.60467
2.59952
2.60652
2.62244
2.62856
2.61232
2.49116
2.25025
1.80698
1.59878
1.45195
1.34517
1.24763
1.16385
1.09591
1.02127
0.931524
0.832248
0.715895
0.5506
0.36103
0.270005
0.257689
0.261419
0.26723
0.275108
0.28633
0.30411
0.326368
0.340215
0.279544
0.0919537
0.218066
0.275927
0.30231
0.322916
0.338208
0.35476
0.383663
2.64035
2.65112
2.66098
2.6654
2.65225
2.64677
2.63688
2.55272
2.37626
1.84532
1.58502
1.48239
1.42024
1.3356
1.23596
1.14819
1.0626
0.966878
0.861351
0.741417
0.576663
0.376287
0.266628
0.24969
0.253349
0.259351
0.266924
0.27807
0.295805
0.31852
0.332338
0.269717
0.0644144
0.210819
0.270664
0.297227
0.317523
0.333068
0.349981
0.380884
2.41181
2.43463
2.45892
2.48013
2.48265
2.50172
2.54649
2.54272
2.44968
1.9644
1.60877
1.53583
1.49262
1.41027
1.29575
1.18811
1.0904
0.99006
0.882426
0.760139
0.594584
0.387547
0.2649
0.24442
0.248056
0.254161
0.261473
0.272534
0.290251
0.313288
0.327075
0.263027
0.0367442
0.206008
0.267147
0.294049
0.314091
0.329967
0.348609
0.381445
)
;

boundaryField
{
    inlet
    {
        type            calculated;
        value           uniform 0;
    }
    outlet
    {
        type            calculated;
        value           nonuniform List<scalar> 
165
(
2.41181
2.64035
2.6255
2.54449
2.44731
2.29556
2.08186
1.79395
1.45025
1.08341
0.785682
0.73364
0.725223
0.698956
0.660646
0.631295
0.611614
0.634181
0.852936
2.0554
2.0554
0.975005
0.561189
0.467942
0.383026
0.290239
0.239547
0.244177
0.261274
0.269178
0.265919
0.265256
0.257389
0.251072
0.24921
0.254002
0.263887
0.276703
0.29033
0.303645
0.318658
0.331794
0.342429
0.352765
0.360634
0.374108
0.383142
0.396404
0.407842
0.422004
0.431622
0.443287
0.445669
0.425358
0.367236
0.349518
0.343735
0.452236
0.714757
1.79875
0.381445
0.380884
0.383663
0.3895
0.391949
0.40175
0.406999
0.416852
0.42458
0.435275
0.440748
0.44814
0.444263
0.410899
0.349357
0.342643
0.346966
0.455891
0.727766
1.79875
0.38705
0.389018
0.387909
0.389018
0.38705
1.79875
0.727766
0.455891
0.346966
0.342643
0.349357
0.410899
0.444263
0.44814
0.440748
0.435275
0.42458
0.416852
0.406999
0.40175
0.391949
0.3895
0.383663
0.380884
0.381445
2.0554
0.975005
0.561189
0.467942
0.383026
0.290239
0.239547
0.244177
0.261274
0.269178
0.265919
0.265256
0.257389
0.251072
0.24921
0.254002
0.263887
0.276703
0.29033
0.303645
0.318658
0.331794
0.342429
0.352765
0.360634
0.374108
0.383142
0.396404
0.407842
0.422004
0.431622
0.443287
0.445669
0.425358
0.367236
0.349518
0.343735
0.452236
0.714757
1.79875
2.0554
0.852936
0.634181
0.611614
0.631295
0.660646
0.698956
0.725223
0.73364
0.785682
1.08341
1.45025
1.79395
2.08186
2.29556
2.44731
2.54449
2.6255
2.64035
2.41181
)
;
    }
    obstacle
    {
        type            calculated;
        value           nonuniform List<scalar> 
40
(
0.439978
0.039287
0.103567
0.107724
0.110187
0.110902
0.111
0.109405
0.107815
0.0954225
0.439978
0.039287
0.103567
0.107724
0.110187
0.110902
0.111
0.109405
0.107815
0.0954225
0.101992
0.140866
0.194221
0.280852
0.426527
0.101992
0.140866
0.194221
0.280852
0.426527
0.938982
1.33779
1.60391
1.78176
1.95697
0.938982
1.33779
1.60391
1.78176
1.95697
)
;
    }
    empty
    {
        type            empty;
    }
}


// ************************************************************************* //
