/*--------------------------------*- C++ -*----------------------------------*\
| =========                 |                                                 |
| \\      /  F ield         | OpenFOAM: The Open Source CFD Toolbox           |
|  \\    /   O peration     | Version:  v1912                                 |
|   \\  /    A nd           | Website:  www.openfoam.com                      |
|    \\/     M anipulation  |                                                 |
\*---------------------------------------------------------------------------*/
FoamFile
{
    version     2.0;
    format      ascii;
    class       volVectorField;
    location    "6.46";
    object      grad(rho);
}
// * * * * * * * * * * * * * * * * * * * * * * * * * * * * * * * * * * * * * //

dimensions      [1 -4 0 0 0 0 0];


internalField   nonuniform List<vector> 
1900
(
(104486 0.114849 0)
(-107581 0.475103 0)
(-5451.23 0.652862 0)
(-1665.6 -0.165812 0)
(-1813.41 -1.16843 0)
(-1242.59 -2.54994 0)
(-599.086 1.295 0)
(-190.508 10.0424 0)
(-12.7069 32.5178 0)
(784.866 -35.1257 0)
(104486 0.264105 0)
(-107581 0.862252 0)
(-5451.87 0.752375 0)
(-1667.42 -0.746136 0)
(-1815.79 -2.3558 0)
(-1240.13 -1.91107 0)
(-586.493 3.65649 0)
(-159.285 5.101 0)
(-57.8751 -20.3946 0)
(-209.865 -114.816 0)
(104487 1.61293e-08 0)
(-107581 2.22045e-08 0)
(-5452.83 5.34683e-09 0)
(-1668.71 1.61648e-09 0)
(-1814.57 -3.10862e-09 0)
(-1236.58 -7.33635e-09 0)
(-592.074 -1.20082e-08 0)
(-214.559 -6.25278e-09 0)
(-132.624 1.54543e-09 0)
(-340.841 1.1191e-08 0)
(104486 -0.264105 0)
(-107581 -0.862252 0)
(-5451.87 -0.752375 0)
(-1667.42 0.746136 0)
(-1815.79 2.3558 0)
(-1240.13 1.91107 0)
(-586.493 -3.65649 0)
(-159.285 -5.101 0)
(-57.8751 20.3946 0)
(-209.865 114.816 0)
(104486 -0.114849 0)
(-107581 -0.475103 0)
(-5451.23 -0.652862 0)
(-1665.6 0.165812 0)
(-1813.41 1.16843 0)
(-1242.59 2.54994 0)
(-599.086 -1.295 0)
(-190.508 -10.0424 0)
(-12.7069 -32.5178 0)
(784.866 35.1257 0)
(-265.9 -835.58 1.25641e-11)
(-2466.57 -629.742 -1.48463e-11)
(-3766.1 -660.456 -1.86022e-11)
(-4051.06 -699.976 0)
(-25906.2 -7442.62 -7.68016e-11)
(-765.206 -1011.82 1.24131e-11)
(-1804.31 -759.462 1.48463e-11)
(-3472.27 -737.394 1.86022e-11)
(-6558.97 -258.846 0)
(-24325 -6113.26 0)
(-1086.09 1.53661e-08 0)
(-1844.3 1.71598e-08 0)
(-3265.7 1.60366e-08 0)
(-6187.44 1.31881e-08 0)
(-26550.1 -6.87281e-10 0)
(-765.206 1011.82 1.24131e-11)
(-1804.31 759.462 1.48463e-11)
(-3472.27 737.394 1.86022e-11)
(-6558.97 258.846 0)
(-24325 6113.26 0)
(-265.9 835.58 -3.73902e-11)
(-2466.57 629.742 -1.48463e-11)
(-3766.1 660.456 -1.86022e-11)
(-4051.06 699.976 -4.94201e-11)
(-25906.2 7442.62 7.68016e-11)
(-43762.9 14749.5 1.77386e-11)
(-15935.7 6262.44 -1.02066e-11)
(-9448.19 3341.47 0)
(-5657.01 1799.14 4.61144e-12)
(-1466.07 2082.45 -1.79546e-12)
(-39270.5 19100.8 -9.0914e-12)
(-18390.2 5406.32 5.19762e-12)
(-10592.5 2152.34 0)
(-5888.18 836.565 -2.92231e-12)
(-2022.25 1411.48 4.75171e-13)
(-40855.4 3.31945e-09 0)
(-20227.5 8.72996e-10 0)
(-10950 1.25003e-09 0)
(-5914.57 3.77331e-10 1.179e-12)
(-1984.15 2.32433e-09 -9.50342e-13)
(-39270.5 -19100.8 -9.0914e-12)
(-18390.2 -5406.32 5.19762e-12)
(-10592.5 -2152.34 0)
(-5888.18 -836.565 -2.92231e-12)
(-2022.25 -1411.48 4.75171e-13)
(-43762.9 -14749.5 9.0914e-12)
(-15935.7 -6262.44 -1.88604e-13)
(-9448.19 -3341.47 0)
(-5657.01 -1799.14 5.41843e-14)
(-1466.07 -2082.45 1.79546e-12)
(-841.86 -2159.27 0)
(-2612.64 -2886.05 0)
(-1686.43 -2837.27 0)
(2007.28 -3716.38 0)
(5439.81 -2463.39 0)
(4480.05 395.977 0)
(1458.46 666.6 0)
(322.753 764.758 0)
(-795.829 962.673 0)
(-1626.41 733.991 0)
(-2200.24 440.631 0)
(-2664.18 283.526 0)
(-2504.46 177.503 0)
(-1602 75.6842 0)
(-814.95 22.5789 0)
(-525.348 9.69138 0)
(-446.011 8.87067 0)
(-397.572 13.1818 0)
(-325.263 5.46781 0)
(-222.059 0.036106 0)
(-130.325 -1.76894 0)
(-75.8045 -1.86677 0)
(-51.3219 -1.63966 0)
(-39.942 -1.49452 0)
(-30.4026 -1.47248 0)
(-20.0343 -1.49887 0)
(-6.99704 -1.55088 0)
(9.68181 -1.65909 0)
(26.2242 -1.6358 0)
(37.9339 -1.53987 0)
(54.2915 -1.71175 0)
(73.763 -1.33137 0)
(116.378 -1.65632 0)
(161.829 0.946333 0)
(205.394 -0.135682 0)
(361.672 0.420431 0)
(1010.86 -3.39858 0)
(2006.34 -9.01429 0)
(999.948 -0.480366 0)
(4415.39 -4.86592 0)
(-1804.23 -350.922 0)
(-2815.57 -1001.37 0)
(-1743.11 -929.483 0)
(1902.15 -1200.63 0)
(5711.18 -1392.35 0)
(4855.28 -220.065 0)
(1627.95 368.643 0)
(436.73 401.183 0)
(-797.706 440.455 0)
(-1737.45 311.218 0)
(-2289.42 183.518 0)
(-2710.26 132.714 0)
(-2531 87.2129 0)
(-1616.64 33.6691 0)
(-820.414 9.42107 0)
(-526.675 4.64299 0)
(-445.727 2.86662 0)
(-397.744 5.50237 0)
(-326.509 2.12502 0)
(-222.667 -0.138712 0)
(-130.459 -0.829089 0)
(-75.7785 -0.800553 0)
(-51.2867 -0.689443 0)
(-39.9276 -0.634498 0)
(-30.4035 -0.640034 0)
(-20.0407 -0.664823 0)
(-7.01258 -0.696796 0)
(9.66984 -0.765276 0)
(26.2311 -0.780778 0)
(37.9207 -0.764618 0)
(54.3102 -0.868445 0)
(73.7508 -0.711207 0)
(116.561 -0.935677 0)
(161.912 0.10684 0)
(205.308 -0.513514 0)
(361.482 -0.354138 0)
(1009.82 -0.8924 0)
(2006 -5.10264 0)
(1000.29 -2.71489 0)
(4415.32 -3.21207 0)
(-1630.17 -5.19181e-09 0)
(-2780.95 -3.43483e-08 0)
(-1744.39 1.66816e-08 0)
(1872.63 7.75057e-08 0)
(5725.07 -1.85185e-07 0)
(4992.34 1.4353e-07 0)
(1639.18 1.56642e-08 0)
(343.644 -1.02463e-07 0)
(-822.001 -5.14336e-08 0)
(-1701.15 1.12718e-07 0)
(-2252.17 9.44699e-08 0)
(-2692.2 8.46999e-09 0)
(-2533.28 -7.04245e-08 0)
(-1624.63 -5.57211e-08 0)
(-823.394 -3.71662e-08 0)
(-527.255 -1.48164e-08 0)
(-445.761 1.02221e-08 0)
(-397.788 -1.44854e-08 0)
(-326.904 5.53093e-09 0)
(-222.918 1.80946e-08 0)
(-130.518 1.22892e-08 0)
(-75.7638 9.0352e-09 0)
(-51.2736 9.78611e-09 0)
(-39.9276 7.47685e-09 0)
(-30.4114 4.44897e-09 0)
(-20.0508 3.01981e-09 0)
(-7.02626 2.87447e-09 0)
(9.65738 5.57938e-09 0)
(26.2244 1.09165e-08 0)
(37.9084 1.10296e-08 0)
(54.307 3.23781e-09 0)
(73.7435 -5.34522e-09 0)
(116.616 1.5745e-09 0)
(161.952 -4.98995e-09 0)
(205.26 -3.18775e-08 0)
(361.562 -2.92695e-08 0)
(1009.47 -3.43402e-08 0)
(2005.81 9.79257e-08 0)
(1000.5 2.60156e-08 0)
(4413.73 7.25642e-08 0)
(-1804.23 350.922 0)
(-2815.57 1001.37 0)
(-1743.11 929.483 0)
(1902.15 1200.63 0)
(5711.18 1392.35 0)
(4855.28 220.065 0)
(1627.95 -368.643 0)
(436.73 -401.183 0)
(-797.706 -440.455 0)
(-1737.45 -311.218 0)
(-2289.42 -183.518 0)
(-2710.26 -132.714 0)
(-2531 -87.2129 0)
(-1616.64 -33.6691 0)
(-820.414 -9.42107 0)
(-526.675 -4.64299 0)
(-445.727 -2.86662 0)
(-397.744 -5.50237 0)
(-326.509 -2.12502 0)
(-222.667 0.138712 0)
(-130.459 0.829089 0)
(-75.7785 0.800553 0)
(-51.2867 0.689443 0)
(-39.9276 0.634498 0)
(-30.4035 0.640034 0)
(-20.0407 0.664823 0)
(-7.01258 0.696796 0)
(9.66984 0.765276 0)
(26.2311 0.780778 0)
(37.9207 0.764618 0)
(54.3102 0.868445 0)
(73.7508 0.711207 0)
(116.561 0.935677 0)
(161.912 -0.10684 0)
(205.308 0.513513 0)
(361.482 0.354138 0)
(1009.82 0.8924 0)
(2006 5.10264 0)
(1000.29 2.71489 0)
(4415.32 3.21207 0)
(-841.86 2159.27 0)
(-2612.64 2886.05 0)
(-1686.43 2837.27 0)
(2007.28 3716.38 0)
(5439.81 2463.39 0)
(4480.05 -395.977 0)
(1458.46 -666.6 0)
(322.753 -764.758 0)
(-795.829 -962.673 0)
(-1626.41 -733.991 0)
(-2200.24 -440.631 0)
(-2664.18 -283.526 0)
(-2504.46 -177.503 0)
(-1602 -75.6842 0)
(-814.95 -22.5789 0)
(-525.348 -9.69138 0)
(-446.011 -8.87067 0)
(-397.572 -13.1818 0)
(-325.263 -5.46781 0)
(-222.059 -0.0361059 0)
(-130.325 1.76894 0)
(-75.8045 1.86677 0)
(-51.3219 1.63966 0)
(-39.942 1.49452 0)
(-30.4026 1.47248 0)
(-20.0343 1.49887 0)
(-6.99704 1.55088 0)
(9.68181 1.65909 0)
(26.2242 1.6358 0)
(37.9339 1.53987 0)
(54.2915 1.71175 0)
(73.763 1.33137 0)
(116.378 1.65632 0)
(161.829 -0.946333 0)
(205.394 0.135682 0)
(361.672 -0.420431 0)
(1010.86 3.39858 0)
(2006.34 9.01429 0)
(999.948 0.480366 0)
(4415.39 4.86592 0)
(-1932.49 2283.93 0)
(-2624.91 2252.19 0)
(-1287.79 3849.58 0)
(1546.08 3972.91 0)
(3445.37 2330.62 0)
(3325.77 -779.988 0)
(1592.61 -828.469 0)
(382.796 -964.111 0)
(-780.577 -1039.36 0)
(-1538.39 -827.472 0)
(-2109.98 -604.157 0)
(-2598.48 -481.696 0)
(-2431.3 -337.114 0)
(-1536.39 -142.668 0)
(-785.335 -41.0633 0)
(-519.611 -18.3082 0)
(-447.589 -19.3813 0)
(-395.808 -21.6711 0)
(-319.703 -10.6726 0)
(-218.83 -1.16827 0)
(-129.42 2.7345 0)
(-75.8297 3.24314 0)
(-51.4795 2.87762 0)
(-40.0157 2.60706 0)
(-30.402 2.56194 0)
(-19.9989 2.62371 0)
(-6.93005 2.75369 0)
(9.70927 2.94855 0)
(26.1643 2.87173 0)
(37.953 2.70981 0)
(54.201 2.91179 0)
(73.7018 2.44259 0)
(115.344 2.50581 0)
(161.053 -1.50377 0)
(205.539 -1.29033 0)
(363.31 -1.20533 0)
(1014.53 6.7719 0)
(2003.78 14.4481 0)
(998.092 0.660604 0)
(4412.13 4.17728 0)
(-1837.47 149.389 0)
(-1097.33 455.533 0)
(-242.045 2170.16 0)
(790.859 2027.35 0)
(1929.24 1219.24 0)
(2054.8 -476.735 0)
(1209.1 -974.459 0)
(87.3379 -1234.14 0)
(-672.338 -1258.77 0)
(-1254.23 -1045.62 0)
(-1915.43 -876.115 0)
(-2442.08 -760.431 0)
(-2217 -509.339 0)
(-1351.9 -199.468 0)
(-710.994 -59.284 0)
(-507.531 -32.1763 0)
(-448.406 -32.1934 0)
(-390.126 -29.1623 0)
(-308.486 -15.6384 0)
(-210.871 -2.51947 0)
(-126.56 3.93015 0)
(-75.653 5.28175 0)
(-51.8503 4.93309 0)
(-40.2067 4.54986 0)
(-30.3868 4.46999 0)
(-19.8685 4.56809 0)
(-6.71993 4.80753 0)
(9.78084 5.09326 0)
(26.0263 4.91144 0)
(37.9623 4.63852 0)
(54.0825 4.85872 0)
(73.4046 4.34478 0)
(113.13 4.13222 0)
(158.587 -1.03184 0)
(205.604 -2.43965 0)
(368.563 -0.624819 0)
(1023.97 11.1628 0)
(2001.83 19.6266 0)
(991.046 1.98392 0)
(4403.66 0.0537867 0)
(-1776.65 -28.122 0)
(-677.622 428.249 0)
(226.866 311.372 0)
(629.737 424.027 0)
(1032.35 26.3076 0)
(1211.85 -506.762 0)
(862.743 -1071.17 0)
(108.818 -1298.57 0)
(-598.91 -1214.85 0)
(-1169.65 -1126.22 0)
(-1835.17 -1075.8 0)
(-2245.04 -961.816 0)
(-1890.74 -593.946 0)
(-1102.7 -217.645 0)
(-624.127 -74.7982 0)
(-493.506 -48.5558 0)
(-444.684 -44.6506 0)
(-379.855 -35.3612 0)
(-294.029 -18.4959 0)
(-199.973 -2.5401 0)
(-121.903 5.98991 0)
(-74.8632 8.30229 0)
(-52.1848 8.14572 0)
(-40.462 7.71405 0)
(-30.3844 7.59207 0)
(-19.6737 7.70276 0)
(-6.42398 8.01638 0)
(9.8094 8.28512 0)
(25.7261 7.91709 0)
(37.9022 7.45173 0)
(53.9179 7.61765 0)
(73.0018 7.00755 0)
(110.163 6.57493 0)
(154.72 0.54039 0)
(205.931 -2.43896 0)
(376.418 0.913283 0)
(1034.05 15.4992 0)
(1994.94 23.5249 0)
(979.231 0.360351 0)
(4400.24 -2.84086 0)
(-1254.75 -558.997 0)
(-770.185 -34.2746 0)
(-246.113 -186.249 0)
(516.161 -247.131 0)
(1032.29 -352.481 0)
(997.229 -787.083 0)
(446.084 -1145.77 0)
(-51.1102 -1326.97 0)
(-506.255 -1265.02 0)
(-1120.24 -1236.95 0)
(-1757.01 -1215.82 0)
(-1977.75 -1024.67 0)
(-1499.89 -562.933 0)
(-851.634 -204.058 0)
(-548.053 -89.0361 0)
(-478.479 -64.6265 0)
(-435.691 -54.554 0)
(-364.922 -38.6962 0)
(-276.859 -18.1603 0)
(-187.275 -0.278365 0)
(-116.112 9.53985 0)
(-73.5756 12.5163 0)
(-52.4172 12.577 0)
(-40.7402 12.1555 0)
(-30.3977 11.9934 0)
(-19.4596 12.0794 0)
(-6.15874 12.3527 0)
(9.68516 12.3999 0)
(25.2232 11.7687 0)
(37.6737 11.0205 0)
(53.6544 10.929 0)
(72.3998 10.1478 0)
(106.898 9.29939 0)
(149.901 3.18296 0)
(205.963 -1.12019 0)
(385.849 2.52151 0)
(1045.76 18.2107 0)
(1987.24 26.5658 0)
(965.639 0.729673 0)
(4393.67 -1.02252 0)
(-1736.11 -680.184 0)
(-318.428 -183.074 0)
(21.7496 -117.864 0)
(469.55 -327.657 0)
(512.03 -681.701 0)
(447.409 -1102.45 0)
(342.487 -1246.3 0)
(-6.09347 -1238.96 0)
(-512.164 -1264.02 0)
(-1122.24 -1304.27 0)
(-1630.6 -1266.57 0)
(-1615.89 -947.206 0)
(-1099.96 -460.099 0)
(-646.038 -180.19 0)
(-489.766 -97.9228 0)
(-460.278 -75.4863 0)
(-419.697 -58.9271 0)
(-344.785 -37.2958 0)
(-257.009 -13.6331 0)
(-173.28 5.16307 0)
(-109.573 15.4999 0)
(-71.9365 18.8091 0)
(-52.5324 19.0399 0)
(-41.0243 18.6616 0)
(-30.4577 18.4635 0)
(-19.3275 18.4876 0)
(-6.11514 18.6004 0)
(9.24672 18.288 0)
(24.3968 17.3767 0)
(37.093 16.2979 0)
(53.0769 15.8449 0)
(71.4314 14.8451 0)
(103.451 13.6428 0)
(144.68 7.9055 0)
(205.294 3.32386 0)
(395.046 7.17653 0)
(1057.22 22.3171 0)
(1978.09 32.6652 0)
(952.646 6.63538 0)
(4389.24 6.47466 0)
(-1270.54 -542.428 0)
(-228.313 -230.389 0)
(-385.438 -467.551 0)
(-27.1731 -822.708 0)
(285.674 -1107.39 0)
(453.157 -1037.48 0)
(314.539 -1059.06 0)
(-68.1783 -1163.69 0)
(-569.188 -1248.12 0)
(-1122.7 -1303.75 0)
(-1412.94 -1174.5 0)
(-1200.6 -756.566 0)
(-760.765 -347.042 0)
(-502.627 -161.786 0)
(-447.157 -104.968 0)
(-440.902 -82.9806 0)
(-398.89 -59.6841 0)
(-321.275 -32.6267 0)
(-235.944 -6.63786 0)
(-159.202 12.566 0)
(-102.962 22.7927 0)
(-70.1644 26.2097 0)
(-52.5593 26.5802 0)
(-41.2956 26.2791 0)
(-30.5653 26.0609 0)
(-19.3277 25.9876 0)
(-6.35112 25.7816 0)
(8.50592 24.9453 0)
(23.3054 23.7354 0)
(36.1977 22.2239 0)
(52.2545 21.2702 0)
(70.2777 19.9224 0)
(100.211 18.3273 0)
(139.957 13.2066 0)
(205.261 9.03222 0)
(404.151 12.473 0)
(1070.32 25.963 0)
(1972.13 34.1998 0)
(940.401 7.82196 0)
(4375.37 8.36919 0)
(-1981.89 -696.737 0)
(-246.274 -599.099 0)
(-549.03 -797.135 0)
(-147.026 -910.416 0)
(305.067 -947.392 0)
(493.984 -836.713 0)
(220.867 -955.819 0)
(-188.273 -1097.25 0)
(-647.126 -1215.3 0)
(-1051.31 -1210.52 0)
(-1103.32 -958.925 0)
(-818.522 -543.948 0)
(-526.812 -261.222 0)
(-412.766 -146.069 0)
(-413.826 -106.751 0)
(-416.641 -83.6636 0)
(-371.174 -54.7795 0)
(-293.668 -23.6545 0)
(-213.459 3.63614 0)
(-144.92 22.8154 0)
(-96.4258 32.5296 0)
(-68.2867 35.8088 0)
(-52.4655 36.2384 0)
(-41.5247 36.012 0)
(-30.7386 35.7825 0)
(-19.5967 35.5461 0)
(-7.11954 34.7797 0)
(7.27498 33.3842 0)
(21.7744 31.9134 0)
(34.7174 29.9071 0)
(50.8592 28.3652 0)
(68.5956 26.5517 0)
(96.9795 24.5634 0)
(135.723 20.0365 0)
(204.587 16.7996 0)
(411.361 19.7089 0)
(1078.15 31.141 0)
(1960.61 36.6053 0)
(927.755 9.68663 0)
(4367.98 10.0168 0)
(-2481.54 -551.209 0)
(-325.06 -515.284 0)
(-685.434 -690.106 0)
(-171.967 -758.67 0)
(356.697 -657.726 0)
(445.036 -734.316 0)
(63.479 -911.004 0)
(-318.226 -1039.04 0)
(-678.344 -1122.31 0)
(-875.644 -1009.36 0)
(-770.6 -691.9 0)
(-528.269 -375.001 0)
(-377.354 -201.325 0)
(-353.773 -131.671 0)
(-387.02 -104.288 0)
(-390.82 -79.3196 0)
(-341.063 -45.8568 0)
(-264.984 -12.709 0)
(-191.164 14.2223 0)
(-131.359 32.4069 0)
(-90.4411 41.4295 0)
(-66.5905 44.5652 0)
(-52.3634 45.1563 0)
(-41.7349 45.1507 0)
(-31.0144 45.0184 0)
(-20.2941 44.6154 0)
(-8.43436 43.5514 0)
(5.74384 42.0472 0)
(19.9547 40.2722 0)
(32.7785 38.0247 0)
(49.0211 36.1705 0)
(66.6143 34.1986 0)
(93.9326 32.1627 0)
(132.475 28.4475 0)
(204.945 26.5377 0)
(417.971 29.5807 0)
(1086.6 38.9609 0)
(1951.45 43.5629 0)
(914.779 15.2382 0)
(4344.96 14.8273 0)
(-2960.12 -390.182 0)
(-380.12 -366.058 0)
(-783.566 -508.475 0)
(-115.823 -585.435 0)
(328.535 -438.712 0)
(249.916 -723.709 0)
(-72.776 -867.35 0)
(-391.891 -954.089 0)
(-618.525 -946.756 0)
(-636.55 -744.351 0)
(-492.029 -460.451 0)
(-345.786 -258.561 0)
(-292.33 -156.464 0)
(-319.258 -118.426 0)
(-363.378 -98.8716 0)
(-360.334 -71.3378 0)
(-306.985 -34.2289 0)
(-235.773 0.375615 0)
(-169.984 26.4829 0)
(-118.702 43.1132 0)
(-84.7096 51.2735 0)
(-64.6954 54.2435 0)
(-51.9013 54.9921 0)
(-41.6576 55.1447 0)
(-31.2545 54.981 0)
(-21.0104 54.3262 0)
(-9.59433 53.2525 0)
(4.11504 51.7655 0)
(17.8981 49.4684 0)
(30.7649 47.0447 0)
(47.1722 45.0445 0)
(64.7335 43.0775 0)
(91.4375 41.266 0)
(130.302 38.4118 0)
(205.679 37.5789 0)
(423.332 39.9726 0)
(1091.63 49.0154 0)
(1937.75 52.8887 0)
(900.064 20.0224 0)
(4318.91 20.04 0)
(-3295.72 -191.412 0)
(-439.052 -181.357 0)
(-896.834 -328.597 0)
(-104.741 -446.272 0)
(223.452 -417.044 0)
(31.9859 -685.827 0)
(-158.523 -793.687 0)
(-394.745 -820.159 0)
(-476.233 -711.843 0)
(-407.022 -489.856 0)
(-302.476 -296.816 0)
(-235.336 -180.291 0)
(-242.314 -125.541 0)
(-298.276 -107.081 0)
(-341.645 -89.3098 0)
(-328.528 -57.642 0)
(-271.957 -19.8508 0)
(-206.48 13.0098 0)
(-149.98 37.4857 0)
(-107.47 52.2292 0)
(-79.7155 59.5283 0)
(-63.0071 62.559 0)
(-51.495 63.815 0)
(-41.7456 64.4943 0)
(-31.803 64.7225 0)
(-21.9597 64.3735 0)
(-10.902 63.6615 0)
(2.09736 62.3577 0)
(15.4057 59.9302 0)
(28.5154 57.6322 0)
(45.1981 55.734 0)
(62.9732 54.0605 0)
(89.4366 52.7892 0)
(128.922 50.9767 0)
(206.449 51.221 0)
(428.992 53.4522 0)
(1099.05 63.2596 0)
(1923.52 69.0172 0)
(883.125 30.7496 0)
(4270.71 29.432 0)
(-3422.76 -54.3599 0)
(-512.316 -35.564 0)
(-1038.85 -202.315 0)
(-201.054 -349.528 0)
(97.6918 -493.713 0)
(-113.031 -604.351 0)
(-202.224 -673.45 0)
(-313.023 -615.678 0)
(-300.233 -460.85 0)
(-236.615 -299.156 0)
(-193.721 -184.731 0)
(-180.739 -120.34 0)
(-221.783 -95.9897 0)
(-284.344 -90.5292 0)
(-315.737 -73.3985 0)
(-293.401 -36.7613 0)
(-238.903 1.9053 0)
(-180.522 32.1908 0)
(-132.191 54.1415 0)
(-97.4612 66.9738 0)
(-74.7555 73.4086 0)
(-60.5647 76.2627 0)
(-50.0363 77.5807 0)
(-40.7831 78.3076 0)
(-31.3709 78.5612 0)
(-22.0328 78.3267 0)
(-11.5368 77.6899 0)
(0.519389 76.3924 0)
(13.3444 74.0058 0)
(26.7213 71.9261 0)
(43.7305 70.3049 0)
(61.8958 69.0281 0)
(88.4658 68.4365 0)
(128.791 67.6863 0)
(208.064 69.0963 0)
(434.933 72.1456 0)
(1106.62 82.9543 0)
(1906.42 86.9369 0)
(861.918 40.4631 0)
(4209.13 40.4374 0)
(-3397.01 -26.514 0)
(-581.626 11.2278 0)
(-1199.38 -140.085 0)
(-385.543 -304.511 0)
(-22.105 -524.083 0)
(-141.216 -500.591 0)
(-169.439 -479.563 0)
(-189.876 -374.061 0)
(-171.221 -253.786 0)
(-140.944 -167.224 0)
(-130.162 -104.979 0)
(-149.822 -73.4389 0)
(-213.587 -68.9046 0)
(-276.506 -66.512 0)
(-289.832 -45.9041 0)
(-255.963 -7.73245 0)
(-205.512 28.7628 0)
(-156.143 57.778 0)
(-116.462 76.9584 0)
(-88.9032 87.7943 0)
(-70.7643 93.3147 0)
(-58.9867 96.0949 0)
(-49.5245 97.536 0)
(-40.8007 98.1764 0)
(-31.7846 98.1424 0)
(-22.7993 97.5678 0)
(-12.7659 96.4775 0)
(-1.45276 94.6919 0)
(11.1018 92.0384 0)
(24.9491 90.1379 0)
(42.4055 88.7173 0)
(61.1726 87.8792 0)
(88.1435 88.0148 0)
(129.558 88.3659 0)
(210.746 91.1172 0)
(442.346 95.1787 0)
(1113.3 106.388 0)
(1882.57 103.498 0)
(838.316 46.9929 0)
(4125.95 46.9524 0)
(-3393.13 -41.9294 0)
(-621.758 -11.7939 0)
(-1343.1 -133.727 0)
(-571.089 -279.41 0)
(-91.2577 -422.908 0)
(-70.1296 -339.643 0)
(-80.2947 -264.291 0)
(-95.4565 -187.99 0)
(-100.918 -122.947 0)
(-93.2196 -74.4916 0)
(-103.346 -41.8933 0)
(-145.977 -35.9406 0)
(-215.108 -42.2587 0)
(-262.18 -30.8674 0)
(-259.095 3.06892 0)
(-221.449 42.3082 0)
(-175.775 78.134 0)
(-134.079 106.937 0)
(-103.266 125.55 0)
(-81.6996 136.028 0)
(-66.7567 140.871 0)
(-56.4969 142.193 0)
(-48.0305 141.352 0)
(-40.1987 139.282 0)
(-31.9574 136.566 0)
(-23.6371 133.723 0)
(-14.3081 130.683 0)
(-3.75831 127.467 0)
(8.956 124.014 0)
(23.521 121.982 0)
(41.5539 120.371 0)
(61.2188 119.706 0)
(88.9348 120.416 0)
(131.78 121.949 0)
(214.629 126.117 0)
(449.648 132.285 0)
(1114.64 144.102 0)
(1849.19 132.577 0)
(807.429 62.1872 0)
(4040.33 63.0593 0)
(-3414.65 -9.98142 0)
(-670.086 -7.3346 0)
(-1457.27 -101.093 0)
(-664.208 -166.113 0)
(-80.1471 -202.234 0)
(11.6327 -137.189 0)
(-23.3007 -84.7573 0)
(-53.6716 -52.792 0)
(-61.8498 -18.5724 0)
(-62.8371 7.13035 0)
(-93.0132 19.2002 0)
(-150.174 12.8012 0)
(-208.699 11.6087 0)
(-232.826 31.4299 0)
(-219.317 69.0911 0)
(-183.627 107.026 0)
(-143.233 140.548 0)
(-110.451 164.582 0)
(-88.429 179.428 0)
(-74.1397 187.363 0)
(-64.8241 190.864 0)
(-58.5231 191.636 0)
(-52.3296 190.541 0)
(-45.4126 187.955 0)
(-37.1412 184.336 0)
(-28.468 180.519 0)
(-18.7947 176.771 0)
(-7.87959 173.826 0)
(5.81604 171.399 0)
(21.4385 170.267 0)
(40.213 169.915 0)
(61.2161 170.946 0)
(90.3047 173.793 0)
(135.052 177.989 0)
(220.706 185.606 0)
(459.677 196.38 0)
(1113.58 210.317 0)
(1803.63 184.927 0)
(771.326 95.1339 0)
(3917.46 95.0705 0)
(-3387.85 68.0898 0)
(-709.557 74.9516 0)
(-1496.11 34.6098 0)
(-668.551 28.4153 0)
(-63.3861 24.9992 0)
(43.0748 48.4998 0)
(1.03349 71.3596 0)
(-31.6782 85.944 0)
(-43.1743 107.137 0)
(-56.8206 115.353 0)
(-97.8811 109.243 0)
(-153.292 96.4 0)
(-197.157 96.2497 0)
(-206.788 115.09 0)
(-186.247 143.19 0)
(-152.591 172.048 0)
(-120.312 195.033 0)
(-96.612 210.171 0)
(-81.3133 219.398 0)
(-70.68 224.926 0)
(-62.6391 228.771 0)
(-56.8078 232.118 0)
(-51.5776 235.539 0)
(-46.1782 238.999 0)
(-39.1231 242.18 0)
(-30.9266 245.607 0)
(-20.757 247.993 0)
(-8.93576 251.42 0)
(5.52583 253.985 0)
(22.0912 256.524 0)
(42.2085 259.764 0)
(64.9561 264.459 0)
(95.7214 270.637 0)
(143.164 279.163 0)
(232.352 291.397 0)
(473.46 306.77 0)
(1103.61 318.109 0)
(1738.19 260.502 0)
(720.84 139.404 0)
(3759.1 131.742 0)
(-3229.35 122.622 0)
(-702.348 182.192 0)
(-1502.11 254.467 0)
(-673.469 279.281 0)
(-60.7929 266.937 0)
(56.3072 271.885 0)
(12.7818 278.694 0)
(-19.1947 279.78 0)
(-33.5098 284.39 0)
(-60.8085 273.035 0)
(-111.277 254.264 0)
(-162.695 241.22 0)
(-190.688 244.645 0)
(-187.593 265.601 0)
(-164.431 291.209 0)
(-133.669 314.682 0)
(-106.496 332.228 0)
(-86.9724 344.666 0)
(-74.2114 354.372 0)
(-65.1073 363.452 0)
(-57.8931 373.635 0)
(-52.0008 385.353 0)
(-45.6994 398.459 0)
(-39.0132 412.853 0)
(-30.7727 427.84 0)
(-22.8668 443.4 0)
(-13.1933 456.488 0)
(-2.10545 468.701 0)
(10.7347 478.894 0)
(27.0078 489.136 0)
(47.8594 499.461 0)
(71.6932 511.11 0)
(104.474 522.712 0)
(155.057 536.71 0)
(247.31 551.725 0)
(485.418 564.849 0)
(1069 548.609 0)
(1631.43 399.401 0)
(647.249 153.325 0)
(3546.97 82.8259 0)
(-3057.99 127.081 0)
(-582.507 183.121 0)
(-1402.55 482.742 0)
(-656.534 635.358 0)
(-70.5132 645.937 0)
(54.4045 640.565 0)
(8.64104 640.973 0)
(-26.1902 635.651 0)
(-49.6731 628.592 0)
(-85.8507 612.759 0)
(-128.54 603.135 0)
(-162.561 615.574 0)
(-173.663 650.856 0)
(-161.918 701.134 0)
(-138.95 754.054 0)
(-113.064 801.024 0)
(-91.4186 840.67 0)
(-75.2733 874.315 0)
(-63.2112 903.481 0)
(-52.1177 930.92 0)
(-41.5344 961.606 0)
(-32.8864 995.566 0)
(-25.0772 1028.22 0)
(-17.8654 1057.19 0)
(-9.6873 1082.86 0)
(-3.3209 1108 0)
(3.6239 1126.76 0)
(12.6555 1146.19 0)
(25.2177 1160.79 0)
(41.9106 1177.23 0)
(63.3836 1191.89 0)
(87.362 1205.06 0)
(120.39 1212.69 0)
(171.122 1216.38 0)
(259.468 1207.08 0)
(470.457 1175.42 0)
(944.174 1049.16 0)
(1357.28 670.505 0)
(415.777 136.038 0)
(3496.63 -92.8194 0)
(-3482.79 10826.9 0)
(-359.62 -299.021 0)
(-1066.32 521.502 0)
(-516.209 930.068 0)
(-55.7756 1062.16 0)
(51.5242 1066.75 0)
(8.04654 1100.83 0)
(-31.126 1136.81 0)
(-55.5699 1170.52 0)
(-85.3392 1206.97 0)
(-108.564 1250.85 0)
(-116.71 1312.26 0)
(-108.239 1386.3 0)
(-88.1478 1466.18 0)
(-68.1731 1544.79 0)
(-50.2027 1617.78 0)
(-35.8702 1682.85 0)
(-26.4454 1740.26 0)
(-19.6647 1790.06 0)
(-9.09658 1832.6 0)
(4.40246 1871.53 0)
(12.1875 1906.63 0)
(13.6876 1934.03 0)
(13.6469 1953.62 0)
(18.1819 1966.81 0)
(19.4372 1977.32 0)
(23.6113 1978.97 0)
(30.6802 1982.2 0)
(40.6452 1979.03 0)
(56.9806 1974.59 0)
(74.6806 1964.3 0)
(91.74 1946 0)
(115.383 1917.18 0)
(149.649 1874.78 0)
(207.831 1810.8 0)
(333.235 1709.9 0)
(582.447 1440.25 0)
(751.512 845.442 0)
(-88.3182 -310.553 0)
(4219.17 7758.16 0)
(-1497.3 391072 0)
(-10513.2 7589.69 0)
(-218.156 -473.182 0)
(-135.533 14.8455 0)
(61.1944 226.769 0)
(91.6617 206.195 0)
(76.1569 231.067 0)
(40.9656 276.986 0)
(17.9367 314.176 0)
(-8.43949 367.745 0)
(-27.0835 426.12 0)
(-32.0382 496.101 0)
(-25.338 568.032 0)
(-9.18867 634.826 0)
(7.13523 693.709 0)
(19.9789 744.907 0)
(26.6152 786.983 0)
(28.0316 821.124 0)
(25.7716 848.331 0)
(26.3949 869.863 0)
(29.8019 887.699 0)
(27.3419 901.113 0)
(20.2033 909.517 0)
(13.7163 914.569 0)
(13.1493 916.349 0)
(8.40256 914.102 0)
(8.32784 908.42 0)
(12.716 900.933 0)
(17.8865 891.804 0)
(27.7125 880.212 0)
(35.8349 863.893 0)
(41.9534 844.089 0)
(51.7538 816.243 0)
(68.6136 784.175 0)
(100.581 738.874 0)
(113.384 668.999 0)
(111.155 444.631 0)
(-329.86 -40.8754 0)
(7077.13 6300.27 0)
(4703.68 324233 0)
(369050 -385861 0)
(-377667 5772.97 0)
(-8365.71 5846.76 0)
(158.289 5281.25 0)
(128.616 5008.43 0)
(55.6662 4958.23 0)
(76.2637 4815.24 0)
(48.9604 4739.11 0)
(31.8884 4704.3 0)
(22.5343 4689.41 0)
(15.1235 4706.53 0)
(20.0416 4716.57 0)
(25.4416 4721.15 0)
(32.9592 4703.45 0)
(37.9051 4667.59 0)
(39.6798 4617.19 0)
(37.5754 4561.28 0)
(32.6714 4502.89 0)
(27.3018 4445.13 0)
(28.8402 4394.44 0)
(34.5164 4352.16 0)
(33.2121 4322.4 0)
(26.6543 4303.2 0)
(20.2307 4288.09 0)
(17.7317 4278.71 0)
(11.7965 4266.43 0)
(10.9212 4262.81 0)
(14.6684 4243.87 0)
(20.6778 4224.83 0)
(30.0848 4179.95 0)
(39.8709 4124.02 0)
(45.8221 4043.24 0)
(57.6484 3962.07 0)
(75.0939 3850.46 0)
(96.844 3730.46 0)
(49.6922 3560.07 0)
(-101.614 3541.69 0)
(6394.21 4203.89 0)
(312394 5432.6 0)
(-302979 -315485 0)
(369050 385861 0)
(-377667 -5772.97 0)
(-8365.71 -5846.76 0)
(158.289 -5281.25 0)
(128.616 -5008.43 0)
(55.6662 -4958.23 0)
(76.2637 -4815.24 0)
(48.9604 -4739.11 0)
(31.8884 -4704.3 0)
(22.5343 -4689.41 0)
(15.1235 -4706.53 0)
(20.0416 -4716.57 0)
(25.4416 -4721.15 0)
(32.9592 -4703.45 0)
(37.9051 -4667.59 0)
(39.6798 -4617.19 0)
(37.5754 -4561.28 0)
(32.6714 -4502.89 0)
(27.3018 -4445.13 0)
(28.8402 -4394.44 0)
(34.5164 -4352.16 0)
(33.2121 -4322.4 0)
(26.6543 -4303.2 0)
(20.2307 -4288.09 0)
(17.7317 -4278.71 0)
(11.7965 -4266.43 0)
(10.9212 -4262.81 0)
(14.6684 -4243.87 0)
(20.6778 -4224.83 0)
(30.0848 -4179.95 0)
(39.8709 -4124.02 0)
(45.8221 -4043.24 0)
(57.6484 -3962.07 0)
(75.0939 -3850.46 0)
(96.844 -3730.46 0)
(49.6922 -3560.07 0)
(-101.614 -3541.69 0)
(6394.21 -4203.89 0)
(312394 -5432.6 0)
(-302979 315485 0)
(-1497.3 -391072 0)
(-10513.2 -7589.69 0)
(-218.156 473.182 0)
(-135.533 -14.8455 0)
(61.1944 -226.769 0)
(91.6617 -206.195 0)
(76.1569 -231.067 0)
(40.9656 -276.986 0)
(17.9367 -314.176 0)
(-8.43949 -367.745 0)
(-27.0835 -426.12 0)
(-32.0382 -496.101 0)
(-25.338 -568.032 0)
(-9.18867 -634.826 0)
(7.13523 -693.709 0)
(19.9789 -744.907 0)
(26.6152 -786.983 0)
(28.0316 -821.124 0)
(25.7716 -848.331 0)
(26.3949 -869.863 0)
(29.8019 -887.699 0)
(27.3419 -901.113 0)
(20.2033 -909.517 0)
(13.7163 -914.569 0)
(13.1493 -916.349 0)
(8.40256 -914.102 0)
(8.32784 -908.42 0)
(12.716 -900.933 0)
(17.8865 -891.804 0)
(27.7125 -880.212 0)
(35.8349 -863.893 0)
(41.9534 -844.089 0)
(51.7538 -816.243 0)
(68.6136 -784.175 0)
(100.581 -738.874 0)
(113.384 -668.999 0)
(111.155 -444.631 0)
(-329.86 40.8754 0)
(7077.13 -6300.27 0)
(4703.68 -324233 0)
(-3482.79 -10826.9 0)
(-359.62 299.021 0)
(-1066.32 -521.502 0)
(-516.209 -930.068 0)
(-55.7756 -1062.16 0)
(51.5242 -1066.75 0)
(8.04654 -1100.83 0)
(-31.126 -1136.81 0)
(-55.5699 -1170.52 0)
(-85.3392 -1206.97 0)
(-108.564 -1250.85 0)
(-116.71 -1312.26 0)
(-108.239 -1386.3 0)
(-88.1478 -1466.18 0)
(-68.1731 -1544.79 0)
(-50.2027 -1617.78 0)
(-35.8702 -1682.85 0)
(-26.4454 -1740.26 0)
(-19.6647 -1790.06 0)
(-9.09658 -1832.6 0)
(4.40246 -1871.53 0)
(12.1875 -1906.63 0)
(13.6876 -1934.03 0)
(13.6469 -1953.62 0)
(18.1819 -1966.81 0)
(19.4372 -1977.32 0)
(23.6113 -1978.97 0)
(30.6802 -1982.2 0)
(40.6452 -1979.03 0)
(56.9806 -1974.59 0)
(74.6806 -1964.3 0)
(91.74 -1946 0)
(115.383 -1917.18 0)
(149.649 -1874.78 0)
(207.831 -1810.8 0)
(333.235 -1709.9 0)
(582.447 -1440.25 0)
(751.512 -845.442 0)
(-88.3182 310.553 0)
(4219.17 -7758.16 0)
(-3057.99 -127.081 0)
(-582.507 -183.121 0)
(-1402.55 -482.742 0)
(-656.534 -635.358 0)
(-70.5132 -645.937 0)
(54.4045 -640.565 0)
(8.64104 -640.973 0)
(-26.1902 -635.651 0)
(-49.6731 -628.592 0)
(-85.8507 -612.759 0)
(-128.54 -603.135 0)
(-162.561 -615.574 0)
(-173.663 -650.856 0)
(-161.918 -701.134 0)
(-138.95 -754.054 0)
(-113.064 -801.024 0)
(-91.4186 -840.67 0)
(-75.2733 -874.315 0)
(-63.2112 -903.481 0)
(-52.1177 -930.92 0)
(-41.5344 -961.606 0)
(-32.8864 -995.566 0)
(-25.0772 -1028.22 0)
(-17.8654 -1057.19 0)
(-9.6873 -1082.86 0)
(-3.3209 -1108 0)
(3.6239 -1126.76 0)
(12.6555 -1146.19 0)
(25.2177 -1160.79 0)
(41.9106 -1177.23 0)
(63.3836 -1191.89 0)
(87.362 -1205.06 0)
(120.39 -1212.69 0)
(171.122 -1216.38 0)
(259.468 -1207.08 0)
(470.457 -1175.42 0)
(944.174 -1049.16 0)
(1357.28 -670.505 0)
(415.777 -136.038 0)
(3496.63 92.8194 0)
(-3229.35 -122.622 0)
(-702.348 -182.192 0)
(-1502.11 -254.467 0)
(-673.469 -279.281 0)
(-60.7929 -266.937 0)
(56.3072 -271.885 0)
(12.7818 -278.694 0)
(-19.1947 -279.78 0)
(-33.5098 -284.39 0)
(-60.8085 -273.035 0)
(-111.277 -254.264 0)
(-162.695 -241.22 0)
(-190.688 -244.645 0)
(-187.593 -265.601 0)
(-164.431 -291.209 0)
(-133.669 -314.682 0)
(-106.496 -332.228 0)
(-86.9724 -344.666 0)
(-74.2114 -354.372 0)
(-65.1073 -363.452 0)
(-57.8931 -373.635 0)
(-52.0008 -385.353 0)
(-45.6994 -398.459 0)
(-39.0132 -412.853 0)
(-30.7727 -427.84 0)
(-22.8668 -443.4 0)
(-13.1933 -456.488 0)
(-2.10545 -468.701 0)
(10.7347 -478.894 0)
(27.0078 -489.136 0)
(47.8594 -499.461 0)
(71.6932 -511.11 0)
(104.474 -522.712 0)
(155.057 -536.71 0)
(247.31 -551.725 0)
(485.418 -564.849 0)
(1069 -548.609 0)
(1631.43 -399.401 0)
(647.249 -153.325 0)
(3546.97 -82.8259 0)
(-3387.85 -68.0898 0)
(-709.557 -74.9516 0)
(-1496.11 -34.6098 0)
(-668.551 -28.4153 0)
(-63.3861 -24.9992 0)
(43.0748 -48.4998 0)
(1.03349 -71.3596 0)
(-31.6782 -85.944 0)
(-43.1743 -107.137 0)
(-56.8206 -115.353 0)
(-97.8811 -109.243 0)
(-153.292 -96.4 0)
(-197.157 -96.2497 0)
(-206.788 -115.09 0)
(-186.247 -143.19 0)
(-152.591 -172.048 0)
(-120.312 -195.033 0)
(-96.612 -210.171 0)
(-81.3133 -219.398 0)
(-70.68 -224.926 0)
(-62.6391 -228.771 0)
(-56.8078 -232.118 0)
(-51.5776 -235.539 0)
(-46.1782 -238.999 0)
(-39.1231 -242.18 0)
(-30.9266 -245.607 0)
(-20.757 -247.993 0)
(-8.93576 -251.42 0)
(5.52583 -253.985 0)
(22.0912 -256.524 0)
(42.2085 -259.764 0)
(64.9561 -264.459 0)
(95.7214 -270.637 0)
(143.164 -279.163 0)
(232.352 -291.397 0)
(473.46 -306.77 0)
(1103.61 -318.109 0)
(1738.19 -260.502 0)
(720.84 -139.404 0)
(3759.1 -131.742 0)
(-3414.65 9.98142 0)
(-670.086 7.3346 0)
(-1457.27 101.093 0)
(-664.208 166.113 0)
(-80.1471 202.234 0)
(11.6327 137.189 0)
(-23.3007 84.7573 0)
(-53.6716 52.792 0)
(-61.8498 18.5724 0)
(-62.8371 -7.13035 0)
(-93.0132 -19.2002 0)
(-150.174 -12.8012 0)
(-208.699 -11.6087 0)
(-232.826 -31.4299 0)
(-219.317 -69.0911 0)
(-183.627 -107.026 0)
(-143.233 -140.548 0)
(-110.451 -164.582 0)
(-88.429 -179.428 0)
(-74.1397 -187.363 0)
(-64.8241 -190.864 0)
(-58.5231 -191.636 0)
(-52.3296 -190.541 0)
(-45.4126 -187.955 0)
(-37.1412 -184.336 0)
(-28.468 -180.519 0)
(-18.7947 -176.771 0)
(-7.87959 -173.826 0)
(5.81604 -171.399 0)
(21.4385 -170.267 0)