/*--------------------------------*- C++ -*----------------------------------*\
| =========                 |                                                 |
| \\      /  F ield         | OpenFOAM: The Open Source CFD Toolbox           |
|  \\    /   O peration     | Version:  v1912                                 |
|   \\  /    A nd           | Website:  www.openfoam.com                      |
|    \\/     M anipulation  |                                                 |
\*---------------------------------------------------------------------------*/
FoamFile
{
    version     2.0;
    format      ascii;
    class       volVectorField;
    location    "6.46";
    object      U;
}
// * * * * * * * * * * * * * * * * * * * * * * * * * * * * * * * * * * * * * //

dimensions      [0 1 -1 0 0 0 0];


internalField   nonuniform List<vector> 
1900
(
(-0.790159 -1.14168e-07 0)
(-0.0565279 -1.21828e-06 0)
(0.0925887 -3.13918e-06 0)
(0.089272 -2.73391e-06 0)
(0.090497 -3.04335e-05 0)
(0.0910094 -6.19417e-05 0)
(0.0917665 -0.000137403 0)
(0.0929072 0.000294757 0)
(0.0945272 0.00302287 0)
(0.0875946 0.0116396 0)
(-0.790158 -2.67148e-07 0)
(-0.0565339 -3.82601e-06 0)
(0.0925779 -1.11491e-05 0)
(0.089265 -1.18688e-05 0)
(0.0905151 -2.54082e-05 0)
(0.0909904 -4.3164e-05 0)
(0.0916091 -0.000110849 0)
(0.0925185 0.000224843 0)
(0.0957671 0.00203256 0)
(0.0990267 0.0110057 0)
(-0.790158 1.12109e-13 0)
(-0.0565366 4.43094e-14 0)
(0.0925716 -1.05885e-14 0)
(0.0892624 1.69922e-15 0)
(0.0905229 1.01355e-13 0)
(0.0909614 1.117e-13 0)
(0.0915074 3.21227e-14 0)
(0.0926565 -3.82047e-14 0)
(0.0964382 -1.20803e-13 0)
(0.105686 -1.07581e-13 0)
(-0.790158 2.67149e-07 0)
(-0.0565339 3.82601e-06 0)
(0.0925779 1.11491e-05 0)
(0.089265 1.18688e-05 0)
(0.0905151 2.54082e-05 0)
(0.0909904 4.3164e-05 0)
(0.0916091 0.000110849 0)
(0.0925185 -0.000224843 0)
(0.0957671 -0.00203256 0)
(0.0990267 -0.0110057 0)
(-0.790159 1.14168e-07 0)
(-0.0565279 1.21828e-06 0)
(0.0925887 3.13918e-06 0)
(0.089272 2.73391e-06 0)
(0.090497 3.04335e-05 0)
(0.0910094 6.19417e-05 0)
(0.0917665 0.000137403 0)
(0.0929072 -0.000294757 0)
(0.0945272 -0.00302287 0)
(0.0875946 -0.0116396 0)
(0.0908953 0.0373314 0)
(0.127886 0.0506453 0)
(0.176227 0.0750601 0)
(0.253598 0.116935 0)
(0.39921 0.17385 0)
(0.114516 0.027091 0)
(0.141702 0.0283727 0)
(0.173436 0.0381 0)
(0.236461 0.0599607 0)
(0.378079 0.102697 0)
(0.12548 -1.19329e-13 0)
(0.150843 -1.05126e-13 0)
(0.184211 -7.12379e-14 0)
(0.247778 -6.82799e-14 0)
(0.38878 -2.50122e-14 0)
(0.114516 -0.027091 0)
(0.141702 -0.0283727 0)
(0.173436 -0.0381 0)
(0.236461 -0.0599607 0)
(0.378079 -0.102697 0)
(0.0908953 -0.0373314 0)
(0.127886 -0.0506453 0)
(0.176227 -0.0750601 0)
(0.253598 -0.116935 0)
(0.39921 -0.17385 0)
(0.849358 0.0304736 0)
(1.10517 -0.0531571 0)
(1.2616 -0.0804011 0)
(1.41352 -0.105358 0)
(1.44653 -0.0914642 0)
(0.822223 -0.0173845 0)
(1.11927 -0.0481527 0)
(1.2914 -0.0590024 0)
(1.44962 -0.0653453 0)
(1.47738 -0.062789 0)
(0.818349 -1.05592e-14 0)
(1.12339 -5.67188e-15 0)
(1.28684 -1.56329e-14 0)
(1.44048 6.9516e-14 0)
(1.46796 -1.54683e-13 0)
(0.822223 0.0173845 0)
(1.11927 0.0481527 0)
(1.2914 0.0590024 0)
(1.44962 0.0653453 0)
(1.47738 0.062789 0)
(0.849358 -0.0304736 0)
(1.10517 0.0531571 0)
(1.2616 0.0804011 0)
(1.41352 0.105358 0)
(1.44653 0.0914642 0)
(1.40534 -0.136533 0)
(1.40244 -0.149617 0)
(1.47921 -0.131415 0)
(1.46606 -0.0248866 0)
(1.28515 0.0625266 0)
(0.94484 -0.021968 0)
(0.824168 -0.0648202 0)
(0.679532 -0.0998994 0)
(0.530575 -0.102382 0)
(0.41594 -0.0760422 0)
(0.327948 -0.0514138 0)
(0.239933 -0.0351932 0)
(0.139056 -0.0248017 0)
(0.0615869 -0.0191357 0)
(0.0321618 -0.0168823 0)
(0.0253457 -0.0160488 0)
(0.0239476 -0.0155498 0)
(0.0243159 -0.0149107 0)
(0.0273263 -0.0143587 0)
(0.0355654 -0.0141626 0)
(0.0497936 -0.0141295 0)
(0.0680595 -0.0140975 0)
(0.0880735 -0.0140705 0)
(0.10854 -0.0140432 0)
(0.12893 -0.0140114 0)
(0.149169 -0.0139677 0)
(0.168999 -0.0139871 0)
(0.189191 -0.0138451 0)
(0.208477 -0.0139765 0)
(0.227611 -0.01383 0)
(0.246567 -0.0140436 0)
(0.264919 -0.0137281 0)
(0.282277 -0.0143035 0)
(0.296583 -0.0136063 0)
(0.309269 -0.0146431 0)
(0.318711 -0.0141619 0)
(0.318587 -0.0145663 0)
(0.256477 -0.0139242 0)
(0.169702 -0.0151024 0)
(0.00237195 -0.0144596 0)
(1.45485 -0.0723482 0)
(1.46316 -0.0770674 0)
(1.50236 -0.0794438 0)
(1.46378 -0.0213062 0)
(1.30228 0.045792 0)
(0.941887 -0.0125736 0)
(0.826377 -0.0299365 0)
(0.704818 -0.0485485 0)
(0.558919 -0.0511818 0)
(0.434268 -0.0375574 0)
(0.337109 -0.0250581 0)
(0.243404 -0.0174438 0)
(0.140149 -0.0124662 0)
(0.0617919 -0.00956094 0)
(0.0320423 -0.00841504 0)
(0.0251885 -0.00802112 0)
(0.0238728 -0.00777078 0)
(0.0242523 -0.00743409 0)
(0.0272402 -0.00716966 0)
(0.0355102 -0.00707382 0)
(0.0497844 -0.00706264 0)
(0.0680957 -0.00704773 0)
(0.0881561 -0.00703443 0)
(0.108667 -0.00702092 0)
(0.129099 -0.00700518 0)
(0.149375 -0.00698343 0)
(0.169239 -0.00699336 0)
(0.189465 -0.00692255 0)
(0.208781 -0.00698817 0)
(0.227943 -0.00691446 0)
(0.246928 -0.00702167 0)
(0.265303 -0.00686243 0)
(0.282678 -0.0071523 0)
(0.296973 -0.00679479 0)
(0.309698 -0.00731566 0)
(0.319117 -0.00706768 0)
(0.319107 -0.00727995 0)
(0.257012 -0.00691342 0)
(0.169734 -0.00750057 0)
(0.00186264 -0.00720434 0)
(1.43708 3.64457e-13 0)
(1.44159 -1.01738e-12 0)
(1.48168 -3.39012e-13 0)
(1.45434 6.58294e-13 0)
(1.29279 -2.46593e-11 0)
(0.941708 -3.15015e-11 0)
(0.819355 -1.03062e-11 0)
(0.692754 1.38689e-12 0)
(0.543838 -2.32034e-13 0)
(0.423111 -7.40133e-13 0)
(0.333316 1.8743e-12 0)
(0.244506 5.18523e-12 0)
(0.141611 6.26531e-12 0)
(0.0621862 7.13806e-12 0)
(0.032071 7.69582e-12 0)
(0.0251933 6.92444e-12 0)
(0.0239076 3.75007e-12 0)
(0.024298 -2.62415e-12 0)
(0.0272651 -1.09312e-11 0)
(0.0355123 -1.19785e-11 0)
(0.0497875 -7.11659e-12 0)
(0.0681072 3.05798e-12 0)
(0.0881755 7.47268e-12 0)
(0.108694 2.29429e-12 0)
(0.129131 -9.60554e-12 0)
(0.149413 -1.42821e-11 0)
(0.169285 -1.99153e-11 0)
(0.189519 -1.9198e-11 0)
(0.208846 -6.2469e-12 0)
(0.228022 -9.28624e-12 0)
(0.247026 -3.41353e-12 0)
(0.265426 1.05093e-11 0)
(0.282834 6.74848e-12 0)
(0.297169 -2.06586e-12 0)
(0.309976 1.82358e-12 0)
(0.319484 1.15853e-11 0)
(0.319674 9.41079e-12 0)
(0.257844 4.9784e-12 0)
(0.170823 1.83791e-12 0)
(0.00307111 -3.38721e-13 0)
(1.45485 0.0723482 0)
(1.46316 0.0770674 0)
(1.50236 0.0794438 0)
(1.46378 0.0213062 0)
(1.30228 -0.045792 0)
(0.941887 0.0125736 0)
(0.826377 0.0299365 0)
(0.704818 0.0485485 0)
(0.558919 0.0511818 0)
(0.434268 0.0375574 0)
(0.337109 0.0250581 0)
(0.243404 0.0174438 0)
(0.140149 0.0124662 0)
(0.0617919 0.00956094 0)
(0.0320423 0.00841504 0)
(0.0251885 0.00802112 0)
(0.0238728 0.00777078 0)
(0.0242523 0.00743409 0)
(0.0272402 0.00716966 0)
(0.0355102 0.00707382 0)
(0.0497844 0.00706264 0)
(0.0680957 0.00704773 0)
(0.0881561 0.00703443 0)
(0.108667 0.00702092 0)
(0.129099 0.00700518 0)
(0.149375 0.00698343 0)
(0.169239 0.00699336 0)
(0.189465 0.00692255 0)
(0.208781 0.00698817 0)
(0.227943 0.00691446 0)
(0.246928 0.00702167 0)
(0.265303 0.00686243 0)
(0.282678 0.0071523 0)
(0.296973 0.00679479 0)
(0.309698 0.00731566 0)
(0.319117 0.00706768 0)
(0.319107 0.00727995 0)
(0.257012 0.00691342 0)
(0.169734 0.00750057 0)
(0.00186264 0.00720434 0)
(1.40534 0.136533 0)
(1.40244 0.149617 0)
(1.47921 0.131415 0)
(1.46606 0.0248866 0)
(1.28515 -0.0625266 0)
(0.94484 0.021968 0)
(0.824168 0.0648202 0)
(0.679532 0.0998994 0)
(0.530575 0.102382 0)
(0.41594 0.0760422 0)
(0.327948 0.0514138 0)
(0.239933 0.0351932 0)
(0.139056 0.0248017 0)
(0.0615869 0.0191357 0)
(0.0321618 0.0168823 0)
(0.0253457 0.0160488 0)
(0.0239476 0.0155498 0)
(0.0243159 0.0149107 0)
(0.0273263 0.0143587 0)
(0.0355654 0.0141626 0)
(0.0497936 0.0141295 0)
(0.0680595 0.0140975 0)
(0.0880735 0.0140705 0)
(0.10854 0.0140432 0)
(0.12893 0.0140114 0)
(0.149169 0.0139677 0)
(0.168999 0.0139871 0)
(0.189191 0.0138451 0)
(0.208477 0.0139765 0)
(0.227611 0.01383 0)
(0.246567 0.0140436 0)
(0.264919 0.0137281 0)
(0.282277 0.0143035 0)
(0.296583 0.0136063 0)
(0.309269 0.0146431 0)
(0.318711 0.0141619 0)
(0.318587 0.0145663 0)
(0.256477 0.0139242 0)
(0.169702 0.0151024 0)
(0.00237195 0.0144596 0)
(1.32851 0.234594 0)
(1.33137 0.248646 0)
(1.3803 0.185904 0)
(1.34384 0.0714612 0)
(1.13461 0.014283 0)
(0.882871 0.0738414 0)
(0.738541 0.156285 0)
(0.590606 0.208803 0)
(0.469061 0.193604 0)
(0.385567 0.143877 0)
(0.314527 0.10129 0)
(0.231681 0.0723094 0)
(0.132413 0.0518798 0)
(0.0579547 0.0398171 0)
(0.0307276 0.0350968 0)
(0.0245725 0.033314 0)
(0.0231644 0.0322349 0)
(0.0236105 0.0309538 0)
(0.0270281 0.0299283 0)
(0.0355034 0.0295066 0)
(0.0498008 0.0293864 0)
(0.0680766 0.0293005 0)
(0.0880907 0.0292414 0)
(0.10856 0.0291853 0)
(0.128961 0.0291202 0)
(0.149217 0.0290316 0)
(0.16907 0.029073 0)
(0.189277 0.0287784 0)
(0.208591 0.0290528 0)
(0.227753 0.0287553 0)
(0.246733 0.0291897 0)
(0.265121 0.0285575 0)
(0.282529 0.0296906 0)
(0.29701 0.0283455 0)
(0.309705 0.0303511 0)
(0.319364 0.0294184 0)
(0.318902 0.0302566 0)
(0.256945 0.0289006 0)
(0.171402 0.030513 0)
(0.00559407 0.0297166 0)
(1.20629 0.300741 0)
(1.20448 0.31891 0)
(1.17203 0.283751 0)
(1.09239 0.173386 0)
(0.888322 0.152881 0)
(0.690322 0.228723 0)
(0.545145 0.320215 0)
(0.423915 0.340213 0)
(0.360763 0.295347 0)
(0.322826 0.225494 0)
(0.274532 0.165925 0)
(0.201129 0.122468 0)
(0.11076 0.0893734 0)
(0.0481418 0.0700984 0)
(0.0272611 0.0626723 0)
(0.0227436 0.059623 0)
(0.0213447 0.0575558 0)
(0.0219392 0.0553799 0)
(0.0260976 0.0537886 0)
(0.03523 0.0530831 0)
(0.049783 0.0528198 0)
(0.0680824 0.0526316 0)
(0.0880679 0.052514 0)
(0.10852 0.0524116 0)
(0.128926 0.0522968 0)
(0.149209 0.0521419 0)
(0.169108 0.0522186 0)
(0.189341 0.0516903 0)
(0.208717 0.0521809 0)
(0.22794 0.0516576 0)
(0.246967 0.0524127 0)
(0.265439 0.0513236 0)
(0.282938 0.0532183 0)
(0.297804 0.0510201 0)
(0.310546 0.0542753 0)
(0.320526 0.0526901 0)
(0.319202 0.0543141 0)
(0.257081 0.0517774 0)
(0.172077 0.0542301 0)
(0.00681753 0.0535477 0)
(0.977585 0.401384 0)
(0.976875 0.387207 0)
(0.925156 0.329384 0)
(0.779934 0.271683 0)
(0.576723 0.305727 0)
(0.416327 0.398461 0)
(0.317093 0.440083 0)
(0.269779 0.420851 0)
(0.266645 0.358903 0)
(0.258078 0.276034 0)
(0.222532 0.211717 0)
(0.158109 0.160806 0)
(0.0818798 0.120627 0)
(0.036032 0.0985862 0)
(0.0228333 0.0898752 0)
(0.019987 0.0857542 0)
(0.0186808 0.0825825 0)
(0.019693 0.0795929 0)
(0.0247448 0.0775485 0)
(0.0347188 0.0766067 0)
(0.0496736 0.0762015 0)
(0.0680414 0.0758827 0)
(0.0879851 0.0756893 0)
(0.108394 0.0755364 0)
(0.128787 0.0753742 0)
(0.149086 0.0751577 0)
(0.169031 0.075273 0)
(0.189282 0.0745172 0)
(0.208728 0.0752187 0)
(0.228014 0.0744961 0)
(0.247078 0.0755343 0)
(0.265624 0.0740704 0)
(0.283197 0.0765477 0)
(0.298495 0.0738087 0)
(0.311338 0.0778255 0)
(0.32161 0.0758034 0)
(0.319092 0.0782976 0)
(0.256966 0.0747354 0)
(0.17281 0.0782952 0)
(0.00811216 0.0774413 0)
(0.644567 0.414409 0)
(0.602186 0.374981 0)
(0.51927 0.369951 0)
(0.370747 0.419475 0)
(0.217663 0.494733 0)
(0.151041 0.528655 0)
(0.141375 0.508978 0)
(0.158534 0.456137 0)
(0.188349 0.376715 0)
(0.194887 0.302165 0)
(0.166314 0.241719 0)
(0.110284 0.187772 0)
(0.0520416 0.146747 0)
(0.0239947 0.125716 0)
(0.0177926 0.116651 0)
(0.016183 0.111461 0)
(0.0152454 0.10717 0)
(0.0170052 0.103489 0)
(0.0231138 0.101095 0)
(0.0340321 0.100002 0)
(0.0494686 0.0994637 0)
(0.0679409 0.099006 0)
(0.0878444 0.0987253 0)
(0.1082 0.0985189 0)
(0.128571 0.0983137 0)
(0.14888 0.0980416 0)
(0.168872 0.0982024 0)
(0.189141 0.0972376 0)
(0.208665 0.0981419 0)
(0.228018 0.0972567 0)
(0.247113 0.0985444 0)
(0.265733 0.0967989 0)
(0.283356 0.0997176 0)
(0.299085 0.0966439 0)
(0.312054 0.101045 0)
(0.322566 0.0988374 0)
(0.318846 0.102083 0)
(0.256755 0.0977054 0)
(0.173644 0.102544 0)
(0.00976849 0.101482 0)
(0.24643 0.474678 0)
(0.15293 0.461858 0)
(0.0724859 0.522273 0)
(-0.00735333 0.57262 0)
(-0.0412383 0.579599 0)
(-0.0145574 0.556842 0)
(0.0397351 0.509658 0)
(0.0883991 0.446097 0)
(0.126331 0.380143 0)
(0.134045 0.316818 0)
(0.109031 0.258339 0)
(0.0625073 0.205601 0)
(0.0248325 0.169381 0)
(0.0121759 0.151501 0)
(0.0112498 0.14256 0)
(0.0108646 0.136324 0)
(0.0108022 0.13108 0)
(0.0137446 0.126909 0)
(0.0211411 0.124274 0)
(0.0331272 0.123131 0)
(0.0491194 0.122487 0)
(0.0677528 0.121889 0)
(0.0876568 0.121516 0)
(0.107991 0.121257 0)
(0.128371 0.121016 0)
(0.14872 0.120695 0)
(0.168792 0.12091 0)
(0.189131 0.119765 0)
(0.20877 0.12086 0)
(0.228236 0.119853 0)
(0.247403 0.121356 0)
(0.266141 0.119422 0)
(0.283856 0.122666 0)
(0.300029 0.119434 0)
(0.313223 0.124045 0)
(0.323944 0.121755 0)
(0.319316 0.125391 0)
(0.257478 0.120412 0)
(0.175638 0.126706 0)
(0.0127971 0.125577 0)
(-0.108178 0.541328 0)
(-0.171386 0.557824 0)
(-0.198092 0.591907 0)
(-0.192031 0.583185 0)
(-0.148202 0.558818 0)
(-0.086573 0.529593 0)
(-0.0146058 0.488324 0)
(0.0341401 0.43514 0)
(0.0709323 0.379625 0)
(0.0753234 0.323205 0)
(0.0537282 0.267905 0)
(0.0211357 0.221289 0)
(0.00425715 0.192184 0)
(0.00258314 0.177006 0)
(0.00484548 0.167754 0)
(0.00549998 0.160493 0)
(0.0064342 0.154459 0)
(0.0106412 0.149912 0)
(0.0193139 0.147108 0)
(0.0322957 0.145887 0)
(0.0487763 0.145169 0)
(0.0675152 0.144432 0)
(0.0873661 0.143965 0)
(0.107622 0.143659 0)
(0.127947 0.143397 0)
(0.148273 0.143036 0)
(0.168358 0.14332 0)
(0.188718 0.142045 0)
(0.208391 0.143325 0)
(0.227894 0.142246 0)
(0.247045 0.143945 0)
(0.265813 0.141919 0)
(0.283497 0.145417 0)
(0.299932 0.14216 0)
(0.313232 0.146724 0)
(0.323889 0.144523 0)
(0.31813 0.148282 0)
(0.25608 0.142953 0)
(0.175044 0.151025 0)
(0.0128436 0.149934 0)
(-0.225213 0.529447 0)
(-0.282301 0.547381 0)
(-0.283776 0.560688 0)
(-0.250377 0.541663 0)
(-0.190596 0.521399 0)
(-0.123577 0.504087 0)
(-0.0545926 0.468049 0)
(-0.0102618 0.422195 0)
(0.0203616 0.373261 0)
(0.0205487 0.321913 0)
(0.00466186 0.272447 0)
(-0.0119751 0.235262 0)
(-0.0137307 0.213444 0)
(-0.00884857 0.200582 0)
(-0.00423586 0.191117 0)
(-0.00212715 0.183233 0)
(0.000473799 0.1768 0)
(0.00652071 0.172123 0)
(0.0168089 0.169452 0)
(0.0309652 0.168162 0)
(0.0481215 0.167374 0)
(0.067165 0.166504 0)
(0.087164 0.165951 0)
(0.107536 0.165607 0)
(0.127993 0.165341 0)
(0.148479 0.164949 0)
(0.168742 0.165317 0)
(0.189337 0.163955 0)
(0.209204 0.16541 0)
(0.228923 0.164299 0)
(0.248235 0.166173 0)
(0.267203 0.164128 0)
(0.285031 0.167833 0)
(0.301841 0.164636 0)
(0.315355 0.169146 0)
(0.326058 0.167082 0)
(0.319796 0.170712 0)
(0.258202 0.165281 0)
(0.178236 0.175115 0)
(0.0169221 0.173964 0)
(-0.231896 0.506588 0)
(-0.300224 0.518542 0)
(-0.307019 0.521661 0)
(-0.273735 0.504948 0)
(-0.214985 0.495366 0)
(-0.147116 0.483325 0)
(-0.0903698 0.45045 0)
(-0.0507339 0.409953 0)
(-0.0277236 0.366292 0)
(-0.0284098 0.32064 0)
(-0.033822 0.280617 0)
(-0.0343177 0.252942 0)
(-0.0263148 0.235874 0)
(-0.0174458 0.22389 0)
(-0.011317 0.213977 0)
(-0.00808217 0.205509 0)
(-0.00400011 0.198733 0)
(0.00367339 0.193954 0)
(0.0152579 0.191108 0)
(0.0302502 0.189895 0)
(0.0477257 0.189049 0)
(0.066755 0.188051 0)
(0.0866105 0.187417 0)
(0.106818 0.187043 0)
(0.127135 0.18679 0)
(0.147526 0.186382 0)
(0.167766 0.18686 0)
(0.18833 0.185461 0)
(0.208219 0.187081 0)
(0.227984 0.18599 0)
(0.247301 0.188024 0)
(0.26633 0.186035 0)
(0.284165 0.189907 0)
(0.301174 0.186844 0)
(0.314751 0.191254 0)
(0.325267 0.189414 0)
(0.318283 0.192716 0)
(0.256854 0.187156 0)
(0.17778 0.198825 0)
(0.0172137 0.197833 0)
(-0.215825 0.48237 0)
(-0.295761 0.490913 0)
(-0.311013 0.490262 0)
(-0.28382 0.481732 0)
(-0.23122 0.482787 0)
(-0.168356 0.463691 0)
(-0.121665 0.434649 0)
(-0.0883853 0.397203 0)
(-0.0705588 0.358047 0)
(-0.0679751 0.319363 0)
(-0.0626831 0.289653 0)
(-0.0529769 0.269508 0)
(-0.0399797 0.255842 0)
(-0.0287066 0.244687 0)
(-0.0213988 0.234749 0)
(-0.0166472 0.226196 0)
(-0.0104349 0.219511 0)
(-0.000718699 0.215087 0)
(0.0124751 0.212277 0)
(0.0286605 0.211129 0)
(0.0468832 0.210238 0)
(0.0663597 0.209122 0)
(0.086528 0.208414 0)
(0.106999 0.208017 0)
(0.127568 0.207789 0)
(0.148216 0.207368 0)
(0.168745 0.20794 0)
(0.189475 0.20652 0)
(0.209612 0.208258 0)
(0.229578 0.207213 0)
(0.24901 0.209368 0)
(0.26816 0.207458 0)
(0.286022 0.211458 0)
(0.303177 0.208558 0)
(0.316744 0.212857 0)
(0.326954 0.211302 0)
(0.319791 0.214263 0)
(0.258124 0.208827 0)
(0.18014 0.222398 0)
(0.0207609 0.2214 0)
(-0.194252 0.46303 0)
(-0.283914 0.468999 0)
(-0.310126 0.47068 0)
(-0.291504 0.467657 0)
(-0.241248 0.474818 0)
(-0.191568 0.445699 0)
(-0.149778 0.421507 0)
(-0.124068 0.387179 0)
(-0.106906 0.354698 0)
(-0.0963875 0.325462 0)
(-0.0814895 0.304461 0)
(-0.0655775 0.288683 0)
(-0.0496741 0.276637 0)
(-0.0372201 0.265625 0)
(-0.0291299 0.255479 0)
(-0.0229348 0.24675 0)
(-0.0147455 0.240068 0)
(-0.00338682 0.235575 0)
(0.0109882 0.232876 0)
(0.0277895 0.231767 0)
(0.0461875 0.230825 0)
(0.065588 0.229589 0)
(0.0855955 0.228812 0)
(0.105907 0.228405 0)
(0.126366 0.228229 0)
(0.146969 0.227814 0)
(0.167546 0.228502 0)
(0.188255 0.227112 0)
(0.208564 0.228956 0)
(0.228682 0.228034 0)
(0.248242 0.230297 0)
(0.267556 0.228508 0)
(0.285522 0.232595 0)
(0.302875 0.229883 0)
(0.316564 0.234035 0)
(0.326642 0.232813 0)
(0.319376 0.235366 0)
(0.257543 0.229903 0)
(0.181094 0.245268 0)
(0.0235573 0.244439 0)
(-0.173746 0.452774 0)
(-0.271918 0.456576 0)
(-0.308371 0.460262 0)
(-0.299675 0.458127 0)
(-0.252548 0.465422 0)
(-0.212572 0.430973 0)
(-0.175813 0.410042 0)
(-0.154861 0.37921 0)
(-0.134779 0.354609 0)
(-0.117726 0.333303 0)
(-0.0981422 0.317826 0)
(-0.0793444 0.305071 0)
(-0.0620625 0.294186 0)
(-0.0490096 0.283564 0)
(-0.0399331 0.273653 0)
(-0.0316125 0.26541 0)
(-0.0210321 0.259612 0)
(-0.00775004 0.255408 0)
(0.00823238 0.252914 0)
(0.0262404 0.251901 0)
(0.0454972 0.250934 0)
(0.0655253 0.249589 0)
(0.0860271 0.248739 0)
(0.106746 0.248303 0)
(0.127554 0.248144 0)
(0.148455 0.247672 0)
(0.169307 0.24841 0)
(0.190173 0.247011 0)
(0.210748 0.248844 0)
(0.231026 0.248022 0)
(0.250689 0.250319 0)
(0.270077 0.248625 0)
(0.28803 0.252734 0)
(0.305399 0.250201 0)
(0.319023 0.254168 0)
(0.328821 0.253296 0)
(0.321254 0.25552 0)
(0.259083 0.250227 0)
(0.184019 0.267306 0)
(0.0286079 0.266658 0)
(-0.154771 0.450718 0)
(-0.260484 0.453426 0)
(-0.305597 0.45394 0)
(-0.307805 0.448758 0)
(-0.264933 0.452468 0)
(-0.232619 0.419374 0)
(-0.199468 0.402934 0)
(-0.177318 0.378679 0)
(-0.152278 0.363074 0)
(-0.130608 0.346707 0)
(-0.108166 0.334473 0)
(-0.087529 0.323337 0)
(-0.0694445 0.313097 0)
(-0.0563616 0.302426 0)
(-0.0464673 0.292341 0)
(-0.035963 0.284463 0)
(-0.0237083 0.278607 0)
(-0.00914781 0.274547 0)
(0.00741985 0.272104 0)
(0.0254699 0.271115 0)
(0.0444054 0.270095 0)
(0.0639597 0.268647 0)
(0.0840129 0.26776 0)
(0.104391 0.267353 0)
(0.124993 0.267283 0)
(0.145812 0.26683 0)
(0.166696 0.267706 0)
(0.187588 0.266377 0)
(0.208409 0.26824 0)
(0.228881 0.267604 0)
(0.248736 0.269943 0)
(0.268332 0.268382 0)
(0.286446 0.272474 0)
(0.304007 0.270112 0)
(0.317803 0.273864 0)
(0.327596 0.273244 0)
(0.319983 0.275153 0)
(0.258172 0.270215 0)
(0.185513 0.288816 0)
(0.0336017 0.288435 0)
(-0.139125 0.447064 0)
(-0.252535 0.450308 0)
(-0.305634 0.447408 0)
(-0.318454 0.440026 0)
(-0.28098 0.439731 0)
(-0.251924 0.411658 0)
(-0.219047 0.400847 0)
(-0.194254 0.381383 0)
(-0.167668 0.370149 0)
(-0.144671 0.356793 0)
(-0.121105 0.346968 0)
(-0.0999103 0.336896 0)
(-0.0823702 0.326529 0)
(-0.0692471 0.316065 0)
(-0.0574905 0.307803 0)
(-0.0452627 0.300967 0)
(-0.0309896 0.295623 0)
(-0.014553 0.291985 0)
(0.00370891 0.289725 0)
(0.0233002 0.288842 0)
(0.0436558 0.287815 0)
(0.0644627 0.286283 0)
(0.0855401 0.285351 0)
(0.106692 0.284941 0)
(0.127853 0.284907 0)
(0.149066 0.284386 0)
(0.170254 0.285337 0)
(0.191268 0.28403 0)
(0.212368 0.28577 0)
(0.232918 0.285273 0)
(0.252829 0.287556 0)
(0.272416 0.286082 0)
(0.290445 0.290088 0)
(0.307893 0.287875 0)
(0.321544 0.291366 0)
(0.331002 0.291004 0)
(0.323277 0.292626 0)
(0.26235 0.288354 0)
(0.1919 0.308176 0)
(0.0435879 0.308066 0)
(-0.129242 0.445865 0)
(-0.24699 0.448576 0)
(-0.305604 0.44006 0)
(-0.328643 0.432199 0)
(-0.295306 0.431716 0)
(-0.264117 0.409556 0)
(-0.230868 0.404661 0)
(-0.204112 0.388679 0)
(-0.176429 0.381415 0)
(-0.152257 0.370113 0)
(-0.127927 0.361558 0)
(-0.106939 0.351542 0)
(-0.0892067 0.341958 0)
(-0.0750159 0.332245 0)
(-0.0618449 0.323127 0)
(-0.0475449 0.315942 0)
(-0.0316516 0.310559 0)
(-0.014298 0.306632 0)
(0.00411832 0.304024 0)
(0.0231766 0.302943 0)
(0.0425506 0.301847 0)
(0.062315 0.300401 0)
(0.0825954 0.299772 0)
(0.103266 0.299795 0)
(0.124201 0.300223 0)
(0.145385 0.300004 0)
(0.16667 0.301347 0)
(0.187861 0.300295 0)
(0.20921 0.302079 0)
(0.230023 0.301827 0)
(0.250223 0.304131 0)
(0.270057 0.302801 0)
(0.288299 0.306697 0)
(0.305919 0.304586 0)
(0.31974 0.307784 0)
(0.32915 0.307455 0)
(0.32157 0.308719 0)
(0.262362 0.305295 0)
(0.195428 0.326529 0)
(0.0523679 0.327071 0)
(-0.128094 0.44611 0)
(-0.246324 0.448027 0)
(-0.307386 0.435888 0)
(-0.335393 0.430524 0)
(-0.303662 0.431715 0)
(-0.271983 0.412115 0)
(-0.239654 0.40973 0)
(-0.213731 0.394672 0)
(-0.186368 0.389021 0)
(-0.162051 0.378539 0)
(-0.138055 0.370524 0)
(-0.11796 0.360469 0)
(-0.101442 0.35004 0)
(-0.086978 0.34046 0)
(-0.0723805 0.332514 0)
(-0.0566072 0.326226 0)
(-0.0392481 0.321542 0)
(-0.0203812 0.318078 0)
(-0.000307817 0.315863 0)
(0.0205756 0.315126 0)
(0.0418539 0.314169 0)
(0.0633675 0.312638 0)
(0.0850234 0.311885 0)
(0.1066 0.311866 0)
(0.128019 0.31235 0)
(0.14939 0.312075 0)
(0.170714 0.313544 0)
(0.191857 0.312459 0)
(0.213055 0.314085 0)
(0.233754 0.313904 0)
(0.253788 0.316123 0)
(0.273379 0.314897 0)
(0.291312 0.318624 0)
(0.308623 0.316571 0)
(0.322084 0.319424 0)
(0.330945 0.319099 0)
(0.323367 0.320112 0)
(0.266954 0.318274 0)
(0.203984 0.340835 0)
(0.0674158 0.341792 0)
(-0.132845 0.442664 0)
(-0.249198 0.442767 0)
(-0.31098 0.429479 0)
(-0.34098 0.426156 0)
(-0.31113 0.42795 0)
(-0.279935 0.410067 0)
(-0.247913 0.410428 0)
(-0.221724 0.396828 0)
(-0.193998 0.393245 0)
(-0.16965 0.3834 0)
(-0.146179 0.375791 0)
(-0.126402 0.366198 0)
(-0.108828 0.35696 0)
(-0.0925805 0.34838 0)
(-0.0760914 0.34143 0)
(-0.0586407 0.335911 0)
(-0.0401146 0.33151 0)
(-0.0207035 0.328013 0)
(-0.000626411 0.325654 0)
(0.0199071 0.324808 0)
(0.0406348 0.323728 0)
(0.0615436 0.322097 0)
(0.08267 0.321375 0)
(0.103896 0.321478 0)
(0.125175 0.322049 0)
(0.146654 0.321599 0)
(0.168175 0.322988 0)
(0.189665 0.321551 0)
(0.211294 0.322658 0)
(0.232455 0.32212 0)
(0.253002 0.323895 0)
(0.272956 0.322453 0)
(0.291213 0.32567 0)
(0.308623 0.323352 0)
(0.322175 0.325579 0)
(0.330826 0.324898 0)
(0.324231 0.325579 0)
(0.273127 0.326416 0)
(0.215628 0.351577 0)
(0.0869982 0.355949 0)
(-0.148699 0.434916 0)
(-0.260377 0.434494 0)
(-0.318654 0.416324 0)
(-0.346146 0.412781 0)
(-0.316751 0.416222 0)
(-0.285273 0.400714 0)
(-0.253858 0.403326 0)
(-0.227554 0.391382 0)
(-0.200546 0.389313 0)
(-0.177337 0.37945 0)
(-0.155157 0.371804 0)
(-0.136213 0.362556 0)
(-0.118554 0.354392 0)
(-0.101459 0.347329 0)
(-0.0838643 0.341393 0)
(-0.0651415 0.336634 0)
(-0.0451806 0.332933 0)
(-0.0243665 0.330009 0)
(-0.00311928 0.328029 0)
(0.0182117 0.32724 0)
(0.0395213 0.325516 0)
(0.0610805 0.322533 0)
(0.0830977 0.320146 0)
(0.105296 0.318575 0)
(0.12731 0.317608 0)
(0.149209 0.315445 0)
(0.170943 0.315835 0)
(0.192271 0.313193 0)
(0.213582 0.313753 0)
(0.234461 0.312628 0)
(0.254753 0.313858 0)
(0.274441 0.312096 0)
(0.292488 0.314909 0)
(0.309643 0.312421 0)
(0.323023 0.314599 0)
(0.331518 0.314645 0)
(0.327081 0.317359 0)
(0.285492 0.325759 0)
(0.234365 0.357229 0)
(0.113378 0.363222 0)
(-0.172388 0.453684 0)
(-0.289131 0.430015 0)
(-0.333121 0.391246 0)
(-0.349107 0.380597 0)
(-0.319808 0.385826 0)
(-0.288579 0.372631 0)
(-0.258686 0.376854 0)
(-0.23281 0.364424 0)
(-0.206871 0.362401 0)
(-0.184898 0.351456 0)
(-0.163612 0.342885 0)
(-0.144792 0.332254 0)
(-0.126374 0.322085 0)
(-0.107816 0.312346 0)
(-0.088349 0.303946 0)
(-0.0682862 0.296654 0)
(-0.0477629 0.290213 0)
(-0.0268777 0.28468 0)
(-0.0058254 0.280429 0)
(0.015055 0.277686 0)
(0.0357945 0.273831 0)
(0.056659 0.268582 0)
(0.0779935 0.264307 0)
(0.0995456 0.261412 0)
(0.121023 0.259585 0)
(0.142457 0.256387 0)
(0.164098 0.256501 0)
(0.185252 0.253217 0)
(0.206682 0.252906 0)
(0.227553 0.250729 0)
(0.248077 0.251087 0)
(0.268134 0.249166 0)
(0.286906 0.252264 0)
(0.305045 0.250976 0)
(0.320045 0.255705 0)
(0.331219 0.260519 0)
(0.334098 0.272125 0)
(0.313886 0.300748 0)
(0.273412 0.375201 0)
(0.129863 0.417372 0)
(-0.822974 0.282409 0)
(-0.406393 0.454811 0)
(-0.381575 0.354529 0)
(-0.357331 0.337025 0)
(-0.329751 0.342289 0)
(-0.303488 0.326666 0)
(-0.275946 0.327426 0)
(-0.253191 0.311508 0)
(-0.228232 0.305377 0)
(-0.206939 0.29095 0)
(-0.184637 0.279413 0)
(-0.163492 0.266902 0)
(-0.142169 0.255707 0)
(-0.120968 0.245193 0)
(-0.0995463 0.235845 0)
(-0.078127 0.227278 0)
(-0.0565433 0.219262 0)
(-0.0346989 0.211999 0)
(-0.0125268 0.206152 0)
(0.00974395 0.202237 0)
(0.0318418 0.197583 0)
(0.054214 0.191909 0)
(0.0772477 0.187753 0)
(0.100447 0.185361 0)
(0.123557 0.184181 0)
(0.14702 0.181306 0)
(0.170735 0.182179 0)
(0.194068 0.179549 0)
(0.217816 0.180072 0)
(0.240981 0.17913 0)
(0.263632 0.180798 0)
(0.285578 0.18112 0)
(0.305863 0.186234 0)
(0.325573 0.188316 0)
(0.341654 0.196504 0)
(0.355332 0.206038 0)
(0.363976 0.223053 0)
(0.38523 0.258924 0)
(0.413667 0.400904 0)
(0.753792 0.289796 0)
(-0.995967 1.00454 0)
(-0.294296 0.80246 0)
(-0.420689 0.193115 0)
(-0.359455 0.192269 0)
(-0.331587 0.202071 0)
(-0.307691 0.18237 0)
(-0.280253 0.179724 0)
(-0.258529 0.160398 0)
(-0.233644 0.150071 0)
(-0.212357 0.133317 0)
(-0.189874 0.119934 0)
(-0.168187 0.107074 0)
(-0.146222 0.0964161 0)
(-0.124414 0.0869475 0)
(-0.102424 0.0787236 0)
(-0.080468 0.0710052 0)
(-0.0584697 0.0636452 0)
(-0.0363821 0.0568677 0)
(-0.0141531 0.0514519 0)
(0.0081682 0.0480573 0)
(0.0303005 0.0439524 0)
(0.0525474 0.0387244 0)
(0.075451 0.0351184 0)
(0.0985818 0.0333911 0)
(0.12176 0.0328191 0)
(0.14523 0.0301577 0)
(0.168935 0.0316084 0)
(0.192466 0.0294628 0)
(0.216292 0.0307513 0)
(0.239685 0.0311862 0)
(0.262542 0.0346605 0)
(0.284848 0.0380851 0)
(0.305441 0.0464389 0)
(0.325766 0.0534966 0)
(0.342173 0.0672588 0)
(0.358973 0.0833968 0)
(0.369606 0.106505 0)
(0.423558 0.119083 0)
(0.309756 0.718617 0)
(0.978702 0.983798 0)
(-0.995967 -1.00454 0)
(-0.294296 -0.80246 0)
(-0.420689 -0.193115 0)
(-0.359455 -0.192269 0)
(-0.331587 -0.202071 0)
(-0.307691 -0.18237 0)
(-0.280253 -0.179724 0)
(-0.258529 -0.160398 0)
(-0.233644 -0.150071 0)
(-0.212357 -0.133317 0)
(-0.189874 -0.119934 0)
(-0.168187 -0.107074 0)
(-0.146222 -0.0964161 0)
(-0.124414 -0.0869475 0)
(-0.102424 -0.0787236 0)
(-0.080468 -0.0710052 0)
(-0.0584697 -0.0636452 0)
(-0.0363821 -0.0568677 0)
(-0.0141531 -0.0514519 0)
(0.0081682 -0.0480573 0)
(0.0303005 -0.0439524 0)
(0.0525474 -0.0387244 0)
(0.075451 -0.0351184 0)
(0.0985818 -0.0333911 0)
(0.12176 -0.0328191 0)
(0.14523 -0.0301577 0)
(0.168935 -0.0316084 0)
(0.192466 -0.0294628 0)
(0.216292 -0.0307513 0)
(0.239685 -0.0311862 0)
(0.262542 -0.0346605 0)
(0.284848 -0.0380851 0)
(0.305441 -0.0464389 0)
(0.325766 -0.0534966 0)
(0.342173 -0.0672588 0)
(0.358973 -0.0833968 0)
(0.369606 -0.106505 0)
(0.423558 -0.119083 0)
(0.309756 -0.718617 0)
(0.978702 -0.983798 0)
(-0.822974 -0.282409 0)
(-0.406393 -0.454811 0)
(-0.381575 -0.354529 0)
(-0.357331 -0.337025 0)
(-0.329751 -0.342289 0)
(-0.303488 -0.326666 0)
(-0.275946 -0.327426 0)
(-0.253191 -0.311508 0)
(-0.228232 -0.305377 0)
(-0.206939 -0.29095 0)
(-0.184637 -0.279413 0)
(-0.163492 -0.266902 0)
(-0.142169 -0.255707 0)
(-0.120968 -0.245193 0)
(-0.0995463 -0.235845 0)
(-0.078127 -0.227278 0)
(-0.0565433 -0.219262 0)
(-0.0346989 -0.211999 0)
(-0.0125268 -0.206152 0)
(0.00974395 -0.202237 0)
(0.0318418 -0.197583 0)
(0.054214 -0.191909 0)
(0.0772477 -0.187753 0)
(0.100447 -0.185361 0)
(0.123557 -0.184181 0)
(0.14702 -0.181306 0)
(0.170735 -0.182179 0)
(0.194068 -0.179549 0)
(0.217816 -0.180072 0)
(0.240981 -0.17913 0)
(0.263632 -0.180798 0)
(0.285578 -0.18112 0)
(0.305863 -0.186234 0)
(0.325573 -0.188316 0)
(0.341654 -0.196504 0)
(0.355332 -0.206038 0)
(0.363976 -0.223053 0)
(0.38523 -0.258924 0)
(0.413667 -0.400904 0)
(0.753792 -0.289796 0)
(-0.172388 -0.453684 0)
(-0.289131 -0.430015 0)
(-0.333121 -0.391246 0)
(-0.349107 -0.380597 0)
(-0.319808 -0.385826 0)
(-0.288579 -0.372631 0)
(-0.258686 -0.376854 0)
(-0.23281 -0.364424 0)
(-0.206871 -0.362401 0)
(-0.184898 -0.351456 0)
(-0.163612 -0.342885 0)
(-0.144792 -0.332254 0)
(-0.126374 -0.322085 0)
(-0.107816 -0.312346 0)
(-0.088349 -0.303946 0)
(-0.0682862 -0.296654 0)
(-0.0477629 -0.290213 0)
(-0.0268777 -0.28468 0)
(-0.0058254 -0.280429 0)
(0.015055 -0.277686 0)
(0.0357945 -0.273831 0)
(0.056659 -0.268582 0)
(0.0779935 -0.264307 0)
(0.0995456 -0.261412 0)
(0.121023 -0.259585 0)
(0.142457 -0.256387 0)
(0.164098 -0.256501 0)
(0.185252 -0.253217 0)
(0.206682 -0.252906 0)
(0.227553 -0.250729 0)
(0.248077 -0.251087 0)
(0.268134 -0.249166 0)
(0.286906 -0.252264 0)
(0.305045 -0.250976 0)
(0.320045 -0.255705 0)
(0.331219 -0.260519 0)
(0.334098 -0.272125 0)
(0.313886 -0.300748 0)
(0.273412 -0.375201 0)
(0.129863 -0.417372 0)
(-0.148699 -0.434916 0)
(-0.260377 -0.434494 0)
(-0.318654 -0.416324 0)
(-0.346146 -0.412781 0)
(-0.316751 -0.416222 0)
(-0.285273 -0.400714 0)
(-0.253858 -0.403326 0)
(-0.227554 -0.391382 0)
(-0.200546 -0.389313 0)
(-0.177337 -0.37945 0)
(-0.155157 -0.371804 0)
(-0.136213 -0.362556 0)
(-0.118554 -0.354392 0)
(-0.101459 -0.347329 0)
(-0.0838643 -0.341393 0)
(-0.0651415 -0.336634 0)
(-0.0451806 -0.332933 0)
(-0.0243665 -0.330009 0)
(-0.00311928 -0.328029 0)
(0.0182117 -0.32724 0)
(0.0395213 -0.325516 0)
(0.0610805 -0.322533 0)
(0.0830977 -0.320146 0)
(0.105296 -0.318575 0)
(0.12731 -0.317608 0)
(0.149209 -0.315445 0)
(0.170943 -0.315835 0)
(0.192271 -0.313193 0)
(0.213582 -0.313753 0)
(0.234461 -0.312628 0)
(0.254753 -0.313858 0)
(0.274441 -0.312096 0)
(0.292488 -0.314909 0)
(0.309643 -0.312421 0)
(0.323023 -0.314599 0)
(0.331518 -0.314645 0)