/*--------------------------------*- C++ -*----------------------------------*\
| =========                 |                                                 |
| \\      /  F ield         | OpenFOAM: The Open Source CFD Toolbox           |
|  \\    /   O peration     | Version:  v1912                                 |
|   \\  /    A nd           | Website:  www.openfoam.com                      |
|    \\/     M anipulation  |                                                 |
\*---------------------------------------------------------------------------*/
FoamFile
{
    version     2.0;
    format      ascii;
    class       volVectorField;
    location    "6.7";
    object      grad(rho);
}
// * * * * * * * * * * * * * * * * * * * * * * * * * * * * * * * * * * * * * //

dimensions      [1 -4 0 0 0 0 0];


internalField   nonuniform List<vector> 
1900
(
(91285.3 -0.21801 0)
(-96345.8 -0.341487 0)
(-4321.98 -0.255279 0)
(-972.802 -0.354753 0)
(-1501.59 0.474326 0)
(-1365.57 0.985294 0)
(-901.154 4.26474 0)
(-521.906 5.31086 0)
(-331.655 23.8309 0)
(650.308 -46.8858 0)
(91284.8 -0.404934 0)
(-96345.9 -0.491042 0)
(-4321.99 -0.193973 0)
(-972.072 0.00569426 0)
(-1500.25 1.71479 0)
(-1361.78 2.79657 0)
(-896.829 2.03268 0)
(-502.34 -7.18524 0)
(-383.852 -20.3444 0)
(-304.441 -104.027 0)
(91284.4 2.13163e-08 0)
(-96345.6 1.29319e-08 0)
(-4321.48 1.40155e-08 0)
(-970.893 1.00364e-08 0)
(-1498.8 5.13367e-09 0)
(-1365.26 -1.24345e-10 0)
(-911.136 -3.01981e-09 0)
(-544.283 1.01252e-09 0)
(-428.496 8.52651e-10 0)
(-436.4 -3.73035e-09 0)
(91284.8 0.404934 0)
(-96345.9 0.491042 0)
(-4321.99 0.193974 0)
(-972.072 -0.00569424 0)
(-1500.25 -1.71479 0)
(-1361.78 -2.79657 0)
(-896.829 -2.03268 0)
(-502.34 7.18524 0)
(-383.852 20.3444 0)
(-304.441 104.027 0)
(91285.3 0.21801 0)
(-96345.8 0.341487 0)
(-4321.98 0.255279 0)
(-972.802 0.354753 0)
(-1501.59 -0.474326 0)
(-1365.57 -0.985294 0)
(-901.154 -4.26474 0)
(-521.906 -5.31086 0)
(-331.655 -23.8309 0)
(650.308 46.8858 0)
(-223.556 -811.331 1.24601e-11)
(-2327.03 -596.475 -1.47326e-11)
(-3563.74 -593.12 -1.84807e-11)
(-3786.57 -582.878 0)
(-25633.4 -7321.98 -7.65033e-11)
(-674.321 -975.789 1.23135e-11)
(-1637.27 -716.976 1.47326e-11)
(-3228.85 -645.453 1.84807e-11)
(-6300.88 -133.971 0)
(-24119.8 -6066.46 0)
(-1008.72 -9.89547e-09 0)
(-1659.98 -9.5635e-09 0)
(-3001.82 -1.09049e-08 0)
(-5940.17 -3.96989e-09 0)
(-26316.1 5.81545e-10 0)
(-674.321 975.789 1.23135e-11)
(-1637.27 716.976 1.47326e-11)
(-3228.85 645.453 1.84807e-11)
(-6300.88 133.971 0)
(-24119.8 6066.46 0)
(-223.556 811.331 -3.70871e-11)
(-2327.03 596.475 -1.47326e-11)
(-3563.74 593.12 -1.84807e-11)
(-3786.57 582.878 -4.91303e-11)
(-25633.4 7321.98 7.65033e-11)
(-43790.6 14707.7 1.76556e-11)
(-15483.9 6370.95 -1.00929e-11)
(-8068.24 3056.48 0)
(-6402.21 2223.19 4.97613e-12)
(-3111.28 1826.54 -1.73359e-12)
(-39305.2 19049 -9.0493e-12)
(-18031.5 5528.44 5.14237e-12)
(-9068.23 1803.98 0)
(-6664.7 1360.02 -3.16217e-12)
(-4311.29 931.949 4.54166e-13)
(-40858.9 2.51202e-09 0)
(-19895.9 3.11242e-09 0)
(-9370.76 -7.99361e-09 0)
(-6797.91 1.30179e-08 1.28125e-12)
(-4295.98 -1.68676e-08 -9.08332e-13)
(-39305.2 -19049 -9.0493e-12)
(-18031.5 -5528.44 5.14237e-12)
(-9068.23 -1803.98 0)
(-6664.7 -1360.02 -3.16217e-12)
(-4311.29 -931.949 4.54166e-13)
(-43790.6 -14707.7 9.0493e-12)
(-15483.9 -6370.95 -1.91872e-13)
(-8068.24 -3056.48 0)
(-6402.21 -2223.19 6.69551e-14)
(-3111.28 -1826.54 1.73359e-12)
(-453.42 -4471.01 0)
(-1381.78 -3690.77 0)
(-1749.38 -2888.14 0)
(-356.435 -2156.49 0)
(3400.07 -2263.72 0)
(5253.81 -907.439 0)
(2615.7 128.045 0)
(769.176 68.4777 0)
(264.041 172.915 0)
(-792.402 551.522 0)
(-1606.79 617.774 0)
(-1985.31 416.324 0)
(-2378.76 268.348 0)
(-2568.51 186.093 0)
(-1952.17 98.1247 0)
(-1014.6 30.0396 0)
(-527.488 7.52142 0)
(-395.905 5.78523 0)
(-351.184 10.1063 0)
(-299.674 5.46091 0)
(-217.273 0.197362 0)
(-130.526 -2.18499 0)
(-70.2488 -2.50129 0)
(-39.2556 -2.2446 0)
(-23.8561 -1.96097 0)
(-14.3114 -1.77027 0)
(-3.84304 -1.73239 0)
(9.48403 -1.73292 0)
(22.6638 -1.63176 0)
(33.5553 -1.51504 0)
(53.3909 -1.60739 0)
(79.4837 -0.943696 0)
(117.359 -0.928922 0)
(147.753 1.26467 0)
(278.937 -0.257006 0)
(830.477 -2.12784 0)
(2060.21 -8.4004 0)
(2617.35 4.88192 0)
(1017.19 7.08763 0)
(2433.71 9.34424 0)
(-1552.94 -1591.66 0)
(-1281.45 -1604.91 0)
(-1573.74 -1203.43 0)
(-253.767 -943.238 0)
(3490.9 -974.192 0)
(5308.7 -814.888 0)
(2662.87 -465.86 0)
(854.039 -326.031 0)
(424.389 -4.53069 0)
(-647.794 282.002 0)
(-1609.77 273.703 0)
(-2055.64 163.178 0)
(-2427.35 115.185 0)
(-2597.19 94.301 0)
(-1969.59 45.9891 0)
(-1022.31 12.8139 0)
(-529.56 2.92046 0)
(-395.551 1.95366 0)
(-351.133 4.59926 0)
(-300.624 2.24948 0)
(-217.944 0.0709089 0)
(-130.761 -0.986848 0)
(-70.2414 -1.06452 0)
(-39.2042 -0.937831 0)
(-23.8124 -0.821054 0)
(-14.291 -0.749289 0)
(-3.8424 -0.748895 0)
(9.48991 -0.773728 0)
(22.6827 -0.747156 0)
(33.5533 -0.714213 0)
(53.4429 -0.783377 0)
(79.5232 -0.509303 0)
(117.557 -0.601207 0)
(147.794 0.412844 0)
(278.629 -0.545432 0)
(829.505 -0.849543 0)
(2060.85 -5.22827 0)
(2618.24 2.5315 0)
(1016.86 -0.117806 0)
(2432.8 2.21984 0)
(-1334.4 -2.92857e-08 0)
(-1268.84 -2.85751e-08 0)
(-1556.89 -9.89108e-09 0)
(-289.746 1.7376e-08 0)
(3437.41 5.98067e-08 0)
(5401.69 -1.98758e-07 0)
(2757.92 3.52106e-07 0)
(903.38 4.49644e-07 0)
(440.924 -1.03529e-07 0)
(-711.461 -2.40147e-07 0)
(-1641.35 -9.86685e-09 0)
(-2031.42 -2.16796e-08 0)
(-2398.79 -1.44612e-08 0)
(-2588.64 -4.8656e-08 0)
(-1975.87 -7.10704e-08 0)
(-1027.13 -4.36903e-08 0)
(-530.647 1.77393e-08 0)
(-395.417 -2.8018e-09 0)
(-351.098 -1.92654e-08 0)
(-300.991 -7.07717e-09 0)
(-218.214 9.57214e-09 0)
(-130.857 8.90197e-09 0)
(-70.2345 4.67909e-09 0)
(-39.1848 1.74002e-09 0)
(-23.8013 6.70171e-10 0)
(-14.2904 1.00929e-09 0)
(-3.85015 3.72228e-09 0)
(9.48453 7.45666e-09 0)
(22.6812 7.79982e-09 0)
(33.5448 5.61975e-09 0)
(53.4505 -2.14778e-09 0)
(79.5367 -5.17566e-09 0)
(117.627 6.77842e-09 0)
(147.769 -1.82642e-08 0)
(278.57 -1.80865e-08 0)
(829.114 -2.74528e-08 0)
(2061.19 1.04038e-07 0)
(2618.84 5.26771e-08 0)
(1017.1 -1.5745e-08 0)
(2430.61 2.02997e-07 0)
(-1552.94 1591.66 0)
(-1281.45 1604.91 0)
(-1573.74 1203.43 0)
(-253.767 943.238 0)
(3490.9 974.192 0)
(5308.7 814.888 0)
(2662.87 465.86 0)
(854.039 326.031 0)
(424.389 4.53069 0)
(-647.794 -282.002 0)
(-1609.77 -273.703 0)
(-2055.64 -163.178 0)
(-2427.35 -115.185 0)
(-2597.19 -94.301 0)
(-1969.59 -45.9891 0)
(-1022.31 -12.8139 0)
(-529.56 -2.92046 0)
(-395.551 -1.95366 0)
(-351.133 -4.59926 0)
(-300.624 -2.24948 0)
(-217.944 -0.0709089 0)
(-130.761 0.986848 0)
(-70.2414 1.06452 0)
(-39.2042 0.937831 0)
(-23.8124 0.821054 0)
(-14.291 0.749289 0)
(-3.8424 0.748895 0)
(9.48991 0.773728 0)
(22.6827 0.747156 0)
(33.5533 0.714213 0)
(53.4429 0.783377 0)
(79.5232 0.509303 0)
(117.557 0.601207 0)
(147.794 -0.412844 0)
(278.629 0.545432 0)
(829.505 0.849543 0)
(2060.85 5.22827 0)
(2618.24 -2.5315 0)
(1016.86 0.117806 0)
(2432.8 -2.21984 0)
(-453.42 4471.01 0)
(-1381.78 3690.77 0)
(-1749.38 2888.14 0)
(-356.435 2156.49 0)
(3400.07 2263.72 0)
(5253.81 907.439 0)
(2615.7 -128.045 0)
(769.176 -68.4777 0)
(264.041 -172.915 0)
(-792.402 -551.522 0)
(-1606.79 -617.774 0)
(-1985.31 -416.324 0)
(-2378.76 -268.348 0)
(-2568.51 -186.093 0)
(-1952.17 -98.1247 0)
(-1014.6 -30.0396 0)
(-527.488 -7.52142 0)
(-395.905 -5.78523 0)
(-351.184 -10.1063 0)
(-299.674 -5.46091 0)
(-217.273 -0.197362 0)
(-130.526 2.18499 0)
(-70.2488 2.50129 0)
(-39.2556 2.2446 0)
(-23.8561 1.96097 0)
(-14.3114 1.77027 0)
(-3.84304 1.73239 0)
(9.48403 1.73292 0)
(22.6638 1.63176 0)
(33.5553 1.51504 0)
(53.3909 1.60739 0)
(79.4837 0.943696 0)
(117.359 0.928922 0)
(147.753 -1.26467 0)
(278.937 0.257006 0)
(830.477 2.12784 0)
(2060.21 8.4004 0)
(2617.35 -4.88192 0)
(1017.19 -7.08763 0)
(2433.71 -9.34424 0)
(-1922.28 3613.26 0)
(-2158.33 2335.42 0)
(-2333.07 2555.49 0)
(-526.741 3204.38 0)
(2812.43 3123.93 0)
(3871.86 645.895 0)
(2105.24 -965.059 0)
(924.016 -593.909 0)
(306.79 -717.801 0)
(-759.639 -880.141 0)
(-1528.42 -752.907 0)
(-1917.78 -537.522 0)
(-2339.11 -411.493 0)
(-2523.57 -334.865 0)
(-1891.85 -187.339 0)
(-974.38 -55.42 0)
(-516.742 -14.9148 0)
(-396.763 -12.6401 0)
(-350.871 -16.5941 0)
(-295.506 -10.0464 0)
(-213.925 -1.20374 0)
(-129.339 3.39696 0)
(-70.1956 4.33648 0)
(-39.4836 3.95768 0)
(-24.0593 3.45625 0)
(-14.4108 3.12125 0)
(-3.86509 3.04824 0)
(9.43358 3.0356 0)
(22.5679 2.84464 0)
(33.5356 2.67956 0)
(53.1446 2.76146 0)
(79.1433 1.81121 0)
(116.401 1.17023 0)
(147.421 -1.97264 0)
(280.401 -0.256258 0)
(833.49 3.65003 0)
(2057.2 12.0312 0)
(2609.55 -3.72546 0)
(1013.67 -15.6284 0)
(2446.97 -19.5868 0)
(-2631.99 443.274 0)
(-1984.69 342.175 0)
(-599.017 1370.66 0)
(282.663 2486.73 0)
(1249.73 2264.46 0)
(2054.56 371.02 0)
(1694.71 -606.296 0)
(924.412 -692.062 0)
(-34.7049 -1090.1 0)
(-843.799 -1199.96 0)
(-1318.65 -986.612 0)
(-1692.52 -753.061 0)
(-2204.73 -647.593 0)
(-2376.61 -537.847 0)
(-1715.22 -274.633 0)
(-870.019 -76.5747 0)
(-492.026 -24.5514 0)
(-397.063 -21.7587 0)
(-348.852 -22.5002 0)
(-287.078 -13.8802 0)
(-206.113 -2.1565 0)
(-125.824 4.98399 0)
(-69.737 6.98475 0)
(-39.9815 6.67966 0)
(-24.5531 5.98041 0)
(-14.6512 5.47288 0)
(-3.91376 5.33122 0)
(9.31488 5.24983 0)
(22.3722 4.93298 0)
(33.4858 4.69129 0)
(52.6862 4.77275 0)
(78.1329 3.56304 0)
(114.226 2.19437 0)
(146.555 -1.90491 0)
(283.57 -0.210946 0)
(840.701 5.56527 0)
(2054.72 17.8444 0)
(2594.88 0.401679 0)
(1003.8 -18.2734 0)
(2470.29 -22.1846 0)
(-2226.3 -124.9 0)
(-1264.67 809.943 0)
(-266.499 1213.62 0)
(334.56 948.442 0)
(773.652 779.328 0)
(1105.5 -84.1162 0)
(1080.82 -613.266 0)
(457.803 -996.235 0)
(-182.644 -1253.35 0)
(-659.912 -1205.06 0)
(-1097.77 -991.756 0)
(-1591.08 -868.177 0)
(-2131.72 -846.575 0)
(-2164.17 -686.948 0)
(-1447.35 -312.949 0)
(-733.393 -85.8832 0)
(-463.919 -35.1755 0)
(-394.787 -31.0252 0)
(-343.279 -27.0635 0)
(-275.902 -15.4674 0)
(-195.747 -1.32366 0)
(-120.53 7.78088 0)
(-68.5615 10.8274 0)
(-40.4515 10.7535 0)
(-25.2222 9.93408 0)
(-15.0364 9.25753 0)
(-4.08003 8.98895 0)
(9.04982 8.71694 0)
(22.0297 8.21837 0)
(33.3812 7.82663 0)
(52.0574 7.86305 0)
(76.6587 6.39057 0)
(111.132 4.38196 0)
(145.104 -0.610722 0)
(287.599 0.671224 0)
(850.889 7.85973 0)
(2052.23 23.9461 0)
(2574.74 3.49645 0)
(991.908 -20.5787 0)
(2495.37 -23.7089 0)
(-1228.63 -485.694 0)
(-694.838 161.985 0)
(-465.554 -115.823 0)
(-135.838 -226.835 0)
(254.717 -314.283 0)
(712.603 -392.818 0)
(815.756 -724.64 0)
(307.603 -1122.45 0)
(-235.936 -1196.44 0)
(-591.716 -1137.08 0)
(-994.015 -1042.69 0)
(-1552.62 -1016.48 0)
(-2030.09 -1000.22 0)
(-1862.39 -720.436 0)
(-1136.02 -288.182 0)
(-602.346 -87.128 0)
(-439.163 -46.2086 0)
(-389.246 -39.0119 0)
(-333.86 -29.4637 0)
(-262.275 -14.2556 0)
(-183.711 1.70105 0)
(-114.115 12.0471 0)
(-66.8725 15.7561 0)
(-40.8424 15.8927 0)
(-25.9947 15.0145 0)
(-15.562 14.1976 0)
(-4.43469 13.7325 0)
(8.57232 13.143 0)
(21.5143 12.4143 0)
(33.1434 11.7933 0)
(51.3023 11.6231 0)
(74.7784 9.95916 0)
(107.479 7.31795 0)
(142.98 2.01566 0)
(291.732 2.48351 0)
(863.13 10.3424 0)
(2050.51 27.2114 0)
(2551.98 5.69918 0)
(977.58 -22.0036 0)
(2519.32 -26.6103 0)
(-1415.02 -1119.73 0)
(-908.245 -716.313 0)
(-641.181 -695.595 0)
(143.316 -430.741 0)
(613.705 -321.702 0)
(710.063 -493.952 0)
(377.715 -910.821 0)
(3.16143 -1178.44 0)
(-196.736 -1186.34 0)
(-511.752 -1108.4 0)
(-981.557 -1099.34 0)
(-1550.16 -1139.95 0)
(-1846.44 -1055.68 0)
(-1478.02 -639.531 0)
(-837.075 -230.91 0)
(-500.218 -84.5349 0)
(-417.553 -53.8525 0)
(-378.651 -43.0411 0)
(-319.423 -28.1474 0)
(-245.871 -9.45662 0)
(-170.4 7.59703 0)
(-106.986 18.4423 0)
(-64.8558 22.4446 0)
(-41.1661 22.7176 0)
(-26.8557 21.8112 0)
(-16.2718 20.878 0)
(-5.09631 20.1473 0)
(7.77958 19.1951 0)
(20.7291 18.2708 0)
(32.6187 17.3955 0)
(50.29 16.947 0)
(72.5101 15.1704 0)
(103.477 12.2929 0)
(140.445 6.98 0)
(295.623 7.5388 0)
(874.717 15.275 0)
(2047.75 33.7072 0)
(2527.32 12.9539 0)
(960.773 -17.2569 0)
(2550.34 -19.9178 0)
(-1836.1 -693.635 0)
(-286.126 -275.191 0)
(-190.367 -29.6609 0)
(224.459 -128.513 0)
(193.805 -485.005 0)
(144.907 -882.967 0)
(156.163 -1158.78 0)
(42.1001 -1120.09 0)
(-168.448 -1093.54 0)
(-507.882 -1096.73 0)
(-1024.42 -1162.61 0)
(-1510.54 -1194.08 0)
(-1547.87 -965.93 0)
(-1067.62 -485.54 0)
(-601.202 -177.892 0)
(-431.727 -84.7295 0)
(-399.178 -60.8423 0)
(-364.476 -44.8794 0)
(-301.496 -24.441 0)
(-227.83 -3.15718 0)
(-156.826 14.6916 0)
(-99.8074 25.5165 0)
(-62.7527 29.5863 0)
(-41.4527 29.9669 0)
(-27.7674 29.0791 0)
(-17.1654 28.0455 0)
(-6.05631 26.922 0)
(6.76412 25.6418 0)
(19.78 24.6052 0)
(31.8677 23.4246 0)
(49.1581 22.6235 0)
(70.2935 20.7447 0)
(99.5865 17.9119 0)
(138.398 13.0899 0)
(299.726 13.5576 0)
(888.347 20.088 0)
(2048.28 35.5964 0)
(2502.87 17.7047 0)
(945.904 -12.4588 0)
(2564.82 -17.1426 0)
(-911.887 -54.6888 0)
(-268.416 1.66654 0)
(-499.836 -133.489 0)
(-295.47 -629.223 0)
(-113.314 -978.843 0)
(60.789 -1056.18 0)
(149.216 -1023.16 0)
(66.0268 -1013.63 0)
(-174.227 -1019.61 0)
(-578.31 -1103.2 0)
(-1075.37 -1197.71 0)
(-1360.63 -1130.06 0)
(-1163.67 -756.269 0)
(-718.64 -334.908 0)
(-450.84 -141.509 0)
(-387.425 -84.1848 0)
(-379.152 -63.4738 0)
(-343.573 -42.3149 0)
(-279.218 -17.3376 0)
(-208.161 5.46464 0)
(-142.769 23.7911 0)
(-92.6329 34.2093 0)
(-60.5672 38.0996 0)
(-41.6548 38.5169 0)
(-28.7072 37.6099 0)
(-18.3505 36.354 0)
(-7.41264 34.9449 0)
(5.54708 33.5508 0)
(18.5925 32.2144 0)
(30.709 30.6945 0)
(47.7076 29.5514 0)
(67.9699 27.5634 0)
(96.1008 24.8827 0)
(136.249 20.9627 0)
(302.367 21.755 0)
(895.955 26.6726 0)
(2045.45 39.1565 0)
(2481.01 23.041 0)
(927.193 -8.99937 0)
(2588.34 -14.3461 0)
(-1088.77 -193.061 0)
(-362.06 -195.461 0)
(-798.315 -468.69 0)
(-590.154 -874.202 0)
(-217.628 -1014.15 0)
(102.2 -944.145 0)
(197.163 -871.94 0)
(45.5207 -911.918 0)
(-254.756 -984.668 0)
(-679.5 -1107.65 0)
(-1050.3 -1143.11 0)
(-1085.16 -926.514 0)
(-781.632 -514.955 0)
(-475.21 -230.02 0)
(-359.596 -118.51 0)
(-356.53 -82.7366 0)
(-358.83 -62.5253 0)
(-320.017 -36.5269 0)
(-255.454 -9.31841 0)
(-188.197 14.0876 0)
(-129.127 31.8375 0)
(-86.0192 41.6721 0)
(-58.6018 45.4154 0)
(-41.9246 45.9688 0)
(-29.8516 45.171 0)
(-19.7335 43.9011 0)
(-8.7576 42.6932 0)
(4.13289 41.4821 0)
(17.0276 39.8564 0)
(29.3015 38.2336 0)
(46.1408 37.0124 0)
(65.7946 35.2405 0)
(93.2257 33.0572 0)
(135.385 30.4779 0)
(305.228 32.6672 0)
(905.115 35.472 0)
(2044.78 46.5849 0)
(2456.46 31.7748 0)
(909.876 -2.9604 0)
(2591.51 -8.52867 0)
(-1133.12 -211.61 0)
(-534.022 -237.306 0)
(-1153.89 -515.653 0)
(-821.092 -834.052 0)
(-180.714 -882.465 0)
(197.824 -737.065 0)
(180.271 -752.911 0)
(-42.6016 -853.77 0)
(-362.843 -968.87 0)
(-730.992 -1054.78 0)
(-900.819 -963.876 0)
(-755.317 -647.857 0)
(-492.5 -327.669 0)
(-336.611 -162.323 0)
(-308.912 -100.561 0)
(-333.476 -78.4675 0)
(-334.622 -57.6308 0)
(-292.301 -27.942 0)
(-230.444 0.811513 0)
(-168.502 24.6134 0)
(-116.188 41.1784 0)
(-79.5487 50.1648 0)
(-56.4267 53.6369 0)
(-41.8903 54.2422 0)
(-30.6998 53.5804 0)
(-20.7383 52.4951 0)
(-9.74366 51.5172 0)
(2.81346 50.325 0)
(15.4621 48.5491 0)
(27.9684 46.9209 0)
(44.8233 45.728 0)
(64.1586 44.2589 0)
(91.5113 42.7187 0)
(135.873 41.5456 0)
(307.18 45.2638 0)
(909.366 46.3741 0)
(2041.89 54.9915 0)
(2433.27 39.0848 0)
(888.355 1.25921 0)
(2594.89 -5.7472 0)
(-1347.44 -321.154 0)
(-655.047 -292.132 0)
(-1373.36 -453.808 0)
(-943.628 -621.996 0)
(-124.167 -646.051 0)
(227.043 -591.352 0)
(84.7024 -695.418 0)
(-162.585 -808.155 0)
(-448.453 -921.163 0)
(-674.688 -908.347 0)
(-658.178 -697.045 0)
(-472.086 -401.775 0)
(-313.754 -208.654 0)
(-256.361 -119.142 0)
(-278.789 -86.5087 0)
(-315.16 -70.3651 0)
(-310.142 -46.3079 0)
(-263.7 -16.0239 0)
(-204.81 12.4252 0)
(-149.298 35.6457 0)
(-104.504 51.0208 0)
(-74.0138 59.2225 0)
(-54.6727 62.5966 0)
(-41.979 63.5005 0)
(-31.5352 63.2987 0)
(-21.7217 62.6795 0)
(-10.8488 61.9758 0)
(1.27268 60.8213 0)
(13.7473 59.051 0)
(26.5829 57.6143 0)
(43.5757 56.5872 0)
(62.8947 55.5502 0)
(90.611 54.7132 0)
(137.837 54.6738 0)
(309.881 59.6081 0)
(914.489 60.3383 0)
(2037.75 68.6507 0)
(2404.68 47.5728 0)
(866.675 4.32094 0)
(2580.68 -0.458895 0)
(-1721.52 -309.857 0)
(-661.852 -212.853 0)
(-1471.76 -287.924 0)
(-1006.34 -408.55 0)
(-151.184 -446.42 0)
(150.252 -533.923 0)
(-28.648 -657.581 0)
(-260.138 -748.695 0)
(-459.391 -792.686 0)
(-515.023 -666.172 0)
(-412.668 -429.918 0)
(-284.685 -234.975 0)
(-220.144 -125.612 0)
(-218.908 -78.5938 0)
(-261.909 -66.9849 0)
(-294.737 -53.8677 0)
(-282.257 -25.1098 0)
(-235.704 7.83719 0)
(-180.654 36.1683 0)
(-131.31 58.0184 0)
(-93.4684 71.7487 0)
(-68.3939 78.6452 0)
(-52.3043 81.1493 0)
(-41.2137 81.4587 0)
(-31.4909 80.8303 0)
(-22.0131 79.8819 0)
(-11.5342 78.7518 0)
(-0.00498083 77.1766 0)
(12.3717 75.2091 0)
(25.5942 73.7548 0)
(42.8343 72.8622 0)
(62.3527 72.205 0)
(90.6668 72.0413 0)
(140.59 72.8309 0)
(312.638 78.384 0)
(918.08 80.7494 0)
(2029.59 89.2347 0)
(2371.27 59.7556 0)
(842.07 7.74335 0)
(2562.83 10.2112 0)
(-1987.09 -140.11 0)
(-633.912 -60.1957 0)
(-1561.94 -121.815 0)
(-1096.36 -281.228 0)
(-244.982 -343.724 0)
(23.5597 -498.689 0)
(-122.259 -597.161 0)
(-292.778 -632.695 0)
(-368.931 -573.925 0)
(-325.111 -397.098 0)
(-242.661 -226.833 0)
(-178.846 -121.053 0)
(-163.059 -63.0174 0)
(-199.866 -43.8206 0)
(-254.962 -40.5881 0)
(-274.808 -23.7446 0)
(-250.681 8.48537 0)
(-204.65 42.2583 0)
(-156.454 70.4379 0)
(-115.011 90.0371 0)
(-84.6276 101.496 0)
(-64.955 106.81 0)
(-51.9616 108.28 0)
(-42.2864 107.674 0)
(-33.0547 106.056 0)
(-23.7247 104.066 0)
(-13.4557 101.96 0)
(-2.14118 99.5113 0)
(10.4499 96.9703 0)
(24.3214 95.5448 0)
(42.0823 94.6609 0)
(62.1036 94.3895 0)
(91.2142 94.9666 0)
(143.949 96.6996 0)
(317.512 103.025 0)
(924.945 107.308 0)
(2017.52 111.022 0)
(2326.15 71.8548 0)
(818.932 11.4562 0)
(2519.02 20.2092 0)
(-2003.22 -3.70418 0)
(-644.222 30.048 0)
(-1684.76 -34.2652 0)
(-1220.18 -227.639 0)
(-360.738 -316.446 0)
(-93.9691 -450.745 0)
(-157.781 -498.179 0)
(-237.747 -449.723 0)
(-232.361 -326.231 0)
(-180.553 -193.476 0)
(-146.661 -99.2099 0)
(-126.827 -39.5378 0)
(-145.72 -11.9007 0)
(-197.294 -8.28638 0)
(-242.563 0.615041 0)
(-247.449 25.1183 0)
(-218.654 58.0774 0)
(-176.004 90.2901 0)
(-134.612 116.743 0)
(-101.381 134.179 0)
(-77.3052 143.564 0)
(-61.8567 146.895 0)
(-51.4723 146.533 0)
(-43.3566 144.3 0)
(-34.9676 141.242 0)
(-25.9605 138.041 0)
(-15.9231 135.017 0)
(-4.81312 132.207 0)
(8.54945 129.915 0)
(23.3688 129.286 0)
(41.7209 129.247 0)
(62.6473 130.039 0)
(92.8929 131.927 0)
(148.356 135.424 0)
(322.861 143.525 0)
(925.786 151.342 0)
(1995.43 150.756 0)
(2275.33 101.09 0)
(792.302 32.8848 0)
(2472.71 39.9675 0)
(-1931.59 26.2589 0)
(-663.361 31.333 0)
(-1810.26 -13.3884 0)
(-1368.28 -192.034 0)
(-459.975 -288.334 0)
(-151.565 -326.465 0)
(-121.274 -292.007 0)
(-127.082 -205.209 0)
(-122.002 -102.611 0)
(-106.345 -36.097 0)
(-94.3209 12.1001 0)
(-94.7116 42.0845 0)
(-132.944 51.1083 0)
(-187.805 49.0678 0)
(-222.773 56.1794 0)
(-219.435 77.2907 0)
(-187.879 104.849 0)
(-148.118 131.602 0)
(-114.161 151.868 0)
(-89.1658 165.289 0)
(-72.3745 173.223 0)
(-62.094 177.482 0)
(-54.4614 179.566 0)
(-47.3845 180.425 0)
(-39.0861 180.683 0)
(-29.7241 181.194 0)
(-19.0775 181.518 0)
(-7.05756 182.818 0)
(7.63503 184.551 0)
(23.6778 188.501 0)
(42.8076 192.443 0)
(64.6868 197.343 0)
(96.4036 202.996 0)
(155.125 210.924 0)
(332.851 224.105 0)
(931.913 238.538 0)
(1969.1 234.52 0)
(2212.57 158.133 0)
(760.032 63.0066 0)
(2370.46 61.0408 0)
(-1881.92 83.1563 0)
(-682.428 102.669 0)
(-1900 73.0491 0)
(-1485.13 -50.7155 0)
(-490.281 -114.602 0)
(-97.5082 -71.3316 0)
(-40.9336 -4.58652 0)
(-55.2388 48.6967 0)
(-69.3988 93.9514 0)
(-70.0128 131.413 0)
(-71.3229 160.122 0)
(-89.2368 167.616 0)
(-138.991 159.38 0)
(-192.407 155.88 0)
(-215.367 169.328 0)
(-200.549 196.411 0)
(-166.318 226.869 0)
(-130.695 252.756 0)
(-102.151 271.883 0)
(-80.8022 286.129 0)
(-65.556 298.158 0)
(-55.7445 309.649 0)
(-48.6357 320.884 0)
(-42.2796 331.56 0)
(-34.2271 341.416 0)
(-25.1562 350.876 0)
(-14.358 358.894 0)
(-1.89076 365.83 0)
(14.0265 371.004 0)
(30.9745 377.57 0)
(50.2411 383.586 0)
(72.8163 392.097 0)
(105.98 400.72 0)
(168.697 413.349 0)
(349.47 430.447 0)
(935.822 445.192 0)
(1917.95 410.854 0)
(2110.05 271.899 0)
(698.741 118.909 0)
(2269.76 73.1737 0)
(-1661.3 86.5869 0)
(-673.101 175.738 0)
(-1958.07 294.783 0)
(-1549.11 318.208 0)
(-479.841 299.338 0)
(-45.5495 339.154 0)
(-5.61082 378.291 0)
(-32.1277 403.359 0)
(-42.2934 430.261 0)
(-42.5811 460.13 0)
(-59.4342 483.069 0)
(-95.4268 493.111 0)
(-144.254 499.4 0)
(-178.219 521.189 0)
(-183.716 563.855 0)
(-163.987 613.872 0)
(-133.583 662.051 0)
(-104.741 704.196 0)
(-82.001 739.843 0)
(-63.8464 770.98 0)
(-49.7104 803.064 0)
(-40.1938 837.313 0)
(-33.3468 870.846 0)
(-27.5992 902.399 0)
(-20.4724 931.112 0)
(-12.882 959.435 0)
(-4.66752 979.799 0)
(4.61231 1001.1 0)
(18.9481 1015.9 0)
(35.802 1031.62 0)
(56.8068 1044.21 0)
(81.198 1058.97 0)
(116.882 1065.56 0)
(183.771 1076.34 0)
(363.536 1079.34 0)
(913.033 1056.92 0)
(1802.11 907.478 0)
(1931.24 552.909 0)
(568.533 178.522 0)
(2113.44 -3.96778 0)
(-1595.83 -105.73 0)
(-481.803 98.5516 0)
(-1762.72 552.94 0)
(-1480.74 953.976 0)
(-470.096 1042.57 0)
(-21.4263 1093.96 0)
(20.937 1142.9 0)
(-5.15883 1199.72 0)
(-14.6931 1262.06 0)
(-19.1255 1319.08 0)
(-39.5412 1366.87 0)
(-73.4997 1410.48 0)
(-111.933 1459.05 0)
(-130.296 1521.39 0)
(-126.055 1595.45 0)
(-105.923 1675.29 0)
(-79.2783 1750.11 0)
(-55.7319 1816.18 0)
(-37.7947 1873.1 0)
(-19.88 1920.98 0)
(-1.6355 1962.66 0)
(9.57246 1998.25 0)
(14.084 2027.02 0)
(15.7947 2050.5 0)
(20.7342 2068.99 0)
(21.7609 2086.42 0)
(25.7939 2096.4 0)
(32.9003 2108.58 0)
(43.4309 2116.02 0)
(58.2525 2121.83 0)
(76.5962 2121.93 0)
(93.3878 2116.81 0)
(122.723 2100.01 0)
(181.978 2077.76 0)
(330.751 2029.95 0)
(770.208 1922.19 0)
(1432.27 1565.2 0)
(1407.6 885.838 0)
(162.114 221.387 0)
(2113.11 -171.817 0)
(-2179.23 6104.13 0)
(-38.3832 -587.846 0)
(-1133.75 542.58 0)
(-1077.29 1355.55 0)
(-344.944 1618.49 0)
(51.1387 1702.32 0)
(96.2954 1763.04 0)
(82.693 1834.17 0)
(72.7291 1916.08 0)
(58.4163 1984.71 0)
(28.6465 2040.04 0)
(-6.59218 2086.84 0)
(-37.3823 2136.48 0)
(-46.7781 2196.71 0)
(-35.4125 2260.18 0)
(-14.9493 2325.07 0)
(2.18233 2382.73 0)
(13.7706 2430.11 0)
(18.9879 2465.94 0)
(22.4561 2491.76 0)
(24.7577 2505.94 0)
(21.829 2508.08 0)
(16.9963 2502.67 0)
(12.8465 2493.54 0)
(14.149 2480.68 0)
(13.531 2464.38 0)
(16.6821 2447.34 0)
(23.5182 2425.83 0)
(31.7204 2404.15 0)
(41.4911 2376.13 0)
(51.962 2342.4 0)
(60.0841 2298.87 0)
(79.2532 2250.87 0)
(116.252 2190.55 0)
(213.625 2100.27 0)
(465.183 1938.04 0)
(803.44 1453.21 0)
(636.295 673.645 0)
(-450.661 -510.543 0)
(2644.11 4321.51 0)
(-2897.99 328067 0)
(-5841.11 3404.17 0)
(110.015 -638.943 0)
(-443.959 113.758 0)
(-135.936 502.103 0)
(117.867 563.919 0)
(147.989 594.193 0)
(142.319 619.147 0)
(130.373 650.389 0)
(100.324 668.335 0)
(58.8765 679.422 0)
(19.4399 694.715 0)
(-6.06232 719.775 0)
(-11.0916 753.848 0)
(-2.35586 788.153 0)
(12.1621 814.495 0)
(21.9424 832.382 0)
(24.4552 842.414 0)
(21.615 847.378 0)
(18.662 850.331 0)
(14.0845 853.925 0)
(6.42213 858.938 0)
(0.0790215 863.181 0)
(-5.39409 864.586 0)
(-7.36579 864.241 0)
(-10.3639 862.328 0)
(-11.3606 856.933 0)
(-8.72105 850.372 0)
(-4.46223 841.424 0)
(-1.24754 829.423 0)
(2.14496 813.848 0)
(5.17891 794.733 0)
(18.3438 770.996 0)
(36.8543 742.596 0)
(87.4259 692.133 0)
(146.682 573.704 0)
(213.849 196.346 0)
(-484.739 -400.201 0)
(3677.33 3129 0)
(4833.97 263971 0)
(305007 -318959 0)
(-316791 6508.36 0)
(-4304.51 3779.98 0)
(22.2683 3561.95 0)
(88.8476 3695.07 0)
(139.88 3571.22 0)
(149.515 3358.53 0)
(136.846 3178.26 0)
(120.129 3005.42 0)
(86.3935 2872.33 0)
(54.0671 2798.88 0)
(32.2936 2762.88 0)
(19.6004 2764.25 0)
(19.1136 2769.23 0)
(23.029 2768.01 0)
(27.6709 2750.46 0)
(29.087 2721.52 0)
(28.2218 2684.94 0)
(26.6165 2644.56 0)
(28.7649 2608.23 0)
(33.0517 2578.24 0)
(30.7485 2560.6 0)
(22.4394 2555.17 0)
(13.8679 2555.08 0)
(11.9725 2561.27 0)
(6.48837 2560.81 0)
(5.16086 2570.37 0)
(8.57363 2566.18 0)
(11.5331 2563.78 0)
(14.9176 2542.34 0)
(18.534 2521.49 0)
(18.7905 2481.39 0)
(29.0122 2448.33 0)
(40.2572 2371.54 0)
(50.8739 2306.72 0)
(-12.5757 2172.62 0)
(-135.049 2185.23 0)
(3462.31 2614.75 0)
(254307 5243.37 0)
(-242828 -252685 0)
(305007 318959 0)
(-316791 -6508.36 0)
(-4304.51 -3779.98 0)
(22.2683 -3561.95 0)
(88.8476 -3695.07 0)
(139.88 -3571.22 0)
(149.515 -3358.53 0)
(136.846 -3178.26 0)
(120.129 -3005.42 0)
(86.3935 -2872.33 0)
(54.0671 -2798.88 0)
(32.2936 -2762.88 0)
(19.6004 -2764.25 0)
(19.1136 -2769.23 0)
(23.029 -2768.01 0)
(27.6709 -2750.46 0)
(29.087 -2721.52 0)
(28.2218 -2684.94 0)
(26.6165 -2644.56 0)
(28.7649 -2608.23 0)
(33.0517 -2578.24 0)
(30.7485 -2560.6 0)
(22.4394 -2555.17 0)
(13.8679 -2555.08 0)
(11.9725 -2561.27 0)
(6.48837 -2560.81 0)
(5.16086 -2570.37 0)
(8.57363 -2566.18 0)
(11.5331 -2563.78 0)
(14.9176 -2542.34 0)
(18.534 -2521.49 0)
(18.7905 -2481.39 0)
(29.0122 -2448.33 0)
(40.2572 -2371.54 0)
(50.8739 -2306.72 0)
(-12.5757 -2172.62 0)
(-135.049 -2185.23 0)
(3462.31 -2614.75 0)
(254307 -5243.37 0)
(-242828 252685 0)
(-2897.99 -328067 0)
(-5841.11 -3404.17 0)
(110.015 638.943 0)
(-443.959 -113.758 0)
(-135.936 -502.103 0)
(117.867 -563.919 0)
(147.989 -594.193 0)
(142.319 -619.147 0)
(130.373 -650.389 0)
(100.324 -668.335 0)
(58.8765 -679.422 0)
(19.4399 -694.715 0)
(-6.06232 -719.775 0)
(-11.0916 -753.848 0)
(-2.35586 -788.153 0)
(12.1621 -814.495 0)
(21.9424 -832.382 0)
(24.4552 -842.414 0)
(21.615 -847.378 0)
(18.662 -850.331 0)
(14.0845 -853.925 0)
(6.42213 -858.938 0)
(0.0790216 -863.181 0)
(-5.39409 -864.586 0)
(-7.36579 -864.241 0)
(-10.3639 -862.328 0)
(-11.3606 -856.933 0)
(-8.72105 -850.372 0)
(-4.46223 -841.424 0)
(-1.24754 -829.423 0)
(2.14496 -813.848 0)
(5.17891 -794.733 0)
(18.3438 -770.996 0)
(36.8543 -742.596 0)
(87.4259 -692.133 0)
(146.682 -573.704 0)
(213.849 -196.346 0)
(-484.739 400.201 0)
(3677.33 -3129 0)
(4833.97 -263971 0)
(-2179.23 -6104.13 0)
(-38.3832 587.846 0)
(-1133.75 -542.58 0)
(-1077.29 -1355.55 0)
(-344.944 -1618.49 0)
(51.1387 -1702.32 0)
(96.2954 -1763.04 0)
(82.693 -1834.17 0)
(72.7291 -1916.08 0)
(58.4163 -1984.71 0)
(28.6465 -2040.04 0)
(-6.59218 -2086.84 0)
(-37.3823 -2136.48 0)
(-46.7781 -2196.71 0)
(-35.4125 -2260.18 0)
(-14.9493 -2325.07 0)
(2.18233 -2382.73 0)
(13.7706 -2430.11 0)
(18.9879 -2465.94 0)
(22.4561 -2491.76 0)
(24.7577 -2505.94 0)
(21.829 -2508.08 0)
(16.9963 -2502.67 0)
(12.8465 -2493.54 0)
(14.149 -2480.68 0)
(13.531 -2464.38 0)
(16.6821 -2447.34 0)
(23.5182 -2425.83 0)
(31.7204 -2404.15 0)
(41.4911 -2376.13 0)
(51.962 -2342.4 0)
(60.0841 -2298.87 0)
(79.2532 -2250.87 0)
(116.252 -2190.55 0)
(213.625 -2100.27 0)
(465.183 -1938.04 0)
(803.44 -1453.21 0)
(636.295 -673.645 0)
(-450.661 510.543 0)
(2644.11 -4321.51 0)
(-1595.83 105.73 0)
(-481.803 -98.5516 0)
(-1762.72 -552.94 0)
(-1480.74 -953.976 0)
(-470.096 -1042.57 0)
(-21.4263 -1093.96 0)
(20.937 -1142.9 0)
(-5.15883 -1199.72 0)
(-14.6931 -1262.06 0)
(-19.1255 -1319.08 0)
(-39.5412 -1366.87 0)
(-73.4997 -1410.48 0)
(-111.933 -1459.05 0)
(-130.296 -1521.39 0)
(-126.055 -1595.45 0)
(-105.923 -1675.29 0)
(-79.2783 -1750.11 0)
(-55.7319 -1816.18 0)
(-37.7947 -1873.1 0)
(-19.88 -1920.98 0)
(-1.6355 -1962.66 0)
(9.57246 -1998.25 0)
(14.084 -2027.02 0)
(15.7947 -2050.5 0)
(20.7342 -2068.99 0)
(21.7609 -2086.42 0)
(25.7939 -2096.4 0)
(32.9003 -2108.58 0)
(43.4309 -2116.02 0)
(58.2525 -2121.83 0)
(76.5962 -2121.93 0)
(93.3878 -2116.81 0)
(122.723 -2100.01 0)
(181.978 -2077.76 0)
(330.751 -2029.95 0)
(770.208 -1922.19 0)
(1432.27 -1565.2 0)
(1407.6 -885.838 0)
(162.114 -221.387 0)
(2113.11 171.817 0)
(-1661.3 -86.5869 0)
(-673.101 -175.738 0)
(-1958.07 -294.783 0)
(-1549.11 -318.208 0)
(-479.841 -299.338 0)
(-45.5495 -339.154 0)
(-5.61082 -378.291 0)
(-32.1277 -403.359 0)
(-42.2934 -430.261 0)
(-42.5811 -460.13 0)
(-59.4342 -483.069 0)
(-95.4268 -493.111 0)
(-144.254 -499.4 0)
(-178.219 -521.189 0)
(-183.716 -563.855 0)
(-163.987 -613.872 0)
(-133.583 -662.051 0)
(-104.741 -704.196 0)
(-82.001 -739.843 0)
(-63.8464 -770.98 0)
(-49.7104 -803.064 0)
(-40.1938 -837.313 0)
(-33.3468 -870.846 0)
(-27.5992 -902.399 0)
(-20.4724 -931.112 0)
(-12.882 -959.435 0)
(-4.66752 -979.799 0)
(4.61231 -1001.1 0)
(18.9481 -1015.9 0)
(35.802 -1031.62 0)
(56.8068 -1044.21 0)
(81.198 -1058.97 0)
(116.882 -1065.56 0)
(183.771 -1076.34 0)
(363.536 -1079.34 0)
(913.033 -1056.92 0)
(1802.11 -907.478 0)
(1931.24 -552.909 0)
(568.533 -178.522 0)
(2113.44 3.96778 0)
(-1881.92 -83.1563 0)
(-682.428 -102.669 0)
(-1900 -73.0491 0)
(-1485.13 50.7155 0)
(-490.281 114.602 0)
(-97.5082 71.3316 0)
(-40.9336 4.58652 0)
(-55.2388 -48.6967 0)
(-69.3988 -93.9514 0)
(-70.0128 -131.413 0)
(-71.3229 -160.122 0)
(-89.2368 -167.616 0)
(-138.991 -159.38 0)
(-192.407 -155.88 0)
(-215.367 -169.328 0)
(-200.549 -196.411 0)
(-166.318 -226.869 0)
(-130.695 -252.756 0)
(-102.151 -271.883 0)
(-80.8022 -286.129 0)
(-65.556 -298.158 0)
(-55.7445 -309.649 0)
(-48.6357 -320.884 0)
(-42.2796 -331.56 0)
(-34.2271 -341.416 0)
(-25.1562 -350.876 0)
(-14.358 -358.894 0)
(-1.89076 -365.83 0)
(14.0265 -371.004 0)
(30.9745 -377.57 0)
(50.2411 -383.586 0)
(72.8163 -392.097 0)
(105.98 -400.72 0)
(168.697 -413.349 0)
(349.47 -430.447 0)
(935.822 -445.192 0)
(1917.95 -410.854 0)
(2110.05 -271.899 0)
(698.741 -118.909 0)
(2269.76 -73.1737 0)
(-1931.59 -26.2589 0)
(-663.361 -31.333 0)
(-1810.26 13.3884 0)
(-1368.28 192.034 0)
(-459.975 288.334 0)
(-151.565 326.465 0)
(-121.274 292.007 0)
(-127.082 205.209 0)
(-122.002 102.611 0)
(-106.345 36.097 0)
(-94.3209 -12.1001 0)
(-94.7116 -42.0845 0)
(-132.944 -51.1083 0)
(-187.805 -49.0678 0)
(-222.773 -56.1794 0)
(-219.435 -77.2907 0)
(-187.879 -104.849 0)
(-148.118 -131.602 0)
(-114.161 -151.868 0)
(-89.1658 -165.289 0)
(-72.3745 -173.223 0)
(-62.094 -177.482 0)
(-54.4614 -179.566 0)
(-47.3845 -180.425 0)
(-39.0861 -180.683 0)
(-29.7241 -181.194 0)