/*--------------------------------*- C++ -*----------------------------------*\
| =========                 |                                                 |
| \\      /  F ield         | OpenFOAM: The Open Source CFD Toolbox           |
|  \\    /   O peration     | Version:  v1912                                 |
|   \\  /    A nd           | Website:  www.openfoam.com                      |
|    \\/     M anipulation  |                                                 |
\*---------------------------------------------------------------------------*/
FoamFile
{
    version     2.0;
    format      ascii;
    class       volVectorField;
    location    "7.68";
    object      U;
}
// * * * * * * * * * * * * * * * * * * * * * * * * * * * * * * * * * * * * * //

dimensions      [0 1 -1 0 0 0 0];


internalField   nonuniform List<vector> 
1900
(
(-0.550446 -9.05114e-07 0)
(0.0234813 -3.79055e-06 0)
(0.10526 -1.89145e-06 0)
(0.103307 -9.85551e-06 0)
(0.104766 -2.63721e-05 0)
(0.102903 -6.30709e-05 0)
(0.102055 -0.000116452 0)
(0.100553 3.0975e-05 0)
(0.0997355 0.00305964 0)
(0.0895728 0.0117552 0)
(-0.550442 1.73031e-06 0)
(0.0234808 -7.14975e-06 0)
(0.105254 -5.25585e-06 0)
(0.103299 -1.25999e-05 0)
(0.104746 -2.72813e-05 0)
(0.102794 -8.63172e-05 0)
(0.101809 -5.25755e-05 0)
(0.100282 0.000136573 0)
(0.100738 0.00199007 0)
(0.10143 0.0106743 0)
(-0.550442 -2.43156e-14 0)
(0.0234797 -1.92421e-14 0)
(0.105249 -4.91958e-15 0)
(0.103293 -1.58776e-14 0)
(0.104725 -2.47854e-14 0)
(0.102724 -1.0853e-14 0)
(0.101705 2.28726e-14 0)
(0.100491 6.45592e-15 0)
(0.101899 7.74982e-16 0)
(0.10817 -8.83825e-15 0)
(-0.550442 -1.73031e-06 0)
(0.0234808 7.14975e-06 0)
(0.105254 5.25585e-06 0)
(0.103299 1.25999e-05 0)
(0.104746 2.72813e-05 0)
(0.102794 8.63172e-05 0)
(0.101809 5.25755e-05 0)
(0.100282 -0.000136573 0)
(0.100738 -0.00199007 0)
(0.10143 -0.0106743 0)
(-0.550446 9.05114e-07 0)
(0.0234813 3.79055e-06 0)
(0.10526 1.89145e-06 0)
(0.103307 9.85551e-06 0)
(0.104766 2.63721e-05 0)
(0.102903 6.30709e-05 0)
(0.102055 0.000116452 0)
(0.100553 -3.0975e-05 0)
(0.0997355 -0.00305964 0)
(0.0895728 -0.0117552 0)
(0.0919023 0.0377078 0)
(0.127744 0.0510062 0)
(0.174547 0.0747461 0)
(0.25019 0.116215 0)
(0.394757 0.172574 0)
(0.114977 0.0267291 0)
(0.140419 0.02818 0)
(0.170908 0.0376928 0)
(0.233362 0.0593826 0)
(0.374624 0.101792 0)
(0.125382 -4.31715e-15 0)
(0.149107 -2.55599e-14 0)
(0.181129 1.49139e-14 0)
(0.244123 -8.12312e-15 0)
(0.384813 1.36102e-15 0)
(0.114977 -0.0267291 0)
(0.140419 -0.02818 0)
(0.170908 -0.0376928 0)
(0.233362 -0.0593826 0)
(0.374624 -0.101792 0)
(0.0919023 -0.0377078 0)
(0.127744 -0.0510062 0)
(0.174547 -0.0747461 0)
(0.25019 -0.116215 0)
(0.394757 -0.172574 0)
(0.843742 0.0293302 0)
(1.10391 -0.0517603 0)
(1.25744 -0.083306 0)
(1.34467 -0.0943078 0)
(1.43497 -0.107443 0)
(0.817569 -0.0176803 0)
(1.11652 -0.0480704 0)
(1.28882 -0.0591935 0)
(1.37789 -0.0594302 0)
(1.46001 -0.0793476 0)
(0.813777 2.55597e-15 0)
(1.12045 7.23583e-15 0)
(1.28409 -2.17216e-15 0)
(1.36932 -1.01845e-15 0)
(1.44733 1.77223e-14 0)
(0.817569 0.0176803 0)
(1.11652 0.0480704 0)
(1.28882 0.0591935 0)
(1.37789 0.0594302 0)
(1.46001 0.0793476 0)
(0.843742 -0.0293302 0)
(1.10391 0.0517603 0)
(1.25744 0.083306 0)
(1.34467 0.0943078 0)
(1.43497 0.107443 0)
(1.48137 -0.022321 0)
(1.51931 0.0249862 0)
(1.53624 0.0101059 0)
(1.55139 -0.0122439 0)
(1.56847 -0.0219548 0)
(1.59713 -0.0444163 0)
(1.63749 -0.0234134 0)
(1.63366 -0.00732376 0)
(1.53062 0.0257556 0)
(1.2275 -0.0104389 0)
(1.17604 -0.0195944 0)
(1.1477 -0.0355267 0)
(1.08448 -0.0561735 0)
(0.982456 -0.0710904 0)
(0.867796 -0.0702863 0)
(0.754843 -0.0581604 0)
(0.65415 -0.0459704 0)
(0.566018 -0.0346423 0)
(0.475616 -0.0260891 0)
(0.359394 -0.019772 0)
(0.224673 -0.0146853 0)
(0.148304 -0.0121753 0)
(0.134322 -0.0116262 0)
(0.135791 -0.011341 0)
(0.138947 -0.0110999 0)
(0.143039 -0.0108555 0)
(0.149502 -0.0108402 0)
(0.159836 -0.0107584 0)
(0.172562 -0.0109309 0)
(0.186327 -0.0108458 0)
(0.200552 -0.0111224 0)
(0.203274 -0.0110316 0)
(0.136626 -0.0112015 0)
(-0.0350426 -0.0112945 0)
(-0.131896 -0.0114362 0)
(-0.166094 -0.0113451 0)
(-0.181721 -0.0115644 0)
(-0.198252 -0.0126213 0)
(-0.217312 -0.0159755 0)
(-0.246414 -0.0125241 0)
(1.48569 -0.0230207 0)
(1.48561 0.0134489 0)
(1.5024 0.018949 0)
(1.51633 0.00717267 0)
(1.53616 -0.0138047 0)
(1.57305 -0.0343719 0)
(1.6197 -0.0241685 0)
(1.61747 -0.0127104 0)
(1.51518 0.0180366 0)
(1.23683 -0.00604343 0)
(1.17709 -0.0106613 0)
(1.143 -0.0173526 0)
(1.07516 -0.0273653 0)
(0.973513 -0.0345226 0)
(0.865257 -0.0341126 0)
(0.764093 -0.0275313 0)
(0.666675 -0.0239123 0)
(0.575135 -0.0198073 0)
(0.482156 -0.0134993 0)
(0.363502 -0.00958043 0)
(0.22605 -0.00715735 0)
(0.148514 -0.00608792 0)
(0.134418 -0.00582461 0)
(0.135901 -0.00567621 0)
(0.139058 -0.00555501 0)
(0.143144 -0.00542886 0)
(0.149623 -0.00542192 0)
(0.159979 -0.00538351 0)
(0.172727 -0.00547038 0)
(0.186516 -0.00542705 0)
(0.200772 -0.00556429 0)
(0.203529 -0.00551763 0)
(0.136966 -0.00559258 0)
(-0.034586 -0.00562564 0)
(-0.13121 -0.00569015 0)
(-0.165143 -0.00563805 0)
(-0.180472 -0.00577695 0)
(-0.197404 -0.00638392 0)
(-0.217999 -0.00808207 0)
(-0.247842 -0.0062732 0)
(1.48199 -3.23229e-14 0)
(1.48042 -1.38964e-14 0)
(1.48656 1.50559e-14 0)
(1.50257 -6.40573e-14 0)
(1.51965 -6.63418e-14 0)
(1.56153 -1.05127e-13 0)
(1.60896 -9.31414e-14 0)
(1.60716 -5.36945e-14 0)
(1.50345 -4.28656e-14 0)
(1.23589 4.45246e-13 0)
(1.17488 2.55578e-13 0)
(1.14324 -5.22008e-13 0)
(1.0779 -5.54353e-13 0)
(0.981111 3.16011e-13 0)
(0.877412 5.11547e-13 0)
(0.776516 2.65955e-13 0)
(0.679411 3.29433e-13 0)
(0.579413 9.13293e-14 0)
(0.479746 -2.04336e-13 0)
(0.361348 -1.18674e-12 0)
(0.226005 -8.45501e-13 0)
(0.148704 1.87709e-13 0)
(0.134476 4.01836e-13 0)
(0.135941 9.50563e-13 0)
(0.139084 7.06127e-13 0)
(0.143141 1.42358e-13 0)
(0.149611 -2.06647e-13 0)
(0.159971 -7.88866e-13 0)
(0.172722 -2.8633e-13 0)
(0.186515 3.69734e-13 0)
(0.200778 -1.77152e-13 0)
(0.203543 -4.98121e-14 0)
(0.136998 3.42312e-13 0)
(-0.0345236 5.03037e-13 0)
(-0.131016 -1.1268e-13 0)
(-0.164718 -5.15283e-16 0)
(-0.17975 5.13734e-13 0)
(-0.196458 7.25304e-14 0)
(-0.2171 -5.93238e-13 0)
(-0.247041 -1.37467e-13 0)
(1.48569 0.0230207 0)
(1.48561 -0.0134489 0)
(1.5024 -0.018949 0)
(1.51633 -0.00717267 0)
(1.53616 0.0138047 0)
(1.57305 0.0343719 0)
(1.6197 0.0241685 0)
(1.61747 0.0127104 0)
(1.51518 -0.0180366 0)
(1.23683 0.00604343 0)
(1.17709 0.0106613 0)
(1.143 0.0173526 0)
(1.07516 0.0273653 0)
(0.973513 0.0345226 0)
(0.865257 0.0341126 0)
(0.764093 0.0275313 0)
(0.666675 0.0239123 0)
(0.575135 0.0198073 0)
(0.482156 0.0134993 0)
(0.363502 0.00958043 0)
(0.22605 0.00715735 0)
(0.148514 0.00608792 0)
(0.134418 0.00582461 0)
(0.135901 0.00567621 0)
(0.139058 0.00555501 0)
(0.143144 0.00542886 0)
(0.149623 0.00542192 0)
(0.159979 0.00538351 0)
(0.172727 0.00547038 0)
(0.186516 0.00542705 0)
(0.200772 0.00556429 0)
(0.203529 0.00551763 0)
(0.136966 0.00559258 0)
(-0.034586 0.00562564 0)
(-0.13121 0.00569015 0)
(-0.165143 0.00563805 0)
(-0.180472 0.00577695 0)
(-0.197404 0.00638392 0)
(-0.217999 0.00808207 0)
(-0.247842 0.0062732 0)
(1.48137 0.022321 0)
(1.51931 -0.0249862 0)
(1.53624 -0.0101059 0)
(1.55139 0.0122439 0)
(1.56847 0.0219548 0)
(1.59713 0.0444163 0)
(1.63749 0.0234134 0)
(1.63366 0.00732376 0)
(1.53062 -0.0257556 0)
(1.2275 0.0104389 0)
(1.17604 0.0195944 0)
(1.1477 0.0355267 0)
(1.08448 0.0561735 0)
(0.982456 0.0710904 0)
(0.867796 0.0702863 0)
(0.754843 0.0581604 0)
(0.65415 0.0459704 0)
(0.566018 0.0346423 0)
(0.475616 0.0260891 0)
(0.359394 0.019772 0)
(0.224673 0.0146853 0)
(0.148304 0.0121753 0)
(0.134322 0.0116262 0)
(0.135791 0.011341 0)
(0.138947 0.0110999 0)
(0.143039 0.0108555 0)
(0.149502 0.0108402 0)
(0.159836 0.0107584 0)
(0.172562 0.0109309 0)
(0.186327 0.0108458 0)
(0.200552 0.0111224 0)
(0.203274 0.0110316 0)
(0.136626 0.0112015 0)
(-0.0350426 0.0112945 0)
(-0.131896 0.0114362 0)
(-0.166094 0.0113451 0)
(-0.181721 0.0115644 0)
(-0.198252 0.0126213 0)
(-0.217312 0.0159755 0)
(-0.246414 0.0125241 0)
(1.55404 -0.032634 0)
(1.56406 -0.0313148 0)
(1.57925 -0.0123852 0)
(1.58427 0.00602959 0)
(1.58828 0.0244015 0)
(1.6045 0.0650564 0)
(1.6184 0.0486884 0)
(1.59901 0.00436816 0)
(1.44908 -0.0209635 0)
(1.18226 0.0202568 0)
(1.14999 0.0456346 0)
(1.1223 0.0816943 0)
(1.05441 0.125163 0)
(0.952134 0.15454 0)
(0.848388 0.149413 0)
(0.750228 0.123454 0)
(0.65755 0.0957769 0)
(0.567964 0.0724996 0)
(0.474142 0.0555573 0)
(0.355529 0.0420275 0)
(0.220873 0.0307114 0)
(0.147068 0.0253061 0)
(0.134006 0.0240678 0)
(0.135515 0.0234945 0)
(0.138746 0.0230159 0)
(0.142955 0.0225867 0)
(0.149516 0.0225404 0)
(0.159885 0.0223431 0)
(0.17263 0.0226896 0)
(0.186407 0.0225174 0)
(0.200641 0.0230867 0)
(0.20338 0.0229331 0)
(0.136787 0.0233593 0)
(-0.0346532 0.023646 0)
(-0.131561 0.0239455 0)
(-0.165869 0.0237031 0)
(-0.181691 0.0243852 0)
(-0.198033 0.0251047 0)
(-0.214421 0.0308557 0)
(-0.241878 0.0252214 0)
(1.57041 0.11137 0)
(1.57566 0.0916172 0)
(1.57962 0.0942697 0)
(1.57731 0.0904758 0)
(1.56872 0.0831421 0)
(1.57175 0.129743 0)
(1.54349 0.0944376 0)
(1.49915 0.0470865 0)
(1.29381 0.0196129 0)
(1.12132 0.0275327 0)
(1.07992 0.0594567 0)
(1.04216 0.132268 0)
(0.960621 0.21824 0)
(0.861624 0.262285 0)
(0.776373 0.249208 0)
(0.699066 0.208046 0)
(0.621651 0.162168 0)
(0.541879 0.124994 0)
(0.453932 0.0974208 0)
(0.337893 0.0736102 0)
(0.209275 0.0538948 0)
(0.143903 0.0450942 0)
(0.133161 0.0429986 0)
(0.13485 0.0420443 0)
(0.138162 0.0412616 0)
(0.142692 0.0405812 0)
(0.149582 0.0405075 0)
(0.160087 0.0401228 0)
(0.172877 0.0407125 0)
(0.186686 0.0404031 0)
(0.200957 0.0413813 0)
(0.203738 0.0411843 0)
(0.137357 0.0419273 0)
(-0.0335364 0.0424456 0)
(-0.130351 0.0429082 0)
(-0.165031 0.0422202 0)
(-0.180839 0.0444187 0)
(-0.197923 0.0434683 0)
(-0.212639 0.0521549 0)
(-0.23961 0.0451062 0)
(1.54667 0.199933 0)
(1.54075 0.194708 0)
(1.53795 0.200279 0)
(1.54019 0.198656 0)
(1.54883 0.184261 0)
(1.55704 0.184659 0)
(1.49617 0.124537 0)
(1.42901 0.0868347 0)
(1.23004 0.0718552 0)
(1.1216 0.0858606 0)
(1.03337 0.13103 0)
(0.944864 0.228445 0)
(0.837326 0.327903 0)
(0.750912 0.351749 0)
(0.69148 0.320327 0)
(0.636047 0.2668 0)
(0.574457 0.212744 0)
(0.506713 0.168862 0)
(0.4252 0.133567 0)
(0.311767 0.10093 0)
(0.193016 0.0749031 0)
(0.139615 0.0642728 0)
(0.131897 0.0615912 0)
(0.133867 0.060308 0)
(0.137315 0.0592484 0)
(0.142255 0.058356 0)
(0.149599 0.0582872 0)
(0.160332 0.0577064 0)
(0.173201 0.0585056 0)
(0.18706 0.0580734 0)
(0.201378 0.0593985 0)
(0.204199 0.0592357 0)
(0.138105 0.0602069 0)
(-0.0320801 0.0609051 0)
(-0.128711 0.0614886 0)
(-0.163968 0.0602106 0)
(-0.179579 0.0646937 0)
(-0.197827 0.0615207 0)
(-0.212003 0.0718138 0)
(-0.238543 0.0643623 0)
(1.48267 0.250873 0)
(1.48705 0.244245 0)
(1.49083 0.255976 0)
(1.49604 0.262258 0)
(1.5229 0.249691 0)
(1.46965 0.234264 0)
(1.42771 0.194687 0)
(1.33938 0.142196 0)
(1.184 0.132571 0)
(1.06175 0.158409 0)
(0.937293 0.228054 0)
(0.817331 0.358507 0)
(0.710295 0.427668 0)
(0.649456 0.41635 0)
(0.611002 0.369585 0)
(0.571698 0.309422 0)
(0.523824 0.25235 0)
(0.466628 0.204745 0)
(0.389588 0.163275 0)
(0.278923 0.123421 0)
(0.174809 0.0938662 0)
(0.135145 0.0829519 0)
(0.130409 0.0799113 0)
(0.132596 0.0783257 0)
(0.136232 0.0769979 0)
(0.14163 0.0759258 0)
(0.149476 0.0758952 0)
(0.160473 0.0751239 0)
(0.173427 0.0761065 0)
(0.187341 0.0755663 0)
(0.201705 0.0771672 0)
(0.204533 0.0770936 0)
(0.138683 0.0782561 0)
(-0.0309867 0.0791926 0)
(-0.127676 0.0800658 0)
(-0.163781 0.0783279 0)
(-0.17909 0.0849117 0)
(-0.198259 0.0798675 0)
(-0.212159 0.0910726 0)
(-0.238312 0.083473 0)
(1.40198 0.317023 0)
(1.40507 0.312179 0)
(1.40475 0.325051 0)
(1.4037 0.324675 0)
(1.41984 0.304434 0)
(1.36829 0.278545 0)
(1.31634 0.226368 0)
(1.21241 0.188554 0)
(1.07808 0.204147 0)
(0.930821 0.255221 0)
(0.791428 0.381574 0)
(0.664869 0.484941 0)
(0.590198 0.494131 0)
(0.55806 0.459279 0)
(0.537668 0.400846 0)
(0.510306 0.337095 0)
(0.472504 0.279984 0)
(0.422552 0.231095 0)
(0.347495 0.18517 0)
(0.241255 0.140323 0)
(0.15652 0.110768 0)
(0.130459 0.101044 0)
(0.128483 0.097927 0)
(0.130978 0.0960504 0)
(0.134996 0.0944703 0)
(0.141008 0.0932375 0)
(0.149484 0.0932621 0)
(0.160847 0.0922962 0)
(0.173956 0.0934353 0)
(0.18799 0.0927989 0)
(0.20248 0.0945948 0)
(0.20539 0.0946287 0)
(0.140157 0.0958709 0)
(-0.0283535 0.096964 0)
(-0.124639 0.0981149 0)
(-0.161219 0.0960667 0)
(-0.175841 0.104359 0)
(-0.195461 0.0981365 0)
(-0.208807 0.109826 0)
(-0.2347 0.102079 0)
(1.29082 0.375134 0)
(1.29166 0.376182 0)
(1.28453 0.377017 0)
(1.27721 0.355643 0)
(1.26058 0.322798 0)
(1.22252 0.292358 0)
(1.15345 0.270961 0)
(1.03972 0.284319 0)
(0.895324 0.322272 0)
(0.735215 0.416996 0)
(0.600362 0.528363 0)
(0.51578 0.56085 0)
(0.487031 0.539622 0)
(0.481263 0.485542 0)
(0.472346 0.417859 0)
(0.452076 0.354858 0)
(0.421504 0.300012 0)
(0.375831 0.250789 0)
(0.300577 0.200977 0)
(0.202827 0.153767 0)
(0.141421 0.127251 0)
(0.126691 0.118927 0)
(0.12646 0.115693 0)
(0.12907 0.113437 0)
(0.133445 0.111623 0)
(0.140005 0.110266 0)
(0.149001 0.110379 0)
(0.160631 0.109232 0)
(0.173788 0.110517 0)
(0.187846 0.109804 0)
(0.202353 0.111727 0)
(0.205148 0.111888 0)
(0.139984 0.113194 0)
(-0.0280949 0.114463 0)
(-0.124444 0.116018 0)
(-0.162022 0.113892 0)
(-0.176529 0.123533 0)
(-0.196769 0.116495 0)
(-0.209675 0.128607 0)
(-0.2354 0.120704 0)
(1.14011 0.425309 0)
(1.13849 0.418094 0)
(1.12373 0.40702 0)
(1.1026 0.389691 0)
(1.07142 0.373069 0)
(1.01805 0.363388 0)
(0.927743 0.373122 0)
(0.795925 0.404277 0)
(0.632318 0.470189 0)
(0.498201 0.574699 0)
(0.4241 0.616162 0)
(0.403284 0.602848 0)
(0.409736 0.555263 0)
(0.417466 0.487164 0)
(0.412564 0.42195 0)
(0.3971 0.363754 0)
(0.371595 0.312097 0)
(0.32673 0.262182 0)
(0.250084 0.208711 0)
(0.167133 0.163226 0)
(0.128913 0.142776 0)
(0.122579 0.13627 0)
(0.123806 0.132975 0)
(0.126973 0.130327 0)
(0.132134 0.128327 0)
(0.139589 0.126854 0)
(0.149386 0.127045 0)
(0.161508 0.1257 0)
(0.174895 0.127118 0)
(0.189137 0.126336 0)
(0.203833 0.12833 0)
(0.206747 0.128599 0)
(0.142583 0.129976 0)
(-0.0239988 0.131426 0)
(-0.120057 0.133378 0)
(-0.158358 0.131335 0)
(-0.172509 0.142072 0)
(-0.19326 0.13463 0)
(-0.205687 0.146984 0)
(-0.231559 0.13883 0)
(0.939778 0.463693 0)
(0.932495 0.459364 0)
(0.907935 0.462592 0)
(0.879781 0.451576 0)
(0.832967 0.439644 0)
(0.750609 0.446734 0)
(0.626645 0.482262 0)
(0.476374 0.54454 0)
(0.3602 0.629583 0)
(0.31372 0.666898 0)
(0.309198 0.650862 0)
(0.327717 0.606545 0)
(0.349027 0.544705 0)
(0.357927 0.481969 0)
(0.355531 0.422797 0)
(0.34509 0.369475 0)
(0.322083 0.320249 0)
(0.27416 0.268064 0)
(0.199057 0.212382 0)
(0.139516 0.173593 0)
(0.120862 0.158771 0)
(0.119139 0.153068 0)
(0.120814 0.14935 0)
(0.124351 0.146345 0)
(0.130099 0.144277 0)
(0.138178 0.142801 0)
(0.148495 0.143161 0)
(0.160846 0.141707 0)
(0.174271 0.143268 0)
(0.18855 0.142463 0)
(0.203292 0.144499 0)
(0.206094 0.144862 0)
(0.142215 0.146201 0)
(-0.0234107 0.147832 0)
(-0.118973 0.15044 0)
(-0.157864 0.148625 0)
(-0.171525 0.160375 0)
(-0.192691 0.152745 0)
(-0.204454 0.165434 0)
(-0.230386 0.157075 0)
(0.682206 0.483934 0)
(0.661594 0.494836 0)
(0.636662 0.491276 0)
(0.593083 0.488508 0)
(0.515708 0.508447 0)
(0.406323 0.55989 0)
(0.289648 0.624609 0)
(0.212326 0.68192 0)
(0.196011 0.698932 0)
(0.212995 0.680248 0)
(0.243885 0.638345 0)
(0.275016 0.584816 0)
(0.294165 0.527825 0)
(0.30272 0.470581 0)
(0.304243 0.417562 0)
(0.297062 0.369304 0)
(0.27237 0.320019 0)
(0.219045 0.263715 0)
(0.153583 0.211067 0)
(0.119672 0.183848 0)
(0.113874 0.174144 0)
(0.114982 0.169088 0)
(0.11764 0.165056 0)
(0.122274 0.161923 0)
(0.129149 0.159918 0)
(0.138274 0.158447 0)
(0.149428 0.158952 0)
(0.162216 0.157428 0)
(0.17585 0.159062 0)
(0.190247 0.158232 0)
(0.20508 0.160249 0)
(0.207922 0.16067 0)
(0.14523 0.162018 0)
(-0.0186622 0.163831 0)
(-0.114046 0.167026 0)
(-0.153928 0.165406 0)
(-0.167411 0.177957 0)
(-0.189205 0.170392 0)
(-0.200475 0.183381 0)
(-0.226703 0.174902 0)
(0.343586 0.49931 0)
(0.322932 0.528076 0)
(0.299004 0.537204 0)
(0.251777 0.574358 0)
(0.187633 0.625916 0)
(0.123111 0.674657 0)
(0.091238 0.706704 0)
(0.0968955 0.709436 0)
(0.12677 0.69043 0)
(0.163457 0.655335 0)
(0.19804 0.611739 0)
(0.223575 0.562469 0)
(0.240176 0.510194 0)
(0.251508 0.459338 0)
(0.257328 0.412111 0)
(0.249858 0.36573 0)
(0.218709 0.313948 0)
(0.163916 0.256725 0)
(0.120837 0.215393 0)
(0.108652 0.197657 0)
(0.108585 0.189972 0)
(0.110539 0.184788 0)
(0.11369 0.180475 0)
(0.119038 0.17743 0)
(0.126633 0.175667 0)
(0.136395 0.174362 0)
(0.148038 0.175134 0)
(0.161011 0.17367 0)
(0.17473 0.175343 0)
(0.18915 0.174536 0)
(0.203978 0.176498 0)
(0.206697 0.176947 0)
(0.144586 0.178248 0)
(-0.0178116 0.18045 0)
(-0.112601 0.184461 0)
(-0.153232 0.182732 0)
(-0.166237 0.195719 0)
(-0.188166 0.188148 0)
(-0.198374 0.201403 0)
(-0.224292 0.192971 0)
(0.0377904 0.535954 0)
(0.0430944 0.566223 0)
(0.0413539 0.59616 0)
(0.0273328 0.63461 0)
(0.0142424 0.668601 0)
(0.0128958 0.694531 0)
(0.0273967 0.700695 0)
(0.0551563 0.688867 0)
(0.0884889 0.663165 0)
(0.123003 0.627501 0)
(0.153169 0.584493 0)
(0.176013 0.536334 0)
(0.195002 0.488244 0)
(0.209429 0.444316 0)
(0.213671 0.402739 0)
(0.199411 0.356661 0)
(0.161908 0.300605 0)
(0.118294 0.246281 0)
(0.0988738 0.220364 0)
(0.0988956 0.211187 0)
(0.102025 0.205279 0)
(0.105589 0.200028 0)
(0.110401 0.195445 0)
(0.11735 0.19226 0)
(0.126316 0.190407 0)
(0.137183 0.188912 0)
(0.149586 0.189712 0)
(0.162955 0.188176 0)
(0.176792 0.189713 0)
(0.191185 0.188789 0)
(0.205969 0.190637 0)
(0.208686 0.190963 0)
(0.148009 0.192066 0)
(-0.01261 0.193447 0)
(-0.106452 0.197154 0)
(-0.1472 0.19603 0)
(-0.159449 0.210688 0)
(-0.181688 0.203806 0)
(-0.191123 0.217673 0)
(-0.217283 0.209811 0)
(-0.0728637 0.533962 0)
(-0.0549655 0.553902 0)
(-0.0449966 0.586106 0)
(-0.0291652 0.615715 0)
(-0.0145098 0.644257 0)
(-0.000578815 0.668968 0)
(0.0108484 0.674364 0)
(0.0328377 0.660304 0)
(0.0607479 0.631932 0)
(0.0885388 0.594847 0)
(0.112292 0.553091 0)
(0.132205 0.510766 0)
(0.151492 0.471728 0)
(0.165405 0.432622 0)
(0.167942 0.386539 0)
(0.148573 0.327779 0)
(0.111304 0.270878 0)
(0.0879034 0.244154 0)
(0.0869845 0.227758 0)
(0.0916005 0.216966 0)
(0.0961206 0.208786 0)
(0.100451 0.201597 0)
(0.10628 0.195682 0)
(0.114414 0.191449 0)
(0.124535 0.188715 0)
(0.136386 0.186249 0)
(0.149508 0.186461 0)
(0.163447 0.184112 0)
(0.177502 0.185007 0)
(0.192145 0.18347 0)
(0.20708 0.185116 0)
(0.209634 0.184787 0)
(0.148977 0.184226 0)
(-0.0102809 0.183046 0)
(-0.102067 0.188495 0)
(-0.142396 0.192896 0)
(-0.152013 0.213643 0)
(-0.175905 0.214104 0)
(-0.185059 0.23259 0)
(-0.211913 0.227249 0)
(-0.0851167 0.517422 0)
(-0.0650278 0.529407 0)
(-0.0524703 0.55975 0)
(-0.028436 0.589538 0)
(-0.00831238 0.618454 0)
(0.00673312 0.64028 0)
(0.00384365 0.643588 0)
(0.00893678 0.626188 0)
(0.0255894 0.594447 0)
(0.0457917 0.553832 0)
(0.0690197 0.513099 0)
(0.0936555 0.473822 0)
(0.116501 0.431579 0)
(0.127943 0.382732 0)
(0.118511 0.331988 0)
(0.0883096 0.283487 0)
(0.0655003 0.238373 0)
(0.0654562 0.203496 0)
(0.0735402 0.183507 0)
(0.0803157 0.167693 0)
(0.0859459 0.153318 0)
(0.0918311 0.140133 0)
(0.0995559 0.129034 0)
(0.109424 0.120427 0)
(0.120828 0.114218 0)
(0.133849 0.108528 0)
(0.148075 0.107035 0)
(0.16182 0.102361 0)
(0.176252 0.101848 0)
(0.191308 0.098944 0)
(0.206323 0.100878 0)
(0.207618 0.0993057 0)
(0.14502 0.0968381 0)
(-0.00483373 0.0979801 0)
(-0.0839433 0.119099 0)
(-0.122615 0.146723 0)
(-0.129712 0.187285 0)
(-0.156796 0.207644 0)
(-0.168559 0.239593 0)
(-0.199836 0.243096 0)
(-0.0812401 0.500078 0)
(-0.0582383 0.504643 0)
(-0.0448326 0.530177 0)
(-0.0174787 0.553515 0)
(0.00612653 0.577952 0)
(0.014031 0.594553 0)
(-0.00256993 0.593894 0)
(-0.0154546 0.567705 0)
(-0.0107294 0.528341 0)
(0.00597604 0.481454 0)
(0.0292495 0.431413 0)
(0.0513185 0.379586 0)
(0.0633068 0.325939 0)
(0.0591479 0.266725 0)
(0.0428391 0.197874 0)
(0.0321425 0.132877 0)
(0.0360524 0.0895904 0)
(0.044981 0.0619077 0)
(0.0549082 0.0410311 0)
(0.0640726 0.0226205 0)
(0.0716626 0.00604759 0)
(0.0798094 -0.00827249 0)
(0.0898993 -0.0196068 0)
(0.101901 -0.0281147 0)
(0.115549 -0.0337247 0)
(0.12954 -0.0394912 0)
(0.144884 -0.0404373 0)
(0.159223 -0.0449078 0)
(0.174476 -0.0448153 0)
(0.19035 -0.0471915 0)
(0.205491 -0.0441741 0)
(0.205189 -0.0453509 0)
(0.144607 -0.040856 0)
(0.0143226 -0.0218657 0)
(-0.0499655 0.0189165 0)
(-0.0852834 0.0650617 0)
(-0.0877419 0.122526 0)
(-0.116238 0.170951 0)
(-0.133873 0.22946 0)
(-0.173908 0.255827 0)
(-0.0648758 0.480536 0)
(-0.0409861 0.473028 0)
(-0.0323625 0.476379 0)
(-0.00800213 0.476468 0)
(0.0123135 0.472893 0)
(0.0130444 0.460843 0)
(-0.0199115 0.438379 0)
(-0.0604506 0.398398 0)
(-0.0588657 0.348045 0)
(-0.0450196 0.296894 0)
(-0.0230913 0.250549 0)
(-0.00921221 0.200986 0)
(0.00180267 0.146467 0)
(0.00199573 0.0860713 0)
(-0.00240804 0.0313051 0)
(0.000361122 -0.00514207 0)
(0.0132162 -0.0261209 0)
(0.0265482 -0.0430501 0)
(0.0398033 -0.0583207 0)
(0.050901 -0.0717922 0)
(0.0602705 -0.083875 0)
(0.0704783 -0.0943937 0)
(0.0826442 -0.102352 0)
(0.0963595 -0.108096 0)
(0.111112 -0.111172 0)
(0.126565 -0.115224 0)
(0.142807 -0.114583 0)
(0.158369 -0.117386 0)
(0.174568 -0.116258 0)
(0.191418 -0.117562 0)
(0.207205 -0.113409 0)
(0.208507 -0.112666 0)
(0.16083 -0.0998511 0)
(0.0548779 -0.0667125 0)
(-0.000377518 -0.0172444 0)
(-0.0312078 0.0316679 0)
(-0.03047 0.0885949 0)
(-0.0571853 0.141084 0)
(-0.0762709 0.211234 0)
(-0.121566 0.249507 0)
(-0.0666372 0.458268 0)
(-0.051441 0.423139 0)
(-0.0425782 0.388278 0)
(-0.0198594 0.35884 0)
(0.000897935 0.324941 0)
(-0.00556015 0.287504 0)
(-0.0387668 0.250731 0)
(-0.0898908 0.216207 0)
(-0.0928086 0.18415 0)
(-0.0791691 0.151646 0)
(-0.0564201 0.117351 0)
(-0.0436951 0.0732638 0)
(-0.0379994 0.0266911 0)
(-0.0365741 -0.0134888 0)
(-0.0290298 -0.0418973 0)
(-0.0149982 -0.0603248 0)
(0.000279365 -0.0743218 0)
(0.0157283 -0.0870947 0)
(0.0289321 -0.0988994 0)
(0.0404865 -0.108957 0)
(0.0512708 -0.118196 0)
(0.0627322 -0.127064 0)
(0.0758813 -0.134058 0)
(0.0903041 -0.139227 0)
(0.105498 -0.141812 0)
(0.121305 -0.146083 0)
(0.137978 -0.145586 0)
(0.154168 -0.14846 0)
(0.1707 -0.14791 0)
(0.187672 -0.149725 0)
(0.204031 -0.146111 0)
(0.208658 -0.145015 0)
(0.179255 -0.131582 0)
(0.0982555 -0.0972272 0)
(0.0480572 -0.0438608 0)
(0.018025 0.0070133 0)
(0.0262499 0.069722 0)
(0.00279603 0.142347 0)
(-0.00725607 0.222038 0)
(-0.0419427 0.261027 0)
(-0.0845213 0.438341 0)
(-0.0847805 0.389127 0)
(-0.0843343 0.342635 0)
(-0.0684497 0.301802 0)
(-0.0508875 0.255749 0)
(-0.0584157 0.208342 0)
(-0.0868281 0.16452 0)
(-0.132039 0.133189 0)
(-0.133962 0.108257 0)
(-0.122245 0.0792351 0)
(-0.104424 0.0487677 0)
(-0.094565 0.0149742 0)
(-0.085444 -0.0160625 0)
(-0.0738391 -0.0415516 0)
(-0.0566411 -0.0597797 0)
(-0.0381871 -0.0755975 0)
(-0.0193625 -0.090541 0)
(-0.00177616 -0.104694 0)
(0.0144476 -0.117299 0)
(0.0294198 -0.127245 0)
(0.0432747 -0.135759 0)
(0.0569433 -0.144336 0)
(0.0725206 -0.151616 0)
(0.0899555 -0.156666 0)
(0.107919 -0.158465 0)
(0.125789 -0.162449 0)
(0.143983 -0.161469 0)
(0.161541 -0.16369 0)
(0.179112 -0.162755 0)
(0.196834 -0.164079 0)
(0.214088 -0.160272 0)
(0.222925 -0.157162 0)
(0.20863 -0.14195 0)
(0.150939 -0.104228 0)
(0.104317 -0.0474268 0)
(0.0796878 0.00939809 0)
(0.0906872 0.0768536 0)
(0.0773883 0.149697 0)
(0.0741791 0.222639 0)
(0.0386708 0.25534 0)
(-0.10771 0.443936 0)
(-0.138312 0.398883 0)
(-0.140014 0.318428 0)
(-0.11162 0.257343 0)
(-0.0908821 0.197709 0)
(-0.0847868 0.145322 0)
(-0.106239 0.0973475 0)
(-0.137816 0.0628829 0)
(-0.14032 0.0387659 0)
(-0.133035 0.0128903 0)
(-0.120052 -0.0107662 0)
(-0.110343 -0.0351777 0)
(-0.0969185 -0.0556878 0)
(-0.0812069 -0.0730255 0)
(-0.0625513 -0.0871744 0)
(-0.0439349 -0.10155 0)
(-0.0259199 -0.115545 0)
(-0.00956673 -0.128524 0)
(0.0054028 -0.139316 0)
(0.0197833 -0.146925 0)
(0.0345379 -0.153463 0)
(0.0497294 -0.161191 0)
(0.0653809 -0.169005 0)
(0.0819735 -0.174707 0)
(0.0992296 -0.176763 0)
(0.116426 -0.181205 0)
(0.134395 -0.180558 0)
(0.152083 -0.182953 0)
(0.169964 -0.182379 0)
(0.187836 -0.183767 0)
(0.205074 -0.1802 0)
(0.218696 -0.178195 0)
(0.219357 -0.164972 0)
(0.191689 -0.132248 0)
(0.15517 -0.0758106 0)
(0.150215 -0.0143421 0)
(0.158158 0.0618492 0)
(0.172162 0.158499 0)
(0.164418 0.282886 0)
(0.0817261 0.326982 0)
(-0.4564 0.382413 0)
(-0.274312 0.426511 0)
(-0.243164 0.318991 0)
(-0.181629 0.250494 0)
(-0.163743 0.17954 0)
(-0.153154 0.116463 0)
(-0.169961 0.0604724 0)
(-0.185681 0.019276 0)
(-0.180607 -0.00515526 0)
(-0.16979 -0.0281633 0)
(-0.153132 -0.0440467 0)
(-0.138749 -0.0618355 0)
(-0.120594 -0.0745889 0)
(-0.102809 -0.0879832 0)
(-0.083695 -0.100925 0)
(-0.0649351 -0.114976 0)
(-0.0472111 -0.129075 0)
(-0.029784 -0.142293 0)
(-0.012754 -0.153544 0)
(0.00511041 -0.162411 0)
(0.0255415 -0.170848 0)
(0.0480854 -0.178054 0)
(0.0695319 -0.183567 0)
(0.0891117 -0.187521 0)
(0.107819 -0.188306 0)
(0.1259 -0.192065 0)
(0.144317 -0.190799 0)
(0.162463 -0.192358 0)
(0.180634 -0.191143 0)
(0.198732 -0.191574 0)
(0.216107 -0.187204 0)
(0.232411 -0.184808 0)
(0.242891 -0.1728 0)
(0.239041 -0.145369 0)
(0.221073 -0.0933189 0)
(0.226502 -0.024753 0)
(0.226459 0.0570906 0)
(0.289549 0.146876 0)
(0.31277 0.303886 0)
(0.414764 0.316794 0)
(-0.850887 0.906639 0)
(-0.319744 0.557921 0)
(-0.296344 0.250262 0)
(-0.215989 0.226536 0)
(-0.203207 0.154948 0)
(-0.186801 0.0743285 0)
(-0.194644 0.00129887 0)
(-0.19956 -0.0441847 0)
(-0.190533 -0.067592 0)
(-0.177986 -0.086298 0)
(-0.160003 -0.0961372 0)
(-0.143026 -0.10721 0)
(-0.122876 -0.114741 0)
(-0.10374 -0.124626 0)
(-0.0849428 -0.135941 0)
(-0.0667432 -0.149 0)
(-0.0488591 -0.16254 0)
(-0.0310729 -0.175179 0)
(-0.0130658 -0.185626 0)
(0.00547762 -0.193713 0)
(0.0239965 -0.201981 0)
(0.0430966 -0.208033 0)
(0.0620315 -0.211647 0)
(0.0805753 -0.214217 0)
(0.0990603 -0.214075 0)
(0.117162 -0.217221 0)
(0.135392 -0.215732 0)
(0.153353 -0.216993 0)
(0.171308 -0.215811 0)
(0.189337 -0.215914 0)
(0.206795 -0.211626 0)
(0.224518 -0.209127 0)
(0.241005 -0.200359 0)
(0.255938 -0.181195 0)
(0.255604 -0.136574 0)
(0.263222 -0.059524 0)
(0.257001 0.0225901 0)
(0.328466 0.0691907 0)
(0.322342 0.399513 0)
(0.805564 0.809824 0)
(-0.850887 -0.906639 0)
(-0.319744 -0.557921 0)
(-0.296344 -0.250262 0)
(-0.215989 -0.226536 0)
(-0.203207 -0.154948 0)
(-0.186801 -0.0743285 0)
(-0.194644 -0.00129887 0)
(-0.19956 0.0441847 0)
(-0.190533 0.067592 0)
(-0.177986 0.086298 0)
(-0.160003 0.0961372 0)
(-0.143026 0.10721 0)
(-0.122876 0.114741 0)
(-0.10374 0.124626 0)
(-0.0849428 0.135941 0)
(-0.0667432 0.149 0)
(-0.0488591 0.16254 0)
(-0.0310729 0.175179 0)
(-0.0130658 0.185626 0)
(0.00547762 0.193713 0)
(0.0239965 0.201981 0)
(0.0430966 0.208033 0)
(0.0620315 0.211647 0)
(0.0805753 0.214217 0)
(0.0990603 0.214075 0)
(0.117162 0.217221 0)
(0.135392 0.215732 0)
(0.153353 0.216993 0)
(0.171308 0.215811 0)
(0.189337 0.215914 0)
(0.206795 0.211626 0)
(0.224518 0.209127 0)
(0.241005 0.200359 0)
(0.255938 0.181195 0)
(0.255604 0.136574 0)
(0.263222 0.059524 0)
(0.257001 -0.0225901 0)
(0.328466 -0.0691907 0)
(0.322342 -0.399513 0)
(0.805564 -0.809824 0)
(-0.4564 -0.382413 0)
(-0.274312 -0.426511 0)
(-0.243164 -0.318991 0)
(-0.181629 -0.250494 0)
(-0.163743 -0.17954 0)
(-0.153154 -0.116463 0)
(-0.169961 -0.0604724 0)
(-0.185681 -0.019276 0)
(-0.180607 0.00515526 0)
(-0.16979 0.0281633 0)
(-0.153132 0.0440467 0)
(-0.138749 0.0618355 0)
(-0.120594 0.0745889 0)
(-0.102809 0.0879832 0)
(-0.083695 0.100925 0)
(-0.0649351 0.114976 0)
(-0.0472111 0.129075 0)
(-0.029784 0.142293 0)
(-0.012754 0.153544 0)
(0.00511041 0.162411 0)
(0.0255415 0.170848 0)
(0.0480854 0.178054 0)
(0.0695319 0.183567 0)
(0.0891117 0.187521 0)
(0.107819 0.188306 0)
(0.1259 0.192065 0)
(0.144317 0.190799 0)
(0.162463 0.192358 0)
(0.180634 0.191143 0)
(0.198732 0.191574 0)
(0.216107 0.187204 0)
(0.232411 0.184808 0)
(0.242891 0.1728 0)
(0.239041 0.145369 0)
(0.221073 0.0933189 0)
(0.226502 0.024753 0)
(0.226459 -0.0570906 0)
(0.289549 -0.146876 0)
(0.31277 -0.303886 0)
(0.414764 -0.316794 0)
(-0.10771 -0.443936 0)
(-0.138312 -0.398883 0)
(-0.140014 -0.318428 0)
(-0.11162 -0.257343 0)
(-0.0908821 -0.197709 0)
(-0.0847868 -0.145322 0)
(-0.106239 -0.0973475 0)
(-0.137816 -0.0628829 0)
(-0.14032 -0.0387659 0)
(-0.133035 -0.0128903 0)
(-0.120052 0.0107662 0)
(-0.110343 0.0351777 0)
(-0.0969185 0.0556878 0)
(-0.0812069 0.0730255 0)
(-0.0625513 0.0871744 0)
(-0.0439349 0.10155 0)
(-0.0259199 0.115545 0)
(-0.00956673 0.128524 0)
(0.0054028 0.139316 0)
(0.0197833 0.146925 0)
(0.0345379 0.153463 0)
(0.0497294 0.161191 0)
(0.0653809 0.169005 0)
(0.0819735 0.174707 0)
(0.0992296 0.176763 0)
(0.116426 0.181205 0)
(0.134395 0.180558 0)
(0.152083 0.182953 0)
(0.169964 0.182379 0)
(0.187836 0.183767 0)
(0.205074 0.1802 0)
(0.218696 0.178195 0)
(0.219357 0.164972 0)
(0.191689 0.132248 0)
(0.15517 0.0758106 0)
(0.150215 0.0143421 0)
(0.158158 -0.0618492 0)
(0.172162 -0.158499 0)
(0.164418 -0.282886 0)
(0.0817261 -0.326982 0)
(-0.0845213 -0.438341 0)
(-0.0847805 -0.389127 0)
(-0.0843343 -0.342635 0)
(-0.0684497 -0.301802 0)
(-0.0508875 -0.255749 0)
(-0.0584157 -0.208342 0)
(-0.0868281 -0.16452 0)
(-0.132039 -0.133189 0)
(-0.133962 -0.108257 0)
(-0.122245 -0.0792351 0)
(-0.104424 -0.0487677 0)
(-0.094565 -0.0149742 0)
(-0.085444 0.0160625 0)
(-0.0738391 0.0415516 0)
(-0.0566411 0.0597797 0)
(-0.0381871 0.0755975 0)
(-0.0193625 0.090541 0)
(-0.00177616 0.104694 0)
(0.0144476 0.117299 0)
(0.0294198 0.127245 0)
(0.0432747 0.135759 0)
(0.0569433 0.144336 0)
(0.0725206 0.151616 0)
(0.0899555 0.156666 0)
(0.107919 0.158465 0)
(0.125789 0.162449 0)
(0.143983 0.161469 0)
(0.161541 0.16369 0)
(0.179112 0.162755 0)
(0.196834 0.164079 0)
(0.214088 0.160272 0)
(0.222925 0.157162 0)
(0.20863 0.14195 0)
(0.150939 0.104228 0)
(0.104317 0.0474268 0)
(0.0796878 -0.00939809 0)
(0.0906872 -0.0768536 0)
(0.0773883 -0.149697 0)
(0.0741791 -0.222639 0)
(0.0386708 -0.25534 0)