/*--------------------------------*- C++ -*----------------------------------*\
| =========                 |                                                 |
| \\      /  F ield         | OpenFOAM: The Open Source CFD Toolbox           |
|  \\    /   O peration     | Version:  v1912                                 |
|   \\  /    A nd           | Website:  www.openfoam.com                      |
|    \\/     M anipulation  |                                                 |
\*---------------------------------------------------------------------------*/
FoamFile
{
    version     2.0;
    format      ascii;
    class       volVectorField;
    location    "1.38";
    object      grad(p);
}
// * * * * * * * * * * * * * * * * * * * * * * * * * * * * * * * * * * * * * //

dimensions      [1 -2 -2 0 0 0 0];


internalField   nonuniform List<vector> 
1900
(
(4.12182 -7.32225e-05 0)
(91.7937 -0.0118174 0)
(580.694 -0.216548 0)
(1507.4 -0.854112 0)
(2051.19 -1.40066 0)
(1676.06 -5.16936 0)
(1009.48 -12.8743 0)
(440.941 -54.8547 0)
(117.229 -118.844 0)
(-448.072 -166.315 0)
(4.10993 -0.000137782 0)
(91.5772 -0.0204895 0)
(579.852 -0.363473 0)
(1506.21 -1.42403 0)
(2046.88 -3.09457 0)
(1664.59 -12.1451 0)
(959.795 -22.3361 0)
(334.971 -67.0623 0)
(5.76832 -94.3065 0)
(-50.6792 -149.557 0)
(4.10119 1.01785e-08 0)
(91.4304 -2.37499e-08 0)
(579.291 1.71063e-08 0)
(1504.66 -7.90479e-09 0)
(2040.47 1.77636e-09 0)
(1656.82 7.10543e-11 0)
(954.563 -3.90799e-10 0)
(368.97 -1.86517e-09 0)
(34.7338 -3.55271e-11 0)
(-82.161 -6.75016e-10 0)
(4.10993 0.000137799 0)
(91.5772 0.0204894 0)
(579.852 0.363473 0)
(1506.21 1.42403 0)
(2046.88 3.09457 0)
(1664.59 12.1451 0)
(959.795 22.3361 0)
(334.971 67.0623 0)
(5.76832 94.3065 0)
(-50.6792 149.557 0)
(4.12182 7.32283e-05 0)
(91.7937 0.0118174 0)
(580.694 0.216548 0)
(1507.4 0.854112 0)
(2051.19 1.40066 0)
(1676.06 5.16936 0)
(1009.48 12.8743 0)
(440.941 54.8547 0)
(117.229 118.844 0)
(-448.072 166.315 0)
(-358.076 201.856 1.04646e-11)
(112.04 182.496 -1.27433e-11)
(-743.792 131.132 -1.61144e-11)
(-5678.43 837.694 0)
(-1509.48 7247.29 -6.44573e-11)
(37.909 199.684 1.05011e-11)
(-53.8826 100.237 1.27433e-11)
(-387.794 -48.1752 1.61144e-11)
(-2618.24 272.886 0)
(-804.99 6145.92 0)
(-1.13021 -2.73533e-10 0)
(-147.708 7.79104e-10 0)
(-607.506 -1.13489e-09 0)
(-2558.86 1.7158e-09 0)
(2403.98 -5.81545e-10 0)
(37.909 -199.684 1.05011e-11)
(-53.8826 -100.237 1.27433e-11)
(-387.794 48.1752 1.61144e-11)
(-2618.24 -272.886 0)
(-804.99 -6145.92 0)
(-358.076 -201.856 -3.14668e-11)
(112.04 -182.496 -1.27433e-11)
(-743.792 -131.132 -1.61144e-11)
(-5678.43 -837.694 -4.36015e-11)
(-1509.48 -7247.29 6.44573e-11)
(8469.46 -3290.36 3.14575e-11)
(719.1 -486.581 -2.65283e-11)
(1419.73 -65.2879 0)
(2189.49 1168.43 2.07963e-11)
(-6626.69 -3379.38 -9.52566e-12)
(5915.81 -3397.2 -1.56792e-11)
(1476.62 -361.594 1.32568e-11)
(2013.74 -211.279 0)
(678.491 507.647 -1.30235e-11)
(-6594.97 -7328.15 2.3008e-12)
(6535.59 -7.1772e-10 0)
(1481.78 -7.59127e-10 0)
(1723.95 1.18424e-09 0)
(-1080.3 -1.91568e-09 5.21551e-12)
(-8684.67 -5.34985e-09 -4.60159e-12)
(5915.81 3397.2 -1.56792e-11)
(1476.62 361.594 1.32568e-11)
(2013.74 211.279 0)
(678.491 -507.647 -1.30235e-11)
(-6594.97 7328.15 2.3008e-12)
(8469.46 3290.36 1.56792e-11)
(719.1 486.581 1.46542e-14)
(1419.73 65.2879 0)
(2189.49 -1168.43 3.51894e-14)
(-6626.69 3379.38 9.52566e-12)
(-24280 -8495.17 0)
(-14893.3 7530.49 0)
(1927.9 3761.8 0)
(421.005 1187.24 0)
(1246.87 381.084 0)
(2442.91 422.804 0)
(3225.72 64.2388 0)
(4065.08 35.5138 0)
(4447.66 30.6296 0)
(4416.66 36.2444 0)
(3751.51 32.8904 0)
(2387.21 20.0087 0)
(944.074 6.10473 0)
(181.256 0.613161 0)
(11.8671 0.0130711 0)
(0.175661 4.0383e-05 0)
(0.000401075 1.14656e-08 0)
(1.02488e-07 0 0)
(0 -9.68922e-11 0)
(-1.61487e-11 3.22974e-11 0)
(0 -3.22974e-11 0)
(0 6.45948e-11 0)
(-1.3883e-07 0 0)
(-0.000521705 -4.26326e-09 0)
(-0.217532 3.35893e-09 0)
(-14.0724 -3.6819e-09 0)
(-207.503 3.52042e-09 0)
(-1053.1 -8.33273e-09 0)
(-2616.07 4.81231e-09 0)
(-4072.22 -1.01737e-08 0)
(-4806.79 1.93784e-10 0)
(-4952.58 4.52164e-10 0)
(-4794.01 7.75138e-10 0)
(-4476.9 2.58379e-10 0)
(-4046.46 -1.97014e-09 0)
(-3520.54 -7.10543e-10 0)
(-2919.2 -2.05088e-09 0)
(-3188.41 -6.29799e-10 0)
(38954.1 -2.77758e-09 0)
(-63740.6 -5.74894e-09 0)
(-21800.4 -4058.83 0)
(-14842.4 10290.4 0)
(824.734 3206.68 0)
(-176.12 597.239 0)
(1177.52 263.138 0)
(2400.15 162.014 0)
(3186.26 26.0915 0)
(4063.22 10.18 0)
(4449.24 9.9714 0)
(4417.55 15.8636 0)
(3749.76 14.6667 0)
(2384.61 8.64007 0)
(942.338 2.65885 0)
(180.712 0.275717 0)
(11.8107 0.00606934 0)
(0.174424 1.9221e-05 0)
(0.000397172 8.75259e-09 0)
(1.008e-07 0 0)
(2.4223e-11 -3.22974e-11 0)
(0 -3.22974e-11 0)
(0 0 0)
(-1.61487e-11 -3.22974e-11 0)
(-1.39928e-07 0 0)
(-0.000521705 -6.1688e-09 0)
(-0.217532 3.29433e-09 0)
(-14.0724 -3.03596e-09 0)
(-207.503 4.03717e-09 0)
(-1053.1 -5.94272e-09 0)
(-2616.07 3.19744e-09 0)
(-4072.22 -9.20476e-09 0)
(-4806.79 2.55149e-09 0)
(-4952.58 1.13041e-09 0)
(-4794.01 1.74406e-09 0)
(-4476.9 -1.16271e-09 0)
(-4046.46 -1.74406e-09 0)
(-3520.54 3.06825e-10 0)
(-2919.2 -1.2919e-10 0)
(-3188.41 1.61487e-10 0)
(38954.1 -5.49056e-10 0)
(-63740.6 -7.75138e-10 0)
(-19077.7 1.71176e-09 0)
(-12779.7 7.75138e-10 0)
(-891.929 3.55271e-10 0)
(-435.299 8.39732e-10 0)
(1120.25 4.19866e-10 0)
(2373.95 -1.35649e-09 0)
(3181.55 -1.61487e-10 0)
(4060.39 9.04327e-10 0)
(4449.31 7.75138e-10 0)
(4418.03 1.35649e-09 0)
(3749.41 -4.52164e-10 0)
(2383.71 -9.68922e-11 0)
(941.64 2.77758e-09 0)
(180.484 1.03352e-09 0)
(11.7869 3.55271e-09 0)
(0.173895 5.84583e-09 0)
(0.000395484 4.16636e-09 0)
(9.99281e-08 0 0)
(0 0 0)
(0 -3.22974e-11 0)
(0 0 0)
(0 -3.22974e-11 0)
(-1.40591e-07 -6.45948e-11 0)
(-0.000521704 -4.26326e-09 0)
(-0.217532 1.06581e-09 0)
(-14.0724 -2.90677e-10 0)
(-207.503 4.06947e-09 0)
(-1053.1 -7.13772e-09 0)
(-2616.07 5.0061e-09 0)
(-4072.22 -5.68434e-09 0)
(-4806.79 3.10055e-09 0)
(-4952.58 -5.49056e-10 0)
(-4794.01 1.2919e-09 0)
(-4476.9 -3.87569e-10 0)
(-4046.46 -1.2919e-10 0)
(-3520.54 -1.93784e-10 0)
(-2919.2 4.84461e-11 0)
(-3188.41 2.74528e-10 0)
(38954.1 -2.58379e-10 0)
(-63740.6 2.71298e-09 0)
(-21800.4 4058.83 0)
(-14842.4 -10290.4 0)
(824.734 -3206.68 0)
(-176.12 -597.239 0)
(1177.52 -263.138 0)
(2400.15 -162.014 0)
(3186.26 -26.0915 0)
(4063.22 -10.18 0)
(4449.24 -9.9714 0)
(4417.55 -15.8636 0)
(3749.76 -14.6667 0)
(2384.61 -8.64007 0)
(942.338 -2.65885 0)
(180.712 -0.275717 0)
(11.8107 -0.00606934 0)
(0.174424 -1.92136e-05 0)
(0.000397171 -7.493e-09 0)
(9.9589e-08 0 0)
(0 0 0)
(0 0 0)
(0 0 0)
(-2.4223e-11 0 0)
(-1.41164e-07 0 0)
(-0.000521704 -2.4869e-09 0)
(-0.217532 7.4284e-10 0)
(-14.0724 -4.84461e-10 0)
(-207.503 4.48934e-09 0)
(-1053.1 -5.91042e-09 0)
(-2616.07 7.75138e-09 0)
(-4072.22 -6.03961e-09 0)
(-4806.79 3.7788e-09 0)
(-4952.58 2.39001e-09 0)
(-4794.01 1.64717e-09 0)
(-4476.9 1.00122e-09 0)
(-4046.46 2.90677e-10 0)
(-3520.54 -9.52773e-10 0)
(-2919.2 -2.00244e-09 0)
(-3188.41 9.20476e-10 0)
(38954.1 9.85071e-10 0)
(-63740.6 -2.39001e-09 0)
(-24280 8495.17 0)
(-14893.3 -7530.49 0)
(1927.9 -3761.8 0)
(421.005 -1187.24 0)
(1246.87 -381.084 0)
(2442.91 -422.804 0)
(3225.72 -64.2388 0)
(4065.08 -35.5138 0)
(4447.66 -30.6296 0)
(4416.66 -36.2444 0)
(3751.51 -32.8904 0)
(2387.21 -20.0087 0)
(944.074 -6.10473 0)
(181.256 -0.613161 0)
(11.8671 -0.0130711 0)
(0.175661 -4.03789e-05 0)
(0.000401073 -1.4663e-08 0)
(1.02132e-07 0 0)
(0 0 0)
(1.61487e-11 3.22974e-11 0)
(-1.61487e-11 0 0)
(0 0 0)
(-1.41341e-07 6.45948e-11 0)
(-0.000521704 2.26082e-09 0)
(-0.217532 4.52164e-10 0)
(-14.0724 -4.19866e-10 0)
(-207.503 5.32907e-09 0)
(-1053.1 -4.65083e-09 0)
(-2616.07 8.62341e-09 0)
(-4072.22 -1.87325e-09 0)
(-4806.79 3.7788e-09 0)
(-4952.58 3.7465e-09 0)
(-4794.01 2.55149e-09 0)
(-4476.9 -2.26082e-10 0)
(-4046.46 5.16758e-10 0)
(-3520.54 3.22974e-11 0)
(-2919.2 1.16271e-09 0)
(-3188.41 1.2596e-09 0)
(38954.1 2.79372e-09 0)
(-63740.6 1.2273e-09 0)
(55379.6 15194.8 0)
(-22472.1 -5444.53 0)
(3528.15 -2952.39 0)
(1254.08 -1779.92 0)
(1576.86 -675.241 0)
(2549.46 -593.474 0)
(3383.56 -177.936 0)
(4082.14 -103.414 0)
(4450.6 -76.8218 0)
(4417.15 -70.2616 0)
(3757.92 -57.87 0)
(2398.41 -33.502 0)
(952.496 -9.78339 0)
(183.905 -0.946652 0)
(12.1301 -0.0196467 0)
(0.181193 -5.95552e-05 0)
(0.000417987 -1.68385e-08 0)
(1.05828e-07 0 0)
(0 0 0)
(0 -9.75016e-12 0)
(0 0 0)
(0 0 0)
(-1.39535e-07 0 0)
(-0.000521705 3.33455e-09 0)
(-0.217532 -7.11762e-10 0)
(-14.0724 5.85009e-11 0)
(-207.503 4.45582e-09 0)
(-1053.1 -3.90006e-09 0)
(-2616.07 3.88056e-09 0)
(-4072.22 8.67764e-10 0)
(-4806.79 1.48202e-09 0)
(-4952.58 1.87203e-09 0)
(-4794.01 9.94516e-10 0)
(-4476.9 6.63011e-10 0)
(-4046.46 -9.65266e-10 0)
(-3520.54 5.60634e-10 0)
(-2919.2 1.65753e-09 0)
(-3188.41 4.48507e-10 0)
(38954.1 -7.89763e-10 0)
(-63740.6 2.30104e-09 0)
(57859.7 9820.3 0)
(-28316.6 -2578.05 0)
(4601.14 -2155.83 0)
(2168.63 -1630.7 0)
(2213.22 -923.748 0)
(2865 -598.065 0)
(3613.33 -312.124 0)
(4153.37 -199.283 0)
(4478.03 -146.37 0)
(4434.67 -116.278 0)
(3783.49 -83.4896 0)
(2427.54 -43.2972 0)
(970.929 -11.7421 0)
(189.244 -1.08546 0)
(12.6382 -0.0218927 0)
(0.191627 -6.50038e-05 0)
(0.000449393 -2.40146e-08 0)
(1.16349e-07 0 0)
(0 0 0)
(0 0 0)
(0 0 0)
(0 0 0)
(-1.39096e-07 0 0)
(-0.000521704 1.56003e-10 0)
(-0.217532 -1.70628e-09 0)
(-14.0724 1.30652e-09 0)
(-207.503 -4.48507e-09 0)
(-1053.1 5.07983e-09 0)
(-2616.07 -5.50884e-09 0)
(-4072.22 2.26204e-09 0)
(-4806.79 -8.67764e-10 0)
(-4952.58 1.36502e-09 0)
(-4794.01 1.54052e-09 0)
(-4476.9 9.55515e-10 0)
(-4046.46 3.70506e-10 0)
(-3520.54 3.21755e-10 0)
(-2919.2 -1.75503e-10 0)
(-3188.41 1.46252e-11 0)
(38954.1 1.80378e-10 0)
(-63740.6 4.29007e-10 0)
(62358.5 9275.81 0)
(-34012.7 -713.526 0)
(4441.04 -1318.57 0)
(2441.36 -1201.28 0)
(2571.94 -910.828 0)
(3138.84 -582.133 0)
(3767.84 -399.07 0)
(4241.87 -277.408 0)
(4530.59 -205.305 0)
(4477.74 -150.9 0)
(3828.25 -98.1404 0)
(2467.55 -46.426 0)
(993.173 -11.6859 0)
(195.199 -1.02089 0)
(13.1761 -0.0201404 0)
(0.202289 -6.39076e-05 0)
(0.000480627 -5.02465e-06 0)
(1.28985e-07 -5.00616e-06 0)
(0 -5.00281e-06 0)
(0 -5.00268e-06 0)
(0 -5.00427e-06 0)
(0 -5.00291e-06 0)
(-1.39408e-07 -5.00616e-06 0)
(-0.000521707 -5.00359e-06 0)
(-0.217532 -5.00579e-06 0)
(-14.0724 -5.02596e-06 0)
(-207.503 -5.00262e-06 0)
(-1053.1 -4.96032e-06 0)
(-2616.07 -4.74125e-06 0)
(-4072.22 -4.19707e-06 0)
(-4806.79 -3.38526e-06 0)
(-4952.58 -2.47145e-06 0)
(-4794.01 -1.62587e-06 0)
(-4476.9 -9.72851e-07 0)
(-4046.46 -5.3151e-07 0)
(-3520.54 -2.74506e-07 0)
(-2919.2 -1.31461e-07 0)
(-3188.41 -6.16015e-08 0)
(38954.1 -1.07593e-08 0)
(-63740.6 -8.32663e-09 0)
(66110.7 5927.08 0)
(-38525.7 -344.459 0)
(4131.12 -967.899 0)
(2561.54 -1006.35 0)
(2809.85 -837.619 0)
(3358.15 -593.606 0)
(3906.97 -436.655 0)
(4340.09 -315.637 0)
(4599.94 -231.047 0)
(4537.93 -160.648 0)
(3884.17 -95.8296 0)
(2510.85 -41.476 0)
(1014.68 -9.60712 0)
(200.485 -0.783227 0)
(13.6219 -0.0219239 0)
(0.21103 -0.00748934 0)
(0.000506152 -0.00744618 0)
(1.37409e-07 -0.00744617 0)
(3.37355e-09 -0.00744617 0)
(-1.41377e-09 -0.00744617 0)
(-2.34004e-10 -0.00744617 0)
(-1.81353e-09 -0.00744617 0)
(-1.3973e-07 -0.00744617 0)
(-0.000521703 -0.00744617 0)
(-0.217532 -0.00744617 0)
(-14.0724 -0.00744613 0)
(-207.503 -0.00744193 0)
(-1053.1 -0.00738094 0)
(-2616.07 -0.00708325 0)
(-4072.22 -0.00639122 0)
(-4806.79 -0.00535362 0)
(-4952.58 -0.00415126 0)
(-4794.01 -0.00298016 0)
(-4476.9 -0.00198716 0)
(-4046.46 -0.00123997 0)
(-3520.54 -0.000740741 0)
(-2919.2 -0.000412874 0)
(-3188.41 -0.000230603 0)
(38954.1 -5.50423e-05 0)
(-63740.6 -1.13188e-05 0)
(67738.1 1848.47 0)
(-40656.9 -217.93 0)
(3803.22 -779.784 0)
(2566.9 -911.666 0)
(2969.68 -766.89 0)
(3525.22 -586.312 0)
(4035.7 -443.293 0)
(4440 -326.971 0)
(4679.94 -235.891 0)
(4608.04 -157.171 0)
(3943.09 -85.914 0)
(2550.64 -33.08 0)
(1032.39 -7.72769 0)
(204.435 -1.87293 0)
(13.9236 -1.41581 0)
(0.21624 -1.40821 0)
(0.000522231 -1.40819 0)
(1.36814e-07 -1.40819 0)
(1.95003e-09 -1.40819 0)
(-1.67703e-09 -1.40819 0)
(-1.46252e-09 -1.40819 0)
(2.45704e-09 -1.40819 0)
(-1.43435e-07 -1.40819 0)
(-0.000521708 -1.40819 0)
(-0.217532 -1.40819 0)
(-14.0724 -1.40818 0)
(-207.503 -1.40743 0)
(-1053.1 -1.39682 0)
(-2616.07 -1.34689 0)
(-4072.22 -1.23437 0)
(-4806.79 -1.06814 0)
(-4952.58 -0.873238 0)
(-4794.01 -0.675416 0)
(-4476.9 -0.495728 0)
(-4046.46 -0.347038 0)
(-3520.53 -0.235541 0)
(-2919.2 -0.151725 0)
(-3188.41 -0.0994305 0)
(38954.1 -0.0304722 0)
(-63740.6 -0.0148344 0)
(67681.9 -519.472 0)
(-41058.4 -194.621 0)
(3462.62 -835.831 0)
(2573.96 -884.797 0)
(3123.38 -747.775 0)
(3669.98 -608.753 0)
(4156.88 -468.936 0)
(4539.95 -341.379 0)
(4763.56 -236.202 0)
(4682.46 -154.955 0)
(4003.75 -100.071 0)
(2586.19 -64.9603 0)
(1044.75 -50.6499 0)
(206.568 -48.1412 0)
(14.0697 -47.9902 0)
(0.218374 -47.9883 0)
(0.000526326 -47.9883 0)
(1.44575e-07 -47.9883 0)
(3.0128e-09 -47.9883 0)
(4.94333e-09 -47.9883 0)
(6.13285e-09 -47.9883 0)
(5.27484e-09 -47.9883 0)
(-1.49246e-07 -47.9883 0)
(-0.00052167 -47.9883 0)
(-0.217521 -47.9883 0)
(-14.0717 -47.9879 0)
(-207.492 -47.9632 0)
(-1053.04 -47.6241 0)
(-2615.91 -46.0913 0)
(-4071.95 -42.7672 0)
(-4806.44 -37.9868 0)
(-4952.2 -32.408 0)
(-4793.65 -26.6233 0)
(-4476.58 -21.1191 0)
(-4046.21 -16.2308 0)
(-3520.35 -12.2213 0)
(-2919.07 -8.88328 0)
(-3188.29 -6.63138 0)
(38954.2 -2.59309 0)
(-63740.5 -2.59548 0)
(67049.9 -1648.61 0)
(-40961.8 -390.534 0)
(3138.14 -988.775 0)
(2651.76 -888.956 0)
(3235.68 -756.493 0)
(3793.92 -627.371 0)
(4293.35 -534.931 0)
(4664.27 -476.525 0)
(4859.59 -440.104 0)
(4739.22 -422.662 0)
(4029.81 -424.027 0)
(2598.26 -432.671 0)
(1048.59 -438.591 0)
(206.998 -440.485 0)
(14.0709 -440.682 0)
(0.218025 -440.686 0)
(0.000524165 -440.686 0)
(1.39301e-07 -440.686 0)
(-2.21329e-09 -440.686 0)
(-6.01585e-09 -440.686 0)
(-5.64534e-09 -440.686 0)
(-4.32907e-09 -440.686 0)
(-1.33411e-07 -440.686 0)
(-0.000520729 -440.686 0)
(-0.217142 -440.686 0)
(-14.0482 -440.683 0)
(-207.152 -440.455 0)
(-1051.3 -437.451 0)
(-2611.39 -424.423 0)
(-4064.41 -397.325 0)
(-4796.8 -359.695 0)
(-4941.63 -316.617 0)
(-4783.13 -271.894 0)
(-4466.88 -228.398 0)
(-4037.89 -188.09 0)
(-3513.45 -153.008 0)
(-2913.81 -122.015 0)
(-3182.35 -100.217 0)
(38958 -49.4211 0)
(-63735.6 -88.2015 0)
(65716.9 -2812.85 0)
(-40422.6 -737.893 0)
(2982.32 -1056.88 0)
(2797.8 -1036.37 0)
(3375.45 -1043.22 0)
(3883.48 -1049.72 0)
(4302.24 -1098.94 0)
(4631.33 -1182.81 0)
(4815.47 -1285.23 0)
(4697.95 -1392.39 0)
(3994.1 -1490.89 0)
(2572.16 -1571.07 0)
(1037.23 -1613.74 0)
(204.552 -1624.4 0)
(13.8756 -1625.28 0)
(0.214418 -1625.29 0)
(0.000513738 -1625.29 0)
(1.41017e-07 -1625.29 0)
(7.31262e-10 -1625.29 0)
(4.60207e-09 -1625.29 0)
(3.54906e-09 -1625.29 0)
(4.18282e-09 -1625.29 0)
(-1.45589e-07 -1625.29 0)
(-0.000511891 -1625.29 0)
(-0.213798 -1625.29 0)
(-13.8489 -1625.28 0)
(-204.378 -1624.41 0)
(-1037.59 -1613.38 0)
(-2577.25 -1567.47 0)
(-4009.58 -1475.82 0)
(-4728.67 -1353.18 0)
(-4867.6 -1216.54 0)
(-4708.64 -1076.5 0)
(-4395.83 -939.955 0)
(-3973.56 -811.176 0)
(-3456.67 -695.592 0)
(-2868.2 -591.846 0)
(-3118.34 -517.203 0)
(38965.8 -313.841 0)
(-63607.9 -841.321 0)
(63628.3 -4719.75 0)
(-39269.7 -1270.47 0)
(2850.51 -1546.78 0)
(2664.92 -1661.1 0)
(3222.82 -1813.68 0)
(3740.23 -1980.94 0)
(4165.11 -2156.93 0)
(4484.76 -2346.73 0)
(4657.62 -2557.42 0)
(4541.03 -2779.36 0)
(3857.63 -2991.62 0)
(2479.88 -3160.32 0)
(997.196 -3250.48 0)
(195.883 -3273.36 0)
(13.2119 -3275.25 0)
(0.202653 -3275.28 0)
(0.000481322 -3275.28 0)
(1.35498e-07 -3275.28 0)
(7.50762e-10 -3275.28 0)
(-3.70506e-10 -3275.28 0)
(5.16758e-10 -3275.28 0)
(-8.19013e-10 -3275.28 0)
(-1.32202e-07 -3275.28 0)
(-0.000480885 -3275.28 0)
(-0.202449 -3275.28 0)
(-13.1982 -3275.25 0)
(-195.689 -3273.39 0)
(-996.424 -3250.59 0)
(-2478.83 -3159.51 0)
(-3857.92 -2984.94 0)
(-4546.96 -2759.75 0)
(-4675.01 -2516.01 0)
(-4516.6 -2271.03 0)
(-4211.21 -2034.15 0)
(-3802.41 -1810.73 0)
(-3302.1 -1608.22 0)
(-2741.91 -1429.59 0)
(-2914.45 -1296.89 0)
(38645.7 -939.673 0)
(-62622.4 -3245.6 0)
(59944.5 -7547.08 0)
(-37365 -1913.12 0)
(2605.89 -2213.53 0)
(2540.6 -2342.14 0)
(3067.24 -2504.85 0)
(3552.71 -2709.74 0)
(3949.75 -2950.06 0)
(4245.4 -3215.6 0)
(4398.57 -3502.5 0)
(4279.54 -3801.54 0)
(3627 -4089.88 0)
(2322.71 -4322.44 0)
(928.293 -4449.2 0)
(180.682 -4482.24 0)
(12.0263 -4485.03 0)
(0.181279 -4485.08 0)
(0.000421587 -4485.08 0)
(1.0929e-07 -4485.08 0)
(-1.90128e-09 -4485.08 0)
(-8.58014e-10 -4485.08 0)
(5.36259e-10 -4485.08 0)
(4.68008e-10 -4485.08 0)
(-1.10869e-07 -4485.08 0)
(-0.000421709 -4485.08 0)
(-0.181288 -4485.08 0)
(-12.0244 -4485.03 0)
(-180.621 -4482.26 0)
(-927.852 -4449.4 0)
(-2321.25 -4323.09 0)
(-3624.35 -4090.4 0)
(-4276.79 -3800.11 0)
(-4396.66 -3493.97 0)
(-4244.3 -3192.01 0)
(-3952.26 -2903.74 0)
(-3563.12 -2634.82 0)
(-3089.39 -2392.93 0)
(-2568.19 -2187.01 0)
(-2646.24 -2025.58 0)
(37087.9 -1697.49 0)
(-59574.8 -6770.22 0)
(54512.1 -9795.87 0)
(-34130.1 -2284.6 0)
(2437.1 -2431.74 0)
(2384.2 -2584.77 0)
(2868.59 -2769.15 0)
(3311.21 -3004.23 0)
(3677.63 -3272.32 0)
(3952.41 -3569.4 0)
(4092.99 -3883.43 0)
(3975.01 -4206.91 0)
(3355.68 -4520.16 0)
(2133.63 -4778.28 0)
(843.203 -4923.07 0)
(161.361 -4961.87 0)
(10.4803 -4965.19 0)
(0.152975 -4965.25 0)
(0.000342226 -4965.25 0)
(9.05302e-08 -4965.25 0)
(-4.77758e-10 -4965.25 0)
(-1.12127e-09 -4965.25 0)
(-9.75016e-12 -4965.25 0)
(1.65753e-10 -4965.25 0)
(-8.90872e-08 -4965.25 0)
(-0.000342343 -4965.25 0)
(-0.153008 -4965.25 0)
(-10.4812 -4965.19 0)
(-161.354 -4961.87 0)
(-843.046 -4923.14 0)
(-2132.88 -4778.72 0)
(-3353.95 -4521.52 0)
(-3972.21 -4209.38 0)
(-4089.02 -3886.08 0)
(-3947.84 -3571.27 0)
(-3674.28 -3272.93 0)
(-3310.18 -3000.26 0)
(-2870.57 -2755.86 0)
(-2387.92 -2554.96 0)
(-2442.73 -2387.99 0)
(34073.6 -2214.49 0)
(-54462.6 -9475.72 0)
(48303.3 -10430.3 0)
(-30268.6 -2396 0)
(2316.64 -2455.63 0)
(2215.46 -2610.96 0)
(2663.02 -2801.3 0)
(3067.84 -3029.22 0)
(3405.14 -3293.49 0)
(3656.51 -3583.15 0)
(3784.24 -3892.8 0)
(3665.96 -4211.72 0)
(3076.41 -4523.12 0)
(1934.45 -4784.9 0)
(751.378 -4935.43 0)
(140.095 -4976.39 0)
(8.76383 -4979.89 0)
(0.121786 -4979.96 0)
(0.000256811 -4979.96 0)
(5.9164e-08 -4979.96 0)
(-1.03352e-09 -4979.96 0)
(-6.82511e-10 -4979.96 0)
(8.67764e-10 -4979.96 0)
(8.48264e-10 -4979.96 0)
(-5.86764e-08 -4979.96 0)
(-0.00025685 -4979.96 0)
(-0.121802 -4979.96 0)
(-8.76462 -4979.89 0)
(-140.1 -4976.39 0)
(-751.359 -4935.44 0)
(-1934.24 -4785.07 0)
(-3075.72 -4523.89 0)
(-3664.46 -4213.53 0)
(-3781.75 -3896.01 0)
(-3653.44 -3588.24 0)
(-3402.02 -3300.29 0)
(-3064.84 -3036.32 0)
(-2660.28 -2807.35 0)
(-2213.7 -2613.88 0)
(-2318.15 -2456.27 0)
(30257.9 -2393.75 0)
(-48309.7 -10372.7 0)
(42152.2 -10411.5 0)
(-26445.4 -2329.07 0)
(2229.95 -2359.31 0)
(2051.1 -2501.91 0)
(2465.54 -2685.38 0)
(2836.92 -2909.25 0)
(3143.84 -3150.41 0)
(3374.89 -3426.22 0)
(3487.28 -3717.37 0)
(3367.61 -4020.52 0)
(2803.34 -4318.69 0)
(1736.31 -4573.39 0)
(658.673 -4722.01 0)
(118.518 -4762.39 0)
(7.04412 -4765.77 0)
(0.0915626 -4765.82 0)
(0.000178192 -4765.82 0)
(3.85034e-08 -4765.82 0)
(1.07252e-10 -4765.82 0)
(-7.80013e-11 -4765.82 0)
(2.04753e-10 -4765.82 0)
(5.07008e-10 -4765.82 0)
(-3.84936e-08 -4765.82 0)
(-0.000178199 -4765.82 0)
(-0.0915664 -4765.82 0)
(-7.04439 -4765.77 0)
(-118.522 -4762.39 0)
(-658.683 -4722.01 0)
(-1736.29 -4573.41 0)
(-2803.19 -4318.92 0)
(-3367.16 -4021.28 0)
(-3486.47 -3719.13 0)
(-3373.78 -3429.44 0)
(-3142.44 -3155.12 0)
(-2835.16 -2915.3 0)
(-2463.48 -2692.62 0)
(-2049.6 -2510.13 0)
(-2230.61 -2367.93 0)
(26444.9 -2336.02 0)
(-42160.4 -10408.6 0)
(36026.1 -9585.75 0)
(-22509.2 -2138.31 0)
(2150.08 -2220.47 0)
(1901.24 -2315.09 0)
(2270.5 -2498.65 0)
(2619.72 -2700.12 0)
(2906.97 -2928.85 0)
(3110.16 -3174.22 0)
(3211.55 -3442.03 0)
(3086.51 -3721.23 0)
(2543.65 -4000.14 0)
(1545.79 -4241.88 0)
(569.246 -4383.56 0)
(97.9321 -4421.33 0)
(5.45681 -4424.35 0)
(0.0652118 -4424.4 0)
(0.000114737 -4424.4 0)
(2.26496e-08 -4424.4 0)
(5.16758e-10 -4424.4 0)
(-1.04327e-09 -4424.4 0)
(2.63254e-10 -4424.4 0)
(-1.75503e-10 -4424.4 0)
(-2.12553e-08 -4424.4 0)
(-0.000114738 -4424.4 0)
(-0.0652118 -4424.4 0)
(-5.45684 -4424.35 0)
(-97.9331 -4421.33 0)
(-569.253 -4383.55 0)
(-1545.81 -4241.87 0)
(-2543.66 -4000.16 0)
(-3086.48 -3721.4 0)
(-3211.44 -3442.56 0)
(-3109.95 -3175.29 0)
(-2906.58 -2930.55 0)
(-2619.16 -2702.61 0)
(-2269.84 -2502.1 0)
(-1900.81 -2319.63 0)
(-2150.37 -2225.4 0)
(22509.6 -2142.16 0)
(-36028.5 -9590.03 0)
(30854.5 -8669.33 0)
(-19347.9 -1828.38 0)
(2059.6 -2004.68 0)
(1783.03 -2056.21 0)
(2094.51 -2228.53 0)
(2422.37 -2428.45 0)
(2686.98 -2633.55 0)
(2880.37 -2855.63 0)
(2960.16 -3092.43 0)
(2829.8 -3343.29 0)
(2301.62 -3597.2 0)
(1366.83 -3820.2 0)
(485.746 -3950.15 0)
(79.21 -3983.62 0)
(4.08809 -3986.13 0)
(0.0442331 -3986.17 0)
(6.9092e-05 -3986.17 0)
(1.17148e-08 -3986.17 0)
(7.80013e-11 -3986.17 0)
(-2.04753e-10 -3986.17 0)
(4.53382e-10 -3986.17 0)
(-1.56003e-10 -3986.17 0)
(-1.12078e-08 -3986.17 0)
(-6.90937e-05 -3986.17 0)
(-0.0442327 -3986.17 0)
(-4.08808 -3986.13 0)
(-79.21 -3983.62 0)
(-485.747 -3950.15 0)
(-1366.84 -3820.19 0)
(-2301.65 -3597.18 0)
(-2829.84 -3343.28 0)
(-2960.21 -3092.47 0)
(-2880.39 -2855.77 0)
(-2686.95 -2633.86 0)
(-2422.29 -2429.04 0)
(-2094.43 -2229.45 0)
(-1782.97 -2057.51 0)
(-2059.59 -2006.05 0)
(19348.1 -1829.32 0)
(-30854.8 -8670.98 0)
(25910.1 -7402.66 0)
(-16086.9 -1517.51 0)
(1930.53 -1722.75 0)
(1685.53 -1786.42 0)
(1911.79 -1903.94 0)
(2229.43 -2091.14 0)
(2495.33 -2272.63 0)
(2667.97 -2472.73 0)
(2741.62 -2675.57 0)
(2600.1 -2890.59 0)
(2084.08 -3110.98 0)
(1205.68 -3309.62 0)
(411.772 -3425.86 0)
(63.2636 -3454.72 0)
(2.9998 -3456.73 0)
(0.029092 -3456.76 0)
(3.98622e-05 -3456.76 0)
(5.37721e-09 -3456.76 0)
(-1.95003e-11 -3456.76 0)
(3.1688e-10 -3456.76 0)
(2.29129e-10 -3456.76 0)
(-2.53504e-10 -3456.76 0)
(-6.0451e-09 -3456.76 0)
(-3.98642e-05 -3456.76 0)
(-0.0290919 -3456.76 0)
(-2.99979 -3456.73 0)
(-63.2635 -3454.72 0)
(-411.772 -3425.86 0)
(-1205.68 -3309.62 0)
(-2084.09 -3110.97 0)
(-2600.12 -2890.56 0)
(-2741.66 -2675.52 0)
(-2668.01 -2472.67 0)
(-2495.36 -2272.57 0)
(-2229.46 -2091.12 0)
(-1911.82 -1903.98 0)
(-1685.53 -1786.5 0)
(-1930.48 -1722.86 0)
(16087 -1517.58 0)
(-25910 -7402.98 0)
(22258.7 -5849.59 0)
(-13874.5 -1268.03 0)
(1800.47 -1510.55 0)
(1608.43 -1605.11 0)
(1800.87 -1679.59 0)
(2067.08 -1769.91 0)
(2319.26 -1882.8 0)
(2492.07 -2035.11 0)
(2557.5 -2204.61 0)
(2410.22 -2382.48 0)
(1897.83 -2562.22 0)
(1063.4 -2722.74 0)
(345.925 -2816.27 0)
(49.4625 -2838.88 0)
(2.12341 -2840.36 0)
(0.018175 -2840.38 0)
(2.15241e-05 -2840.38 0)
(2.23279e-09 -2840.38 0)
(-1.46252e-11 -2840.38 0)
(-3.21755e-10 -2840.38 0)
(1.99878e-10 -2840.38 0)
(4.87508e-12 -2840.38 0)
(-1.91591e-09 -2840.38 0)
(-2.15291e-05 -2840.38 0)
(-0.018175 -2840.38 0)
(-2.12341 -2840.36 0)
(-49.4625 -2838.88 0)
(-345.925 -2816.27 0)
(-1063.4 -2722.74 0)
(-1897.83 -2562.22 0)
(-2410.23 -2382.47 0)
(-2557.51 -2204.59 0)
(-2492.09 -2035.06 0)
(-2319.28 -1882.74 0)
(-2067.1 -1769.84 0)
(-1800.88 -1679.5 0)
(-1608.43 -1605.01 0)
(-1800.45 -1510.46 0)
(13874.6 -1267.98 0)
(-22258.6 -5849.59 0)
(19051.3 -5088.68 0)
(-11905.7 -1429.42 0)
(1605.71 -1623.78 0)
(1522.64 -1833.08 0)
(1752.98 -1966.89 0)
(2033.61 -2097.89 0)
(2239.77 -2193.29 0)
(2357.86 -2269.65 0)
(2406.88 -2361.46 0)
(2255.5 -2511.22 0)
(1756.19 -2753.35 0)
(960.859 -3023.77 0)
(299.859 -3175.02 0)
(40.0555 -3205.54 0)
(1.55496 -3207.13 0)
(0.0116695 -3207.14 0)
(1.18144e-05 -3207.14 0)
(1.06277e-09 -3207.14 0)
(-6.72761e-10 -3207.14 0)
(8.28763e-11 -3207.14 0)
(4.92383e-10 -3207.14 0)
(-1.51127e-10 -3207.14 0)
(-3.51006e-10 -3207.14 0)
(-1.18179e-05 -3207.14 0)
(-0.0116695 -3207.14 0)
(-1.55496 -3207.13 0)
(-40.0555 -3205.54 0)
(-299.859 -3175.02 0)
(-960.858 -3023.77 0)
(-1756.19 -2753.35 0)
(-2255.5 -2511.22 0)
(-2406.88 -2361.45 0)
(-2357.86 -2269.63 0)
(-2239.78 -2193.27 0)
(-2033.61 -2097.86 0)
(-1752.99 -1966.85 0)
(-1522.64 -1833.03 0)
(-1605.71 -1623.74 0)
(11905.7 -1429.39 0)
(-19051.3 -5088.67 0)
(15977.6 65014.3 0)
(-10535.6 11307.2 0)
(1411.49 12803.2 0)
(1277.79 15049 0)
(1545.68 17537.6 0)
(1848.92 21223 0)
(2153.76 24762.3 0)
(2330.02 29114.8 0)
(2324.71 33323.8 0)
(2032.58 37304.3 0)
(1403.92 40110 0)
(657.07 41238.3 0)
(170.764 41373.3 0)
(18.5194 41362.7 0)
(0.574436 41361.5 0)
(0.00342675 41361.5 0)
(2.74641e-06 41361.5 0)
(1.95003e-09 41361.5 0)
(1.80378e-10 41361.5 0)
(6.87386e-10 41361.5 0)
(1.51127e-10 41361.5 0)
(6.3376e-11 41361.5 0)
(-7.31262e-10 41361.5 0)
(-2.74385e-06 41361.5 0)
(-0.00342675 41361.5 0)
(-0.574436 41361.5 0)
(-18.5194 41362.7 0)
(-170.764 41373.3 0)
(-657.069 41238.3 0)
(-1403.92 40110 0)
(-2032.58 37304.3 0)
(-2324.71 33323.8 0)
(-2330.02 29114.8 0)
(-2153.76 24762.3 0)
(-1848.92 21223 0)
(-1545.68 17537.6 0)
(-1277.79 15049.1 0)
(-1411.49 12803.2 0)
(10535.6 11307.2 0)
(-15977.6 65014.3 0)
(92597.5 -95735.7 0)
(-62218.2 -16936.5 0)
(5211.47 -20236.5 0)
(6084.86 -23809.4 0)
(7702.43 -27877 0)
(8995.6 -33406.5 0)
(9844.57 -39130.8 0)
(10608.1 -45857.6 0)
(10298.7 -52557.1 0)
(8794.89 -58957.3 0)
(5547.13 -63793.1 0)
(2178.27 -66170.7 0)
(419.653 -66735.5 0)
(28.6896 -66783.4 0)
(0.480814 -66784.4 0)
(0.00138861 -66784.4 0)
(5.00417e-07 -66784.4 0)
(-7.41012e-10 -66784.4 0)
(-4.48507e-10 -66784.4 0)
(-1.20902e-09 -66784.4 0)
(1.63803e-09 -66784.4 0)
(-6.82511e-10 -66784.4 0)
(3.74406e-09 -66784.4 0)
(-4.76588e-07 -66784.4 0)
(-0.00138862 -66784.4 0)
(-0.480814 -66784.4 0)
(-28.6896 -66783.4 0)
(-419.653 -66735.5 0)
(-2178.27 -66170.7 0)
(-5547.13 -63793.1 0)
(-8794.89 -58957.3 0)
(-10298.7 -52557.1 0)
(-10608.1 -45857.6 0)
(-9844.56 -39130.8 0)
(-8995.59 -33406.5 0)
(-7702.43 -27877 0)
(-6084.86 -23809.4 0)
(-5211.48 -20236.5 0)
(62218.2 -16936.5 0)
(-92597.5 -95735.7 0)
(92597.5 95735.7 0)
(-62218.2 16936.5 0)
(5211.47 20236.5 0)
(6084.86 23809.4 0)
(7702.43 27877 0)
(8995.6 33406.5 0)
(9844.57 39130.8 0)
(10608.1 45857.6 0)
(10298.7 52557.1 0)
(8794.89 58957.3 0)
(5547.13 63793.1 0)
(2178.27 66170.7 0)
(419.653 66735.5 0)
(28.6896 66783.4 0)
(0.480814 66784.4 0)
(0.00138864 66784.4 0)
(4.66643e-07 66784.4 0)
(-9.06765e-09 66784.4 0)
(-8.95064e-09 66784.4 0)
(-3.86106e-09 66784.4 0)
(-1.09202e-09 66784.4 0)
(-1.36502e-10 66784.4 0)
(1.32602e-09 66784.4 0)
(-4.83881e-07 66784.4 0)
(-0.00138859 66784.4 0)
(-0.480814 66784.4 0)
(-28.6896 66783.4 0)
(-419.653 66735.5 0)
(-2178.27 66170.7 0)
(-5547.13 63793.1 0)
(-8794.89 58957.3 0)
(-10298.7 52557.1 0)
(-10608.1 45857.6 0)
(-9844.56 39130.8 0)
(-8995.59 33406.5 0)
(-7702.43 27877 0)
(-6084.86 23809.4 0)
(-5211.48 20236.5 0)
(62218.2 16936.5 0)
(-92597.5 95735.7 0)
(15977.6 -65014.3 0)
(-10535.6 -11307.2 0)
(1411.49 -12803.2 0)
(1277.79 -15049 0)
(1545.68 -17537.6 0)
(1848.92 -21223 0)
(2153.76 -24762.3 0)
(2330.02 -29114.8 0)
(2324.71 -33323.8 0)
(2032.58 -37304.3 0)
(1403.92 -40110 0)
(657.07 -41238.3 0)
(170.764 -41373.3 0)
(18.5194 -41362.7 0)
(0.574436 -41361.5 0)
(0.00342675 -41361.5 0)
(2.74522e-06 -41361.5 0)
(1.76965e-09 -41361.5 0)
(2.53504e-10 -41361.5 0)
(7.50762e-10 -41361.5 0)
(-3.55881e-10 -41361.5 0)
(-1.25777e-09 -41361.5 0)
(-1.46252e-09 -41361.5 0)
(-2.74376e-06 -41361.5 0)
(-0.00342675 -41361.5 0)
(-0.574436 -41361.5 0)
(-18.5194 -41362.7 0)
(-170.764 -41373.3 0)
(-657.069 -41238.3 0)
(-1403.92 -40110 0)
(-2032.58 -37304.3 0)
(-2324.71 -33323.8 0)
(-2330.02 -29114.8 0)
(-2153.76 -24762.3 0)
(-1848.92 -21223 0)
(-1545.68 -17537.6 0)
(-1277.79 -15049.1 0)
(-1411.49 -12803.2 0)
(10535.6 -11307.2 0)
(-15977.6 -65014.3 0)
(19051.3 5088.68 0)
(-11905.7 1429.42 0)
(1605.71 1623.78 0)
(1522.64 1833.08 0)
(1752.98 1966.89 0)
(2033.61 2097.89 0)
(2239.77 2193.29 0)
(2357.86 2269.65 0)
(2406.88 2361.46 0)
(2255.5 2511.22 0)
(1756.19 2753.35 0)
(960.859 3023.77 0)
(299.859 3175.02 0)
(40.0555 3205.54 0)
(1.55496 3207.13 0)
(0.0116695 3207.14 0)
(1.18135e-05 3207.14 0)
(1.87691e-09 3207.14 0)
(-7.41012e-10 3207.14 0)
(-4.87508e-12 3207.14 0)
(3.94881e-10 3207.14 0)
(1.46252e-10 3207.14 0)
(-3.2663e-10 3207.14 0)
(-1.18176e-05 3207.14 0)
(-0.0116695 3207.14 0)
(-1.55496 3207.13 0)
(-40.0555 3205.54 0)
(-299.859 3175.02 0)
(-960.858 3023.77 0)
(-1756.19 2753.35 0)
(-2255.5 2511.22 0)
(-2406.88 2361.45 0)
(-2357.86 2269.63 0)
(-2239.78 2193.27 0)
(-2033.61 2097.86 0)
(-1752.99 1966.85 0)
(-1522.64 1833.03 0)
(-1605.71 1623.74 0)
(11905.7 1429.39 0)
(-19051.3 5088.67 0)
(22258.7 5849.59 0)
(-13874.5 1268.03 0)
(1800.47 1510.55 0)
(1608.43 1605.11 0)
(1800.87 1679.59 0)
(2067.08 1769.91 0)
(2319.26 1882.8 0)
(2492.07 2035.11 0)
(2557.5 2204.61 0)
(2410.22 2382.48 0)
(1897.83 2562.22 0)
(1063.4 2722.74 0)
(345.925 2816.27 0)
(49.4625 2838.88 0)
(2.12341 2840.36 0)
(0.018175 2840.38 0)
(2.15246e-05 2840.38 0)
(2.48629e-09 2840.38 0)
(-8.09263e-10 2840.38 0)
(-4.19257e-10 2840.38 0)
(1.85253e-10 2840.38 0)
(-1.95003e-10 2840.38 0)
(-1.66728e-09 2840.38 0)
(-2.15258e-05 2840.38 0)
(-0.018175 2840.38 0)
(-2.12341 2840.36 0)
(-49.4625 2838.88 0)
(-345.925 2816.27 0)
(-1063.4 2722.74 0)
(-1897.83 2562.22 0)
(-2410.23 2382.47 0)
(-2557.51 2204.59 0)
(-2492.09 2035.06 0)
(-2319.28 1882.74 0)
(-2067.1 1769.84 0)
(-1800.88 1679.5 0)
(-1608.43 1605.01 0)
(-1800.45 1510.46 0)
(13874.6 1267.98 0)
(-22258.6 5849.59 0)
(25910.1 7402.66 0)
(-16086.9 1517.51 0)
(1930.53 1722.75 0)
(1685.53 1786.42 0)
(1911.79 1903.94 0)
(2229.43 2091.14 0)
(2495.33 2272.63 0)
(2667.97 2472.73 0)
(2741.62 2675.57 0)
(2600.1 2890.59 0)
(2084.08 3110.98 0)
(1205.68 3309.62 0)
(411.772 3425.86 0)
(63.2636 3454.72 0)
(2.9998 3456.73 0)
(0.029092 3456.76 0)
(3.98615e-05 3456.76 0)
(4.8897e-09 3456.76 0)
(-6.2401e-10 3456.76 0)
(-5.60634e-10 3456.76 0)
(6.82511e-11 3456.76 0)
(1.03839e-09 3456.76 0)
(-6.59111e-09 3456.76 0)
(-3.9861e-05 3456.76 0)
(-0.0290919 3456.76 0)
(-2.99979 3456.73 0)
(-63.2635 3454.72 0)
(-411.772 3425.86 0)
(-1205.68 3309.62 0)
(-2084.09 3110.97 0)
(-2600.12 2890.56 0)
(-2741.66 2675.52 0)
(-2668.01 2472.67 0)
(-2495.36 2272.57 0)
(-2229.46 2091.12 0)
(-1911.82 1903.98 0)