/*--------------------------------*- C++ -*----------------------------------*\
| =========                 |                                                 |
| \\      /  F ield         | OpenFOAM: The Open Source CFD Toolbox           |
|  \\    /   O peration     | Version:  v1912                                 |
|   \\  /    A nd           | Website:  www.openfoam.com                      |
|    \\/     M anipulation  |                                                 |
\*---------------------------------------------------------------------------*/
FoamFile
{
    version     2.0;
    format      ascii;
    class       volScalarField;
    location    "3.74";
    object      Ma;
}
// * * * * * * * * * * * * * * * * * * * * * * * * * * * * * * * * * * * * * //

dimensions      [0 0 0 0 0 0 0];


internalField   nonuniform List<scalar> 
1900
(
0.627013
0.101905
0.0988228
0.102973
0.10206
0.097974
0.0913847
0.0839708
0.0755844
0.0587247
0.627021
0.101914
0.0988245
0.102983
0.101961
0.0975978
0.0903526
0.08178
0.0729233
0.0629649
0.627023
0.10192
0.0988216
0.102943
0.101827
0.097264
0.0896901
0.0809475
0.0736159
0.0682109
0.627021
0.101914
0.0988245
0.102983
0.101961
0.0975978
0.0903526
0.08178
0.0729233
0.0629649
0.627013
0.101905
0.0988228
0.102973
0.10206
0.097974
0.0913847
0.0839708
0.0755844
0.0587247
0.0583781
0.0675595
0.0747062
0.0924326
0.171712
0.0652925
0.0736461
0.087027
0.122347
0.208058
0.0701312
0.0783852
0.0959665
0.137007
0.218795
0.0652925
0.0736461
0.087027
0.122347
0.208058
0.0583781
0.0675595
0.0747062
0.0924326
0.171712
0.213876
0.149395
0.108912
0.0776279
0.0954811
0.223375
0.159755
0.113441
0.0511
0.0851274
0.229659
0.164929
0.112807
0.0275962
0.108491
0.223375
0.159755
0.113441
0.0511
0.0851274
0.213876
0.149395
0.108912
0.0776279
0.0954811
0.250315
0.234497
0.249616
0.246804
0.301436
0.378955
0.441525
0.475083
0.474898
0.462563
0.440718
0.410292
0.373343
0.331241
0.285374
0.236731
0.186117
0.13439
0.0829204
0.0396321
0.0483317
0.0966128
0.150657
0.205761
0.261091
0.315987
0.36982
0.421874
0.471367
0.517608
0.560145
0.598844
0.63356
0.663601
0.688597
0.707988
0.725664
0.739027
0.767506
1.73422
0.24235
0.502631
0.298295
0.141386
0.283042
0.376541
0.440867
0.475235
0.47515
0.462923
0.440969
0.410384
0.373228
0.330855
0.284643
0.235552
0.184304
0.131534
0.0778469
0.0268018
0.0385816
0.0923612
0.148186
0.204199
0.260107
0.315421
0.36958
0.421901
0.471617
0.518047
0.560742
0.599579
0.634375
0.664526
0.689462
0.70886
0.726472
0.739664
0.768105
1.73391
0.363646
0.591492
0.339558
0.0600591
0.277969
0.379167
0.442901
0.477071
0.476531
0.464043
0.441845
0.411032
0.373663
0.331084
0.284666
0.235352
0.183831
0.130658
0.0761334
0.0208721
0.0347617
0.0909594
0.147449
0.203819
0.25998
0.315506
0.369866
0.422392
0.47233
0.519008
0.561986
0.601156
0.636335
0.666934
0.692414
0.712328
0.730601
0.744146
0.772231
1.73893
0.24235
0.502631
0.298295
0.141386
0.283042
0.376541
0.440867
0.475235
0.47515
0.462923
0.440969
0.410384
0.373228
0.330855
0.284643
0.235552
0.184304
0.131534
0.0778469
0.0268018
0.0385816
0.0923612
0.148186
0.204199
0.260107
0.315421
0.36958
0.421901
0.471617
0.518047
0.560742
0.599579
0.634375
0.664526
0.689462
0.70886
0.726472
0.739664
0.768105
1.73391
0.250315
0.234497
0.249616
0.246804
0.301436
0.378955
0.441525
0.475083
0.474898
0.462563
0.440718
0.410292
0.373343
0.331241
0.285374
0.236731
0.186117
0.13439
0.0829204
0.0396321
0.0483317
0.0966128
0.150657
0.205761
0.261091
0.315987
0.36982
0.421874
0.471367
0.517608
0.560145
0.598844
0.63356
0.663601
0.688597
0.707988
0.725664
0.739027
0.767506
1.73422
1.20485
0.428306
0.427167
0.38842
0.365847
0.406853
0.45839
0.486048
0.483924
0.470479
0.448097
0.417456
0.380514
0.338695
0.293403
0.245755
0.19686
0.148305
0.103343
0.0731737
0.0781788
0.114574
0.163136
0.215458
0.269218
0.323167
0.37642
0.428132
0.477452
0.523639
0.566222
0.604979
0.6399
0.669942
0.695514
0.71512
0.733418
0.747615
0.775942
1.7332
1.61856
0.770751
0.645378
0.525475
0.473518
0.464206
0.492574
0.506654
0.500697
0.485429
0.462382
0.431889
0.395722
0.355325
0.312128
0.267517
0.223123
0.181442
0.146665
0.127519
0.130325
0.154567
0.193451
0.239292
0.288711
0.339627
0.390682
0.440748
0.48881
0.533997
0.575792
0.613708
0.648193
0.677213
0.702925
0.721973
0.740444
0.754979
0.78573
1.73236
1.69258
0.862887
0.733911
0.607451
0.551224
0.528884
0.535295
0.534469
0.524941
0.507356
0.483507
0.45336
0.418301
0.379793
0.339262
0.298317
0.25886
0.223608
0.196094
0.182579
0.184419
0.201855
0.233136
0.272471
0.316867
0.363967
0.412121
0.459963
0.50631
0.550147
0.590971
0.627778
0.661857
0.689748
0.715801
0.734619
0.753642
0.768777
0.806906
1.74749
1.68999
0.899816
0.780163
0.670946
0.612862
0.588601
0.578322
0.569262
0.554816
0.535324
0.510813
0.481088
0.447229
0.410725
0.372942
0.33557
0.300544
0.270382
0.24772
0.237545
0.238825
0.252071
0.277952
0.311822
0.351449
0.39462
0.439596
0.484905
0.529283
0.571449
0.611089
0.646428
0.680064
0.706514
0.73263
0.751128
0.770402
0.785486
0.829944
1.73925
1.69997
0.926571
0.815463
0.722618
0.670133
0.641018
0.622589
0.606952
0.589123
0.568042
0.542922
0.513641
0.480986
0.446423
0.411189
0.377005
0.345654
0.319366
0.300028
0.292097
0.292998
0.30339
0.325422
0.354935
0.390408
0.42986
0.471723
0.514389
0.55665
0.597058
0.635529
0.669034
0.702216
0.72763
0.753925
0.772606
0.792414
0.807606
0.860634
1.74347
1.71443
0.948001
0.845972
0.766222
0.719934
0.688114
0.665138
0.64561
0.625884
0.603778
0.578323
0.549674
0.518204
0.485378
0.452416
0.420903
0.392504
0.369141
0.352148
0.345864
0.346484
0.354778
0.374006
0.400109
0.432081
0.468278
0.507143
0.547325
0.587556
0.625696
0.663195
0.694499
0.726966
0.750543
0.776721
0.794658
0.813871
0.827791
0.890034
1.74118
1.73373
0.974808
0.880804
0.811726
0.770046
0.735358
0.709642
0.687103
0.665517
0.642212
0.616523
0.588118
0.557615
0.526314
0.495182
0.46587
0.439796
0.41865
0.403357
0.39837
0.398762
0.405415
0.422558
0.445985
0.475098
0.50843
0.544848
0.582455
0.621191
0.657458
0.693981
0.723633
0.756092
0.779309
0.805748
0.825067
0.844915
0.858519
0.927871
1.74601
1.7327
0.993962
0.907153
0.847629
0.809294
0.772646
0.747006
0.723557
0.702186
0.679267
0.654316
0.626675
0.597663
0.567643
0.538161
0.510635
0.486384
0.466931
0.452885
0.44898
0.449177
0.454483
0.470059
0.491372
0.518155
0.549055
0.583073
0.618627
0.654992
0.688852
0.724431
0.750892
0.781675
0.803485
0.828647
0.84774
0.867261
0.878803
0.95483
1.74482
1.74295
1.01985
0.936505
0.888044
0.85251
0.815401
0.790239
0.765249
0.743396
0.719584
0.694189
0.666922
0.637964
0.6087
0.580359
0.554094
0.531238
0.513049
0.499923
0.496961
0.496978
0.501134
0.515525
0.535204
0.560107
0.589198
0.621463
0.655108
0.691472
0.722929
0.758523
0.784175
0.814364
0.836095
0.861651
0.881413
0.9019
0.912718
0.988577
1.74929
1.74503
1.03866
0.958386
0.918716
0.885018
0.84705
0.822381
0.796016
0.775319
0.751657
0.728253
0.701881
0.674559
0.646871
0.619861
0.594946
0.573318
0.556143
0.543727
0.541632
0.541471
0.544603
0.558071
0.576388
0.599656
0.626716
0.657308
0.688128
0.722492
0.751323
0.784904
0.808015
0.836686
0.85733
0.882657
0.901988
0.923773
0.933636
1.00849
1.74879
1.75422
1.06155
0.982044
0.951131
0.916455
0.88179
0.858313
0.831326
0.811942
0.788122
0.765473
0.739007
0.712033
0.684213
0.657532
0.633229
0.612277
0.595757
0.58382
0.582525
0.582182
0.584395
0.597218
0.614558
0.636839
0.662766
0.692547
0.72263
0.756489
0.783555
0.816717
0.838357
0.865971
0.885969
0.911914
0.930818
0.953782
0.963035
1.03437
1.75249
1.75603
1.0798
1.00262
0.976151
0.939753
0.908791
0.884979
0.857426
0.838926
0.814321
0.793158
0.766579
0.740934
0.714313
0.689277
0.666411
0.646737
0.631201
0.619849
0.61944
0.618936
0.620153
0.63221
0.648237
0.668881
0.692809
0.720687
0.747828
0.780867
0.805389
0.837716
0.85809
0.8849
0.904156
0.930849
0.949801
0.97375
0.98269
1.05094
1.74988
1.76399
1.10251
1.02663
1.00291
0.965235
0.9391
0.913083
0.886525
0.868206
0.843414
0.823549
0.797446
0.772518
0.745881
0.721041
0.698202
0.678723
0.663321
0.65199
0.652208
0.651594
0.652073
0.66396
0.679675
0.699879
0.723315
0.751019
0.776783
0.809807
0.832386
0.863636
0.883398
0.910196
0.92946
0.957216
0.976865
1.0017
1.01068
1.076
1.75074
1.76505
1.12176
1.04849
1.02629
0.988819
0.964962
0.936124
0.911405
0.892667
0.867018
0.848568
0.820666
0.795783
0.769327
0.744928
0.722828
0.704218
0.689723
0.679015
0.680278
0.679549
0.6788
0.689812
0.70433
0.723491
0.745478
0.773025
0.796998
0.830255
0.852456
0.883343
0.902469
0.929154
0.948187
0.976775
0.997082
1.02278
1.03195
1.0943
1.74593
1.77073
1.14498
1.07328
1.05414
1.01795
0.994374
0.962997
0.940471
0.919952
0.893985
0.874213
0.845227
0.821899
0.793983
0.769721
0.747167
0.728254
0.713401
0.702148
0.703702
0.702982
0.70188
0.713319
0.728039
0.74747
0.769313
0.797301
0.820948
0.854442
0.876078
0.907777
0.927756
0.955535
0.975579
1.00542
1.02674
1.05328
1.06228
1.12132
1.74342
1.77081
1.16661
1.09782
1.07907
1.0437
1.01964
0.98651
0.965045
0.942337
0.915948
0.896093
0.865863
0.841163
0.81231
0.787885
0.765067
0.746129
0.731312
0.720018
0.722273
0.721392
0.719329
0.730644
0.745124
0.764644
0.785968
0.814933
0.837763
0.872457
0.893982
0.925572
0.945633
0.973986
0.99465
1.02555
1.04837
1.07555
1.08487
1.14055
1.73529
1.76447
1.17881
1.11592
1.10295
1.06834
1.04282
1.00858
0.987073
0.961899
0.936403
0.91585
0.883371
0.860132
0.830184
0.806203
0.783093
0.763899
0.748589
0.736678
0.739386
0.738655
0.736189
0.748058
0.762924
0.782922
0.803883
0.833382
0.855552
0.890911
0.913053
0.945344
0.966335
0.995512
1.01703
1.04861
1.07211
1.09944
1.10469
1.1536
1.71725
1.7207
1.17247
1.1153
1.10875
1.07894
1.05465
1.02142
1.00044
0.972014
0.949311
0.92597
0.894606
0.872766
0.842939
0.820491
0.797378
0.778271
0.762478
0.749627
0.752115
0.751476
0.749175
0.761997
0.777319
0.797628
0.817719
0.846967
0.86712
0.901397
0.921906
0.95347
0.973917
1.00304
1.02447
1.05601
1.07961
1.10345
1.10512
1.14779
1.65877
1.71845
1.16021
1.14167
1.14595
1.12518
1.10638
1.07877
1.06229
1.03797
1.01953
0.995487
0.965053
0.934107
0.896486
0.863256
0.830652
0.80317
0.782661
0.766588
0.768844
0.768539
0.766243
0.782337
0.802484
0.831248
0.860971
0.899754
0.930767
0.969061
0.994651
1.02417
1.04248
1.06843
1.08651
1.11457
1.1347
1.15167
1.14553
1.14798
1.69453
2.3673
1.70174
1.65331
1.70782
1.72472
1.73459
1.73896
1.74522
1.74596
1.74941
1.74763
1.75047
1.74892
1.75082
1.74729
1.74781
1.74158
1.74596
1.72978
1.75574
1.75583
1.72964
1.74636
1.74121
1.74888
1.7472
1.75235
1.74999
1.75283
1.75004
1.75287
1.74997
1.75086
1.7456
1.74288
1.73465
1.71729
1.65777
1.68872
2.367
2.3673
1.70174
1.65331
1.70782
1.72472
1.73459
1.73896
1.74522
1.74596
1.74941
1.74763
1.75047
1.74892
1.75082
1.74729
1.74781
1.74158
1.74596
1.72978
1.75574
1.75583
1.72964
1.74636
1.74121
1.74888
1.7472
1.75235
1.74999
1.75283
1.75004
1.75287
1.74997
1.75086
1.7456
1.74288
1.73465
1.71729
1.65777
1.68872
2.367
1.71845
1.16021
1.14167
1.14595
1.12518
1.10638
1.07877
1.06229
1.03797
1.01953
0.995487
0.965053
0.934107
0.896486
0.863256
0.830652
0.80317
0.782661
0.766588
0.768844
0.768539
0.766243
0.782337
0.802484
0.831248
0.860971
0.899754
0.930767
0.969061
0.994651
1.02417
1.04248
1.06843
1.08651
1.11457
1.1347
1.15167
1.14553
1.14798
1.69453
1.7207
1.17247
1.1153
1.10875
1.07894
1.05465
1.02142
1.00044
0.972014
0.949311
0.92597
0.894606
0.872766
0.842939
0.820491
0.797378
0.778271
0.762478
0.749627
0.752115
0.751476
0.749175
0.761997
0.777319
0.797628
0.817719
0.846967
0.86712
0.901397
0.921906
0.95347
0.973917
1.00304
1.02447
1.05601
1.07961
1.10345
1.10512
1.14779
1.65877
1.76447
1.17881
1.11592
1.10295
1.06834
1.04282
1.00858
0.987073
0.961899
0.936403
0.91585
0.883371
0.860132
0.830184
0.806203
0.783093
0.763899
0.748589
0.736678
0.739386
0.738655
0.736189
0.748058
0.762924
0.782922
0.803883
0.833382
0.855552
0.890911
0.913053
0.945344
0.966335
0.995512
1.01703
1.04861
1.07211
1.09944
1.10469
1.1536
1.71725
1.77081
1.16661
1.09782
1.07907
1.0437
1.01964
0.98651
0.965045
0.942337
0.915948
0.896093
0.865863
0.841163
0.81231
0.787885
0.765067
0.746129
0.731312
0.720018
0.722273
0.721392
0.719329
0.730644
0.745124
0.764644
0.785968
0.814933
0.837763
0.872457
0.893982
0.925572
0.945633
0.973986
0.99465
1.02555
1.04837
1.07555
1.08487
1.14055
1.73529
1.77073
1.14498
1.07328
1.05414
1.01795
0.994374
0.962997
0.940471
0.919952
0.893985
0.874213
0.845227
0.821899
0.793983
0.769721
0.747167
0.728254
0.713401
0.702148
0.703702
0.702982
0.70188
0.713319
0.728039
0.74747
0.769313
0.797301
0.820948
0.854442
0.876078
0.907777
0.927756
0.955535
0.975579
1.00542
1.02674
1.05328
1.06228
1.12132
1.74342
1.76505
1.12176
1.04849
1.02629
0.988819
0.964962
0.936124
0.911405
0.892667
0.867018
0.848568
0.820666
0.795783
0.769327
0.744928
0.722828
0.704218
0.689723
0.679015
0.680278
0.679549
0.6788
0.689812
0.70433
0.723491
0.745478
0.773025
0.796998
0.830255
0.852456
0.883343
0.902469
0.929154
0.948187
0.976775
0.997082
1.02278
1.03195
1.0943
1.74593
1.76399
1.10251
1.02663
1.00291
0.965235
0.9391
0.913083
0.886525
0.868206
0.843414
0.823549
0.797446
0.772518
0.745881
0.721041
0.698202
0.678723
0.663321
0.65199
0.652208
0.651594
0.652073
0.66396
0.679675
0.699879
0.723315
0.751019
0.776783
0.809807
0.832386
0.863636
0.883398
0.910196
0.92946
0.957216
0.976865
1.0017
1.01068
1.076
1.75074
1.75603
1.0798
1.00262
0.976151
0.939753
0.908791
0.884979
0.857426
0.838926
0.814321
0.793158
0.766579
0.740934
0.714313
0.689277
0.666411
0.646737
0.631201
0.619849
0.61944
0.618936
0.620153
0.63221
0.648237
0.668881
0.692809
0.720687
0.747828
0.780867
0.805389
0.837716
0.85809
0.8849
0.904156
0.930849
0.949801
0.97375
0.98269
1.05094
1.74988
1.75422
1.06155
0.982044
0.951131
0.916455
0.88179
0.858313
0.831326
0.811942
0.788122
0.765473
0.739007
0.712033
0.684213
0.657532
0.633229
0.612277
0.595757
0.58382
0.582525
0.582182
0.584395
0.597218
0.614558
0.636839
0.662766
0.692547
0.72263
0.756489
0.783555
0.816717
0.838357
0.865971
0.885969
0.911914
0.930818
0.953782
0.963035
1.03437
1.75249
1.74503
1.03866
0.958386
0.918716
0.885018
0.84705
0.822381
0.796016
0.775319
0.751657
0.728253
0.701881
0.674559
0.646871
0.619861
0.594946
0.573318
0.556143
0.543727
0.541632
0.541471
0.544603
0.558071
0.576388
0.599656
0.626716
0.657308
0.688128
0.722492
0.751323
0.784904
0.808015
0.836686
0.85733
0.882657
0.901988
0.923773
0.933636
1.00849
1.74879
1.74295
1.01985
0.936505
0.888044
0.85251
0.815401
0.790239
0.765249
0.743396
0.719584
0.694189
0.666922
0.637964
0.6087
0.580359
0.554094
0.531238
0.513049
0.499923
0.496961
0.496978
0.501134
0.515525
0.535204
0.560107
0.589198
0.621463
0.655108
0.691472
0.722929
0.758523
0.784175
0.814364
0.836095
0.861651
0.881413
0.9019
0.912718
0.988577
1.74929
1.7327
0.993962
0.907153
0.847629
0.809294
0.772646
0.747006
0.723557
0.702186
0.679267
0.654316
0.626675
0.597663
0.567643
0.538161
0.510635
0.486384
0.466931
0.452885
0.44898
0.449177
0.454483
0.470059
0.491372
0.518155
0.549055
0.583073
0.618627
0.654992
0.688852
0.724431
0.750892
0.781675
0.803485
0.828647
0.84774
0.867261
0.878803
0.95483
1.74482
1.73373
0.974808
0.880804
0.811726
0.770046
0.735358
0.709642
0.687103
0.665517
0.642212
0.616523
0.588118
0.557615
0.526314
0.495182
0.46587
0.439796
0.41865
0.403357
0.39837
0.398762
0.405415
0.422558
0.445985
0.475098
0.50843
0.544848
0.582455
0.621191
0.657458
0.693981
0.723633
0.756092
0.779309
0.805748
0.825067
0.844915
0.858519
0.927871
1.74601
1.71443
0.948001
0.845972
0.766222
0.719934
0.688114
0.665138
0.64561
0.625884
0.603778
0.578323
0.549674
0.518204
0.485378
0.452416
0.420903
0.392504
0.369141
0.352148
0.345864
0.346484
0.354778
0.374006
0.400109
0.432081
0.468278
0.507143
0.547325
0.587556
0.625696
0.663195
0.694499
0.726966
0.750543
0.776721
0.794658
0.813871
0.827791
0.890034
1.74118
1.69997
0.926571
0.815463
0.722618
0.670133
0.641018
0.622589
0.606952
0.589123
0.568042
0.542922
0.513641
0.480986
0.446423
0.411189
0.377005
0.345654
0.319366
0.300028
0.292097
0.292998
0.30339
0.325422
0.354935
0.390408
0.42986
0.471723
0.514389
0.55665
0.597058
0.635529
0.669034
0.702216
0.72763
0.753925
0.772606
0.792414
0.807606
0.860634
1.74347
1.68999
0.899816
0.780163
0.670946
0.612862
0.588601
0.578322
0.569262
0.554816
0.535324
0.510813
0.481088
0.447229
0.410725
0.372942
0.33557
0.300544
0.270382
0.24772
0.237545
0.238825
0.252071
0.277952
0.311822
0.351449
0.39462
0.439596
0.484905
0.529283
0.571449
0.611089
0.646428
0.680064
0.706514
0.73263
0.751128
0.770402
0.785486
0.829944
1.73925
1.69258
0.862887
0.733911
0.607451
0.551224
0.528884
0.535295
0.534469
0.524941
0.507356
0.483507
0.45336
0.418301
0.379793
0.339262
0.298317
0.25886
0.223608
0.196094
0.182579
0.184419
0.201855
0.233136
0.272471
0.316867
0.363967
0.412121
0.459963
0.50631
0.550147
0.590971
0.627778
0.661857
0.689748
0.715801
0.734619
0.753642
0.768777
0.806906
1.74749
1.61856
0.770751
0.645378
0.525475
0.473518
0.464206
0.492574
0.506654
0.500697
0.485429
0.462382
0.431889
0.395722
0.355325
0.312128
0.267517
0.223123
0.181442
0.146665
0.127519
0.130325
0.154567
0.193451
0.239292
0.288711
0.339627
0.390682
0.440748
0.48881
0.533997
0.575792
0.613708
0.648193
0.677213
0.702925
0.721973
0.740444
0.754979
0.78573
1.73236
1.20485
0.428306
0.427167
0.38842
0.365847
0.406853
0.45839
0.486048
0.483924
0.470479
0.448097
0.417456
0.380514
0.338695
0.293403
0.245755
0.19686
0.148305
0.103343
0.0731737
0.0781788
0.114574
0.163136
0.215458
0.269218
0.323167
0.37642
0.428132
0.477452
0.523639
0.566222
0.604979
0.6399
0.669942
0.695514
0.71512
0.733418
0.747615
0.775942
1.7332
)
;

boundaryField
{
    inlet
    {
        type            calculated;
        value           uniform 0;
    }
    outlet
    {
        type            calculated;
        value           nonuniform List<scalar> 
165
(
1.20485
1.61856
1.69258
1.68999
1.69997
1.71443
1.73373
1.7327
1.74295
1.74503
1.75422
1.75603
1.76399
1.76505
1.77073
1.77081
1.76447
1.7207
1.71845
2.3673
2.3673
1.70174
1.65331
1.70782
1.72472
1.73459
1.73896
1.74522
1.74596
1.74941
1.74763
1.75047
1.74892
1.75082
1.74729
1.74781
1.74158
1.74596
1.72978
1.75574
1.75583
1.72964
1.74636
1.74121
1.74888
1.7472
1.75235
1.74999
1.75283
1.75004
1.75287
1.74997
1.75086
1.7456
1.74288
1.73465
1.71729
1.65777
1.68872
2.367
1.7332
1.73236
1.74749
1.73925
1.74347
1.74118
1.74601
1.74482
1.74929
1.74879
1.75249
1.74988
1.75074
1.74593
1.74342
1.73529
1.71725
1.65877
1.69453
2.367
1.73422
1.73391
1.73893
1.73391
1.73422
2.367
1.69453
1.65877
1.71725
1.73529
1.74342
1.74593
1.75074
1.74988
1.75249
1.74879
1.74929
1.74482
1.74601
1.74118
1.74347
1.73925
1.74749
1.73236
1.7332
2.3673
1.70174
1.65331
1.70782
1.72472
1.73459
1.73896
1.74522
1.74596
1.74941
1.74763
1.75047
1.74892
1.75082
1.74729
1.74781
1.74158
1.74596
1.72978
1.75574
1.75583
1.72964
1.74636
1.74121
1.74888
1.7472
1.75235
1.74999
1.75283
1.75004
1.75287
1.74997
1.75086
1.7456
1.74288
1.73465
1.71729
1.65777
1.68872
2.367
2.3673
1.71845
1.7207
1.76447
1.77081
1.77073
1.76505
1.76399
1.75603
1.75422
1.74503
1.74295
1.7327
1.73373
1.71443
1.69997
1.68999
1.69258
1.61856
1.20485
)
;
    }
    obstacle
    {
        type            calculated;
        value           nonuniform List<scalar> 
40
(
0.627013
0.101905
0.0988228
0.102973
0.10206
0.0979732
0.0913825
0.0839656
0.0754913
0.0575673
0.627013
0.101905
0.0988228
0.102973
0.10206
0.0979732
0.0913825
0.0839656
0.0754913
0.0575673
0.0582314
0.0674127
0.0747004
0.0924326
0.16406
0.0582314
0.0674127
0.0747004
0.0924326
0.16406
0.213438
0.149348
0.108912
0.0746054
0.0848807
0.213438
0.149348
0.108912
0.0746054
0.0848807
)
;
    }
    empty
    {
        type            empty;
    }
}


// ************************************************************************* //
