/*--------------------------------*- C++ -*----------------------------------*\
| =========                 |                                                 |
| \\      /  F ield         | OpenFOAM: The Open Source CFD Toolbox           |
|  \\    /   O peration     | Version:  v1912                                 |
|   \\  /    A nd           | Website:  www.openfoam.com                      |
|    \\/     M anipulation  |                                                 |
\*---------------------------------------------------------------------------*/
FoamFile
{
    version     2.0;
    format      ascii;
    class       volScalarField;
    location    "3.74";
    object      T;
}
// * * * * * * * * * * * * * * * * * * * * * * * * * * * * * * * * * * * * * //

dimensions      [0 0 0 1 0 0 0];


internalField   nonuniform List<scalar> 
1900
(
1.16865
1.02063
1.0342
1.04259
1.04374
1.04229
1.0397
1.03738
1.03559
1.03571
1.16865
1.02062
1.03421
1.04262
1.04378
1.04234
1.03973
1.03724
1.03446
1.03275
1.16864
1.02062
1.03422
1.04264
1.04377
1.04229
1.03963
1.03713
1.03452
1.03326
1.16865
1.02062
1.03421
1.04262
1.04378
1.04234
1.03973
1.03724
1.03446
1.03275
1.16865
1.02063
1.0342
1.04259
1.04374
1.04229
1.0397
1.03738
1.03559
1.03571
1.02941
1.02032
1.00104
0.967036
0.9174
1.02688
1.01712
0.995774
0.963704
0.924043
1.02728
1.01702
0.995145
0.962014
0.921637
1.02688
1.01712
0.995774
0.963704
0.924043
1.02941
1.02032
1.00104
0.967036
0.9174
0.922634
0.868168
0.83347
0.812774
0.800521
0.918552
0.867719
0.834372
0.813517
0.798039
0.917916
0.86748
0.834234
0.812039
0.796103
0.918552
0.867719
0.834372
0.813517
0.798039
0.922634
0.868168
0.83347
0.812774
0.800521
0.756507
0.654126
0.707977
0.742087
0.72936
0.713861
0.700186
0.691882
0.690519
0.68847
0.687168
0.685739
0.684421
0.683154
0.682015
0.681059
0.680308
0.67972
0.679271
0.678851
0.678466
0.678038
0.677508
0.676938
0.676268
0.675469
0.674474
0.673186
0.67147
0.669147
0.666011
0.662011
0.65722
0.652413
0.647818
0.644458
0.641813
0.639073
0.587124
0.487459
0.79236
0.685885
0.719428
0.745733
0.73141
0.714581
0.70044
0.691946
0.69062
0.688514
0.687202
0.685763
0.68444
0.683171
0.682031
0.681075
0.680324
0.679735
0.679286
0.678865
0.67848
0.678052
0.677521
0.676951
0.67628
0.675481
0.674485
0.673197
0.67148
0.669157
0.666021
0.662021
0.657227
0.652424
0.647821
0.644487
0.641848
0.639125
0.587223
0.487027
0.786917
0.707688
0.729126
0.748626
0.732519
0.714957
0.700571
0.692013
0.690673
0.688546
0.687225
0.685779
0.684452
0.68318
0.682039
0.681082
0.680331
0.679742
0.679292
0.678871
0.678486
0.678057
0.677526
0.676956
0.676286
0.675487
0.674491
0.673204
0.67149
0.669171
0.666039
0.662047
0.657264
0.652477
0.647896
0.644601
0.642013
0.639334
0.587642
0.488749
0.79236
0.685885
0.719428
0.745733
0.73141
0.714581
0.70044
0.691946
0.69062
0.688514
0.687202
0.685763
0.68444
0.683171
0.682031
0.681075
0.680324
0.679735
0.679286
0.678865
0.67848
0.678052
0.677521
0.676951
0.67628
0.675481
0.674485
0.673197
0.67148
0.669157
0.666021
0.662021
0.657227
0.652424
0.647821
0.644487
0.641848
0.639125
0.587223
0.487027
0.756507
0.654126
0.707977
0.742087
0.72936
0.713861
0.700186
0.691882
0.690519
0.68847
0.687168
0.685739
0.684421
0.683154
0.682015
0.681059
0.680308
0.67972
0.679271
0.678851
0.678466
0.678038
0.677508
0.676938
0.676268
0.675469
0.674474
0.673186
0.67147
0.669147
0.666011
0.662011
0.65722
0.652413
0.647818
0.644458
0.641813
0.639073
0.587124
0.487459
0.595621
0.603361
0.693886
0.728897
0.72217
0.710586
0.698581
0.691361
0.689974
0.688136
0.686897
0.685537
0.684256
0.68301
0.681883
0.680936
0.680193
0.679611
0.679168
0.67875
0.678368
0.677941
0.677411
0.676841
0.676169
0.675368
0.674368
0.673075
0.671351
0.66902
0.665877
0.661878
0.657096
0.652277
0.647707
0.64428
0.641653
0.638884
0.587497
0.494721
0.493845
0.606698
0.689798
0.708231
0.708195
0.7023
0.69464
0.689962
0.688775
0.687297
0.686264
0.685078
0.683883
0.682682
0.681582
0.680655
0.67993
0.679364
0.678933
0.678524
0.678148
0.677725
0.677195
0.676625
0.675951
0.675144
0.674137
0.672831
0.67109
0.66874
0.665579
0.661561
0.656794
0.651934
0.64736
0.643816
0.641136
0.638371
0.587308
0.488255
0.476491
0.618045
0.680751
0.693608
0.696094
0.693538
0.689698
0.687596
0.686972
0.686036
0.685313
0.684363
0.683281
0.682148
0.681093
0.6802
0.679503
0.678962
0.678551
0.678155
0.677787
0.67737
0.67684
0.676268
0.675591
0.674775
0.673754
0.672428
0.670658
0.668275
0.665089
0.661045
0.656297
0.651376
0.646774
0.643093
0.640335
0.6376
0.587811
0.488635
0.484527
0.617602
0.671081
0.680626
0.685404
0.685673
0.684823
0.68457
0.684582
0.684457
0.684094
0.683389
0.682451
0.681411
0.680419
0.679573
0.678918
0.678411
0.678028
0.677649
0.677293
0.676882
0.676352
0.675778
0.675093
0.674267
0.673225
0.67187
0.670065
0.667638
0.664416
0.660326
0.655596
0.650587
0.645906
0.642067
0.639192
0.636544
0.58793
0.48794
0.47878
0.613998
0.662382
0.670561
0.676263
0.678764
0.679949
0.681141
0.682001
0.682551
0.682579
0.682137
0.681372
0.680447
0.679535
0.678756
0.678154
0.677692
0.677344
0.676987
0.676645
0.676241
0.67571
0.675132
0.674438
0.673591
0.672526
0.671135
0.669268
0.666786
0.663531
0.659378
0.654618
0.649499
0.644694
0.640684
0.637687
0.635217
0.588712
0.487425
0.477655
0.609305
0.654239
0.662056
0.668405
0.672496
0.675185
0.677503
0.679196
0.680373
0.680784
0.680607
0.680029
0.679235
0.678429
0.677731
0.677198
0.676791
0.676487
0.676154
0.675828
0.675432
0.674897
0.674313
0.673603
0.672738
0.671625
0.67019
0.668261
0.665697
0.662398
0.658144
0.653347
0.648066
0.643091
0.638885
0.635751
0.633454
0.588869
0.485531
0.477544
0.605399
0.647525
0.655034
0.661779
0.666819
0.670516
0.673706
0.676123
0.677855
0.678647
0.678743
0.678351
0.67773
0.677048
0.676456
0.676007
0.675666
0.675414
0.675111
0.674801
0.674412
0.67387
0.673276
0.672544
0.671638
0.670484
0.668968
0.666949
0.664297
0.660982
0.656566
0.651692
0.646269
0.641178
0.636768
0.633606
0.631591
0.590145
0.483289
0.473547
0.600277
0.640524
0.647704
0.655155
0.660988
0.665598
0.669613
0.67271
0.674933
0.676104
0.676477
0.676284
0.675841
0.675308
0.674842
0.67449
0.674227
0.674037
0.673768
0.673473
0.673088
0.672536
0.671924
0.671165
0.670211
0.668988
0.667382
0.665296
0.662432
0.659082
0.65445
0.649383
0.643712
0.638353
0.633578
0.630166
0.628231
0.588628
0.480128
0.470345
0.595808
0.635075
0.641866
0.649625
0.655834
0.660972
0.665573
0.669121
0.671681
0.673101
0.673651
0.673655
0.673394
0.673038
0.672721
0.672488
0.672312
0.672195
0.671964
0.67168
0.671299
0.67073
0.670093
0.669285
0.668276
0.66697
0.665292
0.663109
0.660219
0.656888
0.652091
0.64691
0.641133
0.635514
0.630475
0.626644
0.624878
0.586924
0.476454
0.466909
0.59055
0.628691
0.63495
0.642438
0.649009
0.654837
0.66008
0.664269
0.66727
0.669051
0.669943
0.67022
0.670198
0.670058
0.669905
0.669801
0.669713
0.669675
0.669485
0.669206
0.668828
0.668237
0.667569
0.666705
0.665622
0.664208
0.66236
0.66009
0.656831
0.653353
0.648166
0.642637
0.636577
0.630581
0.625069
0.620783
0.61906
0.58225
0.472303
0.46348
0.584887
0.622053
0.628055
0.635332
0.642261
0.648733
0.654459
0.659202
0.662541
0.664634
0.665703
0.66611
0.666238
0.666234
0.666216
0.666223
0.666211
0.666248
0.666094
0.665818
0.665445
0.664837
0.664148
0.663257
0.662136
0.6607
0.658788
0.656512
0.653065
0.649328
0.643787
0.637901
0.631554
0.625204
0.619225
0.614496
0.612714
0.577204
0.468141
0.460147
0.579118
0.615054
0.62079
0.627627
0.634657
0.641392
0.64735
0.652446
0.655954
0.658461
0.659802
0.660646
0.661136
0.66141
0.6616
0.661741
0.661817
0.661927
0.661808
0.661532
0.661159
0.660526
0.65979
0.658835
0.657595
0.65601
0.653857
0.651388
0.647607
0.643611
0.637909
0.631815
0.625286
0.618722
0.61243
0.607402
0.605656
0.571683
0.464152
0.457142
0.573126
0.607585
0.613041
0.619799
0.626968
0.633743
0.639886
0.645204
0.64901
0.651903
0.653571
0.654783
0.655541
0.656059
0.656411
0.656644
0.65676
0.656897
0.656787
0.656516
0.656168
0.655553
0.654829
0.653849
0.652547
0.650836
0.648523
0.645969
0.641878
0.637594
0.631693
0.625407
0.618718
0.611966
0.605428
0.600146
0.598432
0.566352
0.460682
0.454234
0.567401
0.600263
0.605292
0.611979
0.619374
0.626041
0.632297
0.63771
0.641787
0.645111
0.646958
0.648545
0.64969
0.650505
0.651108
0.651526
0.651762
0.651985
0.651918
0.651653
0.651286
0.650616
0.649821
0.648738
0.647314
0.645492
0.642969
0.640308
0.635992
0.631489
0.625376
0.618896
0.612013
0.605061
0.598295
0.592774
0.591109
0.560869
0.457361
0.452059
0.561282
0.5927
0.597524
0.604153
0.611655
0.618371
0.624769
0.630258
0.634766
0.638578
0.640903
0.642887
0.644332
0.645455
0.646286
0.646867
0.647197
0.647463
0.647399
0.647153
0.646816
0.64614
0.645311
0.644147
0.642603
0.640643
0.637918
0.635161
0.630512
0.625613
0.619223
0.612503
0.605411
0.598238
0.591219
0.585451
0.583783
0.555481
0.455002
0.449515
0.556353
0.585902
0.590104
0.596697
0.604294
0.611134
0.617799
0.623386
0.628392
0.632772
0.635527
0.638136
0.639921
0.641346
0.642417
0.643187
0.643672
0.644077
0.644101
0.643875
0.643488
0.642709
0.64178
0.640505
0.638819
0.636744
0.633762
0.630773
0.625682
0.62036
0.613621
0.606597
0.599251
0.591826
0.584614
0.578507
0.577074
0.551038
0.452626
0.45048
0.552041
0.579584
0.583417
0.590214
0.597985
0.605107
0.611994
0.617985
0.623466
0.628446
0.631737
0.634658
0.636687
0.638334
0.639583
0.640493
0.641081
0.641546
0.641568
0.641359
0.641007
0.640195
0.639193
0.637834
0.636037
0.633904
0.630727
0.627639
0.622275
0.61653
0.609454
0.602096
0.594493
0.586806
0.579272
0.572909
0.571805
0.548123
0.454306
0.456537
0.552251
0.580036
0.582798
0.588879
0.596199
0.603185
0.610036
0.615951
0.621703
0.626519
0.62984
0.63269
0.634474
0.635944
0.637026
0.637805
0.638345
0.638873
0.63907
0.638852
0.638327
0.637468
0.636533
0.635329
0.633712
0.631895
0.628872
0.625995
0.620692
0.615002
0.608021
0.600736
0.593222
0.585601
0.578283
0.572239
0.571473
0.548576
0.46145
0.43662
0.531798
0.561283
0.562101
0.565115
0.569622
0.573861
0.578401
0.582056
0.58633
0.589432
0.590786
0.591533
0.590196
0.589584
0.58835
0.587539
0.586949
0.586842
0.588506
0.588276
0.586254
0.586012
0.586183
0.586785
0.586773
0.587986
0.586898
0.586607
0.583287
0.579113
0.573592
0.568107
0.562422
0.556895
0.551904
0.54836
0.548702
0.52413
0.43188
0.378582
0.436743
0.470119
0.462299
0.460062
0.46119
0.462475
0.465013
0.467666
0.471076
0.474428
0.477773
0.480674
0.483102
0.484994
0.486412
0.486867
0.487807
0.487706
0.488705
0.488679
0.487582
0.487664
0.486541
0.486112
0.484352
0.482481
0.479651
0.476494
0.472799
0.468879
0.46491
0.461356
0.457894
0.455473
0.452801
0.454335
0.461501
0.432849
0.374707
0.378582
0.436743
0.470119
0.462299
0.460062
0.46119
0.462475
0.465013
0.467666
0.471076
0.474428
0.477773
0.480674
0.483102
0.484994
0.486412
0.486867
0.487807
0.487706
0.488705
0.488679
0.487582
0.487664
0.486541
0.486112
0.484352
0.482481
0.479651
0.476494
0.472799
0.468879
0.46491
0.461356
0.457894
0.455473
0.452801
0.454335
0.461501
0.432849
0.374707
0.43662
0.531798
0.561283
0.562101
0.565115
0.569622
0.573861
0.578401
0.582056
0.58633
0.589432
0.590786
0.591533
0.590196
0.589584
0.58835
0.587539
0.586949
0.586842
0.588506
0.588276
0.586254
0.586012
0.586183
0.586785
0.586773
0.587986
0.586898
0.586607
0.583287
0.579113
0.573592
0.568107
0.562422
0.556895
0.551904
0.54836
0.548702
0.52413
0.43188
0.456537
0.552251
0.580036
0.582798
0.588879
0.596199
0.603185
0.610036
0.615951
0.621703
0.626519
0.62984
0.63269
0.634474
0.635944
0.637026
0.637805
0.638345
0.638873
0.63907
0.638852
0.638327
0.637468
0.636533
0.635329
0.633712
0.631895
0.628872
0.625995
0.620692
0.615002
0.608021
0.600736
0.593222
0.585601
0.578283
0.572239
0.571473
0.548576
0.46145
0.45048
0.552041
0.579584
0.583417
0.590214
0.597985
0.605107
0.611994
0.617985
0.623466
0.628446
0.631737
0.634658
0.636687
0.638334
0.639583
0.640493
0.641081
0.641546
0.641568
0.641359
0.641007
0.640195
0.639193
0.637834
0.636037
0.633904
0.630727
0.627639
0.622275
0.61653
0.609454
0.602096
0.594493
0.586806
0.579272
0.572909
0.571805
0.548123
0.454306
0.449515
0.556353
0.585902
0.590104
0.596697
0.604294
0.611134
0.617799
0.623386
0.628392
0.632772
0.635527
0.638136
0.639921
0.641346
0.642417
0.643187
0.643672
0.644077
0.644101
0.643875
0.643488
0.642709
0.64178
0.640505
0.638819
0.636744
0.633762
0.630773
0.625682
0.62036
0.613621
0.606597
0.599251
0.591826
0.584614
0.578507
0.577074
0.551038
0.452626
0.452059
0.561282
0.5927
0.597524
0.604153
0.611655
0.618371
0.624769
0.630258
0.634766
0.638578
0.640903
0.642887
0.644332
0.645455
0.646286
0.646867
0.647197
0.647463
0.647399
0.647153
0.646816
0.64614
0.645311
0.644147
0.642603
0.640643
0.637918
0.635161
0.630512
0.625613
0.619223
0.612503
0.605411
0.598238
0.591219
0.585451
0.583783
0.555481
0.455002
0.454234
0.567401
0.600263
0.605292
0.611979
0.619374
0.626041
0.632297
0.63771
0.641787
0.645111
0.646958
0.648545
0.64969
0.650505
0.651108
0.651526
0.651762
0.651985
0.651918
0.651653
0.651286
0.650616
0.649821
0.648738
0.647314
0.645492
0.642969
0.640308
0.635992
0.631489
0.625376
0.618896
0.612013
0.605061
0.598295
0.592774
0.591109
0.560869
0.457361
0.457142
0.573126
0.607585
0.613041
0.619799
0.626968
0.633743
0.639886
0.645204
0.64901
0.651903
0.653571
0.654783
0.655541
0.656059
0.656411
0.656644
0.65676
0.656897
0.656787
0.656516
0.656168
0.655553
0.654829
0.653849
0.652547
0.650836
0.648523
0.645969
0.641878
0.637594
0.631693
0.625407
0.618718
0.611966
0.605428
0.600146
0.598432
0.566352
0.460682
0.460147
0.579118
0.615054
0.62079
0.627627
0.634657
0.641392
0.64735
0.652446
0.655954
0.658461
0.659802
0.660646
0.661136
0.66141
0.6616
0.661741
0.661817
0.661927
0.661808
0.661532
0.661159
0.660526
0.65979
0.658835
0.657595
0.65601
0.653857
0.651388
0.647607
0.643611
0.637909
0.631815
0.625286
0.618722
0.61243
0.607402
0.605656
0.571683
0.464152
0.46348
0.584887
0.622053
0.628055
0.635332
0.642261
0.648733
0.654459
0.659202
0.662541
0.664634
0.665703
0.66611
0.666238
0.666234
0.666216
0.666223
0.666211
0.666248
0.666094
0.665818
0.665445
0.664837
0.664148
0.663257
0.662136
0.6607
0.658788
0.656512
0.653065
0.649328
0.643787
0.637901
0.631554
0.625204
0.619225
0.614496
0.612714
0.577204
0.468141
0.466909
0.59055
0.628691
0.63495
0.642438
0.649009
0.654837
0.66008
0.664269
0.66727
0.669051
0.669943
0.67022
0.670198
0.670058
0.669905
0.669801
0.669713
0.669675
0.669485
0.669206
0.668828
0.668237
0.667569
0.666705
0.665622
0.664208
0.66236
0.66009
0.656831
0.653353
0.648166
0.642637
0.636577
0.630581
0.625069
0.620783
0.61906
0.58225
0.472303
0.470345
0.595808
0.635075
0.641866
0.649625
0.655834
0.660972
0.665573
0.669121
0.671681
0.673101
0.673651
0.673655
0.673394
0.673038
0.672721
0.672488
0.672312
0.672195
0.671964
0.67168
0.671299
0.67073
0.670093
0.669285
0.668276
0.66697
0.665292
0.663109
0.660219
0.656888
0.652091
0.64691
0.641133
0.635514
0.630475
0.626644
0.624878
0.586924
0.476454
0.473547
0.600277
0.640524
0.647704
0.655155
0.660988
0.665598
0.669613
0.67271
0.674933
0.676104
0.676477
0.676284
0.675841
0.675308
0.674842
0.67449
0.674227
0.674037
0.673768
0.673473
0.673088
0.672536
0.671924
0.671165
0.670211
0.668988
0.667382
0.665296
0.662432
0.659082
0.65445
0.649383
0.643712
0.638353
0.633578
0.630166
0.628231
0.588628
0.480128
0.477544
0.605399
0.647525
0.655034
0.661779
0.666819
0.670516
0.673706
0.676123
0.677855
0.678647
0.678743
0.678351
0.67773
0.677048
0.676456
0.676007
0.675666
0.675414
0.675111
0.674801
0.674412
0.67387
0.673276
0.672544
0.671638
0.670484
0.668968
0.666949
0.664297
0.660982
0.656566
0.651692
0.646269
0.641178
0.636768
0.633606
0.631591
0.590145
0.483289
0.477655
0.609305
0.654239
0.662056
0.668405
0.672496
0.675185
0.677503
0.679196
0.680373
0.680784
0.680607
0.680029
0.679235
0.678429
0.677731
0.677198
0.676791
0.676487
0.676154
0.675828
0.675432
0.674897
0.674313
0.673603
0.672738
0.671625
0.67019
0.668261
0.665697
0.662398
0.658144
0.653347
0.648066
0.643091
0.638885
0.635751
0.633454
0.588869
0.485531
0.47878
0.613998
0.662382
0.670561
0.676263
0.678764
0.679949
0.681141
0.682001
0.682551
0.682579
0.682137
0.681372
0.680447
0.679535
0.678756
0.678154
0.677692
0.677344
0.676987
0.676645
0.676241
0.67571
0.675132
0.674438
0.673591
0.672526
0.671135
0.669268
0.666786
0.663531
0.659378
0.654618
0.649499
0.644694
0.640684
0.637687
0.635217
0.588712
0.487425
0.484527
0.617602
0.671081
0.680626
0.685404
0.685673
0.684823
0.68457
0.684582
0.684457
0.684094
0.683389
0.682451
0.681411
0.680419
0.679573
0.678918
0.678411
0.678028
0.677649
0.677293
0.676882
0.676352
0.675778
0.675093
0.674267
0.673225
0.67187
0.670065
0.667638
0.664416
0.660326
0.655596
0.650587
0.645906
0.642067
0.639192
0.636544
0.58793
0.48794
0.476491
0.618045
0.680751
0.693608
0.696094
0.693538
0.689698
0.687596
0.686972
0.686036
0.685313
0.684363
0.683281
0.682148
0.681093
0.6802
0.679503
0.678962
0.678551
0.678155
0.677787
0.67737
0.67684
0.676268
0.675591
0.674775
0.673754
0.672428
0.670658
0.668275
0.665089
0.661045
0.656297
0.651376
0.646774
0.643093
0.640335
0.6376
0.587811
0.488635
0.493845
0.606698
0.689798
0.708231
0.708195
0.7023
0.69464
0.689962
0.688775
0.687297
0.686264
0.685078
0.683883
0.682682
0.681582
0.680655
0.67993
0.679364
0.678933
0.678524
0.678148
0.677725
0.677195
0.676625
0.675951
0.675144
0.674137
0.672831
0.67109
0.66874
0.665579
0.661561
0.656794
0.651934
0.64736
0.643816
0.641136
0.638371
0.587308
0.488255
0.595621
0.603361
0.693886
0.728897
0.72217
0.710586
0.698581
0.691361
0.689974
0.688136
0.686897
0.685537
0.684256
0.68301
0.681883
0.680936
0.680193
0.679611
0.679168
0.67875
0.678368
0.677941
0.677411
0.676841
0.676169
0.675368
0.674368
0.673075
0.671351
0.66902
0.665877
0.661878
0.657096
0.652277
0.647707
0.64428
0.641653
0.638884
0.587497
0.494721
)
;

boundaryField
{
    inlet
    {
        type            fixedValue;
        value           uniform 1;
    }
    outlet
    {
        type            zeroGradient;
    }
    obstacle
    {
        type            zeroGradient;
    }
    empty
    {
        type            empty;
    }
}


// ************************************************************************* //
