/*--------------------------------*- C++ -*----------------------------------*\
| =========                 |                                                 |
| \\      /  F ield         | OpenFOAM: The Open Source CFD Toolbox           |
|  \\    /   O peration     | Version:  v1912                                 |
|   \\  /    A nd           | Website:  www.openfoam.com                      |
|    \\/     M anipulation  |                                                 |
\*---------------------------------------------------------------------------*/
FoamFile
{
    version     2.0;
    format      ascii;
    class       volVectorField;
    location    "6.6";
    object      grad(p);
}
// * * * * * * * * * * * * * * * * * * * * * * * * * * * * * * * * * * * * * //

dimensions      [1 -2 -2 0 0 0 0];


internalField   nonuniform List<vector> 
1900
(
(91141.2 0.0493115 0)
(-101828 -0.153802 0)
(-3117.25 -0.477689 0)
(119.826 -1.00177 0)
(70.4615 -1.70028 0)
(51.9334 -1.15429 0)
(-26.921 3.54755 0)
(-116.567 11.0375 0)
(-163.915 26.1848 0)
(612.711 -41.4214 0)
(91141.1 -0.0752606 0)
(-101828 -0.294013 0)
(-3118.1 -0.848618 0)
(118.603 -1.30717 0)
(70.309 -1.19918 0)
(57.1812 1.54221 0)
(-14.7293 4.73601 0)
(-93.9301 -1.80743 0)
(-216.373 -22.0902 0)
(-317.764 -96.955 0)
(91140.8 2.4194e-08 0)
(-101828 1.6378e-08 0)
(-3118.26 2.0961e-09 0)
(119.475 2.36255e-09 0)
(73.3109 2.98428e-09 0)
(57.8686 -2.84217e-10 0)
(-30.2707 -4.92051e-09 0)
(-143.394 -5.29354e-09 0)
(-259.062 -5.32907e-09 0)
(-430.577 -4.51195e-09 0)
(91141.1 0.0752606 0)
(-101828 0.294013 0)
(-3118.1 0.848618 0)
(118.603 1.30717 0)
(70.309 1.19918 0)
(57.1812 -1.54221 0)
(-14.7293 -4.73601 0)
(-93.9301 1.80743 0)
(-216.373 22.0902 0)
(-317.764 96.955 0)
(91141.2 -0.0493115 0)
(-101828 0.153802 0)
(-3117.25 0.477689 0)
(119.826 1.00177 0)
(70.4615 1.70028 0)
(51.9334 1.15429 0)
(-26.921 -3.54755 0)
(-116.567 -11.0375 0)
(-163.915 -26.1848 0)
(612.711 41.4214 0)
(-217.208 -787.189 8.63014e-12)
(-1727.54 -604.703 -1.01135e-11)
(-1612.15 -705.169 -1.27142e-11)
(702.448 -942.383 0)
(-18803.4 -7963.42 -5.53388e-11)
(-692.116 -938.34 8.48789e-12)
(-1183.07 -725.283 1.01135e-11)
(-1517.25 -824.439 1.27142e-11)
(-1988.85 -674.999 0)
(-17943.2 -7315.41 0)
(-1023.77 -7.19231e-09 0)
(-1293.2 -8.33641e-09 0)
(-1459.23 -1.26072e-08 0)
(-1954.61 -1.41974e-08 0)
(-20715.1 -2.18344e-08 0)
(-692.116 938.34 8.48789e-12)
(-1183.07 725.283 1.01135e-11)
(-1517.25 824.439 1.27142e-11)
(-1988.85 674.999 0)
(-17943.2 7315.41 0)
(-217.208 787.189 -2.56059e-11)
(-1727.54 604.703 -1.01135e-11)
(-1612.15 705.169 -1.27142e-11)
(702.448 942.383 -3.41566e-11)
(-18803.4 7963.42 5.53388e-11)
(-37480.9 10705.6 1.01962e-11)
(-11172.4 4141.85 -5.00971e-12)
(-5439.41 1975.95 0)
(-3747.08 1198.91 1.97908e-12)
(-1551.68 1010.92 -6.39556e-13)
(-33509.5 13251.5 -5.25931e-12)
(-13103.1 3357.66 2.56722e-12)
(-6186.55 1155.17 0)
(-3983.39 680.624 -1.26462e-12)
(-2042.63 571.805 1.71806e-13)
(-34619 -2.55688e-09 0)
(-14251.6 -5.69345e-11 0)
(-6300.25 -1.74346e-09 0)
(-3989.28 1.92294e-09 5.14047e-13)
(-2011.22 4.0416e-09 -3.43611e-13)
(-33509.5 -13251.5 -5.25931e-12)
(-13103.1 -3357.66 2.56722e-12)
(-6186.55 -1155.17 0)
(-3983.39 -680.624 -1.26462e-12)
(-2042.63 -571.805 1.71806e-13)
(-37480.9 -10705.6 5.25931e-12)
(-11172.4 -4141.85 -1.24739e-13)
(-5439.41 -1975.95 0)
(-3747.08 -1198.91 3.61072e-14)
(-1551.68 -1010.92 6.39556e-13)
(-341.649 -1202.16 0)
(-886.867 -1152.32 0)
(-791.927 -1059.98 0)
(206.548 -981.392 0)
(2532.64 -920.123 0)
(2888.48 374.204 0)
(806.272 662.535 0)
(-16.5932 416.133 0)
(-376.5 391.429 0)
(-734.104 424.988 0)
(-950.387 301.444 0)
(-1155.79 184.584 0)
(-1311.41 118.42 0)
(-1107.97 67.3031 0)
(-628.291 24.6961 0)
(-298.534 6.17047 0)
(-194.072 3.31301 0)
(-164.478 3.79807 0)
(-143.338 3.95537 0)
(-111.988 1.26552 0)
(-72.4745 -0.365662 0)
(-40.9027 -0.806529 0)
(-23.2269 -0.77971 0)
(-15.1169 -0.680065 0)
(-10.5277 -0.605487 0)
(-6.79499 -0.561244 0)
(-2.19748 -0.566152 0)
(3.7655 -0.593211 0)
(9.61451 -0.560468 0)
(14.0022 -0.516765 0)
(21.212 -0.575811 0)
(30.8236 -0.368974 0)
(47.9212 -0.406766 0)
(61.7058 0.610423 0)
(93.7899 0.140342 0)
(224.261 -1.10169 0)
(713.38 -2.74412 0)
(1255.07 1.31109 0)
(688.925 4.23668 0)
(1231.35 6.14692 0)
(-795.49 -432.995 0)
(-888.526 -357.27 0)
(-787.554 -334.75 0)
(265.028 -337.244 0)
(2696.5 -203.304 0)
(2980.66 275.792 0)
(760.407 345.684 0)
(-37.618 200.395 0)
(-331.744 195.036 0)
(-728.505 185.767 0)
(-995.102 122.265 0)
(-1192.67 76.0914 0)
(-1331.98 58.076 0)
(-1119.76 33.1119 0)
(-633.903 10.7525 0)
(-300.209 2.25475 0)
(-194.228 1.70822 0)
(-164.51 1.65499 0)
(-143.565 1.43159 0)
(-112.351 0.466631 0)
(-72.6423 -0.201062 0)
(-40.9315 -0.361736 0)
(-23.2133 -0.336825 0)
(-15.1005 -0.292466 0)
(-10.5164 -0.263536 0)
(-6.79122 -0.247909 0)
(-2.20145 -0.255492 0)
(3.7646 -0.27726 0)
(9.62094 -0.270175 0)
(13.999 -0.259064 0)
(21.2245 -0.295805 0)
(30.8295 -0.215354 0)
(48.0095 -0.27364 0)
(61.7502 0.191741 0)
(93.6088 -0.0665072 0)
(223.926 -0.60732 0)
(713.67 -1.78122 0)
(1255.63 0.892462 0)
(689.309 1.274 0)
(1230.6 3.13478 0)
(-665.302 -1.4445e-08 0)
(-858.286 -1.44773e-08 0)
(-786.101 -1.57914e-08 0)
(244.787 1.95944e-08 0)
(2710.97 1.21477e-07 0)
(3048.19 -8.94626e-07 0)
(784.338 -4.2176e-07 0)
(-60.4181 -2.8328e-07 0)
(-380.755 -8.74492e-08 0)
(-755.274 2.36942e-08 0)
(-982.292 -2.85025e-09 0)
(-1174.47 -6.9722e-09 0)
(-1323.91 -9.26532e-09 0)
(-1121.73 -2.99619e-08 0)
(-637.267 -2.368e-08 0)
(-301.165 -7.3093e-09 0)
(-194.247 -8.96858e-09 0)
(-164.558 1.95399e-09 0)
(-143.684 -1.80058e-09 0)
(-112.463 2.02666e-09 0)
(-72.7155 4.8547e-09 0)
(-40.9422 1.98225e-09 0)
(-23.2068 6.60078e-10 0)
(-15.0955 3.49216e-10 0)
(-10.5147 4.23903e-11 0)
(-6.79265 -3.53253e-10 0)
(-2.20602 8.47807e-11 0)
(3.76123 1.79856e-09 0)
(9.6198 2.54746e-09 0)
(13.9947 1.35043e-09 0)
(21.2247 -1.96005e-09 0)
(30.8301 -5.05454e-09 0)
(48.0396 -5.30888e-10 0)
(61.766 -1.49941e-08 0)
(93.5574 -1.19743e-08 0)
(223.762 -5.10904e-09 0)
(713.816 2.87507e-08 0)
(1255.96 1.50264e-08 0)
(689.578 -2.50305e-09 0)
(1230.07 8.88824e-08 0)
(-795.49 432.995 0)
(-888.526 357.27 0)
(-787.554 334.75 0)
(265.028 337.244 0)
(2696.5 203.304 0)
(2980.66 -275.792 0)
(760.407 -345.684 0)
(-37.618 -200.395 0)
(-331.744 -195.036 0)
(-728.505 -185.767 0)
(-995.102 -122.265 0)
(-1192.67 -76.0914 0)
(-1331.98 -58.076 0)
(-1119.76 -33.1119 0)
(-633.903 -10.7525 0)
(-300.209 -2.25475 0)
(-194.228 -1.70822 0)
(-164.51 -1.65499 0)
(-143.565 -1.43159 0)
(-112.351 -0.466631 0)
(-72.6423 0.201062 0)
(-40.9315 0.361736 0)
(-23.2133 0.336825 0)
(-15.1005 0.292466 0)
(-10.5164 0.263536 0)
(-6.79122 0.247909 0)
(-2.20145 0.255492 0)
(3.7646 0.27726 0)
(9.62094 0.270175 0)
(13.999 0.259064 0)
(21.2245 0.295805 0)
(30.8295 0.215354 0)
(48.0095 0.27364 0)
(61.7502 -0.191741 0)
(93.6088 0.0665071 0)
(223.926 0.60732 0)
(713.67 1.78122 0)
(1255.63 -0.892462 0)
(689.309 -1.274 0)
(1230.6 -3.13478 0)
(-341.649 1202.16 0)
(-886.867 1152.32 0)
(-791.927 1059.98 0)
(206.548 981.392 0)
(2532.64 920.123 0)
(2888.48 -374.204 0)
(806.272 -662.535 0)
(-16.5932 -416.133 0)
(-376.5 -391.429 0)
(-734.104 -424.988 0)
(-950.387 -301.444 0)
(-1155.79 -184.584 0)
(-1311.41 -118.42 0)
(-1107.97 -67.3031 0)
(-628.291 -24.6961 0)
(-298.534 -6.17047 0)
(-194.072 -3.31301 0)
(-164.478 -3.79807 0)
(-143.338 -3.95537 0)
(-111.988 -1.26552 0)
(-72.4745 0.365662 0)
(-40.9027 0.806529 0)
(-23.2269 0.77971 0)
(-15.1169 0.680065 0)
(-10.5277 0.605487 0)
(-6.79499 0.561244 0)
(-2.19748 0.566152 0)
(3.7655 0.593211 0)
(9.61451 0.560468 0)
(14.0022 0.516765 0)
(21.212 0.575811 0)
(30.8236 0.368974 0)
(47.9212 0.406766 0)
(61.7058 -0.610423 0)
(93.7899 -0.140343 0)
(224.261 1.10169 0)
(713.38 2.74412 0)
(1255.07 -1.31109 0)
(688.925 -4.23668 0)
(1231.35 -6.14692 0)
(-694.574 872.707 0)
(-979.636 746.753 0)
(-889.715 1282.45 0)
(244.92 1567.62 0)
(2035.65 1485.56 0)
(2094.49 -280.375 0)
(681.074 -756.31 0)
(108.129 -631.923 0)
(-285.55 -611.307 0)
(-665.586 -508.887 0)
(-896.005 -358.612 0)
(-1120.51 -260.771 0)
(-1282.2 -202.803 0)
(-1074.61 -128.511 0)
(-602.045 -46.3693 0)
(-288.732 -11.7967 0)
(-192.92 -5.99266 0)
(-164.951 -7.28226 0)
(-142.24 -6.8812 0)
(-110.059 -2.64178 0)
(-71.5365 0.361134 0)
(-40.7052 1.36367 0)
(-23.2769 1.38894 0)
(-15.1909 1.2167 0)
(-10.5779 1.08458 0)
(-6.81153 1.01411 0)
(-2.18599 1.02683 0)
(3.76 1.06859 0)
(9.58043 1.00671 0)
(14.005 0.94342 0)
(21.1463 1.01284 0)
(30.7302 0.72682 0)
(47.4973 0.557661 0)
(61.4585 -0.940363 0)
(94.4734 -0.563859 0)
(225.348 1.55271 0)
(712.492 4.1409 0)
(1251.89 0.304543 0)
(686.719 -5.75889 0)
(1236.25 -7.52337 0)
(-811.112 -23.5876 0)
(-442.277 62.2168 0)
(51.5274 761.632 0)
(381.695 1232.79 0)
(1018.34 1080.7 0)
(1153.9 -282.753 0)
(534.642 -637.77 0)
(56.2571 -743.179 0)
(-306.708 -738.377 0)
(-527.34 -609.877 0)
(-740.454 -468.827 0)
(-1024.57 -389.139 0)
(-1199.62 -323.945 0)
(-975.109 -193.267 0)
(-529.895 -64.152 0)
(-264.881 -17.4643 0)
(-190.34 -10.6169 0)
(-165.08 -11.2032 0)
(-139.455 -9.11077 0)
(-106.044 -3.85007 0)
(-69.1177 0.415593 0)
(-40.0181 2.17832 0)
(-23.3417 2.39286 0)
(-15.3704 2.17969 0)
(-10.696 1.98406 0)
(-6.84177 1.88043 0)
(-2.15115 1.8988 0)
(3.74906 1.942 0)
(9.51216 1.83591 0)
(14.0066 1.74083 0)
(21.0384 1.81974 0)
(30.4351 1.47879 0)
(46.542 1.07654 0)
(60.7577 -0.871773 0)
(95.8257 -0.799899 0)
(228.212 2.23514 0)
(712.653 6.55553 0)
(1247.24 2.66058 0)
(682.566 -4.99729 0)
(1241.53 -6.15978 0)
(-657.35 91.0821 0)
(-222.97 420.548 0)
(238.292 476.825 0)
(552.382 428.901 0)
(575.217 268.789 0)
(438.513 -414.788 0)
(237.391 -660.561 0)
(11.1807 -712.189 0)
(-157.096 -684.478 0)
(-405.838 -573.992 0)
(-683.294 -510.951 0)
(-980.895 -484.363 0)
(-1093.45 -410.479 0)
(-824.259 -223.743 0)
(-432.635 -69.7463 0)
(-237.144 -22.6541 0)
(-186.887 -15.9216 0)
(-163.499 -14.6557 0)
(-135.154 -10.5746 0)
(-100.879 -4.22755 0)
(-65.7273 1.01444 0)
(-38.7999 3.43831 0)
(-23.2755 3.89833 0)
(-15.5849 3.69422 0)
(-10.8663 3.44657 0)
(-6.89369 3.30373 0)
(-2.12666 3.30667 0)
(3.6994 3.30316 0)
(9.38658 3.12649 0)
(13.9894 2.9687 0)
(20.8938 3.03323 0)
(30.014 2.62705 0)
(45.2322 2.03465 0)
(59.6503 -0.267937 0)
(97.4673 -0.632329 0)
(232.436 2.92059 0)
(712.902 9.15156 0)
(1240.76 4.1443 0)
(678.219 -5.43433 0)
(1247 -6.14414 0)
(-318.086 -27.8258 0)
(-70.5608 167.308 0)
(59.576 41.55 0)
(181.223 -45.3289 0)
(205.332 -309.36 0)
(258.344 -463.745 0)
(248.056 -644.42 0)
(33.2096 -622.844 0)
(-173.537 -624.958 0)
(-360.124 -592.35 0)
(-654.084 -572.846 0)
(-927.755 -551.372 0)
(-948.478 -433.402 0)
(-646.767 -208.437 0)
(-336.118 -65.4991 0)
(-213.014 -27.6855 0)
(-182.632 -20.987 0)
(-159.928 -17.1402 0)
(-129.406 -10.9073 0)
(-94.876 -3.43461 0)
(-61.7306 2.41306 0)
(-37.2391 5.22578 0)
(-23.0951 5.86308 0)
(-15.8058 5.68614 0)
(-11.0723 5.40409 0)
(-6.97658 5.2207 0)
(-2.1517 5.1708 0)
(3.57544 5.05514 0)
(9.18986 4.78147 0)
(13.9167 4.52489 0)
(20.7092 4.50077 0)
(29.4728 4.02927 0)
(43.7522 3.23488 0)
(58.1877 0.829598 0)
(98.8983 0.000282963 0)
(237.64 3.45036 0)
(713.833 10.7631 0)
(1233.18 5.24532 0)
(672.651 -6.0484 0)
(1252.68 -7.25042 0)
(-522.94 -155.97 0)
(-156.116 -30.9688 0)
(33.3875 -122.883 0)
(214.232 -239.695 0)
(172.016 -407.998 0)
(115.637 -513.082 0)
(84.0778 -595.032 0)
(29.9346 -637.581 0)
(-127.711 -595.216 0)
(-355.62 -599.354 0)
(-643.807 -609.364 0)
(-846.522 -571.194 0)
(-762.987 -394.333 0)
(-469.734 -166.363 0)
(-258.456 -58.083 0)
(-194.251 -31.0427 0)
(-176.725 -24.1445 0)
(-153.786 -17.7211 0)
(-121.947 -9.71944 0)
(-88.0432 -1.24537 0)
(-57.3819 4.88046 0)
(-35.4753 7.84235 0)
(-22.8319 8.56899 0)
(-16.0272 8.41758 0)
(-11.3148 8.11316 0)
(-7.1185 7.88887 0)
(-2.2862 7.74861 0)
(3.32423 7.48599 0)
(8.87561 7.1175 0)
(13.7189 6.74735 0)
(20.4162 6.59743 0)
(28.7942 6.06815 0)
(42.1488 5.18152 0)
(56.5333 2.83317 0)
(99.9928 1.93563 0)
(242.807 5.23217 0)
(714.632 13.3593 0)
(1224.56 8.46801 0)
(666.178 -3.9493 0)
(1259.82 -4.11817 0)
(-498.227 11.706 0)
(-38.6773 29.971 0)
(-141.56 -110.096 0)
(-93.5241 -395.068 0)
(-58.1137 -544.087 0)
(78.1121 -602.087 0)
(128.084 -547.703 0)
(33.0319 -553.617 0)
(-136.7 -565.354 0)
(-373.756 -597.057 0)
(-626.948 -611.85 0)
(-720.544 -525.596 0)
(-558.368 -307.828 0)
(-322.744 -122.489 0)
(-205.718 -52.916 0)
(-180.309 -34.1746 0)
(-169.795 -26.2345 0)
(-146.027 -17.148 0)
(-113.529 -7.356 0)
(-80.807 1.58457 0)
(-52.9734 7.83187 0)
(-33.6847 10.7852 0)
(-22.5408 11.5443 0)
(-16.245 11.4261 0)
(-11.5818 11.1189 0)
(-7.32788 10.8593 0)
(-2.53993 10.5638 0)
(2.96727 10.1214 0)
(8.47808 9.69033 0)
(13.4156 9.17329 0)
(20.0547 8.85511 0)
(28.1084 8.24282 0)
(40.6349 7.30997 0)
(55.0598 5.23805 0)
(101.21 4.47849 0)
(248.648 7.14353 0)
(716.951 14.5034 0)
(1216.51 9.78686 0)
(660.523 -2.49639 0)
(1260.46 -1.94373 0)
(-482.778 -15.3435 0)
(-273.489 -182.741 0)
(-376.195 -372.131 0)
(-203.978 -545.058 0)
(-27.4749 -536.878 0)
(112.153 -478.067 0)
(130.785 -467.335 0)
(12.9255 -502.932 0)
(-169.572 -538.924 0)
(-400.426 -583.147 0)
(-574.944 -568.409 0)
(-553.556 -422.539 0)
(-374.539 -213.903 0)
(-224.092 -90.9117 0)
(-173.353 -48.7978 0)
(-168.539 -35.3336 0)
(-160.318 -26.0527 0)
(-135.594 -14.9154 0)
(-103.895 -3.47446 0)
(-73.4077 5.56275 0)
(-48.5158 11.6675 0)
(-31.8979 14.4534 0)
(-22.2144 15.1806 0)
(-16.4371 15.0897 0)
(-11.861 14.7799 0)
(-7.65342 14.4323 0)
(-2.99731 13.9577 0)
(2.48255 13.3918 0)
(7.96202 12.8536 0)
(12.914 12.1794 0)
(19.5196 11.6843 0)
(27.3052 10.9653 0)
(39.2533 10.0035 0)
(53.8048 8.29349 0)
(101.829 7.94781 0)
(252.467 9.81215 0)
(717.179 16.3131 0)
(1208.18 11.6098 0)
(654.874 -1.39538 0)
(1264.1 0.52421 0)
(-689.108 -136.502 0)
(-382.49 -225.919 0)
(-490.702 -368.149 0)
(-252.281 -448.516 0)
(6.44105 -446.376 0)
(145.126 -378.694 0)
(104.123 -406.434 0)
(-35.9539 -463.494 0)
(-213.998 -516.775 0)
(-402.169 -541.531 0)
(-472.18 -470.5 0)
(-378.929 -295.93 0)
(-238.8 -142.485 0)
(-163.643 -70.5826 0)
(-152.161 -45.2286 0)
(-158.391 -34.8375 0)
(-150.12 -24.1087 0)
(-124.27 -11.4205 0)
(-93.7959 0.274529 0)
(-66.2157 9.35714 0)
(-44.406 15.0704 0)
(-30.2994 17.6632 0)
(-21.9277 18.3957 0)
(-16.6311 18.3862 0)
(-12.2153 18.1166 0)
(-8.12015 17.7182 0)
(-3.54256 17.242 0)
(1.9033 16.7174 0)
(7.30978 16.0452 0)
(12.2889 15.3075 0)
(18.8847 14.7476 0)
(26.4886 14.0587 0)
(38.0603 13.2122 0)
(53.0789 11.9618 0)
(102.674 12.43 0)
(256.709 13.4343 0)
(718.683 19.533 0)
(1199.44 15.7054 0)
(649.84 0.104828 0)
(1261.3 5.08103 0)
(-832.02 -127.576 0)
(-496.712 -188.036 0)
(-590.699 -302.78 0)
(-279.36 -339.878 0)
(39.8083 -325.999 0)
(150.643 -311.364 0)
(49.069 -373.401 0)
(-93.4038 -429.353 0)
(-244.771 -477.052 0)
(-355.833 -456.645 0)
(-338.275 -339.067 0)
(-237.469 -189.525 0)
(-157.385 -96.048 0)
(-130.372 -55.779 0)
(-138.908 -41.4254 0)
(-148.187 -32.9143 0)
(-137.752 -20.9339 0)
(-112.098 -6.71223 0)
(-83.8734 4.77109 0)
(-59.1498 13.6476 0)
(-40.5117 18.8652 0)
(-28.6935 21.2209 0)
(-21.5177 21.9389 0)
(-16.706 21.9815 0)
(-12.5046 21.7364 0)
(-8.49625 21.3412 0)
(-3.96173 20.9312 0)
(1.32926 20.4156 0)
(6.60343 19.6199 0)
(11.6636 18.844 0)
(18.3162 18.2673 0)
(25.8257 17.6622 0)
(37.2327 17.0277 0)
(53.051 16.2229 0)
(103.248 17.2783 0)
(259.312 17.6639 0)
(719.368 23.4185 0)
(1189.45 19.8077 0)
(644.635 1.14004 0)
(1259.1 9.18429 0)
(-993.243 -152.893 0)
(-551.324 -147.828 0)
(-637.023 -218.04 0)
(-274.655 -233.148 0)
(33.9187 -218.884 0)
(99.4482 -284.272 0)
(-9.57524 -348.947 0)
(-135.836 -391.591 0)
(-240.297 -407.634 0)
(-269.202 -338.587 0)
(-214.774 -215.7 0)
(-144.747 -118.617 0)
(-109.917 -66.6523 0)
(-111.007 -45.5827 0)
(-130.128 -37.4459 0)
(-138.645 -28.9251 0)
(-124.87 -15.599 0)
(-99.4998 -1.73434 0)
(-74.1764 9.52945 0)
(-52.6341 17.699 0)
(-37.1081 22.4018 0)
(-27.3375 24.5833 0)
(-21.1948 25.396 0)
(-16.8262 25.6224 0)
(-12.8323 25.5708 0)
(-8.89614 25.3589 0)
(-4.43456 25.0868 0)
(0.639744 24.6075 0)
(5.79533 23.8003 0)
(10.9854 23.0993 0)
(17.7459 22.5815 0)
(25.2942 22.1354 0)
(36.6733 21.7881 0)
(53.3204 21.4078 0)
(104.062 22.7741 0)
(262.626 23.4055 0)
(720.749 29.7418 0)
(1177.97 25.2687 0)
(639.603 3.61757 0)
(1251.35 13.5306 0)
(-1121.81 -97.0382 0)
(-559.49 -58.8734 0)
(-672.916 -118.006 0)
(-280.174 -164.694 0)
(-9.45624 -178.063 0)
(25.3099 -265.235 0)
(-54.3478 -315.759 0)
(-149.958 -334.987 0)
(-193.694 -304.581 0)
(-170.878 -215.353 0)
(-126.304 -126.892 0)
(-93.841 -71.8062 0)
(-87.0072 -43.575 0)
(-102.227 -34.2395 0)
(-122.856 -31.0075 0)
(-127.135 -21.2522 0)
(-111.55 -6.29667 0)
(-87.8829 7.01431 0)
(-65.1468 18.0036 0)
(-46.7455 25.3314 0)
(-33.8778 29.4426 0)
(-25.8083 31.2989 0)
(-20.5164 31.9429 0)
(-16.5376 32.0575 0)
(-12.7586 31.9296 0)
(-8.96269 31.6793 0)
(-4.68579 31.3297 0)
(0.0895292 30.7539 0)
(5.15009 29.9123 0)
(10.4892 29.2624 0)
(17.3873 28.8371 0)
(25.0611 28.5603 0)
(36.5316 28.5123 0)
(54.0011 28.5557 0)
(105.173 30.2569 0)
(266.027 31.6389 0)
(721.163 38.57 0)
(1164.28 31.7272 0)
(633.324 6.61736 0)
(1242.57 17.9593 0)
(-1143.49 -10.755 0)
(-571.529 22.571 0)
(-738.996 -41.6289 0)
(-332.529 -133.759 0)
(-62.9656 -182.362 0)
(-33.2408 -234.581 0)
(-76.7909 -263.336 0)
(-125.064 -246.396 0)
(-125.014 -186.071 0)
(-97.9742 -116.265 0)
(-76.4471 -67.5555 0)
(-64.4594 -38.0693 0)
(-73.7167 -24.7331 0)
(-98.8961 -22.6186 0)
(-117.613 -19.9872 0)
(-114.833 -8.44047 0)
(-97.6317 6.6783 0)
(-76.0831 20.1184 0)
(-56.5254 30.4356 0)
(-41.611 36.8291 0)
(-31.3576 40.2212 0)
(-24.9281 41.6925 0)
(-20.4638 42.0937 0)
(-16.839 41.9346 0)
(-13.1966 41.476 0)
(-9.4742 40.8767 0)
(-5.32634 40.1688 0)
(-0.726132 39.2607 0)
(4.35805 38.2007 0)
(9.9493 37.5692 0)
(17.0693 37.1654 0)
(24.9811 37.0505 0)
(36.6689 37.3075 0)
(55.0016 37.8172 0)
(107.033 40.0112 0)
(270.637 42.0662 0)
(720.834 48.4913 0)
(1147.18 37.1238 0)
(626.336 8.02911 0)
(1227.67 21.203 0)
(-1110.42 14.943 0)
(-589.241 41.9361 0)
(-823.562 -18.2095 0)
(-415.789 -126.455 0)
(-106.612 -186.022 0)
(-52.7196 -191.571 0)
(-65.7329 -184.818 0)
(-75.502 -143.708 0)
(-68.2961 -92.4514 0)
(-56.672 -54.3474 0)
(-50.9512 -27.4049 0)
(-52.5758 -12.3339 0)
(-72.1184 -8.88917 0)
(-97.6541 -8.77688 0)
(-109.193 -0.717439 0)
(-101.439 13.245 0)
(-84.0298 28.2852 0)
(-64.9895 41.6522 0)
(-49.0437 51.2283 0)
(-37.3157 57.0055 0)
(-29.1912 59.745 0)
(-24.0039 60.4275 0)
(-20.2831 59.8993 0)
(-17.1328 58.7674 0)
(-13.778 57.378 0)
(-10.2223 55.9754 0)
(-6.24306 54.6133 0)
(-1.80703 53.2935 0)
(3.52012 52.0902 0)
(9.4915 51.5085 0)
(16.8874 51.1564 0)
(25.1981 51.2436 0)
(37.2704 51.8663 0)
(56.6064 53.0281 0)
(109.267 55.9797 0)
(274.198 59.4048 0)
(716.4 65.7314 0)
(1125.29 49.5039 0)
(617.982 15.4599 0)
(1214.41 30.2538 0)
(-1088.67 11.1099 0)
(-603.476 22.9646 0)
(-901.263 -18.3082 0)
(-494.239 -101.287 0)
(-125.714 -138.395 0)
(-32.081 -112.491 0)
(-30.668 -81.76 0)
(-36.0561 -49.6587 0)
(-38.903 -22.8774 0)
(-35.2931 -4.54967 0)
(-35.9614 9.96538 0)
(-46.6169 15.7087 0)
(-70.289 14.9019 0)
(-91.0215 16.169 0)
(-96.3919 25.1494 0)
(-86.8847 38.0336 0)
(-70.2575 51.017 0)
(-53.9743 61.6541 0)
(-41.7304 68.7206 0)
(-33.404 72.8276 0)
(-28.06 74.7329 0)
(-24.7795 75.2506 0)
(-22.0635 75.0067 0)
(-19.2686 74.311 0)
(-15.8872 73.3506 0)
(-12.1383 72.3926 0)
(-7.91068 71.5353 0)
(-3.1575 71.2195 0)
(2.63799 71.2574 0)
(9.04945 71.8794 0)
(16.814 72.8372 0)
(25.6652 74.2827 0)
(38.3885 76.3492 0)
(58.9654 79.1897 0)
(113.178 84.2119 0)
(280.034 90.5399 0)
(711.293 97.9393 0)
(1098.74 74.113 0)
(607.786 29.0038 0)
(1183.61 41.9204 0)
(-1077.58 40.8514 0)
(-617.59 49.1582 0)
(-943.295 24.5245 0)
(-531.509 -14.5791 0)
(-117.408 -27.7685 0)
(1.85561 -2.81651 0)
(-5.18577 18.7181 0)
(-18.7605 30.5164 0)
(-24.8274 43.4297 0)
(-25.0235 54.4132 0)
(-31.4295 60.3234 0)
(-47.8188 57.418 0)
(-71.6748 51.9895 0)
(-87.7791 53.0055 0)
(-88.1236 61.0953 0)
(-76.5121 72.2175 0)
(-61.2682 82.7848 0)
(-47.9297 90.5336 0)
(-38.2766 95.4774 0)
(-31.522 98.8772 0)
(-26.8562 102.428 0)
(-23.74 106.566 0)
(-21.1886 110.705 0)
(-18.7287 114.445 0)
(-15.6266 117.655 0)
(-11.9716 120.672 0)
(-7.37346 123.038 0)
(-2.07478 125.228 0)
(4.15596 126.633 0)
(11.0138 128.436 0)
(19.2033 130.405 0)
(28.5824 133.337 0)
(41.999 136.689 0)
(64.1832 141.592 0)
(120.205 148.723 0)
(287.426 157.136 0)
(700.571 159.524 0)
(1058.86 114.908 0)
(586.96 48.5954 0)
(1146.06 48.9438 0)
(-1001.94 46.1131 0)
(-619.209 83.1381 0)
(-962.683 124.175 0)
(-544.63 133.075 0)
(-114.379 123.508 0)
(12.7151 131.837 0)
(1.45276 139.86 0)
(-12.2431 144.164 0)
(-15.8752 152.111 0)
(-19.0138 156.646 0)
(-33.0658 156.427 0)
(-54.6478 151.613 0)
(-74.5411 149.094 0)
(-82.2469 154.753 0)
(-77.8785 166.829 0)
(-65.9839 180.516 0)
(-52.6074 193.222 0)
(-41.7432 203.787 0)
(-33.6902 212.458 0)
(-26.706 219.898 0)
(-20.6513 227.243 0)
(-16.8036 235.454 0)
(-14.471 244.569 0)
(-12.5711 254.247 0)
(-9.8863 263.854 0)
(-6.9513 273.862 0)
(-3.5198 281.549 0)
(0.306348 289.36 0)
(5.72848 295.036 0)
(12.6845 301.504 0)
(21.5374 307.414 0)
(31.7205 314.485 0)
(46.3431 320.176 0)
(70.5619 327.881 0)
(128.157 334.959 0)
(290.443 338.256 0)
(670.601 317.41 0)
(991.843 207.81 0)
(544.22 54.2434 0)
(1089.62 6.73067 0)
(-953.033 -104.11 0)
(-542.366 31.8881 0)
(-895.174 237.433 0)
(-532.152 362.964 0)
(-118.601 373.202 0)
(17.613 384.454 0)
(6.69262 398.67 0)
(-6.95508 413.999 0)
(-12.7992 430.335 0)
(-20.8644 442.442 0)
(-36.2793 451.717 0)
(-54.8846 463.359 0)
(-68.649 482.077 0)
(-70.6891 508.801 0)
(-63.2978 539.005 0)
(-51.0794 570.321 0)
(-38.8435 598.789 0)
(-29.3931 623.877 0)
(-22.7515 645.776 0)
(-17.2743 664.584 0)
(-11.8659 681.789 0)
(-7.04451 697.528 0)
(-3.07809 710.657 0)
(-0.144574 721.489 0)
(3.27449 730.531 0)
(5.08021 739.612 0)
(7.56161 745.258 0)
(10.921 752.5 0)
(15.8581 758.256 0)
(22.9419 764.732 0)
(31.7117 769.164 0)
(40.8801 772.148 0)
(54.9081 770.301 0)
(78.4293 766.949 0)
(130.203 755.759 0)
(270.516 727.181 0)
(574.869 634.05 0)
(805.264 389.344 0)
(393.193 53.0239 0)
(1087.3 -169.776 0)
(-1071.53 1170.65 0)
(-290.085 -461.632 0)
(-643.646 307.014 0)
(-413.798 626.344 0)
(-93.671 708.159 0)
(37.2566 733.454 0)
(29.9231 765.912 0)
(18.2707 802.519 0)
(11.5338 838.775 0)
(1.59126 870.905 0)
(-12.9098 898.168 0)
(-25.3921 927.247 0)
(-30.7514 960.435 0)
(-27.3887 998.559 0)
(-18.5957 1037.76 0)
(-8.37427 1075.18 0)
(-0.99813 1108.52 0)
(3.53528 1137.65 0)
(5.5365 1162.28 0)
(7.99698 1182.27 0)
(11.0948 1198.93 0)
(11.0152 1211.31 0)
(8.61792 1218.03 0)
(6.58042 1220.25 0)
(7.57856 1219 0)
(7.23984 1216.79 0)
(8.89946 1211.61 0)
(12.8318 1206.52 0)
(17.5156 1199.56 0)
(23.196 1191.54 0)
(28.6838 1180.55 0)
(32.8157 1165.45 0)
(41.3324 1145.02 0)
(56.5482 1119.25 0)
(89.8352 1081.08 0)
(173.16 1018.12 0)
(345.049 842.905 0)
(431.946 474.366 0)
(5.43126 -386.407 0)
(1202.13 597.747 0)
(-269.8 79798.7 0)
(-1374.59 335.951 0)
(153.239 -95.306 0)
(-145.593 303.812 0)
(-15.3852 465.778 0)
(73.2657 467.169 0)
(73.2453 485.175 0)
(63.2586 501.668 0)
(53.1007 516.815 0)
(36.3683 528.226 0)
(18.0136 538.36 0)
(5.11866 553.38 0)
(0.070054 572.128 0)
(3.82482 592.125 0)
(10.5328 611.131 0)
(17.11 625.972 0)
(21.3603 637.033 0)
(22.4104 645.087 0)
(20.2412 651.075 0)
(18.0443 655.646 0)
(16.1253 657.499 0)
(11.3547 656.436 0)
(5.53765 654.947 0)
(0.797697 654.134 0)
(-0.0690566 653.261 0)
(-2.04874 650.903 0)
(-2.33375 649.607 0)
(-0.69103 646.172 0)
(1.42759 642.248 0)
(4.62922 637.353 0)
(6.56736 631.701 0)
(6.64215 625.249 0)
(10.3866 617.219 0)
(16.8083 607.562 0)
(32.7494 589.498 0)
(41.0049 549.945 0)
(50.8914 408.146 0)
(-379.346 41.8272 0)
(512.087 370.285 0)
(883.648 64764.2 0)
(76149.1 -79918.2 0)
(-77278.8 1175.59 0)
(-674.616 1703.22 0)
(126.883 1716.64 0)
(63.7458 1722.63 0)
(55.948 1666.45 0)
(63.1678 1588.54 0)
(48.7601 1524.89 0)
(37.1261 1472.3 0)
(22.3532 1431.26 0)
(11.3295 1411.36 0)
(7.14762 1400.81 0)
(6.58464 1398.63 0)
(10.1966 1393.9 0)
(14.0203 1384.08 0)
(16.5857 1368.43 0)
(17.4222 1349.11 0)
(17.0665 1328.18 0)
(15.7107 1308.15 0)
(14.1872 1290.87 0)
(11.8568 1274.7 0)
(8.55634 1261.83 0)
(6.39943 1254.04 0)
(4.95528 1249.45 0)
(4.46522 1248.07 0)
(3.71856 1244.88 0)
(4.34048 1246.33 0)
(5.74102 1242.8 0)
(9.01675 1241.09 0)
(13.0321 1231.96 0)
(17.0198 1222.76 0)
(18.8601 1207.48 0)
(24.2887 1196.3 0)
(29.8353 1171.5 0)
(34.3137 1147.9 0)
(-1.59738 1101.91 0)
(-144.591 1107 0)
(395.462 1199.14 0)
(62374.3 1090.28 0)
(-61563.9 -64060.3 0)
(76149.1 79918.2 0)
(-77278.8 -1175.59 0)
(-674.616 -1703.22 0)
(126.883 -1716.64 0)
(63.7458 -1722.63 0)
(55.948 -1666.45 0)
(63.1678 -1588.54 0)
(48.7601 -1524.89 0)
(37.1261 -1472.3 0)
(22.3532 -1431.26 0)
(11.3295 -1411.36 0)
(7.14762 -1400.81 0)
(6.58464 -1398.63 0)
(10.1966 -1393.9 0)
(14.0203 -1384.08 0)
(16.5857 -1368.43 0)
(17.4222 -1349.11 0)
(17.0665 -1328.18 0)
(15.7107 -1308.15 0)
(14.1872 -1290.87 0)
(11.8568 -1274.7 0)
(8.55634 -1261.83 0)
(6.39943 -1254.04 0)
(4.95528 -1249.45 0)
(4.46522 -1248.07 0)
(3.71856 -1244.88 0)
(4.34048 -1246.33 0)
(5.74102 -1242.8 0)
(9.01675 -1241.09 0)
(13.0321 -1231.96 0)
(17.0198 -1222.76 0)
(18.8601 -1207.48 0)
(24.2887 -1196.3 0)
(29.8353 -1171.5 0)
(34.3137 -1147.9 0)
(-1.59738 -1101.91 0)
(-144.591 -1107 0)
(395.462 -1199.14 0)
(62374.3 -1090.28 0)
(-61563.9 64060.3 0)
(-269.8 -79798.7 0)
(-1374.59 -335.951 0)
(153.239 95.306 0)
(-145.593 -303.812 0)
(-15.3852 -465.778 0)
(73.2657 -467.169 0)
(73.2453 -485.175 0)
(63.2586 -501.668 0)
(53.1007 -516.815 0)
(36.3683 -528.226 0)
(18.0136 -538.36 0)
(5.11866 -553.38 0)
(0.0700539 -572.128 0)
(3.82482 -592.125 0)
(10.5328 -611.131 0)
(17.11 -625.972 0)
(21.3603 -637.033 0)
(22.4104 -645.087 0)
(20.2412 -651.075 0)
(18.0443 -655.646 0)
(16.1253 -657.499 0)
(11.3547 -656.436 0)
(5.53765 -654.947 0)
(0.797697 -654.134 0)
(-0.0690566 -653.261 0)
(-2.04874 -650.903 0)
(-2.33375 -649.607 0)
(-0.69103 -646.172 0)
(1.42759 -642.248 0)
(4.62922 -637.353 0)
(6.56736 -631.701 0)
(6.64215 -625.249 0)
(10.3866 -617.219 0)
(16.8083 -607.562 0)
(32.7494 -589.498 0)
(41.0049 -549.945 0)
(50.8914 -408.146 0)
(-379.346 -41.8272 0)
(512.087 -370.285 0)
(883.648 -64764.2 0)
(-1071.53 -1170.65 0)
(-290.085 461.632 0)
(-643.646 -307.014 0)
(-413.798 -626.344 0)
(-93.671 -708.159 0)
(37.2566 -733.454 0)
(29.9231 -765.912 0)
(18.2707 -802.519 0)
(11.5338 -838.775 0)
(1.59126 -870.905 0)
(-12.9098 -898.168 0)
(-25.3921 -927.247 0)
(-30.7514 -960.435 0)
(-27.3887 -998.559 0)
(-18.5957 -1037.76 0)
(-8.37427 -1075.18 0)
(-0.99813 -1108.52 0)
(3.53528 -1137.65 0)
(5.5365 -1162.28 0)
(7.99698 -1182.27 0)
(11.0948 -1198.93 0)
(11.0152 -1211.31 0)
(8.61792 -1218.03 0)
(6.58042 -1220.25 0)
(7.57856 -1219 0)
(7.23984 -1216.79 0)
(8.89946 -1211.61 0)
(12.8318 -1206.52 0)
(17.5156 -1199.56 0)
(23.196 -1191.54 0)
(28.6838 -1180.55 0)
(32.8157 -1165.45 0)
(41.3324 -1145.02 0)
(56.5482 -1119.25 0)
(89.8352 -1081.08 0)
(173.16 -1018.12 0)
(345.049 -842.905 0)
(431.946 -474.366 0)
(5.43126 386.407 0)
(1202.13 -597.747 0)
(-953.033 104.11 0)
(-542.366 -31.8881 0)
(-895.174 -237.433 0)
(-532.152 -362.964 0)
(-118.601 -373.202 0)
(17.613 -384.454 0)
(6.69262 -398.67 0)
(-6.95508 -413.999 0)
(-12.7992 -430.335 0)
(-20.8644 -442.442 0)
(-36.2793 -451.717 0)
(-54.8846 -463.359 0)
(-68.649 -482.077 0)
(-70.6891 -508.801 0)
(-63.2978 -539.005 0)
(-51.0794 -570.321 0)
(-38.8435 -598.789 0)
(-29.3931 -623.877 0)
(-22.7515 -645.776 0)
(-17.2743 -664.584 0)
(-11.8659 -681.789 0)
(-7.04451 -697.528 0)
(-3.07809 -710.657 0)
(-0.144574 -721.489 0)
(3.27449 -730.531 0)
(5.08021 -739.612 0)
(7.56161 -745.258 0)
(10.921 -752.5 0)
(15.8581 -758.256 0)
(22.9419 -764.732 0)
(31.7117 -769.164 0)
(40.8801 -772.148 0)
(54.9081 -770.301 0)
(78.4293 -766.949 0)
(130.203 -755.759 0)
(270.516 -727.181 0)
(574.869 -634.05 0)
(805.264 -389.344 0)
(393.193 -53.0239 0)
(1087.3 169.776 0)
(-1001.94 -46.1131 0)
(-619.209 -83.1381 0)
(-962.683 -124.175 0)
(-544.63 -133.075 0)
(-114.379 -123.508 0)
(12.7151 -131.837 0)
(1.45276 -139.86 0)
(-12.2431 -144.164 0)
(-15.8752 -152.111 0)
(-19.0138 -156.646 0)
(-33.0658 -156.427 0)
(-54.6478 -151.613 0)
(-74.5411 -149.094 0)
(-82.2469 -154.753 0)
(-77.8785 -166.829 0)
(-65.9839 -180.516 0)
(-52.6074 -193.222 0)
(-41.7432 -203.787 0)
(-33.6902 -212.458 0)
(-26.706 -219.898 0)
(-20.6513 -227.243 0)
(-16.8036 -235.454 0)
(-14.471 -244.569 0)
(-12.5711 -254.247 0)
(-9.8863 -263.854 0)
(-6.9513 -273.862 0)
(-3.5198 -281.549 0)
(0.306348 -289.36 0)
(5.72848 -295.036 0)
(12.6845 -301.504 0)
(21.5374 -307.414 0)
(31.7205 -314.485 0)
(46.3431 -320.176 0)
(70.5619 -327.881 0)
(128.157 -334.959 0)
(290.443 -338.256 0)
(670.601 -317.41 0)
(991.843 -207.81 0)
(544.22 -54.2434 0)
(1089.62 -6.73067 0)
(-1077.58 -40.8514 0)
(-617.59 -49.1582 0)
(-943.295 -24.5245 0)
(-531.509 14.5791 0)
(-117.408 27.7685 0)
(1.85561 2.81651 0)
(-5.18577 -18.7181 0)
(-18.7605 -30.5164 0)
(-24.8274 -43.4297 0)
(-25.0235 -54.4132 0)
(-31.4295 -60.3234 0)
(-47.8188 -57.418 0)
(-71.6748 -51.9895 0)
(-87.7791 -53.0055 0)
(-88.1236 -61.0953 0)
(-76.5121 -72.2175 0)
(-61.2682 -82.7848 0)
(-47.9297 -90.5336 0)
(-38.2766 -95.4774 0)
(-31.522 -98.8772 0)
(-26.8562 -102.428 0)
(-23.74 -106.566 0)
(-21.1886 -110.705 0)
(-18.7287 -114.445 0)
(-15.6266 -117.655 0)
(-11.9716 -120.672 0)
(-7.37346 -123.038 0)
(-2.07478 -125.228 0)
(4.15596 -126.633 0)
(11.0138 -128.436 0)
(19.2033 -130.405 0)
(28.5824 -133.337 0)
(41.999 -136.689 0)
(64.1832 -141.592 0)
(120.205 -148.723 0)
(287.426 -157.136 0)
(700.571 -159.524 0)
(1058.86 -114.908 0)
(586.96 -48.5954 0)
(1146.06 -48.9438 0)
(-1088.67 -11.1099 0)
(-603.476 -22.9646 0)
(-901.263 18.3082 0)
(-494.239 101.287 0)
(-125.714 138.395 0)
(-32.081 112.491 0)
(-30.668 81.76 0)
(-36.0561 49.6587 0)
(-38.903 22.8774 0)
(-35.2931 4.54967 0)
(-35.9614 -9.96538 0)
(-46.6169 -15.7087 0)
(-70.289 -14.9019 0)
(-91.0215 -16.169 0)
(-96.3919 -25.1494 0)
(-86.8847 -38.0336 0)
(-70.2575 -51.017 0)
(-53.9743 -61.6541 0)
(-41.7304 -68.7206 0)
(-33.404 -72.8276 0)
(-28.06 -74.7329 0)
(-24.7795 -75.2506 0)
(-22.0635 -75.0067 0)
(-19.2686 -74.311 0)
(-15.8872 -73.3506 0)
(-12.1383 -72.3926 0)
(-7.91068 -71.5353 0)