/*--------------------------------*- C++ -*----------------------------------*\
| =========                 |                                                 |
| \\      /  F ield         | OpenFOAM: The Open Source CFD Toolbox           |
|  \\    /   O peration     | Version:  v1912                                 |
|   \\  /    A nd           | Website:  www.openfoam.com                      |
|    \\/     M anipulation  |                                                 |
\*---------------------------------------------------------------------------*/
FoamFile
{
    version     2.0;
    format      ascii;
    class       volTensorField;
    location    "6.6";
    object      grad(U);
}
// * * * * * * * * * * * * * * * * * * * * * * * * * * * * * * * * * * * * * //

dimensions      [0 0 -1 0 0 0 0];


internalField   nonuniform List<tensor> 
1900
(
(-4.1072 -2.05537e-05 0 -8.0693e-07 -1.81529e-05 0 0 0 0)
(4.30896 -5.24309e-07 0 1.08763e-05 -2.77232e-05 0 0 0 0)
(0.692006 2.30335e-05 0 3.43602e-05 -1.66828e-06 0 0 0 0)
(-0.0032468 -4.10973e-05 0 6.75087e-05 5.60428e-05 0 0 0 0)
(0.011419 -0.000159197 0 3.79187e-05 -5.57451e-05 0 0 0 0)
(0.00850369 -0.000373883 0 -0.000187714 -0.000287875 0 0 0 0)
(0.012714 0.0014823 0 -0.000827605 -0.000930525 0 0 0 0)
(0.0161653 0.014692 0 -0.00150912 0.00221171 0 0 0 0)
(-0.0221782 0.0581257 0 0.0062748 0.024255 0 0 0 0)
(-0.0110078 0.20978 0 0.0581518 0.116092 0 0 0 0)
(-4.10719 -2.53224e-05 0 -1.63209e-06 8.26766e-06 0 0 0 0)
(4.309 1.7009e-05 0 2.45898e-05 1.2286e-05 0 0 0 0)
(0.692063 6.07325e-05 0 5.43987e-05 8.79197e-06 0 0 0 0)
(-0.00324324 -1.29796e-05 0 8.34601e-05 -1.07475e-05 0 0 0 0)
(0.0111638 -0.000184721 0 -6.03398e-05 4.98892e-05 0 0 0 0)
(0.00763817 -0.000500897 0 -0.000468981 0.000148449 0 0 0 0)
(0.0113926 0.00101728 0 -0.00104465 0.000423772 0 0 0 0)
(0.0232677 0.0104935 0 -0.000505328 -0.00133385 0 0 0 0)
(0.0374827 0.0557542 0 0.0102441 -0.0142682 0 0 0 0)
(0.11756 0.15006 0 0.0908924 -0.0594595 0 0 0 0)
(-4.10718 -3.4464e-13 0 -7.80626e-14 1.97705e-05 0 0 0 0)
(4.30902 -3.37053e-14 0 8.97381e-13 3.08744e-05 0 0 0 0)
(0.692065 3.33761e-13 0 2.99782e-13 -1.42474e-05 0 0 0 0)
(-0.00336154 4.37808e-13 0 -1.23057e-13 -9.05906e-05 0 0 0 0)
(0.0108665 6.04787e-13 0 -1.39998e-13 1.17118e-05 0 0 0 0)
(0.00751938 1.57788e-13 0 1.74557e-13 0.000278852 0 0 0 0)
(0.0126776 -3.60576e-13 0 1.18585e-13 0.00101351 0 0 0 0)
(0.027454 -7.5841e-13 0 -1.5477e-13 -0.00175571 0 0 0 0)
(0.0692195 -9.56293e-13 0 -1.46096e-13 -0.0199735 0 0 0 0)
(0.174346 -7.14908e-13 0 -1.79164e-13 -0.113264 0 0 0 0)
(-4.10719 2.53224e-05 0 1.63209e-06 8.26766e-06 0 0 0 0)
(4.309 -1.7009e-05 0 -2.45898e-05 1.2286e-05 0 0 0 0)
(0.692063 -6.07325e-05 0 -5.43987e-05 8.79197e-06 0 0 0 0)
(-0.00324324 1.29796e-05 0 -8.34601e-05 -1.07475e-05 0 0 0 0)
(0.0111638 0.000184721 0 6.03398e-05 4.98892e-05 0 0 0 0)
(0.00763817 0.000500897 0 0.000468981 0.000148449 0 0 0 0)
(0.0113926 -0.00101728 0 0.00104465 0.000423772 0 0 0 0)
(0.0232677 -0.0104935 0 0.000505328 -0.00133385 0 0 0 0)
(0.0374827 -0.0557542 0 -0.0102441 -0.0142682 0 0 0 0)
(0.11756 -0.15006 0 -0.0908924 -0.0594595 0 0 0 0)
(-4.1072 2.05537e-05 0 8.06929e-07 -1.81529e-05 0 0 0 0)
(4.30896 5.24309e-07 0 -1.08763e-05 -2.77232e-05 0 0 0 0)
(0.692006 -2.30335e-05 0 -3.43602e-05 -1.66828e-06 0 0 0 0)
(-0.0032468 4.10973e-05 0 -6.75087e-05 5.60428e-05 0 0 0 0)
(0.011419 0.000159197 0 -3.79187e-05 -5.57451e-05 0 0 0 0)
(0.00850369 0.000373883 0 0.000187714 -0.000287875 0 0 0 0)
(0.012714 -0.0014823 0 0.000827605 -0.000930525 0 0 0 0)
(0.0161653 -0.014692 0 0.00150912 0.00221171 0 0 0 0)
(-0.0221782 -0.0581257 0 -0.0062748 0.024255 0 0 0 0)
(-0.0110078 -0.20978 0 -0.0581518 0.116092 0 0 0 0)
(0.182244 0.415799 -2.10639e-17 0.245739 -0.230542 3.15958e-17 5.73836e-17 7.38869e-17 -5.70937e-33)
(0.526775 0.577399 0 0.302611 -0.464726 0 -1.6137e-16 -4.73647e-17 0)
(0.812751 0.992702 0 0.301057 -0.801342 0 -2.64276e-16 -8.5649e-17 0)
(1.50147 1.6105 0 0.345649 -1.46382 0 0 0 0)
(2.79859 1.87167 2.73213e-16 1.13949 -3.54502 -4.09819e-16 -2.3014e-15 -1.53427e-15 -7.40544e-32)
(0.255427 0.158597 0 0.188855 -0.206195 0 1.01789e-16 3.22279e-17 0)
(0.43994 0.166685 0 0.152595 -0.336093 0 1.6137e-16 4.73647e-17 0)
(0.757545 0.420777 0 0.0647354 -0.629744 0 2.64276e-16 8.5649e-17 0)
(1.68599 0.87038 0 -0.0665376 -1.33625 0 0 0 0)
(3.71388 0.582215 0 -0.185659 -3.11136 0 0 0 0)
(0.315477 -2.16688e-13 0 1.38717e-13 -0.30101 0 0 0 0)
(0.465202 2.6375e-13 0 4.1787e-13 -0.376283 0 0 0 0)
(0.752719 6.72903e-13 0 5.79747e-13 -0.636446 0 0 0 0)
(1.58916 9.95697e-13 0 4.32243e-13 -1.36636 0 0 0 0)
(3.46073 8.75359e-13 0 8.95435e-13 -3.66859 0 0 0 0)
(0.255427 -0.158597 0 -0.188855 -0.206195 0 1.01789e-16 -3.22279e-17 0)
(0.43994 -0.166685 0 -0.152595 -0.336093 0 1.6137e-16 -4.73647e-17 0)
(0.757545 -0.420777 0 -0.0647354 -0.629744 0 2.64276e-16 -8.5649e-17 0)
(1.68599 -0.87038 0 0.0665376 -1.33625 0 0 0 0)
(3.71388 -0.582215 0 0.185659 -3.11136 0 0 0 0)
(0.182244 -0.415799 2.10639e-17 -0.245739 -0.230542 3.15958e-17 -2.60961e-16 1.38343e-16 -5.70937e-33)
(0.526775 -0.577399 0 -0.302611 -0.464726 0 -1.6137e-16 4.73647e-17 0)
(0.812751 -0.992702 0 -0.301057 -0.801342 0 -2.64276e-16 8.5649e-17 0)
(1.50147 -1.6105 9.76679e-17 -0.345649 -1.46382 1.46502e-16 -9.44136e-16 6.29424e-16 -2.64729e-32)
(2.79859 -1.87167 -2.73213e-16 -1.13949 -3.54502 -4.09819e-16 2.3014e-15 -1.53427e-15 -7.40544e-32)
(4.22057 -0.787942 -1.87576e-17 0.00538718 4.51632 -1.68819e-16 2.28843e-15 -1.18235e-16 5.08426e-33)
(2.26014 -0.309934 9.00239e-18 0.56178 2.77112 8.10215e-17 -2.56826e-15 2.00025e-16 2.4401e-33)
(1.49834 -0.00892446 0 0.7201 2.24919 0 0 0 0)
(1.28255 0.0605714 -5.40261e-18 0.677264 2.14868 -4.86235e-17 2.43609e-15 -2.03699e-16 1.46438e-33)
(0.524582 0.197972 4.63553e-18 0.534025 1.85446 4.17198e-17 -1.16422e-15 1.29358e-16 1.25646e-33)
(4.35264 -0.955411 0 -0.706796 -0.692184 0 -1.1443e-15 -8.89089e-18 0)
(2.5441 -0.201102 0 0.342036 1.00807 0 1.29259e-15 -5.82842e-17 0)
(1.58244 -0.0165667 0 0.440032 1.37976 0 0 0 0)
(1.24724 -0.0341833 0 0.366027 1.42083 0 -1.53806e-15 7.61694e-17 0)
(0.641178 0.0872743 0 0.236354 1.45497 0 2.96855e-16 -7.42212e-18 0)
(4.35414 3.04095e-13 0 7.5018e-13 0.793939 0 0 0 0)
(2.52095 -5.78367e-13 0 3.33601e-13 1.85441 0 0 0 0)
(1.47486 1.69464e-12 0 9.71766e-13 1.97816 0 0 0 0)
(1.17551 -2.47289e-12 0 -2.28887e-12 1.7733 0 6.19633e-16 1.30348e-28 0)
(0.590357 -6.30916e-13 0 5.5605e-12 1.97156 0 -5.9371e-16 2.23748e-28 0)
(4.35264 0.955411 0 0.706796 -0.692184 0 -1.1443e-15 8.89089e-18 0)
(2.5441 0.201102 0 -0.342036 1.00807 0 1.29259e-15 5.82842e-17 0)
(1.58244 0.0165667 0 -0.440032 1.37976 0 0 0 0)
(1.24724 0.0341833 0 -0.366027 1.42083 0 -1.53806e-15 -7.61694e-17 0)
(0.641178 -0.0872743 0 -0.236354 1.45497 0 2.96855e-16 7.42212e-18 0)
(4.22057 0.787942 0 -0.00538718 4.51632 0 1.1443e-15 -8.89089e-18 0)
(2.26014 0.309934 -9.00239e-18 -0.56178 2.77112 8.10215e-17 -1.6919e-17 8.3457e-17 2.4401e-33)
(1.49834 0.00892446 0 -0.7201 2.24919 0 0 0 0)
(1.28255 -0.0605714 5.40261e-18 -0.677264 2.14868 -4.86235e-17 2.0397e-17 -6.47113e-17 1.46438e-33)
(0.524582 -0.197972 -4.63553e-18 -0.534025 1.85446 4.17198e-17 1.16422e-15 1.29358e-16 1.25646e-33)
(-0.0893185 0.104848 0 1.26098 0.948855 0 0 0 0)
(0.180636 -0.0960153 0 1.11376 1.13855 0 0 0 0)
(0.210001 0.25634 0 0.924779 1.00166 0 0 0 0)
(-0.31042 0.609311 0 0.607366 0.117641 0 0 0 0)
(-1.63048 0.0293756 0 0.606332 -0.155567 0 0 0 0)
(-1.88037 -0.358199 0 0.391508 0.175244 0 0 0 0)
(-0.964054 -0.270729 0 0.264042 0.638942 0 0 0 0)
(-0.926167 -0.191573 0 0.564677 1.10011 0 0 0 0)
(-1.04403 -0.0225818 0 0.701767 1.23681 0 0 0 0)
(-0.875003 0.141038 0 0.518205 1.02001 0 0 0 0)
(-0.666002 0.16186 0 0.293571 0.738513 0 0 0 0)
(-0.611433 0.116147 0 0.147449 0.53113 0 0 0 0)
(-0.686735 0.0773764 0 0.0743498 0.384283 0 0 0 0)
(-0.628676 0.0475972 0 0.0439344 0.279068 0 0 0 0)
(-0.345814 0.0226594 0 0.0183799 0.220943 0 0 0 0)
(-0.103306 0.00841934 0 0.00491547 0.199849 0 0 0 0)
(-0.0180727 0.0038075 0 0.00227294 0.191701 0 0 0 0)
(0.00390889 0.00381762 0 0.00358304 0.18578 0 0 0 0)
(0.0207021 0.00372967 0 0.00268237 0.178847 0 0 0 0)
(0.051068 0.00194237 0 0.000500456 0.174255 0 0 0 0)
(0.0904309 0.000683776 0 -2.67041e-05 0.172248 0 0 0 0)
(0.122084 0.000226791 0 0.000245281 0.171414 0 0 0 0)
(0.13821 0.00013627 0 0.000780321 0.171104 0 0 0 0)
(0.14287 0.000167423 0 0.0013361 0.170861 0 0 0 0)
(0.1425 0.000252442 0 0.00181661 0.170533 0 0 0 0)
(0.139949 6.89063e-05 0 0.00221099 0.170011 0 0 0 0)
(0.138974 0.000465336 0 0.00252605 0.170308 0 0 0 0)
(0.13688 6.02899e-05 0 0.00285314 0.168425 0 0 0 0)
(0.133643 5.08423e-05 0 0.00305375 0.170116 0 0 0 0)
(0.132706 -0.000251263 0 0.00327047 0.168307 0 0 0 0)
(0.12913 0.000427082 0 0.00348681 0.170972 0 0 0 0)
(0.121362 -0.000928731 0 0.00349932 0.166962 0 0 0 0)
(0.106249 0.000178232 0 0.00336732 0.173937 0 0 0 0)
(0.094097 -0.000988954 0 0.00228641 0.16666 0 0 0 0)
(0.0681076 -0.00181977 0 0.00315044 0.177319 0 0 0 0)
(-0.0682305 0.000114133 0 0.00226979 0.172896 0 0 0 0)
(-0.470533 0.00298211 0 0.0050937 0.177155 0 0 0 0)
(-0.653632 -0.00338394 0 0.00297043 0.162298 0 0 0 0)
(-0.776467 -0.00544998 0 -0.0084158 0.183907 0 0 0 0)
(-0.503144 0.00229796 0 -0.0238575 0.177648 0 0 0 0)
(0.0321888 0.135153 0 0.638901 1.14295 0 0 0 0)
(0.0843233 -0.0490898 0 0.580722 1.07378 0 0 0 0)
(-0.00456919 0.0730295 0 0.461605 1.47301 0 0 0 0)
(-0.491825 0.312722 0 -0.207892 0.192614 0 0 0 0)
(-1.61258 0.074432 0 -0.319238 -0.621501 0 0 0 0)
(-1.86813 -0.16328 0 -0.0453193 0.0916349 0 0 0 0)
(-0.9477 -0.131532 0 -0.151409 0.609809 0 0 0 0)
(-0.818822 -0.098122 0 0.0388619 1.02227 0 0 0 0)
(-0.982028 -0.0187192 0 0.144138 1.26834 0 0 0 0)
(-0.897315 0.0676466 0 0.117549 1.09989 0 0 0 0)
(-0.717311 0.0818098 0 0.0781252 0.783525 0 0 0 0)
(-0.655415 0.0573636 0 0.0689694 0.543497 0 0 0 0)
(-0.712428 0.0370738 0 0.053693 0.384271 0 0 0 0)
(-0.638729 0.0237616 0 0.0266849 0.277515 0 0 0 0)
(-0.349209 0.0116325 0 0.00538587 0.220656 0 0 0 0)
(-0.104179 0.00422115 0 -0.000785293 0.199624 0 0 0 0)
(-0.0178692 0.00183956 0 -0.000994314 0.191714 0 0 0 0)
(0.00422084 0.00189941 0 -0.000213011 0.186535 0 0 0 0)
(0.0207245 0.00188403 0 0.000380466 0.178591 0 0 0 0)
(0.0511366 0.000943314 0 -0.000268339 0.173715 0 0 0 0)
(0.0906891 0.000323394 0 -5.72642e-05 0.171914 0 0 0 0)
(0.122383 0.000102032 0 0.000474642 0.171364 0 0 0 0)
(0.138526 6.51155e-05 0 0.00111415 0.171135 0 0 0 0)
(0.143176 8.31936e-05 0 0.00174323 0.170896 0 0 0 0)
(0.142782 0.000125937 0 0.00232099 0.170559 0 0 0 0)
(0.140205 3.36143e-05 0 0.00284981 0.170028 0 0 0 0)
(0.139215 0.00023173 0 0.00333547 0.170322 0 0 0 0)
(0.137102 3.02107e-05 0 0.00384067 0.168428 0 0 0 0)
(0.133849 2.74231e-05 0 0.00430575 0.170115 0 0 0 0)
(0.132907 -0.000125478 0 0.0048114 0.168254 0 0 0 0)
(0.129305 0.00021883 0 0.00535708 0.170979 0 0 0 0)
(0.1215 -0.000464417 0 0.00587876 0.166785 0 0 0 0)
(0.10628 0.000116543 0 0.00644614 0.174171 0 0 0 0)
(0.0942404 -0.000484599 0 0.00677063 0.166173 0 0 0 0)
(0.0682773 -0.000867666 0 0.00829043 0.177571 0 0 0 0)
(-0.0678122 8.33053e-05 0 0.00944421 0.172428 0 0 0 0)
(-0.47021 0.00155419 0 0.0136325 0.177178 0 0 0 0)
(-0.655353 -0.00173894 0 0.0161891 0.162177 0 0 0 0)
(-0.779666 -0.00259538 0 0.0127102 0.188811 0 0 0 0)
(-0.504721 0.00142907 0 0.0128441 0.180912 0 0 0 0)
(0.0404857 2.68863e-12 0 3.43791e-12 1.25854 0 0 0 0)
(0.129059 2.45135e-12 0 -9.84061e-12 1.07728 0 0 0 0)
(-0.0194139 -5.20007e-12 0 -2.22754e-11 1.59603 0 0 0 0)
(-0.537574 -8.13839e-12 0 -4.32498e-11 0.575207 0 0 0 0)
(-1.58319 -8.22643e-11 0 -1.6584e-10 -0.55393 0 0 0 0)
(-1.83154 -5.13695e-11 0 -6.75832e-11 0.0634867 0 0 0 0)
(-0.939565 8.074e-11 0 -5.22455e-10 0.568617 0 0 0 0)
(-0.84019 6.3555e-11 0 -3.73391e-10 0.967772 0 0 0 0)
(-1.02114 1.18183e-11 0 -9.8075e-11 1.24321 0 0 0 0)
(-0.894207 -3.92731e-12 0 4.25185e-11 1.09647 0 0 0 0)
(-0.680134 5.1123e-12 0 2.47257e-11 0.778135 0 0 0 0)
(-0.61854 1.97504e-11 0 -4.67577e-11 0.534024 0 0 0 0)
(-0.699036 2.04032e-11 0 -6.82052e-11 0.383761 0 0 0 0)
(-0.642729 8.36701e-12 0 -6.65385e-11 0.279142 0 0 0 0)
(-0.353806 -5.57071e-12 0 -6.036e-11 0.2204 0 0 0 0)
(-0.105162 -1.83989e-11 0 -3.75972e-11 0.199169 0 0 0 0)
(-0.0179062 -3.32134e-11 0 -2.08915e-11 0.19138 0 0 0 0)
(0.00430882 -5.07837e-11 0 3.12398e-12 0.186522 0 0 0 0)
(0.020686 -3.54542e-11 0 1.51538e-11 0.178321 0 0 0 0)
(0.0509406 9.69507e-12 0 5.05236e-11 0.173569 0 0 0 0)
(0.0906471 5.14407e-11 0 6.27487e-11 0.171836 0 0 0 0)
(0.122425 5.40484e-11 0 6.83346e-11 0.171346 0 0 0 0)
(0.138579 3.41249e-12 0 7.51175e-11 0.171134 0 0 0 0)
(0.143221 -5.65962e-11 0 7.97648e-11 0.170898 0 0 0 0)
(0.142822 -5.91366e-11 0 7.71178e-11 0.170562 0 0 0 0)
(0.140244 -3.87206e-11 0 6.72688e-11 0.170032 0 0 0 0)
(0.139263 -2.59468e-11 0 5.32028e-11 0.170331 0 0 0 0)
(0.137162 4.20449e-11 0 3.81974e-11 0.168439 0 0 0 0)
(0.133925 3.83066e-11 0 2.82987e-11 0.170124 0 0 0 0)
(0.133012 5.79796e-12 0 2.60622e-11 0.168251 0 0 0 0)
(0.12944 6.77286e-11 0 2.14623e-11 0.170986 0 0 0 0)
(0.121678 5.06724e-11 0 9.72529e-12 0.166746 0 0 0 0)
(0.106509 -3.55796e-11 0 -9.94805e-12 0.174179 0 0 0 0)
(0.0946335 -2.52143e-11 0 -4.17349e-11 0.165945 0 0 0 0)
(0.0688854 4.17451e-11 0 -7.56645e-11 0.177511 0 0 0 0)
(-0.0666764 3.03173e-11 0 -1.33393e-10 0.17191 0 0 0 0)
(-0.468571 -1.99096e-11 0 -2.32457e-10 0.176938 0 0 0 0)
(-0.6539 -2.62646e-11 0 -2.73755e-10 0.161225 0 0 0 0)
(-0.777441 -1.85182e-11 0 -2.13364e-10 0.188893 0 0 0 0)
(-0.503105 -8.14035e-12 0 -1.98229e-10 0.179068 0 0 0 0)
(0.0321888 -0.135153 0 -0.638901 1.14295 0 0 0 0)
(0.0843233 0.0490898 0 -0.580722 1.07378 0 0 0 0)
(-0.00456919 -0.0730295 0 -0.461605 1.47301 0 0 0 0)
(-0.491825 -0.312722 0 0.207892 0.192614 0 0 0 0)
(-1.61258 -0.074432 0 0.319238 -0.621501 0 0 0 0)
(-1.86813 0.16328 0 0.0453193 0.0916349 0 0 0 0)
(-0.9477 0.131532 0 0.151409 0.609809 0 0 0 0)
(-0.818822 0.098122 0 -0.0388619 1.02227 0 0 0 0)
(-0.982028 0.0187192 0 -0.144138 1.26834 0 0 0 0)
(-0.897315 -0.0676466 0 -0.117549 1.09989 0 0 0 0)
(-0.717311 -0.0818098 0 -0.0781252 0.783525 0 0 0 0)
(-0.655415 -0.0573636 0 -0.0689694 0.543497 0 0 0 0)
(-0.712428 -0.0370738 0 -0.053693 0.384271 0 0 0 0)
(-0.638729 -0.0237616 0 -0.0266849 0.277515 0 0 0 0)
(-0.349209 -0.0116325 0 -0.00538587 0.220656 0 0 0 0)
(-0.104179 -0.00422115 0 0.000785293 0.199624 0 0 0 0)
(-0.0178692 -0.00183956 0 0.000994314 0.191714 0 0 0 0)
(0.00422084 -0.00189941 0 0.000213011 0.186535 0 0 0 0)
(0.0207245 -0.00188403 0 -0.000380466 0.178591 0 0 0 0)
(0.0511366 -0.000943314 0 0.000268339 0.173715 0 0 0 0)
(0.0906891 -0.000323393 0 5.72643e-05 0.171914 0 0 0 0)
(0.122383 -0.000102032 0 -0.000474642 0.171364 0 0 0 0)
(0.138526 -6.51155e-05 0 -0.00111415 0.171135 0 0 0 0)
(0.143176 -8.31937e-05 0 -0.00174323 0.170896 0 0 0 0)
(0.142782 -0.000125937 0 -0.00232099 0.170559 0 0 0 0)
(0.140205 -3.36143e-05 0 -0.00284981 0.170028 0 0 0 0)
(0.139215 -0.00023173 0 -0.00333547 0.170322 0 0 0 0)
(0.137102 -3.02106e-05 0 -0.00384067 0.168428 0 0 0 0)
(0.133849 -2.7423e-05 0 -0.00430575 0.170115 0 0 0 0)
(0.132907 0.000125478 0 -0.0048114 0.168254 0 0 0 0)
(0.129305 -0.000218829 0 -0.00535708 0.170979 0 0 0 0)
(0.1215 0.000464417 0 -0.00587876 0.166785 0 0 0 0)
(0.10628 -0.000116543 0 -0.00644614 0.174171 0 0 0 0)
(0.0942404 0.000484599 0 -0.00677063 0.166173 0 0 0 0)
(0.0682773 0.000867666 0 -0.00829043 0.177571 0 0 0 0)
(-0.0678122 -8.33052e-05 0 -0.00944421 0.172428 0 0 0 0)
(-0.47021 -0.00155419 0 -0.0136325 0.177178 0 0 0 0)
(-0.655353 0.00173894 0 -0.0161891 0.162177 0 0 0 0)
(-0.779666 0.00259538 0 -0.0127102 0.188811 0 0 0 0)
(-0.504721 -0.00142907 0 -0.0128441 0.180912 0 0 0 0)
(-0.0893185 -0.104848 0 -1.26098 0.948855 0 0 0 0)
(0.180636 0.0960153 0 -1.11376 1.13855 0 0 0 0)
(0.210001 -0.25634 0 -0.924779 1.00166 0 0 0 0)
(-0.31042 -0.609311 0 -0.607366 0.117641 0 0 0 0)
(-1.63048 -0.0293756 0 -0.606332 -0.155567 0 0 0 0)
(-1.88037 0.358199 0 -0.391508 0.175244 0 0 0 0)
(-0.964054 0.270729 0 -0.264042 0.638942 0 0 0 0)
(-0.926167 0.191573 0 -0.564677 1.10011 0 0 0 0)
(-1.04403 0.0225818 0 -0.701767 1.23681 0 0 0 0)
(-0.875003 -0.141038 0 -0.518205 1.02001 0 0 0 0)
(-0.666002 -0.16186 0 -0.293571 0.738513 0 0 0 0)
(-0.611433 -0.116147 0 -0.147449 0.53113 0 0 0 0)
(-0.686735 -0.0773764 0 -0.0743498 0.384283 0 0 0 0)
(-0.628676 -0.0475972 0 -0.0439344 0.279068 0 0 0 0)
(-0.345814 -0.0226594 0 -0.0183799 0.220943 0 0 0 0)
(-0.103306 -0.00841934 0 -0.00491547 0.199849 0 0 0 0)
(-0.0180727 -0.0038075 0 -0.00227294 0.191701 0 0 0 0)
(0.00390889 -0.00381762 0 -0.00358304 0.18578 0 0 0 0)
(0.0207021 -0.00372967 0 -0.00268237 0.178847 0 0 0 0)
(0.051068 -0.00194237 0 -0.000500456 0.174255 0 0 0 0)
(0.0904309 -0.000683776 0 2.67039e-05 0.172248 0 0 0 0)
(0.122084 -0.000226791 0 -0.000245281 0.171414 0 0 0 0)
(0.13821 -0.00013627 0 -0.000780321 0.171104 0 0 0 0)
(0.14287 -0.000167423 0 -0.0013361 0.170861 0 0 0 0)
(0.1425 -0.000252442 0 -0.00181661 0.170533 0 0 0 0)
(0.139949 -6.89064e-05 0 -0.00221099 0.170011 0 0 0 0)
(0.138974 -0.000465336 0 -0.00252605 0.170308 0 0 0 0)
(0.13688 -6.02898e-05 0 -0.00285314 0.168425 0 0 0 0)
(0.133643 -5.08423e-05 0 -0.00305375 0.170116 0 0 0 0)
(0.132706 0.000251263 0 -0.00327047 0.168307 0 0 0 0)
(0.12913 -0.000427082 0 -0.00348681 0.170972 0 0 0 0)
(0.121362 0.000928731 0 -0.00349932 0.166962 0 0 0 0)
(0.106249 -0.000178232 0 -0.00336732 0.173937 0 0 0 0)
(0.094097 0.000988954 0 -0.00228641 0.16666 0 0 0 0)
(0.0681076 0.00181977 0 -0.00315044 0.177319 0 0 0 0)
(-0.0682305 -0.000114133 0 -0.00226979 0.172896 0 0 0 0)
(-0.470533 -0.00298211 0 -0.0050937 0.177155 0 0 0 0)
(-0.653632 0.00338394 0 -0.00297043 0.162298 0 0 0 0)
(-0.776467 0.00544998 0 0.0084158 0.183907 0 0 0 0)
(-0.503144 -0.00229796 0 0.0238575 0.177648 0 0 0 0)
(0.00282762 0.0854085 0 -0.798276 0.768932 0 0 0 0)
(0.183852 0.0279567 0 -0.741091 0.9358 0 0 0 0)
(0.0649829 -0.501465 0 -1.11907 0.706062 0 0 0 0)
(-0.501821 -0.695689 0 -1.41783 0.711752 0 0 0 0)
(-1.45648 -0.0903955 0 -1.67226 0.628976 0 0 0 0)
(-1.63928 0.436278 0 -0.969362 0.585186 0 0 0 0)
(-1.03742 0.550728 0 -0.979918 0.89475 0 0 0 0)
(-0.969278 0.365097 0 -1.14219 1.12386 0 0 0 0)
(-0.881186 -0.0359895 0 -0.943496 1.02106 0 0 0 0)
(-0.667064 -0.295358 0 -0.564075 0.804819 0 0 0 0)
(-0.544072 -0.295913 0 -0.29555 0.616748 0 0 0 0)
(-0.568757 -0.211594 0 -0.173913 0.477505 0 0 0 0)
(-0.677202 -0.148585 0 -0.137257 0.365191 0 0 0 0)
(-0.615244 -0.0986609 0 -0.102518 0.270132 0 0 0 0)
(-0.328659 -0.0485742 0 -0.0453338 0.216909 0 0 0 0)
(-0.0950843 -0.0177096 0 -0.0159542 0.19843 0 0 0 0)
(-0.0167982 -0.00838935 0 -0.00952816 0.190444 0 0 0 0)
(0.00432472 -0.00774437 0 -0.0103391 0.183992 0 0 0 0)
(0.0226839 -0.0069792 0 -0.00818508 0.178194 0 0 0 0)
(0.0529153 -0.00392738 0 -0.00347326 0.174535 0 0 0 0)
(0.0911477 -0.00168876 0 -0.000629711 0.172485 0 0 0 0)
(0.122223 -0.000675431 0 0.000190487 0.17137 0 0 0 0)
(0.138206 -0.000329778 0 0.000173812 0.170936 0 0 0 0)
(0.142879 -0.000344266 0 5.21355e-05 0.17067 0 0 0 0)
(0.142559 -0.000512615 0 4.97344e-05 0.170349 0 0 0 0)
(0.140057 -0.000133758 0 0.000176365 0.169845 0 0 0 0)
(0.13909 -0.000956727 0 0.000424648 0.170152 0 0 0 0)
(0.137029 -0.000116086 0 0.000612083 0.168291 0 0 0 0)
(0.133827 -7.45017e-05 0 0.00100488 0.169967 0 0 0 0)
(0.132868 0.000517592 0 0.00135111 0.168231 0 0 0 0)
(0.129365 -0.000821531 0 0.00164687 0.170781 0 0 0 0)
(0.121734 0.00178684 0 0.00228932 0.167032 0 0 0 0)
(0.107076 -0.000234901 0 0.00309064 0.173249 0 0 0 0)
(0.0945423 0.00202312 0 0.00549497 0.166929 0 0 0 0)
(0.0684839 0.00367856 0 0.00494935 0.176303 0 0 0 0)
(-0.0685476 -0.000150648 0 0.00649028 0.172572 0 0 0 0)
(-0.470276 -0.00655079 0 0.00263329 0.17634 0 0 0 0)
(-0.648868 0.00407247 0 0.00441074 0.161447 0 0 0 0)
(-0.766537 0.00892316 0 0.0125078 0.178916 0 0 0 0)
(-0.496859 -0.00435078 0 0.0245533 0.173717 0 0 0 0)
(0.0373484 0.0840881 0 -0.994096 0.768599 0 0 0 0)
(-0.130215 0.0719263 0 -1.02961 0.700316 0 0 0 0)
(-0.364367 -0.340797 0 -1.38643 0.6176 0 0 0 0)
(-0.740862 -0.637275 0 -1.61092 0.817119 0 0 0 0)
(-1.29162 -0.118619 0 -1.91141 0.978984 0 0 0 0)
(-1.34247 0.57244 0 -1.53295 1.08306 0 0 0 0)
(-1.09126 0.639667 0 -1.48147 1.14712 0 0 0 0)
(-0.867952 0.220246 0 -1.35281 0.928498 0 0 0 0)
(-0.574264 -0.253445 0 -0.972091 0.706608 0 0 0 0)
(-0.362123 -0.4479 0 -0.611895 0.561437 0 0 0 0)
(-0.35541 -0.405389 0 -0.393876 0.465163 0 0 0 0)
(-0.48178 -0.307374 0 -0.293207 0.393302 0 0 0 0)
(-0.623048 -0.239024 0 -0.242992 0.310543 0 0 0 0)
(-0.547298 -0.163105 0 -0.162407 0.239731 0 0 0 0)
(-0.271598 -0.077858 0 -0.0641432 0.208123 0 0 0 0)
(-0.0732107 -0.0289407 0 -0.0225737 0.19612 0 0 0 0)
(-0.0133453 -0.015263 0 -0.0147874 0.188739 0 0 0 0)
(0.00498014 -0.0135162 0 -0.0150584 0.181878 0 0 0 0)
(0.0262556 -0.0111001 0 -0.0122175 0.176794 0 0 0 0)
(0.057358 -0.00637907 0 -0.00630045 0.173939 0 0 0 0)
(0.0935771 -0.00319493 0 -0.00181089 0.17216 0 0 0 0)
(0.122784 -0.00147954 0 -0.000176535 0.170917 0 0 0 0)
(0.138079 -0.000707707 0 -0.000121228 0.170327 0 0 0 0)
(0.142745 -0.000637612 0 -0.000403306 0.170001 0 0 0 0)
(0.142588 -0.000907458 0 -0.000542044 0.169683 0 0 0 0)
(0.140253 -0.000223669 0 -0.000479609 0.169203 0 0 0 0)
(0.139332 -0.00169898 0 -0.000200035 0.169533 0 0 0 0)
(0.137359 -0.000208709 0 3.85411e-06 0.167727 0 0 0 0)
(0.134256 -9.59857e-05 0 0.000506797 0.169366 0 0 0 0)
(0.133237 0.000892118 0 0.00093168 0.167775 0 0 0 0)
(0.129907 -0.00137176 0 0.00123848 0.170119 0 0 0 0)
(0.122553 0.00284752 0 0.00200493 0.166847 0 0 0 0)
(0.108895 -0.00024634 0 0.00291739 0.17195 0 0 0 0)
(0.0956493 0.00337744 0 0.00596796 0.167131 0 0 0 0)
(0.068865 0.00626061 0 0.00555045 0.174298 0 0 0 0)
(-0.0702923 -5.8915e-05 0 0.00651239 0.171978 0 0 0 0)
(-0.472675 -0.0117891 0 0.000708486 0.175133 0 0 0 0)
(-0.646671 0.00549645 0 0.000785607 0.162096 0 0 0 0)
(-0.762383 0.0154114 0 0.00641895 0.17967 0 0 0 0)
(-0.494907 -0.00620693 0 0.0108915 0.175667 0 0 0 0)
(-0.031393 0.019608 0 -1.7175 0.576192 0 0 0 0)
(-0.19422 -0.117551 0 -1.88787 0.396019 0 0 0 0)
(-0.495194 -0.388909 0 -1.90825 0.281416 0 0 0 0)
(-1.0077 -0.347446 0 -2.18551 0.596186 0 0 0 0)
(-1.38135 0.165872 0 -2.30431 1.16532 0 0 0 0)
(-1.22498 0.598303 0 -2.07709 1.2708 0 0 0 0)
(-0.863823 0.40179 0 -1.71718 0.969889 0 0 0 0)
(-0.478426 -0.0593992 0 -1.26697 0.602334 0 0 0 0)
(-0.167215 -0.389703 0 -0.823137 0.40234 0 0 0 0)
(-0.109875 -0.528024 0 -0.551985 0.325342 0 0 0 0)
(-0.236973 -0.457934 0 -0.419579 0.315778 0 0 0 0)
(-0.423359 -0.360591 0 -0.359507 0.289037 0 0 0 0)
(-0.551159 -0.296572 0 -0.308836 0.236806 0 0 0 0)
(-0.442899 -0.197356 0 -0.190462 0.205969 0 0 0 0)
(-0.193911 -0.0905994 0 -0.0710617 0.199644 0 0 0 0)
(-0.0475232 -0.0363891 0 -0.0280127 0.193655 0 0 0 0)
(-0.00955613 -0.0221135 0 -0.021199 0.186409 0 0 0 0)
(0.00680119 -0.0192551 0 -0.020107 0.179224 0 0 0 0)
(0.0311234 -0.0146291 0 -0.0154823 0.174841 0 0 0 0)
(0.0629435 -0.00839246 0 -0.00857927 0.172589 0 0 0 0)
(0.0970489 -0.00460121 0 -0.00309106 0.171172 0 0 0 0)
(0.123851 -0.00244193 0 -0.000788361 0.16991 0 0 0 0)
(0.137987 -0.00121236 0 -0.000543495 0.169198 0 0 0 0)
(0.142474 -0.000964287 0 -0.000899437 0.168811 0 0 0 0)
(0.142486 -0.00128205 0 -0.00116192 0.168505 0 0 0 0)
(0.140386 -0.000279145 0 -0.00119345 0.168062 0 0 0 0)
(0.139555 -0.00237855 0 -0.000935289 0.168443 0 0 0 0)
(0.13771 -0.000276885 0 -0.000719462 0.166779 0 0 0 0)
(0.134721 -2.85802e-05 0 -0.000173956 0.168365 0 0 0 0)
(0.133573 0.0012439 0 0.00026841 0.167037 0 0 0 0)
(0.130399 -0.00171594 0 0.000496998 0.169125 0 0 0 0)
(0.123352 0.00355099 0 0.0012427 0.166591 0 0 0 0)
(0.110895 3.91139e-05 0 0.00207783 0.1704 0 0 0 0)
(0.0970796 0.00428538 0 0.00534196 0.167507 0 0 0 0)
(0.0690085 0.00834873 0 0.00518316 0.171711 0 0 0 0)
(-0.0732135 0.000653883 0 0.00528499 0.171475 0 0 0 0)
(-0.475794 -0.016073 0 -0.00137697 0.17393 0 0 0 0)
(-0.643365 0.00844527 0 -0.000992388 0.163084 0 0 0 0)
(-0.756798 0.022001 0 0.00668652 0.180886 0 0 0 0)
(-0.492549 -0.00820835 0 0.0124843 0.177064 0 0 0 0)
(-0.126828 -0.0895329 0 -2.39301 0.301936 0 0 0 0)
(-0.314028 -0.212131 0 -2.65685 0.167593 0 0 0 0)
(-0.651184 -0.147908 0 -2.83443 0.407508 0 0 0 0)
(-1.12252 0.214488 0 -2.92887 0.940896 0 0 0 0)
(-1.18714 0.531464 0 -2.6039 1.23677 0 0 0 0)
(-0.776686 0.384115 0 -2.00216 0.995767 0 0 0 0)
(-0.310597 -0.00449154 0 -1.40826 0.532364 0 0 0 0)
(-0.00642346 -0.326665 0 -0.9017 0.251068 0 0 0 0)
(0.11472 -0.520365 0 -0.613959 0.122229 0 0 0 0)
(0.0267597 -0.531314 0 -0.487074 0.147103 0 0 0 0)
(-0.169931 -0.440374 0 -0.429299 0.197289 0 0 0 0)
(-0.375063 -0.383474 0 -0.396081 0.188394 0 0 0 0)
(-0.46015 -0.319071 0 -0.332695 0.167696 0 0 0 0)
(-0.318171 -0.198916 0 -0.186043 0.179539 0 0 0 0)
(-0.115056 -0.0897241 0 -0.0711885 0.191852 0 0 0 0)
(-0.0251613 -0.0416946 0 -0.0359072 0.189487 0 0 0 0)
(-0.00572708 -0.02917 0 -0.0295649 0.181976 0 0 0 0)
(0.010489 -0.0246631 0 -0.0256231 0.175274 0 0 0 0)
(0.0373642 -0.0174931 0 -0.0186627 0.171861 0 0 0 0)
(0.0692986 -0.00991478 0 -0.0105579 0.170451 0 0 0 0)
(0.101085 -0.00577678 0 -0.00434779 0.169367 0 0 0 0)
(0.125239 -0.00338187 0 -0.00151662 0.16821 0 0 0 0)
(0.137972 -0.00176639 0 -0.000965329 0.167467 0 0 0 0)
(0.142149 -0.00130508 0 -0.00117801 0.167056 0 0 0 0)
(0.142304 -0.00162972 0 -0.0013568 0.166782 0 0 0 0)
(0.140471 -0.000283289 0 -0.0012954 0.166385 0 0 0 0)
(0.139789 -0.00293501 0 -0.00091332 0.166839 0 0 0 0)
(0.138093 -0.000284497 0 -0.000453728 0.165396 0 0 0 0)
(0.135208 0.000152831 0 0.000244163 0.166911 0 0 0 0)
(0.133884 0.00162486 0 0.000871118 0.165895 0 0 0 0)
(0.130846 -0.0018019 0 0.0012185 0.167743 0 0 0 0)
(0.124076 0.00407572 0 0.00211836 0.165973 0 0 0 0)
(0.112845 0.000636018 0 0.00305846 0.168765 0 0 0 0)
(0.0986417 0.00464129 0 0.00645789 0.167234 0 0 0 0)
(0.0688101 0.0100844 0 0.00677978 0.169442 0 0 0 0)
(-0.0766139 0.00207966 0 0.00635704 0.170435 0 0 0 0)
(-0.478724 -0.0198748 0 0.000748991 0.172032 0 0 0 0)
(-0.638901 0.0121994 0 0.00239223 0.162746 0 0 0 0)
(-0.749396 0.0288826 0 0.0119461 0.179826 0 0 0 0)
(-0.48932 -0.00989063 0 0.0205778 0.176743 0 0 0 0)
(-0.285635 -0.109849 0 -2.85808 0.431931 0 0 0 0)
(-0.619584 -0.0158179 0 -3.00916 0.565036 0 0 0 0)
(-0.757323 0.356274 0 -3.03195 0.882398 0 0 0 0)
(-0.785559 0.45166 0 -2.69808 1.01941 0 0 0 0)
(-0.488335 0.218747 0 -2.00622 0.722845 0 0 0 0)
(-0.072812 -0.080487 0 -1.30949 0.312113 0 0 0 0)
(0.196619 -0.315829 0 -0.839083 0.0555025 0 0 0 0)
(0.286988 -0.454621 0 -0.570006 -0.0454661 0 0 0 0)
(0.232334 -0.489888 0 -0.464518 -0.0169378 0 0 0 0)
(0.0680699 -0.455694 0 -0.437616 0.0704682 0 0 0 0)
(-0.149289 -0.418145 0 -0.427138 0.111021 0 0 0 0)
(-0.330268 -0.389108 0 -0.409555 0.11117 0 0 0 0)
(-0.348759 -0.305105 0 -0.313568 0.128852 0 0 0 0)
(-0.190901 -0.174079 0 -0.155435 0.169419 0 0 0 0)
(-0.0492344 -0.0810126 0 -0.0650696 0.186914 0 0 0 0)
(-0.00741321 -0.0459059 0 -0.041085 0.184289 0 0 0 0)
(0.000353967 -0.0358099 0 -0.0348111 0.176679 0 0 0 0)
(0.017307 -0.0290019 0 -0.0284767 0.170975 0 0 0 0)
(0.0456408 -0.0192762 0 -0.0199461 0.168533 0 0 0 0)
(0.0767379 -0.0107959 0 -0.0112775 0.167684 0 0 0 0)
(0.105761 -0.00676111 0 -0.0049375 0.166806 0 0 0 0)
(0.127111 -0.00427276 0 -0.00208166 0.165768 0 0 0 0)
(0.138314 -0.00232476 0 -0.00154556 0.165036 0 0 0 0)
(0.142097 -0.00162469 0 -0.00184103 0.164632 0 0 0 0)
(0.142372 -0.00192804 0 -0.00214891 0.164422 0 0 0 0)
(0.140814 -0.000224308 0 -0.00221012 0.164087 0 0 0 0)
(0.140366 -0.00333142 0 -0.00196849 0.164644 0 0 0 0)
(0.138825 -0.00020797 0 -0.00147591 0.163513 0 0 0 0)
(0.135998 0.000452088 0 -0.000966796 0.164971 0 0 0 0)
(0.134512 0.00204605 0 -0.000457223 0.164307 0 0 0 0)
(0.131601 -0.00164093 0 -0.000295738 0.16596 0 0 0 0)
(0.125125 0.00453575 0 0.000409643 0.16494 0 0 0 0)
(0.115077 0.00125372 0 0.00103753 0.167007 0 0 0 0)
(0.100666 0.00493803 0 0.00384453 0.166386 0 0 0 0)
(0.0689113 0.0114339 0 0.00426052 0.166986 0 0 0 0)
(-0.079025 0.00315001 0 0.00271616 0.168668 0 0 0 0)
(-0.479615 -0.0234822 0 -0.00281711 0.169502 0 0 0 0)
(-0.632575 0.0159551 0 -0.00266994 0.162081 0 0 0 0)
(-0.739274 0.0354888 0 0.00719469 0.178963 0 0 0 0)
(-0.484231 -0.0111789 0 0.0148832 0.17706 0 0 0 0)
(-0.272411 0.0387323 0 -2.46325 0.391602 0 0 0 0)
(-0.481572 0.221956 0 -2.31708 0.582373 0 0 0 0)
(-0.35142 0.289943 0 -1.99119 0.574636 0 0 0 0)
(-0.134093 0.0607359 0 -1.50141 0.263833 0 0 0 0)
(0.150965 -0.150114 0 -0.965951 -0.0150912 0 0 0 0)
(0.348011 -0.25896 0 -0.632432 -0.148878 0 0 0 0)
(0.401993 -0.349068 0 -0.440827 -0.162428 0 0 0 0)
(0.35452 -0.396471 0 -0.393072 -0.122493 0 0 0 0)
(0.242295 -0.408647 0 -0.384441 -0.041654 0 0 0 0)
(0.0627807 -0.408009 0 -0.409735 0.0163749 0 0 0 0)
(-0.142891 -0.401153 0 -0.419486 0.0390399 0 0 0 0)
(-0.265623 -0.366291 0 -0.391009 0.0604921 0 0 0 0)
(-0.215271 -0.262939 0 -0.262702 0.115476 0 0 0 0)
(-0.0787087 -0.142965 0 -0.125579 0.165162 0 0 0 0)
(-0.00486388 -0.0753953 0 -0.0669843 0.179501 0 0 0 0)
(0.003997 -0.0515582 0 -0.0505268 0.175776 0 0 0 0)
(0.00642281 -0.0419995 0 -0.0427626 0.169512 0 0 0 0)
(0.0248134 -0.0325129 0 -0.0332553 0.165639 0 0 0 0)
(0.0539379 -0.0206646 0 -0.0225284 0.164387 0 0 0 0)
(0.0837614 -0.0115787 0 -0.0129846 0.164065 0 0 0 0)
(0.109946 -0.00762342 0 -0.00613727 0.163553 0 0 0 0)
(0.128508 -0.00508775 0 -0.00276442 0.162628 0 0 0 0)
(0.138204 -0.00286106 0 -0.0016593 0.161937 0 0 0 0)
(0.141568 -0.00189661 0 -0.0014068 0.161573 0 0 0 0)
(0.141949 -0.00215486 0 -0.00121347 0.161452 0 0 0 0)
(0.140645 -6.95057e-05 0 -0.000783384 0.16119 0 0 0 0)
(0.140497 -0.00348804 0 -0.00010784 0.161877 0 0 0 0)
(0.139058 3.1518e-05 0 0.000952686 0.16107 0 0 0 0)
(0.13619 0.000918253 0 0.00177087 0.162472 0 0 0 0)
(0.134531 0.00257722 0 0.00265347 0.162125 0 0 0 0)
(0.131682 -0.00119156 0 0.00312184 0.163613 0 0 0 0)
(0.125361 0.00508497 0 0.0040728 0.163236 0 0 0 0)