/*--------------------------------*- C++ -*----------------------------------*\
| =========                 |                                                 |
| \\      /  F ield         | OpenFOAM: The Open Source CFD Toolbox           |
|  \\    /   O peration     | Version:  v1912                                 |
|   \\  /    A nd           | Website:  www.openfoam.com                      |
|    \\/     M anipulation  |                                                 |
\*---------------------------------------------------------------------------*/
FoamFile
{
    version     2.0;
    format      ascii;
    class       volScalarField;
    location    "4.98";
    object      rho;
}
// * * * * * * * * * * * * * * * * * * * * * * * * * * * * * * * * * * * * * //

dimensions      [1 -3 0 0 0 0 0];


internalField   nonuniform List<scalar> 
1900
(
42670.1
17467.5
14697.9
14175.9
13845.2
13618.4
13454.4
13332.1
13275.2
13184
42670
17467.4
14698.3
14176
13845.7
13619.1
13455.1
13334.8
13249.2
13159.7
42669.9
17467.4
14698.5
14176.3
13846.1
13619.1
13454.2
13331.7
13242.3
13151.7
42670
17467.4
14698.3
14176
13845.7
13619.1
13455.1
13334.8
13249.2
13159.7
42670.1
17467.5
14697.9
14175.9
13845.2
13618.4
13454.4
13332.1
13275.2
13184
13275.7
13147.8
13126.6
12895.9
12809.6
13125.3
13034.7
12998
12780.7
12299.8
13104.8
13013.5
12981.4
12812.5
12413.4
13125.3
13034.7
12998
12780.7
12299.8
13275.7
13147.8
13126.6
12895.9
12809.6
8826.25
8372.83
8123.36
7689.32
7028.62
9379.18
8540.03
8235.93
7783.08
7163.32
9476.98
8485.6
8159.69
7727.78
7110.05
9379.18
8540.03
8235.93
7783.08
7163.32
8826.25
8372.83
8123.36
7689.32
7028.62
5250.41
3968.61
4375.95
4649.77
4474.59
4122.7
3809.02
3590.47
3416.01
3245.35
3080.06
2936.94
2839.52
2782.64
2746.13
2717.66
2693.14
2671.89
2653.97
2639.03
2627
2617.55
2610.25
2605.05
2601.64
2599.7
2598.84
2599.03
2600.2
2603.74
2609.13
2620.67
2634.32
2656.32
2677.63
2712.33
2741.63
2802.36
3418.73
11909.6
5609.03
4093.93
4408.66
4724.54
4537.45
4152.69
3818.94
3593.92
3417.62
3246.52
3082.21
2937.48
2839.54
2782.57
2746.06
2717.6
2693.07
2671.81
2653.89
2638.94
2626.91
2617.46
2610.16
2604.95
2601.54
2599.6
2598.74
2598.93
2600.1
2603.63
2609.02
2620.59
2634.23
2656.29
2677.57
2712.42
2741.53
2802.7
3415.56
11893.3
5645.75
4097.27
4539.67
4857.32
4593.62
4165.76
3822.56
3595.17
3418.29
3246.94
3082.99
2937.7
2839.55
2782.55
2746.04
2717.6
2693.06
2671.79
2653.87
2638.92
2626.89
2617.44
2610.13
2604.93
2601.52
2599.58
2598.72
2598.9
2600.07
2603.6
2609
2620.58
2634.24
2656.36
2677.71
2712.74
2742.11
2803.83
3414.57
11945.1
5609.03
4093.93
4408.66
4724.54
4537.45
4152.69
3818.94
3593.92
3417.62
3246.52
3082.21
2937.48
2839.54
2782.57
2746.06
2717.6
2693.07
2671.81
2653.89
2638.94
2626.91
2617.46
2610.16
2604.95
2601.54
2599.6
2598.74
2598.93
2600.1
2603.63
2609.02
2620.59
2634.23
2656.29
2677.57
2712.42
2741.53
2802.7
3415.56
11893.3
5250.41
3968.61
4375.95
4649.77
4474.59
4122.7
3809.02
3590.47
3416.01
3245.35
3080.06
2936.94
2839.52
2782.64
2746.13
2717.66
2693.14
2671.89
2653.97
2639.03
2627
2617.55
2610.25
2605.05
2601.64
2599.7
2598.84
2599.03
2600.2
2603.74
2609.13
2620.67
2634.32
2656.32
2677.63
2712.33
2741.63
2802.36
3418.73
11909.6
4660.4
3687.99
4106.91
4359.6
4293.85
4034.87
3774.81
3572.77
3405.14
3236.4
3071.76
2933.03
2838.59
2782.61
2746.16
2717.68
2693.19
2672.01
2654.17
2639.27
2627.28
2617.85
2610.55
2605.34
2601.92
2599.98
2599.12
2599.31
2600.47
2604.01
2609.38
2620.8
2634.39
2656.12
2677.59
2711.73
2742.33
2800.1
3425.79
12303.5
5444.81
3405.2
3634.3
3978.75
3977.13
3846.15
3678.63
3523.53
3375.01
3212.41
3053.48
2924.13
2836.13
2782.33
2746.14
2717.63
2693.25
2672.26
2654.59
2639.82
2627.9
2618.51
2611.23
2606.02
2602.6
2600.65
2599.79
2600
2601.17
2604.73
2610.06
2621.25
2634.66
2655.89
2677.49
2710.84
2742.85
2795.62
3411.1
11801.9
6113.45
3164.48
3416.85
3684.29
3729.8
3671.91
3570.31
3459.22
3329.19
3178.12
3029.34
2912.03
2832.09
2781.39
2745.87
2717.52
2693.36
2672.65
2655.24
2640.65
2628.84
2619.52
2612.26
2607.05
2603.63
2601.68
2600.82
2601.08
2602.28
2605.89
2611.18
2622.07
2635.26
2655.85
2677.57
2709.98
2742.76
2790.63
3395.19
11613.3
6699.55
3059.09
3297.08
3475.17
3540.92
3526.09
3469.49
3390.55
3275.44
3137.35
3001.65
2898.21
2826.86
2779.71
2745.22
2717.25
2693.46
2673.14
2656.05
2641.68
2630.02
2620.78
2613.56
2608.37
2604.95
2603.03
2602.19
2602.54
2603.8
2607.51
2612.76
2623.3
2636.24
2656.11
2677.85
2709.53
2742.18
2788.04
3395.02
11446.1
7211.17
3024
3215.86
3316.46
3411.26
3411
3381.03
3319.03
3216.52
3092.21
2973.21
2883.53
2820.91
2777.35
2744.15
2716.8
2693.54
2673.7
2656.98
2642.87
2631.39
2622.25
2615.09
2609.93
2606.55
2604.69
2603.91
2604.4
2605.76
2609.61
2614.84
2624.99
2637.62
2656.71
2678.28
2709.2
2740.92
2786.48
3388.16
11270.2
7636.21
3007
3156.77
3221.98
3322.47
3322.98
3306.64
3251.8
3158.29
3047.81
2946.3
2869.76
2814.87
2774.66
2742.84
2716.27
2693.64
2674.31
2657.99
2644.15
2632.86
2623.86
2616.79
2611.72
2608.43
2606.7
2606.06
2606.79
2608.35
2612.46
2617.76
2627.59
2640
2658.46
2679.92
2710.27
2741.17
2787.85
3389.54
11064.9
8025.37
2991.62
3110.06
3165.85
3258.04
3251.76
3236.7
3184.33
3099.81
3005.1
2920.76
2856.42
2808.41
2771.4
2741.15
2715.57
2693.64
2674.86
2658.93
2645.37
2634.31
2625.47
2618.53
2613.58
2610.43
2608.89
2608.4
2609.42
2611.18
2615.49
2620.8
2630.21
2642.22
2659.84
2680.83
2710.44
2740.07
2788.38
3381.55
10848.4
8202.86
2982.26
3068.09
3119.22
3203.35
3190.56
3172.09
3121.65
3047.15
2968.58
2899.59
2845.56
2803.21
2768.99
2740.21
2715.48
2694.12
2675.78
2660.19
2646.9
2636.07
2627.45
2620.69
2615.96
2613.07
2611.82
2611.61
2613.09
2615.16
2619.76
2625.17
2634.25
2645.93
2662.92
2683.78
2712.93
2741.67
2791.27
3377.84
10598
8361.48
2970.39
3039.42
3084.51
3154.36
3134.63
3110.55
3063.4
2999.91
2936.39
2880.47
2835.14
2797.81
2766.37
2739.09
2715.28
2694.62
2676.82
2661.62
2648.63
2638.06
2629.67
2623.12
2618.61
2615.97
2614.95
2614.96
2616.83
2619.05
2623.73
2628.99
2637.47
2648.45
2664.48
2684.81
2713.48
2741.3
2792.84
3367.42
10347.1
8347.12
2961.76
3015.01
3050.72
3104.97
3080.16
3052.71
3011.72
2960.12
2910.49
2865.74
2827.77
2794.75
2765.73
2739.99
2717.36
2697.49
2680.19
2665.33
2652.61
2642.31
2634.17
2627.85
2623.61
2621.2
2620.38
2620.56
2622.8
2625.06
2629.64
2634.54
2642.22
2652.26
2667.11
2686.64
2714.52
2741.75
2794.76
3356.84
10057.4
8303.99
2953.21
2995.28
3019.7
3057.21
3030.73
3002.68
2969.17
2928.44
2890.34
2854.42
2822.31
2792.7
2765.88
2741.88
2720.39
2701.35
2684.69
2670.33
2657.99
2648.02
2640.17
2634.08
2630.03
2627.76
2627.05
2627.32
2629.75
2631.9
2636.21
2640.57
2647.24
2655.96
2669.35
2687.8
2714.83
2740.92
2794.57
3340.27
9772.47
8163.1
2941.32
2973.2
2987.01
3009.95
2985.27
2960.4
2935.12
2904.36
2875.87
2847.05
2819.93
2794.13
2770.51
2748.47
2728.48
2710.59
2694.84
2681.19
2669.35
2659.72
2652.04
2645.94
2641.76
2639.24
2638.35
2638.29
2640.5
2642.09
2645.7
2649.09
2654.41
2661.42
2673.04
2690.25
2716.53
2742.13
2796.38
3319.32
9426.15
7973.71
2928.37
2952.25
2956.73
2967.96
2947.97
2928.92
2911.43
2888.92
2867.65
2844.27
2821.76
2799.35
2777.74
2757.42
2738.65
2721.68
2706.66
2693.62
2682.27
2673.05
2665.66
2659.71
2655.59
2653.05
2652.13
2651.89
2654.06
2655.1
2658
2660.26
2664.07
2669.03
2678.35
2693.72
2718.8
2742.99
2797.05
3290.19
9091.32
7706.29
2916.24
2934.26
2932.48
2935.52
2921.55
2908.63
2897.09
2880.8
2865.54
2847.63
2829.4
2809.77
2790.8
2772.36
2755.18
2739.54
2725.68
2713.59
2702.89
2694.02
2686.64
2680.42
2675.88
2672.87
2671.64
2670.9
2672.56
2672.78
2674.74
2675.75
2677.87
2680.51
2687.51
2700.91
2725.46
2748.83
2802.67
3253.09
8682.66
7479.18
2912.69
2925.79
2919.42
2916.1
2906.61
2899.53
2893.64
2883.97
2873.19
2857.8
2842.31
2824.87
2807.58
2790.16
2773.67
2758.5
2745.02
2733.31
2723.04
2714.72
2707.93
2702.15
2697.91
2695.05
2694.02
2693.23
2694.91
2694.87
2696.33
2696.68
2697.86
2698.97
2704.59
2716.61
2741.32
2763.61
2816.16
3219.48
8326.81
7144.6
2926.06
2935.49
2925.41
2919.9
2914.38
2911.92
2907.92
2900.92
2892.28
2879.28
2866.23
2850.42
2834.83
2818.61
2803.3
2789.29
2776.99
2766.4
2756.89
2748.77
2741.63
2735.25
2730.43
2726.95
2725.55
2724.25
2725.5
2724.96
2725.7
2725.44
2725.92
2725.85
2730.54
2741.73
2768.92
2794.19
2848.55
3186.62
7925.51
7076.59
2960.35
2956.65
2941.42
2934.75
2929.11
2930.59
2928.33
2924.21
2917.22
2904.95
2893.56
2878.9
2864.77
2849.6
2835.29
2821.8
2809.12
2797.34
2786.87
2779.59
2774.68
2770.1
2765.71
2761.46
2759.22
2756.63
2756.98
2755.38
2755.39
2754.01
2753.97
2752.53
2756.16
2765.56
2793.94
2821.62
2878.58
3181.94
7771.42
7000.85
3025.94
3008.92
2990.7
2982.33
2974.83
2978.9
2976.73
2973.44
2966.53
2954.99
2942.77
2926.83
2911.43
2895.26
2881.25
2869.65
2860.67
2853.58
2846.04
2838.6
2830.93
2822.65
2816.41
2811.6
2810.64
2809.86
2811.72
2811.88
2813.12
2812.5
2813.45
2811.86
2815.36
2824.06
2854.35
2886.79
2942.64
3195.42
7478.76
17562.5
3938.66
3470.41
3453.17
3493.14
3535.04
3580.98
3609.7
3628.35
3633.25
3630.56
3621.43
3605.6
3587.17
3566.16
3544.32
3521.9
3496.37
3480.38
3459.92
3454.1
3462.84
3459.68
3469.31
3463.64
3467.76
3461.5
3460.69
3451.35
3441.93
3426.53
3406.81
3378.52
3343.15
3309.93
3276.27
3270.17
3268.25
3974.11
16961.7
185856
18205.2
8834.97
9110.17
9332.5
9782.34
10137.7
10517
10817.8
11048.3
11260.5
11418.2
11561.2
11676.4
11782.7
11864.6
11932.4
11968.6
11981.6
11958.3
11934.1
11894.1
11849
11681.7
11512.1
11296.4
11077.3
10810.5
10548
10233.4
9924.92
9543.35
9171.71
8712.6
8308.75
7852.16
7665.54
7349.7
16389.1
168937
185856
18205.2
8834.97
9110.17
9332.5
9782.34
10137.7
10517
10817.8
11048.3
11260.5
11418.2
11561.2
11676.4
11782.7
11864.6
11932.4
11968.6
11981.6
11958.3
11934.1
11894.1
11849
11681.7
11512.1
11296.4
11077.3
10810.5
10548
10233.4
9924.92
9543.35
9171.71
8712.6
8308.75
7852.16
7665.54
7349.7
16389.1
168937
17562.5
3938.66
3470.41
3453.17
3493.14
3535.04
3580.98
3609.7
3628.35
3633.25
3630.56
3621.43
3605.6
3587.17
3566.16
3544.32
3521.9
3496.37
3480.38
3459.92
3454.1
3462.84
3459.68
3469.31
3463.64
3467.76
3461.5
3460.69
3451.35
3441.93
3426.53
3406.81
3378.52
3343.15
3309.93
3276.27
3270.17
3268.25
3974.11
16961.7
7000.85
3025.94
3008.92
2990.7
2982.33
2974.83
2978.9
2976.73
2973.44
2966.53
2954.99
2942.77
2926.83
2911.43
2895.26
2881.25
2869.65
2860.67
2853.58
2846.04
2838.6
2830.93
2822.65
2816.41
2811.6
2810.64
2809.86
2811.72
2811.88
2813.12
2812.5
2813.45
2811.86
2815.36
2824.06
2854.35
2886.79
2942.64
3195.42
7478.76
7076.59
2960.35
2956.65
2941.42
2934.75
2929.11
2930.59
2928.33
2924.21
2917.22
2904.95
2893.56
2878.9
2864.77
2849.6
2835.29
2821.8
2809.12
2797.34
2786.87
2779.59
2774.68
2770.1
2765.71
2761.46
2759.22
2756.63
2756.98
2755.38
2755.39
2754.01
2753.97
2752.53
2756.16
2765.56
2793.94
2821.62
2878.58
3181.94
7771.42
7144.6
2926.06
2935.49
2925.41
2919.9
2914.38
2911.92
2907.92
2900.92
2892.28
2879.28
2866.23
2850.42
2834.83
2818.61
2803.3
2789.29
2776.99
2766.4
2756.89
2748.77
2741.63
2735.25
2730.43
2726.95
2725.55
2724.25
2725.5
2724.96
2725.7
2725.44
2725.92
2725.85
2730.54
2741.73
2768.92
2794.19
2848.55
3186.62
7925.51
7479.18
2912.69
2925.79
2919.42
2916.1
2906.61
2899.53
2893.64
2883.97
2873.19
2857.8
2842.31
2824.87
2807.58
2790.16
2773.67
2758.5
2745.02
2733.31
2723.04
2714.72
2707.93
2702.15
2697.91
2695.05
2694.02
2693.23
2694.91
2694.87
2696.33
2696.68
2697.86
2698.97
2704.59
2716.61
2741.32
2763.61
2816.16
3219.48
8326.81
7706.29
2916.24
2934.26
2932.48
2935.52
2921.55
2908.63
2897.09
2880.8
2865.54
2847.63
2829.4
2809.77
2790.8
2772.36
2755.18
2739.54
2725.68
2713.59
2702.89
2694.02
2686.64
2680.42
2675.88
2672.87
2671.64
2670.9
2672.56
2672.78
2674.74
2675.75
2677.87
2680.51
2687.51
2700.91
2725.46
2748.83
2802.67
3253.09
8682.66
7973.71
2928.37
2952.25
2956.73
2967.96
2947.97
2928.92
2911.43
2888.92
2867.65
2844.27
2821.76
2799.35
2777.74
2757.42
2738.65
2721.68
2706.66
2693.62
2682.27
2673.05
2665.66
2659.71
2655.59
2653.05
2652.13
2651.89
2654.06
2655.1
2658
2660.26
2664.07
2669.03
2678.35
2693.72
2718.8
2742.99
2797.05
3290.19
9091.32
8163.1
2941.32
2973.2
2987.01
3009.95
2985.27
2960.4
2935.12
2904.36
2875.87
2847.05
2819.93
2794.13
2770.51
2748.47
2728.48
2710.59
2694.84
2681.19
2669.35
2659.72
2652.04
2645.94
2641.76
2639.24
2638.35
2638.29
2640.5
2642.09
2645.7
2649.09
2654.41
2661.42
2673.04
2690.25
2716.53
2742.13
2796.38
3319.32
9426.15
8303.99
2953.21
2995.28
3019.7
3057.21
3030.73
3002.68
2969.17
2928.44
2890.34
2854.42
2822.31
2792.7
2765.88
2741.88
2720.39
2701.35
2684.69
2670.33
2657.99
2648.02
2640.17
2634.08
2630.03
2627.76
2627.05
2627.32
2629.75
2631.9
2636.21
2640.57
2647.24
2655.96
2669.35
2687.8
2714.83
2740.92
2794.57
3340.27
9772.47
8347.12
2961.76
3015.01
3050.72
3104.97
3080.16
3052.71
3011.72
2960.12
2910.49
2865.74
2827.77
2794.75
2765.73
2739.99
2717.36
2697.49
2680.19
2665.33
2652.61
2642.31
2634.17
2627.85
2623.61
2621.2
2620.38
2620.56
2622.8
2625.06
2629.64
2634.54
2642.22
2652.26
2667.11
2686.64
2714.52
2741.75
2794.76
3356.84
10057.4
8361.48
2970.39
3039.42
3084.51
3154.36
3134.63
3110.55
3063.4
2999.91
2936.39
2880.47
2835.14
2797.81
2766.37
2739.09
2715.28
2694.62
2676.82
2661.62
2648.63
2638.06
2629.67
2623.12
2618.61
2615.97
2614.95
2614.96
2616.83
2619.05
2623.73
2628.99
2637.47
2648.45
2664.48
2684.81
2713.48
2741.3
2792.84
3367.42
10347.1
8202.86
2982.26
3068.09
3119.22
3203.35
3190.56
3172.09
3121.65
3047.15
2968.58
2899.59
2845.56
2803.21
2768.99
2740.21
2715.48
2694.12
2675.78
2660.19
2646.9
2636.07
2627.45
2620.69
2615.96
2613.07
2611.82
2611.61
2613.09
2615.16
2619.76
2625.17
2634.25
2645.93
2662.92
2683.78
2712.93
2741.67
2791.27
3377.84
10598
8025.37
2991.62
3110.06
3165.85
3258.04
3251.76
3236.7
3184.33
3099.81
3005.1
2920.76
2856.42
2808.41
2771.4
2741.15
2715.57
2693.64
2674.86
2658.93
2645.37
2634.31
2625.47
2618.53
2613.58
2610.43
2608.89
2608.4
2609.42
2611.18
2615.49
2620.8
2630.21
2642.22
2659.84
2680.83
2710.44
2740.07
2788.38
3381.55
10848.4
7636.21
3007
3156.77
3221.98
3322.47
3322.98
3306.64
3251.8
3158.29
3047.81
2946.3
2869.76
2814.87
2774.66
2742.84
2716.27
2693.64
2674.31
2657.99
2644.15
2632.86
2623.86
2616.79
2611.72
2608.43
2606.7
2606.06
2606.79
2608.35
2612.46
2617.76
2627.59
2640
2658.46
2679.92
2710.27
2741.17
2787.85
3389.54
11064.9
7211.17
3024
3215.86
3316.46
3411.26
3411
3381.03
3319.03
3216.52
3092.21
2973.21
2883.53
2820.91
2777.35
2744.15
2716.8
2693.54
2673.7
2656.98
2642.87
2631.39
2622.25
2615.09
2609.93
2606.55
2604.69
2603.91
2604.4
2605.76
2609.61
2614.84
2624.99
2637.62
2656.71
2678.28
2709.2
2740.92
2786.48
3388.16
11270.2
6699.55
3059.09
3297.08
3475.17
3540.92
3526.09
3469.49
3390.55
3275.44
3137.35
3001.65
2898.21
2826.86
2779.71
2745.22
2717.25
2693.46
2673.14
2656.05
2641.68
2630.02
2620.78
2613.56
2608.37
2604.95
2603.03
2602.19
2602.54
2603.8
2607.51
2612.76
2623.3
2636.24
2656.11
2677.85
2709.53
2742.18
2788.04
3395.02
11446.1
6113.45
3164.48
3416.85
3684.29
3729.8
3671.91
3570.31
3459.22
3329.19
3178.12
3029.34
2912.03
2832.09
2781.39
2745.87
2717.52
2693.36
2672.65
2655.24
2640.65
2628.84
2619.52
2612.26
2607.05
2603.63
2601.68
2600.82
2601.08
2602.28
2605.89
2611.18
2622.07
2635.26
2655.85
2677.57
2709.98
2742.76
2790.63
3395.19
11613.3
5444.81
3405.2
3634.3
3978.75
3977.13
3846.15
3678.63
3523.53
3375.01
3212.41
3053.48
2924.13
2836.13
2782.33
2746.14
2717.63
2693.25
2672.26
2654.59
2639.82
2627.9
2618.51
2611.23
2606.02
2602.6
2600.65
2599.79
2600
2601.17
2604.73
2610.06
2621.25
2634.66
2655.89
2677.49
2710.84
2742.85
2795.62
3411.1
11801.9
4660.4
3687.99
4106.91
4359.6
4293.85
4034.87
3774.81
3572.77
3405.14
3236.4
3071.76
2933.03
2838.59
2782.61
2746.16
2717.68
2693.19
2672.01
2654.17
2639.27
2627.28
2617.85
2610.55
2605.34
2601.92
2599.98
2599.12
2599.31
2600.47
2604.01
2609.38
2620.8
2634.39
2656.12
2677.59
2711.73
2742.33
2800.1
3425.79
12303.5
)
;

boundaryField
{
    inlet
    {
        type            calculated;
        value           uniform 14000.1;
    }
    outlet
    {
        type            calculated;
        value           nonuniform List<scalar> 
165
(
2409.06
2760.84
3095.24
3178.7
3197.53
3224.23
3252.44
3270.38
3261.67
3261.05
3255.21
3254.61
3249.88
3247.4
3233.02
3214.94
3171.91
3096.6
3479.29
3930.44
3930.44
3405.95
3063.37
3138.71
3184.52
3210.63
3238.53
3258.4
3279.6
3300.99
3319.17
3337.1
3352.46
3367.04
3379.62
3391.37
3399.77
3404.79
3407.51
3407.42
3408.98
3413.39
3410.79
3416.64
3411.4
3409.74
3403.23
3398.51
3389.12
3381.1
3367.3
3355.61
3336.28
3320.18
3291.63
3257.07
3199.97
3115.58
3449.26
3947.08
3399.46
3432.06
3418.05
3410.65
3405.58
3405.33
3401.67
3398.28
3391.01
3383.56
3370.49
3358.42
3338.55
3320.68
3290.3
3253.53
3195.99
3110.39
3438.78
3947.08
3434.09
3426.56
3415.95
3426.56
3434.09
3947.08
3438.78
3110.39
3195.99
3253.53
3290.3
3320.68
3338.55
3358.42
3370.49
3383.56
3391.01
3398.28
3401.67
3405.33
3405.58
3410.65
3418.05
3432.06
3399.46
3930.44
3405.95
3063.37
3138.71
3184.52
3210.63
3238.53
3258.4
3279.6
3300.99
3319.17
3337.1
3352.46
3367.04
3379.62
3391.37
3399.77
3404.79
3407.51
3407.42
3408.98
3413.39
3410.79
3416.64
3411.4
3409.74
3403.23
3398.51
3389.12
3381.1
3367.3
3355.61
3336.28
3320.18
3291.63
3257.07
3199.97
3115.58
3449.26
3947.08
3930.44
3479.29
3096.6
3171.91
3214.94
3233.02
3247.4
3249.88
3254.61
3255.21
3261.05
3261.67
3270.38
3252.44
3224.23
3197.53
3178.7
3095.24
2760.84
2409.06
)
;
    }
    obstacle
    {
        type            calculated;
        value           nonuniform List<scalar> 
40
(
42670.1
17467.5
14697.9
14175.9
13845.2
13618.4
13454.4
13332.1
13275.2
13184
42670.1
17467.5
14697.9
14175.9
13845.2
13618.4
13454.4
13332.1
13275.2
13184
13275.7
13147.8
13126.6
12895.9
12809.6
13275.7
13147.8
13126.6
12895.9
12809.6
8826.25
8372.83
8123.36
7689.32
7028.62
8826.25
8372.83
8123.36
7689.32
7028.62
)
;
    }
    empty
    {
        type            empty;
    }
}


// ************************************************************************* //
