/*--------------------------------*- C++ -*----------------------------------*\
| =========                 |                                                 |
| \\      /  F ield         | OpenFOAM: The Open Source CFD Toolbox           |
|  \\    /   O peration     | Version:  v1912                                 |
|   \\  /    A nd           | Website:  www.openfoam.com                      |
|    \\/     M anipulation  |                                                 |
\*---------------------------------------------------------------------------*/
FoamFile
{
    version     2.0;
    format      ascii;
    class       volVectorField;
    location    "5.06";
    object      grad(p);
}
// * * * * * * * * * * * * * * * * * * * * * * * * * * * * * * * * * * * * * //

dimensions      [1 -2 -2 0 0 0 0];


internalField   nonuniform List<vector> 
1900
(
(136248 0.0100796 0)
(-128075 -0.254001 0)
(-8563.51 1.92931 0)
(-1552.57 -0.00965084 0)
(-1728.77 0.212118 0)
(-1528.91 0.852081 0)
(-1262.83 -0.0420772 0)
(-801.533 15.6807 0)
(-626.704 -102.333 0)
(186.906 -88.6124 0)
(136248 -0.226888 0)
(-128074 -0.0805445 0)
(-8563.26 2.67168 0)
(-1554.29 0.334739 0)
(-1727.91 0.621293 0)
(-1529.17 1.20613 0)
(-1248 -3.1132 0)
(-903.825 -1.57138 0)
(-730.997 -142.276 0)
(-593.095 -119.222 0)
(136248 -1.28608e-08 0)
(-128073 9.62785e-09 0)
(-8563.09 -1.39089e-08 0)
(-1554.62 1.24345e-10 0)
(-1727.9 2.66454e-10 0)
(-1532.65 2.27374e-09 0)
(-1265.6 2.71783e-09 0)
(-940.696 2.38032e-09 0)
(-744.355 3.32179e-09 0)
(-658.441 1.88294e-09 0)
(136248 0.226888 0)
(-128074 0.0805445 0)
(-8563.26 -2.67168 0)
(-1554.29 -0.334739 0)
(-1727.91 -0.621293 0)
(-1529.17 -1.20613 0)
(-1248 3.1132 0)
(-903.825 1.57138 0)
(-730.997 142.276 0)
(-593.095 119.222 0)
(136248 -0.0100796 0)
(-128075 0.254001 0)
(-8563.51 -1.92931 0)
(-1552.57 0.00965086 0)
(-1728.77 -0.212118 0)
(-1528.91 -0.852081 0)
(-1262.83 0.0420772 0)
(-801.533 -15.6807 0)
(-626.704 102.333 0)
(186.906 88.6124 0)
(-331.485 -779.009 9.16709e-12)
(-1847.21 -689.57 -1.07608e-11)
(-2146.16 -888.646 -1.34915e-11)
(-412.251 -1356.26 0)
(-13883.7 -9110.15 -5.77074e-11)
(-853.69 -876.513 9.02633e-12)
(-1502.4 -806.024 1.07608e-11)
(-2238.79 -1043.07 1.34915e-11)
(-3441.03 -1099.47 0)
(-13167.1 -7533.96 0)
(-1229.23 2.20436e-09 0)
(-1767 1.32448e-09 0)
(-2268.41 -1.11022e-09 0)
(-3150.92 4.03717e-10 0)
(-16465.8 -3.06633e-09 0)
(-853.69 876.513 9.02633e-12)
(-1502.4 806.024 1.07608e-11)
(-2238.79 1043.07 1.34915e-11)
(-3441.03 1099.47 0)
(-13167.1 7533.96 0)
(-331.485 779.009 -2.72198e-11)
(-1847.21 689.57 -1.07608e-11)
(-2146.16 888.646 -1.34915e-11)
(-412.251 1356.26 -3.61099e-11)
(-13883.7 9110.15 5.77074e-11)
(-25676.6 10416.4 1.426e-11)
(-4901.33 2807.68 -1.04605e-11)
(-4165.6 1543.75 0)
(-5538.29 1095.77 6.61667e-12)
(-8054.13 1360.53 -2.5021e-12)
(-21755.9 11997.8 -7.28685e-12)
(-6878.84 1940.51 5.27255e-12)
(-4576.85 518.942 0)
(-5482.28 462.263 -4.15952e-12)
(-7635.29 828.523 6.42007e-13)
(-23201.2 -7.62577e-10 0)
(-7785.59 -7.59127e-11 0)
(-4682.78 1.4803e-10 0)
(-5455.86 -2.75742e-10 1.66938e-12)
(-7476.52 1.29851e-10 -1.28401e-12)
(-21755.9 -11997.8 -7.28685e-12)
(-6878.84 -1940.51 5.27255e-12)
(-4576.85 -518.942 0)
(-5482.28 -462.263 -4.15952e-12)
(-7635.29 -828.523 6.42007e-13)
(-25676.6 -10416.4 7.28685e-12)
(-4901.33 -2807.68 -8.45581e-14)
(-4165.6 -1543.75 0)
(-5538.29 -1095.77 3.30009e-14)
(-8054.13 -1360.53 2.5021e-12)
(-7198.15 3744.82 0)
(-1118.18 900.693 0)
(2161.95 210.298 0)
(970.83 1000.16 0)
(-814.451 1060.06 0)
(-1497.3 647.716 0)
(-1295.57 239.439 0)
(-884.731 90.7524 0)
(-685.169 45.0239 0)
(-639.154 32.1745 0)
(-596.135 39.2062 0)
(-488.484 19.587 0)
(-329.148 5.7626 0)
(-196.716 -0.0926945 0)
(-127.037 -0.809329 0)
(-98.0046 -0.62754 0)
(-83.5868 -0.615698 0)
(-71.951 -0.767467 0)
(-60.7537 -0.99787 0)
(-49.95 -1.19774 0)
(-39.746 -1.32784 0)
(-30.9783 -1.39293 0)
(-23.2313 -1.40978 0)
(-16.2657 -1.4038 0)
(-10.4551 -1.39071 0)
(-5.78054 -1.38791 0)
(-1.655 -1.38125 0)
(2.48324 -1.42354 0)
(9.32211 -1.42641 0)
(17.7593 -1.43251 0)
(32.4799 -1.37858 0)
(47.1748 -0.885087 0)
(65.4595 -0.693485 0)
(78.3737 0.40881 0)
(102.461 -0.585482 0)
(124.046 2.19773 0)
(187.695 -2.51526 0)
(639.452 12.4552 0)
(7491.2 -11.3894 0)
(-8055.37 -746.098 0)
(-7375.82 2214.99 0)
(-1776.63 92.46 0)
(2074.23 -170.292 0)
(1156.31 936.397 0)
(-798.331 865.187 0)
(-1591.53 411.635 0)
(-1366.54 131.42 0)
(-909.315 37.8221 0)
(-691.294 15.7089 0)
(-638.475 8.70908 0)
(-596.776 19.7737 0)
(-492.15 6.43584 0)
(-330.675 1.43146 0)
(-197.179 -0.553907 0)
(-127.032 -0.6681 0)
(-97.9667 -0.509744 0)
(-83.5824 -0.467859 0)
(-71.9681 -0.491977 0)
(-60.7817 -0.558719 0)
(-49.9756 -0.632312 0)
(-39.7621 -0.683441 0)
(-30.9865 -0.714021 0)
(-23.2347 -0.730093 0)
(-16.2679 -0.741474 0)
(-10.4585 -0.75339 0)
(-5.78493 -0.770929 0)
(-1.66522 -0.786985 0)
(2.47154 -0.826607 0)
(9.31351 -0.842513 0)
(17.7519 -0.857011 0)
(32.5225 -0.847621 0)
(47.229 -0.603179 0)
(65.5936 -0.478207 0)
(78.3964 0.324876 0)
(102.677 0.345379 0)
(123.983 2.50898 0)
(188.629 2.49691 0)
(639.334 11.2769 0)
(7497.39 2.63522 0)
(-8062.39 211.778 0)
(-7309.99 -3.98065e-09 0)
(-1812.08 3.28626e-08 0)
(2407.46 6.08483e-08 0)
(1272.06 4.01214e-08 0)
(-967.109 -1.25152e-09 0)
(-1710.76 6.40296e-09 0)
(-1404.31 1.43723e-09 0)
(-918.392 -2.20188e-08 0)
(-693.639 -1.09367e-08 0)
(-637.971 2.063e-09 0)
(-596.797 -8.18739e-09 0)
(-493.82 -5.09088e-09 0)
(-331.182 -4.42878e-09 0)
(-197.327 -5.35329e-09 0)
(-127.024 1.53413e-09 0)
(-97.9464 4.40052e-09 0)
(-83.5817 5.24429e-09 0)
(-71.9774 -6.3101e-09 0)
(-60.7946 -4.60642e-09 0)
(-49.9863 -8.63955e-10 0)
(-39.7697 3.24185e-09 0)
(-30.9919 8.1995e-09 0)
(-23.2393 1.07308e-08 0)
(-16.2724 9.71748e-09 0)
(-10.4637 9.16842e-09 0)
(-5.79032 1.05128e-08 0)
(-1.6712 1.00889e-08 0)
(2.46709 4.52567e-09 0)
(9.31327 -1.54624e-09 0)
(17.7578 -9.64077e-09 0)
(32.5537 -1.12556e-08 0)
(47.2823 1.53413e-10 0)
(65.7294 1.66089e-08 0)
(78.6133 1.89142e-08 0)
(103.096 1.79695e-08 0)
(124.672 1.50143e-08 0)
(190.246 6.27296e-08 0)
(639.492 2.85549e-08 0)
(7549.53 -2.74609e-08 0)
(-8117.74 -1.03675e-08 0)
(-7375.82 -2214.99 0)
(-1776.63 -92.46 0)
(2074.23 170.292 0)
(1156.31 -936.397 0)
(-798.331 -865.187 0)
(-1591.53 -411.635 0)
(-1366.54 -131.42 0)
(-909.315 -37.8221 0)
(-691.294 -15.7089 0)
(-638.475 -8.70908 0)
(-596.776 -19.7737 0)
(-492.15 -6.43584 0)
(-330.675 -1.43146 0)
(-197.179 0.553907 0)
(-127.032 0.6681 0)
(-97.9667 0.509744 0)
(-83.5824 0.467859 0)
(-71.9681 0.491977 0)
(-60.7817 0.558719 0)
(-49.9756 0.632312 0)
(-39.7621 0.683441 0)
(-30.9865 0.714021 0)
(-23.2347 0.730093 0)
(-16.2679 0.741474 0)
(-10.4585 0.753389 0)
(-5.78493 0.770929 0)
(-1.66522 0.786985 0)
(2.47154 0.826607 0)
(9.31351 0.842513 0)
(17.7519 0.857011 0)
(32.5225 0.847621 0)
(47.229 0.603179 0)
(65.5936 0.478207 0)
(78.3964 -0.324876 0)
(102.677 -0.345379 0)
(123.983 -2.50898 0)
(188.629 -2.49691 0)
(639.334 -11.2769 0)
(7497.39 -2.63522 0)
(-8062.39 -211.778 0)
(-7198.15 -3744.82 0)
(-1118.18 -900.693 0)
(2161.95 -210.298 0)
(970.83 -1000.16 0)
(-814.451 -1060.06 0)
(-1497.3 -647.716 0)
(-1295.57 -239.439 0)
(-884.731 -90.7524 0)
(-685.169 -45.0239 0)
(-639.154 -32.1745 0)
(-596.135 -39.2062 0)
(-488.484 -19.587 0)
(-329.148 -5.7626 0)
(-196.716 0.0926945 0)
(-127.037 0.809329 0)
(-98.0046 0.62754 0)
(-83.5868 0.615698 0)
(-71.951 0.767467 0)
(-60.7537 0.99787 0)
(-49.95 1.19774 0)
(-39.746 1.32784 0)
(-30.9783 1.39293 0)
(-23.2313 1.40978 0)
(-16.2657 1.4038 0)
(-10.4551 1.39071 0)
(-5.78054 1.38791 0)
(-1.655 1.38125 0)
(2.48324 1.42354 0)
(9.32211 1.42641 0)
(17.7593 1.43251 0)
(32.4799 1.37858 0)
(47.1748 0.885087 0)
(65.4595 0.693485 0)
(78.3737 -0.40881 0)
(102.461 0.585482 0)
(124.046 -2.19773 0)
(187.695 2.51526 0)
(639.452 -12.4552 0)
(7491.2 11.3894 0)
(-8055.37 746.098 0)
(3983.27 -1401.31 0)
(-320.855 -812.671 0)
(1910.42 -1206.13 0)
(837.735 -1538.06 0)
(-558.616 -1376.77 0)
(-1185.73 -859.694 0)
(-1099.24 -388.936 0)
(-815.789 -174.885 0)
(-661.631 -95.6825 0)
(-634.04 -71.4235 0)
(-589.62 -63.3233 0)
(-475.412 -36.4792 0)
(-320.096 -12.0598 0)
(-193.592 -1.29646 0)
(-126.69 0.536527 0)
(-98.0442 0.420631 0)
(-83.4896 0.496099 0)
(-71.7481 0.902807 0)
(-60.5442 1.40276 0)
(-49.7981 1.78967 0)
(-39.6584 2.03736 0)
(-30.9444 2.16052 0)
(-23.2319 2.19348 0)
(-16.2824 2.18414 0)
(-10.4724 2.16081 0)
(-5.79595 2.15564 0)
(-1.65467 2.14758 0)
(2.48635 2.21274 0)
(9.30918 2.22611 0)
(17.7134 2.24081 0)
(32.2284 2.08996 0)
(46.8618 1.3273 0)
(64.9371 0.861075 0)
(78.3549 -0.656349 0)
(101.804 0.368129 0)
(125.121 -2.70885 0)
(183.274 2.9908 0)
(644.765 -18.592 0)
(7980.36 -0.93285 0)
(-8545.66 173.229 0)
(3855.86 251.566 0)
(-1357.65 -738.432 0)
(1597.81 -1136.87 0)
(877.764 -1387.94 0)
(-297.937 -1322.95 0)
(-712.455 -903.237 0)
(-740.939 -502.956 0)
(-639.11 -255.759 0)
(-598.092 -155.87 0)
(-610.713 -114.739 0)
(-565.955 -88.8692 0)
(-446.094 -50.3354 0)
(-300.099 -18.1089 0)
(-186.253 -3.20964 0)
(-125.568 0.186419 0)
(-98.0224 0.463892 0)
(-83.1743 0.771843 0)
(-71.1861 1.48551 0)
(-60.0115 2.26 0)
(-49.42 2.84877 0)
(-39.4356 3.23009 0)
(-30.8461 3.42716 0)
(-23.2082 3.49314 0)
(-16.2882 3.50286 0)
(-10.4733 3.49941 0)
(-5.78503 3.5297 0)
(-1.60015 3.56086 0)
(2.55726 3.71732 0)
(9.35609 3.80256 0)
(17.6527 3.90089 0)
(31.7344 3.71757 0)
(46.1584 2.69928 0)
(63.828 2.02467 0)
(77.9088 0.0421686 0)
(100.835 0.880435 0)
(125.997 -2.11301 0)
(174.76 1.29059 0)
(632.822 -20.4373 0)
(7413.75 -19.4371 0)
(-7958.49 -732.831 0)
(3514.11 301.634 0)
(-1658.8 -438.126 0)
(1284.52 -592.377 0)
(658.418 -1112.19 0)
(-91.5338 -1038.34 0)
(-395.552 -764.442 0)
(-475.309 -489.029 0)
(-481.324 -290.108 0)
(-525.74 -202.134 0)
(-569.476 -151.546 0)
(-527.558 -110.519 0)
(-407.224 -61.0053 0)
(-274.684 -23.7295 0)
(-175.962 -5.96167 0)
(-123.15 -0.877311 0)
(-97.4801 0.198538 0)
(-82.5051 0.986563 0)
(-70.3141 2.05456 0)
(-59.2305 3.10608 0)
(-48.8633 3.89412 0)
(-39.101 4.41157 0)
(-30.691 4.69017 0)
(-23.159 4.80005 0)
(-16.2763 4.8455 0)
(-10.4465 4.88719 0)
(-5.73674 4.98447 0)
(-1.47388 5.08106 0)
(2.71926 5.37876 0)
(9.48608 5.5765 0)
(17.6315 5.79828 0)
(31.0705 5.62911 0)
(45.2305 4.37267 0)
(62.3766 3.57326 0)
(77.2523 1.19271 0)
(99.7274 1.81517 0)
(125.516 -1.08861 0)
(165.616 -0.580863 0)
(624.791 -15.3834 0)
(7293.87 -0.416701 0)
(-7820.75 -263.885 0)
(3724.33 775.889 0)
(-2219.15 -208.441 0)
(948.257 -397.393 0)
(448.019 -840.966 0)
(37.1703 -757.546 0)
(-183.12 -606.229 0)
(-283.853 -425.033 0)
(-362.648 -293.894 0)
(-464.569 -225.938 0)
(-522.43 -176.131 0)
(-478.707 -121.606 0)
(-362.46 -66.5062 0)
(-247.057 -27.0625 0)
(-164.232 -8.6568 0)
(-119.632 -2.48618 0)
(-96.2263 -0.500878 0)
(-81.3858 0.916512 0)
(-69.1437 2.34611 0)
(-58.2388 3.62987 0)
(-48.162 4.56941 0)
(-38.6685 5.19913 0)
(-30.4717 5.56089 0)
(-23.0585 5.73796 0)
(-16.2042 5.86097 0)
(-10.3394 6.00394 0)
(-5.59821 6.22914 0)
(-1.2202 6.44657 0)
(3.03469 6.94163 0)
(9.76035 7.30271 0)
(17.7034 7.67767 0)
(30.3606 7.54477 0)
(44.1773 6.15095 0)
(60.7637 5.18903 0)
(76.2146 2.64336 0)
(98.6365 2.60968 0)
(123.688 -0.188228 0)
(160.985 -2.8013 0)
(632.98 -7.31692 0)
(7174.28 7.4271 0)
(-7703.8 -278.582 0)
(4060.92 775.841 0)
(-2789.42 -151.743 0)
(675 -324.248 0)
(311.362 -605.087 0)
(134.667 -510.168 0)
(-75.1304 -453.123 0)
(-174.331 -347.706 0)
(-289.468 -281.037 0)
(-412.26 -233.867 0)
(-468.938 -185.941 0)
(-421.919 -121.794 0)
(-316.119 -66.1173 0)
(-218.938 -27.9386 0)
(-152.279 -10.442 0)
(-115.291 -3.83579 0)
(-94.2011 -1.11092 0)
(-79.7617 0.829765 0)
(-67.6994 2.53668 0)
(-57.0881 3.95047 0)
(-47.3511 4.96934 0)
(-38.1456 5.68349 0)
(-30.1717 6.13894 0)
(-22.8698 6.4265 0)
(-16.02 6.69744 0)
(-10.0917 7.03068 0)
(-5.31021 7.47284 0)
(-0.787295 7.90565 0)
(3.54427 8.72547 0)
(10.1954 9.34707 0)
(17.8647 9.97447 0)
(29.5993 10.0206 0)
(42.9604 8.69998 0)
(58.9966 7.78956 0)
(74.7667 5.45748 0)
(96.9988 5.1846 0)
(120.302 2.65027 0)
(158.747 -1.22548 0)
(634.648 0.949373 0)
(7032.47 7.03424 0)
(-7559.45 -339.728 0)
(4325.74 612.467 0)
(-3279.23 -142.993 0)
(511.398 -268.283 0)
(268.861 -364.597 0)
(183.608 -341.718 0)
(-26.5663 -338.124 0)
(-118.025 -291.38 0)
(-252.948 -265.509 0)
(-372.931 -234.824 0)
(-414.432 -184.099 0)
(-363.24 -116.753 0)
(-272.018 -62.4919 0)
(-193.406 -28.0838 0)
(-141.006 -11.9177 0)
(-110.64 -5.03883 0)
(-91.7304 -1.64503 0)
(-77.8709 0.606335 0)
(-66.1364 2.50653 0)
(-55.8946 3.98106 0)
(-46.492 5.04328 0)
(-37.5414 5.82994 0)
(-29.7557 6.38757 0)
(-22.5203 6.80766 0)
(-15.622 7.25273 0)
(-9.59221 7.7894 0)
(-4.75506 8.44529 0)
(-0.0131129 9.07244 0)
(4.42369 10.1531 0)
(10.9639 10.9224 0)
(18.3524 11.6304 0)
(29.1325 11.6835 0)
(42.0274 10.2942 0)
(57.6391 9.24354 0)
(73.7044 6.81092 0)
(95.9314 6.04758 0)
(117.511 3.69131 0)
(159.346 -0.89421 0)
(640.94 5.84852 0)
(6845.99 7.80285 0)
(-7383.2 -384.931 0)
(4513.33 415.375 0)
(-3638.14 -117.901 0)
(461.454 -208.737 0)
(240.597 -221.015 0)
(160.177 -247.48 0)
(-26.6226 -266.397 0)
(-104.357 -261.001 0)
(-234.969 -254.605 0)
(-333.809 -227.679 0)
(-355.16 -171.003 0)
(-304.735 -105.18 0)
(-230.674 -55.2742 0)
(-170.203 -25.4327 0)
(-130.072 -11.0286 0)
(-105.392 -4.3568 0)
(-88.7613 -0.853588 0)
(-75.7611 1.42912 0)
(-64.4474 3.29092 0)
(-54.6435 4.71342 0)
(-45.5695 5.76141 0)
(-36.8502 6.5979 0)
(-29.2296 7.27109 0)
(-22.0361 7.86941 0)
(-15.074 8.55485 0)
(-8.94251 9.35972 0)
(-4.07382 10.2636 0)
(0.858412 11.1339 0)
(5.32693 12.5637 0)
(11.6189 13.4772 0)
(18.5982 14.2027 0)
(28.3117 14.2045 0)
(40.6091 12.699 0)
(55.64 11.3828 0)
(71.687 8.82326 0)
(93.9926 7.87297 0)
(113.613 5.84764 0)
(160.826 1.61716 0)
(643.028 9.42839 0)
(6655.9 3.96075 0)
(-7196.04 -421.949 0)
(4612.4 344.094 0)
(-3880.65 -80.9537 0)
(412.034 -167.763 0)
(231.526 -168.168 0)
(139.876 -202.619 0)
(-39.5957 -226.306 0)
(-106.662 -241.164 0)
(-220.838 -238.975 0)
(-292.369 -208.361 0)
(-296.387 -150.207 0)
(-251.72 -90.5934 0)
(-195.171 -47.4761 0)
(-150.77 -22.2948 0)
(-120.696 -9.51139 0)
(-100.835 -3.33101 0)
(-86.1549 0.137197 0)
(-73.8771 2.69809 0)
(-62.9716 4.65918 0)
(-53.514 6.09106 0)
(-44.676 7.14424 0)
(-36.0866 8.03291 0)
(-28.5304 8.80884 0)
(-21.2832 9.54828 0)
(-14.1859 10.399 0)
(-7.9456 11.3575 0)
(-3.04538 12.3354 0)
(2.20337 13.2593 0)
(6.68179 14.8789 0)
(12.5434 15.6698 0)
(19.0532 16.1362 0)
(27.6834 15.7974 0)
(39.3083 13.905 0)
(53.9043 12.0114 0)
(70.3222 9.18649 0)
(93.064 7.98312 0)
(111.483 6.14079 0)
(162.796 2.91378 0)
(643.198 11.314 0)
(6430.3 1.99544 0)
(-6980.41 -449.375 0)
(4766.9 228.441 0)
(-4131.39 -54.7604 0)
(377.411 -119.113 0)
(207.009 -132.121 0)
(104.153 -182.74 0)
(-63.7654 -207.984 0)
(-116.565 -229.505 0)
(-203.359 -221.589 0)
(-248.269 -184.391 0)
(-241.675 -127.586 0)
(-205.74 -75.3523 0)
(-164.859 -38.9075 0)
(-133.619 -17.5724 0)
(-111.798 -6.07113 0)
(-96.0943 0.407472 0)
(-82.9514 4.77432 0)
(-71.4035 7.84377 0)
(-61.1778 9.95013 0)
(-52.2489 11.4139 0)
(-43.6982 12.4779 0)
(-35.2461 13.4068 0)
(-27.7693 14.2413 0)
(-20.5037 15.0262 0)
(-13.3305 15.869 0)
(-7.07654 16.6813 0)
(-2.24116 17.4532 0)
(3.30942 18.1471 0)
(7.64975 19.4429 0)
(12.8305 19.7247 0)
(18.7212 19.4847 0)
(26.1616 18.3163 0)
(36.9609 15.5462 0)
(51.0931 12.5617 0)
(67.8052 8.84538 0)
(91.0577 6.60439 0)
(108.728 3.92828 0)
(165.811 1.02524 0)
(642.143 9.19734 0)
(6211.96 -5.52976 0)
(-6764.93 -478.255 0)
(4779.76 43.4419 0)
(-4215.57 -37.1005 0)
(337.487 -90.3687 0)
(170.213 -118.901 0)
(66.7718 -177.084 0)
(-84.66 -195.399 0)
(-119.773 -211.054 0)
(-177.364 -193.451 0)
(-201.784 -152.856 0)
(-191.313 -101.113 0)
(-166.266 -57.4803 0)
(-139.492 -27.9213 0)
(-119.127 -10.6169 0)
(-103.37 -0.455685 0)
(-90.3841 6.71568 0)
(-78.989 11.5777 0)
(-68.8895 14.9427 0)
(-59.5312 17.2485 0)
(-51.0781 18.8894 0)
(-42.7556 20.0845 0)
(-34.3874 21.1248 0)
(-26.97 22.0395 0)
(-19.7147 22.8266 0)
(-12.591 23.561 0)
(-6.41902 24.0964 0)
(-1.63285 24.6507 0)
(4.12073 25.1065 0)
(8.20199 25.8997 0)
(12.5836 25.6783 0)
(17.6961 24.8002 0)
(23.8882 22.9069 0)
(33.763 19.3735 0)
(47.4472 15.2776 0)
(64.5815 10.6117 0)
(88.3257 7.51102 0)
(106.107 4.48836 0)
(167.874 1.31277 0)
(636.881 6.65591 0)
(5960.58 -11.8825 0)
(-6514.22 -497.722 0)
(4773.01 -119.807 0)
(-4260.33 -34.3446 0)
(298.585 -78.1079 0)
(123.446 -113.751 0)
(30.4369 -173.842 0)
(-96.4997 -180.45 0)
(-114.688 -184.381 0)
(-147.278 -159.314 0)
(-159.289 -119.61 0)
(-149.768 -75.6486 0)
(-135.21 -40.7753 0)
(-119.7 -16.6335 0)
(-107.152 -0.815483 0)
(-95.0955 10.4013 0)
(-84.4985 17.8101 0)
(-75.0235 23.1561 0)
(-65.939 27.1678 0)
(-57.3746 30.2081 0)
(-49.516 32.4459 0)
(-41.5441 34.006 0)
(-33.3622 35.1514 0)
(-26.1294 35.8846 0)
(-19.0376 36.1936 0)
(-12.1069 36.2318 0)
(-6.02644 36.0039 0)
(-1.26778 35.8349 0)
(4.51298 35.3789 0)
(8.20077 35.24 0)
(11.7709 33.9256 0)
(16.0505 31.9744 0)
(20.9323 28.9902 0)
(29.609 24.4263 0)
(42.6499 18.9496 0)
(60.321 13.1601 0)
(85.157 9.23245 0)
(102.755 6.24582 0)
(167.899 3.26621 0)
(629.428 7.11362 0)
(5725.93 -19.1954 0)
(-6273.85 -542.613 0)
(4631.22 -270.761 0)
(-4175.38 -37.7058 0)
(260.968 -76.6665 0)
(77.9594 -112.431 0)
(2.49739 -166.124 0)
(-94.8158 -159.425 0)
(-99.4048 -149.559 0)
(-114.948 -120.887 0)
(-121.161 -85.1397 0)
(-115.345 -49.8017 0)
(-109.397 -22.2648 0)
(-100.985 -1.35897 0)
(-93.0755 13.6435 0)
(-85.4221 24.1187 0)
(-78.0931 31.2903 0)
(-69.9715 36.661 0)
(-62.0939 40.6322 0)
(-54.445 43.7269 0)
(-47.4182 46.1128 0)
(-40.1484 47.8278 0)
(-32.5772 49.0851 0)
(-25.9657 49.8251 0)
(-19.38 50.0056 0)
(-12.7739 49.84 0)
(-6.80149 49.4272 0)
(-2.23512 49.0353 0)
(3.54745 48.1541 0)
(6.8015 47.7198 0)
(9.43672 45.6925 0)
(12.9402 43.0242 0)
(16.6146 39.1401 0)
(24.0874 33.7781 0)
(36.5906 27.1025 0)
(55.2177 20.1214 0)
(81.6629 15.2104 0)
(100.357 11.5979 0)
(168.71 8.12599 0)
(615.236 10.1905 0)
(5430.84 -27.6057 0)
(-5972.84 -561.097 0)
(4475.76 -407.878 0)
(-4073.3 -32.0089 0)
(226.577 -64.7165 0)
(37.2419 -95.3533 0)
(-14.8484 -139.779 0)
(-80.537 -124.4 0)
(-77.5508 -107.021 0)
(-85.201 -80.5395 0)
(-90.7884 -51.0167 0)
(-89.179 -22.6764 0)
(-88.5288 0.736411 0)
(-85.0972 18.5817 0)
(-82.6011 30.9667 0)
(-78.0904 40.2328 0)
(-72.4122 47.4498 0)
(-66.0213 52.7822 0)
(-59.1301 56.8899 0)
(-52.0934 60.2461 0)
(-45.5642 62.9529 0)
(-38.6799 64.8766 0)
(-31.4375 66.0769 0)
(-25.2424 66.4815 0)
(-19.0232 66.198 0)
(-12.6643 65.6114 0)
(-6.80195 64.8613 0)
(-2.4946 64.4017 0)
(3.24535 63.269 0)
(5.82867 62.3622 0)
(7.24605 59.9975 0)
(9.73638 57.1118 0)
(12.0225 52.8519 0)
(18.0091 47.1648 0)
(29.4898 39.7386 0)
(48.8614 31.9858 0)
(76.9434 26.3434 0)
(95.9281 23.095 0)
(166.543 18.9957 0)
(594.996 20.2949 0)
(5175.41 -34.5096 0)
(-5706.56 -602.685 0)
(4207.32 -434.592 0)
(-3844.7 -9.971 0)
(199.927 -40.8607 0)
(5.62639 -64.0112 0)
(-25.4927 -100.14 0)
(-63.2487 -83.4021 0)
(-57.1396 -62.8611 0)
(-60.9808 -38.6105 0)
(-65.4018 -11.9845 0)
(-65.474 9.89034 0)
(-69.6391 26.1828 0)
(-71.8544 39.9588 0)
(-72.2116 49.9614 0)
(-69.5383 58.46 0)
(-66.0001 64.2549 0)
(-60.8747 68.5312 0)
(-54.9014 71.6272 0)
(-48.6025 74.0485 0)
(-42.9561 76.0625 0)
(-37.138 77.7153 0)
(-31.0306 79.2028 0)
(-25.849 80.2655 0)
(-20.2185 80.6836 0)
(-14.062 80.6804 0)
(-7.96719 80.3441 0)
(-3.76948 80.3407 0)
(1.58204 79.4412 0)
(3.64893 78.6391 0)
(4.37729 76.7121 0)
(6.05446 74.3625 0)
(7.02932 70.9402 0)
(11.451 66.2985 0)
(21.9635 59.9307 0)
(42.3096 53.8569 0)
(73.0954 49.864 0)
(93.2768 50.0393 0)
(166.012 47.0659 0)
(563.677 47.7232 0)
(4830.51 -21.5383 0)
(-5358.82 -578.125 0)
(4047.36 -435.129 0)
(-3693.88 37.9188 0)
(174.502 8.69768 0)
(-19.8816 -9.38539 0)
(-33.5341 -32.4791 0)
(-44.6138 -16.0964 0)
(-34.388 3.42164 0)
(-36.1745 19.9174 0)
(-44.0512 39.0385 0)
(-52.3995 52.6999 0)
(-59.5537 62.6661 0)
(-62.1833 72.7582 0)
(-64.7727 80.269 0)
(-64.3167 86.913 0)
(-62.7072 91.3289 0)
(-58.917 94.755 0)
(-53.8134 97.4132 0)
(-47.8194 99.8069 0)
(-42.0307 102.064 0)
(-35.6537 103.883 0)
(-28.9801 105.105 0)
(-23.8155 105.523 0)
(-18.6233 105.334 0)
(-12.9914 105.006 0)
(-7.12929 104.358 0)
(-3.36474 104.171 0)
(1.60556 103.212 0)
(3.19888 102.509 0)
(3.12499 100.97 0)
(4.17435 98.8399 0)
(4.25173 96.4728 0)
(7.39999 93.247 0)
(17.5006 88.4915 0)
(39.1607 84.7409 0)
(73.2646 82.6821 0)
(93.2318 88.6737 0)
(164.311 91.839 0)
(528.886 98.0302 0)
(4572.32 2.79352 0)
(-5128.7 -505.257 0)
(3824.56 -211.9 0)
(-3417.02 107.644 0)
(154.343 68.0236 0)
(-34.053 48.5137 0)
(-31.9596 35.5407 0)
(-28.6535 46.0215 0)
(-22.4355 62.4568 0)
(-26.6591 70.6389 0)
(-33.8114 82.2902 0)
(-42.7056 90.3803 0)
(-50.3101 97.0553 0)
(-54.8916 104.828 0)
(-58.5716 110.381 0)
(-58.8806 116.901 0)
(-58.4432 121.648 0)
(-55.0117 126.054 0)
(-50.0332 129.287 0)
(-44.121 130.653 0)
(-39.0279 130.129 0)
(-34.207 129.311 0)
(-29.4505 130.966 0)
(-25.6285 134.459 0)
(-20.7173 136.612 0)
(-15.0031 136.121 0)
(-8.77156 133.302 0)
(-4.87317 130.883 0)
(-0.0189098 127.378 0)
(1.48811 124.89 0)
(0.841171 121.754 0)
(1.72096 119.103 0)
(1.6398 116.279 0)
(3.75997 113.792 0)
(13.7667 109.044 0)
(36.7114 105.359 0)
(76.8853 101.842 0)
(102.101 109.724 0)
(175.028 116.933 0)
(477.869 128.681 0)
(4249.16 38.4709 0)
(-4874.62 -221.788 0)
(3946.9 267.751 0)
(-3424.14 221.395 0)
(117.521 173.202 0)
(-51.1834 149.237 0)
(-35.9358 137.165 0)
(-18.6764 136.795 0)
(-10.6657 150.005 0)
(-17.0624 153.827 0)
(-25.0277 161.249 0)
(-38.1714 164.057 0)
(-45.6311 166.305 0)
(-49.3421 167.559 0)
(-53.1392 167.037 0)
(-53.4598 166.919 0)
(-53.8867 166.485 0)
(-51.5558 168.763 0)
(-49.3818 173.926 0)
(-47.0073 181.65 0)
(-43.3235 190.222 0)
(-34.8474 195.534 0)
(-24.0193 196.516 0)
(-18.3745 193.426 0)
(-17.0224 187.574 0)
(-16.1814 183.6 0)
(-12.1764 181.026 0)
(-9.07336 182.619 0)
(-4.16949 184.77 0)
(-2.22089 186.618 0)
(-2.45194 189.048 0)
(-1.10165 190.808 0)
(-0.866091 191.554 0)
(0.428935 192.988 0)
(9.37396 190.96 0)
(32.2201 189.528 0)
(77.4712 187.063 0)
(107.774 197.771 0)
(182.579 211.498 0)
(453.277 215.883 0)
(4234.6 110.431 0)
(-4952.05 71.0621 0)
(4295.92 10733 0)
(-3508.13 1290.48 0)
(84.8093 737.305 0)
(-68.779 690.767 0)
(-43.9486 733.444 0)
(-16.2808 763.433 0)
(-6.02304 798.319 0)
(-15.8234 810.799 0)
(-23.9534 819.437 0)
(-37.8335 815.725 0)
(-46.9356 815.079 0)
(-54.1864 803.318 0)
(-59.1882 790.452 0)
(-59.413 771.717 0)
(-56.666 751.425 0)
(-47.8413 729.858 0)
(-37.6148 708.519 0)
(-28.4171 686.69 0)
(-25.6493 680.468 0)
(-28.1417 673.893 0)
(-31.4816 675.079 0)
(-34.2458 686.027 0)
(-30.1861 688.023 0)
(-21.3131 709.993 0)
(-9.71685 716.831 0)
(-1.26556 732.644 0)
(3.83486 741.134 0)
(5.6111 747.652 0)
(4.87853 751.544 0)
(4.13573 749.708 0)
(3.74088 745.414 0)
(3.18769 734.273 0)
(10.4325 717.644 0)
(32.956 687.876 0)
(84.8286 657.705 0)
(125.647 612.698 0)
(192.481 599.344 0)
(380.477 519.669 0)
(4109.61 1013.04 0)
(-5049.52 9568.54 0)
(15533.2 168972 0)
(-13056.4 15282.6 0)
(-460.385 5899.4 0)
(-54.9031 5857.34 0)
(34.0885 5959 0)
(43.8393 6321.21 0)
(34.9777 6574.14 0)
(3.28743 6875.94 0)
(-20.2807 7089.57 0)
(-42.371 7255.94 0)
(-57.5876 7412.01 0)
(-73.0737 7515.18 0)
(-83.5904 7617.81 0)
(-91.0677 7689.12 0)
(-94.2239 7756.23 0)
(-92.9013 7798.2 0)
(-90.9801 7832.97 0)
(-74.0386 7843.94 0)
(-55.6549 7849.19 0)
(-40.0399 7831.21 0)
(-12.3267 7812.08 0)
(-5.90108 7772.67 0)
(6.07235 7747.78 0)
(11.5783 7586.68 0)
(9.65085 7447.04 0)
(14.3465 7254.2 0)
(10.2929 7068.81 0)
(7.81073 6827.72 0)
(-0.47092 6601.78 0)
(-7.00923 6323.67 0)
(-15.7395 6063.54 0)
(-26.3306 5728.9 0)
(-35.3365 5429.6 0)
(-25.5394 5020.36 0)
(5.02675 4701.04 0)
(51.5348 4304.66 0)
(92.9329 4244.99 0)
(851.933 4087.16 0)
(12954.4 12861.5 0)
(-15148.8 151518 0)
(181850 -187721 0)
(-160651 -17110.8 0)
(-8997.7 -7458.98 0)
(-11.3411 -7295.8 0)
(403.058 -7390.24 0)
(576.485 -7749.44 0)
(528.534 -8033.97 0)
(480.866 -8334.22 0)
(342.23 -8536.39 0)
(272.881 -8668.32 0)
(202.876 -8775.6 0)
(144.133 -8819.09 0)
(108.423 -8849.34 0)
(73.967 -8844.86 0)
(48.4439 -8831.6 0)
(26.1158 -8797.35 0)
(6.46393 -8762.29 0)
(-12.7949 -8709.64 0)
(-37.9124 -8672.18 0)
(-63.9036 -8612.55 0)
(-87.8944 -8564.32 0)
(-96.2016 -8508.54 0)
(-209.408 -8458.36 0)
(-311.116 -8297.53 0)
(-330.115 -8147.52 0)
(-365.74 -7964.98 0)
(-407.136 -7782.87 0)
(-444.439 -7553.16 0)
(-480.836 -7329.76 0)
(-514.53 -7053.69 0)
(-569.401 -6788.54 0)
(-607.7 -6446.47 0)
(-672.351 -6130.58 0)
(-669.114 -5712.08 0)
(-604.842 -5409.72 0)
(-313.823 -5089.63 0)
(-17.1047 -5137.53 0)
(8683.67 -5168.32 0)
(146179 -15033 0)
(-163452 -170307 0)
(181850 187721 0)
(-160651 17110.8 0)
(-8997.7 7458.98 0)
(-11.3411 7295.8 0)
(403.058 7390.24 0)
(576.485 7749.44 0)
(528.534 8033.97 0)
(480.866 8334.22 0)
(342.23 8536.39 0)
(272.881 8668.32 0)
(202.876 8775.6 0)
(144.133 8819.09 0)
(108.423 8849.34 0)
(73.967 8844.86 0)
(48.4439 8831.6 0)
(26.1158 8797.35 0)
(6.46393 8762.29 0)
(-12.7949 8709.64 0)
(-37.9124 8672.18 0)
(-63.9036 8612.55 0)
(-87.8944 8564.32 0)
(-96.2016 8508.54 0)
(-209.408 8458.36 0)
(-311.116 8297.53 0)
(-330.115 8147.52 0)
(-365.74 7964.98 0)
(-407.136 7782.87 0)
(-444.439 7553.16 0)
(-480.836 7329.76 0)
(-514.53 7053.69 0)
(-569.401 6788.54 0)
(-607.7 6446.47 0)
(-672.351 6130.58 0)
(-669.114 5712.08 0)
(-604.842 5409.72 0)
(-313.823 5089.63 0)
(-17.1047 5137.53 0)
(8683.67 5168.32 0)
(146179 15033 0)
(-163452 170307 0)
(15533.2 -168972 0)
(-13056.4 -15282.6 0)
(-460.385 -5899.4 0)
(-54.9031 -5857.34 0)
(34.0885 -5959 0)
(43.8393 -6321.21 0)
(34.9777 -6574.14 0)
(3.28743 -6875.94 0)
(-20.2807 -7089.57 0)
(-42.371 -7255.94 0)
(-57.5876 -7412.01 0)
(-73.0737 -7515.18 0)
(-83.5904 -7617.81 0)
(-91.0677 -7689.12 0)
(-94.2239 -7756.23 0)
(-92.9013 -7798.2 0)
(-90.9801 -7832.97 0)
(-74.0386 -7843.94 0)
(-55.6548 -7849.19 0)
(-40.0399 -7831.21 0)
(-12.3267 -7812.08 0)
(-5.90108 -7772.67 0)
(6.07234 -7747.78 0)
(11.5783 -7586.68 0)
(9.65085 -7447.04 0)
(14.3465 -7254.2 0)
(10.2929 -7068.81 0)
(7.81073 -6827.72 0)
(-0.47092 -6601.78 0)
(-7.00923 -6323.67 0)
(-15.7395 -6063.54 0)
(-26.3306 -5728.9 0)
(-35.3365 -5429.6 0)
(-25.5394 -5020.36 0)
(5.02675 -4701.04 0)
(51.5348 -4304.66 0)
(92.9329 -4244.99 0)
(851.933 -4087.16 0)
(12954.4 -12861.5 0)
(-15148.8 -151518 0)
(4295.92 -10733 0)
(-3508.13 -1290.48 0)
(84.8093 -737.305 0)
(-68.779 -690.767 0)
(-43.9486 -733.444 0)
(-16.2808 -763.433 0)
(-6.02304 -798.319 0)
(-15.8234 -810.799 0)
(-23.9534 -819.437 0)
(-37.8335 -815.725 0)
(-46.9356 -815.079 0)
(-54.1864 -803.318 0)
(-59.1882 -790.452 0)
(-59.413 -771.717 0)
(-56.666 -751.425 0)
(-47.8413 -729.858 0)
(-37.6148 -708.519 0)
(-28.4171 -686.69 0)
(-25.6493 -680.468 0)
(-28.1417 -673.893 0)
(-31.4816 -675.079 0)
(-34.2458 -686.027 0)
(-30.1861 -688.023 0)
(-21.3131 -709.993 0)
(-9.71685 -716.831 0)
(-1.26556 -732.644 0)
(3.83486 -741.134 0)
(5.6111 -747.652 0)
(4.87853 -751.544 0)
(4.13573 -749.708 0)
(3.74088 -745.414 0)
(3.18769 -734.273 0)
(10.4325 -717.644 0)
(32.956 -687.876 0)
(84.8286 -657.705 0)
(125.647 -612.698 0)
(192.481 -599.344 0)
(380.477 -519.669 0)
(4109.61 -1013.04 0)
(-5049.52 -9568.54 0)
(3946.9 -267.751 0)
(-3424.14 -221.395 0)
(117.521 -173.202 0)
(-51.1834 -149.237 0)
(-35.9358 -137.165 0)
(-18.6764 -136.795 0)
(-10.6657 -150.005 0)
(-17.0624 -153.827 0)
(-25.0277 -161.249 0)
(-38.1714 -164.057 0)
(-45.6311 -166.305 0)
(-49.3421 -167.559 0)
(-53.1392 -167.037 0)
(-53.4598 -166.919 0)
(-53.8867 -166.485 0)
(-51.5558 -168.763 0)
(-49.3818 -173.926 0)
(-47.0073 -181.65 0)
(-43.3235 -190.222 0)
(-34.8474 -195.534 0)
(-24.0193 -196.516 0)
(-18.3745 -193.426 0)
(-17.0224 -187.574 0)
(-16.1814 -183.6 0)
(-12.1764 -181.026 0)
(-9.07336 -182.619 0)
(-4.16949 -184.77 0)
(-2.22089 -186.618 0)
(-2.45194 -189.048 0)
(-1.10165 -190.808 0)
(-0.866091 -191.554 0)
(0.428935 -192.988 0)
(9.37396 -190.96 0)
(32.2201 -189.528 0)
(77.4712 -187.063 0)
(107.774 -197.771 0)
(182.579 -211.498 0)
(453.277 -215.883 0)
(4234.6 -110.431 0)
(-4952.05 -71.0621 0)
(3824.56 211.9 0)
(-3417.02 -107.644 0)
(154.343 -68.0236 0)
(-34.053 -48.5137 0)
(-31.9596 -35.5407 0)
(-28.6535 -46.0215 0)
(-22.4355 -62.4568 0)
(-26.6591 -70.6389 0)
(-33.8114 -82.2902 0)
(-42.7056 -90.3803 0)
(-50.3101 -97.0553 0)
(-54.8916 -104.828 0)
(-58.5716 -110.381 0)
(-58.8806 -116.901 0)
(-58.4432 -121.648 0)
(-55.0117 -126.054 0)
(-50.0332 -129.287 0)
(-44.121 -130.653 0)
(-39.0279 -130.129 0)
(-34.207 -129.311 0)
(-29.4505 -130.966 0)
(-25.6285 -134.459 0)
(-20.7173 -136.612 0)
(-15.0031 -136.121 0)
(-8.77156 -133.302 0)
(-4.87317 -130.883 0)
(-0.0189098 -127.378 0)
(1.48811 -124.89 0)
(0.841171 -121.754 0)
(1.72096 -119.103 0)
(1.6398 -116.279 0)
(3.75997 -113.792 0)
(13.7667 -109.044 0)
(36.7114 -105.359 0)
(76.8853 -101.842 0)
(102.101 -109.724 0)
(175.028 -116.933 0)
(477.869 -128.681 0)
(4249.16 -38.4709 0)
(-4874.62 221.788 0)
(4047.36 435.129 0)
(-3693.88 -37.9188 0)
(174.502 -8.69768 0)
(-19.8816 9.38539 0)
(-33.5341 32.4791 0)
(-44.6138 16.0964 0)
(-34.388 -3.42164 0)
(-36.1745 -19.9174 0)
(-44.0512 -39.0385 0)
(-52.3995 -52.6999 0)
(-59.5537 -62.6661 0)
(-62.1833 -72.7582 0)
(-64.7727 -80.269 0)
(-64.3167 -86.913 0)
(-62.7072 -91.3289 0)
(-58.917 -94.755 0)
(-53.8134 -97.4132 0)
(-47.8194 -99.8069 0)
(-42.0307 -102.064 0)
(-35.6537 -103.883 0)
(-28.9801 -105.105 0)
(-23.8155 -105.523 0)
(-18.6233 -105.334 0)
(-12.9914 -105.006 0)
(-7.12929 -104.358 0)
(-3.36474 -104.171 0)
(1.60556 -103.212 0)
(3.19888 -102.509 0)
(3.12499 -100.97 0)
(4.17435 -98.8399 0)
(4.25173 -96.4728 0)
(7.39999 -93.247 0)
(17.5006 -88.4915 0)
(39.1607 -84.7409 0)
(73.2646 -82.6821 0)
(93.2318 -88.6737 0)
(164.311 -91.839 0)
(528.886 -98.0302 0)
(4572.32 -2.79353 0)
(-5128.7 505.257 0)
(4207.32 434.592 0)
(-3844.7 9.971 0)
(199.927 40.8607 0)
(5.62639 64.0112 0)
(-25.4927 100.14 0)
(-63.2487 83.4021 0)
(-57.1396 62.8611 0)
(-60.9808 38.6105 0)
(-65.4018 11.9845 0)
(-65.474 -9.89034 0)
(-69.6391 -26.1828 0)
(-71.8544 -39.9588 0)
(-72.2116 -49.9614 0)
(-69.5383 -58.46 0)
(-66.0001 -64.2549 0)
(-60.8747 -68.5312 0)
(-54.9014 -71.6272 0)
(-48.6025 -74.0485 0)
(-42.9561 -76.0625 0)
(-37.138 -77.7153 0)
(-31.0306 -79.2028 0)
(-25.849 -80.2655 0)