/*--------------------------------*- C++ -*----------------------------------*\
| =========                 |                                                 |
| \\      /  F ield         | OpenFOAM: The Open Source CFD Toolbox           |
|  \\    /   O peration     | Version:  v1912                                 |
|   \\  /    A nd           | Website:  www.openfoam.com                      |
|    \\/     M anipulation  |                                                 |
\*---------------------------------------------------------------------------*/
FoamFile
{
    version     2.0;
    format      ascii;
    class       volTensorField;
    location    "8.46";
    object      grad(U);
}
// * * * * * * * * * * * * * * * * * * * * * * * * * * * * * * * * * * * * * //

dimensions      [0 0 -1 0 0 0 0];


internalField   nonuniform List<tensor> 
1900
(
(-0.242393 -1.65818e-06 0 2.05841e-05 1.42365e-05 0 0 0 0)
(1.41038 -1.38485e-05 0 -7.38937e-06 -2.37761e-05 0 0 0 0)
(-0.0441118 -8.32905e-05 0 -3.78001e-05 -3.15795e-05 0 0 0 0)
(-0.0296676 -0.000115206 0 -4.69519e-05 -0.000181778 0 0 0 0)
(-0.00780505 -0.000110984 0 -0.000123682 -0.000247499 0 0 0 0)
(-0.00212834 -0.000372388 0 -0.000404036 -0.000373308 0 0 0 0)
(-0.0149609 0.00180332 0 -0.00126327 -0.000676985 0 0 0 0)
(-0.0149995 0.0192999 0 -2.94435e-05 0.00331794 0 0 0 0)
(-0.0600955 0.0617993 0 0.0093422 0.0321426 0 0 0 0)
(-0.0304075 0.21635 0 0.0657767 0.123581 0 0 0 0)
(-0.24238 -7.88142e-06 0 2.422e-05 -3.44663e-06 0 0 0 0)
(1.41032 -3.19674e-05 0 -1.57571e-05 5.10482e-06 0 0 0 0)
(-0.0441514 -7.47115e-05 0 -5.63388e-05 1.04019e-05 0 0 0 0)
(-0.0297534 -0.000100714 0 -8.81503e-05 8.83954e-05 0 0 0 0)
(-0.00816214 -8.05461e-05 0 -0.000228992 0.000125608 0 0 0 0)
(-0.00326793 -5.70979e-05 0 -0.000626567 0.000199379 0 0 0 0)
(-0.0145863 0.00188792 0 -0.00157286 0.000497996 0 0 0 0)
(-0.00439404 0.0135197 0 0.00134058 -0.00160395 0 0 0 0)
(0.00571064 0.0584639 0 0.0156348 -0.0188019 0 0 0 0)
(0.0941758 0.150244 0 0.104496 -0.0634032 0 0 0 0)
(-0.242384 -2.23711e-13 0 5.09575e-14 -2.15797e-05 0 0 0 0)
(1.4103 1.32766e-13 0 1.50433e-14 3.73425e-05 0 0 0 0)
(-0.0441842 1.76773e-13 0 -9.55453e-14 4.23552e-05 0 0 0 0)
(-0.0298402 -4.1314e-14 0 -1.35119e-13 0.000186766 0 0 0 0)
(-0.00834347 -3.24603e-14 0 -1.86347e-13 0.000243783 0 0 0 0)
(-0.00347221 5.15132e-14 0 7.67073e-14 0.000347858 0 0 0 0)
(-0.0129937 1.23647e-14 0 -2.90024e-14 0.000357979 0 0 0 0)
(0.00220815 -4.42305e-14 0 -5.3668e-14 -0.00342799 0 0 0 0)
(0.0430601 -2.80293e-14 0 7.69784e-14 -0.0266814 0 0 0 0)
(0.146151 -2.16415e-14 0 9.92045e-14 -0.120356 0 0 0 0)
(-0.24238 7.88142e-06 0 -2.422e-05 -3.44663e-06 0 0 0 0)
(1.41032 3.19674e-05 0 1.57571e-05 5.10482e-06 0 0 0 0)
(-0.0441514 7.47115e-05 0 5.63388e-05 1.04019e-05 0 0 0 0)
(-0.0297534 0.000100714 0 8.81503e-05 8.83954e-05 0 0 0 0)
(-0.00816214 8.05461e-05 0 0.000228992 0.000125608 0 0 0 0)
(-0.00326793 5.70979e-05 0 0.000626567 0.000199379 0 0 0 0)
(-0.0145863 -0.00188792 0 0.00157286 0.000497996 0 0 0 0)
(-0.00439404 -0.0135197 0 -0.00134058 -0.00160395 0 0 0 0)
(0.00571064 -0.0584639 0 -0.0156348 -0.0188019 0 0 0 0)
(0.0941758 -0.150244 0 -0.104496 -0.0634032 0 0 0 0)
(-0.242393 1.65818e-06 0 -2.05841e-05 1.42365e-05 0 0 0 0)
(1.41038 1.38485e-05 0 7.38937e-06 -2.37761e-05 0 0 0 0)
(-0.0441118 8.32905e-05 0 3.78001e-05 -3.15795e-05 0 0 0 0)
(-0.0296676 0.000115206 0 4.69519e-05 -0.000181778 0 0 0 0)
(-0.00780505 0.000110984 0 0.000123682 -0.000247499 0 0 0 0)
(-0.00212834 0.000372388 0 0.000404036 -0.000373308 0 0 0 0)
(-0.0149609 -0.00180332 0 0.00126327 -0.000676985 0 0 0 0)
(-0.0149995 -0.0192999 0 2.94435e-05 0.00331794 0 0 0 0)
(-0.0600955 -0.0617993 0 -0.0093422 0.0321426 0 0 0 0)
(-0.0304075 -0.21635 0 -0.0657767 0.123581 0 0 0 0)
(0.178186 0.446666 -2.2924e-17 0.256974 -0.25258 3.4386e-17 6.12922e-17 7.91605e-17 -6.21355e-33)
(0.518352 0.599036 0 0.298453 -0.485718 0 -1.67647e-16 -4.99033e-17 0)
(0.80192 0.993186 0 0.28391 -0.817397 0 -2.69976e-16 -8.9031e-17 0)
(1.48651 1.60366 0 0.334435 -1.47756 0 0 0 0)
(2.78737 1.86985 2.73064e-16 1.14048 -3.56518 -4.09596e-16 -2.31746e-15 -1.54497e-15 -7.40142e-32)
(0.237891 0.164251 0 0.189012 -0.21664 0 1.07727e-16 3.35192e-17 0)
(0.415249 0.178232 0 0.145279 -0.35743 0 1.67647e-16 4.99033e-17 0)
(0.747636 0.4315 0 0.0453492 -0.656501 0 2.69976e-16 8.9031e-17 0)
(1.68915 0.871856 0 -0.0769174 -1.36431 0 0 0 0)
(3.70859 0.582354 0 -0.19342 -3.14159 0 0 0 0)
(0.291956 -1.45024e-13 0 8.71585e-14 -0.308705 0 0 0 0)
(0.436371 5.4277e-14 0 9.21334e-14 -0.389805 0 0 0 0)
(0.735361 5.47866e-14 0 3.15096e-13 -0.657798 0 0 0 0)
(1.58619 -1.37851e-13 0 1.76594e-13 -1.39717 0 0 0 0)
(3.45312 8.57711e-14 0 4.34004e-13 -3.68625 0 0 0 0)
(0.237891 -0.164251 0 -0.189012 -0.21664 0 1.07727e-16 -3.35192e-17 0)
(0.415249 -0.178232 0 -0.145279 -0.35743 0 1.67647e-16 -4.99033e-17 0)
(0.747636 -0.4315 0 -0.0453492 -0.656501 0 2.69976e-16 -8.9031e-17 0)
(1.68915 -0.871856 0 0.0769174 -1.36431 0 0 0 0)
(3.70859 -0.582354 0 0.19342 -3.14159 0 0 0 0)
(0.178186 -0.446666 2.2924e-17 -0.256974 -0.25258 3.4386e-17 -2.76747e-16 1.46199e-16 -6.21355e-33)
(0.518352 -0.599036 0 -0.298453 -0.485718 0 -1.67647e-16 4.99033e-17 0)
(0.80192 -0.993186 0 -0.28391 -0.817397 0 -2.69976e-16 8.9031e-17 0)
(1.48651 -1.60366 9.77984e-17 -0.334435 -1.47756 1.46698e-16 -9.59643e-16 6.39762e-16 -2.65083e-32)
(2.78737 -1.86985 -2.73064e-16 -1.14048 -3.56518 -4.09596e-16 2.31746e-15 -1.54497e-15 -7.40142e-32)
(4.23101 -0.78957 -1.90031e-17 -0.0125949 4.56608 -1.71028e-16 2.29537e-15 -1.17568e-16 5.15081e-33)
(2.33033 -0.318971 9.10252e-18 0.549504 2.79106 8.19227e-17 -2.57783e-15 2.00529e-16 2.46724e-33)
(1.36663 -0.00280414 0 0.74485 2.28306 0 0 0 0)
(1.03234 0.0844518 -5.27423e-18 0.668111 2.10155 -4.7468e-17 2.40468e-15 -2.01659e-16 1.42958e-33)
(0.659663 0.549288 4.71433e-18 0.546368 1.74094 4.2429e-17 -1.13997e-15 1.26664e-16 1.27782e-33)
(4.35674 -0.961323 0 -0.734423 -0.721962 0 -1.1475e-15 -9.97365e-18 0)
(2.62801 -0.206083 0 0.328198 1.00228 0 1.29719e-15 -5.82359e-17 0)
(1.45211 -0.0143607 0 0.461732 1.39294 0 0 0 0)
(0.995196 -0.0673242 0 0.368177 1.4113 0 -1.51827e-15 7.58536e-17 0)
(0.497654 0.256602 0 0.243205 1.39847 0 2.90938e-16 -8.02877e-18 0)
(4.36366 4.58515e-14 0 2.08079e-13 0.781591 0 0 0 0)
(2.60632 -1.76148e-14 0 1.48267e-13 1.86279 0 0 0 0)
(1.34539 -2.1019e-15 0 -1.60623e-13 1.99586 0 0 0 0)
(0.922402 1.93385e-14 0 5.66903e-14 1.77176 0 6.11745e-16 2.30335e-30 0)
(0.488909 -6.41326e-14 0 -8.24247e-14 2.13271 0 -5.81877e-16 -6.87424e-33 0)
(4.35674 0.961323 0 0.734423 -0.721962 0 -1.1475e-15 9.97365e-18 0)
(2.62801 0.206083 0 -0.328198 1.00228 0 1.29719e-15 5.82359e-17 0)
(1.45211 0.0143607 0 -0.461732 1.39294 0 0 0 0)
(0.995196 0.0673242 0 -0.368177 1.4113 0 -1.51827e-15 -7.58536e-17 0)
(0.497654 -0.256602 0 -0.243205 1.39847 0 2.90938e-16 8.02877e-18 0)
(4.23101 0.78957 0 0.0125949 4.56608 0 1.1475e-15 -9.97365e-18 0)
(2.33033 0.318971 -9.10252e-18 -0.549504 2.79106 8.19227e-17 -1.65493e-17 8.40575e-17 2.46724e-33)
(1.36663 0.00280414 0 -0.74485 2.28306 0 0 0 0)
(1.03234 -0.0844518 5.27423e-18 -0.668111 2.10155 -4.7468e-17 2.01213e-17 -6.32919e-17 1.42958e-33)
(0.659663 -0.549288 -4.71433e-18 -0.546368 1.74094 4.2429e-17 1.13997e-15 1.26664e-16 1.27782e-33)
(0.195863 0.641097 0 -0.550163 -0.489424 0 0 0 0)
(0.167054 0.100957 0 -0.989727 -0.216415 0 0 0 0)
(0.123614 -0.211884 0 -1.09445 0.0700306 0 0 0 0)
(0.0759164 -0.121128 0 -0.937676 0.0740675 0 0 0 0)
(0.0873119 -0.0438408 0 -0.832692 0.114148 0 0 0 0)
(0.107476 -0.0128919 0 -0.674695 0.0482338 0 0 0 0)
(0.127714 0.0269967 0 -0.510208 0.136886 0 0 0 0)
(0.166151 0.0427052 0 -0.385674 0.174173 0 0 0 0)
(0.259427 -0.015143 0 -0.234985 0.208909 0 0 0 0)
(0.135938 0.0162938 0 -0.113393 0.306477 0 0 0 0)
(-0.172455 0.0508298 0 -0.0788651 0.142056 0 0 0 0)
(-0.814404 0.0233625 0 -0.118056 0.0336153 0 0 0 0)
(-1.32606 -0.0139379 0 -0.272747 0.0362744 0 0 0 0)
(-0.726199 -0.0170509 0 0.0144144 0.0643442 0 0 0 0)
(-0.0888325 0.00353877 0 0.0580654 0.0654587 0 0 0 0)
(-0.0703315 -0.0512718 0 0.192971 0.141669 0 0 0 0)
(-0.191591 -0.122359 0 0.303227 0.294912 0 0 0 0)
(-0.401213 -0.136395 0 0.281153 0.487409 0 0 0 0)
(-0.549936 -0.0715954 0 0.138176 0.633946 0 0 0 0)
(-0.571239 0.00748112 0 -0.0224757 0.672602 0 0 0 0)
(-0.543297 0.058217 0 -0.0705568 0.628186 0 0 0 0)
(-0.512532 0.0676176 0 0.0200594 0.541654 0 0 0 0)
(-0.538267 0.0536602 0 0.0983048 0.444947 0 0 0 0)
(-0.765081 0.0531895 0 0.101285 0.337629 0 0 0 0)
(-1.26849 0.0548367 0 0.0949412 0.266831 0 0 0 0)
(-1.39322 0.0385942 0 0.0751383 0.189419 0 0 0 0)
(-0.709731 0.0153618 0 0.0195343 0.128193 0 0 0 0)
(-0.225711 0.0027432 0 0.00274469 0.117429 0 0 0 0)
(-0.785917 -0.000398595 0 0.00108071 0.116717 0 0 0 0)
(-1.26246 -0.001467 0 0.000952113 0.119508 0 0 0 0)
(-0.806367 -0.000426822 0 0.00357903 0.122251 0 0 0 0)
(-0.303122 0.000543091 0 0.00579382 0.121367 0 0 0 0)
(-0.158072 -4.98805e-05 0 0.00845155 0.121123 0 0 0 0)
(-0.130164 -0.00131152 0 0.0112232 0.121907 0 0 0 0)
(-0.107393 -0.00382108 0 0.0119888 0.124703 0 0 0 0)
(-0.0859744 -0.00792352 0 0.00724647 0.13039 0 0 0 0)
(-0.0781681 -0.0070983 0 -0.00885914 0.143706 0 0 0 0)
(-0.069408 -2.15573e-05 0 -0.0322322 0.148979 0 0 0 0)
(-0.059566 0.0105915 0 -0.0466717 0.145859 0 0 0 0)
(-0.0288698 0.008707 0 -0.0495428 0.118484 0 0 0 0)
(-0.0633503 0.487684 0 -0.00305279 0.165501 0 0 0 0)
(-0.033401 0.176615 0 -0.450753 -0.622564 0 0 0 0)
(0.108479 -0.0915057 0 -0.92212 -0.18154 0 0 0 0)
(0.135447 -0.161304 0 -0.646389 0.105787 0 0 0 0)
(0.128702 -0.123362 0 -0.625104 0.234839 0 0 0 0)
(0.156046 -0.0797058 0 -0.489388 0.25649 0 0 0 0)
(0.165037 -0.0058099 0 -0.365692 0.279154 0 0 0 0)
(0.201246 0.0232205 0 -0.305177 0.163689 0 0 0 0)
(0.290186 -0.00758647 0 -0.206543 0.132355 0 0 0 0)
(0.157563 0.0232207 0 -0.176624 0.215743 0 0 0 0)
(-0.166419 0.0426573 0 -0.119505 0.0763452 0 0 0 0)
(-0.857045 0.0395816 0 -0.150234 0.0410152 0 0 0 0)
(-1.29586 0.0208739 0 -0.328151 -0.00396354 0 0 0 0)
(-0.654262 -0.00319672 0 -0.00223545 0.0889267 0 0 0 0)
(-0.0573645 0.0132739 0 0.0316356 0.054649 0 0 0 0)
(-0.00571347 -0.0145694 0 0.150361 0.0767622 0 0 0 0)
(-0.15327 -0.0622574 0 0.281389 0.230896 0 0 0 0)
(-0.431452 -0.0696249 0 0.244063 0.49737 0 0 0 0)
(-0.608666 -0.0303436 0 0.121824 0.699752 0 0 0 0)
(-0.603388 0.012554 0 0.051264 0.743479 0 0 0 0)
(-0.520093 0.0324365 0 0.136701 0.674036 0 0 0 0)
(-0.476596 0.0262828 0 0.2309 0.543358 0 0 0 0)
(-0.539489 0.0127308 0 0.263452 0.441601 0 0 0 0)
(-0.787029 0.0240058 0 0.205311 0.358901 0 0 0 0)
(-1.28913 0.0384473 0 0.0754176 0.258761 0 0 0 0)
(-1.41261 0.0237365 0 0.0128688 0.1704 0 0 0 0)
(-0.721545 0.00598425 0 0.00305919 0.126094 0 0 0 0)
(-0.227831 0.000892381 0 0.00130273 0.117594 0 0 0 0)
(-0.785742 -0.000194467 0 0.000964788 0.116664 0 0 0 0)
(-1.26162 -0.000691227 0 0.00101556 0.118964 0 0 0 0)
(-0.805058 -0.000156375 0 0.00339358 0.121707 0 0 0 0)
(-0.301537 0.00028052 0 0.00728486 0.120431 0 0 0 0)
(-0.156316 -8.91782e-05 0 0.0122662 0.11984 0 0 0 0)
(-0.128922 -0.000757488 0 0.0174094 0.120602 0 0 0 0)
(-0.107936 -0.00206304 0 0.0206138 0.124349 0 0 0 0)
(-0.090097 -0.00408854 0 0.0194804 0.133737 0 0 0 0)
(-0.0855642 -0.00357825 0 0.0101509 0.151586 0 0 0 0)
(-0.075735 4.92474e-05 0 -0.00391598 0.158138 0 0 0 0)
(-0.0618405 0.00540684 0 -0.012678 0.15166 0 0 0 0)
(-0.0289932 0.00440642 0 -0.0158629 0.121729 0 0 0 0)
(-0.0172723 -6.38689e-15 0 -1.97128e-13 0.265912 0 0 0 0)
(-0.100311 -1.17921e-13 0 -8.75247e-13 -0.944383 0 0 0 0)
(0.0667013 -2.48738e-13 0 -1.08026e-12 -0.948315 0 0 0 0)
(0.162321 -8.45168e-14 0 -5.83498e-13 -0.315281 0 0 0 0)
(0.132985 7.19582e-14 0 -4.96762e-13 0.160652 0 0 0 0)
(0.182941 1.05742e-13 0 -4.10026e-13 0.532835 0 0 0 0)
(0.181302 -2.34362e-14 0 -4.17911e-13 0.708629 0 0 0 0)
(0.212449 -2.82418e-14 0 -3.15404e-13 0.572778 0 0 0 0)
(0.296824 1.18101e-13 0 4.73106e-14 0.548989 0 0 0 0)
(0.161258 1.55844e-13 0 8.67362e-14 0.624935 0 0 0 0)
(-0.164778 2.78852e-13 0 3.3906e-13 0.389346 0 0 0 0)
(-0.875101 3.83615e-13 0 4.57336e-13 0.331666 0 0 0 0)
(-1.283 -2.4969e-13 0 1.2419e-12 0.117223 0 0 0 0)
(-0.621534 -6.10923e-13 0 6.66292e-13 0.188158 0 0 0 0)
(-0.0444407 -6.67513e-13 0 -4.73106e-13 0.1392 0 0 0 0)
(0.00232395 -1.63722e-12 0 -1.65981e-12 0.0968995 0 0 0 0)
(-0.164332 -2.24918e-12 0 -4.05294e-12 0.239365 0 0 0 0)
(-0.447632 -5.53622e-14 0 -1.4548e-12 0.524919 0 0 0 0)
(-0.606023 5.13498e-12 0 1.75444e-12 0.718036 0 0 0 0)
(-0.566911 6.7007e-12 0 -1.77415e-13 0.733531 0 0 0 0)
(-0.491039 4.34223e-13 0 3.46945e-13 0.631727 0 0 0 0)
(-0.475659 -5.32129e-12 0 1.9082e-12 0.51053 0 0 0 0)
(-0.545711 -2.41902e-12 0 8.98902e-13 0.451033 0 0 0 0)
(-0.819782 2.68426e-12 0 -3.23289e-13 0.423006 0 0 0 0)
(-1.32448 2.22159e-12 0 -4.3171e-13 0.285993 0 0 0 0)
(-1.41427 -2.42559e-12 0 8.48832e-12 0.158681 0 0 0 0)
(-0.713095 -4.22358e-12 0 1.43775e-11 0.122804 0 0 0 0)
(-0.22632 -3.58662e-12 0 2.53999e-12 0.117539 0 0 0 0)
(-0.786 -3.14569e-12 0 -1.9728e-11 0.116669 0 0 0 0)
(-1.26175 1.20814e-12 0 -6.32955e-11 0.118876 0 0 0 0)
(-0.804543 5.12876e-12 0 -6.48304e-11 0.121421 0 0 0 0)
(-0.300541 5.13342e-12 0 -3.69378e-11 0.119952 0 0 0 0)
(-0.155127 1.98062e-12 0 -1.28182e-11 0.119493 0 0 0 0)
(-0.127735 -1.0852e-12 0 -1.13743e-12 0.120565 0 0 0 0)
(-0.10679 -4.60059e-13 0 2.54689e-12 0.1247 0 0 0 0)
(-0.0890181 -9.10437e-13 0 5.60533e-12 0.134748 0 0 0 0)
(-0.0849743 -3.04641e-12 0 8.09702e-12 0.152809 0 0 0 0)
(-0.0760491 -1.20102e-12 0 5.66545e-12 0.159348 0 0 0 0)
(-0.0630415 1.43443e-12 0 1.71895e-12 0.152471 0 0 0 0)
(-0.0297964 7.94145e-13 0 6.70234e-14 0.122176 0 0 0 0)
(-0.0633503 -0.487684 0 0.00305279 0.165501 0 0 0 0)
(-0.033401 -0.176615 0 0.450753 -0.622564 0 0 0 0)
(0.108479 0.0915057 0 0.92212 -0.18154 0 0 0 0)
(0.135447 0.161304 0 0.646389 0.105787 0 0 0 0)
(0.128702 0.123362 0 0.625104 0.234839 0 0 0 0)
(0.156046 0.0797058 0 0.489388 0.25649 0 0 0 0)
(0.165037 0.0058099 0 0.365692 0.279154 0 0 0 0)
(0.201246 -0.0232205 0 0.305177 0.163689 0 0 0 0)
(0.290186 0.00758647 0 0.206543 0.132355 0 0 0 0)
(0.157563 -0.0232207 0 0.176624 0.215743 0 0 0 0)
(-0.166419 -0.0426573 0 0.119505 0.0763452 0 0 0 0)
(-0.857045 -0.0395816 0 0.150234 0.0410152 0 0 0 0)
(-1.29586 -0.0208739 0 0.328151 -0.00396354 0 0 0 0)
(-0.654262 0.00319672 0 0.00223545 0.0889267 0 0 0 0)
(-0.0573645 -0.0132739 0 -0.0316356 0.054649 0 0 0 0)
(-0.00571347 0.0145694 0 -0.150361 0.0767622 0 0 0 0)
(-0.15327 0.0622574 0 -0.281389 0.230896 0 0 0 0)
(-0.431452 0.0696249 0 -0.244063 0.49737 0 0 0 0)
(-0.608666 0.0303436 0 -0.121824 0.699752 0 0 0 0)
(-0.603388 -0.012554 0 -0.051264 0.743479 0 0 0 0)
(-0.520093 -0.0324365 0 -0.136701 0.674036 0 0 0 0)
(-0.476596 -0.0262828 0 -0.2309 0.543358 0 0 0 0)
(-0.539489 -0.0127308 0 -0.263452 0.441601 0 0 0 0)
(-0.787029 -0.0240058 0 -0.205311 0.358901 0 0 0 0)
(-1.28913 -0.0384473 0 -0.0754176 0.258761 0 0 0 0)
(-1.41261 -0.0237365 0 -0.0128688 0.1704 0 0 0 0)
(-0.721545 -0.00598425 0 -0.00305919 0.126094 0 0 0 0)
(-0.227831 -0.000892381 0 -0.00130273 0.117594 0 0 0 0)
(-0.785742 0.000194467 0 -0.000964788 0.116664 0 0 0 0)
(-1.26162 0.000691227 0 -0.00101556 0.118964 0 0 0 0)
(-0.805058 0.000156375 0 -0.00339358 0.121707 0 0 0 0)
(-0.301537 -0.00028052 0 -0.00728486 0.120431 0 0 0 0)
(-0.156316 8.91782e-05 0 -0.0122662 0.11984 0 0 0 0)
(-0.128922 0.000757488 0 -0.0174094 0.120602 0 0 0 0)
(-0.107936 0.00206304 0 -0.0206138 0.124349 0 0 0 0)
(-0.090097 0.00408854 0 -0.0194804 0.133737 0 0 0 0)
(-0.0855642 0.00357825 0 -0.0101509 0.151586 0 0 0 0)
(-0.075735 -4.92474e-05 0 0.00391598 0.158138 0 0 0 0)
(-0.0618405 -0.00540684 0 0.012678 0.15166 0 0 0 0)
(-0.0289932 -0.00440642 0 0.0158629 0.121729 0 0 0 0)
(0.195863 -0.641097 0 0.550163 -0.489424 0 0 0 0)
(0.167054 -0.100957 0 0.989727 -0.216415 0 0 0 0)
(0.123614 0.211884 0 1.09445 0.0700306 0 0 0 0)
(0.0759164 0.121128 0 0.937676 0.0740675 0 0 0 0)
(0.0873119 0.0438408 0 0.832692 0.114148 0 0 0 0)
(0.107476 0.0128919 0 0.674695 0.0482338 0 0 0 0)
(0.127714 -0.0269967 0 0.510208 0.136886 0 0 0 0)
(0.166151 -0.0427052 0 0.385674 0.174173 0 0 0 0)
(0.259427 0.015143 0 0.234985 0.208909 0 0 0 0)
(0.135938 -0.0162938 0 0.113393 0.306477 0 0 0 0)
(-0.172455 -0.0508298 0 0.0788651 0.142056 0 0 0 0)
(-0.814404 -0.0233625 0 0.118056 0.0336153 0 0 0 0)
(-1.32606 0.0139379 0 0.272747 0.0362744 0 0 0 0)
(-0.726199 0.0170509 0 -0.0144144 0.0643442 0 0 0 0)
(-0.0888325 -0.00353877 0 -0.0580654 0.0654587 0 0 0 0)
(-0.0703315 0.0512718 0 -0.192971 0.141669 0 0 0 0)
(-0.191591 0.122359 0 -0.303227 0.294912 0 0 0 0)
(-0.401213 0.136395 0 -0.281153 0.487409 0 0 0 0)
(-0.549936 0.0715954 0 -0.138176 0.633946 0 0 0 0)
(-0.571239 -0.00748112 0 0.0224757 0.672602 0 0 0 0)
(-0.543297 -0.058217 0 0.0705568 0.628186 0 0 0 0)
(-0.512532 -0.0676176 0 -0.0200594 0.541654 0 0 0 0)
(-0.538267 -0.0536602 0 -0.0983048 0.444947 0 0 0 0)
(-0.765081 -0.0531895 0 -0.101285 0.337629 0 0 0 0)
(-1.26849 -0.0548367 0 -0.0949412 0.266831 0 0 0 0)
(-1.39322 -0.0385942 0 -0.0751383 0.189419 0 0 0 0)
(-0.709731 -0.0153618 0 -0.0195343 0.128193 0 0 0 0)
(-0.225711 -0.0027432 0 -0.00274469 0.117429 0 0 0 0)
(-0.785917 0.000398595 0 -0.00108071 0.116717 0 0 0 0)
(-1.26246 0.001467 0 -0.000952113 0.119508 0 0 0 0)
(-0.806367 0.000426822 0 -0.00357903 0.122251 0 0 0 0)
(-0.303122 -0.000543091 0 -0.00579382 0.121367 0 0 0 0)
(-0.158072 4.98805e-05 0 -0.00845155 0.121123 0 0 0 0)
(-0.130164 0.00131152 0 -0.0112232 0.121907 0 0 0 0)
(-0.107393 0.00382108 0 -0.0119888 0.124703 0 0 0 0)
(-0.0859744 0.00792352 0 -0.00724647 0.13039 0 0 0 0)
(-0.0781681 0.0070983 0 0.00885914 0.143706 0 0 0 0)
(-0.069408 2.15573e-05 0 0.0322322 0.148979 0 0 0 0)
(-0.059566 -0.0105915 0 0.0466717 0.145859 0 0 0 0)
(-0.0288698 -0.008707 0 0.0495428 0.118484 0 0 0 0)
(0.0466684 0.0567344 0 0.883076 -0.100255 0 0 0 0)
(0.0762405 0.0868363 0 0.805767 0.258288 0 0 0 0)
(0.0583296 0.13453 0 0.700431 0.0722068 0 0 0 0)
(0.0400848 0.235432 0 0.664035 0.0164636 0 0 0 0)
(0.0115981 0.199104 0 0.59222 -0.00699593 0 0 0 0)
(0.00991929 0.171223 0 0.504413 0.0870436 0 0 0 0)
(0.0268969 0.122741 0 0.384558 0.177915 0 0 0 0)
(0.0691858 0.0444865 0 0.266059 0.203301 0 0 0 0)
(0.154955 0.08184 0 0.155067 0.293546 0 0 0 0)
(0.0846378 -0.0731647 0 0.00902724 0.389286 0 0 0 0)
(-0.156515 -0.204367 0 -0.0254128 0.258582 0 0 0 0)
(-0.784731 -0.124689 0 -0.0149521 0.12667 0 0 0 0)
(-1.34404 -0.0418498 0 -0.0420658 0.12683 0 0 0 0)
(-0.778594 0.00548431 0 0.00598944 0.122714 0 0 0 0)
(-0.132983 0.0239734 0 -0.0723759 0.166997 0 0 0 0)
(-0.0847823 0.116062 0 -0.143361 0.211891 0 0 0 0)
(-0.164275 0.209639 0 -0.138912 0.339168 0 0 0 0)
(-0.362883 0.205089 0 -0.137693 0.503504 0 0 0 0)
(-0.486114 0.098813 0 -0.12636 0.605407 0 0 0 0)
(-0.509628 -0.0220328 0 -0.0795515 0.616906 0 0 0 0)
(-0.519944 -0.0847677 0 -0.0376467 0.569517 0 0 0 0)
(-0.540969 -0.0934305 0 -0.0193534 0.51271 0 0 0 0)
(-0.591853 -0.0933856 0 -0.0329916 0.437895 0 0 0 0)
(-0.810296 -0.101989 0 -0.063432 0.36058 0 0 0 0)
(-1.29659 -0.112465 0 -0.106353 0.28258 0 0 0 0)
(-1.38773 -0.093521 0 -0.113145 0.183203 0 0 0 0)
(-0.689794 -0.040299 0 -0.0312936 0.124854 0 0 0 0)
(-0.218708 -0.00595134 0 -0.00261084 0.116925 0 0 0 0)
(-0.784416 0.00126279 0 0.00147822 0.116498 0 0 0 0)
(-1.26222 0.00326564 0 0.00445481 0.119501 0 0 0 0)
(-0.806583 0.00100982 0 0.00271625 0.122029 0 0 0 0)
(-0.302761 -0.000684521 0 0.00276503 0.121383 0 0 0 0)
(-0.157692 0.000473434 0 0.00351402 0.121515 0 0 0 0)
(-0.129706 0.00236267 0 0.00448043 0.122353 0 0 0 0)
(-0.10607 0.00535099 0 0.00588402 0.124286 0 0 0 0)
(-0.0817865 0.0115743 0 0.00842923 0.126936 0 0 0 0)
(-0.0693521 0.0111685 0 0.0152358 0.13432 0 0 0 0)
(-0.0593318 0.0012196 0 0.0273358 0.138143 0 0 0 0)
(-0.0536118 -0.0185408 0 0.0371094 0.141124 0 0 0 0)
(-0.0273348 -0.0166058 0 0.0386549 0.119539 0 0 0 0)
(0.0213507 -0.0371073 0 0.354353 0.695746 0 0 0 0)
(0.0397469 -0.035468 0 0.285876 0.657623 0 0 0 0)
(0.0220431 0.0203328 0 0.243253 0.670216 0 0 0 0)
(-0.00914555 -0.0164875 0 0.208076 0.58283 0 0 0 0)
(-0.0259049 0.028597 0 0.196679 0.395735 0 0 0 0)
(-0.0403229 0.106177 0 0.186012 0.359591 0 0 0 0)
(-0.0479123 0.00473896 0 0.164437 0.251434 0 0 0 0)
(-0.00299892 0.0219666 0 0.140615 0.156879 0 0 0 0)
(0.0677635 0.1586 0 0.089135 0.22164 0 0 0 0)
(-0.0104708 -0.0194907 0 -0.0124263 0.211065 0 0 0 0)
(-0.204111 -0.221565 0 -0.0878554 0.142132 0 0 0 0)
(-0.846362 -0.0959895 0 -0.138563 0.102939 0 0 0 0)
(-1.29623 0.0400407 0 -0.246143 0.208932 0 0 0 0)
(-0.727311 0.0619606 0 0.00963276 0.217398 0 0 0 0)
(-0.209077 0.0676427 0 -0.0578322 0.22595 0 0 0 0)
(-0.126699 0.182439 0 -0.115313 0.225407 0 0 0 0)
(-0.200777 0.356565 0 -0.222755 0.362567 0 0 0 0)
(-0.409671 0.356116 0 -0.33828 0.555292 0 0 0 0)
(-0.528132 0.166278 0 -0.401741 0.638081 0 0 0 0)
(-0.518789 -0.0342629 0 -0.381211 0.61903 0 0 0 0)
(-0.49781 -0.144387 0 -0.321747 0.559648 0 0 0 0)
(-0.492797 -0.180612 0 -0.255615 0.477183 0 0 0 0)
(-0.552008 -0.178956 0 -0.202327 0.391728 0 0 0 0)
(-0.81153 -0.176689 0 -0.188741 0.319514 0 0 0 0)
(-1.30133 -0.194862 0 -0.2156 0.239154 0 0 0 0)
(-1.32383 -0.161131 0 -0.191483 0.153586 0 0 0 0)
(-0.613907 -0.0658577 0 -0.0455084 0.119409 0 0 0 0)
(-0.197886 -0.00907521 0 -0.00339711 0.115496 0 0 0 0)
(-0.779912 0.00241718 0 0.00297304 0.115027 0 0 0 0)
(-1.26139 0.00583287 0 0.00874506 0.117363 0 0 0 0)
(-0.807879 0.00192796 0 0.00659683 0.119931 0 0 0 0)
(-0.302547 -0.000963095 0 0.00640133 0.11958 0 0 0 0)
(-0.156623 0.000758185 0 0.00744304 0.119926 0 0 0 0)
(-0.128125 0.00341836 0 0.00884424 0.12086 0 0 0 0)
(-0.104297 0.00741622 0 0.0100758 0.122941 0 0 0 0)
(-0.0792084 0.015635 0 0.0104857 0.125384 0 0 0 0)
(-0.0646764 0.0157161 0 0.0120362 0.13019 0 0 0 0)
(-0.0537329 0.00593543 0 0.0153204 0.13121 0 0 0 0)
(-0.0518514 -0.0242566 0 0.0209398 0.138206 0 0 0 0)
(-0.0282037 -0.0252713 0 0.0205115 0.123019 0 0 0 0)
(-0.019319 0.0199972 0 -0.0453051 0.57028 0 0 0 0)
(-0.0308194 0.0622349 0 -0.0682779 0.557183 0 0 0 0)
(-0.0166411 0.0624572 0 -0.105184 0.574856 0 0 0 0)
(-0.00479565 -0.0290689 0 -0.121997 0.565715 0 0 0 0)
(-0.00966357 -0.0160167 0 -0.107988 0.563398 0 0 0 0)
(-0.0211506 0.032169 0 -0.105717 0.530542 0 0 0 0)
(-0.0168499 -0.0726 0 -0.0751759 0.460863 0 0 0 0)
(-0.00337804 0.015776 0 -0.0204345 0.408113 0 0 0 0)
(0.0074798 0.134056 0 -0.0145665 0.442703 0 0 0 0)
(-0.0859166 -0.149781 0 -0.214551 0.348066 0 0 0 0)
(-0.278065 -0.308561 0 -0.285785 0.324447 0 0 0 0)
(-0.937263 -0.0603181 0 -0.420238 0.326863 0 0 0 0)
(-1.20124 0.0684475 0 -0.361284 0.283594 0 0 0 0)
(-0.597131 0.021883 0 -0.0609915 0.263423 0 0 0 0)
(-0.253386 0.0316911 0 -0.0963619 0.264643 0 0 0 0)
(-0.243708 0.247711 0 -0.210379 0.328049 0 0 0 0)
(-0.379133 0.527527 0 -0.395411 0.528565 0 0 0 0)
(-0.535361 0.470585 0 -0.560634 0.654937 0 0 0 0)
(-0.527484 0.160234 0 -0.573244 0.616204 0 0 0 0)
(-0.432543 -0.0976144 0 -0.48531 0.536224 0 0 0 0)
(-0.398915 -0.221456 0 -0.385341 0.467055 0 0 0 0)
(-0.425891 -0.255243 0 -0.301756 0.400754 0 0 0 0)
(-0.527411 -0.245322 0 -0.259032 0.34074 0 0 0 0)
(-0.823087 -0.249015 0 -0.256508 0.27483 0 0 0 0)
(-1.29924 -0.272359 0 -0.29638 0.19183 0 0 0 0)
(-1.22383 -0.208912 0 -0.239793 0.123769 0 0 0 0)
(-0.508547 -0.0770038 0 -0.0496869 0.113812 0 0 0 0)
(-0.171989 -0.0101739 0 -0.00468927 0.113285 0 0 0 0)
(-0.772716 0.00306133 0 0.0027938 0.112972 0 0 0 0)
(-1.25873 0.0079913 0 0.00962522 0.115176 0 0 0 0)
(-0.808842 0.00314663 0 0.00585117 0.118558 0 0 0 0)
(-0.301945 -0.000689661 0 0.00424023 0.119441 0 0 0 0)
(-0.155338 0.00170709 0 0.00444216 0.120492 0 0 0 0)
(-0.127169 0.00526872 0 0.0050815 0.122327 0 0 0 0)
(-0.104488 0.00970988 0 0.00549189 0.12533 0 0 0 0)
(-0.0798974 0.0185594 0 0.00493316 0.127181 0 0 0 0)
(-0.0646933 0.0167831 0 0.00502703 0.129943 0 0 0 0)
(-0.050752 0.00894395 0 0.0045899 0.126329 0 0 0 0)
(-0.0486095 -0.0264344 0 0.010337 0.133669 0 0 0 0)
(-0.0277475 -0.0312408 0 0.0122604 0.123891 0 0 0 0)
(-0.000786658 -0.0497275 0 -0.315253 0.487487 0 0 0 0)
(-0.0179548 -0.0310582 0 -0.286098 0.448139 0 0 0 0)
(-0.0297225 0.0285543 0 -0.271176 0.428356 0 0 0 0)
(-0.0118473 -0.0275291 0 -0.258978 0.410633 0 0 0 0)
(-0.0102167 -0.00529638 0 -0.24602 0.439962 0 0 0 0)
(-0.00870409 0.00737059 0 -0.230649 0.430399 0 0 0 0)
(0.0342688 -0.113238 0 -0.190581 0.392697 0 0 0 0)
(0.0554065 0.00446731 0 -0.0964843 0.440016 0 0 0 0)
(-0.119294 0.100737 0 -0.219818 0.356331 0 0 0 0)
(-0.271827 -0.133447 0 -0.35599 0.177829 0 0 0 0)
(-0.402318 -0.241997 0 -0.418899 0.30137 0 0 0 0)
(-0.919115 -0.135357 0 -0.605508 0.342354 0 0 0 0)
(-0.950046 -0.0210927 0 -0.311261 0.255839 0 0 0 0)
(-0.472022 0.0436992 0 -0.0810815 0.297207 0 0 0 0)
(-0.353032 0.129919 0 -0.181753 0.342916 0 0 0 0)
(-0.414874 0.436764 0 -0.359382 0.527973 0 0 0 0)
(-0.538296 0.671566 0 -0.568901 0.73965 0 0 0 0)
(-0.581037 0.440568 0 -0.672784 0.682828 0 0 0 0)
(-0.455547 0.051883 0 -0.588862 0.524256 0 0 0 0)
(-0.337719 -0.177988 0 -0.480647 0.424047 0 0 0 0)
(-0.320931 -0.274931 0 -0.399668 0.364767 0 0 0 0)
(-0.371081 -0.302334 0 -0.33832 0.320164 0 0 0 0)
(-0.508405 -0.300301 0 -0.306166 0.276196 0 0 0 0)
(-0.84752 -0.320184 0 -0.318894 0.217823 0 0 0 0)
(-1.28522 -0.34043 0 -0.371029 0.141302 0 0 0 0)
(-1.08611 -0.236312 0 -0.257877 0.100704 0 0 0 0)
(-0.387352 -0.0759596 0 -0.0446142 0.111793 0 0 0 0)
(-0.147314 -0.00988461 0 -0.00476948 0.113291 0 0 0 0)
(-0.766118 0.00423942 0 0.00397421 0.112998 0 0 0 0)
(-1.25845 0.011215 0 0.0144873 0.115307 0 0 0 0)
(-0.813068 0.00603758 0 0.0119614 0.118998 0 0 0 0)
(-0.303905 0.000900944 0 0.0105271 0.121255 0 0 0 0)
(-0.155812 0.00353885 0 0.0111446 0.123659 0 0 0 0)
(-0.127114 0.00808041 0 0.012214 0.125764 0 0 0 0)
(-0.10444 0.0120937 0 0.0137261 0.12892 0 0 0 0)
(-0.0796563 0.0200807 0 0.014852 0.129047 0 0 0 0)
(-0.0650072 0.0148952 0 0.0167745 0.130176 0 0 0 0)
(-0.048616 0.00952516 0 0.0149489 0.123344 0 0 0 0)
(-0.0444598 -0.0266062 0 0.0190175 0.128488 0 0 0 0)
(-0.0263503 -0.0346938 0 0.0209312 0.122834 0 0 0 0)
(0.00877594 -0.0179202 0 -0.425405 0.373658 0 0 0 0)
(0.0116544 0.00525401 0 -0.420691 0.413946 0 0 0 0)
(0.00949241 0.0263154 0 -0.398746 0.415579 0 0 0 0)
(0.0194458 -0.017885 0 -0.370347 0.40332 0 0 0 0)
(0.017635 0.00303062 0 -0.355482 0.442791 0 0 0 0)
(0.0322723 -0.0133769 0 -0.334678 0.414529 0 0 0 0)
(0.112436 -0.0633328 0 -0.305691 0.376869 0 0 0 0)
(-0.0315515 -0.0192677 0 -0.277358 0.46544 0 0 0 0)
(-0.242589 -0.118598 0 -0.40336 0.337675 0 0 0 0)
(-0.277759 -0.202744 0 -0.466348 0.18345 0 0 0 0)
(-0.518509 -0.150018 0 -0.459162 0.226698 0 0 0 0)
(-0.833539 -0.104194 0 -0.543155 0.283867 0 0 0 0)
(-0.695882 0.0249422 0 -0.25546 0.343606 0 0 0 0)
(-0.472333 0.105794 0 -0.202478 0.415561 0 0 0 0)
(-0.521567 0.254065 0 -0.369014 0.493287 0 0 0 0)
(-0.616778 0.630018 0 -0.565251 0.807893 0 0 0 0)
(-0.681139 0.676751 0 -0.737462 0.863125 0 0 0 0)
(-0.554596 0.263024 0 -0.699692 0.605528 0 0 0 0)
(-0.342333 -0.0891366 0 -0.558244 0.41984 0 0 0 0)
(-0.250229 -0.251304 0 -0.461821 0.329857 0 0 0 0)
(-0.261763 -0.321562 0 -0.399231 0.274935 0 0 0 0)
(-0.335788 -0.340593 0 -0.35984 0.239453 0 0 0 0)
(-0.508692 -0.343941 0 -0.346949 0.207757 0 0 0 0)
(-0.885591 -0.379004 0 -0.382287 0.156468 0 0 0 0)
(-1.24044 -0.38522 0 -0.430588 0.0932236 0 0 0 0)
(-0.90928 -0.237348 0 -0.241621 0.0923011 0 0 0 0)
(-0.264644 -0.0648744 0 -0.0357027 0.116085 0 0 0 0)
(-0.125168 -0.00901186 0 -0.00629951 0.118032 0 0 0 0)
(-0.754159 0.00500393 0 0.00199712 0.117941 0 0 0 0)
(-1.25103 0.0137727 0 0.0130381 0.120906 0 0 0 0)
(-0.812658 0.00887887 0 0.011428 0.124214 0 0 0 0)
(-0.302733 0.00380192 0 0.00966866 0.127097 0 0 0 0)
(-0.153713 0.00605224 0 0.00967542 0.130177 0 0 0 0)
(-0.124681 0.0103385 0 0.00977955 0.131433 0 0 0 0)
(-0.101946 0.0128733 0 0.0110913 0.134255 0 0 0 0)
(-0.0769599 0.0197692 0 0.0121964 0.131908 0 0 0 0)
(-0.0646 0.0112871 0 0.0155659 0.132253 0 0 0 0)
(-0.0485905 0.00731751 0 0.013976 0.12365 0 0 0 0)
(-0.0428447 -0.0269255 0 0.0164657 0.126111 0 0 0 0)
(-0.0259034 -0.0366889 0 0.0173615 0.122505 0 0 0 0)
(0.00375547 -0.0109041 0 -0.46276 0.344051 0 0 0 0)
(0.00773444 0.00933923 0 -0.470907 0.364234 0 0 0 0)
(0.0187911 0.018315 0 -0.475498 0.359117 0 0 0 0)
(0.0298435 -0.0013071 0 -0.473955 0.34961 0 0 0 0)
(0.0241548 0.00550465 0 -0.477517 0.372064 0 0 0 0)
(0.0392767 -0.0561545 0 -0.470522 0.330933 0 0 0 0)
(0.089505 -0.0641786 0 -0.478463 0.32652 0 0 0 0)
(-0.038711 -0.0333009 0 -0.561044 0.3464 0 0 0 0)
(-0.301412 -0.170999 0 -0.56728 0.268565 0 0 0 0)
(-0.3256 -0.240389 0 -0.581644 0.262851 0 0 0 0)
(-0.476332 -0.145231 0 -0.654157 0.220448 0 0 0 0)
(-0.72282 -0.0227 0 -0.597473 0.325441 0 0 0 0)
(-0.621757 0.105812 0 -0.424639 0.444951 0 0 0 0)
(-0.581447 0.187937 0 -0.553792 0.466849 0 0 0 0)
(-0.702614 0.507985 0 -0.720229 0.774209 0 0 0 0)
(-0.769924 0.793154 0 -0.874657 1.03605 0 0 0 0)
(-0.667848 0.476559 0 -0.864976 0.763449 0 0 0 0)
(-0.408337 0.0134023 0 -0.666503 0.458069 0 0 0 0)
(-0.226326 -0.213763 0 -0.516466 0.312714 0 0 0 0)
(-0.184488 -0.317623 0 -0.43775 0.235449 0 0 0 0)
(-0.222659 -0.362047 0 -0.394894 0.196338 0 0 0 0)
(-0.3207 -0.36707 0 -0.374118 0.174477 0 0 0 0)
(-0.530036 -0.380269 0 -0.380623 0.147976 0 0 0 0)
(-0.928118 -0.430552 0 -0.441305 0.10046 0 0 0 0)
(-1.14967 -0.402263 0 -0.45783 0.0546538 0 0 0 0)
(-0.705583 -0.214281 0 -0.197778 0.0838062 0 0 0 0)
(-0.160588 -0.0511647 0 -0.0249167 0.122126 0 0 0 0)
(-0.110985 -0.00809609 0 -0.00636017 0.124161 0 0 0 0)
(-0.747484 0.00700891 0 0.00299828 0.123596 0 0 0 0)
(-1.24936 0.0172598 0 0.0165126 0.123071 0 0 0 0)
(-0.816315 0.0120036 0 0.0124465 0.121195 0 0 0 0)
(-0.305594 0.0066469 0 0.00989291 0.118192 0 0 0 0)
(-0.155705 0.0077169 0 0.010545 0.118705 0 0 0 0)
(-0.125749 0.0120107 0 0.0113237 0.123153 0 0 0 0)
(-0.102111 0.0125515 0 0.0128773 0.13259 0 0 0 0)
(-0.0753444 0.0181514 0 0.0113884 0.132641 0 0 0 0)
(-0.0632924 0.00693788 0 0.0130843 0.1339 0 0 0 0)