/*--------------------------------*- C++ -*----------------------------------*\
| =========                 |                                                 |
| \\      /  F ield         | OpenFOAM: The Open Source CFD Toolbox           |
|  \\    /   O peration     | Version:  v1912                                 |
|   \\  /    A nd           | Website:  www.openfoam.com                      |
|    \\/     M anipulation  |                                                 |
\*---------------------------------------------------------------------------*/
FoamFile
{
    version     2.0;
    format      ascii;
    class       volScalarField;
    location    "9e-05";
    object      linearKE;
}
// * * * * * * * * * * * * * * * * * * * * * * * * * * * * * * * * * * * * * //

dimensions      [1 -1 -2 0 0 0 0];


internalField   nonuniform List<scalar> 
1300
(
627.7256421
2006.888689
13697.36128
69933.21367
52795.22186
14013.80367
20584.61703
13494.30788
39879.18281
10144.00219
1801.190366
0
39760.19348
116986.044
99806.15684
60951.94481
72354.743
78254.6877
35262.41643
6982.464538
4933.166883
2296.342125
5851.852777
192085.6493
138149.5679
39390.7307
55418.3705
132347.4011
26073.46178
21946.61496
1607.140601
1525.991871
24116.70214
178211.6033
59408.68393
5748.738992
45266.96962
185966.1005
32621.48871
86845.13855
0
791.6469197
43722.88752
123639.0903
76290.63628
21291.65225
84086.88689
157737.3072
100159.6665
85743.12641
0
0
33616.30057
185864.2806
135242.3913
31021.5619
71070.15913
85656.43764
78964.64339
77215.20329
0
0
16670.23498
176986.5836
106527.501
4912.511665
103064.4676
185010.2216
107744.3263
55547.43513
0
1961.431224
21508.33689
163423.1317
91368.3136
27007.26319
50010.64943
97943.69326
16216.21442
105718.6823
1730.064746
0
53890.17263
180329.9194
81277.40423
19161.27085
48872.36529
141235.9063
82775.60466
18209.60491
3273.24987
0
21359.24625
183702.1285
89299.96372
5531.838726
58907.34395
86513.94195
144740.5873
30356.52531
0
2327.957713
27278.3426
169197.358
152524.8021
16608.95331
78241.647
151494.19
93952.08195
35144.98311
0
2004.587804
13098.81452
180110.2038
110090.1212
24069.22388
69635.64165
94869.3352
54256.60147
67295.17315
0
0
23239.63758
116422.4229
92374.83823
47059.16827
36623.69088
152410.745
29221.27945
72196.65181
0
0
31976.92057
190276.6125
126675.4741
34289.36624
46905.31053
114554.2433
107370.6573
60164.45467
0
0
31999.87149
112097.1763
91503.98431
4886.567817
73866.02368
122310.6067
53928.83269
40978.17793
0
2226.29636
20370.48629
159127.4946
96182.26554
39872.71399
67496.66301
148597.0498
49291.57728
94617.499
0
0
39912.79899
197720.6158
76617.33038
13709.46299
107076.1212
136966.278
94378.64916
104217.3151
0
0
24000.85494
204120.8346
61060.16036
39646.05203
59478.08388
110576.1476
53498.86015
47595.6263
0
0
28567.18183
237187.6227
76867.89413
11874.85242
95190.69312
54460.17667
42485.77735
51171.84555
0
0
24640.47224
150688.3229
37058.08139
45883.80494
56218.75588
150372.1082
59276.52945
89783.6845
24815.10426
17275.74481
29995.61659
17650.87495
13432.64698
28351.90173
23702.97761
11549.55843
11412.98233
7744.487102
20229.45199
7845.915701
17694.30189
9387.167278
22672.71484
8320.13891
6363.063255
18921.40647
30363.96701
16032.03726
26150.94383
4046.996524
8270.159295
16263.52449
19348.82208
15593.08604
8916.238513
11598.56888
14438.26089
18317.39063
25519.97112
23808.49177
16743.43231
20954.3775
11649.93241
29922.91911
25671.02026
5068.443907
10871.30304
13515.23254
16195.66506
28087.38917
16557.15339
16974.80258
17021.1324
10560.76213
13925.4943
10835.31995
18825.36316
23144.8738
2466.624504
11512.56774
7901.07724
16591.74156
5903.536292
7866.815549
20234.33799
8911.704163
11166.30828
10008.13305
41546.87112
61174.41911
52975.12085
33545.75783
13953.24117
10642.85904
49830.63431
17498.46981
24753.3351
8919.792488
10447.71846
30323.53575
30154.77769
37500.42542
21834.55807
31108.4625
26254.38621
11976.31943
14806.82233
26420.80076
11266.65526
23635.34375
12543.73718
12009.42948
9007.973492
18652.27853
24308.79088
12465.4803
9432.467439
12909.10248
105173.3909
67702.43025
51409.16489
47841.2473
49326.19539
19941.54928
44734.49846
32434.19343
47112.80421
29980.19273
35090.90928
57852.66432
26455.93578
21105.89509
18012.86913
37254.4628
20881.84361
44302.84689
7408.358938
13163.92704
18677.87131
12699.06398
2638.594928
18486.55581
3565.158209
21013.91382
12228.48504
18778.43608
15508.15854
11263.10777
72946.57635
136529.025
110733.4349
94933.81527
39595.7661
73404.92262
43320.85994
61510.0606
77207.3941
21116.18396
57011.84416
40651.57167
29087.59734
25828.69788
27973.27367
37869.90487
12487.24283
43099.18487
10984.83678
31429.99177
21811.28839
44782.99528
31697.95478
18374.06236
29379.38954
10638.75913
21754.44206
1369.564726
27421.88658
19800.71426
76436.28059
57937.05126
74285.83907
70771.33524
77970.31809
76216.16718
50987.70705
93476.76567
54396.5538
25470.39682
35847.01396
22184.78501
36918.30443
42595.43825
36919.87903
23923.33609
56318.68788
54195.29162
31391.60687
31766.25017
30212.85828
57715.00764
28851.46861
44236.04599
55803.75459
20651.98512
18000.15178
7183.578573
17861.7268
27478.23064
86622.17063
116757.3012
126138.7664
111228.7493
115734.2567
67658.1209
33493.48878
81740.04172
58082.20424
79883.77873
63124.02233
44123.56572
57946.60899
50775.66674
81110.1409
69200.94959
9471.645193
39020.89216
37979.3287
52593.59152
98579.25735
64082.91803
34168.37916
53187.12339
32104.64699
58068.21837
32515.09127
28312.78644
23413.37563
20885.30437
77694.59118
68482.61041
108980.5557
49875.47989
97069.60217
124132.7654
101180.2742
117928.3105
102599.1003
106959.0378
82640.62646
35362.49375
64316.81914
63767.15856
69512.86269
65858.79006
50726.86979
66974.17462
73351.01194
63196.07693
69985.88847
45601.02288
35744.18846
23425.76589
36144.89376
41313.91384
33933.51534
60691.37224
34356.75424
24503.24891
103225.1032
86301.79634
49750.4408
51628.90126
89819.50977
81134.49886
130081.5684
147282.6155
96001.49181
75338.83029
118116.013
93577.88946
102185.5659
65960.19837
80119.84736
65518.06939
70011.37867
95846.13985
75127.31842
73738.80434
83095.61415
57628.35292
57514.31063
45269.83096
54049.67312
48521.06106
34219.39559
64024.11042
40186.03376
32367.83092
72243.7116
110881.3831
64822.15015
112369.8333
54613.58973
59110.06598
54931.40578
151787.2266
83918.2946
81703.29473
87455.37208
134374.5902
106333.0681
127153.5399
83989.38335
136435.1146
69272.3434
97441.00672
69685.02106
61822.25915
62981.65319
95579.35704
58728.03155
49312.4428
97926.46983
101098.3927
56169.92194
38419.3441
88203.51505
17888.41798
121025.8238
91796.0209
22759.92795
103075.0059
80232.42156
49154.14513
115783.4352
78832.06762
70168.38653
78166.33468
102142.7794
43083.04862
74578.14896
108098.4684
90114.87584
119250.5688
92104.13685
74964.11518
78047.58035
96859.01408
94919.40024
92249.13959
141468.5877
75183.54334
83453.10188
73314.95283
103007.0512
54142.34472
54009.66185
69112.12207
91473.70023
72280.40838
87953.15465
92244.40484
104029.1591
138067.5885
71931.04641
48458.09436
99886.15464
137426.9511
61977.30084
82747.25431
143861.9151
80918.14083
123097.9657
102226.5804
95256.65513
53787.89389
97686.5659
83236.45796
96056.17906
79700.32237
69789.55868
48131.04742
84561.86502
65339.98646
61076.39629
23503.55979
93454.16772
66453.65863
90675.60932
84912.07705
109519.5758
82968.10394
66788.53934
110427.3004
97026.78152
73799.29267
99678.22421
96241.63877
57983.10521
137882.7976
81949.90223
81232.07541
77069.84655
61746.46768
116687.6619
101585.452
133803.3479
65269.68306
116480.8317
79357.66963
61103.95525
52030.23322
101705.2768
69019.73076
42600.02023
99063.02206
58264.08488
67139.03598
65105.20291
74604.03021
64099.99059
61666.30164
72363.97228
100167.4172
51102.42818
68191.22853
65702.58135
79924.4267
81062.12055
56515.70499
65892.9651
137089.1623
98724.25074
100978.5692
99345.79066
90700.21733
51934.42798
52752.14414
101158.6354
92930.15988
89498.21617
89325.25153
51346.20762
73115.37607
75056.27127
130037.6627
107992.6252
61027.0925
72152.70456
109453.2924
74965.97468
77768.3182
92930.47703
143899.8218
90993.59689
45883.26479
71641.57373
118087.9843
79123.84927
119423.1989
97681.69748
57747.74043
35215.60029
97493.39702
90541.78704
104197.5294
103045.573
103145.2867
79295.71694
122451.7863
110150.9162
140553.3004
53572.65281
96416.32325
108964.2984
97410.26948
107384.9357
84854.96427
23649.27087
104771.0592
90999.72255
77724.21708
97072.29322
37868.61129
77422.69241
69851.44978
106431.5399
99518.91235
96117.89687
155627.2102
117028.3407
102714.3413
73116.07155
99886.55527
86124.88518
77582.26903
61192.97701
110036.7673
103471.7645
78985.29802
90136.646
162121.5297
76377.3437
99659.65147
85609.91952
49139.00006
100457.6091
71084.72272
112977.5424
70437.7562
76007.33247
85019.29327
62498.58016
82655.36804
70935.476
50036.83457
85104.6057
88405.90339
99175.60185
78994.13176
76250.68906
97740.55186
164144.3111
30809.77752
82555.22945
47032.50396
80663.22397
87269.41689
85267.99246
95461.94347
119363.9065
93078.81904
60172.25775
78655.69723
100375.4495
108457.9373
141931.195
120303.4839
123236.748
56660.52058
74157.6277
90809.78229
67852.48275
74979.86343
85030.13257
67584.75252
85317.22857
68643.52447
78729.4653
77546.30842
90917.79177
64194.20248
79343.2087
65525.57248
80319.16241
109354.7381
39331.61169
86142.6347
85781.12508
67616.78389
77419.50381
61291.58964
137834.6039
104813.4685
80577.17269
77672.16764
76074.77542
111029.6783
133681.9449
54234.24695
77127.25814
52948.97088
62294.36314
64785.44315
69531.13006
96846.05236
71853.18001
63886.74654
70156.48794
59716.37775
76410.99323
54798.98717
64904.21505
71072.06407
96182.57503
87747.23904
89335.73521
96861.83527
70489.26088
62093.61086
93454.39968
118582.7784
95876.97254
148246.0381
107558.5405
93937.84748
84147.1835
128016.4651
46355.53643
113549.0996
61723.67414
68726.13914
63969.00026
48465.31975
92540.08301
54573.15743
41356.61881
114243.4323
42431.7501
102240.7926
76882.70039
75928.84647
102443.7923
83876.09452
109999.5953
71979.30609
73050.55975
54012.98494
78417.09574
76256.47048
88815.78454
131511.2221
88368.36904
70480.82106
90180.18322
145394.875
115656.5094
88609.81626
21961.45628
4470.523757
8369.59832
6856.341066
7932.33589
4634.861212
3021.861165
6122.782763
16673.77048
9013.446683
21089.25762
13737.22615
19897.86839
8041.627894
11816.77918
6529.445654
9414.252944
8380.363277
13642.96495
6379.581308
5134.019286
16198.69956
10328.47733
9679.014351
20144.48211
16427.86477
9895.126686
3976.155
17359.74725
6290.832944
7779.412017
26048.10017
8371.236185
22331.40367
10843.45943
8605.406578
13114.45451
24887.40273
12245.46473
13910.99787
12442.76883
31736.80099
26458.81558
15137.70729
30228.04395
6742.201226
31832.12501
7821.00458
26672.32565
29977.5847
36321.70934
24689.71227
20914.74301
46064.51327
5426.870216
13485.23614
30107.22802
21517.86758
24735.51791
34136.11064
34144.95436
23073.16181
14976.9015
14912.6037
19542.59638
34742.13148
11370.69917
25419.01179
25410.58981
14380.60277
14334.57806
19802.7997
13627.60852
23744.82817
27504.35099
22320.97137
13703.50711
11836.49871
18500.97994
321.4302842
27151.25985
19331.88679
25930.77966
14771.79815
23129.03471
36168.02282
38189.04176
10487.19578
15350.72062
22143.79313
8782.722937
3321.198126
66379.40822
57585.56849
21565.04117
21407.80624
62587.7634
31849.98115
46908.78563
38938.70685
17478.59159
67407.54266
47910.97052
15644.43442
42664.76066
21392.16606
46608.97695
64511.84039
18876.37714
20531.70005
70072.89298
68615.32282
88665.21771
22262.23709
16996.05343
66068.94475
47679.18618
40914.66758
57116.25795
48073.57016
75042.83141
78084.5048
121455.2562
66689.85758
37947.90148
61994.60942
41953.30375
96686.48995
59981.65955
60107.30336
91468.99279
81695.4594
46921.01081
74379.85227
109084.27
82632.72894
56520.08448
54995.89003
93330.96796
84496.41305
51099.2141
82239.90823
98201.33728
70145.85945
104365.1406
110584.5116
52648.57319
68373.68545
68536.81741
92375.43307
133070.3632
53617.42143
66983.29822
109339.6998
75421.5837
74670.82767
78327.10689
98531.34971
68632.50894
86028.46866
109423.5534
110131.5754
51804.59381
65241.55198
77332.35624
136006.1616
92676.21037
72620.25988
56205.98505
112767.7745
148615.8233
17871.73165
117923.1813
96214.40989
140352.8291
58474.2906
118700.5056
114647.005
111320.1146
106681.5687
130734.062
94330.24904
80688.64303
141573.3703
136081.6609
42436.244
146143.61
115688.3307
92387.41914
105537.055
87645.92699
84932.58773
92752.13274
92128.66029
60750.78646
104647.9404
73402.93962
170437.9597
97463.42997
133003.3195
5431.411285
9287.436766
4263.333307
12462.8122
3294.114805
8727.211451
18743.24135
4230.037042
3716.081217
4407.162938
4995.997844
5375.848507
5531.34218
7222.128064
5703.271382
1835.067383
7151.074528
9404.083936
7894.955391
4559.865162
18919.92596
6893.400739
7407.932585
7752.725554
6602.521268
7585.815476
8413.452596
9207.654425
10168.76787
1839.90246
5952.151098
9132.631066
11099.66158
9127.495279
6946.699414
12324.71596
3236.251265
6228.094577
3132.701374
10726.802
16071.1055
9655.175197
7822.644248
6189.85102
11578.89248
15340.66441
7985.700669
22675.24345
18485.21335
12896.74165
11094.07925
15865.38196
2692.467445
10148.44941
7839.009906
16163.80035
12001.13094
16525.66497
8844.436362
8378.721598
11180.18641
11437.18662
10857.41518
14935.41284
8317.822797
13580.37005
6984.342324
4146.186746
6435.57111
6886.604898
11594.67299
8335.689898
12423.65292
8328.755404
14209.82002
13341.47703
4706.235476
8422.010663
5704.491453
5226.700255
30013.41643
12400.81939
9394.213858
7152.424675
10670.3386
12497.76459
14398.98012
19921.84674
16602.32197
12321.87305
4958.380566
7640.197775
7610.664538
16255.35969
8575.213106
9605.243597
9247.557867
8181.419906
7189.083951
13918.21118
8208.678673
15406.82876
9951.919918
8439.845805
11726.91734
7114.244187
14653.59425
14178.01278
11709.321
5173.461947
7199.736583
9056.779643
7222.379661
17242.01033
15293.0426
8641.454862
7310.492341
8082.555038
8185.201195
9402.815089
5133.203678
11594.164
6370.235436
12630.80387
8747.521732
14447.70271
7284.958491
11059.53708
5997.615178
6740.435095
5920.795654
11438.44701
9957.290836
5676.443213
15692.34029
9956.913254
8022.302503
11788.74164
15937.61953
17092.45458
20519.83974
6659.050399
6127.678401
10652.05435
21208.87125
12717.4981
11188.56333
18451.46525
11287.05818
11336.34744
5530.843423
5866.236975
11213.77928
11064.44977
5231.044561
9008.10514
6427.959437
11975.25045
7308.990917
6658.403963
12812.876
15723.15012
6660.385044
5902.110402
9232.663151
15673.44532
8101.933561
9252.038495
7401.893796
12410.37467
6414.034914
4144.917265
16430.99965
6426.175206
8247.874856
5483.819845
10530.45592
13375.14819
4497.547896
3792.046402
6543.409298
9973.076341
6093.199179
15108.32684
3376.074728
5542.726048
5368.288874
14126.97039
5869.733322
6671.903505
7394.952357
18288.57947
9516.51307
4058.430886
22502.63523
18034.55112
19601.77761
5991.544398
13175.04317
8904.656226
10512.114
7903.781331
3851.892868
15663.08559
7751.154178
7296.128589
7493.509612
14567.12414
11136.38481
6105.281209
6200.180038
11650.51192
16982.0805
11460.99892
12159.14201
20487.37028
7490.088411
13587.16601
11501.0231
13984.20632
15870.23448
11354.97543
8312.441791
5709.37876
10234.67018
10318.13749
8370.907386
13862.80967
13657.63899
10465.77234
6913.092102
10592.52186
11057.90918
10292.4918
8086.547513
12026.71087
15506.48623
11588.50749
2016.047829
9288.741164
7439.118608
5973.726357
13638.23159
10059.43026
14414.5897
21356.37886
29221.97382
8579.742481
9119.150646
7137.995011
20072.47253
11094.28765
5932.134673
19012.01277
9483.128587
875.8187621
17018.40551
12721.91886
10069.77038
262.3166389
20826.13269
12416.2388
13902.05605
18910.81811
11511.90508
14214.84401
8216.642708
6874.209333
9385.948214
11864.9243
383.5891397
10083.30117
15996.09258
9253.146991
3635.272498
3826.718288
11485.36175
24136.80432
18426.05058
19339.61225
17335.58413
11393.70346
3930.138135
11978.2674
1988.327927
8338.150851
10487.3272
4322.377685
19965.63201
17077.38297
8416.801106
14980.77446
21370.45198
8769.142867
3972.014728
15189.86616
12417.50826
16951.29152
8356.92721
4216.41146
)
;

boundaryField
{
    inlet
    {
        type            zeroGradient;
    }
    outlet
    {
        type            zeroGradient;
    }
    wall
    {
        type            calculated;
        value           uniform 0;
    }
    frontAndBack
    {
        type            empty;
    }
}


// ************************************************************************* //
