/*--------------------------------*- C++ -*----------------------------------*\
| =========                 |                                                 |
| \\      /  F ield         | OpenFOAM: The Open Source CFD Toolbox           |
|  \\    /   O peration     | Version:  v1912                                 |
|   \\  /    A nd           | Website:  www.openfoam.com                      |
|    \\/     M anipulation  |                                                 |
\*---------------------------------------------------------------------------*/
FoamFile
{
    version     2.0;
    format      ascii;
    class       volScalarField;
    location    "4.18";
    object      Ma;
}
// * * * * * * * * * * * * * * * * * * * * * * * * * * * * * * * * * * * * * //

dimensions      [0 0 0 0 0 0 0];


internalField   nonuniform List<scalar> 
1900
(
0.728582
0.110329
0.0677462
0.061532
0.0553811
0.0480136
0.0406241
0.0323605
0.0230285
0.0110013
0.728586
0.110331
0.0677693
0.06156
0.0554101
0.0479567
0.0401949
0.0308437
0.0207076
0.00889219
0.728587
0.110331
0.0677775
0.0615588
0.0553803
0.0478395
0.039855
0.0301547
0.0196733
0.00799026
0.728586
0.110331
0.0677693
0.06156
0.0554101
0.0479567
0.0401949
0.0308437
0.0207076
0.00889219
0.728582
0.110329
0.0677462
0.061532
0.0553811
0.0480136
0.0406241
0.0323605
0.0230285
0.0110013
0.00659417
0.00780235
0.0174697
0.0355062
0.0663358
0.00198795
0.00763252
0.0176087
0.0346486
0.0631695
0.00105369
0.00854578
0.0175569
0.0340841
0.0629527
0.00198795
0.00763252
0.0176087
0.0346486
0.0631695
0.00659417
0.00780235
0.0174697
0.0355062
0.0663358
0.112305
0.133954
0.156158
0.175713
0.169422
0.110246
0.131494
0.152004
0.188754
0.252296
0.109819
0.130981
0.151722
0.194741
0.286571
0.110246
0.131494
0.152004
0.188754
0.252296
0.112305
0.133954
0.156158
0.175713
0.169422
0.0481853
0.354314
0.272816
0.216909
0.264579
0.317608
0.363563
0.408365
0.42914
0.4226
0.399415
0.368427
0.33317
0.294499
0.253008
0.209274
0.163856
0.117434
0.0713885
0.0345319
0.0481637
0.0932719
0.143152
0.194107
0.245335
0.29642
0.34711
0.397209
0.446551
0.495004
0.542297
0.587581
0.629669
0.666353
0.698167
0.722698
0.743808
0.756076
0.759696
1.70542
0.422209
0.647284
0.380979
0.115572
0.229123
0.313633
0.362204
0.408067
0.429024
0.422765
0.399576
0.368422
0.332962
0.294039
0.252227
0.208062
0.162019
0.114551
0.0661944
0.0212097
0.0397805
0.0894391
0.140882
0.19265
0.244399
0.29586
0.346842
0.397179
0.446719
0.495342
0.54277
0.588181
0.630324
0.667065
0.698834
0.72327
0.744344
0.756476
0.759892
1.70452
0.512683
0.722639
0.442156
0.0381661
0.211971
0.315383
0.364462
0.410187
0.429858
0.423447
0.400198
0.368849
0.333201
0.294104
0.252119
0.207762
0.161473
0.113618
0.0643952
0.0142484
0.0365816
0.0881567
0.140168
0.192238
0.244196
0.295828
0.346968
0.397465
0.44718
0.496007
0.543677
0.589402
0.631941
0.669161
0.701556
0.726608
0.748474
0.76107
0.763927
1.70876
0.422209
0.647284
0.380979
0.115572
0.229123
0.313633
0.362204
0.408067
0.429024
0.422765
0.399576
0.368422
0.332962
0.294039
0.252227
0.208062
0.162019
0.114551
0.0661944
0.0212097
0.0397805
0.0894391
0.140882
0.19265
0.244399
0.29586
0.346842
0.397179
0.446719
0.495342
0.54277
0.588181
0.630324
0.667065
0.698834
0.72327
0.744344
0.756476
0.759892
1.70452
0.0481853
0.354314
0.272816
0.216909
0.264579
0.317608
0.363563
0.408365
0.42914
0.4226
0.399415
0.368427
0.33317
0.294499
0.253008
0.209274
0.163856
0.117434
0.0713885
0.0345319
0.0481637
0.0932719
0.143152
0.194107
0.245335
0.29642
0.34711
0.397209
0.446551
0.495004
0.542297
0.587581
0.629669
0.666353
0.698167
0.722698
0.743808
0.756076
0.759696
1.70542
0.958915
0.332172
0.400661
0.374112
0.343731
0.346188
0.383961
0.422668
0.43851
0.429452
0.405995
0.374998
0.339835
0.301473
0.260585
0.217895
0.174262
0.13109
0.0916686
0.0669745
0.0748715
0.109514
0.154483
0.202891
0.252642
0.302806
0.352898
0.402605
0.451696
0.499982
0.547214
0.592413
0.634675
0.671416
0.703642
0.728592
0.750261
0.763387
0.76742
1.70569
1.495
0.746163
0.650777
0.527389
0.448846
0.416281
0.432012
0.452808
0.456723
0.443942
0.420035
0.389427
0.355009
0.317912
0.278989
0.239243
0.200002
0.163464
0.133648
0.118266
0.122779
0.14621
0.182415
0.224964
0.270768
0.31817
0.366253
0.414445
0.462369
0.509664
0.556167
0.600487
0.642426
0.678493
0.710679
0.735428
0.757137
0.770791
0.776134
1.70611
1.61581
0.866602
0.75718
0.611684
0.528455
0.490888
0.487559
0.488706
0.482626
0.465602
0.440698
0.410414
0.377024
0.341655
0.305264
0.269037
0.234501
0.203937
0.180649
0.169826
0.172861
0.189849
0.21901
0.255595
0.29677
0.340641
0.38601
0.432077
0.478334
0.524165
0.569631
0.612672
0.654189
0.689458
0.721646
0.746284
0.768342
0.782877
0.794007
1.72753
1.64724
0.909339
0.801652
0.672096
0.592774
0.56037
0.539458
0.529252
0.514431
0.493663
0.467485
0.437387
0.405051
0.371513
0.337701
0.304844
0.274422
0.248444
0.229404
0.221229
0.223424
0.236415
0.260499
0.292034
0.328793
0.36901
0.411417
0.455065
0.4994
0.543456
0.587729
0.629169
0.67013
0.704523
0.736565
0.760903
0.782916
0.797725
0.81116
1.7176
1.65051
0.934565
0.828753
0.719143
0.651621
0.619357
0.590459
0.57094
0.550093
0.526159
0.498875
0.468932
0.437627
0.405856
0.374433
0.344526
0.317451
0.294885
0.278712
0.272284
0.273926
0.284198
0.304618
0.332105
0.364989
0.40176
0.441225
0.482358
0.524664
0.56672
0.609769
0.649461
0.689798
0.72344
0.755479
0.779819
0.802073
0.817689
0.836008
1.73157
1.64975
0.951177
0.85157
0.762022
0.705159
0.667569
0.637448
0.612107
0.587397
0.561376
0.533415
0.503791
0.473522
0.44339
0.414065
0.386622
0.362192
0.342161
0.327995
0.32283
0.32407
0.332353
0.350072
0.37437
0.403986
0.437682
0.474393
0.513039
0.553335
0.593151
0.634856
0.672496
0.711867
0.744259
0.775617
0.799007
0.819982
0.83454
0.858429
1.7265
1.67222
0.975375
0.881122
0.805466
0.756647
0.71629
0.684367
0.655101
0.627408
0.599491
0.570779
0.541325
0.511908
0.483159
0.455577
0.430127
0.407762
0.389629
0.376915
0.372729
0.373657
0.3804
0.396076
0.417859
0.444773
0.475816
0.510103
0.546447
0.585023
0.622779
0.663577
0.699678
0.738703
0.77106
0.80275
0.827041
0.848371
0.863398
0.892759
1.73792
1.68791
0.992756
0.904811
0.841561
0.798598
0.756599
0.723409
0.693079
0.664579
0.636387
0.608045
0.579485
0.551299
0.524005
0.49803
0.474271
0.453566
0.436893
0.42527
0.421891
0.422567
0.428055
0.44214
0.461901
0.486542
0.515221
0.54724
0.581182
0.617826
0.652785
0.692
0.725459
0.762659
0.793308
0.823622
0.846608
0.86645
0.879732
0.918995
1.73768
1.70737
1.01967
0.937
0.883322
0.844311
0.801784
0.768198
0.736782
0.707033
0.67773
0.648887
0.620384
0.592697
0.566232
0.541344
0.518803
0.499333
0.483747
0.47294
0.470255
0.470719
0.475148
0.487991
0.506167
0.529009
0.555835
0.586177
0.618318
0.654066
0.687195
0.726119
0.758785
0.795796
0.826751
0.857522
0.881174
0.901143
0.913929
0.958816
1.7445
1.7103
1.03895
0.960759
0.916218
0.880361
0.837607
0.80468
0.772027
0.742646
0.713396
0.685468
0.658187
0.631998
0.607067
0.583704
0.562579
0.544383
0.529822
0.519755
0.517749
0.518031
0.521486
0.533221
0.549919
0.570949
0.595705
0.624001
0.653429
0.687391
0.717396
0.754567
0.784918
0.820431
0.85024
0.880641
0.903202
0.92272
0.933695
0.988873
1.74461
1.72043
1.06482
0.989499
0.953445
0.919407
0.877585
0.846465
0.813076
0.784284
0.754788
0.727232
0.700157
0.674431
0.649924
0.627119
0.606617
0.58908
0.575089
0.565484
0.56406
0.564178
0.566814
0.577787
0.593549
0.613497
0.637059
0.664489
0.69243
0.72602
0.754292
0.79104
0.820342
0.855205
0.884731
0.915755
0.938199
0.957881
0.967768
1.02618
1.74809
1.72607
1.08882
1.01602
0.986476
0.950305
0.912777
0.883062
0.848414
0.820357
0.790489
0.763559
0.736807
0.712057
0.688413
0.666691
0.647315
0.630873
0.617797
0.608903
0.608224
0.608187
0.609874
0.619849
0.634292
0.652675
0.674368
0.700315
0.72592
0.758765
0.784655
0.820656
0.848573
0.882827
0.911224
0.942709
0.964341
0.983771
0.99241
1.05412
1.74691
1.73615
1.11597
1.04553
1.02078
0.982851
0.950791
0.920542
0.885437
0.858536
0.827972
0.802005
0.775336
0.751243
0.727778
0.706416
0.687293
0.671081
0.658125
0.649339
0.649124
0.648942
0.650031
0.65972
0.673786
0.691659
0.712557
0.738057
0.762061
0.794883
0.819051
0.854589
0.88191
0.91662
0.944822
0.977564
0.998916
1.01861
1.02607
1.08614
1.74851
1.73988
1.14024
1.07254
1.05031
1.01413
0.987292
0.95393
0.919427
0.89235
0.860964
0.836379
0.808578
0.784776
0.761161
0.739949
0.721002
0.705121
0.692478
0.684032
0.684473
0.684096
0.684316
0.693396
0.706784
0.723962
0.743861
0.769274
0.791503
0.824834
0.847811
0.883375
0.909381
0.943943
0.97112
1.00349
1.02527
1.04492
1.05216
1.10985
1.74523
1.74512
1.1634
1.09803
1.07871
1.04298
1.01801
0.982531
0.95219
0.925496
0.892547
0.868331
0.83911
0.816158
0.792025
0.770726
0.751595
0.73564
0.722862
0.714324
0.715186
0.714731
0.714479
0.723515
0.736841
0.753938
0.773272
0.799055
0.819905
0.853568
0.875636
0.911659
0.937931
0.973815
1.00072
1.03364
1.05491
1.07468
1.08065
1.13442
1.74142
1.74455
1.18394
1.12092
1.10378
1.07029
1.04442
1.00804
0.979906
0.949812
0.916596
0.89411
0.863403
0.840603
0.815625
0.794354
0.775101
0.759146
0.746244
0.737517
0.738804
0.738159
0.737273
0.746194
0.759363
0.776342
0.794824
0.821287
0.84077
0.875407
0.896452
0.93255
0.957631
0.993223
1.02005
1.05273
1.07606
1.09555
1.10206
1.15217
1.73043
1.73335
1.1908
1.13279
1.11837
1.0859
1.06082
1.02427
0.999112
0.965943
0.936196
0.912892
0.881099
0.860005
0.834869
0.814324
0.794918
0.77883
0.765372
0.756533
0.758478
0.757716
0.756387
0.765538
0.778923
0.796108
0.813514
0.840175
0.857635
0.892177
0.912271
0.948156
0.973157
1.0089
1.03583
1.06831
1.09147
1.11015
1.11355
1.15847
1.70734
1.69261
1.18403
1.12882
1.12174
1.09412
1.06977
1.03387
1.00879
0.974909
0.946914
0.923314
0.892816
0.87339
0.847671
0.828073
0.808223
0.791583
0.777066
0.767565
0.769393
0.76844
0.767423
0.777448
0.791549
0.809697
0.826552
0.854
0.870042
0.904439
0.923199
0.958179
0.981746
1.01635
1.04253
1.07405
1.09734
1.11309
1.11498
1.15344
1.64996
1.73584
1.14737
1.14395
1.14893
1.13119
1.11279
1.08316
1.05845
1.02293
0.992235
0.959001
0.922771
0.893459
0.861191
0.834429
0.809886
0.789003
0.774451
0.762753
0.765103
0.764605
0.762636
0.774989
0.789004
0.81215
0.834143
0.867563
0.893513
0.933444
0.963936
1.00338
1.0353
1.07039
1.09729
1.12591
1.14617
1.1559
1.15065
1.13409
1.71008
2.40316
1.72399
1.64861
1.69931
1.71793
1.72795
1.73206
1.73684
1.73832
1.7428
1.74072
1.74182
1.73629
1.73383
1.72738
1.72528
1.71297
1.71966
1.70275
1.72522
1.72544
1.70188
1.72117
1.70977
1.7293
1.72481
1.7379
1.73803
1.74589
1.74655
1.75025
1.74787
1.74859
1.7445
1.74107
1.73109
1.70874
1.65039
1.70357
2.39457
2.40316
1.72399
1.64861
1.69931
1.71793
1.72795
1.73206
1.73684
1.73832
1.7428
1.74072
1.74182
1.73629
1.73383
1.72738
1.72528
1.71297
1.71966
1.70275
1.72522
1.72544
1.70188
1.72117
1.70977
1.7293
1.72481
1.7379
1.73803
1.74589
1.74655
1.75025
1.74787
1.74859
1.7445
1.74107
1.73109
1.70874
1.65039
1.70357
2.39457
1.73584
1.14737
1.14395
1.14893
1.13119
1.11279
1.08316
1.05845
1.02293
0.992235
0.959001
0.922771
0.893459
0.861191
0.834429
0.809886
0.789003
0.774451
0.762753
0.765103
0.764605
0.762636
0.774989
0.789004
0.81215
0.834143
0.867563
0.893513
0.933444
0.963936
1.00338
1.0353
1.07039
1.09729
1.12591
1.14617
1.1559
1.15065
1.13409
1.71008
1.69261
1.18403
1.12882
1.12174
1.09412
1.06977
1.03387
1.00879
0.974909
0.946914
0.923314
0.892816
0.87339
0.847671
0.828073
0.808223
0.791583
0.777066
0.767565
0.769393
0.76844
0.767423
0.777448
0.791549
0.809697
0.826552
0.854
0.870042
0.904439
0.923199
0.958179
0.981746
1.01635
1.04253
1.07405
1.09734
1.11309
1.11498
1.15344
1.64996
1.73335
1.1908
1.13279
1.11837
1.0859
1.06082
1.02427
0.999112
0.965943
0.936196
0.912892
0.881099
0.860005
0.834869
0.814324
0.794918
0.77883
0.765372
0.756533
0.758478
0.757716
0.756387
0.765538
0.778923
0.796108
0.813514
0.840175
0.857635
0.892177
0.912271
0.948156
0.973157
1.0089
1.03583
1.06831
1.09147
1.11015
1.11355
1.15847
1.70734
1.74455
1.18394
1.12092
1.10378
1.07029
1.04442
1.00804
0.979906
0.949812
0.916596
0.89411
0.863403
0.840603
0.815625
0.794354
0.775101
0.759146
0.746244
0.737517
0.738804
0.738159
0.737273
0.746194
0.759363
0.776342
0.794824
0.821287
0.84077
0.875407
0.896452
0.93255
0.957631
0.993223
1.02005
1.05273
1.07606
1.09555
1.10206
1.15217
1.73043
1.74512
1.1634
1.09803
1.07871
1.04298
1.01801
0.982531
0.95219
0.925496
0.892547
0.868331
0.83911
0.816158
0.792025
0.770726
0.751595
0.73564
0.722862
0.714324
0.715186
0.714731
0.714479
0.723515
0.736841
0.753938
0.773272
0.799055
0.819905
0.853568
0.875636
0.911659
0.937931
0.973815
1.00072
1.03364
1.05491
1.07468
1.08065
1.13442
1.74142
1.73988
1.14024
1.07254
1.05031
1.01413
0.987292
0.95393
0.919427
0.89235
0.860964
0.836379
0.808578
0.784776
0.761161
0.739949
0.721002
0.705121
0.692478
0.684032
0.684473
0.684096
0.684316
0.693396
0.706784
0.723962
0.743861
0.769274
0.791503
0.824834
0.847811
0.883375
0.909381
0.943943
0.97112
1.00349
1.02527
1.04492
1.05216
1.10985
1.74523
1.73615
1.11597
1.04553
1.02078
0.982851
0.950791
0.920542
0.885437
0.858536
0.827972
0.802005
0.775336
0.751243
0.727778
0.706416
0.687293
0.671081
0.658125
0.649339
0.649124
0.648942
0.650031
0.65972
0.673786
0.691659
0.712557
0.738057
0.762061
0.794883
0.819051
0.854589
0.88191
0.91662
0.944822
0.977564
0.998916
1.01861
1.02607
1.08614
1.74851
1.72607
1.08882
1.01602
0.986476
0.950305
0.912777
0.883062
0.848414
0.820357
0.790489
0.763559
0.736807
0.712057
0.688413
0.666691
0.647315
0.630873
0.617797
0.608903
0.608224
0.608187
0.609874
0.619849
0.634292
0.652675
0.674368
0.700315
0.72592
0.758765
0.784655
0.820656
0.848573
0.882827
0.911224
0.942709
0.964341
0.983771
0.99241
1.05412
1.74691
1.72043
1.06482
0.989499
0.953445
0.919407
0.877585
0.846465
0.813076
0.784284
0.754788
0.727232
0.700157
0.674431
0.649924
0.627119
0.606617
0.58908
0.575089
0.565484
0.56406
0.564178
0.566814
0.577787
0.593549
0.613497
0.637059
0.664489
0.69243
0.72602
0.754292
0.79104
0.820342
0.855205
0.884731
0.915755
0.938199
0.957881
0.967768
1.02618
1.74809
1.7103
1.03895
0.960759
0.916218
0.880361
0.837607
0.80468
0.772027
0.742646
0.713396
0.685468
0.658187
0.631998
0.607067
0.583704
0.562579
0.544383
0.529822
0.519755
0.517749
0.518031
0.521486
0.533221
0.549919
0.570949
0.595705
0.624001
0.653429
0.687391
0.717396
0.754567
0.784918
0.820431
0.85024
0.880641
0.903202
0.92272
0.933695
0.988873
1.74461
1.70737
1.01967
0.937
0.883322
0.844311
0.801784
0.768198
0.736782
0.707033
0.67773
0.648887
0.620384
0.592697
0.566232
0.541344
0.518803
0.499333
0.483747
0.47294
0.470255
0.470719
0.475148
0.487991
0.506167
0.529009
0.555835
0.586177
0.618318
0.654066
0.687195
0.726119
0.758785
0.795796
0.826751
0.857522
0.881174
0.901143
0.913929
0.958816
1.7445
1.68791
0.992756
0.904811
0.841561
0.798598
0.756599
0.723409
0.693079
0.664579
0.636387
0.608045
0.579485
0.551299
0.524005
0.49803
0.474271
0.453566
0.436893
0.42527
0.421891
0.422567
0.428055
0.44214
0.461901
0.486542
0.515221
0.54724
0.581182
0.617826
0.652785
0.692
0.725459
0.762659
0.793308
0.823622
0.846608
0.86645
0.879732
0.918995
1.73768
1.67222
0.975375
0.881122
0.805466
0.756647
0.71629
0.684367
0.655101
0.627408
0.599491
0.570779
0.541325
0.511908
0.483159
0.455577
0.430127
0.407762
0.389629
0.376915
0.372729
0.373657
0.3804
0.396076
0.417859
0.444773
0.475816
0.510103
0.546447
0.585023
0.622779
0.663577
0.699678
0.738703
0.77106
0.80275
0.827041
0.848371
0.863398
0.892759
1.73792
1.64975
0.951177
0.85157
0.762022
0.705159
0.667569
0.637448
0.612107
0.587397
0.561376
0.533415
0.503791
0.473522
0.44339
0.414065
0.386622
0.362192
0.342161
0.327995
0.32283
0.32407
0.332353
0.350072
0.37437
0.403986
0.437682
0.474393
0.513039
0.553335
0.593151
0.634856
0.672496
0.711867
0.744259
0.775617
0.799007
0.819982
0.83454
0.858429
1.7265
1.65051
0.934565
0.828753
0.719143
0.651621
0.619357
0.590459
0.57094
0.550093
0.526159
0.498875
0.468932
0.437627
0.405856
0.374433
0.344526
0.317451
0.294885
0.278712
0.272284
0.273926
0.284198
0.304618
0.332105
0.364989
0.40176
0.441225
0.482358
0.524664
0.56672
0.609769
0.649461
0.689798
0.72344
0.755479
0.779819
0.802073
0.817689
0.836008
1.73157
1.64724
0.909339
0.801652
0.672096
0.592774
0.56037
0.539458
0.529252
0.514431
0.493663
0.467485
0.437387
0.405051
0.371513
0.337701
0.304844
0.274422
0.248444
0.229404
0.221229
0.223424
0.236415
0.260499
0.292034
0.328793
0.36901
0.411417
0.455065
0.4994
0.543456
0.587729
0.629169
0.67013
0.704523
0.736565
0.760903
0.782916
0.797725
0.81116
1.7176
1.61581
0.866602
0.75718
0.611684
0.528455
0.490888
0.487559
0.488706
0.482626
0.465602
0.440698
0.410414
0.377024
0.341655
0.305264
0.269037
0.234501
0.203937
0.180649
0.169826
0.172861
0.189849
0.21901
0.255595
0.29677
0.340641
0.38601
0.432077
0.478334
0.524165
0.569631
0.612672
0.654189
0.689458
0.721646
0.746284
0.768342
0.782877
0.794007
1.72753
1.495
0.746163
0.650777
0.527389
0.448846
0.416281
0.432012
0.452808
0.456723
0.443942
0.420035
0.389427
0.355009
0.317912
0.278989
0.239243
0.200002
0.163464
0.133648
0.118266
0.122779
0.14621
0.182415
0.224964
0.270768
0.31817
0.366253
0.414445
0.462369
0.509664
0.556167
0.600487
0.642426
0.678493
0.710679
0.735428
0.757137
0.770791
0.776134
1.70611
0.958915
0.332172
0.400661
0.374112
0.343731
0.346188
0.383961
0.422668
0.43851
0.429452
0.405995
0.374998
0.339835
0.301473
0.260585
0.217895
0.174262
0.13109
0.0916686
0.0669745
0.0748715
0.109514
0.154483
0.202891
0.252642
0.302806
0.352898
0.402605
0.451696
0.499982
0.547214
0.592413
0.634675
0.671416
0.703642
0.728592
0.750261
0.763387
0.76742
1.70569
)
;

boundaryField
{
    inlet
    {
        type            calculated;
        value           uniform 0;
    }
    outlet
    {
        type            calculated;
        value           nonuniform List<scalar> 
165
(
0.958915
1.495
1.61581
1.64724
1.65051
1.64975
1.67222
1.68791
1.70737
1.7103
1.72043
1.72607
1.73615
1.73988
1.74512
1.74455
1.73335
1.69261
1.73584
2.40316
2.40316
1.72399
1.64861
1.69931
1.71793
1.72795
1.73206
1.73684
1.73832
1.7428
1.74072
1.74182
1.73629
1.73383
1.72738
1.72528
1.71297
1.71966
1.70275
1.72522
1.72544
1.70188
1.72117
1.70977
1.7293
1.72481
1.7379
1.73803
1.74589
1.74655
1.75025
1.74787
1.74859
1.7445
1.74107
1.73109
1.70874
1.65039
1.70357
2.39457
1.70569
1.70611
1.72753
1.7176
1.73157
1.7265
1.73792
1.73768
1.7445
1.74461
1.74809
1.74691
1.74851
1.74523
1.74142
1.73043
1.70734
1.64996
1.71008
2.39457
1.70542
1.70452
1.70876
1.70452
1.70542
2.39457
1.71008
1.64996
1.70734
1.73043
1.74142
1.74523
1.74851
1.74691
1.74809
1.74461
1.7445
1.73768
1.73792
1.7265
1.73157
1.7176
1.72753
1.70611
1.70569
2.40316
1.72399
1.64861
1.69931
1.71793
1.72795
1.73206
1.73684
1.73832
1.7428
1.74072
1.74182
1.73629
1.73383
1.72738
1.72528
1.71297
1.71966
1.70275
1.72522
1.72544
1.70188
1.72117
1.70977
1.7293
1.72481
1.7379
1.73803
1.74589
1.74655
1.75025
1.74787
1.74859
1.7445
1.74107
1.73109
1.70874
1.65039
1.70357
2.39457
2.40316
1.73584
1.69261
1.73335
1.74455
1.74512
1.73988
1.73615
1.72607
1.72043
1.7103
1.70737
1.68791
1.67222
1.64975
1.65051
1.64724
1.61581
1.495
0.958915
)
;
    }
    obstacle
    {
        type            calculated;
        value           nonuniform List<scalar> 
40
(
0.728582
0.110329
0.0677462
0.061532
0.0553811
0.0480133
0.040621
0.0323448
0.0230233
0.0109683
0.728582
0.110329
0.0677462
0.061532
0.0553811
0.0480133
0.040621
0.0323448
0.0230233
0.0109683
0.00588457
0.0035247
0.0154582
0.0332987
0.0621556
0.00588457
0.0035247
0.0154582
0.0332987
0.0621556
0.111903
0.133871
0.155941
0.174607
0.164397
0.111903
0.133871
0.155941
0.174607
0.164397
)
;
    }
    empty
    {
        type            empty;
    }
}


// ************************************************************************* //
