/*--------------------------------*- C++ -*----------------------------------*\
| =========                 |                                                 |
| \\      /  F ield         | OpenFOAM: The Open Source CFD Toolbox           |
|  \\    /   O peration     | Version:  v1912                                 |
|   \\  /    A nd           | Website:  www.openfoam.com                      |
|    \\/     M anipulation  |                                                 |
\*---------------------------------------------------------------------------*/
FoamFile
{
    version     2.0;
    format      ascii;
    class       volScalarField;
    location    "4.34";
    object      Ma;
}
// * * * * * * * * * * * * * * * * * * * * * * * * * * * * * * * * * * * * * //

dimensions      [0 0 0 0 0 0 0];


internalField   nonuniform List<scalar> 
1900
(
0.755394
0.106228
0.054663
0.0442757
0.0355367
0.0255635
0.017069
0.00927662
0.00125146
0.00693326
0.755393
0.106233
0.0546889
0.0443101
0.0355671
0.0255593
0.0168148
0.00821415
0.0010725
0.0110938
0.755393
0.106237
0.0547051
0.0443213
0.0355595
0.0254864
0.0165236
0.00747132
0.00177196
0.0127014
0.755393
0.106233
0.0546889
0.0443101
0.0355671
0.0255593
0.0168148
0.00821415
0.0010725
0.0110938
0.755394
0.106228
0.054663
0.0442757
0.0355367
0.0255635
0.017069
0.00927662
0.00125146
0.00693326
0.0164997
0.0308592
0.0528769
0.0884222
0.152125
0.021626
0.0348923
0.0539725
0.0836878
0.139127
0.0236212
0.0367518
0.0567874
0.0875487
0.143157
0.021626
0.0348923
0.0539725
0.0836878
0.139127
0.0164997
0.0308592
0.0528769
0.0884222
0.152125
0.237677
0.244767
0.268727
0.291114
0.297749
0.235361
0.250178
0.267495
0.300245
0.355298
0.236882
0.248918
0.265808
0.303056
0.380829
0.235361
0.250178
0.267495
0.300245
0.355298
0.237677
0.244767
0.268727
0.291114
0.297749
0.185596
0.430145
0.302353
0.208323
0.243688
0.290661
0.327505
0.366363
0.392582
0.396839
0.379769
0.35103
0.317227
0.280269
0.240691
0.198892
0.155377
0.110838
0.0667583
0.032675
0.0485788
0.0925151
0.140829
0.190211
0.239877
0.289437
0.338676
0.3875
0.435824
0.483581
0.530423
0.575481
0.617876
0.655383
0.689402
0.716915
0.741307
0.756009
0.754145
1.68338
0.514418
0.72386
0.429175
0.122758
0.19983
0.285213
0.326093
0.365311
0.392233
0.396931
0.379927
0.351006
0.316986
0.279775
0.239881
0.197657
0.153518
0.107919
0.0614487
0.0190199
0.0407371
0.0888447
0.138635
0.188792
0.238958
0.288879
0.338399
0.387451
0.435965
0.483886
0.530854
0.576031
0.618475
0.656029
0.690009
0.717423
0.741756
0.756329
0.754285
1.68242
0.590149
0.789885
0.492444
0.0835343
0.176718
0.286099
0.328517
0.366629
0.393057
0.39752
0.380465
0.351367
0.317164
0.279788
0.239731
0.197324
0.152945
0.106959
0.0595912
0.0112685
0.0377798
0.0876119
0.137934
0.188375
0.238736
0.288814
0.338479
0.387676
0.436348
0.484454
0.531641
0.577104
0.619921
0.657932
0.69252
0.720558
0.745695
0.760732
0.758225
1.6863
0.514418
0.72386
0.429175
0.122758
0.19983
0.285213
0.326093
0.365311
0.392233
0.396931
0.379927
0.351006
0.316986
0.279775
0.239881
0.197657
0.153518
0.107919
0.0614487
0.0190199
0.0407371
0.0888447
0.138635
0.188792
0.238958
0.288879
0.338399
0.387451
0.435965
0.483886
0.530854
0.576031
0.618475
0.656029
0.690009
0.717423
0.741756
0.756329
0.754285
1.68242
0.185596
0.430145
0.302353
0.208323
0.243688
0.290661
0.327505
0.366363
0.392582
0.396839
0.379769
0.35103
0.317227
0.280269
0.240691
0.198892
0.155377
0.110838
0.0667583
0.032675
0.0485788
0.0925151
0.140829
0.190211
0.239877
0.289437
0.338676
0.3875
0.435824
0.483581
0.530423
0.575481
0.617876
0.655383
0.689402
0.716915
0.741307
0.756009
0.754145
1.68338
0.83461
0.302996
0.389212
0.368688
0.330393
0.32093
0.348987
0.382
0.403295
0.403609
0.386023
0.357382
0.323764
0.287146
0.248178
0.207433
0.16573
0.124499
0.0871588
0.0647782
0.0740386
0.108101
0.151746
0.198679
0.246911
0.295566
0.344211
0.392632
0.440689
0.488246
0.535009
0.579952
0.622488
0.660068
0.69442
0.722328
0.747259
0.762813
0.761444
1.68339
1.43534
0.734322
0.650816
0.528717
0.439008
0.395876
0.400286
0.415061
0.42447
0.419186
0.400082
0.371732
0.338959
0.303621
0.266574
0.228724
0.191378
0.156729
0.128802
0.114997
0.120326
0.143542
0.178788
0.220102
0.264537
0.310531
0.357236
0.404188
0.451113
0.497682
0.543758
0.587857
0.630111
0.667145
0.701423
0.729169
0.754162
0.770424
0.77019
1.68366
1.57367
0.865028
0.762333
0.612621
0.517599
0.472759
0.457814
0.455128
0.4539
0.442157
0.420881
0.3926
0.360899
0.327269
0.292678
0.258259
0.225518
0.19668
0.174993
0.165304
0.168916
0.185813
0.214242
0.249806
0.289773
0.332354
0.37643
0.421306
0.466597
0.511688
0.55676
0.599604
0.641438
0.677777
0.711978
0.739577
0.764837
0.782029
0.787167
1.70477
1.60588
0.909956
0.807624
0.67148
0.582371
0.541822
0.512321
0.500524
0.488502
0.47136
0.447794
0.419431
0.388745
0.356871
0.324754
0.29359
0.264828
0.24039
0.22271
0.215391
0.218029
0.230988
0.254472
0.285149
0.320847
0.359892
0.401096
0.443608
0.487011
0.530315
0.574229
0.61554
0.65682
0.692391
0.726399
0.753713
0.778943
0.796477
0.803142
1.69504
1.62057
0.933855
0.832503
0.715769
0.640648
0.601603
0.565848
0.545621
0.526314
0.504653
0.479207
0.450767
0.421015
0.390799
0.360951
0.332616
0.307063
0.285865
0.270868
0.265103
0.267102
0.277377
0.297277
0.324031
0.355976
0.391686
0.430036
0.470083
0.511496
0.552788
0.595483
0.635128
0.675775
0.710638
0.74453
0.77174
0.797141
0.815548
0.826315
1.71027
1.61812
0.948589
0.851971
0.756261
0.693703
0.65169
0.614686
0.588739
0.564955
0.540262
0.513605
0.485292
0.456462
0.427776
0.399922
0.373944
0.350914
0.332109
0.318983
0.314334
0.315871
0.324185
0.34143
0.365083
0.393859
0.426583
0.462256
0.499855
0.539281
0.578342
0.619683
0.657387
0.69703
0.730747
0.763824
0.790113
0.814361
0.831751
0.84671
1.70443
1.63717
0.970769
0.878397
0.797439
0.744353
0.700374
0.662932
0.633047
0.605698
0.578495
0.55075
0.522443
0.494344
0.466941
0.440742
0.416666
0.395599
0.378577
0.366803
0.363014
0.364194
0.370991
0.386219
0.40742
0.433567
0.463709
0.49702
0.532348
0.570047
0.607035
0.647417
0.68368
0.722893
0.756505
0.789802
0.816682
0.841226
0.859277
0.878639
1.71949
1.65722
0.987996
0.900795
0.832791
0.786494
0.740668
0.703981
0.672099
0.643236
0.615244
0.587607
0.560041
0.533081
0.507096
0.482475
0.460052
0.44059
0.424956
0.414206
0.411128
0.412021
0.417581
0.431218
0.450426
0.474332
0.502145
0.533205
0.566114
0.601863
0.636124
0.674851
0.708729
0.746205
0.778282
0.810208
0.835858
0.858922
0.875347
0.90296
1.71928
1.68052
1.01422
0.931493
0.872773
0.830661
0.784998
0.749172
0.715738
0.685379
0.656178
0.628014
0.600465
0.573988
0.54883
0.525271
0.504028
0.485741
0.471126
0.461138
0.458664
0.459317
0.463844
0.476238
0.49389
0.516028
0.542011
0.571399
0.602469
0.637202
0.669677
0.707907
0.740921
0.778095
0.810298
0.842445
0.868526
0.891595
0.907816
0.940344
1.72884
1.68571
1.03309
0.954933
0.90553
0.867075
0.82163
0.786498
0.752306
0.721525
0.692212
0.664654
0.638082
0.612919
0.589209
0.567136
0.547302
0.530282
0.51668
0.507431
0.50557
0.506016
0.509571
0.520808
0.536954
0.557263
0.581178
0.608513
0.636958
0.669956
0.699591
0.736135
0.767066
0.802785
0.833962
0.865546
0.890767
0.912996
0.927261
0.969444
1.73073
1.69677
1.05833
0.98404
0.942607
0.906208
0.861721
0.828183
0.793665
0.762965
0.733356
0.706039
0.679699
0.655038
0.631833
0.610355
0.591131
0.574713
0.56161
0.552758
0.551381
0.551647
0.554429
0.56492
0.580172
0.599428
0.62217
0.648582
0.67548
0.707969
0.735889
0.771836
0.801781
0.83699
0.867984
0.900074
0.925391
0.947632
0.960962
1.00827
1.73615
1.70331
1.08159
1.01023
0.975378
0.939419
0.897401
0.865198
0.829857
0.799957
0.769858
0.742953
0.716936
0.693077
0.67066
0.650144
0.631929
0.616487
0.604197
0.596006
0.595277
0.595364
0.597224
0.606714
0.620705
0.638467
0.659472
0.684522
0.709301
0.74101
0.766828
0.801964
0.830641
0.865132
0.895056
0.927154
0.951678
0.973376
0.98473
1.03906
1.73654
1.71495
1.10897
1.0397
1.00993
0.972244
0.935186
0.903512
0.86791
0.839067
0.808055
0.781791
0.75588
0.732614
0.710437
0.690253
0.672263
0.657029
0.644866
0.636805
0.636482
0.636439
0.637751
0.646925
0.660537
0.677766
0.69793
0.722495
0.745717
0.777236
0.801429
0.836092
0.864092
0.899019
0.929021
0.962619
0.987534
1.00944
1.01947
1.07461
1.73941
1.72161
1.13696
1.07032
1.04525
1.00662
0.972857
0.938646
0.90272
0.874708
0.842783
0.8172
0.790613
0.76762
0.745359
0.725355
0.707551
0.69253
0.680531
0.672691
0.672869
0.672617
0.673155
0.681781
0.694819
0.71141
0.730655
0.755021
0.776706
0.808508
0.831665
0.866401
0.893454
0.928489
0.957742
0.991355
1.01652
1.03826
1.04833
1.10424
1.73834
1.72938
1.16117
1.09662
1.07454
1.0367
1.00723
0.970334
0.936756
0.908893
0.87596
0.850767
0.82324
0.800885
0.778387
0.758414
0.740525
0.725466
0.713345
0.705465
0.706053
0.705711
0.705762
0.714251
0.727177
0.743594
0.762188
0.786743
0.806967
0.838954
0.86115
0.896178
0.922859
0.959144
0.988481
1.02431
1.0486
1.0704
1.07833
1.13123
1.7365
1.73018
1.18405
1.12262
1.1033
1.06618
1.03743
0.997914
0.965779
0.937112
0.903201
0.879511
0.850759
0.82869
0.805492
0.785432
0.767418
0.752304
0.740014
0.731947
0.732869
0.732385
0.731904
0.740281
0.753096
0.769356
0.787183
0.812272
0.831277
0.864008
0.885401
0.920883
0.9466
0.983357
1.01215
1.04729
1.07263
1.09414
1.10218
1.15137
1.72656
1.71916
1.1918
1.13442
1.11887
1.0851
1.0583
1.01868
0.989206
0.958143
0.925778
0.901954
0.871968
0.85141
0.828393
0.808854
0.790751
0.77547
0.762841
0.754639
0.756165
0.755665
0.754679
0.76319
0.776207
0.792603
0.809432
0.834717
0.851831
0.884487
0.904575
0.939886
0.96464
1.00146
1.03019
1.06494
1.08994
1.10913
1.11367
1.15766
1.70275
1.67921
1.18619
1.13238
1.12262
1.0929
1.0675
1.02845
1.0019
0.967623
0.939611
0.916076
0.886909
0.868026
0.84449
0.825554
0.806854
0.790867
0.777164
0.768159
0.769523
0.768969
0.768273
0.777638
0.79143
0.808899
0.825136
0.851399
0.867013
0.899751
0.918282
0.952889
0.975827
1.0114
1.03912
1.07232
1.09706
1.1133
1.1163
1.15338
1.64626
1.74216
1.14225
1.14305
1.14727
1.12797
1.10658
1.07156
1.04131
1.00274
0.970749
0.938615
0.904543
0.877462
0.848572
0.824112
0.801917
0.782759
0.769629
0.758994
0.761081
0.760798
0.759092
0.770471
0.783005
0.804793
0.824864
0.856057
0.880029
0.917443
0.946137
0.985446
1.01793
1.05594
1.08801
1.1202
1.14359
1.15415
1.15005
1.12872
1.71482
2.41446
1.731
1.64745
1.69611
1.71368
1.72156
1.72388
1.72668
1.72594
1.72834
1.72325
1.72195
1.71548
1.71168
1.70437
1.70104
1.68925
1.69585
1.67986
1.70028
1.70057
1.6785
1.69766
1.68473
1.70616
1.7007
1.71674
1.71658
1.72715
1.72961
1.73585
1.73632
1.73898
1.73694
1.73521
1.72643
1.70403
1.64707
1.70845
2.4027
2.41446
1.731
1.64745
1.69611
1.71368
1.72156
1.72388
1.72668
1.72594
1.72834
1.72325
1.72195
1.71548
1.71168
1.70437
1.70104
1.68925
1.69585
1.67986
1.70028
1.70057
1.6785
1.69766
1.68473
1.70616
1.7007
1.71674
1.71658
1.72715
1.72961
1.73585
1.73632
1.73898
1.73694
1.73521
1.72643
1.70403
1.64707
1.70845
2.4027
1.74216
1.14225
1.14305
1.14727
1.12797
1.10658
1.07156
1.04131
1.00274
0.970749
0.938615
0.904543
0.877462
0.848572
0.824112
0.801917
0.782759
0.769629
0.758994
0.761081
0.760798
0.759092
0.770471
0.783005
0.804793
0.824864
0.856057
0.880029
0.917443
0.946137
0.985446
1.01793
1.05594
1.08801
1.1202
1.14359
1.15415
1.15005
1.12872
1.71482
1.67921
1.18619
1.13238
1.12262
1.0929
1.0675
1.02845
1.0019
0.967623
0.939611
0.916076
0.886909
0.868026
0.84449
0.825554
0.806854
0.790867
0.777164
0.768159
0.769523
0.768969
0.768273
0.777638
0.79143
0.808899
0.825136
0.851399
0.867013
0.899751
0.918282
0.952889
0.975827
1.0114
1.03912
1.07232
1.09706
1.1133
1.1163
1.15338
1.64626
1.71916
1.1918
1.13442
1.11887
1.0851
1.0583
1.01868
0.989206
0.958143
0.925778
0.901954
0.871968
0.85141
0.828393
0.808854
0.790751
0.77547
0.762841
0.754639
0.756165
0.755665
0.754679
0.76319
0.776207
0.792603
0.809432
0.834717
0.851831
0.884487
0.904575
0.939886
0.96464
1.00146
1.03019
1.06494
1.08994
1.10913
1.11367
1.15766
1.70275
1.73018
1.18405
1.12262
1.1033
1.06618
1.03743
0.997914
0.965779
0.937112
0.903201
0.879511
0.850759
0.82869
0.805492
0.785432
0.767418
0.752304
0.740014
0.731947
0.732869
0.732385
0.731904
0.740281
0.753096
0.769356
0.787183
0.812272
0.831277
0.864008
0.885401
0.920883
0.9466
0.983357
1.01215
1.04729
1.07263
1.09414
1.10218
1.15137
1.72656
1.72938
1.16117
1.09662
1.07454
1.0367
1.00723
0.970334
0.936756
0.908893
0.87596
0.850767
0.82324
0.800885
0.778387
0.758414
0.740525
0.725466
0.713345
0.705465
0.706053
0.705711
0.705762
0.714251
0.727177
0.743594
0.762188
0.786743
0.806967
0.838954
0.86115
0.896178
0.922859
0.959144
0.988481
1.02431
1.0486
1.0704
1.07833
1.13123
1.7365
1.72161
1.13696
1.07032
1.04525
1.00662
0.972857
0.938646
0.90272
0.874708
0.842783
0.8172
0.790613
0.76762
0.745359
0.725355
0.707551
0.69253
0.680531
0.672691
0.672869
0.672617
0.673155
0.681781
0.694819
0.71141
0.730655
0.755021
0.776706
0.808508
0.831665
0.866401
0.893454
0.928489
0.957742
0.991355
1.01652
1.03826
1.04833
1.10424
1.73834
1.71495
1.10897
1.0397
1.00993
0.972244
0.935186
0.903512
0.86791
0.839067
0.808055
0.781791
0.75588
0.732614
0.710437
0.690253
0.672263
0.657029
0.644866
0.636805
0.636482
0.636439
0.637751
0.646925
0.660537
0.677766
0.69793
0.722495
0.745717
0.777236
0.801429
0.836092
0.864092
0.899019
0.929021
0.962619
0.987534
1.00944
1.01947
1.07461
1.73941
1.70331
1.08159
1.01023
0.975378
0.939419
0.897401
0.865198
0.829857
0.799957
0.769858
0.742953
0.716936
0.693077
0.67066
0.650144
0.631929
0.616487
0.604197
0.596006
0.595277
0.595364
0.597224
0.606714
0.620705
0.638467
0.659472
0.684522
0.709301
0.74101
0.766828
0.801964
0.830641
0.865132
0.895056
0.927154
0.951678
0.973376
0.98473
1.03906
1.73654
1.69677
1.05833
0.98404
0.942607
0.906208
0.861721
0.828183
0.793665
0.762965
0.733356
0.706039
0.679699
0.655038
0.631833
0.610355
0.591131
0.574713
0.56161
0.552758
0.551381
0.551647
0.554429
0.56492
0.580172
0.599428
0.62217
0.648582
0.67548
0.707969
0.735889
0.771836
0.801781
0.83699
0.867984
0.900074
0.925391
0.947632
0.960962
1.00827
1.73615
1.68571
1.03309
0.954933
0.90553
0.867075
0.82163
0.786498
0.752306
0.721525
0.692212
0.664654
0.638082
0.612919
0.589209
0.567136
0.547302
0.530282
0.51668
0.507431
0.50557
0.506016
0.509571
0.520808
0.536954
0.557263
0.581178
0.608513
0.636958
0.669956
0.699591
0.736135
0.767066
0.802785
0.833962
0.865546
0.890767
0.912996
0.927261
0.969444
1.73073
1.68052
1.01422
0.931493
0.872773
0.830661
0.784998
0.749172
0.715738
0.685379
0.656178
0.628014
0.600465
0.573988
0.54883
0.525271
0.504028
0.485741
0.471126
0.461138
0.458664
0.459317
0.463844
0.476238
0.49389
0.516028
0.542011
0.571399
0.602469
0.637202
0.669677
0.707907
0.740921
0.778095
0.810298
0.842445
0.868526
0.891595
0.907816
0.940344
1.72884
1.65722
0.987996
0.900795
0.832791
0.786494
0.740668
0.703981
0.672099
0.643236
0.615244
0.587607
0.560041
0.533081
0.507096
0.482475
0.460052
0.44059
0.424956
0.414206
0.411128
0.412021
0.417581
0.431218
0.450426
0.474332
0.502145
0.533205
0.566114
0.601863
0.636124
0.674851
0.708729
0.746205
0.778282
0.810208
0.835858
0.858922
0.875347
0.90296
1.71928
1.63717
0.970769
0.878397
0.797439
0.744353
0.700374
0.662932
0.633047
0.605698
0.578495
0.55075
0.522443
0.494344
0.466941
0.440742
0.416666
0.395599
0.378577
0.366803
0.363014
0.364194
0.370991
0.386219
0.40742
0.433567
0.463709
0.49702
0.532348
0.570047
0.607035
0.647417
0.68368
0.722893
0.756505
0.789802
0.816682
0.841226
0.859277
0.878639
1.71949
1.61812
0.948589
0.851971
0.756261
0.693703
0.65169
0.614686
0.588739
0.564955
0.540262
0.513605
0.485292
0.456462
0.427776
0.399922
0.373944
0.350914
0.332109
0.318983
0.314334
0.315871
0.324185
0.34143
0.365083
0.393859
0.426583
0.462256
0.499855
0.539281
0.578342
0.619683
0.657387
0.69703
0.730747
0.763824
0.790113
0.814361
0.831751
0.84671
1.70443
1.62057
0.933855
0.832503
0.715769
0.640648
0.601603
0.565848
0.545621
0.526314
0.504653
0.479207
0.450767
0.421015
0.390799
0.360951
0.332616
0.307063
0.285865
0.270868
0.265103
0.267102
0.277377
0.297277
0.324031
0.355976
0.391686
0.430036
0.470083
0.511496
0.552788
0.595483
0.635128
0.675775
0.710638
0.74453
0.77174
0.797141
0.815548
0.826315
1.71027
1.60588
0.909956
0.807624
0.67148
0.582371
0.541822
0.512321
0.500524
0.488502
0.47136
0.447794
0.419431
0.388745
0.356871
0.324754
0.29359
0.264828
0.24039
0.22271
0.215391
0.218029
0.230988
0.254472
0.285149
0.320847
0.359892
0.401096
0.443608
0.487011
0.530315
0.574229
0.61554
0.65682
0.692391
0.726399
0.753713
0.778943
0.796477
0.803142
1.69504
1.57367
0.865028
0.762333
0.612621
0.517599
0.472759
0.457814
0.455128
0.4539
0.442157
0.420881
0.3926
0.360899
0.327269
0.292678
0.258259
0.225518
0.19668
0.174993
0.165304
0.168916
0.185813
0.214242
0.249806
0.289773
0.332354
0.37643
0.421306
0.466597
0.511688
0.55676
0.599604
0.641438
0.677777
0.711978
0.739577
0.764837
0.782029
0.787167
1.70477
1.43534
0.734322
0.650816
0.528717
0.439008
0.395876
0.400286
0.415061
0.42447
0.419186
0.400082
0.371732
0.338959
0.303621
0.266574
0.228724
0.191378
0.156729
0.128802
0.114997
0.120326
0.143542
0.178788
0.220102
0.264537
0.310531
0.357236
0.404188
0.451113
0.497682
0.543758
0.587857
0.630111
0.667145
0.701423
0.729169
0.754162
0.770424
0.77019
1.68366
0.83461
0.302996
0.389212
0.368688
0.330393
0.32093
0.348987
0.382
0.403295
0.403609
0.386023
0.357382
0.323764
0.287146
0.248178
0.207433
0.16573
0.124499
0.0871588
0.0647782
0.0740386
0.108101
0.151746
0.198679
0.246911
0.295566
0.344211
0.392632
0.440689
0.488246
0.535009
0.579952
0.622488
0.660068
0.69442
0.722328
0.747259
0.762813
0.761444
1.68339
)
;

boundaryField
{
    inlet
    {
        type            calculated;
        value           uniform 0;
    }
    outlet
    {
        type            calculated;
        value           nonuniform List<scalar> 
165
(
0.83461
1.43534
1.57367
1.60588
1.62057
1.61812
1.63717
1.65722
1.68052
1.68571
1.69677
1.70331
1.71495
1.72161
1.72938
1.73018
1.71916
1.67921
1.74216
2.41446
2.41446
1.731
1.64745
1.69611
1.71368
1.72156
1.72388
1.72668
1.72594
1.72834
1.72325
1.72195
1.71548
1.71168
1.70437
1.70104
1.68925
1.69585
1.67986
1.70028
1.70057
1.6785
1.69766
1.68473
1.70616
1.7007
1.71674
1.71658
1.72715
1.72961
1.73585
1.73632
1.73898
1.73694
1.73521
1.72643
1.70403
1.64707
1.70845
2.4027
1.68339
1.68366
1.70477
1.69504
1.71027
1.70443
1.71949
1.71928
1.72884
1.73073
1.73615
1.73654
1.73941
1.73834
1.7365
1.72656
1.70275
1.64626
1.71482
2.4027
1.68338
1.68242
1.6863
1.68242
1.68338
2.4027
1.71482
1.64626
1.70275
1.72656
1.7365
1.73834
1.73941
1.73654
1.73615
1.73073
1.72884
1.71928
1.71949
1.70443
1.71027
1.69504
1.70477
1.68366
1.68339
2.41446
1.731
1.64745
1.69611
1.71368
1.72156
1.72388
1.72668
1.72594
1.72834
1.72325
1.72195
1.71548
1.71168
1.70437
1.70104
1.68925
1.69585
1.67986
1.70028
1.70057
1.6785
1.69766
1.68473
1.70616
1.7007
1.71674
1.71658
1.72715
1.72961
1.73585
1.73632
1.73898
1.73694
1.73521
1.72643
1.70403
1.64707
1.70845
2.4027
2.41446
1.74216
1.67921
1.71916
1.73018
1.72938
1.72161
1.71495
1.70331
1.69677
1.68571
1.68052
1.65722
1.63717
1.61812
1.62057
1.60588
1.57367
1.43534
0.83461
)
;
    }
    obstacle
    {
        type            calculated;
        value           nonuniform List<scalar> 
40
(
0.755394
0.106228
0.054663
0.0442757
0.0355367
0.0255633
0.0170645
0.00923844
0.00122794
0.00682124
0.755394
0.106228
0.054663
0.0442757
0.0355367
0.0255633
0.0170645
0.00923844
0.00122794
0.00682124
0.0144225
0.0281189
0.0505373
0.0866889
0.146765
0.0144225
0.0281189
0.0505373
0.0866889
0.146765
0.236651
0.244604
0.268605
0.290563
0.294963
0.236651
0.244604
0.268605
0.290563
0.294963
)
;
    }
    empty
    {
        type            empty;
    }
}


// ************************************************************************* //
