/*--------------------------------*- C++ -*----------------------------------*\
| =========                 |                                                 |
| \\      /  F ield         | OpenFOAM: The Open Source CFD Toolbox           |
|  \\    /   O peration     | Version:  v1912                                 |
|   \\  /    A nd           | Website:  www.openfoam.com                      |
|    \\/     M anipulation  |                                                 |
\*---------------------------------------------------------------------------*/
FoamFile
{
    version     2.0;
    format      ascii;
    class       volScalarField;
    location    "4.34";
    object      p;
}
// * * * * * * * * * * * * * * * * * * * * * * * * * * * * * * * * * * * * * //

dimensions      [1 -1 -2 0 0 0 0];


internalField   nonuniform List<scalar> 
1900
(
32808
12780.9
11189.3
11103.9
10936.9
10745.5
10542.9
10333
10136.8
9953.51
32807.9
12781.1
11189.4
11104.1
10937.4
10746.3
10544.6
10336.1
10128.4
9933.18
32807.9
12781.2
11189.4
11104.1
10937.2
10745.3
10542.3
10331.4
10120.5
9925.42
32807.9
12781.1
11189.4
11104.1
10937.4
10746.3
10544.6
10336.1
10128.4
9933.18
32808
12780.9
11189.3
11103.9
10936.9
10745.5
10542.9
10333
10136.8
9953.51
9856.79
9719.43
9551.9
9313.14
9212.82
9767.08
9593.59
9403.63
9171.05
8880.79
9753.38
9586.94
9386.12
9155.88
8916.54
9767.08
9593.59
9403.63
9171.05
8880.79
9856.79
9719.43
9551.9
9313.14
9212.82
7610.78
6880.79
6191.2
5513.8
4878.55
7748.56
6934.34
6230.31
5556.64
4885.25
7747.01
6929.82
6231.45
5544.96
4822.91
7748.56
6934.34
6230.31
5556.64
4885.25
7610.78
6880.79
6191.2
5513.8
4878.55
3759.44
2141.91
2405.84
2641.53
2526.16
2380.66
2230.21
2045.73
1898.12
1775.36
1710.04
1668.91
1637.65
1611.82
1590.58
1573.32
1559.33
1547.92
1538.69
1530.98
1524.78
1519.81
1515.6
1512.25
1509.62
1507.71
1506.48
1505.83
1505.44
1505.18
1504.5
1505.4
1506.53
1512.55
1517.1
1525.78
1529.77
1530.84
1766.38
7216.01
3742.01
2236.98
2438.1
2679.15
2549.7
2389.66
2235.29
2048.33
1899.08
1775.52
1710.16
1669
1637.74
1611.89
1590.63
1573.35
1559.36
1547.95
1538.72
1530.99
1524.8
1519.82
1515.6
1512.26
1509.62
1507.71
1506.48
1505.83
1505.43
1505.16
1504.48
1505.37
1506.5
1512.59
1517.17
1525.99
1530.04
1531.23
1766.66
7219.77
3707.3
2415.86
2580.39
2735.53
2567.63
2393.85
2237.67
2049.29
1899.73
1775.53
1710.26
1669.05
1637.79
1611.93
1590.66
1573.38
1559.38
1547.97
1538.73
1531.01
1524.81
1519.83
1515.61
1512.27
1509.63
1507.72
1506.49
1505.84
1505.45
1505.18
1504.52
1505.43
1506.62
1512.82
1517.59
1526.72
1531.24
1532.94
1768.41
7312.3
3742.01
2236.98
2438.1
2679.15
2549.7
2389.66
2235.29
2048.33
1899.08
1775.52
1710.16
1669
1637.74
1611.89
1590.63
1573.35
1559.36
1547.95
1538.72
1530.99
1524.8
1519.82
1515.6
1512.26
1509.62
1507.71
1506.48
1505.83
1505.43
1505.16
1504.48
1505.37
1506.5
1512.59
1517.17
1525.99
1530.04
1531.23
1766.66
7219.77
3759.44
2141.91
2405.84
2641.53
2526.16
2380.66
2230.21
2045.73
1898.12
1775.36
1710.04
1668.91
1637.65
1611.82
1590.58
1573.32
1559.33
1547.92
1538.69
1530.98
1524.78
1519.81
1515.6
1512.25
1509.62
1507.71
1506.48
1505.83
1505.44
1505.18
1504.5
1505.4
1506.53
1512.55
1517.1
1525.78
1529.77
1530.84
1766.38
7216.01
3689.29
1881.99
2163.55
2478.36
2453.21
2346.46
2208.85
2034.22
1888.53
1772.93
1708.84
1667.92
1636.74
1611.08
1590
1572.86
1558.95
1547.59
1538.39
1530.7
1524.52
1519.57
1515.36
1512.02
1509.38
1507.46
1506.21
1505.55
1505.13
1504.89
1504.2
1505.11
1506.22
1512.04
1516.57
1524.86
1528.96
1529.52
1767.88
7537.49
3942.1
1645.1
1983.09
2250.02
2309.61
2258.16
2152.12
2001.02
1865.43
1766.02
1705.46
1665.5
1634.64
1609.4
1588.71
1571.83
1558.08
1546.82
1537.7
1530.07
1523.95
1519.04
1514.86
1511.53
1508.9
1506.96
1505.69
1505
1504.56
1504.36
1503.68
1504.64
1505.68
1511.09
1515.44
1522.87
1526.82
1526.5
1754.57
7123.37
4321.51
1584.95
1886.87
2100.73
2188.07
2163.96
2077.82
1953.41
1838.31
1753.67
1699.64
1661.47
1631.46
1606.92
1586.8
1570.31
1556.8
1545.7
1536.71
1529.17
1523.13
1518.29
1514.15
1510.85
1508.21
1506.25
1504.93
1504.19
1503.69
1503.56
1502.89
1503.87
1504.81
1509.57
1513.65
1519.87
1523.47
1522.05
1739.78
7015.53
4571.72
1579.12
1820.51
1999.57
2086.61
2070.75
1999.12
1902.63
1808.2
1739.4
1691.67
1656.05
1627.4
1603.87
1584.47
1568.45
1555.26
1544.38
1535.55
1528.15
1522.23
1517.47
1513.39
1510.12
1507.47
1505.46
1504.06
1503.27
1502.69
1502.64
1501.97
1502.97
1503.73
1507.72
1511.41
1516.4
1519.49
1517.59
1732.13
6897.59
4840.22
1573.23
1784.03
1917.08
1997.39
1982.85
1925.07
1852.31
1779.15
1723.71
1682.31
1649.59
1622.72
1600.42
1581.87
1566.41
1553.59
1542.99
1534.39
1527.17
1521.39
1516.75
1512.73
1509.48
1506.81
1504.74
1503.22
1502.34
1501.65
1501.69
1500.99
1501.93
1502.4
1505.47
1508.56
1512.29
1514.53
1512.5
1719.84
6781.93
5062.97
1562.5
1742.33
1846.08
1915.84
1904.64
1863.04
1808.13
1752.97
1708.48
1672.53
1642.77
1617.82
1596.83
1579.17
1564.31
1551.92
1541.66
1533.34
1526.33
1520.73
1516.22
1512.27
1509.04
1506.33
1504.19
1502.55
1501.6
1500.82
1501.03
1500.37
1501.32
1501.59
1503.85
1506.47
1509.35
1511.07
1509.33
1709.99
6618.18
5418.38
1550.05
1705
1787.2
1842.35
1836.99
1809.17
1769.44
1728.59
1693.11
1662.18
1635.52
1612.64
1593.05
1576.33
1562.13
1550.23
1540.37
1532.39
1525.64
1520.25
1515.89
1512.02
1508.8
1506.03
1503.78
1501.96
1500.92
1500
1500.34
1499.62
1500.42
1500.32
1501.57
1503.42
1505.43
1506.55
1505.7
1697.1
6478.4
5166.54
1528.25
1665.38
1731.68
1777.85
1781.56
1765.33
1739.03
1709.16
1680.41
1653.47
1629.37
1608.12
1589.61
1573.62
1559.99
1548.55
1539.1
1531.48
1525.01
1519.86
1515.68
1511.9
1508.73
1505.95
1503.67
1501.79
1500.9
1500.09
1500.83
1500.28
1501.11
1500.8
1501.13
1502.16
1503.52
1504.15
1503.51
1677.6
6276.6
5069.76
1508.62
1631.81
1686.72
1726.1
1736.23
1728.31
1712.59
1690.65
1667.39
1644.09
1622.52
1602.89
1585.49
1570.31
1557.31
1546.42
1537.44
1530.24
1524.09
1519.2
1515.21
1511.53
1508.4
1505.6
1503.26
1501.27
1500.48
1499.7
1500.69
1500.1
1500.7
1499.89
1499
1498.56
1499.12
1499.04
1499.39
1656.22
6080.72
4940.52
1489.78
1600.46
1646.43
1683.42
1698.51
1698.73
1691.38
1675.82
1657.21
1636.99
1617.52
1599.04
1582.35
1567.62
1554.99
1544.44
1535.79
1528.91
1523.05
1518.45
1514.73
1511.27
1508.34
1505.7
1503.56
1501.71
1501.31
1500.77
1502.15
1501.67
1502.12
1500.86
1498.72
1496.52
1496.26
1495.24
1495
1614.95
5818.94
4802.25
1474.32
1576.27
1615.16
1650.69
1667.76
1674
1671.68
1660.59
1645.77
1628.26
1610.84
1593.54
1577.78
1563.73
1551.7
1541.66
1533.49
1527.06
1521.54
1517.23
1513.77
1510.47
1507.67
1505.06
1502.96
1501.05
1500.79
1500.2
1501.64
1500.91
1500.89
1499.03
1495.67
1491.75
1490.72
1489.38
1489.43
1571.76
5546.52
4624.2
1455.04
1549.78
1584.48
1621.5
1639.83
1651.09
1653.48
1646.21
1635.62
1620.81
1605.56
1589.47
1574.79
1561.54
1550.22
1540.81
1533.2
1527.23
1522.05
1518.07
1514.89
1511.77
1509.07
1506.45
1504.3
1502.16
1501.81
1500.92
1502.2
1500.89
1499.84
1496.53
1491.02
1484.21
1481.17
1478.72
1477.08
1512.82
5228.72
4399.52
1435.46
1525.28
1558.47
1595.84
1616.34
1631.46
1637.06
1632.74
1625.85
1613.25
1599.99
1584.94
1571.42
1559.17
1548.82
1540.22
1533.26
1527.83
1523.02
1519.35
1516.43
1513.4
1510.68
1507.9
1505.58
1503.07
1502.54
1501.22
1502.14
1499.98
1497.48
1492.57
1484.83
1475.65
1470.76
1467.66
1464.57
1466.28
4876.47
4144.04
1415.9
1502.24
1539.01
1571.25
1591.51
1610.19
1618.62
1619.63
1616
1605.67
1594.84
1581.34
1569.72
1559.04
1550.3
1543.15
1537.49
1533.1
1528.96
1525.65
1522.74
1519.33
1516.01
1512.42
1509.34
1505.82
1504.49
1502
1501.88
1498.51
1494.33
1487.39
1476.55
1463.69
1454.27
1448.72
1444.93
1423.82
4486.99
3860.94
1388.98
1471.03
1510.31
1544.45
1571.08
1592.73
1602.87
1607.35
1607.39
1599.85
1591.12
1578.68
1568.48
1558.91
1551.43
1545.4
1540.61
1536.9
1533.19
1530.25
1527.64
1524.29
1520.84
1516.87
1513.46
1509.34
1507.5
1503.87
1502.36
1497.31
1490.27
1480.85
1466.44
1451.21
1437.03
1426.84
1421.75
1388.44
4080.25
3556.77
1369.76
1448.19
1487.44
1521.28
1556.64
1577.71
1589.85
1601.89
1601.31
1594.03
1586.9
1575.91
1567.48
1559.52
1553.85
1549.62
1546.59
1544.32
1541.38
1538.65
1535.68
1531.43
1526.93
1521.82
1517.61
1512.64
1510.28
1505.94
1503.75
1498.39
1489.92
1479.54
1461.27
1441.8
1421.07
1407.87
1402.75
1367.4
3674.29
3349.5
1361.36
1433.55
1468.34
1507.31
1548.74
1571.03
1586.6
1601.58
1597.55
1592.81
1585.29
1573.48
1565.55
1558.31
1554.24
1551.49
1549.73
1548.11
1545.74
1543.64
1540.72
1536.04
1530.91
1524.88
1520.04
1514.45
1511.63
1506.6
1503.22
1497.29
1486.71
1475.38
1454.8
1432.48
1409.37
1391.92
1388.2
1358.11
3404.81
3101.45
1373.16
1439.02
1465.47
1499.76
1539.32
1562.17
1583.15
1593.95
1592.34
1588.51
1580.09
1568.56
1561.13
1554.33
1551.35
1549.65
1549.11
1548.84
1547.25
1544.9
1541.34
1535.88
1530.29
1523.92
1519.22
1514.2
1511.22
1506.86
1502.73
1497.33
1485.4
1473.33
1451.58
1427.11
1404.07
1388.13
1385.74
1365.67
3078.63
5438.72
1552.27
1479.95
1477.92
1500.72
1541.77
1586.85
1649.25
1701.67
1745.42
1777.82
1792.51
1801.34
1804.38
1805.65
1805.09
1805.85
1800.87
1800.98
1794.22
1791.52
1793.54
1787.77
1787.71
1777.97
1770.34
1758.33
1741.61
1723.55
1688.88
1656.32
1591.1
1537.17
1476.4
1425.72
1388.85
1372.03
1377.86
1494.78
5241.9
47054.7
5725.91
3591.59
3945.65
4240.3
4653.39
5025.69
5384.39
5679.87
5954.55
6202.75
6409.15
6600.55
6763.8
6902.67
7024.45
7130.74
7230.3
7267.82
7296.79
7290.66
7241.63
7203.72
7066.56
6961.99
6782.48
6628.84
6409.35
6197.04
5912.56
5627.63
5298.76
4948.85
4563.37
4159.9
3740.18
3452.37
3095.66
5120.56
42875.1
47054.7
5725.91
3591.59
3945.65
4240.3
4653.39
5025.69
5384.39
5679.87
5954.55
6202.75
6409.15
6600.55
6763.8
6902.67
7024.45
7130.74
7230.3
7267.82
7296.79
7290.66
7241.63
7203.72
7066.56
6961.99
6782.48
6628.84
6409.35
6197.04
5912.56
5627.63
5298.76
4948.85
4563.37
4159.9
3740.18
3452.37
3095.66
5120.56
42875.1
5438.72
1552.27
1479.95
1477.92
1500.72
1541.77
1586.85
1649.25
1701.67
1745.42
1777.82
1792.51
1801.34
1804.38
1805.65
1805.09
1805.85
1800.87
1800.98
1794.22
1791.52
1793.54
1787.77
1787.71
1777.97
1770.34
1758.33
1741.61
1723.55
1688.88
1656.32
1591.1
1537.17
1476.4
1425.72
1388.85
1372.03
1377.86
1494.78
5241.9
3101.45
1373.16
1439.02
1465.47
1499.76
1539.32
1562.17
1583.15
1593.95
1592.34
1588.51
1580.09
1568.56
1561.13
1554.33
1551.35
1549.65
1549.11
1548.84
1547.25
1544.9
1541.34
1535.88
1530.29
1523.92
1519.22
1514.2
1511.22
1506.86
1502.73
1497.33
1485.4
1473.33
1451.58
1427.11
1404.07
1388.13
1385.74
1365.67
3078.63
3349.5
1361.36
1433.55
1468.34
1507.31
1548.74
1571.03
1586.6
1601.58
1597.55
1592.81
1585.29
1573.48
1565.55
1558.31
1554.24
1551.49
1549.73
1548.11
1545.74
1543.64
1540.72
1536.04
1530.91
1524.88
1520.04
1514.45
1511.63
1506.6
1503.22
1497.29
1486.71
1475.38
1454.8
1432.48
1409.37
1391.92
1388.2
1358.11
3404.81
3556.77
1369.76
1448.19
1487.44
1521.28
1556.64
1577.71
1589.85
1601.89
1601.31
1594.03
1586.9
1575.91
1567.48
1559.52
1553.85
1549.62
1546.59
1544.32
1541.38
1538.65
1535.68
1531.43
1526.93
1521.82
1517.61
1512.64
1510.28
1505.94
1503.75
1498.39
1489.92
1479.54
1461.27
1441.8
1421.07
1407.87
1402.75
1367.4
3674.29
3860.94
1388.98
1471.03
1510.31
1544.45
1571.08
1592.73
1602.87
1607.35
1607.39
1599.85
1591.12
1578.68
1568.48
1558.91
1551.43
1545.4
1540.61
1536.9
1533.19
1530.25
1527.64
1524.29
1520.84
1516.87
1513.46
1509.34
1507.5
1503.87
1502.36
1497.31
1490.27
1480.85
1466.44
1451.21
1437.03
1426.84
1421.75
1388.44
4080.25
4144.04
1415.9
1502.24
1539.01
1571.25
1591.51
1610.19
1618.62
1619.63
1616
1605.67
1594.84
1581.34
1569.72
1559.04
1550.3
1543.15
1537.49
1533.1
1528.96
1525.65
1522.74
1519.33
1516.01
1512.42
1509.34
1505.82
1504.49
1502
1501.88
1498.51
1494.33
1487.39
1476.55
1463.69
1454.27
1448.72
1444.93
1423.82
4486.99
4399.52
1435.46
1525.28
1558.47
1595.84
1616.34
1631.46
1637.06
1632.74
1625.85
1613.25
1599.99
1584.94
1571.42
1559.17
1548.82
1540.22
1533.26
1527.83
1523.02
1519.35
1516.43
1513.4
1510.68
1507.9
1505.58
1503.07
1502.54
1501.22
1502.14
1499.98
1497.48
1492.57
1484.83
1475.65
1470.76
1467.66
1464.57
1466.28
4876.47
4624.2
1455.04
1549.78
1584.48
1621.5
1639.83
1651.09
1653.48
1646.21
1635.62
1620.81
1605.56
1589.47
1574.79
1561.54
1550.22
1540.81
1533.2
1527.23
1522.05
1518.07
1514.89
1511.77
1509.07
1506.45
1504.3
1502.16
1501.81
1500.92
1502.2
1500.89
1499.84
1496.53
1491.02
1484.21
1481.17
1478.72
1477.08
1512.82
5228.72
4802.25
1474.32
1576.27
1615.16
1650.69
1667.76
1674
1671.68
1660.59
1645.77
1628.26
1610.84
1593.54
1577.78
1563.73
1551.7
1541.66
1533.49
1527.06
1521.54
1517.23
1513.77
1510.47
1507.67
1505.06
1502.96
1501.05
1500.79
1500.2
1501.64
1500.91
1500.89
1499.03
1495.67
1491.75
1490.72
1489.38
1489.43
1571.76
5546.52
4940.52
1489.78
1600.46
1646.43
1683.42
1698.51
1698.73
1691.38
1675.82
1657.21
1636.99
1617.52
1599.04
1582.35
1567.62
1554.99
1544.44
1535.79
1528.91
1523.05
1518.45
1514.73
1511.27
1508.34
1505.7
1503.56
1501.71
1501.31
1500.77
1502.15
1501.67
1502.12
1500.86
1498.72
1496.52
1496.26
1495.24
1495
1614.95
5818.94
5069.76
1508.62
1631.81
1686.72
1726.1
1736.23
1728.31
1712.59
1690.65
1667.39
1644.09
1622.52
1602.89
1585.49
1570.31
1557.31
1546.42
1537.44
1530.24
1524.09
1519.2
1515.21
1511.53
1508.4
1505.6
1503.26
1501.27
1500.48
1499.7
1500.69
1500.1
1500.7
1499.89
1499
1498.56
1499.12
1499.04
1499.39
1656.22
6080.72
5166.54
1528.25
1665.38
1731.68
1777.85
1781.56
1765.33
1739.03
1709.16
1680.41
1653.47
1629.37
1608.12
1589.61
1573.62
1559.99
1548.55
1539.1
1531.48
1525.01
1519.86
1515.68
1511.9
1508.73
1505.95
1503.67
1501.79
1500.9
1500.09
1500.83
1500.28
1501.11
1500.8
1501.13
1502.16
1503.52
1504.15
1503.51
1677.6
6276.6
5418.38
1550.05
1705
1787.2
1842.35
1836.99
1809.17
1769.44
1728.59
1693.11
1662.18
1635.52
1612.64
1593.05
1576.33
1562.13
1550.23
1540.37
1532.39
1525.64
1520.25
1515.89
1512.02
1508.8
1506.03
1503.78
1501.96
1500.92
1500
1500.34
1499.62
1500.42
1500.32
1501.57
1503.42
1505.43
1506.55
1505.7
1697.1
6478.4
5062.97
1562.5
1742.33
1846.08
1915.84
1904.64
1863.04
1808.13
1752.97
1708.48
1672.53
1642.77
1617.82
1596.83
1579.17
1564.31
1551.92
1541.66
1533.34
1526.33
1520.73
1516.22
1512.27
1509.04
1506.33
1504.19
1502.55
1501.6
1500.82
1501.03
1500.37
1501.32
1501.59
1503.85
1506.47
1509.35
1511.07
1509.33
1709.99
6618.18
4840.22
1573.23
1784.03
1917.08
1997.39
1982.85
1925.07
1852.31
1779.15
1723.71
1682.31
1649.59
1622.72
1600.42
1581.87
1566.41
1553.59
1542.99
1534.39
1527.17
1521.39
1516.75
1512.73
1509.48
1506.81
1504.74
1503.22
1502.34
1501.65
1501.69
1500.99
1501.93
1502.4
1505.47
1508.56
1512.29
1514.53
1512.5
1719.84
6781.93
4571.72
1579.12
1820.51
1999.57
2086.61
2070.75
1999.12
1902.63
1808.2
1739.4
1691.67
1656.05
1627.4
1603.87
1584.47
1568.45
1555.26
1544.38
1535.55
1528.15
1522.23
1517.47
1513.39
1510.12
1507.47
1505.46
1504.06
1503.27
1502.69
1502.64
1501.97
1502.97
1503.73
1507.72
1511.41
1516.4
1519.49
1517.59
1732.13
6897.59
4321.51
1584.95
1886.87
2100.73
2188.07
2163.96
2077.82
1953.41
1838.31
1753.67
1699.64
1661.47
1631.46
1606.92
1586.8
1570.31
1556.8
1545.7
1536.71
1529.17
1523.13
1518.29
1514.15
1510.85
1508.21
1506.25
1504.93
1504.19
1503.69
1503.56
1502.89
1503.87
1504.81
1509.57
1513.65
1519.87
1523.47
1522.05
1739.78
7015.53
3942.1
1645.1
1983.09
2250.02
2309.61
2258.16
2152.12
2001.02
1865.43
1766.02
1705.46
1665.5
1634.64
1609.4
1588.71
1571.83
1558.08
1546.82
1537.7
1530.07
1523.95
1519.04
1514.86
1511.53
1508.9
1506.96
1505.69
1505
1504.56
1504.36
1503.68
1504.64
1505.68
1511.09
1515.44
1522.87
1526.82
1526.5
1754.57
7123.37
3689.29
1881.99
2163.55
2478.36
2453.21
2346.46
2208.85
2034.22
1888.53
1772.93
1708.84
1667.92
1636.74
1611.08
1590
1572.86
1558.95
1547.59
1538.39
1530.7
1524.52
1519.57
1515.36
1512.02
1509.38
1507.46
1506.21
1505.55
1505.13
1504.89
1504.2
1505.11
1506.22
1512.04
1516.57
1524.86
1528.96
1529.52
1767.88
7537.49
)
;

boundaryField
{
    inlet
    {
        type            fixedValue;
        value           uniform 10000;
    }
    outlet
    {
        type            fixedValue;
        value           uniform 1000;
    }
    obstacle
    {
        type            zeroGradient;
    }
    empty
    {
        type            empty;
    }
}


// ************************************************************************* //
