/*--------------------------------*- C++ -*----------------------------------*\
| =========                 |                                                 |
| \\      /  F ield         | OpenFOAM: The Open Source CFD Toolbox           |
|  \\    /   O peration     | Version:  v1912                                 |
|   \\  /    A nd           | Website:  www.openfoam.com                      |
|    \\/     M anipulation  |                                                 |
\*---------------------------------------------------------------------------*/
FoamFile
{
    version     2.0;
    format      ascii;
    class       volVectorField;
    location    "7.58";
    object      grad(p);
}
// * * * * * * * * * * * * * * * * * * * * * * * * * * * * * * * * * * * * * //

dimensions      [1 -2 -2 0 0 0 0];


internalField   nonuniform List<vector> 
1900
(
(51539.6 -0.322187 0)
(-63156.5 0.474742 0)
(-2814.46 0.172375 0)
(-452.181 0.937272 0)
(-384.382 -0.403095 0)
(-363.246 1.58226 0)
(-405.972 0.352268 0)
(-324.081 10.1607 0)
(-229.352 41.796 0)
(609.273 16.7978 0)
(51539.7 -0.626381 0)
(-63156 0.871068 0)
(-2814 0.186521 0)
(-452.756 1.61357 0)
(-383.737 -0.246804 0)
(-362.491 2.6828 0)
(-397.394 -1.59801 0)
(-282.637 7.47542 0)
(-222.715 5.39484 0)
(-267.47 -45.7406 0)
(51539.8 -1.49214e-09 0)
(-63155.6 -7.28306e-10 0)
(-2813.72 -1.35003e-09 0)
(-452.614 3.55271e-10 0)
(-383.313 1.13687e-09 0)
(-364.597 2.66454e-10 0)
(-401.18 -7.63833e-10 0)
(-317.088 -2.66454e-10 0)
(-282.568 -5.15143e-10 0)
(-400.649 -1.10134e-09 0)
(51539.7 0.626381 0)
(-63156 -0.871068 0)
(-2814 -0.186521 0)
(-452.756 -1.61357 0)
(-383.737 0.246804 0)
(-362.491 -2.6828 0)
(-397.394 1.59801 0)
(-282.637 -7.47542 0)
(-222.715 -5.39484 0)
(-267.47 45.7406 0)
(51539.6 0.322187 0)
(-63156.5 -0.474742 0)
(-2814.46 -0.172375 0)
(-452.181 -0.937272 0)
(-384.382 0.403095 0)
(-363.246 -1.58226 0)
(-405.972 -0.352268 0)
(-324.081 -10.1607 0)
(-229.352 -41.796 0)
(609.273 -16.7978 0)
(-155.202 -714.338 8.35617e-12)
(-1594.52 -531.998 -9.80953e-12)
(-1515.91 -615.793 -1.23413e-11)
(709.709 -837.525 0)
(-18229.4 -7641.88 -5.3736e-11)
(-635.665 -874.383 8.22708e-12)
(-1073.69 -651.617 9.80953e-12)
(-1436.66 -725.242 1.23413e-11)
(-1926.36 -604.637 0)
(-17437.4 -7066.88 0)
(-924.563 -1.93082e-09 0)
(-1130.97 -9.15447e-10 0)
(-1366.88 -1.20891e-09 0)
(-1892.63 3.36431e-10 0)
(-20081.1 -1.53317e-09 0)
(-635.665 874.383 8.22708e-12)
(-1073.69 651.617 9.80953e-12)
(-1436.66 725.242 1.23413e-11)
(-1926.36 604.637 0)
(-17437.4 7066.88 0)
(-155.202 714.338 -2.48103e-11)
(-1594.52 531.998 -9.80953e-12)
(-1515.91 615.793 -1.23413e-11)
(709.709 837.525 -3.31487e-11)
(-18229.4 7641.88 5.3736e-11)
(-36432.7 10357.5 9.91141e-12)
(-10993.5 4042.15 -4.85147e-12)
(-4959.79 1862.9 0)
(-3130.37 1279.69 2.01183e-12)
(-1296.39 788.783 -6.76723e-13)
(-32600.6 12811.9 -5.11167e-12)
(-12879.6 3279.28 2.4866e-12)
(-5643.63 1067.74 0)
(-3429.85 782.564 -1.28737e-12)
(-1972.79 219.013 1.76769e-13)
(-33658.3 -4.48575e-11 0)
(-13991.5 1.89782e-10 0)
(-5747.51 5.26328e-10 0)
(-3506.81 1.45127e-11 5.24377e-13)
(-1929.94 3.40858e-10 -3.53537e-13)
(-32600.6 -12811.9 -5.11167e-12)
(-12879.6 -3279.28 2.4866e-12)
(-5643.63 -1067.74 0)
(-3429.85 -782.564 -1.28737e-12)
(-1972.79 -219.013 1.76769e-13)
(-36432.7 -10357.5 5.11167e-12)
(-10993.5 -4042.15 -1.21736e-13)
(-4959.79 -1862.9 0)
(-3130.37 -1279.69 3.854e-14)
(-1296.39 -788.783 6.76723e-13)
(32.6673 -1205.51 0)
(-163.134 -509.8 0)
(-282.876 252.829 0)
(-319.055 437.692 0)
(-543.559 348.101 0)
(-532.118 51.9551 0)
(-29.9257 -168.998 0)
(1573.36 -263.904 0)
(2590.04 -321.576 0)
(1263.51 162.268 0)
(20.413 92.3374 0)
(-126.786 136.965 0)
(-176.025 155.57 0)
(-464.063 158.748 0)
(-825.74 124.097 0)
(-1032.63 78.1181 0)
(-1082.35 101.167 0)
(-1111.66 97.0622 0)
(-1157.2 72.6629 0)
(-962.565 41.0989 0)
(-505.707 11.5751 0)
(-174.941 0.222474 0)
(-80.4081 -0.387857 0)
(-64.3947 0.152639 0)
(-53.7754 -0.463573 0)
(-36.4776 -1.24761 0)
(-16.4292 -1.56355 0)
(-0.715881 -1.53586 0)
(8.0594 -1.3859 0)
(9.55514 -1.14651 0)
(24.8592 -1.03356 0)
(106.261 -0.975396 0)
(547.33 -1.48398 0)
(1095.26 -0.249673 0)
(985.906 1.97376 0)
(606.709 1.28504 0)
(476.14 1.6579 0)
(445.586 -0.569588 0)
(424.57 -1.24487 0)
(567.21 -0.673217 0)
(-408.764 -773.885 0)
(55.2387 -714.789 0)
(-85.0742 -75.7697 0)
(-296.619 227.495 0)
(-606.497 340.671 0)
(-614.371 72.7628 0)
(-61.6292 -60.4766 0)
(1557.42 -134.119 0)
(2608.53 -346.786 0)
(1289.29 59.0341 0)
(25.0134 -103.555 0)
(-97.6444 -48.1124 0)
(-154.123 8.02472 0)
(-449.564 119.271 0)
(-832.9 343.951 0)
(-1038.15 264.132 0)
(-1074.12 104.893 0)
(-1112.67 51.5157 0)
(-1167.59 29.7421 0)
(-973.088 15.5952 0)
(-510.627 4.82841 0)
(-175.956 0.0628292 0)
(-80.3679 -0.0888922 0)
(-64.4134 0.118495 0)
(-53.9169 -0.181987 0)
(-36.5788 -0.560456 0)
(-16.4492 -0.687223 0)
(-0.697439 -0.657504 0)
(8.09481 -0.592991 0)
(9.58247 -0.492549 0)
(24.8763 -0.470451 0)
(106.185 -0.417528 0)
(547.333 -0.821255 0)
(1095.54 -0.355602 0)
(985.875 0.397364 0)
(606.849 -0.663062 0)
(476.036 1.03646 0)
(444.994 -0.592289 0)
(424.903 -1.52404 0)
(567.454 -0.429536 0)
(-297.855 5.40981e-10 0)
(39.9542 -5.45019e-10 0)
(-8.75665 -1.21115e-11 0)
(-197.908 -1.21115e-10 0)
(-588.572 -1.00929e-10 0)
(-648.816 -1.01737e-09 0)
(-90.1095 2.58379e-09 0)
(1490.07 4.81231e-09 0)
(2646.23 -3.49216e-09 0)
(1334.27 -5.52689e-09 0)
(-10.7569 1.36699e-08 0)
(-94.3261 2.20955e-08 0)
(-127.332 1.92008e-08 0)
(-366.339 4.84461e-11 0)
(-783.599 -9.53177e-09 0)
(-1102.17 -1.05774e-09 0)
(-1144.21 4.19462e-09 0)
(-1133.53 2.21318e-08 0)
(-1167.65 1.86013e-08 0)
(-969.812 9.57416e-09 0)
(-510.225 3.68493e-09 0)
(-176.371 -3.0844e-09 0)
(-80.3919 -5.08684e-10 0)
(-64.4218 -1.87628e-09 0)
(-53.9729 -1.51697e-09 0)
(-36.6245 -1.77636e-10 0)
(-16.4574 -2.72509e-11 0)
(-0.688468 -1.50486e-09 0)
(8.10739 -2.44552e-09 0)
(9.59079 -2.53837e-09 0)
(24.881 -3.32764e-09 0)
(106.159 -2.56159e-09 0)
(547.348 -2.46671e-09 0)
(1095.62 -1.74002e-09 0)
(985.817 7.89268e-10 0)
(606.895 -1.80664e-09 0)
(476.161 8.27621e-10 0)
(444.841 -1.41705e-09 0)
(424.617 -4.72349e-10 0)
(567.779 -1.56642e-09 0)
(-408.764 773.885 0)
(55.2387 714.789 0)
(-85.0742 75.7697 0)
(-296.619 -227.495 0)
(-606.497 -340.671 0)
(-614.371 -72.7628 0)
(-61.6292 60.4766 0)
(1557.42 134.119 0)
(2608.53 346.786 0)
(1289.29 -59.0341 0)
(25.0134 103.555 0)
(-97.6444 48.1124 0)
(-154.123 -8.02472 0)
(-449.564 -119.271 0)
(-832.9 -343.951 0)
(-1038.15 -264.132 0)
(-1074.12 -104.893 0)
(-1112.67 -51.5157 0)
(-1167.59 -29.7421 0)
(-973.088 -15.5952 0)
(-510.627 -4.82841 0)
(-175.956 -0.0628292 0)
(-80.3679 0.0888922 0)
(-64.4134 -0.118495 0)
(-53.9169 0.181987 0)
(-36.5788 0.560456 0)
(-16.4492 0.687223 0)
(-0.697439 0.657504 0)
(8.09481 0.592991 0)
(9.58247 0.492549 0)
(24.8763 0.470451 0)
(106.185 0.417527 0)
(547.333 0.821255 0)
(1095.54 0.355602 0)
(985.875 -0.397364 0)
(606.849 0.663062 0)
(476.036 -1.03646 0)
(444.994 0.592289 0)
(424.903 1.52404 0)
(567.454 0.429536 0)
(32.6673 1205.51 0)
(-163.134 509.8 0)
(-282.876 -252.829 0)
(-319.055 -437.692 0)
(-543.559 -348.101 0)
(-532.118 -51.9551 0)
(-29.9257 168.998 0)
(1573.36 263.904 0)
(2590.04 321.576 0)
(1263.51 -162.268 0)
(20.413 -92.3374 0)
(-126.786 -136.965 0)
(-176.025 -155.57 0)
(-464.063 -158.748 0)
(-825.74 -124.097 0)
(-1032.63 -78.1181 0)
(-1082.35 -101.167 0)
(-1111.66 -97.0622 0)
(-1157.2 -72.6629 0)
(-962.565 -41.0989 0)
(-505.707 -11.5751 0)
(-174.941 -0.222474 0)
(-80.4081 0.387857 0)
(-64.3947 -0.152639 0)
(-53.7754 0.463573 0)
(-36.4776 1.24761 0)
(-16.4292 1.56355 0)
(-0.715881 1.53586 0)
(8.0594 1.3859 0)
(9.55514 1.14651 0)
(24.8592 1.03356 0)
(106.261 0.975396 0)
(547.33 1.48398 0)
(1095.26 0.249673 0)
(985.906 -1.97376 0)
(606.709 -1.28504 0)
(476.14 -1.6579 0)
(445.586 0.569588 0)
(424.57 1.24487 0)
(567.21 0.673217 0)
(-633.367 561.751 0)
(-607.046 52.563 0)
(-450.702 -224.525 0)
(-330.44 -378.586 0)
(-437.307 -383.389 0)
(-385.115 -116.944 0)
(99.8433 118.656 0)
(1634.69 468.045 0)
(2362.59 278.769 0)
(1059.46 -381.304 0)
(46.2044 -363.061 0)
(-103.614 -309.844 0)
(-142.462 -300.011 0)
(-413.058 -320.421 0)
(-790.603 -290.061 0)
(-1030.15 -245.083 0)
(-1076.48 -189.622 0)
(-1095.96 -133.427 0)
(-1144.5 -103.142 0)
(-946.937 -70.7213 0)
(-490.675 -21.5972 0)
(-169.625 -0.949001 0)
(-80.2776 0.621587 0)
(-64.3875 -0.109653 0)
(-53.2021 0.732102 0)
(-36.0059 2.02635 0)
(-16.2916 2.6763 0)
(-0.787554 2.69251 0)
(7.89152 2.42025 0)
(9.39305 2.0093 0)
(24.7887 1.71885 0)
(106.38 1.68851 0)
(546.88 2.09999 0)
(1093.68 -0.0100545 0)
(984.877 -3.35247 0)
(607.21 -4.26326 0)
(477.079 0.210421 0)
(446.131 -0.807214 0)
(425.352 -0.567052 0)
(566.534 0.681541 0)
(-608.062 53.1404 0)
(-682.778 206.148 0)
(-608.352 306.8 0)
(-466.037 185.139 0)
(-348.408 92.6639 0)
(-127.157 204.078 0)
(464.205 472.254 0)
(1694.77 876.768 0)
(1893.54 227.929 0)
(754.446 -353.97 0)
(75.4447 -484.881 0)
(-78.4545 -418.359 0)
(-204.216 -451.643 0)
(-481.824 -518.051 0)
(-771.983 -505.942 0)
(-937.176 -410.086 0)
(-977.909 -289.726 0)
(-1036.75 -210.562 0)
(-1103.58 -173.904 0)
(-892.365 -112.128 0)
(-446.532 -30.6983 0)
(-156.38 -1.43408 0)
(-79.6693 0.796727 0)
(-64.2921 0.295927 0)
(-52.0245 1.31438 0)
(-34.857 3.06018 0)
(-15.8611 4.07294 0)
(-0.924192 4.19659 0)
(7.49106 3.82463 0)
(8.96616 3.22973 0)
(24.5879 2.7362 0)
(106.565 2.65142 0)
(545.935 3.09713 0)
(1090.85 0.346971 0)
(982.36 -3.25262 0)
(609.874 -5.14127 0)
(478.967 1.64721 0)
(444.544 -1.13743 0)
(425.586 2.07161 0)
(567.463 2.13006 0)
(-383.507 25.639 0)
(-362.611 134.952 0)
(-470.948 246.744 0)
(-536.789 247.708 0)
(-419.057 278.436 0)
(-19.3275 556.911 0)
(748.072 710.752 0)
(1399.25 665.305 0)
(1176.61 -30.9318 0)
(372.568 -513.003 0)
(-15.8433 -558.668 0)
(-71.5846 -497.995 0)
(-238.529 -576.773 0)
(-465.382 -608.315 0)
(-686.563 -555.754 0)
(-821.794 -447.863 0)
(-884.207 -337.914 0)
(-984.345 -272.499 0)
(-1049.65 -233.733 0)
(-808.939 -140.255 0)
(-384.006 -34.4923 0)
(-139.276 -1.29166 0)
(-78.6105 1.11714 0)
(-63.8887 0.999782 0)
(-50.5384 2.29203 0)
(-33.3477 4.38545 0)
(-15.1965 5.67667 0)
(-1.02684 5.93357 0)
(6.95982 5.51667 0)
(8.3442 4.7706 0)
(24.2314 4.09342 0)
(106.728 3.94017 0)
(544.66 4.51933 0)
(1087.56 1.63556 0)
(979.588 -1.43792 0)
(611.931 -3.20116 0)
(480.937 2.22401 0)
(446.54 0.986466 0)
(428.501 6.99915 0)
(562.485 6.04385 0)
(-453.311 -20.5246 0)
(-469.714 -98.9186 0)
(-499.697 -116.556 0)
(-435.496 -3.07978 0)
(-50.4492 229.706 0)
(289.438 520.886 0)
(568.657 570.609 0)
(980.058 275.711 0)
(758.082 -294.188 0)
(245.9 -606.166 0)
(89.9071 -464.091 0)
(-95.9014 -529.583 0)
(-310.524 -587.675 0)
(-461.57 -586.092 0)
(-617.367 -544.392 0)
(-727.257 -463.074 0)
(-808.922 -375.941 0)
(-936.362 -324.51 0)
(-976.15 -276.325 0)
(-700.369 -148.542 0)
(-312.621 -32.1011 0)
(-122.066 -1.06518 0)
(-77.4612 1.19155 0)
(-63.16 1.52622 0)
(-48.762 3.19868 0)
(-31.5954 5.59045 0)
(-14.3692 7.0895 0)
(-1.07837 7.4668 0)
(6.37038 7.05079 0)
(7.59466 6.23533 0)
(23.7877 5.41922 0)
(106.975 5.22978 0)
(543.714 5.72931 0)
(1085.11 2.1266 0)
(977.699 -0.954714 0)
(613.403 -2.45285 0)
(483.002 1.82334 0)
(449.146 3.69188 0)
(430.459 8.49109 0)
(554.894 6.87866 0)
(-498.606 -10.3793 0)
(-455.15 4.38291 0)
(-378.594 104.599 0)
(-203.118 295.949 0)
(85.8549 481.131 0)
(309.179 417.981 0)
(511.813 392.389 0)
(565.899 150.977 0)
(326.799 -405.842 0)
(208.843 -460.741 0)
(57.9552 -507.776 0)
(-190.675 -582.163 0)
(-292.983 -570.058 0)
(-423.673 -559.191 0)
(-568.019 -534.013 0)
(-659.469 -467.548 0)
(-750.681 -396.94 0)
(-888.351 -360.333 0)
(-880.081 -296.816 0)
(-573.596 -137.156 0)
(-241.892 -25.1238 0)
(-107.194 -0.565231 0)
(-76.1133 1.25499 0)
(-61.9545 2.14876 0)
(-46.6219 4.32343 0)
(-29.5983 6.99128 0)
(-13.3884 8.64932 0)
(-1.06414 9.13673 0)
(5.77312 8.75988 0)
(6.77197 7.95169 0)
(23.2624 7.09147 0)
(107.027 6.96652 0)
(541.669 7.84707 0)
(1081.12 4.82522 0)
(975.175 1.33656 0)
(614.608 -0.641388 0)
(486.858 2.96532 0)
(452.965 7.28987 0)
(431.571 10.2082 0)
(547.674 7.20047 0)
(-459.089 17.5914 0)
(-358.916 107.792 0)
(-218.733 250.67 0)
(-72.6568 374.873 0)
(67.1449 363.851 0)
(203.923 236.307 0)
(311.363 90.8647 0)
(210.854 -267.038 0)
(168.608 -446.848 0)
(147.673 -415.217 0)
(-27.0994 -520.85 0)
(-155.919 -535.645 0)
(-288.388 -533.397 0)
(-426.835 -553.323 0)
(-529.056 -526.357 0)
(-595.168 -455.733 0)
(-705.606 -403.094 0)
(-839.879 -382.788 0)
(-761.088 -289.344 0)
(-438.557 -109.12 0)
(-180.997 -17.0038 0)
(-96.6462 -0.404576 0)
(-74.8459 1.19159 0)
(-60.2031 2.86264 0)
(-44.0956 5.5896 0)
(-27.4268 8.49929 0)
(-12.3018 10.2758 0)
(-0.971829 10.845 0)
(5.22843 10.5277 0)
(5.98692 9.78958 0)
(22.8383 8.96474 0)
(107.703 8.89443 0)
(541.651 9.62634 0)
(1078.84 6.10182 0)
(972.431 2.92895 0)
(614.972 1.02758 0)
(490.645 4.00842 0)
(456.125 9.1802 0)
(430.373 10.9179 0)
(538.119 6.21901 0)
(-377.783 41.9943 0)
(-230.547 155.738 0)
(-121.225 228.202 0)
(-94.0524 176.149 0)
(-47.6724 43.6287 0)
(46.1186 -91.5059 0)
(26.7715 -285.446 0)
(47.7395 -408.984 0)
(184.009 -298.531 0)
(137.531 -407.105 0)
(-58.0937 -484.399 0)
(-202.765 -514.773 0)
(-310.018 -547.328 0)
(-416.889 -548.914 0)
(-473.978 -492.951 0)
(-540.688 -429.576 0)
(-680.389 -409.838 0)
(-778.738 -392.837 0)
(-616.365 -249.165 0)
(-311.159 -72.6229 0)
(-137.13 -9.25142 0)
(-89.6598 0.439699 0)
(-72.9649 2.25003 0)
(-57.7164 4.82342 0)
(-41.1903 8.03065 0)
(-25.0826 11.028 0)
(-11.128 12.7994 0)
(-0.821394 13.3388 0)
(4.75607 13.02 0)
(5.26585 12.3233 0)
(22.3998 11.5663 0)
(107.664 11.6118 0)
(538.978 12.4563 0)
(1074.67 8.85142 0)
(970.286 5.12314 0)
(615.649 2.06788 0)
(494.715 4.55882 0)
(459.624 10.2394 0)
(428.718 11.2072 0)
(531.16 5.66026 0)
(-268.547 -38.696 0)
(-179.48 5.53307 0)
(-199.064 -114.045 0)
(-250.518 -195.298 0)
(-190.777 -238.754 0)
(-113.185 -282.801 0)
(5.42982 -302.677 0)
(198.245 -202.133 0)
(170.418 -291.206 0)
(-31.4373 -426.928 0)
(-130.852 -503.17 0)
(-216.559 -526.723 0)
(-321.288 -547.806 0)
(-374.436 -507.431 0)
(-414.057 -440.581 0)
(-515.078 -408.718 0)
(-670.202 -421.636 0)
(-685.049 -370.65 0)
(-452.518 -179.637 0)
(-207.367 -39.9638 0)
(-110.591 -3.49393 0)
(-85.563 2.08003 0)
(-70.6215 4.44453 0)
(-54.6327 7.65313 0)
(-38.1166 11.1038 0)
(-22.8315 14.0314 0)
(-10.0751 15.6899 0)
(-0.759197 16.0988 0)
(4.24984 15.7568 0)
(4.58606 15.1508 0)
(22.1527 14.5788 0)
(108.561 14.8145 0)
(538.991 15.727 0)
(1071.77 11.8495 0)
(965.894 8.03081 0)
(614.428 4.73233 0)
(498.52 7.59576 0)
(462.532 13.08 0)
(425.96 13.0968 0)
(521.865 6.17181 0)
(-409.74 -116.669 0)
(-303.156 -81.5783 0)
(-314.753 -206.297 0)
(-214.226 -145.709 0)
(-131.993 -126.49 0)
(-15.4805 -127.648 0)
(104.507 -132.546 0)
(58.7938 -222.125 0)
(-32.6124 -396.095 0)
(-66.7256 -464.502 0)
(-154.26 -489.539 0)
(-245.779 -526.43 0)
(-291.426 -502.773 0)
(-313.562 -439.631 0)
(-378.855 -400.69 0)
(-522.432 -413.353 0)
(-643.705 -425.866 0)
(-545.539 -298.576 0)
(-297.703 -103.296 0)
(-141.421 -17.6532 0)
(-96.6147 0.0489846 0)
(-82.01 3.62915 0)
(-67.5944 6.6878 0)
(-51.2993 10.2028 0)
(-35.0439 13.5544 0)
(-20.6632 16.1615 0)
(-9.13573 17.5421 0)
(-0.756897 17.7065 0)
(3.84248 17.3326 0)
(4.13065 16.8729 0)
(22.0758 16.6124 0)
(108.771 17.1739 0)
(536.121 18.186 0)
(1067.25 13.6551 0)
(963.427 9.3719 0)
(615.229 6.46468 0)
(502.759 11.2103 0)
(464.925 16.7896 0)
(422.061 16.1344 0)
(512.592 7.9347 0)
(-459.585 104.539 0)
(-265.849 73.6438 0)
(-260.863 111.686 0)
(-173.613 100.527 0)
(-173.372 36.5738 0)
(-119.022 -47.2804 0)
(-85.6114 -188.789 0)
(-55.7204 -341.16 0)
(-63.1458 -388.048 0)
(-121.483 -446.204 0)
(-190.527 -492.299 0)
(-229.311 -484.753 0)
(-237.646 -428.946 0)
(-276.065 -383.832 0)
(-388.735 -388.989 0)
(-539.339 -425.368 0)
(-559.6 -380.573 0)
(-374.208 -191.175 0)
(-181.811 -49.3576 0)
(-107.78 -8.26824 0)
(-90.083 -0.583806 0)
(-79.1656 2.44713 0)
(-64.2869 6.48535 0)
(-48.0158 10.5214 0)
(-32.3746 14.0773 0)
(-18.9889 16.6847 0)
(-8.58628 18.0159 0)
(-0.961084 18.1925 0)
(3.44661 17.9673 0)
(3.89206 17.9536 0)
(22.4428 18.1731 0)
(110.077 19.1977 0)
(535.6 20.018 0)
(1063.28 15.1673 0)
(958.965 14.4631 0)
(616.2 12.2935 0)
(508.469 16.153 0)
(467.277 21.8147 0)
(417.427 19.6844 0)
(498.671 8.85946 0)
(-238.037 153.792 0)
(-296.269 63.5213 0)
(-288.847 132.917 0)
(-286.607 75.41 0)
(-274.426 60.6205 0)
(-232.649 -80.0678 0)
(-178.686 -217.793 0)
(-133.219 -322.81 0)
(-133.837 -404.818 0)
(-167.186 -452.484 0)
(-191.407 -456.287 0)
(-184.729 -408.642 0)
(-194.175 -360.562 0)
(-275.058 -360.159 0)
(-418.88 -400.61 0)
(-514.323 -404.459 0)
(-418.029 -264.519 0)
(-226.367 -86.1887 0)
(-121.448 -9.04329 0)
(-94.4206 10.306 0)
(-86.289 16.1088 0)
(-75.1979 21.8433 0)
(-59.8137 28.5445 0)
(-43.9835 34.6013 0)
(-29.1048 39.6903 0)
(-16.8679 43.4868 0)
(-7.68276 45.7919 0)
(-0.803735 46.8921 0)
(3.61235 47.4768 0)
(4.32898 48.5302 0)
(23.2746 49.4585 0)
(110.549 51.8654 0)
(532.237 55.5285 0)
(1061.9 62.9446 0)
(960.658 77.7511 0)
(616.858 76.8635 0)
(511.934 70.0937 0)
(468.328 51.4111 0)
(409.577 32.5195 0)
(485.086 11.576 0)
(-250.174 18.2399 0)
(-285.965 23.385 0)
(-249.407 80.052 0)
(-243.281 122.105 0)
(-323.196 122.529 0)
(-387.311 -25.5429 0)
(-319.527 -207.13 0)
(-235.944 -341.531 0)
(-188.104 -401.783 0)
(-171.082 -403.93 0)
(-148.28 -359.75 0)
(-137.067 -305.195 0)
(-190.925 -288.768 0)
(-314.656 -312.819 0)
(-431.424 -337.864 0)
(-408.197 -259.5 0)
(-252.902 -85.3059 0)
(-128.022 29.3193 0)
(-88.8248 71.7169 0)
(-83.5425 89.1874 0)
(-78.9653 102.392 0)
(-67.182 116.823 0)
(-51.9928 131.115 0)
(-37.2753 144.234 0)
(-23.8122 155.391 0)
(-13.1091 165.01 0)
(-5.30481 171.228 0)
(0.662534 177.312 0)
(5.02516 181.971 0)
(5.80173 186.799 0)
(25.6568 188.679 0)
(115.927 196.181 0)
(546.276 214.695 0)
(1084.69 277.882 0)
(972.378 323.565 0)
(608.821 278.276 0)
(483.942 221.095 0)
(431.069 155.139 0)
(379.041 78.0625 0)
(456.179 16.8072 0)
(-197.925 53.2604 0)
(-236.705 98.7417 0)
(-193.717 159.256 0)
(-245.675 218.085 0)
(-416.705 140.015 0)
(-550.32 30.3255 0)
(-483.184 -168.4 0)
(-320.795 -280.994 0)
(-193.967 -281.332 0)
(-126.681 -215.335 0)
(-96.2635 -124.838 0)
(-116.328 -65.9687 0)
(-201.522 -64.1639 0)
(-322.369 -78.5414 0)
(-367.5 -12.6887 0)
(-270.948 169.936 0)
(-139.712 338.317 0)
(-75.0545 424.82 0)
(-63.7564 470.506 0)
(-64.8604 502.475 0)
(-59.6587 530.766 0)
(-47.5201 557.62 0)
(-33.3989 580.872 0)
(-20.5899 601.138 0)
(-9.08438 617.643 0)
(-1.6071 633.034 0)
(4.17151 643.198 0)
(9.54838 654.986 0)
(12.7549 662.546 0)
(10.7937 669.754 0)
(32.3154 670.738 0)
(135.619 687.063 0)
(610.967 739.622 0)
(1166.81 887.273 0)
(961.038 934.219 0)
(518.114 790.694 0)
(393.274 620.856 0)
(330.496 422.992 0)
(276.276 216.478 0)
(393.666 40.9743 0)
(-103.699 100.065 0)
(-183.824 160.24 0)
(-134.404 270.269 0)
(-261.822 388.098 0)
(-504.128 397.089 0)
(-684.51 375.775 0)
(-619.526 213.805 0)
(-344.769 170.849 0)
(-124.832 249.353 0)
(-20.2783 370.212 0)
(-4.34565 468.192 0)
(-78.5994 518.973 0)
(-203.041 524.315 0)
(-265.053 555.455 0)
(-191.982 689.204 0)
(-69.9547 859.259 0)
(-7.28645 969.008 0)
(-0.640228 1017.66 0)
(-13.9933 1039.33 0)
(-25.4737 1051.55 0)
(-25.826 1060.33 0)
(-18.8983 1067.19 0)
(-10.0574 1071.48 0)
(-1.84151 1075.79 0)
(6.92371 1078.83 0)
(11.5172 1082.8 0)
(15.8489 1085.58 0)
(19.307 1088.75 0)
(19.2565 1089.11 0)
(13.6955 1088.92 0)
(42.336 1088.16 0)
(182.306 1105.72 0)
(739.206 1159.03 0)
(1272.21 1252.73 0)
(879.311 1244.83 0)
(306.853 1133.98 0)
(129.611 982.376 0)
(41.3956 748.836 0)
(10.9146 445.703 0)
(208.088 119.812 0)
(52.9132 114.996 0)
(-72.6896 340.472 0)
(25.8553 637.789 0)
(-123.467 851.267 0)
(-428.579 1080.72 0)
(-726.939 1191.8 0)
(-680.659 1042.74 0)
(-286.539 954.522 0)
(-1.85301 980.939 0)
(84.1999 1001.75 0)
(47.0884 950.249 0)
(-62.2459 860.828 0)
(-166.367 806.131 0)
(-163.476 862.839 0)
(-74.7433 968.998 0)
(-1.31898 1030.1 0)
(12.9306 1038.12 0)
(-7.2866 1021.8 0)
(-31.1017 999.453 0)
(-44.6272 978.022 0)
(-44.5822 960.491 0)
(-36.7746 945.108 0)
(-25.113 931.959 0)
(-13.5039 921.302 0)
(-2.33457 911.696 0)
(4.89671 903.143 0)
(9.91264 896.654 0)
(12.9466 887.895 0)
(12.916 880.767 0)
(9.87503 873.167 0)
(48.5054 869.955 0)
(203.918 872.691 0)
(752.624 859.217 0)
(1249.49 744.724 0)
(846.609 676.166 0)
(265.204 707.999 0)
(22.1364 709.614 0)
(-186.662 679.546 0)
(-329.875 507.566 0)
(-151.284 197.588 0)
(335.206 61.4408 0)
(319.959 425.352 0)
(357.817 772.402 0)
(165.003 977.111 0)
(-175.98 1154.67 0)
(-721.106 1247.39 0)
(-848.174 1142.06 0)
(-404.327 1005.73 0)
(-79.325 899.577 0)
(-49.8522 772.753 0)
(-140.14 628.919 0)
(-217.477 528.263 0)
(-201.103 524.556 0)
(-108.109 601.117 0)
(-30.8066 663.674 0)
(-3.34549 676.453 0)
(-15.2778 657.954 0)
(-37.9012 633.925 0)
(-56.1831 611.964 0)
(-63.0192 597.329 0)
(-57.5437 590.508 0)
(-46.3927 588.675 0)
(-32.9976 590.461 0)
(-21.3679 590.754 0)
(-10.5751 589.715 0)
(-2.97765 587.076 0)
(1.15581 584.281 0)
(3.99728 579.709 0)
(5.0642 576.972 0)
(3.2773 574.759 0)
(41.8769 574.916 0)
(171.958 561.762 0)
(615.892 512.487 0)
(1095.82 269.329 0)
(843.922 152.285 0)
(339.085 226.1 0)
(102.192 250.788 0)
(-153.305 275.504 0)
(-453.518 224.371 0)
(-471.424 103.124 0)
(522.005 -13.2109 0)
(612.418 202.754 0)
(557.55 296.838 0)
(244.901 267.461 0)
(-168.128 270.094 0)
(-739.087 269.894 0)
(-913.533 344.673 0)
(-520.207 340.342 0)
(-226.357 248.828 0)
(-176.617 163.225 0)
(-188.511 134.232 0)
(-162.814 189.999 0)
(-96.162 299.766 0)
(-29.4166 388.83 0)
(-2.14665 433.637 0)
(-6.83104 444.617 0)
(-28.0513 444.063 0)
(-51.6047 442.908 0)
(-66.3664 445.259 0)
(-65.303 453.536 0)
(-52.9222 466.539 0)
(-36.8196 478.241 0)
(-23.1087 488.671 0)
(-14.2231 495.765 0)
(-5.8794 501.822 0)
(-0.339708 506.578 0)
(2.81344 510.446 0)
(5.90388 514.065 0)
(8.14653 517.638 0)
(7.89359 522.012 0)
(35.9811 529.038 0)
(143.759 508.875 0)
(470.825 461.317 0)
(902.386 194.254 0)
(804.952 3.56944 0)
(360.125 68.3658 0)
(69.7446 30.5656 0)
(-212.119 25.319 0)
(-495.987 -45.5925 0)
(-466.87 -108.98 0)
(517.857 385.774 0)
(618.734 -563.632 0)
(420.17 -306.419 0)
(139.231 -413.742 0)
(-173.634 -371.085 0)
(-649.239 -331.318 0)
(-780.288 -103.981 0)
(-496.686 41.1744 0)
(-250.002 64.929 0)
(-160.281 88.1567 0)
(-114.34 144.879 0)
(-57.9619 227.85 0)
(-9.5018 303.378 0)
(20.8944 345.166 0)
(22.9521 364.577 0)
(6.70101 370.946 0)
(-16.9245 376.324 0)
(-36.7489 384.991 0)
(-45.9425 400.593 0)
(-42.5131 420.909 0)
(-33.7365 444.536 0)
(-25.0654 461.034 0)
(-16.111 472.116 0)
(-8.69467 481.343 0)
(-0.155199 488.934 0)
(5.33238 493.852 0)
(8.37039 496.935 0)
(10.9277 498.838 0)
(12.7221 499.882 0)
(14.263 500.915 0)
(29.2178 504.173 0)
(106.7 484.327 0)
(312.713 407.657 0)
(654.718 159.451 0)
(722.612 -139.108 0)
(365.1 -149.359 0)
(60.7108 -214.408 0)
(-226.694 -225.373 0)
(-582.933 -641.873 0)
(-322.472 -178.293 0)
(350.614 29539.9 0)
(-54.6047 -572.999 0)
(701.989 -730.505 0)
(182.587 -690.794 0)
(-88.7011 -704.795 0)
(-481.696 -598.458 0)
(-554.585 -319.206 0)
(-357.439 -97.7194 0)
(-181.083 18.387 0)
(-99.5742 100.41 0)
(-53.8973 178.29 0)
(-10.0778 243.391 0)
(16.8883 283.758 0)
(29.557 299.234 0)
(22.6952 302.122 0)
(4.48877 303.93 0)
(-14.517 311.575 0)
(-28.2176 327.306 0)
(-31.7539 347.9 0)
(-22.9582 370.18 0)
(-14.2564 389.174 0)
(-10.2432 404.577 0)
(-3.53833 416.451 0)
(1.98346 426.005 0)
(6.17431 432.946 0)
(7.37117 435.31 0)
(7.61844 435.466 0)
(8.74278 433.681 0)
(10.148 430.894 0)
(12.029 427.698 0)
(19.9961 423.548 0)
(50.7525 407.219 0)
(157.763 326.455 0)
(375.503 115.555 0)
(507.371 -259.187 0)
(287.563 -447.519 0)
(-3.50554 -507.344 0)
(-624.04 -578.708 0)
(-450.619 -470.119 0)
(323.472 17785.5 0)
(28431.4 -30166.4 0)
(-28551 298.232 0)
(306.659 -481.388 0)
(164.006 -748.479 0)
(-84.6563 -841.06 0)
(-277.672 -568.58 0)
(-297.758 -53.037 0)
(-171.369 315.927 0)
(-59.0771 495.726 0)
(-6.19312 565.15 0)
(23.4424 605.485 0)
(43.6711 596.754 0)
(44.3103 570.624 0)
(38.5906 533.246 0)
(27.4773 499.905 0)
(15.8101 481.18 0)
(5.60185 478.84 0)
(-1.7453 490.432 0)
(-4.62814 509.933 0)
(-2.73978 528.187 0)
(-0.590586 536.601 0)
(1.22008 543.594 0)
(4.53838 545.965 0)
(7.20031 542.556 0)
(8.81163 536.434 0)
(7.76104 527.005 0)
(6.80038 520.731 0)
(6.52217 512.042 0)
(6.95618 504.89 0)
(7.18341 494.292 0)
(9.48422 484.953 0)
(13.1372 463.699 0)
(31.6539 418.652 0)
(90.372 267.135 0)
(180.014 -64.8035 0)
(125.967 -446.189 0)
(-65.7083 -493.939 0)
(-190.823 -374.363 0)
(17113.5 351.674 0)
(-17008.2 -17666 0)
(28431.4 30166.4 0)
(-28551 -298.232 0)
(306.659 481.388 0)
(164.006 748.479 0)
(-84.6563 841.06 0)
(-277.672 568.58 0)
(-297.758 53.037 0)
(-171.369 -315.927 0)
(-59.0771 -495.726 0)
(-6.19312 -565.15 0)
(23.4424 -605.485 0)
(43.6711 -596.754 0)
(44.3103 -570.624 0)
(38.5906 -533.246 0)
(27.4773 -499.905 0)
(15.8101 -481.18 0)
(5.60185 -478.84 0)
(-1.7453 -490.432 0)
(-4.62814 -509.933 0)
(-2.73978 -528.187 0)
(-0.590586 -536.601 0)
(1.22008 -543.594 0)
(4.53838 -545.965 0)
(7.20031 -542.556 0)
(8.81163 -536.434 0)
(7.76104 -527.005 0)
(6.80038 -520.731 0)
(6.52217 -512.042 0)
(6.95618 -504.89 0)
(7.18341 -494.292 0)
(9.48422 -484.953 0)
(13.1372 -463.699 0)
(31.6539 -418.652 0)
(90.372 -267.135 0)
(180.014 64.8035 0)
(125.967 446.189 0)
(-65.7083 493.939 0)
(-190.823 374.363 0)
(17113.5 -351.674 0)
(-17008.2 17666 0)
(350.614 -29539.9 0)
(-54.6047 572.999 0)
(701.989 730.505 0)
(182.587 690.794 0)
(-88.7011 704.795 0)
(-481.696 598.458 0)
(-554.585 319.206 0)
(-357.439 97.7194 0)
(-181.083 -18.387 0)
(-99.5742 -100.41 0)
(-53.8973 -178.29 0)
(-10.0778 -243.391 0)
(16.8883 -283.758 0)
(29.557 -299.234 0)
(22.6952 -302.122 0)
(4.48877 -303.93 0)
(-14.517 -311.575 0)
(-28.2176 -327.306 0)
(-31.7539 -347.9 0)
(-22.9582 -370.18 0)
(-14.2564 -389.174 0)
(-10.2432 -404.577 0)
(-3.53833 -416.451 0)
(1.98346 -426.005 0)
(6.17431 -432.946 0)
(7.37117 -435.31 0)
(7.61844 -435.466 0)
(8.74278 -433.681 0)
(10.148 -430.894 0)
(12.029 -427.698 0)
(19.9961 -423.548 0)
(50.7525 -407.219 0)
(157.763 -326.455 0)
(375.503 -115.555 0)
(507.371 259.187 0)
(287.563 447.519 0)
(-3.50554 507.344 0)
(-624.04 578.708 0)
(-450.619 470.119 0)
(323.472 -17785.5 0)
(517.857 -385.774 0)
(618.734 563.632 0)
(420.17 306.419 0)
(139.231 413.742 0)
(-173.634 371.085 0)
(-649.239 331.318 0)
(-780.288 103.981 0)
(-496.686 -41.1744 0)
(-250.002 -64.929 0)
(-160.281 -88.1567 0)
(-114.34 -144.879 0)
(-57.9619 -227.85 0)
(-9.5018 -303.378 0)
(20.8944 -345.166 0)
(22.9521 -364.577 0)
(6.70101 -370.946 0)
(-16.9245 -376.324 0)
(-36.7489 -384.991 0)
(-45.9425 -400.593 0)
(-42.5131 -420.909 0)
(-33.7365 -444.536 0)
(-25.0654 -461.034 0)
(-16.111 -472.116 0)
(-8.69467 -481.343 0)
(-0.155199 -488.934 0)
(5.33238 -493.852 0)
(8.37039 -496.935 0)
(10.9277 -498.838 0)
(12.7221 -499.882 0)
(14.263 -500.915 0)
(29.2178 -504.173 0)
(106.7 -484.327 0)
(312.713 -407.657 0)
(654.718 -159.451 0)
(722.612 139.108 0)
(365.1 149.359 0)
(60.7108 214.408 0)
(-226.694 225.373 0)
(-582.933 641.873 0)
(-322.472 178.293 0)
(522.005 13.2109 0)
(612.418 -202.754 0)
(557.55 -296.838 0)
(244.901 -267.461 0)
(-168.128 -270.094 0)
(-739.087 -269.894 0)
(-913.533 -344.673 0)
(-520.207 -340.342 0)
(-226.357 -248.828 0)
(-176.617 -163.225 0)
(-188.511 -134.232 0)
(-162.814 -189.999 0)
(-96.162 -299.766 0)
(-29.4166 -388.83 0)
(-2.14665 -433.637 0)
(-6.83104 -444.617 0)
(-28.0513 -444.063 0)
(-51.6047 -442.908 0)
(-66.3664 -445.259 0)
(-65.303 -453.536 0)
(-52.9222 -466.539 0)
(-36.8196 -478.241 0)
(-23.1087 -488.671 0)
(-14.2231 -495.765 0)
(-5.8794 -501.822 0)
(-0.339708 -506.578 0)
(2.81344 -510.446 0)
(5.90388 -514.065 0)
(8.14653 -517.638 0)
(7.89359 -522.012 0)
(35.9811 -529.038 0)
(143.759 -508.875 0)
(470.825 -461.317 0)
(902.386 -194.254 0)
(804.952 -3.56944 0)
(360.125 -68.3658 0)
(69.7446 -30.5656 0)
(-212.119 -25.319 0)
(-495.987 45.5925 0)
(-466.87 108.98 0)
(335.206 -61.4408 0)
(319.959 -425.352 0)
(357.817 -772.402 0)
(165.003 -977.111 0)
(-175.98 -1154.67 0)
(-721.106 -1247.39 0)
(-848.174 -1142.06 0)
(-404.327 -1005.73 0)
(-79.325 -899.577 0)
(-49.8522 -772.753 0)
(-140.14 -628.919 0)
(-217.477 -528.263 0)
(-201.103 -524.556 0)
(-108.109 -601.117 0)
(-30.8066 -663.674 0)
(-3.34549 -676.453 0)
(-15.2778 -657.954 0)
(-37.9012 -633.925 0)
(-56.1831 -611.964 0)
(-63.0192 -597.329 0)
(-57.5437 -590.508 0)
(-46.3927 -588.675 0)
(-32.9976 -590.461 0)
(-21.3679 -590.754 0)
(-10.5751 -589.715 0)
(-2.97765 -587.076 0)
(1.15581 -584.281 0)
(3.99728 -579.709 0)
(5.0642 -576.972 0)
(3.2773 -574.759 0)
(41.8769 -574.916 0)
(171.958 -561.762 0)
(615.892 -512.487 0)
(1095.82 -269.329 0)
(843.922 -152.285 0)
(339.085 -226.1 0)
(102.192 -250.788 0)
(-153.305 -275.504 0)
(-453.518 -224.371 0)
(-471.424 -103.124 0)
(52.9132 -114.996 0)
(-72.6896 -340.472 0)
(25.8553 -637.789 0)
(-123.467 -851.267 0)
(-428.579 -1080.72 0)
(-726.939 -1191.8 0)
(-680.659 -1042.74 0)
(-286.539 -954.522 0)
(-1.85301 -980.939 0)
(84.1999 -1001.75 0)
(47.0884 -950.249 0)
(-62.2459 -860.828 0)
(-166.367 -806.131 0)
(-163.476 -862.839 0)
(-74.7433 -968.998 0)
(-1.31898 -1030.1 0)
(12.9306 -1038.12 0)
(-7.2866 -1021.8 0)
(-31.1017 -999.453 0)
(-44.6272 -978.022 0)
(-44.5822 -960.491 0)
(-36.7746 -945.108 0)
(-25.113 -931.959 0)
(-13.5039 -921.302 0)
(-2.33457 -911.696 0)
(4.89671 -903.143 0)
(9.91264 -896.654 0)
(12.9466 -887.895 0)
(12.916 -880.767 0)
(9.87503 -873.167 0)
(48.5054 -869.955 0)
(203.918 -872.691 0)
(752.624 -859.217 0)
(1249.49 -744.724 0)
(846.609 -676.166 0)
(265.204 -707.999 0)
(22.1364 -709.614 0)
(-186.662 -679.546 0)
(-329.875 -507.566 0)
(-151.284 -197.588 0)
(-103.699 -100.065 0)
(-183.824 -160.24 0)
(-134.404 -270.269 0)
(-261.822 -388.098 0)
(-504.128 -397.089 0)
(-684.51 -375.775 0)
(-619.526 -213.805 0)
(-344.769 -170.849 0)
(-124.832 -249.353 0)
(-20.2783 -370.212 0)
(-4.34565 -468.192 0)
(-78.5994 -518.973 0)
(-203.041 -524.315 0)
(-265.053 -555.455 0)
(-191.982 -689.204 0)
(-69.9547 -859.259 0)
(-7.28645 -969.008 0)
(-0.640228 -1017.66 0)
(-13.9933 -1039.33 0)
(-25.4737 -1051.55 0)
(-25.826 -1060.33 0)
(-18.8983 -1067.19 0)