/*--------------------------------*- C++ -*----------------------------------*\
| =========                 |                                                 |
| \\      /  F ield         | OpenFOAM: The Open Source CFD Toolbox           |
|  \\    /   O peration     | Version:  v1912                                 |
|   \\  /    A nd           | Website:  www.openfoam.com                      |
|    \\/     M anipulation  |                                                 |
\*---------------------------------------------------------------------------*/
FoamFile
{
    version     2.0;
    format      ascii;
    class       volTensorField;
    location    "0.5";
    object      grad(U);
}
// * * * * * * * * * * * * * * * * * * * * * * * * * * * * * * * * * * * * * //

dimensions      [0 0 -1 0 0 0 0];


internalField   nonuniform List<tensor> 
1900
(
(-1.68412e-16 2.70259e-16 0 0 0 0 0 0 0)
(2.12685e-16 -9.51616e-17 0 -6.06227e-17 4.37744e-17 0 0 0 0)
(1.68412e-16 -2.70259e-16 0 1.12788e-16 -9.73821e-16 0 0 0 0)
(-1.81056e-16 8.05702e-16 0 0 -1.41474e-16 0 0 0 0)
(7.04862e-15 2.98173e-17 0 2.26583e-17 7.4797e-16 0 0 0 0)
(5.93479e-11 8.20573e-13 0 1.11644e-15 2.05549e-16 0 0 0 0)
(2.73054e-08 6.52716e-10 0 1.12142e-11 4.21513e-12 0 0 0 0)
(1.06807e-06 4.44094e-08 0 5.73862e-09 2.86225e-09 0 0 0 0)
(5.7121e-06 5.52786e-07 0 2.72131e-07 1.75044e-07 0 0 0 0)
(8.78011e-06 2.39631e-06 0 2.09199e-06 1.78425e-06 0 0 0 0)
(-2.29035e-16 -2.26485e-16 0 0 0 0 0 0 0)
(3.25473e-16 -8.78659e-16 0 -7.40566e-17 -2.70259e-16 0 0 0 0)
(2.29035e-16 8.50111e-17 0 1.8e-16 -1.49087e-16 0 0 0 0)
(-2.71185e-16 9.16089e-16 0 0 2.40741e-31 0 0 0 0)
(8.16506e-15 3.17205e-16 0 1.60154e-16 -7.1054e-16 0 0 0 0)
(7.05621e-11 3.39381e-12 0 2.93624e-15 2.41076e-17 0 0 0 0)
(3.3044e-08 2.20953e-09 0 2.65419e-11 -7.89646e-13 0 0 0 0)
(1.34019e-06 1.3063e-07 0 1.20849e-08 -6.52719e-10 0 0 0 0)
(7.79835e-06 1.2286e-06 0 4.92848e-07 -4.44103e-08 0 0 0 0)
(1.08922e-05 3.82901e-06 0 3.11587e-06 -5.53439e-07 0 0 0 0)
(-2.42469e-16 0 0 0 0 0 0 0 0)
(3.92685e-16 -2.44248e-16 0 2.29035e-16 2.26485e-16 0 0 0 0)
(2.42469e-16 2.10649e-31 0 -3.25473e-16 3.38141e-16 0 0 0 0)
(-2.00901e-16 2.44248e-16 0 0 7.54949e-17 0 0 0 0)
(9.98487e-15 5.39249e-17 0 3.40224e-16 -4.4726e-16 0 0 0 0)
(8.58897e-11 3.16381e-14 0 -1.34493e-16 -3.86991e-17 0 0 0 0)
(3.93903e-08 -3.37824e-15 0 7.04839e-14 -6.78295e-12 0 0 0 0)
(1.5609e-06 -1.18352e-13 0 -9.62406e-14 -4.41909e-09 0 0 0 0)
(8.81588e-06 -4.4813e-14 0 -1.46121e-13 -2.61267e-07 0 0 0 0)
(1.25266e-05 2.8465e-14 0 9.49079e-14 -2.46162e-06 0 0 0 0)
(0 0 0 0 0 0 0 0 0)
(0 -5.40518e-16 0 2.42469e-16 -4.54238e-16 0 0 0 0)
(0 -6.59787e-17 0 -3.92685e-16 -1.15082e-15 0 0 0 0)
(3.94512e-16 1.30689e-16 0 0 -7.60024e-16 0 0 0 0)
(8.03057e-15 2.03011e-16 0 -4.9186e-16 -1.14321e-15 0 0 0 0)
(7.06322e-11 -3.38869e-12 0 -2.57241e-15 -3.93969e-16 0 0 0 0)
(3.30439e-08 -2.20955e-09 0 -2.65201e-11 -8.73477e-13 0 0 0 0)
(1.34019e-06 -1.3063e-07 0 -1.2085e-08 -6.52718e-10 0 0 0 0)
(7.79835e-06 -1.2286e-06 0 -4.92848e-07 -4.44102e-08 0 0 0 0)
(1.08922e-05 -3.829e-06 0 -3.11587e-06 -5.53439e-07 0 0 0 0)
(0 -4.54238e-16 0 0 0 0 0 0 0)
(0 -1.39507e-15 0 0 4.54238e-16 0 0 0 0)
(0 -3.05786e-16 0 0 1.93559e-15 0 0 0 0)
(-3.00076e-16 2.51861e-16 0 0 8.26003e-16 0 0 0 0)
(7.41246e-15 4.1998e-16 0 -6.94588e-16 1.55304e-15 0 0 0 0)
(5.937e-11 -8.40696e-13 0 -6.18113e-16 2.03011e-16 0 0 0 0)
(2.73053e-08 -6.52721e-10 0 -1.12629e-11 4.23093e-12 0 0 0 0)
(1.06807e-06 -4.44095e-08 0 -5.7386e-09 2.86227e-09 0 0 0 0)
(5.7121e-06 -5.52786e-07 0 -2.72131e-07 1.75044e-07 0 0 0 0)
(8.78011e-06 -2.39631e-06 0 -2.09199e-06 1.78425e-06 0 0 0 0)
(-9.43885e-05 1.83194e-06 -7.15606e-22 6.48544e-06 -4.48017e-06 1.07341e-21 8.22139e-22 1.34352e-21 -1.93965e-37)
(-0.00252331 -0.000305845 0 -8.64319e-05 5.46019e-05 0 1.63157e-20 7.37724e-22 0)
(-0.0236058 -0.00495426 0 -0.00253313 0.00188384 0 5.94128e-19 7.33002e-20 0)
(-0.106803 -0.0351654 0 -0.0265683 0.0251054 0 0 0 0)
(-0.177992 -0.135116 -2.50084e-17 -0.150553 0.209323 3.75125e-17 7.92073e-17 5.28049e-17 6.77853e-33)
(-0.000148984 -1.19626e-05 0 4.35309e-06 -2.22484e-06 0 1.99406e-21 5.33949e-22 0)
(-0.00359675 -0.000496618 0 -6.81286e-05 2.69136e-07 0 -1.63157e-20 -7.37724e-22 0)
(-0.030567 -0.0045936 0 -0.00156883 0.000283415 0 -5.94128e-19 -7.33002e-20 0)
(-0.123513 -0.0176426 0 -0.0117508 0.00535528 0 0 0 0)
(-0.268061 -0.00486971 0 -0.022681 0.0423141 0 0 0 0)
(-0.000177654 -9.55517e-14 0 6.67724e-16 -7.36988e-06 0 0 0 0)
(-0.00404169 2.71365e-13 0 -5.7821e-14 1.5792e-05 0 0 0 0)
(-0.0329213 -4.90457e-15 0 4.62602e-13 0.00105575 0 0 0 0)
(-0.131008 -1.27756e-13 0 -5.63999e-13 0.013566 0 0 0 0)
(-0.273878 3.19723e-13 0 5.49664e-13 0.081172 0 0 0 0)
(-0.000148984 1.19626e-05 0 -4.35308e-06 -2.22484e-06 0 1.99406e-21 -5.33949e-22 0)
(-0.00359675 0.000496618 0 6.81286e-05 2.69136e-07 0 -1.63157e-20 7.37724e-22 0)
(-0.030567 0.0045936 0 0.00156883 0.000283415 0 -5.94128e-19 7.33002e-20 0)
(-0.123513 0.0176426 0 0.0117508 0.00535528 0 0 0 0)
(-0.268061 0.00486971 0 0.022681 0.0423141 0 0 0 0)
(-9.43885e-05 -1.83194e-06 7.15606e-22 -6.48544e-06 -4.48017e-06 1.07341e-21 -4.81026e-21 2.41142e-21 -1.93965e-37)
(-0.00252331 0.000305845 0 8.6432e-05 5.46019e-05 0 1.63157e-20 -7.37724e-22 0)
(-0.0236058 0.00495426 0 0.00253313 0.00188384 0 5.94128e-19 -7.33002e-20 0)
(-0.106803 0.0351654 -3.19636e-18 0.0265683 0.0251054 -4.79454e-18 1.00949e-17 -6.72994e-18 8.66375e-34)
(-0.177992 0.135116 2.50084e-17 0.150553 0.209323 3.75125e-17 -7.92073e-17 5.28049e-17 6.77853e-33)
(-0.312316 0.016887 4.34434e-19 -0.030816 -0.150335 3.90991e-18 -1.26197e-16 9.3912e-18 -1.17754e-34)
(-0.235096 0.0180286 -5.67129e-19 -0.0854833 -0.173267 -5.10416e-18 1.60372e-16 -1.23148e-17 -1.53721e-34)
(-0.245391 0.103753 0 -0.04745 -0.0799787 0 0 0 0)
(-0.398615 0.260817 -9.97235e-19 0.361161 0.27275 -8.97512e-18 -1.89391e-16 3.04664e-17 2.70301e-34)
(-0.8738 0.136007 2.73001e-18 1.35304 0.947913 2.45701e-17 1.31695e-16 -1.46327e-17 7.3997e-34)
(-0.327319 0.0288916 0 -0.0253502 -0.0506278 0 6.35626e-17 -2.43181e-18 0)
(-0.243265 0.0244091 0 -0.0997523 -0.0608026 0 -8.14731e-17 3.54828e-18 0)
(-0.0957718 0.0977872 0 -0.0399475 -0.144563 0 0 0 0)
(0.160369 0.294224 0 0.531004 -0.33372 0 1.07573e-16 -2.16628e-17 0)
(0.576127 0.0896996 0 1.94797 -0.650847 0 -8.06974e-18 5.89484e-18 0)
(-0.333089 -8.58122e-14 0 2.28613e-13 -0.0602364 0 0 0 0)
(-0.235204 -4.37209e-14 0 9.26669e-15 -0.11403 0 0 0 0)
(-0.0036792 4.62591e-14 0 2.81089e-14 -0.197492 0 0 0 0)
(0.436619 8.57707e-14 0 2.30304e-14 -0.616918 0 -3.66325e-17 5.57361e-30 0)
(0.89053 9.00923e-14 0 2.48859e-13 -1.56587 0 1.61395e-17 -4.65661e-30 0)
(-0.327319 -0.0288916 0 0.0253502 -0.0506278 0 6.35626e-17 2.43181e-18 0)
(-0.243265 -0.0244091 0 0.0997523 -0.0608026 0 -8.14731e-17 -3.54828e-18 0)
(-0.0957718 -0.0977872 0 0.0399475 -0.144563 0 0 0 0)
(0.160369 -0.294224 0 -0.531004 -0.33372 0 1.07573e-16 2.16628e-17 0)
(0.576127 -0.0896996 0 -1.94797 -0.650847 0 -8.06974e-18 -5.89484e-18 0)
(-0.312316 -0.016887 0 0.030816 -0.150335 0 -6.35626e-17 -2.43181e-18 0)
(-0.235096 -0.0180286 5.67129e-19 0.0854833 -0.173267 -5.10416e-18 2.57448e-18 -5.21823e-18 -1.53721e-34)
(-0.245391 -0.103753 0 0.04745 -0.0799787 0 0 0 0)
(-0.398615 -0.260817 9.97235e-19 -0.361161 0.27275 -8.97512e-18 1.0877e-17 -8.21432e-18 2.70301e-34)
(-0.8738 -0.136007 -2.73001e-18 -1.35304 0.947913 2.45701e-17 -1.31695e-16 -1.46327e-17 7.3997e-34)
(-0.0510566 -0.595531 0 7.23406 0.1231 0 0 0 0)
(0.605007 -0.301408 0 2.42963 0.465228 0 0 0 0)
(0.172959 0.321089 0 0.918198 0.240406 0 0 0 0)
(0.384938 0.200895 0 0.165735 0.126592 0 0 0 0)
(0.315259 0.0763598 0 0.00931453 0.0351635 0 0 0 0)
(0.151841 0.00567255 0 -0.00313384 0.00570781 0 0 0 0)
(0.03446 -0.00024662 0 -0.000464209 0.000258253 0 0 0 0)
(0.00257182 -5.51658e-05 0 -1.06473e-05 2.36155e-06 0 0 0 0)
(4.00918e-05 -1.39077e-06 0 -3.00622e-08 3.19137e-09 0 0 0 0)
(8.58418e-08 -3.57861e-09 0 -7.75245e-12 6.88008e-13 0 0 0 0)
(1.78939e-11 -7.42972e-13 0 -1.49849e-15 -6.10604e-16 0 0 0 0)
(1.10518e-15 -4.72295e-16 0 1.10582e-15 4.55832e-15 0 0 0 0)
(-4.60662e-16 2.15595e-16 0 2.93878e-16 2.47448e-15 0 0 0 0)
(-6.24685e-17 6.62723e-17 0 -9.82087e-16 7.96402e-16 0 0 0 0)
(8.24702e-16 1.42611e-16 0 -8.16431e-17 5.18078e-16 0 0 0 0)
(-7.03233e-17 -2.70962e-16 0 3.52663e-16 2.17109e-15 0 0 0 0)
(-7.87418e-16 3.60723e-17 0 2.83202e-16 7.68983e-16 0 0 0 0)
(-3.46932e-16 9.08518e-16 0 -2.11379e-16 2.3565e-15 0 0 0 0)
(3.70093e-16 5.78834e-17 0 -1.23585e-15 6.14817e-15 0 0 0 0)
(5.70069e-16 -6.2749e-16 0 1.84908e-16 3.72204e-15 0 0 0 0)
(-8.90441e-18 -3.71628e-16 0 2.99471e-16 1.32738e-15 0 0 0 0)
(-9.45234e-17 2.13917e-16 0 1.00951e-15 4.41093e-15 0 0 0 0)
(-6.83961e-16 2.03431e-15 0 6.98441e-16 2.66194e-15 0 0 0 0)
(-2.77048e-16 -3.91762e-16 0 -1.35973e-15 6.10759e-15 0 0 0 0)
(1.11396e-15 -1.45883e-15 0 -1.61396e-15 5.1553e-15 0 0 0 0)
(5.93635e-16 -1.14928e-16 0 -4.63678e-16 -8.28124e-16 0 0 0 0)
(-8.91714e-16 -7.38224e-17 0 9.50129e-16 -5.02695e-15 0 0 0 0)
(-4.45792e-16 1.44625e-15 0 9.31992e-16 2.91687e-16 0 0 0 0)
(1.22622e-15 2.04102e-15 0 4.29651e-16 -5.01068e-16 0 0 0 0)
(2.20176e-11 2.31047e-14 0 5.9881e-16 -4.35955e-15 0 0 0 0)
(1.06302e-07 2.80189e-16 0 3.73474e-14 1.37219e-14 0 0 0 0)
(5.04582e-05 6.08065e-14 0 -3.5576e-14 -3.80823e-14 0 0 0 0)
(0.0033253 -3.25083e-13 0 1.81441e-13 -2.26382e-13 0 0 0 0)
(0.0462252 1.73248e-13 0 -5.29542e-13 -4.42992e-13 0 0 0 0)
(0.215779 3.49836e-13 0 6.22615e-13 7.3036e-13 0 0 0 0)
(0.497561 -1.66908e-13 0 -2.32364e-13 -4.83214e-13 0 0 0 0)
(0.737459 -1.40029e-14 0 6.45593e-14 -1.29402e-13 0 0 0 0)
(0.799797 -1.47407e-14 0 2.95692e-14 -2.05497e-13 0 0 0 0)
(2.68025 1.32461e-14 0 6.11096e-14 -2.95353e-13 0 0 0 0)
(2.29318 -5.06082e-14 0 2.72036e-13 -2.10421e-13 0 0 0 0)
(0.240254 -0.515095 0 5.20387 -0.326203 0 0 0 0)
(-0.398634 -0.273564 0 2.19163 1.36538 0 0 0 0)
(-0.263466 0.235973 0 0.894002 0.709887 0 0 0 0)
(0.203372 0.141934 0 0.107501 0.261634 0 0 0 0)
(0.291498 0.0449901 0 -0.0170485 0.0193098 0 0 0 0)
(0.153941 0.00133364 0 -0.00701907 -0.000852536 0 0 0 0)
(0.0356576 -0.000922462 0 -0.000607837 -0.000189645 0 0 0 0)
(0.00268311 -8.00097e-05 0 -1.04822e-05 -4.78078e-06 0 0 0 0)
(4.21597e-05 -1.29561e-06 0 -2.67334e-08 -1.23012e-08 0 0 0 0)
(9.13601e-08 -2.79988e-09 0 -6.92495e-12 -2.41725e-12 0 0 0 0)
(1.93366e-11 -5.96861e-13 0 -1.77221e-17 -1.28324e-15 0 0 0 0)
(1.4449e-15 3.53173e-16 0 -4.65786e-16 7.06215e-15 0 0 0 0)
(-8.54412e-16 -8.80835e-16 0 -2.04745e-16 4.58506e-16 0 0 0 0)
(-1.4274e-16 -6.41751e-16 0 -1.11944e-15 4.04869e-15 0 0 0 0)
(8.87016e-16 1.77845e-16 0 -2.4774e-16 -1.61198e-15 0 0 0 0)
(6.84271e-17 8.3889e-19 0 2.84632e-17 8.93943e-16 0 0 0 0)
(-6.42817e-16 6.37557e-17 0 2.61937e-16 1.90323e-16 0 0 0 0)
(-6.30878e-16 1.62745e-15 0 7.31937e-16 1.28036e-15 0 0 0 0)
(3.13739e-16 4.05184e-16 0 3.79711e-16 1.97532e-15 0 0 0 0)
(7.55264e-16 -1.34726e-15 0 -1.29797e-15 4.19865e-15 0 0 0 0)
(2.3511e-16 2.81867e-16 0 2.24681e-16 1.50528e-15 0 0 0 0)
(6.53777e-17 7.27318e-16 0 1.22455e-15 8.09739e-15 0 0 0 0)
(-1.08653e-15 1.33803e-15 0 4.01776e-16 4.11214e-15 0 0 0 0)
(-8.2126e-16 2.87739e-16 0 -1.51693e-16 -1.52835e-16 0 0 0 0)
(9.79453e-16 -2.62573e-15 0 -2.2179e-15 7.14577e-15 0 0 0 0)
(1.06424e-15 -2.58127e-15 0 -2.78164e-15 2.62127e-15 0 0 0 0)
(-1.69635e-16 5.77995e-16 0 1.64024e-15 -1.14771e-15 0 0 0 0)
(-3.9046e-16 2.00998e-15 0 2.01574e-15 2.72508e-15 0 0 0 0)
(1.0115e-15 -1.42611e-16 0 -5.20155e-16 -4.8071e-15 0 0 0 0)
(2.20228e-11 9.25296e-15 0 -4.56788e-16 -1.33515e-14 0 0 0 0)
(1.06302e-07 -1.23929e-14 0 2.89136e-14 -8.43161e-14 0 0 0 0)
(5.04582e-05 4.72874e-14 0 -3.31615e-14 -5.23187e-14 0 0 0 0)
(0.0033253 -3.16886e-13 0 1.20447e-13 -7.13463e-14 0 0 0 0)
(0.0462252 2.83459e-13 0 -6.48558e-13 -2.39413e-13 0 0 0 0)
(0.215779 2.52501e-13 0 8.47772e-13 1.8955e-13 0 0 0 0)
(0.497561 -2.92087e-13 0 -2.49366e-13 -4.97564e-13 0 0 0 0)
(0.737459 5.54313e-14 0 9.56069e-14 -2.21965e-13 0 0 0 0)
(0.799797 -8.08002e-14 0 -3.94255e-15 -2.09221e-13 0 0 0 0)
(2.68025 -2.90217e-14 0 -1.77415e-14 -4.0305e-13 0 0 0 0)
(2.29318 -1.81268e-14 0 1.06449e-13 -4.87632e-13 0 0 0 0)
(0.260078 3.40376e-14 0 5.13764e-13 -0.896341 0 0 0 0)
(-0.648773 -1.71239e-13 0 1.83791e-13 1.92527 0 0 0 0)
(-0.433334 -2.23174e-13 0 1.72487e-14 0.984413 0 0 0 0)
(0.119905 -7.07901e-14 0 -1.08913e-13 0.302956 0 0 0 0)
(0.281944 4.99239e-14 0 1.45998e-13 0.00861866 0 0 0 0)
(0.156623 -2.32851e-14 0 9.70238e-15 -0.00635084 0 0 0 0)
(0.0364989 6.65116e-14 0 2.39452e-13 -0.000550086 0 0 0 0)
(0.00274864 2.09134e-13 0 1.85748e-13 -8.90734e-06 0 0 0 0)
(4.31412e-05 8.52905e-14 0 2.37197e-14 -1.92488e-08 0 0 0 0)
(9.36188e-08 -6.56667e-14 0 -1.03283e-13 -3.93674e-12 0 0 0 0)
(1.99083e-11 -3.77165e-14 0 1.11426e-15 -2.1916e-15 0 0 0 0)
(1.05077e-15 3.43945e-17 0 -1.49407e-15 -3.25856e-16 0 0 0 0)
(-6.50816e-16 -6.61046e-16 0 5.26976e-19 -1.46491e-15 0 0 0 0)
(-7.49761e-17 -5.36051e-16 0 8.57312e-16 4.70329e-15 0 0 0 0)
(1.15864e-15 -7.75135e-16 0 -6.00102e-16 8.79524e-16 0 0 0 0)
(7.79465e-17 2.53345e-16 0 -5.951e-16 -6.11341e-16 0 0 0 0)
(-5.82771e-16 1.48484e-16 0 -2.63476e-16 0 0 0 0 0)
(-3.1267e-16 1.42779e-15 0 3.39845e-16 -8.30502e-16 0 0 0 0)
(-2.20426e-16 9.06841e-16 0 2.04915e-15 -3.91605e-15 0 0 0 0)
(5.24969e-16 -7.64229e-16 0 -9.61445e-16 -9.11245e-16 0 0 0 0)
(7.2492e-16 7.62551e-16 0 1.61709e-16 -3.02787e-16 0 0 0 0)
(-4.30049e-17 9.72274e-16 0 8.48532e-16 -1.6264e-15 0 0 0 0)
(-1.08432e-15 -3.65756e-16 0 -4.94724e-16 -3.43447e-15 0 0 0 0)
(-1.03913e-15 4.90751e-16 0 -4.33912e-16 -7.06791e-15 0 0 0 0)
(3.48882e-16 -6.51818e-16 0 -4.47223e-16 2.10509e-16 0 0 0 0)
(1.716e-15 -2.52758e-15 0 -1.02936e-15 6.60076e-15 0 0 0 0)
(5.03886e-16 -4.36223e-17 0 1.53876e-15 5.25408e-15 0 0 0 0)
(-1.07427e-15 3.81695e-16 0 7.70326e-16 -1.13906e-15 0 0 0 0)
(5.06938e-16 -2.63579e-15 0 -2.46462e-15 -2.48862e-15 0 0 0 0)
(2.20262e-11 -2.51667e-17 0 -1.71255e-15 -4.39762e-15 0 0 0 0)
(1.06302e-07 -1.10557e-14 0 2.27595e-15 -6.82309e-14 0 0 0 0)
(5.04582e-05 6.45795e-14 0 -7.32301e-15 -2.06045e-13 0 0 0 0)
(0.0033253 -3.7951e-13 0 1.12156e-13 -6.83443e-14 0 0 0 0)
(0.0462252 2.49145e-13 0 -5.86536e-13 -2.23977e-13 0 0 0 0)
(0.215779 2.74737e-13 0 7.75389e-13 -5.40402e-14 0 0 0 0)
(0.497561 -2.86621e-13 0 -1.3109e-13 -1.32955e-13 0 0 0 0)
(0.737459 6.98787e-14 0 4.28753e-14 -1.32417e-13 0 0 0 0)
(0.799797 -6.74201e-14 0 -3.35117e-14 -1.42444e-13 0 0 0 0)
(2.68025 -6.7746e-14 0 -9.46213e-14 -6.19465e-14 0 0 0 0)
(2.29318 -7.52138e-14 0 -2.87806e-13 -3.9661e-14 0 0 0 0)
(0.240254 0.515095 0 -5.20387 -0.326203 0 0 0 0)
(-0.398634 0.273564 0 -2.19163 1.36538 0 0 0 0)
(-0.263466 -0.235973 0 -0.894002 0.709887 0 0 0 0)
(0.203372 -0.141934 0 -0.107501 0.261634 0 0 0 0)
(0.291498 -0.0449901 0 0.0170485 0.0193098 0 0 0 0)
(0.153941 -0.00133364 0 0.00701907 -0.000852536 0 0 0 0)
(0.0356576 0.000922462 0 0.000607837 -0.000189645 0 0 0 0)
(0.00268311 8.00097e-05 0 1.04822e-05 -4.78078e-06 0 0 0 0)
(4.21597e-05 1.29561e-06 0 2.67333e-08 -1.23016e-08 0 0 0 0)
(9.13601e-08 2.79976e-09 0 6.85932e-12 -2.87411e-12 0 0 0 0)
(1.93662e-11 5.48277e-13 0 1.10013e-15 -3.99967e-15 0 0 0 0)
(1.12091e-15 5.64573e-16 0 3.29143e-16 -4.43223e-15 0 0 0 0)
(-1.70374e-16 5.8219e-16 0 -1.92112e-16 -1.41589e-15 0 0 0 0)
(-3.17469e-16 4.02667e-17 0 2.15387e-15 -8.70873e-16 0 0 0 0)
(4.64496e-16 -1.36823e-15 0 -2.69189e-16 2.73662e-15 0 0 0 0)
(1.66355e-16 -2.55023e-16 0 -1.73396e-15 0 0 0 0 0)
(-3.70833e-16 0 0 -6.26971e-16 0 0 0 0 0)
(4.18854e-17 4.88234e-16 0 2.72765e-17 -5.10412e-16 0 0 0 0)
(-6.4818e-17 3.81695e-16 0 1.04838e-15 -5.85965e-15 0 0 0 0)
(2.06191e-16 -2.96128e-16 0 7.44873e-16 -4.61101e-15 0 0 0 0)
(7.61649e-16 7.38224e-17 0 -7.56651e-16 -2.281e-15 0 0 0 0)
(-1.25585e-16 -1.83717e-16 0 -1.27748e-15 -6.49983e-15 0 0 0 0)
(-1.45961e-15 -2.44956e-16 0 -6.08488e-16 -1.00208e-14 0 0 0 0)
(-8.07442e-16 1.3481e-15 0 8.04919e-16 -7.04196e-15 0 0 0 0)
(8.06233e-16 1.35061e-15 0 1.91147e-15 -5.95193e-15 0 0 0 0)
(1.64198e-15 -1.11405e-15 0 5.67214e-16 7.29573e-16 0 0 0 0)
(3.53908e-16 -1.67359e-15 0 -1.03333e-15 1.3784e-15 0 0 0 0)
(-1.55508e-15 -2.42439e-16 0 -1.56502e-16 -7.52642e-15 0 0 0 0)
(2.89208e-16 -1.09056e-15 0 -4.30696e-16 -8.9971e-16 0 0 0 0)
(2.20242e-11 -9.87206e-15 0 -2.48852e-16 4.92822e-15 0 0 0 0)
(1.06302e-07 -7.1054e-14 0 -2.89249e-14 -8.40681e-14 0 0 0 0)
(5.04582e-05 4.72544e-14 0 -1.31295e-13 -1.8861e-13 0 0 0 0)
(0.0033253 -3.22102e-13 0 1.93353e-13 -5.12228e-13 0 0 0 0)
(0.0462252 2.8762e-13 0 -3.91233e-13 3.52075e-13 0 0 0 0)
(0.215779 2.7898e-13 0 7.08428e-13 -1.23521e-13 0 0 0 0)
(0.497561 -3.14888e-13 0 -4.73106e-14 -5.63919e-14 0 0 0 0)
(0.737459 5.26711e-14 0 -3.79471e-14 -3.78709e-13 0 0 0 0)
(0.799797 -6.02996e-14 0 -1.1532e-13 -3.00542e-14 0 0 0 0)
(2.68025 8.7878e-16 0 -1.06449e-13 -2.0851e-13 0 0 0 0)
(2.29318 -1.16438e-14 0 -1.93185e-13 1.88388e-13 0 0 0 0)
(-0.0510566 0.595531 0 -7.23406 0.1231 0 0 0 0)
(0.605007 0.301408 0 -2.42963 0.465228 0 0 0 0)
(0.172959 -0.321089 0 -0.918198 0.240406 0 0 0 0)
(0.384938 -0.200895 0 -0.165735 0.126592 0 0 0 0)
(0.315259 -0.0763598 0 -0.00931453 0.0351635 0 0 0 0)
(0.151841 -0.00567255 0 0.00313384 0.00570781 0 0 0 0)
(0.03446 0.00024662 0 0.000464209 0.000258253 0 0 0 0)
(0.00257182 5.51658e-05 0 1.06473e-05 2.36155e-06 0 0 0 0)
(4.00918e-05 1.39077e-06 0 3.00621e-08 3.191e-09 0 0 0 0)
(8.58418e-08 3.57858e-09 0 7.81414e-12 3.99508e-13 0 0 0 0)
(1.79129e-11 7.97098e-13 0 7.4883e-16 -1.02029e-15 0 0 0 0)
(6.74848e-16 7.8604e-16 0 6.35099e-16 -2.16373e-15 0 0 0 0)
(-1.19986e-16 3.74984e-16 0 -6.52434e-16 -6.46912e-16 0 0 0 0)
(-9.73984e-17 6.71951e-16 0 6.09481e-16 -3.96797e-15 0 0 0 0)
(2.7633e-17 -5.2179e-16 0 4.42549e-16 4.53276e-16 0 0 0 0)
(-2.61356e-17 -5.42762e-16 0 -9.82621e-16 2.66463e-16 0 0 0 0)
(-7.0412e-17 0 0 -2.38785e-16 0 0 0 0 0)
(1.74703e-16 -2.76834e-16 0 2.35682e-16 -3.22985e-18 0 0 0 0)
(-1.16706e-17 -2.86062e-16 0 -3.78338e-17 -2.61978e-15 0 0 0 0)
(-1.28932e-19 2.76834e-16 0 4.78586e-16 -1.93829e-15 0 0 0 0)
(1.36599e-16 2.13078e-16 0 -7.43766e-16 -6.60364e-16 0 0 0 0)
(9.69313e-20 -1.27931e-15 0 -1.88643e-15 -1.95028e-15 0 0 0 0)
(-4.78533e-16 -5.23468e-16 0 -3.14809e-16 -3.39712e-15 0 0 0 0)
(-3.06054e-16 1.67443e-15 0 2.061e-15 -2.94077e-15 0 0 0 0)
(2.79731e-16 1.60899e-15 0 2.04429e-15 -4.18653e-15 0 0 0 0)
(8.5933e-16 -3.95117e-16 0 -1.13545e-16 -3.09599e-15 0 0 0 0)
(2.9335e-16 -2.44537e-15 0 -1.97949e-15 -1.29081e-15 0 0 0 0)
(-8.98958e-16 -2.81028e-16 0 -6.8986e-16 -3.41544e-15 0 0 0 0)
(4.80073e-16 9.87374e-16 0 1.56946e-15 -1.70095e-15 0 0 0 0)
(2.20179e-11 -2.42196e-14 0 1.28852e-15 2.97457e-15 0 0 0 0)
(1.06302e-07 -6.73579e-14 0 -4.06552e-14 1.14154e-14 0 0 0 0)
(5.04582e-05 -5.9976e-14 0 -1.09887e-13 1.25294e-13 0 0 0 0)
(0.0033253 -2.2222e-13 0 -1.45733e-13 -6.97325e-13 0 0 0 0)
(0.0462252 3.62223e-13 0 -6.11327e-14 8.44119e-13 0 0 0 0)
(0.215779 1.5591e-13 0 4.9516e-13 -3.43455e-13 0 0 0 0)
(0.497561 -3.60858e-13 0 -1.8185e-13 4.32903e-14 0 0 0 0)
(0.737459 7.75406e-14 0 -3.69614e-14 -3.6755e-13 0 0 0 0)
(0.799797 -1.79078e-14 0 -6.8009e-14 4.36276e-14 0 0 0 0)
(2.68025 -4.19918e-15 0 -8.08223e-14 -3.97155e-14 0 0 0 0)
(2.29318 4.02475e-14 0 -4.73106e-14 2.64268e-14 0 0 0 0)
(2.07418 0.530582 0 -3.68046 0.166324 0 0 0 0)
(2.40267 0.314952 0 -1.09674 -0.157654 0 0 0 0)
(0.651996 -0.349975 0 -0.45598 -0.0745654 0 0 0 0)
(0.563555 -0.202502 0 -0.172321 -0.00699328 0 0 0 0)
(0.369951 -0.0845463 0 -0.0464139 0.0201887 0 0 0 0)
(0.162503 -0.0182119 0 -0.00638622 0.00454216 0 0 0 0)
(0.0350831 -0.00187496 0 -0.000255454 0.000292199 0 0 0 0)
(0.00252061 -5.32576e-05 0 -1.17156e-06 4.44413e-06 0 0 0 0)
(3.78718e-05 -2.95752e-07 0 1.77984e-09 9.19463e-09 0 0 0 0)
(7.88834e-08 -1.0237e-10 0 9.39679e-13 1.83605e-12 0 0 0 0)
(1.61453e-11 8.62037e-15 0 -2.6874e-16 1.27205e-15 0 0 0 0)
(7.5769e-16 5.42715e-16 0 1.23003e-16 -3.14846e-16 0 0 0 0)
(-2.44705e-16 -3.09978e-16 0 -6.44191e-17 3.20949e-16 0 0 0 0)
(1.14928e-16 -2.91532e-30 0 -1.91718e-16 -8.12083e-16 0 0 0 0)
(-2.90636e-17 3.09218e-16 0 2.86839e-16 -4.74331e-16 0 0 0 0)
(-3.84608e-17 -2.06652e-16 0 -3.52283e-16 8.0837e-16 0 0 0 0)
(4.60139e-17 -1.69171e-16 0 1.57566e-16 2.11296e-16 0 0 0 0)
(1.43666e-17 -2.70471e-16 0 -2.00621e-16 -1.1274e-18 0 0 0 0)
(2.60974e-17 -6.00202e-17 0 -1.22127e-18 3.67823e-16 0 0 0 0)
(1.93557e-18 2.70471e-16 0 -4.81594e-18 9.23474e-16 0 0 0 0)
(8.54581e-19 -9.47155e-17 0 8.83792e-18 7.64767e-17 0 0 0 0)
(-1.83077e-18 -6.33631e-16 0 -2.17715e-16 2.91177e-17 0 0 0 0)
(-1.17864e-16 -5.44234e-16 0 2.0876e-18 1.49635e-15 0 0 0 0)
(9.26272e-17 4.75603e-16 0 2.64326e-16 3.46333e-16 0 0 0 0)
(5.09678e-17 9.54499e-16 0 6.85547e-16 -8.92075e-16 0 0 0 0)
(2.29199e-17 -1.28904e-16 0 -8.00015e-17 -1.47313e-15 0 0 0 0)
(6.24218e-17 -9.81597e-16 0 -5.98094e-16 -3.41793e-16 0 0 0 0)
(-8.75633e-17 -4.5509e-16 0 -3.9242e-16 1.70928e-15 0 0 0 0)
(1.3095e-15 5.1511e-16 0 6.28292e-16 -4.63439e-16 0 0 0 0)
(2.2005e-11 1.49448e-14 0 1.08746e-15 5.91621e-16 0 0 0 0)
(1.06302e-07 1.39997e-15 0 3.13719e-14 5.00393e-14 0 0 0 0)
(5.04582e-05 -2.73334e-13 0 -4.1129e-14 8.0398e-14 0 0 0 0)
(0.0033253 1.33082e-14 0 -5.33832e-13 -3.43482e-13 0 0 0 0)
(0.0462252 4.23334e-13 0 4.80259e-13 7.58954e-13 0 0 0 0)
(0.215779 -8.1058e-14 0 9.14226e-14 -5.24588e-13 0 0 0 0)
(0.497561 -2.7685e-13 0 -1.37245e-13 3.71123e-13 0 0 0 0)
(0.737459 2.41272e-14 0 -8.53972e-14 4.20995e-14 0 0 0 0)
(0.799797 9.63268e-14 0 -4.01694e-14 4.19105e-14 0 0 0 0)
(2.68025 -4.03943e-15 0 -6.78417e-14 1.80957e-13 0 0 0 0)
(2.29318 -3.01538e-14 0 -2.61845e-14 9.41239e-14 0 0 0 0)
(2.3325 0.159262 0 -0.529983 0.121659 0 0 0 0)
(2.74826 0.0620158 0 -0.288303 -0.380841 0 0 0 0)
(0.806891 -0.160417 0 -0.217637 -0.18394 0 0 0 0)
(0.68383 -0.108725 0 -0.129531 -0.0642072 0 0 0 0)
(0.445832 -0.060854 0 -0.0490479 -0.0110066 0 0 0 0)
(0.190603 -0.0181215 0 -0.00985787 -0.000556912 0 0 0 0)
(0.0402787 -0.00298843 0 -0.000693462 2.93265e-05 0 0 0 0)
(0.00284545 -0.000168259 0 -1.06477e-05 7.99828e-07 0 0 0 0)
(4.24112e-05 -1.98738e-06 0 -2.28574e-08 1.91956e-09 0 0 0 0)
(8.7858e-08 -3.30786e-09 0 -4.84571e-12 3.59022e-13 0 0 0 0)
(1.79554e-11 -5.49684e-13 0 -1.17221e-16 3.48744e-16 0 0 0 0)
(8.27315e-16 1.05711e-30 0 -2.03554e-16 -1.74241e-16 0 0 0 0)
(-3.56384e-16 2.63127e-16 0 3.77454e-16 -1.37185e-16 0 0 0 0)
(1.2723e-16 2.65912e-16 0 3.9829e-16 6.79355e-16 0 0 0 0)
(-9.6691e-17 5.94124e-16 0 -3.57811e-16 -4.41515e-17 0 0 0 0)
(-1.44098e-16 -6.22995e-17 0 -2.33017e-16 -4.44143e-17 0 0 0 0)
(1.33035e-17 -6.89346e-16 0 -2.85271e-16 4.79885e-16 0 0 0 0)
(1.07667e-16 -1.29411e-16 0 -2.95593e-16 1.7608e-16 0 0 0 0)
(1.56762e-16 4.83707e-16 0 -3.33649e-18 2.80677e-16 0 0 0 0)
(8.45742e-18 -5.065e-19 0 -1.14236e-17 1.49011e-16 0 0 0 0)
(4.23245e-18 -4.83707e-16 0 4.5262e-17 8.2587e-32 0 0 0 0)
(-5.37423e-18 -2.57302e-16 0 8.6836e-19 1.95265e-16 0 0 0 0)
(-2.07424e-16 -2.06652e-16 0 8.31989e-18 1.08013e-15 0 0 0 0)
(1.38766e-16 1.57015e-17 0 3.97471e-17 7.88945e-16 0 0 0 0)
(7.05956e-17 2.06652e-16 0 -9.26231e-17 3.38232e-16 0 0 0 0)
(7.08769e-17 -7.5975e-18 0 5.50312e-17 -3.80018e-16 0 0 0 0)
(1.16123e-16 -1.63599e-16 0 2.4387e-17 5.41907e-16 0 0 0 0)
(-1.52263e-16 -3.04913e-16 0 -1.07114e-16 7.55569e-16 0 0 0 0)
(1.46138e-15 1.63599e-16 0 -2.8864e-17 7.70023e-16 0 0 0 0)
(2.20545e-11 3.44547e-15 0 -2.21512e-16 2.2102e-16 0 0 0 0)
(1.06302e-07 -2.73236e-14 0 1.05662e-14 -2.74049e-14 0 0 0 0)
(5.04582e-05 -3.24778e-13 0 -9.70174e-14 -7.75787e-14 0 0 0 0)
(0.0033253 3.05364e-13 0 -4.18742e-13 2.14947e-13 0 0 0 0)
(0.0462252 1.54933e-13 0 8.40382e-13 2.34207e-13 0 0 0 0)
(0.215779 -9.07476e-14 0 -3.41719e-13 -4.50719e-13 0 0 0 0)
(0.497561 1.40176e-13 0 2.14237e-13 4.20899e-13 0 0 0 0)
(0.737459 -2.11059e-13 0 -1.20657e-13 1.58891e-13 0 0 0 0)
(0.799797 5.46446e-14 0 -4.79057e-14 7.74155e-14 0 0 0 0)
(2.68025 4.60298e-14 0 4.82033e-14 7.48481e-14 0 0 0 0)
(2.29318 -5.67702e-15 0 9.52164e-15 1.58712e-13 0 0 0 0)
(2.30707 0.0463545 0 -0.0120567 -0.0591866 0 0 0 0)
(2.70366 0.0204663 0 -0.0514031 -0.221561 0 0 0 0)
(0.804995 -0.0448554 0 -0.0801694 -0.124553 0 0 0 0)
(0.726014 -0.0358576 0 -0.0582222 -0.0619897 0 0 0 0)
(0.485273 -0.0232106 0 -0.0257755 -0.017648 0 0 0 0)
(0.209099 -0.00757725 0 -0.00597804 -0.00287712 0 0 0 0)
(0.0445723 -0.00133753 0 -0.000482364 -0.000161361 0 0 0 0)
(0.00318884 -8.15158e-05 0 -8.10312e-06 -1.89596e-06 0 0 0 0)
(4.81323e-05 -1.0665e-06 0 -1.86065e-08 -3.13929e-09 0 0 0 0)
(1.0091e-07 -1.95213e-09 0 -4.12337e-12 -4.86695e-13 0 0 0 0)
(2.08146e-11 -3.37514e-13 0 -1.4036e-16 0 0 0 0 0)
(1.23438e-15 7.44555e-17 0 -2.49114e-16 1.74241e-16 0 0 0 0)
(3.35253e-16 5.12578e-16 0 4.8822e-16 -2.96709e-16 0 0 0 0)
(-5.936e-16 8.96505e-17 0 1.22631e-16 3.88954e-17 0 0 0 0)
(-6.37414e-16 -3.88232e-16 0 -3.45403e-16 -2.75947e-16 0 0 0 0)
(3.14408e-17 2.98328e-16 0 7.15757e-17 -1.05175e-15 0 0 0 0)
(-1.42868e-17 4.33057e-17 0 1.29041e-16 -7.76593e-16 0 0 0 0)
(2.86049e-16 -4.62434e-16 0 1.93639e-16 -1.73978e-16 0 0 0 0)
(2.99933e-16 -8.6105e-17 0 -3.3499e-17 -7.70023e-17 0 0 0 0)
(4.87668e-17 1.0406e-30 0 4.78812e-17 -5.0196e-16 0 0 0 0)
(1.26996e-17 -5.01435e-17 0 2.07989e-16 -7.64767e-17 0 0 0 0)
(-3.74295e-17 4.07226e-16 0 4.72303e-18 9.91045e-32 0 0 0 0)
(-8.03987e-17 2.78575e-17 0 2.31865e-17 3.2772e-16 0 0 0 0)
(-4.64515e-18 -2.39321e-16 0 7.47514e-18 2.1445e-16 0 0 0 0)
(6.56961e-17 -1.71957e-16 0 -1.51028e-16 1.74241e-16 0 0 0 0)
(1.35675e-16 6.73645e-17 0 1.01761e-16 3.52686e-16 0 0 0 0)
(-9.38272e-17 1.12696e-16 0 -3.70072e-17 1.82125e-16 0 0 0 0)
(-1.38878e-16 -2.35269e-16 0 -1.57036e-16 1.69773e-16 0 0 0 0)
(1.19927e-15 0 0 -6.18931e-17 4.98544e-16 0 0 0 0)
(2.20152e-11 -1.22056e-14 0 -4.15015e-16 0 0 0 0 0)
(1.06302e-07 -7.35706e-14 0 -3.24688e-14 -6.51497e-15 0 0 0 0)
(5.04582e-05 -3.97946e-14 0 -1.12362e-13 3.06509e-14 0 0 0 0)
(0.0033253 3.13756e-13 0 3.84332e-14 4.32368e-13 0 0 0 0)
(0.0462252 -2.18127e-13 0 4.72852e-13 -2.34347e-13 0 0 0 0)
(0.215779 9.88449e-14 0 -4.40208e-13 -3.40437e-14 0 0 0 0)
(0.497561 3.10592e-13 0 3.29315e-13 7.74504e-14 0 0 0 0)
(0.737459 -3.06866e-13 0 -1.12921e-13 7.31148e-14 0 0 0 0)
(0.799797 1.53401e-14 0 -1.48776e-14 -2.26316e-14 0 0 0 0)
(2.68025 7.43005e-14 0 6.54613e-14 4.71053e-14 0 0 0 0)
(2.29318 5.06603e-14 0 2.26139e-14 3.64181e-14 0 0 0 0)
(2.29458 0.00279182 0 0.00533976 -0.0230665 0 0 0 0)
(2.68263 -0.000973669 0 -0.00902538 -0.071447 0 0 0 0)
(0.80032 -0.00664785 0 -0.0188684 -0.0447954 0 0 0 0)
(0.736246 -0.00570766 0 -0.014408 -0.0252596 0 0 0 0)
(0.496176 -0.00389089 0 -0.00704119 -0.00788289 0 0 0 0)
(0.214976 -0.00127073 0 -0.00171068 -0.00137901 0 0 0 0)
(0.0460316 -0.00021776 0 -0.000141145 -8.40659e-05 0 0 0 0)
(0.00331026 -1.27679e-05 0 -2.40737e-06 -1.10091e-06 0 0 0 0)
(5.02197e-05 -1.60373e-07 0 -5.58491e-09 -2.01647e-09 0 0 0 0)
(1.05788e-07 -2.82726e-10 0 -1.29422e-12 -3.63299e-13 0 0 0 0)
(2.19286e-11 -8.05188e-14 0 -1.45487e-16 1.78183e-16 0 0 0 0)
(1.43304e-15 -2.85919e-16 0 9.60237e-17 0 0 0 0 0)
(1.84308e-18 1.32703e-16 0 3.65012e-16 -1.40076e-16 0 0 0 0)
(-6.7608e-16 2.85919e-16 0 -2.40126e-16 -5.3192e-16 0 0 0 0)
(-1.4589e-16 -4.56863e-16 0 -1.99683e-16 -2.85934e-16 0 0 0 0)
(3.13094e-16 -5.44741e-16 0 1.36674e-16 -6.06032e-16 0 0 0 0)
(1.30928e-16 1.56508e-16 0 3.40067e-16 -6.06557e-16 0 0 0 0)
(-4.89628e-17 5.44741e-16 0 4.47238e-16 -1.73978e-16 0 0 0 0)
(1.63046e-17 1.67651e-16 0 -1.15143e-16 0 0 0 0 0)
(2.41164e-16 0 0 1.57988e-16 -8.46237e-17 0 0 0 0)
(-3.73564e-17 0 0 3.31192e-16 0 0 0 0 0)
(-1.83457e-16 1.32196e-16 0 1.66337e-17 -3.2588e-17 0 0 0 0)
(-2.04772e-16 3.40259e-30 0 4.40291e-17 -7.66081e-16 0 0 0 0)
(-2.91133e-17 -1.32196e-16 0 -2.26113e-16 -4.38887e-17 0 0 0 0)
(1.61453e-16 3.39861e-16 0 -3.17206e-17 -2.41782e-17 0 0 0 0)
(1.80751e-16 6.60696e-30 0 -1.30184e-16 6.28108e-16 0 0 0 0)
(-1.33264e-16 -3.39861e-16 0 7.19267e-18 -9.43475e-17 0 0 0 0)
(-1.76244e-16 0 0 -3.5797e-17 0 0 0 0 0)
(1.21278e-15 0 0 -2.47128e-17 0 0 0 0 0)
(2.20233e-11 -3.31302e-15 0 2.97372e-16 0 0 0 0 0)
(1.06302e-07 2.21264e-15 0 -9.12369e-15 2.25023e-14 0 0 0 0)
(5.04582e-05 9.81458e-14 0 3.54896e-14 1.35291e-13 0 0 0 0)
(0.0033253 5.00022e-14 0 1.16682e-13 1.70887e-14 0 0 0 0)
(0.0462252 -2.94518e-13 0 -1.26099e-14 -3.05529e-13 0 0 0 0)
(0.215779 2.09712e-13 0 -2.45015e-13 2.47988e-13 0 0 0 0)
(0.497561 2.43437e-13 0 3.02907e-13 -2.40527e-13 0 0 0 0)
(0.737459 -3.07501e-13 0 -7.98925e-14 -9.54724e-15 0 0 0 0)
(0.799797 2.95809e-14 0 8.33143e-15 -1.92918e-13 0 0 0 0)
(2.68025 1.02932e-13 0 -9.52164e-14 4.67688e-14 0 0 0 0)
(2.29318 -1.59756e-14 0 4.76082e-15 -5.65227e-14 0 0 0 0)
(2.29323 -0.000266701 0 0.000362638 -0.00824425 0 0 0 0)
(2.68033 -0.000472516 0 -0.00109499 -0.0111551 0 0 0 0)
(0.799808 -0.000347525 0 -0.00210605 -0.00725132 0 0 0 0)
(0.737411 -0.000287307 0 -0.00163789 -0.00426164 0 0 0 0)
(0.497508 -0.000198393 0 -0.000848124 -0.00133131 0 0 0 0)
(0.215748 -6.20248e-05 0 -0.000201156 -0.000226058 0 0 0 0)
(0.0462184 -9.73146e-06 0 -1.56148e-05 -1.32462e-05 0 0 0 0)
(0.00332484 -5.08839e-07 0 -2.47511e-07 -1.66391e-07 0 0 0 0)
(5.04521e-05 -5.62249e-09 0 -5.33856e-10 -2.93372e-10 0 0 0 0)
(1.06291e-07 -8.98654e-12 0 -9.35786e-14 -8.55367e-14 0 0 0 0)
(2.20618e-11 1.25739e-14 0 -2.05864e-16 -1.78183e-16 0 0 0 0)
(1.72631e-15 -2.3223e-16 0 -2.07014e-17 -1.39813e-16 0 0 0 0)
(1.13272e-17 1.98209e-31 0 -1.19413e-16 4.6911e-16 0 0 0 0)
(-1.13776e-15 -5.09032e-17 0 1.96642e-16 -2.03938e-16 0 0 0 0)
(-2.74316e-16 -4.59649e-16 0 1.86185e-16 2.94869e-16 0 0 0 0)
(5.51563e-16 -1.06365e-17 0 5.90876e-17 4.66744e-16 0 0 0 0)
(2.84985e-16 4.59649e-16 0 -2.02734e-16 5.65297e-16 0 0 0 0)
(-1.52608e-16 1.22066e-16 0 1.48218e-16 1.73978e-16 0 0 0 0)
(2.1201e-17 0 0 -1.51319e-16 0 0 0 0 0)
(4.78871e-16 0 0 1.4185e-16 -1.74241e-16 0 0 0 0)
(-1.23514e-16 0 0 -3.91171e-16 0 0 0 0 0)
(-3.1415e-16 -3.30998e-16 0 -1.199e-16 -1.74241e-16 0 0 0 0)
(-3.14318e-16 1.69677e-17 0 1.83582e-16 -2.7437e-16 0 0 0 0)