/*--------------------------------*- C++ -*----------------------------------*\
| =========                 |                                                 |
| \\      /  F ield         | OpenFOAM: The Open Source CFD Toolbox           |
|  \\    /   O peration     | Version:  v1912                                 |
|   \\  /    A nd           | Website:  www.openfoam.com                      |
|    \\/     M anipulation  |                                                 |
\*---------------------------------------------------------------------------*/
FoamFile
{
    version     2.0;
    format      ascii;
    class       volVectorField;
    location    "2.56";
    object      grad(p);
}
// * * * * * * * * * * * * * * * * * * * * * * * * * * * * * * * * * * * * * //

dimensions      [1 -2 -2 0 0 0 0];


internalField   nonuniform List<vector> 
1900
(
(33225.8 0.200837 0)
(-23711.9 0.0240731 0)
(-689.886 -0.00802563 0)
(596.798 0.119696 0)
(598.713 0.710315 0)
(634.181 -1.15073 0)
(667.49 -11.1561 0)
(657.057 -67.1957 0)
(723.957 -134.144 0)
(-141.972 -166.842 0)
(33226 0.315192 0)
(-23712.1 -0.0621342 0)
(-689.79 -0.24657 0)
(597.517 -0.790424 0)
(597.443 -1.35459 0)
(622.314 -5.0469 0)
(601.445 -11.4506 0)
(534.069 -50.2802 0)
(624.31 -77.8237 0)
(712.685 -199.951 0)
(33226 1.77636e-09 0)
(-23712.5 -1.42109e-10 0)
(-690.614 3.55271e-10 0)
(595.69 -2.27374e-09 0)
(594.457 -4.88498e-09 0)
(624.085 -3.78364e-09 0)
(622.257 -1.47438e-09 0)
(590.684 -9.76996e-10 0)
(574.286 -1.3145e-09 0)
(541.422 0 0)
(33226 -0.315192 0)
(-23712.1 0.0621342 0)
(-689.79 0.24657 0)
(597.517 0.790424 0)
(597.443 1.35459 0)
(622.314 5.0469 0)
(601.445 11.4506 0)
(534.069 50.2802 0)
(624.31 77.8237 0)
(712.685 199.951 0)
(33225.8 -0.200837 0)
(-23711.9 -0.0240731 0)
(-689.886 0.00802564 0)
(596.798 -0.119696 0)
(598.713 -0.710315 0)
(634.181 1.15073 0)
(667.49 11.1561 0)
(657.057 67.1957 0)
(723.957 134.144 0)
(-141.972 166.842 0)
(-215.648 581.876 1.09698e-11)
(401.606 715.142 -1.34989e-11)
(-1861.9 648.965 -1.70757e-11)
(-12758.9 2553.78 0)
(-5892.4 16641.4 -6.3001e-11)
(747.946 475.502 1.10749e-11)
(215.903 424.644 1.34989e-11)
(-949.651 86.8105 1.70757e-11)
(-5971.68 953.142 0)
(-3990.09 13265.9 0)
(715.455 1.27112e-09 0)
(140.857 1.98671e-09 0)
(-1384.56 -1.23358e-09 0)
(-5775.84 3.1961e-09 0)
(3516.69 -1.16309e-09 0)
(747.946 -475.502 1.10749e-11)
(215.903 -424.644 1.34989e-11)
(-949.651 -86.8105 1.70757e-11)
(-5971.68 -953.142 0)
(-3990.09 -13265.9 0)
(-215.648 -581.876 -3.31196e-11)
(401.606 -715.142 -1.34989e-11)
(-1861.9 -648.965 -1.70757e-11)
(-12758.9 -2553.78 -4.5544e-11)
(-5892.4 -16641.4 6.3001e-11)
(17392.3 -4246.43 3.42858e-11)
(3237.32 -664.973 -2.9524e-11)
(2591.7 -52.9724 0)
(1059.43 2610.29 2.35231e-11)
(-11887.3 -494.445 -1.0548e-11)
(11669.6 -4513.35 -1.7079e-11)
(4226.35 -532.916 1.4752e-11)
(3800.06 -350.704 0)
(736.484 548.701 -1.47552e-11)
(-11272.2 -7780.21 2.57469e-12)
(13104.5 8.9715e-11 0)
(4227.32 -9.10952e-10 0)
(2955.97 3.02639e-09 0)
(-2523.64 -6.6178e-09 5.9087e-12)
(-13679.3 -2.01528e-08 -5.14938e-12)
(11669.6 4513.35 -1.7079e-11)
(4226.35 532.916 1.4752e-11)
(3800.06 350.704 0)
(736.484 -548.701 -1.47552e-11)
(-11272.2 7780.21 2.57469e-12)
(17392.3 4246.43 1.7079e-11)
(3237.32 664.973 2.00268e-14)
(2591.7 52.9724 0)
(1059.43 -2610.29 7.86135e-14)
(-11887.3 494.445 1.0548e-11)
(-32945.3 -4253.17 0)
(-19754.3 8105.75 0)
(2106.99 4268.48 0)
(368.823 1914.71 0)
(-442.061 1158.93 0)
(144.78 923.556 0)
(593.266 793.561 0)
(921.191 841.987 0)
(1183.33 840.908 0)
(1481.89 859.552 0)
(1767.62 888.823 0)
(2039.92 917.244 0)
(2284.85 948.31 0)
(2494.37 982.17 0)
(2670.47 1018.34 0)
(2802.12 1057.91 0)
(2834.91 1100.54 0)
(2614.96 1144.03 0)
(2051.67 1181.71 0)
(814.448 1209.21 0)
(-936.13 1207.63 0)
(-2155.06 1176.57 0)
(-2695.66 1136.47 0)
(-2913.72 1089.99 0)
(-2894.13 1043.55 0)
(-2795.13 999.145 0)
(-2675.52 957.149 0)
(-2552.27 917.209 0)
(-2424.4 878.962 0)
(-2286.26 842.248 0)
(-2131.36 807.152 0)
(-1956.95 774.029 0)
(-1772.53 743.379 0)
(-1604.66 715.988 0)
(-1472.7 691.518 0)
(-1336.64 669.614 0)
(-1044.16 623.123 0)
(-1612.95 600.758 0)
(58583.5 520.352 0)
(-79255 1754.26 0)
(-31194.3 -2287.96 0)
(-20371.7 9805.96 0)
(988.974 4362.42 0)
(-293.787 1055.01 0)
(-517.285 566.295 0)
(102.852 417.104 0)
(583.294 354.854 0)
(925.718 373.171 0)
(1185.3 377.005 0)
(1485.36 383.109 0)
(1772.95 395.426 0)
(2045.47 407.591 0)
(2290.59 420.752 0)
(2500.02 434.031 0)
(2676.15 446.794 0)
(2808.22 460.324 0)
(2841.48 475.266 0)
(2621.33 491.352 0)
(2056.96 505.681 0)
(816.507 516.842 0)
(-939.176 515.635 0)
(-2161.44 501.967 0)
(-2703.4 484.858 0)
(-2922.09 465.074 0)
(-2902.39 445.315 0)
(-2803.08 426.381 0)
(-2683.17 408.381 0)
(-2559.68 391.147 0)
(-2431.55 374.571 0)
(-2293.09 358.731 0)
(-2137.68 343.903 0)
(-1962.51 330.573 0)
(-1776.99 319.274 0)
(-1607.86 310.91 0)
(-1474.33 305.292 0)
(-1340.66 304.374 0)
(-1048.08 287.568 0)
(-1619.69 288.788 0)
(58673.1 261.299 0)
(-79454.9 688.197 0)
(-27620 4.61853e-09 0)
(-17819.6 7.58989e-10 0)
(-438.74 6.13651e-10 0)
(-735.506 1.71176e-09 0)
(-627.633 2.39001e-09 0)
(83.2702 1.56642e-09 0)
(580.485 -2.40616e-09 0)
(927.635 -2.99881e-08 0)
(1186.22 -5.57292e-08 0)
(1487.25 3.77234e-08 0)
(1774.74 3.32566e-07 0)
(2047.29 5.83388e-07 0)
(2292.54 4.57008e-08 0)
(2501.94 -1.7793e-06 0)
(2678.12 -3.98353e-06 0)
(2810.4 -3.86086e-06 0)
(2843.94 -6.21237e-06 0)
(2623.81 5.66315e-06 0)
(2059.09 4.74814e-06 0)
(817.343 9.28847e-06 0)
(-940.458 2.86368e-06 0)
(-2164.01 -2.94024e-05 0)
(-2706.39 -4.36476e-05 0)
(-2925.23 -5.4986e-06 0)
(-2905.38 1.30433e-05 0)
(-2805.87 -1.69703e-06 0)
(-2685.77 -1.47005e-05 0)
(-2562.11 -2.46318e-05 0)
(-2433.83 -2.03813e-05 0)
(-2295.19 -6.24218e-06 0)
(-2139.56 1.26023e-05 0)
(-1964.12 3.54916e-05 0)
(-1778.25 5.36622e-05 0)
(-1608.72 7.27843e-05 0)
(-1474.6 8.56328e-05 0)
(-1341.79 9.76578e-05 0)
(-1048.69 7.68114e-05 0)
(-1620.59 4.308e-05 0)
(58699.7 1.23803e-05 0)
(-79531.2 0.000114858 0)
(-31194.3 2287.96 0)
(-20371.7 -9805.96 0)
(988.974 -4362.42 0)
(-293.787 -1055.01 0)
(-517.285 -566.295 0)
(102.852 -417.104 0)
(583.294 -354.854 0)
(925.718 -373.171 0)
(1185.3 -377.005 0)
(1485.36 -383.109 0)
(1772.95 -395.426 0)
(2045.47 -407.591 0)
(2290.59 -420.752 0)
(2500.02 -434.031 0)
(2676.15 -446.794 0)
(2808.22 -460.324 0)
(2841.48 -475.266 0)
(2621.33 -491.352 0)
(2056.96 -505.681 0)
(816.507 -516.842 0)
(-939.176 -515.635 0)
(-2161.44 -501.967 0)
(-2703.4 -484.858 0)
(-2922.09 -465.074 0)
(-2902.39 -445.315 0)
(-2803.08 -426.381 0)
(-2683.17 -408.381 0)
(-2559.68 -391.147 0)
(-2431.55 -374.571 0)
(-2293.09 -358.731 0)
(-2137.68 -343.903 0)
(-1962.51 -330.573 0)
(-1776.99 -319.274 0)
(-1607.86 -310.909 0)
(-1474.33 -305.292 0)
(-1340.66 -304.373 0)
(-1048.08 -287.568 0)
(-1619.69 -288.788 0)
(58673.1 -261.299 0)
(-79454.9 -688.197 0)
(-32945.3 4253.17 0)
(-19754.3 -8105.75 0)
(2106.99 -4268.48 0)
(368.823 -1914.71 0)
(-442.061 -1158.93 0)
(144.78 -923.556 0)
(593.266 -793.561 0)
(921.191 -841.987 0)
(1183.33 -840.908 0)
(1481.89 -859.552 0)
(1767.62 -888.823 0)
(2039.92 -917.244 0)
(2284.85 -948.31 0)
(2494.37 -982.17 0)
(2670.47 -1018.34 0)
(2802.12 -1057.91 0)
(2834.91 -1100.54 0)
(2614.96 -1144.03 0)
(2051.67 -1181.71 0)
(814.448 -1209.21 0)
(-936.13 -1207.63 0)
(-2155.06 -1176.57 0)
(-2695.66 -1136.47 0)
(-2913.72 -1089.99 0)
(-2894.13 -1043.55 0)
(-2795.13 -999.145 0)
(-2675.52 -957.149 0)
(-2552.27 -917.209 0)
(-2424.4 -878.962 0)
(-2286.26 -842.248 0)
(-2131.36 -807.152 0)
(-1956.95 -774.029 0)
(-1772.53 -743.379 0)
(-1604.66 -715.988 0)
(-1472.7 -691.518 0)
(-1336.64 -669.614 0)
(-1044.16 -623.123 0)
(-1612.95 -600.758 0)
(58583.5 -520.352 0)
(-79255 -1754.26 0)
(52309.8 13449.2 0)
(-26431 -5305.82 0)
(3579.73 -3005.79 0)
(890.607 -2933.5 0)
(17.4631 -1849.59 0)
(283.556 -1500.29 0)
(622.931 -1316.87 0)
(901.253 -1344.48 0)
(1176.56 -1350.91 0)
(1459.31 -1387.67 0)
(1742.93 -1434.11 0)
(2014.58 -1482.42 0)
(2256.51 -1538.36 0)
(2462.63 -1602.73 0)
(2635.22 -1674.76 0)
(2763.71 -1753.47 0)
(2795.05 -1836.41 0)
(2577.78 -1918.59 0)
(2022.18 -1988.74 0)
(802.631 -2037.71 0)
(-922.22 -2035.24 0)
(-2124.18 -1981.32 0)
(-2658.04 -1910.25 0)
(-2873.48 -1827.96 0)
(-2854.95 -1745.3 0)
(-2758.08 -1665.78 0)
(-2640.62 -1590.12 0)
(-2519.19 -1517.83 0)
(-2392.81 -1448.34 0)
(-2255.93 -1381.3 0)
(-2102.18 -1316.62 0)
(-1928.93 -1254.53 0)
(-1745.73 -1195.42 0)
(-1579.03 -1139.76 0)
(-1447.14 -1086.45 0)
(-1302.41 -1033.22 0)
(-1009.42 -953.648 0)
(-1563.01 -902.493 0)
(58053.1 -777.627 0)
(-78259.2 -3000.53 0)
(54999.3 8194.41 0)
(-32030.7 -2336.56 0)
(3603.32 -2795.6 0)
(1203.18 -2885.32 0)
(692.614 -2311.57 0)
(583.709 -1949.38 0)
(727.507 -1793.13 0)
(899.079 -1758.01 0)
(1145.34 -1775.23 0)
(1413.83 -1812.64 0)
(1689.56 -1863.3 0)
(1953.05 -1924.48 0)
(2184.11 -1999.5 0)
(2379.94 -2088.17 0)
(2544.11 -2188.61 0)
(2666.95 -2298.14 0)
(2697.17 -2413.04 0)
(2488.11 -2526.05 0)
(1952.7 -2621.86 0)
(775.977 -2686.8 0)
(-889.245 -2682.33 0)
(-2051.17 -2609.36 0)
(-2568.06 -2511.74 0)
(-2776.34 -2398.44 0)
(-2758.85 -2283.65 0)
(-2665.46 -2172.3 0)
(-2551.66 -2065.59 0)
(-2433.39 -1963.19 0)
(-2309.77 -1864.66 0)
(-2175.6 -1769.92 0)
(-2024.85 -1679.32 0)
(-1855.18 -1593.69 0)
(-1676.3 -1513.99 0)
(-1513.39 -1441.01 0)
(-1383.73 -1371.31 0)
(-1227.02 -1303.14 0)
(-936.816 -1211.21 0)
(-1470.11 -1159.76 0)
(56846.2 -1052.74 0)
(-76148.2 -5084.55 0)
(57954.7 8765.05 0)
(-37021.4 -1364.09 0)
(3050.93 -2470.95 0)
(1357.04 -2518.79 0)
(919.364 -2390.99 0)
(783.138 -2144.98 0)
(807.347 -2066.04 0)
(918.502 -2014.21 0)
(1123.91 -2019.75 0)
(1374.45 -2044.03 0)
(1635.16 -2084.58 0)
(1883.33 -2143.54 0)
(2098.77 -2221.14 0)
(2280.4 -2315.75 0)
(2432.89 -2424.5 0)
(2547.44 -2544.3 0)
(2575.43 -2670.84 0)
(2376.55 -2795.36 0)
(1867.27 -2900.15 0)
(744.359 -2969.56 0)
(-847.595 -2963.05 0)
(-1959.79 -2882.01 0)
(-2454.79 -2772.91 0)
(-2653.69 -2645.89 0)
(-2637.04 -2516.55 0)
(-2547.95 -2390.83 0)
(-2439.11 -2270.51 0)
(-2325.56 -2155.53 0)
(-2206.57 -2045.71 0)
(-2077.33 -1941.17 0)
(-1932.35 -1842.71 0)
(-1769.62 -1751.53 0)
(-1598.61 -1668.82 0)
(-1441.53 -1595.05 0)
(-1314.29 -1522.77 0)
(-1148.13 -1451.96 0)
(-871.253 -1369.85 0)
(-1410.31 -1337.61 0)
(54271 -1284.19 0)
(-72345.1 -7546.49 0)
(62131.2 1882.02 0)
(-42858.1 -1433.21 0)
(2490.61 -2119.22 0)
(1280.24 -2273.31 0)
(1052.82 -2231.21 0)
(896.846 -2125.08 0)
(853.523 -2089.38 0)
(943.681 -2054.32 0)
(1116.61 -2048.35 0)
(1351.36 -2060 0)
(1593.66 -2088.92 0)
(1821.45 -2140.32 0)
(2018.16 -2213.22 0)
(2183.98 -2304.24 0)
(2323.87 -2409.97 0)
(2429.56 -2527.11 0)
(2455.24 -2651.01 0)
(2267.14 -2772.41 0)
(1784.84 -2873.35 0)
(715.368 -2938.99 0)
(-804.88 -2931.1 0)
(-1867.95 -2851.1 0)
(-2340.52 -2743.4 0)
(-2529.31 -2617.51 0)
(-2513.07 -2488.86 0)
(-2428.37 -2363.82 0)
(-2324.92 -2244.44 0)
(-2216.76 -2130.84 0)
(-2103.21 -2022.77 0)
(-1979.98 -1920.73 0)
(-1842.11 -1825.24 0)
(-1687.62 -1738.24 0)
(-1525.51 -1659.92 0)
(-1372.66 -1590.53 0)
(-1245.85 -1517.95 0)
(-1079.66 -1447.32 0)
(-826.622 -1385.26 0)
(-1387.57 -1387.04 0)
(50863.1 -1337.85 0)
(-67638.6 -8894.37 0)
(58387.2 -5222.15 0)
(-40877.1 -1556.82 0)
(2241.37 -1956.21 0)
(1249.12 -2014.14 0)
(1062.21 -2027.93 0)
(919.814 -2046.64 0)
(875.534 -2035.48 0)
(958.035 -2025.28 0)
(1118.44 -2014.34 0)
(1335.36 -2019.74 0)
(1557.76 -2043.28 0)
(1763.55 -2091.05 0)
(1940.81 -2160.5 0)
(2090.8 -2248.07 0)
(2218.12 -2349.93 0)
(2315.17 -2462.89 0)
(2339.05 -2582.06 0)
(2162.29 -2698.07 0)
(1706.75 -2793.35 0)
(688.709 -2854.94 0)
(-762.898 -2846.62 0)
(-1778.91 -2769.64 0)
(-2229.7 -2666.41 0)
(-2408.41 -2545.26 0)
(-2392.57 -2421.29 0)
(-2312.41 -2300.93 0)
(-2214.61 -2186.38 0)
(-2111.96 -2077.53 0)
(-2004.1 -1974.48 0)
(-1886.98 -1876.88 0)
(-1756.5 -1786.76 0)
(-1610.31 -1704.34 0)
(-1456.27 -1630.3 0)
(-1304.72 -1564.08 0)
(-1176.28 -1490.5 0)
(-1020.26 -1422.07 0)
(-813.161 -1379.14 0)
(-1364.62 -1411.61 0)
(47036.7 -1327.97 0)
(-62484.9 -9517.64 0)
(55598.7 -5041.93 0)
(-39710.9 -1449.14 0)
(2049.92 -1773.68 0)
(1211.12 -1839.59 0)
(1021.51 -1870.45 0)
(889.576 -1937.1 0)
(874.108 -1951.71 0)
(964.05 -1953.31 0)
(1121.94 -1944.95 0)
(1323.47 -1947.74 0)
(1524.95 -1971.45 0)
(1708.5 -2017.14 0)
(1866.85 -2085 0)
(2001.43 -2169.38 0)
(2116.86 -2267.4 0)
(2205.87 -2375.56 0)
(2228.61 -2489.15 0)
(2063.53 -2599.01 0)
(1633.67 -2688.29 0)
(664.037 -2746.37 0)
(-722.681 -2738.23 0)
(-1694.29 -2664.78 0)
(-2124.31 -2566.68 0)
(-2293.1 -2451.01 0)
(-2277.62 -2332.46 0)
(-2202 -2217.52 0)
(-2109.64 -2108.17 0)
(-2012.58 -2004.7 0)
(-1909.86 -1905.96 0)
(-1799.09 -1814.18 0)
(-1675.84 -1727.19 0)
(-1536.84 -1650.71 0)
(-1390.35 -1578.82 0)
(-1237.94 -1514.89 0)
(-1108.99 -1442.54 0)
(-972.345 -1380.74 0)
(-816.547 -1353 0)
(-1338.27 -1392.9 0)
(43051.9 -1291.65 0)
(-57187.4 -9540.49 0)
(52132.1 -5866.82 0)
(-37727.7 -1344.74 0)
(1865.12 -1630.16 0)
(1155.87 -1714.72 0)
(968.245 -1756.28 0)
(841.509 -1826.29 0)
(859.911 -1852.49 0)
(964.554 -1860.86 0)
(1123.8 -1856.01 0)
(1309.82 -1863.83 0)
(1490.88 -1887.69 0)
(1654.13 -1936.34 0)
(1794.11 -2002.43 0)
(1915.03 -2085.07 0)
(2019.44 -2179.2 0)
(2101.48 -2282.5 0)
(2123.72 -2390.28 0)
(1970.4 -2494.1 0)
(1564.75 -2577.97 0)
(640.585 -2633.64 0)
(-684.275 -2626.14 0)
(-1613.6 -2555.95 0)
(-2023.7 -2462.5 0)
(-2182.7 -2351.77 0)
(-2167.57 -2238.23 0)
(-2096.28 -2128.16 0)
(-2009.53 -2023.84 0)
(-1917.1 -1924.34 0)
(-1820.5 -1831.36 0)
(-1714.71 -1741.35 0)
(-1598.98 -1661.71 0)
(-1467.34 -1586.05 0)
(-1325.4 -1518.09 0)
(-1173.4 -1456.45 0)
(-1047.01 -1387.17 0)
(-933.979 -1333.98 0)
(-824.882 -1315.16 0)
(-1305.5 -1350.18 0)
(39185.4 -1240.6 0)
(-52046.7 -9394.65 0)
(48649.4 -6354.93 0)
(-35628.3 -1274.25 0)
(1693.39 -1518.09 0)
(1089.59 -1603.55 0)
(913.997 -1656.82 0)
(796.862 -1712.87 0)
(840.797 -1740.34 0)
(960.655 -1755.1 0)
(1119.08 -1757.71 0)
(1292.94 -1767.2 0)
(1455.07 -1799.53 0)
(1597.93 -1846.34 0)
(1723.54 -1913.97 0)
(1831.09 -1992.99 0)
(1926.61 -2083.12 0)
(2002.46 -2180.61 0)
(2024.7 -2282.08 0)
(1882.67 -2379.84 0)
(1499.21 -2458.94 0)
(617.619 -2513.22 0)
(-647.818 -2506.8 0)
(-1536.59 -2439.67 0)
(-1927.55 -2350.59 0)
(-2076.99 -2244.67 0)
(-2062.14 -2136.1 0)
(-1995.41 -2031.19 0)
(-1913.23 -1931.33 0)
(-1827.09 -1837.68 0)
(-1733.52 -1746.7 0)
(-1635.61 -1665.31 0)
(-1526.19 -1583.8 0)
(-1398.44 -1516.94 0)
(-1265.46 -1448.65 0)
(-1111.79 -1389.4 0)
(-990.981 -1326.98 0)
(-902.958 -1281.17 0)
(-832.163 -1264.93 0)
(-1266.41 -1289.08 0)
(35299.9 -1176.57 0)
(-46938.9 -9021.18 0)
(44780.4 -7190.45 0)
(-33066.8 -1217.73 0)
(1547.79 -1427.72 0)
(1022.18 -1499.19 0)
(862.904 -1558.87 0)
(761.028 -1600.86 0)
(819.217 -1626.47 0)
(947.812 -1644.6 0)
(1112.14 -1650.95 0)
(1269.53 -1670.69 0)
(1414.62 -1700.34 0)
(1543.85 -1753.1 0)
(1652.8 -1816.17 0)
(1752.03 -1892.75 0)
(1838.64 -1976.8 0)
(1909.75 -2067.87 0)
(1931.73 -2162.55 0)
(1799.97 -2254.46 0)
(1436.22 -2329.53 0)
(594.47 -2383.26 0)
(-613.406 -2378.24 0)
(-1463.08 -2313.96 0)
(-1835.79 -2229.17 0)
(-1976.01 -2128.22 0)
(-1961.85 -2025.1 0)
(-1898.96 -1925.57 0)
(-1823.06 -1831.81 0)
(-1739.18 -1742 0)
(-1654.4 -1659.4 0)
(-1557.73 -1577.41 0)
(-1456 -1506.29 0)
(-1337.1 -1439.12 0)
(-1202.49 -1374.39 0)
(-1056.15 -1322.3 0)
(-942.715 -1263.79 0)
(-874.193 -1224.96 0)
(-832.503 -1210 0)
(-1220.35 -1223.48 0)
(31734.4 -1111.17 0)
(-42219.8 -8624.6 0)
(40547 -7451.02 0)
(-30075.1 -1132.36 0)
(1422.17 -1318.32 0)
(963.204 -1377.07 0)
(816.028 -1448.29 0)
(731.728 -1484.1 0)
(798.647 -1506.17 0)
(937.06 -1529.21 0)
(1093.94 -1537.05 0)
(1245.34 -1561.49 0)
(1375.66 -1597.55 0)
(1486.32 -1647.47 0)
(1588.96 -1709.76 0)
(1676.3 -1779.94 0)
(1757.86 -1857.64 0)
(1823.47 -1941.16 0)
(1844.9 -2028.85 0)
(1721.76 -2115.16 0)
(1375.09 -2186.83 0)
(570.684 -2240.43 0)
(-581.039 -2236.91 0)
(-1392.95 -2175.35 0)
(-1748.56 -2094.96 0)
(-1880.34 -1999.48 0)
(-1866.86 -1902.52 0)
(-1809.15 -1809.63 0)
(-1736.34 -1721.84 0)
(-1660.95 -1639.46 0)
(-1574.91 -1560.32 0)
(-1488.07 -1486.92 0)
(-1392.93 -1415.93 0)
(-1271.33 -1352.45 0)
(-1152.88 -1293.09 0)
(-1005.21 -1240.9 0)
(-897.188 -1191.55 0)
(-851.131 -1156.05 0)
(-830.737 -1137.94 0)
(-1171.18 -1138.33 0)
(28167.9 -1029.15 0)
(-37557.1 -8138.35 0)
(36509.1 -7457.86 0)
(-27157.1 -1050.41 0)
(1311.98 -1218.28 0)
(896.939 -1275.93 0)
(759.769 -1351.52 0)
(705.251 -1380.71 0)
(775.74 -1397.35 0)
(918.053 -1409.74 0)
(1081.04 -1427.89 0)
(1211.22 -1447.72 0)
(1331.76 -1487.82 0)
(1435.73 -1532.45 0)
(1525.14 -1590.06 0)
(1609.53 -1653.04 0)
(1683.29 -1722.7 0)
(1744.76 -1798.01 0)
(1764.05 -1878.28 0)
(1647.74 -1958.95 0)
(1315.51 -2027.48 0)
(546.212 -2080.73 0)
(-550.693 -2078.59 0)
(-1326.29 -2019.87 0)
(-1666.31 -1944.15 0)
(-1790.57 -1855 0)
(-1778.9 -1765.45 0)
(-1724.85 -1680.4 0)
(-1659.08 -1600.32 0)
(-1583.54 -1525.71 0)
(-1507.4 -1452.93 0)
(-1418.59 -1389.25 0)
(-1326.42 -1319.82 0)
(-1218.73 -1268.4 0)
(-1095 -1204.75 0)
(-958.306 -1161.31 0)
(-860.95 -1118.03 0)
(-822.525 -1089.19 0)
(-815.433 -1070.16 0)
(-1115.52 -1060.7 0)
(24989 -957.85 0)
(-33385.6 -7650.87 0)
(32348.1 -7296.05 0)
(-24062.4 -956.219 0)
(1204.85 -1109.53 0)
(834.808 -1175.62 0)
(715.06 -1234.41 0)
(687.566 -1256.53 0)
(770.673 -1258.94 0)
(907.625 -1274.63 0)
(1057.33 -1282.24 0)
(1187.59 -1319.16 0)
(1294.01 -1347.85 0)
(1387.8 -1399.85 0)
(1472.75 -1450.27 0)
(1548.49 -1510.03 0)
(1618.16 -1572.45 0)
(1673.54 -1640.44 0)
(1689.82 -1713.29 0)
(1577.99 -1788.04 0)
(1257.74 -1853.29 0)
(521.431 -1905.74 0)
(-522.396 -1904.7 0)
(-1263.4 -1848.9 0)
(-1589.68 -1778.24 0)
(-1708.14 -1696.32 0)
(-1698.61 -1615.02 0)
(-1650.02 -1537.64 0)
(-1587.28 -1465.07 0)
(-1518.91 -1394.09 0)
(-1443.42 -1330.38 0)
(-1359.8 -1262.29 0)
(-1276.48 -1209.14 0)
(-1160.44 -1146.76 0)
(-1049.68 -1097.02 0)
(-921.645 -1054.04 0)
(-827.689 -1019.53 0)
(-804.998 -997.452 0)
(-803.281 -980.586 0)
(-1062.95 -964.784 0)
(21817.4 -869.64 0)
(-29261.5 -7085.8 0)
(28556.9 -7015.18 0)
(-21195.5 -880.824 0)
(1100.56 -1023.74 0)
(776.604 -1095.67 0)
(681.804 -1135.98 0)
(681.61 -1141.53 0)
(758.293 -1127.17 0)
(895.597 -1139.41 0)
(1038.13 -1145.96 0)
(1148 -1176.25 0)
(1254.01 -1213.56 0)
(1337.03 -1256.52 0)
(1418.96 -1308.49 0)
(1491.8 -1362.28 0)
(1557.63 -1420.51 0)
(1609.04 -1482.24 0)
(1621.82 -1548.49 0)
(1512.83 -1617.18 0)
(1202.1 -1678.68 0)
(496.674 -1729.98 0)
(-495.924 -1729.69 0)
(-1204.42 -1676.63 0)
(-1519.28 -1611.46 0)
(-1633.28 -1537.27 0)
(-1625.99 -1463.98 0)
(-1580.35 -1393.98 0)
(-1520.75 -1326.33 0)
(-1453.75 -1262.35 0)
(-1380.4 -1197.86 0)
(-1301.76 -1142.44 0)
(-1215.1 -1083.62 0)
(-1110.69 -1034.27 0)
(-1005.64 -989.926 0)
(-883.628 -949.953 0)
(-806.423 -929.7 0)
(-785.002 -916.25 0)
(-783.953 -901.598 0)
(-1008.61 -879.422 0)
(19090.5 -789.646 0)
(-25719.5 -6475.81 0)
(24739.2 -6693.36 0)
(-18288.9 -833.203 0)
(997.818 -971.095 0)
(726.646 -1035.22 0)
(670.862 -1048.57 0)
(696.061 -1026.1 0)
(772.715 -1005.77 0)
(889.515 -991.766 0)
(1021.84 -1010.32 0)
(1122.46 -1027.79 0)
(1216.65 -1065.62 0)
(1296.32 -1105.92 0)
(1370.83 -1155.96 0)
(1440.54 -1211.76 0)
(1502.57 -1272.78 0)
(1550.22 -1337.29 0)
(1559.78 -1403.68 0)
(1452.54 -1470.22 0)
(1149.05 -1529.46 0)
(472.27 -1579.76 0)
(-470.99 -1579.91 0)
(-1149.46 -1528.89 0)
(-1455.39 -1467.47 0)
(-1566.03 -1397.12 0)
(-1560.53 -1325.41 0)
(-1517.38 -1254.21 0)
(-1460.43 -1185.2 0)
(-1395.11 -1120.25 0)
(-1327.87 -1059.61 0)
(-1249.72 -1007.17 0)
(-1172.24 -954.776 0)
(-1070.15 -917.969 0)
(-968.431 -875.177 0)
(-863.609 -853.891 0)
(-795.212 -844.996 0)
(-777.917 -843.757 0)
(-767.792 -837.103 0)
(-955.073 -813.39 0)
(16424.5 -726.275 0)
(-22260.2 -5883.95 0)
(21304.1 -6307.98 0)
(-15681.3 -788.044 0)
(905.884 -917.743 0)
(701.949 -968.286 0)
(690.597 -967.793 0)
(722.851 -928.075 0)
(791.376 -915.545 0)
(891.21 -890.106 0)
(1003.42 -908.923 0)
(1094.71 -924.218 0)
(1178.72 -954.33 0)
(1249.98 -989.909 0)
(1316.97 -1032.9 0)
(1379.22 -1085.21 0)
(1436.66 -1146.22 0)
(1482.9 -1213.27 0)
(1493.72 -1281.59 0)
(1391.62 -1349.04 0)
(1096.54 -1408 0)
(448.058 -1458.06 0)
(-446.901 -1458.37 0)
(-1096.07 -1408.21 0)
(-1392.3 -1348.18 0)
(-1496.39 -1278.43 0)
(-1488.27 -1206.51 0)
(-1445.24 -1134.52 0)
(-1391.66 -1067.32 0)
(-1332.72 -1007.48 0)
(-1271.43 -956.215 0)
(-1200.74 -909.911 0)
(-1129.14 -870.611 0)
(-1033.98 -836.038 0)
(-943.896 -807.31 0)
(-854.545 -794.398 0)
(-796.657 -793.723 0)
(-777.397 -795.452 0)
(-754.69 -788.53 0)
(-901.814 -756.774 0)
(14204.3 -667.096 0)
(-19349.6 -5340.97 0)
(17901.2 -5561.31 0)
(-13094.6 -721.043 0)
(824.13 -852.681 0)
(678.417 -905.116 0)
(709.611 -915.405 0)
(746.409 -882.047 0)
(809.303 -878.117 0)
(895.897 -853.023 0)
(988.967 -872.472 0)
(1078.7 -874.522 0)
(1153.35 -893.345 0)
(1220.61 -907.024 0)
(1279 -926.461 0)
(1331.34 -951.268 0)
(1379.16 -986.376 0)
(1419.77 -1034.59 0)
(1428.95 -1096.92 0)
(1330.72 -1170.61 0)
(1043.99 -1242.56 0)
(423.736 -1302.14 0)
(-422.949 -1302.45 0)
(-1043.27 -1243.05 0)
(-1330.33 -1170.77 0)
(-1429.51 -1095.93 0)
(-1421.85 -1031.43 0)
(-1383.26 -979.882 0)
(-1338.02 -940.309 0)
(-1288.04 -909.631 0)
(-1233.85 -883.784 0)
(-1167.23 -860.799 0)
(-1101.06 -835.582 0)
(-1009.15 -816.161 0)
(-928.305 -793.525 0)
(-850.517 -784.672 0)
(-796.227 -780.013 0)
(-772.912 -774.544 0)
(-730.521 -754.571 0)
(-838.055 -702.313 0)
(12007 -598.991 0)
(-16470.6 -4625.18 0)
(15250.2 -4467.33 0)
(-11143.9 -554.813 0)
(728.504 -702.898 0)
(641.505 -779.229 0)
(712.827 -812.282 0)
(758.784 -809.759 0)
(819.345 -816.779 0)
(896.65 -810.922 0)
(982.7 -827.138 0)
(1074.6 -823.422 0)
(1147.4 -828.734 0)
(1218.07 -818.816 0)
(1274.34 -806.174 0)
(1321.48 -787.255 0)
(1356.37 -770.809 0)
(1376.37 -771.961 0)
(1362.64 -807.097 0)
(1251.27 -862.465 0)
(969.792 -923.282 0)
(390.351 -976.134 0)
(-389.958 -976.332 0)
(-969.182 -923.691 0)
(-1250.53 -862.915 0)
(-1362.12 -807.165 0)
(-1376.45 -771.068 0)
(-1357.44 -768.266 0)
(-1323.96 -782.242 0)
(-1278.25 -797.651 0)
(-1224.38 -806.388 0)
(-1154.29 -810.027 0)
(-1086.12 -800.925 0)
(-993.454 -792.475 0)
(-913.552 -774.756 0)
(-841.524 -759.137 0)
(-786.898 -744.599 0)
(-752.88 -719.9 0)
(-685.086 -673.06 0)
(-751.891 -585.309 0)
(10424.1 -449.717 0)
(-14315.4 -3557.83 0)
(13061.7 -2288.12 0)
(-9467.08 -533.535 0)
(607.875 -674.326 0)
(573.01 -795.929 0)
(680.191 -874.359 0)
(742.076 -923.64 0)
(808.183 -973.368 0)
(885.914 -1016.45 0)
(976.922 -1071.96 0)
(1077.16 -1118.49 0)
(1157.79 -1173.08 0)
(1242.35 -1219.45 0)
(1309.41 -1263.18 0)
(1365.42 -1298.45 0)
(1393.9 -1325.2 0)
(1384.8 -1335.33 0)
(1341.74 -1335.69 0)
(1218.76 -1371.36 0)
(934.45 -1450.65 0)
(372.615 -1537.7 0)
(-372.413 -1537.8 0)
(-933.981 -1450.94 0)
(-1218.04 -1371.86 0)
(-1341 -1336.27 0)
(-1384.37 -1335.67 0)
(-1394.02 -1324.82 0)
(-1366.33 -1296.98 0)
(-1311.31 -1260.02 0)
(-1245.77 -1214.31 0)
(-1161.97 -1164.68 0)
(-1084.14 -1108.1 0)
(-983.93 -1055.27 0)
(-896.179 -998.753 0)
(-821.456 -945.001 0)
(-758.418 -890.627 0)
(-703.975 -826.54 0)
(-600.824 -736.286 0)
(-622.834 -603.758 0)
(9142.59 -469.064 0)
(-12608.8 -1718.09 0)
(12531.1 115717 0)
(-9588.8 9754.69 0)
(475.652 9685.43 0)
(448.745 11208.7 0)
(589.76 12982.3 0)
(663.375 15485.2 0)
(729.908 17994.7 0)
(801.642 21039.9 0)
(884.375 24110.9 0)
(977.157 27699.9 0)
(1050.11 31291.3 0)
(1131.25 35311.2 0)
(1198.2 39321.1 0)
(1261.72 43653.7 0)
(1320.84 47954.2 0)
(1366.27 52262.2 0)
(1327.92 56227.7 0)
(1140.49 59442 0)
(809.493 61427.5 0)
(306.369 62172.7 0)
(-306.345 62172.6 0)
(-809.277 61427.2 0)
(-1140.04 59441.4 0)
(-1327.24 56226.8 0)
(-1365.41 52261.4 0)
(-1320.16 47954 0)
(-1261.51 43654.7 0)
(-1198.58 39324.2 0)
(-1132.51 35317.2 0)
(-1051.94 31301.4 0)
(-980.683 27713.5 0)
(-888.086 24131.5 0)
(-807.298 21063.7 0)
(-737.33 18028.3 0)
(-672.744 15524.4 0)
(-604.151 13032.8 0)
(-470.405 11268.9 0)
(-494.386 9755.36 0)
(9350.31 9814.23 0)
(-12207.8 115908 0)
(133971 -139215 0)
(-111643 -12815.7 0)
(2009 -13408.1 0)
(3749.96 -15394.1 0)
(4801.18 -17765.2 0)
(5572.2 -20988.4 0)
(6160.93 -24236.1 0)
(6779.73 -28139.3 0)
(7394.68 -32103.6 0)
(7996.52 -36730.8 0)
(8492.38 -41415.9 0)
(8980.13 -46633.4 0)
(9348.48 -51908.8 0)
(9684.62 -57578 0)
(9689.37 -63268.2 0)
(9357.36 -69003.7 0)
(8260.5 -74396.5 0)
(6229.51 -78954 0)
(3565.81 -82044.6 0)
(1090.59 -83494.4 0)
(-1090.77 -83494.3 0)
(-3565.82 -82044.6 0)
(-6229.34 -78954.1 0)
(-8259.97 -74397.1 0)
(-9356.38 -69005.1 0)
(-9687.75 -63270.7 0)
(-9682.26 -57581.8 0)
(-9345.64 -51914 0)
(-8976.84 -46639.7 0)
(-8489.15 -41423.1 0)
(-7993.31 -36738.6 0)
(-7391.88 -32110.5 0)
(-6777.49 -28146.1 0)
(-6159.34 -24239.5 0)
(-5572.27 -20989.2 0)
(-4804.7 -17758.8 0)
(-3759.05 -15376.3 0)
(-2024.63 -13369.7 0)
(111435 -12762.2 0)
(-133759 -138713 0)
(133971 139215 0)
(-111643 12815.7 0)
(2009 13408.1 0)
(3749.96 15394.1 0)
(4801.18 17765.2 0)
(5572.2 20988.4 0)
(6160.93 24236.1 0)
(6779.73 28139.3 0)
(7394.68 32103.6 0)
(7996.52 36730.8 0)
(8492.38 41415.9 0)
(8980.13 46633.4 0)
(9348.48 51908.8 0)
(9684.62 57578 0)
(9689.37 63268.2 0)
(9357.36 69003.7 0)
(8260.5 74396.5 0)
(6229.51 78954 0)
(3565.81 82044.6 0)
(1090.59 83494.4 0)
(-1090.77 83494.3 0)
(-3565.82 82044.6 0)
(-6229.34 78954.1 0)
(-8259.97 74397.1 0)
(-9356.38 69005.1 0)
(-9687.75 63270.7 0)
(-9682.26 57581.8 0)
(-9345.64 51914 0)
(-8976.84 46639.7 0)
(-8489.15 41423.1 0)
(-7993.31 36738.6 0)
(-7391.88 32110.5 0)
(-6777.49 28146.1 0)
(-6159.34 24239.5 0)
(-5572.27 20989.2 0)
(-4804.7 17758.8 0)
(-3759.05 15376.3 0)
(-2024.63 13369.7 0)
(111435 12762.2 0)
(-133759 138713 0)
(12531.1 -115717 0)
(-9588.8 -9754.69 0)
(475.652 -9685.43 0)
(448.745 -11208.7 0)
(589.76 -12982.3 0)
(663.375 -15485.2 0)
(729.908 -17994.7 0)
(801.642 -21039.9 0)
(884.375 -24110.9 0)
(977.157 -27699.9 0)
(1050.11 -31291.3 0)
(1131.25 -35311.2 0)
(1198.2 -39321.1 0)
(1261.72 -43653.7 0)
(1320.84 -47954.2 0)
(1366.27 -52262.2 0)
(1327.92 -56227.7 0)
(1140.49 -59442 0)
(809.493 -61427.5 0)
(306.369 -62172.7 0)
(-306.345 -62172.6 0)
(-809.277 -61427.2 0)
(-1140.04 -59441.4 0)
(-1327.24 -56226.8 0)
(-1365.41 -52261.4 0)
(-1320.16 -47954 0)
(-1261.51 -43654.7 0)
(-1198.58 -39324.2 0)
(-1132.51 -35317.2 0)
(-1051.94 -31301.4 0)
(-980.683 -27713.5 0)
(-888.086 -24131.5 0)
(-807.298 -21063.7 0)
(-737.33 -18028.3 0)
(-672.744 -15524.4 0)
(-604.151 -13032.8 0)
(-470.405 -11268.9 0)
(-494.386 -9755.36 0)
(9350.31 -9814.23 0)
(-12207.8 -115908 0)
(13061.7 2288.12 0)
(-9467.08 533.535 0)
(607.875 674.326 0)
(573.01 795.929 0)
(680.191 874.359 0)
(742.076 923.64 0)
(808.183 973.368 0)
(885.914 1016.45 0)
(976.922 1071.96 0)
(1077.16 1118.49 0)
(1157.79 1173.08 0)
(1242.35 1219.45 0)
(1309.41 1263.18 0)
(1365.42 1298.45 0)
(1393.9 1325.2 0)
(1384.8 1335.33 0)
(1341.74 1335.69 0)
(1218.76 1371.36 0)
(934.45 1450.65 0)
(372.615 1537.7 0)
(-372.413 1537.8 0)
(-933.981 1450.94 0)
(-1218.04 1371.86 0)
(-1341 1336.27 0)
(-1384.37 1335.67 0)
(-1394.02 1324.82 0)
(-1366.33 1296.98 0)
(-1311.31 1260.02 0)
(-1245.77 1214.31 0)
(-1161.97 1164.68 0)
(-1084.14 1108.1 0)
(-983.93 1055.27 0)
(-896.179 998.753 0)
(-821.456 945.001 0)
(-758.418 890.627 0)
(-703.975 826.54 0)
(-600.824 736.286 0)
(-622.834 603.758 0)
(9142.59 469.064 0)
(-12608.8 1718.09 0)
(15250.2 4467.33 0)
(-11143.9 554.813 0)
(728.504 702.898 0)
(641.505 779.229 0)
(712.827 812.282 0)
(758.784 809.759 0)
(819.345 816.779 0)
(896.65 810.922 0)
(982.7 827.138 0)
(1074.6 823.422 0)
(1147.4 828.734 0)
(1218.07 818.816 0)
(1274.34 806.174 0)
(1321.48 787.255 0)
(1356.37 770.809 0)
(1376.37 771.961 0)
(1362.64 807.097 0)
(1251.27 862.465 0)
(969.792 923.282 0)
(390.351 976.134 0)
(-389.958 976.332 0)
(-969.182 923.691 0)
(-1250.53 862.915 0)
(-1362.12 807.165 0)
(-1376.45 771.068 0)
(-1357.44 768.266 0)
(-1323.96 782.242 0)
(-1278.25 797.651 0)
(-1224.38 806.388 0)
(-1154.29 810.027 0)
(-1086.12 800.925 0)
(-993.454 792.475 0)
(-913.552 774.756 0)
(-841.524 759.137 0)
(-786.898 744.599 0)
(-752.88 719.9 0)
(-685.086 673.06 0)
(-751.891 585.309 0)
(10424.1 449.717 0)
(-14315.4 3557.83 0)
(17901.2 5561.31 0)
(-13094.6 721.043 0)
(824.13 852.681 0)
(678.417 905.116 0)
(709.611 915.405 0)
(746.409 882.047 0)
(809.303 878.117 0)
(895.897 853.023 0)
(988.967 872.472 0)
(1078.7 874.522 0)
(1153.35 893.345 0)
(1220.61 907.024 0)
(1279 926.461 0)
(1331.34 951.268 0)
(1379.16 986.376 0)
(1419.77 1034.59 0)
(1428.95 1096.92 0)
(1330.72 1170.61 0)
(1043.99 1242.56 0)
(423.736 1302.14 0)
(-422.949 1302.45 0)
(-1043.27 1243.05 0)
(-1330.33 1170.77 0)
(-1429.51 1095.93 0)
(-1421.85 1031.43 0)
(-1383.26 979.882 0)
(-1338.02 940.309 0)
(-1288.04 909.631 0)
(-1233.85 883.784 0)
(-1167.23 860.799 0)
(-1101.06 835.582 0)
(-1009.15 816.161 0)
(-928.305 793.525 0)
(-850.517 784.672 0)
(-796.227 780.013 0)
(-772.912 774.544 0)
(-730.521 754.571 0)
(-838.055 702.313 0)
(12007 598.991 0)
(-16470.6 4625.18 0)
(21304.1 6307.98 0)
(-15681.3 788.044 0)
(905.884 917.743 0)
(701.949 968.286 0)
(690.597 967.793 0)
(722.851 928.075 0)
(791.376 915.545 0)
(891.21 890.106 0)
(1003.42 908.923 0)
(1094.71 924.218 0)
(1178.72 954.33 0)
(1249.98 989.909 0)
(1316.97 1032.9 0)
(1379.22 1085.21 0)
(1436.66 1146.22 0)
(1482.9 1213.27 0)
(1493.72 1281.59 0)
(1391.62 1349.04 0)
(1096.54 1408 0)
(448.058 1458.06 0)
(-446.901 1458.37 0)
(-1096.07 1408.21 0)
(-1392.3 1348.18 0)
(-1496.39 1278.43 0)
(-1488.27 1206.51 0)
(-1445.24 1134.52 0)
(-1391.66 1067.32 0)
(-1332.72 1007.48 0)
(-1271.43 956.215 0)
(-1200.74 909.911 0)
(-1129.14 870.611 0)
(-1033.98 836.038 0)
(-943.896 807.31 0)
(-854.545 794.398 0)
(-796.657 793.723 0)
(-777.397 795.452 0)
(-754.69 788.53 0)
(-901.814 756.774 0)
(14204.3 667.096 0)
(-19349.6 5340.97 0)
(24739.2 6693.36 0)
(-18288.9 833.203 0)
(997.818 971.095 0)
(726.646 1035.22 0)
(670.862 1048.57 0)
(696.061 1026.1 0)
(772.715 1005.77 0)
(889.515 991.766 0)
(1021.84 1010.32 0)
(1122.46 1027.79 0)
(1216.65 1065.62 0)
(1296.32 1105.92 0)
(1370.83 1155.96 0)
(1440.54 1211.76 0)
(1502.57 1272.78 0)
(1550.22 1337.29 0)
(1559.78 1403.68 0)
(1452.54 1470.22 0)
(1149.05 1529.46 0)
(472.27 1579.76 0)
(-470.99 1579.91 0)
(-1149.46 1528.89 0)
(-1455.39 1467.47 0)