/*--------------------------------*- C++ -*----------------------------------*\
| =========                 |                                                 |
| \\      /  F ield         | OpenFOAM: The Open Source CFD Toolbox           |
|  \\    /   O peration     | Version:  v1912                                 |
|   \\  /    A nd           | Website:  www.openfoam.com                      |
|    \\/     M anipulation  |                                                 |
\*---------------------------------------------------------------------------*/
FoamFile
{
    version     2.0;
    format      ascii;
    class       volScalarField;
    location    "2.56";
    object      Ma;
}
// * * * * * * * * * * * * * * * * * * * * * * * * * * * * * * * * * * * * * //

dimensions      [0 0 0 0 0 0 0];


internalField   nonuniform List<scalar> 
1900
(
0.302983
0.05507
0.0575773
0.0617548
0.0658985
0.0702808
0.0746592
0.0785611
0.0817563
0.0754207
0.302988
0.0550728
0.0575806
0.0617536
0.0658512
0.07003
0.0738292
0.0772787
0.0820552
0.0873251
0.302989
0.0550724
0.05758
0.0617423
0.0657958
0.0698557
0.0735093
0.0770314
0.0822143
0.0923357
0.302988
0.0550728
0.0575806
0.0617536
0.0658512
0.07003
0.0738292
0.0772787
0.0820552
0.0873251
0.302983
0.05507
0.0575773
0.0617548
0.0658985
0.0702808
0.0746592
0.0785611
0.0817563
0.0754207
0.0873561
0.116107
0.146409
0.196937
0.341874
0.106659
0.134855
0.174753
0.251464
0.391673
0.111675
0.138155
0.181587
0.264521
0.403057
0.106659
0.134855
0.174753
0.251464
0.391673
0.0873561
0.116107
0.146409
0.196937
0.341874
0.382611
0.319738
0.289914
0.28079
0.37571
0.399147
0.327522
0.28012
0.234749
0.220308
0.407705
0.329798
0.271644
0.201385
0.0879586
0.399147
0.327522
0.28012
0.234749
0.220308
0.382611
0.319738
0.289914
0.28079
0.37571
0.653689
0.212458
0.277247
0.34666
0.397646
0.421283
0.423812
0.414469
0.395893
0.371933
0.343108
0.310127
0.274253
0.236757
0.198849
0.161512
0.125361
0.0903086
0.0564832
0.025708
0.0267927
0.0590401
0.0937991
0.130142
0.167975
0.207584
0.248736
0.29108
0.334294
0.378059
0.421931
0.465255
0.507254
0.547443
0.586179
0.624016
0.658922
0.682499
0.796695
1.62993
0.130074
0.230958
0.14184
0.297494
0.393031
0.420438
0.424028
0.414586
0.395715
0.37156
0.342649
0.309602
0.273671
0.236091
0.198042
0.160477
0.123961
0.0882782
0.0530949
0.0168198
0.0184864
0.0558333
0.0918568
0.128784
0.16695
0.206772
0.248065
0.290503
0.333778
0.377578
0.42147
0.464805
0.506812
0.547015
0.585759
0.623635
0.658512
0.682338
0.796655
1.6296
0.17833
0.314091
0.0465822
0.270999
0.392212
0.420501
0.424475
0.415071
0.396118
0.371991
0.343066
0.309957
0.273949
0.236279
0.198121
0.160414
0.123708
0.0877468
0.0520276
0.0127223
0.0148887
0.0548423
0.0913682
0.128563
0.16692
0.206896
0.248319
0.290869
0.334242
0.378125
0.422085
0.465473
0.507513
0.547731
0.586467
0.624322
0.659166
0.682954
0.797095
1.62946
0.130074
0.230958
0.14184
0.297494
0.393031
0.420438
0.424028
0.414586
0.395715
0.37156
0.342649
0.309602
0.273671
0.236091
0.198042
0.160477
0.123961
0.0882782
0.0530949
0.0168198
0.0184864
0.0558333
0.0918568
0.128784
0.16695
0.206772
0.248065
0.290503
0.333778
0.377578
0.42147
0.464805
0.506812
0.547015
0.585759
0.623635
0.658512
0.682338
0.796655
1.6296
0.653689
0.212458
0.277247
0.34666
0.397646
0.421283
0.423812
0.414469
0.395893
0.371933
0.343108
0.310127
0.274253
0.236757
0.198849
0.161512
0.125361
0.0903086
0.0564832
0.025708
0.0267927
0.0590401
0.0937991
0.130142
0.167975
0.207584
0.248736
0.29108
0.334294
0.378059
0.421931
0.465255
0.507254
0.547443
0.586179
0.624016
0.658922
0.682499
0.796695
1.62993
1.45091
0.559323
0.464355
0.422091
0.422246
0.431892
0.430507
0.418074
0.399302
0.375157
0.346083
0.313019
0.27725
0.240074
0.202725
0.166241
0.131388
0.0984858
0.0687816
0.0470084
0.0475097
0.0707372
0.101514
0.135776
0.172357
0.211131
0.25169
0.293589
0.336455
0.379937
0.423575
0.466704
0.508544
0.548616
0.587298
0.625057
0.659951
0.682837
0.796768
1.63149
1.6804
0.757245
0.606818
0.507637
0.471479
0.457906
0.445768
0.428404
0.408068
0.382903
0.353241
0.320062
0.284634
0.248269
0.212249
0.177737
0.145761
0.117144
0.0937546
0.0794894
0.0796429
0.0949237
0.119323
0.149251
0.182864
0.219515
0.258509
0.299235
0.341211
0.384014
0.427137
0.469879
0.511442
0.551311
0.589949
0.627376
0.662453
0.684023
0.79738
1.63456
1.69719
0.795308
0.655581
0.559357
0.513167
0.48437
0.464977
0.443909
0.421247
0.394904
0.364808
0.331749
0.297011
0.26193
0.227821
0.195925
0.167396
0.14317
0.124783
0.114718
0.114702
0.125414
0.144608
0.170024
0.20009
0.234004
0.270897
0.310006
0.35073
0.392557
0.434919
0.477069
0.518197
0.557713
0.59621
0.632909
0.668042
0.688409
0.801337
1.64113
1.68011
0.811006
0.680017
0.595077
0.548433
0.515406
0.489074
0.464746
0.439469
0.411546
0.380749
0.347743
0.313787
0.280177
0.248196
0.219058
0.193849
0.173321
0.158462
0.150959
0.150852
0.158731
0.174145
0.195633
0.222159
0.25306
0.287471
0.324568
0.36367
0.404196
0.445514
0.486847
0.52738
0.566357
0.604644
0.640109
0.675402
0.695312
0.807983
1.64902
1.6795
0.825524
0.700202
0.626161
0.581974
0.545784
0.516129
0.488932
0.461547
0.432177
0.400773
0.368014
0.335057
0.303136
0.273425
0.247017
0.224803
0.207269
0.194964
0.189231
0.189082
0.195004
0.207637
0.225876
0.249143
0.277019
0.308763
0.343583
0.380783
0.419718
0.459766
0.500052
0.539856
0.578051
0.616011
0.649778
0.685131
0.706655
0.818145
1.65801
1.70165
0.841335
0.719696
0.653983
0.613339
0.575399
0.544818
0.515613
0.486656
0.456111
0.424348
0.392001
0.360223
0.330067
0.302576
0.27865
0.258967
0.243778
0.233347
0.228916
0.228759
0.233253
0.243829
0.259471
0.279918
0.304982
0.334089
0.366554
0.401676
0.438899
0.477423
0.516585
0.555518
0.59265
0.630204
0.662117
0.697772
0.721673
0.831294
1.66649
1.70039
0.857941
0.740368
0.681088
0.643149
0.604749
0.574758
0.544194
0.514095
0.482903
0.450902
0.419293
0.38873
0.360335
0.334876
0.313103
0.295494
0.282135
0.273112
0.269687
0.269547
0.272956
0.281989
0.295582
0.313671
0.33624
0.362897
0.393028
0.42614
0.461376
0.498603
0.536172
0.574406
0.61018
0.64724
0.677384
0.713639
0.740008
0.847513
1.67612
1.70211
0.876014
0.762733
0.708611
0.672468
0.634342
0.605664
0.574156
0.543743
0.511685
0.480312
0.449188
0.420062
0.393236
0.369609
0.349662
0.333753
0.321843
0.313911
0.311293
0.311185
0.313746
0.321604
0.333582
0.349725
0.370152
0.394569
0.422623
0.453508
0.487358
0.522312
0.559283
0.596046
0.630388
0.667113
0.69565
0.732533
0.761013
0.865754
1.68271
1.71317
0.898003
0.787411
0.737814
0.702235
0.664779
0.637642
0.605725
0.574339
0.543365
0.511185
0.48168
0.453425
0.428242
0.406163
0.387791
0.373289
0.362549
0.355488
0.35353
0.353459
0.355346
0.362297
0.372994
0.387548
0.406134
0.428664
0.454573
0.484067
0.515143
0.550271
0.58382
0.621312
0.653433
0.689613
0.717172
0.754955
0.785032
0.887497
1.69331
1.71809
0.918949
0.81203
0.767564
0.732138
0.695758
0.670097
0.63695
0.608002
0.574249
0.545128
0.515037
0.488727
0.464618
0.444036
0.42698
0.413665
0.403883
0.397529
0.396111
0.396074
0.397427
0.403667
0.413348
0.426596
0.443681
0.464425
0.488941
0.515831
0.5471
0.577698
0.613303
0.647112
0.678581
0.714335
0.740744
0.779219
0.809663
0.908805
1.69752
1.73035
0.946456
0.841845
0.801425
0.764337
0.728881
0.703422
0.67176
0.639457
0.61022
0.57797
0.550925
0.524599
0.502074
0.482558
0.466668
0.454332
0.445339
0.439561
0.438576
0.438565
0.439499
0.445181
0.454056
0.466268
0.482063
0.501572
0.524162
0.55088
0.578112
0.611988
0.640885
0.678395
0.706715
0.74202
0.768302
0.808472
0.83979
0.936719
1.70876
1.73359
0.967977
0.867263
0.830669
0.793204
0.759767
0.735476
0.70131
0.674529
0.640644
0.613547
0.585264
0.561186
0.539374
0.521059
0.506099
0.494588
0.486236
0.480924
0.480279
0.480285
0.480895
0.486138
0.494386
0.505758
0.520571
0.538756
0.560494
0.584591
0.612912
0.640762
0.673855
0.7051
0.734305
0.768644
0.793405
0.833949
0.864278
0.958004
1.71017
1.74382
0.99992
0.901306
0.866926
0.827516
0.795585
0.769437
0.737452
0.707783
0.677304
0.648219
0.621586
0.597509
0.576615
0.558955
0.544704
0.533796
0.525927
0.520971
0.520576
0.52059
0.520965
0.52588
0.533671
0.544458
0.558554
0.576051
0.596745
0.620811
0.646951
0.677094
0.705315
0.73997
0.765946
0.801549
0.826599
0.869046
0.900024
0.991834
1.72078
1.74252
1.02154
0.927722
0.894946
0.853477
0.82339
0.795789
0.763761
0.735644
0.705539
0.678296
0.653206
0.630909
0.611497
0.595111
0.581818
0.571581
0.564152
0.559485
0.559267
0.559281
0.559492
0.56414
0.571519
0.581668
0.594829
0.61106
0.63024
0.652466
0.676919
0.705042
0.732538
0.76497
0.79047
0.825406
0.849664
0.892791
0.922982
1.01198
1.71853
1.74637
1.05514
0.963796
0.932554
0.888891
0.861157
0.828277
0.79915
0.769198
0.740105
0.713274
0.688597
0.666702
0.647755
0.631826
0.618894
0.608893
0.601615
0.597046
0.596884
0.596895
0.597057
0.601622
0.608877
0.618826
0.631669
0.647482
0.666243
0.688072
0.712229
0.739703
0.766842
0.799698
0.824742
0.861921
0.887312
0.931846
0.96183
1.04894
1.72538
1.73747
1.07642
0.991419
0.961427
0.91577
0.888796
0.85188
0.825325
0.793645
0.766156
0.739429
0.715664
0.694949
0.677571
0.663452
0.652352
0.64384
0.637585
0.633603
0.633615
0.633622
0.633613
0.637601
0.64385
0.652336
0.66338
0.677412
0.694635
0.71524
0.738568
0.765568
0.791598
0.824687
0.848674
0.887143
0.912799
0.958337
0.987001
1.06965
1.71856
1.72931
1.10855
1.02839
1.00236
0.958255
0.931307
0.892039
0.866555
0.831906
0.804776
0.776109
0.751635
0.729915
0.711769
0.697145
0.685851
0.677095
0.670642
0.666449
0.666299
0.666302
0.666456
0.670656
0.677114
0.685867
0.697141
0.711725
0.729792
0.751438
0.775681
0.804443
0.830862
0.866096
0.890459
0.930323
0.956895
1.00117
1.02662
1.10524
1.7151
1.66985
1.11193
1.04442
1.02609
0.984698
0.959384
0.919637
0.895721
0.859785
0.833949
0.804132
0.779043
0.75536
0.734764
0.717344
0.703979
0.695328
0.689851
0.686826
0.687301
0.687302
0.68683
0.689861
0.695344
0.704
0.717364
0.734763
0.755318
0.778939
0.803902
0.833667
0.859166
0.895154
0.918601
0.958282
0.983494
1.02462
1.04239
1.10907
1.66204
1.68969
1.16542
1.10921
1.10295
1.06557
1.04448
1.00662
0.985675
0.951773
0.929467
0.902054
0.880475
0.859326
0.841594
0.826266
0.814113
0.80536
0.800053
0.798036
0.798912
0.798912
0.798038
0.80006
0.805373
0.814131
0.826286
0.841604
0.859315
0.88042
0.901916
0.929252
0.951313
0.985152
1.00569
1.04334
1.06409
1.10098
1.10673
1.16264
1.6861
2.31047
1.68737
1.66271
1.71491
1.7188
1.72598
1.71897
1.72129
1.71057
1.7089
1.69778
1.6932
1.68285
1.67568
1.66616
1.65754
1.64912
1.64195
1.63701
1.6352
1.6352
1.63701
1.64195
1.64912
1.65754
1.66616
1.67568
1.68284
1.69319
1.69777
1.70887
1.71053
1.72124
1.71891
1.72592
1.71873
1.71494
1.66278
1.68736
2.31086
2.31047
1.68737
1.66271
1.71491
1.7188
1.72598
1.71897
1.72129
1.71057
1.7089
1.69778
1.6932
1.68285
1.67568
1.66616
1.65754
1.64912
1.64195
1.63701
1.6352
1.6352
1.63701
1.64195
1.64912
1.65754
1.66616
1.67568
1.68284
1.69319
1.69777
1.70887
1.71053
1.72124
1.71891
1.72592
1.71873
1.71494
1.66278
1.68736
2.31086
1.68969
1.16542
1.10921
1.10295
1.06557
1.04448
1.00662
0.985675
0.951773
0.929467
0.902054
0.880475
0.859326
0.841594
0.826266
0.814113
0.80536
0.800053
0.798036
0.798912
0.798912
0.798038
0.80006
0.805373
0.814131
0.826286
0.841604
0.859315
0.88042
0.901916
0.929252
0.951313
0.985152
1.00569
1.04334
1.06409
1.10098
1.10673
1.16264
1.6861
1.66985
1.11193
1.04442
1.02609
0.984698
0.959384
0.919637
0.895721
0.859785
0.833949
0.804132
0.779043
0.75536
0.734764
0.717344
0.703979
0.695328
0.689851
0.686826
0.687301
0.687302
0.68683
0.689861
0.695344
0.704
0.717364
0.734763
0.755318
0.778939
0.803902
0.833667
0.859166
0.895154
0.918601
0.958282
0.983494
1.02462
1.04239
1.10907
1.66204
1.72931
1.10855
1.02839
1.00236
0.958255
0.931307
0.892039
0.866555
0.831906
0.804776
0.776109
0.751635
0.729915
0.711769
0.697145
0.685851
0.677095
0.670642
0.666449
0.666299
0.666302
0.666456
0.670656
0.677114
0.685867
0.697141
0.711725
0.729792
0.751438
0.775681
0.804443
0.830862
0.866096
0.890459
0.930323
0.956895
1.00117
1.02662
1.10524
1.7151
1.73747
1.07642
0.991419
0.961427
0.91577
0.888796
0.85188
0.825325
0.793645
0.766156
0.739429
0.715664
0.694949
0.677571
0.663452
0.652352
0.64384
0.637585
0.633603
0.633615
0.633622
0.633613
0.637601
0.64385
0.652336
0.66338
0.677412
0.694635
0.71524
0.738568
0.765568
0.791598
0.824687
0.848674
0.887143
0.912799
0.958337
0.987001
1.06965
1.71856
1.74637
1.05514
0.963796
0.932554
0.888891
0.861157
0.828277
0.79915
0.769198
0.740105
0.713274
0.688597
0.666702
0.647755
0.631826
0.618894
0.608893
0.601615
0.597046
0.596884
0.596895
0.597057
0.601622
0.608877
0.618826
0.631669
0.647482
0.666243
0.688072
0.712229
0.739703
0.766842
0.799698
0.824742
0.861921
0.887312
0.931846
0.96183
1.04894
1.72538
1.74252
1.02154
0.927722
0.894946
0.853477
0.82339
0.795789
0.763761
0.735644
0.705539
0.678296
0.653206
0.630909
0.611497
0.595111
0.581818
0.571581
0.564152
0.559485
0.559267
0.559281
0.559492
0.56414
0.571519
0.581668
0.594829
0.61106
0.63024
0.652466
0.676919
0.705042
0.732538
0.76497
0.79047
0.825406
0.849664
0.892791
0.922982
1.01198
1.71853
1.74382
0.99992
0.901306
0.866926
0.827516
0.795585
0.769437
0.737452
0.707783
0.677304
0.648219
0.621586
0.597509
0.576615
0.558955
0.544704
0.533796
0.525927
0.520971
0.520576
0.52059
0.520965
0.52588
0.533671
0.544458
0.558554
0.576051
0.596745
0.620811
0.646951
0.677094
0.705315
0.73997
0.765946
0.801549
0.826599
0.869046
0.900024
0.991834
1.72078
1.73359
0.967977
0.867263
0.830669
0.793204
0.759767
0.735476
0.70131
0.674529
0.640644
0.613547
0.585264
0.561186
0.539374
0.521059
0.506099
0.494588
0.486236
0.480924
0.480279
0.480285
0.480895
0.486138
0.494386
0.505758
0.520571
0.538756
0.560494
0.584591
0.612912
0.640762
0.673855
0.7051
0.734305
0.768644
0.793405
0.833949
0.864278
0.958004
1.71017
1.73035
0.946456
0.841845
0.801425
0.764337
0.728881
0.703422
0.67176
0.639457
0.61022
0.57797
0.550925
0.524599
0.502074
0.482558
0.466668
0.454332
0.445339
0.439561
0.438576
0.438565
0.439499
0.445181
0.454056
0.466268
0.482063
0.501572
0.524162
0.55088
0.578112
0.611988
0.640885
0.678395
0.706715
0.74202
0.768302
0.808472
0.83979
0.936719
1.70876
1.71809
0.918949
0.81203
0.767564
0.732138
0.695758
0.670097
0.63695
0.608002
0.574249
0.545128
0.515037
0.488727
0.464618
0.444036
0.42698
0.413665
0.403883
0.397529
0.396111
0.396074
0.397427
0.403667
0.413348
0.426596
0.443681
0.464425
0.488941
0.515831
0.5471
0.577698
0.613303
0.647112
0.678581
0.714335
0.740744
0.779219
0.809663
0.908805
1.69752
1.71317
0.898003
0.787411
0.737814
0.702235
0.664779
0.637642
0.605725
0.574339
0.543365
0.511185
0.48168
0.453425
0.428242
0.406163
0.387791
0.373289
0.362549
0.355488
0.35353
0.353459
0.355346
0.362297
0.372994
0.387548
0.406134
0.428664
0.454573
0.484067
0.515143
0.550271
0.58382
0.621312
0.653433
0.689613
0.717172
0.754955
0.785032
0.887497
1.69331
1.70211
0.876014
0.762733
0.708611
0.672468
0.634342
0.605664
0.574156
0.543743
0.511685
0.480312
0.449188
0.420062
0.393236
0.369609
0.349662
0.333753
0.321843
0.313911
0.311293
0.311185
0.313746
0.321604
0.333582
0.349725
0.370152
0.394569
0.422623
0.453508
0.487358
0.522312
0.559283
0.596046
0.630388
0.667113
0.69565
0.732533
0.761013
0.865754
1.68271
1.70039
0.857941
0.740368
0.681088
0.643149
0.604749
0.574758
0.544194
0.514095
0.482903
0.450902
0.419293
0.38873
0.360335
0.334876
0.313103
0.295494
0.282135
0.273112
0.269687
0.269547
0.272956
0.281989
0.295582
0.313671
0.33624
0.362897
0.393028
0.42614
0.461376
0.498603
0.536172
0.574406
0.61018
0.64724
0.677384
0.713639
0.740008
0.847513
1.67612
1.70165
0.841335
0.719696
0.653983
0.613339
0.575399
0.544818
0.515613
0.486656
0.456111
0.424348
0.392001
0.360223
0.330067
0.302576
0.27865
0.258967
0.243778
0.233347
0.228916
0.228759
0.233253
0.243829
0.259471
0.279918
0.304982
0.334089
0.366554
0.401676
0.438899
0.477423
0.516585
0.555518
0.59265
0.630204
0.662117
0.697772
0.721673
0.831294
1.66649
1.6795
0.825524
0.700202
0.626161
0.581974
0.545784
0.516129
0.488932
0.461547
0.432177
0.400773
0.368014
0.335057
0.303136
0.273425
0.247017
0.224803
0.207269
0.194964
0.189231
0.189082
0.195004
0.207637
0.225876
0.249143
0.277019
0.308763
0.343583
0.380783
0.419718
0.459766
0.500052
0.539856
0.578051
0.616011
0.649778
0.685131
0.706655
0.818145
1.65801
1.68011
0.811006
0.680017
0.595077
0.548433
0.515406
0.489074
0.464746
0.439469
0.411546
0.380749
0.347743
0.313787
0.280177
0.248196
0.219058
0.193849
0.173321
0.158462
0.150959
0.150852
0.158731
0.174145
0.195633
0.222159
0.25306
0.287471
0.324568
0.36367
0.404196
0.445514
0.486847
0.52738
0.566357
0.604644
0.640109
0.675402
0.695312
0.807983
1.64902
1.69719
0.795308
0.655581
0.559357
0.513167
0.48437
0.464977
0.443909
0.421247
0.394904
0.364808
0.331749
0.297011
0.26193
0.227821
0.195925
0.167396
0.14317
0.124783
0.114718
0.114702
0.125414
0.144608
0.170024
0.20009
0.234004
0.270897
0.310006
0.35073
0.392557
0.434919
0.477069
0.518197
0.557713
0.59621
0.632909
0.668042
0.688409
0.801337
1.64113
1.6804
0.757245
0.606818
0.507637
0.471479
0.457906
0.445768
0.428404
0.408068
0.382903
0.353241
0.320062
0.284634
0.248269
0.212249
0.177737
0.145761
0.117144
0.0937546
0.0794894
0.0796429
0.0949237
0.119323
0.149251
0.182864
0.219515
0.258509
0.299235
0.341211
0.384014
0.427137
0.469879
0.511442
0.551311
0.589949
0.627376
0.662453
0.684023
0.79738
1.63456
1.45091
0.559323
0.464355
0.422091
0.422246
0.431892
0.430507
0.418074
0.399302
0.375157
0.346083
0.313019
0.27725
0.240074
0.202725
0.166241
0.131388
0.0984858
0.0687816
0.0470084
0.0475097
0.0707372
0.101514
0.135776
0.172357
0.211131
0.25169
0.293589
0.336455
0.379937
0.423575
0.466704
0.508544
0.548616
0.587298
0.625057
0.659951
0.682837
0.796768
1.63149
)
;

boundaryField
{
    inlet
    {
        type            calculated;
        value           uniform 0;
    }
    outlet
    {
        type            calculated;
        value           nonuniform List<scalar> 
165
(
1.45091
1.6804
1.69719
1.68011
1.6795
1.70165
1.70039
1.70211
1.71317
1.71809
1.73035
1.73359
1.74382
1.74252
1.74637
1.73747
1.72931
1.66985
1.68969
2.31047
2.31047
1.68737
1.66271
1.71491
1.7188
1.72598
1.71897
1.72129
1.71057
1.7089
1.69778
1.6932
1.68285
1.67568
1.66616
1.65754
1.64912
1.64195
1.63701
1.6352
1.6352
1.63701
1.64195
1.64912
1.65754
1.66616
1.67568
1.68284
1.69319
1.69777
1.70887
1.71053
1.72124
1.71891
1.72592
1.71873
1.71494
1.66278
1.68736
2.31086
1.63149
1.63456
1.64113
1.64902
1.65801
1.66649
1.67612
1.68271
1.69331
1.69752
1.70876
1.71017
1.72078
1.71853
1.72538
1.71856
1.7151
1.66204
1.6861
2.31086
1.62993
1.6296
1.62946
1.6296
1.62993
2.31086
1.6861
1.66204
1.7151
1.71856
1.72538
1.71853
1.72078
1.71017
1.70876
1.69752
1.69331
1.68271
1.67612
1.66649
1.65801
1.64902
1.64113
1.63456
1.63149
2.31047
1.68737
1.66271
1.71491
1.7188
1.72598
1.71897
1.72129
1.71057
1.7089
1.69778
1.6932
1.68285
1.67568
1.66616
1.65754
1.64912
1.64195
1.63701
1.6352
1.6352
1.63701
1.64195
1.64912
1.65754
1.66616
1.67568
1.68284
1.69319
1.69777
1.70887
1.71053
1.72124
1.71891
1.72592
1.71873
1.71494
1.66278
1.68736
2.31086
2.31047
1.68969
1.66985
1.72931
1.73747
1.74637
1.74252
1.74382
1.73359
1.73035
1.71809
1.71317
1.70211
1.70039
1.70165
1.6795
1.68011
1.69719
1.6804
1.45091
)
;
    }
    obstacle
    {
        type            calculated;
        value           nonuniform List<scalar> 
40
(
0.302983
0.05507
0.0575773
0.0617548
0.0658985
0.0702803
0.0746578
0.0785582
0.0816677
0.0740946
0.302983
0.05507
0.0575773
0.0617548
0.0658985
0.0702803
0.0746578
0.0785582
0.0816677
0.0740946
0.0866243
0.115032
0.146049
0.196256
0.319761
0.0866243
0.115032
0.146049
0.196256
0.319761
0.382032
0.319666
0.289884
0.280301
0.369362
0.382032
0.319666
0.289884
0.280301
0.369362
)
;
    }
    empty
    {
        type            empty;
    }
}


// ************************************************************************* //
