/*--------------------------------*- C++ -*----------------------------------*\
| =========                 |                                                 |
| \\      /  F ield         | OpenFOAM: The Open Source CFD Toolbox           |
|  \\    /   O peration     | Version:  v1912                                 |
|   \\  /    A nd           | Website:  www.openfoam.com                      |
|    \\/     M anipulation  |                                                 |
\*---------------------------------------------------------------------------*/
FoamFile
{
    version     2.0;
    format      ascii;
    class       volScalarField;
    location    "4.76";
    object      T;
}
// * * * * * * * * * * * * * * * * * * * * * * * * * * * * * * * * * * * * * //

dimensions      [0 0 0 1 0 0 0];


internalField   nonuniform List<scalar> 
1900
(
1.16774
0.95997
0.982097
1.00038
1.00312
1.002
0.999251
0.996045
0.994253
0.988841
1.16774
0.959969
0.982102
1.00039
1.00314
1.00205
0.999396
0.996197
0.993059
0.987736
1.16774
0.95997
0.982106
1.00039
1.00315
1.00207
0.999409
0.996101
0.992604
0.987394
1.16774
0.959969
0.982102
1.00039
1.00314
1.00205
0.999396
0.996197
0.993059
0.987736
1.16774
0.95997
0.982097
1.00038
1.00312
1.002
0.999251
0.996045
0.994253
0.988841
0.986176
0.976368
0.964871
0.951918
0.957173
0.982061
0.972905
0.96113
0.948063
0.940097
0.981983
0.972896
0.961365
0.948215
0.940748
0.982061
0.972905
0.96113
0.948063
0.940097
0.986176
0.976368
0.964871
0.951918
0.957173
0.847353
0.796123
0.752677
0.710072
0.671327
0.858138
0.801544
0.756043
0.71294
0.675576
0.857869
0.800003
0.754474
0.711817
0.673438
0.858138
0.801544
0.756043
0.71294
0.675576
0.847353
0.796123
0.752677
0.710072
0.671327
0.634278
0.575859
0.612735
0.652554
0.64596
0.626995
0.6107
0.598568
0.586028
0.57331
0.561462
0.553373
0.548538
0.545411
0.542948
0.540835
0.539022
0.537493
0.536227
0.535169
0.534313
0.533635
0.533101
0.532718
0.532469
0.532338
0.532292
0.532311
0.532383
0.532581
0.532874
0.533618
0.534528
0.53614
0.537698
0.540114
0.542616
0.5459
0.513269
0.41958
0.627162
0.56786
0.605136
0.653165
0.64858
0.628468
0.611078
0.598732
0.586146
0.573523
0.561509
0.553383
0.548537
0.545413
0.542951
0.540838
0.539023
0.537493
0.536226
0.535167
0.53431
0.533632
0.533098
0.532714
0.532465
0.532334
0.532288
0.532307
0.532379
0.532576
0.532869
0.533614
0.534525
0.536148
0.537711
0.540136
0.542621
0.545996
0.513701
0.420401
0.628147
0.57523
0.614111
0.658894
0.650997
0.629019
0.611222
0.598813
0.586183
0.573602
0.561525
0.553389
0.548538
0.545414
0.542953
0.54084
0.539024
0.537493
0.536227
0.535167
0.53431
0.533631
0.533097
0.532713
0.532464
0.532333
0.532287
0.532307
0.532378
0.532576
0.532869
0.533615
0.534529
0.536161
0.537737
0.540181
0.542689
0.54616
0.514064
0.422196
0.627162
0.56786
0.605136
0.653165
0.64858
0.628468
0.611078
0.598732
0.586146
0.573523
0.561509
0.553383
0.548537
0.545413
0.542951
0.540838
0.539023
0.537493
0.536226
0.535167
0.53431
0.533632
0.533098
0.532714
0.532465
0.532334
0.532288
0.532307
0.532379
0.532576
0.532869
0.533614
0.534525
0.536148
0.537711
0.540136
0.542621
0.545996
0.513701
0.420401
0.634278
0.575859
0.612735
0.652554
0.64596
0.626995
0.6107
0.598568
0.586028
0.57331
0.561462
0.553373
0.548538
0.545411
0.542948
0.540835
0.539022
0.537493
0.536227
0.535169
0.534313
0.533635
0.533101
0.532718
0.532469
0.532338
0.532292
0.532311
0.532383
0.532581
0.532874
0.533618
0.534528
0.53614
0.537698
0.540114
0.542616
0.5459
0.513269
0.41958
0.582563
0.554417
0.605211
0.640818
0.637892
0.622901
0.609142
0.597527
0.58521
0.572452
0.561076
0.553253
0.548498
0.545375
0.542913
0.540807
0.539002
0.537482
0.536221
0.535166
0.534312
0.533635
0.533102
0.532719
0.53247
0.532338
0.532291
0.532311
0.532381
0.532581
0.532872
0.53361
0.534514
0.536099
0.537659
0.540045
0.542623
0.545674
0.513
0.424105
0.48628
0.534039
0.595225
0.621637
0.621191
0.613297
0.604282
0.594476
0.583009
0.570715
0.560177
0.552952
0.548397
0.545302
0.542845
0.540755
0.538971
0.537467
0.536219
0.535171
0.534322
0.533648
0.533117
0.532735
0.532485
0.532352
0.532304
0.532324
0.532395
0.532598
0.532888
0.533614
0.534505
0.536042
0.537599
0.539936
0.542581
0.545328
0.513437
0.419682
0.444672
0.54191
0.589873
0.604967
0.607732
0.60409
0.598104
0.590354
0.579735
0.568443
0.558972
0.552473
0.548212
0.545186
0.542756
0.540696
0.538943
0.537465
0.536233
0.535196
0.534354
0.533686
0.533158
0.532777
0.532526
0.532391
0.532341
0.532362
0.532432
0.532643
0.532931
0.533638
0.534514
0.535984
0.537533
0.539796
0.542472
0.54492
0.514399
0.421086
0.43858
0.546722
0.582605
0.591578
0.597403
0.596145
0.59211
0.585627
0.575855
0.565898
0.557567
0.551874
0.54794
0.545024
0.542646
0.540631
0.538919
0.537473
0.536263
0.53524
0.534409
0.533749
0.533224
0.532844
0.532591
0.532454
0.532402
0.532426
0.532496
0.532718
0.533005
0.533691
0.534544
0.535949
0.537483
0.53967
0.542314
0.544692
0.514807
0.421466
0.438525
0.545569
0.576914
0.582292
0.58993
0.589285
0.586319
0.580463
0.571747
0.56318
0.556146
0.551189
0.547599
0.544819
0.542517
0.540562
0.538901
0.537491
0.536307
0.535302
0.534484
0.533833
0.533313
0.532935
0.53268
0.532542
0.532488
0.532517
0.53259
0.532825
0.533112
0.533771
0.534598
0.535931
0.53744
0.539543
0.542093
0.544567
0.515309
0.421808
0.43664
0.54194
0.572341
0.576768
0.584403
0.583472
0.580863
0.57542
0.56788
0.560653
0.554805
0.550506
0.547229
0.544593
0.54238
0.540494
0.538885
0.537515
0.536359
0.535374
0.534573
0.533933
0.533421
0.533046
0.532793
0.532657
0.532605
0.532647
0.53273
0.532987
0.533282
0.533922
0.534729
0.536001
0.537495
0.539545
0.542017
0.544704
0.515571
0.421641
0.437648
0.538312
0.568848
0.572962
0.579645
0.578092
0.575444
0.570532
0.56423
0.558325
0.55351
0.549791
0.54681
0.54433
0.54222
0.54041
0.538859
0.537532
0.536407
0.535444
0.534661
0.534037
0.533534
0.533164
0.532914
0.532784
0.532736
0.532793
0.532887
0.533165
0.533462
0.534069
0.534836
0.536025
0.537479
0.539466
0.541832
0.544855
0.516512
0.422
0.435382
0.535274
0.565808
0.569467
0.575147
0.573118
0.570449
0.566267
0.56117
0.556442
0.552458
0.549201
0.546462
0.544121
0.542101
0.540359
0.538855
0.537562
0.536462
0.53552
0.534759
0.534153
0.533665
0.533309
0.533074
0.532962
0.532932
0.533023
0.533145
0.533462
0.533782
0.534375
0.535124
0.536251
0.53767
0.539592
0.541883
0.54512
0.517031
0.422295
0.436481
0.534263
0.563383
0.566424
0.570775
0.568542
0.565967
0.562546
0.558482
0.554731
0.551416
0.548561
0.546061
0.543877
0.541966
0.540291
0.538834
0.537574
0.536504
0.535589
0.534852
0.534268
0.533795
0.533453
0.533231
0.533136
0.533116
0.533233
0.533368
0.533703
0.534025
0.534582
0.535276
0.536323
0.537691
0.539575
0.541789
0.545349
0.518261
0.423335
0.436255
0.532962
0.560877
0.56319
0.566355
0.564241
0.562013
0.559418
0.556287
0.55336
0.5506
0.548102
0.545833
0.543803
0.541983
0.540363
0.538941
0.537711
0.536667
0.535776
0.535064
0.534504
0.534053
0.533733
0.533534
0.533463
0.53346
0.533609
0.533754
0.534096
0.534408
0.534918
0.535535
0.53648
0.537771
0.539619
0.541812
0.545652
0.519154
0.424382
0.436812
0.531992
0.558582
0.560206
0.562298
0.560563
0.558776
0.556878
0.554478
0.552194
0.549884
0.547712
0.545657
0.543754
0.54202
0.540465
0.53909
0.537897
0.536888
0.536026
0.535345
0.534812
0.534381
0.534077
0.533892
0.533833
0.533835
0.534009
0.53415
0.534483
0.534767
0.535211
0.53572
0.536532
0.537689
0.539449
0.54155
0.545643
0.520623
0.42636
0.43674
0.530731
0.556201
0.55727
0.558556
0.557378
0.556151
0.55485
0.553075
0.551335
0.549414
0.547541
0.545687
0.543965
0.542365
0.540916
0.539626
0.538505
0.537552
0.536734
0.536085
0.535572
0.535147
0.534838
0.534636
0.53456
0.534536
0.5347
0.534803
0.535094
0.535312
0.535669
0.536044
0.536699
0.537724
0.53944
0.5415
0.545701
0.521725
0.428048
0.436825
0.529612
0.554126
0.55478
0.555524
0.554875
0.554148
0.553332
0.552087
0.550813
0.549217
0.547615
0.545973
0.544392
0.542888
0.541518
0.5403
0.539242
0.538346
0.537571
0.536959
0.536474
0.536061
0.535755
0.535545
0.535461
0.535414
0.535571
0.535631
0.535867
0.535997
0.536227
0.536409
0.536842
0.537638
0.539252
0.541193
0.545417
0.523235
0.430426
0.437394
0.528889
0.552037
0.552471
0.553076
0.552983
0.552834
0.552402
0.551579
0.550626
0.549335
0.548062
0.546623
0.545226
0.54386
0.542615
0.541513
0.540565
0.539762
0.539053
0.538478
0.537998
0.537561
0.537214
0.536948
0.536818
0.536713
0.536822
0.536811
0.536946
0.536954
0.537036
0.537007
0.537245
0.537803
0.539374
0.541231
0.54518
0.524426
0.432586
0.438786
0.529112
0.550945
0.551184
0.551911
0.552075
0.55236
0.552112
0.551677
0.55106
0.550009
0.548939
0.547632
0.546341
0.545039
0.543855
0.542809
0.541916
0.541167
0.540504
0.539976
0.539537
0.539125
0.538788
0.538517
0.538392
0.538272
0.538379
0.538347
0.538431
0.538348
0.53835
0.538142
0.538194
0.538432
0.539832
0.541639
0.545242
0.525906
0.435807
0.440909
0.530303
0.551201
0.551148
0.552112
0.552296
0.552981
0.552971
0.552679
0.552181
0.551257
0.550398
0.549193
0.548028
0.54684
0.545783
0.544859
0.544078
0.543424
0.542824
0.542323
0.541876
0.541426
0.541038
0.540697
0.540514
0.54033
0.540396
0.540333
0.540373
0.54021
0.540197
0.539881
0.539869
0.540024
0.541421
0.543424
0.546722
0.528592
0.43999
0.446478
0.533857
0.553055
0.552575
0.553423
0.553495
0.5545
0.554605
0.554456
0.554132
0.553317
0.552532
0.551366
0.550305
0.549205
0.548249
0.547395
0.546638
0.545973
0.545371
0.544944
0.544627
0.544265
0.543886
0.543471
0.543206
0.542899
0.542905
0.542765
0.542767
0.542502
0.542477
0.542024
0.541888
0.541899
0.543291
0.545611
0.549267
0.532045
0.446977
0.45704
0.540075
0.558464
0.557502
0.557395
0.557552
0.558607
0.558592
0.558726
0.558042
0.557042
0.555829
0.554356
0.553011
0.55168
0.550662
0.54993
0.549469
0.549186
0.548835
0.548369
0.547795
0.547182
0.546748
0.546427
0.546427
0.546439
0.546633
0.546825
0.547079
0.547049
0.547182
0.546876
0.54662
0.54651
0.547743
0.550223
0.554141
0.537413
0.45876
0.414599
0.521436
0.546239
0.543764
0.541798
0.540415
0.539327
0.537505
0.535919
0.533391
0.531297
0.528704
0.526517
0.52423
0.522198
0.520397
0.518959
0.51793
0.51738
0.517613
0.517149
0.516034
0.515713
0.515662
0.516094
0.516535
0.517519
0.518074
0.519428
0.520334
0.521831
0.522983
0.524664
0.525885
0.527525
0.529997
0.533834
0.538294
0.517416
0.419498
0.360433
0.423501
0.466181
0.455856
0.449551
0.446144
0.442364
0.439762
0.436967
0.433898
0.431293
0.42887
0.426848
0.425198
0.423916
0.422786
0.422078
0.421876
0.421579
0.421678
0.421534
0.421011
0.421427
0.420558
0.421176
0.421084
0.421735
0.422157
0.423316
0.424266
0.426175
0.427621
0.429963
0.431831
0.434817
0.438643
0.445689
0.457532
0.418455
0.358488
0.360433
0.423501
0.466181
0.455856
0.449551
0.446144
0.442364
0.439762
0.436967
0.433898
0.431293
0.42887
0.426848
0.425198
0.423916
0.422786
0.422078
0.421876
0.421579
0.421678
0.421534
0.421011
0.421427
0.420558
0.421176
0.421084
0.421735
0.422157
0.423316
0.424266
0.426175
0.427621
0.429963
0.431831
0.434817
0.438643
0.445689
0.457532
0.418455
0.358488
0.414599
0.521436
0.546239
0.543764
0.541798
0.540415
0.539327
0.537505
0.535919
0.533391
0.531297
0.528704
0.526517
0.52423
0.522198
0.520397
0.518959
0.51793
0.51738
0.517613
0.517149
0.516034
0.515713
0.515662
0.516094
0.516535
0.517519
0.518074
0.519428
0.520334
0.521831
0.522983
0.524664
0.525885
0.527525
0.529997
0.533834
0.538294
0.517416
0.419498
0.45704
0.540075
0.558464
0.557502
0.557395
0.557552
0.558607
0.558592
0.558726
0.558042
0.557042
0.555829
0.554356
0.553011
0.55168
0.550662
0.54993
0.549469
0.549186
0.548835
0.548369
0.547795
0.547182
0.546748
0.546427
0.546427
0.546439
0.546633
0.546825
0.547079
0.547049
0.547182
0.546876
0.54662
0.54651
0.547743
0.550223
0.554141
0.537413
0.45876
0.446478
0.533857
0.553055
0.552575
0.553423
0.553495
0.5545
0.554605
0.554456
0.554132
0.553317
0.552532
0.551366
0.550305
0.549205
0.548249
0.547395
0.546638
0.545973
0.545371
0.544944
0.544627
0.544265
0.543886
0.543471
0.543206
0.542899
0.542905
0.542765
0.542767
0.542502
0.542477
0.542024
0.541888
0.541899
0.543291
0.545611
0.549267
0.532045
0.446977
0.440909
0.530303
0.551201
0.551148
0.552112
0.552296
0.552981
0.552971
0.552679
0.552181
0.551257
0.550398
0.549193
0.548028
0.54684
0.545783
0.544859
0.544078
0.543424
0.542824
0.542323
0.541876
0.541426
0.541038
0.540697
0.540514
0.54033
0.540396
0.540333
0.540373
0.54021
0.540197
0.539881
0.539869
0.540024
0.541421
0.543424
0.546722
0.528592
0.43999
0.438786
0.529112
0.550945
0.551184
0.551911
0.552075
0.55236
0.552112
0.551677
0.55106
0.550009
0.548939
0.547632
0.546341
0.545039
0.543855
0.542809
0.541916
0.541167
0.540504
0.539976
0.539537
0.539125
0.538788
0.538517
0.538392
0.538272
0.538379
0.538347
0.538431
0.538348
0.53835
0.538142
0.538194
0.538432
0.539832
0.541639
0.545242
0.525906
0.435807
0.437394
0.528889
0.552037
0.552471
0.553076
0.552983
0.552834
0.552402
0.551579
0.550626
0.549335
0.548062
0.546623
0.545226
0.54386
0.542615
0.541513
0.540565
0.539762
0.539053
0.538478
0.537998
0.537561
0.537214
0.536948
0.536818
0.536713
0.536822
0.536811
0.536946
0.536954
0.537036
0.537007
0.537245
0.537803
0.539374
0.541231
0.54518
0.524426
0.432586
0.436825
0.529612
0.554126
0.55478
0.555524
0.554875
0.554148
0.553332
0.552087
0.550813
0.549217
0.547615
0.545973
0.544392
0.542888
0.541518
0.5403
0.539242
0.538346
0.537571
0.536959
0.536474
0.536061
0.535755
0.535545
0.535461
0.535414
0.535571
0.535631
0.535867
0.535997
0.536227
0.536409
0.536842
0.537638
0.539252
0.541193
0.545417
0.523235
0.430426
0.43674
0.530731
0.556201
0.55727
0.558556
0.557378
0.556151
0.55485
0.553075
0.551335
0.549414
0.547541
0.545687
0.543965
0.542365
0.540916
0.539626
0.538505
0.537552
0.536734
0.536085
0.535572
0.535147
0.534838
0.534636
0.53456
0.534536
0.5347
0.534803
0.535094
0.535312
0.535669
0.536044
0.536699
0.537724
0.53944
0.5415
0.545701
0.521725
0.428048
0.436812
0.531992
0.558582
0.560206
0.562298
0.560563
0.558776
0.556878
0.554478
0.552194
0.549884
0.547712
0.545657
0.543754
0.54202
0.540465
0.53909
0.537897
0.536888
0.536026
0.535345
0.534812
0.534381
0.534077
0.533892
0.533833
0.533835
0.534009
0.53415
0.534483
0.534767
0.535211
0.53572
0.536532
0.537689
0.539449
0.54155
0.545643
0.520623
0.42636
0.436255
0.532962
0.560877
0.56319
0.566355
0.564241
0.562013
0.559418
0.556287
0.55336
0.5506
0.548102
0.545833
0.543803
0.541983
0.540363
0.538941
0.537711
0.536667
0.535776
0.535064
0.534504
0.534053
0.533733
0.533534
0.533463
0.53346
0.533609
0.533754
0.534096
0.534408
0.534918
0.535535
0.53648
0.537771
0.539619
0.541812
0.545652
0.519154
0.424382
0.436481
0.534263
0.563383
0.566424
0.570775
0.568542
0.565967
0.562546
0.558482
0.554731
0.551416
0.548561
0.546061
0.543877
0.541966
0.540291
0.538834
0.537574
0.536504
0.535589
0.534852
0.534268
0.533795
0.533453
0.533231
0.533136
0.533116
0.533233
0.533368
0.533703
0.534025
0.534582
0.535276
0.536323
0.537691
0.539575
0.541789
0.545349
0.518261
0.423335
0.435382
0.535274
0.565808
0.569467
0.575147
0.573118
0.570449
0.566267
0.56117
0.556442
0.552458
0.549201
0.546462
0.544121
0.542101
0.540359
0.538855
0.537562
0.536462
0.53552
0.534759
0.534153
0.533665
0.533309
0.533074
0.532962
0.532932
0.533023
0.533145
0.533462
0.533782
0.534375
0.535124
0.536251
0.53767
0.539592
0.541883
0.54512
0.517031
0.422295
0.437648
0.538312
0.568848
0.572962
0.579645
0.578092
0.575444
0.570532
0.56423
0.558325
0.55351
0.549791
0.54681
0.54433
0.54222
0.54041
0.538859
0.537532
0.536407
0.535444
0.534661
0.534037
0.533534
0.533164
0.532914
0.532784
0.532736
0.532793
0.532887
0.533165
0.533462
0.534069
0.534836
0.536025
0.537479
0.539466
0.541832
0.544855
0.516512
0.422
0.43664
0.54194
0.572341
0.576768
0.584403
0.583472
0.580863
0.57542
0.56788
0.560653
0.554805
0.550506
0.547229
0.544593
0.54238
0.540494
0.538885
0.537515
0.536359
0.535374
0.534573
0.533933
0.533421
0.533046
0.532793
0.532657
0.532605
0.532647
0.53273
0.532987
0.533282
0.533922
0.534729
0.536001
0.537495
0.539545
0.542017
0.544704
0.515571
0.421641
0.438525
0.545569
0.576914
0.582292
0.58993
0.589285
0.586319
0.580463
0.571747
0.56318
0.556146
0.551189
0.547599
0.544819
0.542517
0.540562
0.538901
0.537491
0.536307
0.535302
0.534484
0.533833
0.533313
0.532935
0.53268
0.532542
0.532488
0.532517
0.53259
0.532825
0.533112
0.533771
0.534598
0.535931
0.53744
0.539543
0.542093
0.544567
0.515309
0.421808
0.43858
0.546722
0.582605
0.591578
0.597403
0.596145
0.59211
0.585627
0.575855
0.565898
0.557567
0.551874
0.54794
0.545024
0.542646
0.540631
0.538919
0.537473
0.536263
0.53524
0.534409
0.533749
0.533224
0.532844
0.532591
0.532454
0.532402
0.532426
0.532496
0.532718
0.533005
0.533691
0.534544
0.535949
0.537483
0.53967
0.542314
0.544692
0.514807
0.421466
0.444672
0.54191
0.589873
0.604967
0.607732
0.60409
0.598104
0.590354
0.579735
0.568443
0.558972
0.552473
0.548212
0.545186
0.542756
0.540696
0.538943
0.537465
0.536233
0.535196
0.534354
0.533686
0.533158
0.532777
0.532526
0.532391
0.532341
0.532362
0.532432
0.532643
0.532931
0.533638
0.534514
0.535984
0.537533
0.539796
0.542472
0.54492
0.514399
0.421086
0.48628
0.534039
0.595225
0.621637
0.621191
0.613297
0.604282
0.594476
0.583009
0.570715
0.560177
0.552952
0.548397
0.545302
0.542845
0.540755
0.538971
0.537467
0.536219
0.535171
0.534322
0.533648
0.533117
0.532735
0.532485
0.532352
0.532304
0.532324
0.532395
0.532598
0.532888
0.533614
0.534505
0.536042
0.537599
0.539936
0.542581
0.545328
0.513437
0.419682
0.582563
0.554417
0.605211
0.640818
0.637892
0.622901
0.609142
0.597527
0.58521
0.572452
0.561076
0.553253
0.548498
0.545375
0.542913
0.540807
0.539002
0.537482
0.536221
0.535166
0.534312
0.533635
0.533102
0.532719
0.53247
0.532338
0.532291
0.532311
0.532381
0.532581
0.532872
0.53361
0.534514
0.536099
0.537659
0.540045
0.542623
0.545674
0.513
0.424105
)
;

boundaryField
{
    inlet
    {
        type            fixedValue;
        value           uniform 1;
    }
    outlet
    {
        type            zeroGradient;
    }
    obstacle
    {
        type            zeroGradient;
    }
    empty
    {
        type            empty;
    }
}


// ************************************************************************* //
