/*--------------------------------*- C++ -*----------------------------------*\
| =========                 |                                                 |
| \\      /  F ield         | OpenFOAM: The Open Source CFD Toolbox           |
|  \\    /   O peration     | Version:  v1912                                 |
|   \\  /    A nd           | Website:  www.openfoam.com                      |
|    \\/     M anipulation  |                                                 |
\*---------------------------------------------------------------------------*/
FoamFile
{
    version     2.0;
    format      ascii;
    class       volVectorField;
    location    "1.22";
    object      grad(T);
}
// * * * * * * * * * * * * * * * * * * * * * * * * * * * * * * * * * * * * * //

dimensions      [0 -1 0 1 0 0 0];


internalField   nonuniform List<vector> 
1900
(
(-1.08302e-06 7.98476e-10 0)
(4.55271e-06 -1.91618e-10 0)
(0.000325484 2.73748e-10 0)
(0.00504626 -1.28451e-06 0)
(0.0242764 -3.58688e-05 0)
(0.0509158 -0.000206698 0)
(0.0582948 -0.000343591 0)
(0.0375487 -0.000662588 0)
(0.0233112 0.000870349 0)
(0.00211555 -0.00284914 0)
(-1.08242e-06 1.32641e-09 0)
(4.55219e-06 -6.05588e-10 0)
(0.0003242 9.16815e-09 0)
(0.00501039 -1.31222e-06 0)
(0.024071 -4.49492e-05 0)
(0.0506081 -0.000261386 0)
(0.0578389 -0.000389943 0)
(0.0387626 -0.000926385 0)
(0.0211247 0.00128418 0)
(0.00942125 -0.00536853 0)
(-1.0823e-06 1.6263e-13 0)
(4.56055e-06 -2.73219e-13 0)
(0.000324173 -7.76289e-13 0)
(0.0050013 -3.46945e-13 0)
(0.0240163 1.07119e-12 0)
(0.0505708 1.32273e-12 0)
(0.0576298 1.53957e-13 0)
(0.0392228 -3.29597e-13 0)
(0.0188691 -3.38271e-13 0)
(0.00663749 -1.60462e-13 0)
(-1.08242e-06 -1.32632e-09 0)
(4.55219e-06 6.05067e-10 0)
(0.0003242 -9.16867e-09 0)
(0.00501039 1.31222e-06 0)
(0.024071 4.49492e-05 0)
(0.0506081 0.000261386 0)
(0.0578389 0.000389943 0)
(0.0387626 0.000926385 0)
(0.0211247 -0.00128418 0)
(0.00942125 0.00536853 0)
(-1.08302e-06 -7.98558e-10 0)
(4.55271e-06 1.9137e-10 0)
(0.000325484 -2.73492e-10 0)
(0.00504626 1.28451e-06 0)
(0.0242764 3.58688e-05 0)
(0.0509158 0.000206698 0)
(0.0582948 0.000343591 0)
(0.0375487 0.000662588 0)
(0.0233112 -0.000870349 0)
(0.00211555 0.00284914 0)
(-0.00603258 0.00638602 1.00071e-15)
(0.00800102 0.00461378 -1.21366e-15)
(-0.00240668 0.00179741 -1.53716e-15)
(-0.120578 0.0185783 0)
(-0.0258034 0.179828 -6.48857e-15)
(0.00223162 0.00377611 1.00186e-15)
(0.000520094 0.000806828 1.21366e-15)
(0.00475806 -0.00401688 1.53716e-15)
(-0.0433241 0.00401635 0)
(-0.005838 0.152137 0)
(0.00451875 1.17848e-14 0)
(0.00107253 2.85316e-14 0)
(0.000733635 1.50584e-13 0)
(-0.0413771 1.97128e-13 0)
(0.074515 3.4204e-13 0)
(0.00223162 -0.00377611 1.00186e-15)
(0.000520094 -0.000806828 1.21366e-15)
(0.00475806 0.00401688 1.53716e-15)
(-0.0433241 -0.00401635 0)
(-0.005838 -0.152137 0)
(-0.00603258 -0.00638602 -3.00443e-15)
(0.00800102 -0.00461378 -1.21366e-15)
(-0.00240668 -0.00179741 -1.53716e-15)
(-0.120578 -0.0185783 -4.19018e-15)
(-0.0258034 -0.179828 6.48857e-15)
(0.200381 -0.0792505 2.85729e-15)
(-0.0143893 -0.0170709 -2.40928e-15)
(-0.0270444 -0.0112788 0)
(-0.0840405 0.061539 1.83685e-15)
(-0.498006 0.0940043 -8.13213e-16)
(0.13552 -0.080498 -1.42745e-15)
(0.00054796 -0.0169951 1.20438e-15)
(0.00209376 -0.0196835 0)
(-0.0409625 0.0633653 -1.14967e-15)
(-0.168304 0.100739 2.04769e-16)
(0.149965 4.32586e-13 0)
(-0.00096991 1.529e-13 0)
(0.00360678 6.4249e-14 0)
(-0.0394318 1.2401e-13 4.60629e-16)
(-0.181323 1.39488e-13 -4.09539e-16)
(0.13552 0.080498 -1.42745e-15)
(0.00054796 0.0169951 1.20438e-15)
(0.00209376 0.0196835 0)
(-0.0409625 -0.0633653 -1.14967e-15)
(-0.168304 -0.100739 2.04769e-16)
(0.200381 0.0792505 1.42745e-15)
(-0.0143893 0.0170709 5.14121e-19)
(-0.0270444 0.0112788 0)
(-0.0840405 -0.061539 1.85335e-18)
(-0.498006 -0.0940043 8.13213e-16)
(-0.745876 2.00795 0)
(-0.179378 0.942804 0)
(0.147515 0.306124 0)
(0.0349255 0.0551508 0)
(0.0650699 -0.0021469 0)
(0.115908 0.00503025 0)
(0.145091 0.00269162 0)
(0.155657 0.00249366 0)
(0.146512 0.00187 0)
(0.114829 0.001277 0)
(0.0653787 0.000623716 0)
(0.0222486 0.000144724 0)
(0.00345225 9.99639e-06 0)
(0.000166574 1.31852e-07 0)
(1.64369e-06 2.29606e-10 0)
(2.2853e-09 1.06449e-13 0)
(3.45959e-13 0 0)
(1.97128e-15 0 0)
(9.85638e-16 -1.18277e-14 0)
(-2.95692e-15 7.88511e-15 0)
(0 -3.94255e-15 0)
(0 3.94255e-15 0)
(1.97128e-15 0 0)
(-4.49451e-13 -1.18277e-14 0)
(-2.96666e-09 -5.51957e-14 0)
(-2.04984e-06 -8.67362e-14 0)
(-0.000200096 -2.0107e-13 0)
(-0.00401577 -5.36187e-13 0)
(-0.0252654 4.73106e-13 0)
(-0.0731429 3.50887e-13 0)
(-0.127947 9.06787e-14 0)
(-0.165468 -6.30809e-14 0)
(-0.183702 0 0)
(-0.187824 -4.73106e-14 0)
(-0.175901 -3.94255e-15 0)
(-0.151694 -1.41932e-13 0)
(-0.184298 1.14334e-13 0)
(-0.50215 2.32611e-13 0)
(-0.527835 3.03577e-13 0)
(-0.140851 3.19347e-13 0)
(-0.555425 0.927766 0)
(-0.399118 0.955391 0)
(-0.00718464 0.252134 0)
(-0.0217228 0.0311358 0)
(0.0578774 -0.00612839 0)
(0.117273 0.00173567 0)
(0.144923 0.000807336 0)
(0.155702 0.00106726 0)
(0.146394 0.00085584 0)
(0.114695 0.000558941 0)
(0.0652735 0.000266242 0)
(0.0221951 6.39081e-05 0)
(0.00343926 4.6351e-06 0)
(0.000165631 6.36453e-08 0)
(1.63079e-06 1.13384e-10 0)
(2.2624e-09 -1.18277e-14 0)
(3.41031e-13 0 0)
(0 0 0)
(1.97128e-15 -3.94255e-15 0)
(0 -7.88511e-15 0)
(0 0 0)
(0 0 0)
(-1.97128e-15 0 0)
(-4.6325e-13 -3.94255e-15 0)
(-2.96667e-09 -2.36553e-14 0)
(-2.04984e-06 -1.30104e-13 0)
(-0.000200096 -2.83864e-13 0)
(-0.00401577 -6.42636e-13 0)
(-0.0252654 9.265e-13 0)
(-0.0731429 5.4013e-13 0)
(-0.127947 1.22219e-13 0)
(-0.165468 -7.88511e-14 0)
(-0.183702 -7.0966e-14 0)
(-0.187824 -1.45874e-13 0)
(-0.175901 -1.22219e-13 0)
(-0.151694 -2.68094e-13 0)
(-0.184298 8.67362e-14 0)
(-0.50215 1.5376e-13 0)
(-0.527835 1.18277e-13 0)
(-0.140851 1.00535e-13 0)
(-0.443201 5.08589e-13 0)
(-0.375925 5.91383e-13 0)
(-0.121359 2.1684e-13 0)
(-0.0402055 -3.58772e-13 0)
(0.0565172 -1.97128e-14 0)
(0.117925 6.70234e-14 0)
(0.144897 0 0)
(0.155671 -5.51957e-14 0)
(0.146364 2.28668e-13 0)
(0.114657 2.79921e-13 0)
(0.0652347 -8.27936e-14 0)
(0.0221725 1.02506e-13 0)
(0.00343368 -1.34047e-13 0)
(0.000165226 2.36553e-13 0)
(1.62517e-06 -2.12898e-13 0)
(2.25231e-09 -8.67362e-14 0)
(3.46945e-13 0 0)
(0 0 0)
(0 0 0)
(0 -3.94255e-15 0)
(0 0 0)
(0 -3.94255e-15 0)
(0 -3.94255e-15 0)
(-4.56351e-13 0 0)
(-2.96669e-09 7.49085e-14 0)
(-2.04984e-06 3.5483e-14 0)
(-0.000200096 2.36553e-14 0)
(-0.00401577 -2.52323e-13 0)
(-0.0252654 8.63419e-13 0)
(-0.0731429 1.6953e-13 0)
(-0.127947 -1.06449e-13 0)
(-0.165468 -1.5376e-13 0)
(-0.183702 -3.94255e-14 0)
(-0.187824 -3.31174e-13 0)
(-0.175901 -4.77049e-13 0)
(-0.151694 -1.853e-13 0)
(-0.184298 9.46213e-14 0)
(-0.50215 9.06787e-14 0)
(-0.527835 -9.06787e-14 0)
(-0.140851 -3.29203e-13 0)
(-0.555425 -0.927766 0)
(-0.399118 -0.955391 0)
(-0.00718464 -0.252134 0)
(-0.0217228 -0.0311358 0)
(0.0578774 0.00612839 0)
(0.117273 -0.00173567 0)
(0.144923 -0.000807336 0)
(0.155702 -0.00106726 0)
(0.146394 -0.00085584 0)
(0.114695 -0.000558941 0)
(0.0652735 -0.000266242 0)
(0.0221951 -6.39081e-05 0)
(0.00343926 -4.6351e-06 0)
(0.000165631 -6.36448e-08 0)
(1.63079e-06 -1.13431e-10 0)
(2.26247e-09 -1.37989e-13 0)
(3.66657e-13 0 0)
(0 0 0)
(0 0 0)
(0 0 0)
(0 0 0)
(-1.97128e-15 0 0)
(0 -3.94255e-15 0)
(-4.38609e-13 0 0)
(-2.96666e-09 5.91383e-14 0)
(-2.04984e-06 1.34047e-13 0)
(-0.000200096 3.19347e-13 0)
(-0.00401577 -1.93185e-13 0)
(-0.0252654 3.94255e-13 0)
(-0.0731429 -6.70234e-14 0)
(-0.127947 -1.93185e-13 0)
(-0.165468 -1.30104e-13 0)
(-0.183702 -7.49085e-14 0)
(-0.187824 -5.79555e-13 0)
(-0.175901 -7.13602e-13 0)
(-0.151694 -5.51957e-14 0)
(-0.184298 1.26162e-13 0)
(-0.50215 -1.97128e-14 0)
(-0.527835 -1.75444e-13 0)
(-0.140851 -4.65221e-13 0)
(-0.745876 -2.00795 0)
(-0.179378 -0.942804 0)
(0.147515 -0.306124 0)
(0.0349255 -0.0551508 0)
(0.0650699 0.0021469 0)
(0.115908 -0.00503025 0)
(0.145091 -0.00269162 0)
(0.155657 -0.00249366 0)
(0.146512 -0.00187 0)
(0.114829 -0.001277 0)
(0.0653787 -0.000623716 0)
(0.0222486 -0.000144724 0)
(0.00345225 -9.99639e-06 0)
(0.000166574 -1.31852e-07 0)
(1.64369e-06 -2.29354e-10 0)
(2.28531e-09 -1.18277e-14 0)
(3.8637e-13 0 0)
(0 0 0)
(0 0 0)
(1.97128e-15 3.94255e-15 0)
(-1.97128e-15 0 0)
(0 0 0)
(0 7.88511e-15 0)
(-4.39595e-13 0 0)
(-2.96665e-09 2.36553e-14 0)
(-2.04984e-06 3.15404e-14 0)
(-0.000200096 3.19347e-13 0)
(-0.00401577 -2.95692e-13 0)
(-0.0252654 5.51957e-14 0)
(-0.0731429 6.70234e-14 0)
(-0.127947 -7.49085e-14 0)
(-0.165468 -1.57702e-14 0)
(-0.183702 -1.57702e-13 0)
(-0.187824 -3.46945e-13 0)
(-0.175901 -3.15404e-13 0)
(-0.151694 4.73106e-14 0)
(-0.184298 3.5483e-14 0)
(-0.50215 -9.46213e-14 0)
(-0.527835 -1.63616e-13 0)
(-0.140851 -2.44438e-13 0)
(0.116095 -1.39902 0)
(0.414315 -0.530276 0)
(0.370744 -0.176447 0)
(0.106148 -0.0611302 0)
(0.0810003 -0.0174642 0)
(0.115816 -0.0126408 0)
(0.14632 -0.00736737 0)
(0.15627 -0.00491523 0)
(0.14702 -0.00339801 0)
(0.115322 -0.00222737 0)
(0.0658622 -0.00103386 0)
(0.0225181 -0.000226976 0)
(0.00351495 -1.50146e-05 0)
(0.000170811 -1.92896e-07 0)
(1.69859e-06 -3.32002e-10 0)
(2.37992e-09 -2.73747e-14 0)
(3.52301e-13 0 0)
(0 0 0)
(0 0 0)
(0 -1.1902e-15 0)
(0 0 0)
(0 0 0)
(0 0 0)
(-4.27284e-13 0 0)
(-2.96665e-09 1.42825e-14 0)
(-2.04984e-06 0 0)
(-0.000200096 8.68849e-14 0)
(-0.00401577 -3.45159e-14 0)
(-0.0252654 -6.54613e-14 0)
(-0.0731429 7.26025e-14 0)
(-0.127947 1.89243e-13 0)
(-0.165468 5.47494e-14 0)
(-0.183702 -1.78531e-13 0)
(-0.187824 -1.1545e-13 0)
(-0.175901 5.35592e-14 0)
(-0.151694 1.63058e-13 0)
(-0.184298 3.57061e-15 0)
(-0.50215 -3.68963e-14 0)
(-0.527835 -3.92768e-14 0)
(-0.140851 -7.02221e-14 0)
(0.300722 -0.324217 0)
(0.680384 -0.192339 0)
(0.479899 -0.090791 0)
(0.149936 -0.0543285 0)
(0.103254 -0.0336839 0)
(0.125687 -0.0202998 0)
(0.151877 -0.0125198 0)
(0.159154 -0.00793297 0)
(0.148829 -0.00524122 0)
(0.116843 -0.00310468 0)
(0.0670471 -0.0012954 0)
(0.0230859 -0.000265225 0)
(0.00363717 -1.69372e-05 0)
(0.000178771 -2.14921e-07 0)
(1.80013e-06 -3.70557e-10 0)
(2.55451e-09 -1.22591e-13 0)
(4.32044e-13 0 0)
(0 0 0)
(0 0 0)
(0 0 0)
(0 0 0)
(0 0 0)
(0 0 0)
(-4.33235e-13 0 0)
(-2.96665e-09 -1.1902e-14 0)
(-2.04984e-06 2.26139e-14 0)
(-0.000200096 -6.78417e-14 0)
(-0.00401577 2.309e-13 0)
(-0.0252654 -2.36851e-13 0)
(-0.0731429 -1.96384e-13 0)
(-0.127947 2.08286e-13 0)
(-0.165468 -7.61731e-14 0)
(-0.183702 -9.16458e-14 0)
(-0.187824 -6.54613e-14 0)
(-0.175901 2.14237e-14 0)
(-0.151694 1.23781e-13 0)
(-0.184298 1.1902e-13 0)
(-0.50215 7.85535e-14 0)
(-0.527835 7.02221e-14 0)
(-0.140851 2.43992e-14 0)
(0.243177 0.0486897 0)
(0.639252 -0.0790228 0)
(0.503736 -0.053676 0)
(0.161178 -0.0423097 0)
(0.113792 -0.0367172 0)
(0.13621 -0.0239433 0)
(0.158237 -0.0156347 0)
(0.163283 -0.0099932 0)
(0.151673 -0.00637366 0)
(0.119124 -0.00350899 0)
(0.0685984 -0.00134899 0)
(0.0237501 -0.000259025 0)
(0.00377032 -1.59064e-05 0)
(0.000187132 -1.9804e-07 0)
(1.90569e-06 -3.39836e-10 0)
(2.737e-09 -6.42711e-14 0)
(4.71321e-13 0 0)
(0 0 0)
(0 0 0)
(0 0 0)
(0 0 0)
(0 0 0)
(0 0 0)
(-4.37995e-13 0 0)
(-2.96663e-09 -1.1902e-14 0)
(-2.04984e-06 -4.87984e-14 0)
(-0.000200096 -1.42825e-14 0)
(-0.00401577 2.20188e-13 0)
(-0.0252654 -2.07096e-13 0)
(-0.0731429 -5.40353e-13 0)
(-0.127947 5.59396e-14 0)
(-0.165468 -2.63035e-13 0)
(-0.183702 9.52164e-15 0)
(-0.187824 5.2369e-14 0)
(-0.175901 -8.33143e-15 0)
(-0.151694 2.14237e-14 0)
(-0.184298 1.41634e-13 0)
(-0.50215 1.96384e-13 0)
(-0.527835 1.39849e-13 0)
(-0.140851 1.07118e-13 0)
(0.177654 0.0451408 0)
(0.58174 -0.0500071 0)
(0.515277 -0.0424869 0)
(0.166278 -0.0396994 0)
(0.120952 -0.0353734 0)
(0.146003 -0.0247486 0)
(0.16532 -0.0163665 0)
(0.168078 -0.0104456 0)
(0.155078 -0.00634 0)
(0.121685 -0.00323692 0)
(0.0701789 -0.00114306 0)
(0.0243705 -0.000202682 0)
(0.00388659 -1.16446e-05 0)
(0.000194098 -1.39753e-07 0)
(1.99097e-06 -2.47088e-10 0)
(2.88199e-09 -1.35933e-11 0)
(4.93935e-13 -1.36005e-11 0)
(0 -1.35719e-11 0)
(0 -1.3566e-11 0)
(0 -1.35933e-11 0)
(0 -1.36076e-11 0)
(0 -1.36017e-11 0)
(0 -1.35945e-11 0)
(-4.45137e-13 -1.35731e-11 0)
(-2.9667e-09 -1.35909e-11 0)
(-2.04984e-06 -1.37135e-11 0)
(-0.000200096 -1.34493e-11 0)
(-0.00401577 -1.37302e-11 0)
(-0.0252654 -1.35029e-11 0)
(-0.0731429 -1.38397e-11 0)
(-0.127947 -1.21163e-11 0)
(-0.165468 -1.04964e-11 0)
(-0.183702 -7.6185e-12 0)
(-0.187824 -5.07384e-12 0)
(-0.175901 -3.13143e-12 0)
(-0.151694 -1.80911e-12 0)
(-0.184298 -8.60518e-13 0)
(-0.50215 -2.60655e-13 0)
(-0.527835 5.89151e-14 0)
(-0.140851 7.02221e-14 0)
(0.151489 0.0116662 0)
(0.554811 -0.028661 0)
(0.513669 -0.0381928 0)
(0.168033 -0.0383866 0)
(0.128199 -0.0319105 0)
(0.154526 -0.0226653 0)
(0.17202 -0.0149844 0)
(0.172945 -0.00936929 0)
(0.158619 -0.00532768 0)
(0.124132 -0.0024813 0)
(0.0715223 -0.000784917 0)
(0.0248404 -0.000123382 0)
(0.0039655 -6.27532e-06 0)
(0.000198353 -1.0551e-07 0)
(2.04035e-06 -3.90439e-08 0)
(2.962e-09 -3.89379e-08 0)
(4.91555e-13 -3.8938e-08 0)
(3.45159e-14 -3.8938e-08 0)
(-2.14237e-14 -3.8938e-08 0)
(-4.0467e-14 -3.8938e-08 0)
(-7.14123e-15 -3.8938e-08 0)
(1.1902e-14 -3.8938e-08 0)
(2.73747e-14 -3.8938e-08 0)
(-4.33235e-13 -3.8938e-08 0)
(-2.96677e-09 -3.89379e-08 0)
(-2.04984e-06 -3.89381e-08 0)
(-0.000200096 -3.89382e-08 0)
(-0.00401577 -3.8932e-08 0)
(-0.0252654 -3.88118e-08 0)
(-0.0731429 -3.80039e-08 0)
(-0.127947 -3.55622e-08 0)
(-0.165468 -3.10567e-08 0)
(-0.183702 -2.49867e-08 0)
(-0.187824 -1.8466e-08 0)
(-0.175901 -1.26202e-08 0)
(-0.151694 -8.15857e-09 0)
(-0.184298 -4.89366e-09 0)
(-0.50215 -2.65785e-09 0)
(-0.527835 -4.85376e-10 0)
(-0.140851 -4.51088e-11 0)
(0.138793 -0.00417334 0)
(0.533694 -0.021319 0)
(0.505905 -0.0365315 0)
(0.172332 -0.0342722 0)
(0.136102 -0.0269759 0)
(0.162313 -0.018718 0)
(0.178132 -0.0120582 0)
(0.177384 -0.00722975 0)
(0.161715 -0.00381487 0)
(0.126062 -0.00157607 0)
(0.072451 -0.000430194 0)
(0.0251208 -6.45284e-05 0)
(0.00400538 -1.48364e-05 0)
(0.000200108 -1.28531e-05 0)
(2.05512e-06 -1.28395e-05 0)
(2.98406e-09 -1.28395e-05 0)
(4.35615e-13 -1.28395e-05 0)
(-2.26139e-14 -1.28395e-05 0)
(1.30923e-14 -1.28395e-05 0)
(2.49943e-14 -1.28395e-05 0)
(1.54727e-14 -1.28395e-05 0)
(1.54727e-14 -1.28395e-05 0)
(7.14123e-15 -1.28395e-05 0)
(-4.24903e-13 -1.28395e-05 0)
(-2.96684e-09 -1.28395e-05 0)
(-2.04984e-06 -1.28395e-05 0)
(-0.000200096 -1.28395e-05 0)
(-0.00401577 -1.28378e-05 0)
(-0.0252654 -1.28037e-05 0)
(-0.0731429 -1.25876e-05 0)
(-0.127947 -1.19564e-05 0)
(-0.165468 -1.07991e-05 0)
(-0.183702 -9.19828e-06 0)
(-0.187824 -7.37669e-06 0)
(-0.175901 -5.59548e-06 0)
(-0.151694 -4.07797e-06 0)
(-0.184298 -2.81099e-06 0)
(-0.50215 -1.81481e-06 0)
(-0.527835 -4.90255e-07 0)
(-0.140851 -7.78503e-08 0)
(0.134967 -0.0184834 0)
(0.523629 -0.020948 0)
(0.501187 -0.0303502 0)
(0.177241 -0.0271691 0)
(0.143187 -0.0206101 0)
(0.168901 -0.0136467 0)
(0.18309 -0.00835938 0)
(0.180889 -0.00474333 0)
(0.164068 -0.00250518 0)
(0.127394 -0.00131923 0)
(0.0729789 -0.000811674 0)
(0.0252406 -0.000689787 0)
(0.00401529 -0.000680542 0)
(0.000200278 -0.000680525 0)
(2.0534e-06 -0.000680529 0)
(2.97522e-09 -0.000680529 0)
(7.85535e-13 -0.000680529 0)
(3.21355e-14 -0.000680529 0)
(-3.33257e-14 -0.000680529 0)
(-4.16572e-14 -0.000680529 0)
(-6.30809e-14 -0.000680529 0)
(-7.26025e-14 -0.000680529 0)
(9.04556e-14 -0.000680529 0)
(-4.42756e-13 -0.000680529 0)
(-2.96651e-09 -0.000680529 0)
(-2.04982e-06 -0.000680529 0)
(-0.000200094 -0.000680528 0)
(-0.00401574 -0.000680443 0)
(-0.0252652 -0.000678856 0)
(-0.0731421 -0.000669501 0)
(-0.127945 -0.0006437 0)
(-0.165465 -0.000597676 0)
(-0.183698 -0.000533548 0)
(-0.187821 -0.000457692 0)
(-0.175898 -0.000378329 0)
(-0.151692 -0.000304461 0)
(-0.184296 -0.000235973 0)
(-0.502147 -0.000175856 0)
(-0.527833 -6.67901e-05 0)
(-0.14085 -1.84654e-05 0)
(0.136418 -0.0210921 0)
(0.522259 -0.0167576 0)
(0.49991 -0.0199073 0)
(0.181718 -0.0178676 0)
(0.149133 -0.014543 0)
(0.174119 -0.011578 0)
(0.186712 -0.00967798 0)
(0.183025 -0.00869738 0)
(0.165015 -0.0083722 0)
(0.127694 -0.00841734 0)
(0.0730576 -0.008528 0)
(0.0252472 -0.00859679 0)
(0.00401431 -0.0086133 0)
(0.00020012 -0.00861449 0)
(2.0508e-06 -0.00861451 0)
(2.96809e-09 -0.00861451 0)
(6.78417e-14 -0.00861451 0)
(-1.94003e-13 -0.00861451 0)
(-1.03548e-13 -0.00861451 0)
(-3.92768e-14 -0.00861451 0)
(9.52164e-14 -0.00861451 0)
(2.38041e-13 -0.00861451 0)
(-1.07118e-14 -0.00861451 0)
(-7.21264e-13 -0.00861451 0)
(-2.96554e-09 -0.00861451 0)
(-2.04892e-06 -0.00861451 0)
(-0.000200013 -0.00861449 0)
(-0.00401416 -0.00861341 0)
(-0.0252549 -0.00859479 0)
(-0.073109 -0.00849466 0)
(-0.127878 -0.0082403 0)
(-0.165362 -0.00781055 0)
(-0.183567 -0.00722263 0)
(-0.187675 -0.00651743 0)
(-0.175753 -0.00574748 0)
(-0.151557 -0.00498675 0)
(-0.184174 -0.00423312 0)
(-0.501987 -0.00351533 0)
(-0.527683 -0.00177818 0)
(-0.140804 -0.000790381 0)
(0.139144 -0.0187337 0)
(0.524771 -0.0194185 0)
(0.500117 -0.0268009 0)
(0.18241 -0.0285773 0)
(0.149248 -0.0298674 0)
(0.173589 -0.0314716 0)
(0.185866 -0.0333693 0)
(0.182147 -0.0352788 0)
(0.164337 -0.0369495 0)
(0.127244 -0.0382501 0)
(0.0728059 -0.0391422 0)
(0.0251584 -0.0395453 0)
(0.00399824 -0.0396302 0)
(0.000199114 -0.0396357 0)
(2.03789e-06 -0.0396358 0)
(2.94577e-09 -0.0396358 0)
(5.49875e-13 -0.0396358 0)
(4.55848e-13 -0.0396358 0)
(5.8082e-13 -0.0396358 0)
(2.3328e-13 -0.0396358 0)
(-1.33303e-13 -0.0396358 0)
(-3.91577e-13 -0.0396358 0)
(-4.14191e-13 -0.0396358 0)
(-4.82033e-13 -0.0396358 0)
(-2.94442e-09 -0.0396358 0)
(-2.03729e-06 -0.0396358 0)
(-0.000199041 -0.0396357 0)
(-0.00399675 -0.0396304 0)
(-0.0251508 -0.0395451 0)
(-0.0728005 -0.0391298 0)
(-0.127286 -0.0381768 0)
(-0.164485 -0.0366923 0)
(-0.182452 -0.0347534 0)
(-0.186399 -0.0324573 0)
(-0.174423 -0.0299109 0)
(-0.150232 -0.0273281 0)
(-0.182878 -0.0247247 0)
(-0.499782 -0.0220624 0)
(-0.525207 -0.0138854 0)
(-0.139898 -0.00874537 0)
(0.135758 -0.0392153 0)
(0.514485 -0.0482721 0)
(0.491084 -0.0657378 0)
(0.178762 -0.0703721 0)
(0.146343 -0.0738153 0)
(0.170744 -0.077384 0)
(0.183043 -0.0811297 0)
(0.179575 -0.0846579 0)
(0.162152 -0.0878266 0)
(0.125581 -0.090494 0)
(0.0718094 -0.0924358 0)
(0.0247769 -0.0933944 0)
(0.00392723 -0.0936111 0)
(0.000194782 -0.0936257 0)
(1.9828e-06 -0.0936259 0)
(2.84724e-09 -0.0936259 0)
(3.07073e-13 -0.0936259 0)
(-1.52346e-13 -0.0936259 0)
(-1.1783e-13 -0.0936259 0)
(-1.07118e-13 -0.0936259 0)
(1.28542e-13 -0.0936259 0)
(3.32067e-13 -0.0936259 0)
(2.03525e-13 -0.0936259 0)
(-5.35592e-13 -0.0936259 0)
(-2.84854e-09 -0.0936259 0)
(-1.98302e-06 -0.0936259 0)
(-0.000194784 -0.0936257 0)
(-0.00392688 -0.0936112 0)
(-0.0247725 -0.0933959 0)
(-0.0717905 -0.0924427 0)
(-0.125529 -0.0904931 0)
(-0.162063 -0.0877628 0)
(-0.179486 -0.0844513 0)
(-0.183008 -0.0806747 0)
(-0.170811 -0.0765279 0)
(-0.14656 -0.0723568 0)
(-0.1791 -0.0683096 0)
(-0.491542 -0.0636769 0)
(-0.514851 -0.0466712 0)
(-0.135851 -0.0370371 0)
(0.130417 -0.0834882 0)
(0.499213 -0.0902176 0)
(0.478821 -0.111245 0)
(0.174627 -0.116287 0)
(0.142491 -0.119662 0)
(0.166541 -0.1237 0)
(0.178857 -0.127992 0)
(0.175694 -0.132131 0)
(0.158714 -0.136002 0)
(0.122802 -0.139514 0)
(0.0700111 -0.142334 0)
(0.0240259 -0.143877 0)
(0.00377535 -0.144254 0)
(0.000184889 -0.144281 0)
(1.85126e-06 -0.144281 0)
(2.60652e-09 -0.144281 0)
(4.54658e-13 -0.144281 0)
(9.40262e-14 -0.144281 0)
(2.09476e-13 -0.144281 0)
(1.7615e-13 -0.144281 0)
(-2.14237e-14 -0.144281 0)
(-1.99954e-13 -0.144281 0)
(-2.23758e-13 -0.144281 0)
(-5.26071e-13 -0.144281 0)
(-2.60691e-09 -0.144281 0)
(-1.85142e-06 -0.144281 0)
(-0.000184898 -0.144281 0)
(-0.00377536 -0.144254 0)
(-0.0240248 -0.143877 0)
(-0.0700033 -0.142339 0)
(-0.122776 -0.139532 0)
(-0.158663 -0.136054 0)
(-0.175622 -0.132224 0)
(-0.178764 -0.128106 0)
(-0.166407 -0.123779 0)
(-0.142313 -0.119631 0)
(-0.174514 -0.116055 0)
(-0.47893 -0.110812 0)
(-0.499536 -0.0895433 0)
(-0.130615 -0.0828112 0)
(0.129274 -0.121212 0)
(0.487738 -0.11998 0)
(0.465963 -0.141919 0)
(0.170652 -0.147275 0)
(0.139201 -0.149883 0)
(0.162717 -0.153171 0)
(0.174919 -0.157026 0)
(0.171856 -0.160911 0)
(0.155037 -0.164772 0)
(0.11948 -0.168603 0)
(0.0676048 -0.172041 0)
(0.0229265 -0.174102 0)
(0.00353816 -0.174632 0)
(0.00016885 -0.17467 0)
(1.63528e-06 -0.174671 0)
(2.21306e-09 -0.174671 0)
(2.78508e-13 -0.174671 0)
(4.76082e-15 -0.174671 0)
(8.56947e-14 -0.174671 0)
(4.99886e-14 -0.174671 0)
(-4.76082e-15 -0.174671 0)
(-1.21401e-13 -0.174671 0)
(-1.77341e-13 -0.174671 0)
(-3.84436e-13 -0.174671 0)
(-2.21316e-09 -0.174671 0)
(-1.63533e-06 -0.174671 0)
(-0.000168854 -0.17467 0)
(-0.00353821 -0.174632 0)
(-0.0229265 -0.174102 0)
(-0.0676031 -0.172043 0)
(-0.119473 -0.168611 0)
(-0.15502 -0.164801 0)
(-0.171826 -0.160971 0)
(-0.174871 -0.157123 0)
(-0.162644 -0.153314 0)
(-0.139117 -0.150098 0)
(-0.170601 -0.14758 0)
(-0.465994 -0.142236 0)
(-0.487868 -0.120176 0)
(-0.129364 -0.121223 0)
(0.131603 -0.141852 0)
(0.479259 -0.132472 0)
(0.452519 -0.156127 0)
(0.166953 -0.162187 0)
(0.136809 -0.163973 0)
(0.159657 -0.166724 0)
(0.171398 -0.169866 0)
(0.168229 -0.173523 0)
(0.151302 -0.177311 0)
(0.115798 -0.181354 0)
(0.0647117 -0.18528 0)
(0.0215291 -0.187765 0)
(0.00322776 -0.188415 0)
(0.000147814 -0.188461 0)
(1.35773e-06 -0.188461 0)
(1.72577e-09 -0.188461 0)
(3.34448e-13 -0.188461 0)
(1.45205e-13 -0.188461 0)
(1.67819e-13 -0.188461 0)
(1.40444e-13 -0.188461 0)
(-8.33143e-15 -0.188461 0)
(-2.14237e-13 -0.188461 0)
(-2.18998e-13 -0.188461 0)
(-2.47563e-13 -0.188461 0)
(-1.72566e-09 -0.188461 0)
(-1.35773e-06 -0.188461 0)
(-0.000147814 -0.188461 0)
(-0.00322778 -0.188415 0)
(-0.0215292 -0.187765 0)
(-0.0647119 -0.18528 0)
(-0.115798 -0.181356 0)
(-0.1513 -0.17732 0)
(-0.168224 -0.173544 0)
(-0.171385 -0.169906 0)
(-0.159637 -0.166794 0)
(-0.136788 -0.164087 0)
(-0.166937 -0.162343 0)
(-0.452522 -0.156293 0)
(-0.479288 -0.132595 0)
(-0.131624 -0.141881 0)
(0.138313 -0.140198 0)
(0.473982 -0.133535 0)
(0.437328 -0.159037 0)
(0.163091 -0.165232 0)
(0.134828 -0.167043 0)
(0.157038 -0.168484 0)
(0.168367 -0.171277 0)
(0.164681 -0.174447 0)
(0.147491 -0.178155 0)
(0.111801 -0.182361 0)
(0.0614267 -0.186689 0)
(0.0199056 -0.189489 0)
(0.00286756 -0.19021 0)
(0.000124051 -0.190259 0)
(1.05922e-06 -0.19026 0)
(1.23485e-09 -0.19026 0)
(2.14237e-13 -0.19026 0)
(-2.85649e-14 -0.19026 0)
(2.85649e-14 -0.19026 0)
(1.02358e-13 -0.19026 0)
(-1.1902e-14 -0.19026 0)
(-1.1545e-13 -0.19026 0)
(-1.61868e-13 -0.19026 0)
(-2.83269e-13 -0.19026 0)
(-1.23476e-09 -0.19026 0)
(-1.05922e-06 -0.19026 0)
(-0.000124051 -0.190259 0)
(-0.00286756 -0.19021 0)
(-0.0199056 -0.189489 0)
(-0.061427 -0.186689 0)
(-0.111802 -0.182361 0)
(-0.147492 -0.178155 0)
(-0.164682 -0.174449 0)
(-0.168366 -0.171284 0)
(-0.157038 -0.168501 0)
(-0.134828 -0.167072 0)
(-0.16309 -0.165273 0)
(-0.437327 -0.159083 0)
(-0.47398 -0.13357 0)
(-0.138312 -0.140211 0)
(0.138025 -0.132683 0)
(0.461105 -0.118921 0)
(0.421974 -0.147646 0)
(0.159238 -0.153511 0)
(0.133675 -0.154857 0)
(0.155577 -0.156672 0)
(0.165653 -0.158278 0)
(0.161602 -0.160999 0)
(0.143676 -0.164256 0)
(0.107574 -0.16836 0)
(0.0578431 -0.172846 0)
(0.0181361 -0.175775 0)
(0.00248525 -0.176506 0)
(0.000100134 -0.176552 0)
(7.80629e-07 -0.176553 0)
(8.17198e-10 -0.176553 0)
(1.1545e-13 -0.176553 0)
(-9.75968e-14 -0.176553 0)
(-8.68849e-14 -0.176553 0)
(2.73747e-14 -0.176553 0)
(7.97437e-14 -0.176553 0)
(6.42711e-14 -0.176553 0)
(-3.57061e-14 -0.176553 0)
(-2.71367e-13 -0.176553 0)
(-8.17108e-10 -0.176553 0)
(-7.80628e-07 -0.176553 0)
(-0.000100134 -0.176552 0)
(-0.00248524 -0.176506 0)
(-0.0181361 -0.175775 0)
(-0.0578432 -0.172846 0)
(-0.107574 -0.16836 0)
(-0.143676 -0.164255 0)
(-0.161602 -0.160998 0)
(-0.165654 -0.158277 0)
(-0.155579 -0.156672 0)
(-0.133677 -0.154857 0)
(-0.159239 -0.153512 0)
(-0.421973 -0.147647 0)
(-0.461102 -0.118923 0)
(-0.138023 -0.132685 0)
(0.151574 -0.10021 0)
(0.459563 -0.0999334 0)
(0.403997 -0.126789 0)
(0.156142 -0.131325 0)
(0.131782 -0.130513 0)
(0.153741 -0.132522 0)
(0.164197 -0.133791 0)
(0.158921 -0.135821 0)
(0.140398 -0.138294 0)
(0.103523 -0.141837 0)
(0.0542812 -0.14619 0)
(0.016379 -0.149122 0)
(0.00211865 -0.149829 0)
(7.86998e-05 -0.14987 0)
(5.53277e-07 -0.149871 0)
(5.12597e-10 -0.149871 0)
(5.71298e-14 -0.149871 0)
(-2.49943e-14 -0.149871 0)
(-4.76082e-14 -0.149871 0)
(-1.66629e-14 -0.149871 0)
(9.2836e-14 -0.149871 0)
(1.22591e-13 -0.149871 0)
(9.52164e-15 -0.149871 0)
(-1.94003e-13 -0.149871 0)
(-5.1259e-10 -0.149871 0)
(-5.53277e-07 -0.149871 0)
(-7.86998e-05 -0.14987 0)
(-0.00211864 -0.149829 0)
(-0.016379 -0.149122 0)
(-0.0542812 -0.14619 0)
(-0.103523 -0.141837 0)
(-0.140398 -0.138294 0)
(-0.158921 -0.13582 0)
(-0.164198 -0.13379 0)
(-0.153742 -0.13252 0)
(-0.131782 -0.13051 0)
(-0.156142 -0.131321 0)
(-0.403996 -0.126786 0)
(-0.459562 -0.0999317 0)
(-0.151573 -0.10021 0)
(0.138292 -0.0923758 0)
(0.435493 -0.109118 0)
(0.391724 -0.141319 0)
(0.15565 -0.151451 0)
(0.132521 -0.15156 0)
(0.152418 -0.154227 0)
(0.162474 -0.157992 0)
(0.157262 -0.161783 0)
(0.137878 -0.16547 0)
(0.0999654 -0.169589 0)
(0.0508229 -0.17412 0)
(0.0146296 -0.177024 0)
(0.00176417 -0.177685 0)
(5.94911e-05 -0.177721 0)
(3.70794e-07 -0.177722 0)
(2.98785e-10 -0.177722 0)
(6.42711e-14 -0.177722 0)
(-5.95102e-15 -0.177722 0)
(-6.90319e-14 -0.177722 0)
(-1.90433e-14 -0.177722 0)
(1.05928e-13 -0.177722 0)
(1.67819e-13 -0.177722 0)
(7.85535e-14 -0.177722 0)
(-8.56947e-14 -0.177722 0)
(-2.98672e-10 -0.177722 0)
(-3.70794e-07 -0.177722 0)
(-5.94911e-05 -0.177721 0)
(-0.00176417 -0.177685 0)
(-0.0146296 -0.177024 0)
(-0.0508229 -0.17412 0)
(-0.0999654 -0.169589 0)
(-0.137878 -0.16547 0)
(-0.157262 -0.161783 0)
(-0.162474 -0.157992 0)
(-0.152418 -0.154226 0)
(-0.132521 -0.151559 0)
(-0.15565 -0.15145 0)
(-0.391724 -0.141317 0)
(-0.435493 -0.109117 0)
(-0.138291 -0.0923757 0)
(0.13544 -0.297608 0)
(0.4124 -0.313971 0)
(0.363203 -0.363389 0)
(0.146273 -0.395175 0)
(0.129107 -0.407901 0)
(0.147543 -0.425872 0)
(0.156916 -0.44176 0)
(0.151715 -0.457266 0)
(0.132876 -0.471209 0)
(0.0951879 -0.484757 0)
(0.0471164 -0.496765 0)
(0.0129428 -0.502786 0)
(0.00144646 -0.503852 0)
(4.36762e-05 -0.503897 0)
(2.3622e-07 -0.503897 0)
(1.61028e-10 -0.503897 0)
(2.38041e-14 -0.503897 0)
(-1.66629e-14 -0.503897 0)
(-9.52164e-15 -0.503897 0)
(3.09453e-14 -0.503897 0)
(1.1426e-13 -0.503897 0)
(1.60678e-13 -0.503897 0)
(9.52164e-14 -0.503897 0)
(3.33257e-14 -0.503897 0)
(-1.60818e-10 -0.503897 0)
(-2.3622e-07 -0.503897 0)
(-4.36762e-05 -0.503897 0)
(-0.00144646 -0.503852 0)
(-0.0129428 -0.502786 0)
(-0.0471164 -0.496765 0)
(-0.0951879 -0.484757 0)
(-0.132876 -0.471209 0)
(-0.151715 -0.457266 0)
(-0.156916 -0.44176 0)
(-0.147543 -0.425872 0)
(-0.129107 -0.407901 0)
(-0.146273 -0.395175 0)
(-0.363203 -0.363388 0)
(-0.4124 -0.313971 0)
(-0.13544 -0.297608 0)
(0.122524 -0.257702 0)
(0.372105 -0.391001 0)
(0.313473 -0.440643 0)
(0.112755 -0.46686 0)
(0.102941 -0.494096 0)
(0.119791 -0.496742 0)
(0.132222 -0.510249 0)
(0.128884 -0.516915 0)
(0.111388 -0.527119 0)
(0.0753384 -0.541427 0)
(0.0334494 -0.557031 0)
(0.00780049 -0.56471 0)
(0.000693191 -0.565896 0)
(1.56889e-05 -0.565938 0)
(6.08708e-08 -0.565938 0)
(2.83882e-11 -0.565938 0)
(-7.79584e-14 -0.565938 0)
(-6.07004e-14 -0.565938 0)
(-4.16572e-15 -0.565938 0)
(3.39208e-14 -0.565938 0)
(9.2836e-14 -0.565938 0)
(1.60678e-13 -0.565938 0)
(1.1783e-13 -0.565938 0)
(4.22523e-14 -0.565938 0)
(-2.84477e-11 -0.565938 0)
(-6.08712e-08 -0.565938 0)
(-1.56889e-05 -0.565938 0)
(-0.000693191 -0.565896 0)
(-0.00780049 -0.56471 0)
(-0.0334494 -0.557031 0)
(-0.0753384 -0.541427 0)
(-0.111388 -0.527119 0)
(-0.128884 -0.516915 0)
(-0.132221 -0.510249 0)
(-0.119791 -0.496742 0)
(-0.102941 -0.494096 0)
(-0.112755 -0.46686 0)
(-0.313473 -0.440643 0)
(-0.372105 -0.391001 0)
(-0.122524 -0.257702 0)
(0.00698898 -0.0191384 0)
(0.236111 -0.139033 0)
(0.290102 -0.160264 0)
(0.0947641 -0.163286 0)
(0.100311 -0.178934 0)
(0.131977 -0.166015 0)
(0.137477 -0.166288 0)
(0.135459 -0.16056 0)
(0.109255 -0.159465 0)
(0.0663632 -0.162773 0)
(0.0246799 -0.168779 0)
(0.00440031 -0.171874 0)
(0.000263484 -0.172307 0)
(3.57776e-06 -0.17232 0)
(7.88003e-09 -0.17232 0)
(2.04894e-12 -0.17232 0)
(-1.91028e-13 -0.17232 0)
(-1.33898e-13 -0.17232 0)
(-4.16572e-14 -0.17232 0)
(-3.57061e-15 -0.17232 0)
(9.2836e-14 -0.17232 0)
(1.71985e-13 -0.17232 0)
(1.08309e-13 -0.17232 0)
(-2.08286e-14 -0.17232 0)
(-2.27091e-12 -0.17232 0)
(-7.87995e-09 -0.17232 0)
(-3.57776e-06 -0.17232 0)
(-0.000263484 -0.172307 0)
(-0.00440031 -0.171874 0)
(-0.0246799 -0.168779 0)
(-0.0663632 -0.162773 0)
(-0.109255 -0.159465 0)
(-0.135459 -0.16056 0)
(-0.137477 -0.166288 0)
(-0.131977 -0.166015 0)
(-0.100311 -0.178934 0)
(-0.0947641 -0.163286 0)
(-0.290102 -0.160264 0)
(-0.236111 -0.139033 0)
(-0.00698899 -0.0191384 0)
(0.00698898 0.0191384 0)
(0.236111 0.139033 0)
(0.290102 0.160264 0)
(0.0947641 0.163286 0)
(0.100311 0.178934 0)
(0.131977 0.166015 0)
(0.137477 0.166288 0)
(0.135459 0.16056 0)
(0.109255 0.159465 0)
(0.0663632 0.162773 0)
(0.0246799 0.168779 0)
(0.00440031 0.171874 0)
(0.000263484 0.172307 0)
(3.57776e-06 0.17232 0)
(7.87988e-09 0.17232 0)
(2.30602e-12 0.17232 0)
(-8.92654e-15 0.17232 0)
(6.42711e-14 0.17232 0)
(3.03502e-14 0.17232 0)
(-1.07118e-14 0.17232 0)
(-3.57061e-15 0.17232 0)
(3.39208e-14 0.17232 0)
(3.27306e-14 0.17232 0)
(-2.73747e-14 0.17232 0)
(-2.24532e-12 0.17232 0)
(-7.88026e-09 0.17232 0)
(-3.57776e-06 0.17232 0)
(-0.000263484 0.172307 0)
(-0.00440031 0.171874 0)
(-0.0246799 0.168779 0)
(-0.0663632 0.162773 0)
(-0.109255 0.159465 0)
(-0.135459 0.16056 0)
(-0.137477 0.166288 0)
(-0.131977 0.166015 0)
(-0.100311 0.178934 0)
(-0.0947641 0.163286 0)
(-0.290102 0.160264 0)
(-0.236111 0.139033 0)
(-0.00698899 0.0191384 0)
(0.122524 0.257702 0)
(0.372105 0.391001 0)
(0.313473 0.440643 0)
(0.112755 0.46686 0)
(0.102941 0.494096 0)
(0.119791 0.496742 0)
(0.132222 0.510249 0)
(0.128884 0.516915 0)
(0.111388 0.527119 0)
(0.0753384 0.541427 0)
(0.0334494 0.557031 0)
(0.00780049 0.56471 0)
(0.000693191 0.565896 0)
(1.56889e-05 0.565938 0)
(6.08709e-08 0.565938 0)