/*--------------------------------*- C++ -*----------------------------------*\
| =========                 |                                                 |
| \\      /  F ield         | OpenFOAM: The Open Source CFD Toolbox           |
|  \\    /   O peration     | Version:  v1912                                 |
|   \\  /    A nd           | Website:  www.openfoam.com                      |
|    \\/     M anipulation  |                                                 |
\*---------------------------------------------------------------------------*/
FoamFile
{
    version     2.0;
    format      ascii;
    class       volScalarField;
    location    "1.22";
    object      p;
}
// * * * * * * * * * * * * * * * * * * * * * * * * * * * * * * * * * * * * * //

dimensions      [1 -1 -2 0 0 0 0];


internalField   nonuniform List<scalar> 
1900
(
9999.99
10000
10000
10002.3
10035.3
10172.7
10396.1
10591.4
10670.1
10763
9999.99
10000
10000
10002.3
10035.1
10171.3
10393.7
10586.9
10677.5
10741.8
9999.99
10000
10000
10002.3
10035
10170.9
10393.4
10584.9
10680.2
10723.6
9999.99
10000
10000
10002.3
10035.1
10171.3
10393.7
10586.9
10677.5
10741.8
9999.99
10000
10000
10002.3
10035.3
10172.7
10396.1
10591.4
10670.1
10763
10697.6
10720.8
10694
10595.7
10006.1
10737.2
10746.9
10699.1
10657.1
10377.2
10720.4
10725.9
10674.1
10611
10328
10737.2
10746.9
10699.1
10657.1
10377.2
10697.6
10720.8
10694
10595.7
10006.1
11544.7
11482
11682.3
11754.4
12065.1
11400.4
11457.5
11678.8
11821.6
11772.4
11396.1
11463.1
11669.4
11785.7
11500.1
11400.4
11457.5
11678.8
11821.6
11772.4
11544.7
11482
11682.3
11754.4
12065.1
10360.8
5937.86
6342.51
6397.5
6555.56
6930.72
7447.89
8071.74
8736.58
9350.44
9784.86
9966.67
9998.39
9999.98
10000
10000
10000
10000
10000
10000
10000
10000
10000
10000
10000
10000
9999.98
9998.07
9961.21
9755.65
9273.51
8595.85
7851.46
7115.05
6422.74
5800.45
5265.66
4824.06
4268.03
14754.3
10474.4
6272.61
6517.24
6440.13
6556.4
6937.88
7448.05
8072.85
8738.07
9351.56
9785.39
9966.79
9998.4
9999.98
10000
10000
10000
10000
10000
10000
10000
10000
10000
10000
10000
10000
9999.98
9998.07
9961.21
9755.65
9273.51
8595.85
7851.46
7115.05
6422.74
5800.45
5265.66
4824.06
4268.03
14754.3
10009.3
6787.5
6583.58
6455
6557.13
6939.94
7448.4
8073.19
8738.55
9351.98
9785.62
9966.85
9998.41
9999.98
10000
10000
10000
10000
10000
10000
10000
10000
10000
10000
10000
10000
9999.98
9998.07
9961.21
9755.65
9273.51
8595.85
7851.46
7115.05
6422.74
5800.45
5265.66
4824.06
4268.03
14754.3
10474.4
6272.61
6517.24
6440.13
6556.4
6937.88
7448.05
8072.85
8738.07
9351.56
9785.39
9966.79
9998.4
9999.98
10000
10000
10000
10000
10000
10000
10000
10000
10000
10000
10000
10000
9999.98
9998.07
9961.21
9755.65
9273.51
8595.85
7851.46
7115.05
6422.74
5800.45
5265.66
4824.06
4268.03
14754.3
10360.8
5937.86
6342.51
6397.5
6555.56
6930.72
7447.89
8071.74
8736.58
9350.44
9784.86
9966.67
9998.39
9999.98
10000
10000
10000
10000
10000
10000
10000
10000
10000
10000
10000
10000
9999.98
9998.07
9961.21
9755.65
9273.51
8595.85
7851.46
7115.05
6422.74
5800.45
5265.66
4824.06
4268.03
14754.3
11952.2
5323.52
6055.24
6267.44
6517.37
6904.2
7440.11
8065.62
8730.38
9345.34
9782.21
9966.06
9998.35
9999.98
10000
10000
10000
10000
10000
10000
10000
10000
10000
10000
10000
10000
9999.98
9998.07
9961.21
9755.65
9273.51
8595.85
7851.46
7115.05
6422.74
5800.45
5265.66
4824.06
4268.03
14754.3
13167.6
4731.91
5665.7
6028.4
6391.07
6835.23
7403.82
8041.98
8712.49
9333.24
9776.68
9964.87
9998.28
9999.98
10000
10000
10000
10000
10000
10000
10000
10000
10000
10000
10000
10000
9999.98
9998.07
9961.21
9755.65
9273.51
8595.85
7851.46
7115.05
6422.74
5800.45
5265.66
4824.06
4268.03
14754.3
14668.4
4596.53
5459.36
5854.76
6266.16
6758.87
7349.79
8004.62
8686.56
9317.68
9770.25
9963.59
9998.2
9999.98
10000
10000
10000
10000
10000
10000
10000
10000
10000
10000
10000
10000
9999.98
9998.07
9961.21
9755.65
9273.51
8595.85
7851.46
7115.05
6422.74
5800.45
5265.66
4824.06
4268.03
14754.3
15483.4
4530.2
5304.81
5703.84
6145.2
6674.77
7288.82
7962.15
8658.43
9302
9764.26
9962.46
9998.13
9999.98
10000
10000
10000
10000
10000
10000
10000
10000
10000
10000
10000
10000
9999.98
9998.07
9961.21
9755.65
9273.51
8595.85
7851.46
7115.05
6422.74
5800.45
5265.66
4824.06
4268.03
14754.3
15530.2
4485.81
5174.58
5568.1
6036.65
6593.48
7229.32
7921.14
8632.78
9288.88
9759.73
9961.7
9998.09
9999.98
10000
10000
10000
10000
10000
10000
10000
10000
10000
10000
10000
10000
9999.98
9998.07
9961.21
9755.65
9273.51
8595.85
7851.46
7115.05
6422.74
5800.45
5265.66
4824.06
4268.03
14754.3
15459.7
4448.11
5044.26
5450.96
5942.43
6522
7178.52
7887.79
8613.47
9279.96
9757.04
9961.31
9998.07
9999.98
10000
10000
10000
10000
10000
10000
10000
10000
10000
10000
10000
10000
9999.98
9998.07
9961.21
9755.65
9273.51
8595.85
7851.46
7115.05
6422.74
5800.45
5265.66
4824.06
4268.03
14754.3
15235.7
4385.6
4934.69
5357.2
5867.56
6466.8
7140.69
7864.11
8600.76
9274.91
9755.77
9961.1
9997.95
9999.86
9999.88
9999.88
9999.88
9999.88
9999.88
9999.88
9999.88
9999.88
9999.88
9999.88
9999.88
9999.88
9999.86
9997.95
9961.09
9755.54
9273.4
8595.76
7851.39
7115
6422.71
5800.43
5265.64
4824.05
4268.03
14754.3
14972.2
4313.92
4853.83
5287.73
5813.8
6429.71
7117.27
7850.53
8592.52
9268.31
9749.61
9954.91
9991.74
9993.65
9993.67
9993.67
9993.67
9993.67
9993.67
9993.67
9993.67
9993.67
9993.67
9993.67
9993.67
9993.67
9993.65
9991.75
9954.92
9749.54
9267.84
8590.87
7847.29
7111.72
6420.18
5798.54
5264.3
4823.1
4267.66
14753.9
14780.7
4268.27
4814.42
5251.18
5776.7
6388.45
7070.02
7796.03
8530.9
9200.78
9677.9
9881.42
9917.91
9919.8
9919.82
9919.82
9919.82
9919.82
9919.82
9919.82
9919.82
9919.82
9919.82
9919.82
9919.82
9919.82
9919.8
9917.91
9881.43
9677.98
9200.84
8530.61
7794.91
7067.48
6383.77
5769.11
5241.13
4804.69
4258.44
14736.8
14572.3
4195.29
4703.25
5122.35
5627.83
6218.31
6876.18
7577.28
8287.36
8934.9
9395.87
9592.17
9627.26
9629.07
9629.09
9629.09
9629.09
9629.09
9629.09
9629.09
9629.09
9629.09
9629.09
9629.09
9629.09
9629.09
9629.07
9627.26
9592.17
9395.91
8935.07
8287.84
7578.13
6877.25
6219.27
5628.31
5121.94
4702.11
4192.91
14559
13916.6
4003.77
4459.85
4853.82
5326.98
5880.46
6497.58
7155.89
7822.96
8431.04
8862.84
9045.64
9078.01
9079.66
9079.67
9079.67
9079.67
9079.67
9079.67
9079.67
9079.67
9079.67
9079.67
9079.67
9079.67
9079.67
9079.66
9078.01
9045.64
8862.85
8431.11
7823.18
7156.34
6498.28
5881.45
5328.4
4855.73
4461.89
4005.45
13917
12763.2
3704.63
4124.44
4489.9
4926.83
5437.77
6008.34
6617.39
7234.3
7795.2
8190.84
8356.17
8384.87
8386.29
8386.3
8386.3
8386.3
8386.3
8386.3
8386.3
8386.3
8386.3
8386.3
8386.3
8386.3
8386.3
8386.29
8384.87
8356.17
8190.84
7795.21
7234.35
6617.52
6008.59
5438.18
4927.47
4490.73
4125.29
3705.3
12763.8
11373.5
3355.33
3756.6
4094.53
4496.3
4965.99
5490.13
6049.78
6615.79
7128.06
7485.39
7631.62
7656.2
7657.37
7657.38
7657.38
7657.38
7657.38
7657.38
7657.38
7657.38
7657.38
7657.38
7657.38
7657.38
7657.38
7657.37
7656.2
7631.62
7485.38
7128.06
6615.79
6049.79
5490.16
4966.08
4496.44
4094.71
3756.79
3355.47
11373.8
9917.02
3006.4
3395.03
3705.73
4075.62
4504.95
4986.42
5498.6
6015.75
6480.7
6800.1
6927.1
6947.54
6948.45
6948.46
6948.46
6948.46
6948.46
6948.46
6948.46
6948.46
6948.46
6948.46
6948.46
6948.46
6948.46
6948.45
6947.54
6927.1
6800.1
6480.7
6015.74
5498.59
4986.41
4504.95
4075.62
3705.73
3395.03
3006.4
9917.05
8650.38
2683.24
3054.93
3342.4
3679.79
4076.76
4516.91
4986.63
5458.16
5878.56
6161.69
6270.25
6286.78
6287.47
6287.47
6287.47
6287.47
6287.47
6287.47
6287.47
6287.47
6287.47
6287.47
6287.47
6287.47
6287.47
6287.47
6286.78
6270.25
6161.69
5878.56
5458.16
4986.63
4516.91
4076.75
3679.77
3342.38
3054.92
2683.23
8650.38
7372.92
2408.76
2757.88
3023.32
3333.64
3692.62
4100.15
4530.02
4961.1
5341.04
5590.98
5682.84
5695.97
5696.47
5696.47
5696.47
5696.47
5696.47
5696.47
5696.47
5696.47
5696.47
5696.47
5696.47
5696.47
5696.47
5696.47
5695.97
5682.84
5590.98
5341.04
4961.1
4530.02
4100.14
3692.62
3333.63
3023.31
2757.88
2408.76
7372.91
6465.4
2178.15
2499.91
2746.31
3035.26
3366.94
3742.11
4140.24
4537.05
4882.39
5102.67
5179.36
5189.5
5189.85
5189.85
5189.85
5189.85
5189.85
5189.85
5189.85
5189.85
5189.85
5189.85
5189.85
5189.85
5189.85
5189.85
5189.5
5179.36
5102.67
4882.39
4537.05
4140.24
3742.11
3366.94
3035.26
2746.31
2499.91
2178.15
6465.4
5653.46
2001.53
2280.07
2508.86
2779.98
3091.08
3443.6
3814.88
4184.27
4502.28
4699.93
4765.26
4773.21
4773.45
4773.46
4773.46
4773.46
4773.46
4773.46
4773.46
4773.46
4773.46
4773.46
4773.46
4773.46
4773.46
4773.45
4773.21
4765.26
4699.93
4502.28
4184.27
3814.88
3443.6
3091.08
2779.98
2508.86
2280.07
2001.53
5653.46
4957.76
1744.18
2005.35
2189.33
2432.48
2722.92
3061.05
3421.07
3769
4044.03
4190.19
4229.23
4232.96
4233.04
4233.04
4233.04
4233.04
4233.04
4233.04
4233.04
4233.04
4233.04
4233.04
4233.04
4233.04
4233.04
4233.04
4232.96
4229.23
4190.19
4044.03
3769
3421.07
3061.05
2722.92
2432.48
2189.33
2005.35
1744.18
4957.76
21065
5059.72
5777.14
6664.25
7632.82
9000.4
10356.1
11877.9
13285.7
14342.9
14828.1
14926.3
14932.5
14932.5
14932.5
14932.5
14932.5
14932.5
14932.5
14932.5
14932.5
14932.5
14932.5
14932.5
14932.5
14932.5
14932.5
14932.5
14926.3
14828.1
14342.9
13285.7
11877.9
10356.1
9000.4
7632.82
6664.25
5777.14
5059.72
21065
21065
5059.72
5777.14
6664.25
7632.82
9000.4
10356.1
11877.9
13285.7
14342.9
14828.1
14926.3
14932.5
14932.5
14932.5
14932.5
14932.5
14932.5
14932.5
14932.5
14932.5
14932.5
14932.5
14932.5
14932.5
14932.5
14932.5
14932.5
14926.3
14828.1
14342.9
13285.7
11877.9
10356.1
9000.4
7632.82
6664.25
5777.14
5059.72
21065
4957.76
1744.18
2005.35
2189.33
2432.48
2722.92
3061.05
3421.07
3769
4044.03
4190.19
4229.23
4232.96
4233.04
4233.04
4233.04
4233.04
4233.04
4233.04
4233.04
4233.04
4233.04
4233.04
4233.04
4233.04
4233.04
4233.04
4232.96
4229.23
4190.19
4044.03
3769
3421.07
3061.05
2722.92
2432.48
2189.33
2005.35
1744.18
4957.76
5653.46
2001.53
2280.07
2508.86
2779.98
3091.08
3443.6
3814.88
4184.27
4502.28
4699.93
4765.26
4773.21
4773.45
4773.46
4773.46
4773.46
4773.46
4773.46
4773.46
4773.46
4773.46
4773.46
4773.46
4773.46
4773.46
4773.45
4773.21
4765.26
4699.93
4502.28
4184.27
3814.88
3443.6
3091.08
2779.98
2508.86
2280.07
2001.53
5653.46
6465.4
2178.15
2499.91
2746.31
3035.26
3366.94
3742.11
4140.24
4537.05
4882.39
5102.67
5179.36
5189.5
5189.85
5189.85
5189.85
5189.85
5189.85
5189.85
5189.85
5189.85
5189.85
5189.85
5189.85
5189.85
5189.85
5189.85
5189.5
5179.36
5102.67
4882.39
4537.05
4140.24
3742.11
3366.94
3035.26
2746.31
2499.91
2178.15
6465.4
7372.92
2408.76
2757.88
3023.32
3333.64
3692.62
4100.15
4530.02
4961.1
5341.04
5590.98
5682.84
5695.97
5696.47
5696.47
5696.47
5696.47
5696.47
5696.47
5696.47
5696.47
5696.47
5696.47
5696.47
5696.47
5696.47
5696.47
5695.97
5682.84
5590.98
5341.04
4961.1
4530.02
4100.14
3692.62
3333.63
3023.31
2757.88
2408.76
7372.91
8650.38
2683.24
3054.93
3342.4
3679.79
4076.76
4516.91
4986.63
5458.16
5878.56
6161.69
6270.25
6286.78
6287.47
6287.47
6287.47
6287.47
6287.47
6287.47
6287.47
6287.47
6287.47
6287.47
6287.47
6287.47
6287.47
6287.47
6286.78
6270.25
6161.69
5878.56
5458.16
4986.63
4516.91
4076.75
3679.77
3342.38
3054.92
2683.23
8650.38
9917.02
3006.4
3395.03
3705.73
4075.62
4504.95
4986.42
5498.6
6015.75
6480.7
6800.1
6927.1
6947.54
6948.45
6948.46
6948.46
6948.46
6948.46
6948.46
6948.46
6948.46
6948.46
6948.46
6948.46
6948.46
6948.46
6948.45
6947.54
6927.1
6800.1
6480.7
6015.74
5498.59
4986.41
4504.95
4075.62
3705.73
3395.03
3006.4
9917.05
11373.5
3355.33
3756.6
4094.53
4496.3
4965.99
5490.13
6049.78
6615.79
7128.06
7485.39
7631.62
7656.2
7657.37
7657.38
7657.38
7657.38
7657.38
7657.38
7657.38
7657.38
7657.38
7657.38
7657.38
7657.38
7657.38
7657.37
7656.2
7631.62
7485.38
7128.06
6615.79
6049.79
5490.16
4966.08
4496.44
4094.71
3756.79
3355.47
11373.8
12763.2
3704.63
4124.44
4489.9
4926.83
5437.77
6008.34
6617.39
7234.3
7795.2
8190.84
8356.17
8384.87
8386.29
8386.3
8386.3
8386.3
8386.3
8386.3
8386.3
8386.3
8386.3
8386.3
8386.3
8386.3
8386.3
8386.29
8384.87
8356.17
8190.84
7795.21
7234.35
6617.52
6008.59
5438.18
4927.47
4490.73
4125.29
3705.3
12763.8
13916.6
4003.77
4459.85
4853.82
5326.98
5880.46
6497.58
7155.89
7822.96
8431.04
8862.84
9045.64
9078.01
9079.66
9079.67
9079.67
9079.67
9079.67
9079.67
9079.67
9079.67
9079.67
9079.67
9079.67
9079.67
9079.67
9079.66
9078.01
9045.64
8862.85
8431.11
7823.18
7156.34
6498.28
5881.45
5328.4
4855.73
4461.89
4005.45
13917
14572.3
4195.29
4703.25
5122.35
5627.83
6218.31
6876.18
7577.28
8287.36
8934.9
9395.87
9592.17
9627.26
9629.07
9629.09
9629.09
9629.09
9629.09
9629.09
9629.09
9629.09
9629.09
9629.09
9629.09
9629.09
9629.09
9629.07
9627.26
9592.17
9395.91
8935.07
8287.84
7578.13
6877.25
6219.27
5628.31
5121.94
4702.11
4192.91
14559
14780.7
4268.27
4814.42
5251.18
5776.7
6388.45
7070.02
7796.03
8530.9
9200.78
9677.9
9881.42
9917.91
9919.8
9919.82
9919.82
9919.82
9919.82
9919.82
9919.82
9919.82
9919.82
9919.82
9919.82
9919.82
9919.82
9919.8
9917.91
9881.43
9677.98
9200.84
8530.61
7794.91
7067.48
6383.77
5769.11
5241.13
4804.69
4258.44
14736.8
14972.2
4313.92
4853.83
5287.73
5813.8
6429.71
7117.27
7850.53
8592.52
9268.31
9749.61
9954.91
9991.74
9993.65
9993.67
9993.67
9993.67
9993.67
9993.67
9993.67
9993.67
9993.67
9993.67
9993.67
9993.67
9993.67
9993.65
9991.75
9954.92
9749.54
9267.84
8590.87
7847.29
7111.72
6420.18
5798.54
5264.3
4823.1
4267.66
14753.9
15235.7
4385.6
4934.69
5357.2
5867.56
6466.8
7140.69
7864.11
8600.76
9274.91
9755.77
9961.1
9997.95
9999.86
9999.88
9999.88
9999.88
9999.88
9999.88
9999.88
9999.88
9999.88
9999.88
9999.88
9999.88
9999.88
9999.86
9997.95
9961.09
9755.54
9273.4
8595.76
7851.39
7115
6422.71
5800.43
5265.64
4824.05
4268.03
14754.3
15459.7
4448.11
5044.26
5450.96
5942.43
6522
7178.52
7887.79
8613.47
9279.96
9757.04
9961.31
9998.07
9999.98
10000
10000
10000
10000
10000
10000
10000
10000
10000
10000
10000
10000
9999.98
9998.07
9961.21
9755.65
9273.51
8595.85
7851.46
7115.05
6422.74
5800.45
5265.66
4824.06
4268.03
14754.3
15530.2
4485.81
5174.58
5568.1
6036.65
6593.48
7229.32
7921.14
8632.78
9288.88
9759.73
9961.7
9998.09
9999.98
10000
10000
10000
10000
10000
10000
10000
10000
10000
10000
10000
10000
9999.98
9998.07
9961.21
9755.65
9273.51
8595.85
7851.46
7115.05
6422.74
5800.45
5265.66
4824.06
4268.03
14754.3
15483.4
4530.2
5304.81
5703.84
6145.2
6674.77
7288.82
7962.15
8658.43
9302
9764.26
9962.46
9998.13
9999.98
10000
10000
10000
10000
10000
10000
10000
10000
10000
10000
10000
10000
9999.98
9998.07
9961.21
9755.65
9273.51
8595.85
7851.46
7115.05
6422.74
5800.45
5265.66
4824.06
4268.03
14754.3
14668.4
4596.53
5459.36
5854.76
6266.16
6758.87
7349.79
8004.62
8686.56
9317.68
9770.25
9963.59
9998.2
9999.98
10000
10000
10000
10000
10000
10000
10000
10000
10000
10000
10000
10000
9999.98
9998.07
9961.21
9755.65
9273.51
8595.85
7851.46
7115.05
6422.74
5800.45
5265.66
4824.06
4268.03
14754.3
13167.6
4731.91
5665.7
6028.4
6391.07
6835.23
7403.82
8041.98
8712.49
9333.24
9776.68
9964.87
9998.28
9999.98
10000
10000
10000
10000
10000
10000
10000
10000
10000
10000
10000
10000
9999.98
9998.07
9961.21
9755.65
9273.51
8595.85
7851.46
7115.05
6422.74
5800.45
5265.66
4824.06
4268.03
14754.3
11952.2
5323.52
6055.24
6267.44
6517.37
6904.2
7440.11
8065.62
8730.38
9345.34
9782.21
9966.06
9998.35
9999.98
10000
10000
10000
10000
10000
10000
10000
10000
10000
10000
10000
10000
9999.98
9998.07
9961.21
9755.65
9273.51
8595.85
7851.46
7115.05
6422.74
5800.45
5265.66
4824.06
4268.03
14754.3
)
;

boundaryField
{
    inlet
    {
        type            fixedValue;
        value           uniform 10000;
    }
    outlet
    {
        type            fixedValue;
        value           uniform 1000;
    }
    obstacle
    {
        type            zeroGradient;
    }
    empty
    {
        type            empty;
    }
}


// ************************************************************************* //
