/*--------------------------------*- C++ -*----------------------------------*\
| =========                 |                                                 |
| \\      /  F ield         | OpenFOAM: The Open Source CFD Toolbox           |
|  \\    /   O peration     | Version:  v1912                                 |
|   \\  /    A nd           | Website:  www.openfoam.com                      |
|    \\/     M anipulation  |                                                 |
\*---------------------------------------------------------------------------*/
FoamFile
{
    version     2.0;
    format      ascii;
    class       volScalarField;
    location    "3";
    object      T;
}
// * * * * * * * * * * * * * * * * * * * * * * * * * * * * * * * * * * * * * //

dimensions      [0 0 0 1 0 0 0];


internalField   nonuniform List<scalar> 
1900
(
1.13895
1.02143
1.02668
1.03257
1.03535
1.0371
1.03881
1.04134
1.04475
1.04895
1.13895
1.02142
1.02668
1.03258
1.03536
1.03709
1.0387
1.04074
1.0432
1.0474
1.13895
1.02142
1.02668
1.03257
1.03535
1.03706
1.03866
1.04074
1.04347
1.04717
1.13895
1.02142
1.02668
1.03258
1.03536
1.03709
1.0387
1.04074
1.0432
1.0474
1.13895
1.02143
1.02668
1.03257
1.03535
1.0371
1.03881
1.04134
1.04475
1.04895
1.04714
1.04997
1.04979
1.03519
0.976402
1.05044
1.05273
1.05064
1.04097
1.00311
1.04987
1.05161
1.04832
1.0347
0.99559
1.05044
1.05273
1.05064
1.04097
1.00311
1.04714
1.04997
1.04979
1.03519
0.976402
1.02367
0.984963
0.963826
0.93979
0.902432
1.01739
0.983593
0.964424
0.945154
0.921358
1.01567
0.983427
0.963249
0.944971
0.925092
1.01739
0.983593
0.964424
0.945154
0.921358
1.02367
0.984963
0.963826
0.93979
0.902432
0.806879
0.731126
0.790557
0.80789
0.793832
0.783949
0.782221
0.783644
0.786012
0.790221
0.795886
0.802818
0.810808
0.819483
0.828171
0.836008
0.842221
0.846548
0.848874
0.850127
0.849885
0.848105
0.845217
0.840214
0.833178
0.824274
0.814135
0.803479
0.792877
0.782684
0.773073
0.76409
0.755659
0.747642
0.739893
0.733216
0.728759
0.725234
0.664622
0.566955
0.896239
0.766579
0.803576
0.810989
0.795448
0.784366
0.782491
0.783856
0.786208
0.790374
0.796035
0.802962
0.810948
0.819619
0.828301
0.836131
0.842339
0.846662
0.848985
0.850236
0.849995
0.848216
0.845331
0.840331
0.833299
0.824398
0.814263
0.803608
0.793008
0.782815
0.773205
0.764224
0.755796
0.74778
0.74003
0.733354
0.728876
0.725381
0.664892
0.5676
0.895153
0.790681
0.812607
0.813249
0.796325
0.784597
0.782636
0.783979
0.786311
0.79046
0.796114
0.803035
0.811016
0.819682
0.828359
0.836185
0.84239
0.84671
0.849032
0.850282
0.850041
0.848263
0.845379
0.840381
0.833352
0.824455
0.814324
0.803673
0.793077
0.78289
0.773285
0.764312
0.755893
0.747886
0.740144
0.73348
0.729003
0.725533
0.665251
0.569415
0.896239
0.766579
0.803576
0.810989
0.795448
0.784366
0.782491
0.783856
0.786208
0.790374
0.796035
0.802962
0.810948
0.819619
0.828301
0.836131
0.842339
0.846662
0.848985
0.850236
0.849995
0.848216
0.845331
0.840331
0.833299
0.824398
0.814263
0.803608
0.793008
0.782815
0.773205
0.764224
0.755796
0.74778
0.74003
0.733354
0.728876
0.725381
0.664892
0.5676
0.806879
0.731126
0.790557
0.80789
0.793832
0.783949
0.782221
0.783644
0.786012
0.790221
0.795886
0.802818
0.810808
0.819483
0.828171
0.836008
0.842221
0.846548
0.848874
0.850127
0.849885
0.848105
0.845217
0.840214
0.833178
0.824274
0.814135
0.803479
0.792877
0.782684
0.773073
0.76409
0.755659
0.747642
0.739893
0.733216
0.728759
0.725234
0.664622
0.566955
0.615055
0.683738
0.778594
0.795026
0.787609
0.781484
0.780631
0.78232
0.784914
0.789313
0.795021
0.801989
0.810006
0.818713
0.827434
0.835302
0.841543
0.845892
0.848231
0.849494
0.849253
0.847463
0.844564
0.839543
0.832487
0.823564
0.81341
0.802741
0.79213
0.781928
0.772305
0.76331
0.75486
0.746841
0.739102
0.732421
0.728012
0.724498
0.664808
0.564373
0.536873
0.683692
0.765608
0.774003
0.775219
0.774384
0.775517
0.777956
0.781466
0.786195
0.792081
0.799172
0.807304
0.81613
0.824971
0.832953
0.839292
0.84372
0.846109
0.847407
0.847165
0.845343
0.8424
0.837311
0.830178
0.821173
0.810939
0.800198
0.789516
0.779236
0.76952
0.76041
0.751833
0.743677
0.735877
0.729047
0.724565
0.720926
0.661716
0.558416
0.524832
0.681942
0.748578
0.757312
0.762154
0.764877
0.767924
0.771455
0.775611
0.780835
0.786988
0.794275
0.802584
0.81159
0.82061
0.82876
0.835247
0.839792
0.842255
0.843604
0.843359
0.841487
0.838475
0.833288
0.826041
0.816916
0.806572
0.795729
0.784952
0.77456
0.764714
0.755444
0.746699
0.738349
0.730479
0.723407
0.718735
0.714933
0.656722
0.550369
0.530145
0.673432
0.733341
0.742659
0.748669
0.753637
0.757991
0.762534
0.767362
0.772995
0.779455
0.786976
0.795512
0.804731
0.813972
0.822333
0.829007
0.833702
0.83626
0.837674
0.837425
0.835488
0.832388
0.827075
0.819681
0.81041
0.799927
0.788971
0.77807
0.76756
0.757559
0.748103
0.739201
0.730657
0.722733
0.715411
0.710469
0.706565
0.650401
0.541818
0.518747
0.662478
0.718599
0.72777
0.734859
0.741216
0.746502
0.751764
0.757093
0.763036
0.76977
0.77753
0.786273
0.795707
0.805149
0.813722
0.820588
0.825441
0.828103
0.829587
0.829331
0.827325
0.824128
0.818681
0.811141
0.801721
0.791129
0.780065
0.769108
0.758487
0.748395
0.738822
0.729842
0.721216
0.713314
0.705843
0.700564
0.696581
0.642941
0.533293
0.513807
0.651289
0.704457
0.713624
0.721379
0.728373
0.734288
0.739985
0.745618
0.751793
0.758764
0.766711
0.775658
0.785228
0.794842
0.803577
0.810611
0.815607
0.818365
0.81992
0.819659
0.817587
0.814305
0.808745
0.801081
0.791571
0.7809
0.769853
0.758852
0.748271
0.738155
0.728547
0.719632
0.711048
0.703217
0.695696
0.69001
0.685673
0.634665
0.524629
0.508606
0.640316
0.691259
0.700233
0.708496
0.715789
0.722029
0.727919
0.733721
0.740072
0.747241
0.75541
0.764456
0.774175
0.783868
0.792739
0.799899
0.805016
0.807856
0.809478
0.809218
0.807092
0.803748
0.798103
0.790368
0.78079
0.77016
0.759104
0.748251
0.737668
0.727641
0.718097
0.709273
0.700796
0.693075
0.685517
0.679399
0.674812
0.626286
0.516538
0.501995
0.629634
0.678812
0.687455
0.696093
0.703549
0.709973
0.715908
0.721833
0.728387
0.735793
0.744101
0.753344
0.763091
0.772903
0.781853
0.789135
0.794355
0.79727
0.798963
0.79871
0.79654
0.79315
0.787447
0.779641
0.770069
0.759418
0.748525
0.737671
0.727255
0.717286
0.707742
0.699086
0.6907
0.683008
0.675342
0.668858
0.664082
0.617719
0.5083
0.496771
0.620119
0.667457
0.675632
0.684431
0.691916
0.698389
0.704256
0.710291
0.716999
0.72464
0.733175
0.742476
0.752367
0.762209
0.771286
0.778677
0.784013
0.787006
0.788779
0.788541
0.786327
0.782897
0.777123
0.769268
0.759633
0.749071
0.738166
0.72751
0.717106
0.707218
0.697791
0.689198
0.680911
0.673287
0.665519
0.658721
0.653829
0.609844
0.500836
0.491398
0.610615
0.656348
0.664107
0.672825
0.680325
0.686872
0.692769
0.698944
0.705983
0.713817
0.722581
0.732051
0.741999
0.751958
0.761135
0.768674
0.774141
0.777229
0.7791
0.778883
0.776617
0.773135
0.767278
0.759321
0.749654
0.739056
0.728252
0.71761
0.707248
0.697485
0.687943
0.679498
0.671221
0.663552
0.655613
0.648521
0.643503
0.601375
0.493263
0.486451
0.602255
0.646229
0.653727
0.662101
0.669611
0.676188
0.682085
0.688456
0.695532
0.70368
0.712518
0.72213
0.732128
0.742161
0.751458
0.759155
0.764779
0.767984
0.76997
0.76978
0.767451
0.763901
0.757932
0.74986
0.740123
0.729533
0.718787
0.708195
0.697967
0.688212
0.678843
0.670426
0.66223
0.654581
0.646514
0.639164
0.634035
0.594241
0.486572
0.481266
0.593852
0.636203
0.643484
0.651361
0.658923
0.665521
0.67155
0.678117
0.685481
0.693801
0.702899
0.712574
0.72268
0.732775
0.742221
0.750102
0.755913
0.759254
0.761375
0.761215
0.758809
0.755175
0.749064
0.74085
0.731008
0.72043
0.709672
0.699203
0.688885
0.679284
0.669846
0.661538
0.653329
0.645616
0.637335
0.629721
0.624497
0.586395
0.480034
0.476468
0.586253
0.62676
0.633856
0.641588
0.649272
0.655891
0.662104
0.668933
0.67645
0.684962
0.694119
0.703813
0.713875
0.723958
0.733456
0.741479
0.747465
0.750951
0.753222
0.753095
0.7506
0.746875
0.740633
0.732315
0.722462
0.71195
0.701326
0.690969
0.680772
0.671244
0.661895
0.653569
0.645348
0.637533
0.629062
0.621157
0.615788
0.579844
0.474434
0.471712
0.578898
0.617592
0.624361
0.631915
0.639739
0.646348
0.652797
0.659872
0.667583
0.676297
0.685505
0.695268
0.705296
0.7154
0.724986
0.733198
0.739388
0.743026
0.745448
0.745355
0.742767
0.738944
0.732544
0.72408
0.714185
0.70372
0.693205
0.682941
0.672809
0.663365
0.653996
0.645671
0.637385
0.62941
0.620696
0.612524
0.607081
0.572896
0.469039
0.467921
0.571767
0.608403
0.614778
0.622356
0.630276
0.637109
0.643846
0.651292
0.659259
0.668262
0.67757
0.687453
0.697498
0.707626
0.717243
0.725528
0.731797
0.735506
0.738038
0.737976
0.735329
0.731485
0.725047
0.716555
0.70667
0.696253
0.685768
0.675536
0.665378
0.655929
0.646483
0.638066
0.629614
0.621405
0.612478
0.604082
0.598589
0.566494
0.464812
0.463946
0.56489
0.599052
0.604842
0.612298
0.620266
0.627282
0.634482
0.642418
0.650739
0.660175
0.669731
0.679857
0.690061
0.700331
0.71018
0.718757
0.725321
0.729217
0.731902
0.731867
0.729112
0.725127
0.718441
0.709709
0.699643
0.689152
0.678559
0.668229
0.657875
0.648267
0.638596
0.629958
0.621216
0.612771
0.603687
0.595166
0.589767
0.559751
0.460156
0.462913
0.558415
0.590023
0.594838
0.602315
0.610475
0.618052
0.625845
0.634351
0.64319
0.653067
0.663085
0.673691
0.684427
0.695198
0.705389
0.714287
0.721126
0.725163
0.727898
0.727882
0.72511
0.721023
0.714102
0.705097
0.694741
0.683813
0.672744
0.662034
0.651342
0.641472
0.631522
0.622558
0.613512
0.604805
0.595565
0.586944
0.582055
0.554391
0.459716
0.468677
0.556633
0.586574
0.589366
0.596493
0.604695
0.612554
0.620674
0.629376
0.638506
0.648438
0.658659
0.66941
0.680428
0.691413
0.701625
0.710525
0.717406
0.721517
0.72446
0.724455
0.721489
0.717343
0.710392
0.701393
0.691028
0.679942
0.668642
0.65781
0.647014
0.637071
0.627047
0.617956
0.608847
0.600085
0.590917
0.582783
0.579679
0.552938
0.465236
0.455163
0.531733
0.560316
0.56159
0.565945
0.571937
0.577551
0.584063
0.590441
0.597984
0.60542
0.613708
0.621998
0.630579
0.638716
0.646068
0.652336
0.65742
0.660665
0.664561
0.664573
0.660678
0.657423
0.652301
0.645968
0.638508
0.63028
0.62145
0.613084
0.60425
0.596756
0.588478
0.581691
0.574379
0.567793
0.560736
0.555009
0.553107
0.52588
0.445019
0.389446
0.446771
0.467082
0.461282
0.4613
0.46591
0.470046
0.475615
0.481371
0.488206
0.495134
0.503035
0.510818
0.519349
0.527687
0.536513
0.545071
0.55336
0.559953
0.56561
0.565613
0.559958
0.553367
0.545081
0.536524
0.527695
0.519356
0.510809
0.503019
0.495072
0.488115
0.481213
0.475359
0.469679
0.465315
0.460533
0.459682
0.465264
0.445778
0.387998
0.389446
0.446771
0.467082
0.461282
0.4613
0.46591
0.470046
0.475615
0.481371
0.488206
0.495134
0.503035
0.510818
0.519349
0.527687
0.536513
0.545071
0.55336
0.559953
0.56561
0.565613
0.559958
0.553367
0.545081
0.536524
0.527695
0.519356
0.510809
0.503019
0.495072
0.488115
0.481213
0.475359
0.469679
0.465315
0.460533
0.459682
0.465264
0.445778
0.387998
0.455163
0.531733
0.560316
0.56159
0.565945
0.571937
0.577551
0.584063
0.590441
0.597984
0.60542
0.613708
0.621998
0.630579
0.638716
0.646068
0.652336
0.65742
0.660665
0.664561
0.664573
0.660678
0.657423
0.652301
0.645968
0.638508
0.63028
0.62145
0.613084
0.60425
0.596756
0.588478
0.581691
0.574379
0.567793
0.560736
0.555009
0.553107
0.52588
0.445019
0.468677
0.556633
0.586574
0.589366
0.596493
0.604695
0.612554
0.620674
0.629376
0.638506
0.648438
0.658659
0.66941
0.680428
0.691413
0.701625
0.710525
0.717406
0.721517
0.72446
0.724455
0.721489
0.717343
0.710392
0.701393
0.691028
0.679942
0.668642
0.65781
0.647014
0.637071
0.627047
0.617956
0.608847
0.600085
0.590917
0.582783
0.579679
0.552938
0.465236
0.462913
0.558415
0.590023
0.594838
0.602315
0.610475
0.618052
0.625845
0.634351
0.64319
0.653067
0.663085
0.673691
0.684427
0.695198
0.705389
0.714287
0.721126
0.725163
0.727898
0.727882
0.72511
0.721023
0.714102
0.705097
0.694741
0.683813
0.672744
0.662034
0.651342
0.641472
0.631522
0.622558
0.613512
0.604805
0.595565
0.586944
0.582055
0.554391
0.459716
0.463946
0.56489
0.599052
0.604842
0.612298
0.620266
0.627282
0.634482
0.642418
0.650739
0.660175
0.669731
0.679857
0.690061
0.700331
0.71018
0.718757
0.725321
0.729217
0.731902
0.731867
0.729112
0.725127
0.718441
0.709709
0.699643
0.689152
0.678559
0.668229
0.657875
0.648267
0.638596
0.629958
0.621216
0.612771
0.603687
0.595166
0.589767
0.559751
0.460156
0.467921
0.571767
0.608403
0.614778
0.622356
0.630276
0.637109
0.643846
0.651292
0.659259
0.668262
0.67757
0.687453
0.697498
0.707626
0.717243
0.725528
0.731797
0.735506
0.738038
0.737976
0.735329
0.731485
0.725047
0.716555
0.70667
0.696253
0.685768
0.675536
0.665378
0.655929
0.646483
0.638066
0.629614
0.621405
0.612478
0.604082
0.598589
0.566494
0.464812
0.471712
0.578898
0.617592
0.624361
0.631915
0.639739
0.646348
0.652797
0.659872
0.667583
0.676297
0.685505
0.695268
0.705296
0.7154
0.724986
0.733198
0.739388
0.743026
0.745448
0.745355
0.742767
0.738944
0.732544
0.72408
0.714185
0.70372
0.693205
0.682941
0.672809
0.663365
0.653996
0.645671
0.637385
0.62941
0.620696
0.612524
0.607081
0.572896
0.469039
0.476468
0.586253
0.62676
0.633856
0.641588
0.649272
0.655891
0.662104
0.668933
0.67645
0.684962
0.694119
0.703813
0.713875
0.723958
0.733456
0.741479
0.747465
0.750951
0.753222
0.753095
0.7506
0.746875
0.740633
0.732315
0.722462
0.71195
0.701326
0.690969
0.680772
0.671244
0.661895
0.653569
0.645348
0.637533
0.629062
0.621157
0.615788
0.579844
0.474434
0.481266
0.593852
0.636203
0.643484
0.651361
0.658923
0.665521
0.67155
0.678117
0.685481
0.693801
0.702899
0.712574
0.72268
0.732775
0.742221
0.750102
0.755913
0.759254
0.761375
0.761215
0.758809
0.755175
0.749064
0.74085
0.731008
0.72043
0.709672
0.699203
0.688885
0.679284
0.669846
0.661538
0.653329
0.645616
0.637335
0.629721
0.624497
0.586395
0.480034
0.486451
0.602255
0.646229
0.653727
0.662101
0.669611
0.676188
0.682085
0.688456
0.695532
0.70368
0.712518
0.72213
0.732128
0.742161
0.751458
0.759155
0.764779
0.767984
0.76997
0.76978
0.767451
0.763901
0.757932
0.74986
0.740123
0.729533
0.718787
0.708195
0.697967
0.688212
0.678843
0.670426
0.66223
0.654581
0.646514
0.639164
0.634035
0.594241
0.486572
0.491398
0.610615
0.656348
0.664107
0.672825
0.680325
0.686872
0.692769
0.698944
0.705983
0.713817
0.722581
0.732051
0.741999
0.751958
0.761135
0.768674
0.774141
0.777229
0.7791
0.778883
0.776617
0.773135
0.767278
0.759321
0.749654
0.739056
0.728252
0.71761
0.707248
0.697485
0.687943
0.679498
0.671221
0.663552
0.655613
0.648521
0.643503
0.601375
0.493263
0.496771
0.620119
0.667457
0.675632
0.684431
0.691916
0.698389
0.704256
0.710291
0.716999
0.72464
0.733175
0.742476
0.752367
0.762209
0.771286
0.778677
0.784013
0.787006
0.788779
0.788541
0.786327
0.782897
0.777123
0.769268
0.759633
0.749071
0.738166
0.72751
0.717106
0.707218
0.697791
0.689198
0.680911
0.673287
0.665519
0.658721
0.653829
0.609844
0.500836
0.501995
0.629634
0.678812
0.687455
0.696093
0.703549
0.709973
0.715908
0.721833
0.728387
0.735793
0.744101
0.753344
0.763091
0.772903
0.781853
0.789135
0.794355
0.79727
0.798963
0.79871
0.79654
0.79315
0.787447
0.779641
0.770069
0.759418
0.748525
0.737671
0.727255
0.717286
0.707742
0.699086
0.6907
0.683008
0.675342
0.668858
0.664082
0.617719
0.5083
0.508606
0.640316
0.691259
0.700233
0.708496
0.715789
0.722029
0.727919
0.733721
0.740072
0.747241
0.75541
0.764456
0.774175
0.783868
0.792739
0.799899
0.805016
0.807856
0.809478
0.809218
0.807092
0.803748
0.798103
0.790368
0.78079
0.77016
0.759104
0.748251
0.737668
0.727641
0.718097
0.709273
0.700796
0.693075
0.685517
0.679399
0.674812
0.626286
0.516538
0.513807
0.651289
0.704457
0.713624
0.721379
0.728373
0.734288
0.739985
0.745618
0.751793
0.758764
0.766711
0.775658
0.785228
0.794842
0.803577
0.810611
0.815607
0.818365
0.81992
0.819659
0.817587
0.814305
0.808745
0.801081
0.791571
0.7809
0.769853
0.758852
0.748271
0.738155
0.728547
0.719632
0.711048
0.703217
0.695696
0.69001
0.685673
0.634665
0.524629
0.518747
0.662478
0.718599
0.72777
0.734859
0.741216
0.746502
0.751764
0.757093
0.763036
0.76977
0.77753
0.786273
0.795707
0.805149
0.813722
0.820588
0.825441
0.828103
0.829587
0.829331
0.827325
0.824128
0.818681
0.811141
0.801721
0.791129
0.780065
0.769108
0.758487
0.748395
0.738822
0.729842
0.721216
0.713314
0.705843
0.700564
0.696581
0.642941
0.533293
0.530145
0.673432
0.733341
0.742659
0.748669
0.753637
0.757991
0.762534
0.767362
0.772995
0.779455
0.786976
0.795512
0.804731
0.813972
0.822333
0.829007
0.833702
0.83626
0.837674
0.837425
0.835488
0.832388
0.827075
0.819681
0.81041
0.799927
0.788971
0.77807
0.76756
0.757559
0.748103
0.739201
0.730657
0.722733
0.715411
0.710469
0.706565
0.650401
0.541818
0.524832
0.681942
0.748578
0.757312
0.762154
0.764877
0.767924
0.771455
0.775611
0.780835
0.786988
0.794275
0.802584
0.81159
0.82061
0.82876
0.835247
0.839792
0.842255
0.843604
0.843359
0.841487
0.838475
0.833288
0.826041
0.816916
0.806572
0.795729
0.784952
0.77456
0.764714
0.755444
0.746699
0.738349
0.730479
0.723407
0.718735
0.714933
0.656722
0.550369
0.536873
0.683692
0.765608
0.774003
0.775219
0.774384
0.775517
0.777956
0.781466
0.786195
0.792081
0.799172
0.807304
0.81613
0.824971
0.832953
0.839292
0.84372
0.846109
0.847407
0.847165
0.845343
0.8424
0.837311
0.830178
0.821173
0.810939
0.800198
0.789516
0.779236
0.76952
0.76041
0.751833
0.743677
0.735877
0.729047
0.724565
0.720926
0.661716
0.558416
0.615055
0.683738
0.778594
0.795026
0.787609
0.781484
0.780631
0.78232
0.784914
0.789313
0.795021
0.801989
0.810006
0.818713
0.827434
0.835302
0.841543
0.845892
0.848231
0.849494
0.849253
0.847463
0.844564
0.839543
0.832487
0.823564
0.81341
0.802741
0.79213
0.781928
0.772305
0.76331
0.75486
0.746841
0.739102
0.732421
0.728012
0.724498
0.664808
0.564373
)
;

boundaryField
{
    inlet
    {
        type            fixedValue;
        value           uniform 1;
    }
    outlet
    {
        type            zeroGradient;
    }
    obstacle
    {
        type            zeroGradient;
    }
    empty
    {
        type            empty;
    }
}


// ************************************************************************* //
