/*--------------------------------*- C++ -*----------------------------------*\
| =========                 |                                                 |
| \\      /  F ield         | OpenFOAM: The Open Source CFD Toolbox           |
|  \\    /   O peration     | Version:  v1912                                 |
|   \\  /    A nd           | Website:  www.openfoam.com                      |
|    \\/     M anipulation  |                                                 |
\*---------------------------------------------------------------------------*/
FoamFile
{
    version     2.0;
    format      ascii;
    class       volScalarField;
    location    "2.38";
    object      p;
}
// * * * * * * * * * * * * * * * * * * * * * * * * * * * * * * * * * * * * * //

dimensions      [1 -1 -2 0 0 0 0];


internalField   nonuniform List<scalar> 
1900
(
14412.8
10898.7
10767.7
10807.5
10856.2
10913.1
10977
11048.2
11105.9
11189.5
14412.8
10898.8
10767.9
10807.7
10856.1
10912.5
10974.7
11037.2
11088.8
11161.9
14412.8
10898.8
10768
10807.5
10855.4
10911.6
10975
11040.7
11099.7
11152.3
14412.8
10898.8
10767.9
10807.7
10856.1
10912.5
10974.7
11037.2
11088.8
11161.9
14412.8
10898.7
10767.7
10807.5
10856.2
10913.1
10977
11048.2
11105.9
11189.5
11106.4
11176.5
11179.6
11015
9871.94
11202.6
11271.9
11249.1
11206.2
10685.8
11182.2
11232
11190.3
11086
10526
11202.6
11271.9
11249.1
11206.2
10685.8
11106.4
11176.5
11179.6
11015
9871.94
12415.9
12574.2
12938.7
13035.6
13151.5
12233.5
12537.6
12930.4
13202.4
13106.8
12224.2
12545.4
12916.9
13072.4
12565.2
12233.5
12537.6
12930.4
13202.4
13106.8
12415.9
12574.2
12938.7
13035.6
13151.5
10618.2
4945.89
5333.04
5556.31
5489.95
5514.23
5611.23
5755.71
5945.31
6179.92
6465.97
6796.12
7164.94
7563.94
7985.36
8421.14
8859.54
9276.24
9615.59
9806.5
9802.28
9597.61
9245.93
8817.54
8367.16
7917.4
7477.79
7053.11
6646.27
6259.35
5894.42
5554.35
5243.03
4963.51
4714.54
4488.24
4282.49
4118.37
3745.71
19450.9
10977.8
5291.2
5539.94
5592.76
5514.3
5530.59
5623.72
5771.97
5962.39
6197.98
6485.69
6817.54
7188.4
7589.82
8014.12
8452.76
8893.9
9313.05
9654.39
9846.37
9842.19
9636.59
9283.35
8853.06
8400.63
7948.74
7506.93
7080
6670.83
6281.5
5914.09
5571.47
5257.58
4975.49
4724.06
4495.38
4288.04
4121.8
3747.51
19450.2
10393.6
5721.17
5669.75
5628.12
5524.57
5536.43
5627.75
5777.15
5967.99
6204.06
6492.42
6824.89
7196.5
7598.85
8024.24
8463.95
8906.09
9326.16
9668.24
9860.61
9856.44
9650.48
9296.67
8865.69
8412.52
7959.86
7517.22
7089.4
6679.28
6288.93
5920.41
5576.65
5261.61
4978.44
4726.09
4496.68
4288.95
4122.38
3747.93
19448.4
10977.8
5291.2
5539.94
5592.76
5514.3
5530.59
5623.72
5771.97
5962.39
6197.98
6485.69
6817.54
7188.4
7589.82
8014.12
8452.76
8893.9
9313.05
9654.39
9846.37
9842.19
9636.59
9283.35
8853.06
8400.63
7948.74
7506.93
7080
6670.83
6281.5
5914.09
5571.47
5257.58
4975.49
4724.06
4495.38
4288.04
4121.8
3747.51
19450.2
10618.2
4945.89
5333.04
5556.31
5489.95
5514.23
5611.23
5755.71
5945.31
6179.92
6465.97
6796.12
7164.94
7563.94
7985.36
8421.14
8859.54
9276.24
9615.59
9806.5
9802.28
9597.61
9245.93
8817.54
8367.16
7917.4
7477.79
7053.11
6646.27
6259.35
5894.42
5554.35
5243.03
4963.51
4714.54
4488.24
4282.49
4118.37
3745.71
19450.9
12302.3
4323.86
5077.13
5354.3
5392.81
5442.57
5546.13
5683.32
5869.65
6100.29
6380.85
6705.36
7067.54
7459.13
7872.57
8300.07
8730.22
9139.26
9472.54
9660.32
9656.31
9455.24
9109.4
8688.12
8245.38
7803.49
7371.82
6955.05
6556.01
6176.71
5819.16
5486.15
5181.51
4908.25
4665.03
4444.26
4243.21
4085.98
3720.49
19416.9
13632.2
3925.88
4743.82
4998.86
5165.98
5271.56
5389.6
5527.26
5707.46
5932.98
6205
6519.49
6869.54
7247.67
7646.88
8059.74
8475.38
8870.96
9193.6
9375.9
9372.46
9178.43
8843.94
8436.36
8008.26
7581.36
7164.73
6762.88
6378.48
6013.43
5669.63
5349.75
5057.47
4795.72
4562.97
4351.98
4160.41
4014.83
3662.01
19292.4
15020.9
3767.36
4435.29
4698.87
4894.77
5017.23
5141.24
5282.66
5457.9
5677.03
5939.39
6241.42
6576.47
6937.77
7318.97
7713.16
8110.03
8487.74
8795.82
8970.3
8967.6
8783.37
8464.37
8075.05
7666.01
7258.21
6860.4
6476.91
6110.31
5762.42
5435.05
5130.76
4853.05
4604.68
4384.12
4184.55
4006.62
3874.23
3538.67
18854.1
16274.3
3638.69
4166.7
4405.7
4574.89
4723.66
4853.73
5000.17
5174.42
5390.13
5645.84
5937.47
6259.06
6604.59
6968.41
7344.2
7722.24
8081.8
8374.79
8540.72
8538.72
8365.08
8062.38
7691.91
7302.21
6913.52
6534.31
6168.79
5819.42
5487.97
5176.17
4886.45
4622.07
4385.59
4175.92
3986.71
3822.65
3698.14
3376.6
18029.1
15891.7
3437.53
3897.14
4103.16
4272.54
4421.43
4553.77
4703.5
4880.21
5093.89
5343.56
5625.27
5933.72
6263.74
6610.36
6967.86
7327.18
7668.61
7946.35
8103.26
8101.91
7939.31
7653.35
7301.97
6931.66
6562
6201.22
5853.41
5520.98
5205.6
4908.96
4633.25
4381.56
4156.22
3957.2
3778.43
3626.71
3504.7
3195.14
16914.8
15642.5
3219.1
3634.23
3825.99
3987.84
4125.74
4258.59
4410.49
4589.08
4800.87
5044.61
5316.54
5612.15
5927.06
6256.97
6596.8
6938.07
7261.93
7524.6
7672.14
7671.34
7519.93
7250.68
6918.14
6566.82
6215.7
5872.84
5542.21
5226.16
4926.36
4644.27
4382.03
4142.37
3927.63
3739.35
3570.96
3428.89
3305.48
3007.97
15655.7
14590.4
3009.97
3386.74
3564.94
3717.02
3844.28
3975.96
4128.57
4307.55
4516.84
4754.07
5016.21
5299.16
5599.44
5913.39
6236.47
6560.65
6867.67
7115.52
7253.41
7253.01
7112.76
6860
6545.86
6212.94
5879.74
5554.14
5240.05
4939.82
4654.88
4386.93
4137.3
3909.33
3704.7
3527.17
3368.59
3233.59
3106.92
2822.95
14370.6
13665.1
2813.68
3153.12
3318.94
3462.24
3580.3
3709.29
3860.75
4039.15
4244.42
4475.08
4727.03
4997.73
5284
5582.93
5890.31
6198.36
6489.24
6722.49
6850.46
6850.34
6721.11
6484.5
6188.19
5872.97
5556.94
5247.87
4949.66
4664.42
4394.03
4138.99
3902.07
3684.69
3489.99
3322.93
3173.1
3043.34
2913.24
2644.16
13076.3
12607.3
2624.66
2932.79
3089.5
3223.72
3333.99
3459.45
3608.87
3784.5
3986.31
4208.73
4451.23
4709.82
4983.01
5267.86
5560.55
5853.36
6128.67
6347.48
6465.37
6465.39
6346.98
6126.11
5846.97
5548.69
5249.03
4955.73
4672.51
4401.92
4144.51
3903.23
3676.48
3470.95
3284.8
3127.72
2985.57
2860.09
2727.65
2474.49
11866.5
11481.8
2447.57
2726.23
2874.79
2999.88
3103.92
3226.23
3372.04
3546.62
3741.26
3957.82
4189.6
4437.47
4698.19
4970.01
5248.9
5527.23
5787.47
5991.98
6099.76
6099.84
5991.96
5786.36
5523.68
5241.5
4957.37
4678.91
4410.13
4152.56
3909.11
3677.9
3464.43
3267.14
3090.27
2942.27
2806.23
2684.38
2551.16
2314.31
10661.2
10395.4
2285.16
2537.05
2675.82
2790.8
2889.67
3010.24
3153.54
3323.16
3514.66
3721.13
3945.16
4181.9
4431.6
4691.21
4957.2
5221.75
5467.41
5657.83
5755.63
5755.71
5658.01
5467.13
5220.11
4953.11
4683.5
4419.04
4163.21
3919.07
3685.86
3468.78
3262.56
3077.45
2908.4
2767.26
2637.76
2519.58
2387.94
2167.1
9578.59
9257.01
2129.19
2356
2483.73
2592.7
2690.63
2810.57
2951.71
3118.76
3301.74
3503.67
3717.76
3946.05
4185.2
4433.83
4687.81
4939.39
5171.06
5347.79
5435.88
5435.94
5348
5171.18
4938.89
4685.95
4429.71
4177.83
3934.39
3700.7
3480.01
3270.3
3076.71
2899.11
2737.25
2604.22
2477.73
2362.11
2232.78
2027.69
8507.45
8211.58
1991.56
2195.71
2311.79
2417.3
2513.91
2635.72
2771.68
2935.02
3112.82
3306.14
3513.13
3732.03
3962.01
4200.41
4443.43
4683
4901.51
5065.14
5143.97
5144.01
5065.3
4901.75
4683.07
4442.89
4198.65
3958.31
3725.58
3503.12
3291.4
3093.16
2907.36
2738.53
2586.43
2456.91
2335.48
2223.01
2098.1
1907.83
7589.69
7151.33
1853.34
2036.63
2147.66
2252.36
2355.31
2475.09
2613.26
2769.27
2943.21
3130.21
3330.16
3541.4
3762.69
3991.95
4225.06
4453.75
4660.14
4811.4
4881.51
4881.52
4811.5
4660.36
4454.02
4225.16
3991.53
3761.3
3538.46
3325.1
3122.2
2932.04
2752.74
2593.62
2444.54
2321.21
2200.27
2088.76
1967.09
1790.82
6677.86
6247.41
1734.52
1899.74
2008.09
2113.86
2223.9
2343.99
2481.01
2634.48
2802.37
2983.2
3174.98
3377.09
3588.51
3807.46
4030.22
4248.37
4443.47
4583.27
4645.39
4645.39
4583.32
4443.61
4248.64
4030.54
3807.67
3588.37
3376.26
3173.08
2979.71
2797.1
2626.08
2470.87
2327.45
2205.21
2084.47
1973.23
1855.56
1692.73
5930.87
5378.19
1621.22
1770.1
1876.06
1982.34
2098.68
2218.54
2357.6
2506.65
2672.13
2847.64
3033.73
3228.6
3431.35
3640.46
3852.83
4060.58
4244.9
4373.8
4428.31
4428.31
4373.81
4244.97
4060.77
3853.14
3640.86
3431.72
3228.78
3033.49
2846.69
2670.29
2503.21
2353.13
2210.79
2089.47
1967.56
1857.1
1744.76
1596.09
5191.65
4754.69
1530.57
1661.76
1761.11
1865.6
1984.08
2103.65
2243.27
2389.16
2553.12
2725.84
2909.44
3101
3299.06
3500.99
3702.96
3897.75
4067.92
4185.06
4233.33
4233.33
4185.05
4067.94
3897.84
3703.17
3501.34
3299.53
3101.55
2909.98
2726.28
2553.32
2388.89
2242.62
2101.79
1981.59
1860.76
1753.8
1650.41
1518.26
4654.54
4199.58
1461.08
1572.03
1659.83
1756.25
1870.63
1985.98
2123.15
2265.37
2428.5
2601.25
2787.21
2982.59
3185.29
3391.15
3594.04
3783.54
3943.8
4048.34
4088.1
4088.1
4048.34
3943.8
3783.59
3594.17
3391.4
3185.68
2983.11
2787.82
2601.9
2429.1
2265.85
2123.43
1985.77
1870.04
1754.61
1656.8
1566.88
1455.29
4170.24
4049.14
1366.31
1462
1530.23
1610.61
1711.59
1813.7
1937.35
2064.75
2212.05
2368.53
2537.93
2717.11
2904.88
3097.28
3287.94
3466.4
3610.17
3697.96
3729.17
3729.17
3697.95
3610.17
3466.41
3288.01
3097.44
2905.16
2717.53
2538.48
2369.21
2212.81
2065.58
1938.17
1814.4
1712.18
1610.78
1529.75
1460.08
1363.58
4025.28
33022.7
4070.44
4226.31
4782.99
5361.46
6162.84
6967.5
7962.18
8959.4
10117.6
11288.7
12588.2
13891.2
15264.3
16609.9
17867
18881.1
19508.9
19753.3
19799.8
19799.8
19753.3
19508.9
18881
17867
16609.8
15264.3
13891.3
12588.5
11289.2
10118.5
8960.61
7963.76
6969.48
6165.25
5364.19
4786.02
4229.04
4072.76
33014.5
33022.7
4070.44
4226.31
4782.99
5361.46
6162.84
6967.5
7962.18
8959.4
10117.6
11288.7
12588.2
13891.2
15264.3
16609.9
17867
18881.1
19508.9
19753.3
19799.8
19799.8
19753.3
19508.9
18881
17867
16609.8
15264.3
13891.3
12588.5
11289.2
10118.5
8960.61
7963.76
6969.48
6165.25
5364.19
4786.02
4229.04
4072.76
33014.5
4049.14
1366.31
1462
1530.23
1610.61
1711.59
1813.7
1937.35
2064.75
2212.05
2368.53
2537.93
2717.11
2904.88
3097.28
3287.94
3466.4
3610.17
3697.96
3729.17
3729.17
3697.95
3610.17
3466.41
3288.01
3097.44
2905.16
2717.53
2538.48
2369.21
2212.81
2065.58
1938.17
1814.4
1712.18
1610.78
1529.75
1460.08
1363.58
4025.28
4199.58
1461.08
1572.03
1659.83
1756.25
1870.63
1985.98
2123.15
2265.37
2428.5
2601.25
2787.21
2982.59
3185.29
3391.15
3594.04
3783.54
3943.8
4048.34
4088.1
4088.1
4048.34
3943.8
3783.59
3594.17
3391.4
3185.68
2983.11
2787.82
2601.9
2429.1
2265.85
2123.43
1985.77
1870.04
1754.61
1656.8
1566.88
1455.29
4170.24
4754.69
1530.57
1661.76
1761.11
1865.6
1984.08
2103.65
2243.27
2389.16
2553.12
2725.84
2909.44
3101
3299.06
3500.99
3702.96
3897.75
4067.92
4185.06
4233.33
4233.33
4185.05
4067.94
3897.84
3703.17
3501.34
3299.53
3101.55
2909.98
2726.28
2553.32
2388.89
2242.62
2101.79
1981.59
1860.76
1753.8
1650.41
1518.26
4654.54
5378.19
1621.22
1770.1
1876.06
1982.34
2098.68
2218.54
2357.6
2506.65
2672.13
2847.64
3033.73
3228.6
3431.35
3640.46
3852.83
4060.58
4244.9
4373.8
4428.31
4428.31
4373.81
4244.97
4060.77
3853.14
3640.86
3431.72
3228.78
3033.49
2846.69
2670.29
2503.21
2353.13
2210.79
2089.47
1967.56
1857.1
1744.76
1596.09
5191.65
6247.41
1734.52
1899.74
2008.09
2113.86
2223.9
2343.99
2481.01
2634.48
2802.37
2983.2
3174.98
3377.09
3588.51
3807.46
4030.22
4248.37
4443.47
4583.27
4645.39
4645.39
4583.32
4443.61
4248.64
4030.54
3807.67
3588.37
3376.26
3173.08
2979.71
2797.1
2626.08
2470.87
2327.45
2205.21
2084.47
1973.23
1855.56
1692.73
5930.87
7151.33
1853.34
2036.63
2147.66
2252.36
2355.31
2475.09
2613.26
2769.27
2943.21
3130.21
3330.16
3541.4
3762.69
3991.95
4225.06
4453.75
4660.14
4811.4
4881.51
4881.52
4811.5
4660.36
4454.02
4225.16
3991.53
3761.3
3538.46
3325.1
3122.2
2932.04
2752.74
2593.62
2444.54
2321.21
2200.27
2088.76
1967.09
1790.82
6677.86
8211.58
1991.56
2195.71
2311.79
2417.3
2513.91
2635.72
2771.68
2935.02
3112.82
3306.14
3513.13
3732.03
3962.01
4200.41
4443.43
4683
4901.51
5065.14
5143.97
5144.01
5065.3
4901.75
4683.07
4442.89
4198.65
3958.31
3725.58
3503.12
3291.4
3093.16
2907.36
2738.53
2586.43
2456.91
2335.48
2223.01
2098.1
1907.83
7589.69
9257.01
2129.19
2356
2483.73
2592.7
2690.63
2810.57
2951.71
3118.76
3301.74
3503.67
3717.76
3946.05
4185.2
4433.83
4687.81
4939.39
5171.06
5347.79
5435.88
5435.94
5348
5171.18
4938.89
4685.95
4429.71
4177.83
3934.39
3700.7
3480.01
3270.3
3076.71
2899.11
2737.25
2604.22
2477.73
2362.11
2232.78
2027.69
8507.45
10395.4
2285.16
2537.05
2675.82
2790.8
2889.67
3010.24
3153.54
3323.16
3514.66
3721.13
3945.16
4181.9
4431.6
4691.21
4957.2
5221.75
5467.41
5657.83
5755.63
5755.71
5658.01
5467.13
5220.11
4953.11
4683.5
4419.04
4163.21
3919.07
3685.86
3468.78
3262.56
3077.45
2908.4
2767.26
2637.76
2519.58
2387.94
2167.1
9578.59
11481.8
2447.57
2726.23
2874.79
2999.88
3103.92
3226.23
3372.04
3546.62
3741.26
3957.82
4189.6
4437.47
4698.19
4970.01
5248.9
5527.23
5787.47
5991.98
6099.76
6099.84
5991.96
5786.36
5523.68
5241.5
4957.37
4678.91
4410.13
4152.56
3909.11
3677.9
3464.43
3267.14
3090.27
2942.27
2806.23
2684.38
2551.16
2314.31
10661.2
12607.3
2624.66
2932.79
3089.5
3223.72
3333.99
3459.45
3608.87
3784.5
3986.31
4208.73
4451.23
4709.82
4983.01
5267.86
5560.55
5853.36
6128.67
6347.48
6465.37
6465.39
6346.98
6126.11
5846.97
5548.69
5249.03
4955.73
4672.51
4401.92
4144.51
3903.23
3676.48
3470.95
3284.8
3127.72
2985.57
2860.09
2727.65
2474.49
11866.5
13665.1
2813.68
3153.12
3318.94
3462.24
3580.3
3709.29
3860.75
4039.15
4244.42
4475.08
4727.03
4997.73
5284
5582.93
5890.31
6198.36
6489.24
6722.49
6850.46
6850.34
6721.11
6484.5
6188.19
5872.97
5556.94
5247.87
4949.66
4664.42
4394.03
4138.99
3902.07
3684.69
3489.99
3322.93
3173.1
3043.34
2913.24
2644.16
13076.3
14590.4
3009.97
3386.74
3564.94
3717.02
3844.28
3975.96
4128.57
4307.55
4516.84
4754.07
5016.21
5299.16
5599.44
5913.39
6236.47
6560.65
6867.67
7115.52
7253.41
7253.01
7112.76
6860
6545.86
6212.94
5879.74
5554.14
5240.05
4939.82
4654.88
4386.93
4137.3
3909.33
3704.7
3527.17
3368.59
3233.59
3106.92
2822.95
14370.6
15642.5
3219.1
3634.23
3825.99
3987.84
4125.74
4258.59
4410.49
4589.08
4800.87
5044.61
5316.54
5612.15
5927.06
6256.97
6596.8
6938.07
7261.93
7524.6
7672.14
7671.34
7519.93
7250.68
6918.14
6566.82
6215.7
5872.84
5542.21
5226.16
4926.36
4644.27
4382.03
4142.37
3927.63
3739.35
3570.96
3428.89
3305.48
3007.97
15655.7
15891.7
3437.53
3897.14
4103.16
4272.54
4421.43
4553.77
4703.5
4880.21
5093.89
5343.56
5625.27
5933.72
6263.74
6610.36
6967.86
7327.18
7668.61
7946.35
8103.26
8101.91
7939.31
7653.35
7301.97
6931.66
6562
6201.22
5853.41
5520.98
5205.6
4908.96
4633.25
4381.56
4156.22
3957.2
3778.43
3626.71
3504.7
3195.14
16914.8
16274.3
3638.69
4166.7
4405.7
4574.89
4723.66
4853.73
5000.17
5174.42
5390.13
5645.84
5937.47
6259.06
6604.59
6968.41
7344.2
7722.24
8081.8
8374.79
8540.72
8538.72
8365.08
8062.38
7691.91
7302.21
6913.52
6534.31
6168.79
5819.42
5487.97
5176.17
4886.45
4622.07
4385.59
4175.92
3986.71
3822.65
3698.14
3376.6
18029.1
15020.9
3767.36
4435.29
4698.87
4894.77
5017.23
5141.24
5282.66
5457.9
5677.03
5939.39
6241.42
6576.47
6937.77
7318.97
7713.16
8110.03
8487.74
8795.82
8970.3
8967.6
8783.37
8464.37
8075.05
7666.01
7258.21
6860.4
6476.91
6110.31
5762.42
5435.05
5130.76
4853.05
4604.68
4384.12
4184.55
4006.62
3874.23
3538.67
18854.1
13632.2
3925.88
4743.82
4998.86
5165.98
5271.56
5389.6
5527.26
5707.46
5932.98
6205
6519.49
6869.54
7247.67
7646.88
8059.74
8475.38
8870.96
9193.6
9375.9
9372.46
9178.43
8843.94
8436.36
8008.26
7581.36
7164.73
6762.88
6378.48
6013.43
5669.63
5349.75
5057.47
4795.72
4562.97
4351.98
4160.41
4014.83
3662.01
19292.4
12302.3
4323.86
5077.13
5354.3
5392.81
5442.57
5546.13
5683.32
5869.65
6100.29
6380.85
6705.36
7067.54
7459.13
7872.57
8300.07
8730.22
9139.26
9472.54
9660.32
9656.31
9455.24
9109.4
8688.12
8245.38
7803.49
7371.82
6955.05
6556.01
6176.71
5819.16
5486.15
5181.51
4908.25
4665.03
4444.26
4243.21
4085.98
3720.49
19416.9
)
;

boundaryField
{
    inlet
    {
        type            fixedValue;
        value           uniform 10000;
    }
    outlet
    {
        type            fixedValue;
        value           uniform 1000;
    }
    obstacle
    {
        type            zeroGradient;
    }
    empty
    {
        type            empty;
    }
}


// ************************************************************************* //
