/*--------------------------------*- C++ -*----------------------------------*\
| =========                 |                                                 |
| \\      /  F ield         | OpenFOAM: The Open Source CFD Toolbox           |
|  \\    /   O peration     | Version:  v1912                                 |
|   \\  /    A nd           | Website:  www.openfoam.com                      |
|    \\/     M anipulation  |                                                 |
\*---------------------------------------------------------------------------*/
FoamFile
{
    version     2.0;
    format      ascii;
    class       volScalarField;
    location    "0.00015";
    object      internalEMean;
}
// * * * * * * * * * * * * * * * * * * * * * * * * * * * * * * * * * * * * * //

dimensions      [1 -1 -2 0 0 0 0];


internalField   nonuniform List<scalar> 
1300
(
1129.536526
1255.110406
3707.971636
9124.968297
9401.877183
5309.920952
6476.783276
8594.140818
7379.263431
6957.170153
1212.982851
1379.035091
5318.836686
13571.52389
12747.28231
6454.424762
10614.91505
12262.20211
9065.552662
8478.712428
611.8414555
684.7510133
3404.988863
9642.957196
8325.148257
4204.445361
7662.537076
10577.77807
9495.645495
7910.563441
334.6390565
302.2895168
2458.905616
7857.875133
6048.196502
3363.132205
5950.293626
10069.12137
7550.773391
7336.351901
106.4541193
302.0282071
2279.318835
7503.280322
5296.816893
2520.084254
4208.135866
7580.51319
6864.313511
6205.793815
132.1172826
154.5741783
2173.020061
7977.750339
4778.143981
1972.896594
4093.360964
5512.840389
6124.800245
5420.522456
54.57429773
210.186242
2259.642883
7469.827608
4697.64358
1950.578714
3490.27477
5450.685924
4826.401662
4774.872764
67.80347364
99.38614385
2417.454239
8031.550379
4494.633343
2168.904169
3681.160585
5316.460904
4619.467021
4128.577564
38.66805713
155.0427325
2260.6842
7579.019865
4832.84715
2009.024148
3687.022532
5278.771584
5161.088336
3897.754936
19.70111678
96.56886406
2084.230628
7307.548273
4469.840432
1825.67109
3089.650284
5623.817818
5212.183046
3595.631186
16.9157352
105.9144428
2220.088898
7603.17554
4443.206806
2086.498248
3579.220427
5282.365658
4881.590769
3905.885275
20.78288176
112.3404784
1982.898933
7114.390275
4479.981806
1701.768144
3506.018546
5181.780611
4492.732128
4352.881656
10.69158322
55.47326421
2073.095639
7494.922068
4575.820444
1849.342691
3257.576217
5275.675947
4681.02169
4042.471246
14.0975101
71.89070377
1956.536133
7752.268636
4570.277372
1770.907906
3370.709468
5381.994254
4627.112329
3876.173493
10.43470705
35.7111461
1906.695
7528.707679
4433.124912
1734.775702
3400.617208
5271.522994
4623.117613
3931.611334
9.421261691
60.04503799
1914.47356
7857.274859
3929.208295
1879.570747
3294.530466
4984.625539
4388.335982
4074.745369
20.57756011
47.29927856
1843.921154
7195.882594
4047.005263
1988.417028
3400.052015
5046.705536
4593.474768
3896.692285
10.09791937
37.75327299
1953.5856
7645.679111
4143.839981
1863.480795
3358.064297
5306.900528
4691.105256
3645.593067
2.648276773
49.2540784
2021.323448
7896.618644
4632.812747
1786.496557
3284.839258
5114.16929
4758.677853
3662.414446
6.004817314
25.18677488
1742.167195
6882.650404
4172.727889
1985.818588
3318.794128
5114.999729
4356.39676
3748.583536
7516.05938
6350.544583
6691.967141
5553.621598
5825.937656
5050.355821
6489.477478
6874.08706
5869.773083
5665.183434
5186.295995
6255.67946
6020.981795
5946.505539
6471.034576
5560.649559
6210.54948
5698.648863
6610.164131
5612.508818
6432.71425
6468.084031
6310.569939
5852.388801
6148.243693
6589.441572
7483.602568
7080.114886
8572.58537
7936.158082
7603.617808
6363.91871
5936.083189
5555.71921
6174.203901
5782.722111
6017.034051
5555.720216
6011.517562
4946.396079
5351.200489
5723.291424
6535.708194
5852.463194
6171.373346
5679.898637
5442.768938
5835.964269
5911.336295
6704.550691
6205.291225
5828.169818
6765.741409
6280.725379
6977.246229
7015.087883
6682.934919
7571.491644
6918.576956
6851.135574
7879.137262
7530.07673
6611.307061
5614.204015
6228.239664
5653.376273
6232.190005
5363.210487
5278.052096
5685.094061
5634.424128
5680.260562
5224.499305
6348.994788
5669.994476
6268.613718
6122.990452
5525.965948
6231.391386
6026.86007
6204.560365
6394.229966
6255.788138
6011.045297
6199.162379
5903.773428
6127.891848
7210.674246
7715.379927
6220.669894
7656.312058
7787.487013
6814.413897
6320.667398
6312.64228
5585.167465
5763.332175
5675.655545
5945.216802
5338.096888
5486.311493
5653.190223
5696.347767
6016.22643
5841.164115
5311.84247
5326.374622
5984.592433
5596.793139
6059.579513
6717.196601
6245.369587
6312.725703
6807.773866
7324.980984
6110.898667
7076.666011
6620.93709
6701.323849
6974.689284
7389.069606
7932.464157
7847.863576
6548.116517
6303.403788
6139.16069
6212.584388
5644.208882
6239.156963
5642.272611
5445.29414
5004.010259
5154.179919
5480.781917
5799.911344
5524.398748
5927.575002
5285.702208
5917.243207
6097.242419
6272.377371
6563.838767
5713.349381
6546.078689
6120.372385
6633.409599
7116.388163
6944.773763
6226.882187
6516.182658
5956.981036
7500.833429
7299.795879
6930.733112
6256.641843
6585.405099
5916.672245
5261.775363
5753.034431
6075.983581
5551.569537
4891.802266
5456.66206
5091.760924
5740.523108
5415.334737
5830.874217
5347.293355
5247.674367
5343.072077
5653.340485
5903.514057
6131.985567
5905.015091
6472.518068
7077.962554
6253.760823
6557.349448
6737.335862
7193.769646
4513.223795
6226.798137
6428.091623
6687.672971
6621.524515
6518.922186
6257.552832
5823.212059
6110.705531
5779.018781
5495.258191
5180.304731
5293.051594
5743.355104
5347.105052
5193.341863
5005.264653
5808.411557
5274.79279
5372.373105
5567.904408
5868.698201
6292.537677
6224.626765
6389.323241
6022.169583
6848.86148
6838.509236
7250.127323
6329.389263
4156.898495
5630.788343
5860.67503
5719.797782
6495.530085
7337.093784
6571.97936
6341.568627
6161.758677
6127.232468
6017.676448
5735.95503
5720.411762
5820.572695
5441.618502
5433.040008
5336.007688
5568.080079
5234.266974
5733.407231
5340.496046
6415.279308
5501.836544
6614.224005
6105.517192
7275.723875
6247.765892
7021.821494
6434.089431
6951.686948
4272.263939
5118.063951
4781.127691
5039.915185
4981.90397
6009.31239
6228.558484
6402.143151
6075.315714
6098.78327
5910.031924
6295.630148
5645.442664
5798.458659
5635.192909
5498.027702
5356.85573
5130.929317
5572.5783
5216.130126
5214.580343
5352.099964
5764.639402
5899.871449
5980.364056
6060.670611
6677.042205
6756.015862
6878.588066
6682.549036
3331.048009
4963.69378
4536.931325
4274.750602
5225.945687
5301.567321
5453.720432
5540.595353
6379.032388
6813.756876
5843.404214
6215.324017
6213.99259
5673.233555
5926.328896
5603.545329
5326.382774
5286.979528
5814.434117
5671.173788
5461.600295
5191.63853
5613.859542
5563.789498
5669.074261
5862.04743
5646.915113
5816.449639
6351.962998
6452.10735
3870.188603
4755.402107
4677.430707
4251.467587
4554.299411
5059.500873
5057.349594
5104.751948
5625.805006
5926.685794
5904.224939
5908.432296
6264.111269
6287.560895
5800.859919
5846.882039
5998.290109
5582.642106
5677.176687
5558.27959
5223.80081
5434.905653
5609.45909
5175.301654
5866.112373
6093.869909
5830.715554
6499.333519
5897.393352
6779.255924
3361.141012
5107.103278
4297.057895
4123.811208
4029.774744
4682.569542
4346.460613
4738.78719
5263.037977
5437.186619
5451.77327
5916.648668
5884.77302
5924.655579
5702.699011
5885.529134
5744.626499
5480.449025
5685.481287
5590.953555
5651.447895
5303.822343
5270.33715
5852.013752
5280.068328
6165.493886
5533.259145
5565.508444
6254.621464
5872.112263
3836.964689
4629.721595
4356.206042
3977.370625
4455.941803
4609.274894
4347.222926
4427.750677
4966.120832
5004.735518
5103.371011
5434.628892
5450.048952
5782.144476
6123.234464
6462.075691
5875.458761
6039.962246
5322.3105
6185.694739
5327.348682
5720.831057
5631.930059
5371.425884
5387.318723
5161.806919
5566.800765
5147.660329
5672.867282
5873.002267
3786.073738
4784.487821
4514.919956
3896.028701
4154.216865
4372.637374
4298.342668
3997.015522
4650.374849
4985.1238
4315.719922
4704.598591
5245.029977
4943.186244
5750.80433
5287.496852
5757.803086
6421.462957
5769.079806
5838.076698
5884.394298
5349.337734
5519.380133
5698.934407
5262.076005
5584.260698
5671.076694
5821.927214
5806.693411
5912.28715
3571.801169
4541.326432
4285.4371
3940.388743
3980.289996
4693.755213
4332.056162
4250.642091
4619.006439
4090.843512
4122.294112
4795.763034
4975.03083
4605.485546
5070.160011
5221.629805
5034.248859
6203.874092
5510.104631
5950.324407
6130.168564
5643.824065
5813.052737
5871.485661
5527.209551
5335.663701
5296.978407
5355.546772
5430.106165
5648.520805
3767.243551
4574.878893
4344.353915
3791.514178
4549.091314
4740.649308
3920.548084
4272.05045
4725.709288
4459.019485
4201.52357
4213.846619
4323.291715
4554.278471
4754.048421
4667.289273
4975.22162
5032.152734
5629.919739
5210.450929
5625.638645
6122.414933
6027.581007
5406.817197
5949.607334
5871.694213
5314.701369
5498.861376
5166.282086
5611.64826
3420.962699
4619.353654
4955.821449
3662.379689
4169.050086
4270.636336
4248.964185
4345.494207
4230.106924
4303.172146
4411.390456
4294.292592
4749.436121
4045.553159
4932.502155
4644.869189
4793.448729
4853.02949
5114.546756
5143.451808
5667.819139
5613.002719
6047.642174
5553.53912
6250.675693
5998.459304
6202.883791
6008.850939
5412.105479
5994.463258
3846.815187
4261.634291
3992.954137
4114.841603
4203.404064
4505.809293
3917.257136
4247.555484
4604.796282
4080.707405
4312.757498
4381.06507
4569.775009
4382.375466
4472.520912
4340.008316
4684.981371
4861.441284
4801.307319
5028.402188
5014.78014
5184.835362
4853.392346
5329.052695
6019.151129
5381.697005
5959.954102
5840.648923
6181.086318
5568.154634
3268.482876
4630.528203
4450.714022
3635.476567
3928.585005
4833.96915
4075.888382
4161.664361
4364.896112
4273.04255
4095.591321
4300.570127
4373.589118
4049.477948
4210.230064
4532.023102
4158.48713
4369.846225
4792.388829
4829.6728
4811.99921
5125.351126
5135.446226
4594.372271
5087.434827
5569.109509
5912.547652
5588.848656
5355.124006
5983.727815
3904.748212
4456.472447
4363.6206
4009.854832
4262.314943
4079.506097
4260.816319
3918.676238
4293.875476
3647.816343
3983.850977
4140.860426
4139.117627
4307.331767
4122.646417
4112.781076
4260.360093
4312.794406
4373.417786
4252.343069
4628.21263
4580.952245
4695.382307
4856.817731
4935.226827
4733.528103
4935.76177
5137.463748
5283.449371
5413.29508
6243.824346
6414.988494
5632.570075
5682.861108
5639.017866
5287.140635
5301.835061
5184.301295
4285.229744
3669.204284
8519.939993
7286.70011
6666.770781
6907.525761
7328.948778
7484.740953
6870.46508
6647.913501
5292.615468
5316.487751
7303.98716
5914.512751
7228.980422
6950.203443
6553.360232
6762.597806
6616.556022
6627.248844
5818.021866
4456.104659
6170.182466
7258.435411
7747.623096
7058.936268
7174.685103
6649.660658
6915.825934
6453.832572
5974.78098
5042.248989
5508.481126
6738.028806
6373.925528
6772.549231
7082.176925
6465.290753
6464.483898
5893.939785
5629.071963
5563.988302
7184.473333
6239.325435
5777.232131
7332.53367
6360.343138
6138.386509
6658.88356
5539.675511
5547.926011
6005.150685
7067.484724
6150.054299
6754.171044
6790.186622
6165.641077
5626.374164
5045.040149
5399.982402
4796.868264
5358.549688
6454.710357
6279.595327
6117.705392
5633.124668
7084.813227
6246.087595
5645.534297
6105.431786
5429.399739
5319.391651
7202.346738
7156.063498
5731.044535
6540.4639
6137.683282
6217.882585
6301.989874
5579.51573
6119.84674
5050.785275
6304.339247
5877.687577
6310.4869
6594.945762
6267.488575
6036.574256
6441.78322
5663.28983
5767.790437
5740.80653
6160.762184
6651.387083
7091.737151
5975.70542
6097.352014
5964.053988
6303.065775
6204.933213
5989.75792
6114.842401
6242.521528
5866.74258
6579.033311
6125.793152
6795.550137
6638.48941
5869.375893
6284.329795
5833.417213
6365.015749
5969.144905
6496.265343
6199.583452
6201.47516
6583.21901
6210.701529
5535.236387
6353.039678
6128.727045
6022.501274
5908.002725
5542.45719
6017.016978
6368.90214
6182.026755
6057.933828
6358.62117
6588.939888
6833.302518
6417.292556
5329.509155
6092.83621
5239.014916
5786.449996
5848.024633
6105.335247
5958.567773
5943.832628
5577.358982
6830.22969
5769.017302
5342.952247
6313.991814
5440.622969
5936.290134
5580.541866
6091.36756
5852.342373
6364.152985
5697.949528
5685.543477
5797.047131
5824.004356
5591.442704
5624.497717
5856.025055
5808.56645
5856.110022
5749.556036
6303.649345
6112.0507
5586.257573
5514.746848
5606.851312
5776.300364
5747.059076
5740.035941
5885.252332
6120.358488
5823.922348
5498.133371
5382.972259
5425.20646
5898.312954
5737.470576
5878.568085
5974.977957
5411.1564
6017.559033
5902.140669
5764.69663
5352.526874
5639.403269
5113.203538
5040.099784
5513.992037
5300.946926
5652.856739
5286.930878
5875.863991
3221.825353
4139.008324
4121.313625
3875.913956
3971.700841
3838.657985
4305.247656
3759.235801
3698.073475
4353.638259
4416.617319
4206.683552
4003.5813
4578.688583
4361.671643
4578.977188
4636.502874
4516.619354
4668.569208
4716.315439
5042.921056
5306.973437
4858.96062
4911.23568
4990.131041
5286.187879
5103.469482
5056.650884
5318.365232
4596.487371
3949.998881
5497.54035
5734.848052
5513.482993
5468.649762
4833.031862
5105.16244
5232.310274
5670.587702
5704.571492
6201.384922
5860.63326
5818.537766
5679.73512
5523.656977
5803.590612
5916.669788
6719.895784
6581.386389
5879.589548
7274.811211
6517.746584
5903.290043
6647.925984
6251.225539
7352.072823
7141.095188
7163.981415
8232.452284
6506.495172
3214.618191
5186.151573
5154.956539
5170.20795
5948.639622
4919.91443
5390.947081
5604.658554
4979.190575
5824.394982
5872.784492
5143.311679
5336.367272
5468.113522
5733.025597
6054.94156
5852.180359
5760.444057
6338.131694
6056.489945
6563.254407
6051.41396
6504.368021
6533.220798
6481.56353
6706.941288
7277.591276
6777.584251
7507.94301
6146.437427
3383.886927
4630.426451
5321.4971
5430.528938
5441.671265
4633.507019
5235.169062
5885.491251
5546.812093
4735.143051
5592.734641
5462.076857
5236.893015
5452.944745
6358.535094
5601.477709
5438.715885
6148.895131
5937.725945
5462.021271
6359.160832
6581.409952
6772.209611
6475.219475
6004.479334
5892.682077
6938.251651
7225.25188
8040.52863
6109.685315
3235.920443
4874.569969
5071.430764
5593.10963
5506.318243
5363.054705
4685.92471
5892.50764
5528.094998
6031.65868
4858.347878
5050.116436
5241.792773
5003.62496
5887.917966
5352.793064
5732.273837
5402.461897
6200.863498
5571.851029
5919.386298
6027.419284
6290.351401
6334.922681
6809.33349
6777.602638
6589.375848
6987.962639
7607.293432
6510.429094
3650.821553
4440.273498
4593.565395
5495.724802
4625.686264
5327.737956
5354.085396
5179.433
5125.967661
5400.724974
5187.595322
5417.384589
5230.935299
5558.095595
5742.604192
5950.557218
5982.752925
6055.603523
5812.052786
6126.073393
5884.970243
5956.089842
5868.499938
6040.276807
6774.649172
6804.796404
5903.965846
6915.268685
8106.694648
7598.646939
3113.988081
4924.51501
4855.356813
5321.597937
4905.466938
5256.042195
4885.045743
5405.642582
5277.313935
5229.33135
5255.413766
5781.382155
5311.219203
5525.550929
5700.752846
5792.432547
5739.08739
5902.858232
6216.273607
6461.369963
7099.722997
6113.589239
6195.953522
6585.771793
6643.589502
7605.869339
6125.117275
7471.633948
7574.694614
7264.962263
3273.237505
5240.036927
4935.178567
5543.191322
5208.019519
5068.479863
5372.672815
4869.160383
6131.414627
5476.697061
5472.254526
5489.092999
6237.152135
5592.613781
6119.746857
5616.925036
5618.86027
5668.671725
5427.266447
6166.430037
5615.446054
6237.982029
6318.948726
6556.804375
5547.854151
6348.091966
6864.30156
7116.753723
7922.101231
7157.853206
3548.429751
4898.583345
4792.331657
4715.260654
5286.876137
5734.16381
5623.751596
6193.163573
5232.1752
5914.749984
5745.226324
5310.952975
5597.257434
5592.779962
5943.338251
5698.360577
5903.466154
5057.683813
6694.238611
6110.134483
6532.692258
6308.819171
6501.204698
6450.58952
6012.236915
7199.363804
6487.687308
6781.294689
8808.505954
7941.457758
3491.732954
5400.820393
5229.590537
5168.622063
5414.767966
5487.139436
5593.290364
5383.334668
5870.019654
5937.773192
5735.269038
5944.277566
6361.851943
6239.951019
5344.028047
6186.889672
5607.75828
5287.61427
5872.620572
6157.213612
6334.528741
5974.063369
6234.765103
5936.469777
6348.702717
6680.139862
6953.308273
6955.528879
8369.764782
7610.054789
)
;

boundaryField
{
    inlet
    {
        type            calculated;
        value           nonuniform List<scalar> 
20
(
1129.536526
1212.982851
611.8414555
334.6390565
106.4541193
132.1172826
54.57429773
67.80347364
38.66805713
19.70111678
16.9157352
20.78288176
10.69158322
14.0975101
10.43470705
9.421261691
20.57756011
10.09791937
2.648276773
6.004817314
)
;
    }
    outlet
    {
        type            calculated;
        value           nonuniform List<scalar> 
70
(
3669.204284
5316.487751
4456.104659
5042.248989
5563.988302
6005.150685
5358.549688
5319.391651
5050.785275
5740.80653
6114.842401
6365.015749
6022.501274
6417.292556
6830.22969
5697.949528
6303.649345
5823.922348
5902.140669
5875.863991
6.004817314
25.18677488
1742.167195
6882.650404
4172.727889
1985.818588
3318.794128
5114.999729
4356.39676
3748.583536
3904.748212
4456.472447
4363.6206
4009.854832
4262.314943
4079.506097
4260.816319
3918.676238
4293.875476
3647.816343
3983.850977
4140.860426
4139.117627
4307.331767
4122.646417
4112.781076
4260.360093
4312.794406
4373.417786
4252.343069
4628.21263
4580.952245
4695.382307
4856.817731
4935.226827
4733.528103
4935.76177
5137.463748
5283.449371
5413.29508
5764.69663
5352.526874
5639.403269
5113.203538
5040.099784
5513.992037
5300.946926
5652.856739
5286.930878
5875.863991
)
;
    }
    wall
    {
        type            calculated;
        value           uniform 0;
    }
    frontAndBack
    {
        type            empty;
    }
}


// ************************************************************************* //
