/*--------------------------------*- C++ -*----------------------------------*\
| =========                 |                                                 |
| \\      /  F ield         | OpenFOAM: The Open Source CFD Toolbox           |
|  \\    /   O peration     | Version:  v1912                                 |
|   \\  /    A nd           | Website:  www.openfoam.com                      |
|    \\/     M anipulation  |                                                 |
\*---------------------------------------------------------------------------*/
FoamFile
{
    version     2.0;
    format      ascii;
    class       volScalarField;
    location    "0.00015";
    object      linearKEMean;
}
// * * * * * * * * * * * * * * * * * * * * * * * * * * * * * * * * * * * * * //

dimensions      [1 -1 -2 0 0 0 0];


internalField   nonuniform List<scalar> 
1300
(
1724.756749
1713.907448
14160.44517
79636.78282
44842.31536
13862.63923
25492.07611
34852.27581
21656.39651
21799.41721
2918.590514
3311.889218
26559.17268
156157.9062
83419.64601
25337.99489
49081.00921
63975.53554
39772.19919
30752.59417
1623.142094
1993.091401
29531.67886
178642.7092
100682.4399
29926.29287
69772.50617
104367.3875
65038.7771
51676.03962
1164.16509
1282.455837
28246.22846
169489.0401
93797.39069
30295.9512
77735.71268
124977.8175
79600.35273
65749.43856
621.4990698
1127.683652
28302.41354
171308.1517
96797.15826
29298.35796
73352.53932
121251.2641
96155.672
74565.78705
577.7801402
614.0674825
28367.3008
172609.7582
95593.15682
27406.3038
73199.13347
110749.3068
88856.44434
74427.32065
401.2913027
762.3071496
28157.03471
168779.1161
95489.42073
24095.55001
70739.50459
112922.177
89878.17281
71016.53145
391.9724116
574.6998924
30842.47416
169134.7979
93107.60401
27508.39867
69838.59123
111731.467
80919.30919
65558.35324
181.4518025
685.063966
29733.97871
173902.0023
95741.78616
28473.70519
74618.09543
108723.7477
86156.83775
65351.09596
195.2469975
506.7289516
26553.37168
167683.8976
98441.30746
26661.84211
67274.85442
114107.4303
89075.69637
61376.97002
169.1207087
598.9324911
29919.36529
173663.4884
95663.87032
28367.52111
68705.06916
119401.3511
88525.81135
68408.81494
141.3237794
676.3503173
28546.1113
165186.5811
99037.06174
24014.00323
71388.56116
111647.2407
81921.22419
69289.46632
96.94517488
448.9355086
28068.38386
173881.4585
97372.29816
27303.43388
69409.09985
115419.4315
83351.73389
68024.51079
131.0161454
326.6424143
28777.31747
171548.2075
96037.66785
25934.87658
69089.94343
115545.781
84706.93688
65297.40506
67.51145365
354.7331138
28642.63433
164982.2454
97139.41738
25530.10173
68639.97334
113773.6329
86590.66491
63274.21535
103.4115338
600.3128335
29240.99773
175963.7163
92128.61448
28617.30443
71278.05398
107265.0914
86929.7339
65197.99287
142.3152825
313.3597917
29311.00354
166510.2869
91151.01106
29023.79724
73197.66666
108792.5561
84503.02202
66973.88352
41.1684141
197.488871
28943.76274
170001.8388
95991.01672
28040.27942
69663.98878
113276.9402
84278.81581
65073.32117
48.24679012
359.7894023
29196.02089
175857.3694
94852.6514
29041.00953
66791.44626
110061.8454
86010.4281
64560.078
44.4439237
269.1645274
25670.97204
160654.5303
88873.20844
31143.8752
68110.4648
109005.9046
85128.2926
67208.45198
20949.6606
17490.07635
17742.08676
16570.24216
17137.80122
15280.58497
17292.79291
18166.42783
16185.9543
17486.65278
16343.99207
18763.42109
17360.45163
17523.63
19326.01837
18255.07349
19569.32712
18523.14356
19465.95364
17195.79771
18236.25631
18425.966
18945.59535
18309.5494
19200.11652
18599.48457
19694.23812
22559.14251
21320.20626
21611.78828
32101.19681
29339.76054
24616.42525
24128.67239
24105.43008
22336.35701
21404.36584
22587.26626
22973.38344
20571.67887
21711.97153
19893.97524
24004.18988
19859.33474
20731.49973
20465.4519
19166.70843
19808.63972
20962.67204
21732.87093
20043.11515
20213.96619
21704.52487
20782.19642
20002.67583
21442.11225
22109.95295
20770.24134
20455.92284
20879.66799
52962.28696
50213.79057
40637.2811
35701.49113
37259.68359
32187.84669
30311.07659
28914.13263
29807.07563
25270.6732
25127.90138
26541.70776
24350.50224
24822.61959
25727.75825
25271.94237
23855.18443
24579.45317
24196.64486
22940.73971
23795.66153
23662.97985
21954.71456
23202.58445
22317.5811
20196.4435
22037.2858
22175.96748
23970.69696
22146.86552
74699.15778
71451.87176
56492.6535
54130.21809
51753.20708
43473.25097
42804.54961
41417.38092
36243.91401
35649.36487
35513.94841
32463.66975
31475.27311
31615.52947
28217.07901
27692.58455
27488.34579
25887.16594
27248.76766
26898.49968
27800.55751
25749.14218
25850.90788
27581.83846
27430.82337
22946.2937
25936.87811
27646.87584
24801.27351
26116.1722
93667.86074
90905.57866
75145.08842
71271.61297
63966.27155
61013.47545
56637.00809
52484.97513
50978.89983
42550.77141
41626.866
41252.45814
39058.89942
36573.94675
34160.43797
34826.28977
35091.31623
32400.9217
34043.53777
31404.64264
31546.23466
31951.75476
29188.08602
30716.28576
28383.35622
29751.49781
31016.28589
27076.61485
25843.20882
26985.74882
85524.96058
102482.4382
89569.05656
85669.56592
81405.0969
75779.03752
68173.86617
62929.7421
60147.74776
56922.84032
55848.21201
50064.64705
47293.36905
48907.74481
46074.2063
42358.67091
44072.76671
38637.61389
37540.3627
38832.26923
35471.00829
35418.5872
35317.96945
34509.52508
35260.26619
33730.47507
33513.31093
32843.99877
29581.53259
34193.94448
76926.02392
94718.86252
94849.28474
90911.1615
90277.77494
89011.96562
82323.92264
76251.61092
76668.9849
70182.13416
65751.85597
59560.70912
55119.5841
56307.68895
52440.35479
50779.09738
47210.25348
52619.82058
44257.88047
42533.87257
46076.75829
43080.89955
40076.27122
39076.09444
39196.0576
39148.40515
36350.78183
36362.51541
39317.76942
34163.31023
79421.30874
91969.60462
92713.91022
85496.13079
96025.01597
103339.2039
95528.84933
89773.00597
89911.92344
84967.52573
76814.1976
75575.84017
73976.32092
67345.15796
63653.97246
63601.79654
57342.5293
59671.38639
52505.12308
52086.94567
50050.73506
55358.05663
46731.46183
49579.08232
47438.76042
45913.10371
40408.28543
43724.2334
40096.68958
40109.16829
79755.08405
89490.23903
82888.6545
84639.93342
84828.87094
94279.67812
95501.02937
93501.52455
94633.86771
89433.35303
86892.79462
87939.03836
77780.76413
75441.18658
76556.17982
74509.31344
69474.11372
63155.56737
66634.05348
60405.81687
60503.21348
58281.23631
54725.37801
53147.45497
56998.39626
51328.59489
52483.30747
47997.44064
52771.82677
43163.61675
73599.46999
91922.35014
79892.09839
77649.77454
88308.09474
88456.95674
92882.06878
90079.53559
94447.65352
103599.7609
88872.33621
93224.73979
93801.03694
85871.6348
82840.96863
78994.6386
80699.11298
71440.27049
77341.17096
71768.67967
68560.26028
66324.69019
65050.11
63284.42634
62849.45889
56310.46512
56610.94361
55999.24455
56605.07885
55086.23594
77801.30628
90677.65638
84435.51375
79961.10204
81328.85916
89511.59682
85518.56363
88006.75508
94059.396
93764.97249
93564.31884
94705.35796
98756.30993
95052.39623
91332.13253
88134.19217
89729.70907
85194.86731
81481.01075
79015.35584
70810.51724
77884.78849
73300.41271
67289.70148
68704.24913
71188.47613
65213.36926
62733.87389
59709.48206
62446.52549
73863.93092
93571.26345
80490.14682
79970.74543
80273.31835
85620.07419
81682.0478
82044.68365
88537.343
91612.45291
93575.21526
94198.71492
98528.71353
91886.49896
92047.39722
97592.87217
91548.53491
86837.0022
92527.92963
86293.33127
83648.74221
81394.56611
79531.21288
80897.92857
74568.56699
78352.02578
71701.39543
70924.85615
74593.23042
67455.28399
77417.29857
86899.50298
81384.5836
77657.60052
85292.37942
87594.93424
82577.25649
78462.37962
94565.67252
89328.53156
86476.05577
94522.94159
92783.56803
100672.1953
98493.04518
102109.8578
95063.32124
96556.72778
89634.86687
96426.27281
87063.00936
89426.85661
85915.32692
80916.8003
83008.62602
78459.44773
79382.03661
74265.74859
76363.54614
73724.64349
75018.57043
92113.06825
80817.78037
77027.08717
77836.63272
83149.50776
81929.60971
77066.92747
84212.18534
89578.72506
77602.62933
84627.10197
92587.16564
83947.71551
96389.46682
91411.64456
96313.26182
100394.787
94264.79594
94359.33031
96331.92982
90054.34413
92290.466
91883.41095
82387.93619
87509.57498
87141.08393
85971.06019
84278.76472
80459.26343
75826.86421
89002.10573
82776.25271
77886.14712
79892.73609
84682.04874
82356.63253
79595.31371
85071.04691
80833.64065
78864.0571
85589.44718
92176.18282
80409.89723
91525.50796
92545.03103
89861.89951
100204.7775
94492.83541
96904.17903
101654.6607
91564.40396
93928.3515
92995.31569
95033.53235
86694.61159
83669.84803
88341.20774
82701.3038
88429.66229
77786.33025
89511.52822
81246.56972
77467.18734
84159.05175
89799.57792
75705.61276
79507.90907
87483.01792
84847.73968
78447.61253
80703.25706
78875.65106
80685.96674
84578.23744
87673.73214
86260.77523
91975.65327
91722.67277
93043.72101
96642.07781
98723.99536
99307.48273
91140.76726
94129.05478
94359.32009
86074.41446
90699.34932
89083.72149
89183.4604
74635.07646
85408.10811
88415.28082
72251.37832
81106.76467
83228.74829
81099.65453
80853.32066
82522.89886
83730.33056
81693.31665
83947.49034
91454.39819
79542.33509
88325.88029
85519.41992
87018.23486
83665.15343
90255.0747
93537.52869
94191.75168
95389.17518
101467.5382
98768.02035
99084.6476
102709.9326
102091.9666
95804.52993
93897.47147
93529.94197
75345.03184
84751.47659
78713.96024
77837.97467
79013.33914
87217.08141
77545.32056
75991.84741
84458.12662
79570.98356
84068.64282
78500.7016
85328.03562
83794.72489
84631.81134
84034.52542
88322.11965
88921.30439
85349.51928
86688.39924
88222.75857
90818.80527
91559.76507
96762.23205
99878.94137
93444.87241
102784.1424
101651.4181
100748.4478
94783.13204
73847.90227
90369.55199
78487.34308
71384.05392
76112.95143
84750.07242
79620.44466
76589.72714
78205.03127
82597.67755
81180.20612
81394.02432
83451.20071
81013.59915
80823.42017
86360.73544
78878.88165
86919.80681
86848.66832
88545.74871
88774.63756
86901.03291
92450.68038
87751.64424
92182.94977
97947.10414
94395.76141
97491.48621
94808.68215
104275.0808
78473.31694
85554.13962
79880.79607
80270.35068
83419.46115
79802.4402
79579.00732
77831.43594
80803.61087
76259.56849
77731.67266
76100.75707
80179.10702
82017.82991
77590.69457
81285.74764
84639.90718
78604.21262
84144.20043
81459.28942
86397.06014
84810.62788
85919.95695
86806.31737
91687.69938
90987.62643
88724.08136
92662.37407
92916.94409
97711.39897
18373.2779
15809.42085
12860.9286
10521.34536
11564.97194
9916.624282
10552.64763
9150.241907
8273.185847
8570.140237
23258.86708
22086.52369
20532.72304
18545.20111
19400.21296
18628.54542
16300.43968
14924.71629
13547.08083
13673.32534
23069.47077
24684.53816
23912.77236
23426.61298
20804.60941
21935.04737
21295.77291
20355.55597
17326.19099
16176.22938
23832.58391
24404.87074
27757.47706
26644.64882
24942.83576
25677.34289
24044.72713
23100.66122
20913.70626
22334.503
25675.34608
27328.04302
26172.32366
27963.38486
28024.91953
28888.19622
29640.71772
26956.32415
24341.74821
26344.07045
30849.58737
30186.67217
28562.37871
31065.76742
29901.50151
28934.73213
30543.06903
28841.9854
30886.88495
31039.61615
34445.08985
32721.96299
35072.27056
32281.66739
32218.18894
33116.84401
32302.54644
34770.16946
32085.17554
34183.80806
40601.79553
40374.17365
38022.17038
34428.06109
36835.27709
36565.06023
34233.89369
36018.67264
33887.85313
35513.88216
43808.19768
45153.49285
43428.7546
39851.57747
42867.92431
39788.01316
39996.62035
36031.31065
38286.50685
39285.04762
50658.58917
50729.75542
50036.8079
48915.27718
46446.11703
49214.89713
42133.50655
40803.24832
43708.65047
41914.26985
57605.6381
56267.31527
61717.95338
54485.95408
54206.13881
49261.36988
51092.17523
52136.87719
50759.69523
47244.76761
64312.49037
64948.79524
65625.79061
60418.47346
62469.12246
61349.80242
59371.64873
58291.6308
48497.47259
53936.74884
75327.51231
74667.5958
72151.05084
68233.11033
66485.67008
66657.63538
62665.16317
63733.19388
61305.29612
59991.64281
75264.02452
78333.99116
78128.18918
76994.80096
77387.87798
73136.91347
72275.58927
73586.95754
71102.25861
69821.30857
81574.37689
79069.82908
78049.96568
81896.50301
80464.25681
75880.25789
78771.36278
75737.18249
73614.03907
74409.97323
86085.83529
84861.947
90333.35384
86048.1152
83804.52917
79851.50797
84968.45552
82206.43653
79001.70874
77502.99816
95408.51649
97722.87919
91389.35399
90079.82937
84850.78882
94796.11756
86407.7383
86925.10632
88556.8334
88419.16073
97226.24876
92661.68082
95573.83647
96042.62527
95200.08981
97066.7518
91665.83774
90306.08441
91392.44626
90393.91059
95627.14744
95139.56981
96206.41246
96299.59874
96504.21774
94015.6254
96803.68274
88682.62173
100254.6885
95034.56667
98224.23131
94406.36108
96719.3904
96550.64853
91988.11678
93769.00201
91249.95305
97247.55076
93817.50765
97970.32594
4664.365043
6463.016286
5897.597415
6517.934201
6248.417277
6577.081761
6399.686017
6064.474158
6399.092282
7863.471995
7126.231342
7026.633366
6661.288753
8079.515736
6955.786223
7962.259617
7830.088665
7087.673434
8222.857749
7328.562037
8193.525374
8236.430305
8409.912057
8354.938278
8093.603566
8560.143902
8891.23003
8409.543178
8273.675607
8430.748897
5525.737595
9006.027297
8529.644746
8659.391721
9002.004329
8640.763713
7976.02123
9993.22144
10880.53867
10397.26882
11017.79544
10964.91863
10422.008
9966.484235
10703.51501
10840.49552
10882.26445
10591.6941
12101.4715
10711.91168
11706.7105
12118.10567
11910.25698
12844.09336
11817.05696
13729.62965
11723.79396
12915.08034
12817.69756
11664.02542
5374.905815
8667.343565
8064.827462
8740.08981
9863.111449
8907.876583
10396.59498
9679.035333
9735.434664
10502.62604
10897.97833
11029.11214
10527.12222
11629.34004
12143.35081
12014.66299
11677.52254
11710.0282
12934.04708
11161.2839
12874.80945
12557.99041
14304.88376
11933.8056
12263.88454
13563.29215
12770.03472
13144.78549
13345.56566
10857.37434
5182.04999
8218.715182
8109.906555
8652.426492
9305.465759
8989.887537
9425.764141
10629.38394
10114.01296
10554.39147
11951.4413
10219.83579
11209.46229
10524.23418
11588.96274
13514.67507
12042.60943
12151.02651
12208.36367
13313.05056
13997.27444
13961.71093
14649.07594
14614.3525
13382.17795
13624.57317
15595.67686
14249.21832
15379.90048
12970.6539
4874.781328
7840.855116
7832.824896
8346.182549
9601.516778
9667.496924
9058.023905
9754.498889
9291.707278
11915.78381
10398.61665
10796.29502
12391.30789
10838.27616
12705.52285
13397.84151
13176.62851
12015.83154
13309.00819
13046.68707
12781.87244
13288.8909
14025.10676
15052.80766
15549.1157
15112.42963
14999.33077
14867.70477
15884.09437
14532.00274
5101.54699
7792.713951
7309.265173
9026.685009
8766.477631
9270.052539
9144.469076
10978.1939
10856.24438
11549.75875
10217.39588
10720.24509
11372.88854
10656.31695
12936.35395
12963.64721
12814.55226
15009.23755
15050.47247
13646.7992
15688.89597
14749.78176
15218.33894
14637.41459
16064.03447
17371.25374
14797.06314
17247.59827
17257.42259
15123.88741
4812.411717
7716.297327
7897.929959
9210.680386
9033.97791
9955.657214
9440.800322
10020.68272
9993.930447
10155.03821
11440.96979
12215.03029
11789.24693
12514.65666
12435.17468
13830.03118
13589.99193
14458.99819
13214.28774
15121.90234
16919.66328
14857.98381
15741.0274
16546.55232
17572.55647
15949.53038
17712.47098
17343.37499
18982.54211
16112.44255
5237.103414
7889.22748
7932.701371
8831.878436
9450.508134
9728.040749
10324.33923
9576.653662
11864.6374
11473.75594
12030.6039
10977.96225
12638.86144
11296.1112
14215.14508
12317.04266
13362.69033
14197.99975
13118.13373
16318.05261
15106.85611
16401.07867
16293.41451
18207.31713
17548.43966
16603.73002
16742.22112
19386.36038
18524.34316
16103.00134
5013.777437
8793.337078
8896.31467
9628.372445
9041.683082
11589.63769
12023.66092
12449.29541
12000.31242
13464.56915
12725.81288
12106.68368
13967.78143
12736.0162
14579.13394
15502.95263
15251.75853
16045.55143
16215.46636
15866.39666
17152.68918
16483.43668
17368.16204
18457.14903
16427.807
18506.77685
18188.65634
18974.97789
20092.2726
18820.44735
5387.4097
10385.78785
10196.47188
11276.73797
12441.483
13555.52047
12289.74049
13174.15171
13820.22681
12953.81417
14810.34706
14344.66951
14794.18561
17011.71945
14140.48951
14818.41464
15606.80054
15769.14975
15356.60473
17458.52428
18149.08855
16486.46611
17741.45174
18354.2399
19605.83149
17855.13417
18407.06937
19913.29957
20540.25128
17169.45992
)
;

boundaryField
{
    inlet
    {
        type            calculated;
        value           nonuniform List<scalar> 
20
(
1724.756749
2918.590514
1623.142094
1164.16509
621.4990698
577.7801402
401.2913027
391.9724116
181.4518025
195.2469975
169.1207087
141.3237794
96.94517488
131.0161454
67.51145365
103.4115338
142.3152825
41.1684141
48.24679012
44.4439237
)
;
    }
    outlet
    {
        type            calculated;
        value           nonuniform List<scalar> 
70
(
8570.140237
13673.32534
16176.22938
22334.503
26344.07045
31039.61615
34183.80806
35513.88216
39285.04762
41914.26985
47244.76761
53936.74884
59991.64281
69821.30857
74409.97323
77502.99816
88419.16073
90393.91059
95034.56667
97970.32594
44.4439237
269.1645274
25670.97204
160654.5303
88873.20844
31143.8752
68110.4648
109005.9046
85128.2926
67208.45198
78473.31694
85554.13962
79880.79607
80270.35068
83419.46115
79802.4402
79579.00732
77831.43594
80803.61087
76259.56849
77731.67266
76100.75707
80179.10702
82017.82991
77590.69457
81285.74764
84639.90718
78604.21262
84144.20043
81459.28942
86397.06014
84810.62788
85919.95695
86806.31737
91687.69938
90987.62643
88724.08136
92662.37407
92916.94409
97711.39897
98224.23131
94406.36108
96719.3904
96550.64853
91988.11678
93769.00201
91249.95305
97247.55076
93817.50765
97970.32594
)
;
    }
    wall
    {
        type            calculated;
        value           uniform 0;
    }
    frontAndBack
    {
        type            empty;
    }
}


// ************************************************************************* //
