/*--------------------------------*- C++ -*----------------------------------*\
| =========                 |                                                 |
| \\      /  F ield         | OpenFOAM: The Open Source CFD Toolbox           |
|  \\    /   O peration     | Version:  v1912                                 |
|   \\  /    A nd           | Website:  www.openfoam.com                      |
|    \\/     M anipulation  |                                                 |
\*---------------------------------------------------------------------------*/
FoamFile
{
    version     2.0;
    format      ascii;
    class       volScalarField;
    location    "9.2";
    object      T;
}
// * * * * * * * * * * * * * * * * * * * * * * * * * * * * * * * * * * * * * //

dimensions      [0 0 0 1 0 0 0];


internalField   nonuniform List<scalar> 
1900
(
0.198195
0.949347
1.01729
0.99204
0.960642
0.943708
0.940564
0.941275
0.945104
0.94842
0.198181
0.949346
1.01729
0.992037
0.960639
0.943711
0.940607
0.941251
0.944665
0.948322
0.198171
0.949346
1.01729
0.992035
0.960641
0.943724
0.940641
0.941254
0.943727
0.947792
0.198181
0.949346
1.01729
0.992037
0.960639
0.943711
0.940607
0.941251
0.944665
0.948322
0.198195
0.949347
1.01729
0.99204
0.960642
0.943708
0.940564
0.941275
0.945104
0.94842
0.955286
0.951449
0.954849
0.963596
1.00332
0.950259
0.948472
0.950981
0.95823
0.985479
0.949124
0.947963
0.950374
0.958393
0.984176
0.950259
0.948472
0.950981
0.95823
0.985479
0.955286
0.951449
0.954849
0.963596
1.00332
0.795161
0.679994
0.61516
0.570115
0.536675
0.815269
0.696474
0.628231
0.583352
0.542948
0.815271
0.690877
0.621997
0.578533
0.533669
0.815269
0.696474
0.628231
0.583352
0.542948
0.795161
0.679994
0.61516
0.570115
0.536675
0.509508
0.495797
0.483771
0.478678
0.473066
0.466471
0.4583
0.449013
0.439648
0.430274
0.422958
0.418072
0.410303
0.403341
0.403797
0.414684
0.464999
0.505063
0.521162
0.5278
0.531064
0.53651
0.547169
0.556218
0.555704
0.547781
0.523917
0.600664
0.674054
0.644697
0.540981
0.472757
0.478501
0.487824
0.492622
0.493557
0.492582
0.490963
0.490128
0.490008
0.525357
0.535051
0.534005
0.526586
0.515391
0.503328
0.490849
0.478012
0.465757
0.45341
0.44379
0.437067
0.427671
0.418096
0.416806
0.427472
0.478361
0.517783
0.531503
0.536719
0.538413
0.542107
0.549988
0.557074
0.556968
0.547862
0.523233
0.600832
0.673959
0.644468
0.541442
0.472988
0.478634
0.487909
0.492659
0.493561
0.492558
0.490947
0.490103
0.489967
0.52589
0.534348
0.546504
0.5416
0.531615
0.519045
0.505272
0.490879
0.477158
0.463341
0.452608
0.444862
0.434819
0.424006
0.421595
0.432078
0.483104
0.522209
0.535343
0.539667
0.540985
0.543867
0.550906
0.55705
0.556252
0.546931
0.522732
0.600489
0.674132
0.644771
0.541736
0.473068
0.478679
0.487934
0.49266
0.493537
0.492501
0.49088
0.490032
0.489889
0.525357
0.535051
0.534005
0.526586
0.515391
0.503328
0.490849
0.478012
0.465757
0.45341
0.44379
0.437067
0.427671
0.418096
0.416806
0.427472
0.478361
0.517783
0.531503
0.536719
0.538413
0.542107
0.549988
0.557074
0.556968
0.547862
0.523233
0.600832
0.673959
0.644468
0.541442
0.472988
0.478634
0.487909
0.492659
0.493561
0.492558
0.490947
0.490103
0.489967
0.509508
0.495797
0.483771
0.478678
0.473066
0.466471
0.4583
0.449013
0.439648
0.430274
0.422958
0.418072
0.410303
0.403341
0.403797
0.414684
0.464999
0.505063
0.521162
0.5278
0.531064
0.53651
0.547169
0.556218
0.555704
0.547781
0.523917
0.600664
0.674054
0.644697
0.540981
0.472757
0.478501
0.487824
0.492622
0.493557
0.492582
0.490963
0.490128
0.490008
0.399254
0.393561
0.389475
0.388426
0.388642
0.389225
0.388896
0.387894
0.385913
0.382969
0.37994
0.377487
0.372364
0.368923
0.37036
0.380603
0.427595
0.469046
0.491197
0.50205
0.509397
0.520484
0.538337
0.553264
0.55449
0.549981
0.53024
0.606761
0.677304
0.646151
0.539664
0.472003
0.478088
0.487581
0.492568
0.493631
0.492815
0.491194
0.490286
0.490106
0.304584
0.30481
0.305356
0.305733
0.307006
0.309913
0.313776
0.318261
0.32234
0.325256
0.328176
0.33054
0.329563
0.329025
0.331205
0.340767
0.382029
0.423625
0.451843
0.468095
0.480803
0.499019
0.526286
0.548069
0.549743
0.541495
0.519227
0.599521
0.66974
0.637583
0.531389
0.47069
0.477486
0.487183
0.492396
0.493645
0.493077
0.491477
0.490432
0.490099
0.288172
0.287398
0.287081
0.28856
0.291651
0.293844
0.295628
0.297558
0.299625
0.301988
0.30515
0.308177
0.309674
0.310646
0.312617
0.321221
0.360671
0.402164
0.432101
0.450682
0.465725
0.487479
0.520073
0.544587
0.545518
0.535576
0.516509
0.601472
0.667333
0.628514
0.520512
0.471182
0.478295
0.487371
0.492284
0.493565
0.493182
0.491689
0.490582
0.490143
0.28811
0.288386
0.287978
0.286354
0.2857
0.286069
0.287005
0.288307
0.289478
0.290824
0.29291
0.294211
0.295766
0.299581
0.304491
0.317147
0.355664
0.388965
0.416016
0.435032
0.452494
0.478303
0.515045
0.536686
0.536432
0.524543
0.517004
0.61008
0.671892
0.624457
0.514523
0.475565
0.482209
0.490355
0.494186
0.494395
0.493332
0.491856
0.490761
0.490272
0.28924
0.289087
0.28856
0.288497
0.288738
0.289027
0.290144
0.290885
0.290232
0.290567
0.291537
0.291615
0.294259
0.29971
0.305651
0.321499
0.356546
0.384354
0.409676
0.430276
0.451064
0.480861
0.517227
0.53141
0.529489
0.514906
0.535061
0.64732
0.696236
0.632869
0.526431
0.497257
0.497902
0.499761
0.499593
0.498109
0.495037
0.492284
0.490979
0.490421
0.293176
0.293055
0.293004
0.293034
0.292754
0.292193
0.292243
0.292406
0.292411
0.292818
0.292392
0.292798
0.295903
0.302289
0.312046
0.333615
0.361292
0.385038
0.409546
0.43022
0.45324
0.488949
0.520894
0.528132
0.527866
0.520526
0.605282
0.709117
0.718333
0.636324
0.542628
0.526346
0.524682
0.522697
0.516439
0.507984
0.500031
0.494745
0.491619
0.490552
0.298769
0.298709
0.298851
0.298886
0.298587
0.298148
0.297691
0.296916
0.296811
0.296577
0.295412
0.297125
0.30181
0.30751
0.318694
0.341614
0.365371
0.387719
0.411289
0.433116
0.461702
0.502361
0.529322
0.537726
0.543923
0.571878
0.676421
0.741286
0.706471
0.61413
0.549832
0.543189
0.543076
0.54316
0.538391
0.52658
0.512163
0.500539
0.493726
0.491012
0.305035
0.305037
0.305242
0.305375
0.305223
0.304919
0.304453
0.303532
0.302898
0.30204
0.301278
0.303256
0.308277
0.315318
0.330155
0.350483
0.370606
0.39517
0.418357
0.443859
0.48793
0.527572
0.55807
0.582602
0.592613
0.623736
0.700263
0.732011
0.679297
0.588215
0.554424
0.551199
0.551381
0.552722
0.552236
0.543631
0.528091
0.51146
0.499171
0.493224
0.31272
0.312754
0.312922
0.312911
0.312758
0.31243
0.311667
0.310344
0.30973
0.309073
0.309488
0.312943
0.318829
0.328442
0.342785
0.362609
0.385474
0.411845
0.442625
0.49285
0.548968
0.593739
0.612468
0.614917
0.618392
0.648778
0.698112
0.702103
0.640236
0.568293
0.555643
0.554643
0.554757
0.556539
0.557886
0.553554
0.540144
0.523181
0.50767
0.497882
0.323594
0.323629
0.323605
0.323373
0.322796
0.321925
0.320688
0.319023
0.318811
0.319515
0.322265
0.328753
0.338075
0.350368
0.367634
0.392962
0.426543
0.471098
0.531682
0.586204
0.61923
0.630764
0.629591
0.625122
0.624323
0.649459
0.684302
0.662598
0.596952
0.558382
0.555226
0.555195
0.555168
0.556496
0.55811
0.55682
0.546535
0.531113
0.516567
0.50479
0.336991
0.336932
0.336485
0.335591
0.334439
0.333697
0.334558
0.336964
0.340343
0.34769
0.36092
0.377303
0.395195
0.417082
0.445778
0.486705
0.536475
0.582672
0.616545
0.633512
0.634513
0.633469
0.629999
0.625301
0.624271
0.641326
0.656974
0.617877
0.567353
0.556036
0.555451
0.555682
0.555574
0.55637
0.557905
0.557918
0.550339
0.536579
0.523407
0.51303
0.353842
0.353577
0.353564
0.355021
0.359009
0.365935
0.375933
0.390435
0.408691
0.42953
0.452743
0.478667
0.507368
0.538565
0.570102
0.599116
0.620561
0.629479
0.632853
0.632059
0.633126
0.633422
0.629853
0.623121
0.619453
0.626476
0.616533
0.576975
0.556713
0.555616
0.55593
0.555983
0.555576
0.555744
0.557313
0.558426
0.553237
0.541469
0.529417
0.52061
0.383168
0.38409
0.387888
0.398851
0.416067
0.438043
0.463029
0.489369
0.517235
0.543175
0.566685
0.587571
0.605477
0.619557
0.630275
0.632517
0.632534
0.630413
0.63026
0.6325
0.63478
0.633283
0.626768
0.618733
0.608417
0.595548
0.572086
0.555583
0.55484
0.555807
0.556194
0.55586
0.555236
0.554802
0.555866
0.557383
0.55442
0.54567
0.535131
0.527403
0.432189
0.437969
0.451421
0.472669
0.498555
0.523973
0.546335
0.566711
0.584612
0.598893
0.609538
0.6185
0.627183
0.632025
0.6332
0.632214
0.6306
0.63133
0.633582
0.635595
0.634413
0.63075
0.623305
0.608658
0.582205
0.551298
0.542683
0.549691
0.556881
0.558152
0.557512
0.556428
0.555123
0.553974
0.553676
0.554601
0.553601
0.548348
0.540369
0.534066
0.494532
0.501683
0.514361
0.532804
0.552452
0.569389
0.581804
0.590848
0.597471
0.602497
0.609246
0.617791
0.624792
0.62815
0.629918
0.631698
0.633831
0.63629
0.637741
0.636687
0.63372
0.626734
0.611443
0.581305
0.539768
0.518547
0.529266
0.547173
0.558068
0.560109
0.559047
0.557855
0.556264
0.55393
0.55203
0.551283
0.550764
0.548166
0.543
0.538274
0.532766
0.535553
0.544953
0.557872
0.566921
0.571611
0.575896
0.579893
0.585227
0.591514
0.599325
0.608089
0.616402
0.623627
0.62968
0.634775
0.638349
0.639903
0.639691
0.636725
0.627992
0.609657
0.576559
0.534699
0.509773
0.508469
0.518663
0.537245
0.551022
0.556806
0.557638
0.5581
0.557422
0.554914
0.551649
0.548486
0.546613
0.545436
0.542303
0.538639
0.534796
0.536689
0.543227
0.550519
0.554462
0.554935
0.556299
0.560288
0.566262
0.574102
0.583901
0.595044
0.607157
0.619254
0.629309
0.635846
0.638818
0.639006
0.635125
0.623717
0.600977
0.565391
0.52726
0.507186
0.501815
0.503044
0.50861
0.522115
0.536025
0.544454
0.548399
0.551529
0.553149
0.552932
0.550754
0.546693
0.5435
0.541933
0.540772
0.538679
0.52939
0.529232
0.530692
0.531825
0.532565
0.533523
0.537184
0.542689
0.549508
0.557699
0.567896
0.58034
0.594745
0.608947
0.620501
0.62753
0.62922
0.624093
0.609231
0.583328
0.549313
0.519034
0.505464
0.500176
0.498242
0.498418
0.501086
0.508052
0.51886
0.528132
0.53398
0.538807
0.542976
0.546524
0.547417
0.545145
0.541945
0.53874
0.538362
0.536943
0.525582
0.521514
0.517823
0.516357
0.517328
0.520143
0.523324
0.52738
0.532928
0.540031
0.549183
0.560597
0.574124
0.587466
0.597706
0.601537
0.597709
0.583304
0.559525
0.53221
0.512321
0.504067
0.49998
0.498044
0.496854
0.495986
0.496112
0.498779
0.504516
0.513129
0.520478
0.526637
0.531971
0.537959
0.541583
0.541536
0.540436
0.538097
0.536557
0.532798
0.526604
0.523789
0.518123
0.51445
0.512761
0.513107
0.513525
0.514388
0.516363
0.521174
0.530272
0.542365
0.555763
0.567681
0.574067
0.572023
0.559344
0.538446
0.518178
0.5074
0.502909
0.500058
0.49843
0.497179
0.49593
0.494688
0.4939
0.494345
0.497095
0.502275
0.509879
0.517571
0.524139
0.531202
0.53627
0.53755
0.538005
0.536463
0.532673
0.533013
0.526604
0.523789
0.518123
0.51445
0.512761
0.513107
0.513525
0.514388
0.516363
0.521174
0.530272
0.542365
0.555763
0.567681
0.574067
0.572023
0.559344
0.538446
0.518178
0.5074
0.502909
0.500058
0.49843
0.497179
0.49593
0.494688
0.4939
0.494345
0.497095
0.502275
0.509879
0.517571
0.524139
0.531202
0.53627
0.53755
0.538005
0.536463
0.532673
0.533013
0.525582
0.521514
0.517823
0.516357
0.517328
0.520143
0.523324
0.52738
0.532928
0.540031
0.549183
0.560597
0.574124
0.587466
0.597706
0.601537
0.597709
0.583304
0.559525
0.53221
0.512321
0.504067
0.49998
0.498044
0.496854
0.495986
0.496112
0.498779
0.504516
0.513129
0.520478
0.526637
0.531971
0.537959
0.541583
0.541536
0.540436
0.538097
0.536557
0.532798
0.52939
0.529232
0.530692
0.531825
0.532565
0.533523
0.537184
0.542689
0.549508
0.557699
0.567896
0.58034
0.594745
0.608947
0.620501
0.62753
0.62922
0.624093
0.609231
0.583328
0.549313
0.519034
0.505464
0.500176
0.498242
0.498418
0.501086
0.508052
0.51886
0.528132
0.53398
0.538807
0.542976
0.546524
0.547417
0.545145
0.541945
0.53874
0.538362
0.536943
0.534796
0.536689
0.543227
0.550519
0.554462
0.554935
0.556299
0.560288
0.566262
0.574102
0.583901
0.595044
0.607157
0.619254
0.629309
0.635846
0.638818
0.639006
0.635125
0.623717
0.600977
0.565391
0.52726
0.507186
0.501815
0.503044
0.50861
0.522115
0.536025
0.544454
0.548399
0.551529
0.553149
0.552932
0.550754
0.546693
0.5435
0.541933
0.540772
0.538679
0.532766
0.535553
0.544953
0.557872
0.566921
0.571611
0.575896
0.579893
0.585227
0.591514
0.599325
0.608089
0.616402
0.623627
0.62968
0.634775
0.638349
0.639903
0.639691
0.636725
0.627992
0.609657
0.576559
0.534699
0.509773
0.508469
0.518663
0.537245
0.551022
0.556806
0.557638
0.5581
0.557422
0.554914
0.551649
0.548486
0.546613
0.545436
0.542303
0.538639
0.494532
0.501683
0.514361
0.532804
0.552452
0.569389
0.581804
0.590848
0.597471
0.602497
0.609246
0.617791
0.624792
0.62815
0.629918
0.631698
0.633831
0.63629
0.637741
0.636687
0.63372
0.626734
0.611443
0.581305
0.539768
0.518547
0.529266
0.547173
0.558068
0.560109
0.559047
0.557855
0.556264
0.55393
0.55203
0.551283
0.550764
0.548166
0.543
0.538274
0.432189
0.437969
0.451421
0.472669
0.498555
0.523973
0.546335
0.566711
0.584612
0.598893
0.609538
0.6185
0.627183
0.632025
0.6332
0.632214
0.6306
0.63133
0.633582
0.635595
0.634413
0.63075
0.623305
0.608658
0.582205
0.551298
0.542683
0.549691
0.556881
0.558152
0.557512
0.556428
0.555123
0.553974
0.553676
0.554601
0.553601
0.548348
0.540369
0.534066
0.383168
0.38409
0.387888
0.398851
0.416067
0.438043
0.463029
0.489369
0.517235
0.543175
0.566685
0.587571
0.605477
0.619557
0.630275
0.632517
0.632534
0.630413
0.63026
0.6325
0.63478
0.633283
0.626768
0.618733
0.608417
0.595548
0.572086
0.555583
0.55484
0.555807
0.556194
0.55586
0.555236
0.554802
0.555866
0.557383
0.55442
0.54567
0.535131
0.527403
0.353842
0.353577
0.353564
0.355021
0.359009
0.365935
0.375933
0.390435
0.408691
0.42953
0.452743
0.478667
0.507368
0.538565
0.570102
0.599116
0.620561
0.629479
0.632853
0.632059
0.633126
0.633422
0.629853
0.623121
0.619453
0.626476
0.616533
0.576975
0.556713
0.555616
0.55593
0.555983
0.555576
0.555744
0.557313
0.558426
0.553237
0.541469
0.529417
0.52061
0.336991
0.336932
0.336485
0.335591
0.334439
0.333697
0.334558
0.336964
0.340343
0.34769
0.36092
0.377303
0.395195
0.417082
0.445778
0.486705
0.536475
0.582672
0.616545
0.633512
0.634513
0.633469
0.629999
0.625301
0.624271
0.641326
0.656974
0.617877
0.567353
0.556036
0.555451
0.555682
0.555574
0.55637
0.557905
0.557918
0.550339
0.536579
0.523407
0.51303
0.323594
0.323629
0.323605
0.323373
0.322796
0.321925
0.320688
0.319023
0.318811
0.319515
0.322265
0.328753
0.338075
0.350368
0.367634
0.392962
0.426543
0.471098
0.531682
0.586204
0.61923
0.630764
0.629591
0.625122
0.624323
0.649459
0.684302
0.662598
0.596952
0.558382
0.555226
0.555195
0.555168
0.556496
0.55811
0.55682
0.546535
0.531113
0.516567
0.50479
0.31272
0.312754
0.312922
0.312911
0.312758
0.31243
0.311667
0.310344
0.30973
0.309073
0.309488
0.312943
0.318829
0.328442
0.342785
0.362609
0.385474
0.411845
0.442625
0.49285
0.548968
0.593739
0.612468
0.614917
0.618392
0.648778
0.698112
0.702103
0.640236
0.568293
0.555643
0.554643
0.554757
0.556539
0.557886
0.553554
0.540144
0.523181
0.50767
0.497882
0.305035
0.305037
0.305242
0.305375
0.305223
0.304919
0.304453
0.303532
0.302898
0.30204
0.301278
0.303256
0.308277
0.315318
0.330155
0.350483
0.370606
0.39517
0.418357
0.443859
0.48793
0.527572
0.55807
0.582602
0.592613
0.623736
0.700263
0.732011
0.679297
0.588215
0.554424
0.551199
0.551381
0.552722
0.552236
0.543631
0.528091
0.51146
0.499171
0.493224
0.298769
0.298709
0.298851
0.298886
0.298587
0.298148
0.297691
0.296916
0.296811
0.296577
0.295412
0.297125
0.30181
0.30751
0.318694
0.341614
0.365371
0.387719
0.411289
0.433116
0.461702
0.502361
0.529322
0.537726
0.543923
0.571878
0.676421
0.741286
0.706471
0.61413
0.549832
0.543189
0.543076
0.54316
0.538391
0.52658
0.512163
0.500539
0.493726
0.491012
0.293176
0.293055
0.293004
0.293034
0.292754
0.292193
0.292243
0.292406
0.292411
0.292818
0.292392
0.292798
0.295903
0.302289
0.312046
0.333615
0.361292
0.385038
0.409546
0.43022
0.45324
0.488949
0.520894
0.528132
0.527866
0.520526
0.605282
0.709117
0.718333
0.636324
0.542628
0.526346
0.524682
0.522697
0.516439
0.507984
0.500031
0.494745
0.491619
0.490552
0.28924
0.289087
0.28856
0.288497
0.288738
0.289027
0.290144
0.290885
0.290232
0.290567
0.291537
0.291615
0.294259
0.29971
0.305651
0.321499
0.356546
0.384354
0.409676
0.430276
0.451064
0.480861
0.517227
0.53141
0.529489
0.514906
0.535061
0.64732
0.696236
0.632869
0.526431
0.497257
0.497902
0.499761
0.499593
0.498109
0.495037
0.492284
0.490979
0.490421
0.28811
0.288386
0.287978
0.286354
0.2857
0.286069
0.287005
0.288307
0.289478
0.290824
0.29291
0.294211
0.295766
0.299581
0.304491
0.317147
0.355664
0.388965
0.416016
0.435032
0.452494
0.478303
0.515045
0.536686
0.536432
0.524543
0.517004
0.61008
0.671892
0.624457
0.514523
0.475565
0.482209
0.490355
0.494186
0.494395
0.493332
0.491856
0.490761
0.490272
0.288172
0.287398
0.287081
0.28856
0.291651
0.293844
0.295628
0.297558
0.299625
0.301988
0.30515
0.308177
0.309674
0.310646
0.312617
0.321221
0.360671
0.402164
0.432101
0.450682
0.465725
0.487479
0.520073
0.544587
0.545518
0.535576
0.516509
0.601472
0.667333
0.628514
0.520512
0.471182
0.478295
0.487371
0.492284
0.493565
0.493182
0.491689
0.490582
0.490143
0.304584
0.30481
0.305356
0.305733
0.307006
0.309913
0.313776
0.318261
0.32234
0.325256
0.328176
0.33054
0.329563
0.329025
0.331205
0.340767
0.382029
0.423625
0.451843
0.468095
0.480803
0.499019
0.526286
0.548069
0.549743
0.541495
0.519227
0.599521
0.66974
0.637583
0.531389
0.47069
0.477486
0.487183
0.492396
0.493645
0.493077
0.491477
0.490432
0.490099
0.399254
0.393561
0.389475
0.388426
0.388642
0.389225
0.388896
0.387894
0.385913
0.382969
0.37994
0.377487
0.372364
0.368923
0.37036
0.380603
0.427595
0.469046
0.491197
0.50205
0.509397
0.520484
0.538337
0.553264
0.55449
0.549981
0.53024
0.606761
0.677304
0.646151
0.539664
0.472003
0.478088
0.487581
0.492568
0.493631
0.492815
0.491194
0.490286
0.490106
)
;

boundaryField
{
    inlet
    {
        type            fixedValue;
        value           uniform 1;
    }
    outlet
    {
        type            zeroGradient;
    }
    obstacle
    {
        type            zeroGradient;
    }
    empty
    {
        type            empty;
    }
}


// ************************************************************************* //
