/*--------------------------------*- C++ -*----------------------------------*\
| =========                 |                                                 |
| \\      /  F ield         | OpenFOAM: The Open Source CFD Toolbox           |
|  \\    /   O peration     | Version:  v1912                                 |
|   \\  /    A nd           | Website:  www.openfoam.com                      |
|    \\/     M anipulation  |                                                 |
\*---------------------------------------------------------------------------*/
FoamFile
{
    version     2.0;
    format      ascii;
    class       volScalarField;
    location    "2.96";
    object      rho;
}
// * * * * * * * * * * * * * * * * * * * * * * * * * * * * * * * * * * * * * //

dimensions      [1 -3 0 0 0 0 0];


internalField   nonuniform List<scalar> 
1900
(
22863.3
15867.4
15163.1
15186.9
15230.1
15294.4
15363.4
15432.1
15478.3
15540.6
22863.3
15867.4
15163.1
15186.8
15230.1
15293.9
15360.6
15418.9
15451.2
15487.2
22863.3
15867.4
15163.1
15186.5
15229.4
15292.7
15360.5
15424
15465.9
15479
22863.3
15867.4
15163.1
15186.8
15230.1
15293.9
15360.6
15418.9
15451.2
15487.2
22863.3
15867.4
15163.1
15186.9
15230.1
15294.4
15363.4
15432.1
15478.3
15540.6
15384.7
15396.1
15284.6
14890.7
13261
15464.1
15468.6
15322.6
15119.4
14382.6
15437.9
15409.1
15247.7
14972.2
14178.1
15464.1
15468.6
15322.6
15119.4
14382.6
15384.7
15396.1
15284.6
14890.7
13261
16901.3
17466.6
18264.9
18819.3
19343.5
16757.4
17459.7
18331.1
18839.6
18704.7
16764
17482.6
18269.2
18686.3
17998.4
16757.4
17459.7
18331.1
18839.6
18704.7
16901.3
17466.6
18264.9
18819.3
19343.5
17044.1
8204.68
8091.61
8137.69
7911.91
7737.95
7709.1
7746.01
7809.43
7922.19
8070.5
8251.75
8463.99
8701.12
8947.99
9181.3
9375.62
9516.61
9595.37
9639.22
9632.38
9573.78
9479.79
9321.25
9106.57
8847.62
8566.26
8282.05
8007.82
7749.96
7510.91
7290.89
7087.6
6897.58
6718.88
6567.08
6447.96
6389.73
6835.19
47663.9
15773.5
8423.24
8315.16
8183.02
7935.16
7747.86
7717.04
7752.1
7815.04
7926.77
8075.07
8256.23
8468.41
8705.47
8952.25
9185.45
9379.67
9520.55
9599.25
9643.05
9636.21
9577.65
9483.72
9325.26
9110.65
8851.74
8570.38
8286.14
8011.86
7753.96
7514.89
7294.88
7091.64
6901.64
6722.92
6571.15
6451.67
6394.65
6851.31
47832.5
15111.9
8933.53
8437.51
8220.29
7949.6
7753.36
7721.1
7755.41
7817.85
7929.2
8077.37
8258.39
8470.46
8707.43
8954.12
9187.24
9381.38
9522.2
9600.86
9644.64
9637.8
9579.27
9485.37
9326.96
9112.41
8853.57
8572.28
8288.1
8013.9
7756.09
7517.13
7297.26
7094.2
6904.38
6725.82
6574.28
6454.82
6398.36
6858.28
48209.3
15773.5
8423.24
8315.16
8183.02
7935.16
7747.86
7717.04
7752.1
7815.04
7926.77
8075.07
8256.23
8468.41
8705.47
8952.25
9185.45
9379.67
9520.55
9599.25
9643.05
9636.21
9577.65
9483.72
9325.26
9110.65
8851.74
8570.38
8286.14
8011.86
7753.96
7514.89
7294.88
7091.64
6901.64
6722.92
6571.15
6451.67
6394.65
6851.31
47832.5
17044.1
8204.68
8091.61
8137.69
7911.91
7737.95
7709.1
7746.01
7809.43
7922.19
8070.5
8251.75
8463.99
8701.12
8947.99
9181.3
9375.62
9516.61
9595.37
9639.22
9632.38
9573.78
9479.79
9321.25
9106.57
8847.62
8566.26
8282.05
8007.82
7749.96
7510.91
7290.89
7087.6
6897.58
6718.88
6567.08
6447.96
6389.73
6835.19
47663.9
24987.3
7511.25
7721.64
7877.77
7784.7
7678.25
7665.23
7708.7
7778.99
7895.87
8044.84
8226.75
8439.49
8677.11
8924.47
9158.26
9353.05
9494.5
9573.56
9617.69
9610.84
9552
9457.78
9298.92
9084
8824.92
8543.58
8259.51
7985.46
7727.74
7488.74
7268.66
7065.14
6875.13
6696.72
6545.17
6426.97
6364.15
6757.91
46925.8
30893.2
6690.78
7239.49
7427.23
7500.78
7499.09
7529.62
7590.8
7682.77
7806.47
7958.7
8142.86
8357.58
8597.09
8846.33
9082.02
9278.69
9421.83
9502.09
9547.11
9540.25
9480.64
9385.42
9225.3
9009.17
8749.15
8467.19
8182.75
7908.3
7649.93
7409.82
7188.11
6982.62
6790.27
6611.41
6457.69
6338.5
6267.71
6570.9
45266.9
32986.3
6330.97
6790.39
7048.78
7187.82
7257.1
7329.82
7417.54
7523.74
7656.69
7813.67
8000.96
8218.22
8460
8711.47
8949.51
9148.56
9293.89
9375.75
9421.96
9415.04
9354.35
9257.82
9096.14
8878.71
8617.87
8335.72
8051.42
7777.17
7518.46
7277.47
7054.11
6846.72
6651.88
6473.38
6316.69
6194.96
6116.12
6304.69
43074.1
35101.8
6102.82
6455.37
6710.01
6864.44
6978.41
7079.74
7189.47
7308.33
7447.72
7609.15
7799.17
8018.6
8261.88
8514.94
8754.85
8956.13
9103.7
9187.29
9234.81
9227.81
9165.98
9068.08
8905
8686.64
8425.78
8144.43
7861.69
7588.7
7331.14
7090.41
6866.64
6659.34
6463.99
6287.94
6130.1
6005.87
5920.2
6002.42
40698.1
33343.1
5852.14
6138.62
6374.81
6544.31
6684.58
6804.03
6926.64
7053.2
7196.13
7360.31
7551.97
7771.7
8014.86
8267.42
8507.61
8709.9
8858.97
8943.92
8992.59
8985.52
8922.8
8823.95
8660.29
8442.28
8183
7904.82
7625.55
7356.91
7102.38
6864.92
6643.62
6439.46
6247.19
6076.16
5919.97
5792.91
5700.56
5708.34
38254.3
32573.3
5613.51
5837.22
6065.55
6245.04
6394.48
6523.59
6651.84
6781.52
6926.15
7091.93
7283.47
7502.66
7743.17
7993.45
8231.78
8433.6
8583.07
8668.8
8718.4
8711.38
8648.2
8549.19
8386.19
8170.06
7914.67
7641.45
7369.13
7106.02
6858.4
6626
6409.46
6211.57
6024.86
5859.75
5706.82
5576.97
5474.14
5455.96
35713.7
31552.7
5389.24
5562.36
5782.73
5968.76
6119.74
6251.63
6380.32
6510.6
6655.94
6822.3
7014.51
7230.8
7468.67
7714.61
7950.16
8150.27
8299.4
8385.4
8435.8
8429.01
8365.79
8267.38
8105.95
7893.07
7642.38
7376.63
7110.85
6857.12
6615.11
6390.19
6179.76
5988.26
5808.08
5649.15
5499.09
5365.67
5254.34
5225.88
33250.1
30048.6
5172.19
5311.3
5521.49
5710.22
5859.67
5991.51
6117.91
6247.95
6394.52
6562.73
6753.48
6969.26
7202.16
7444.69
7676.48
7874.93
8023.44
8109.63
8160.94
8154.57
8091.5
7993.98
7834.49
7624.72
7379.85
7120.03
6863.89
6615.68
6382.94
6163.59
5957.93
5774.16
5599.5
5444.78
5296.31
5160.14
5041.43
5008.26
30730.9
28510.2
4967.88
5089.31
5286.05
5471.96
5617.5
5746.89
5869.13
5999.01
6146.05
6315.25
6507.25
6719.15
6949.92
7187.45
7416.7
7613.42
7761.81
7848.41
7900.96
7895.17
7832.13
7735.41
7577.32
7370.69
7129.93
6877.89
6627.02
6388.71
6160.38
5947.93
5748.61
5569.85
5401
5251.03
5104.01
4965.99
4842.29
4803.86
28353.4
26746.8
4771.79
4876.94
5061.52
5240.08
5381.94
5509.63
5630
5759.99
5910.58
6080.77
6272.7
6484.01
6710.49
6945.15
7171.39
7367.42
7516.14
7603.66
7657.85
7652.77
7589.51
7493.15
7335.96
7131.14
6894.92
6647.59
6404.61
6170.95
5949.06
5742.74
5545.4
5373.68
5208.43
5060.94
4914.27
4774.84
4647.04
4606.68
25942.2
24929.9
4588.68
4687.64
4864.1
5030.77
5169.18
5294.53
5412.18
5543.62
5691.77
5864.51
6054.35
6263.7
6486.59
6717.42
6941.36
7136.93
7286.68
7375.61
7431.86
7427.57
7363.77
7267.35
7110.27
6906.93
6674.11
6432.44
6195.39
5967.93
5752.53
5550.87
5360.85
5193.08
5032.88
4888.98
4743.33
4603.3
4472.64
4427.11
23711.2
22981.9
4414.69
4502.37
4672.06
4825.33
4961.38
5084.57
5202.42
5334.88
5485.91
5658.24
5849.63
6055.9
6276.31
6503.49
6725.7
6921.46
7072.93
7163.78
7222.46
7219.04
7154.36
7057.37
6899.66
6697.09
6467.01
6230.56
5998.08
5777.46
5564.33
5369.72
5181.78
5019.67
4862.35
4720.33
4574
4433.04
4300.75
4254.3
21496
21067.8
4251.15
4333.17
4497.36
4644.08
4779.22
4900.39
5019.3
5154
5304.67
5477.52
5665.8
5868.63
6083.51
6305.86
6524.61
6719.81
6872.8
6965.81
7027.18
7024.61
6958.75
6860.93
6702.76
6501.62
6275.95
6045.49
5820.39
5605.8
5399.41
5209.49
5026.88
4867.58
4713.1
4571.94
4425.23
4282.99
4148.39
4097.14
19464.5
19118.8
4099.5
4172.43
4328.01
4467.52
4601.98
4721.13
4842.06
4978.84
5129.95
5303.46
5489.04
5689.37
5899.43
6117.65
6333.7
6529.17
6684.32
6779.74
6843.79
6842.02
6774.84
6675.86
6516.58
6316.17
6094.22
5869.33
5650.52
5441.65
5240.11
5055.25
4875.53
4719.35
4566.51
4425.12
4277.04
4133.84
3998.94
3946.85
17472.6
17280.8
3952.31
4017.53
4163.01
4299.05
4432.31
4553.69
4677.39
4818.83
4971.34
5147.08
5331.26
5530.14
5736.82
5951.18
6163.58
6356.86
6511.32
6607.13
6672.83
6671.75
6604.02
6505.74
6348.07
6150.84
5933.46
5713.83
5499.4
5294.83
5096.07
4914.4
4736.45
4581.41
4428.34
4285.41
4136.44
3993.07
3858.52
3804.69
15687.5
15407.3
3811.26
3866.88
3998.73
4128.25
4259.92
4382.68
4512.38
4659.47
4815.46
4995.19
5180.77
5380.56
5586.85
5800.12
6012.85
6208.17
6366.11
6464.69
6532.88
6532.34
6463.01
6362.89
6202.7
6004.51
5787.9
5570.7
5357.75
5154.67
4955.7
4774.56
4595.82
4439.97
4284.79
4140.63
3991.94
3850.39
3719.61
3668.81
13932
13866.4
3691.58
3724.76
3836.95
3960.97
4092.28
4220.99
4357.79
4510.09
4671.97
4854.66
5044.88
5249.11
5460.78
5678.91
5894.75
6093.35
6254.98
6355.9
6424.74
6424.58
6355.23
6253.52
6090.49
5890.03
5671.33
5450.37
5233.18
5027.2
4825.97
4644.13
4464.17
4306.5
4149.77
4004.75
3857.29
3719.27
3599.36
3563.28
12543.8
12158.5
3616.33
3617.46
3701.54
3818.08
3949.72
4083.59
4226.94
4382.95
4551.87
4737.15
4934.57
5145.14
5365.78
5592.95
5815.08
6019.74
6188.05
6295.62
6369.93
6369.98
6295.47
6187.44
6018.07
5811.85
5587.38
5358.4
5133.57
4921.83
4715.8
4530.88
4348.79
4188.43
4030.97
3885.48
3740.83
3612.54
3519.14
3513.17
11219.8
13446
3685.7
3610.32
3659.31
3762.29
3893.04
4031.3
4178.95
4340.99
4513.76
4703.69
4904.66
5121.15
5354.67
5626.77
5949.79
6289.82
6601.47
6820.34
6944.05
6944.08
6820.24
6601.13
6288.98
5948.35
5623.97
5349.44
5112.4
4894.99
4687.26
4497.72
4314.92
4149.74
3991.53
3843.99
3701.41
3587.01
3525.41
3589.07
12945.8
139519
13038
11540.8
12959.8
14443
16321.6
18224.7
20373.7
22558.5
24954.6
27352.2
29945.6
32499
35187.4
37791.8
40429.3
42940.5
45303.2
47193.8
48652.8
48653.4
47195
45305
42942.6
40431.5
37793.7
35190
32499.7
29945.6
27346.6
24946.7
22544.1
20351.6
18195.1
16275.9
14380.1
12867.7
11414
12814.6
137533
139519
13038
11540.8
12959.8
14443
16321.6
18224.7
20373.7
22558.5
24954.6
27352.2
29945.6
32499
35187.4
37791.8
40429.3
42940.5
45303.2
47193.8
48652.8
48653.4
47195
45305
42942.6
40431.5
37793.7
35190
32499.7
29945.6
27346.6
24946.7
22544.1
20351.6
18195.1
16275.9
14380.1
12867.7
11414
12814.6
137533
13446
3685.7
3610.32
3659.31
3762.29
3893.04
4031.3
4178.95
4340.99
4513.76
4703.69
4904.66
5121.15
5354.67
5626.77
5949.79
6289.82
6601.47
6820.34
6944.05
6944.08
6820.24
6601.13
6288.98
5948.35
5623.97
5349.44
5112.4
4894.99
4687.26
4497.72
4314.92
4149.74
3991.53
3843.99
3701.41
3587.01
3525.41
3589.07
12945.8
12158.5
3616.33
3617.46
3701.54
3818.08
3949.72
4083.59
4226.94
4382.95
4551.87
4737.15
4934.57
5145.14
5365.78
5592.95
5815.08
6019.74
6188.05
6295.62
6369.93
6369.98
6295.47
6187.44
6018.07
5811.85
5587.38
5358.4
5133.57
4921.83
4715.8
4530.88
4348.79
4188.43
4030.97
3885.48
3740.83
3612.54
3519.14
3513.17
11219.8
13866.4
3691.58
3724.76
3836.95
3960.97
4092.28
4220.99
4357.79
4510.09
4671.97
4854.66
5044.88
5249.11
5460.78
5678.91
5894.75
6093.35
6254.98
6355.9
6424.74
6424.58
6355.23
6253.52
6090.49
5890.03
5671.33
5450.37
5233.18
5027.2
4825.97
4644.13
4464.17
4306.5
4149.77
4004.75
3857.29
3719.27
3599.36
3563.28
12543.8
15407.3
3811.26
3866.88
3998.73
4128.25
4259.92
4382.68
4512.38
4659.47
4815.46
4995.19
5180.77
5380.56
5586.85
5800.12
6012.85
6208.17
6366.11
6464.69
6532.88
6532.34
6463.01
6362.89
6202.7
6004.51
5787.9
5570.7
5357.75
5154.67
4955.7
4774.56
4595.82
4439.97
4284.79
4140.63
3991.94
3850.39
3719.61
3668.81
13932
17280.8
3952.31
4017.53
4163.01
4299.05
4432.31
4553.69
4677.39
4818.83
4971.34
5147.08
5331.26
5530.14
5736.82
5951.18
6163.58
6356.86
6511.32
6607.13
6672.83
6671.75
6604.02
6505.74
6348.07
6150.84
5933.46
5713.83
5499.4
5294.83
5096.07
4914.4
4736.45
4581.41
4428.34
4285.41
4136.44
3993.07
3858.52
3804.69
15687.5
19118.8
4099.5
4172.43
4328.01
4467.52
4601.98
4721.13
4842.06
4978.84
5129.95
5303.46
5489.04
5689.37
5899.43
6117.65
6333.7
6529.17
6684.32
6779.74
6843.79
6842.02
6774.84
6675.86
6516.58
6316.17
6094.22
5869.33
5650.52
5441.65
5240.11
5055.25
4875.53
4719.35
4566.51
4425.12
4277.04
4133.84
3998.94
3946.85
17472.6
21067.8
4251.15
4333.17
4497.36
4644.08
4779.22
4900.39
5019.3
5154
5304.67
5477.52
5665.8
5868.63
6083.51
6305.86
6524.61
6719.81
6872.8
6965.81
7027.18
7024.61
6958.75
6860.93
6702.76
6501.62
6275.95
6045.49
5820.39
5605.8
5399.41
5209.49
5026.88
4867.58
4713.1
4571.94
4425.23
4282.99
4148.39
4097.14
19464.5
22981.9
4414.69
4502.37
4672.06
4825.33
4961.38
5084.57
5202.42
5334.88
5485.91
5658.24
5849.63
6055.9
6276.31
6503.49
6725.7
6921.46
7072.93
7163.78
7222.46
7219.04
7154.36
7057.37
6899.66
6697.09
6467.01
6230.56
5998.08
5777.46
5564.33
5369.72
5181.78
5019.67
4862.35
4720.33
4574
4433.04
4300.75
4254.3
21496
24929.9
4588.68
4687.64
4864.1
5030.77
5169.18
5294.53
5412.18
5543.62
5691.77
5864.51
6054.35
6263.7
6486.59
6717.42
6941.36
7136.93
7286.68
7375.61
7431.86
7427.57
7363.77
7267.35
7110.27
6906.93
6674.11
6432.44
6195.39
5967.93
5752.53
5550.87
5360.85
5193.08
5032.88
4888.98
4743.33
4603.3
4472.64
4427.11
23711.2
26746.8
4771.79
4876.94
5061.52
5240.08
5381.94
5509.63
5630
5759.99
5910.58
6080.77
6272.7
6484.01
6710.49
6945.15
7171.39
7367.42
7516.14
7603.66
7657.85
7652.77
7589.51
7493.15
7335.96
7131.14
6894.92
6647.59
6404.61
6170.95
5949.06
5742.74
5545.4
5373.68
5208.43
5060.94
4914.27
4774.84
4647.04
4606.68
25942.2
28510.2
4967.88
5089.31
5286.05
5471.96
5617.5
5746.89
5869.13
5999.01
6146.05
6315.25
6507.25
6719.15
6949.92
7187.45
7416.7
7613.42
7761.81
7848.41
7900.96
7895.17
7832.13
7735.41
7577.32
7370.69
7129.93
6877.89
6627.02
6388.71
6160.38
5947.93
5748.61
5569.85
5401
5251.03
5104.01
4965.99
4842.29
4803.86
28353.4
30048.6
5172.19
5311.3
5521.49
5710.22
5859.67
5991.51
6117.91
6247.95
6394.52
6562.73
6753.48
6969.26
7202.16
7444.69
7676.48
7874.93
8023.44
8109.63
8160.94
8154.57
8091.5
7993.98
7834.49
7624.72
7379.85
7120.03
6863.89
6615.68
6382.94
6163.59
5957.93
5774.16
5599.5
5444.78
5296.31
5160.14
5041.43
5008.26
30730.9
31552.7
5389.24
5562.36
5782.73
5968.76
6119.74
6251.63
6380.32
6510.6
6655.94
6822.3
7014.51
7230.8
7468.67
7714.61
7950.16
8150.27
8299.4
8385.4
8435.8
8429.01
8365.79
8267.38
8105.95
7893.07
7642.38
7376.63
7110.85
6857.12
6615.11
6390.19
6179.76
5988.26
5808.08
5649.15
5499.09
5365.67
5254.34
5225.88
33250.1
32573.3
5613.51
5837.22
6065.55
6245.04
6394.48
6523.59
6651.84
6781.52
6926.15
7091.93
7283.47
7502.66
7743.17
7993.45
8231.78
8433.6
8583.07
8668.8
8718.4
8711.38
8648.2
8549.19
8386.19
8170.06
7914.67
7641.45
7369.13
7106.02
6858.4
6626
6409.46
6211.57
6024.86
5859.75
5706.82
5576.97
5474.14
5455.96
35713.7
33343.1
5852.14
6138.62
6374.81
6544.31
6684.58
6804.03
6926.64
7053.2
7196.13
7360.31
7551.97
7771.7
8014.86
8267.42
8507.61
8709.9
8858.97
8943.92
8992.59
8985.52
8922.8
8823.95
8660.29
8442.28
8183
7904.82
7625.55
7356.91
7102.38
6864.92
6643.62
6439.46
6247.19
6076.16
5919.97
5792.91
5700.56
5708.34
38254.3
35101.8
6102.82
6455.37
6710.01
6864.44
6978.41
7079.74
7189.47
7308.33
7447.72
7609.15
7799.17
8018.6
8261.88
8514.94
8754.85
8956.13
9103.7
9187.29
9234.81
9227.81
9165.98
9068.08
8905
8686.64
8425.78
8144.43
7861.69
7588.7
7331.14
7090.41
6866.64
6659.34
6463.99
6287.94
6130.1
6005.87
5920.2
6002.42
40698.1
32986.3
6330.97
6790.39
7048.78
7187.82
7257.1
7329.82
7417.54
7523.74
7656.69
7813.67
8000.96
8218.22
8460
8711.47
8949.51
9148.56
9293.89
9375.75
9421.96
9415.04
9354.35
9257.82
9096.14
8878.71
8617.87
8335.72
8051.42
7777.17
7518.46
7277.47
7054.11
6846.72
6651.88
6473.38
6316.69
6194.96
6116.12
6304.69
43074.1
30893.2
6690.78
7239.49
7427.23
7500.78
7499.09
7529.62
7590.8
7682.77
7806.47
7958.7
8142.86
8357.58
8597.09
8846.33
9082.02
9278.69
9421.83
9502.09
9547.11
9540.25
9480.64
9385.42
9225.3
9009.17
8749.15
8467.19
8182.75
7908.3
7649.93
7409.82
7188.11
6982.62
6790.27
6611.41
6457.69
6338.5
6267.71
6570.9
45266.9
24987.3
7511.25
7721.64
7877.77
7784.7
7678.25
7665.23
7708.7
7778.99
7895.87
8044.84
8226.75
8439.49
8677.11
8924.47
9158.26
9353.05
9494.5
9573.56
9617.69
9610.84
9552
9457.78
9298.92
9084
8824.92
8543.58
8259.51
7985.46
7727.74
7488.74
7268.66
7065.14
6875.13
6696.72
6545.17
6426.97
6364.15
6757.91
46925.8
)
;

boundaryField
{
    inlet
    {
        type            calculated;
        value           uniform 14000.1;
    }
    outlet
    {
        type            calculated;
        value           nonuniform List<scalar> 
165
(
2271.28
2596.22
2654.57
2627.75
2686
2712.58
2741.26
2777.4
2806.38
2837.46
2867.08
2899.19
2929.36
2959.71
2984.4
3010.15
3018.87
2982.7
3073.62
3590.94
3590.94
3129.85
2996.91
3034.28
3031.36
3000.71
2973.37
2937.47
2901.4
2859.71
2818.97
2773.82
2730.82
2685.17
2641.92
2597.62
2555.75
2516.22
2484.95
2459.25
2459.24
2484.93
2516.19
2555.7
2597.56
2641.86
2685.1
2730.8
2773.83
2819.17
2860.05
2902.06
2938.62
2975.11
3003.68
3035.45
3042.77
3006.56
3135.79
3602.56
2465.38
2493.19
2531.07
2571.95
2613.86
2657.7
2700.01
2744.47
2786.06
2829.68
2869.27
2909.28
2944.42
2979.21
3007
3037.7
3042.55
3006.74
3140.57
3602.56
2452.99
2450.28
2443.03
2450.28
2452.99
3602.56
3140.57
3006.74
3042.55
3037.7
3007
2979.21
2944.42
2909.28
2869.27
2829.68
2786.06
2744.47
2700.01
2657.7
2613.86
2571.95
2531.07
2493.19
2465.38
3590.94
3129.85
2996.91
3034.28
3031.36
3000.71
2973.37
2937.47
2901.4
2859.71
2818.97
2773.82
2730.82
2685.17
2641.92
2597.62
2555.75
2516.22
2484.95
2459.25
2459.24
2484.93
2516.19
2555.7
2597.56
2641.86
2685.1
2730.8
2773.83
2819.17
2860.05
2902.06
2938.62
2975.11
3003.68
3035.45
3042.77
3006.56
3135.79
3602.56
3590.94
3073.62
2982.7
3018.87
3010.15
2984.4
2959.71
2929.36
2899.19
2867.08
2837.46
2806.38
2777.4
2741.26
2712.58
2686
2627.75
2654.57
2596.22
2271.28
)
;
    }
    obstacle
    {
        type            calculated;
        value           nonuniform List<scalar> 
40
(
22863.3
15867.4
15163.1
15186.9
15230.1
15294.4
15363.4
15432.1
15478.3
15540.6
22863.3
15867.4
15163.1
15186.9
15230.1
15294.4
15363.4
15432.1
15478.3
15540.6
15384.7
15396.1
15284.6
14890.7
13261
15384.7
15396.1
15284.6
14890.7
13261
16901.3
17466.6
18264.9
18819.3
19343.5
16901.3
17466.6
18264.9
18819.3
19343.5
)
;
    }
    empty
    {
        type            empty;
    }
}


// ************************************************************************* //
