/*--------------------------------*- C++ -*----------------------------------*\
| =========                 |                                                 |
| \\      /  F ield         | OpenFOAM: The Open Source CFD Toolbox           |
|  \\    /   O peration     | Version:  v1912                                 |
|   \\  /    A nd           | Website:  www.openfoam.com                      |
|    \\/     M anipulation  |                                                 |
\*---------------------------------------------------------------------------*/
FoamFile
{
    version     2.0;
    format      ascii;
    class       volScalarField;
    location    "2.96";
    object      T;
}
// * * * * * * * * * * * * * * * * * * * * * * * * * * * * * * * * * * * * * //

dimensions      [0 0 0 1 0 0 0];


internalField   nonuniform List<scalar> 
1900
(
1.13652
1.02115
1.02628
1.03194
1.03457
1.03624
1.03792
1.04042
1.04376
1.04809
1.13652
1.02115
1.02628
1.03194
1.03457
1.03623
1.03781
1.03982
1.04227
1.04665
1.13652
1.02115
1.02628
1.03194
1.03456
1.0362
1.03778
1.03982
1.04253
1.04643
1.13652
1.02115
1.02628
1.03194
1.03457
1.03623
1.03781
1.03982
1.04227
1.04665
1.13652
1.02115
1.02628
1.03194
1.03457
1.03624
1.03792
1.04042
1.04376
1.04809
1.04651
1.0499
1.05053
1.03761
0.980927
1.0501
1.05279
1.05168
1.04386
1.00792
1.04958
1.05163
1.04935
1.03763
1.00041
1.0501
1.05279
1.05168
1.04386
1.00792
1.04651
1.0499
1.05053
1.03761
0.980927
1.02876
0.991339
0.970183
0.945205
0.906369
1.02245
0.989926
0.970773
0.95112
0.926749
1.02072
0.989748
0.969575
0.951057
0.930773
1.02245
0.989926
0.970773
0.95112
0.926749
1.02876
0.991339
0.970183
0.945205
0.906369
0.808492
0.735148
0.794751
0.81183
0.798057
0.78895
0.787718
0.789385
0.791989
0.796461
0.802342
0.809491
0.817753
0.826834
0.836129
0.844772
0.851875
0.856988
0.859852
0.86147
0.861229
0.859081
0.855663
0.849895
0.842013
0.832359
0.821674
0.810663
0.799821
0.789421
0.779595
0.770392
0.761759
0.753561
0.745611
0.738629
0.733911
0.730401
0.669682
0.570735
0.900642
0.77091
0.807876
0.81487
0.799648
0.789384
0.788023
0.789616
0.792207
0.796636
0.802515
0.809658
0.817914
0.82699
0.836279
0.844916
0.852013
0.857121
0.859982
0.861598
0.861357
0.859211
0.855796
0.850032
0.842155
0.832505
0.821823
0.810814
0.799974
0.789576
0.779752
0.770553
0.761925
0.753731
0.745784
0.738808
0.73407
0.730598
0.67003
0.571365
0.899903
0.79509
0.816962
0.817115
0.800504
0.789618
0.788184
0.789747
0.792319
0.796732
0.802604
0.80974
0.817991
0.827062
0.836346
0.844979
0.852072
0.857178
0.860037
0.861652
0.861411
0.859267
0.855853
0.850092
0.842217
0.832571
0.821893
0.810889
0.800053
0.789661
0.779843
0.770652
0.762033
0.753849
0.745911
0.738949
0.734211
0.730765
0.670401
0.573062
0.900642
0.77091
0.807876
0.81487
0.799648
0.789384
0.788023
0.789616
0.792207
0.796636
0.802515
0.809658
0.817914
0.82699
0.836279
0.844916
0.852013
0.857121
0.859982
0.861598
0.861357
0.859211
0.855796
0.850032
0.842155
0.832505
0.821823
0.810814
0.799974
0.789576
0.779752
0.770553
0.761925
0.753731
0.745784
0.738808
0.73407
0.730598
0.67003
0.571365
0.808492
0.735148
0.794751
0.81183
0.798057
0.78895
0.787718
0.789385
0.791989
0.796461
0.802342
0.809491
0.817753
0.826834
0.836129
0.844772
0.851875
0.856988
0.859852
0.86147
0.861229
0.859081
0.855663
0.849895
0.842013
0.832359
0.821674
0.810663
0.799821
0.789421
0.779595
0.770392
0.761759
0.753561
0.745611
0.738629
0.733911
0.730401
0.669682
0.570735
0.616395
0.687886
0.782813
0.798997
0.791866
0.786381
0.785956
0.787903
0.790766
0.795418
0.801344
0.808532
0.816827
0.825943
0.835272
0.843947
0.851078
0.856215
0.859093
0.860724
0.860482
0.858323
0.854892
0.849103
0.8412
0.831527
0.820825
0.809802
0.798949
0.788537
0.778695
0.769472
0.760812
0.752599
0.744642
0.737645
0.732976
0.729429
0.66935
0.567866
0.539248
0.687284
0.769303
0.777814
0.77925
0.7788
0.78035
0.783069
0.786824
0.7918
0.797908
0.805232
0.813653
0.822894
0.832347
0.84114
0.848375
0.8536
0.856536
0.858206
0.857963
0.855765
0.852282
0.846419
0.838432
0.828672
0.817889
0.806789
0.795856
0.785354
0.775404
0.76605
0.757244
0.748868
0.740825
0.733662
0.728936
0.725208
0.66543
0.561531
0.527394
0.684871
0.751715
0.760662
0.765655
0.768702
0.772045
0.775837
0.780232
0.785674
0.792053
0.799581
0.808189
0.81761
0.827238
0.8362
0.843587
0.848937
0.851955
0.853683
0.853435
0.85118
0.847619
0.84165
0.833544
0.823666
0.812776
0.801574
0.79054
0.779916
0.769822
0.760294
0.751303
0.742715
0.734586
0.727188
0.72229
0.718377
0.659616
0.553128
0.532778
0.675931
0.736205
0.745436
0.751615
0.756847
0.761429
0.766174
0.771194
0.777016
0.783689
0.791447
0.800271
0.809889
0.819714
0.828868
0.836436
0.841937
0.845056
0.846853
0.846599
0.844274
0.840619
0.834522
0.826276
0.816264
0.805255
0.793957
0.782814
0.772079
0.76184
0.752143
0.743008
0.734252
0.726095
0.718509
0.713379
0.70937
0.652697
0.544337
0.521222
0.664532
0.721177
0.730267
0.737435
0.743976
0.749431
0.754831
0.7603
0.766404
0.773334
0.781315
0.790322
0.800114
0.810097
0.819422
0.827158
0.832807
0.836028
0.837898
0.837636
0.83524
0.83149
0.82527
0.816897
0.806773
0.795693
0.784331
0.773161
0.762352
0.752057
0.742277
0.733099
0.724306
0.716219
0.708552
0.703113
0.699014
0.644866
0.535609
0.516116
0.653081
0.70682
0.715982
0.723802
0.730904
0.73692
0.742703
0.748444
0.754768
0.761928
0.770085
0.779265
0.789156
0.799253
0.808693
0.816563
0.822336
0.825647
0.827588
0.827323
0.824864
0.821037
0.814723
0.806259
0.796088
0.784985
0.773676
0.762509
0.751768
0.741479
0.731702
0.722611
0.713886
0.705912
0.698236
0.692415
0.687931
0.636423
0.526773
0.510716
0.641959
0.693494
0.70253
0.710851
0.718193
0.724482
0.730425
0.736333
0.742844
0.750205
0.75858
0.767847
0.777846
0.787984
0.797513
0.805479
0.811357
0.814745
0.816756
0.816495
0.813985
0.810104
0.803723
0.795215
0.78502
0.77399
0.762716
0.75171
0.740988
0.730807
0.721098
0.712105
0.703498
0.695656
0.687954
0.681716
0.676966
0.627941
0.518519
0.504071
0.631185
0.680967
0.689705
0.698396
0.705849
0.712281
0.718258
0.7243
0.731031
0.738651
0.747162
0.756614
0.766624
0.77684
0.786418
0.794484
0.800458
0.803922
0.806011
0.80576
0.803204
0.799281
0.792848
0.784289
0.774122
0.763108
0.752006
0.741013
0.73047
0.720331
0.710629
0.701807
0.693283
0.685482
0.677686
0.671089
0.666129
0.619305
0.510119
0.498866
0.621557
0.669485
0.677767
0.686599
0.694049
0.70051
0.706429
0.712613
0.719528
0.727383
0.73614
0.745636
0.755769
0.765991
0.775663
0.783825
0.789915
0.793465
0.795645
0.795412
0.792807
0.788839
0.782335
0.773733
0.763529
0.752619
0.74152
0.730732
0.72018
0.710137
0.700537
0.691765
0.683343
0.675619
0.667725
0.660808
0.655718
0.611296
0.502503
0.4934
0.611933
0.658211
0.66608
0.67482
0.682281
0.688809
0.694778
0.701117
0.708378
0.716452
0.725414
0.735085
0.745248
0.755557
0.7653
0.773596
0.779819
0.783475
0.785765
0.785557
0.782891
0.778863
0.772271
0.763576
0.753362
0.742439
0.731461
0.720673
0.710188
0.700242
0.690526
0.681917
0.673498
0.665736
0.657682
0.650475
0.645244
0.602719
0.494757
0.488303
0.603449
0.647897
0.655503
0.663886
0.671361
0.67792
0.683893
0.690459
0.697763
0.706153
0.715204
0.724994
0.735202
0.745552
0.755388
0.763826
0.77021
0.773992
0.776411
0.776233
0.773495
0.769391
0.762681
0.753884
0.743622
0.732735
0.721813
0.711091
0.700717
0.690783
0.681245
0.672654
0.66432
0.656592
0.648423
0.640961
0.635617
0.595451
0.48793
0.482895
0.594859
0.63764
0.645031
0.652921
0.66046
0.66706
0.673186
0.679953
0.687574
0.696121
0.705441
0.715286
0.725585
0.735973
0.745922
0.754525
0.7611
0.765032
0.767597
0.767452
0.764629
0.760428
0.753572
0.744647
0.734315
0.723458
0.712539
0.701936
0.691465
0.681692
0.672062
0.663595
0.655242
0.647455
0.639079
0.631357
0.625911
0.58745
0.481221
0.477921
0.587134
0.628032
0.635247
0.642993
0.65066
0.657296
0.663613
0.670648
0.67841
0.687157
0.696509
0.706377
0.716611
0.726971
0.736947
0.745681
0.752437
0.75653
0.759256
0.759145
0.756222
0.751916
0.744921
0.735904
0.725586
0.714811
0.704042
0.69354
0.683212
0.673497
0.663971
0.655491
0.647134
0.639247
0.630687
0.622677
0.617081
0.580805
0.475477
0.473022
0.579641
0.618695
0.625587
0.633149
0.640951
0.64762
0.654187
0.661483
0.669431
0.678386
0.687783
0.697713
0.707904
0.718259
0.728289
0.737188
0.744155
0.74842
0.751309
0.751232
0.748203
0.743776
0.736616
0.727479
0.717153
0.706452
0.695797
0.685391
0.675126
0.665495
0.65595
0.647477
0.639051
0.631001
0.622195
0.613919
0.608246
0.573724
0.469926
0.469107
0.57243
0.609375
0.615858
0.623468
0.631373
0.638303
0.645162
0.652862
0.661039
0.670274
0.679763
0.689788
0.69998
0.710317
0.720338
0.729281
0.736329
0.740681
0.743693
0.743645
0.740542
0.736075
0.728875
0.719739
0.709467
0.698851
0.688246
0.677891
0.667604
0.657979
0.648366
0.639806
0.631212
0.622925
0.613901
0.605394
0.599672
0.567246
0.465582
0.465095
0.565436
0.59982
0.605698
0.613206
0.621203
0.628367
0.635714
0.6439
0.652435
0.662064
0.671803
0.682051
0.692394
0.702845
0.713045
0.722225
0.729543
0.734092
0.73726
0.737237
0.734015
0.729395
0.721969
0.712648
0.702251
0.69159
0.680892
0.670441
0.659966
0.650199
0.640367
0.631597
0.622713
0.614188
0.604996
0.596364
0.590744
0.560391
0.460876
0.463751
0.558846
0.590588
0.595489
0.603041
0.61128
0.619025
0.626992
0.635719
0.644795
0.654834
0.665044
0.675764
0.686631
0.697569
0.708099
0.717567
0.725138
0.729821
0.733025
0.733018
0.729789
0.725067
0.717428
0.707866
0.697191
0.686105
0.674944
0.664111
0.653297
0.643267
0.633157
0.624065
0.614882
0.606088
0.59674
0.588023
0.582914
0.554921
0.460142
0.469374
0.556883
0.586797
0.589765
0.59699
0.605308
0.613331
0.621639
0.630546
0.639922
0.650015
0.660442
0.671319
0.682475
0.693691
0.704244
0.713719
0.721351
0.726149
0.729577
0.729578
0.726137
0.721314
0.713625
0.704067
0.693384
0.682068
0.670668
0.6597
0.648765
0.638656
0.628461
0.619238
0.609987
0.601135
0.591861
0.583625
0.580306
0.55331
0.465622
0.455491
0.531498
0.560056
0.561448
0.565987
0.572172
0.577979
0.584706
0.591254
0.599031
0.606599
0.615063
0.623461
0.632192
0.640564
0.648292
0.655136
0.660987
0.665063
0.669404
0.669417
0.665081
0.661003
0.655126
0.648233
0.640422
0.631971
0.623037
0.614555
0.605632
0.597997
0.589566
0.582675
0.575217
0.568546
0.56137
0.555549
0.55345
0.526016
0.445781
0.389872
0.447307
0.467149
0.461397
0.461841
0.466557
0.470848
0.476602
0.482527
0.489561
0.496637
0.504721
0.512669
0.521385
0.52992
0.538958
0.547787
0.556393
0.563395
0.569281
0.569283
0.563399
0.556399
0.547797
0.538969
0.529931
0.521397
0.512672
0.504719
0.496602
0.489504
0.482417
0.476416
0.470573
0.466096
0.461219
0.460108
0.46565
0.446461
0.388614
0.389872
0.447307
0.467149
0.461397
0.461841
0.466557
0.470848
0.476602
0.482527
0.489561
0.496637
0.504721
0.512669
0.521385
0.52992
0.538958
0.547787
0.556393
0.563395
0.569281
0.569283
0.563399
0.556399
0.547797
0.538969
0.529931
0.521397
0.512672
0.504719
0.496602
0.489504
0.482417
0.476416
0.470573
0.466096
0.461219
0.460108
0.46565
0.446461
0.388614
0.455491
0.531498
0.560056
0.561448
0.565987
0.572172
0.577979
0.584706
0.591254
0.599031
0.606599
0.615063
0.623461
0.632192
0.640564
0.648292
0.655136
0.660987
0.665063
0.669404
0.669417
0.665081
0.661003
0.655126
0.648233
0.640422
0.631971
0.623037
0.614555
0.605632
0.597997
0.589566
0.582675
0.575217
0.568546
0.56137
0.555549
0.55345
0.526016
0.445781
0.469374
0.556883
0.586797
0.589765
0.59699
0.605308
0.613331
0.621639
0.630546
0.639922
0.650015
0.660442
0.671319
0.682475
0.693691
0.704244
0.713719
0.721351
0.726149
0.729577
0.729578
0.726137
0.721314
0.713625
0.704067
0.693384
0.682068
0.670668
0.6597
0.648765
0.638656
0.628461
0.619238
0.609987
0.601135
0.591861
0.583625
0.580306
0.55331
0.465622
0.463751
0.558846
0.590588
0.595489
0.603041
0.61128
0.619025
0.626992
0.635719
0.644795
0.654834
0.665044
0.675764
0.686631
0.697569
0.708099
0.717567
0.725138
0.729821
0.733025
0.733018
0.729789
0.725067
0.717428
0.707866
0.697191
0.686105
0.674944
0.664111
0.653297
0.643267
0.633157
0.624065
0.614882
0.606088
0.59674
0.588023
0.582914
0.554921
0.460142
0.465095
0.565436
0.59982
0.605698
0.613206
0.621203
0.628367
0.635714
0.6439
0.652435
0.662064
0.671803
0.682051
0.692394
0.702845
0.713045
0.722225
0.729543
0.734092
0.73726
0.737237
0.734015
0.729395
0.721969
0.712648
0.702251
0.69159
0.680892
0.670441
0.659966
0.650199
0.640367
0.631597
0.622713
0.614188
0.604996
0.596364
0.590744
0.560391
0.460876
0.469107
0.57243
0.609375
0.615858
0.623468
0.631373
0.638303
0.645162
0.652862
0.661039
0.670274
0.679763
0.689788
0.69998
0.710317
0.720338
0.729281
0.736329
0.740681
0.743693
0.743645
0.740542
0.736075
0.728875
0.719739
0.709467
0.698851
0.688246
0.677891
0.667604
0.657979
0.648366
0.639806
0.631212
0.622925
0.613901
0.605394
0.599672
0.567246
0.465582
0.473022
0.579641
0.618695
0.625587
0.633149
0.640951
0.64762
0.654187
0.661483
0.669431
0.678386
0.687783
0.697713
0.707904
0.718259
0.728289
0.737188
0.744155
0.74842
0.751309
0.751232
0.748203
0.743776
0.736616
0.727479
0.717153
0.706452
0.695797
0.685391
0.675126
0.665495
0.65595
0.647477
0.639051
0.631001
0.622195
0.613919
0.608246
0.573724
0.469926
0.477921
0.587134
0.628032
0.635247
0.642993
0.65066
0.657296
0.663613
0.670648
0.67841
0.687157
0.696509
0.706377
0.716611
0.726971
0.736947
0.745681
0.752437
0.75653
0.759256
0.759145
0.756222
0.751916
0.744921
0.735904
0.725586
0.714811
0.704042
0.69354
0.683212
0.673497
0.663971
0.655491
0.647134
0.639247
0.630687
0.622677
0.617081
0.580805
0.475477
0.482895
0.594859
0.63764
0.645031
0.652921
0.66046
0.66706
0.673186
0.679953
0.687574
0.696121
0.705441
0.715286
0.725585
0.735973
0.745922
0.754525
0.7611
0.765032
0.767597
0.767452
0.764629
0.760428
0.753572
0.744647
0.734315
0.723458
0.712539
0.701936
0.691465
0.681692
0.672062
0.663595
0.655242
0.647455
0.639079
0.631357
0.625911
0.58745
0.481221
0.488303
0.603449
0.647897
0.655503
0.663886
0.671361
0.67792
0.683893
0.690459
0.697763
0.706153
0.715204
0.724994
0.735202
0.745552
0.755388
0.763826
0.77021
0.773992
0.776411
0.776233
0.773495
0.769391
0.762681
0.753884
0.743622
0.732735
0.721813
0.711091
0.700717
0.690783
0.681245
0.672654
0.66432
0.656592
0.648423
0.640961
0.635617
0.595451
0.48793
0.4934
0.611933
0.658211
0.66608
0.67482
0.682281
0.688809
0.694778
0.701117
0.708378
0.716452
0.725414
0.735085
0.745248
0.755557
0.7653
0.773596
0.779819
0.783475
0.785765
0.785557
0.782891
0.778863
0.772271
0.763576
0.753362
0.742439
0.731461
0.720673
0.710188
0.700242
0.690526
0.681917
0.673498
0.665736
0.657682
0.650475
0.645244
0.602719
0.494757
0.498866
0.621557
0.669485
0.677767
0.686599
0.694049
0.70051
0.706429
0.712613
0.719528
0.727383
0.73614
0.745636
0.755769
0.765991
0.775663
0.783825
0.789915
0.793465
0.795645
0.795412
0.792807
0.788839
0.782335
0.773733
0.763529
0.752619
0.74152
0.730732
0.72018
0.710137
0.700537
0.691765
0.683343
0.675619
0.667725
0.660808
0.655718
0.611296
0.502503
0.504071
0.631185
0.680967
0.689705
0.698396
0.705849
0.712281
0.718258
0.7243
0.731031
0.738651
0.747162
0.756614
0.766624
0.77684
0.786418
0.794484
0.800458
0.803922
0.806011
0.80576
0.803204
0.799281
0.792848
0.784289
0.774122
0.763108
0.752006
0.741013
0.73047
0.720331
0.710629
0.701807
0.693283
0.685482
0.677686
0.671089
0.666129
0.619305
0.510119
0.510716
0.641959
0.693494
0.70253
0.710851
0.718193
0.724482
0.730425
0.736333
0.742844
0.750205
0.75858
0.767847
0.777846
0.787984
0.797513
0.805479
0.811357
0.814745
0.816756
0.816495
0.813985
0.810104
0.803723
0.795215
0.78502
0.77399
0.762716
0.75171
0.740988
0.730807
0.721098
0.712105
0.703498
0.695656
0.687954
0.681716
0.676966
0.627941
0.518519
0.516116
0.653081
0.70682
0.715982
0.723802
0.730904
0.73692
0.742703
0.748444
0.754768
0.761928
0.770085
0.779265
0.789156
0.799253
0.808693
0.816563
0.822336
0.825647
0.827588
0.827323
0.824864
0.821037
0.814723
0.806259
0.796088
0.784985
0.773676
0.762509
0.751768
0.741479
0.731702
0.722611
0.713886
0.705912
0.698236
0.692415
0.687931
0.636423
0.526773
0.521222
0.664532
0.721177
0.730267
0.737435
0.743976
0.749431
0.754831
0.7603
0.766404
0.773334
0.781315
0.790322
0.800114
0.810097
0.819422
0.827158
0.832807
0.836028
0.837898
0.837636
0.83524
0.83149
0.82527
0.816897
0.806773
0.795693
0.784331
0.773161
0.762352
0.752057
0.742277
0.733099
0.724306
0.716219
0.708552
0.703113
0.699014
0.644866
0.535609
0.532778
0.675931
0.736205
0.745436
0.751615
0.756847
0.761429
0.766174
0.771194
0.777016
0.783689
0.791447
0.800271
0.809889
0.819714
0.828868
0.836436
0.841937
0.845056
0.846853
0.846599
0.844274
0.840619
0.834522
0.826276
0.816264
0.805255
0.793957
0.782814
0.772079
0.76184
0.752143
0.743008
0.734252
0.726095
0.718509
0.713379
0.70937
0.652697
0.544337
0.527394
0.684871
0.751715
0.760662
0.765655
0.768702
0.772045
0.775837
0.780232
0.785674
0.792053
0.799581
0.808189
0.81761
0.827238
0.8362
0.843587
0.848937
0.851955
0.853683
0.853435
0.85118
0.847619
0.84165
0.833544
0.823666
0.812776
0.801574
0.79054
0.779916
0.769822
0.760294
0.751303
0.742715
0.734586
0.727188
0.72229
0.718377
0.659616
0.553128
0.539248
0.687284
0.769303
0.777814
0.77925
0.7788
0.78035
0.783069
0.786824
0.7918
0.797908
0.805232
0.813653
0.822894
0.832347
0.84114
0.848375
0.8536
0.856536
0.858206
0.857963
0.855765
0.852282
0.846419
0.838432
0.828672
0.817889
0.806789
0.795856
0.785354
0.775404
0.76605
0.757244
0.748868
0.740825
0.733662
0.728936
0.725208
0.66543
0.561531
0.616395
0.687886
0.782813
0.798997
0.791866
0.786381
0.785956
0.787903
0.790766
0.795418
0.801344
0.808532
0.816827
0.825943
0.835272
0.843947
0.851078
0.856215
0.859093
0.860724
0.860482
0.858323
0.854892
0.849103
0.8412
0.831527
0.820825
0.809802
0.798949
0.788537
0.778695
0.769472
0.760812
0.752599
0.744642
0.737645
0.732976
0.729429
0.66935
0.567866
)
;

boundaryField
{
    inlet
    {
        type            fixedValue;
        value           uniform 1;
    }
    outlet
    {
        type            zeroGradient;
    }
    obstacle
    {
        type            zeroGradient;
    }
    empty
    {
        type            empty;
    }
}


// ************************************************************************* //
