/*--------------------------------*- C++ -*----------------------------------*\
| =========                 |                                                 |
| \\      /  F ield         | OpenFOAM: The Open Source CFD Toolbox           |
|  \\    /   O peration     | Version:  v1912                                 |
|   \\  /    A nd           | Website:  www.openfoam.com                      |
|    \\/     M anipulation  |                                                 |
\*---------------------------------------------------------------------------*/
FoamFile
{
    version     2.0;
    format      ascii;
    class       volVectorField;
    location    "0.00038";
    object      momentum;
}
// * * * * * * * * * * * * * * * * * * * * * * * * * * * * * * * * * * * * * //

dimensions      [1 -2 -1 0 0 0 0];


internalField   nonuniform List<vector> 
1300
(
(0 0 0)
(4.158366568 1.923872069 3.479346115)
(33.0453 2.125875157 -2.005879794)
(165.4426475 10.02673839 10.52001462)
(28.78272447 3.522473184 -2.967670042)
(8.299545566 4.806713761 -2.398012377)
(38.14186966 -3.691784705 10.119802)
(33.58720046 -8.256912664 7.85468177)
(41.60587201 1.978068788 -1.462985204)
(9.753531021 -0.542925116 -6.631717077)
(-8.018356064 8.297331902 -6.173472726)
(5.123802876 2.563857222 -2.006764356)
(15.12750622 15.92335279 -4.079602671)
(104.8296257 17.8290352 6.595486547)
(122.958883 2.174215144 -4.812727719)
(13.70044392 3.757306237 -1.870539839)
(70.63527114 27.67110848 5.244666124)
(94.02810926 5.476507224 1.393832126)
(35.30758884 4.536947401 -3.062081604)
(5.453677775 2.301278822 11.35552109)
(0 0 0)
(0.4089471046 2.185773286 -0.2908819277)
(33.35807297 12.53171921 2.518054408)
(214.0293896 26.8551242 -9.369020907)
(87.03326314 12.13897143 -1.794773238)
(14.67563313 6.140354556 -5.544554068)
(84.09205216 17.25635301 -8.456022487)
(116.5017818 18.11131114 -1.253948444)
(67.96648025 14.62932013 3.5535559)
(46.77189231 19.41431759 9.926642149)
(0 0 0)
(-0.6690940106 2.967000647 -0.320674192)
(59.57795377 5.978208008 -1.959235738)
(235.6599641 17.88468747 -3.830932518)
(49.32863596 11.38227986 -5.267637355)
(25.88157255 3.478893247 6.138842265)
(72.28016667 3.685481707 -3.510162877)
(131.2327873 39.09422169 -1.372079385)
(59.04272867 14.63723964 8.488272457)
(65.32460198 16.16868401 -2.1507166)
(0 0 0)
(0 0 0)
(45.5069839 11.0932002 -4.609156494)
(118.1029401 6.218666016 0.5326813331)
(71.53671714 9.857051459 -0.8023357252)
(38.67039151 12.52034577 3.544287438)
(65.65274023 14.14841083 5.080031074)
(132.7958084 50.62757816 2.702415601)
(67.30872306 14.7855522 4.818456231)
(53.31561617 5.094294202 0.2906653611)
(0 0 0)
(11.92557971 9.737156876 0.0917352772)
(29.02716252 13.10252382 -2.168917249)
(194.3924444 21.97797831 -4.848190866)
(75.10046343 9.452283311 5.407482113)
(42.12313308 11.82538223 -2.379126081)
(89.0736412 15.21839515 -8.106000536)
(129.6677322 13.35138623 -0.9465873069)
(86.93250264 16.80217285 -9.003696396)
(73.58611648 7.068496294 -1.723046965)
(0 0 0)
(0 0 0)
(47.21156186 14.95757835 -0.3985535941)
(134.3286281 17.03526762 -2.246583514)
(90.44407492 6.806852345 3.80420635)
(39.52412892 5.042430635 -3.07579805)
(69.45621299 14.35668431 -0.2974806099)
(96.81988577 22.00293432 6.762655715)
(75.49779724 6.050060618 -0.6267930845)
(45.54819624 8.679558943 0.8266913799)
(0 0 0)
(0 0 0)
(82.66046215 17.42443846 3.072608515)
(81.20156175 4.171828767 -1.838844877)
(62.40652973 11.41645716 -2.375117185)
(81.17461662 10.68300381 0.9747856238)
(81.6992744 11.16242454 0.1879416444)
(85.06998816 9.234019864 1.845747353)
(52.93285815 4.307741788 0.2803351583)
(151.1207807 36.00118425 -0.7309348393)
(0 0 0)
(0.9662994031 4.442013791 2.11305975)
(58.99093359 12.56978554 -4.064332015)
(151.6125636 19.55614043 13.8917324)
(121.9120884 13.96624288 -0.2800181392)
(50.16329398 7.612629255 -3.922223726)
(65.13938425 19.9182884 -2.954115303)
(172.8008706 23.74826137 -7.927559332)
(89.73175508 12.4468879 -1.634702695)
(97.37976776 9.529419447 6.577685112)
(-0.478153443 3.538510081 2.640664127)
(0 0 0)
(28.23569763 4.808192613 -4.836951569)
(177.6917975 21.56470743 7.2298677)
(112.4253889 5.957075892 -3.227822266)
(31.33073292 6.309833535 0.5723992873)
(115.3107288 18.8828009 11.79932121)
(136.0300147 14.12816642 3.762184482)
(27.04122824 -0.125651637 0.962452421)
(59.07007266 9.451081498 1.038574689)
(0 0 0)
(0 0 0)
(33.96225748 10.28035893 -1.585890896)
(168.8034652 19.10078818 -7.519120677)
(129.9471143 9.744629948 7.711208425)
(51.458777 9.835727387 4.042865584)
(71.86964776 11.67106127 -0.8061901427)
(85.09693905 14.92862471 1.4640467)
(64.71900814 5.447694909 2.469339757)
(73.11551847 9.949117875 0.7194696305)
(0.005399924307 1.481913776 -0.04375546682)
(0 0 0)
(73.07845744 10.58997817 -1.395241063)
(200.2773004 20.50072044 17.71262738)
(59.21727733 2.320023205 -4.050510583)
(15.43335839 4.022793787 1.310784938)
(71.04364297 10.8504641 1.181339954)
(137.9475067 19.68205049 -3.567254131)
(68.52775233 9.450244331 0.3640821454)
(101.0233474 22.824453 -8.523170342)
(0 0 0)
(0 0 0)
(14.12270977 1.509192068 -0.551931558)
(196.6033035 17.85811226 -8.329686068)
(105.339716 4.652426118 -6.332853208)
(32.32523844 3.907698158 1.920397662)
(106.5274095 15.64490761 5.069188289)
(109.4780314 19.6220266 -4.259885824)
(101.341503 16.68665779 1.395303279)
(76.92516757 9.546037273 -2.084998555)
(0 0 0)
(0 0 0)
(18.91785114 1.492529695 -1.869227228)
(101.3709251 5.976134768 0.6678402813)
(87.42627355 14.59042379 -3.920085682)
(19.70983348 3.996949869 1.785876919)
(110.6819021 9.941043522 6.966928325)
(73.63896422 11.86461778 -7.477153692)
(89.0995763 9.189834556 -4.628977891)
(78.82770578 9.532566019 -3.959098885)
(0 0 0)
(0 0 0)
(11.83035521 7.169477737 -4.625148401)
(160.9542807 19.01048539 12.2833142)
(152.2857577 19.74172261 -1.336221574)
(24.984391 3.241071307 2.563977513)
(54.91102723 8.212248976 3.901429724)
(100.8742872 11.60950823 -1.639128836)
(48.20747552 3.808436072 -1.277457499)
(66.35142656 7.950510325 1.354967456)
(0 0 0)
(4.338059428 -0.7018311138 -2.241202544)
(12.61599757 1.545624304 3.886346859)
(139.7117495 13.47273831 3.993900841)
(103.1911425 14.07591018 5.41125046)
(0 0 0)
(90.40420904 13.4332138 -0.5361866523)
(135.0299222 16.16139849 -0.6333953471)
(143.7143104 17.84379652 -1.381118592)
(56.70902425 14.03191897 0.4883743256)
(0 0 0)
(0 0 0)
(44.59758788 10.02325447 0.159814404)
(182.7761226 34.36478647 -10.89127838)
(85.34632472 16.56287785 3.9002616)
(12.47998047 2.199951254 3.7569332)
(98.09146156 20.37256437 2.843876656)
(97.50167425 13.37764518 2.624152757)
(66.26872524 11.72515068 0.2046949412)
(55.45280358 13.4110264 2.049992104)
(0 0 0)
(0 0 0)
(30.0969616 4.322794082 -3.041154113)
(181.7134133 21.87595365 -1.659757259)
(85.73188397 13.50310073 -1.591727822)
(25.56446867 1.704827674 -2.757807195)
(60.91157838 5.986686196 -1.770875049)
(160.4436019 21.89542261 3.939897819)
(145.7440122 28.59612191 0.5416742447)
(47.83371821 6.743199677 1.295707785)
(0 0 0)
(0 0 0)
(12.60972175 2.47135847 -2.705611894)
(192.271384 32.779841 -2.835166826)
(133.4817502 20.48925139 -5.615654739)
(59.95189161 5.679991098 -0.8457247605)
(65.82237928 10.51490101 9.265224396)
(72.62397968 11.38148755 3.547275051)
(123.618361 12.97758399 -11.72968352)
(64.15390937 4.97562229 2.10074323)
(0 0 0)
(0 0 0)
(12.44397531 2.028915715 -1.33420147)
(181.970209 30.11972619 0.8882610912)
(42.09036209 2.814426631 -2.140990665)
(24.63854683 4.874138571 2.415462775)
(45.8861151 11.65896728 -0.4620111987)
(101.4790679 15.10875962 4.07742298)
(132.3927378 32.59345445 -0.09663256185)
(93.34189638 11.76839442 6.054561654)
(17.16280192 4.477711954 3.421063068)
(14.1327977 3.872741136 -2.72459484)
(6.91149286 6.605593268 1.94654669)
(10.31808872 8.868291778 5.247320191)
(8.455515346 2.859468405 0.5389104205)
(6.579235125 2.800880509 5.96296523)
(28.36287474 -1.731806348 -0.8519535075)
(28.85033156 0.7461915439 2.882982985)
(22.58222153 3.737445155 -1.87501029)
(1.371775345 -2.067846052 0.9272736282)
(3.954618778 -0.5542650128 2.929991069)
(18.11679741 2.201884505 -7.77757281)
(19.08765062 -0.9162062198 -3.107567052)
(18.0212756 4.146156045 4.899920003)
(4.488804128 -2.289695266 -4.451706626)
(12.1215971 7.793622168 3.215048781)
(11.02771012 -0.6167707942 4.853032504)
(4.509700107 5.759149714 2.064587612)
(12.7780988 10.29679532 1.286381194)
(9.825995143 13.97040436 -16.02180231)
(19.72195638 4.580852069 10.66260035)
(4.077759003 5.154011602 10.12602393)
(6.281383463 4.143334824 -1.831112881)
(10.19538477 0.5337135871 -0.703353536)
(11.96206627 0.1543310778 0.4531154353)
(15.93126966 5.164145492 -11.36479394)
(8.672596566 7.735231934 -3.356783604)
(14.65121542 0.4739012792 5.928375554)
(7.148653445 -2.562685505 12.43193752)
(1.758159361 0.1527230905 2.692609152)
(22.67113952 -3.223784876 2.805403192)
(44.08129137 1.77182877 -3.428286995)
(29.74398286 0.06733344096 8.427774426)
(26.64443559 5.445345106 -0.4732054567)
(12.28961275 7.735216426 2.043880309)
(40.89334833 -3.110055672 1.746172069)
(18.20195675 5.570357621 -0.2615907494)
(33.89833089 -1.703820084 0.9707120349)
(35.57470548 2.892060268 6.434576396)
(10.74537589 1.138863942 -1.698210266)
(9.206648332 -2.131053724 -2.419031363)
(17.98784642 7.748621778 5.909017189)
(8.145765055 4.37862294 -4.560358665)
(21.28743924 6.108962272 7.96313289)
(28.18081439 9.610573284 4.847446666)
(10.00198041 -3.820733368 1.822170714)
(22.76534582 -1.122577773 -0.6016841005)
(20.61380391 2.661737207 -2.197009808)
(10.25865016 -1.852327898 0.9950110131)
(4.044616663 2.793947347 6.928319697)
(6.832630083 -0.8116985468 -3.512047309)
(23.2022905 0.8967667386 -2.01448807)
(16.07179598 -2.430226136 8.807351973)
(11.20768277 9.953118651 0.8562710689)
(11.91558014 -1.678480357 -5.250097925)
(22.11475522 -9.910190641 5.211777284)
(9.966276616 2.247372081 6.352274581)
(6.722010618 5.469434201 -3.588304843)
(8.04694221 -5.552299419 1.736794937)
(5.474898784 4.743153759 4.09149499)
(73.74593267 9.522670236 -4.542198558)
(60.83640843 1.821097704 2.422871251)
(44.13917281 11.40082354 -3.826141858)
(45.63501375 8.605559846 -5.694834238)
(38.78550109 12.4488735 5.23726797)
(67.27792237 17.28986743 -4.921381093)
(15.51259816 0.2039357421 8.1299635)
(58.98184944 6.159363843 -3.534583686)
(54.11129543 0.7794648029 -2.776685363)
(41.92660935 3.549630173 -6.191245536)
(16.02324945 0.1535771265 3.897180048)
(32.69387111 1.465574341 8.027719093)
(27.80806623 2.648209485 -2.70635943)
(20.22027465 5.35576177 -3.285912705)
(20.69390744 -1.609006457 2.346528066)
(6.608248375 4.116211876 3.200160418)
(36.61980035 7.742769977 3.516323155)
(17.59936171 4.573996884 0.0232971557)
(11.40042689 -3.053439568 2.726009306)
(33.0961788 3.994179922 14.46142051)
(29.52591192 2.428149026 -0.3391054305)
(38.72662492 8.588866955 -18.14354935)
(28.97731798 -2.931888524 -1.570142149)
(18.36522435 -0.4742469567 -11.7626569)
(20.82643458 6.878253874 -1.943887711)
(13.59676085 13.41418625 0.9788011752)
(37.92218913 -1.953039911 3.200664184)
(16.315962 9.766704686 4.431087695)
(9.250049656 1.182202633 -6.605557949)
(18.79569004 0.3728733194 13.203286)
(93.65929442 18.54296349 7.072109061)
(90.25230982 10.21592937 -5.114321054)
(68.75707053 6.654786072 2.840939293)
(54.29704927 2.049042252 2.282976335)
(75.42340243 6.632183691 -2.956995126)
(45.09738508 -1.252203324 8.032728341)
(31.27305997 7.759320928 -0.05416165195)
(45.50413883 5.377143969 0.8878667186)
(36.71330721 7.65489583 1.782742652)
(21.34650949 5.770644258 0.5747326389)
(51.09507925 3.141617026 3.640314681)
(20.47395992 4.978228676 4.924762918)
(29.38505855 6.40292782 -0.779289373)
(44.69298888 15.79938545 6.63417379)
(36.8194545 0.8735639124 -0.3644451792)
(7.439501795 2.751133367 0.3206154573)
(11.46640562 3.719822871 -8.357664325)
(5.193192378 12.07557203 -0.3291502374)
(8.915782828 0.03654155811 -2.07526959)
(15.52851609 1.166477836 -2.310750638)
(27.64508389 6.69675149 5.53330341)
(15.72244151 7.987810416 3.056482494)
(26.90191289 0.8542692132 3.000332087)
(22.21602458 3.31101364 1.127811365)
(18.26060249 -3.507566738 -1.733059031)
(14.28595841 -5.171553702 -5.318961313)
(19.12573849 3.563095852 -11.31472677)
(10.68106296 -2.794323851 -10.93309429)
(26.04481354 5.496989542 2.843492779)
(20.06559804 0.8204962291 -0.09958807746)
(98.80561526 19.13603005 9.385609329)
(72.66618694 5.361172237 1.00749033)
(99.7573609 16.05280599 6.149282107)
(115.8899165 13.92213059 -1.89181223)
(72.53455093 8.614399878 7.831174554)
(66.81506202 13.04421823 3.570136238)
(91.78696967 18.98068646 -4.059091587)
(26.05120597 2.339116519 6.179352525)
(37.9647964 8.599280883 0.2218225146)
(42.12476292 7.83520978 -8.535443767)
(40.53112615 5.573308087 -6.721892674)
(33.08528088 5.225671295 0.2009748955)
(20.65048991 9.07984155 8.060971756)
(60.17231484 4.836414782 -1.841203944)
(50.81037277 10.45651865 -10.04344282)
(47.58991826 4.519596992 0.5156763046)
(15.799584 2.059452372 -0.1176105425)
(71.74026643 15.91164624 -9.030490701)
(0 0 0)
(23.41365506 6.242798169 3.27002683)
(21.70088783 6.670679615 8.90625245)
(11.38405489 10.49369973 -1.980363367)
(35.64349583 10.4571807 6.089234412)
(36.64921293 13.71549529 2.190768038)
(7.809652592 2.900815185 -2.408280978)
(33.93519745 -4.585061197 9.50544103)
(24.60261138 14.93997928 -2.000442393)
(10.6478322 4.711660681 4.844257418)
(23.19234811 -3.08023131 -8.553309935)
(15.90103615 4.849138778 1.263074612)
(62.83633979 13.44095242 6.983228356)
(81.04722622 6.814836852 -0.7760021644)
(138.1030744 25.68701725 5.843917476)
(93.42922755 11.4580513 6.902617885)
(53.01955263 12.63803363 -4.080033663)
(148.1357489 17.84059075 -6.22370119)
(46.9576942 4.499552034 1.902882559)
(56.46235497 3.231215914 -3.40948065)
(71.38056847 13.96441944 2.30252033)
(23.88065018 3.266667479 3.030659846)
(18.17256245 2.130333562 -2.73945743)
(66.11436083 17.25701609 1.107004143)
(54.94206151 10.68188782 3.682386573)
(55.69336137 10.75746835 -4.051744677)
(49.3301158 6.259362259 -3.12127064)
(53.83967207 12.378498 -2.204662107)
(56.43652104 8.191054769 1.155654527)
(43.73949738 7.16020855 1.317291392)
(29.01869761 7.461013419 -0.5716541087)
(23.92691468 4.815567045 4.118493008)
(42.57528717 10.5316684 -5.585598802)
(49.38910212 7.843680445 -0.4491366744)
(14.42290085 3.223516616 -3.889565859)
(61.32937194 11.06191816 2.737048146)
(37.99175118 4.2058778 -4.63402374)
(30.8368478 9.825604759 1.306897569)
(27.16273977 5.186162735 -3.09625343)
(20.87094566 -8.456189935 9.793172383)
(31.89247153 13.42947034 4.947053013)
(17.03931675 1.059105512 0.3376407531)
(62.54202889 11.50764015 2.676434148)
(108.3509068 17.06316775 7.03175084)
(128.1265007 27.34412661 1.349918531)
(106.8642466 23.31029114 6.175080082)
(101.7586436 18.00679727 -1.847890986)
(82.92128031 15.23229546 -4.169114941)
(134.0771635 23.4200083 -3.042109536)
(106.0309597 15.81638577 -7.948225863)
(120.4411025 13.94704454 8.954869054)
(77.37610152 12.4326181 8.161711294)
(64.40506807 11.96988347 3.74000273)
(80.00553759 9.572537767 -12.52631928)
(101.5321633 24.36972091 4.516751863)
(64.13190346 19.91478757 6.155987758)
(35.45237177 0.984833804 1.39413755)
(73.77249143 20.50483851 -5.217456614)
(35.29976026 11.61092608 10.45107061)
(57.13004263 21.29518052 -3.43583041)
(53.91456328 12.08462449 6.604073066)
(69.61219441 11.15674334 0.3597008725)
(33.19592212 10.21973033 14.13900846)
(68.97869189 10.10711515 5.362780195)
(39.05492715 12.76381881 -6.812891519)
(19.20869077 7.573019301 3.03870947)
(30.86559152 4.439735281 -1.048476065)
(24.18247883 3.040575607 -1.319678509)
(26.94259361 14.69856664 -5.375841436)
(44.30041792 0.7136440116 1.712049745)
(29.08972716 3.209406309 -11.46494396)
(23.68151565 19.87302803 4.548091339)
(98.74393797 29.60597294 3.192645637)
(81.94218203 19.0592998 -2.505983331)
(100.8833117 20.35502618 -0.623726373)
(151.7000061 22.48191437 9.098017906)
(77.76078273 14.11863865 -3.520904205)
(89.22026583 24.9374406 -5.386098633)
(74.48591394 20.5592393 1.294492311)
(97.94251591 19.04799052 5.438219961)
(77.33699655 13.80711654 -3.152009037)
(105.9780846 27.21316066 5.420899885)
(84.49426247 16.62532822 -1.771831739)
(66.39448827 12.64769681 -2.887147675)
(47.10909762 6.264201311 4.729490928)
(58.48423589 -0.5880880636 3.530733228)
(76.62232939 6.925601259 -0.6897932816)
(39.9611557 9.267123382 0.3609449504)
(99.61223685 11.86821363 11.14029736)
(53.59703139 10.43537405 -1.846454681)
(49.98085993 8.669722462 -3.813472919)
(51.17048545 11.32051728 -4.973058733)
(70.19186613 11.26739379 -5.162769441)
(45.24019735 7.463681848 -4.510027532)
(69.08088031 18.76820309 7.926015538)
(40.80849687 16.80764556 6.031744545)
(49.96739891 17.87009127 -4.413717628)
(60.78456345 24.65959875 9.76209344)
(16.97076937 -0.8498740223 1.065893318)
(6.196850643 0.7237771142 -1.526159552)
(75.33728905 13.00970264 -4.901741544)
(21.26334343 5.412713636 1.769890777)
(112.7079485 17.19922216 5.508468881)
(88.47536307 16.79589039 -3.814579266)
(101.0408107 19.89505516 -2.967532111)
(62.64336688 9.827487438 1.079727072)
(61.76572624 13.47376751 0.8117858443)
(90.62980809 11.64738199 -1.121433909)
(77.96224058 19.08658656 -9.12750409)
(73.47371772 10.79042652 -0.1868347232)
(138.3886282 24.80222608 -7.591544057)
(98.58563382 17.18557491 -1.84975896)
(44.40826254 9.438543479 4.812974354)
(80.01556316 15.97352402 0.6305215295)
(63.52141939 13.42824544 4.570770057)
(109.5067648 28.20144899 -3.679618932)
(52.82298953 11.62483587 -1.078471258)
(81.95780265 21.9886899 4.71723943)
(90.15671382 20.00746749 -13.49262193)
(65.17019671 8.459878301 -5.439327085)
(65.76348446 16.64983729 0.4822024792)
(92.40990518 8.517491539 -1.258932603)
(78.64212192 12.29202885 -1.195345242)
(49.29280355 7.471611474 -3.624751369)
(79.28130454 9.072554833 3.030592488)
(74.16011681 22.738452 4.104388072)
(64.32438453 2.772781181 -10.49797073)
(57.76611641 16.4480613 8.713743477)
(45.69590726 13.29395558 -11.90087206)
(40.48516376 12.28175665 -1.423000301)
(31.59096665 10.7495274 3.763952746)
(33.57124043 2.854807774 -1.298305018)
(87.53112781 10.87560495 -3.018586928)
(131.2521302 14.55710671 2.065684059)
(89.60452742 20.16368293 -2.028173059)
(59.50923568 9.951419133 0.6857713983)
(62.16266895 15.40779651 -5.540468297)
(36.78250562 10.54525742 3.954226714)
(106.9822874 21.67602172 0.8581934449)
(53.98749855 11.40294789 -4.754335892)
(95.81110339 18.14155633 -8.193077192)
(92.5774955 22.74828789 6.944913597)
(84.86378625 16.26162485 12.41980989)
(93.57134133 20.2247495 3.515632418)
(128.9303463 33.64950402 -0.3476896371)
(82.09944779 16.90657732 -7.463124891)
(136.869172 18.14751011 -7.647633367)
(82.75044716 15.23766053 1.544357601)
(57.20366359 4.696951538 2.542111397)
(89.71944741 16.4714606 2.047426126)
(79.82770226 15.24602542 -1.290507629)
(102.4302717 23.4314013 -2.233923148)
(62.0875314 15.50364613 -1.207488334)
(54.2511714 7.282990503 -1.309569337)
(82.39852818 11.36990365 6.30263093)
(50.22156961 19.17517896 3.978730532)
(52.2067807 23.87256548 1.402067814)
(68.76231728 4.962064924 0.9231720854)
(64.28616611 12.60470869 -2.148876269)
(59.04307882 12.76953015 1.749502865)
(32.48931048 8.892159125 1.506167861)
(42.61655075 7.415924909 -8.533025193)
(90.49057417 19.02286372 -4.982287281)
(56.37154373 4.536466592 3.802389697)
(93.32506822 21.74910367 -3.96868569)
(94.11138178 14.89781292 3.66777008)
(77.11556738 9.580238546 -3.918268243)
(84.16374277 13.07893861 5.372907115)
(69.94976514 4.486528408 4.911679414)
(96.68704161 20.23315474 -1.140507219)
(106.2880783 22.90142397 -0.99858198)
(93.21706136 24.10577651 5.694287655)
(154.9260005 41.80725417 -10.99129604)
(142.6366188 29.56725245 7.210619141)
(63.82817702 10.16858012 0.2003603774)
(149.8730872 27.25765976 8.815860177)
(73.41405885 15.1537157 1.290584979)
(83.0376377 17.41038003 6.626357313)
(89.18864575 16.90307806 -4.07597027)
(86.3696966 10.99920671 2.854911903)
(70.80523434 16.00226004 2.299706976)
(110.2232387 22.03540346 9.632309637)
(81.81156156 12.32715172 1.902044624)
(105.4321811 15.52692902 -6.947605982)
(97.15619042 14.09112628 -1.988442041)
(90.16824721 6.46411674 0.9827401739)
(84.9401528 13.62944417 7.369386974)
(62.91067273 22.41135638 -4.553983596)
(47.88067827 19.05248869 1.693995131)
(95.55180639 11.7795516 1.362734163)
(80.47291814 15.75004814 11.30373069)
(62.61119279 11.80958271 6.290485889)
(84.79379122 10.66323071 7.363161018)
(74.56029986 10.97796825 -6.714263432)
(39.54291148 6.779891526 1.552133739)
(47.41064391 5.035732705 -0.6467153497)
(137.8744677 12.69345831 -12.55418589)
(64.4465573 15.06930757 -1.421249428)
(104.602254 16.65620943 3.103377623)
(60.54000529 11.48848978 1.817994153)
(136.198422 23.95730382 8.553124759)
(111.8927536 24.76348946 6.166074695)
(79.81977931 16.30885304 3.220950161)
(74.3644586 20.27474534 1.077901738)
(87.01178058 17.37970147 -1.187703225)
(73.24331903 11.08209302 -6.315889114)
(99.41886973 31.51462138 2.21230307)
(91.3543349 14.21751303 5.518611332)
(120.4106148 22.15957681 -5.96009692)
(127.0492508 13.45588189 1.753719177)
(56.68399861 11.93521013 3.548355445)
(95.98841042 14.25286388 -1.753805044)
(105.0142228 34.0372463 3.653564019)
(92.08874264 23.83322079 -10.13047047)
(65.41397985 10.80297458 2.496583328)
(94.27291019 18.03655407 -5.757280816)
(129.5595705 28.2505858 4.032847893)
(89.97032312 14.12811775 -11.50478364)
(30.70801644 11.65634751 -4.691495853)
(65.07881438 18.8326185 2.671478784)
(76.37019688 11.76248634 -5.977405447)
(70.58193785 9.923487218 1.03420689)
(81.87279564 4.17615139 -0.485620095)
(142.403888 14.94139381 1.231679991)
(86.52710147 16.25862861 2.224093215)
(42.17420793 7.49236712 -1.291525341)
(59.8350238 7.126419283 1.077615803)
(70.34911072 7.394652435 1.758611156)
(52.52495459 4.614016997 4.444583185)
(60.70039236 11.79185831 3.536375789)
(141.4354668 23.00620742 6.202139163)
(85.75261049 20.04746534 6.32107211)
(94.68239131 14.08172105 2.946533692)
(92.76690974 20.92896035 5.577952686)
(88.13852556 12.53483423 -4.608768631)
(76.75240226 15.17761062 -1.089425776)
(82.72479098 18.7787289 0.00299888624)
(84.99644158 15.39400368 2.113795144)
(126.5684692 24.1550843 3.577967231)
(76.53367174 17.9854579 -1.123918371)
(121.7269324 26.89548675 -5.50071445)
(107.6677853 15.15986207 -6.031629584)
(93.4051215 28.65348405 8.008229462)
(112.9449463 27.30901112 0.6459613146)
(77.69890394 12.41981504 -0.2136978252)
(90.84718183 18.268006 -2.548387411)
(83.87513212 15.86152304 1.025436037)
(83.93551891 9.739561806 -5.418787098)
(59.59035656 14.16836543 6.3858508)
(43.41730332 5.840767015 -5.166865482)
(89.39860774 21.38018449 3.528717401)
(69.01555717 13.71056171 -3.763123386)
(64.30302959 5.741983901 -3.254567398)
(48.09469125 8.51811544 -0.4376459102)
(110.9772549 21.02465388 1.417296675)
(108.2618872 14.79034089 0.9058857427)
(82.67992496 9.514400571 5.04973343)
(64.42364125 5.25661812 -2.405381033)
(91.4284115 21.34663255 -1.456901754)
(94.84091047 14.18012494 0.001712303636)
(104.7168275 15.69093178 -8.106066097)
(89.67027108 18.88526552 2.639975914)
(104.7104147 20.60504808 4.290394169)
(78.01212036 7.210412551 -1.699387668)
(80.64751398 5.561783929 -5.757677164)
(57.17842844 8.040144926 3.304681377)
(136.239943 24.5296062 -1.181137642)
(25.17936091 4.22537791 2.266712356)
(75.65378279 7.432594495 0.7523751533)
(119.2826015 29.74186111 0.6997422681)
(89.21559858 16.19062745 -6.398636711)
(97.78150591 22.24270743 5.819779068)
(108.2778163 31.665778 3.710061841)
(91.39578836 24.24307698 1.596784967)
(100.8659691 18.83927263 -9.7278344)
(157.3887503 36.17340717 -1.585486804)
(175.9300669 43.40941425 -6.183099226)
(101.6124447 20.18493874 0.3236350821)
(92.81745761 17.52465629 2.730798845)
(134.8139938 22.31253432 8.006326112)
(76.45224604 30.62472175 3.199029856)
(91.92265657 22.83329136 -5.110109994)
(42.12456166 4.630923252 1.730626956)
(86.19902529 15.55447429 2.154332331)
(115.1210654 9.147626332 1.518706789)
(37.65925654 8.363025893 1.058126153)
(60.02676419 4.738903517 -5.685153528)
(94.2448736 17.81923397 -6.22250676)
(114.2028001 19.22207761 1.41148299)
(85.90072921 14.32503356 3.425825447)
(38.34666514 4.74237338 2.486811708)
(121.2976254 13.72430106 -4.32282852)
(80.93295651 14.5868956 -2.906920841)
(146.6991081 22.90108044 2.129228704)
(122.4096495 24.63394168 -6.747424624)
(89.71014979 13.26914375 -0.3793036981)
(57.11798931 12.69522493 3.42234347)
(100.7618517 21.15644053 -8.614997395)
(142.3874874 28.15661131 -1.240856729)
(57.19466897 10.54819036 7.79654795)
(128.5721461 23.10053159 -9.431679704)
(47.51109908 5.321094765 3.923791063)
(100.909284 19.82919855 -3.598067961)
(144.0520054 23.64532716 0.2039458915)
(137.6560582 34.21367848 -8.728095784)
(179.8129932 37.83085672 -1.416675138)
(112.8680403 34.34316392 -3.794049419)
(85.17776144 18.00635893 4.57976863)
(91.76875736 30.59668919 1.927768417)
(130.4578997 31.32734984 -9.600378056)
(86.35824892 17.41086161 10.77122413)
(82.1042466 10.8860192 -4.004050135)
(73.87571597 9.243421654 4.025828861)
(65.88934584 9.46928173 -3.550071385)
(99.8408922 18.96049456 -5.199624494)
(85.94198377 12.92788049 -3.106830523)
(104.605685 14.21357506 0.4207240593)
(101.2399547 12.75488823 4.181776947)
(144.6061424 20.238069 1.571087192)
(70.5368181 2.444903958 -0.5364102261)
(65.3374522 6.65720832 4.069430152)
(81.15612984 12.96510203 -1.836948066)
(106.7595632 16.01427904 -6.726229317)
(74.23654686 0.2736963554 -9.687131569)
(96.05834288 18.03516579 2.738046828)
(73.50934389 11.73148406 6.153105745)
(100.4235171 16.34161546 0.225934321)
(106.6022406 9.167947257 1.103198894)
(87.3640315 13.41098384 -2.731578392)
(101.5599467 15.10577397 -0.9125682717)
(112.0772075 18.14183634 1.524033329)
(99.39022716 16.13508072 -13.82047728)
(103.2839784 17.76898219 8.381092221)
(110.2056041 19.97843993 7.933227793)
(124.7409486 33.96985319 12.83735054)
(125.7953112 16.81574763 -7.596669095)
(117.4043127 29.22166478 0.8571362241)
(90.61614484 21.71348598 6.641304431)
(80.69919597 15.57651055 3.056138953)
(141.5129735 21.22348638 3.800360226)
(92.82320383 22.47879455 8.429224601)
(61.97586585 16.71724389 0.4506262088)
(53.35654405 6.176953656 6.222748306)
(97.06453686 7.918986829 3.435969794)
(66.67002786 8.195015135 0.318029249)
(77.46807768 4.59124753 5.357641399)
(87.49596719 19.11776741 5.322807021)
(108.0025217 23.47423264 -10.33940277)
(117.3427977 20.47481283 5.046266303)
(79.99980233 9.059155646 3.626231809)
(74.76832561 9.853768532 -4.097403644)
(70.87346129 12.04055936 0.545974181)
(112.2148583 18.03011203 -3.83995694)
(103.2214282 16.01146933 0.6502811021)
(79.94756045 8.153261088 -3.15438261)
(104.5843334 15.03531927 3.706337067)
(111.2215314 23.16104161 3.562564208)
(78.9629295 19.37718408 8.890626404)
(99.70946291 23.94423566 -1.057654924)
(96.3104155 12.62150698 0.90111272)
(114.4830258 12.90562398 0.05294184306)
(84.61978762 15.14642514 -4.849223583)
(74.41808155 12.83409522 -2.665211908)
(82.97311953 15.85675348 0.1678426685)
(124.7349326 24.68049887 -3.529516669)
(126.2404843 34.93070267 4.221608078)
(41.65047545 12.61830825 -3.694306878)
(128.3500847 20.77718388 5.356374241)
(81.80646608 18.30466667 2.160829791)
(157.1428794 31.40105919 -4.634971605)
(99.92668187 22.70571492 3.031433135)
(85.56562363 23.62656076 -2.836340908)
(107.2773055 15.26429437 6.961937647)
(78.50039446 14.46468824 2.183675654)
(67.13633384 5.910570072 -5.922638128)
(76.54001107 5.540061123 8.263668021)
(77.65016238 11.04523539 1.442544029)
(116.9515042 23.71807693 -6.646935194)
(92.77870503 20.69646828 -3.763169607)
(141.7654932 26.02670967 0.4657995326)
(106.3219604 10.89276384 0.7247322535)
(88.54327191 10.57197984 3.743987307)
(83.94567761 12.71621553 -1.568671244)
(93.75589879 10.14089256 3.518384193)
(105.9582613 9.903932049 2.536579172)
(139.3884293 24.66989794 -0.3483849962)
(88.09485292 8.832022091 -1.678154716)
(72.56593642 12.61618336 -1.543339875)
(134.6388123 20.96256855 8.916780081)
(105.4520906 19.57826295 3.830128077)
(61.40555608 13.49503492 -0.2203039502)
(83.18877433 6.095951922 -1.155133331)
(90.64465886 11.98814864 -5.298015228)
(38.14471574 5.337499607 1.011427005)
(74.101439 19.26025415 0.7103314881)
(108.5846832 19.65494637 -5.356446934)
(107.4174137 13.20493622 1.513586531)
(124.2308958 37.20987738 -4.004362463)
(134.1376796 24.51577551 2.400979064)
(123.2085225 19.7449429 -4.859557759)
(100.066852 20.17936304 -4.584954049)
(143.4381368 36.46436421 -4.424515388)
(83.6052329 8.216009522 4.802347683)
(100.001849 23.10341999 0.7864552354)
(73.60389114 8.258719694 1.675552719)
(73.39043477 14.46488161 -1.300967153)
(79.76862655 7.57507683 -2.277131025)
(149.9398307 17.3008433 3.421061736)
(110.671408 22.85191262 -1.945070805)
(73.7785394 6.854079388 5.696664922)
(35.87253975 6.724283854 0.09097600032)
(58.09050355 4.464254158 2.496439214)
(28.65063395 6.814415825 -2.061684581)
(92.58034711 12.65445441 4.044309172)
(66.82906759 8.674108319 -7.016580671)
(96.06811114 25.16117198 3.098132882)
(66.60560578 5.567448967 0.6307022823)
(115.5112687 16.58875464 2.792397716)
(68.94197574 5.117788036 0.4575515322)
(57.07529849 13.62018481 -3.262531142)
(58.06866317 7.373498604 7.666614473)
(83.34351423 15.4527473 -0.3180888302)
(77.99088037 9.194111494 -0.5523268452)
(60.44626311 16.17340807 -7.031881102)
(59.99926444 10.82899761 1.517901042)
(71.40954134 18.14363667 -0.7360026764)
(90.09122036 14.58957217 3.132225201)
(83.62812212 11.44900804 5.073462042)
(78.72426112 15.4621957 -9.959649426)
(94.8013086 16.84158847 2.476171985)
(115.6271516 28.24359083 -2.238337424)
(140.6800842 37.8821644 4.200110816)
(107.5835484 17.19529943 7.114502321)
(71.92985079 9.310910028 -0.2096071464)
(94.84319293 15.77171202 -0.3361446566)
(45.11497882 10.31405799 -0.799085215)
(91.95953601 21.0305561 1.414156321)
(76.30748888 11.16661688 -0.5616222569)
(103.2268007 19.78708552 -4.585379719)
(46.44253544 7.791397446 -3.09627669)
(68.44813585 11.60136973 -1.650215407)
(97.37866513 18.37807198 -5.762144707)
(41.86890983 9.156768353 1.745291566)
(88.84523518 6.844121394 -5.770806139)
(47.98267769 5.37690579 2.616681917)
(105.6051701 8.975620644 1.17019731)