/*--------------------------------*- C++ -*----------------------------------*\
| =========                 |                                                 |
| \\      /  F ield         | OpenFOAM: The Open Source CFD Toolbox           |
|  \\    /   O peration     | Version:  v1912                                 |
|   \\  /    A nd           | Website:  www.openfoam.com                      |
|    \\/     M anipulation  |                                                 |
\*---------------------------------------------------------------------------*/
FoamFile
{
    version     2.0;
    format      ascii;
    class       volScalarField;
    location    "1.84";
    object      T;
}
// * * * * * * * * * * * * * * * * * * * * * * * * * * * * * * * * * * * * * //

dimensions      [0 0 0 1 0 0 0];


internalField   nonuniform List<scalar> 
1900
(
1.0242
1.0162
1.01934
1.02018
1.02018
1.02034
1.02053
1.02104
1.02201
1.02357
1.0242
1.01619
1.01934
1.02019
1.0202
1.02038
1.02052
1.02081
1.02158
1.02317
1.0242
1.01619
1.01934
1.02019
1.0202
1.02037
1.0205
1.02084
1.02173
1.02306
1.0242
1.01619
1.01934
1.02019
1.0202
1.02038
1.02052
1.02081
1.02158
1.02317
1.0242
1.0162
1.01934
1.02018
1.02018
1.02034
1.02053
1.02104
1.02201
1.02357
1.02234
1.02558
1.029
1.03084
1.01186
1.0245
1.02764
1.03085
1.03417
1.02681
1.02426
1.02704
1.02988
1.0321
1.02392
1.0245
1.02764
1.03085
1.03417
1.02681
1.02234
1.02558
1.029
1.03084
1.01186
1.05619
1.0473
1.04294
1.02504
0.989576
1.0514
1.0461
1.04227
1.03192
1.01111
1.05059
1.04596
1.04161
1.03243
1.01424
1.0514
1.0461
1.04227
1.03192
1.01111
1.05619
1.0473
1.04294
1.02504
0.989576
0.869235
0.798534
0.851887
0.864086
0.860596
0.862032
0.870414
0.88043
0.894212
0.90993
0.926907
0.944309
0.961375
0.977083
0.989711
0.997205
0.999674
0.999989
1
1
1
1
0.999987
0.999626
0.996911
0.988886
0.97555
0.959013
0.940929
0.922142
0.903087
0.884041
0.865207
0.846792
0.829363
0.814588
0.804623
0.79274
0.71385
0.614384
0.972664
0.845198
0.868262
0.866429
0.861301
0.862189
0.870737
0.880469
0.894242
0.909947
0.926918
0.944317
0.961383
0.977091
0.989718
0.997208
0.999674
0.999989
1
1
1
1
0.999987
0.999626
0.996911
0.988886
0.97555
0.959013
0.940929
0.922142
0.903087
0.884041
0.865207
0.846792
0.829363
0.814588
0.804623
0.79274
0.71385
0.614384
0.975119
0.875883
0.877584
0.868422
0.861546
0.862222
0.87081
0.880486
0.894254
0.909952
0.926922
0.94432
0.961386
0.977094
0.98972
0.99721
0.999675
0.999989
1
1
1
1
0.999987
0.999626
0.996911
0.988886
0.97555
0.959013
0.940929
0.922142
0.903087
0.884041
0.865207
0.846792
0.829363
0.814588
0.804623
0.79274
0.71385
0.614384
0.972664
0.845198
0.868262
0.866429
0.861301
0.862189
0.870737
0.880469
0.894242
0.909947
0.926918
0.944317
0.961383
0.977091
0.989718
0.997208
0.999674
0.999989
1
1
1
1
0.999987
0.999626
0.996911
0.988886
0.97555
0.959013
0.940929
0.922142
0.903087
0.884041
0.865207
0.846792
0.829363
0.814588
0.804623
0.79274
0.71385
0.614384
0.869235
0.798534
0.851887
0.864086
0.860596
0.862032
0.870414
0.88043
0.894212
0.90993
0.926907
0.944309
0.961375
0.977083
0.989711
0.997205
0.999674
0.999989
1
1
1
1
0.999987
0.999626
0.996911
0.988886
0.97555
0.959013
0.940929
0.922142
0.903087
0.884041
0.865207
0.846792
0.829363
0.814588
0.804623
0.79274
0.71385
0.614384
0.67702
0.744929
0.838401
0.856573
0.857982
0.861079
0.869338
0.880069
0.894018
0.909838
0.926851
0.944268
0.96134
0.977047
0.989677
0.997187
0.99967
0.999989
1
1
1
1
0.999987
0.999626
0.996911
0.988886
0.97555
0.959013
0.940929
0.922142
0.903087
0.884041
0.865207
0.846792
0.829363
0.814588
0.804623
0.79274
0.71385
0.614384
0.598546
0.735807
0.828803
0.845565
0.852338
0.858157
0.867221
0.878985
0.893431
0.909542
0.926672
0.94413
0.961211
0.976925
0.989583
0.997142
0.99966
0.999987
0.999998
0.999999
0.999999
0.999998
0.999986
0.999625
0.99691
0.988885
0.975549
0.959012
0.940927
0.922141
0.903087
0.88404
0.865207
0.846792
0.829363
0.814588
0.804623
0.79274
0.71385
0.614384
0.596953
0.739561
0.823912
0.838893
0.846557
0.854234
0.864487
0.877445
0.892454
0.908934
0.926225
0.943747
0.960863
0.976624
0.989355
0.996994
0.999562
0.9999
0.999912
0.999912
0.999912
0.999912
0.999899
0.999539
0.996824
0.988801
0.975468
0.958937
0.94086
0.922082
0.903036
0.883999
0.865174
0.846767
0.829344
0.814574
0.804613
0.792733
0.713847
0.614384
0.601819
0.736804
0.817819
0.831788
0.840042
0.849532
0.861097
0.875072
0.890661
0.90742
0.924825
0.942373
0.959487
0.975265
0.988062
0.995786
0.9984
0.998747
0.99876
0.99876
0.99876
0.99876
0.998747
0.998387
0.995679
0.987674
0.974377
0.957899
0.93989
0.921193
0.902237
0.883295
0.864567
0.846254
0.828919
0.814226
0.804327
0.792519
0.713717
0.614369
0.608258
0.729761
0.810371
0.823789
0.832968
0.843748
0.856131
0.870405
0.886069
0.902766
0.920034
0.93744
0.954453
0.970182
0.982965
0.990699
0.993325
0.993676
0.993688
0.993688
0.993688
0.993688
0.993676
0.99332
0.990636
0.9827
0.969519
0.953202
0.935395
0.916934
0.898246
0.879595
0.861177
0.843185
0.826169
0.811774
0.802148
0.7907
0.712416
0.614055
0.616117
0.720486
0.801985
0.815411
0.823255
0.833433
0.84605
0.860568
0.87632
0.892933
0.91004
0.927263
0.944112
0.959712
0.972404
0.980083
0.982686
0.983032
0.983044
0.983044
0.983044
0.983044
0.983032
0.982685
0.980056
0.972248
0.959263
0.94319
0.925667
0.907527
0.889193
0.870927
0.852922
0.835365
0.818787
0.804811
0.795653
0.784843
0.707645
0.611956
0.612273
0.709619
0.790482
0.801578
0.808382
0.81857
0.831672
0.846482
0.862356
0.878962
0.895989
0.913095
0.92981
0.945276
0.957835
0.965395
0.967933
0.968266
0.968277
0.968277
0.968277
0.968277
0.968266
0.967935
0.965389
0.957763
0.94502
0.929219
0.911988
0.894158
0.876149
0.858223
0.840574
0.823381
0.807149
0.793476
0.784816
0.774603
0.698584
0.605866
0.604575
0.695189
0.774367
0.784296
0.790644
0.801264
0.815
0.830185
0.84624
0.862896
0.879898
0.896933
0.913537
0.928849
0.941219
0.948594
0.951031
0.951342
0.951353
0.951353
0.951353
0.951353
0.951342
0.951032
0.948598
0.941198
0.92873
0.913211
0.896263
0.878715
0.860989
0.843348
0.825985
0.809072
0.793077
0.779572
0.771298
0.761527
0.686737
0.595629
0.591937
0.680182
0.756975
0.765719
0.772082
0.783295
0.797572
0.813076
0.829299
0.84602
0.863005
0.879963
0.896437
0.911562
0.923689
0.93082
0.933122
0.933407
0.933416
0.933417
0.933417
0.933416
0.933407
0.933124
0.930826
0.923692
0.911526
0.896295
0.879622
0.86234
0.844873
0.827483
0.810369
0.793684
0.777884
0.7645
0.75638
0.746885
0.673905
0.583033
0.576865
0.665891
0.738731
0.746762
0.753605
0.765414
0.780113
0.79583
0.812184
0.828939
0.845893
0.862748
0.879058
0.893954
0.905788
0.912626
0.91477
0.915025
0.915032
0.915032
0.915032
0.915032
0.915025
0.914771
0.91263
0.905797
0.893957
0.879022
0.862619
0.845592
0.828367
0.811216
0.794312
0.777848
0.762212
0.74896
0.740846
0.731366
0.661028
0.569412
0.561523
0.651655
0.719866
0.728338
0.735695
0.748027
0.762931
0.778856
0.795237
0.811992
0.828859
0.845577
0.861686
0.876316
0.887813
0.89432
0.896289
0.896511
0.896518
0.896518
0.896518
0.896518
0.896511
0.89629
0.894322
0.887821
0.87633
0.861698
0.845561
0.828778
0.811791
0.79484
0.778172
0.761835
0.746433
0.733273
0.725114
0.715329
0.648322
0.556272
0.545699
0.63766
0.701325
0.710753
0.718685
0.731285
0.746353
0.762244
0.778703
0.795345
0.812099
0.828632
0.844512
0.858845
0.869973
0.876118
0.877903
0.878092
0.878097
0.878097
0.878097
0.878097
0.878092
0.877903
0.876119
0.869978
0.858858
0.844534
0.828659
0.812119
0.795334
0.778627
0.762053
0.745999
0.730687
0.717716
0.709349
0.699164
0.63584
0.542672
0.532098
0.624173
0.683915
0.694149
0.702537
0.715422
0.730264
0.7463
0.762552
0.779156
0.795718
0.812056
0.827685
0.841706
0.85244
0.8582
0.859793
0.859951
0.859955
0.859955
0.859955
0.859955
0.859951
0.859793
0.8582
0.852442
0.841714
0.827703
0.812088
0.795765
0.779213
0.762609
0.746343
0.730264
0.715355
0.702338
0.693784
0.683187
0.623416
0.530677
0.518814
0.611619
0.66761
0.678427
0.687298
0.700214
0.715069
0.730748
0.747044
0.763407
0.779838
0.795965
0.811362
0.825076
0.835403
0.840763
0.842165
0.842294
0.842296
0.842296
0.842296
0.842296
0.842294
0.842165
0.840763
0.835403
0.825079
0.811372
0.795987
0.779877
0.763466
0.747127
0.730851
0.715193
0.700336
0.687425
0.678496
0.667547
0.61145
0.518302
0.508206
0.600306
0.653063
0.664115
0.673397
0.686383
0.700846
0.716455
0.732385
0.748621
0.764839
0.780807
0.796007
0.809446
0.819376
0.824336
0.825556
0.825657
0.825659
0.825659
0.825659
0.825659
0.825657
0.825556
0.824336
0.819376
0.809446
0.79601
0.780817
0.764861
0.74866
0.732446
0.716541
0.700962
0.686527
0.673572
0.664292
0.653203
0.600378
0.508065
0.49743
0.589317
0.639126
0.650673
0.660396
0.673931
0.688453
0.70401
0.719976
0.736063
0.752178
0.768
0.783046
0.796241
0.805789
0.810366
0.811416
0.811496
0.811498
0.811498
0.811498
0.811498
0.811496
0.811416
0.810366
0.805788
0.79624
0.783046
0.768003
0.752187
0.736081
0.720006
0.704057
0.688521
0.674021
0.660513
0.650801
0.639253
0.589416
0.497437
0.494162
0.58252
0.629607
0.640781
0.650999
0.664923
0.679827
0.695731
0.711933
0.728252
0.744436
0.760136
0.774796
0.787483
0.796529
0.800729
0.801639
0.801702
0.801703
0.801703
0.801703
0.801703
0.801702
0.801639
0.800729
0.796529
0.787483
0.774796
0.760136
0.744438
0.728257
0.711942
0.695748
0.679854
0.664959
0.651049
0.640841
0.62967
0.582574
0.494176
0.49169
0.574928
0.619724
0.63034
0.640162
0.654443
0.669507
0.685691
0.702247
0.718816
0.735107
0.750752
0.765231
0.777518
0.785959
0.78964
0.790369
0.790415
0.790415
0.790415
0.790415
0.790415
0.790415
0.790369
0.78964
0.785959
0.777518
0.76523
0.750751
0.735107
0.718817
0.702249
0.685697
0.669518
0.65446
0.640186
0.630372
0.61976
0.574961
0.491701
0.460955
0.532864
0.576402
0.584591
0.591661
0.602833
0.614608
0.62702
0.639994
0.652977
0.666145
0.679368
0.692168
0.703166
0.710404
0.71327
0.713763
0.713788
0.713789
0.713789
0.713789
0.713789
0.713788
0.713763
0.71327
0.710404
0.703166
0.692167
0.679367
0.666143
0.652974
0.639991
0.627016
0.614604
0.602831
0.591661
0.584595
0.576411
0.532876
0.460963
0.414996
0.459124
0.491438
0.494218
0.497414
0.508334
0.519037
0.531913
0.544316
0.558358
0.571959
0.585649
0.597719
0.606394
0.610504
0.611488
0.611577
0.611579
0.611579
0.611579
0.611579
0.611579
0.611579
0.611577
0.611488
0.610504
0.606394
0.597719
0.585649
0.571959
0.558358
0.544316
0.531912
0.519036
0.508333
0.497412
0.494216
0.491436
0.459123
0.414996
0.414996
0.459124
0.491438
0.494218
0.497414
0.508334
0.519037
0.531913
0.544316
0.558358
0.571959
0.585649
0.597719
0.606394
0.610504
0.611488
0.611577
0.611579
0.611579
0.611579
0.611579
0.611579
0.611579
0.611577
0.611488
0.610504
0.606394
0.597719
0.585649
0.571959
0.558358
0.544316
0.531912
0.519036
0.508333
0.497412
0.494216
0.491436
0.459123
0.414996
0.460955
0.532864
0.576402
0.584591
0.591661
0.602833
0.614608
0.62702
0.639994
0.652977
0.666145
0.679368
0.692168
0.703166
0.710404
0.71327
0.713763
0.713788
0.713789
0.713789
0.713789
0.713789
0.713788
0.713763
0.71327
0.710404
0.703166
0.692167
0.679367
0.666143
0.652974
0.639991
0.627016
0.614604
0.602831
0.591661
0.584595
0.576411
0.532876
0.460963
0.49169
0.574928
0.619724
0.63034
0.640162
0.654443
0.669507
0.685691
0.702247
0.718816
0.735107
0.750752
0.765231
0.777518
0.785959
0.78964
0.790369
0.790415
0.790415
0.790415
0.790415
0.790415
0.790415
0.790369
0.78964
0.785959
0.777518
0.76523
0.750751
0.735107
0.718817
0.702249
0.685697
0.669518
0.65446
0.640186
0.630372
0.61976
0.574961
0.491701
0.494162
0.58252
0.629607
0.640781
0.650999
0.664923
0.679827
0.695731
0.711933
0.728252
0.744436
0.760136
0.774796
0.787483
0.796529
0.800729
0.801639
0.801702
0.801703
0.801703
0.801703
0.801703
0.801702
0.801639
0.800729
0.796529
0.787483
0.774796
0.760136
0.744438
0.728257
0.711942
0.695748
0.679854
0.664959
0.651049
0.640841
0.62967
0.582574
0.494176
0.49743
0.589317
0.639126
0.650673
0.660396
0.673931
0.688453
0.70401
0.719976
0.736063
0.752178
0.768
0.783046
0.796241
0.805789
0.810366
0.811416
0.811496
0.811498
0.811498
0.811498
0.811498
0.811496
0.811416
0.810366
0.805788
0.79624
0.783046
0.768003
0.752187
0.736081
0.720006
0.704057
0.688521
0.674021
0.660513
0.650801
0.639253
0.589416
0.497437
0.508206
0.600306
0.653063
0.664115
0.673397
0.686383
0.700846
0.716455
0.732385
0.748621
0.764839
0.780807
0.796007
0.809446
0.819376
0.824336
0.825556
0.825657
0.825659
0.825659
0.825659
0.825659
0.825657
0.825556
0.824336
0.819376
0.809446
0.79601
0.780817
0.764861
0.74866
0.732446
0.716541
0.700962
0.686527
0.673572
0.664292
0.653203
0.600378
0.508065
0.518814
0.611619
0.66761
0.678427
0.687298
0.700214
0.715069
0.730748
0.747044
0.763407
0.779838
0.795965
0.811362
0.825076
0.835403
0.840763
0.842165
0.842294
0.842296
0.842296
0.842296
0.842296
0.842294
0.842165
0.840763
0.835403
0.825079
0.811372
0.795987
0.779877
0.763466
0.747127
0.730851
0.715193
0.700336
0.687425
0.678496
0.667547
0.61145
0.518302
0.532098
0.624173
0.683915
0.694149
0.702537
0.715422
0.730264
0.7463
0.762552
0.779156
0.795718
0.812056
0.827685
0.841706
0.85244
0.8582
0.859793
0.859951
0.859955
0.859955
0.859955
0.859955
0.859951
0.859793
0.8582
0.852442
0.841714
0.827703
0.812088
0.795765
0.779213
0.762609
0.746343
0.730264
0.715355
0.702338
0.693784
0.683187
0.623416
0.530677
0.545699
0.63766
0.701325
0.710753
0.718685
0.731285
0.746353
0.762244
0.778703
0.795345
0.812099
0.828632
0.844512
0.858845
0.869973
0.876118
0.877903
0.878092
0.878097
0.878097
0.878097
0.878097
0.878092
0.877903
0.876119
0.869978
0.858858
0.844534
0.828659
0.812119
0.795334
0.778627
0.762053
0.745999
0.730687
0.717716
0.709349
0.699164
0.63584
0.542672
0.561523
0.651655
0.719866
0.728338
0.735695
0.748027
0.762931
0.778856
0.795237
0.811992
0.828859
0.845577
0.861686
0.876316
0.887813
0.89432
0.896289
0.896511
0.896518
0.896518
0.896518
0.896518
0.896511
0.89629
0.894322
0.887821
0.87633
0.861698
0.845561
0.828778
0.811791
0.79484
0.778172
0.761835
0.746433
0.733273
0.725114
0.715329
0.648322
0.556272
0.576865
0.665891
0.738731
0.746762
0.753605
0.765414
0.780113
0.79583
0.812184
0.828939
0.845893
0.862748
0.879058
0.893954
0.905788
0.912626
0.91477
0.915025
0.915032
0.915032
0.915032
0.915032
0.915025
0.914771
0.91263
0.905797
0.893957
0.879022
0.862619
0.845592
0.828367
0.811216
0.794312
0.777848
0.762212
0.74896
0.740846
0.731366
0.661028
0.569412
0.591937
0.680182
0.756975
0.765719
0.772082
0.783295
0.797572
0.813076
0.829299
0.84602
0.863005
0.879963
0.896437
0.911562
0.923689
0.93082
0.933122
0.933407
0.933416
0.933417
0.933417
0.933416
0.933407
0.933124
0.930826
0.923692
0.911526
0.896295
0.879622
0.86234
0.844873
0.827483
0.810369
0.793684
0.777884
0.7645
0.75638
0.746885
0.673905
0.583033
0.604575
0.695189
0.774367
0.784296
0.790644
0.801264
0.815
0.830185
0.84624
0.862896
0.879898
0.896933
0.913537
0.928849
0.941219
0.948594
0.951031
0.951342
0.951353
0.951353
0.951353
0.951353
0.951342
0.951032
0.948598
0.941198
0.92873
0.913211
0.896263
0.878715
0.860989
0.843348
0.825985
0.809072
0.793077
0.779572
0.771298
0.761527
0.686737
0.595629
0.612273
0.709619
0.790482
0.801578
0.808382
0.81857
0.831672
0.846482
0.862356
0.878962
0.895989
0.913095
0.92981
0.945276
0.957835
0.965395
0.967933
0.968266
0.968277
0.968277
0.968277
0.968277
0.968266
0.967935
0.965389
0.957763
0.94502
0.929219
0.911988
0.894158
0.876149
0.858223
0.840574
0.823381
0.807149
0.793476
0.784816
0.774603
0.698584
0.605866
0.616117
0.720486
0.801985
0.815411
0.823255
0.833433
0.84605
0.860568
0.87632
0.892933
0.91004
0.927263
0.944112
0.959712
0.972404
0.980083
0.982686
0.983032
0.983044
0.983044
0.983044
0.983044
0.983032
0.982685
0.980056
0.972248
0.959263
0.94319
0.925667
0.907527
0.889193
0.870927
0.852922
0.835365
0.818787
0.804811
0.795653
0.784843
0.707645
0.611956
0.608258
0.729761
0.810371
0.823789
0.832968
0.843748
0.856131
0.870405
0.886069
0.902766
0.920034
0.93744
0.954453
0.970182
0.982965
0.990699
0.993325
0.993676
0.993688
0.993688
0.993688
0.993688
0.993676
0.99332
0.990636
0.9827
0.969519
0.953202
0.935395
0.916934
0.898246
0.879595
0.861177
0.843185
0.826169
0.811774
0.802148
0.7907
0.712416
0.614055
0.601819
0.736804
0.817819
0.831788
0.840042
0.849532
0.861097
0.875072
0.890661
0.90742
0.924825
0.942373
0.959487
0.975265
0.988062
0.995786
0.9984
0.998747
0.99876
0.99876
0.99876
0.99876
0.998747
0.998387
0.995679
0.987674
0.974377
0.957899
0.93989
0.921193
0.902237
0.883295
0.864567
0.846254
0.828919
0.814226
0.804327
0.792519
0.713717
0.614369
0.596953
0.739561
0.823912
0.838893
0.846557
0.854234
0.864487
0.877445
0.892454
0.908934
0.926225
0.943747
0.960863
0.976624
0.989355
0.996994
0.999562
0.9999
0.999912
0.999912
0.999912
0.999912
0.999899
0.999539
0.996824
0.988801
0.975468
0.958937
0.94086
0.922082
0.903036
0.883999
0.865174
0.846767
0.829344
0.814574
0.804613
0.792733
0.713847
0.614384
0.598546
0.735807
0.828803
0.845565
0.852338
0.858157
0.867221
0.878985
0.893431
0.909542
0.926672
0.94413
0.961211
0.976925
0.989583
0.997142
0.99966
0.999987
0.999998
0.999999
0.999999
0.999998
0.999986
0.999625
0.99691
0.988885
0.975549
0.959012
0.940927
0.922141
0.903087
0.88404
0.865207
0.846792
0.829363
0.814588
0.804623
0.79274
0.71385
0.614384
0.67702
0.744929
0.838401
0.856573
0.857982
0.861079
0.869338
0.880069
0.894018
0.909838
0.926851
0.944268
0.96134
0.977047
0.989677
0.997187
0.99967
0.999989
1
1
1
1
0.999987
0.999626
0.996911
0.988886
0.97555
0.959013
0.940929
0.922142
0.903087
0.884041
0.865207
0.846792
0.829363
0.814588
0.804623
0.79274
0.71385
0.614384
)
;

boundaryField
{
    inlet
    {
        type            fixedValue;
        value           uniform 1;
    }
    outlet
    {
        type            zeroGradient;
    }
    obstacle
    {
        type            zeroGradient;
    }
    empty
    {
        type            empty;
    }
}


// ************************************************************************* //
