/*--------------------------------*- C++ -*----------------------------------*\
| =========                 |                                                 |
| \\      /  F ield         | OpenFOAM: The Open Source CFD Toolbox           |
|  \\    /   O peration     | Version:  v1912                                 |
|   \\  /    A nd           | Website:  www.openfoam.com                      |
|    \\/     M anipulation  |                                                 |
\*---------------------------------------------------------------------------*/
FoamFile
{
    version     2.0;
    format      ascii;
    class       volScalarField;
    location    "7.68";
    object      rho;
}
// * * * * * * * * * * * * * * * * * * * * * * * * * * * * * * * * * * * * * //

dimensions      [1 -3 0 0 0 0 0];


internalField   nonuniform List<scalar> 
1900
(
22408.3
12677.3
12851.9
12918.6
12852.9
12739.1
12558.6
12395.5
12301.2
12248.2
22408.3
12677.4
12851.9
12918.5
12852.8
12739.7
12559.5
12394.7
12310.8
12252.9
22408.2
12677.4
12851.9
12918.5
12852.8
12740.2
12559.8
12393.1
12302.2
12237.8
22408.3
12677.4
12851.9
12918.5
12852.8
12739.7
12559.5
12394.7
12310.8
12252.9
22408.3
12677.3
12851.9
12918.6
12852.9
12739.1
12558.6
12395.5
12301.2
12248.2
12357.9
12179.1
12044
11695.2
11570.5
12212.4
12089.3
11972.9
11644.3
11172.4
12177.9
12069.8
11966
11681.5
11241.8
12212.4
12089.3
11972.9
11644.3
11172.4
12357.9
12179.1
12044
11695.2
11570.5
6146.66
4186.27
3250.23
2725.83
2210.56
6776.01
4508.23
3432.21
2869.95
2336.77
6961.23
4464.91
3359.98
2811.63
2263.99
6776.01
4508.23
3432.21
2869.95
2336.77
6146.66
4186.27
3250.23
2725.83
2210.56
2377.53
2469.41
2412.85
2330.61
2237.37
2055.59
1846.54
1853.99
2252.43
3087.78
3148.28
3077.27
3044.46
3047.66
3048.59
2958.72
2731.04
2426.14
2098.97
1729.31
1372.76
1184.92
1127.85
1101.47
1078.81
1059.45
1046.09
1040.5
1041.1
1043.98
1047.78
1073.88
1217.36
1629.77
1955.59
2107.84
2216.22
2314.09
2437.97
2581.21
2162.54
2236.58
2277.2
2238.65
2153.31
1965.78
1767.18
1773.63
2178.68
3011.78
3106.22
3062.4
3038.42
3046.32
3051.98
2961.63
2733.38
2433.1
2107.39
1735.24
1374.91
1185.18
1127.79
1101.45
1078.79
1059.38
1045.99
1040.38
1040.99
1043.89
1047.69
1073.82
1217.23
1629.75
1955.57
2107.73
2216.42
2313.98
2437.89
2581.56
2134.31
2158.56
2205.48
2199.84
2146.23
1953.13
1757.11
1762.58
2137.07
2991.68
3097.87
3056.41
3034.1
3044.63
3066.01
3006.08
2763.06
2439.59
2106.77
1734.07
1374.95
1185.32
1127.79
1101.45
1078.79
1059.36
1045.95
1040.34
1040.96
1043.85
1047.66
1073.79
1217.19
1629.76
1955.55
2107.71
2216.49
2314
2437.84
2581.47
2162.54
2236.58
2277.2
2238.65
2153.31
1965.78
1767.18
1773.63
2178.68
3011.78
3106.22
3062.4
3038.42
3046.32
3051.98
2961.63
2733.38
2433.1
2107.39
1735.24
1374.91
1185.18
1127.79
1101.45
1078.79
1059.38
1045.99
1040.38
1040.99
1043.89
1047.69
1073.82
1217.23
1629.75
1955.57
2107.73
2216.42
2313.98
2437.89
2581.56
2377.53
2469.41
2412.85
2330.61
2237.37
2055.59
1846.54
1853.99
2252.43
3087.78
3148.28
3077.27
3044.46
3047.66
3048.59
2958.72
2731.04
2426.14
2098.97
1729.31
1372.76
1184.92
1127.85
1101.47
1078.81
1059.45
1046.09
1040.5
1041.1
1043.98
1047.78
1073.88
1217.36
1629.77
1955.59
2107.84
2216.22
2314.09
2437.97
2581.21
3147.04
2899.24
2677.33
2521.35
2392.45
2206.39
2006.24
2023.1
2524.85
3175.27
3170.71
3072.62
3033.25
3035.95
3039.47
2954.06
2719.23
2409.98
2084.72
1716.92
1365.01
1183.39
1128.04
1101.54
1078.91
1059.77
1046.56
1041.03
1041.6
1044.41
1048.17
1074.22
1217.69
1629.53
1955.32
2107.96
2215.75
2314.07
2437.96
2581.19
3592.17
3269.43
2959.03
2703.02
2499.78
2310
2202.5
2279.43
2855.57
3239.97
3178.06
3055.45
3020.16
3007.52
2982.78
2866.7
2629.97
2344.31
2037.87
1679.3
1344.12
1179.51
1128.34
1101.75
1079.15
1060.44
1047.64
1042.3
1042.79
1045.43
1049.05
1075.05
1218.39
1629.06
1954.95
2107.89
2216.35
2314.3
2437.75
2580.69
3635.95
3471.01
3273.21
3023.47
2753.33
2529.6
2437.69
2632.79
3077.57
3217.89
3100.95
2968.79
2946.4
2924.67
2885.72
2750.68
2523.35
2263.35
1972.63
1623.49
1314.99
1174.51
1128.76
1102.2
1079.7
1061.52
1049.25
1044.22
1044.63
1047.05
1050.44
1076.35
1219.5
1628.69
1954.66
2107.56
2217.34
2314.73
2438.94
2581.32
3625.48
3397.55
3170.28
2925.52
2664.49
2631.08
2698.37
2807.44
3029.81
3053.21
2909.65
2881.42
2867.49
2837.51
2769.98
2617.88
2406.24
2170.09
1890.37
1553.63
1282.69
1169.75
1129.34
1102.84
1080.54
1062.99
1051.37
1046.71
1047.05
1049.21
1052.34
1078.16
1221.22
1629.15
1955.49
2108.03
2219.04
2315.84
2440.74
2582.27
3579.31
3332.1
3112.88
2914.52
2761.74
2759.81
2793.37
2863.22
2915.05
2806.69
2761.74
2783.95
2757.34
2726.64
2638.98
2480.27
2284.83
2065.99
1792.76
1475.36
1251.82
1165.79
1129.84
1103.51
1081.56
1064.79
1053.9
1049.67
1049.97
1051.86
1054.69
1080.41
1222.98
1628.99
1955.64
2107.92
2220.22
2317.27
2442.29
2582.92
3475.63
3250.27
3073.6
2934.61
2840.26
2794.27
2762.52
2758.2
2678.61
2608.35
2651.73
2653.77
2655.97
2611
2498.58
2339.82
2162.08
1954.87
1684.71
1397.25
1226.97
1163.49
1130.53
1104.42
1083.04
1067.19
1057.12
1053.36
1053.64
1055.27
1057.85
1083.52
1226.33
1631.03
1957.69
2109.43
2222.72
2320.21
2444.92
2584.07
3294.24
3114.18
2988.32
2882.2
2782.29
2694.38
2627.39
2548
2448.87
2480.36
2540.79
2573.72
2548.48
2474.18
2349.13
2202.12
2040.82
1837.28
1570.97
1328.79
1209.89
1162.14
1131.17
1105.52
1084.93
1070.12
1060.95
1057.67
1057.95
1059.35
1061.63
1087.27
1229.19
1631.73
1958.97
2110.43
2224.61
2322.89
2447
2584.42
3080.14
2953.4
2862.82
2754.64
2627.37
2503.34
2399.25
2312.23
2343.1
2441.87
2473.76
2465.48
2419.85
2323.53
2203.12
2074.12
1922.08
1712.99
1460.13
1278.53
1201.17
1162.63
1132.74
1107.73
1088.12
1074.41
1066.11
1063.24
1063.48
1064.64
1066.7
1092.39
1234.48
1635.24
1961.95
2112.5
2227.56
2326.61
2449.77
2585.13
2853.5
2729.69
2610.72
2480.93
2362.76
2281.33
2243.65
2275.16
2345.77
2365.14
2373.08
2344.42
2271.62
2174.29
2071.31
1956.42
1801.22
1583.79
1367.02
1248.8
1197.33
1163.45
1134.31
1110.15
1091.6
1079.01
1071.54
1069.01
1069.25
1070.24
1072.17
1097.91
1238.86
1636.7
1963.73
2114.39
2230.91
2330.7
2452.59
2585.22
2595.44
2507.89
2385.85
2331.78
2283.36
2250.73
2255.05
2260.14
2274.45
2280.72
2259.67
2203.74
2125.13
2041.67
1953.48
1839.19
1669.66
1459.63
1304.55
1234.73
1196.19
1164.2
1135.7
1112.59
1095.18
1083.61
1076.86
1074.54
1074.75
1075.62
1077.6
1103.58
1244.38
1639.4
1965.95
2116.83
2235.53
2336.28
2456.6
2585.9
2571.92
2509.54
2440.48
2393.66
2326.16
2273.8
2232.74
2215.33
2200.98
2173.38
2125.09
2058.6
1990.27
1925.19
1844.13
1719.27
1537.54
1366.09
1273.75
1228.55
1195.64
1165.37
1138.78
1117.63
1102.05
1092.15
1086.52
1084.89
1085.45
1086.81
1089.05
1115.75
1256.28
1653.08
1983.79
2131.69
2246.64
2344.74
2461.08
2585.15
2601.03
2529.01
2480.36
2421.32
2366.73
2297.81
2215.33
2150.51
2099.3
2048.14
1991
1935.23
1886.52
1828.74
1736.87
1597.28
1437.68
1329.85
1278.75
1247.22
1218.48
1191.22
1168.2
1150.45
1137.86
1130.38
1126.48
1125.92
1127.17
1129.21
1132
1160.62
1306.46
1713.68
2048.96
2190.2
2298.9
2380.65
2475.48
2585.44
2608.01
2552.02
2523.14
2480.58
2440.61
2324.49
2194.19
2078.64
1998.74
1942.01
1896.08
1863.48
1836.64
1791.1
1695.87
1556.71
1444.15
1397
1379.82
1365.52
1349.93
1335.12
1323.55
1316.08
1312.34
1312.79
1313.92
1319.11
1324.13
1329.58
1333.51
1369.6
1543.26
1985.67
2309.12
2391.42
2439.65
2467.89
2517.69
2585.67
2624.09
2593.65
2591.87
2568.48
2528.59
2388.4
2211.82
2057.25
1978.44
1953.71
1956.43
1973.02
1973.26
1928.32
1843.62
1768.78
1738.06
1735.44
1737.25
1733.84
1724.84
1714.32
1705.3
1699.78
1697.29
1699.3
1701.45
1707.47
1711.82
1716.32
1721.69
1765.01
1962.73
2393.73
2681.06
2715.09
2712.9
2671.67
2627.83
2594.27
2656.59
2657.48
2729.25
2781.46
2797.95
2718.71
2528.69
2333.98
2264.51
2273.53
2302.82
2322.43
2294.05
2218.15
2130.91
2084.82
2074.83
2071.3
2063.15
2048.36
2029.36
2011.02
1996.03
1986.24
1980.55
1979.79
1980.27
1983.6
1986.04
1988.46
1994.86
2041.05
2224.14
2616.14
2895.25
2940.74
2937.98
2880.18
2771.4
2626.31
2684.97
2802.45
2982.78
3114.38
3193.97
3173.57
2960.44
2689.03
2576.13
2545.38
2518.47
2468.61
2382.1
2299.02
2250.31
2235.92
2232.94
2226.84
2214.62
2195.75
2174.64
2156
2141.94
2132.62
2126.3
2124.15
2123.41
2124.64
2125.56
2126.48
2130.69
2172.55
2308.56
2633.3
2913.08
2987.19
3000.28
2966.03
2854.3
2652.88
2687.99
2893.4
3127.3
3275.92
3342.43
3296
3058.44
2784.15
2652.09
2586.82
2527.48
2462.5
2398.47
2359.14
2343.88
2341.3
2337.75
2328.52
2312.23
2292.24
2273.08
2257.4
2246.46
2239.68
2235.83
2235.35
2235.35
2237
2238.81
2241.09
2244.38
2281.14
2376.2
2629.12
2895.35
2990.53
3007.08
2970.17
2840.13
2638.81
2691.08
2884.86
3081.76
3172.12
3222.72
3162.63
2955.08
2733.95
2614.28
2546.7
2490.59
2444.85
2415.41
2406.56
2407.31
2409.37
2407.31
2399.21
2386.06
2371.16
2358.22
2347.34
2339.51
2334.72
2332.54
2333.37
2334.37
2336.92
2339.55
2342.99
2346.94
2368.94
2434.73
2605.1
2832.94
2953.41
2968.41
2948.5
2804.1
2614.12
3484.24
2642.13
2885.44
2961.66
3019.81
2973.74
2821.02
2672.24
2586.96
2540.84
2503.59
2479.96
2470.68
2473.06
2479.56
2484.53
2484.99
2480.82
2473
2464.71
2460
2456.61
2455.04
2455.4
2456.33
2458.53
2459.85
2461.87
2463.55
2466.03
2468.32
2477.3
2507.51
2595.93
2740.01
2845.32
2842.83
2811.83
2566.35
3035.15
32423.3
3199.42
2660.33
2701.18
2713.57
2682.89
2619.92
2543.79
2505.06
2493.68
2488.5
2500.38
2514.8
2528.59
2540
2549.36
2556.72
2561.7
2564.31
2565.96
2568.3
2571.15
2574.77
2578.48
2581.62
2584.67
2586.38
2588.25
2589.23
2590.56
2590.47
2591.5
2592.13
2597.94
2623.97
2654.56
2643.85
2627.67
3007.01
19542.4
32423.3
3199.42
2660.33
2701.18
2713.57
2682.89
2619.92
2543.79
2505.06
2493.68
2488.5
2500.38
2514.8
2528.59
2540
2549.36
2556.72
2561.7
2564.31
2565.96
2568.3
2571.15
2574.77
2578.48
2581.62
2584.67
2586.38
2588.25
2589.23
2590.56
2590.47
2591.5
2592.13
2597.94
2623.97
2654.56
2643.85
2627.67
3007.01
19542.4
3484.24
2642.13
2885.44
2961.66
3019.81
2973.74
2821.02
2672.24
2586.96
2540.84
2503.59
2479.96
2470.68
2473.06
2479.56
2484.53
2484.99
2480.82
2473
2464.71
2460
2456.61
2455.04
2455.4
2456.33
2458.53
2459.85
2461.87
2463.55
2466.03
2468.32
2477.3
2507.51
2595.93
2740.01
2845.32
2842.83
2811.83
2566.35
3035.15
2691.08
2884.86
3081.76
3172.12
3222.72
3162.63
2955.08
2733.95
2614.28
2546.7
2490.59
2444.85
2415.41
2406.56
2407.31
2409.37
2407.31
2399.21
2386.06
2371.16
2358.22
2347.34
2339.51
2334.72
2332.54
2333.37
2334.37
2336.92
2339.55
2342.99
2346.94
2368.94
2434.73
2605.1
2832.94
2953.41
2968.41
2948.5
2804.1
2614.12
2687.99
2893.4
3127.3
3275.92
3342.43
3296
3058.44
2784.15
2652.09
2586.82
2527.48
2462.5
2398.47
2359.14
2343.88
2341.3
2337.75
2328.52
2312.23
2292.24
2273.08
2257.4
2246.46
2239.68
2235.83
2235.35
2235.35
2237
2238.81
2241.09
2244.38
2281.14
2376.2
2629.12
2895.35
2990.53
3007.08
2970.17
2840.13
2638.81
2684.97
2802.45
2982.78
3114.38
3193.97
3173.57
2960.44
2689.03
2576.13
2545.38
2518.47
2468.61
2382.1
2299.02
2250.31
2235.92
2232.94
2226.84
2214.62
2195.75
2174.64
2156
2141.94
2132.62
2126.3
2124.15
2123.41
2124.64
2125.56
2126.48
2130.69
2172.55
2308.56
2633.3
2913.08
2987.19
3000.28
2966.03
2854.3
2652.88
2656.59
2657.48
2729.25
2781.46
2797.95
2718.71
2528.69
2333.98
2264.51
2273.53
2302.82
2322.43
2294.05
2218.15
2130.91
2084.82
2074.83
2071.3
2063.15
2048.36
2029.36
2011.02
1996.03
1986.24
1980.55
1979.79
1980.27
1983.6
1986.04
1988.46
1994.86
2041.05
2224.14
2616.14
2895.25
2940.74
2937.98
2880.18
2771.4
2626.31
2624.09
2593.65
2591.87
2568.48
2528.59
2388.4
2211.82
2057.25
1978.44
1953.71
1956.43
1973.02
1973.26
1928.32
1843.62
1768.78
1738.06
1735.44
1737.25
1733.84
1724.84
1714.32
1705.3
1699.78
1697.29
1699.3
1701.45
1707.47
1711.82
1716.32
1721.69
1765.01
1962.73
2393.73
2681.06
2715.09
2712.9
2671.67
2627.83
2594.27
2608.01
2552.02
2523.14
2480.58
2440.61
2324.49
2194.19
2078.64
1998.74
1942.01
1896.08
1863.48
1836.64
1791.1
1695.87
1556.71
1444.15
1397
1379.82
1365.52
1349.93
1335.12
1323.55
1316.08
1312.34
1312.79
1313.92
1319.11
1324.13
1329.58
1333.51
1369.6
1543.26
1985.67
2309.12
2391.42
2439.65
2467.89
2517.69
2585.67
2601.03
2529.01
2480.36
2421.32
2366.73
2297.81
2215.33
2150.51
2099.3
2048.14
1991
1935.23
1886.52
1828.74
1736.87
1597.28
1437.68
1329.85
1278.75
1247.22
1218.48
1191.22
1168.2
1150.45
1137.86
1130.38
1126.48
1125.92
1127.17
1129.21
1132
1160.62
1306.46
1713.68
2048.96
2190.2
2298.9
2380.65
2475.48
2585.44
2571.92
2509.54
2440.48
2393.66
2326.16
2273.8
2232.74
2215.33
2200.98
2173.38
2125.09
2058.6
1990.27
1925.19
1844.13
1719.27
1537.54
1366.09
1273.75
1228.55
1195.64
1165.37
1138.78
1117.63
1102.05
1092.15
1086.52
1084.89
1085.45
1086.81
1089.05
1115.75
1256.28
1653.08
1983.79
2131.69
2246.64
2344.74
2461.08
2585.15
2595.44
2507.89
2385.85
2331.78
2283.36
2250.73
2255.05
2260.14
2274.45
2280.72
2259.67
2203.74
2125.13
2041.67
1953.48
1839.19
1669.66
1459.63
1304.55
1234.73
1196.19
1164.2
1135.7
1112.59
1095.18
1083.61
1076.86
1074.54
1074.75
1075.62
1077.6
1103.58
1244.38
1639.4
1965.95
2116.83
2235.53
2336.28
2456.6
2585.9
2853.5
2729.69
2610.72
2480.93
2362.76
2281.33
2243.65
2275.16
2345.77
2365.14
2373.08
2344.42
2271.62
2174.29
2071.31
1956.42
1801.22
1583.79
1367.02
1248.8
1197.33
1163.45
1134.31
1110.15
1091.6
1079.01
1071.54
1069.01
1069.25
1070.24
1072.17
1097.91
1238.86
1636.7
1963.73
2114.39
2230.91
2330.7
2452.59
2585.22
3080.14
2953.4
2862.82
2754.64
2627.37
2503.34
2399.25
2312.23
2343.1
2441.87
2473.76
2465.48
2419.85
2323.53
2203.12
2074.12
1922.08
1712.99
1460.13
1278.53
1201.17
1162.63
1132.74
1107.73
1088.12
1074.41
1066.11
1063.24
1063.48
1064.64
1066.7
1092.39
1234.48
1635.24
1961.95
2112.5
2227.56
2326.61
2449.77
2585.13
3294.24
3114.18
2988.32
2882.2
2782.29
2694.38
2627.39
2548
2448.87
2480.36
2540.79
2573.72
2548.48
2474.18
2349.13
2202.12
2040.82
1837.28
1570.97
1328.79
1209.89
1162.14
1131.17
1105.52
1084.93
1070.12
1060.95
1057.67
1057.95
1059.35
1061.63
1087.27
1229.19
1631.73
1958.97
2110.43
2224.61
2322.89
2447
2584.42
3475.63
3250.27
3073.6
2934.61
2840.26
2794.27
2762.52
2758.2
2678.61
2608.35
2651.73
2653.77
2655.97
2611
2498.58
2339.82
2162.08
1954.87
1684.71
1397.25
1226.97
1163.49
1130.53
1104.42
1083.04
1067.19
1057.12
1053.36
1053.64
1055.27
1057.85
1083.52
1226.33
1631.03
1957.69
2109.43
2222.72
2320.21
2444.92
2584.07
3579.31
3332.1
3112.88
2914.52
2761.74
2759.81
2793.37
2863.22
2915.05
2806.69
2761.74
2783.95
2757.34
2726.64
2638.98
2480.27
2284.83
2065.99
1792.76
1475.36
1251.82
1165.79
1129.84
1103.51
1081.56
1064.79
1053.9
1049.67
1049.97
1051.86
1054.69
1080.41
1222.98
1628.99
1955.64
2107.92
2220.22
2317.27
2442.29
2582.92
3625.48
3397.55
3170.28
2925.52
2664.49
2631.08
2698.37
2807.44
3029.81
3053.21
2909.65
2881.42
2867.49
2837.51
2769.98
2617.88
2406.24
2170.09
1890.37
1553.63
1282.69
1169.75
1129.34
1102.84
1080.54
1062.99
1051.37
1046.71
1047.05
1049.21
1052.34
1078.16
1221.22
1629.15
1955.49
2108.03
2219.04
2315.84
2440.74
2582.27
3635.95
3471.01
3273.21
3023.47
2753.33
2529.6
2437.69
2632.79
3077.57
3217.89
3100.95
2968.79
2946.4
2924.67
2885.72
2750.68
2523.35
2263.35
1972.63
1623.49
1314.99
1174.51
1128.76
1102.2
1079.7
1061.52
1049.25
1044.22
1044.63
1047.05
1050.44
1076.35
1219.5
1628.69
1954.66
2107.56
2217.34
2314.73
2438.94
2581.32
3592.17
3269.43
2959.03
2703.02
2499.78
2310
2202.5
2279.43
2855.57
3239.97
3178.06
3055.45
3020.16
3007.52
2982.78
2866.7
2629.97
2344.31
2037.87
1679.3
1344.12
1179.51
1128.34
1101.75
1079.15
1060.44
1047.64
1042.3
1042.79
1045.43
1049.05
1075.05
1218.39
1629.06
1954.95
2107.89
2216.35
2314.3
2437.75
2580.69
3147.04
2899.24
2677.33
2521.35
2392.45
2206.39
2006.24
2023.1
2524.85
3175.27
3170.71
3072.62
3033.25
3035.95
3039.47
2954.06
2719.23
2409.98
2084.72
1716.92
1365.01
1183.39
1128.04
1101.54
1078.91
1059.77
1046.56
1041.03
1041.6
1044.41
1048.17
1074.22
1217.69
1629.53
1955.32
2107.96
2215.75
2314.07
2437.96
2581.19
)
;

boundaryField
{
    inlet
    {
        type            calculated;
        value           uniform 14000.1;
    }
    outlet
    {
        type            calculated;
        value           nonuniform List<scalar> 
165
(
3288.07
3734.36
3737.33
3731.24
3698.28
3589.44
3398.84
3152.19
2928.36
2758.62
2646.04
2629.74
2631.68
2623.53
2604.25
2576.35
2563.1
2583.94
3078.74
4193.93
4193.93
3323.77
2651.81
2577.98
2561.43
2564.85
2597.45
2635.81
2654.52
2660.59
2664.66
2666.62
2666.77
2665.66
2665.34
2666.7
2669.84
2673.86
2678.01
2681.82
2685.24
2688.6
2691.3
2693.08
2693.96
2694.15
2694.12
2693.61
2692.88
2691.38
2689.41
2685.64
2678.31
2657.86
2619.37
2578.61
2578.47
2624
3140.6
4134.93
2705.16
2704.53
2703.51
2702.21
2700.72
2699.26
2697.98
2696.44
2694.64
2691.76
2688.29
2682.71
2672.49
2646.41
2604.22
2570.16
2575.41
2626.91
3157.9
4134.93
2706.12
2706.44
2706.62
2706.44
2706.12
4134.93
3157.9
2626.91
2575.41
2570.16
2604.22
2646.41
2672.49
2682.71
2688.29
2691.76
2694.64
2696.44
2697.98
2699.26
2700.72
2702.21
2703.51
2704.53
2705.16
4193.93
3323.77
2651.81
2577.98
2561.43
2564.85
2597.45
2635.81
2654.52
2660.59
2664.66
2666.62
2666.77
2665.66
2665.34
2666.7
2669.84
2673.86
2678.01
2681.82
2685.24
2688.6
2691.3
2693.08
2693.96
2694.15
2694.12
2693.61
2692.88
2691.38
2689.41
2685.64
2678.31
2657.86
2619.37
2578.61
2578.47
2624
3140.6
4134.93
4193.93
3078.74
2583.94
2563.1
2576.35
2604.25
2623.53
2631.68
2629.74
2646.04
2758.62
2928.36
3152.19
3398.84
3589.44
3698.28
3731.24
3737.33
3734.36
3288.07
)
;
    }
    obstacle
    {
        type            calculated;
        value           nonuniform List<scalar> 
40
(
22408.3
12677.3
12851.9
12918.6
12852.9
12739.1
12558.6
12395.5
12301.2
12248.2
22408.3
12677.3
12851.9
12918.6
12852.9
12739.1
12558.6
12395.5
12301.2
12248.2
12357.9
12179.1
12044
11695.2
11570.5
12357.9
12179.1
12044
11695.2
11570.5
6146.66
4186.27
3250.23
2725.83
2210.56
6146.66
4186.27
3250.23
2725.83
2210.56
)
;
    }
    empty
    {
        type            empty;
    }
}


// ************************************************************************* //
