/*--------------------------------*- C++ -*----------------------------------*\
| =========                 |                                                 |
| \\      /  F ield         | OpenFOAM: The Open Source CFD Toolbox           |
|  \\    /   O peration     | Version:  v1912                                 |
|   \\  /    A nd           | Website:  www.openfoam.com                      |
|    \\/     M anipulation  |                                                 |
\*---------------------------------------------------------------------------*/
FoamFile
{
    version     2.0;
    format      ascii;
    class       volVectorField;
    location    "3.96";
    object      grad(rho);
}
// * * * * * * * * * * * * * * * * * * * * * * * * * * * * * * * * * * * * * //

dimensions      [1 -4 0 0 0 0 0];


internalField   nonuniform List<vector> 
1900
(
(123779 1.1027 0)
(-93433.4 0.84521 0)
(-12362.9 1.1119 0)
(-2839.65 2.51967 0)
(-2081.84 5.21056 0)
(-1779.8 7.36496 0)
(-1683.18 5.94685 0)
(-1753.22 -13.1845 0)
(-1632.9 -159.831 0)
(-1614.41 -352.222 0)
(123781 2.05973 0)
(-93433.4 1.17683 0)
(-12361.2 0.765218 0)
(-2835.55 1.33439 0)
(-2077 -1.11255 0)
(-1779.06 -5.22027 0)
(-1703.73 -9.72604 0)
(-1919 -15.505 0)
(-1971.94 -143.227 0)
(-1868.64 -323.107 0)
(123782 8.17124e-09 0)
(-93434.7 -3.37508e-09 0)
(-12362.7 6.6791e-09 0)
(-2841.53 2.98428e-09 0)
(-2088.4 1.03029e-09 0)
(-1788.41 -1.03029e-09 0)
(-1693.47 -6.6791e-09 0)
(-1886.72 -1.52767e-09 0)
(-1940.5 3.97904e-09 0)
(-1865.7 2.54019e-09 0)
(123781 -2.05973 0)
(-93433.4 -1.17683 0)
(-12361.2 -0.765218 0)
(-2835.55 -1.33439 0)
(-2077 1.11255 0)
(-1779.06 5.22027 0)
(-1703.73 9.72604 0)
(-1919 15.505 0)
(-1971.94 143.227 0)
(-1868.64 323.107 0)
(123779 -1.1027 0)
(-93433.4 -0.84521 0)
(-12362.9 -1.1119 0)
(-2839.65 -2.51967 0)
(-2081.84 -5.21056 0)
(-1779.8 -7.36496 0)
(-1683.18 -5.94685 0)
(-1753.22 13.1845 0)
(-1632.9 159.831 0)
(-1614.41 352.222 0)
(-796.745 -436.034 1.41892e-11)
(544.249 -780.757 -1.70528e-11)
(1103.16 -1067.06 -2.1646e-11)
(-1359.27 -1253.98 0)
(-3005.79 -59.1134 -9.14686e-11)
(-1167.04 -412.62 1.41104e-11)
(131.643 -801.657 1.70528e-11)
(1138.46 -959.834 2.1646e-11)
(-430.677 -1072.76 0)
(-2135.48 -214.96 0)
(-1413.46 1.06195e-09 0)
(-120.189 2.02567e-09 0)
(866.238 -5.42776e-09 0)
(-1109.29 -1.4803e-09 0)
(-2354.46 -8.0359e-09 0)
(-1167.04 412.62 1.41104e-11)
(131.643 801.657 1.70528e-11)
(1138.46 959.834 2.1646e-11)
(-430.677 1072.76 0)
(-2135.48 214.96 0)
(-796.745 436.034 -4.241e-11)
(544.249 780.757 -1.70528e-11)
(1103.16 1067.06 -2.1646e-11)
(-1359.27 1253.98 -5.94908e-11)
(-3005.79 59.1134 9.14686e-11)
(-5277.05 -1025.27 3.88037e-11)
(-7838.49 588.131 -3.0804e-11)
(-6489.11 912.636 0)
(-7821.16 862.649 2.14871e-11)
(-12461.4 -2000.51 -8.984e-12)
(-5079.89 -1097.98 -1.93864e-11)
(-7299.65 525.396 1.54109e-11)
(-6342.42 718.483 0)
(-9032.12 168.388 -1.3447e-11)
(-13711.6 -3338.68 2.2058e-12)
(-4980.84 -8.34349e-09 0)
(-7389.56 -4.93432e-09 0)
(-6658.43 1.18424e-09 0)
(-9609.46 -1.16102e-09 5.38082e-12)
(-14113.2 2.49313e-09 -4.4116e-12)
(-5079.89 1097.98 -1.93864e-11)
(-7299.65 -525.396 1.54109e-11)
(-6342.42 -718.483 0)
(-9032.12 -168.388 -1.3447e-11)
(-13711.6 3338.68 2.2058e-12)
(-5277.05 1025.27 1.93864e-11)
(-7838.49 -588.131 -1.77126e-14)
(-6489.11 -912.636 0)
(-7821.16 -862.649 2.59802e-14)
(-12461.4 2000.51 8.984e-12)
(-22367 -19771.8 0)
(-13888.6 2226.66 0)
(1665.34 2283.24 0)
(640.3 1907.55 0)
(-1196.24 1027.28 0)
(-1797.14 559.495 0)
(-2035.3 316.496 0)
(-1452.06 86.7188 0)
(-802.228 75.3966 0)
(-583.87 37.6678 0)
(-435.059 30.2682 0)
(-374.387 22.0775 0)
(-310.944 17.4324 0)
(-254.774 14.0622 0)
(-205.604 12.1768 0)
(-164.641 11.1017 0)
(-131.015 10.3394 0)
(-103.062 9.7041 0)
(-83.3194 9.14375 0)
(-70.1669 8.70321 0)
(-60.5845 8.32604 0)
(-58.6668 8.04507 0)
(-59.2937 7.89482 0)
(-59.6666 7.8098 0)
(-60.387 7.80727 0)
(-60.5402 7.89466 0)
(-63.1127 8.09754 0)
(-72.4123 8.42458 0)
(-94.2498 8.88508 0)
(-135.913 9.13996 0)
(-192.503 9.56422 0)
(-259.851 9.11324 0)
(-298.816 8.66057 0)
(-319.946 12.479 0)
(-306.526 11.6001 0)
(-307.882 22.8514 0)
(-260.569 19.1551 0)
(3342.93 34.0815 0)
(92114.9 -98.256 0)
(-104538 -5967.69 0)
(-21652.5 -4001.75 0)
(-13093.4 4639.12 0)
(1656.45 2755.41 0)
(581.218 1244.5 0)
(-1308.64 623.607 0)
(-1881.68 290.109 0)
(-2085.34 133.937 0)
(-1473.22 39.0284 0)
(-805.886 25.2381 0)
(-587.211 14.1522 0)
(-436.147 11.0084 0)
(-375.374 6.96815 0)
(-311.448 5.16785 0)
(-255.078 3.97683 0)
(-205.742 3.39666 0)
(-164.705 3.13655 0)
(-131.062 2.98839 0)
(-103.112 2.86141 0)
(-83.3723 2.72582 0)
(-70.2231 2.59832 0)
(-60.6458 2.4534 0)
(-58.726 2.30583 0)
(-59.3521 2.17638 0)
(-59.7281 2.04478 0)
(-60.4496 1.92642 0)
(-60.6015 1.83696 0)
(-63.1683 1.80291 0)
(-72.4555 1.86691 0)
(-94.3 2.08394 0)
(-135.948 2.44 0)
(-192.56 3.22475 0)
(-259.878 4.28817 0)
(-298.335 6.70798 0)
(-319.332 11.8047 0)
(-305.009 18.4297 0)
(-306.629 31.6488 0)
(-259.582 42.5589 0)
(3327.26 55.3715 0)
(92125 -41.5036 0)
(-104543 3377.59 0)
(-20147.2 4.84461e-10 0)
(-11922.9 -5.79738e-09 0)
(677.817 -1.1724e-08 0)
(20.1396 7.4607e-09 0)
(-1473.88 7.31213e-08 0)
(-1939.59 1.02851e-07 0)
(-2108.35 4.53617e-08 0)
(-1483.68 -4.67828e-08 0)
(-809.465 -8.9593e-08 0)
(-588.01 -2.20914e-08 0)
(-437.149 -1.08196e-09 0)
(-376.086 8.86564e-09 0)
(-311.814 2.67261e-08 0)
(-255.289 2.0202e-08 0)
(-205.849 -3.89184e-09 0)
(-164.76 -3.46228e-08 0)
(-131.095 -4.22934e-08 0)
(-103.139 -5.12721e-08 0)
(-83.3959 -4.83815e-08 0)
(-70.2462 -1.25314e-08 0)
(-60.6696 2.889e-08 0)
(-58.7474 5.34199e-08 0)
(-59.3697 1.76182e-08 0)
(-59.7393 -7.75138e-09 0)
(-60.4475 3.69482e-08 0)
(-60.5761 8.72837e-08 0)
(-63.104 8.60887e-08 0)
(-72.3305 4.95927e-08 0)
(-94.0831 1.5745e-08 0)
(-135.581 1.24183e-08 0)
(-191.965 3.40738e-09 0)
(-258.838 -1.18208e-08 0)
(-296.63 -1.7376e-08 0)
(-316.536 -6.18495e-09 0)
(-300.754 2.24596e-07 0)
(-300.862 5.97502e-10 0)
(-253.668 -1.25039e-07 0)
(3318.48 -2.35852e-07 0)
(93081.4 -5.52415e-07 0)
(-105591 6.93748e-07 0)
(-21652.5 4001.75 0)
(-13093.4 -4639.12 0)
(1656.45 -2755.41 0)
(581.218 -1244.5 0)
(-1308.64 -623.607 0)
(-1881.68 -290.109 0)
(-2085.34 -133.937 0)
(-1473.22 -39.0284 0)
(-805.886 -25.2381 0)
(-587.211 -14.1522 0)
(-436.147 -11.0084 0)
(-375.374 -6.96815 0)
(-311.448 -5.16785 0)
(-255.078 -3.97683 0)
(-205.742 -3.39666 0)
(-164.705 -3.13655 0)
(-131.062 -2.98839 0)
(-103.112 -2.86141 0)
(-83.3723 -2.72582 0)
(-70.2231 -2.59832 0)
(-60.6458 -2.4534 0)
(-58.726 -2.30583 0)
(-59.3521 -2.17638 0)
(-59.7281 -2.04478 0)
(-60.4496 -1.92642 0)
(-60.6015 -1.83696 0)
(-63.1683 -1.80291 0)
(-72.4555 -1.86691 0)
(-94.3 -2.08394 0)
(-135.948 -2.44 0)
(-192.56 -3.22475 0)
(-259.878 -4.28817 0)
(-298.335 -6.70798 0)
(-319.332 -11.8047 0)
(-305.009 -18.4297 0)
(-306.629 -31.6488 0)
(-259.582 -42.5589 0)
(3327.26 -55.3715 0)
(92125 41.5036 0)
(-104543 -3377.59 0)
(-22367 19771.8 0)
(-13888.6 -2226.66 0)
(1665.34 -2283.24 0)
(640.3 -1907.55 0)
(-1196.24 -1027.28 0)
(-1797.14 -559.495 0)
(-2035.3 -316.496 0)
(-1452.06 -86.7188 0)
(-802.228 -75.3966 0)
(-583.87 -37.6678 0)
(-435.059 -30.2682 0)
(-374.387 -22.0775 0)
(-310.944 -17.4324 0)
(-254.774 -14.0622 0)
(-205.604 -12.1768 0)
(-164.641 -11.1017 0)
(-131.015 -10.3394 0)
(-103.062 -9.7041 0)
(-83.3194 -9.14375 0)
(-70.1669 -8.70321 0)
(-60.5845 -8.32604 0)
(-58.6668 -8.04507 0)
(-59.2937 -7.89482 0)
(-59.6666 -7.8098 0)
(-60.387 -7.80727 0)
(-60.5402 -7.89466 0)
(-63.1127 -8.09754 0)
(-72.4123 -8.42458 0)
(-94.2498 -8.88508 0)
(-135.913 -9.13996 0)
(-192.503 -9.56423 0)
(-259.851 -9.11324 0)
(-298.816 -8.66057 0)
(-319.946 -12.479 0)
(-306.526 -11.6001 0)
(-307.882 -22.8514 0)
(-260.569 -19.1551 0)
(3342.93 -34.0815 0)
(92114.9 98.256 0)
(-104538 5967.69 0)
(47847.8 32719.3 0)
(-26008.6 -3810.78 0)
(1846.33 -3002.14 0)
(1300.73 -2567.98 0)
(-593.01 -1529.37 0)
(-1533.56 -1006.76 0)
(-1846.64 -580.921 0)
(-1346.44 -187.579 0)
(-779.346 -150.943 0)
(-562.765 -72.8775 0)
(-427.626 -59.7855 0)
(-368.465 -45.0681 0)
(-307.003 -35.4755 0)
(-252.133 -28.8987 0)
(-204.044 -25.1996 0)
(-163.626 -22.9755 0)
(-130.238 -21.3209 0)
(-102.42 -19.9425 0)
(-82.8056 -18.7579 0)
(-69.7752 -17.8491 0)
(-60.3038 -17.1157 0)
(-58.5239 -16.619 0)
(-59.272 -16.4112 0)
(-59.7444 -16.3574 0)
(-60.5752 -16.4983 0)
(-60.8545 -16.8389 0)
(-63.5649 -17.433 0)
(-72.9995 -18.2985 0)
(-94.8068 -19.4507 0)
(-136.413 -20.2744 0)
(-192.609 -21.0751 0)
(-259.342 -20.7457 0)
(-299.89 -19.2625 0)
(-320.466 -24.9694 0)
(-309.762 -23.9212 0)
(-309.919 -38.9144 0)
(-265.484 -36.6549 0)
(3382.78 -60.4661 0)
(95901.4 -102.761 0)
(-108623 1224.56 0)
(56494 23849.6 0)
(-41811.9 -3159.22 0)
(2765.9 -2129.48 0)
(1705.37 -2118.92 0)
(-15.2647 -1749.34 0)
(-1024.53 -1328.07 0)
(-1347.08 -785.467 0)
(-1094.35 -321.489 0)
(-703.969 -215.603 0)
(-507.345 -115.174 0)
(-412.247 -91.6364 0)
(-354.137 -68.6431 0)
(-297.475 -53.776 0)
(-246.288 -44.4688 0)
(-200.734 -39.2256 0)
(-161.448 -35.9205 0)
(-128.509 -33.3685 0)
(-100.937 -31.2231 0)
(-81.5777 -29.3792 0)
(-68.7945 -27.9652 0)
(-59.5495 -26.8021 0)
(-58.0646 -25.9888 0)
(-59.0533 -25.6113 0)
(-59.7088 -25.445 0)
(-60.7501 -25.5484 0)
(-61.2723 -25.9347 0)
(-64.2768 -26.7066 0)
(-74.0418 -27.8389 0)
(-95.8552 -29.5153 0)
(-137.21 -30.7049 0)
(-192.9 -31.7621 0)
(-258.378 -31.5992 0)
(-302.31 -29.2585 0)
(-324.156 -37.7281 0)
(-318.229 -40.1005 0)
(-319.06 -58.8129 0)
(-278.702 -63.2847 0)
(3257.86 -87.3556 0)
(91322.8 -405.908 0)
(-103572 -6611.78 0)
(63056.5 16162.6 0)
(-51042.9 -1182.5 0)
(2848.81 -1399.62 0)
(1667.05 -1717.04 0)
(169.077 -1627.88 0)
(-604.738 -1310.41 0)
(-876.663 -856.595 0)
(-797.301 -439.828 0)
(-580.533 -265.944 0)
(-443.306 -167.461 0)
(-382.788 -125.947 0)
(-331.981 -94.0497 0)
(-283.708 -74.2707 0)
(-238.111 -62.4452 0)
(-195.806 -55.3681 0)
(-157.982 -50.5633 0)
(-125.712 -46.7412 0)
(-98.5753 -43.5581 0)
(-79.6661 -40.8701 0)
(-67.2919 -38.8577 0)
(-58.3993 -37.2155 0)
(-57.3764 -36.0779 0)
(-58.748 -35.586 0)
(-59.6838 -35.3818 0)
(-61.0472 -35.5824 0)
(-61.9706 -36.146 0)
(-65.3999 -37.3014 0)
(-75.7061 -38.9595 0)
(-97.5685 -41.4735 0)
(-138.579 -42.9333 0)
(-193.471 -44.3928 0)
(-256.93 -44.6573 0)
(-305.796 -41.9734 0)
(-330.914 -53.1138 0)
(-330.08 -59.6368 0)
(-332.26 -80.9003 0)
(-292.989 -89.9475 0)
(3052.62 -107.529 0)
(89614.3 -457.854 0)
(-101589 -3822.26 0)
(70194.4 7452.45 0)
(-58735.5 -386.106 0)
(2250.79 -970.933 0)
(1485.42 -1514.1 0)
(376.576 -1436.43 0)
(-281.289 -1165.15 0)
(-508.154 -818.095 0)
(-525.178 -491.475 0)
(-441.506 -301.332 0)
(-372.439 -209.282 0)
(-341.505 -152.483 0)
(-304.339 -115.434 0)
(-267.02 -92.4516 0)
(-228.073 -78.591 0)
(-189.284 -69.7048 0)
(-153.135 -63.2626 0)
(-121.758 -58.049 0)
(-95.2795 -53.719 0)
(-77.0482 -50.1293 0)
(-65.2728 -47.5132 0)
(-56.8708 -45.4098 0)
(-56.4943 -43.989 0)
(-58.3825 -43.4475 0)
(-59.7054 -43.288 0)
(-61.4865 -43.6463 0)
(-62.9288 -44.5301 0)
(-66.988 -46.2213 0)
(-78.0621 -48.483 0)
(-99.6845 -52.2716 0)
(-140.023 -54.1593 0)
(-194.562 -56.1097 0)
(-256.046 -57.3005 0)
(-310.459 -56.2878 0)
(-341.177 -70.6439 0)
(-345.006 -83.1361 0)
(-348.268 -105.959 0)
(-304.362 -116.441 0)
(2903.33 -124.171 0)
(87743.1 -495.322 0)
(-99446 -4010.38 0)
(70005.9 110.073 0)
(-59160 -349.388 0)
(1761.83 -839.024 0)
(1218.47 -1246.38 0)
(505.335 -1244.57 0)
(-8.88454 -1005.08 0)
(-227.483 -737.207 0)
(-299.33 -489.324 0)
(-308.602 -320.667 0)
(-299.87 -233.719 0)
(-292.352 -171.586 0)
(-274.133 -133.047 0)
(-248.205 -108.984 0)
(-216.192 -93.4403 0)
(-181.035 -82.8259 0)
(-146.75 -74.6991 0)
(-116.515 -67.9647 0)
(-90.9435 -62.3705 0)
(-73.686 -57.824 0)
(-62.7441 -54.6064 0)
(-55.0033 -52.0705 0)
(-55.4854 -50.4344 0)
(-58.0725 -49.9439 0)
(-59.8753 -49.9308 0)
(-62.2441 -50.575 0)
(-64.452 -51.8659 0)
(-69.209 -54.3987 0)
(-81.5363 -57.3733 0)
(-103.038 -62.1344 0)
(-142.277 -64.5133 0)
(-196.498 -66.9762 0)
(-257.101 -70.1773 0)
(-318.655 -71.1467 0)
(-356.786 -88.6403 0)
(-364.111 -106.494 0)
(-364.354 -130.305 0)
(-310.538 -139.662 0)
(2687.52 -139.278 0)
(85869.4 -669.927 0)
(-97248.7 -5252.71 0)
(69871.2 1113.01 0)
(-59650.1 -378.636 0)
(1386.42 -822.033 0)
(1094.62 -1030.19 0)
(609.106 -1032.57 0)
(207.623 -857.232 0)
(-11.1546 -652.169 0)
(-123.785 -465.718 0)
(-195.196 -334.522 0)
(-228.778 -247.327 0)
(-244.494 -188.297 0)
(-244.014 -149.927 0)
(-228.853 -125.164 0)
(-202.866 -107.824 0)
(-171.224 -95.423 0)
(-138.814 -85.3958 0)
(-109.878 -76.9431 0)
(-85.5075 -69.9687 0)
(-69.5665 -64.4189 0)
(-59.7286 -60.6142 0)
(-52.8505 -57.6836 0)
(-54.445 -55.9094 0)
(-57.8973 -55.6099 0)
(-60.3136 -55.8646 0)
(-63.3511 -57.0544 0)
(-66.6135 -59.0525 0)
(-72.2951 -62.681 0)
(-85.5165 -66.8299 0)
(-106.565 -73.1545 0)
(-144.689 -76.104 0)
(-200.02 -78.8196 0)
(-260.065 -84.998 0)
(-328.251 -88.2851 0)
(-375.239 -108.252 0)
(-385.155 -130.87 0)
(-380.23 -153.738 0)
(-313.008 -161.101 0)
(2392.35 -153.034 0)
(82815.7 -872.132 0)
(-93736.6 -6904.07 0)
(70792.4 -1439.42 0)
(-61024.7 -407.423 0)
(1133.97 -752.992 0)
(1015.59 -883.833 0)
(672.002 -856.477 0)
(357.685 -736.615 0)
(149.794 -572.229 0)
(6.76616 -429.617 0)
(-98.1514 -327.297 0)
(-158.962 -249.207 0)
(-198.495 -197.327 0)
(-213.296 -162.611 0)
(-207.632 -139.102 0)
(-187.532 -121.838 0)
(-159.423 -108.618 0)
(-128.942 -97.023 0)
(-101.649 -87.0318 0)
(-78.8748 -78.731 0)
(-64.6717 -72.2362 0)
(-56.2537 -67.8998 0)
(-50.4696 -64.6266 0)
(-53.4871 -62.79 0)
(-58.0294 -62.7466 0)
(-61.2672 -63.314 0)
(-65.3161 -64.8927 0)
(-69.874 -67.5343 0)
(-76.7035 -71.5837 0)
(-91.6289 -75.6685 0)
(-111.975 -82.172 0)
(-147.736 -85.234 0)
(-205.069 -86.4116 0)
(-266.223 -94.6672 0)
(-341.063 -99.0907 0)
(-397.822 -122.973 0)
(-407.942 -150.78 0)
(-393.486 -178.294 0)
(-309.86 -186.967 0)
(2002.34 -180.295 0)
(79363.8 -1183.25 0)
(-89728.9 -8379.61 0)
(67969 -4185.7 0)
(-58988.6 -416.348 0)
(927.331 -658.422 0)
(994.898 -753.809 0)
(750.97 -711.316 0)
(481.535 -632.368 0)
(284.68 -510.833 0)
(112.24 -401.488 0)
(-21.3466 -319.569 0)
(-103.534 -257.179 0)
(-161.047 -214.439 0)
(-187.907 -183.698 0)
(-189.563 -161.641 0)
(-173.491 -143.682 0)
(-147.311 -128.713 0)
(-118.013 -115.228 0)
(-92.2514 -103.505 0)
(-71.25 -93.7484 0)
(-59.1291 -86.3306 0)
(-52.3956 -81.4973 0)
(-47.9265 -77.9325 0)
(-52.6334 -76.154 0)
(-58.4023 -76.497 0)
(-62.3816 -77.5993 0)
(-67.4179 -79.8512 0)
(-73.0612 -83.1583 0)
(-80.1336 -88.5262 0)
(-95.7198 -93.2098 0)
(-115.782 -100.36 0)
(-148.774 -102.058 0)
(-209.11 -100.537 0)
(-272.283 -109.811 0)
(-355.528 -112.551 0)
(-425.049 -133.676 0)
(-438.465 -163.768 0)
(-415.101 -192.372 0)
(-314.936 -197.102 0)
(1432.29 -190.454 0)
(74914.5 -1367.93 0)
(-84469.3 -9816.37 0)
(66079.5 -4466.21 0)
(-57625.7 -444.072 0)
(808.785 -588.02 0)
(964.622 -677.604 0)
(789.028 -662.482 0)
(550.877 -598.762 0)
(372.278 -500.883 0)
(191.075 -409.992 0)
(40.91 -330.487 0)
(-57.654 -273.405 0)
(-127.686 -236.898 0)
(-162.418 -206.972 0)
(-169.072 -187.286 0)
(-155.802 -170.611 0)
(-132.003 -156.049 0)
(-104.651 -142.624 0)
(-80.9507 -130.494 0)
(-62.3248 -120.293 0)
(-52.866 -112.61 0)
(-48.161 -107.618 0)
(-45.3205 -103.881 0)
(-52.1038 -102.058 0)
(-59.4221 -102.376 0)
(-64.4994 -103.145 0)
(-70.673 -105.159 0)
(-78.2336 -107.786 0)
(-86.3895 -112.613 0)
(-103.032 -116.773 0)
(-120.502 -122.706 0)
(-147.907 -128.519 0)
(-212.539 -128.356 0)
(-277.8 -146.169 0)
(-364.061 -158.963 0)
(-447.177 -189.144 0)
(-464.504 -230.604 0)
(-425.608 -267.581 0)
(-308.011 -274.604 0)
(874.087 -268.925 0)
(70087.9 -1356.07 0)
(-78847.2 -10827.5 0)
(63080.3 -6227.22 0)
(-55251.5 -471.717 0)
(702.29 -538.455 0)
(923.143 -606.191 0)
(826.946 -614.208 0)
(637.258 -571.337 0)
(466.586 -486.185 0)
(276.44 -411.717 0)
(110.273 -339.248 0)
(-13.3487 -291.356 0)
(-97.0298 -265.828 0)
(-140.099 -241.665 0)
(-154.524 -228.597 0)
(-143.39 -214.505 0)
(-120.342 -201.504 0)
(-93.3862 -188.816 0)
(-70.7326 -176.868 0)
(-54.0163 -166.755 0)
(-46.9149 -159.096 0)
(-43.984 -154.144 0)
(-42.5691 -150.423 0)
(-51.1832 -148.516 0)
(-59.4493 -148.566 0)
(-65.0634 -148.346 0)
(-71.89 -149.248 0)
(-80.2442 -150.01 0)
(-88.794 -152.3 0)
(-105.446 -153.23 0)
(-127.101 -152.788 0)
(-154.219 -158.456 0)
(-226.119 -154.175 0)
(-301.777 -173.425 0)
(-396.94 -191.98 0)
(-494.085 -230.691 0)
(-514.049 -281.362 0)
(-457.502 -328.925 0)
(-316.231 -348.43 0)
(390.15 -345.96 0)
(64739.8 -1158.18 0)
(-72586.9 -11857.6 0)
(59408.3 -7452.76 0)
(-52143.8 -507.166 0)
(679.2 -527.978 0)
(891.623 -550.426 0)
(822.615 -609.676 0)
(674.245 -593.445 0)
(526.094 -527.426 0)
(332.668 -473.863 0)
(156.895 -408.953 0)
(13.0966 -373.26 0)
(-79.8025 -346.829 0)
(-126.542 -320.955 0)
(-142.899 -302.027 0)
(-129.693 -281.104 0)
(-107.248 -264.102 0)
(-80.9109 -248.81 0)
(-59.6922 -236.153 0)
(-45.1991 -225.961 0)
(-40.7134 -218.176 0)
(-39.8032 -213.402 0)
(-39.8969 -210.193 0)
(-50.3143 -208.222 0)
(-59.2587 -208.127 0)
(-65.1569 -207.926 0)
(-72.2761 -209.308 0)
(-81.1739 -212.262 0)
(-89.4929 -216.844 0)
(-103.503 -221.89 0)
(-125.538 -226.947 0)
(-149.244 -240.593 0)
(-226.964 -241.092 0)
(-314.23 -264.451 0)
(-419.245 -285.933 0)
(-533.308 -329.627 0)
(-559.165 -381.551 0)
(-490.237 -432.889 0)
(-324.427 -460.753 0)
(93.784 -461.585 0)
(58994.9 -886.664 0)
(-66110.8 -12576.4 0)
(55193.4 -8377.77 0)
(-48578.5 -611.809 0)
(660.603 -647.947 0)
(844.416 -660.073 0)
(785.491 -721.886 0)
(716.517 -687.357 0)
(581.82 -628.329 0)
(390.604 -568.94 0)
(207.218 -489.007 0)
(46.517 -462.404 0)
(-46.6273 -429.412 0)
(-96.9266 -399.396 0)
(-116.122 -375.979 0)
(-106.843 -350.891 0)
(-89.2224 -330.248 0)
(-66.4538 -313.272 0)
(-48.7141 -300.938 0)
(-36.6931 -292.334 0)
(-34.8131 -286.171 0)
(-36.2915 -282.659 0)
(-37.5775 -279.899 0)
(-49.1924 -276.641 0)
(-59.1632 -274.512 0)
(-66.2007 -272.452 0)
(-76.0685 -272.986 0)
(-87.5064 -276.718 0)
(-98.072 -284.268 0)
(-115.182 -293.416 0)
(-145.124 -304.375 0)
(-167.849 -330.476 0)
(-249.109 -344.577 0)
(-344.988 -383.502 0)
(-459.746 -425.882 0)
(-586.225 -486.105 0)
(-613.556 -543.339 0)
(-533.824 -598.976 0)
(-343.884 -634.769 0)
(-20.2734 -649.588 0)
(53065.6 -794.204 0)
(-59378.9 -12861.3 0)
(50527.4 -9010.59 0)
(-44695.1 -703.191 0)
(632.691 -741.044 0)
(820.372 -792.56 0)
(796.323 -816.396 0)
(764.4 -772.406 0)
(640.204 -744.688 0)
(466.925 -675.14 0)
(259.558 -600.021 0)
(70.5244 -568.894 0)
(-19.0862 -526.845 0)
(-75.0519 -495.658 0)
(-96.1584 -463.982 0)
(-85.6258 -429.299 0)
(-70.9972 -398.657 0)
(-52.6667 -372.992 0)
(-39.5152 -353.489 0)
(-30.9694 -339.649 0)
(-31.3904 -328.437 0)
(-33.759 -322.277 0)
(-34.097 -320.834 0)
(-45.1227 -320.268 0)
(-55.2227 -322.785 0)
(-63.6863 -326.774 0)
(-76.3867 -334.569 0)
(-92.0457 -345.574 0)
(-105.584 -360.446 0)
(-122.879 -377.26 0)
(-161.25 -391.503 0)
(-187.983 -430.105 0)
(-278.062 -456.264 0)
(-392.579 -504.385 0)
(-518.116 -561.011 0)
(-646.495 -619.713 0)
(-667.932 -671.612 0)
(-578.343 -712.754 0)
(-373.199 -743.842 0)
(-59.8533 -758.477 0)
(47227.3 -787.329 0)
(-52696.6 -12749.3 0)
(45608.9 -9231.91 0)
(-40609.7 -765.399 0)
(574.483 -806.851 0)
(771.804 -863.139 0)
(804.913 -883.181 0)
(785.617 -856.803 0)
(675.548 -847.592 0)
(530.01 -786.34 0)
(309.601 -736.723 0)
(117.032 -685.473 0)
(23.9453 -616.443 0)
(-36.3493 -578.799 0)
(-52.176 -532.182 0)
(-43.8933 -482.251 0)
(-34.9622 -442.888 0)
(-22.9286 -408.724 0)
(-16.5841 -383.227 0)
(-12.5518 -365.853 0)
(-18.0724 -352.658 0)
(-28.9657 -345.682 0)
(-35.6415 -343.923 0)
(-51.0723 -343.455 0)
(-65.4326 -348.335 0)
(-77.5562 -357.183 0)
(-94.1856 -372.202 0)
(-112.443 -391.761 0)
(-128.605 -415.17 0)
(-145.109 -444.55 0)
(-196.047 -470.009 0)
(-230.256 -517.848 0)
(-320.689 -556.155 0)
(-445.926 -605.96 0)
(-570.88 -662.713 0)
(-692.804 -711.913 0)
(-703.214 -752.959 0)
(-603.428 -783.483 0)
(-387.945 -805.193 0)
(-62.1784 -816.475 0)
(41510.7 -819.311 0)
(-46074.5 -12208.5 0)
(40683.5 -9371.49 0)
(-36576.4 -745.136 0)
(538.505 -782.34 0)
(746.819 -837.031 0)
(802.429 -848.549 0)
(798.695 -837.505 0)
(708.105 -813.397 0)
(573.762 -755.172 0)
(356.757 -747.394 0)
(186.431 -698.117 0)
(83.7088 -628.926 0)
(6.145 -583.402 0)
(-3.12102 -534.116 0)
(0.420764 -483.491 0)
(-0.143714 -444.141 0)
(4.82465 -409.439 0)
(1.79695 -382.688 0)
(-1.51151 -363.117 0)
(-11.9534 -347.065 0)
(-25.3418 -338.115 0)
(-31.9511 -336.761 0)
(-49.3749 -339.27 0)
(-68.4509 -348.112 0)
(-86.685 -359.93 0)
(-109.708 -376.807 0)
(-133.451 -396.146 0)
(-156.453 -417.513 0)
(-175.724 -444.383 0)
(-231.882 -464.945 0)
(-270.996 -505.523 0)
(-362.97 -541.788 0)
(-495.262 -588.686 0)
(-620.216 -641.971 0)
(-733.459 -681.891 0)
(-736.899 -717.268 0)
(-628.678 -738.247 0)
(-404.992 -757.81 0)
(-73.4579 -755.248 0)
(36249.6 -768.662 0)
(-39915.3 -11572.6 0)
(35656.5 -8266.58 0)
(-32332.8 -550.297 0)
(485.93 -621.295 0)
(708.003 -688.483 0)
(804.456 -717.533 0)
(819.491 -724.173 0)
(754.887 -697.499 0)
(593.613 -646.598 0)
(364.582 -645.628 0)
(231.192 -587.716 0)
(134.488 -552.538 0)
(55.0134 -522.927 0)
(44.1018 -489.636 0)
(42.8097 -456.821 0)
(36.3972 -426.468 0)
(36.2899 -399.073 0)
(28.0537 -375.446 0)
(21.7764 -356.961 0)
(6.02009 -339.772 0)
(-19.0371 -330.454 0)
(-36.7543 -330.294 0)
(-62.0105 -334.376 0)
(-85.341 -345.768 0)
(-105.207 -359.026 0)
(-129.085 -373.22 0)
(-151.668 -386.555 0)
(-175.088 -395.846 0)
(-190.817 -407.731 0)
(-254.964 -412.556 0)
(-304.305 -436.685 0)
(-400.828 -453.093 0)
(-542.465 -479.88 0)
(-660.696 -518.404 0)
(-765.363 -545.451 0)
(-757.519 -572.838 0)
(-642.495 -586.602 0)
(-404.328 -589.562 0)
(-72.6362 -564.127 0)
(31086.8 -550.138 0)
(-34014.3 -9749.9 0)
(32147 -7863.39 0)
(-29209.1 -178.298 0)
(405.344 -279.711 0)
(654.08 -406.672 0)
(768.037 -466.463 0)
(818.001 -493.912 0)
(782.859 -485.457 0)
(623.746 -463.04 0)
(413.498 -443.486 0)
(276.136 -407.294 0)
(146.142 -400.278 0)
(66.76 -391.316 0)
(60.5809 -371.57 0)
(61.2913 -360.395 0)
(55.504 -347.28 0)
(53.9914 -330.877 0)
(42.3776 -312.729 0)
(32.8653 -293.675 0)
(13.5897 -274.217 0)
(-16.2085 -263.697 0)
(-35.7298 -263.627 0)
(-64.2866 -270.412 0)
(-92.2049 -284.266 0)
(-113.138 -296.325 0)
(-136.236 -304.149 0)
(-155.254 -306.02 0)
(-176.859 -300.551 0)
(-191.827 -298.534 0)
(-259.784 -287.515 0)
(-310.059 -293.296 0)
(-404.595 -293.26 0)
(-558.199 -296.926 0)
(-683.402 -314.606 0)
(-785.913 -325.448 0)
(-776.554 -340.816 0)
(-644.793 -342.607 0)
(-383.334 -318.081 0)
(-35.4676 -266.062 0)
(27397.9 -171.796 0)
(-30022.6 -8849.11 0)
(28279.6 20681.9 0)
(-25024.9 1685.65 0)
(265.86 446.704 0)
(528.042 157.091 0)
(720.388 60.0894 0)
(801.188 13.0432 0)
(784.637 -19.7934 0)
(634.058 -20.4977 0)
(418.3 145.51 0)
(272.829 474.847 0)
(149.886 1069.8 0)
(82.6767 1736.09 0)
(73.8984 2426.53 0)
(66.2172 2907.46 0)
(64.8417 3302.95 0)
(69.5842 3556.8 0)
(63.9026 3730.64 0)
(58.8882 3795.76 0)
(34.9083 3861.56 0)
(-8.83219 3760.94 0)
(-43.2254 3760.73 0)
(-81.8994 3868.75 0)
(-110.312 3810 0)
(-124.367 3754.78 0)
(-138.427 3590.98 0)
(-148.201 3353.6 0)
(-167.875 3007.31 0)
(-178.254 2496.91 0)
(-249.916 1948.59 0)
(-309.841 1221.77 0)
(-404.326 687.983 0)
(-563.036 320.822 0)
(-688.181 126.931 0)
(-790.62 66.0114 0)
(-774.054 40.6732 0)
(-620.587 27.9409 0)
(-330.567 55.6708 0)
(68.3301 185.559 0)
(22815.8 1467.78 0)
(-25790.2 20346.7 0)
(52753 607003 0)
(-48708.5 52537.9 0)
(-1067.63 27516.5 0)
(281.524 32275.3 0)
(629.227 36248.7 0)
(741.023 41749.3 0)
(750.537 47297.3 0)
(783.038 53287.9 0)
(890.83 59260.8 0)
(1166.82 65274.4 0)
(1361.53 70912.4 0)
(1374.16 76305.4 0)
(1189.35 81296.2 0)
(905.84 85693.5 0)
(681.231 89419.5 0)
(466.128 92413.6 0)
(272.642 94502.6 0)
(159.024 96425.5 0)
(-19.9634 97391.1 0)
(-113.373 98031.6 0)
(68.1648 98015 0)
(-16.8096 97281.8 0)
(-202.032 96299.4 0)
(-324.193 94177.2 0)
(-522.825 92173.1 0)
(-717.702 88855.1 0)
(-1002.4 85245.9 0)
(-1212.05 80505 0)
(-1488.56 75418.8 0)
(-1524.82 69856.1 0)
(-1272.78 63907.7 0)
(-1098.85 57696.9 0)
(-928.947 51415.7 0)
(-869.034 45125.1 0)
(-813.24 39269.9 0)
(-630.341 33475.8 0)
(-231.447 29287 0)
(1325.29 24086 0)
(46825.9 47115.1 0)
(-49760.6 564794 0)
(659004 -682406 0)
(-583439 -56398.7 0)
(-19259.9 -32185.1 0)
(8942.76 -36813.4 0)
(9849.89 -41266 0)
(11448 -47584.8 0)
(11903.7 -53969.7 0)
(12162.5 -60830.6 0)
(11968.9 -67543.6 0)
(11500.7 -74305 0)
(10779.7 -80804.6 0)
(10088.9 -86995.1 0)
(9120.67 -92776.4 0)
(7894.12 -97748.8 0)
(6540.53 -101936 0)
(4967.89 -105257 0)
(3929.98 -107563 0)
(2842.35 -109627 0)
(1582.6 -110700 0)
(592.35 -111279 0)
(-765.805 -111230 0)
(-1735.16 -110509 0)
(-3101.96 -109373 0)
(-4100.55 -107042 0)
(-5267.04 -104762 0)
(-6823.54 -101024 0)
(-8214.33 -96896.7 0)
(-9647.97 -91402.1 0)
(-10511.5 -85525.5 0)
(-11402.4 -78824.6 0)
(-12121.4 -71947.3 0)
(-12600.8 -64728.6 0)
(-12802.9 -57503.4 0)
(-12494.7 -50229.4 0)
(-11999.7 -43406.5 0)
(-10240.5 -36742.7 0)
(-9378.93 -32134.7 0)
(17248.2 -27246.8 0)
(543861 -50120.9 0)
(-610045 -634623 0)
(659004 682406 0)
(-583439 56398.7 0)
(-19259.9 32185.1 0)
(8942.76 36813.4 0)
(9849.89 41266 0)
(11448 47584.8 0)
(11903.7 53969.7 0)
(12162.5 60830.6 0)
(11968.9 67543.6 0)
(11500.7 74305 0)
(10779.7 80804.6 0)
(10088.9 86995.1 0)
(9120.67 92776.4 0)
(7894.12 97748.8 0)
(6540.53 101936 0)
(4967.89 105257 0)
(3929.98 107563 0)
(2842.35 109627 0)
(1582.6 110700 0)
(592.35 111279 0)
(-765.805 111230 0)
(-1735.16 110509 0)
(-3101.96 109373 0)
(-4100.55 107042 0)
(-5267.04 104762 0)
(-6823.54 101024 0)
(-8214.33 96896.7 0)
(-9647.97 91402.1 0)
(-10511.5 85525.5 0)
(-11402.4 78824.6 0)
(-12121.4 71947.3 0)
(-12600.8 64728.6 0)
(-12802.9 57503.4 0)
(-12494.7 50229.4 0)
(-11999.7 43406.5 0)
(-10240.5 36742.7 0)
(-9378.93 32134.7 0)
(17248.2 27246.8 0)
(543861 50120.9 0)
(-610045 634623 0)
(52753 -607003 0)
(-48708.5 -52537.9 0)
(-1067.63 -27516.5 0)
(281.524 -32275.3 0)
(629.227 -36248.7 0)
(741.023 -41749.3 0)
(750.537 -47297.3 0)
(783.038 -53287.9 0)
(890.83 -59260.8 0)
(1166.82 -65274.4 0)
(1361.53 -70912.4 0)
(1374.16 -76305.4 0)
(1189.35 -81296.2 0)
(905.84 -85693.5 0)
(681.231 -89419.5 0)
(466.128 -92413.6 0)
(272.642 -94502.6 0)
(159.024 -96425.5 0)
(-19.9634 -97391.1 0)
(-113.373 -98031.6 0)
(68.1648 -98015 0)
(-16.8096 -97281.8 0)
(-202.032 -96299.4 0)
(-324.193 -94177.2 0)
(-522.825 -92173.1 0)
(-717.702 -88855.1 0)
(-1002.4 -85245.9 0)
(-1212.05 -80505 0)
(-1488.56 -75418.8 0)
(-1524.82 -69856.1 0)
(-1272.78 -63907.7 0)
(-1098.85 -57696.9 0)
(-928.947 -51415.7 0)
(-869.034 -45125.1 0)
(-813.24 -39269.9 0)
(-630.341 -33475.8 0)
(-231.447 -29287 0)
(1325.29 -24086 0)
(46825.9 -47115.1 0)
(-49760.6 -564794 0)
(28279.6 -20681.9 0)
(-25024.9 -1685.65 0)
(265.86 -446.704 0)
(528.042 -157.091 0)
(720.388 -60.0894 0)
(801.188 -13.0432 0)
(784.637 19.7934 0)
(634.058 20.4977 0)
(418.3 -145.51 0)
(272.829 -474.847 0)
(149.886 -1069.8 0)
(82.6767 -1736.09 0)
(73.8984 -2426.53 0)
(66.2172 -2907.46 0)
(64.8417 -3302.95 0)
(69.5842 -3556.8 0)
(63.9026 -3730.64 0)
(58.8882 -3795.76 0)
(34.9083 -3861.56 0)
(-8.83219 -3760.94 0)
(-43.2254 -3760.73 0)
(-81.8994 -3868.75 0)
(-110.312 -3810 0)
(-124.367 -3754.78 0)
(-138.427 -3590.98 0)
(-148.201 -3353.6 0)
(-167.875 -3007.31 0)
(-178.254 -2496.91 0)
(-249.916 -1948.59 0)
(-309.841 -1221.77 0)
(-404.326 -687.983 0)
(-563.036 -320.822 0)
(-688.181 -126.931 0)
(-790.62 -66.0114 0)
(-774.054 -40.6732 0)
(-620.587 -27.9409 0)
(-330.567 -55.6708 0)
(68.3301 -185.559 0)
(22815.8 -1467.78 0)
(-25790.2 -20346.7 0)
(32147 7863.39 0)
(-29209.1 178.298 0)
(405.344 279.711 0)
(654.08 406.672 0)
(768.037 466.463 0)
(818.001 493.912 0)
(782.859 485.457 0)
(623.746 463.04 0)
(413.498 443.486 0)
(276.136 407.294 0)
(146.142 400.278 0)
(66.76 391.316 0)
(60.5809 371.57 0)
(61.2913 360.395 0)
(55.504 347.28 0)
(53.9914 330.877 0)
(42.3776 312.729 0)
(32.8653 293.675 0)
(13.5897 274.217 0)
(-16.2085 263.697 0)
(-35.7298 263.627 0)
(-64.2866 270.412 0)
(-92.2049 284.266 0)
(-113.138 296.325 0)
(-136.236 304.149 0)
(-155.254 306.02 0)
(-176.859 300.551 0)
(-191.827 298.534 0)
(-259.784 287.515 0)
(-310.059 293.296 0)
(-404.595 293.26 0)
(-558.199 296.926 0)
(-683.402 314.606 0)
(-785.913 325.448 0)
(-776.554 340.816 0)
(-644.793 342.607 0)
(-383.334 318.081 0)
(-35.4676 266.062 0)
(27397.9 171.796 0)
(-30022.6 8849.11 0)
(35656.5 8266.58 0)
(-32332.8 550.297 0)
(485.93 621.295 0)
(708.003 688.483 0)
(804.456 717.533 0)
(819.491 724.173 0)
(754.887 697.499 0)
(593.613 646.598 0)
(364.582 645.628 0)
(231.192 587.716 0)
(134.488 552.538 0)
(55.0134 522.927 0)
(44.1018 489.636 0)
(42.8097 456.821 0)
(36.3972 426.468 0)
(36.2899 399.073 0)
(28.0537 375.446 0)
(21.7764 356.961 0)
(6.02009 339.772 0)
(-19.0371 330.454 0)
(-36.7543 330.294 0)
(-62.0105 334.376 0)
(-85.341 345.768 0)
(-105.207 359.026 0)
(-129.085 373.22 0)
(-151.668 386.555 0)
(-175.088 395.846 0)
(-190.817 407.731 0)
(-254.964 412.556 0)
(-304.305 436.685 0)
(-400.828 453.093 0)
(-542.465 479.88 0)
(-660.696 518.404 0)
(-765.363 545.451 0)
(-757.519 572.838 0)
(-642.495 586.602 0)
(-404.328 589.562 0)
(-72.6362 564.127 0)
(31086.8 550.138 0)
(-34014.3 9749.9 0)
(40683.5 9371.49 0)
(-36576.4 745.136 0)
(538.505 782.34 0)
(746.819 837.031 0)
(802.429 848.549 0)
(798.695 837.505 0)
(708.105 813.397 0)
(573.762 755.172 0)
(356.757 747.394 0)
(186.431 698.117 0)
(83.7088 628.926 0)
(6.145 583.402 0)
(-3.12103 534.116 0)
(0.420764 483.491 0)
(-0.143714 444.141 0)
(4.82464 409.439 0)
(1.79695 382.688 0)
(-1.51151 363.117 0)
(-11.9534 347.065 0)
(-25.3418 338.115 0)
(-31.9511 336.761 0)
(-49.3749 339.27 0)
(-68.4509 348.112 0)
(-86.685 359.93 0)
(-109.708 376.807 0)
(-133.451 396.146 0)
(-156.453 417.513 0)
(-175.724 444.383 0)
(-231.882 464.945 0)
(-270.996 505.523 0)
(-362.97 541.788 0)
(-495.262 588.686 0)
(-620.216 641.971 0)
(-733.459 681.891 0)
(-736.899 717.268 0)
(-628.678 738.247 0)
(-404.992 757.81 0)
(-73.4579 755.248 0)
(36249.6 768.662 0)
(-39915.3 11572.6 0)
(45608.9 9231.91 0)
(-40609.7 765.399 0)
(574.483 806.851 0)
(771.804 863.139 0)
(804.913 883.181 0)
(785.617 856.803 0)
(675.548 847.592 0)
(530.01 786.34 0)
(309.601 736.723 0)
(117.032 685.473 0)
(23.9453 616.443 0)