/*--------------------------------*- C++ -*----------------------------------*\
| =========                 |                                                 |
| \\      /  F ield         | OpenFOAM: The Open Source CFD Toolbox           |
|  \\    /   O peration     | Version:  v1912                                 |
|   \\  /    A nd           | Website:  www.openfoam.com                      |
|    \\/     M anipulation  |                                                 |
\*---------------------------------------------------------------------------*/
FoamFile
{
    version     2.0;
    format      ascii;
    class       volTensorField;
    location    "2.8";
    object      grad(U);
}
// * * * * * * * * * * * * * * * * * * * * * * * * * * * * * * * * * * * * * //

dimensions      [0 0 -1 0 0 0 0];


internalField   nonuniform List<tensor> 
1900
(
(-2.28491 -1.4879e-05 0 -1.60627e-05 -1.10743e-05 0 0 0 0)
(1.62243 -1.11188e-05 0 -4.35537e-05 -2.21401e-05 0 0 0 0)
(-0.0423116 3.49528e-05 0 -5.78009e-05 -4.67224e-05 0 0 0 0)
(-0.0443923 0.000472699 0 -4.19638e-05 6.98184e-05 0 0 0 0)
(-0.0428106 0.00157807 0 0.000291941 0.000902978 0 0 0 0)
(-0.045829 0.00225946 0 0.00163119 0.00324996 0 0 0 0)
(-0.0480296 -0.00528027 0 0.00506353 0.00554661 0 0 0 0)
(-0.0441499 -0.0253426 0 0.00796946 -0.00440869 0 0 0 0)
(0.024874 -0.079988 0 -0.00180146 -0.0355804 0 0 0 0)
(0.0138076 -0.240919 0 -0.0734903 -0.152608 0 0 0 0)
(-2.28497 -1.83354e-05 0 -2.10689e-05 6.28134e-06 0 0 0 0)
(1.62239 -2.45293e-05 0 -6.33793e-05 8.59763e-06 0 0 0 0)
(-0.04231 5.70058e-05 0 -7.41825e-05 1.74002e-05 0 0 0 0)
(-0.0440426 0.000477001 0 5.00858e-05 -2.63552e-05 0 0 0 0)
(-0.0411375 0.00160207 0 0.000674835 -0.000455299 0 0 0 0)
(-0.0410574 0.00238417 0 0.00269669 -0.00160442 0 0 0 0)
(-0.0416913 -0.00237838 0 0.00697058 -0.00271476 0 0 0 0)
(-0.0510149 -0.0157844 0 0.00942276 0.00367585 0 0 0 0)
(-0.0565858 -0.0682109 0 -0.00317583 0.0226279 0 0 0 0)
(-0.149161 -0.169426 0 -0.107971 0.0836639 0 0 0 0)
(-2.285 -2.76921e-13 0 1.02999e-14 9.58589e-06 0 0 0 0)
(1.62238 4.57132e-14 0 3.59142e-14 2.7085e-05 0 0 0 0)
(-0.0421981 2.75795e-13 0 7.18284e-15 5.86445e-05 0 0 0 0)
(-0.0436433 3.39466e-13 0 1.74285e-13 -8.69265e-05 0 0 0 0)
(-0.040164 -2.29722e-14 0 1.28749e-14 -0.000895358 0 0 0 0)
(-0.0395333 -1.88251e-13 0 -4.8247e-14 -0.00329108 0 0 0 0)
(-0.0413035 -5.94957e-14 0 -1.90684e-13 -0.0056637 0 0 0 0)
(-0.0542963 -1.63441e-13 0 -1.76454e-13 0.00146568 0 0 0 0)
(-0.0925194 -1.62486e-13 0 -7.63007e-14 0.025905 0 0 0 0)
(-0.201786 4.17049e-14 0 1.44741e-13 0.137887 0 0 0 0)
(-2.28497 1.83354e-05 0 2.10689e-05 6.28134e-06 0 0 0 0)
(1.62239 2.45293e-05 0 6.33793e-05 8.59763e-06 0 0 0 0)
(-0.04231 -5.70058e-05 0 7.41825e-05 1.74002e-05 0 0 0 0)
(-0.0440426 -0.000477001 0 -5.00858e-05 -2.63552e-05 0 0 0 0)
(-0.0411375 -0.00160207 0 -0.000674835 -0.000455299 0 0 0 0)
(-0.0410574 -0.00238417 0 -0.00269669 -0.00160442 0 0 0 0)
(-0.0416913 0.00237838 0 -0.00697058 -0.00271476 0 0 0 0)
(-0.0510149 0.0157844 0 -0.00942276 0.00367585 0 0 0 0)
(-0.0565858 0.0682109 0 0.00317583 0.0226279 0 0 0 0)
(-0.149161 0.169426 0 0.107971 0.0836639 0 0 0 0)
(-2.28491 1.4879e-05 0 1.60627e-05 -1.10743e-05 0 0 0 0)
(1.62243 1.11188e-05 0 4.35537e-05 -2.21401e-05 0 0 0 0)
(-0.0423116 -3.49528e-05 0 5.78009e-05 -4.67224e-05 0 0 0 0)
(-0.0443923 -0.000472699 0 4.19638e-05 6.98184e-05 0 0 0 0)
(-0.0428106 -0.00157807 0 -0.000291941 0.000902978 0 0 0 0)
(-0.045829 -0.00225946 0 -0.00163119 0.00324996 0 0 0 0)
(-0.0480296 0.00528027 0 -0.00506353 0.00554661 0 0 0 0)
(-0.0441499 0.0253426 0 -0.00796946 -0.00440869 0 0 0 0)
(0.024874 0.079988 0 0.00180146 -0.0355804 0 0 0 0)
(0.0138076 0.240919 0 0.0734903 -0.152608 0 0 0 0)
(-0.148662 -0.406778 1.39812e-17 -0.235764 0.189212 -2.09718e-17 -6.10136e-17 -7.19719e-17 3.7896e-33)
(-0.293161 -0.491238 0 -0.326869 0.310907 0 1.61084e-16 5.96104e-17 0)
(-0.380843 -0.586344 0 -0.486843 0.333822 0 2.5403e-16 1.09868e-16 0)
(-1.26597 -0.368441 0 -1.17084 0.630948 0 0 0 0)
(0.266682 -2.04594 -5.05889e-16 -3.95862 4.3215 7.58834e-16 1.92159e-15 1.28106e-15 1.37122e-31)
(-0.298546 -0.245016 0 -0.212659 0.245659 0 -1.03616e-16 -3.77813e-17 0)
(-0.503342 -0.329972 0 -0.263473 0.389768 0 -1.61084e-16 -5.96104e-17 0)
(-0.85529 -0.486992 0 -0.5455 0.698668 0 -2.5403e-16 -1.09868e-16 0)
(-1.5829 -0.372711 0 -1.26203 1.23536 0 0 0 0)
(-1.13318 0.319132 0 -1.50533 1.44501 0 0 0 0)
(-0.373286 3.06052e-14 0 -4.24744e-14 0.345012 0 0 0 0)
(-0.646051 3.60964e-13 0 -1.36714e-13 0.540005 0 0 0 0)
(-1.13712 1.07808e-13 0 2.21358e-13 1.03472 0 0 0 0)
(-1.93837 -1.18601e-13 0 -1.7762e-13 1.87329 0 0 0 0)
(-1.42012 2.64715e-13 0 1.16165e-13 2.64582 0 0 0 0)
(-0.298546 0.245016 0 0.212659 0.245659 0 -1.03616e-16 3.77813e-17 0)
(-0.503342 0.329972 0 0.263473 0.389768 0 -1.61084e-16 5.96104e-17 0)
(-0.85529 0.486992 0 0.5455 0.698668 0 -2.5403e-16 1.09868e-16 0)
(-1.5829 0.372711 0 1.26203 1.23536 0 0 0 0)
(-1.13318 -0.319132 0 1.50533 1.44501 0 0 0 0)
(-0.148662 0.406778 -1.39812e-17 0.235764 0.189212 -2.09718e-17 2.68246e-16 -1.47534e-16 3.7896e-33)
(-0.293161 0.491238 0 0.326869 0.310907 0 1.61084e-16 -5.96104e-17 0)
(-0.380843 0.586344 0 0.486843 0.333822 0 2.5403e-16 -1.09868e-16 0)
(-1.26597 0.368441 -4.00235e-17 1.17084 0.630948 -6.00352e-17 7.5974e-16 -5.06494e-16 1.08484e-32)
(0.266682 2.04594 5.05889e-16 3.95862 4.3215 7.58834e-16 -1.92159e-15 1.28106e-15 1.37122e-31)
(0.13807 0.540264 3.28564e-18 -0.495578 -1.13159 2.95707e-17 -1.19003e-15 9.64876e-17 -8.90573e-34)
(0.699278 -0.0233204 -9.94643e-19 -0.232135 -0.531096 -8.95179e-18 8.0675e-16 -7.28672e-17 -2.69598e-34)
(0.384965 0.0587269 0 0.0906135 -0.306461 0 0 0 0)
(-0.161428 0.420564 -1.37803e-18 0.705245 0.302468 -1.24023e-17 -4.71957e-16 6.3909e-17 3.73516e-34)
(-1.17486 0.482435 5.29331e-18 2.24114 1.70523 4.76398e-17 2.71039e-16 -3.01154e-17 1.43476e-33)
(0.467894 0.527319 0 -0.595414 -0.592909 0 6.02478e-16 -3.12039e-17 0)
(0.833087 -0.0345921 0 -0.216867 -0.589029 0 -4.0687e-16 2.84362e-17 0)
(0.701732 0.0895598 0 0.258667 -0.514355 0 0 0 0)
(0.697569 0.49126 0 1.08266 -0.660797 0 2.73547e-16 -4.06612e-17 0)
(1.27181 0.399828 0 3.33324 -1.2909 0 -2.57892e-17 1.06484e-17 0)
(0.598031 3.01374e-13 0 7.83035e-13 -0.88638 0 0 0 0)
(0.950577 4.70611e-13 0 1.5985e-12 -0.710339 0 0 0 0)
(0.865762 3.64193e-13 0 3.30882e-12 -0.583259 0 0 0 0)
(1.15592 3.37223e-13 0 5.98969e-12 -1.10292 0 -9.63763e-17 3.76358e-29 0)
(1.91296 -2.04421e-13 0 9.23315e-12 -2.82857 0 5.15784e-17 -5.32863e-29 0)
(0.467894 -0.527319 0 0.595414 -0.592909 0 6.02478e-16 3.12039e-17 0)
(0.833087 0.0345921 0 0.216867 -0.589029 0 -4.0687e-16 -2.84362e-17 0)
(0.701732 -0.0895598 0 -0.258667 -0.514355 0 0 0 0)
(0.697569 -0.49126 0 -1.08266 -0.660797 0 2.73547e-16 4.06612e-17 0)
(1.27181 -0.399828 0 -3.33324 -1.2909 0 -2.57892e-17 -1.06484e-17 0)
(0.13807 -0.540264 0 0.495578 -1.13159 0 -6.02478e-16 -3.12039e-17 0)
(0.699278 0.0233204 9.94643e-19 0.232135 -0.531096 -8.95179e-18 6.99115e-18 -1.59949e-17 -2.69598e-34)
(0.384965 -0.0587269 0 -0.0906135 -0.306461 0 0 0 0)
(-0.161428 -0.420564 1.37803e-18 -0.705245 0.302468 -1.24023e-17 2.12397e-17 -9.10936e-18 3.73516e-34)
(-1.17486 -0.482435 -5.29331e-18 -2.24114 1.70523 4.76398e-17 -2.71039e-16 -3.01154e-17 1.43476e-33)
(0.650519 -0.896426 0 10.2987 -0.106874 0 0 0 0)
(1.4371 -1.0652 0 5.78841 0.651232 0 0 0 0)
(-0.675526 0.128476 0 2.99726 1.00892 0 0 0 0)
(-0.705322 0.507129 0 0.783868 0.919883 0 0 0 0)
(-0.343519 0.27747 0 0.121034 0.590056 0 0 0 0)
(-0.135789 0.0668273 0 0.0300029 0.453736 0 0 0 0)
(-0.0122381 0.0182366 0 0.0199367 0.413467 0 0 0 0)
(0.0540989 0.0116332 0 -0.00140367 0.392199 0 0 0 0)
(0.106622 0.00443153 0 0.000868564 0.378997 0 0 0 0)
(0.136823 -0.000939569 0 0.00151341 0.379768 0 0 0 0)
(0.164496 9.7016e-05 0 0.00076911 0.379174 0 0 0 0)
(0.18695 -0.000526228 0 0.000251957 0.379696 0 0 0 0)
(0.204475 -0.000993337 0 -0.000441607 0.381299 0 0 0 0)
(0.217499 -0.00128309 0 -0.00100144 0.383502 0 0 0 0)
(0.229609 -0.00149214 0 -0.00124015 0.38619 0 0 0 0)
(0.247054 -0.0015417 0 -0.00119827 0.389051 0 0 0 0)
(0.27613 -0.00140173 0 -0.000963902 0.391793 0 0 0 0)
(0.312794 -0.000807717 0 -0.000661464 0.394042 0 0 0 0)
(0.361736 -0.0010949 0 -0.000320601 0.39469 0 0 0 0)
(0.373926 -0.000714135 0 -3.95111e-05 0.397847 0 0 0 0)
(0.37505 0.00119738 0 0.00044916 0.397137 0 0 0 0)
(0.364519 0.00134817 0 0.00080206 0.39376 0 0 0 0)
(0.317986 0.00117481 0 0.00113749 0.392429 0 0 0 0)
(0.28549 0.00177925 0 0.00139703 0.389575 0 0 0 0)
(0.261838 0.00201919 0 0.00155047 0.386152 0 0 0 0)
(0.251882 0.00216984 0 0.00156383 0.382395 0 0 0 0)
(0.25031 0.00230536 0 0.00146103 0.378378 0 0 0 0)
(0.251586 0.00245451 0 0.00130865 0.374089 0 0 0 0)
(0.251685 0.00261691 0 0.00115503 0.369508 0 0 0 0)
(0.248602 0.0027882 0 0.0010117 0.364626 0 0 0 0)
(0.241809 0.00297499 0 0.000858375 0.35945 0 0 0 0)
(0.23215 0.00313797 0 0.000666391 0.353955 0 0 0 0)
(0.222159 0.00339173 0 0.000348931 0.348346 0 0 0 0)
(0.214328 0.00336802 0 7.30927e-05 0.342031 0 0 0 0)
(0.206022 0.00470777 0 -0.000572812 0.336986 0 0 0 0)
(0.184889 0.00275346 0 0.00205007 0.32619 0 0 0 0)
(0.136128 0.00767638 0 -0.00292679 0.327183 0 0 0 0)
(0.272817 0.0210951 0 -0.00118513 0.30457 0 0 0 0)
(2.39772 0.0361834 0 -0.000317564 0.266544 0 0 0 0)
(2.1766 0.0231419 0 0.00149321 0.196706 0 0 0 0)
(1.52521 -0.7704 0 9.24319 -1.26289 0 0 0 0)
(-0.0294062 -0.916124 0 5.16023 1.86305 0 0 0 0)
(-1.67203 0.150909 0 2.83698 2.39874 0 0 0 0)
(-1.26623 0.391158 0 0.673009 1.42141 0 0 0 0)
(-0.479143 0.169163 0 -0.00501703 0.655484 0 0 0 0)
(-0.141741 0.034222 0 -0.0319081 0.467612 0 0 0 0)
(-0.0125852 0.00876263 0 -0.0288925 0.425765 0 0 0 0)
(0.0540684 0.00581449 0 -0.032007 0.404924 0 0 0 0)
(0.107696 0.00221914 0 -0.0275367 0.385776 0 0 0 0)
(0.137461 -0.00053294 0 -0.025454 0.389691 0 0 0 0)
(0.164883 9.82443e-05 0 -0.0236808 0.389006 0 0 0 0)
(0.187316 -0.00024089 0 -0.0214393 0.389357 0 0 0 0)
(0.204801 -0.000478245 0 -0.0193858 0.390814 0 0 0 0)
(0.217884 -0.000613886 0 -0.0173603 0.392772 0 0 0 0)
(0.230108 -0.000714582 0 -0.0151351 0.395225 0 0 0 0)
(0.247668 -0.000741415 0 -0.0126497 0.397901 0 0 0 0)
(0.276837 -0.000678709 0 -0.00992488 0.400525 0 0 0 0)
(0.313568 -0.000389113 0 -0.00705452 0.402719 0 0 0 0)
(0.362549 -0.000546211 0 -0.00412015 0.403301 0 0 0 0)
(0.374747 -0.000361628 0 -0.00122463 0.406483 0 0 0 0)
(0.375872 0.000602442 0 0.00156767 0.405756 0 0 0 0)
(0.365317 0.000670358 0 0.00447008 0.402367 0 0 0 0)
(0.31872 0.000571388 0 0.0073509 0.401122 0 0 0 0)
(0.286153 0.000867897 0 0.0101641 0.398329 0 0 0 0)
(0.262434 0.000980124 0 0.0128887 0.395006 0 0 0 0)
(0.25242 0.00104805 0 0.01552 0.391388 0 0 0 0)
(0.250805 0.00110795 0 0.0180797 0.387547 0 0 0 0)
(0.252047 0.00117401 0 0.0205951 0.383463 0 0 0 0)
(0.252104 0.00124649 0 0.0230683 0.379109 0 0 0 0)
(0.248959 0.00132454 0 0.025468 0.374467 0 0 0 0)
(0.242074 0.00141287 0 0.0277387 0.369525 0 0 0 0)
(0.232283 0.001496 0 0.0298101 0.364241 0 0 0 0)
(0.222149 0.00162563 0 0.0315577 0.358738 0 0 0 0)
(0.214116 0.00164286 0 0.0330141 0.352582 0 0 0 0)
(0.205943 0.00232519 0 0.0338271 0.347161 0 0 0 0)
(0.184174 0.0013542 0 0.0360469 0.336399 0 0 0 0)
(0.135111 0.00399984 0 0.0336004 0.337695 0 0 0 0)
(0.272021 0.0108648 0 0.0334329 0.310011 0 0 0 0)
(2.39267 0.0194698 0 0.0258785 0.265181 0 0 0 0)
(2.17213 0.0127929 0 -0.00166132 0.185631 0 0 0 0)
(1.61451 -8.05702e-13 0 8.77267e-12 -2.94837 0 0 0 0)
(-0.426523 -5.64959e-13 0 3.1984e-12 2.6661 0 0 0 0)
(-1.9809 8.82725e-14 0 7.44157e-13 3.34999 0 0 0 0)
(-1.53209 4.56094e-13 0 -5.34216e-13 1.6286 0 0 0 0)
(-0.548586 7.74698e-13 0 7.88511e-13 0.660778 0 0 0 0)
(-0.142734 6.56082e-13 0 1.67756e-12 0.465608 0 0 0 0)
(-0.0122669 6.12315e-14 0 2.06787e-12 0.425502 0 0 0 0)
(0.0544933 -3.83114e-12 0 1.00141e-12 0.405365 0 0 0 0)
(0.108528 -8.99754e-12 0 -5.22191e-12 0.385527 0 0 0 0)
(0.137945 -7.27405e-12 0 -6.15433e-12 0.390109 0 0 0 0)
(0.165664 4.08916e-12 0 -7.7274e-12 0.389191 0 0 0 0)
(0.188199 2.00901e-11 0 -1.55553e-11 0.389433 0 0 0 0)
(0.205662 3.20061e-11 0 -1.84374e-11 0.390847 0 0 0 0)
(0.218735 2.99458e-11 0 2.03653e-11 0.392721 0 0 0 0)
(0.230979 -5.43613e-12 0 7.73549e-11 0.395068 0 0 0 0)
(0.24857 1.7137e-11 0 -1.91874e-11 0.397634 0 0 0 0)
(0.277757 1.09969e-10 0 -4.67284e-10 0.400165 0 0 0 0)
(0.314483 -1.55703e-10 0 -7.12597e-10 0.4023 0 0 0 0)
(0.363432 -3.66151e-10 0 -4.04743e-10 0.40284 0 0 0 0)
(0.37558 1.55061e-10 0 -6.31192e-11 0.406055 0 0 0 0)
(0.376707 5.06708e-10 0 6.61023e-10 0.405326 0 0 0 0)
(0.366202 -9.37645e-11 0 2.71471e-10 0.401913 0 0 0 0)
(0.319642 -2.58295e-10 0 -3.98047e-10 0.400718 0 0 0 0)
(0.287101 2.91001e-10 0 -5.61697e-10 0.397985 0 0 0 0)
(0.263397 1.72622e-10 0 7.94681e-11 0.394751 0 0 0 0)
(0.253392 -1.2324e-10 0 2.08493e-10 0.391247 0 0 0 0)
(0.251786 -3.98232e-12 0 -2.00349e-10 0.387545 0 0 0 0)
(0.253037 1.2115e-10 0 -3.83501e-10 0.38363 0 0 0 0)
(0.253103 7.29472e-11 0 -2.1429e-10 0.379474 0 0 0 0)
(0.249961 -8.75315e-11 0 1.18562e-10 0.37506 0 0 0 0)
(0.243072 -1.83351e-10 0 4.5335e-10 0.370368 0 0 0 0)
(0.233261 -2.68914e-10 0 8.90631e-10 0.365347 0 0 0 0)
(0.223091 -3.61546e-10 0 1.25774e-09 0.360083 0 0 0 0)
(0.214988 -5.003e-10 0 1.55788e-09 0.35417 0 0 0 0)
(0.206904 -4.66209e-10 0 2.00704e-09 0.348788 0 0 0 0)
(0.184823 -3.2906e-10 0 2.73236e-09 0.338185 0 0 0 0)
(0.135367 -1.41628e-10 0 2.53881e-09 0.339478 0 0 0 0)
(0.270571 4.64296e-10 0 2.34777e-09 0.310686 0 0 0 0)
(2.38751 8.48743e-10 0 1.90537e-09 0.264782 0 0 0 0)
(2.16858 4.22317e-10 0 -6.00861e-10 0.176831 0 0 0 0)
(1.52521 0.7704 0 -9.24319 -1.26289 0 0 0 0)
(-0.0294062 0.916124 0 -5.16023 1.86305 0 0 0 0)
(-1.67203 -0.150909 0 -2.83698 2.39874 0 0 0 0)
(-1.26623 -0.391158 0 -0.673009 1.42141 0 0 0 0)
(-0.479143 -0.169163 0 0.00501703 0.655484 0 0 0 0)
(-0.141741 -0.034222 0 0.0319081 0.467612 0 0 0 0)
(-0.0125852 -0.00876263 0 0.0288925 0.425765 0 0 0 0)
(0.0540684 -0.00581449 0 0.032007 0.404924 0 0 0 0)
(0.107696 -0.00221914 0 0.0275367 0.385776 0 0 0 0)
(0.137461 0.00053294 0 0.025454 0.389691 0 0 0 0)
(0.164883 -9.82443e-05 0 0.0236808 0.389006 0 0 0 0)
(0.187316 0.00024089 0 0.0214393 0.389357 0 0 0 0)
(0.204801 0.000478245 0 0.0193858 0.390814 0 0 0 0)
(0.217884 0.000613886 0 0.0173603 0.392772 0 0 0 0)
(0.230108 0.000714582 0 0.0151351 0.395225 0 0 0 0)
(0.247668 0.000741415 0 0.0126497 0.397901 0 0 0 0)
(0.276837 0.000678709 0 0.00992488 0.400525 0 0 0 0)
(0.313568 0.000389113 0 0.00705452 0.402719 0 0 0 0)
(0.362549 0.00054621 0 0.00412015 0.403301 0 0 0 0)
(0.374747 0.000361628 0 0.00122462 0.406483 0 0 0 0)
(0.375872 -0.000602442 0 -0.00156767 0.405756 0 0 0 0)
(0.365317 -0.000670358 0 -0.00447008 0.402367 0 0 0 0)
(0.31872 -0.000571389 0 -0.0073509 0.401122 0 0 0 0)
(0.286153 -0.000867897 0 -0.0101641 0.398329 0 0 0 0)
(0.262434 -0.000980124 0 -0.0128887 0.395006 0 0 0 0)
(0.25242 -0.00104805 0 -0.01552 0.391388 0 0 0 0)
(0.250805 -0.00110795 0 -0.0180797 0.387547 0 0 0 0)
(0.252047 -0.001174 0 -0.0205951 0.383463 0 0 0 0)
(0.252104 -0.00124649 0 -0.0230683 0.379109 0 0 0 0)
(0.248959 -0.00132454 0 -0.025468 0.374467 0 0 0 0)
(0.242074 -0.00141287 0 -0.0277387 0.369525 0 0 0 0)
(0.232283 -0.001496 0 -0.0298101 0.364241 0 0 0 0)
(0.222149 -0.00162563 0 -0.0315577 0.358738 0 0 0 0)
(0.214116 -0.00164286 0 -0.0330141 0.352582 0 0 0 0)
(0.205943 -0.00232519 0 -0.0338272 0.347161 0 0 0 0)
(0.184174 -0.0013542 0 -0.036047 0.336399 0 0 0 0)
(0.135111 -0.00399984 0 -0.0336004 0.337695 0 0 0 0)
(0.272021 -0.0108648 0 -0.0334329 0.310011 0 0 0 0)
(2.39267 -0.0194698 0 -0.0258785 0.265181 0 0 0 0)
(2.17213 -0.0127929 0 0.00166132 0.185631 0 0 0 0)
(0.650519 0.896426 0 -10.2987 -0.106874 0 0 0 0)
(1.4371 1.0652 0 -5.78841 0.651232 0 0 0 0)
(-0.675526 -0.128476 0 -2.99726 1.00892 0 0 0 0)
(-0.705322 -0.507129 0 -0.783868 0.919883 0 0 0 0)
(-0.343519 -0.27747 0 -0.121034 0.590056 0 0 0 0)
(-0.135789 -0.0668273 0 -0.0300029 0.453736 0 0 0 0)
(-0.0122381 -0.0182366 0 -0.0199367 0.413467 0 0 0 0)
(0.0540989 -0.0116332 0 0.00140367 0.392199 0 0 0 0)
(0.106622 -0.00443153 0 -0.000868564 0.378997 0 0 0 0)
(0.136823 0.000939569 0 -0.00151341 0.379768 0 0 0 0)
(0.164496 -9.7016e-05 0 -0.00076911 0.379174 0 0 0 0)
(0.18695 0.000526228 0 -0.000251957 0.379696 0 0 0 0)
(0.204475 0.000993337 0 0.000441607 0.381299 0 0 0 0)
(0.217499 0.00128309 0 0.00100144 0.383502 0 0 0 0)
(0.229609 0.00149214 0 0.00124015 0.38619 0 0 0 0)
(0.247054 0.0015417 0 0.00119827 0.389051 0 0 0 0)
(0.27613 0.00140173 0 0.000963902 0.391793 0 0 0 0)
(0.312794 0.000807717 0 0.000661464 0.394042 0 0 0 0)
(0.361736 0.0010949 0 0.000320602 0.39469 0 0 0 0)
(0.373926 0.000714135 0 3.95112e-05 0.397847 0 0 0 0)
(0.37505 -0.00119738 0 -0.00044916 0.397137 0 0 0 0)
(0.364519 -0.00134817 0 -0.00080206 0.39376 0 0 0 0)
(0.317986 -0.00117481 0 -0.00113749 0.392429 0 0 0 0)
(0.28549 -0.00177925 0 -0.00139703 0.389575 0 0 0 0)
(0.261838 -0.00201919 0 -0.00155047 0.386152 0 0 0 0)
(0.251882 -0.00216984 0 -0.00156383 0.382395 0 0 0 0)
(0.25031 -0.00230536 0 -0.00146103 0.378378 0 0 0 0)
(0.251586 -0.00245451 0 -0.00130865 0.374089 0 0 0 0)
(0.251685 -0.00261691 0 -0.00115503 0.369508 0 0 0 0)
(0.248602 -0.0027882 0 -0.0010117 0.364626 0 0 0 0)
(0.241809 -0.00297499 0 -0.000858375 0.35945 0 0 0 0)
(0.23215 -0.00313798 0 -0.000666392 0.353955 0 0 0 0)
(0.222159 -0.00339173 0 -0.000348932 0.348346 0 0 0 0)
(0.214328 -0.00336802 0 -7.30951e-05 0.342031 0 0 0 0)
(0.206022 -0.00470777 0 0.000572809 0.336986 0 0 0 0)
(0.184889 -0.00275346 0 -0.00205008 0.32619 0 0 0 0)
(0.136128 -0.00767638 0 0.00292679 0.327183 0 0 0 0)
(0.272817 -0.0210951 0 0.00118513 0.30457 0 0 0 0)
(2.39772 -0.0361834 0 0.000317562 0.266544 0 0 0 0)
(2.1766 -0.0231419 0 -0.00149321 0.196706 0 0 0 0)
(2.52073 1.18499 0 -3.75977 -0.0448853 0 0 0 0)
(2.85493 1.44366 0 -2.5435 0.299778 0 0 0 0)
(0.31498 -0.00832901 0 -1.57149 0.403043 0 0 0 0)
(-0.110604 -0.519807 0 -0.585154 0.475261 0 0 0 0)
(-0.16308 -0.336334 0 -0.24734 0.464801 0 0 0 0)
(-0.0852067 -0.107291 0 -0.0975063 0.413177 0 0 0 0)
(0.00671394 -0.0364093 0 -0.0581673 0.379249 0 0 0 0)
(0.0659941 -0.020709 0 -0.0181555 0.362262 0 0 0 0)
(0.107107 -0.00745851 0 -0.0142759 0.357699 0 0 0 0)
(0.138261 0.000174202 0 -0.0105824 0.354153 0 0 0 0)
(0.166121 -0.000144575 0 -0.00792997 0.353551 0 0 0 0)
(0.188499 0.00124339 0 -0.00581006 0.354361 0 0 0 0)
(0.205964 0.00226967 0 -0.00389426 0.356327 0 0 0 0)
(0.218831 0.00290858 0 -0.00236229 0.358975 0 0 0 0)
(0.230808 0.00329666 0 -0.00130866 0.362035 0 0 0 0)
(0.248205 0.00333022 0 -0.00067591 0.365168 0 0 0 0)
(0.277318 0.00297312 0 -0.000383914 0.368085 0 0 0 0)
(0.314058 0.0017224 0 -0.000287609 0.370437 0 0 0 0)
(0.363099 0.00229882 0 -0.000279128 0.371208 0 0 0 0)
(0.375215 0.00148907 0 -0.000227657 0.374441 0 0 0 0)
(0.376295 -0.00247863 0 -0.000600697 0.373755 0 0 0 0)
(0.365808 -0.00283952 0 -0.000675442 0.370301 0 0 0 0)
(0.319196 -0.0024987 0 -0.000780934 0.368834 0 0 0 0)
(0.286661 -0.003752 0 -0.000899965 0.365869 0 0 0 0)
(0.263018 -0.0042822 0 -0.000919232 0.362283 0 0 0 0)
(0.253098 -0.00462692 0 -0.000769295 0.35831 0 0 0 0)
(0.251538 -0.00493353 0 -0.000484164 0.354021 0 0 0 0)
(0.252771 -0.0052574 0 -0.000177397 0.349412 0 0 0 0)
(0.252775 -0.00559788 0 5.20074e-05 0.344468 0 0 0 0)
(0.249557 -0.00594126 0 0.000167699 0.339189 0 0 0 0)
(0.242598 -0.00630041 0 0.00016851 0.333595 0 0 0 0)
(0.232757 -0.00656315 0 5.55668e-05 0.327652 0 0 0 0)
(0.22251 -0.00706323 0 -1.81742e-05 0.321683 0 0 0 0)
(0.214449 -0.006774 0 -0.000571063 0.314683 0 0 0 0)
(0.204613 -0.00950698 0 -0.000316838 0.309765 0 0 0 0)
(0.184824 -0.00588523 0 -0.00552207 0.297488 0 0 0 0)
(0.135965 -0.0133106 0 -0.00168885 0.297879 0 0 0 0)
(0.269463 -0.0370733 0 -0.00555316 0.281418 0 0 0 0)
(2.38514 -0.0678044 0 -0.00485966 0.252166 0 0 0 0)
(2.16583 -0.0446341 0 -0.0281472 0.196953 0 0 0 0)
(2.33285 1.0937 0 -0.463404 0.501169 0 0 0 0)
(2.78552 1.2939 0 -0.77265 0.182946 0 0 0 0)
(0.680471 -0.0238016 0 -0.687959 0.12696 0 0 0 0)
(0.251773 -0.44082 0 -0.416122 0.221801 0 0 0 0)
(0.0296387 -0.305731 0 -0.22957 0.344668 0 0 0 0)
(0.019381 -0.12757 0 -0.102379 0.35517 0 0 0 0)
(0.0540645 -0.0575556 0 -0.0473635 0.337058 0 0 0 0)
(0.0900158 -0.0275331 0 -0.0164377 0.326626 0 0 0 0)
(0.11366 -0.0106225 0 -0.00542164 0.325684 0 0 0 0)
(0.142167 -0.00264688 0 0.000744546 0.319577 0 0 0 0)
(0.168224 0.000128513 0 0.00368305 0.318828 0 0 0 0)
(0.190008 0.00281663 0 0.00586877 0.319523 0 0 0 0)
(0.207 0.00475527 0 0.00755447 0.321411 0 0 0 0)
(0.219276 0.00591234 0 0.00864089 0.324041 0 0 0 0)
(0.230591 0.00649275 0 0.00897302 0.327042 0 0 0 0)
(0.247328 0.00641213 0 0.00847754 0.330104 0 0 0 0)
(0.275867 0.00563645 0 0.00717178 0.332958 0 0 0 0)
(0.312217 0.00332656 0 0.00524756 0.335272 0 0 0 0)
(0.361062 0.00430738 0 0.00301939 0.336075 0 0 0 0)
(0.372925 0.00275357 0 0.000686383 0.339282 0 0 0 0)
(0.373951 -0.0044998 0 -0.00203261 0.338628 0 0 0 0)
(0.363655 -0.00529022 0 -0.00438524 0.335172 0 0 0 0)
(0.31712 -0.00473563 0 -0.00654902 0.333688 0 0 0 0)
(0.284728 -0.00703474 0 -0.00859996 0.330791 0 0 0 0)
(0.261332 -0.00808927 0 -0.0103282 0.327276 0 0 0 0)
(0.251649 -0.00881351 0 -0.0116918 0.323359 0 0 0 0)
(0.250221 -0.00947094 0 -0.0127858 0.319107 0 0 0 0)
(0.251467 -0.0101572 0 -0.0137994 0.314525 0 0 0 0)
(0.251434 -0.0108695 0 -0.0148337 0.309635 0 0 0 0)
(0.248202 -0.0115752 0 -0.0159265 0.304428 0 0 0 0)
(0.241277 -0.012309 0 -0.0169632 0.299005 0 0 0 0)
(0.231644 -0.0127796 0 -0.0179409 0.293297 0 0 0 0)
(0.221366 -0.0139206 0 -0.0184937 0.287814 0 0 0 0)
(0.213975 -0.0130272 0 -0.0197279 0.281007 0 0 0 0)
(0.202006 -0.0187043 0 -0.0189739 0.276964 0 0 0 0)
(0.183601 -0.0125279 0 -0.0245549 0.264743 0 0 0 0)
(0.136185 -0.0201408 0 -0.021885 0.265184 0 0 0 0)
(0.27156 -0.0565773 0 -0.0238349 0.256901 0 0 0 0)
(2.3827 -0.100621 0 -0.0133485 0.239687 0 0 0 0)
(2.15993 -0.0648227 0 -0.0378437 0.223563 0 0 0 0)
(2.22273 0.878334 0 -0.00463357 0.495608 0 0 0 0)
(2.63854 1.08306 0 -0.182279 0.0428629 0 0 0 0)
(0.658543 0.0291134 0 -0.251847 0.0304031 0 0 0 0)
(0.331116 -0.310016 0 -0.257148 0.118982 0 0 0 0)
(0.139255 -0.207815 0 -0.166586 0.264752 0 0 0 0)
(0.0903741 -0.114624 0 -0.0960925 0.297169 0 0 0 0)
(0.0895299 -0.0639154 0 -0.0464715 0.298837 0 0 0 0)
(0.106411 -0.0316692 0 -0.0269801 0.29291 0 0 0 0)
(0.123664 -0.0142507 0 -0.0120055 0.291083 0 0 0 0)
(0.147035 -0.00643248 0 -0.00387572 0.285131 0 0 0 0)
(0.171059 -0.000196283 0 0.000962112 0.283511 0 0 0 0)
(0.192229 0.00373296 0 0.00480259 0.28333 0 0 0 0)
(0.208635 0.00662273 0 0.00766114 0.28436 0 0 0 0)
(0.220198 0.00833429 0 0.00959212 0.28614 0 0 0 0)
(0.230651 0.00913955 0 0.0104426 0.288302 0 0 0 0)
(0.246469 0.00903101 0 0.0101191 0.290597 0 0 0 0)
(0.274205 0.00795268 0 0.00863495 0.292818 0 0 0 0)
(0.310057 0.00472589 0 0.00627303 0.294677 0 0 0 0)
(0.358703 0.00616391 0 0.00350642 0.295229 0 0 0 0)
(0.370346 0.00394968 0 0.000634167 0.298226 0 0 0 0)
(0.371408 -0.00643945 0 -0.00265103 0.297616 0 0 0 0)
(0.361455 -0.00759971 0 -0.00545668 0.294261 0 0 0 0)
(0.315134 -0.00672014 0 -0.00796496 0.293002 0 0 0 0)
(0.28302 -0.00993126 0 -0.0102616 0.290542 0 0 0 0)
(0.260038 -0.0114446 0 -0.0120499 0.287589 0 0 0 0)
(0.25073 -0.0124982 0 -0.0132785 0.284325 0 0 0 0)
(0.249507 -0.0134456 0 -0.0141089 0.280801 0 0 0 0)
(0.250798 -0.0143858 0 -0.014763 0.277086 0 0 0 0)
(0.250725 -0.0153281 0 -0.0154496 0.27317 0 0 0 0)
(0.247505 -0.0161842 0 -0.0160689 0.269233 0 0 0 0)
(0.240657 -0.0170268 0 -0.0166513 0.26524 0 0 0 0)
(0.231282 -0.0173473 0 -0.017101 0.261271 0 0 0 0)
(0.220788 -0.0189058 0 -0.0169608 0.25803 0 0 0 0)
(0.213986 -0.0172293 0 -0.0182903 0.253079 0 0 0 0)
(0.199961 -0.0251794 0 -0.0170965 0.251527 0 0 0 0)
(0.182019 -0.0172371 0 -0.022385 0.242374 0 0 0 0)
(0.136659 -0.0208683 0 -0.0201891 0.24425 0 0 0 0)
(0.27769 -0.0616428 0 -0.0196105 0.24707 0 0 0 0)
(2.37164 -0.09993 0 -0.00458525 0.235693 0 0 0 0)
(2.14223 -0.0601724 0 -0.0520825 0.258077 0 0 0 0)
(2.16167 0.657419 0 0.0662216 0.493547 0 0 0 0)
(2.54729 0.845615 0 -0.0551556 0.10736 0 0 0 0)
(0.608324 0.0495496 0 -0.114994 0.0597772 0 0 0 0)
(0.333934 -0.214993 0 -0.165087 0.125471 0 0 0 0)
(0.184838 -0.134024 0 -0.128039 0.232646 0 0 0 0)
(0.135128 -0.0947237 0 -0.0886528 0.259229 0 0 0 0)
(0.120664 -0.0616597 0 -0.0516651 0.270521 0 0 0 0)
(0.123228 -0.0350058 0 -0.0335465 0.268522 0 0 0 0)
(0.135924 -0.018119 0 -0.0189684 0.265958 0 0 0 0)
(0.154663 -0.00994299 0 -0.00913229 0.262066 0 0 0 0)
(0.176586 -0.00160634 0 -0.00199376 0.259877 0 0 0 0)
(0.196464 0.00363428 0 0.00354371 0.259183 0 0 0 0)
(0.211615 0.00746258 0 0.00766227 0.259312 0 0 0 0)
(0.221957 0.00971101 0 0.0102869 0.260158 0 0 0 0)
(0.231098 0.0107879 0 0.0115588 0.261269 0 0 0 0)
(0.245586 0.0107637 0 0.0113546 0.262561 0 0 0 0)
(0.272161 0.00956761 0 0.00973617 0.263873 0 0 0 0)
(0.307275 0.00565024 0 0.00703179 0.265026 0 0 0 0)
(0.355629 0.00772731 0 0.00381977 0.265125 0 0 0 0)
(0.366991 0.00505334 0 0.000526235 0.267899 0 0 0 0)
(0.368082 -0.0083205 0 -0.00329728 0.267407 0 0 0 0)
(0.358534 -0.00973582 0 -0.00652877 0.264215 0 0 0 0)
(0.31249 -0.00831951 0 -0.00947973 0.263433 0 0 0 0)
(0.280792 -0.0122506 0 -0.0121738 0.261687 0 0 0 0)
(0.258425 -0.0140796 0 -0.0142194 0.259658 0 0 0 0)
(0.249665 -0.0153548 0 -0.0155534 0.257456 0 0 0 0)
(0.248791 -0.0164467 0 -0.0163444 0.255171 0 0 0 0)
(0.250175 -0.0175114 0 -0.0169932 0.25276 0 0 0 0)
(0.250175 -0.0184375 0 -0.0174675 0.250521 0 0 0 0)
(0.247044 -0.0192171 0 -0.0181456 0.2481 0 0 0 0)
(0.240283 -0.0199815 0 -0.0183472 0.24626 0 0 0 0)
(0.231346 -0.019727 0 -0.0187815 0.24411 0 0 0 0)
(0.22022 -0.0218145 0 -0.0183297 0.243212 0 0 0 0)
(0.213845 -0.0192939 0 -0.0203226 0.239903 0 0 0 0)
(0.19806 -0.0290201 0 -0.0193424 0.240479 0 0 0 0)
(0.180621 -0.0195403 0 -0.0243275 0.234513 0 0 0 0)
(0.138858 -0.0156148 0 -0.0224083 0.236734 0 0 0 0)
(0.286597 -0.0648232 0 -0.0150853 0.247719 0 0 0 0)
(2.35141 -0.090015 0 -0.00214969 0.232171 0 0 0 0)
(2.11416 -0.0432527 0 -0.0652334 0.27853 0 0 0 0)
(2.10576 0.506191 0 0.0403007 0.456954 0 0 0 0)
(2.46392 0.665061 0 -0.0127711 0.144504 0 0 0 0)
(0.552609 0.0465661 0 -0.0625354 0.0953419 0 0 0 0)
(0.318545 -0.143434 0 -0.113189 0.148991 0 0 0 0)
(0.212909 -0.0789217 0 -0.0983995 0.221431 0 0 0 0)
(0.163971 -0.0781261 0 -0.0706982 0.239256 0 0 0 0)
(0.142632 -0.0549601 0 -0.0491931 0.254801 0 0 0 0)
(0.137918 -0.0360663 0 -0.0340091 0.255556 0 0 0 0)
(0.147191 -0.020472 0 -0.0219012 0.254354 0 0 0 0)
(0.163392 -0.0122922 0 -0.0115902 0.252542 0 0 0 0)
(0.183274 -0.00297443 0 -0.00354781 0.251204 0 0 0 0)
(0.201534 0.00318844 0 0.00309049 0.25038 0 0 0 0)
(0.215133 0.00756259 0 0.00751668 0.25044 0 0 0 0)
(0.223952 0.01022 0 0.0104976 0.25062 0 0 0 0)
(0.231679 0.0114552 0 0.0118398 0.251081 0 0 0 0)
(0.244713 0.0115399 0 0.0116998 0.251584 0 0 0 0)
(0.27004 0.0103276 0 0.0100302 0.252131 0 0 0 0)
(0.304356 0.0059326 0 0.00718575 0.252641 0 0 0 0)
(0.352434 0.0089321 0 0.00380338 0.252315 0 0 0 0)
(0.363488 0.00614882 0 0.000419015 0.254947 0 0 0 0)
(0.364609 -0.00998874 0 -0.0036698 0.254669 0 0 0 0)
(0.355498 -0.0114291 0 -0.00699581 0.251702 0 0 0 0)
(0.309695 -0.00915689 0 -0.0101372 0.251513 0 0 0 0)
(0.278452 -0.0135693 0 -0.0130362 0.25055 0 0 0 0)
(0.256782 -0.0155214 0 -0.0152182 0.249477 0 0 0 0)
(0.248682 -0.0168224 0 -0.0165441 0.248387 0 0 0 0)
(0.248119 -0.0179704 0 -0.0173665 0.247216 0 0 0 0)
(0.249716 -0.0188661 0 -0.0177829 0.246283 0 0 0 0)
(0.249614 -0.0198195 0 -0.0185816 0.245023 0 0 0 0)
(0.246657 -0.0202902 0 -0.01869 0.244616 0 0 0 0)
(0.240044 -0.0208716 0 -0.0193771 0.243561 0 0 0 0)
(0.231299 -0.0202847 0 -0.0196081 0.243046 0 0 0 0)
(0.219303 -0.0229597 0 -0.0188997 0.243675 0 0 0 0)
(0.21301 -0.0198627 0 -0.0220085 0.240751 0 0 0 0)
(0.196102 -0.0303731 0 -0.021498 0.242386 0 0 0 0)
(0.179064 -0.0208466 0 -0.025521 0.23958 0 0 0 0)
(0.145565 -0.00814251 0 -0.0228945 0.240564 0 0 0 0)
(0.297211 -0.0660394 0 -0.00831038 0.252099 0 0 0 0)
(2.32331 -0.0702397 0 -0.00359802 0.239257 0 0 0 0)
(2.08144 -0.0154993 0 -0.0782605 0.285455 0 0 0 0)
(2.11052 0.356331 0 0.05043 0.423712 0 0 0 0)
(2.4482 0.497153 0 0.00357333 0.162914 0 0 0 0)
(0.511558 0.0538735 0 -0.0358359 0.133256 0 0 0 0)
(0.299374 -0.0934885 0 -0.0715656 0.181496 0 0 0 0)
(0.225784 -0.0470405 0 -0.0727896 0.216616 0 0 0 0)
(0.182545 -0.0625674 0 -0.0544777 0.230042 0 0 0 0)
(0.156019 -0.0459524 0 -0.044238 0.247306 0 0 0 0)
(0.149528 -0.0354368 0 -0.0325181 0.248763 0 0 0 0)
(0.157528 -0.0210239 0 -0.0224454 0.249615 0 0 0 0)
(0.172349 -0.0129784 0 -0.0125014 0.250103 0 0 0 0)
(0.190733 -0.00368924 0 -0.00326399 0.249143 0 0 0 0)
(0.207126 0.00289811 0 0.00293085 0.249865 0 0 0 0)
(0.218753 0.00769338 0 0.00808967 0.249602 0 0 0 0)
(0.226123 0.0103284 0 0.0108105 0.250091 0 0 0 0)
(0.232257 0.0117167 0 0.012336 0.250244 0 0 0 0)
(0.243842 0.0117754 0 0.0121748 0.250507 0 0 0 0)
(0.267811 0.0105864 0 0.0104596 0.250708 0 0 0 0)
(0.301275 0.00582754 0 0.00744967 0.25094 0 0 0 0)
(0.349108 0.00994968 0 0.00389904 0.250461 0 0 0 0)
(0.35979 0.00732176 0 0.000427425 0.253091 0 0 0 0)
(0.360936 -0.011448 0 -0.00397992 0.253041 0 0 0 0)
(0.352302 -0.0127768 0 -0.00741185 0.250205 0 0 0 0)
(0.306669 -0.00942946 0 -0.0107806 0.250376 0 0 0 0)
(0.275895 -0.0142126 0 -0.0139434 0.249843 0 0 0 0)
(0.255045 -0.0161636 0 -0.0162841 0.249294 0 0 0 0)
(0.247595 -0.0175329 0 -0.0177346 0.248671 0 0 0 0)
(0.247597 -0.0184744 0 -0.0183534 0.248231 0 0 0 0)
(0.249005 -0.0196251 0 -0.0192271 0.247364 0 0 0 0)
(0.249301 -0.0200434 0 -0.0190705 0.247593 0 0 0 0)
(0.246278 -0.0206257 0 -0.0205904 0.246099 0 0 0 0)
(0.239398 -0.0214947 0 -0.0195522 0.247332 0 0 0 0)
(0.231806 -0.0196169 0 -0.0209946 0.245656 0 0 0 0)
(0.217907 -0.0240258 0 -0.0198257 0.247056 0 0 0 0)
(0.211341 -0.0205366 0 -0.0232738 0.244359 0 0 0 0)
(0.194676 -0.0301489 0 -0.022829 0.246107 0 0 0 0)
(0.179275 -0.0212959 0 -0.0255861 0.245281 0 0 0 0)