/*--------------------------------*- C++ -*----------------------------------*\
| =========                 |                                                 |
| \\      /  F ield         | OpenFOAM: The Open Source CFD Toolbox           |
|  \\    /   O peration     | Version:  v1912                                 |
|   \\  /    A nd           | Website:  www.openfoam.com                      |
|    \\/     M anipulation  |                                                 |
\*---------------------------------------------------------------------------*/
FoamFile
{
    version     2.0;
    format      ascii;
    class       volScalarField;
    location    "2.8";
    object      T;
}
// * * * * * * * * * * * * * * * * * * * * * * * * * * * * * * * * * * * * * //

dimensions      [0 0 0 1 0 0 0];


internalField   nonuniform List<scalar> 
1900
(
1.12597
1.01998
1.0245
1.02939
1.0316
1.03305
1.03451
1.03673
1.03975
1.04394
1.12597
1.01998
1.0245
1.02939
1.0316
1.03303
1.03441
1.03618
1.03845
1.04278
1.12597
1.01999
1.0245
1.02938
1.03158
1.03301
1.03439
1.03621
1.03866
1.04251
1.12597
1.01998
1.0245
1.02939
1.0316
1.03303
1.03441
1.03618
1.03845
1.04278
1.12597
1.01998
1.0245
1.02939
1.0316
1.03305
1.03451
1.03673
1.03975
1.04394
1.04298
1.0479
1.05073
1.04433
0.996441
1.04692
1.05135
1.05269
1.05161
1.0235
1.0465
1.0502
1.05078
1.04574
1.01624
1.04692
1.05135
1.05269
1.05161
1.0235
1.04298
1.0479
1.05073
1.04433
0.996441
1.04564
1.01364
0.993052
0.964612
0.920692
1.03931
1.01219
0.993641
0.97214
0.94641
1.03758
1.0118
0.992392
0.972513
0.951314
1.03931
1.01219
0.993641
0.97214
0.94641
1.04564
1.01364
0.993052
0.964612
0.920692
0.814181
0.749213
0.810285
0.827228
0.81489
0.809024
0.809163
0.812193
0.815977
0.821648
0.828618
0.836834
0.846205
0.856595
0.867699
0.878946
0.889433
0.898156
0.903999
0.907728
0.907472
0.903196
0.896837
0.887566
0.876465
0.864413
0.852151
0.840066
0.828304
0.816927
0.80602
0.795705
0.786051
0.776966
0.768123
0.759855
0.75385
0.750186
0.688321
0.583223
0.916897
0.786786
0.82395
0.830062
0.816437
0.80969
0.809722
0.812647
0.816401
0.822042
0.828998
0.837199
0.846553
0.85693
0.868022
0.87926
0.889738
0.898452
0.904289
0.908013
0.907757
0.903486
0.897133
0.88787
0.876777
0.864732
0.852478
0.840402
0.828653
0.817291
0.806403
0.796111
0.786486
0.777434
0.768627
0.760392
0.754381
0.750788
0.689017
0.583863
0.918634
0.811685
0.833525
0.83231
0.817185
0.809996
0.809986
0.81287
0.816594
0.822227
0.829174
0.837364
0.846709
0.857078
0.868164
0.879396
0.889869
0.898579
0.904413
0.908135
0.90788
0.90361
0.89726
0.888001
0.876912
0.864871
0.852622
0.840554
0.828812
0.81746
0.806584
0.796308
0.7867
0.77767
0.768886
0.760679
0.754672
0.751123
0.689499
0.585022
0.916897
0.786786
0.82395
0.830062
0.816437
0.80969
0.809722
0.812647
0.816401
0.822042
0.828998
0.837199
0.846553
0.85693
0.868022
0.87926
0.889738
0.898452
0.904289
0.908013
0.907757
0.903486
0.897133
0.88787
0.876777
0.864732
0.852478
0.840402
0.828653
0.817291
0.806403
0.796111
0.786486
0.777434
0.768627
0.760392
0.754381
0.750788
0.689017
0.583863
0.814181
0.749213
0.810285
0.827228
0.81489
0.809024
0.809163
0.812193
0.815977
0.821648
0.828618
0.836834
0.846205
0.856595
0.867699
0.878946
0.889433
0.898156
0.903999
0.907728
0.907472
0.903196
0.896837
0.887566
0.876465
0.864413
0.852151
0.840066
0.828304
0.816927
0.80602
0.795705
0.786051
0.776966
0.768123
0.759855
0.75385
0.750186
0.688321
0.583223
0.622073
0.702418
0.798206
0.814289
0.808517
0.805406
0.806338
0.80958
0.813733
0.819527
0.82656
0.83485
0.84429
0.854739
0.86589
0.877176
0.887699
0.896454
0.902322
0.90607
0.905812
0.901515
0.895133
0.885835
0.874707
0.862628
0.850339
0.838222
0.826422
0.814999
0.804037
0.793657
0.783923
0.774747
0.765818
0.757458
0.751528
0.747641
0.685653
0.579911
0.548492
0.700229
0.782805
0.791871
0.794406
0.795555
0.798521
0.802314
0.807129
0.813173
0.820375
0.828823
0.838415
0.848996
0.860257
0.87164
0.882255
0.891097
0.897035
0.900831
0.900568
0.896223
0.889777
0.880407
0.869207
0.857061
0.8447
0.832501
0.820602
0.809062
0.797968
0.787439
0.777542
0.768179
0.759123
0.750615
0.744778
0.740613
0.678721
0.573202
0.537809
0.696608
0.763994
0.773305
0.778727
0.783022
0.787409
0.792066
0.797371
0.803724
0.811145
0.819774
0.829528
0.840239
0.851598
0.863064
0.873763
0.882693
0.888706
0.892557
0.892285
0.887886
0.881369
0.871927
0.860665
0.84847
0.836062
0.823805
0.811833
0.800203
0.789005
0.778355
0.768331
0.758829
0.749727
0.74115
0.735343
0.731027
0.670318
0.564241
0.543932
0.686113
0.747539
0.756262
0.76317
0.769333
0.774657
0.780052
0.78575
0.79236
0.799996
0.80879
0.818672
0.829459
0.840857
0.852349
0.863088
0.872079
0.878156
0.88206
0.881784
0.877337
0.870765
0.861279
0.849999
0.837811
0.825424
0.813188
0.801227
0.789603
0.778398
0.767735
0.757705
0.748197
0.739207
0.730697
0.724862
0.720484
0.661772
0.554909
0.532225
0.673073
0.731769
0.740754
0.748276
0.755391
0.761351
0.767197
0.773208
0.780042
0.787886
0.796841
0.806815
0.817632
0.829012
0.840476
0.85121
0.86023
0.866353
0.870311
0.870037
0.865554
0.858952
0.849459
0.83821
0.82609
0.813793
0.801648
0.789781
0.778229
0.767101
0.756492
0.746535
0.737107
0.728317
0.719926
0.713907
0.709273
0.652983
0.545511
0.526174
0.660732
0.716978
0.726306
0.734367
0.741755
0.748062
0.754166
0.760421
0.767493
0.775578
0.784694
0.794766
0.80559
0.816932
0.828344
0.839055
0.848095
0.854261
0.858281
0.858019
0.853505
0.846889
0.837406
0.826213
0.814194
0.802019
0.790014
0.778254
0.766832
0.755781
0.745254
0.735406
0.726076
0.717491
0.709189
0.702863
0.697803
0.644024
0.536021
0.520008
0.649053
0.703281
0.712646
0.721144
0.728541
0.734973
0.7412
0.747681
0.755026
0.763348
0.772682
0.782825
0.793674
0.804968
0.816333
0.827024
0.836093
0.842315
0.846414
0.846171
0.841624
0.834989
0.825511
0.814373
0.802453
0.790415
0.778519
0.766916
0.755546
0.744627
0.734144
0.724393
0.715176
0.706762
0.698475
0.691799
0.68639
0.635107
0.527084
0.513506
0.637876
0.690374
0.699505
0.708279
0.715602
0.722081
0.728378
0.735088
0.742712
0.751357
0.760826
0.771117
0.781951
0.793222
0.804537
0.815224
0.82434
0.830639
0.834837
0.834622
0.83003
0.82336
0.81387
0.802768
0.790946
0.779007
0.767268
0.755699
0.744506
0.733579
0.723159
0.713536
0.704371
0.696068
0.687749
0.680737
0.675029
0.626108
0.518001
0.508182
0.627729
0.678224
0.686914
0.695741
0.702992
0.709471
0.715793
0.722762
0.730689
0.739532
0.749276
0.759581
0.770476
0.781689
0.792976
0.803664
0.812849
0.819245
0.823561
0.82338
0.818731
0.81201
0.802486
0.791413
0.779659
0.767853
0.756157
0.744784
0.733537
0.722779
0.712378
0.702807
0.693763
0.685561
0.677169
0.669847
0.663943
0.617526
0.509726
0.502078
0.617576
0.666157
0.674475
0.683188
0.690457
0.697008
0.703468
0.710656
0.718907
0.728065
0.737897
0.748378
0.759237
0.770448
0.781694
0.792404
0.801673
0.808189
0.812639
0.812494
0.807777
0.800985
0.791414
0.78035
0.768679
0.756932
0.74539
0.733984
0.722913
0.712136
0.701693
0.692309
0.683233
0.675058
0.666569
0.658969
0.652858
0.608511
0.501276
0.496181
0.608479
0.654942
0.663014
0.671344
0.678663
0.685273
0.691735
0.699262
0.70762
0.717012
0.727008
0.737515
0.748416
0.759585
0.770818
0.781557
0.790931
0.797586
0.802182
0.802075
0.797277
0.790397
0.780762
0.769706
0.758087
0.746447
0.734942
0.723671
0.712602
0.70192
0.691625
0.682229
0.67327
0.665161
0.656597
0.648762
0.642535
0.60065
0.493867
0.489817
0.5991
0.643741
0.651626
0.659508
0.666913
0.673635
0.68035
0.688038
0.696801
0.706318
0.716545
0.72712
0.738057
0.749221
0.760453
0.771245
0.780743
0.78756
0.79231
0.792238
0.787345
0.780356
0.770641
0.759575
0.748005
0.736429
0.724977
0.713766
0.702644
0.692104
0.681653
0.672462
0.663441
0.655306
0.646566
0.638497
0.632138
0.592037
0.4864
0.48418
0.590876
0.633444
0.641168
0.648909
0.656425
0.663249
0.670154
0.678178
0.686961
0.696735
0.706901
0.717514
0.728375
0.73949
0.750688
0.761518
0.771144
0.778137
0.783047
0.783005
0.778003
0.770886
0.76109
0.750033
0.738548
0.72708
0.715777
0.704641
0.693715
0.68317
0.672923
0.663712
0.654718
0.646496
0.637612
0.629275
0.622768
0.58497
0.480056
0.478678
0.582817
0.623302
0.630669
0.638223
0.645886
0.65297
0.660166
0.668545
0.677487
0.687441
0.697668
0.708305
0.719141
0.730211
0.741382
0.752255
0.762017
0.769204
0.774278
0.774259
0.769132
0.761863
0.751975
0.740927
0.729526
0.718173
0.706967
0.695942
0.685049
0.674608
0.664336
0.655149
0.646061
0.637675
0.628529
0.619928
0.613345
0.5773
0.473848
0.474172
0.575241
0.613293
0.62016
0.62791
0.635808
0.643369
0.650874
0.659698
0.668841
0.678958
0.689262
0.699903
0.710685
0.721638
0.732677
0.743465
0.753245
0.760548
0.765755
0.765751
0.76052
0.753168
0.743302
0.732387
0.721173
0.710004
0.698917
0.687998
0.677114
0.666744
0.656431
0.647184
0.637944
0.629292
0.619867
0.610998
0.604388
0.5705
0.46906
0.469557
0.567669
0.602772
0.609022
0.616842
0.625133
0.633105
0.641239
0.650398
0.659941
0.67029
0.680822
0.69163
0.702523
0.713508
0.724548
0.735345
0.745195
0.75265
0.758003
0.758009
0.752648
0.745169
0.735268
0.72439
0.713231
0.702097
0.690974
0.679978
0.668965
0.658498
0.647997
0.638606
0.629088
0.620162
0.610493
0.601468
0.595
0.563174
0.463934
0.466759
0.560586
0.592766
0.598135
0.606137
0.61491
0.623465
0.632322
0.641861
0.651965
0.662651
0.67365
0.684905
0.696278
0.707689
0.719011
0.72993
0.739828
0.747284
0.752563
0.752571
0.747294
0.739831
0.72991
0.718949
0.707555
0.696049
0.684518
0.673145
0.661804
0.651069
0.640299
0.630628
0.620829
0.611608
0.601764
0.592684
0.586735
0.557266
0.462167
0.471572
0.557941
0.587786
0.591551
0.599294
0.608243
0.617004
0.626211
0.635873
0.646277
0.657052
0.668322
0.67981
0.691538
0.703394
0.714827
0.725767
0.73574
0.743403
0.748957
0.748967
0.743418
0.735753
0.725767
0.714796
0.703313
0.691389
0.67954
0.667957
0.65642
0.645582
0.634681
0.624877
0.614999
0.605723
0.595973
0.587383
0.58307
0.554968
0.467448
0.455717
0.530372
0.559238
0.561265
0.566619
0.573651
0.580204
0.587856
0.595046
0.603732
0.611916
0.62105
0.629982
0.639236
0.648321
0.657156
0.665702
0.674011
0.681211
0.687345
0.687353
0.681226
0.674035
0.665732
0.657183
0.648333
0.639218
0.629897
0.620903
0.611583
0.60332
0.59429
0.586931
0.578836
0.571812
0.564125
0.5579
0.555146
0.526713
0.448628
0.391622
0.449296
0.468057
0.462568
0.464286
0.469691
0.474575
0.481073
0.487652
0.495528
0.50325
0.512065
0.520708
0.530161
0.539466
0.549215
0.558802
0.568036
0.575732
0.581414
0.581413
0.575733
0.568039
0.558807
0.549223
0.539477
0.530177
0.520727
0.512088
0.503271
0.495547
0.48766
0.481062
0.47454
0.469595
0.464118
0.462142
0.467507
0.448931
0.391001
0.391622
0.449296
0.468057
0.462568
0.464286
0.469691
0.474575
0.481073
0.487652
0.495528
0.50325
0.512065
0.520708
0.530161
0.539466
0.549215
0.558802
0.568036
0.575732
0.581414
0.581413
0.575733
0.568039
0.558807
0.549223
0.539477
0.530177
0.520727
0.512088
0.503271
0.495547
0.48766
0.481062
0.47454
0.469595
0.464118
0.462142
0.467507
0.448931
0.391001
0.455717
0.530372
0.559238
0.561265
0.566619
0.573651
0.580204
0.587856
0.595046
0.603732
0.611916
0.62105
0.629982
0.639236
0.648321
0.657156
0.665702
0.674011
0.681211
0.687345
0.687353
0.681226
0.674035
0.665732
0.657183
0.648333
0.639218
0.629897
0.620903
0.611583
0.60332
0.59429
0.586931
0.578836
0.571812
0.564125
0.5579
0.555146
0.526713
0.448628
0.471572
0.557941
0.587786
0.591551
0.599294
0.608243
0.617004
0.626211
0.635873
0.646277
0.657052
0.668322
0.67981
0.691538
0.703394
0.714827
0.725767
0.73574
0.743403
0.748957
0.748967
0.743418
0.735753
0.725767
0.714796
0.703313
0.691389
0.67954
0.667957
0.65642
0.645582
0.634681
0.624877
0.614999
0.605723
0.595973
0.587383
0.58307
0.554968
0.467448
0.466759
0.560586
0.592766
0.598135
0.606137
0.61491
0.623465
0.632322
0.641861
0.651965
0.662651
0.67365
0.684905
0.696278
0.707689
0.719011
0.72993
0.739828
0.747284
0.752563
0.752571
0.747294
0.739831
0.72991
0.718949
0.707555
0.696049
0.684518
0.673145
0.661804
0.651069
0.640299
0.630628
0.620829
0.611608
0.601764
0.592684
0.586735
0.557266
0.462167
0.469557
0.567669
0.602772
0.609022
0.616842
0.625133
0.633105
0.641239
0.650398
0.659941
0.67029
0.680822
0.69163
0.702523
0.713508
0.724548
0.735345
0.745195
0.75265
0.758003
0.758009
0.752648
0.745169
0.735268
0.72439
0.713231
0.702097
0.690974
0.679978
0.668965
0.658498
0.647997
0.638606
0.629088
0.620162
0.610493
0.601468
0.595
0.563174
0.463934
0.474172
0.575241
0.613293
0.62016
0.62791
0.635808
0.643369
0.650874
0.659698
0.668841
0.678958
0.689262
0.699903
0.710685
0.721638
0.732677
0.743465
0.753245
0.760548
0.765755
0.765751
0.76052
0.753168
0.743302
0.732387
0.721173
0.710004
0.698917
0.687998
0.677114
0.666744
0.656431
0.647184
0.637944
0.629292
0.619867
0.610998
0.604388
0.5705
0.46906
0.478678
0.582817
0.623302
0.630669
0.638223
0.645886
0.65297
0.660166
0.668545
0.677487
0.687441
0.697668
0.708305
0.719141
0.730211
0.741382
0.752255
0.762017
0.769204
0.774278
0.774259
0.769132
0.761863
0.751975
0.740927
0.729526
0.718173
0.706967
0.695942
0.685049
0.674608
0.664336
0.655149
0.646061
0.637675
0.628529
0.619928
0.613345
0.5773
0.473848
0.48418
0.590876
0.633444
0.641168
0.648909
0.656425
0.663249
0.670154
0.678178
0.686961
0.696735
0.706901
0.717514
0.728375
0.73949
0.750688
0.761518
0.771144
0.778137
0.783047
0.783005
0.778003
0.770886
0.76109
0.750033
0.738548
0.72708
0.715777
0.704641
0.693715
0.68317
0.672923
0.663712
0.654718
0.646496
0.637612
0.629275
0.622768
0.58497
0.480056
0.489817
0.5991
0.643741
0.651626
0.659508
0.666913
0.673635
0.68035
0.688038
0.696801
0.706318
0.716545
0.72712
0.738057
0.749221
0.760453
0.771245
0.780743
0.78756
0.79231
0.792238
0.787345
0.780356
0.770641
0.759575
0.748005
0.736429
0.724977
0.713766
0.702644
0.692104
0.681653
0.672462
0.663441
0.655306
0.646566
0.638497
0.632138
0.592037
0.4864
0.496181
0.608479
0.654942
0.663014
0.671344
0.678663
0.685273
0.691735
0.699262
0.70762
0.717012
0.727008
0.737515
0.748416
0.759585
0.770818
0.781557
0.790931
0.797586
0.802182
0.802075
0.797277
0.790397
0.780762
0.769706
0.758087
0.746447
0.734942
0.723671
0.712602
0.70192
0.691625
0.682229
0.67327
0.665161
0.656597
0.648762
0.642535
0.60065
0.493867
0.502078
0.617576
0.666157
0.674475
0.683188
0.690457
0.697008
0.703468
0.710656
0.718907
0.728065
0.737897
0.748378
0.759237
0.770448
0.781694
0.792404
0.801673
0.808189
0.812639
0.812494
0.807777
0.800985
0.791414
0.78035
0.768679
0.756932
0.74539
0.733984
0.722913
0.712136
0.701693
0.692309
0.683233
0.675058
0.666569
0.658969
0.652858
0.608511
0.501276
0.508182
0.627729
0.678224
0.686914
0.695741
0.702992
0.709471
0.715793
0.722762
0.730689
0.739532
0.749276
0.759581
0.770476
0.781689
0.792976
0.803664
0.812849
0.819245
0.823561
0.82338
0.818731
0.81201
0.802486
0.791413
0.779659
0.767853
0.756157
0.744784
0.733537
0.722779
0.712378
0.702807
0.693763
0.685561
0.677169
0.669847
0.663943
0.617526
0.509726
0.513506
0.637876
0.690374
0.699505
0.708279
0.715602
0.722081
0.728378
0.735088
0.742712
0.751357
0.760826
0.771117
0.781951
0.793222
0.804537
0.815224
0.82434
0.830639
0.834837
0.834622
0.83003
0.82336
0.81387
0.802768
0.790946
0.779007
0.767268
0.755699
0.744506
0.733579
0.723159
0.713536
0.704371
0.696068
0.687749
0.680737
0.675029
0.626108
0.518001
0.520008
0.649053
0.703281
0.712646
0.721144
0.728541
0.734973
0.7412
0.747681
0.755026
0.763348
0.772682
0.782825
0.793674
0.804968
0.816333
0.827024
0.836093
0.842315
0.846414
0.846171
0.841624
0.834989
0.825511
0.814373
0.802453
0.790415
0.778519
0.766916
0.755546
0.744627
0.734144
0.724393
0.715176
0.706762
0.698475
0.691799
0.68639
0.635107
0.527084
0.526174
0.660732
0.716978
0.726306
0.734367
0.741755
0.748062
0.754166
0.760421
0.767493
0.775578
0.784694
0.794766
0.80559
0.816932
0.828344
0.839055
0.848095
0.854261
0.858281
0.858019
0.853505
0.846889
0.837406
0.826213
0.814194
0.802019
0.790014
0.778254
0.766832
0.755781
0.745254
0.735406
0.726076
0.717491
0.709189
0.702863
0.697803
0.644024
0.536021
0.532225
0.673073
0.731769
0.740754
0.748276
0.755391
0.761351
0.767197
0.773208
0.780042
0.787886
0.796841
0.806815
0.817632
0.829012
0.840476
0.85121
0.86023
0.866353
0.870311
0.870037
0.865554
0.858952
0.849459
0.83821
0.82609
0.813793
0.801648
0.789781
0.778229
0.767101
0.756492
0.746535
0.737107
0.728317
0.719926
0.713907
0.709273
0.652983
0.545511
0.543932
0.686113
0.747539
0.756262
0.76317
0.769333
0.774657
0.780052
0.78575
0.79236
0.799996
0.80879
0.818672
0.829459
0.840857
0.852349
0.863088
0.872079
0.878156
0.88206
0.881784
0.877337
0.870765
0.861279
0.849999
0.837811
0.825424
0.813188
0.801227
0.789603
0.778398
0.767735
0.757705
0.748197
0.739207
0.730697
0.724862
0.720484
0.661772
0.554909
0.537809
0.696608
0.763994
0.773305
0.778727
0.783022
0.787409
0.792066
0.797371
0.803724
0.811145
0.819774
0.829528
0.840239
0.851598
0.863064
0.873763
0.882693
0.888706
0.892557
0.892285
0.887886
0.881369
0.871927
0.860665
0.84847
0.836062
0.823805
0.811833
0.800203
0.789005
0.778355
0.768331
0.758829
0.749727
0.74115
0.735343
0.731027
0.670318
0.564241
0.548492
0.700229
0.782805
0.791871
0.794406
0.795555
0.798521
0.802314
0.807129
0.813173
0.820375
0.828823
0.838415
0.848996
0.860257
0.87164
0.882255
0.891097
0.897035
0.900831
0.900568
0.896223
0.889777
0.880407
0.869207
0.857061
0.8447
0.832501
0.820602
0.809062
0.797968
0.787439
0.777542
0.768179
0.759123
0.750615
0.744778
0.740613
0.678721
0.573202
0.622073
0.702418
0.798206
0.814289
0.808517
0.805406
0.806338
0.80958
0.813733
0.819527
0.82656
0.83485
0.84429
0.854739
0.86589
0.877176
0.887699
0.896454
0.902322
0.90607
0.905812
0.901515
0.895133
0.885835
0.874707
0.862628
0.850339
0.838222
0.826422
0.814999
0.804037
0.793657
0.783923
0.774747
0.765818
0.757458
0.751528
0.747641
0.685653
0.579911
)
;

boundaryField
{
    inlet
    {
        type            fixedValue;
        value           uniform 1;
    }
    outlet
    {
        type            zeroGradient;
    }
    obstacle
    {
        type            zeroGradient;
    }
    empty
    {
        type            empty;
    }
}


// ************************************************************************* //
