/*--------------------------------*- C++ -*----------------------------------*\
| =========                 |                                                 |
| \\      /  F ield         | OpenFOAM: The Open Source CFD Toolbox           |
|  \\    /   O peration     | Version:  v1912                                 |
|   \\  /    A nd           | Website:  www.openfoam.com                      |
|    \\/     M anipulation  |                                                 |
\*---------------------------------------------------------------------------*/
FoamFile
{
    version     2.0;
    format      ascii;
    class       volVectorField;
    location    "9.12";
    object      grad(rho);
}
// * * * * * * * * * * * * * * * * * * * * * * * * * * * * * * * * * * * * * //

dimensions      [1 -4 0 0 0 0 0];


internalField   nonuniform List<vector> 
1900
(
(-56897.5 -0.180164 0)
(31944.2 0.0226875 0)
(4674.84 0.0666863 0)
(4971.61 0.946835 0)
(4011.54 0.139549 0)
(916.626 -0.609438 0)
(-949.545 1.44528 0)
(-1579.17 -0.731817 0)
(-1633.05 8.24151 0)
(-250.263 46.5679 0)
(-56897.7 -0.320239 0)
(31944.5 0.0365694 0)
(4675.76 0.151581 0)
(4971.68 1.90198 0)
(4009.98 1.22518 0)
(917.932 1.23621 0)
(-949.668 3.35369 0)
(-1572.37 -16.049 0)
(-1585.75 -81.7912 0)
(-1360.16 -21.971 0)
(-56897.8 3.73035e-10 0)
(31944.7 2.62901e-09 0)
(4676.7 2.98428e-09 0)
(4972.68 5.24025e-09 0)
(4010.88 5.79092e-09 0)
(918.755 2.46914e-09 0)
(-966.831 -3.09086e-09 0)
(-1664.31 4.9738e-10 0)
(-1638.97 1.42109e-09 0)
(-1457.73 1.06581e-09 0)
(-56897.7 0.320239 0)
(31944.5 -0.0365694 0)
(4675.76 -0.151581 0)
(4971.68 -1.90198 0)
(4009.98 -1.22518 0)
(917.932 -1.23621 0)
(-949.668 -3.35369 0)
(-1572.37 16.049 0)
(-1585.75 81.7912 0)
(-1360.16 21.971 0)
(-56897.5 0.180164 0)
(31944.2 -0.0226875 0)
(4674.84 -0.0666863 0)
(4971.61 -0.946835 0)
(4011.54 -0.139549 0)
(916.626 0.609438 0)
(-949.545 -1.44528 0)
(-1579.17 0.731817 0)
(-1633.05 -8.24151 0)
(-250.263 -46.5679 0)
(-602.743 -936.983 1.24134e-11)
(-2680.15 -764.264 -1.4617e-11)
(-3872.14 -814.966 -1.82958e-11)
(-4239.23 -922.579 0)
(-25753.6 -7436.75 -7.53195e-11)
(-1349.41 -1113.89 1.22441e-11)
(-2016.07 -916.54 1.4617e-11)
(-3577.6 -827.347 1.82958e-11)
(-6618.83 -417.797 0)
(-24026.6 -6106.75 0)
(-1752.42 9.17141e-10 0)
(-2049.67 2.18149e-09 0)
(-3356.44 5.42776e-10 0)
(-6405.79 1.44665e-09 0)
(-26316 -2.06184e-09 0)
(-1349.41 1113.89 1.22441e-11)
(-2016.07 916.54 1.4617e-11)
(-3577.6 827.347 1.82958e-11)
(-6618.83 417.797 0)
(-24026.6 6106.75 0)
(-602.743 936.983 -3.69017e-11)
(-2680.15 764.264 -1.4617e-11)
(-3872.14 814.966 -1.82958e-11)
(-4239.23 922.579 -4.85885e-11)
(-25753.6 7436.75 7.53195e-11)
(-43138.7 14524.2 1.73376e-11)
(-15528.1 6262.41 -9.92525e-12)
(-7844.7 3079.27 0)
(-5778.1 2117.17 4.90824e-12)
(-1714.26 1408.7 -1.73284e-12)
(-38649.7 18822.6 -8.8875e-12)
(-18021.3 5449.39 5.05693e-12)
(-8856.17 1874.23 0)
(-6228.22 1247.95 -3.1169e-12)
(-3483.51 415.069 4.46941e-13)
(-40207.8 -1.61487e-09 0)
(-19852.1 -9.10952e-10 0)
(-9171.1 1.13489e-09 0)
(-6412.97 -2.90254e-10 1.26179e-12)
(-3516.87 8.31044e-10 -8.93882e-13)
(-38649.7 -18822.6 -8.8875e-12)
(-18021.3 -5449.39 5.05693e-12)
(-8856.17 -1874.23 0)
(-6228.22 -1247.95 -3.1169e-12)
(-3483.51 -415.069 4.46941e-13)
(-43138.7 -14524.2 8.8875e-12)
(-15528.1 -6262.41 -1.88603e-13)
(-7844.7 -3079.27 0)
(-5778.1 -2117.17 6.37623e-14)
(-1714.26 -1408.7 1.73284e-12)
(2005.74 -8963.33 0)
(1300.44 -7537.01 0)
(513.03 -5094.64 0)
(45.0888 -4922.53 0)
(-251.617 -4925.61 0)
(-492.767 -4954.41 0)
(-722.351 -4796.97 0)
(-823.194 -4580.41 0)
(-868.661 -4334.95 0)
(-790.522 -4010.71 0)
(-675.554 -3487.53 0)
(-838.278 -3035.52 0)
(-957.553 -2515.83 0)
(-416.708 -1980.85 0)
(935.386 -1839.9 0)
(3383.27 -1764.46 0)
(3328.63 -2305.04 0)
(868.708 -2249.89 0)
(-133.155 -2035.43 0)
(-482.711 -1590.79 0)
(-662.496 -1063.72 0)
(-589.907 -585.216 0)
(-423.792 -129.093 0)
(-273.776 206.492 0)
(-271.36 -39.2467 0)
(-441.164 -318.621 0)
(2852.94 -365.249 0)
(5500.15 -344.623 0)
(-656.891 -215.139 0)
(-6856.08 84.8155 0)
(-4415.49 136.865 0)
(-419.488 43.4412 0)
(389.822 28.9993 0)
(490.758 24.0692 0)
(630.348 21.4931 0)
(771.383 19.9962 0)
(851.002 17.8567 0)
(894.059 17.5936 0)
(908.791 15.4205 0)
(902.896 14.2173 0)
(343.277 -3370.57 0)
(1556.95 -5042.69 0)
(814.786 -3310.35 0)
(-123.194 -3238.6 0)
(-334.92 -3237.47 0)
(-486.398 -3221.67 0)
(-603.467 -2981.5 0)
(-670.589 -2647.73 0)
(-726.381 -2367.46 0)
(-640.964 -2125.18 0)
(-537.834 -1802.29 0)
(-704.89 -1590.62 0)
(-810.969 -1264.82 0)
(-335.263 -984.735 0)
(957.169 -935.951 0)
(3319.95 -908.26 0)
(3273.91 -1200.7 0)
(914.015 -1112.3 0)
(-58.423 -1013.26 0)
(-367.055 -835.962 0)
(-535.749 -574.608 0)
(-472.098 -325.369 0)
(-297.032 -57.0688 0)
(-242.35 75.9973 0)
(-307.49 -86.6104 0)
(-435.05 31.11 0)
(2883.88 93.2927 0)
(5475.13 281.594 0)
(-693.105 95.2626 0)
(-6840.83 83.3708 0)
(-4423.06 58.9867 0)
(-429.723 19.9524 0)
(387.865 13.8905 0)
(489.945 10.8514 0)
(630.55 8.86672 0)
(772.132 7.9108 0)
(851.872 6.2667 0)
(894.55 6.51398 0)
(908.387 6.26822 0)
(898.047 6.63891 0)
(186.136 4.11792e-10 0)
(1317.96 1.06581e-09 0)
(1037.86 2.03474e-09 0)
(66.2906 3.28626e-09 0)
(-246.692 4.41667e-09 0)
(-418.303 3.27011e-09 0)
(-555.387 2.93099e-09 0)
(-644.563 3.47197e-09 0)
(-716.647 1.26767e-09 0)
(-626.109 4.84461e-11 0)
(-520.046 1.55835e-09 0)
(-681.924 2.44653e-09 0)
(-781.295 3.56079e-09 0)
(-321.036 1.42109e-09 0)
(957.633 1.91362e-09 0)
(3306.26 1.93784e-09 0)
(3269.27 3.83532e-09 0)
(923.235 1.40494e-09 0)
(-52.7671 -2.35771e-09 0)
(-355.102 -4.76387e-09 0)
(-513.96 -2.16393e-09 0)
(-439.35 3.57774e-08 0)
(-307.031 -1.17345e-07 0)
(-282.37 -2.36142e-07 0)
(-284.418 -1.67946e-08 0)
(-388.828 -4.31978e-09 0)
(2925.81 -2.00405e-08 0)
(5500.72 -2.98266e-08 0)
(-714.556 1.12233e-08 0)
(-6866.63 -3.53656e-09 0)
(-4433.94 -1.1724e-08 0)
(-432.607 -3.47197e-10 0)
(387.174 6.70171e-10 0)
(489.297 -3.39123e-10 0)
(629.492 -2.95521e-09 0)
(770.626 -3.42352e-09 0)
(850.596 -1.97822e-09 0)
(894.06 -2.82602e-10 0)
(908.827 1.58257e-09 0)
(904.289 2.93099e-09 0)
(343.277 3370.57 0)
(1556.95 5042.69 0)
(814.786 3310.35 0)
(-123.194 3238.6 0)
(-334.92 3237.47 0)
(-486.398 3221.67 0)
(-603.467 2981.5 0)
(-670.589 2647.73 0)
(-726.381 2367.46 0)
(-640.964 2125.18 0)
(-537.834 1802.29 0)
(-704.89 1590.62 0)
(-810.969 1264.82 0)
(-335.263 984.735 0)
(957.169 935.951 0)
(3319.95 908.26 0)
(3273.91 1200.7 0)
(914.015 1112.3 0)
(-58.423 1013.26 0)
(-367.055 835.962 0)
(-535.749 574.608 0)
(-472.098 325.369 0)
(-297.032 57.0688 0)
(-242.35 -75.9973 0)
(-307.49 86.6104 0)
(-435.05 -31.11 0)
(2883.88 -93.2927 0)
(5475.13 -281.594 0)
(-693.105 -95.2626 0)
(-6840.83 -83.3708 0)
(-4423.06 -58.9867 0)
(-429.723 -19.9524 0)
(387.865 -13.8905 0)
(489.945 -10.8514 0)
(630.55 -8.86672 0)
(772.132 -7.9108 0)
(851.872 -6.2667 0)
(894.55 -6.51398 0)
(908.387 -6.26822 0)
(898.047 -6.63891 0)
(2005.74 8963.33 0)
(1300.44 7537.01 0)
(513.03 5094.64 0)
(45.0888 4922.53 0)
(-251.617 4925.61 0)
(-492.767 4954.41 0)
(-722.351 4796.97 0)
(-823.194 4580.41 0)
(-868.661 4334.95 0)
(-790.522 4010.71 0)
(-675.554 3487.53 0)
(-838.278 3035.52 0)
(-957.553 2515.83 0)
(-416.708 1980.85 0)
(935.386 1839.9 0)
(3383.27 1764.46 0)
(3328.63 2305.04 0)
(868.708 2249.89 0)
(-133.155 2035.43 0)
(-482.711 1590.79 0)
(-662.496 1063.72 0)
(-589.907 585.216 0)
(-423.792 129.093 0)
(-273.776 -206.492 0)
(-271.36 39.2467 0)
(-441.164 318.621 0)
(2852.94 365.249 0)
(5500.15 344.623 0)
(-656.891 215.139 0)
(-6856.08 -84.8155 0)
(-4415.49 -136.865 0)
(-419.488 -43.4412 0)
(389.822 -28.9993 0)
(490.758 -24.0692 0)
(630.348 -21.4931 0)
(771.383 -19.9962 0)
(851.002 -17.8567 0)
(894.059 -17.5936 0)
(908.791 -15.4205 0)
(902.896 -14.2173 0)
(-471.137 9535.56 0)
(-573.181 6971.56 0)
(-476.302 5333.71 0)
(-423.793 4131.45 0)
(-411.246 3548.07 0)
(-559.733 3220.89 0)
(-700.601 3137.91 0)
(-783.945 3253.47 0)
(-919.232 3329.56 0)
(-999.602 3321.74 0)
(-990.306 3140.74 0)
(-1160.19 2869.59 0)
(-1303.04 2584.34 0)
(-665.084 2160.92 0)
(846.62 2034.62 0)
(3538.5 1981.01 0)
(3515.14 2371.51 0)
(797.28 2380.74 0)
(-385.448 2173.3 0)
(-842.854 1690.39 0)
(-1019.97 1112.02 0)
(-922.149 563.575 0)
(-647.082 163.298 0)
(-262.372 -39.6948 0)
(-19.8755 -137.885 0)
(-223.489 -92.9788 0)
(2935.96 -5.21204 0)
(5352.04 140.029 0)
(-1004.35 -239.778 0)
(-7044 -452.816 0)
(-4405.86 -237.912 0)
(-373.897 -57.59 0)
(397.753 -37.5941 0)
(493.713 -35.4234 0)
(633.34 -32.5808 0)
(775.278 -25.527 0)
(854.385 -17.164 0)
(896.645 -11.1726 0)
(910.038 -6.69184 0)
(902.688 -8.03105 0)
(-1976.14 4557.52 0)
(-1743.92 3951.19 0)
(-1693.29 3466.2 0)
(-1424.19 3167.02 0)
(-1043.47 2715.01 0)
(-852.099 2266.47 0)
(-702.613 1957.71 0)
(-659.564 1778.5 0)
(-775.757 1677.02 0)
(-860.358 1717.47 0)
(-942.482 1806.44 0)
(-1201.83 1817.8 0)
(-1455.2 1920.78 0)
(-813.255 1828.54 0)
(809.62 1631.35 0)
(3624.67 1637.76 0)
(3613.81 1901.62 0)
(716.006 1914.22 0)
(-663.114 1806.31 0)
(-1312.28 1480.79 0)
(-1556.65 939.884 0)
(-1325.97 429.33 0)
(-885.39 207.898 0)
(-570.121 45.4195 0)
(-457.561 -211.903 0)
(-430.04 -478.468 0)
(3032.96 -450.024 0)
(5353.53 -326.972 0)
(-1041.86 -836.631 0)
(-6753.51 -934.625 0)
(-4039.8 -293.883 0)
(-250.902 -28.2846 0)
(406.93 -21.0838 0)
(494.004 -35.1413 0)
(638.28 -39.4871 0)
(784.15 -35.1819 0)
(863.021 -23.3416 0)
(902.764 -11.8783 0)
(911.149 -6.52522 0)
(910.915 -8.9589 0)
(-1735.84 1241.92 0)
(-1624.82 1438.83 0)
(-1231.95 1414.54 0)
(-1147.66 1375.07 0)
(-1279.05 1253.12 0)
(-1289.5 1062.49 0)
(-1170.83 856.514 0)
(-1054.43 583.149 0)
(-978.043 341.924 0)
(-874.884 264.3 0)
(-893.624 234.706 0)
(-1050 175.112 0)
(-1292.7 459.729 0)
(-943.993 988.292 0)
(662.777 1094.73 0)
(3798.94 1344.01 0)
(3781.56 927.87 0)
(705.432 601.567 0)
(-803.117 556.47 0)
(-1677.77 378.235 0)
(-2033.19 74.611 0)
(-1627.52 -62.0881 0)
(-1017.03 -69.8627 0)
(-666.907 -110.885 0)
(-524.713 -126.369 0)
(-452.951 -158.295 0)
(3081.95 0.132928 0)
(4979.49 136.528 0)
(-1589.91 -597.38 0)
(-6520.98 -914.026 0)
(-3532.48 -159.502 0)
(-111.018 119.72 0)
(391.146 109.095 0)
(475.979 62.3612 0)
(633.301 5.87619 0)
(790.837 -26.4121 0)
(876.841 -25.8372 0)
(912.85 -14.5913 0)
(912.851 -8.42036 0)
(916.047 -8.83459 0)
(-1309.02 16.2074 0)
(-1577.58 233.498 0)
(-1754.74 224.797 0)
(-1579.74 75.1917 0)
(-1344.68 8.43365 0)
(-1234.28 1.5484 0)
(-1164.53 51.4161 0)
(-1155.44 -88.8251 0)
(-1083.01 -300.135 0)
(-963.676 -385.916 0)
(-1028.43 -625.083 0)
(-984.986 -728.753 0)
(-671.586 -314.453 0)
(-201.343 359.25 0)
(1152.4 812.061 0)
(3463.88 1441.94 0)
(2898.36 145.914 0)
(358.112 -484.567 0)
(-878.325 -517.999 0)
(-1776.61 -655.306 0)
(-1980.96 -751.316 0)
(-1465.19 -573.609 0)
(-932.412 -430.478 0)
(-624.573 -359.983 0)
(-503.247 -281.835 0)
(-308.138 -270.977 0)
(3317.06 350.406 0)
(4777.74 857.617 0)
(-2054.21 244.622 0)
(-6331.55 -242.487 0)
(-3043.65 552.17 0)
(7.92848 664.955 0)
(351.657 488.24 0)
(394.539 304.091 0)
(552.734 179.676 0)
(753.59 90.8137 0)
(874.412 11.4744 0)
(919.548 -17.6938 0)
(916.696 -13.4226 0)
(919.943 -11.9308 0)
(-1390.48 -397.297 0)
(-1423.82 -365.311 0)
(-1384.5 -108.463 0)
(-1356.16 123.362 0)
(-1350.01 133.764 0)
(-1248.08 110.208 0)
(-1257.92 89.6973 0)
(-1393.19 23.5511 0)
(-1264.33 20.6277 0)
(-1188.02 -44.5779 0)
(-1223.99 -420.079 0)
(-750.667 -255.699 0)
(-244.257 222.263 0)
(141.557 583.534 0)
(1706.1 1025.29 0)
(3157.02 1429.19 0)
(1925.1 -85.4985 0)
(65.661 -564.447 0)
(-967.647 -661.504 0)
(-1902.6 -913.526 0)
(-1954.47 -941.623 0)
(-1318.35 -655.932 0)
(-811.174 -475.249 0)
(-523.67 -349.98 0)
(-438.944 -61.3671 0)
(156.299 61.4565 0)
(4169.5 1988.25 0)
(4877.56 3491.96 0)
(-2650.01 1645.47 0)
(-6224.62 917.92 0)
(-2658.04 1929.52 0)
(-172.624 1865.87 0)
(43.4035 1470.46 0)
(178.636 1033.12 0)
(427.779 661.398 0)
(628.751 363.683 0)
(772.279 175.005 0)
(888.858 47.6167 0)
(918.405 -4.88707 0)
(927.723 -15.5526 0)
(-1331.85 -590.254 0)
(-1299.25 -498.862 0)
(-1283.83 -351.325 0)
(-1346.32 -271.613 0)
(-1357.35 -223.743 0)
(-1276.74 -173.454 0)
(-1248.03 -230.214 0)
(-1222 -195.584 0)
(-1148.66 -21.0989 0)
(-1388.36 -79.9481 0)
(-1231.87 -146.079 0)
(-366.002 234.431 0)
(137.129 359.318 0)
(572.487 516.489 0)
(1967.3 862.663 0)
(2393.48 545.847 0)
(977.223 -662.092 0)
(-196.948 -937.866 0)
(-1214.71 -1226.98 0)
(-2046.55 -1485.04 0)
(-1732.73 -1155.09 0)
(-1015.77 -678.205 0)
(-637.586 -181.143 0)
(-225.741 222.416 0)
(-106.771 695.303 0)
(1666.95 1856.12 0)
(6622.82 5333.35 0)
(4447.42 5110.21 0)
(-4534.65 1112.97 0)
(-6057.83 819.658 0)
(-2130.17 2390.58 0)
(-434.441 2443.09 0)
(-450.811 2241.09 0)
(-385.102 1914.44 0)
(-92.359 1475.43 0)
(284.884 996.958 0)
(569.839 567.53 0)
(746.198 252.321 0)
(855.824 52.9695 0)
(926.525 -20.1294 0)
(-1260.28 -674.353 0)
(-1193.57 -586.146 0)
(-1165.52 -493.148 0)
(-1233.22 -391.658 0)
(-1255.42 -272.468 0)
(-1254.32 -183.181 0)
(-1279.24 -176.91 0)
(-1191.68 -162.88 0)
(-1152.9 -119.871 0)
(-1308.45 -180.153 0)
(-921.047 57.722 0)
(-263.648 291.518 0)
(27.5442 225.222 0)
(626.599 333.805 0)
(1734.39 492.848 0)
(1687.71 -522.152 0)
(495.344 -1299.35 0)
(-478.689 -1517.71 0)
(-1494.92 -1995.98 0)
(-1833.32 -1849.48 0)
(-1176.98 -640.808 0)
(-379.82 21.0942 0)
(56.6981 946.718 0)
(320.906 2445.02 0)
(1135.36 3235.98 0)
(4625.69 4461.59 0)
(7305.26 6078.47 0)
(810.643 2035.58 0)
(-6784.54 -1274.47 0)
(-4993.46 -177.983 0)
(-1093.64 1452.54 0)
(-316.681 1663.72 0)
(-466.025 1775.02 0)
(-559.176 1837.64 0)
(-456.342 1777.5 0)
(-246.137 1553.77 0)
(54.7207 1137.02 0)
(393.009 663.184 0)
(655.861 248.795 0)
(873.668 -29.0275 0)
(-1192.64 -753.108 0)
(-1124.63 -659.397 0)
(-1096.42 -605.561 0)
(-1133.66 -543.732 0)
(-1156.46 -441.697 0)
(-1184.66 -382.586 0)
(-1228.47 -356.012 0)
(-1167.03 -298.948 0)
(-1165.31 -272.442 0)
(-1217.22 -263.332 0)
(-777.352 55.7128 0)
(-204.593 216.457 0)
(177.878 275.578 0)
(830.382 336.79 0)
(1142.47 43.4176 0)
(666.455 -920.316 0)
(17.8683 -1485.55 0)
(-868.244 -1984.3 0)
(-1534.41 -1715.97 0)
(-740.658 -402.349 0)
(69.8178 1011.23 0)
(514.023 2703.47 0)
(1698.2 3876.34 0)
(1980.28 4365.17 0)
(1836.47 4269.98 0)
(4406.07 4217 0)
(4285.02 2682.53 0)
(-2638.13 -1812.3 0)
(-6667.71 -2724.88 0)
(-3429.99 -311.992 0)
(-355.437 605.297 0)
(-123.68 780.649 0)
(-283.21 936.284 0)
(-382.717 1111.76 0)
(-365.913 1267.75 0)
(-332.309 1346.48 0)
(-288.36 1324.95 0)
(-109.724 1061.53 0)
(188.784 549.146 0)
(631.882 -36.0238 0)
(-1089.07 -935.922 0)
(-1051.39 -804.324 0)
(-1054.06 -738.801 0)
(-1075.31 -699.999 0)
(-1100.14 -683.46 0)
(-1171.75 -708.091 0)
(-1198.65 -700.904 0)
(-1111.15 -622.997 0)
(-1118.58 -574.716 0)
(-992.229 -416.649 0)
(-458.705 -27.8278 0)
(-51.7777 207.058 0)
(143.502 262.522 0)
(402.881 191.594 0)
(522.997 -338.604 0)
(214.336 -730.788 0)
(-529.948 -881.704 0)
(-700.723 -443.982 0)
(29.5037 978.158 0)
(794.707 2847.8 0)
(1815.91 3914.36 0)
(2381.1 4764.52 0)
(1657.97 4630.38 0)
(700.235 3152.99 0)
(992.571 1937.86 0)
(3095.96 1450.37 0)
(1495.21 -615.853 0)
(-4400.13 -3516.31 0)
(-5338.79 -2673.85 0)
(-1784.39 -92.2992 0)
(-40.7274 266.375 0)
(2.27021 328.925 0)
(-146.955 416.593 0)
(-239.763 518.239 0)
(-230.156 617.774 0)
(-191.019 713.869 0)
(-219.863 839.041 0)
(-354.582 919.667 0)
(-401.786 647.751 0)
(142.581 -10.6135 0)
(-913.555 -1204.59 0)
(-934.677 -1130.53 0)
(-995.887 -1134.33 0)
(-1080.34 -1158.24 0)
(-1164.25 -1181.4 0)
(-1201.47 -1156.11 0)
(-1146.47 -941.315 0)
(-1045.44 -576.883 0)
(-966.462 -280.885 0)
(-690.22 250.349 0)
(-176.326 688.717 0)
(75.1989 828.876 0)
(162.976 939.22 0)
(251.115 1145.84 0)
(253.633 1186.42 0)
(143.104 1316.37 0)
(294.245 1709 0)
(923.987 2757.99 0)
(1637.67 3858.64 0)
(2088.77 4455.18 0)
(1916.84 4430.31 0)
(1204.01 3189.56 0)
(145.264 1811.39 0)
(-614.332 835.366 0)
(195.765 162.367 0)
(1945.22 -553.528 0)
(-501.054 -2829.58 0)
(-4621.29 -4054.76 0)
(-3368.21 -1643.58 0)
(-596.681 54.9376 0)
(50.4701 200.867 0)
(21.0756 207.99 0)
(-100.78 234.966 0)
(-188.853 260.188 0)
(-177.396 260.553 0)
(-119.088 257.778 0)
(-90.0453 257.569 0)
(-294.058 344.267 0)
(-707.669 363.133 0)
(-416.487 -46.5542 0)
(-917.641 -1517.24 0)
(-983.692 -1583.24 0)
(-1080.76 -1616.2 0)
(-1120.66 -1456.61 0)
(-1098.09 -975.144 0)
(-940.393 -326.286 0)
(-640.48 326.647 0)
(-474.738 1000.09 0)
(-321.428 1845.59 0)
(-57.8854 2704.93 0)
(98.7846 3160.48 0)
(189.616 3279.61 0)
(448.944 3537.32 0)
(641.088 3486.22 0)
(687.32 3343.32 0)
(717.916 3235.2 0)
(859.248 3414.16 0)
(1370.75 3619.99 0)
(1664.98 3444.44 0)
(1345.59 2765.72 0)
(596.309 1838.27 0)
(-142.578 909.15 0)
(-610.612 114.333 0)
(-888.827 -309.828 0)
(-345.817 -639.915 0)
(212.808 -1874.64 0)
(-1878.71 -4333.61 0)
(-3257.26 -3353.2 0)
(-1378.53 -614.601 0)
(-7.00497 123.652 0)
(106.759 195.454 0)
(35.1285 203.853 0)
(-96.6549 219.466 0)
(-215.106 236.908 0)
(-232.479 214.652 0)
(-193.895 168.282 0)
(-136.519 51.8756 0)
(-252.857 -45.2552 0)
(-778.395 -39.8136 0)
(-756.963 -182.35 0)
(-1040.68 -1892.94 0)
(-1030.04 -1697.7 0)
(-873.865 -1146.95 0)
(-462.587 -281.436 0)
(-75.031 614.847 0)
(52.9824 1565.76 0)
(131.678 2361.99 0)
(418.271 2875.27 0)
(676.378 3378.08 0)
(576.86 3577.83 0)
(377.459 3567.13 0)
(438.331 3509.03 0)
(362.076 3463.67 0)
(64.1757 3056.5 0)
(11.7329 2700.91 0)
(211.363 2370 0)
(665.05 2378.24 0)
(953.167 2091.96 0)
(814.458 1553.93 0)
(541.009 899.353 0)
(127.785 355.44 0)
(-457.242 -10.8439 0)
(-1029.39 -423.403 0)
(-1341.15 -905.15 0)
(-1312.14 -1804.78 0)
(-1614.16 -3527.81 0)
(-1925.85 -4271.61 0)
(-1037.52 -1976.42 0)
(-17.7875 -210.701 0)
(183.917 45.6976 0)
(127.754 70.7339 0)
(44.215 84.4884 0)
(-68.9266 111.807 0)
(-193.492 165.237 0)
(-243.526 193.672 0)
(-275.945 173.959 0)
(-295.818 39.5997 0)
(-382.413 -166.328 0)
(-839.779 -298.74 0)
(-831.761 -278.724 0)
(-495.4 -2373.95 0)
(-264.824 -1373.44 0)
(283.997 -218.697 0)
(577.068 688.435 0)
(681.937 928.179 0)
(743.216 853.919 0)
(621.408 827.924 0)
(504.405 802.572 0)
(355.588 610.685 0)
(124.286 353.237 0)
(32.4872 301.924 0)
(89.9231 566.533 0)
(12.8699 874.427 0)
(-93.9329 1113.99 0)
(25.7791 1290.48 0)
(406.977 1297.3 0)
(591.319 1331.09 0)
(576.41 1098.37 0)
(515.744 783.029 0)
(190.678 355.257 0)
(-280.79 -163.773 0)
(-893.099 -626.951 0)
(-1472.4 -1130.24 0)
(-2219.97 -2002.62 0)
(-2873.1 -3365.31 0)
(-2164.32 -4060.05 0)
(-383.737 -2778.8 0)
(655.975 -963.808 0)
(570.052 -227.448 0)
(264.196 -120.897 0)
(144.139 -115.906 0)
(74.7082 -85.5357 0)
(-18.843 -35.5377 0)
(-136.219 31.4764 0)
(-224.074 95.5045 0)
(-342.364 87.1269 0)
(-464.431 4.11996 0)
(-578.894 -169.112 0)
(-886.704 -335.316 0)
(-751.897 -263.54 0)
(679.25 -2536.97 0)
(1046.84 -1396.3 0)
(1113.03 -694.635 0)
(642.584 -621.551 0)
(84.4352 -785.314 0)
(-43.6265 -1111.78 0)
(82.1992 -1383.24 0)
(208.931 -1496.44 0)
(243.382 -1555.01 0)
(279.327 -1343.37 0)
(582.998 -792.669 0)
(990.015 -168.722 0)
(889.63 330.12 0)
(465.104 761.194 0)
(188.369 1068.45 0)
(250.489 1200.32 0)
(473.352 945.88 0)
(425.039 743.543 0)
(98.3715 282.859 0)
(-371.364 -227.994 0)
(-818.707 -816.433 0)
(-1388.57 -1463.81 0)
(-2355.03 -2334.45 0)
(-3494.95 -3463.25 0)
(-3294.76 -3668.87 0)
(-1048.97 -2462.16 0)
(1057.8 -1274.91 0)
(1421.05 -586.06 0)
(794.473 -314.857 0)
(291.404 -223.539 0)
(161.829 -234.574 0)
(121.661 -217.899 0)
(43.8306 -165.654 0)
(-67.2146 -102.887 0)
(-189.9 -23.6789 0)
(-364.007 -5.62031 0)
(-542.739 -22.1955 0)
(-709.506 -116.012 0)
(-930.773 -240.898 0)
(-749.446 -177.527 0)
(1481.17 -1681.32 0)
(1510.52 -1471.56 0)
(1030.57 -1532.03 0)
(489.687 -1743.01 0)
(209.538 -1706.63 0)
(167.037 -1562.84 0)
(250.732 -1414.11 0)
(338.876 -1194.45 0)
(503.088 -898.304 0)
(858.907 -458.916 0)
(1164.42 21.4172 0)
(1171.88 269.23 0)
(908.971 280.231 0)
(617.545 435.374 0)
(448.938 626.806 0)
(288.868 768.215 0)
(151.151 522.253 0)
(-62.5002 63.7228 0)
(-420.465 -470.971 0)
(-868.64 -1022.53 0)
(-1471.67 -1699.51 0)
(-2355.91 -2654.32 0)
(-3399.13 -3609.95 0)
(-3505.87 -3509.49 0)
(-1908.42 -1919.28 0)
(142.594 -572.131 0)
(1424.14 -448.794 0)
(1581.11 -482.036 0)
(919.391 -375.76 0)
(341.559 -243.951 0)
(149.574 -258.869 0)
(141.123 -259.943 0)
(91.9866 -239.782 0)
(0.593613 -210.012 0)
(-130.345 -156.367 0)
(-340.935 -111.913 0)
(-570.808 -75.2001 0)
(-789.644 -105.029 0)
(-945.982 -167.172 0)
(-731.11 -98.2429 0)
(1433.5 -736.924 0)
(1190.7 -1223.1 0)
(851.454 -1611.24 0)
(474.339 -1762.46 0)
(258.059 -1725.54 0)
(238.254 -1608.26 0)
(437.196 -1400.1 0)
(705.98 -1148.78 0)
(952.166 -838.907 0)
(1165.6 -561.514 0)
(1284.67 -450.536 0)
(1239.42 -380.376 0)
(1049.73 -248.794 0)
(799.075 -21.6455 0)
(509.107 59.9835 0)
(149.738 -42.9777 0)
(-205.522 -295.636 0)
(-532.068 -749.983 0)
(-948.379 -1301.67 0)
(-1555.23 -2002.43 0)
(-2391.16 -2893.25 0)
(-3229.54 -3608.16 0)
(-3179.1 -3247.14 0)
(-1865.75 -1622.13 0)
(-464.213 -130.546 0)
(368.042 312.915 0)
(1144.62 -4.07799 0)
(1491.43 -392.042 0)
(1023.9 -373.369 0)
(404.045 -220.642 0)
(146.419 -220.942 0)
(140.053 -278.317 0)
(91.946 -348.51 0)
(13.1668 -374.279 0)
(-95.3676 -361.061 0)
(-285.791 -305.328 0)
(-536.105 -182.677 0)
(-798.134 -82.8928 0)
(-924.234 -29.009 0)
(-638.314 9.36776 0)
(554.307 -481.307 0)
(667.99 -982.069 0)
(510.827 -1327.14 0)
(379.545 -1496.24 0)
(358.13 -1515.52 0)
(480.649 -1396.65 0)
(693.5 -1231.4 0)
(879.659 -1147.46 0)
(1069 -1144.84 0)
(1233.16 -1199.05 0)
(1338.98 -1228.51 0)
(1366.29 -1180.62 0)
(1254.66 -1026.11 0)
(915.095 -891.481 0)
(428.382 -873.484 0)
(-53.8206 -977.409 0)
(-530.145 -1206.84 0)
(-1031.95 -1663.16 0)
(-1627.36 -2340.55 0)
(-2402.34 -3122.15 0)
(-3019.01 -3517.54 0)
(-2696.94 -2851.29 0)
(-1485.31 -1268.13 0)
(-502.609 84.6548 0)
(-43.7418 597.374 0)
(264.463 607.328 0)
(744.821 363.858 0)
(1225.25 -186.888 0)
(1084.56 -358.207 0)
(488.444 -207.801 0)
(93.9972 -150.029 0)
(18.1931 -270.518 0)
(-0.485764 -449.179 0)
(-11.5005 -548.344 0)
(-63.9017 -583.871 0)
(-169.038 -556.479 0)
(-356.461 -377.104 0)
(-641.563 -186.931 0)
(-857.077 1.14633 0)
(-718.769 59.2067 0)
(-278.897 -158.298 0)
(375.624 -446.571 0)
(355.985 -731.421 0)
(292.807 -881.116 0)
(354.025 -944.967 0)
(512.045 -958.947 0)
(677.32 -1086.17 0)
(789.387 -1232.17 0)
(902.451 -1430.8 0)
(1084.98 -1651.91 0)
(1302.43 -1815.05 0)
(1434.46 -1896.94 0)
(1328.36 -1928.32 0)
(946.148 -1952.3 0)
(426.303 -2036.45 0)
(-171.499 -2135.58 0)
(-866.334 -2422.82 0)
(-1624.55 -2911.82 0)
(-2354.32 -3368.12 0)
(-2689.42 -3288.76 0)
(-2130.15 -2318.09 0)
(-1061.93 -847.745 0)
(-349.911 250.526 0)
(-68.0856 678.658 0)
(39.4533 823.778 0)
(143.017 765.224 0)
(379.284 587.716 0)
(795.62 127.39 0)
(1003.75 -300.684 0)
(604.653 -379.266 0)
(85.9826 -292.065 0)
(-148.218 -349.861 0)
(-175.778 -538.317 0)
(-116.627 -691.611 0)
(-103.206 -789.621 0)
(-86.5431 -805.119 0)
(-179.995 -664.694 0)
(-433.638 -464.035 0)
(-687.047 -131.659 0)
(-634.489 19.6063 0)
(-395.911 -22.1335 0)
(115.708 -201.634 0)
(92.0839 -539.497 0)
(173.764 -650.188 0)
(283.129 -613.795 0)
(344.577 -652.851 0)
(430.208 -809.743 0)
(547.561 -999.425 0)
(664.531 -1137.28 0)
(862.883 -1246.03 0)
(1102.86 -1450.08 0)
(1257.13 -1895.61 0)
(1201.31 -2529.53 0)
(810.898 -3300.3 0)
(251.77 -4017.14 0)
(-426.137 -4483.62 0)
(-1278.16 -4524.19 0)
(-1942.88 -4121.53 0)
(-1990.59 -3239.37 0)
(-1390.49 -1898.06 0)
(-666.767 -489.138 0)
(-221.724 364.778 0)
(-14.4171 685.299 0)
(49.7975 797.877 0)
(39.6764 813.478 0)
(36.9859 803.12 0)
(130.181 692.851 0)
(369.157 417.265 0)
(596.326 -135.711 0)
(496.749 -627.518 0)
(122.332 -776.135 0)
(-219.104 -827.034 0)
(-329.808 -876.979 0)
(-253.666 -925.162 0)
(-173.282 -959.264 0)
(-48.6547 -941.416 0)
(-27.7803 -877.071 0)
(-127.912 -719.36 0)
(-391.022 -426.663 0)
(-436.593 134.138 0)
(-656.727 594.813 0)
(-122.927 589.612 0)
(-76.258 853.032 0)
(221.211 897.234 0)
(351.46 600.402 0)
(323.222 221.828 0)
(343.348 -167.469 0)
(473.757 -680.344 0)
(664.812 -1419.18 0)
(783.55 -2467.15 0)
(676.471 -3819.24 0)
(394.265 -5200.57 0)
(-25.2568 -6443.85 0)
(-487.363 -7133.84 0)
(-713.983 -7071.52 0)
(-660.113 -6365.26 0)
(-517.408 -5023.98 0)
(-386.441 -3168.71 0)
(-211.702 -1346.04 0)
(-39.1993 -101.01 0)
(50.3964 519.574 0)
(69.8024 762.81 0)
(67.4381 821.028 0)
(55.4321 817.32 0)
(44.5057 820.366 0)
(26.7768 837.961 0)
(7.45977 841.954 0)
(-2.8123 722.581 0)
(-3.04382 361.13 0)
(-12.483 -185.029 0)
(-106.278 -648.092 0)
(-245.395 -840.026 0)
(-270.338 -756.185 0)
(-195.921 -744.172 0)
(-118.869 -734.359 0)
(-7.3385 -658.927 0)
(33.9866 -731.322 0)
(0.391675 -618.991 0)
(135.414 -434.605 0)
(-254.862 -273.173 0)
(-656.727 -594.813 0)
(-122.927 -589.612 0)
(-76.258 -853.032 0)
(221.211 -897.234 0)
(351.46 -600.402 0)
(323.222 -221.828 0)
(343.348 167.469 0)
(473.757 680.344 0)
(664.812 1419.18 0)
(783.55 2467.15 0)
(676.471 3819.24 0)
(394.265 5200.57 0)
(-25.2568 6443.85 0)
(-487.363 7133.84 0)
(-713.983 7071.52 0)
(-660.113 6365.26 0)
(-517.408 5023.98 0)
(-386.441 3168.71 0)
(-211.702 1346.04 0)
(-39.1993 101.01 0)
(50.3964 -519.574 0)
(69.8024 -762.81 0)
(67.4381 -821.028 0)
(55.4321 -817.32 0)
(44.5057 -820.366 0)
(26.7768 -837.961 0)
(7.45977 -841.954 0)
(-2.8123 -722.581 0)
(-3.04382 -361.13 0)
(-12.483 185.029 0)
(-106.278 648.092 0)
(-245.395 840.026 0)
(-270.338 756.185 0)
(-195.921 744.172 0)
(-118.869 734.359 0)
(-7.3385 658.927 0)
(33.9866 731.322 0)
(0.391675 618.991 0)
(135.414 434.605 0)
(-254.862 273.173 0)
(-395.911 22.1335 0)
(115.708 201.634 0)
(92.0839 539.497 0)
(173.764 650.188 0)
(283.129 613.795 0)
(344.577 652.851 0)
(430.208 809.743 0)
(547.561 999.425 0)
(664.531 1137.28 0)
(862.883 1246.03 0)
(1102.86 1450.08 0)
(1257.13 1895.61 0)
(1201.31 2529.53 0)
(810.898 3300.3 0)
(251.77 4017.14 0)
(-426.137 4483.62 0)
(-1278.16 4524.19 0)
(-1942.88 4121.53 0)
(-1990.59 3239.37 0)
(-1390.49 1898.06 0)
(-666.767 489.138 0)
(-221.724 -364.778 0)
(-14.4171 -685.299 0)
(49.7975 -797.877 0)
(39.6764 -813.478 0)
(36.9859 -803.12 0)
(130.181 -692.851 0)
(369.157 -417.265 0)
(596.326 135.711 0)
(496.749 627.518 0)
(122.332 776.135 0)
(-219.104 827.034 0)
(-329.808 876.979 0)
(-253.666 925.162 0)
(-173.282 959.264 0)
(-48.6547 941.416 0)
(-27.7803 877.071 0)
(-127.912 719.36 0)
(-391.022 426.663 0)
(-436.593 -134.138 0)
(-278.897 158.298 0)
(375.624 446.571 0)
(355.985 731.421 0)
(292.807 881.116 0)
(354.025 944.967 0)
(512.045 958.947 0)
(677.32 1086.17 0)
(789.387 1232.17 0)
(902.451 1430.8 0)
(1084.98 1651.91 0)
(1302.43 1815.05 0)
(1434.46 1896.94 0)
(1328.36 1928.32 0)
(946.148 1952.3 0)
(426.303 2036.45 0)
(-171.499 2135.58 0)
(-866.334 2422.82 0)
(-1624.55 2911.82 0)
(-2354.32 3368.12 0)
(-2689.42 3288.76 0)
(-2130.15 2318.09 0)
(-1061.93 847.745 0)
(-349.911 -250.526 0)
(-68.0856 -678.658 0)
(39.4533 -823.778 0)
(143.017 -765.224 0)
(379.284 -587.716 0)
(795.62 -127.39 0)
(1003.75 300.684 0)
(604.653 379.266 0)
(85.9826 292.065 0)
(-148.218 349.861 0)
(-175.778 538.317 0)
(-116.627 691.611 0)
(-103.206 789.621 0)
(-86.5431 805.119 0)
(-179.995 664.694 0)
(-433.638 464.035 0)
(-687.047 131.659 0)
(-634.489 -19.6063 0)
(554.307 481.307 0)
(667.99 982.069 0)
(510.827 1327.14 0)
(379.545 1496.24 0)
(358.13 1515.52 0)
(480.649 1396.65 0)
(693.5 1231.4 0)
(879.659 1147.46 0)
(1069 1144.84 0)
(1233.16 1199.05 0)
(1338.98 1228.51 0)
(1366.29 1180.62 0)
(1254.66 1026.11 0)
(915.095 891.481 0)
(428.382 873.484 0)
(-53.8206 977.409 0)
(-530.145 1206.84 0)
(-1031.95 1663.16 0)
(-1627.36 2340.55 0)
(-2402.34 3122.15 0)
(-3019.01 3517.54 0)
(-2696.94 2851.29 0)
(-1485.31 1268.13 0)
(-502.609 -84.6548 0)
(-43.7418 -597.374 0)
(264.463 -607.328 0)
(744.821 -363.858 0)
(1225.25 186.888 0)
(1084.56 358.207 0)
(488.444 207.801 0)
(93.9972 150.029 0)
(18.1931 270.518 0)
(-0.485764 449.179 0)
(-11.5005 548.344 0)
(-63.9017 583.871 0)
(-169.038 556.479 0)
(-356.461 377.104 0)
(-641.563 186.931 0)
(-857.077 -1.14633 0)
(-718.769 -59.2067 0)
(1433.5 736.924 0)
(1190.7 1223.1 0)
(851.454 1611.24 0)
(474.339 1762.46 0)
(258.059 1725.54 0)
(238.254 1608.26 0)
(437.196 1400.1 0)
(705.98 1148.78 0)
(952.166 838.907 0)
(1165.6 561.514 0)
(1284.67 450.536 0)
(1239.42 380.376 0)
(1049.73 248.794 0)
(799.075 21.6455 0)
(509.107 -59.9835 0)
(149.738 42.9777 0)
(-205.522 295.636 0)
(-532.068 749.983 0)
(-948.379 1301.67 0)
(-1555.23 2002.43 0)
(-2391.16 2893.25 0)
(-3229.54 3608.16 0)
(-3179.1 3247.14 0)
(-1865.75 1622.13 0)
(-464.213 130.546 0)
(368.042 -312.915 0)
(1144.62 4.07799 0)
(1491.43 392.042 0)
(1023.9 373.369 0)
(404.045 220.642 0)
(146.419 220.942 0)
(140.053 278.317 0)
(91.946 348.51 0)
(13.1668 374.279 0)
(-95.3676 361.061 0)
(-285.791 305.328 0)
(-536.105 182.677 0)
(-798.134 82.8928 0)
(-924.234 29.009 0)
(-638.314 -9.36776 0)
(1481.17 1681.32 0)
(1510.52 1471.56 0)
(1030.57 1532.03 0)
(489.687 1743.01 0)
(209.538 1706.63 0)
(167.037 1562.84 0)
(250.732 1414.11 0)
(338.876 1194.45 0)
(503.088 898.304 0)
(858.907 458.916 0)
(1164.42 -21.4172 0)
(1171.88 -269.23 0)
(908.971 -280.231 0)
(617.545 -435.374 0)
(448.938 -626.806 0)
(288.868 -768.215 0)
(151.151 -522.253 0)
(-62.5002 -63.7228 0)
(-420.465 470.971 0)
(-868.64 1022.53 0)
(-1471.67 1699.51 0)
(-2355.91 2654.32 0)
(-3399.13 3609.95 0)
(-3505.87 3509.49 0)
(-1908.42 1919.28 0)
(142.594 572.131 0)
(1424.14 448.794 0)
(1581.11 482.036 0)
(919.391 375.76 0)
(341.559 243.951 0)
(149.574 258.869 0)
(141.123 259.943 0)
(91.9866 239.782 0)
(0.593613 210.012 0)
(-130.345 156.367 0)
(-340.935 111.913 0)
(-570.808 75.2001 0)
(-789.644 105.029 0)
(-945.982 167.172 0)
(-731.11 98.2429 0)
(679.25 2536.97 0)
(1046.84 1396.3 0)
(1113.03 694.635 0)
(642.584 621.551 0)
(84.4352 785.314 0)
(-43.6265 1111.78 0)
(82.1992 1383.24 0)
(208.931 1496.44 0)
(243.382 1555.01 0)
(279.327 1343.37 0)
(582.998 792.669 0)
(990.015 168.722 0)
(889.63 -330.12 0)
(465.104 -761.194 0)
(188.369 -1068.45 0)
(250.489 -1200.32 0)
(473.352 -945.88 0)
(425.039 -743.543 0)
(98.3715 -282.859 0)
(-371.364 227.994 0)
(-818.707 816.433 0)
(-1388.57 1463.81 0)
(-2355.03 2334.45 0)
(-3494.95 3463.25 0)
(-3294.76 3668.87 0)
(-1048.97 2462.16 0)
(1057.8 1274.91 0)
(1421.05 586.06 0)
(794.473 314.857 0)
(291.404 223.539 0)
(161.829 234.574 0)