/*--------------------------------*- C++ -*----------------------------------*\
| =========                 |                                                 |
| \\      /  F ield         | OpenFOAM: The Open Source CFD Toolbox           |
|  \\    /   O peration     | Version:  v1912                                 |
|   \\  /    A nd           | Website:  www.openfoam.com                      |
|    \\/     M anipulation  |                                                 |
\*---------------------------------------------------------------------------*/
FoamFile
{
    version     2.0;
    format      ascii;
    class       volVectorField;
    location    "9.12";
    object      grad(T);
}
// * * * * * * * * * * * * * * * * * * * * * * * * * * * * * * * * * * * * * //

dimensions      [0 -1 0 1 0 0 0];


internalField   nonuniform List<vector> 
1900
(
(-2.21296 -4.23253e-05 0)
(2.31759 -3.46574e-06 0)
(-0.0512427 -1.18046e-06 0)
(-0.314635 9.41425e-06 0)
(-0.241745 -2.94412e-05 0)
(-0.0947848 2.38334e-05 0)
(-0.0131698 0.000247574 0)
(0.024524 0.000138714 0)
(0.0448249 -0.000869956 0)
(0.0695844 -0.00132351 0)
(-2.21301 -7.66191e-05 0)
(2.31763 -6.00608e-06 0)
(-0.0512298 -6.06791e-07 0)
(-0.314663 2.66624e-05 0)
(-0.24173 -1.41722e-05 0)
(-0.0945078 8.75426e-05 0)
(-0.013055 0.00038729 0)
(0.0234065 -0.000171112 0)
(0.0433626 -0.00404836 0)
(0.0385639 -0.0050544 0)
(-2.21304 -4.47775e-13 0)
(2.31766 -3.5345e-13 0)
(-0.05121 -3.18755e-13 0)
(-0.314649 -4.42354e-13 0)
(-0.241684 -4.2067e-13 0)
(-0.0943833 -2.01662e-13 0)
(-0.0134285 1.19262e-14 0)
(0.0200883 6.50521e-15 0)
(0.0399416 -8.99888e-14 0)
(0.0359164 -5.31259e-14 0)
(-2.21301 7.66191e-05 0)
(2.31763 6.00608e-06 0)
(-0.0512298 6.06791e-07 0)
(-0.314663 -2.66624e-05 0)
(-0.24173 1.41722e-05 0)
(-0.0945078 -8.75426e-05 0)
(-0.013055 -0.00038729 0)
(0.0234065 0.000171112 0)
(0.0433626 0.00404836 0)
(0.0385639 0.0050544 0)
(-2.21296 4.23253e-05 0)
(2.31759 3.46574e-06 0)
(-0.0512427 1.18046e-06 0)
(-0.314635 -9.41425e-06 0)
(-0.241745 2.94412e-05 0)
(-0.0947848 -2.38334e-05 0)
(-0.0131698 -0.000247574 0)
(0.024524 -0.000138714 0)
(0.0448249 0.000869956 0)
(0.0695844 0.00132351 0)
(0.0298767 -0.0277296 9.40826e-16)
(-2.21827e-05 -0.0206494 -1.12956e-15)
(0.106148 -0.0335832 -1.43496e-15)
(0.390846 -0.0626196 0)
(-0.512043 -0.320597 -6.46921e-15)
(0.0138159 -0.0335869 9.35815e-16)
(0.0110793 -0.0244623 1.12956e-15)
(0.0875298 -0.0390003 1.43496e-15)
(0.285257 -0.0610068 0)
(-0.44422 -0.34368 0)
(0.00520606 -7.46371e-14 0)
(0.00722235 -9.27278e-14 0)
(0.0802024 -5.11984e-14 0)
(0.256824 -4.10683e-15 0)
(-0.577154 8.38966e-14 0)
(0.0138159 0.0335869 9.35815e-16)
(0.0110793 0.0244623 1.12956e-15)
(0.0875298 0.0390003 1.43496e-15)
(0.285257 0.0610068 0)
(-0.44422 0.34368 0)
(0.0298767 0.0277296 -2.81246e-15)
(-2.21827e-05 0.0206494 -1.12956e-15)
(0.106148 0.0335832 -1.43496e-15)
(0.390846 0.0626196 -3.95607e-15)
(-0.512043 0.320597 6.46921e-15)
(-1.87584 0.454979 2.18913e-15)
(-0.9638 0.315829 -1.58385e-15)
(-0.590607 0.2178 0)
(-0.421091 0.193892 1.01522e-15)
(-0.297985 0.082898 -4.24937e-16)
(-1.67254 0.45496 -1.10142e-15)
(-1.00473 0.208544 7.9668e-16)
(-0.610044 0.114327 0)
(-0.46179 0.122855 -6.39089e-16)
(-0.293869 -0.0389609 1.06565e-16)
(-1.7281 2.13555e-13 0)
(-1.06126 7.41335e-14 0)
(-0.622211 9.63735e-14 0)
(-0.494518 1.06294e-14 2.57116e-16)
(-0.279502 1.61679e-13 -2.1313e-16)
(-1.67254 -0.45496 -1.10142e-15)
(-1.00473 -0.208544 7.9668e-16)
(-0.610044 -0.114327 0)
(-0.46179 -0.122855 -6.39089e-16)
(-0.293869 0.0389609 1.06565e-16)
(-1.87584 -0.454979 1.10142e-15)
(-0.9638 -0.315829 -9.51175e-18)
(-0.590607 -0.2178 0)
(-0.421091 -0.193892 5.83938e-18)
(-0.297985 -0.082898 4.24937e-16)
(-0.168716 0.830706 0)
(-0.0931611 1.07288 0)
(-0.0637269 1.16126 0)
(-0.0410298 1.11147 0)
(-0.0454094 1.00396 0)
(-0.0559876 0.896477 0)
(-0.067044 0.795822 0)
(-0.0712354 0.704983 0)
(-0.068433 0.623921 0)
(-0.05393 0.548856 0)
(-0.0406605 0.501451 0)
(-0.0543248 0.460188 0)
(-0.044727 0.421625 0)
(0.000836862 0.362593 0)
(0.107768 0.357472 0)
(0.303807 0.3766 0)
(0.297553 0.391164 0)
(0.134068 0.332979 0)
(0.0582778 0.280797 0)
(0.0304912 0.237227 0)
(0.047335 0.186822 0)
(0.0748275 0.116458 0)
(0.0500604 0.0435018 0)
(-0.00900742 0.0285187 0)
(-0.0740562 0.00401985 0)
(-0.14937 -0.0461848 0)
(0.171093 -0.0492329 0)
(0.511676 -0.032016 0)
(0.0465558 -0.0219991 0)
(-0.594548 -0.000385279 0)
(-0.476651 0.0146512 0)
(-0.0512311 0.00430511 0)
(0.0709188 0.00276596 0)
(0.0595058 0.00180708 0)
(0.0281033 0.000351521 0)
(0.00455945 -0.000870743 0)
(-0.00744691 -0.00189676 0)
(-0.00932343 -0.00180756 0)
(-0.0042756 -0.00141327 0)
(-0.000798481 -0.00114799 0)
(-0.0420116 0.208986 0)
(0.029817 0.482142 0)
(-0.0331988 0.776273 0)
(-0.0693589 0.783078 0)
(-0.0853413 0.729056 0)
(-0.0912097 0.653304 0)
(-0.0948899 0.582783 0)
(-0.0942172 0.521472 0)
(-0.0904849 0.465667 0)
(-0.0728534 0.40659 0)
(-0.0559254 0.36709 0)
(-0.0675849 0.327483 0)
(-0.0631501 0.299939 0)
(-0.0138462 0.234097 0)
(0.107439 0.223595 0)
(0.306616 0.226661 0)
(0.291012 0.233099 0)
(0.119116 0.197355 0)
(0.045505 0.163887 0)
(0.0188865 0.136026 0)
(0.032444 0.107155 0)
(0.0557057 0.0651612 0)
(0.0410733 0.0194526 0)
(-0.0110604 0.00942433 0)
(-0.0818272 -0.00382758 0)
(-0.153744 -0.0144597 0)
(0.174316 -0.0108203 0)
(0.512271 0.00675667 0)
(0.046305 0.00138983 0)
(-0.591609 0.00728499 0)
(-0.476983 0.00662385 0)
(-0.0524273 0.0018881 0)
(0.0706805 0.00118754 0)
(0.0593036 0.000807712 0)
(0.027862 0.000211685 0)
(0.00435639 -0.000500938 0)
(-0.00749624 -0.00117915 0)
(-0.00930877 -0.0011959 0)
(-0.00433498 -0.00128792 0)
(-0.000840824 -0.00152669 0)
(-0.00214253 1.77415e-14 0)
(0.0718679 1.6953e-13 0)
(0.0238181 -3.94255e-15 0)
(-0.0547657 -3.50887e-13 0)
(-0.0831619 -3.46945e-13 0)
(-0.0985397 -4.57336e-13 0)
(-0.105395 -5.51957e-13 0)
(-0.105306 -5.26331e-13 0)
(-0.101853 -3.31174e-13 0)
(-0.082607 -2.34582e-13 0)
(-0.0636735 -2.60209e-13 0)
(-0.0738597 -2.44438e-13 0)
(-0.0718939 -5.559e-13 0)
(-0.0213723 -4.88877e-13 0)
(0.105605 -4.82963e-13 0)
(0.306572 -3.3906e-13 0)
(0.289027 -2.44438e-13 0)
(0.113934 -2.20783e-13 0)
(0.0404365 -1.57702e-13 0)
(0.0139872 -4.00169e-13 0)
(0.0267198 -5.20417e-13 0)
(0.0493142 1.36215e-12 0)
(0.033846 -1.04221e-11 0)
(-0.0157798 -1.92456e-11 0)
(-0.0810043 -2.22557e-12 0)
(-0.151404 1.89834e-12 0)
(0.177265 7.88511e-15 0)
(0.515228 -6.70234e-13 0)
(0.0467095 2.0797e-12 0)
(-0.593026 9.89581e-13 0)
(-0.478221 -1.59476e-12 0)
(-0.0528126 -5.51957e-14 0)
(0.0706045 -3.94255e-14 0)
(0.059222 -2.4641e-13 0)
(0.0277226 -1.67559e-13 0)
(0.00415485 -2.95692e-13 0)
(-0.00764908 -1.57702e-13 0)
(-0.00935507 -2.87806e-13 0)
(-0.00437183 -2.44438e-13 0)
(-0.000867942 -1.6953e-13 0)
(-0.0420116 -0.208986 0)
(0.029817 -0.482142 0)
(-0.0331988 -0.776273 0)
(-0.0693589 -0.783078 0)
(-0.0853413 -0.729056 0)
(-0.0912097 -0.653304 0)
(-0.0948899 -0.582783 0)
(-0.0942172 -0.521472 0)
(-0.0904849 -0.465667 0)
(-0.0728534 -0.40659 0)
(-0.0559254 -0.36709 0)
(-0.0675849 -0.327483 0)
(-0.0631501 -0.299939 0)
(-0.0138462 -0.234097 0)
(0.107439 -0.223595 0)
(0.306616 -0.226661 0)
(0.291012 -0.233099 0)
(0.119116 -0.197355 0)
(0.045505 -0.163887 0)
(0.0188865 -0.136026 0)
(0.032444 -0.107155 0)
(0.0557057 -0.0651612 0)
(0.0410733 -0.0194526 0)
(-0.0110604 -0.00942433 0)
(-0.0818272 0.00382758 0)
(-0.153744 0.0144597 0)
(0.174316 0.0108203 0)
(0.512271 -0.00675667 0)
(0.046305 -0.00138983 0)
(-0.591609 -0.00728499 0)
(-0.476983 -0.00662385 0)
(-0.0524273 -0.0018881 0)
(0.0706805 -0.00118754 0)
(0.0593036 -0.000807712 0)
(0.027862 -0.000211685 0)
(0.00435639 0.000500938 0)
(-0.00749624 0.00117915 0)
(-0.00930877 0.0011959 0)
(-0.00433498 0.00128792 0)
(-0.000840824 0.00152669 0)
(-0.168716 -0.830706 0)
(-0.0931611 -1.07288 0)
(-0.0637269 -1.16126 0)
(-0.0410298 -1.11147 0)
(-0.0454094 -1.00396 0)
(-0.0559876 -0.896477 0)
(-0.067044 -0.795822 0)
(-0.0712354 -0.704983 0)
(-0.068433 -0.623921 0)
(-0.05393 -0.548856 0)
(-0.0406605 -0.501451 0)
(-0.0543248 -0.460188 0)
(-0.044727 -0.421625 0)
(0.000836862 -0.362593 0)
(0.107768 -0.357472 0)
(0.303807 -0.3766 0)
(0.297553 -0.391164 0)
(0.134068 -0.332979 0)
(0.0582778 -0.280797 0)
(0.0304912 -0.237227 0)
(0.047335 -0.186822 0)
(0.0748275 -0.116458 0)
(0.0500604 -0.0435018 0)
(-0.00900742 -0.0285187 0)
(-0.0740562 -0.00401985 0)
(-0.14937 0.0461848 0)
(0.171093 0.0492329 0)
(0.511676 0.032016 0)
(0.0465558 0.0219991 0)
(-0.594548 0.000385279 0)
(-0.476651 -0.0146512 0)
(-0.0512311 -0.00430511 0)
(0.0709188 -0.00276596 0)
(0.0595058 -0.00180708 0)
(0.0281033 -0.000351521 0)
(0.00455945 0.000870743 0)
(-0.00744691 0.00189676 0)
(-0.00932343 0.00180756 0)
(-0.0042756 0.00141327 0)
(-0.000798481 0.00114799 0)
(-0.0192914 -0.980816 0)
(-0.0353348 -0.911612 0)
(-0.0221106 -0.851794 0)
(-0.00344809 -0.822973 0)
(0.00334824 -0.782322 0)
(-0.0013745 -0.732268 0)
(-0.00696789 -0.668766 0)
(-0.0129616 -0.598605 0)
(-0.0180483 -0.532307 0)
(-0.0179114 -0.474402 0)
(-0.0179567 -0.430426 0)
(-0.0328438 -0.401107 0)
(-0.0232328 -0.362426 0)
(0.00941824 -0.343728 0)
(0.0982712 -0.340892 0)
(0.288731 -0.365699 0)
(0.310812 -0.392286 0)
(0.171058 -0.345796 0)
(0.0907989 -0.296499 0)
(0.0644165 -0.251121 0)
(0.0909816 -0.197309 0)
(0.123497 -0.125218 0)
(0.0858439 -0.0548823 0)
(0.0113319 -0.0285029 0)
(-0.0439529 -0.0234874 0)
(-0.125399 -0.0115584 0)
(0.169154 0.00147499 0)
(0.495877 0.0116718 0)
(0.0261739 -0.0111641 0)
(-0.6112 -0.0302174 0)
(-0.480308 -0.0284081 0)
(-0.046355 -0.00594423 0)
(0.0719719 -0.00392576 0)
(0.0605844 -0.00279117 0)
(0.0292627 -0.000695935 0)
(0.00553189 0.00100118 0)
(-0.00696564 0.00251532 0)
(-0.00959512 0.00264896 0)
(-0.00481736 0.00163621 0)
(-0.00105619 0.000562609 0)
(0.00112684 -0.409282 0)
(0.000161378 -0.390965 0)
(-0.000626918 -0.371736 0)
(0.0057634 -0.356549 0)
(0.0158511 -0.351834 0)
(0.0241537 -0.346624 0)
(0.0295438 -0.338507 0)
(0.029013 -0.326534 0)
(0.0242366 -0.310968 0)
(0.0249319 -0.290993 0)
(0.0177941 -0.269948 0)
(-0.000316662 -0.251546 0)
(-0.000960421 -0.22319 0)
(0.0169862 -0.217656 0)
(0.0916893 -0.215619 0)
(0.262366 -0.229631 0)
(0.309622 -0.24956 0)
(0.206537 -0.234008 0)
(0.132071 -0.205037 0)
(0.107882 -0.17499 0)
(0.145255 -0.140174 0)
(0.185977 -0.089097 0)
(0.12407 -0.040464 0)
(0.0103393 -0.0356366 0)
(-0.0738703 -0.0480741 0)
(-0.138169 -0.0785984 0)
(0.194518 -0.0452721 0)
(0.507969 -0.0177788 0)
(0.0171194 -0.052895 0)
(-0.602236 -0.080678 0)
(-0.451299 -0.0402298 0)
(-0.0302537 -0.00330737 0)
(0.0733926 -0.00258105 0)
(0.0620399 -0.00291022 0)
(0.031136 -0.00152208 0)
(0.00713248 0.000139839 0)
(-0.00611712 0.00151651 0)
(-0.0100249 0.00215503 0)
(-0.00599558 0.00129221 0)
(-0.00169486 0.00013992 0)
(-0.00164027 -0.0636001 0)
(0.000846421 -0.0653659 0)
(0.0110533 -0.0687163 0)
(0.0157295 -0.0724181 0)
(0.0129132 -0.076711 0)
(0.0114677 -0.0849394 0)
(0.0123915 -0.0952322 0)
(0.0135768 -0.107374 0)
(0.0161996 -0.117519 0)
(0.0216169 -0.122565 0)
(0.020056 -0.129799 0)
(0.0122132 -0.130847 0)
(0.00942485 -0.117238 0)
(0.0167142 -0.102727 0)
(0.0867322 -0.0900623 0)
(0.256024 -0.0776753 0)
(0.306594 -0.114935 0)
(0.213962 -0.132569 0)
(0.147672 -0.128296 0)
(0.126921 -0.1128 0)
(0.173751 -0.0886942 0)
(0.219581 -0.0493398 0)
(0.13736 -0.0363319 0)
(0.00399854 -0.0498049 0)
(-0.0853525 -0.0565302 0)
(-0.122698 -0.0717219 0)
(0.227762 0.000164785 0)
(0.488531 0.0233431 0)
(-0.0344381 -0.0395844 0)
(-0.598995 -0.088814 0)
(-0.405751 -0.029736 0)
(-0.0100753 0.0107314 0)
(0.0723546 0.0095102 0)
(0.0616048 0.00574902 0)
(0.0322019 0.00205458 0)
(0.00845998 0.000567364 0)
(-0.00502373 0.000616191 0)
(-0.00981126 0.00172473 0)
(-0.00675919 0.00140397 0)
(-0.00216658 0.000681071 0)
(-0.000574771 0.00331148 0)
(-0.0047688 0.00455073 0)
(-0.00742265 0.00143541 0)
(-0.00194062 -0.00659328 0)
(0.00378505 -0.0134505 0)
(0.00630603 -0.018483 0)
(0.00792517 -0.0208397 0)
(0.00753699 -0.0283035 0)
(0.00959803 -0.0364896 0)
(0.0130984 -0.0424278 0)
(0.00981264 -0.0547239 0)
(0.0117869 -0.0590778 0)
(0.0261376 -0.0472059 0)
(0.0431741 -0.0325681 0)
(0.11583 -0.0095508 0)
(0.238398 0.0175332 0)
(0.256724 -0.0491736 0)
(0.193662 -0.0770417 0)
(0.151122 -0.0781777 0)
(0.146043 -0.0618084 0)
(0.206407 -0.0327928 0)
(0.236436 -0.00397274 0)
(0.123622 -0.0362042 0)
(-0.00912458 -0.0610729 0)
(-0.0949903 -0.0694112 0)
(-0.083536 -0.0706176 0)
(0.286126 0.0350693 0)
(0.469665 0.0976868 0)
(-0.0909593 0.0178759 0)
(-0.592746 -0.0412939 0)
(-0.355374 0.0400336 0)
(0.00756535 0.0627922 0)
(0.0685913 0.0446513 0)
(0.0548554 0.0278493 0)
(0.0261428 0.0169811 0)
(0.0057464 0.0107961 0)
(-0.00500184 0.0036426 0)
(-0.00926574 0.00167513 0)
(-0.00700129 0.00159683 0)
(-0.00239147 0.00114375 0)
(-0.00044608 0.0228039 0)
(-0.000961422 0.0232139 0)
(0.000314508 0.0278065 0)
(0.00138494 0.0308184 0)
(0.00145585 0.0277152 0)
(0.00434706 0.0239702 0)
(0.00292812 0.0205289 0)
(-0.00150393 0.015671 0)
(0.00258887 0.0125047 0)
(0.00404571 0.00624382 0)
(0.00401151 -0.00399638 0)
(0.0194579 -0.000177892 0)
(0.0349705 0.0119429 0)
(0.053 0.0223703 0)
(0.135012 0.0485517 0)
(0.217842 0.0607778 0)
(0.215458 -0.00105931 0)
(0.186013 -0.0178152 0)
(0.162351 -0.0169682 0)
(0.170656 -0.00256074 0)
(0.229483 0.0320476 0)
(0.216293 0.0408353 0)
(0.0823365 -0.029081 0)
(-0.0280009 -0.051605 0)
(-0.0945501 -0.0523222 0)
(-0.0220172 -0.0204971 0)
(0.389946 0.199818 0)
(0.471963 0.305473 0)
(-0.168365 0.108663 0)
(-0.577643 0.0357185 0)
(-0.30545 0.161776 0)
(-0.00562548 0.167535 0)
(0.0386824 0.130072 0)
(0.0349408 0.0914377 0)
(0.0157688 0.059911 0)
(-0.0043935 0.0356142 0)
(-0.0138131 0.0181448 0)
(-0.0117826 0.00697677 0)
(-0.00727124 0.00249625 0)
(-0.00260318 0.00117651 0)
(-0.000179738 0.0387248 0)
(5.19105e-05 0.0392323 0)
(-9.45975e-05 0.040453 0)
(-0.00202864 0.0391995 0)
(-0.00281416 0.0369063 0)
(-0.000618951 0.0344645 0)
(-7.22145e-05 0.0285993 0)
(-0.00019542 0.0262472 0)
(0.000513627 0.0272375 0)
(-0.00280266 0.0207607 0)
(0.00362445 0.0202289 0)
(0.0271465 0.0280242 0)
(0.0478658 0.0319306 0)
(0.0784517 0.0426645 0)
(0.152841 0.070874 0)
(0.190591 0.0624526 0)
(0.180989 0.0263033 0)
(0.178332 0.0168283 0)
(0.165822 0.0119453 0)
(0.193277 0.0316798 0)
(0.248225 0.0706712 0)
(0.17753 0.0462002 0)
(0.0345434 -0.0119646 0)
(-0.0315207 -0.00886796 0)
(-0.0650136 0.022378 0)
(0.159435 0.150167 0)
(0.600243 0.451086 0)
(0.381825 0.379404 0)
(-0.350905 0.0643279 0)
(-0.541564 0.0167232 0)
(-0.22835 0.19555 0)
(-0.0229855 0.20417 0)
(-0.00473929 0.184243 0)
(-0.0127545 0.160104 0)
(-0.0276507 0.129529 0)
(-0.034501 0.088935 0)
(-0.0325979 0.0515725 0)
(-0.0243453 0.0235449 0)
(-0.0125906 0.00741455 0)
(-0.00366322 0.00201261 0)
(4.30107e-05 0.0460793 0)
(0.000703948 0.0464865 0)
(0.000282867 0.0469699 0)
(-0.00203281 0.0471399 0)
(-0.003107 0.0479667 0)
(-0.0036579 0.0478202 0)
(-0.0049903 0.0448336 0)
(-0.00281616 0.0419194 0)
(-0.00269811 0.0396895 0)
(-0.00270808 0.035709 0)
(0.0110108 0.0406658 0)
(0.0307341 0.0477209 0)
(0.0490785 0.0480944 0)
(0.0905273 0.0623197 0)
(0.15408 0.0819259 0)
(0.174892 0.0528835 0)
(0.171493 0.0465053 0)
(0.172177 0.0450575 0)
(0.176662 0.0404232 0)
(0.227246 0.0826572 0)
(0.243476 0.126532 0)
(0.136662 0.0647463 0)
(0.0292708 0.0788424 0)
(0.00509287 0.158158 0)
(0.0587014 0.220394 0)
(0.391101 0.351773 0)
(0.610848 0.418353 0)
(0.0992691 0.120712 0)
(-0.517858 -0.105884 0)
(-0.451193 -0.0467185 0)
(-0.12482 0.118466 0)
(-0.0165206 0.131499 0)
(-0.00378139 0.133356 0)
(-0.0177837 0.139941 0)
(-0.0528118 0.14855 0)
(-0.0795156 0.135907 0)
(-0.0768254 0.0971683 0)
(-0.0543348 0.0545439 0)
(-0.0280205 0.0229573 0)
(-0.00780869 0.0074688 0)
(0.000212625 0.0545506 0)
(0.000910115 0.0547334 0)
(0.000535066 0.0542828 0)
(-0.00106813 0.0543014 0)
(-0.00215858 0.0552793 0)
(-0.00363806 0.0551429 0)
(-0.00575847 0.0534424 0)
(-0.00515247 0.0529453 0)
(-0.00547094 0.0517815 0)
(-0.0018619 0.0538536 0)
(0.0151996 0.0611323 0)
(0.034305 0.0693476 0)
(0.0619338 0.0778076 0)
(0.111053 0.0948563 0)
(0.143748 0.0946047 0)
(0.156459 0.0812401 0)
(0.173447 0.0871944 0)
(0.172471 0.0871392 0)
(0.202054 0.133426 0)
(0.276254 0.221042 0)
(0.230966 0.239746 0)
(0.131575 0.242463 0)
(0.124558 0.27092 0)
(0.104884 0.283213 0)
(0.121561 0.292931 0)
(0.350195 0.312024 0)
(0.377584 0.145159 0)
(-0.123349 -0.162812 0)
(-0.512247 -0.234069 0)
(-0.325373 -0.0463172 0)
(-0.056613 0.0497237 0)
(-0.00863606 0.0624822 0)
(0.00339603 0.0645878 0)
(0.00188681 0.073035 0)
(-0.0315386 0.0953442 0)
(-0.0840145 0.118947 0)
(-0.111002 0.113746 0)
(-0.0958577 0.0842584 0)
(-0.057954 0.0466573 0)
(-0.0185885 0.0215214 0)
(0.000219178 0.0736891 0)
(0.00044587 0.0735632 0)
(-0.000133474 0.0725273 0)
(-0.00107251 0.0714788 0)
(-0.00229614 0.0696972 0)
(-0.00542802 0.0667382 0)
(-0.00710791 0.0637239 0)
(-0.00441671 0.0635218 0)
(-0.00182285 0.0657597 0)
(0.00630274 0.0733118 0)
(0.0259414 0.085764 0)
(0.046803 0.101056 0)
(0.0736596 0.117952 0)
(0.106714 0.133801 0)
(0.140959 0.133164 0)
(0.167751 0.158318 0)
(0.177177 0.194702 0)
(0.216728 0.279302 0)
(0.305696 0.413587 0)
(0.3297 0.461584 0)
(0.264117 0.385479 0)
(0.166703 0.332327 0)
(0.0685389 0.278073 0)
(0.026304 0.192291 0)
(0.0864647 0.137053 0)
(0.248702 0.104376 0)
(0.15328 -0.0637062 0)
(-0.266169 -0.296626 0)
(-0.405599 -0.259635 0)
(-0.17772 -0.0300919 0)
(-0.0199767 0.0148033 0)
(-0.00219695 0.0224911 0)
(0.00638761 0.0236027 0)
(0.0118543 0.0252071 0)
(-0.00856957 0.034009 0)
(-0.0617831 0.0631489 0)
(-0.110252 0.0835478 0)
(-0.118984 0.0827308 0)
(-0.0884762 0.0653671 0)
(-0.0320306 0.0401565 0)
(9.12784e-05 0.0976954 0)
(-0.000209447 0.0970558 0)
(-0.00147359 0.0945523 0)
(-0.0037953 0.0911496 0)
(-0.00672672 0.0874509 0)
(-0.00939421 0.0870812 0)
(-0.00885796 0.0939326 0)
(-0.00319067 0.106336 0)
(0.00396305 0.119029 0)
(0.017415 0.14642 0)
(0.041935 0.180012 0)
(0.0653224 0.210875 0)
(0.0934878 0.242772 0)
(0.125712 0.289537 0)
(0.167373 0.350404 0)
(0.215759 0.437355 0)
(0.290032 0.543729 0)
(0.383397 0.60854 0)
(0.377707 0.586089 0)
(0.249168 0.440898 0)
(0.106409 0.285688 0)
(0.0280741 0.162521 0)
(-0.0103858 0.0895552 0)
(-0.0310077 0.0521356 0)
(0.0368439 0.0151328 0)
(0.156736 -0.0431562 0)
(-0.00883676 -0.214374 0)
(-0.312153 -0.330876 0)
(-0.255405 -0.176002 0)
(-0.0609134 -0.0163785 0)
(-0.00594208 0.0026534 0)
(-0.000156708 0.00496556 0)
(0.00601331 0.00543749 0)
(0.0119148 0.00228435 0)
(0.00502345 0.00281875 0)
(-0.0362772 0.0190791 0)
(-0.0921322 0.0436459 0)
(-0.113377 0.0578315 0)
(-0.0989801 0.0641904 0)
(-0.0428824 0.0563337 0)
(-0.00039718 0.12623 0)
(-0.0025829 0.125193 0)
(-0.00582487 0.125936 0)
(-0.00791573 0.133574 0)
(-0.0062166 0.152257 0)
(0.000817972 0.182186 0)
(0.0114466 0.22427 0)
(0.0197675 0.277976 0)
(0.0368037 0.346169 0)
(0.0650675 0.418981 0)
(0.0880525 0.488811 0)
(0.107281 0.54932 0)
(0.149461 0.613802 0)
(0.210432 0.674464 0)
(0.283401 0.728863 0)
(0.354046 0.733667 0)
(0.342138 0.685784 0)
(0.257547 0.533788 0)
(0.14415 0.313401 0)
(0.0402227 0.140552 0)
(-0.00413665 0.0584621 0)
(-0.022298 0.0293948 0)
(-0.0378328 0.00208876 0)
(-0.0454122 -0.0191423 0)
(-0.00536183 -0.0439604 0)
(0.027541 -0.133618 0)
(-0.123978 -0.312318 0)
(-0.229192 -0.269835 0)
(-0.102538 -0.0694548 0)
(-0.00556149 -0.00455717 0)
(0.000591219 0.00303699 0)
(0.000485902 0.00325907 0)
(0.0038039 0.00206755 0)
(0.00933074 -0.00198896 0)
(0.00761446 -0.00268266 0)
(-0.0224406 0.00371866 0)
(-0.0729091 0.0233109 0)
(-0.0991864 0.0405824 0)
(-0.0899195 0.0521059 0)
(-0.0396015 0.0613459 0)
(-0.000907833 0.194905 0)
(-0.000492584 0.199647 0)
(0.00660214 0.219945 0)
(0.0215683 0.269989 0)
(0.0401172 0.339972 0)
(0.0600003 0.423977 0)
(0.0834494 0.514534 0)
(0.114275 0.602186 0)
(0.13984 0.689651 0)
(0.15487 0.753947 0)
(0.167535 0.798001 0)
(0.185768 0.819855 0)
(0.214082 0.820907 0)
(0.236588 0.773366 0)
(0.224423 0.673771 0)
(0.174246 0.501442 0)
(0.0974218 0.302172 0)
(0.0245555 0.137606 0)
(-0.00122971 0.0346623 0)
(0.00349914 0.00208372 0)
(-0.000705807 0.00123716 0)
(-0.0262493 -0.00844135 0)
(-0.0571579 -0.0253357 0)
(-0.0753823 -0.0518116 0)
(-0.0734691 -0.108933 0)
(-0.101863 -0.233875 0)
(-0.1401 -0.294664 0)
(-0.0781216 -0.140272 0)
(0.00022645 -0.0141811 0)
(0.00894237 0.00168889 0)
(0.00158993 0.00286631 0)
(-0.0010909 0.0012609 0)
(0.000956109 -0.000929297 0)
(0.00733731 -0.00508717 0)
(0.0105235 -0.00715541 0)
(-0.0112288 -0.0026754 0)
(-0.0566089 0.01324 0)
(-0.0856293 0.0323077 0)
(-0.0789717 0.0440195 0)
(-0.0339784 0.0553554 0)
(0.00417209 0.319832 0)
(0.0215464 0.344512 0)
(0.0619587 0.400012 0)
(0.107746 0.479427 0)
(0.142172 0.558042 0)
(0.169032 0.619391 0)
(0.183176 0.66165 0)
(0.188517 0.682386 0)
(0.183047 0.671674 0)
(0.169477 0.638353 0)
(0.151563 0.585893 0)
(0.129354 0.52768 0)
(0.104664 0.450358 0)
(0.0686466 0.33716 0)
(0.0213649 0.209256 0)
(-0.00403968 0.0931396 0)
(-0.00846731 0.0185691 0)
(-0.000235817 -0.000803548 0)
(0.0135553 0.00960441 0)
(0.00801303 0.0089177 0)
(-0.014279 -0.00916575 0)
(-0.0479046 -0.0287822 0)
(-0.0796259 -0.0501171 0)
(-0.12597 -0.099689 0)
(-0.180805 -0.198175 0)
(-0.151435 -0.272151 0)
(-0.0337788 -0.179825 0)
(0.0410914 -0.0393759 0)
(0.0342612 0.00709766 0)
(0.010866 0.00887247 0)
(0.000178794 0.00570324 0)
(-0.00317168 0.00210865 0)
(-0.00231334 -0.0019473 0)
(0.00333103 -0.00686691 0)
(0.00993854 -0.0133723 0)
(-0.00278679 -0.0147752 0)
(-0.0391981 -0.000172286 0)
(-0.0695262 0.0231531 0)
(-0.0677099 0.0393938 0)
(-0.0286778 0.0510727 0)
(0.0228743 0.42902 0)
(0.0767717 0.448386 0)
(0.136611 0.482544 0)
(0.173852 0.507539 0)
(0.174992 0.504563 0)
(0.159841 0.466183 0)
(0.144154 0.403711 0)
(0.123935 0.332817 0)
(0.0974085 0.257941 0)
(0.0722088 0.192653 0)
(0.0608857 0.139207 0)
(0.0551617 0.0957467 0)
(0.0304895 0.0531093 0)
(0.00425434 0.0145377 0)
(-0.0107236 -0.00357949 0)
(-0.00950718 0.00467724 0)
(0.00689482 0.012501 0)
(0.0159168 0.025933 0)
(0.00813804 0.0173014 0)
(-0.0145885 -0.000654341 0)
(-0.0370348 -0.024137 0)
(-0.0657115 -0.052542 0)
(-0.125486 -0.103799 0)
(-0.218057 -0.196036 0)
(-0.23966 -0.248267 0)
(-0.08418 -0.174787 0)
(0.0842108 -0.078328 0)
(0.102004 -0.0136991 0)
(0.0467204 0.0115987 0)
(0.00759866 0.0151928 0)
(-0.00492792 0.0106531 0)
(-0.00846323 0.00804844 0)
(-0.00769307 0.00363232 0)
(-0.00367224 -0.00363554 0)
(0.00290279 -0.0143417 0)
(0.00149119 -0.0232763 0)
(-0.0200598 -0.0151876 0)
(-0.047502 0.00731123 0)
(-0.0520674 0.0280545 0)
(-0.0227242 0.0402879 0)
(0.0228337 0.336847 0)
(0.0731242 0.323844 0)
(0.118961 0.306353 0)
(0.128965 0.26178 0)
(0.10232 0.192914 0)
(0.0718466 0.12053 0)
(0.0546587 0.0539636 0)
(0.0480483 0.0023947 0)
(0.0479796 -0.0302516 0)
(0.0550607 -0.0437613 0)
(0.0581807 -0.0415965 0)
(0.046387 -0.0401687 0)
(0.0264078 -0.0376732 0)
(0.0140192 -0.0187979 0)
(0.011863 0.00306113 0)
(0.011456 0.0279837 0)
(0.0120155 0.0327852 0)
(0.00439002 0.0225771 0)
(-0.0120652 0.00391262 0)
(-0.0319185 -0.0195265 0)
(-0.0642798 -0.0568808 0)
(-0.12467 -0.127784 0)
(-0.217902 -0.223681 0)
(-0.265185 -0.262532 0)
(-0.160329 -0.165082 0)
(0.012324 -0.0556707 0)
(0.121451 -0.0469052 0)
(0.127748 -0.0433854 0)
(0.0621024 -0.0219645 0)
(0.00995478 -0.00185203 0)
(-0.00670573 0.00411885 0)
(-0.00993719 0.00871145 0)
(-0.0135724 0.0102457 0)
(-0.0139894 0.00400495 0)
(-0.008988 -0.00750933 0)
(-0.00360199 -0.0228855 0)
(-0.00972285 -0.0280057 0)
(-0.0278565 -0.013541 0)
(-0.0359324 0.00533056 0)
(-0.0168892 0.0154347 0)
(0.0103434 0.0968177 0)
(0.0473861 0.0824849 0)
(0.0768038 0.0544347 0)
(0.0645375 0.0041398 0)
(0.038879 -0.0475198 0)
(0.0259433 -0.0869066 0)
(0.0303137 -0.103288 0)
(0.0427819 -0.1072 0)
(0.0529309 -0.103416 0)
(0.0612763 -0.0944343 0)
(0.0643477 -0.0847817 0)
(0.0589423 -0.0689942 0)
(0.0510832 -0.0420985 0)
(0.0435075 -0.00974519 0)
(0.0343569 0.0110507 0)
(0.019136 0.0181424 0)
(0.00168477 0.0136531 0)
(-0.0119058 -0.00386201 0)
(-0.0324345 -0.03501 0)
(-0.0731712 -0.0889416 0)
(-0.141356 -0.173214 0)
(-0.226446 -0.264758 0)
(-0.255334 -0.2822 0)
(-0.161588 -0.17754 0)
(-0.0403215 -0.0560976 0)
(0.0296989 -0.0203712 0)
(0.0960493 -0.0500164 0)
(0.126037 -0.0867278 0)
(0.0867435 -0.0808826 0)
(0.0327335 -0.0543724 0)
(0.00525143 -0.033715 0)
(-0.00255919 -0.0188482 0)
(-0.0122284 -0.00779628 0)
(-0.0207816 -0.00114357 0)
(-0.0230098 -0.00324703 0)
(-0.0182599 -0.0163786 0)
(-0.0110551 -0.0285317 0)
(-0.0153779 -0.0256136 0)
(-0.0241454 -0.00932355 0)
(-0.0129875 0.000708126 0)
(0.00902218 -0.0317007 0)
(0.0322825 -0.045528 0)
(0.0434645 -0.0802075 0)
(0.030718 -0.116472 0)
(0.0145849 -0.135354 0)
(0.0181062 -0.137557 0)
(0.035103 -0.128887 0)
(0.047925 -0.122842 0)
(0.0602813 -0.119618 0)
(0.0730175 -0.11504 0)
(0.0826957 -0.104962 0)
(0.087518 -0.085774 0)
(0.0835023 -0.0587168 0)
(0.0652357 -0.0368652 0)
(0.0387365 -0.0274796 0)
(0.0139638 -0.0314946 0)
(-0.00918877 -0.0479218 0)
(-0.0425035 -0.0874789 0)
(-0.0940509 -0.156191 0)
(-0.165097 -0.241971 0)
(-0.233703 -0.306401 0)
(-0.229693 -0.284785 0)
(-0.133855 -0.172909 0)
(-0.0473041 -0.0609175 0)
(-0.00887586 -0.0228206 0)
(0.018184 -0.024955 0)
(0.0575078 -0.0477737 0)
(0.0980043 -0.0973065 0)
(0.0932813 -0.11855 0)
(0.0554072 -0.107192 0)
(0.0275267 -0.0860909 0)
(0.015039 -0.0678408 0)
(0.00348842 -0.0502144 0)
(-0.00960552 -0.0286224 0)
(-0.023669 -0.0143027 0)
(-0.0279672 -0.0118773 0)
(-0.018622 -0.017934 0)
(-0.00934684 -0.0261604 0)
(-0.0105679 -0.0144986 0)
(-0.00722235 -0.00664354 0)
(-0.00298108 -0.038106 0)
(0.000643203 -0.0632954 0)
(0.00843956 -0.10122 0)
(0.0113961 -0.124604 0)
(0.018561 -0.126103 0)
(0.032175 -0.115005 0)
(0.0444938 -0.114855 0)
(0.0517144 -0.117876 0)
(0.0604487 -0.122157 0)
(0.075399 -0.12649 0)
(0.0925496 -0.127175 0)
(0.103506 -0.122656 0)
(0.0982135 -0.116021 0)
(0.0736087 -0.112682 0)
(0.0395321 -0.119757 0)
(-0.000562812 -0.138468 0)
(-0.0522637 -0.180866 0)
(-0.116238 -0.243911 0)
(-0.181309 -0.303498 0)
(-0.21792 -0.32301 0)
(-0.182612 -0.261247 0)
(-0.0978083 -0.145867 0)
(-0.0396074 -0.0536469 0)
(-0.0169571 -0.0229371 0)
(-0.00566673 -0.0143067 0)
(0.00565324 -0.0218704 0)
(0.0263288 -0.0381182 0)
(0.057835 -0.0754505 0)
(0.0772178 -0.113641 0)
(0.0640119 -0.120677 0)
(0.0431713 -0.107826 0)
(0.0320128 -0.0935917 0)
(0.0255639 -0.078982 0)
(0.0138242 -0.0560791 0)
(-0.0068737 -0.0348827 0)
(-0.0217592 -0.0197523 0)
(-0.0248188 -0.01106 0)
(-0.0120674 -0.013358 0)
(-0.00533819 -0.0124787 0)
(-0.00541807 -0.0185647 0)
(-0.0152513 -0.0166069 0)
(-0.0285367 -0.0201586 0)
(-0.0156144 -0.0415046 0)
(0.00674034 -0.0599122 0)
(0.0238344 -0.0682262 0)
(0.028945 -0.0775841 0)
(0.0323364 -0.0945516 0)
(0.040889 -0.114336 0)
(0.0519802 -0.12988 0)
(0.068182 -0.137495 0)
(0.0863903 -0.139056 0)
(0.098266 -0.141549 0)
(0.0931144 -0.147699 0)
(0.0616357 -0.16313 0)
(0.0138874 -0.190367 0)
(-0.0449234 -0.237452 0)
(-0.110797 -0.292631 0)
(-0.160676 -0.324458 0)
(-0.170274 -0.297992 0)
(-0.124382 -0.21078 0)
(-0.0630011 -0.107033 0)
(-0.029642 -0.0415996 0)
(-0.0153954 -0.0184507 0)
(-0.00939441 -0.0102706 0)
(-0.00784802 -0.0104871 0)
(-0.00476166 -0.0139278 0)
(0.00587609 -0.024071 0)
(0.0252275 -0.0436594 0)
(0.0496989 -0.0752315 0)
(0.0610116 -0.0978505 0)
(0.0536275 -0.0957686 0)
(0.0428337 -0.0833444 0)
(0.0396369 -0.0726312 0)
(0.0328902 -0.0580453 0)
(0.0113368 -0.0422729 0)
(-0.00501081 -0.0286652 0)
(-0.0124602 -0.0140161 0)
(-0.010714 -0.00768523 0)
(-0.0155852 -0.0183445 0)
(-0.013087 -0.0103883 0)
(-0.00640358 -0.00234276 0)
(-0.0233491 0.00683879 0)
(-0.0298685 0.0030406 0)
(-0.0143539 -0.00795317 0)
(0.00153177 -0.0188496 0)
(0.00680692 -0.0310974 0)
(0.00907876 -0.0418231 0)
(0.0176707 -0.0552327 0)
(0.0381311 -0.0659175 0)
(0.0665568 -0.0696045 0)
(0.0886431 -0.067604 0)
(0.095177 -0.0672667 0)
(0.0774174 -0.0708096 0)
(0.0324927 -0.083556 0)
(-0.0320876 -0.101052 0)
(-0.0991082 -0.131266 0)
(-0.136105 -0.157282 0)
(-0.121404 -0.157529 0)
(-0.0717645 -0.116527 0)
(-0.0339054 -0.0553025 0)
(-0.0195843 -0.0226368 0)
(-0.0124467 -0.0102474 0)
(-0.00941755 -0.00479257 0)
(-0.00928309 -0.00404395 0)
(-0.00919094 -0.00467705 0)
(-0.00743666 -0.00543755 0)
(-0.00232169 -0.00745299 0)
(0.00853485 -0.0139447 0)
(0.0249973 -0.0247756 0)
(0.0442216 -0.0395784 0)
(0.05715 -0.0421991 0)
(0.0543088 -0.035923 0)
(0.0499429 -0.030291 0)
(0.0430786 -0.0252281 0)
(0.0214381 -0.0197181 0)
(0.00547011 -0.0147456 0)
(-0.00460177 -0.00884164 0)
(-0.0162383 -0.00659065 0)
(-0.00794294 -0.0145745 0)
(0.00224879 0.00133999 0)
(-0.00640358 0.00234276 0)
(-0.0233491 -0.00683879 0)
(-0.0298685 -0.0030406 0)
(-0.0143539 0.00795317 0)
(0.00153177 0.0188496 0)
(0.00680692 0.0310974 0)
(0.00907876 0.0418231 0)
(0.0176707 0.0552327 0)
(0.0381311 0.0659175 0)
(0.0665568 0.0696045 0)
(0.0886431 0.067604 0)
(0.095177 0.0672667 0)
(0.0774174 0.0708096 0)
(0.0324927 0.083556 0)
(-0.0320876 0.101052 0)
(-0.0991082 0.131266 0)
(-0.136105 0.157282 0)
(-0.121404 0.157529 0)
(-0.0717645 0.116527 0)
(-0.0339054 0.0553025 0)
(-0.0195843 0.0226368 0)
(-0.0124467 0.0102474 0)
(-0.00941755 0.00479257 0)
(-0.00928309 0.00404395 0)
(-0.00919094 0.00467705 0)
(-0.00743666 0.00543755 0)
(-0.00232169 0.00745299 0)
(0.00853485 0.0139447 0)
(0.0249973 0.0247756 0)
(0.0442216 0.0395784 0)
(0.05715 0.0421991 0)
(0.0543088 0.035923 0)
(0.0499429 0.030291 0)
(0.0430786 0.0252281 0)
(0.0214381 0.0197181 0)
(0.00547011 0.0147456 0)
(-0.00460177 0.00884164 0)
(-0.0162383 0.00659065 0)
(-0.00794294 0.0145745 0)
(0.00224879 -0.00133999 0)
(-0.0152513 0.0166069 0)
(-0.0285367 0.0201586 0)
(-0.0156144 0.0415046 0)
(0.00674034 0.0599122 0)
(0.0238344 0.0682262 0)
(0.028945 0.0775841 0)
(0.0323364 0.0945516 0)
(0.040889 0.114336 0)
(0.0519802 0.12988 0)
(0.068182 0.137495 0)
(0.0863903 0.139056 0)
(0.098266 0.141549 0)
(0.0931144 0.147699 0)
(0.0616357 0.16313 0)
(0.0138874 0.190367 0)
(-0.0449234 0.237452 0)
(-0.110797 0.292631 0)
(-0.160676 0.324458 0)
(-0.170274 0.297992 0)
(-0.124382 0.21078 0)
(-0.0630011 0.107033 0)
(-0.029642 0.0415996 0)
(-0.0153954 0.0184507 0)
(-0.00939441 0.0102706 0)
(-0.00784802 0.0104871 0)