/*--------------------------------*- C++ -*----------------------------------*\
| =========                 |                                                 |
| \\      /  F ield         | OpenFOAM: The Open Source CFD Toolbox           |
|  \\    /   O peration     | Version:  v1912                                 |
|   \\  /    A nd           | Website:  www.openfoam.com                      |
|    \\/     M anipulation  |                                                 |
\*---------------------------------------------------------------------------*/
FoamFile
{
    version     2.0;
    format      ascii;
    class       volVectorField;
    location    "1.72";
    object      grad(T);
}
// * * * * * * * * * * * * * * * * * * * * * * * * * * * * * * * * * * * * * //

dimensions      [0 -1 0 1 0 0 0];


internalField   nonuniform List<vector> 
1900
(
(0.102423 5.34019e-06 0)
(0.0413712 8.24994e-06 0)
(0.0353902 7.63308e-06 0)
(0.0161743 1.89067e-05 0)
(0.00631779 -5.63132e-06 0)
(0.00205306 0.000219874 0)
(0.000150028 0.000154953 0)
(0.00288175 -0.00053469 0)
(0.00890239 -0.00232498 0)
(-0.00157571 -0.00232997 0)
(0.102436 8.74314e-06 0)
(0.0413735 1.68321e-05 0)
(0.0354008 1.99672e-05 0)
(0.016161 2.42065e-05 0)
(0.00651876 -6.11507e-05 0)
(0.00221365 0.000209429 0)
(-0.000604536 0.000153277 0)
(0.000401813 -0.000407799 0)
(0.00710711 -0.00160008 0)
(0.0139898 -0.00214449 0)
(0.102448 -2.27682e-13 0)
(0.0413824 -1.23599e-13 0)
(0.0353976 -2.51535e-13 0)
(0.0160931 2.21177e-13 0)
(0.00650302 5.46438e-13 0)
(0.00226749 5.5728e-13 0)
(-0.0004672 3.90313e-13 0)
(0.00112839 9.32414e-14 0)
(0.0071657 -1.30104e-14 0)
(0.0122958 -8.67362e-14 0)
(0.102436 -8.74314e-06 0)
(0.0413735 -1.68321e-05 0)
(0.0354008 -1.99672e-05 0)
(0.016161 -2.42065e-05 0)
(0.00651876 6.11507e-05 0)
(0.00221365 -0.000209429 0)
(-0.000604536 -0.000153277 0)
(0.000401813 0.000407799 0)
(0.00710711 0.00160008 0)
(0.0139898 0.00214449 0)
(0.102423 -5.34019e-06 0)
(0.0413712 -8.24994e-06 0)
(0.0353902 -7.63308e-06 0)
(0.0161743 -1.89067e-05 0)
(0.00631779 5.63132e-06 0)
(0.00205306 -0.000219874 0)
(0.000150028 -0.000154953 0)
(0.00288175 0.00053469 0)
(0.00890239 0.00232498 0)
(-0.00157571 0.00232997 0)
(0.00870094 0.0108598 1.00165e-15)
(0.0406011 0.0117088 -1.21802e-15)
(0.0304908 0.0123229 -1.54667e-15)
(-0.130657 0.0316367 0)
(-0.0646085 0.24188 -6.51782e-15)
(0.0235247 0.0100684 1.00362e-15)
(0.0368174 0.00797572 1.21802e-15)
(0.0386822 0.00486598 1.54667e-15)
(-0.0365143 0.0107997 0)
(-0.0407486 0.196438 0)
(0.023443 -5.10675e-14 0)
(0.0356998 -4.75527e-14 0)
(0.0344976 1.05409e-13 0)
(-0.0350705 2.25875e-13 0)
(0.0642344 3.67854e-13 0)
(0.0235247 -0.0100684 1.00362e-15)
(0.0368174 -0.00797572 1.21802e-15)
(0.0386822 -0.00486598 1.54667e-15)
(-0.0365143 -0.0107997 0)
(-0.0407486 -0.196438 0)
(0.00870094 -0.0108598 -3.00889e-15)
(0.0406011 -0.0117088 -1.21802e-15)
(0.0304908 -0.0123229 -1.54667e-15)
(-0.130657 -0.0316367 -4.22107e-15)
(-0.0646085 -0.24188 6.51782e-15)
(0.201432 -0.0988487 2.8777e-15)
(-0.0561595 -0.0226372 -2.42051e-15)
(-0.101608 -0.0113642 0)
(-0.247971 0.0911609 1.823e-15)
(-0.683175 0.249945 -7.9017e-16)
(0.113987 -0.114398 -1.43736e-15)
(-0.036591 -0.0247784 1.20991e-15)
(-0.0593013 -0.022338 0)
(-0.137234 0.0969915 -1.14182e-15)
(-0.246126 0.282984 2.01555e-16)
(0.134605 5.96859e-13 0)
(-0.0353042 2.50201e-13 0)
(-0.055572 1.72669e-13 0)
(-0.125343 4.57066e-13 4.57897e-16)
(-0.254539 4.62847e-13 -4.0311e-16)
(0.113987 0.114398 -1.43736e-15)
(-0.036591 0.0247784 1.20991e-15)
(-0.0593013 0.022338 0)
(-0.137234 -0.0969915 -1.14182e-15)
(-0.246126 -0.282984 2.01555e-16)
(0.201432 0.0988487 1.43736e-15)
(-0.0561595 0.0226372 6.81758e-19)
(-0.101608 0.0113642 0)
(-0.247971 -0.0911609 2.74547e-18)
(-0.683175 -0.249945 7.9017e-16)
(-0.786067 2.34942 0)
(-0.0818535 0.910635 0)
(0.224408 0.288386 0)
(0.0262384 0.0705987 0)
(-0.00230796 0.0221321 0)
(0.0431538 0.0078201 0)
(0.0776191 0.00764929 0)
(0.101113 0.00298038 0)
(0.119026 0.00151245 0)
(0.128515 0.000783395 0)
(0.131149 0.000540749 0)
(0.126345 0.000467551 0)
(0.111006 0.000465547 0)
(0.0809921 0.000405761 0)
(0.0418803 0.000217875 0)
(0.0124869 4.88278e-05 0)
(0.0016098 2.88144e-06 0)
(6.07825e-05 3.01569e-08 0)
(4.46419e-07 4.9069e-11 0)
(4.42427e-10 1.20484e-11 0)
(-6.06053e-10 1.21115e-11 0)
(-5.67006e-07 1.2904e-11 0)
(-7.28289e-05 1.26911e-11 0)
(-0.00184203 1.43824e-11 0)
(-0.0138158 1.78874e-11 0)
(-0.0452998 1.3243e-11 0)
(-0.0863851 1.34638e-11 0)
(-0.117783 1.2147e-11 0)
(-0.134754 1.08499e-11 0)
(-0.142597 9.0797e-12 0)
(-0.145781 5.36976e-12 0)
(-0.14634 3.13433e-12 0)
(-0.144932 1.90425e-12 0)
(-0.140331 9.265e-13 0)
(-0.126599 1.21825e-12 0)
(-0.096695 2.75979e-13 0)
(-0.086422 4.49451e-13 0)
(-0.352243 2.44438e-13 0)
(-0.642929 3.5483e-13 0)
(-0.33856 -1.28133e-13 0)
(-0.621631 1.26252 0)
(-0.383808 0.973685 0)
(0.062681 0.311657 0)
(-0.030548 0.0498185 0)
(-0.0101428 0.0117328 0)
(0.0415599 0.0024693 0)
(0.0774107 0.00383525 0)
(0.1004 0.00129749 0)
(0.118808 0.000619394 0)
(0.128432 0.000308494 0)
(0.131128 0.000231808 0)
(0.126341 0.000211661 0)
(0.110997 0.00021582 0)
(0.0809644 0.000179025 0)
(0.0418466 9.44322e-05 0)
(0.0124677 2.19307e-05 0)
(0.00160532 1.33471e-06 0)
(6.05123e-05 1.22189e-08 0)
(4.44016e-07 -4.94002e-12 0)
(4.42758e-10 -5.85075e-12 0)
(-6.06104e-10 -5.98085e-12 0)
(-5.67006e-07 -6.22529e-12 0)
(-7.28289e-05 -3.97015e-12 0)
(-0.00184203 -9.2098e-12 0)
(-0.0138158 -1.11732e-11 0)
(-0.0452998 -7.08477e-12 0)
(-0.0863851 -7.60519e-12 0)
(-0.117783 -6.87976e-12 0)
(-0.134754 -5.29879e-12 0)
(-0.142597 -4.49451e-12 0)
(-0.145781 -2.61786e-12 0)
(-0.14634 -1.06055e-12 0)
(-0.144932 -7.37257e-13 0)
(-0.140331 -1.6953e-13 0)
(-0.126599 -9.30443e-13 0)
(-0.096695 -6.66292e-13 0)
(-0.086422 -8.00338e-13 0)
(-0.352243 -1.81357e-13 0)
(-0.642929 -4.33681e-14 0)
(-0.33856 -4.49451e-13 0)
(-0.518222 8.12166e-13 0)
(-0.358467 4.33681e-13 0)
(-0.0443532 -1.18277e-14 0)
(-0.0610123 -3.03577e-13 0)
(-0.0160823 2.75979e-14 0)
(0.0408564 6.30809e-14 0)
(0.0772782 -2.75979e-14 0)
(0.100177 -1.30104e-13 0)
(0.118738 2.08955e-13 0)
(0.128402 2.72036e-13 0)
(0.131121 -3.94255e-15 0)
(0.126341 -1.81357e-13 0)
(0.110997 -2.68094e-13 0)
(0.0809568 1.22219e-13 0)
(0.0418346 -3.15404e-14 0)
(0.0124599 -7.49085e-14 0)
(0.00160342 -1.89243e-13 0)
(6.03942e-05 2.05013e-13 0)
(4.42863e-07 -4.25796e-13 0)
(4.42123e-10 1.30104e-13 0)
(-6.06162e-10 -1.22219e-13 0)
(-5.67005e-07 3.94255e-14 0)
(-7.28289e-05 2.53112e-12 0)
(-0.00184203 -2.05407e-12 0)
(-0.0138158 -9.93523e-13 0)
(-0.0452998 -7.33315e-13 0)
(-0.0863851 3.07519e-13 0)
(-0.117783 -3.43002e-13 0)
(-0.134754 4.73106e-13 0)
(-0.142597 7.88511e-13 0)
(-0.145781 2.64151e-13 0)
(-0.14634 1.02506e-12 0)
(-0.144932 3.94255e-13 0)
(-0.140331 3.94255e-13 0)
(-0.126599 -2.91749e-13 0)
(-0.096695 -4.06083e-13 0)
(-0.086422 -3.43002e-13 0)
(-0.352243 7.88511e-15 0)
(-0.642929 4.33681e-14 0)
(-0.33856 -3.31174e-13 0)
(-0.621631 -1.26252 0)
(-0.383808 -0.973685 0)
(0.062681 -0.311657 0)
(-0.030548 -0.0498185 0)
(-0.0101428 -0.0117328 0)
(0.0415599 -0.0024693 0)
(0.0774107 -0.00383525 0)
(0.1004 -0.00129749 0)
(0.118808 -0.000619394 0)
(0.128432 -0.000308494 0)
(0.131128 -0.000231808 0)
(0.126341 -0.000211661 0)
(0.110997 -0.00021582 0)
(0.0809644 -0.000179025 0)
(0.0418466 -9.44322e-05 0)
(0.0124677 -2.19307e-05 0)
(0.00160532 -1.33471e-06 0)
(6.05123e-05 -1.22186e-08 0)
(4.44016e-07 3.64686e-12 0)
(4.42844e-10 5.89806e-12 0)
(-6.06128e-10 5.70093e-12 0)
(-5.67005e-07 6.32386e-12 0)
(-7.2829e-05 9.04816e-12 0)
(-0.00184203 4.62067e-12 0)
(-0.0138158 9.11518e-12 0)
(-0.0452998 5.68516e-12 0)
(-0.0863851 8.08223e-12 0)
(-0.117783 6.26866e-12 0)
(-0.134754 6.22923e-12 0)
(-0.142597 6.03605e-12 0)
(-0.145781 3.15404e-12 0)
(-0.14634 2.88989e-12 0)
(-0.144932 1.4548e-12 0)
(-0.140331 8.63419e-13 0)
(-0.126599 5.44072e-13 0)
(-0.096695 2.75979e-14 0)
(-0.086422 1.10391e-13 0)
(-0.352243 1.61645e-13 0)
(-0.642929 2.05013e-13 0)
(-0.33856 1.49817e-13 0)
(-0.786067 -2.34942 0)
(-0.0818535 -0.910635 0)
(0.224408 -0.288386 0)
(0.0262384 -0.0705987 0)
(-0.00230796 -0.0221321 0)
(0.0431538 -0.0078201 0)
(0.0776191 -0.00764929 0)
(0.101113 -0.00298038 0)
(0.119026 -0.00151245 0)
(0.128515 -0.000783395 0)
(0.131149 -0.000540749 0)
(0.126345 -0.000467551 0)
(0.111006 -0.000465547 0)
(0.0809921 -0.000405761 0)
(0.0418803 -0.000217875 0)
(0.0124869 -4.88278e-05 0)
(0.0016098 -2.88144e-06 0)
(6.07825e-05 -3.01569e-08 0)
(4.46419e-07 -4.8726e-11 0)
(4.42721e-10 -1.21509e-11 0)
(-6.06038e-10 -1.21155e-11 0)
(-5.67005e-07 -1.29119e-11 0)
(-7.2829e-05 -1.44928e-11 0)
(-0.00184203 -1.29434e-11 0)
(-0.0138158 -1.54312e-11 0)
(-0.0452998 -1.2837e-11 0)
(-0.0863851 -1.36807e-11 0)
(-0.117783 -1.19499e-11 0)
(-0.134754 -1.07632e-11 0)
(-0.142597 -9.39116e-12 0)
(-0.145781 -5.43284e-12 0)
(-0.14634 -4.04112e-12 0)
(-0.144932 -2.32216e-12 0)
(-0.140331 -1.65587e-12 0)
(-0.126599 -1.67559e-12 0)
(-0.096695 -4.96762e-13 0)
(-0.086422 -2.79921e-13 0)
(-0.352243 -2.44438e-13 0)
(-0.642929 -3.03577e-13 0)
(-0.33856 2.81893e-13 0)
(0.223056 -1.4174 0)
(0.559889 -0.376264 0)
(0.402616 -0.124027 0)
(0.0708066 -0.0831437 0)
(0.0201775 -0.0343063 0)
(0.0488016 -0.0176568 0)
(0.0802056 -0.0118979 0)
(0.103426 -0.00581542 0)
(0.119935 -0.00294649 0)
(0.128945 -0.00155035 0)
(0.131303 -0.00105275 0)
(0.126384 -0.000931503 0)
(0.111026 -0.000889959 0)
(0.0810877 -0.000718571 0)
(0.0420317 -0.000360453 0)
(0.0125803 -7.66534e-05 0)
(0.00163076 -4.53789e-06 0)
(6.20072e-05 -7.23032e-08 0)
(4.60146e-07 -2.32278e-08 0)
(4.65954e-10 -2.31523e-08 0)
(-6.06716e-10 -2.31522e-08 0)
(-5.67007e-07 -2.31529e-08 0)
(-7.28289e-05 -2.31543e-08 0)
(-0.00184203 -2.31518e-08 0)
(-0.0138158 -2.31223e-08 0)
(-0.0452998 -2.28627e-08 0)
(-0.0863851 -2.19719e-08 0)
(-0.117783 -2.01329e-08 0)
(-0.134754 -1.73871e-08 0)
(-0.142597 -1.40747e-08 0)
(-0.145781 -1.06542e-08 0)
(-0.14634 -7.53732e-09 0)
(-0.144932 -4.97836e-09 0)
(-0.140331 -3.07249e-09 0)
(-0.126599 -1.78024e-09 0)
(-0.096695 -9.92142e-10 0)
(-0.086422 -5.48448e-10 0)
(-0.352243 -2.72244e-10 0)
(-0.642929 -8.02031e-11 0)
(-0.33856 -6.21882e-13 0)
(0.472974 -0.321053 0)
(0.820367 -0.0389058 0)
(0.411308 -0.0576053 0)
(0.0887973 -0.0664544 0)
(0.0487402 -0.041722 0)
(0.0617188 -0.0253362 0)
(0.0876429 -0.0158649 0)
(0.108498 -0.00862077 0)
(0.122648 -0.00467639 0)
(0.13011 -0.00272961 0)
(0.131663 -0.00200314 0)
(0.126481 -0.00175365 0)
(0.111201 -0.00152087 0)
(0.0814511 -0.00108254 0)
(0.0424177 -0.000492533 0)
(0.0127799 -0.000104534 0)
(0.00167235 -1.34272e-05 0)
(6.44762e-05 -7.84116e-06 0)
(4.86422e-07 -7.78016e-06 0)
(5.03067e-10 -7.78008e-06 0)
(-6.06244e-10 -7.78008e-06 0)
(-5.67005e-07 -7.78008e-06 0)
(-7.28289e-05 -7.78007e-06 0)
(-0.00184203 -7.77971e-06 0)
(-0.0138158 -7.77039e-06 0)
(-0.0452998 -7.69952e-06 0)
(-0.0863851 -7.463e-06 0)
(-0.117783 -6.98423e-06 0)
(-0.134754 -6.26215e-06 0)
(-0.142597 -5.35978e-06 0)
(-0.145781 -4.37225e-06 0)
(-0.14634 -3.39642e-06 0)
(-0.144932 -2.51047e-06 0)
(-0.140331 -1.76606e-06 0)
(-0.126599 -1.18612e-06 0)
(-0.096695 -7.75774e-07 0)
(-0.086422 -5.04093e-07 0)
(-0.352243 -2.94328e-07 0)
(-0.642929 -1.15025e-07 0)
(-0.33856 -3.1092e-09 0)
(0.494944 0.009086 0)
(0.813756 -0.0017154 0)
(0.376069 -0.0396767 0)
(0.0861123 -0.0487398 0)
(0.0598005 -0.0426051 0)
(0.0737185 -0.0285116 0)
(0.0963131 -0.0183484 0)
(0.114208 -0.0110124 0)
(0.125612 -0.00697599 0)
(0.131521 -0.0048802 0)
(0.132243 -0.00387062 0)
(0.126849 -0.00322794 0)
(0.111673 -0.0025551 0)
(0.0820787 -0.00176549 0)
(0.0429741 -0.000994042 0)
(0.013042 -0.000536579 0)
(0.00172393 -0.000432738 0)
(6.74489e-05 -0.000426722 0)
(5.19006e-07 -0.000426658 0)
(5.47902e-10 -0.000426658 0)
(-6.06332e-10 -0.000426658 0)
(-5.67004e-07 -0.000426658 0)
(-7.28286e-05 -0.000426658 0)
(-0.00184202 -0.000426639 0)
(-0.0138158 -0.000426183 0)
(-0.0452995 -0.00042296 0)
(-0.0863844 -0.000412833 0)
(-0.117782 -0.000393073 0)
(-0.134753 -0.000363483 0)
(-0.142595 -0.000325757 0)
(-0.14578 -0.000282655 0)
(-0.146338 -0.000237286 0)
(-0.144931 -0.000192584 0)
(-0.14033 -0.000151117 0)
(-0.126598 -0.000114876 0)
(-0.0966944 -8.58846e-05 0)
(-0.0864215 -6.38338e-05 0)
(-0.352243 -4.31144e-05 0)
(-0.642928 -2.14714e-05 0)
(-0.338559 -1.38471e-06 0)
(0.462565 0.0526515 0)
(0.773377 -0.0380884 0)
(0.365994 -0.0442102 0)
(0.0859755 -0.0464994 0)
(0.0682328 -0.0432271 0)
(0.0850934 -0.0323084 0)
(0.104506 -0.0225029 0)
(0.119457 -0.0157504 0)
(0.128557 -0.0119314 0)
(0.133102 -0.0100451 0)
(0.133255 -0.00907813 0)
(0.127749 -0.00844388 0)
(0.11261 -0.00775108 0)
(0.0829554 -0.00689234 0)
(0.0436019 -0.00611553 0)
(0.0133207 -0.00571704 0)
(0.00177822 -0.00563269 0)
(7.03344e-05 -0.00562802 0)
(5.48211e-07 -0.00562797 0)
(5.87389e-10 -0.00562797 0)
(-6.05982e-10 -0.00562797 0)
(-5.66847e-07 -0.00562797 0)
(-7.28102e-05 -0.00562797 0)
(-0.00184157 -0.00562771 0)
(-0.0138123 -0.00562205 0)
(-0.045287 -0.00558538 0)
(-0.0863563 -0.00547932 0)
(-0.117736 -0.00528458 0)
(-0.134689 -0.00500142 0)
(-0.142519 -0.00464069 0)
(-0.145696 -0.00421932 0)
(-0.146253 -0.00375737 0)
(-0.144849 -0.00327536 0)
(-0.140256 -0.00279491 0)
(-0.126536 -0.00233804 0)
(-0.0966459 -0.00193881 0)
(-0.0863808 -0.00159672 0)
(-0.352203 -0.00121788 0)
(-0.642888 -0.000742081 0)
(-0.33854 -0.000105272 0)
(0.407503 0.0610622 0)
(0.720417 -0.0525024 0)
(0.367964 -0.0485474 0)
(0.0870596 -0.0498274 0)
(0.0734754 -0.0475454 0)
(0.0936891 -0.0403022 0)
(0.112269 -0.0336511 0)
(0.124395 -0.0300233 0)
(0.13111 -0.0284051 0)
(0.13427 -0.0279329 0)
(0.133786 -0.0278788 0)
(0.128128 -0.0278821 0)
(0.113168 -0.0277629 0)
(0.0836548 -0.0274579 0)
(0.0441067 -0.027122 0)
(0.0135073 -0.0269603 0)
(0.00180971 -0.0269305 0)
(7.19922e-05 -0.0269289 0)
(5.64671e-07 -0.0269289 0)
(6.09669e-10 -0.0269289 0)
(-6.03197e-10 -0.0269289 0)
(-5.64727e-07 -0.0269289 0)
(-7.25768e-05 -0.0269289 0)
(-0.00183632 -0.0269275 0)
(-0.013775 -0.0269001 0)
(-0.045162 -0.0267383 0)
(-0.0860945 -0.0263145 0)
(-0.117322 -0.0255991 0)
(-0.134132 -0.0246132 0)
(-0.141841 -0.0233872 0)
(-0.144928 -0.0219573 0)
(-0.145429 -0.0203645 0)
(-0.144003 -0.0186509 0)
(-0.139427 -0.0168682 0)
(-0.125773 -0.0150866 0)
(-0.09598 -0.0134542 0)
(-0.0857268 -0.0118914 0)
(-0.351419 -0.00993314 0)
(-0.641856 -0.00709503 0)
(-0.337946 -0.0019655 0)
(0.35313 0.0239205 0)
(0.667753 -0.0562971 0)
(0.368571 -0.0544264 0)
(0.086941 -0.0623752 0)
(0.0774116 -0.0669744 0)
(0.0984825 -0.0657371 0)
(0.114411 -0.0629232 0)
(0.124512 -0.0619276 0)
(0.130572 -0.0621008 0)
(0.133609 -0.0628011 0)
(0.133304 -0.0635714 0)
(0.12786 -0.0642002 0)
(0.113019 -0.0647216 0)
(0.083573 -0.0651854 0)
(0.0440813 -0.0655389 0)
(0.0135054 -0.0657163 0)
(0.00180847 -0.0657577 0)
(7.18296e-05 -0.0657603 0)
(5.61911e-07 -0.0657603 0)
(6.0395e-10 -0.0657603 0)
(-5.89619e-10 -0.0657603 0)
(-5.543e-07 -0.0657603 0)
(-7.14949e-05 -0.0657603 0)
(-0.00181386 -0.0657564 0)
(-0.0136299 -0.0656835 0)
(-0.0447226 -0.0652898 0)
(-0.0852585 -0.064365 0)
(-0.116096 -0.0629585 0)
(-0.132558 -0.0611652 0)
(-0.13996 -0.0590395 0)
(-0.142783 -0.0566211 0)
(-0.143067 -0.0539473 0)
(-0.14148 -0.0510499 0)
(-0.136822 -0.0479784 0)
(-0.123247 -0.0448482 0)
(-0.0935668 -0.0419785 0)
(-0.0829877 -0.0389026 0)
(-0.347581 -0.0345278 0)
(-0.635211 -0.0277939 0)
(-0.333597 -0.0126904 0)
(0.330203 -0.0262212 0)
(0.644919 -0.0720745 0)
(0.362107 -0.0799436 0)
(0.0749679 -0.0957412 0)
(0.0702359 -0.103411 0)
(0.097593 -0.103449 0)
(0.11594 -0.100728 0)
(0.125187 -0.0990337 0)
(0.130268 -0.0985129 0)
(0.132853 -0.0987422 0)
(0.132438 -0.0994282 0)
(0.127019 -0.10033 0)
(0.112218 -0.101329 0)
(0.0828672 -0.102394 0)
(0.043595 -0.103359 0)
(0.0132965 -0.103898 0)
(0.00176738 -0.104019 0)
(6.94466e-05 -0.104026 0)
(5.35744e-07 -0.104026 0)
(5.66291e-10 -0.104026 0)
(-5.53952e-10 -0.104026 0)
(-5.27658e-07 -0.104026 0)
(-6.88466e-05 -0.104026 0)
(-0.00176237 -0.104019 0)
(-0.0133253 -0.103885 0)
(-0.0438915 -0.103216 0)
(-0.083848 -0.101801 0)
(-0.114238 -0.0998832 0)
(-0.130356 -0.0976642 0)
(-0.137463 -0.0952122 0)
(-0.140021 -0.0925555 0)
(-0.14006 -0.0897123 0)
(-0.138251 -0.0866884 0)
(-0.13345 -0.0834975 0)
(-0.119992 -0.0802763 0)
(-0.0902506 -0.0774994 0)
(-0.078547 -0.0744453 0)
(-0.340715 -0.0687342 0)
(-0.620813 -0.0598588 0)
(-0.323391 -0.0388542 0)
(0.308945 -0.0674884 0)
(0.615985 -0.0989363 0)
(0.345765 -0.119834 0)
(0.0643269 -0.13239 0)
(0.0699845 -0.132141 0)
(0.101068 -0.127491 0)
(0.118665 -0.12391 0)
(0.126647 -0.12208 0)
(0.130853 -0.121242 0)
(0.132727 -0.121112 0)
(0.131774 -0.121595 0)
(0.126029 -0.122574 0)
(0.111029 -0.123909 0)
(0.0816163 -0.125503 0)
(0.0426323 -0.127053 0)
(0.0128696 -0.127937 0)
(0.00168494 -0.128133 0)
(6.48241e-05 -0.128144 0)
(4.86917e-07 -0.128144 0)
(4.98829e-10 -0.128144 0)
(-4.91569e-10 -0.128144 0)
(-4.81578e-07 -0.128144 0)
(-6.43406e-05 -0.128144 0)
(-0.001678 -0.128133 0)
(-0.012856 -0.127937 0)
(-0.042714 -0.127001 0)
(-0.0820473 -0.125182 0)
(-0.11211 -0.12296 0)
(-0.128057 -0.12062 0)
(-0.135037 -0.118219 0)
(-0.137484 -0.115764 0)
(-0.137414 -0.113259 0)
(-0.135491 -0.110693 0)
(-0.130643 -0.108072 0)
(-0.117467 -0.105508 0)
(-0.0879479 -0.103535 0)
(-0.0745413 -0.101971 0)
(-0.333524 -0.0972099 0)
(-0.606417 -0.0865868 0)
(-0.313356 -0.0715273 0)
(0.299898 -0.107511 0)
(0.594477 -0.113725 0)
(0.32987 -0.140434 0)
(0.0631083 -0.14493 0)
(0.0749573 -0.140068 0)
(0.105525 -0.135228 0)
(0.121154 -0.132451 0)
(0.127758 -0.13116 0)
(0.131201 -0.130691 0)
(0.132513 -0.130869 0)
(0.131029 -0.131569 0)
(0.124789 -0.132788 0)
(0.109396 -0.134494 0)
(0.0798381 -0.136584 0)
(0.0412502 -0.138633 0)
(0.012256 -0.139802 0)
(0.00156764 -0.140057 0)
(5.83969e-05 -0.140072 0)
(4.2121e-07 -0.140072 0)
(4.11466e-10 -0.140072 0)
(-4.08927e-10 -0.140072 0)
(-4.18862e-07 -0.140072 0)
(-5.81429e-05 -0.140072 0)
(-0.00156286 -0.140058 0)
(-0.0122347 -0.139807 0)
(-0.0412365 -0.138632 0)
(-0.0799535 -0.136467 0)
(-0.109843 -0.134024 0)
(-0.125788 -0.131643 0)
(-0.132782 -0.129336 0)
(-0.135241 -0.127082 0)
(-0.135174 -0.124858 0)
(-0.133253 -0.122683 0)
(-0.128454 -0.120508 0)
(-0.115619 -0.118542 0)
(-0.0868431 -0.117127 0)
(-0.0724522 -0.116503 0)
(-0.325889 -0.114092 0)
(-0.596064 -0.0992877 0)
(-0.30888 -0.0953582 0)
(0.302957 -0.123494 0)
(0.584258 -0.115621 0)
(0.315694 -0.143277 0)
(0.0646794 -0.142633 0)
(0.0793337 -0.138966 0)
(0.108409 -0.135505 0)
(0.122586 -0.134064 0)
(0.128343 -0.13334 0)
(0.131133 -0.133407 0)
(0.131882 -0.134018 0)
(0.129925 -0.135149 0)
(0.12321 -0.136721 0)
(0.107371 -0.138764 0)
(0.0776282 -0.141245 0)
(0.0395314 -0.143692 0)
(0.0114972 -0.14508 0)
(0.00142494 -0.145377 0)
(5.0811e-05 -0.145393 0)
(3.46908e-07 -0.145394 0)
(3.17893e-10 -0.145394 0)
(-3.17403e-10 -0.145394 0)
(-3.46317e-07 -0.145394 0)
(-5.07251e-05 -0.145393 0)
(-0.00142272 -0.145378 0)
(-0.0114823 -0.145085 0)
(-0.0394953 -0.143707 0)
(-0.0776066 -0.141234 0)
(-0.107462 -0.138601 0)
(-0.123539 -0.136186 0)
(-0.130641 -0.133949 0)
(-0.133168 -0.131814 0)
(-0.133175 -0.129782 0)
(-0.131299 -0.127775 0)
(-0.126652 -0.125986 0)
(-0.114209 -0.124278 0)
(-0.0859836 -0.123213 0)
(-0.0716164 -0.122452 0)
(-0.316935 -0.1228 0)
(-0.588364 -0.101941 0)
(-0.30957 -0.104898 0)
(0.307485 -0.124529 0)
(0.575413 -0.112488 0)
(0.30384 -0.142104 0)
(0.0672632 -0.137055 0)
(0.0818263 -0.135037 0)
(0.110248 -0.133177 0)
(0.12324 -0.13238 0)
(0.128391 -0.132568 0)
(0.130547 -0.133049 0)
(0.130834 -0.134168 0)
(0.128424 -0.135658 0)
(0.121306 -0.137543 0)
(0.105036 -0.139845 0)
(0.0750897 -0.142619 0)
(0.0375545 -0.145375 0)
(0.0106316 -0.146927 0)
(0.00126585 -0.147249 0)
(4.26975e-05 -0.147265 0)
(2.71858e-07 -0.147265 0)
(2.29664e-10 -0.147265 0)
(-2.29673e-10 -0.147265 0)
(-2.7192e-07 -0.147265 0)
(-4.26907e-05 -0.147265 0)
(-0.00126527 -0.147249 0)
(-0.0106247 -0.146929 0)
(-0.0375262 -0.145389 0)
(-0.0750336 -0.142644 0)
(-0.104978 -0.139836 0)
(-0.121304 -0.137391 0)
(-0.128569 -0.135199 0)
(-0.131226 -0.133175 0)
(-0.131281 -0.131204 0)
(-0.129595 -0.129511 0)
(-0.125084 -0.127697 0)
(-0.112948 -0.126427 0)
(-0.0850832 -0.125148 0)
(-0.0720542 -0.12465 0)
(-0.306125 -0.127257 0)
(-0.578813 -0.100678 0)
(-0.311729 -0.108241 0)
(0.31456 -0.115295 0)
(0.567322 -0.107615 0)
(0.29202 -0.137936 0)
(0.0714892 -0.131517 0)
(0.0830707 -0.129912 0)
(0.11097 -0.129189 0)
(0.123173 -0.129757 0)
(0.127698 -0.130138 0)
(0.129591 -0.131351 0)
(0.129367 -0.132693 0)
(0.126673 -0.134458 0)
(0.119174 -0.136513 0)
(0.10248 -0.138984 0)
(0.0722993 -0.141979 0)
(0.0353805 -0.144983 0)
(0.00969219 -0.146648 0)
(0.00109874 -0.146979 0)
(3.46284e-05 -0.146995 0)
(2.02498e-07 -0.146995 0)
(1.54909e-10 -0.146995 0)
(-1.54961e-10 -0.146995 0)
(-2.02651e-07 -0.146995 0)
(-3.46423e-05 -0.146995 0)
(-0.00109884 -0.146979 0)
(-0.0096905 -0.146649 0)
(-0.0353664 -0.144991 0)
(-0.0722556 -0.142005 0)
(-0.102399 -0.139027 0)
(-0.11907 -0.136542 0)
(-0.126579 -0.134404 0)
(-0.129318 -0.132431 0)
(-0.129644 -0.130714 0)
(-0.12792 -0.128933 0)
(-0.12368 -0.127715 0)
(-0.111753 -0.12596 0)
(-0.0842706 -0.125038 0)
(-0.0736489 -0.125158 0)
(-0.293834 -0.128855 0)
(-0.57004 -0.0999254 0)
(-0.316859 -0.104455 0)
(0.314885 -0.106285 0)
(0.553595 -0.10127 0)
(0.280807 -0.131107 0)
(0.0749955 -0.126432 0)
(0.0840696 -0.124362 0)
(0.110397 -0.124934 0)
(0.122326 -0.12593 0)
(0.126855 -0.127371 0)
(0.128085 -0.128509 0)
(0.12784 -0.130149 0)
(0.124743 -0.131932 0)
(0.116945 -0.134047 0)
(0.0997694 -0.136591 0)
(0.0693088 -0.139745 0)
(0.0330556 -0.14294 0)
(0.00870816 -0.14467 0)
(0.000931188 -0.144996 0)
(2.70772e-05 -0.145011 0)
(1.43187e-07 -0.145011 0)
(9.73599e-11 -0.145011 0)
(-9.74373e-11 -0.145011 0)
(-1.43275e-07 -0.145011 0)
(-2.70885e-05 -0.145011 0)
(-0.000931397 -0.144996 0)
(-0.00870857 -0.14467 0)
(-0.0330515 -0.142943 0)
(-0.0692867 -0.13976 0)
(-0.0997141 -0.136631 0)
(-0.116849 -0.134119 0)
(-0.124607 -0.132023 0)
(-0.127671 -0.130219 0)
(-0.12791 -0.128507 0)
(-0.126705 -0.127203 0)
(-0.122219 -0.125475 0)
(-0.110368 -0.123997 0)
(-0.0843106 -0.122844 0)
(-0.0757318 -0.124149 0)
(-0.28181 -0.127485 0)
(-0.5553 -0.0974966 0)
(-0.316093 -0.100821 0)
(0.319393 -0.097056 0)
(0.543403 -0.0948715 0)
(0.267773 -0.122909 0)
(0.0779882 -0.11978 0)
(0.0845146 -0.11756 0)
(0.109459 -0.118437 0)
(0.120824 -0.1204 0)
(0.125213 -0.122183 0)
(0.126913 -0.123722 0)
(0.126069 -0.125319 0)
(0.122917 -0.127041 0)
(0.114685 -0.12902 0)
(0.096989 -0.13146 0)
(0.0661805 -0.134636 0)
(0.0306344 -0.137926 0)
(0.00771101 -0.13966 0)
(0.000770378 -0.139967 0)
(2.04067e-05 -0.13998 0)
(9.60886e-08 -0.13998 0)
(5.71108e-11 -0.13998 0)
(-5.70691e-11 -0.13998 0)
(-9.61181e-08 -0.13998 0)
(-2.04117e-05 -0.13998 0)
(-0.000770509 -0.139967 0)
(-0.00771173 -0.13966 0)
(-0.0306346 -0.137926 0)
(-0.0661736 -0.134641 0)
(-0.0969637 -0.131483 0)
(-0.114629 -0.129076 0)
(-0.12282 -0.12714 0)
(-0.12593 -0.12547 0)
(-0.126738 -0.123922 0)
(-0.124999 -0.122406 0)
(-0.120591 -0.120608 0)
(-0.109218 -0.118596 0)
(-0.0844171 -0.11761 0)
(-0.0781205 -0.119539 0)
(-0.268151 -0.122135 0)
(-0.544346 -0.0936738 0)
(-0.320062 -0.0950113 0)
(0.31699 -0.08687 0)
(0.528682 -0.0873301 0)
(0.256804 -0.113646 0)
(0.0801502 -0.110642 0)
(0.0853645 -0.107946 0)
(0.10766 -0.107096 0)
(0.118716 -0.108889 0)
(0.123655 -0.11008 0)
(0.125063 -0.111611 0)
(0.124642 -0.112982 0)
(0.121177 -0.114402 0)
(0.112686 -0.115922 0)
(0.0943577 -0.117907 0)
(0.0630788 -0.120834 0)
(0.0282139 -0.124034 0)
(0.00674095 -0.12568 0)
(0.000623319 -0.125952 0)
(1.48604e-05 -0.125962 0)
(6.14163e-08 -0.125962 0)
(3.14833e-11 -0.125962 0)
(-3.13464e-11 -0.125962 0)
(-6.14213e-08 -0.125962 0)
(-1.48617e-05 -0.125962 0)
(-0.000623368 -0.125952 0)
(-0.00674137 -0.12568 0)
(-0.0282151 -0.124033 0)
(-0.0630788 -0.120835 0)
(-0.094351 -0.117915 0)
(-0.112664 -0.115949 0)
(-0.121133 -0.114464 0)
(-0.124569 -0.113098 0)
(-0.124958 -0.111791 0)
(-0.123512 -0.110331 0)
(-0.118549 -0.109229 0)
(-0.107479 -0.10751 0)
(-0.0852187 -0.108441 0)
(-0.0800927 -0.111059 0)
(-0.256886 -0.113926 0)
(-0.529163 -0.087352 0)
(-0.317382 -0.0863595 0)
(0.318949 -0.0567333 0)
(0.5176 -0.0678853 0)
(0.245309 -0.0920392 0)
(0.0834808 -0.0915104 0)
(0.0879314 -0.0876073 0)
(0.108551 -0.0851936 0)
(0.117949 -0.0840391 0)
(0.12259 -0.083781 0)
(0.124116 -0.083597 0)
(0.12338 -0.0842422 0)
(0.120084 -0.0849876 0)
(0.111307 -0.0860002 0)
(0.0922553 -0.0880456 0)
(0.0602764 -0.0913075 0)
(0.025965 -0.0945126 0)
(0.00586316 -0.096011 0)
(0.000498667 -0.0962362 0)
(1.06128e-05 -0.0962437 0)
(3.81175e-08 -0.0962438 0)
(1.657e-11 -0.0962438 0)
(-1.65534e-11 -0.0962438 0)
(-3.81167e-08 -0.0962438 0)
(-1.06128e-05 -0.0962437 0)
(-0.000498675 -0.0962362 0)
(-0.0058633 -0.0960109 0)
(-0.0259657 -0.0945122 0)
(-0.0602778 -0.0913065 0)
(-0.092256 -0.0880462 0)
(-0.111304 -0.086008 0)
(-0.120072 -0.0850125 0)
(-0.123355 -0.0842968 0)
(-0.124073 -0.0836941 0)
(-0.122529 -0.0839354 0)
(-0.117872 -0.0842691 0)
(-0.108459 -0.0855008 0)
(-0.087837 -0.0879939 0)
(-0.083406 -0.0919287 0)
(-0.245306 -0.0924485 0)
(-0.517782 -0.0682016 0)
(-0.319106 -0.0566878 0)
(0.306243 -0.0279712 0)
(0.49466 -0.0598548 0)
(0.234038 -0.0801641 0)
(0.0844209 -0.0827038 0)
(0.0914516 -0.0815172 0)
(0.111099 -0.0786492 0)
(0.120077 -0.0762948 0)
(0.124081 -0.0738505 0)
(0.124618 -0.0715194 0)
(0.123302 -0.069902 0)
(0.119483 -0.0697488 0)
(0.109739 -0.0714376 0)
(0.0892434 -0.0749998 0)
(0.056847 -0.0795898 0)
(0.0236815 -0.0834984 0)
(0.00507998 -0.0851027 0)
(0.000399041 -0.0853113 0)
(7.59927e-06 -0.0853172 0)
(2.37261e-08 -0.0853172 0)
(8.69207e-12 -0.0853172 0)
(-8.78371e-12 -0.0853172 0)
(-2.37253e-08 -0.0853172 0)
(-7.59913e-06 -0.0853172 0)
(-0.000399038 -0.0853113 0)
(-0.00508 -0.0851027 0)
(-0.0236817 -0.0834982 0)
(-0.0568479 -0.0795891 0)
(-0.0892451 -0.0749987 0)
(-0.109741 -0.0714376 0)
(-0.119484 -0.0697537 0)
(-0.123299 -0.0699174 0)
(-0.124609 -0.0715523 0)
(-0.124066 -0.0739114 0)
(-0.120057 -0.0763886 0)
(-0.111068 -0.0787844 0)
(-0.0914129 -0.0816949 0)
(-0.0843853 -0.082918 0)
(-0.234021 -0.080398 0)
(-0.494703 -0.0600615 0)
(-0.306287 -0.0280314 0)
(0.288225 -0.149307 0)
(0.467305 -0.206311 0)
(0.223291 -0.221564 0)
(0.0821769 -0.233536 0)
(0.0918386 -0.245086 0)
(0.113584 -0.257735 0)
(0.122573 -0.2696 0)
(0.127192 -0.284103 0)
(0.127921 -0.297003 0)
(0.125086 -0.309782 0)
(0.118605 -0.320781 0)
(0.106247 -0.329602 0)
(0.0843995 -0.336889 0)
(0.0520868 -0.34416 0)
(0.0206526 -0.349987 0)
(0.00411619 -0.352106 0)
(0.000292012 -0.352339 0)
(4.89939e-06 -0.352345 0)
(1.32365e-08 -0.352345 0)
(4.1431e-12 -0.352345 0)
(-4.22999e-12 -0.352345 0)
(-1.32359e-08 -0.352345 0)
(-4.8993e-06 -0.352345 0)
(-0.000292009 -0.352339 0)
(-0.00411618 -0.352106 0)
(-0.0206526 -0.349987 0)
(-0.0520873 -0.34416 0)
(-0.0844009 -0.336888 0)
(-0.106249 -0.3296 0)
(-0.118607 -0.32078 0)
(-0.125088 -0.309783 0)
(-0.127921 -0.297011 0)
(-0.12719 -0.28412 0)
(-0.122568 -0.269629 0)
(-0.113572 -0.257777 0)
(-0.0918202 -0.245149 0)
(-0.0821563 -0.233618 0)
(-0.223281 -0.221657 0)
(-0.46732 -0.2064 0)
(-0.28824 -0.149347 0)
(0.251312 -0.289157 0)
(0.425031 -0.444002 0)
(0.207803 -0.487543 0)
(0.0617544 -0.517459 0)
(0.0681331 -0.542595 0)
(0.0874754 -0.554529 0)
(0.0946673 -0.571577 0)
(0.0976741 -0.583192 0)
(0.0998737 -0.599 0)
(0.100389 -0.608473 0)
(0.100384 -0.618146 0)
(0.094217 -0.626882 0)
(0.0752147 -0.639278 0)
(0.0442245 -0.655455 0)
(0.0160247 -0.667238 0)
(0.00281341 -0.670603 0)
(0.000168533 -0.670882 0)
(2.29372e-06 -0.670887 0)
(4.84779e-09 -0.670887 0)
(1.15509e-12 -0.670887 0)
(-1.18009e-12 -0.670887 0)
(-4.8476e-09 -0.670887 0)
(-2.29369e-06 -0.670887 0)
(-0.000168532 -0.670882 0)
(-0.00281339 -0.670603 0)
(-0.0160247 -0.667238 0)
(-0.0442245 -0.655455 0)
(-0.0752151 -0.639277 0)
(-0.0942185 -0.626881 0)
(-0.100387 -0.618143 0)
(-0.100394 -0.608469 0)
(-0.0998797 -0.598995 0)
(-0.0976804 -0.583188 0)
(-0.0946721 -0.571575 0)
(-0.0874784 -0.554532 0)
(-0.0681323 -0.542605 0)
(-0.0617472 -0.517482 0)
(-0.207793 -0.487575 0)
(-0.425022 -0.444036 0)
(-0.251308 -0.289172 0)
(0.139011 -0.154083 0)
(0.276134 -0.270622 0)
(0.152506 -0.308599 0)
(0.029127 -0.328006 0)
(0.0561161 -0.342457 0)
(0.0856549 -0.340477 0)
(0.0949526 -0.344347 0)
(0.100766 -0.34018 0)
(0.10356 -0.341138 0)
(0.106636 -0.336355 0)
(0.100865 -0.334655 0)
(0.0858834 -0.335856 0)
(0.0568659 -0.343303 0)
(0.0251437 -0.354897 0)
(0.00605559 -0.363104 0)
(0.000604253 -0.365243 0)
(1.78881e-05 -0.365397 0)
(1.11763e-07 -0.365399 0)
(1.00285e-10 -0.365399 0)
(1.13069e-14 -0.365399 0)
(3.57061e-14 -0.365399 0)
(-1.002e-10 -0.365399 0)
(-1.11763e-07 -0.365399 0)
(-1.78881e-05 -0.365397 0)
(-0.000604252 -0.365243 0)
(-0.00605559 -0.363104 0)
(-0.0251436 -0.354897 0)
(-0.0568659 -0.343303 0)
(-0.0858834 -0.335856 0)
(-0.100865 -0.334654 0)
(-0.106636 -0.336352 0)
(-0.10356 -0.341132 0)
(-0.100767 -0.340171 0)
(-0.0949534 -0.344334 0)
(-0.085656 -0.340463 0)
(-0.0561173 -0.342443 0)
(-0.0291277 -0.327995 0)
(-0.152506 -0.308593 0)
(-0.276132 -0.270621 0)
(-0.139009 -0.154084 0)
(0.139011 0.154083 0)
(0.276134 0.270622 0)
(0.152506 0.308599 0)
(0.029127 0.328006 0)
(0.0561161 0.342457 0)
(0.0856549 0.340477 0)
(0.0949526 0.344347 0)
(0.100766 0.34018 0)
(0.10356 0.341138 0)
(0.106636 0.336355 0)
(0.100865 0.334655 0)
(0.0858834 0.335856 0)
(0.0568659 0.343303 0)
(0.0251437 0.354897 0)
(0.00605559 0.363104 0)
(0.000604253 0.365243 0)
(1.78881e-05 0.365397 0)
(1.11763e-07 0.365399 0)
(1.00425e-10 0.365399 0)
(1.07118e-14 0.365399 0)
(-8.80752e-14 0.365399 0)
(-1.0028e-10 0.365399 0)
(-1.11764e-07 0.365399 0)
(-1.78881e-05 0.365397 0)
(-0.000604252 0.365243 0)
(-0.00605559 0.363104 0)
(-0.0251436 0.354897 0)
(-0.0568659 0.343303 0)
(-0.0858834 0.335856 0)
(-0.100865 0.334654 0)
(-0.106636 0.336352 0)
(-0.10356 0.341132 0)
(-0.100767 0.340171 0)
(-0.0949534 0.344334 0)
(-0.085656 0.340463 0)
(-0.0561173 0.342443 0)
(-0.0291277 0.327995 0)
(-0.152506 0.308593 0)
(-0.276132 0.270621 0)
(-0.139009 0.154084 0)
(0.251312 0.289157 0)
(0.425031 0.444002 0)
(0.207803 0.487543 0)
(0.0617544 0.517459 0)