/*--------------------------------*- C++ -*----------------------------------*\
| =========                 |                                                 |
| \\      /  F ield         | OpenFOAM: The Open Source CFD Toolbox           |
|  \\    /   O peration     | Version:  v1912                                 |
|   \\  /    A nd           | Website:  www.openfoam.com                      |
|    \\/     M anipulation  |                                                 |
\*---------------------------------------------------------------------------*/
FoamFile
{
    version     2.0;
    format      ascii;
    class       volVectorField;
    location    "1.72";
    object      U;
}
// * * * * * * * * * * * * * * * * * * * * * * * * * * * * * * * * * * * * * //

dimensions      [0 1 -1 0 0 0 0];


internalField   nonuniform List<vector> 
1900
(
(-0.021129 -6.9599e-07 0)
(-0.0300036 -2.50744e-06 0)
(-0.0415635 -2.11237e-06 0)
(-0.0473597 1.04594e-05 0)
(-0.0500377 2.58339e-05 0)
(-0.050251 0.000194596 0)
(-0.0508663 0.000240639 0)
(-0.0513098 -0.000111662 0)
(-0.0516333 -0.00209744 0)
(-0.0469687 -0.00846651 0)
(-0.0211321 -1.88761e-06 0)
(-0.0300102 -5.01153e-06 0)
(-0.0415727 -6.09615e-06 0)
(-0.0473604 6.50073e-06 0)
(-0.0500421 3.7706e-05 0)
(-0.0501567 0.000153577 0)
(-0.050525 0.000169187 0)
(-0.0506898 -1.24409e-05 0)
(-0.0512012 -0.00131343 0)
(-0.0545401 -0.00688571 0)
(-0.0211338 -2.24441e-13 0)
(-0.0300149 2.59629e-13 0)
(-0.0415807 -1.44672e-13 0)
(-0.047358 4.63348e-14 0)
(-0.0500168 -4.57804e-14 0)
(-0.050051 -3.10619e-15 0)
(-0.0503729 -3.66375e-14 0)
(-0.0505383 -3.38661e-14 0)
(-0.0519561 -3.66944e-14 0)
(-0.0580617 -1.60998e-14 0)
(-0.0211321 1.88761e-06 0)
(-0.0300102 5.01153e-06 0)
(-0.0415727 6.09615e-06 0)
(-0.0473604 -6.50073e-06 0)
(-0.0500421 -3.7706e-05 0)
(-0.0501567 -0.000153577 0)
(-0.050525 -0.000169187 0)
(-0.0506898 1.24409e-05 0)
(-0.0512012 0.00131343 0)
(-0.0545401 0.00688571 0)
(-0.021129 6.9599e-07 0)
(-0.0300036 2.50744e-06 0)
(-0.0415635 2.11237e-06 0)
(-0.0473597 -1.04594e-05 0)
(-0.0500377 -2.58339e-05 0)
(-0.050251 -0.000194596 0)
(-0.0508663 -0.000240639 0)
(-0.0513098 0.000111662 0)
(-0.0516333 0.00209744 0)
(-0.0469687 0.00846651 0)
(-0.0493613 -0.0238267 0)
(-0.065824 -0.0318798 0)
(-0.082016 -0.045623 0)
(-0.109831 -0.0615421 0)
(-0.200762 -0.0557019 0)
(-0.0645778 -0.0163045 0)
(-0.081066 -0.0211397 0)
(-0.10411 -0.0319256 0)
(-0.149427 -0.0445015 0)
(-0.237139 -0.0437275 0)
(-0.0693392 -2.1557e-14 0)
(-0.0852357 -2.1827e-14 0)
(-0.111933 2.05093e-14 0)
(-0.162315 -5.06908e-15 0)
(-0.246142 5.60828e-15 0)
(-0.0645778 0.0163045 0)
(-0.081066 0.0211397 0)
(-0.10411 0.0319256 0)
(-0.149427 0.0445015 0)
(-0.237139 0.0437275 0)
(-0.0493613 0.0238267 0)
(-0.065824 0.0318798 0)
(-0.082016 0.045623 0)
(-0.109831 0.0615421 0)
(-0.200762 0.0557019 0)
(-0.247805 0.0109968 0)
(-0.213961 0.0181019 0)
(-0.200628 0.0197584 0)
(-0.200206 0.0398709 0)
(-0.279361 0.0947644 0)
(-0.257841 0.0105836 0)
(-0.22215 0.011632 0)
(-0.195824 0.0126911 0)
(-0.164129 0.0331649 0)
(-0.125334 0.102867 0)
(-0.264191 9.27348e-15 0)
(-0.225199 2.11167e-14 0)
(-0.191436 2.57965e-14 0)
(-0.139731 8.05644e-14 0)
(-0.0345684 5.83061e-14 0)
(-0.257841 -0.0105836 0)
(-0.22215 -0.011632 0)
(-0.195824 -0.0126911 0)
(-0.164129 -0.0331649 0)
(-0.125334 -0.102867 0)
(-0.247805 -0.0109968 0)
(-0.213961 -0.0181019 0)
(-0.200628 -0.0197584 0)
(-0.200206 -0.0398709 0)
(-0.279361 -0.0947644 0)
(-0.49218 0.0949856 0)
(-0.104293 -0.133118 0)
(-0.172848 -0.161103 0)
(-0.271599 -0.0802582 0)
(-0.316591 -0.0266868 0)
(-0.325372 -0.0113631 0)
(-0.310284 -0.00468718 0)
(-0.280402 -0.00271083 0)
(-0.241912 -0.00176884 0)
(-0.198136 -0.00126175 0)
(-0.152217 -0.000850395 0)
(-0.106706 -0.000549594 0)
(-0.064473 -0.000324528 0)
(-0.0299433 -0.000155627 0)
(-0.00863689 -4.97354e-05 0)
(-0.00110749 -7.30081e-06 0)
(-4.17565e-05 -2.96981e-07 0)
(-3.06708e-07 -1.72567e-09 0)
(-3.04759e-10 2.81939e-12 0)
(-2.99043e-14 1.27401e-12 0)
(4.63633e-14 1.26873e-12 0)
(4.16444e-10 1.57673e-12 0)
(3.89653e-07 1.25291e-12 0)
(5.01113e-05 2.30454e-12 0)
(0.00127016 3.32633e-12 0)
(0.00958709 1.90816e-12 0)
(0.0325782 1.86776e-12 0)
(0.0694689 1.9945e-12 0)
(0.114719 1.68163e-12 0)
(0.164277 1.57377e-12 0)
(0.216079 6.57938e-13 0)
(0.268983 1.83912e-13 0)
(0.322119 3.39217e-13 0)
(0.374595 3.01276e-14 0)
(0.425269 4.12659e-13 0)
(0.472126 6.73537e-14 0)
(0.513093 2.68386e-13 0)
(0.546622 6.98754e-14 0)
(0.63317 1.08445e-13 0)
(1.23182 7.56606e-14 0)
(0.0349399 0.110726 0)
(0.169065 -0.0964732 0)
(-0.0417098 -0.112073 0)
(-0.240415 -0.0468051 0)
(-0.311649 -0.0139013 0)
(-0.324331 -0.00576654 0)
(-0.310478 -0.00225321 0)
(-0.280394 -0.00129721 0)
(-0.241731 -0.000867205 0)
(-0.197958 -0.000634095 0)
(-0.152094 -0.000428971 0)
(-0.106622 -0.000276791 0)
(-0.064414 -0.000162766 0)
(-0.0299067 -7.71584e-05 0)
(-0.00862101 -2.42827e-05 0)
(-0.00110411 -3.5434e-06 0)
(-4.1555e-05 -1.48134e-07 0)
(-3.04757e-07 -1.04356e-09 0)
(-3.04462e-10 2.18872e-13 0)
(-3.1748e-14 3.7548e-13 0)
(4.4876e-14 3.75669e-13 0)
(4.16512e-10 5.42137e-13 0)
(3.89653e-07 2.1795e-13 0)
(5.01113e-05 1.04202e-12 0)
(0.00127016 1.37941e-12 0)
(0.00958709 8.11046e-13 0)
(0.0325782 5.81353e-13 0)
(0.0694689 8.53079e-13 0)
(0.114719 6.47427e-13 0)
(0.164277 5.75426e-13 0)
(0.216079 2.00643e-13 0)
(0.268983 -6.16175e-14 0)
(0.322119 1.4704e-13 0)
(0.374595 -3.88486e-14 0)
(0.425269 1.80387e-13 0)
(0.472126 3.06364e-14 0)
(0.513093 1.6229e-13 0)
(0.546622 3.48802e-14 0)
(0.63317 2.35718e-14 0)
(1.23182 2.45252e-15 0)
(0.196394 2.63509e-14 0)
(0.257925 -1.07738e-14 0)
(0.0169637 -1.10746e-14 0)
(-0.226209 -3.82794e-15 0)
(-0.310197 8.41528e-15 0)
(-0.32442 2.57783e-14 0)
(-0.310596 1.75117e-14 0)
(-0.280376 -1.65068e-14 0)
(-0.241666 -1.43267e-14 0)
(-0.197899 6.20124e-14 0)
(-0.152057 1.63136e-14 0)
(-0.106599 -8.26727e-15 0)
(-0.0643968 -2.71601e-14 0)
(-0.0298944 -1.54758e-14 0)
(-0.0086149 7.90829e-14 0)
(-0.00110278 -8.72491e-14 0)
(-4.14765e-05 -1.06639e-14 0)
(-3.03999e-07 -2.79789e-14 0)
(-3.0375e-10 1.16444e-13 0)
(-2.78716e-14 -2.42483e-15 0)
(4.27333e-14 5.50507e-15 0)
(4.16557e-10 1.22377e-14 0)
(3.89653e-07 -2.34451e-13 0)
(5.01113e-05 2.82913e-13 0)
(0.00127016 -2.27963e-15 0)
(0.00958709 2.37862e-13 0)
(0.0325782 -1.52217e-13 0)
(0.0694689 1.8837e-13 0)
(0.114719 -1.40717e-14 0)
(0.164277 -9.05009e-14 0)
(0.216079 -4.54313e-14 0)
(0.268983 -1.90119e-13 0)
(0.322119 5.72212e-14 0)
(0.374595 -9.11125e-14 0)
(0.425269 -2.13567e-14 0)
(0.472126 3.27413e-15 0)
(0.513093 7.95023e-14 0)
(0.546622 -4.01978e-15 0)
(0.63317 -7.82678e-15 0)
(1.23182 -3.84786e-14 0)
(0.0349399 -0.110726 0)
(0.169065 0.0964732 0)
(-0.0417098 0.112073 0)
(-0.240415 0.0468051 0)
(-0.311649 0.0139013 0)
(-0.324331 0.00576654 0)
(-0.310478 0.00225321 0)
(-0.280394 0.00129721 0)
(-0.241731 0.000867205 0)
(-0.197958 0.000634095 0)
(-0.152094 0.000428971 0)
(-0.106622 0.000276791 0)
(-0.064414 0.000162766 0)
(-0.0299067 7.71584e-05 0)
(-0.00862101 2.42827e-05 0)
(-0.00110411 3.5434e-06 0)
(-4.1555e-05 1.48134e-07 0)
(-3.04756e-07 1.04351e-09 0)
(-3.04554e-10 5.44885e-14 0)
(-2.83181e-14 -3.79202e-13 0)
(5.28737e-14 -3.43511e-13 0)
(4.16515e-10 -5.23629e-13 0)
(3.89652e-07 -1.01354e-12 0)
(5.01113e-05 -1.56382e-13 0)
(0.00127016 -1.06664e-12 0)
(0.00958709 -2.0952e-13 0)
(0.0325782 -9.49313e-13 0)
(0.0694689 -4.06354e-13 0)
(0.114719 -6.95964e-13 0)
(0.164277 -8.70528e-13 0)
(0.216079 -3.2794e-13 0)
(0.268983 -4.90852e-13 0)
(0.322119 -9.19183e-14 0)
(0.374595 -2.2423e-13 0)
(0.425269 -2.52939e-13 0)
(0.472126 -1.27371e-14 0)
(0.513093 5.22116e-14 0)
(0.546622 -4.5546e-14 0)
(0.63317 -4.90437e-14 0)
(1.23182 -3.30798e-14 0)
(-0.49218 -0.0949856 0)
(-0.104293 0.133118 0)
(-0.172848 0.161103 0)
(-0.271599 0.0802582 0)
(-0.316591 0.0266868 0)
(-0.325372 0.0113631 0)
(-0.310284 0.00468718 0)
(-0.280402 0.00271083 0)
(-0.241912 0.00176884 0)
(-0.198136 0.00126175 0)
(-0.152217 0.000850395 0)
(-0.106706 0.000549594 0)
(-0.064473 0.000324528 0)
(-0.0299433 0.000155627 0)
(-0.00863689 4.97354e-05 0)
(-0.00110749 7.3008e-06 0)
(-4.17565e-05 2.96981e-07 0)
(-3.06708e-07 1.72567e-09 0)
(-3.04958e-10 -2.44407e-12 0)
(-2.81208e-14 -1.27265e-12 0)
(6.484e-14 -1.22827e-12 0)
(4.16433e-10 -1.57819e-12 0)
(3.89652e-07 -2.32624e-12 0)
(5.01113e-05 -1.20784e-12 0)
(0.00127016 -2.64207e-12 0)
(0.00958709 -1.27203e-12 0)
(0.0325782 -2.25263e-12 0)
(0.0694689 -1.5045e-12 0)
(0.114719 -1.76646e-12 0)
(0.164277 -1.9561e-12 0)
(0.216079 -7.98885e-13 0)
(0.268983 -9.22871e-13 0)
(0.322119 -3.38814e-13 0)
(0.374595 -3.8789e-13 0)
(0.425269 -4.85999e-13 0)
(0.472126 -4.98019e-14 0)
(0.513093 5.61631e-15 0)
(0.546622 -9.88204e-14 0)
(0.63317 -1.27362e-13 0)
(1.23182 -6.8376e-14 0)
(-1.10002 -0.136625 0)
(-0.41896 0.155827 0)
(-0.330695 0.195444 0)
(-0.320008 0.113831 0)
(-0.332405 0.0466148 0)
(-0.331168 0.0213598 0)
(-0.311546 0.0100629 0)
(-0.281263 0.00626116 0)
(-0.242616 0.00385151 0)
(-0.198666 0.00258172 0)
(-0.152577 0.00171884 0)
(-0.106956 0.00111463 0)
(-0.0646649 0.000659534 0)
(-0.0300883 0.000313689 0)
(-0.00871028 9.51593e-05 0)
(-0.00112313 1.29297e-05 0)
(-4.26587e-05 4.79572e-07 0)
(-3.15876e-07 3.27569e-09 0)
(-3.20241e-10 1.06919e-11 0)
(-3.0083e-14 5.88707e-12 0)
(4.39501e-14 5.85976e-12 0)
(4.16707e-10 6.13391e-12 0)
(3.89653e-07 6.7383e-12 0)
(5.01113e-05 5.90662e-12 0)
(0.00127016 6.94476e-12 0)
(0.00958709 6.06331e-12 0)
(0.0325782 6.31023e-12 0)
(0.0694689 5.63242e-12 0)
(0.114719 4.88843e-12 0)
(0.164277 4.31294e-12 0)
(0.216079 2.42955e-12 0)
(0.268983 1.78023e-12 0)
(0.322119 1.06965e-12 0)
(0.374595 6.25429e-13 0)
(0.425269 5.7554e-13 0)
(0.472126 1.37587e-13 0)
(0.513093 6.98854e-14 0)
(0.546622 6.40689e-14 0)
(0.63317 5.84631e-14 0)
(1.23182 -2.40387e-13 0)
(-1.23454 -0.0942424 0)
(-0.584487 0.153384 0)
(-0.451237 0.189754 0)
(-0.382974 0.115715 0)
(-0.364326 0.0593826 0)
(-0.343296 0.0329433 0)
(-0.319077 0.0173746 0)
(-0.285228 0.0111696 0)
(-0.244821 0.0067194 0)
(-0.200009 0.00435894 0)
(-0.153504 0.00284228 0)
(-0.107661 0.00177844 0)
(-0.0652042 0.000981626 0)
(-0.0304414 0.000426392 0)
(-0.00886434 0.000117602 0)
(-0.00115317 1.40277e-05 0)
(-4.43618e-05 5.62177e-07 0)
(-3.35126e-07 2.08172e-08 0)
(-3.45946e-10 1.53296e-08 0)
(-3.46708e-14 1.53236e-08 0)
(4.35582e-14 1.53236e-08 0)
(4.16628e-10 1.53235e-08 0)
(3.89652e-07 1.53231e-08 0)
(5.01113e-05 1.53232e-08 0)
(0.00127016 1.53069e-08 0)
(0.00958709 1.51704e-08 0)
(0.0325782 1.46577e-08 0)
(0.0694689 1.35378e-08 0)
(0.114719 1.1796e-08 0)
(0.164277 9.63857e-09 0)
(0.216079 7.36805e-09 0)
(0.268983 5.26403e-09 0)
(0.322119 3.51204e-09 0)
(0.374595 2.18963e-09 0)
(0.425269 1.28212e-09 0)
(0.472126 7.21853e-10 0)
(0.513093 3.99963e-10 0)
(0.546622 1.8751e-10 0)
(0.63317 7.10827e-11 0)
(1.23182 1.28435e-12 0)
(-1.24461 -0.0397571 0)
(-0.624099 0.109665 0)
(-0.495336 0.15064 0)
(-0.42291 0.0938149 0)
(-0.39039 0.0563009 0)
(-0.360517 0.0358559 0)
(-0.329023 0.0224019 0)
(-0.291092 0.0141768 0)
(-0.248075 0.00898152 0)
(-0.202002 0.0057765 0)
(-0.154876 0.00366806 0)
(-0.108675 0.00218915 0)
(-0.0659308 0.00113839 0)
(-0.0308793 0.000456897 0)
(-0.00904403 0.000121813 0)
(-0.00118977 2.27263e-05 0)
(-4.64624e-05 5.97926e-06 0)
(-3.56804e-07 5.16114e-06 0)
(-3.7657e-10 5.15462e-06 0)
(-4.09339e-14 5.15461e-06 0)
(5.03475e-14 5.15461e-06 0)
(4.16637e-10 5.15461e-06 0)
(3.89652e-07 5.15461e-06 0)
(5.01112e-05 5.15447e-06 0)
(0.00127015 5.15033e-06 0)
(0.00958708 5.1152e-06 0)
(0.0325781 4.98603e-06 0)
(0.0694688 4.70384e-06 0)
(0.114719 4.25593e-06 0)
(0.164277 3.67746e-06 0)
(0.216079 3.02935e-06 0)
(0.268983 2.37674e-06 0)
(0.322119 1.77439e-06 0)
(0.374595 1.26075e-06 0)
(0.425269 8.55264e-07 0)
(0.472126 5.6464e-07 0)
(0.513093 3.69774e-07 0)
(0.546622 2.05186e-07 0)
(0.63317 9.27856e-08 0)
(1.23182 4.17003e-09 0)
(-1.24597 -0.0184881 0)
(-0.634538 0.0815313 0)
(-0.515442 0.116883 0)
(-0.451197 0.0747351 0)
(-0.411617 0.0526015 0)
(-0.377196 0.0356609 0)
(-0.339469 0.0239453 0)
(-0.297567 0.0156769 0)
(-0.252071 0.0102742 0)
(-0.204577 0.00668105 0)
(-0.15665 0.00422347 0)
(-0.109942 0.00253305 0)
(-0.0668133 0.00142384 0)
(-0.0314098 0.000764955 0)
(-0.0092576 0.000427516 0)
(-0.00122693 0.000302285 0)
(-4.84269e-05 0.000283864 0)
(-3.76791e-07 0.000283147 0)
(-4.0358e-10 0.000283142 0)
(-1.10183e-14 0.000283142 0)
(1.50631e-13 0.000283142 0)
(4.1643e-10 0.000283142 0)
(3.89582e-07 0.000283142 0)
(5.0104e-05 0.000283136 0)
(0.00127001 0.000282959 0)
(0.00958615 0.000281521 0)
(0.0325754 0.000276397 0)
(0.0694637 0.000265341 0)
(0.114711 0.000247635 0)
(0.164268 0.000224081 0)
(0.216069 0.000196362 0)
(0.268973 0.000166505 0)
(0.322108 0.000136498 0)
(0.374586 0.000108172 0)
(0.425261 8.30088e-05 0)
(0.47212 6.26245e-05 0)
(0.513088 4.71416e-05 0)
(0.546616 3.05521e-05 0)
(0.633166 1.61201e-05 0)
(1.23182 1.47375e-06 0)
(-1.24299 0.00895373 0)
(-0.634682 0.0644503 0)
(-0.5247 0.0913123 0)
(-0.469793 0.0618946 0)
(-0.428109 0.0496363 0)
(-0.390252 0.0350196 0)
(-0.348557 0.0247786 0)
(-0.30375 0.0174679 0)
(-0.256301 0.0126377 0)
(-0.207514 0.00937863 0)
(-0.158703 0.00715435 0)
(-0.111327 0.00564893 0)
(-0.067663 0.00468132 0)
(-0.0318417 0.00411154 0)
(-0.00940318 0.003834 0)
(-0.00125066 0.00375489 0)
(-4.96052e-05 0.00374635 0)
(-3.88382e-07 0.00374608 0)
(-4.1903e-10 0.00374608 0)
(-7.48242e-14 0.00374608 0)
(1.01074e-13 0.00374608 0)
(4.15011e-10 0.00374608 0)
(3.88522e-07 0.00374608 0)
(4.99992e-05 0.00374601 0)
(0.00126797 0.00374416 0)
(0.00957404 0.00372997 0)
(0.0325414 0.00368187 0)
(0.0694009 0.00358117 0)
(0.114619 0.00342106 0)
(0.164151 0.00320525 0)
(0.215932 0.00294327 0)
(0.268825 0.00264753 0)
(0.321956 0.00233119 0)
(0.374437 0.00200892 0)
(0.425123 0.00169557 0)
(0.472003 0.00141821 0)
(0.512983 0.00118798 0)
(0.546475 0.000882022 0)
(0.633045 0.000529807 0)
(1.23181 0.0001007 0)
(-1.24173 0.0311847 0)
(-0.629916 0.0559126 0)
(-0.5277 0.0770446 0)
(-0.48123 0.0580452 0)
(-0.440574 0.0510473 0)
(-0.400305 0.0394688 0)
(-0.355912 0.0317823 0)
(-0.308585 0.0264242 0)
(-0.259365 0.0229901 0)
(-0.209427 0.0208412 0)
(-0.159896 0.0195429 0)
(-0.112059 0.0187835 0)
(-0.0680577 0.0183676 0)
(-0.0319934 0.0182009 0)
(-0.00943777 0.0181839 0)
(-0.00125412 0.0181978 0)
(-4.96657e-05 0.0182018 0)
(-3.87873e-07 0.0182021 0)
(-4.16844e-10 0.0182021 0)
(-1.35684e-13 0.0182021 0)
(7.48198e-15 0.0182021 0)
(4.0696e-10 0.0182021 0)
(3.82779e-07 0.0182021 0)
(4.94487e-05 0.0182018 0)
(0.00125777 0.0181944 0)
(0.00951708 0.0181411 0)
(0.0323906 0.0179713 0)
(0.0691336 0.0176325 0)
(0.114234 0.0171075 0)
(0.163657 0.0164043 0)
(0.215346 0.0155427 0)
(0.268164 0.0145475 0)
(0.321243 0.0134443 0)
(0.373696 0.0122664 0)
(0.424395 0.0110524 0)
(0.471341 0.00992237 0)
(0.512374 0.00894566 0)
(0.545471 0.00740504 0)
(0.632012 0.00491659 0)
(1.23164 0.00180026 0)
(-1.23979 0.0443721 0)
(-0.624728 0.0573589 0)
(-0.527976 0.0770792 0)
(-0.489596 0.0657865 0)
(-0.44967 0.0628668 0)
(-0.406931 0.0554547 0)
(-0.360306 0.0514316 0)
(-0.311268 0.0488266 0)
(-0.260884 0.0472992 0)
(-0.210197 0.0465571 0)
(-0.16019 0.046363 0)
(-0.112067 0.0465274 0)
(-0.0679299 0.0468674 0)
(-0.0318501 0.0472196 0)
(-0.00935535 0.0474663 0)
(-0.00123426 0.0475655 0)
(-4.83568e-05 0.0475814 0)
(-3.72378e-07 0.0475821 0)
(-3.93345e-10 0.0475821 0)
(4.80081e-14 0.0475821 0)
(1.47546e-13 0.0475821 0)
(3.85e-10 0.0475821 0)
(3.66851e-07 0.0475821 0)
(4.79491e-05 0.0475815 0)
(0.00123092 0.0475649 0)
(0.00937481 0.0474504 0)
(0.0320364 0.0471066 0)
(0.0685377 0.0464569 0)
(0.113403 0.0454884 0)
(0.162608 0.0442198 0)
(0.214099 0.04268 0)
(0.266745 0.0408995 0)
(0.319681 0.0389038 0)
(0.372022 0.0367295 0)
(0.422684 0.0344244 0)
(0.469736 0.0322282 0)
(0.510954 0.0303801 0)
(0.542683 0.0272396 0)
(0.628693 0.019419 0)
(1.23076 0.011576 0)
(-1.23465 0.0661288 0)
(-0.618787 0.0743128 0)
(-0.527694 0.0980396 0)
(-0.495257 0.0899293 0)
(-0.455437 0.0890027 0)
(-0.4107 0.0850949 0)
(-0.362571 0.0835453 0)
(-0.312366 0.0829144 0)
(-0.261215 0.0829903 0)
(-0.210036 0.0835418 0)
(-0.159725 0.0843869 0)
(-0.111462 0.0853767 0)
(-0.067335 0.086353 0)
(-0.0313979 0.0871458 0)
(-0.00913498 0.0876317 0)
(-0.00118704 0.0878116 0)
(-4.55278e-05 0.0878392 0)
(-3.41313e-07 0.0878404 0)
(-3.49458e-10 0.0878404 0)
(-9.80441e-14 0.0878404 0)
(-4.8197e-14 0.0878404 0)
(3.44263e-10 0.0878404 0)
(3.37625e-07 0.0878404 0)
(4.51934e-05 0.0878393 0)
(0.00118221 0.0878123 0)
(0.00912456 0.0876294 0)
(0.0314413 0.0871016 0)
(0.0675834 0.0861498 0)
(0.112124 0.0847862 0)
(0.161034 0.0830507 0)
(0.212257 0.0809836 0)
(0.264662 0.0786208 0)
(0.317382 0.0759817 0)
(0.369539 0.073102 0)
(0.420087 0.0700218 0)
(0.467243 0.0670727 0)
(0.508733 0.0646574 0)
(0.538755 0.0611141 0)
(0.623462 0.0466285 0)
(1.22818 0.0369997 0)
(-1.22742 0.102523 0)
(-0.613923 0.108257 0)
(-0.528506 0.130112 0)
(-0.49796 0.123945 0)
(-0.458 0.123583 0)
(-0.412074 0.122335 0)
(-0.363012 0.122829 0)
(-0.312111 0.123819 0)
(-0.260468 0.125221 0)
(-0.208984 0.126878 0)
(-0.158523 0.128631 0)
(-0.110242 0.13033 0)
(-0.0662467 0.131837 0)
(-0.0306219 0.133003 0)
(-0.00877867 0.133699 0)
(-0.00111457 0.133951 0)
(-4.1387e-05 0.133988 0)
(-2.97917e-07 0.13399 0)
(-2.90951e-10 0.13399 0)
(-1.02556e-13 0.13399 0)
(3.64757e-14 0.13399 0)
(2.89142e-10 0.13399 0)
(2.96309e-07 0.13399 0)
(4.12138e-05 0.133988 0)
(0.00111131 0.133952 0)
(0.00876378 0.133703 0)
(0.0306058 0.132999 0)
(0.0662896 0.13177 0)
(0.110447 0.130065 0)
(0.159026 0.127955 0)
(0.209953 0.125492 0)
(0.262088 0.122716 0)
(0.314569 0.119647 0)
(0.366503 0.116306 0)
(0.416902 0.11276 0)
(0.464069 0.10942 0)
(0.505675 0.10682 0)
(0.535082 0.103174 0)
(0.6186 0.0851233 0)
(1.22289 0.0774666 0)
(-1.21658 0.144473 0)
(-0.611421 0.14772 0)
(-0.528265 0.163955 0)
(-0.498612 0.163203 0)
(-0.457947 0.163325 0)
(-0.411343 0.164197 0)
(-0.361771 0.166408 0)
(-0.310481 0.168752 0)
(-0.258626 0.17128 0)
(-0.207014 0.1738 0)
(-0.156561 0.17626 0)
(-0.10842 0.178529 0)
(-0.064718 0.180475 0)
(-0.0295736 0.181951 0)
(-0.00831202 0.182823 0)
(-0.00102278 0.183132 0)
(-3.63524e-05 0.183177 0)
(-2.47675e-07 0.183179 0)
(-2.26654e-10 0.183179 0)
(1.5122e-14 0.183179 0)
(2.82209e-14 0.183179 0)
(2.26424e-10 0.183179 0)
(2.47283e-07 0.183179 0)
(3.62959e-05 0.183177 0)
(0.00102134 0.183133 0)
(0.00830229 0.182828 0)
(0.0295485 0.181962 0)
(0.0646887 0.180478 0)
(0.108423 0.178469 0)
(0.156658 0.176038 0)
(0.207284 0.17325 0)
(0.259158 0.170159 0)
(0.311373 0.166743 0)
(0.363141 0.163126 0)
(0.413342 0.159204 0)
(0.460513 0.155748 0)
(0.502132 0.153339 0)
(0.531456 0.148839 0)
(0.615244 0.130485 0)
(1.21348 0.125907 0)
(-1.20284 0.193007 0)
(-0.610937 0.187661 0)
(-0.526479 0.203062 0)
(-0.497023 0.206408 0)
(-0.455734 0.207118 0)
(-0.409138 0.209785 0)
(-0.35911 0.212927 0)
(-0.307832 0.216419 0)
(-0.255883 0.219686 0)
(-0.204357 0.222881 0)
(-0.154039 0.225846 0)
(-0.106152 0.228539 0)
(-0.0628516 0.230829 0)
(-0.0283108 0.232558 0)
(-0.00775965 0.233573 0)
(-0.000917503 0.233926 0)
(-3.08448e-05 0.233976 0)
(-1.95967e-07 0.233977 0)
(-1.65405e-10 0.233977 0)
(-9.16018e-14 0.233977 0)
(-4.93944e-14 0.233977 0)
(1.65298e-10 0.233977 0)
(1.96019e-07 0.233977 0)
(3.08418e-05 0.233976 0)
(0.000917166 0.233927 0)
(0.00775544 0.233576 0)
(0.0282931 0.232569 0)
(0.0628119 0.230852 0)
(0.106093 0.228567 0)
(0.153977 0.225848 0)
(0.204317 0.222786 0)
(0.255903 0.219394 0)
(0.307962 0.215787 0)
(0.359411 0.211772 0)
(0.409673 0.207818 0)
(0.45652 0.204034 0)
(0.498183 0.202007 0)
(0.5283 0.196883 0)
(0.613353 0.178546 0)
(1.2014 0.18263 0)
(-1.18388 0.237174 0)
(-0.611313 0.230262 0)
(-0.525822 0.249233 0)
(-0.493951 0.252901 0)
(-0.452486 0.254384 0)
(-0.405612 0.257406 0)
(-0.356068 0.261981 0)
(-0.304274 0.265526 0)
(-0.252642 0.26955 0)
(-0.201176 0.273081 0)
(-0.151113 0.276437 0)
(-0.103541 0.279437 0)
(-0.060715 0.281999 0)
(-0.0268738 0.283937 0)
(-0.00714237 0.285068 0)
(-0.000804274 0.285452 0)
(-2.52613e-05 0.285503 0)
(-1.47394e-07 0.285505 0)
(-1.12488e-10 0.285505 0)
(6.49329e-14 0.285505 0)
(6.4392e-14 0.285505 0)
(1.1271e-10 0.285505 0)
(1.47503e-07 0.285505 0)
(2.52716e-05 0.285503 0)
(0.000804368 0.285452 0)
(0.00714151 0.285069 0)
(0.0268658 0.283944 0)
(0.0606887 0.28202 0)
(0.103487 0.279483 0)
(0.151025 0.276508 0)
(0.201052 0.273169 0)
(0.252492 0.269637 0)
(0.304104 0.265559 0)
(0.355915 0.261898 0)
(0.40546 0.257062 0)
(0.452468 0.25374 0)
(0.494062 0.2517 0)
(0.526286 0.247234 0)
(0.61218 0.22688 0)
(1.18302 0.232741 0)
(-1.16562 0.300911 0)
(-0.610953 0.276405 0)
(-0.524192 0.297394 0)
(-0.490432 0.301662 0)
(-0.447403 0.30216 0)
(-0.402285 0.307419 0)
(-0.351383 0.310853 0)
(-0.300789 0.315884 0)
(-0.248726 0.319624 0)
(-0.197699 0.323626 0)
(-0.14785 0.32718 0)
(-0.100656 0.33044 0)
(-0.0583489 0.333225 0)
(-0.025292 0.335339 0)
(-0.00647877 0.336559 0)
(-0.000688331 0.336961 0)
(-1.99457e-05 0.337011 0)
(-1.05242e-07 0.337013 0)
(-7.14401e-11 0.337013 0)
(-6.20642e-15 0.337013 0)
(-7.8578e-15 0.337013 0)
(7.15343e-11 0.337013 0)
(1.05303e-07 0.337013 0)
(1.99536e-05 0.337011 0)
(0.000688481 0.336961 0)
(0.00647915 0.33656 0)
(0.0252899 0.335341 0)
(0.058337 0.333236 0)
(0.100624 0.330472 0)
(0.147788 0.327246 0)
(0.197597 0.323742 0)
(0.24858 0.319801 0)
(0.300591 0.316119 0)
(0.35114 0.311151 0)
(0.402001 0.307744 0)
(0.447138 0.302511 0)
(0.490213 0.301863 0)
(0.524063 0.297357 0)
(0.611005 0.275825 0)
(1.16535 0.299355 0)
(-1.13995 0.342693 0)
(-0.610112 0.323182 0)
(-0.523536 0.348219 0)
(-0.486107 0.350071 0)
(-0.443679 0.352221 0)
(-0.396346 0.355098 0)
(-0.348525 0.361727 0)
(-0.295899 0.36482 0)
(-0.245096 0.369716 0)
(-0.193829 0.373453 0)
(-0.144375 0.377277 0)
(-0.097527 0.380703 0)
(-0.0557872 0.383679 0)
(-0.0235968 0.385931 0)
(-0.0057897 0.38721 0)
(-0.000574891 0.387614 0)
(-1.51759e-05 0.387661 0)
(-7.13113e-08 0.387663 0)
(-4.23285e-11 0.387663 0)
(-3.00044e-15 0.387663 0)
(1.67084e-16 0.387663 0)
(4.22628e-11 0.387663 0)
(7.13317e-08 0.387663 0)
(1.51793e-05 0.387661 0)
(0.00057498 0.387614 0)
(0.00579019 0.38721 0)
(0.0235971 0.385931 0)
(0.055784 0.383683 0)
(0.0975139 0.380718 0)
(0.144344 0.377315 0)
(0.193772 0.373531 0)
(0.245005 0.36985 0)
(0.295769 0.365027 0)
(0.348351 0.36203 0)
(0.396132 0.355488 0)
(0.443446 0.352715 0)
(0.485845 0.350563 0)
(0.523343 0.348754 0)
(0.610023 0.323501 0)
(1.13992 0.342483 0)
(-1.11472 0.414274 0)
(-0.608413 0.371195 0)
(-0.520886 0.395535 0)
(-0.4835 0.398877 0)
(-0.436899 0.39796 0)
(-0.39361 0.404958 0)
(-0.342224 0.408039 0)
(-0.292499 0.413793 0)
(-0.240555 0.417643 0)
(-0.190018 0.421891 0)
(-0.140693 0.425688 0)
(-0.0942566 0.429239 0)
(-0.0531021 0.432278 0)
(-0.0218412 0.434557 0)
(-0.00510219 0.435829 0)
(-0.00046928 0.436213 0)
(-1.11552e-05 0.436255 0)
(-4.60391e-08 0.436256 0)
(-2.36067e-11 0.436256 0)
(-4.27318e-14 0.436256 0)
(-1.37592e-14 0.436256 0)
(2.34886e-11 0.436256 0)
(4.60426e-08 0.436256 0)
(1.1156e-05 0.436255 0)
(0.000469312 0.436213 0)
(0.00510246 0.435828 0)
(0.0218419 0.434556 0)
(0.0531023 0.432278 0)
(0.0942538 0.429243 0)
(0.140684 0.425703 0)
(0.189996 0.421927 0)
(0.240517 0.417711 0)
(0.292439 0.41391 0)
(0.342148 0.408219 0)
(0.393497 0.405208 0)
(0.436776 0.398283 0)
(0.483334 0.399258 0)
(0.520772 0.395983 0)
(0.608372 0.371547 0)
(1.11474 0.414311 0)
(-1.08664 0.441161 0)
(-0.605583 0.411591 0)
(-0.519199 0.441227 0)
(-0.478215 0.441153 0)
(-0.433044 0.442444 0)
(-0.386495 0.446179 0)
(-0.339031 0.45287 0)
(-0.287339 0.45695 0)
(-0.236968 0.462285 0)
(-0.186254 0.466567 0)
(-0.137283 0.470609 0)
(-0.0911332 0.474084 0)
(-0.0505494 0.476992 0)
(-0.0201894 0.479151 0)
(-0.00447196 0.480333 0)
(-0.000378552 0.480675 0)
(-8.03495e-06 0.480709 0)
(-2.88288e-08 0.48071 0)
(-1.24573e-11 0.48071 0)
(5.07078e-14 0.48071 0)
(3.34798e-14 0.48071 0)
(1.2555e-11 0.48071 0)
(2.88284e-08 0.48071 0)
(8.03495e-06 0.480709 0)
(0.000378556 0.480675 0)
(0.00447204 0.480333 0)
(0.0201898 0.47915 0)
(0.0505503 0.476992 0)
(0.091134 0.474084 0)
(0.137282 0.470611 0)
(0.18625 0.466576 0)
(0.236959 0.462305 0)
(0.287326 0.456992 0)
(0.339008 0.452938 0)
(0.386469 0.446279 0)
(0.433 0.442582 0)
(0.478163 0.441335 0)
(0.519171 0.441453 0)
(0.605596 0.411765 0)
(1.08668 0.441238 0)
(-1.05258 0.513514 0)
(-0.604969 0.460631 0)
(-0.519192 0.487182 0)
(-0.479801 0.48777 0)
(-0.432658 0.486718 0)
(-0.387556 0.490936 0)
(-0.337648 0.493848 0)
(-0.286741 0.497798 0)
(-0.235181 0.501732 0)
(-0.184263 0.505781 0)
(-0.135006 0.509685 0)
(-0.0889667 0.51324 0)
(-0.0486466 0.516103 0)
(-0.0188364 0.518144 0)
(-0.00395523 0.5193 0)
(-0.000307996 0.519626 0)
(-5.82192e-06 0.519656 0)
(-1.80653e-08 0.519657 0)
(-6.60094e-12 0.519657 0)
(-1.1585e-14 0.519657 0)
(-9.82137e-15 0.519657 0)
(6.66352e-12 0.519657 0)
(1.80648e-08 0.519657 0)
(5.82181e-06 0.519656 0)
(0.000307994 0.519626 0)
(0.00395524 0.5193 0)
(0.0188365 0.518144 0)
(0.0486471 0.516102 0)
(0.0889679 0.513239 0)
(0.135008 0.509683 0)
(0.184265 0.50578 0)
(0.235183 0.501733 0)
(0.286743 0.497803 0)
(0.337649 0.493859 0)
(0.387554 0.490958 0)
(0.432653 0.486755 0)
(0.479791 0.487826 0)
(0.519192 0.487253 0)
(0.604979 0.460692 0)
(1.05259 0.513551 0)
(-1.02931 0.505031 0)
(-0.598896 0.488132 0)
(-0.515947 0.523004 0)
(-0.478257 0.525455 0)
(-0.432148 0.526025 0)
(-0.384094 0.527102 0)
(-0.335683 0.530037 0)
(-0.282591 0.53072 0)
(-0.231159 0.532979 0)
(-0.179871 0.53509 0)
(-0.13094 0.53833 0)
(-0.0846284 0.542249 0)
(-0.0443837 0.546695 0)
(-0.0161526 0.55049 0)
(-0.00310779 0.552437 0)
(-0.000215731 0.552905 0)
(-3.55822e-06 0.552942 0)
(-9.49665e-09 0.552943 0)
(-2.93468e-12 0.552943 0)
(-1.70342e-14 0.552943 0)
(-9.02463e-15 0.552943 0)
(3.04716e-12 0.552943 0)
(9.49637e-09 0.552943 0)
(3.55816e-06 0.552942 0)
(0.000215729 0.552905 0)
(0.00310777 0.552437 0)
(0.0161526 0.55049 0)
(0.044384 0.546695 0)
(0.0846291 0.542248 0)
(0.130942 0.538328 0)
(0.179873 0.535087 0)
(0.231162 0.532976 0)
(0.282596 0.530716 0)
(0.335689 0.530034 0)
(0.384102 0.527102 0)
(0.432155 0.526028 0)
(0.478266 0.525465 0)
(0.515956 0.523019 0)
(0.598902 0.488147 0)
(1.02931 0.505041 0)
(-0.981499 0.594201 0)
(-0.569294 0.572949 0)
(-0.482621 0.604019 0)
(-0.453908 0.609747 0)
(-0.404247 0.611118 0)
(-0.361188 0.613594 0)
(-0.311733 0.615801 0)
(-0.262014 0.617008 0)
(-0.211386 0.618616 0)
(-0.161516 0.620376 0)
(-0.112957 0.623007 0)
(-0.0691494 0.626975 0)
(-0.0343119 0.632049 0)
(-0.0117444 0.636379 0)
(-0.00207335 0.638426 0)
(-0.00012847 0.638854 0)
(-1.84809e-06 0.638882 0)
(-4.22053e-09 0.638883 0)
(-1.11877e-12 0.638883 0)
(-1.2995e-14 0.638883 0)
(-1.33024e-14 0.638883 0)
(1.14186e-12 0.638883 0)
(4.22049e-09 0.638883 0)
(1.84807e-06 0.638882 0)
(0.000128469 0.638854 0)
(0.00207334 0.638426 0)
(0.0117443 0.636379 0)
(0.034312 0.632049 0)
(0.0691496 0.626975 0)
(0.112957 0.623006 0)
(0.161517 0.620374 0)
(0.211387 0.618613 0)
(0.262016 0.617004 0)
(0.311736 0.615795 0)
(0.361193 0.613589 0)
(0.404253 0.611113 0)
(0.453916 0.609744 0)
(0.48263 0.604018 0)
(0.569299 0.572951 0)
(0.981499 0.594204 0)
(-1.03837 1.04296 0)
(-0.589272 0.983815 0)
(-0.498022 1.03498 0)
(-0.507142 1.05833 0)
(-0.431956 1.09301 0)
(-0.402452 1.12198 0)
(-0.32841 1.14722 0)
(-0.283172 1.17304 0)
(-0.215658 1.19067 0)
(-0.163307 1.20819 0)
(-0.107103 1.21954 0)
(-0.0598919 1.22767 0)
(-0.0242432 1.23203 0)
(-0.00573708 1.23394 0)
(-0.000583958 1.23445 0)
(-1.84001e-05 1.23452 0)
(-1.3149e-07 1.23452 0)
(-1.5635e-10 1.23452 0)
(2.28633e-14 1.23452 0)
(-2.88292e-15 1.23452 0)
(-2.93611e-14 1.23452 0)
(-2.99368e-14 1.23452 0)
(1.56313e-10 1.23452 0)
(1.3149e-07 1.23452 0)
(1.84001e-05 1.23452 0)
(0.000583957 1.23445 0)
(0.00573707 1.23394 0)
(0.0242431 1.23203 0)
(0.0598919 1.22767 0)
(0.107103 1.21954 0)
(0.163308 1.20819 0)
(0.215658 1.19067 0)
(0.283173 1.17304 0)
(0.32841 1.14722 0)
(0.402452 1.12198 0)
(0.431957 1.09301 0)
(0.507142 1.05833 0)
(0.498022 1.03498 0)
(0.589272 0.983813 0)
(1.03837 1.04296 0)
(-1.03837 -1.04296 0)
(-0.589272 -0.983815 0)
(-0.498022 -1.03498 0)
(-0.507142 -1.05833 0)
(-0.431956 -1.09301 0)
(-0.402452 -1.12198 0)
(-0.32841 -1.14722 0)
(-0.283172 -1.17304 0)
(-0.215658 -1.19067 0)
(-0.163307 -1.20819 0)
(-0.107103 -1.21954 0)
(-0.0598919 -1.22767 0)
(-0.0242432 -1.23203 0)
(-0.00573708 -1.23394 0)
(-0.000583958 -1.23445 0)
(-1.84001e-05 -1.23452 0)
(-1.3149e-07 -1.23452 0)
(-1.56223e-10 -1.23452 0)
(1.93419e-13 -1.23452 0)
(1.16171e-13 -1.23452 0)
(3.09247e-14 -1.23452 0)
(6.75663e-16 -1.23452 0)
(1.56303e-10 -1.23452 0)
(1.3149e-07 -1.23452 0)
(1.84001e-05 -1.23452 0)
(0.000583957 -1.23445 0)
(0.00573707 -1.23394 0)
(0.0242431 -1.23203 0)
(0.0598919 -1.22767 0)
(0.107103 -1.21954 0)
(0.163308 -1.20819 0)
(0.215658 -1.19067 0)
(0.283173 -1.17304 0)
(0.32841 -1.14722 0)
(0.402452 -1.12198 0)
(0.431957 -1.09301 0)
(0.507142 -1.05833 0)
(0.498022 -1.03498 0)
(0.589272 -0.983813 0)
(1.03837 -1.04296 0)
(-0.981499 -0.594201 0)
(-0.569294 -0.572949 0)
(-0.482621 -0.604019 0)
(-0.453908 -0.609747 0)
(-0.404247 -0.611118 0)
(-0.361188 -0.613594 0)
(-0.311733 -0.615801 0)
(-0.262014 -0.617008 0)
(-0.211386 -0.618616 0)
(-0.161516 -0.620376 0)
(-0.112957 -0.623007 0)
(-0.0691494 -0.626975 0)
(-0.0343119 -0.632049 0)
(-0.0117444 -0.636379 0)
(-0.00207335 -0.638426 0)
(-0.00012847 -0.638854 0)
(-1.84809e-06 -0.638882 0)
(-4.22058e-09 -0.638883 0)
(-1.05418e-12 -0.638883 0)
(1.03508e-14 -0.638883 0)
(8.1897e-15 -0.638883 0)
(1.19083e-12 -0.638883 0)
(4.22041e-09 -0.638883 0)
(1.84807e-06 -0.638882 0)
(0.000128469 -0.638854 0)
(0.00207334 -0.638426 0)
(0.0117443 -0.636379 0)
(0.034312 -0.632049 0)
(0.0691496 -0.626975 0)
(0.112957 -0.623006 0)
(0.161517 -0.620374 0)
(0.211387 -0.618613 0)
(0.262016 -0.617004 0)
(0.311736 -0.615795 0)
(0.361193 -0.613589 0)
(0.404253 -0.611113 0)
(0.453916 -0.609744 0)
(0.48263 -0.604018 0)
(0.569299 -0.572951 0)
(0.981499 -0.594204 0)
(-1.02931 -0.505031 0)
(-0.598896 -0.488132 0)
(-0.515947 -0.523004 0)
(-0.478257 -0.525455 0)
(-0.432148 -0.526025 0)
(-0.384094 -0.527102 0)
(-0.335683 -0.530037 0)
(-0.282591 -0.53072 0)
(-0.231159 -0.532979 0)
(-0.179871 -0.53509 0)