/*--------------------------------*- C++ -*----------------------------------*\
| =========                 |                                                 |
| \\      /  F ield         | OpenFOAM: The Open Source CFD Toolbox           |
|  \\    /   O peration     | Version:  v1912                                 |
|   \\  /    A nd           | Website:  www.openfoam.com                      |
|    \\/     M anipulation  |                                                 |
\*---------------------------------------------------------------------------*/
FoamFile
{
    version     2.0;
    format      ascii;
    class       volScalarField;
    location    "6.72";
    object      Ma;
}
// * * * * * * * * * * * * * * * * * * * * * * * * * * * * * * * * * * * * * //

dimensions      [0 0 0 0 0 0 0];


internalField   nonuniform List<scalar> 
1900
(
0.681922
0.0431624
0.0914063
0.0894127
0.0911309
0.0922738
0.0940411
0.096627
0.0985989
0.0925255
0.681921
0.0431608
0.0914116
0.0894188
0.0911235
0.0922227
0.0939118
0.0962838
0.099909
0.104274
0.681921
0.0431607
0.0914114
0.0894151
0.091104
0.0921913
0.0939012
0.0964303
0.100599
0.110434
0.681921
0.0431608
0.0914116
0.0894188
0.0911235
0.0922227
0.0939118
0.0962838
0.099909
0.104274
0.681922
0.0431624
0.0914063
0.0894127
0.0911309
0.0922738
0.0940411
0.096627
0.0985989
0.0925255
0.10195
0.141768
0.195894
0.282928
0.431947
0.12192
0.148903
0.181328
0.247539
0.392526
0.129833
0.155613
0.188204
0.251292
0.389469
0.12192
0.148903
0.181328
0.247539
0.392526
0.10195
0.141768
0.195894
0.282928
0.431947
0.949017
1.34366
1.59193
1.78657
1.99908
0.907456
1.34262
1.61411
1.80579
2.01825
0.903025
1.35171
1.61476
1.80011
2.01413
0.907456
1.34262
1.61411
1.80579
2.01825
0.949017
1.34366
1.59193
1.78657
1.99908
2.08323
2.12721
2.24769
2.29855
2.22565
1.59306
1.21325
1.13197
0.995587
0.819832
0.665747
0.548642
0.449457
0.329874
0.191967
0.108645
0.0861501
0.0833095
0.0849663
0.0890795
0.0988636
0.117256
0.14293
0.172274
0.202557
0.232698
0.262026
0.291387
0.319613
0.347576
0.375098
0.400589
0.423634
0.442624
0.460447
0.453019
0.349535
0.147503
0.0724745
0.0888424
2.14378
2.17249
2.2804
2.31095
2.20844
1.58081
1.19936
1.11793
0.995252
0.835577
0.683597
0.561546
0.455709
0.331074
0.191046
0.106509
0.0835571
0.0808327
0.0826779
0.0870591
0.0971075
0.11584
0.141839
0.171453
0.201951
0.232264
0.261724
0.291215
0.319525
0.347587
0.375172
0.400744
0.423802
0.442833
0.460729
0.453356
0.349923
0.147408
0.0701242
0.0874743
2.13272
2.16694
2.27948
2.30681
2.20094
1.56843
1.18577
1.11832
0.996711
0.823667
0.668685
0.551886
0.453617
0.332713
0.191942
0.106063
0.0827853
0.080096
0.0819859
0.0864497
0.0965392
0.115359
0.141458
0.171152
0.201709
0.232068
0.261563
0.291091
0.319426
0.347523
0.375137
0.400754
0.423848
0.442945
0.460954
0.453748
0.350565
0.148269
0.0706197
0.0849543
2.14378
2.17249
2.2804
2.31095
2.20844
1.58081
1.19936
1.11793
0.995252
0.835577
0.683597
0.561546
0.455709
0.331074
0.191046
0.106509
0.0835571
0.0808327
0.0826779
0.0870591
0.0971075
0.11584
0.141839
0.171453
0.201951
0.232264
0.261724
0.291215
0.319525
0.347587
0.375172
0.400744
0.423802
0.442833
0.460729
0.453356
0.349923
0.147408
0.0701242
0.0874743
2.08323
2.12721
2.24769
2.29855
2.22565
1.59306
1.21325
1.13197
0.995587
0.819832
0.665747
0.548642
0.449457
0.329874
0.191967
0.108645
0.0861501
0.0833095
0.0849663
0.0890795
0.0988636
0.117256
0.14293
0.172274
0.202557
0.232698
0.262026
0.291387
0.319613
0.347576
0.375098
0.400589
0.423634
0.442624
0.460447
0.453019
0.349535
0.147503
0.0724745
0.0888424
2.03039
2.03938
2.12394
2.15905
2.01879
1.48751
1.18342
1.06699
0.926312
0.781441
0.655089
0.549924
0.451979
0.329601
0.192736
0.115049
0.0951894
0.0924124
0.0933729
0.0970518
0.106198
0.123541
0.148144
0.176626
0.206272
0.235937
0.264945
0.293983
0.322074
0.349835
0.377298
0.402653
0.42584
0.444864
0.462636
0.455228
0.352051
0.151988
0.083877
0.091718
1.99714
2.01948
1.97282
1.86336
1.63498
1.30194
1.06638
0.946676
0.831534
0.721955
0.620704
0.532497
0.44124
0.32063
0.194527
0.132466
0.117705
0.114825
0.114431
0.117007
0.124876
0.140072
0.162223
0.188555
0.21653
0.244913
0.273046
0.301188
0.328889
0.356078
0.383355
0.408299
0.431793
0.450782
0.468516
0.460962
0.358484
0.1622
0.106231
0.108147
1.84354
1.83716
1.73705
1.5907
1.32822
1.05268
0.906028
0.832623
0.754864
0.680092
0.595977
0.516482
0.42652
0.307775
0.200669
0.156888
0.146221
0.142792
0.141128
0.142729
0.14933
0.162392
0.181876
0.205643
0.23147
0.258114
0.285017
0.311876
0.338982
0.365312
0.392249
0.416532
0.440303
0.459134
0.476835
0.468946
0.367452
0.176528
0.133257
0.13044
1.51442
1.45428
1.36057
1.19463
0.979796
0.836705
0.810837
0.775977
0.727297
0.649386
0.572581
0.499717
0.408657
0.296172
0.21479
0.186089
0.177668
0.173286
0.170572
0.171446
0.177037
0.188246
0.205297
0.226536
0.250094
0.274795
0.300277
0.325622
0.351982
0.377258
0.403719
0.427168
0.451102
0.469711
0.487342
0.47894
0.378842
0.194389
0.162655
0.156148
1.14215
1.03283
0.921096
0.822561
0.794615
0.814647
0.806844
0.76337
0.690463
0.618187
0.552899
0.481276
0.387977
0.290404
0.235809
0.217238
0.209691
0.204323
0.200921
0.201366
0.206262
0.216021
0.231046
0.250055
0.271507
0.294322
0.318399
0.342224
0.367816
0.392004
0.417968
0.440567
0.464634
0.483027
0.500647
0.491841
0.393749
0.216216
0.193388
0.182171
0.790238
0.730598
0.752358
0.825566
0.862279
0.848901
0.798434
0.729569
0.66054
0.59874
0.536518
0.462247
0.372585
0.29908
0.264429
0.250539
0.242425
0.235949
0.231957
0.232061
0.236274
0.244818
0.258091
0.27509
0.29455
0.315491
0.338109
0.360338
0.384993
0.407941
0.433214
0.454786
0.478687
0.496568
0.513884
0.504403
0.408132
0.237693
0.223208
0.211894
0.768765
0.811071
0.877131
0.903496
0.880584
0.83007
0.769118
0.70153
0.639892
0.581327
0.518144
0.442521
0.365771
0.316632
0.294062
0.282236
0.273453
0.266384
0.262244
0.262473
0.266217
0.273866
0.285843
0.30134
0.319302
0.338815
0.3604
0.38136
0.405383
0.427404
0.452221
0.473046
0.496912
0.514437
0.531578
0.522019
0.428489
0.264216
0.254542
0.23957
0.796105
0.844425
0.890849
0.892227
0.856634
0.804055
0.746363
0.681917
0.625966
0.567834
0.503525
0.433965
0.377354
0.34459
0.326822
0.314777
0.304997
0.297284
0.292914
0.292775
0.296193
0.30293
0.313584
0.327519
0.34388
0.361798
0.382158
0.401534
0.42469
0.445589
0.469698
0.489596
0.51315
0.530091
0.54676
0.536942
0.44586
0.288562
0.284232
0.269459
0.770694
0.817951
0.857011
0.860865
0.831142
0.784569
0.72831
0.667221
0.612785
0.554253
0.492107
0.435191
0.396032
0.372385
0.356827
0.34457
0.33441
0.326636
0.322634
0.322532
0.325744
0.331884
0.341693
0.354659
0.370061
0.38697
0.406586
0.424896
0.447511
0.467628
0.4912
0.510347
0.533547
0.549857
0.565785
0.556263
0.46769
0.315905
0.314508
0.298144
0.732113
0.775538
0.813818
0.833344
0.813452
0.769996
0.715297
0.657629
0.604275
0.548599
0.495229
0.452932
0.423987
0.403656
0.388186
0.375234
0.364437
0.35628
0.352029
0.351908
0.354768
0.360125
0.368866
0.380612
0.394795
0.410408
0.429027
0.446108
0.467992
0.487283
0.510247
0.528657
0.551479
0.567193
0.582291
0.573632
0.487522
0.342245
0.343708
0.326775
0.686425
0.729844
0.773218
0.817607
0.805216
0.756599
0.706038
0.650175
0.598494
0.548086
0.505126
0.472761
0.448818
0.430279
0.415117
0.402021
0.391257
0.384282
0.380196
0.380203
0.382956
0.38795
0.396224
0.407448
0.421108
0.436034
0.454157
0.470519
0.491888
0.510617
0.533058
0.550816
0.573139
0.588203
0.602312
0.594263
0.510422
0.370151
0.372791
0.3541
0.650977
0.696518
0.740145
0.806579
0.799695
0.744068
0.699255
0.647133
0.601169
0.559282
0.525929
0.498189
0.4767
0.459011
0.44305
0.429169
0.418852
0.410724
0.406353
0.406187
0.408508
0.412719
0.420051
0.430279
0.442991
0.456874
0.474248
0.489685
0.510381
0.528517
0.550383
0.567519
0.589387
0.603918
0.617249
0.609677
0.528949
0.396399
0.400991
0.381757
0.632312
0.676448
0.71721
0.797267
0.794857
0.740007
0.698026
0.648959
0.608532
0.572195
0.542994
0.517866
0.497456
0.479266
0.464248
0.451658
0.440601
0.432656
0.428492
0.428492
0.430926
0.435209
0.442685
0.453068
0.465916
0.479664
0.497029
0.512176
0.532479
0.550331
0.57171
0.588334
0.6096
0.623524
0.63585
0.628465
0.550895
0.423634
0.428083
0.405842
0.625293
0.667929
0.702056
0.788006
0.785825
0.735054
0.695161
0.650859
0.619478
0.588707
0.563492
0.54045
0.520605
0.502122
0.485276
0.471137
0.459747
0.451542
0.447081
0.44684
0.448933
0.452733
0.459766
0.469777
0.482316
0.49557
0.512618
0.527291
0.546843
0.564245
0.58506
0.601153
0.621856
0.635195
0.646615
0.639061
0.565302
0.446795
0.452731
0.429509
0.618989
0.65999
0.688166
0.773189
0.773784
0.730799
0.699354
0.659012
0.630278
0.599471
0.575051
0.551785
0.531097
0.512788
0.497613
0.484768
0.474451
0.467192
0.463472
0.463831
0.466084
0.469566
0.476111
0.485656
0.497802
0.510414
0.52701
0.541055
0.559494
0.575918
0.595644
0.6108
0.630418
0.642705
0.652636
0.644402
0.575282
0.466782
0.473978
0.447996
0.61215
0.648195
0.668653
0.755555
0.762134
0.722898
0.694492
0.655344
0.630144
0.601134
0.578032
0.55539
0.535285
0.516774
0.500102
0.485742
0.474364
0.465969
0.461109
0.460365
0.461158
0.462872
0.46778
0.475953
0.486939
0.498172
0.514037
0.527464
0.545866
0.562833
0.582976
0.598325
0.617926
0.629852
0.639165
0.631659
0.571761
0.47981
0.495328
0.471707
0.610696
0.641843
0.644708
0.717073
0.725002
0.687663
0.66169
0.622347
0.597181
0.565659
0.539659
0.512905
0.48786
0.463887
0.441707
0.421937
0.40515
0.391753
0.382549
0.37816
0.375272
0.373356
0.375552
0.382214
0.392713
0.403762
0.421016
0.43542
0.455031
0.473293
0.495166
0.513294
0.535832
0.551508
0.565544
0.566953
0.531258
0.476441
0.511478
0.490509
0.661735
0.675402
0.620468
0.636941
0.626875
0.586807
0.557159
0.512423
0.48064
0.442146
0.408744
0.374779
0.34244
0.311702
0.283574
0.258329
0.23651
0.21896
0.206954
0.201207
0.197902
0.196807
0.201607
0.212361
0.227873
0.244553
0.267361
0.288165
0.313272
0.337671
0.364691
0.39036
0.41795
0.442246
0.464884
0.480887
0.479448
0.483359
0.578891
0.578634
1.19471
0.839654
0.646813
0.587715
0.565611
0.530906
0.500532
0.459264
0.425232
0.387095
0.351427
0.316074
0.282519
0.250476
0.220446
0.192302
0.166307
0.143749
0.127562
0.12085
0.121751
0.130135
0.147416
0.170735
0.197227
0.223697
0.253206
0.280915
0.310245
0.338743
0.367954
0.3962
0.424168
0.450245
0.473809
0.496899
0.514526
0.57917
0.768448
1.09995
2.46522
1.19158
0.587269
0.499468
0.472159
0.438824
0.406926
0.370027
0.334215
0.298705
0.263339
0.230035
0.198109
0.16771
0.13789
0.108489
0.0792623
0.0507017
0.0252366
0.0210526
0.0459976
0.0760083
0.106587
0.13698
0.167053
0.198199
0.228349
0.259091
0.289287
0.319139
0.347967
0.37686
0.402913
0.429053
0.450582
0.475761
0.496683
0.579915
1.05122
2.40838
2.46522
1.19158
0.587269
0.499468
0.472159
0.438824
0.406926
0.370027
0.334215
0.298705
0.263339
0.230035
0.198109
0.16771
0.13789
0.108489
0.0792623
0.0507017
0.0252366
0.0210526
0.0459976
0.0760083
0.106587
0.13698
0.167053
0.198199
0.228349
0.259091
0.289287
0.319139
0.347967
0.37686
0.402913
0.429053
0.450582
0.475761
0.496683
0.579915
1.05122
2.40838
1.19471
0.839654
0.646813
0.587715
0.565611
0.530906
0.500532
0.459264
0.425232
0.387095
0.351427
0.316074
0.282519
0.250476
0.220446
0.192302
0.166307
0.143749
0.127562
0.12085
0.121751
0.130135
0.147416
0.170735
0.197227
0.223697
0.253206
0.280915
0.310245
0.338743
0.367954
0.3962
0.424168
0.450245
0.473809
0.496899
0.514526
0.57917
0.768448
1.09995
0.661735
0.675402
0.620468
0.636941
0.626875
0.586807
0.557159
0.512423
0.48064
0.442146
0.408744
0.374779
0.34244
0.311702
0.283574
0.258329
0.23651
0.21896
0.206954
0.201207
0.197902
0.196807
0.201607
0.212361
0.227873
0.244553
0.267361
0.288165
0.313272
0.337671
0.364691
0.39036
0.41795
0.442246
0.464884
0.480887
0.479448
0.483359
0.578891
0.578634
0.610696
0.641843
0.644708
0.717073
0.725002
0.687663
0.66169
0.622347
0.597181
0.565659
0.539659
0.512905
0.48786
0.463887
0.441707
0.421937
0.40515
0.391753
0.382549
0.37816
0.375272
0.373356
0.375552
0.382214
0.392713
0.403762
0.421016
0.43542
0.455031
0.473293
0.495166
0.513294
0.535832
0.551508
0.565544
0.566953
0.531258
0.476441
0.511478
0.490509
0.61215
0.648195
0.668653
0.755555
0.762134
0.722898
0.694492
0.655344
0.630144
0.601134
0.578032
0.55539
0.535285
0.516774
0.500102
0.485742
0.474364
0.465969
0.461109
0.460365
0.461158
0.462872
0.46778
0.475953
0.486939
0.498172
0.514037
0.527464
0.545866
0.562833
0.582976
0.598325
0.617926
0.629852
0.639165
0.631659
0.571761
0.47981
0.495328
0.471707
0.618989
0.65999
0.688166
0.773189
0.773784
0.730799
0.699354
0.659012
0.630278
0.599471
0.575051
0.551785
0.531097
0.512788
0.497613
0.484768
0.474451
0.467192
0.463472
0.463831
0.466084
0.469566
0.476111
0.485656
0.497802
0.510414
0.52701
0.541055
0.559494
0.575918
0.595644
0.6108
0.630418
0.642705
0.652636
0.644402
0.575282
0.466782
0.473978
0.447996
0.625293
0.667929
0.702056
0.788006
0.785825
0.735054
0.695161
0.650859
0.619478
0.588707
0.563492
0.54045
0.520605
0.502122
0.485276
0.471137
0.459747
0.451542
0.447081
0.44684
0.448933
0.452733
0.459766
0.469777
0.482316
0.49557
0.512618
0.527291
0.546843
0.564245
0.58506
0.601153
0.621856
0.635195
0.646615
0.639061
0.565302
0.446795
0.452731
0.429509
0.632312
0.676448
0.71721
0.797267
0.794857
0.740007
0.698026
0.648959
0.608532
0.572195
0.542994
0.517866
0.497456
0.479266
0.464248
0.451658
0.440601
0.432656
0.428492
0.428492
0.430926
0.435209
0.442685
0.453068
0.465916
0.479664
0.497029
0.512176
0.532479
0.550331
0.57171
0.588334
0.6096
0.623524
0.63585
0.628465
0.550895
0.423634
0.428083
0.405842
0.650977
0.696518
0.740145
0.806579
0.799695
0.744068
0.699255
0.647133
0.601169
0.559282
0.525929
0.498189
0.4767
0.459011
0.44305
0.429169
0.418852
0.410724
0.406353
0.406187
0.408508
0.412719
0.420051
0.430279
0.442991
0.456874
0.474248
0.489685
0.510381
0.528517
0.550383
0.567519
0.589387
0.603918
0.617249
0.609677
0.528949
0.396399
0.400991
0.381757
0.686425
0.729844
0.773218
0.817607
0.805216
0.756599
0.706038
0.650175
0.598494
0.548086
0.505126
0.472761
0.448818
0.430279
0.415117
0.402021
0.391257
0.384282
0.380196
0.380203
0.382956
0.38795
0.396224
0.407448
0.421108
0.436034
0.454157
0.470519
0.491888
0.510617
0.533058
0.550816
0.573139
0.588203
0.602312
0.594263
0.510422
0.370151
0.372791
0.3541
0.732113
0.775538
0.813818
0.833344
0.813452
0.769996
0.715297
0.657629
0.604275
0.548599
0.495229
0.452932
0.423987
0.403656
0.388186
0.375234
0.364437
0.35628
0.352029
0.351908
0.354768
0.360125
0.368866
0.380612
0.394795
0.410408
0.429027
0.446108
0.467992
0.487283
0.510247
0.528657
0.551479
0.567193
0.582291
0.573632
0.487522
0.342245
0.343708
0.326775
0.770694
0.817951
0.857011
0.860865
0.831142
0.784569
0.72831
0.667221
0.612785
0.554253
0.492107
0.435191
0.396032
0.372385
0.356827
0.34457
0.33441
0.326636
0.322634
0.322532
0.325744
0.331884
0.341693
0.354659
0.370061
0.38697
0.406586
0.424896
0.447511
0.467628
0.4912
0.510347
0.533547
0.549857
0.565785
0.556263
0.46769
0.315905
0.314508
0.298144
0.796105
0.844425
0.890849
0.892227
0.856634
0.804055
0.746363
0.681917
0.625966
0.567834
0.503525
0.433965
0.377354
0.34459
0.326822
0.314777
0.304997
0.297284
0.292914
0.292775
0.296193
0.30293
0.313584
0.327519
0.34388
0.361798
0.382158
0.401534
0.42469
0.445589
0.469698
0.489596
0.51315
0.530091
0.54676
0.536942
0.44586
0.288562
0.284232
0.269459
0.768765
0.811071
0.877131
0.903496
0.880584
0.83007
0.769118
0.70153
0.639892
0.581327
0.518144
0.442521
0.365771
0.316632
0.294062
0.282236
0.273453
0.266384
0.262244
0.262473
0.266217
0.273866
0.285843
0.30134
0.319302
0.338815
0.3604
0.38136
0.405383
0.427404
0.452221
0.473046
0.496912
0.514437
0.531578
0.522019
0.428489
0.264216
0.254542
0.23957
0.790238
0.730598
0.752358
0.825566
0.862279
0.848901
0.798434
0.729569
0.66054
0.59874
0.536518
0.462247
0.372585
0.29908
0.264429
0.250539
0.242425
0.235949
0.231957
0.232061
0.236274
0.244818
0.258091
0.27509
0.29455
0.315491
0.338109
0.360338
0.384993
0.407941
0.433214
0.454786
0.478687
0.496568
0.513884
0.504403
0.408132
0.237693
0.223208
0.211894
1.14215
1.03283
0.921096
0.822561
0.794615
0.814647
0.806844
0.76337
0.690463
0.618187
0.552899
0.481276
0.387977
0.290404
0.235809
0.217238
0.209691
0.204323
0.200921
0.201366
0.206262
0.216021
0.231046
0.250055
0.271507
0.294322
0.318399
0.342224
0.367816
0.392004
0.417968
0.440567
0.464634
0.483027
0.500647
0.491841
0.393749
0.216216
0.193388
0.182171
1.51442
1.45428
1.36057
1.19463
0.979796
0.836705
0.810837
0.775977
0.727297
0.649386
0.572581
0.499717
0.408657
0.296172
0.21479
0.186089
0.177668
0.173286
0.170572
0.171446
0.177037
0.188246
0.205297
0.226536
0.250094
0.274795
0.300277
0.325622
0.351982
0.377258
0.403719
0.427168
0.451102
0.469711
0.487342
0.47894
0.378842
0.194389
0.162655
0.156148
1.84354
1.83716
1.73705
1.5907
1.32822
1.05268
0.906028
0.832623
0.754864
0.680092
0.595977
0.516482
0.42652
0.307775
0.200669
0.156888
0.146221
0.142792
0.141128
0.142729
0.14933
0.162392
0.181876
0.205643
0.23147
0.258114
0.285017
0.311876
0.338982
0.365312
0.392249
0.416532
0.440303
0.459134
0.476835
0.468946
0.367452
0.176528
0.133257
0.13044
1.99714
2.01948
1.97282
1.86336
1.63498
1.30194
1.06638
0.946676
0.831534
0.721955
0.620704
0.532497
0.44124
0.32063
0.194527
0.132466
0.117705
0.114825
0.114431
0.117007
0.124876
0.140072
0.162223
0.188555
0.21653
0.244913
0.273046
0.301188
0.328889
0.356078
0.383355
0.408299
0.431793
0.450782
0.468516
0.460962
0.358484
0.1622
0.106231
0.108147
2.03039
2.03938
2.12394
2.15905
2.01879
1.48751
1.18342
1.06699
0.926312
0.781441
0.655089
0.549924
0.451979
0.329601
0.192736
0.115049
0.0951894
0.0924124
0.0933729
0.0970518
0.106198
0.123541
0.148144
0.176626
0.206272
0.235937
0.264945
0.293983
0.322074
0.349835
0.377298
0.402653
0.42584
0.444864
0.462636
0.455228
0.352051
0.151988
0.083877
0.091718
)
;

boundaryField
{
    inlet
    {
        type            calculated;
        value           uniform 0;
    }
    outlet
    {
        type            calculated;
        value           nonuniform List<scalar> 
165
(
2.03039
1.99714
1.84354
1.51442
1.14215
0.790238
0.768765
0.796105
0.770694
0.732113
0.686425
0.650977
0.632312
0.625293
0.618989
0.61215
0.610696
0.661735
1.19471
2.46522
2.46522
1.19158
0.587269
0.499468
0.472159
0.438824
0.406926
0.370027
0.334215
0.298705
0.263339
0.230035
0.198109
0.16771
0.13789
0.108489
0.0792623
0.0507017
0.0252366
0.0210526
0.0459976
0.0760083
0.106587
0.13698
0.167053
0.198199
0.228349
0.259091
0.289287
0.319139
0.347967
0.37686
0.402913
0.429053
0.450582
0.475761
0.496683
0.579915
1.05122
2.40838
0.091718
0.108147
0.13044
0.156148
0.182171
0.211894
0.23957
0.269459
0.298144
0.326775
0.3541
0.381757
0.405842
0.429509
0.447996
0.471707
0.490509
0.578634
1.09995
2.40838
0.0888424
0.0874743
0.0849543
0.0874743
0.0888424
2.40838
1.09995
0.578634
0.490509
0.471707
0.447996
0.429509
0.405842
0.381757
0.3541
0.326775
0.298144
0.269459
0.23957
0.211894
0.182171
0.156148
0.13044
0.108147
0.091718
2.46522
1.19158
0.587269
0.499468
0.472159
0.438824
0.406926
0.370027
0.334215
0.298705
0.263339
0.230035
0.198109
0.16771
0.13789
0.108489
0.0792623
0.0507017
0.0252366
0.0210526
0.0459976
0.0760083
0.106587
0.13698
0.167053
0.198199
0.228349
0.259091
0.289287
0.319139
0.347967
0.37686
0.402913
0.429053
0.450582
0.475761
0.496683
0.579915
1.05122
2.40838
2.46522
1.19471
0.661735
0.610696
0.61215
0.618989
0.625293
0.632312
0.650977
0.686425
0.732113
0.770694
0.796105
0.768765
0.790238
1.14215
1.51442
1.84354
1.99714
2.03039
)
;
    }
    obstacle
    {
        type            calculated;
        value           nonuniform List<scalar> 
40
(
0.681922
0.0431624
0.0914063
0.0894127
0.0911309
0.0922738
0.094041
0.0966268
0.0985547
0.0917085
0.681922
0.0431624
0.0914063
0.0894127
0.0911309
0.0922738
0.094041
0.0966268
0.0985547
0.0917085
0.10002
0.138685
0.192593
0.279627
0.425301
0.10002
0.138685
0.192593
0.279627
0.425301
0.938924
1.34089
1.59046
1.78492
1.99794
0.938924
1.34089
1.59046
1.78492
1.99794
)
;
    }
    empty
    {
        type            empty;
    }
}


// ************************************************************************* //
