/*--------------------------------*- C++ -*----------------------------------*\
| =========                 |                                                 |
| \\      /  F ield         | OpenFOAM: The Open Source CFD Toolbox           |
|  \\    /   O peration     | Version:  v1912                                 |
|   \\  /    A nd           | Website:  www.openfoam.com                      |
|    \\/     M anipulation  |                                                 |
\*---------------------------------------------------------------------------*/
FoamFile
{
    version     2.0;
    format      ascii;
    class       volScalarField;
    location    "7.12";
    object      T;
}
// * * * * * * * * * * * * * * * * * * * * * * * * * * * * * * * * * * * * * //

dimensions      [0 0 0 1 0 0 0];


internalField   nonuniform List<scalar> 
1900
(
1.24548
0.962553
0.920611
0.921467
0.927065
0.937689
0.947639
0.953683
0.95606
0.956723
1.24548
0.962553
0.92061
0.921467
0.927069
0.937688
0.947648
0.953685
0.956333
0.95669
1.24548
0.962553
0.92061
0.921467
0.927076
0.937698
0.947636
0.953634
0.956019
0.956445
1.24548
0.962553
0.92061
0.921467
0.927069
0.937688
0.947648
0.953685
0.956333
0.95669
1.24548
0.962553
0.920611
0.921467
0.927065
0.937689
0.947639
0.953683
0.95606
0.956723
0.960679
0.956269
0.959087
0.96728
1.00665
0.956214
0.953277
0.95539
0.96198
0.988572
0.955391
0.952659
0.954376
0.961531
0.986628
0.956214
0.953277
0.95539
0.96198
0.988572
0.960679
0.956269
0.959087
0.96728
1.00665
0.797856
0.682163
0.617724
0.572885
0.541332
0.817715
0.698639
0.630537
0.586481
0.548515
0.817627
0.693
0.624232
0.581768
0.540005
0.817715
0.698639
0.630537
0.586481
0.548515
0.797856
0.682163
0.617724
0.572885
0.541332
0.516845
0.499264
0.487535
0.467148
0.456221
0.460614
0.527854
0.616734
0.625533
0.618155
0.596174
0.564648
0.538113
0.518916
0.499574
0.473928
0.44015
0.410698
0.396944
0.390795
0.386194
0.381916
0.378267
0.375777
0.374513
0.374077
0.374011
0.374179
0.374427
0.37492
0.375634
0.376797
0.377937
0.381354
0.39211
0.431243
0.471363
0.494267
0.518988
0.527315
0.526591
0.517995
0.509638
0.488226
0.468639
0.471147
0.535821
0.622666
0.62809
0.61932
0.596212
0.56456
0.53838
0.519832
0.500468
0.474566
0.440505
0.410817
0.39696
0.390794
0.386211
0.381926
0.378264
0.375768
0.374503
0.374067
0.374002
0.374172
0.37442
0.374915
0.375629
0.376794
0.377934
0.381351
0.392082
0.431199
0.471331
0.494548
0.518904
0.527239
0.525605
0.520116
0.514688
0.496832
0.474235
0.47579
0.538852
0.625127
0.629395
0.620073
0.59673
0.566256
0.539269
0.519651
0.500072
0.474443
0.44063
0.410899
0.396971
0.390795
0.386218
0.381931
0.378264
0.375765
0.3745
0.374064
0.374
0.374169
0.374418
0.374913
0.375627
0.376793
0.377932
0.381349
0.39207
0.431183
0.471318
0.494662
0.518878
0.527229
0.526591
0.517995
0.509638
0.488226
0.468639
0.471147
0.535821
0.622666
0.62809
0.61932
0.596212
0.56456
0.53838
0.519832
0.500468
0.474566
0.440505
0.410817
0.39696
0.390794
0.386211
0.381926
0.378264
0.375768
0.374503
0.374067
0.374002
0.374172
0.37442
0.374915
0.375629
0.376794
0.377934
0.381351
0.392082
0.431199
0.471331
0.494548
0.518904
0.527239
0.516845
0.499264
0.487535
0.467148
0.456221
0.460614
0.527854
0.616734
0.625533
0.618155
0.596174
0.564648
0.538113
0.518916
0.499574
0.473928
0.44015
0.410698
0.396944
0.390795
0.386194
0.381916
0.378267
0.375777
0.374513
0.374077
0.374011
0.374179
0.374427
0.37492
0.375634
0.376797
0.377937
0.381354
0.39211
0.431243
0.471363
0.494267
0.518988
0.527315
0.456206
0.453204
0.449839
0.440263
0.439282
0.449788
0.518047
0.59703
0.607648
0.602108
0.584282
0.557609
0.534702
0.517471
0.498574
0.472666
0.43875
0.409998
0.396826
0.390776
0.386128
0.381867
0.37827
0.375816
0.374561
0.374121
0.374048
0.374211
0.374456
0.374944
0.375653
0.376803
0.377945
0.381369
0.392181
0.431331
0.471383
0.493576
0.518992
0.527529
0.416296
0.415041
0.41246
0.415219
0.42433
0.447773
0.512465
0.574567
0.584448
0.580253
0.565056
0.544667
0.527527
0.512069
0.493489
0.467784
0.434819
0.408356
0.396539
0.390697
0.385987
0.381762
0.378273
0.375905
0.374679
0.374232
0.374146
0.374294
0.374531
0.375008
0.375705
0.376828
0.377962
0.381406
0.392319
0.431448
0.471358
0.492855
0.518815
0.527667
0.418028
0.418112
0.41938
0.429488
0.447638
0.478286
0.527707
0.561219
0.565616
0.559866
0.546207
0.531125
0.518477
0.504567
0.486509
0.460882
0.429214
0.406188
0.396163
0.390556
0.385822
0.381659
0.378305
0.376055
0.374875
0.374425
0.37432
0.374447
0.374672
0.375132
0.375811
0.376896
0.37801
0.381478
0.392525
0.431559
0.471226
0.492368
0.518588
0.527693
0.426912
0.427456
0.431907
0.445212
0.468237
0.504063
0.543556
0.554578
0.55189
0.539712
0.528339
0.518722
0.508659
0.495765
0.478026
0.452162
0.422638
0.404012
0.395781
0.390381
0.385657
0.381592
0.378397
0.376281
0.375158
0.374707
0.37458
0.37468
0.374889
0.37533
0.375986
0.377023
0.378107
0.381606
0.392814
0.431722
0.471079
0.492024
0.518403
0.52771
0.441491
0.444322
0.454332
0.471933
0.497934
0.526081
0.540484
0.540308
0.530727
0.522343
0.514321
0.507285
0.498341
0.48612
0.468023
0.441809
0.41604
0.402163
0.395368
0.390141
0.385482
0.381563
0.378557
0.37659
0.37553
0.375078
0.374926
0.374995
0.375186
0.375603
0.376233
0.377218
0.378262
0.381792
0.393147
0.431868
0.470867
0.491664
0.518125
0.527656
0.467135
0.473631
0.48489
0.497092
0.512013
0.524476
0.527685
0.521707
0.513865
0.506887
0.502173
0.49623
0.488031
0.475754
0.456391
0.430733
0.410586
0.400852
0.395003
0.389903
0.38535
0.381618
0.378821
0.377007
0.376011
0.375559
0.375381
0.375417
0.375591
0.375985
0.376588
0.377524
0.37853
0.382096
0.393644
0.432226
0.470845
0.491504
0.517976
0.527596
0.492556
0.500867
0.50233
0.508328
0.513084
0.5161
0.511143
0.502354
0.497901
0.494552
0.490699
0.485538
0.477511
0.464163
0.443377
0.420686
0.40681
0.399812
0.394511
0.389565
0.385219
0.381717
0.379145
0.377489
0.376556
0.376106
0.375905
0.375911
0.376065
0.376436
0.377015
0.377909
0.378877
0.382469
0.394108
0.432453
0.470724
0.491256
0.517721
0.527492
0.516141
0.522288
0.514141
0.510017
0.506936
0.498186
0.491088
0.487973
0.485831
0.483079
0.479963
0.475118
0.466219
0.450965
0.430213
0.413238
0.404471
0.399036
0.394058
0.389281
0.38519
0.381952
0.379613
0.378106
0.37723
0.376781
0.37656
0.376539
0.37667
0.377021
0.377578
0.378436
0.379381
0.383007
0.394786
0.432936
0.470809
0.491195
0.517588
0.52748
0.533887
0.525146
0.512466
0.502263
0.490329
0.482409
0.478416
0.476596
0.474748
0.472505
0.469917
0.464466
0.453748
0.436994
0.419424
0.408745
0.402902
0.398225
0.393505
0.389004
0.3852
0.382252
0.380148
0.37879
0.377974
0.377531
0.377294
0.377252
0.377362
0.377699
0.378243
0.379082
0.380025
0.383676
0.395492
0.433369
0.4709
0.491146
0.517473
0.527493
0.534203
0.520517
0.505614
0.493156
0.480539
0.47196
0.467592
0.466021
0.464441
0.462858
0.459933
0.452861
0.44019
0.424445
0.412619
0.406261
0.401972
0.397697
0.393175
0.388982
0.385514
0.382871
0.380989
0.379754
0.378979
0.378528
0.378269
0.3782
0.378285
0.378605
0.379135
0.379963
0.380921
0.384604
0.396477
0.434079
0.471171
0.491218
0.517465
0.527667
0.536303
0.520673
0.503868
0.488429
0.473149
0.461988
0.457167
0.456264
0.455272
0.453832
0.449501
0.440445
0.427461
0.415829
0.409063
0.404924
0.4013
0.397252
0.393019
0.389193
0.386073
0.383722
0.382049
0.380927
0.380186
0.379724
0.379439
0.37934
0.379399
0.379704
0.380225
0.381057
0.382048
0.385738
0.397529
0.434719
0.471449
0.491335
0.517456
0.527887
0.539837
0.52186
0.502785
0.485574
0.465434
0.452269
0.448111
0.447765
0.447093
0.444693
0.438436
0.428568
0.418244
0.411403
0.407446
0.404444
0.401171
0.397365
0.393452
0.389972
0.387189
0.385088
0.383564
0.382498
0.381746
0.381245
0.380917
0.380774
0.380807
0.381107
0.38164
0.382492
0.383544
0.387278
0.399087
0.435866
0.472093
0.491744
0.517741
0.528406
0.54142
0.522315
0.500184
0.482006
0.458391
0.444605
0.440909
0.440477
0.439369
0.435479
0.428041
0.419613
0.413412
0.409698
0.407018
0.404457
0.401288
0.397584
0.393918
0.390756
0.388272
0.386418
0.385065
0.38409
0.383371
0.382875
0.382543
0.382392
0.382438
0.382785
0.38337
0.384295
0.385453
0.389252
0.40098
0.437178
0.47298
0.492358
0.518057
0.528999
0.540996
0.522301
0.497752
0.47924
0.454474
0.439869
0.435543
0.434221
0.431767
0.426881
0.420497
0.415365
0.412062
0.409957
0.408099
0.405824
0.402823
0.399449
0.396264
0.393611
0.391597
0.390146
0.3891
0.388345
0.387788
0.387427
0.387201
0.387137
0.38725
0.387686
0.388312
0.389303
0.390523
0.394444
0.406174
0.441479
0.476206
0.494437
0.519038
0.530029
0.539702
0.522318
0.497698
0.479684
0.454299
0.438025
0.432749
0.430468
0.427233
0.423452
0.419931
0.417601
0.415983
0.414735
0.413447
0.411656
0.409274
0.406702
0.404386
0.40257
0.401354
0.400688
0.400407
0.400357
0.400426
0.400662
0.400856
0.401251
0.40171
0.402453
0.403202
0.404401
0.40561
0.409653
0.420968
0.453617
0.484836
0.500097
0.521123
0.530923
0.538665
0.523225
0.501737
0.486539
0.46163
0.443754
0.438432
0.437348
0.43593
0.435254
0.434822
0.43524
0.436051
0.437167
0.437967
0.438042
0.43747
0.436635
0.435911
0.435454
0.435399
0.435805
0.436397
0.436978
0.437474
0.438037
0.43839
0.438944
0.439429
0.440163
0.44076
0.441711
0.442481
0.445873
0.454978
0.480371
0.503855
0.513587
0.527203
0.532947
0.537852
0.52714
0.513961
0.505769
0.485897
0.468726
0.463497
0.463767
0.464326
0.465993
0.467532
0.469555
0.471455
0.473115
0.473912
0.473914
0.473393
0.472715
0.472167
0.47182
0.471697
0.471978
0.472248
0.472444
0.472523
0.472681
0.472699
0.472873
0.473019
0.47335
0.473604
0.4741
0.47458
0.476999
0.483619
0.501647
0.519755
0.527728
0.534212
0.533673
0.530595
0.53156
0.52804
0.521464
0.505521
0.491425
0.486477
0.48681
0.487596
0.489292
0.490796
0.492579
0.494029
0.494677
0.49453
0.493964
0.493228
0.492711
0.492528
0.492794
0.493292
0.492951
0.492218
0.491795
0.491532
0.491479
0.491357
0.491421
0.491492
0.491685
0.491816
0.492155
0.492512
0.493991
0.498515
0.510631
0.52581
0.536222
0.539267
0.526843
0.432362
0.503451
0.541021
0.536643
0.526148
0.517463
0.514151
0.514227
0.514672
0.515831
0.517007
0.518389
0.519333
0.519591
0.519418
0.519038
0.518625
0.518389
0.518316
0.518225
0.518099
0.517892
0.517684
0.51732
0.516937
0.516765
0.51656
0.516519
0.516486
0.516554
0.516572
0.516806
0.516979
0.517744
0.519422
0.524907
0.532248
0.538354
0.50377
0.425248
0.323213
0.416286
0.527715
0.535295
0.532363
0.528492
0.526934
0.526576
0.52688
0.527292
0.527767
0.528211
0.52847
0.528586
0.528608
0.528558
0.528439
0.528348
0.528291
0.528139
0.527843
0.527666
0.527475
0.527265
0.527042
0.526894
0.526775
0.526762
0.526753
0.526865
0.526997
0.527397
0.527805
0.528645
0.529455
0.531602
0.532614
0.526995
0.429245
0.324601
0.323213
0.416286
0.527715
0.535295
0.532363
0.528492
0.526934
0.526576
0.52688
0.527292
0.527767
0.528211
0.52847
0.528586
0.528608
0.528558
0.528439
0.528348
0.528291
0.528139
0.527843
0.527666
0.527475
0.527265
0.527042
0.526894
0.526775
0.526762
0.526753
0.526865
0.526997
0.527397
0.527805
0.528645
0.529455
0.531602
0.532614
0.526995
0.429245
0.324601
0.432362
0.503451
0.541021
0.536643
0.526148
0.517463
0.514151
0.514227
0.514672
0.515831
0.517007
0.518389
0.519333
0.519591
0.519418
0.519038
0.518625
0.518389
0.518316
0.518225
0.518099
0.517892
0.517684
0.51732
0.516937
0.516765
0.51656
0.516519
0.516486
0.516554
0.516572
0.516806
0.516979
0.517744
0.519422
0.524907
0.532248
0.538354
0.50377
0.425248
0.530595
0.53156
0.52804
0.521464
0.505521
0.491425
0.486477
0.48681
0.487596
0.489292
0.490796
0.492579
0.494029
0.494677
0.49453
0.493964
0.493228
0.492711
0.492528
0.492794
0.493292
0.492951
0.492218
0.491795
0.491532
0.491479
0.491357
0.491421
0.491492
0.491685
0.491816
0.492155
0.492512
0.493991
0.498515
0.510631
0.52581
0.536222
0.539267
0.526843
0.537852
0.52714
0.513961
0.505769
0.485897
0.468726
0.463497
0.463767
0.464326
0.465993
0.467532
0.469555
0.471455
0.473115
0.473912
0.473914
0.473393
0.472715
0.472167
0.47182
0.471697
0.471978
0.472248
0.472444
0.472523
0.472681
0.472699
0.472873
0.473019
0.47335
0.473604
0.4741
0.47458
0.476999
0.483619
0.501647
0.519755
0.527728
0.534212
0.533673
0.538665
0.523225
0.501737
0.486539
0.46163
0.443754
0.438432
0.437348
0.43593
0.435254
0.434822
0.43524
0.436051
0.437167
0.437967
0.438042
0.43747
0.436635
0.435911
0.435454
0.435399
0.435805
0.436397
0.436978
0.437474
0.438037
0.43839
0.438944
0.439429
0.440163
0.44076
0.441711
0.442481
0.445873
0.454978
0.480371
0.503855
0.513587
0.527203
0.532947
0.539702
0.522318
0.497698
0.479684
0.454299
0.438025
0.432749
0.430468
0.427233
0.423452
0.419931
0.417601
0.415983
0.414735
0.413447
0.411656
0.409274
0.406702
0.404386
0.40257
0.401354
0.400688
0.400407
0.400357
0.400426
0.400662
0.400856
0.401251
0.40171
0.402453
0.403202
0.404401
0.40561
0.409653
0.420968
0.453617
0.484836
0.500097
0.521123
0.530923
0.540996
0.522301
0.497752
0.47924
0.454474
0.439869
0.435543
0.434221
0.431767
0.426881
0.420497
0.415365
0.412062
0.409957
0.408099
0.405824
0.402823
0.399449
0.396264
0.393611
0.391597
0.390146
0.3891
0.388345
0.387788
0.387427
0.387201
0.387137
0.38725
0.387686
0.388312
0.389303
0.390523
0.394444
0.406174
0.441479
0.476206
0.494437
0.519038
0.530029
0.54142
0.522315
0.500184
0.482006
0.458391
0.444605
0.440909
0.440477
0.439369
0.435479
0.428041
0.419613
0.413412
0.409698
0.407018
0.404457
0.401288
0.397584
0.393918
0.390756
0.388272
0.386418
0.385065
0.38409
0.383371
0.382875
0.382543
0.382392
0.382438
0.382785
0.38337
0.384295
0.385453
0.389252
0.40098
0.437178
0.47298
0.492358
0.518057
0.528999
0.539837
0.52186
0.502785
0.485574
0.465434
0.452269
0.448111
0.447765
0.447093
0.444693
0.438436
0.428568
0.418244
0.411403
0.407446
0.404444
0.401171
0.397365
0.393452
0.389972
0.387189
0.385088
0.383564
0.382498
0.381746
0.381245
0.380917
0.380774
0.380807
0.381107
0.38164
0.382492
0.383544
0.387278
0.399087
0.435866
0.472093
0.491744
0.517741
0.528406
0.536303
0.520673
0.503868
0.488429
0.473149
0.461988
0.457167
0.456264
0.455272
0.453832
0.449501
0.440445
0.427461
0.415829
0.409063
0.404924
0.4013
0.397252
0.393019
0.389193
0.386073
0.383722
0.382049
0.380927
0.380186
0.379724
0.379439
0.37934
0.379399
0.379704
0.380225
0.381057
0.382048
0.385738
0.397529
0.434719
0.471449
0.491335
0.517456
0.527887
0.534203
0.520517
0.505614
0.493156
0.480539
0.47196
0.467592
0.466021
0.464441
0.462858
0.459933
0.452861
0.44019
0.424445
0.412619
0.406261
0.401972
0.397697
0.393175
0.388982
0.385514
0.382871
0.380989
0.379754
0.378979
0.378528
0.378269
0.3782
0.378285
0.378605
0.379135
0.379963
0.380921
0.384604
0.396477
0.434079
0.471171
0.491218
0.517465
0.527667
0.533887
0.525146
0.512466
0.502263
0.490329
0.482409
0.478416
0.476596
0.474748
0.472505
0.469917
0.464466
0.453748
0.436994
0.419424
0.408745
0.402902
0.398225
0.393505
0.389004
0.3852
0.382252
0.380148
0.37879
0.377974
0.377531
0.377294
0.377252
0.377362
0.377699
0.378243
0.379082
0.380025
0.383676
0.395492
0.433369
0.4709
0.491146
0.517473
0.527493
0.516141
0.522288
0.514141
0.510017
0.506936
0.498186
0.491088
0.487973
0.485831
0.483079
0.479963
0.475118
0.466219
0.450965
0.430213
0.413238
0.404471
0.399036
0.394058
0.389281
0.38519
0.381952
0.379613
0.378106
0.37723
0.376781
0.37656
0.376539
0.37667
0.377021
0.377578
0.378436
0.379381
0.383007
0.394786
0.432936
0.470809
0.491195
0.517588
0.52748
0.492556
0.500867
0.50233
0.508328
0.513084
0.5161
0.511143
0.502354
0.497901
0.494552
0.490699
0.485538
0.477511
0.464163
0.443377
0.420686
0.40681
0.399812
0.394511
0.389565
0.385219
0.381717
0.379145
0.377489
0.376556
0.376106
0.375905
0.375911
0.376065
0.376436
0.377015
0.377909
0.378877
0.382469
0.394108
0.432453
0.470724
0.491256
0.517721
0.527492
0.467135
0.473631
0.48489
0.497092
0.512013
0.524476
0.527685
0.521707
0.513865
0.506887
0.502173
0.49623
0.488031
0.475754
0.456391
0.430733
0.410586
0.400852
0.395003
0.389903
0.38535
0.381618
0.378821
0.377007
0.376011
0.375559
0.375381
0.375417
0.375591
0.375985
0.376588
0.377524
0.37853
0.382096
0.393644
0.432226
0.470845
0.491504
0.517976
0.527596
0.441491
0.444322
0.454332
0.471933
0.497934
0.526081
0.540484
0.540308
0.530727
0.522343
0.514321
0.507285
0.498341
0.48612
0.468023
0.441809
0.41604
0.402163
0.395368
0.390141
0.385482
0.381563
0.378557
0.37659
0.37553
0.375078
0.374926
0.374995
0.375186
0.375603
0.376233
0.377218
0.378262
0.381792
0.393147
0.431868
0.470867
0.491664
0.518125
0.527656
0.426912
0.427456
0.431907
0.445212
0.468237
0.504063
0.543556
0.554578
0.55189
0.539712
0.528339
0.518722
0.508659
0.495765
0.478026
0.452162
0.422638
0.404012
0.395781
0.390381
0.385657
0.381592
0.378397
0.376281
0.375158
0.374707
0.37458
0.37468
0.374889
0.37533
0.375986
0.377023
0.378107
0.381606
0.392814
0.431722
0.471079
0.492024
0.518403
0.52771
0.418028
0.418112
0.41938
0.429488
0.447638
0.478286
0.527707
0.561219
0.565616
0.559866
0.546207
0.531125
0.518477
0.504567
0.486509
0.460882
0.429214
0.406188
0.396163
0.390556
0.385822
0.381659
0.378305
0.376055
0.374875
0.374425
0.37432
0.374447
0.374672
0.375132
0.375811
0.376896
0.37801
0.381478
0.392525
0.431559
0.471226
0.492368
0.518588
0.527693
0.416296
0.415041
0.41246
0.415219
0.42433
0.447773
0.512465
0.574567
0.584448
0.580253
0.565056
0.544667
0.527527
0.512069
0.493489
0.467784
0.434819
0.408356
0.396539
0.390697
0.385987
0.381762
0.378273
0.375905
0.374679
0.374232
0.374146
0.374294
0.374531
0.375008
0.375705
0.376828
0.377962
0.381406
0.392319
0.431448
0.471358
0.492855
0.518815
0.527667
0.456206
0.453204
0.449839
0.440263
0.439282
0.449788
0.518047
0.59703
0.607648
0.602108
0.584282
0.557609
0.534702
0.517471
0.498574
0.472666
0.43875
0.409998
0.396826
0.390776
0.386128
0.381867
0.37827
0.375816
0.374561
0.374121
0.374048
0.374211
0.374456
0.374944
0.375653
0.376803
0.377945
0.381369
0.392181
0.431331
0.471383
0.493576
0.518992
0.527529
)
;

boundaryField
{
    inlet
    {
        type            fixedValue;
        value           uniform 1;
    }
    outlet
    {
        type            zeroGradient;
    }
    obstacle
    {
        type            zeroGradient;
    }
    empty
    {
        type            empty;
    }
}


// ************************************************************************* //
