/*--------------------------------*- C++ -*----------------------------------*\
| =========                 |                                                 |
| \\      /  F ield         | OpenFOAM: The Open Source CFD Toolbox           |
|  \\    /   O peration     | Version:  v1912                                 |
|   \\  /    A nd           | Website:  www.openfoam.com                      |
|    \\/     M anipulation  |                                                 |
\*---------------------------------------------------------------------------*/
FoamFile
{
    version     2.0;
    format      ascii;
    class       volScalarField;
    location    "8.28";
    object      rho;
}
// * * * * * * * * * * * * * * * * * * * * * * * * * * * * * * * * * * * * * //

dimensions      [1 -3 0 0 0 0 0];


internalField   nonuniform List<scalar> 
1900
(
16047.4
11904.6
12353.1
12656.4
12680.5
12632.6
12550.8
12458.8
12392.2
12370.9
16047.4
11904.5
12353
12656.5
12680.8
12633.4
12551.3
12455
12397.2
12360.6
16047.3
11904.5
12353
12656.6
12681
12633.8
12550.4
12451.3
12385.4
12345.6
16047.4
11904.5
12353
12656.5
12680.8
12633.4
12551.3
12455
12397.2
12360.6
16047.4
11904.6
12353.1
12656.4
12680.5
12632.6
12550.8
12458.8
12392.2
12370.9
12510.4
12333.3
12200
11849.4
11707
12342.5
12225.7
12112.2
11773.2
11295.2
12313.9
12204.9
12111
11816.3
11365.2
12342.5
12225.7
12112.2
11773.2
11295.2
12510.4
12333.3
12200
11849.4
11707
6168.93
4185.54
3234.8
2717.56
2176.72
6813.77
4513.94
3419.43
2861.73
2278.37
7006.19
4472.39
3347.12
2803
2202.79
6813.77
4513.94
3419.43
2861.73
2278.37
6168.93
4185.54
3234.8
2717.56
2176.72
2440.02
2617.82
2614.68
2575.02
2509.29
2404.2
2289.9
2145.89
1927.67
1834.51
1912.05
2491.12
3128.16
3154.38
3067.51
2945.26
2884.17
2858.65
2860.12
2835.01
2710.24
2467.15
2125.12
1660.44
1195.88
996.329
959.334
943.848
937.289
1002.88
1352.52
1704.06
1883.93
2003.15
2107.76
2198.38
2287.01
2403.5
2544.26
2675.06
2210.27
2345.77
2451.67
2428.96
2361.67
2249.87
2144.54
2017.85
1828.09
1758.53
1834.92
2411.03
3050.28
3090.5
3021.75
2914.25
2862.62
2844.26
2855.78
2837.43
2713.28
2469.25
2130.65
1666.93
1198.57
996.63
959.293
943.807
937.262
1002.84
1352.5
1703.9
1883.7
2002.93
2107.61
2198.45
2287.2
2403.86
2544.95
2675.89
2160.65
2230.68
2358.76
2369.47
2330.49
2233.25
2125.2
1998.17
1807.99
1746.68
1823.01
2379.98
3027.36
3073.97
3007.63
2905.7
2858.89
2841.03
2850.33
2863.53
2752.92
2494.9
2135.85
1666.57
1197.92
996.589
959.279
943.794
937.256
1002.84
1352.52
1703.84
1883.58
2002.82
2107.55
2198.49
2287.28
2403.87
2544.85
2675.71
2210.27
2345.77
2451.67
2428.96
2361.67
2249.87
2144.54
2017.85
1828.09
1758.53
1834.92
2411.03
3050.28
3090.5
3021.75
2914.25
2862.62
2844.26
2855.78
2837.43
2713.28
2469.25
2130.65
1666.93
1198.57
996.63
959.293
943.807
937.262
1002.84
1352.5
1703.9
1883.7
2002.93
2107.61
2198.45
2287.2
2403.86
2544.95
2675.89
2440.02
2617.82
2614.68
2575.02
2509.29
2404.2
2289.9
2145.89
1927.67
1834.51
1912.05
2491.12
3128.16
3154.38
3067.51
2945.26
2884.17
2858.65
2860.12
2835.01
2710.24
2467.15
2125.12
1660.44
1195.88
996.329
959.334
943.848
937.289
1002.88
1352.52
1704.06
1883.93
2003.15
2107.76
2198.38
2287.01
2403.5
2544.26
2675.06
3370.66
3166.61
2984.2
2870.88
2756.6
2637.14
2534.39
2392.01
2169.52
2032.13
2105.75
2736.38
3277.63
3288.06
3178.21
3043.5
2982.96
2945.28
2905.42
2841.8
2691.09
2446.72
2112.53
1650.07
1187.91
994.992
959.505
944.051
937.432
1002.97
1352.45
1704.6
1884.75
2003.82
2108.1
2198.13
2286.19
2402.48
2542.74
2673.8
3975.74
3651.83
3338.16
3113.26
2929.87
2789.54
2681.6
2543.86
2362.08
2267.04
2365.81
3048.39
3438.18
3408.32
3180.49
2968.63
2884.13
2847.82
2831.38
2783.33
2633.94
2388.91
2056.94
1600.86
1164.09
992.134
959.931
944.553
937.825
1003.19
1352.26
1705.93
1886.89
2005.92
2109.69
2198.68
2285.27
2400.24
2539.66
2671.32
4040.87
3880.17
3695.4
3483.76
3273.29
3076.36
2878.91
2708.2
2532.02
2445.06
2610.36
3289.33
3531.43
3446.02
3159.25
2944.58
2867.26
2820.52
2791.01
2724.28
2565.27
2320.59
1985.75
1532.69
1132.41
988.87
960.711
945.455
938.607
1003.7
1351.88
1707.53
1889.82
2009.04
2112.34
2200.28
2285.33
2398.46
2537.29
2669.93
4039.56
3806.99
3608.72
3408.56
3211.1
3015.22
2771.66
2610.27
2590.33
2588.06
2824.97
3276.1
3404.4
3313.12
3041.48
2899.54
2833.72
2778.22
2738.95
2649.78
2475.21
2227.62
1891.01
1449.38
1098.79
986.408
962.032
946.929
940.008
1004.96
1352.37
1710.37
1894.18
2013.57
2116.4
2203.15
2286.64
2397.58
2535.72
2669.08
4027.32
3826.25
3628.4
3425.29
3238.14
3043.02
2787.84
2671.69
2684.36
2794.15
3090.81
3321.28
3344.97
3157.97
2917.86
2838.82
2771.23
2726.01
2673.02
2554.64
2365.25
2116.47
1778.74
1357.62
1067.75
985.197
963.906
948.874
942.003
1006.51
1352.01
1711.98
1897.27
2016.8
2119.47
2205.41
2287.63
2396.14
2533.69
2667.85
3984.02
3803.1
3617.58
3424.62
3238.31
3030.54
2856.75
2810.96
2809.75
2868.49
3055.59
3189.4
3118.13
2886.48
2810.2
2761.07
2701.39
2660.5
2581.78
2438.13
2241.77
1993.42
1653.43
1264.98
1042.68
984.967
965.531
950.446
943.946
1008.34
1352.68
1713.95
1899.85
2018.93
2121.52
2206.94
2288.55
2395.07
2531.98
2666.85
3906.33
3731.32
3552.41
3364.41
3195.07
3035.71
2915.71
2874.46
2880.64
2897.07
2967.34
2947.05
2773.74
2711.67
2697.86
2645.77
2620.23
2572.33
2465.18
2306.01
2109.71
1859.52
1517.75
1179.74
1023.56
983.856
965.292
950.069
944.102
1007.26
1348.05
1710.56
1897.98
2016.99
2119.93
2205.56
2287.6
2393.22
2529.89
2665.49
3767.11
3599.37
3430.68
3268.55
3126.41
2990.8
2883.1
2819.36
2779.81
2776.14
2759.17
2633.6
2556.41
2569.28
2555.35
2556.58
2532.27
2456.31
2326.93
2162.85
1968.47
1715.04
1383.53
1114.14
1012.9
983.927
965.95
951.085
945.972
1008.97
1350.12
1720.54
1913.95
2033.22
2131.28
2211.09
2288.18
2391.88
2528.42
2664.47
3553.64
3403.5
3243.53
3083.08
2943.65
2832.26
2753.46
2687.95
2634
2587.84
2482.37
2382.24
2410.11
2454.62
2474.94
2466.66
2417.73
2316
2183.53
2032.41
1846.56
1585.17
1283.76
1086.76
1027.04
1004.44
986.987
972.733
968.901
1034.34
1387.16
1775.61
1977
2091.99
2184.14
2253.3
2315.11
2399.33
2528.56
2662.86
3286.38
3143.34
2985.74
2851.68
2753.27
2676.27
2598.12
2503.85
2416.04
2324.35
2242.21
2280.92
2365.4
2382.43
2385.72
2362.66
2299.91
2212.67
2105.4
1976.98
1806.51
1542.37
1279.21
1173.41
1144.72
1131.35
1119.19
1110.46
1112.29
1205.33
1642.23
2078.47
2269.97
2338.78
2369.73
2375.97
2388.53
2445.79
2544.09
2662.04
3031.77
2873.45
2735.72
2626.9
2533.82
2438.04
2327.49
2248.95
2218.57
2199.74
2212.92
2257.97
2270.34
2302.36
2327.31
2333.09
2315.45
2279.14
2239.96
2159.44
1973.77
1731.1
1573.3
1524.39
1509.91
1500.19
1488.3
1480.37
1491.37
1640.62
2134.12
2528.7
2684.15
2708.82
2703.65
2657.76
2587.72
2553.74
2590.65
2660.25
2804.77
2621.43
2472.6
2354.03
2242.94
2175.39
2163.88
2167.37
2161.63
2168.14
2189.89
2244.1
2329.98
2430.7
2531.24
2613.17
2663.84
2669.44
2608.85
2447.88
2189.74
1958.89
1863.67
1835.08
1816.79
1801.27
1783.57
1772.26
1790.69
1964.46
2427.36
2762.99
2900.97
2919.19
2928.22
2902.59
2823.24
2741.8
2700.26
2664.36
2626.16
2504.97
2407.56
2369.18
2351.62
2346.13
2313.89
2277.78
2288.34
2344.01
2475.33
2653.86
2840.55
2978.37
3044.03
3046.38
2996.98
2894.28
2710.22
2444.96
2189.87
2059.56
2018.21
1995.89
1975.58
1958.44
1939.63
1928.82
1952.8
2117.79
2539.83
2855.82
3002.7
3028.58
3049.93
3042.78
2975.65
2885.02
2802.63
2676.1
2658.42
2648.82
2678.69
2743.01
2823.69
2914.22
3009.25
3108.24
3155.93
3181.69
3226.12
3273.12
3301.37
3289.74
3226.66
3117.83
2986.27
2821.06
2583.6
2337.53
2194.5
2147.17
2124.93
2105.69
2085.86
2069.57
2051.87
2041.89
2067.22
2200.44
2560.16
2862.41
3018.63
3050.12
3075.43
3079.96
3026.38
2933.13
2837.44
2667.77
2746.82
2867.53
3027.6
3178.45
3323.77
3462.39
3610.01
3727.93
3745.84
3676.22
3564.42
3455.66
3352.17
3248.69
3148.32
3033.45
2869.37
2649.92
2433.03
2301.9
2252.12
2233.51
2216.41
2197.67
2178.5
2163.65
2148.1
2138.56
2162.71
2258.58
2556.1
2857.92
3030.59
3067.55
3092.44
3095.56
3043.58
2939.62
2818.22
2637.55
2818.17
2969.33
3162.98
3314.99
3454.29
3581.21
3727.16
3840.47
3857.59
3776.88
3613.86
3427.06
3268.12
3135.74
3011.06
2866.87
2681.66
2495.67
2380.01
2331.43
2317.11
2304.63
2287.88
2269.53
2251.94
2239.23
2226.54
2217.71
2235.38
2299.49
2521.72
2814.46
3007.02
3063.17
3085.73
3097.03
3055.61
2948.69
2805.85
2625.16
2770.46
2919.45
3103.22
3250.15
3397.85
3547.48
3720.8
3842.15
3854.63
3736.87
3506.38
3280.16
3115.24
2979.48
2832.82
2668.71
2519.73
2427.45
2387.83
2377.67
2373.38
2363.63
2348.9
2333.47
2319.29
2309.91
2300.85
2294.3
2299.76
2346.53
2484.62
2729.14
2931.67
3010.54
3031.85
3048.76
3023.54
2925.56
2768.54
2605.43
2704.97
2794.48
2972.12
3106.84
3259.66
3409.55
3573.47
3670.67
3660.71
3508.21
3259.95
3055.91
2917.78
2794.04
2658.71
2542.77
2471.93
2444.54
2443.17
2447.78
2448.31
2442.52
2431.68
2420.13
2409.38
2402.64
2396.36
2391.9
2390.65
2419.21
2493.04
2662.99
2841.79
2922.38
2932.93
2942.12
2922.84
2866.73
2742.43
2576.93
2908.72
2629.05
2817.1
2925.72
3063.85
3192.94
3319.93
3376.55
3336.48
3173.44
2982.86
2852.52
2762.77
2680.68
2603.72
2548.51
2525.56
2527.73
2537.84
2546.13
2549.77
2548.57
2543.94
2538.49
2533.21
2529.9
2526.63
2524.28
2522.88
2531.24
2562.52
2650.88
2766.19
2828.56
2816.46
2805.9
2769.94
2745.3
2698.22
2508.95
9013.75
2829.11
2709.14
2734.7
2831.37
2885.12
2903.93
2875.5
2799.38
2717.16
2666.06
2641
2620.97
2607.74
2605.39
2610.34
2618.34
2626.17
2632.64
2638.86
2644.94
2649.94
2653.56
2656.33
2658.16
2659.97
2660.62
2661.26
2661.47
2662.09
2661.63
2664.02
2673.14
2674.89
2645.6
2630.59
2611.19
2585.17
2518.07
3344.02
9013.75
2829.11
2709.14
2734.7
2831.37
2885.12
2903.93
2875.5
2799.38
2717.16
2666.06
2641
2620.97
2607.74
2605.39
2610.34
2618.34
2626.17
2632.64
2638.86
2644.94
2649.94
2653.56
2656.33
2658.16
2659.97
2660.62
2661.26
2661.47
2662.09
2661.63
2664.02
2673.14
2674.89
2645.6
2630.59
2611.19
2585.17
2518.07
3344.02
2908.72
2629.05
2817.1
2925.72
3063.85
3192.94
3319.93
3376.55
3336.48
3173.44
2982.86
2852.52
2762.77
2680.68
2603.72
2548.51
2525.56
2527.73
2537.84
2546.13
2549.77
2548.57
2543.94
2538.49
2533.21
2529.9
2526.63
2524.28
2522.88
2531.24
2562.52
2650.88
2766.19
2828.56
2816.46
2805.9
2769.94
2745.3
2698.22
2508.95
2704.97
2794.48
2972.12
3106.84
3259.66
3409.55
3573.47
3670.67
3660.71
3508.21
3259.95
3055.91
2917.78
2794.04
2658.71
2542.77
2471.93
2444.54
2443.17
2447.78
2448.31
2442.52
2431.68
2420.13
2409.38
2402.64
2396.36
2391.9
2390.65
2419.21
2493.04
2662.99
2841.79
2922.38
2932.93
2942.12
2922.84
2866.73
2742.43
2576.93
2770.46
2919.45
3103.22
3250.15
3397.85
3547.48
3720.8
3842.15
3854.63
3736.87
3506.38
3280.16
3115.24
2979.48
2832.82
2668.71
2519.73
2427.45
2387.83
2377.67
2373.38
2363.63
2348.9
2333.47
2319.29
2309.91
2300.85
2294.3
2299.76
2346.53
2484.62
2729.14
2931.67
3010.54
3031.85
3048.76
3023.54
2925.56
2768.54
2605.43
2818.17
2969.33
3162.98
3314.99
3454.29
3581.21
3727.16
3840.47
3857.59
3776.88
3613.86
3427.06
3268.12
3135.74
3011.06
2866.87
2681.66
2495.67
2380.01
2331.43
2317.11
2304.63
2287.88
2269.53
2251.94
2239.23
2226.54
2217.71
2235.38
2299.49
2521.72
2814.46
3007.02
3063.17
3085.73
3097.03
3055.61
2948.69
2805.85
2625.16
2746.82
2867.53
3027.6
3178.45
3323.77
3462.39
3610.01
3727.93
3745.84
3676.22
3564.42
3455.66
3352.17
3248.69
3148.32
3033.45
2869.37
2649.92
2433.03
2301.9
2252.12
2233.51
2216.41
2197.67
2178.5
2163.65
2148.1
2138.56
2162.71
2258.58
2556.1
2857.92
3030.59
3067.55
3092.44
3095.56
3043.58
2939.62
2818.22
2637.55
2658.42
2648.82
2678.69
2743.01
2823.69
2914.22
3009.25
3108.24
3155.93
3181.69
3226.12
3273.12
3301.37
3289.74
3226.66
3117.83
2986.27
2821.06
2583.6
2337.53
2194.5
2147.17
2124.93
2105.69
2085.86
2069.57
2051.87
2041.89
2067.22
2200.44
2560.16
2862.41
3018.63
3050.12
3075.43
3079.96
3026.38
2933.13
2837.44
2667.77
2626.16
2504.97
2407.56
2369.18
2351.62
2346.13
2313.89
2277.78
2288.34
2344.01
2475.33
2653.86
2840.55
2978.37
3044.03
3046.38
2996.98
2894.28
2710.22
2444.96
2189.87
2059.56
2018.21
1995.89
1975.58
1958.44
1939.63
1928.82
1952.8
2117.79
2539.83
2855.82
3002.7
3028.58
3049.93
3042.78
2975.65
2885.02
2802.63
2676.1
2804.77
2621.43
2472.6
2354.03
2242.94
2175.39
2163.88
2167.37
2161.63
2168.14
2189.89
2244.1
2329.98
2430.7
2531.24
2613.17
2663.84
2669.44
2608.85
2447.88
2189.74
1958.89
1863.67
1835.08
1816.79
1801.27
1783.57
1772.26
1790.69
1964.46
2427.36
2762.99
2900.97
2919.19
2928.22
2902.59
2823.24
2741.8
2700.26
2664.36
3031.77
2873.45
2735.72
2626.9
2533.82
2438.04
2327.49
2248.95
2218.57
2199.74
2212.92
2257.97
2270.34
2302.36
2327.31
2333.09
2315.45
2279.14
2239.96
2159.44
1973.77
1731.1
1573.3
1524.39
1509.91
1500.19
1488.3
1480.37
1491.37
1640.62
2134.12
2528.7
2684.15
2708.82
2703.65
2657.76
2587.72
2553.74
2590.65
2660.25
3286.38
3143.34
2985.74
2851.68
2753.27
2676.27
2598.12
2503.85
2416.04
2324.35
2242.21
2280.92
2365.4
2382.43
2385.72
2362.66
2299.91
2212.67
2105.4
1976.98
1806.51
1542.37
1279.21
1173.41
1144.72
1131.35
1119.19
1110.46
1112.29
1205.33
1642.23
2078.47
2269.97
2338.78
2369.73
2375.97
2388.53
2445.79
2544.09
2662.04
3553.64
3403.5
3243.53
3083.08
2943.65
2832.26
2753.46
2687.95
2634
2587.84
2482.37
2382.24
2410.11
2454.62
2474.94
2466.66
2417.73
2316
2183.53
2032.41
1846.56
1585.17
1283.76
1086.76
1027.04
1004.44
986.987
972.733
968.901
1034.34
1387.16
1775.61
1977
2091.99
2184.14
2253.3
2315.11
2399.33
2528.56
2662.86
3767.11
3599.37
3430.68
3268.55
3126.41
2990.8
2883.1
2819.36
2779.81
2776.14
2759.17
2633.6
2556.41
2569.28
2555.35
2556.58
2532.27
2456.31
2326.93
2162.85
1968.47
1715.04
1383.53
1114.14
1012.9
983.927
965.95
951.085
945.972
1008.97
1350.12
1720.54
1913.95
2033.22
2131.28
2211.09
2288.18
2391.88
2528.42
2664.47
3906.33
3731.32
3552.41
3364.41
3195.07
3035.71
2915.71
2874.46
2880.64
2897.07
2967.34
2947.05
2773.74
2711.67
2697.86
2645.77
2620.23
2572.33
2465.18
2306.01
2109.71
1859.52
1517.75
1179.74
1023.56
983.856
965.292
950.069
944.102
1007.26
1348.05
1710.56
1897.98
2016.99
2119.93
2205.56
2287.6
2393.22
2529.89
2665.49
3984.02
3803.1
3617.58
3424.62
3238.31
3030.54
2856.75
2810.96
2809.75
2868.49
3055.59
3189.4
3118.13
2886.48
2810.2
2761.07
2701.39
2660.5
2581.78
2438.13
2241.77
1993.42
1653.43
1264.98
1042.68
984.967
965.531
950.446
943.946
1008.34
1352.68
1713.95
1899.85
2018.93
2121.52
2206.94
2288.55
2395.07
2531.98
2666.85
4027.32
3826.25
3628.4
3425.29
3238.14
3043.02
2787.84
2671.69
2684.36
2794.15
3090.81
3321.28
3344.97
3157.97
2917.86
2838.82
2771.23
2726.01
2673.02
2554.64
2365.25
2116.47
1778.74
1357.62
1067.75
985.197
963.906
948.874
942.003
1006.51
1352.01
1711.98
1897.27
2016.8
2119.47
2205.41
2287.63
2396.14
2533.69
2667.85
4039.56
3806.99
3608.72
3408.56
3211.1
3015.22
2771.66
2610.27
2590.33
2588.06
2824.97
3276.1
3404.4
3313.12
3041.48
2899.54
2833.72
2778.22
2738.95
2649.78
2475.21
2227.62
1891.01
1449.38
1098.79
986.408
962.032
946.929
940.008
1004.96
1352.37
1710.37
1894.18
2013.57
2116.4
2203.15
2286.64
2397.58
2535.72
2669.08
4040.87
3880.17
3695.4
3483.76
3273.29
3076.36
2878.91
2708.2
2532.02
2445.06
2610.36
3289.33
3531.43
3446.02
3159.25
2944.58
2867.26
2820.52
2791.01
2724.28
2565.27
2320.59
1985.75
1532.69
1132.41
988.87
960.711
945.455
938.607
1003.7
1351.88
1707.53
1889.82
2009.04
2112.34
2200.28
2285.33
2398.46
2537.29
2669.93
3975.74
3651.83
3338.16
3113.26
2929.87
2789.54
2681.6
2543.86
2362.08
2267.04
2365.81
3048.39
3438.18
3408.32
3180.49
2968.63
2884.13
2847.82
2831.38
2783.33
2633.94
2388.91
2056.94
1600.86
1164.09
992.134
959.931
944.553
937.825
1003.19
1352.26
1705.93
1886.89
2005.92
2109.69
2198.68
2285.27
2400.24
2539.66
2671.32
3370.66
3166.61
2984.2
2870.88
2756.6
2637.14
2534.39
2392.01
2169.52
2032.13
2105.75
2736.38
3277.63
3288.06
3178.21
3043.5
2982.96
2945.28
2905.42
2841.8
2691.09
2446.72
2112.53
1650.07
1187.91
994.992
959.505
944.051
937.432
1002.97
1352.45
1704.6
1884.75
2003.82
2108.1
2198.13
2286.19
2402.48
2542.74
2673.8
)
;

boundaryField
{
    inlet
    {
        type            calculated;
        value           uniform 14000.1;
    }
    outlet
    {
        type            calculated;
        value           nonuniform List<scalar> 
165
(
3458.64
4103.87
4163.5
4166.44
4126.87
4074.82
3994.71
3853.91
3631.79
3356.61
3081.61
2864.5
2722.98
2616.39
2572.61
2563.35
2581.21
2608.66
2882.28
3863.58
3863.58
3132.89
2691.12
2646.95
2606.3
2562.94
2523.79
2502.3
2513.19
2553.96
2594.67
2623.81
2647.96
2669.25
2685.09
2694.98
2700.01
2703.14
2706.93
2711.77
2717.58
2724.18
2730.52
2735.35
2738.57
2740.46
2741.71
2742.14
2742.01
2739.88
2733.61
2713.95
2676
2623.81
2596.13
2583.83
2594.35
2626.78
2841.43
3437.05
2755.21
2754.5
2753.38
2751.76
2750.06
2748.55
2747.11
2745.37
2743.06
2737.81
2727.16
2699.69
2653.93
2606.14
2586.58
2579.23
2591.38
2626.7
2849.63
3437.05
2756.26
2756.56
2756.85
2756.56
2756.26
3437.05
2849.63
2626.7
2591.38
2579.23
2586.58
2606.14
2653.93
2699.69
2727.16
2737.81
2743.06
2745.37
2747.11
2748.55
2750.06
2751.76
2753.38
2754.5
2755.21
3863.58
3132.89
2691.12
2646.95
2606.3
2562.94
2523.79
2502.3
2513.19
2553.96
2594.67
2623.81
2647.96
2669.25
2685.09
2694.98
2700.01
2703.14
2706.93
2711.77
2717.58
2724.18
2730.52
2735.35
2738.57
2740.46
2741.71
2742.14
2742.01
2739.88
2733.61
2713.95
2676
2623.81
2596.13
2583.83
2594.35
2626.78
2841.43
3437.05
3863.58
2882.28
2608.66
2581.21
2563.35
2572.61
2616.39
2722.98
2864.5
3081.61
3356.61
3631.79
3853.91
3994.71
4074.82
4126.87
4166.44
4163.5
4103.87
3458.64
)
;
    }
    obstacle
    {
        type            calculated;
        value           nonuniform List<scalar> 
40
(
16047.4
11904.6
12353.1
12656.4
12680.5
12632.6
12550.8
12458.8
12392.2
12370.9
16047.4
11904.6
12353.1
12656.4
12680.5
12632.6
12550.8
12458.8
12392.2
12370.9
12510.4
12333.3
12200
11849.4
11707
12510.4
12333.3
12200
11849.4
11707
6168.93
4185.54
3234.8
2717.56
2176.72
6168.93
4185.54
3234.8
2717.56
2176.72
)
;
    }
    empty
    {
        type            empty;
    }
}


// ************************************************************************* //
