/*--------------------------------*- C++ -*----------------------------------*\
| =========                 |                                                 |
| \\      /  F ield         | OpenFOAM: The Open Source CFD Toolbox           |
|  \\    /   O peration     | Version:  v1912                                 |
|   \\  /    A nd           | Website:  www.openfoam.com                      |
|    \\/     M anipulation  |                                                 |
\*---------------------------------------------------------------------------*/
FoamFile
{
    version     2.0;
    format      ascii;
    class       Cloud<dsmcParcel>;
    location    "0.0002/lagrangian/dsmc";
    object      coordinates;
}
// * * * * * * * * * * * * * * * * * * * * * * * * * * * * * * * * * * * * * //

13027
(
(0.05788383459 0.1434382306 0.4710580827 0.3276198521) 1108 2174 2
(0.01643322019 0.168311414 0.4917833899 0.3234719759) 821 1628 1
(0.1244269609 0.4377865195 0.2210145603 0.2167719592) 821 1628 2
(0.8406011261 0.07969943694 0.06838355164 0.0113158853) 288 594 2
(0.3190769648 0.1710833917 0.1693781259 0.3404615176) 1290 2473 2
(0.9082993212 0.02746654045 0.04585033942 0.01838379897) 834 1653 1
(0.2519820121 0.1503186091 0.2236903848 0.374008994) 313 646 1
(0.2446404874 0.3776797563 0.1456705707 0.2320091856) 1148 2250 2
(0.5222386391 0.1223231775 0.2388806804 0.116557503) 854 1691 1
(0.4402949198 0.02289474955 0.2798525401 0.2569577906) 406 833 2
(0.5119590133 0.2440204933 0.1419958499 0.1020246434) 1261 2416 1
(0.81233102 0.02566706091 0.09383448999 0.06816742908) 1261 2475 2
(0.01849293984 0.4907535301 0.0145790782 0.4761744519) 1117 2192 1
(0.3765382595 0.0486826055 0.3117308703 0.2630482648) 869 1722 2
(0.3741005552 0.3129497224 0.2508610318 0.06208869063) 223 459 2
(0.4575347836 0.01373157246 0.2575010358 0.2712326082) 822 1632 1
(0.2902440967 0.2209527376 0.133925214 0.3548779516) 1221 2337 2
(0.4275093167 0.02332421039 0.2862453417 0.2629211313) 1077 2110 1
(0.7693058003 0.04289710665 0.1153470999 0.07244999321) 1133 2220 1
(0.4624177403 0.1543379221 0.2687911298 0.1144532077) 1053 2066 2
(0.4618492533 0.2690753734 0.1668961957 0.1021791776) 1222 2397 2
(0.5682798167 0.2158600916 0.1126448613 0.1032152304) 1207 2366 2
(0.4658967268 0.1192361493 0.1478154872 0.2670516366) 345 710 1
(0.3734540377 0.3132729811 0.04804481391 0.2652281672) 283 586 2
(0.113232226 0.1158630613 0.443383887 0.3275208257) 1168 2292 2
(0.04412126922 0.4779393654 0.4495235923 0.02841577313) 1113 2184 1
(0.4017221181 0.299138941 0.1157735662 0.1833653748) 1227 2408 1
(0.4675295391 0.2662352304 0.02797838765 0.2382568428) 1058 2075 2
(0.2361024264 0.1618184041 0.2201303827 0.3819487868) 1139 2176 2
(0.4018296192 0.2990851904 0.2023439448 0.09674124556) 872 1727 2
(0.5916908962 0.08956848707 0.1145860648 0.2041545519) 813 1615 1
(0.1501528625 0.3883531343 0.03657043448 0.4249235688) 1137 2230 1
(0.03457870092 0.2950148751 0.1876957744 0.4827106495) 1081 2120 1
(0.1808601167 0.1357390064 0.2738309353 0.4095699417) 1267 2428 2
(0.8430412021 0.07847939893 0.01305505855 0.06542434038) 227 473 2
(0.7811724299 0.0788077932 0.109413785 0.03060599185) 1149 2252 1
(0.2616700687 0.3691649657 0.1460794515 0.2230855141) 1235 2424 1
(0.01395568411 0.378608965 0.4930221579 0.1144131929) 1262 2477 2
(0.6644237694 0.02333519916 0.1444529161 0.1677881153) 1237 2369 2
(0.3382162681 0.330891866 0.2137754418 0.1171164242) 802 2672 2
(0.5846073829 0.1467067014 0.2076963086 0.06098960717) 1174 2301 1
(0.06698661496 0.300547895 0.1659587975 0.4665066925) 1204 2362 1
(0.6140481681 0.1808668946 0.01210902138 0.192975916) 1079 2116 1
(0.7165758411 0.1323810486 0.009331030865 0.1417120795) 379 718 2
(0.3731096716 0.3134451642 0.1821068757 0.1313382885) 287 594 2
(0.1086921042 0.4456539479 0.0538604899 0.391793458) 433 827 1
(0.9161213699 0.009960239324 0.04193931504 0.03197907571) 1267 2487 2
(0.5809859553 0.09987804413 0.2095070224 0.1096289782) 287 592 1
(0.02212927499 0.4889353625 0.180642446 0.3082929165) 1234 2421 2
(0.04292482939 0.4785375853 0.08406407759 0.3944735077) 841 1669 1
(0.1454347571 0.3117984297 0.1154841918 0.4272826214) 1163 2281 1
(0.104881046 0.0278066224 0.4197528546 0.447559477) 1138 2232 1
(0.645335149 0.1527859683 0.0245464572 0.1773324255) 1142 2182 2
(0.3722694945 0.2273736428 0.08649160995 0.3138652528) 1174 2245 2
(0.6503230328 0.1558692788 0.0189692048 0.1748384836) 1142 2240 1
(0.05443027021 0.4727848649 0.4333929411 0.03939192377) 1134 2222 2
(0.1666632665 0.4166683668 0.009162909721 0.4075054571) 285 588 2
(0.5218510795 0.2390744602 0.02100812544 0.2180663348) 897 1776 1
(0.3792491331 0.3103754334 0.2355237079 0.07485172552) 1298 476 2
(0.6646821906 0.1676589047 0.06307718923 0.1045817155) 886 1755 1
(0.07802121708 0.4609893915 0.04828992154 0.4126994699) 1236 2367 1
(0.3157504722 0.3421247639 0.1639536697 0.1781710942) 1139 2234 2
(0.03668762358 0.4816561882 0.4178382117 0.06381797651) 258 534 2
(0.2350832398 0.3824583801 0.1088776935 0.2735806866) 258 475 1
(0.8062024777 0.09689876116 0.05056023967 0.04633852149) 1111 2180 1
(0.2634250875 0.3682874563 0.2689961991 0.09929125713) 831 1631 1
(0.1392224335 0.4303887833 0.3701977764 0.06019100683) 1228 2410 1
(0.09837980002 0.4508101 0.2297943891 0.2210157109) 850 1685 2
(0.1375257294 0.4312371353 0.380109826 0.05112730925) 220 451 1
(0.7834202311 0.01546802265 0.1082898845 0.09282186182) 1295 2515 1
(0.1788982652 0.4105508674 0.06492053364 0.3456303337) 1076 2111 1
(0.537078346 0.231460827 0.06096736994 0.1704934571) 1263 2478 2
(0.4025102404 0.2987448798 0.2269336448 0.071811235) 867 1716 2
(0.443826629 0.2780866855 0.2166320465 0.06145463906) 883 1748 2
(0.3549294231 0.3225352884 0.1538637367 0.1686715517) 858 1701 2
(0.7199037491 0.1207688781 0.0192792474 0.1400481255) 1177 2251 2
(0.411093416 0.294453292 0.06605639023 0.2283969017) 1191 2336 2
(0.1680394199 0.41598029 0.2992143913 0.1167658987) 347 715 1
(0.6408612649 0.03693939178 0.1795693675 0.1426299758) 287 595 2
(0.09115802747 0.4544209863 0.1455957244 0.3088252619) 826 1641 1
(0.632019732 0.02300018225 0.183990134 0.1609899518) 211 420 1
(0.5502407908 0.1405470512 0.2248796046 0.08433255343) 1265 2483 2
(0.1731643257 0.4134178372 0.04653750631 0.3668803309) 1116 2131 1
(0.3748097997 0.02125974781 0.3125951002 0.2913353524) 893 1768 2
(0.3536679167 0.1404322998 0.1827337419 0.3231660416) 1141 2238 1
(0.4568163528 0.2103641394 0.06122768418 0.2715918236) 258 475 2
(0.5193647962 0.2294085013 0.2403176019 0.01090910062) 1206 2364 1
(0.2592711378 0.3703644311 0.2707719181 0.09959251298) 1295 2483 1
(0.5137456352 0.2431271824 0.1275079773 0.1156192051) 1292 458 2
(0.047713032 0.476143484 0.2071086806 0.2690348034) 1047 2054 1
(0.1914329967 0.4042835016 0.2624201545 0.1418633471) 1143 2242 2
(0.3231603062 0.2525338683 0.08588597861 0.3384198469) 1268 2430 2
(0.01277126809 0.05635603678 0.493614366 0.4372583292) 1254 2461 2
(0.7973806071 0.1013096965 0.09845389674 0.00285579971) 1116 2189 2
(0.6148620291 0.008379866833 0.1841891186 0.1925689855) 252 524 1
(0.5439450467 0.2280274766 0.2161296194 0.01189785724) 858 1699 2
(0.05821967404 0.1638231284 0.3070670346 0.470890163) 227 473 1
(0.148590151 0.1383912887 0.2873136358 0.4257049245) 1168 2233 2
(0.2781044102 0.07146297947 0.2894848155 0.3609477949) 885 1752 1
(0.4252645232 0.07072988913 0.2873677384 0.2166378493) 285 591 2
(0.5222125499 0.2388937251 0.1030689042 0.1358248208) 1127 2208 2
(0.1202477849 0.4398761076 0.2928118661 0.1470642415) 811 1612 1
(0.1276671063 0.08414765361 0.4361664469 0.3520187933) 936 1847 1
(0.6734602344 0.1632698828 0.07950663724 0.08376324556) 837 1659 2
(0.2001861508 0.3999069246 0.05319644717 0.3467104774) 1235 2365 1
(0.4014999967 0.1759647756 0.1232852261 0.2992500016) 1235 2365 2
(0.6538844473 0.1730577763 0.1451046756 0.0279531007) 861 1688 1
(0.4547204957 0.2726397522 0.1608631251 0.111776627) 1294 2481 1
(0.238177756 0.380911122 0.175961316 0.204949806) 1172 2300 1
(0.1929847302 0.4035076349 0.2249796181 0.1785280169) 1141 2180 1
(0.08355135457 0.3970421252 0.06118219755 0.4582243227) 820 1628 1
(0.1385904941 0.05153101672 0.3791737362 0.430704753) 1055 2069 1
(0.7715800777 0.05889764067 0.1142099612 0.05531232049) 399 819 2
(0.6416786144 0.006120617725 0.1730400751 0.1791606928) 228 474 1
(0.08165202738 0.4200550673 0.4591739863 0.039118919) 1236 2426 2
(0.485752696 0.257123652 0.191062193 0.06606145902) 1236 2367 1
(0.5701301119 0.2149349441 0.09485628769 0.1200786564) 1238 2430 1
(0.5000848332 0.1849765788 0.2499575834 0.06498100462) 1146 2246 1
(0.3831252101 0.3084373949 0.1391519153 0.1692854796) 1235 2365 1
(0.1030303922 0.1088828308 0.4484848039 0.3396019731) 1178 2312 2
(0.3819853501 0.1734314039 0.3090073249 0.135575921) 1136 2229 2
(0.1448320279 0.4275839861 0.2956190294 0.1319649566) 850 1667 1
(0.08809248847 0.4559537558 0.3336592448 0.1222945109) 250 518 2
(0.003126179702 0.3286195158 0.4984369101 0.1698173943) 884 1748 1
(0.03274059558 0.4836297022 0.4508421662 0.03278753604) 1086 2128 2
(0.8379148259 0.08104258704 0.06310947426 0.01793311279) 1115 2187 2
(0.009705383557 0.4951473082 0.220973713 0.2741735953) 1269 2431 1
(0.741377327 0.1007342482 0.1293113365 0.02857708836) 1046 2052 2
(0.332156033 0.3339219835 0.2347204027 0.09920158078) 249 519 1
(0.4762116551 0.1786158193 0.08327835319 0.2618941725) 1172 2241 2
(0.6723365321 0.163831734 0.03190985352 0.1319218805) 1195 2286 1
(0.4960433842 0.2413164625 0.2519783079 0.01066184537) 1296 2516 1
(0.265959383 0.3670203085 0.3383493429 0.02867096564) 1235 2423 2
(0.7989764478 0.02591351217 0.07459826393 0.1005117761) 846 1660 2
(0.191860523 0.4040697385 0.02746630905 0.3766034295) 1074 2104 2
(0.9912743195 0.001484303771 0.002878536465 0.004362840236) 1286 2507 1
(0.2822782975 0.3588608512 0.2323545955 0.1265062557) 407 832 2
(0.6102548117 0.1948725942 0.184312762 0.01055983213) 1294 2514 2
(0.0775629543 0.3467629162 0.1144556066 0.4612185228) 1288 2469 2
(0.8782771039 0.06086144803 0.04426247024 0.01659897779) 309 639 1
(0.2395632214 0.3517794415 0.3802183893 0.02843894783) 1208 2371 2
(0.3590250196 0.143619347 0.1768681432 0.3204874902) 1289 2510 1
(0.2954830019 0.1437352542 0.2085232448 0.352258499) 861 1706 1
(0.5379138465 0.2310430768 0.0004015317598 0.230641545) 225 467 2
(0.7854278241 0.03300310791 0.07428298003 0.1072860879) 1173 2243 2
(0.3006110818 0.3496944591 0.1267663559 0.2229281031) 1019 1996 2
(0.276124958 0.2134339053 0.361937521 0.1485036156) 1163 2282 2
(0.4999704997 0.2500147501 0.2145451103 0.03546963984) 227 471 2
(0.7761518269 0.06018504524 0.05173904129 0.1119240865) 830 1647 1
(0.1862783976 0.1759849739 0.2308758272 0.4068608012) 801 2671 1
(0.1803305258 0.4098347371 0.2016909485 0.2081437886) 1260 2414 1
(0.6791408866 0.1604295567 0.1364412307 0.02398832606) 845 1677 1
(0.3291495642 0.3127090628 0.02271615514 0.3354252179) 1295 2483 2
(0.1393510938 0.116342217 0.3139822362 0.4303244531) 1015 2645 1
(0.4824085485 0.1065315396 0.2587957257 0.1522641861) 846 1676 1
(0.1656611033 0.4171694483 0.3429871699 0.07418227845) 903 1787 1
(0.03304941501 0.2591661216 0.4834752925 0.2243091709) 1264 2478 1
(0.4344326308 0.2827836846 0.1555714075 0.1272122771) 845 1658 1
(0.1730851511 0.2581100176 0.4134574244 0.1553474068) 883 1746 1
(0.1604664788 0.4197667606 0.3254052428 0.0943615178) 1197 2290 1
(0.08680094776 0.4565995261 0.2495129294 0.2070865967) 1085 2126 2
(0.7422973334 0.1288513333 0.07753009352 0.05132123979) 1260 2473 1
(0.4602110226 0.2698944887 0.06666297929 0.2032315094) 1104 2163 2
(0.2210093184 0.3327285707 0.3894953408 0.05676677006) 1025 2011 2
(0.8294076942 0.08529615291 0.04077410209 0.04452205081) 842 1671 1
(0.2170823052 0.3914588474 0.2524115961 0.1390472513) 223 461 2
(0.6043809402 0.1978095299 0.05159739784 0.1462121321) 1148 2252 2
(0.05075757057 0.2710442243 0.4746212147 0.2035769905) 1100 2155 1
(0.4326126971 0.2836936515 0.1538420656 0.1298515859) 904 1789 1
(0.2930661407 0.3534669296 0.031299943 0.3221669866) 1286 2465 1
(0.4767492723 0.2616253639 0.006930102086 0.2546952618) 1237 2427 2
(0.4351283667 0.1044622207 0.1779735959 0.2824358166) 1040 2039 1
(0.4601902085 0.2671257889 0.002779106831 0.2699048957) 1260 2472 1
(0.1671828171 0.08507198515 0.3313366063 0.4164085914) 1149 2664 1
(0.05081596482 0.4055759075 0.4745920176 0.06901611005) 1205 2362 1
(0.2026183076 0.04836173506 0.3503291111 0.3986908462) 925 1810 2
(0.3595824005 0.3202087997 0.1468088538 0.173399946) 1079 2117 1
(0.1052741473 0.4473629264 0.3306154855 0.1167474408) 810 1591 1
(0.851349338 0.000196901831 0.07412842916 0.074325331) 378 717 2
(0.491718898 0.254140551 0.1942396251 0.05990092587) 1014 2644 2
(0.2056768213 0.3971615893 0.1847534041 0.2124081853) 1234 2363 1
(0.04588738596 0.2425361843 0.477056307 0.2345201227) 1158 2272 2
(0.2045361293 0.03275886752 0.3649730678 0.3977319353) 347 655 2
(0.7283124327 0.07505631499 0.06078746867 0.1358437837) 1159 2273 1
(0.5243836692 0.07648441403 0.1613237514 0.2378081654) 222 456 1
(0.4647572686 0.0555029799 0.2676213657 0.2121183858) 316 653 2
(0.07451135017 0.4627443249 0.2046600452 0.2580842798) 1108 2174 1
(0.07455191421 0.368532026 0.09419201692 0.4627240429) 1162 2221 2
(0.1671599103 0.4164200449 0.1131989414 0.3032211035) 286 592 2
(0.6099243955 0.1950378022 0.1324175385 0.06262026372) 1238 2430 1
(0.08414791909 0.3064754577 0.4579260405 0.1514505827) 1254 2461 2
(0.2763848915 0.2965316396 0.3618075542 0.06527591469) 851 1685 1
(0.1003305155 0.2372757132 0.2125590291 0.4498347423) 907 1794 1
(0.02089879639 0.4895506018 0.41003802 0.07951258177) 1203 2361 1
(0.329002181 0.2537860602 0.08171284937 0.3354989095) 1146 2190 2
(0.6661754188 0.1508579834 0.01605430718 0.1669122906) 1174 2303 1
(0.355163792 0.322418104 0.008471048337 0.3139470556) 1269 2488 2
(0.2873280062 0.3563359969 0.3366211541 0.01971484283) 1109 2175 2
(0.6067972525 0.07745443363 0.1191469401 0.1966013737) 255 530 1
(0.7519303243 0.1008259356 0.1240348378 0.02320890222) 1201 2354 1
(0.164643926 0.417678037 0.009785210901 0.4078928261) 281 583 1
(0.6667731009 0.03248272434 0.1341307252 0.1666134495) 1050 2001 2
(0.2565535295 0.3717232352 0.1616012636 0.2101219717) 409 836 2
(0.4091122478 0.2954438761 0.2146816287 0.08076224745) 255 531 1
(0.3284434577 0.2022657546 0.3357782712 0.1335125166) 1073 2102 1
(0.05231500022 0.1906775418 0.2831649581 0.4738424999) 1168 2291 1
(0.1852749767 0.3630873071 0.04427520457 0.4073625116) 469 959 1
(0.2683782505 0.3658108747 0.1946559647 0.17115491) 1266 2485 1
(0.5552602778 0.08786147827 0.1345083828 0.2223698611) 1111 2179 1
(0.2905777986 0.1897722084 0.3547111007 0.1649388923) 255 531 2
(0.2813251275 0.3593374363 0.300361313 0.05897612327) 1223 2400 1
(0.3213045268 0.3393477366 0.2198348242 0.1195129124) 319 656 2
(0.5372188065 0.2313905967 0.02448182017 0.2069087766) 313 587 1
(0.7438704907 0.1280647546 0.09663334505 0.03143140958) 1116 2187 2
(0.3778125431 0.08131597646 0.3110937285 0.229777752) 1108 2174 2
(0.1556476914 0.4221761543 0.02274476954 0.3994313847) 1267 2486 2
(0.6240917238 0.1879541381 0.05595684219 0.1319972959) 1269 2488 2
(0.151083006 0.424458497 0.4194823182 0.00497617877) 1085 2128 2
(0.1661435677 0.4169282161 0.1189369774 0.2979912387) 1115 2187 2
(0.4877176618 0.2561411691 0.1792334546 0.07690771444) 379 776 2
(0.0569550622 0.4715224689 0.4271491738 0.04437329511) 287 594 2
(0.4182790002 0.07212254266 0.2187379572 0.2908604999) 1200 2296 2
(0.5506448148 0.2246775926 0.1595773321 0.06510026054) 286 590 2
(0.1802655069 0.2714209059 0.4098672465 0.1384463406) 223 456 1
(0.3019581914 0.177108137 0.1719127673 0.3490209043) 1265 2424 2
(0.2120530576 0.3939734712 0.1805800078 0.2133934634) 1167 2289 2
(0.2781761207 0.01975748627 0.3609119396 0.3411544534) 1085 2129 2
(0.849614959 0.07519252052 0.04260437738 0.03258814315) 1171 2297 2
(0.3362888114 0.3157983746 0.3318555943 0.01605721976) 1163 2279 1
(0.04697704463 0.2403873995 0.2361240782 0.4765114777) 875 1715 2
(0.292379329 0.1366820349 0.3538103355 0.2171283006) 1199 2350 1
(0.1072737536 0.2627147664 0.4463631232 0.1836483569) 1082 2123 2
(0.8164459658 0.08842383953 0.0917770171 0.003353177576) 1055 2067 1
(0.03682626056 0.4815868697 0.4438726592 0.0377142105) 1207 2368 2
(0.3397394171 0.3301302915 0.3137622695 0.01636802195) 289 598 1
(0.09939938445 0.3796571436 0.07064316416 0.4503003078) 1106 2169 1
(0.1455660185 0.1316432293 0.2955737614 0.4272169907) 1216 2327 2
(0.7741242117 0.1129378942 0.09918747927 0.01375041489) 224 463 1
(0.4644153438 0.184976189 0.2677923281 0.08281613912) 842 1668 1
(0.09651852849 0.4032030258 0.4517407358 0.04853770994) 1170 2296 2
(0.5696508561 0.08301082591 0.2151745719 0.132163746) 466 950 1
(0.04905873177 0.2738015968 0.2016690374 0.4754706341) 1166 2229 2
(0.5176751708 0.2411624146 0.04100194567 0.2001604689) 1133 2222 2
(0.1102611815 0.4448694093 0.09784081123 0.347028598) 1049 2058 1
(0.3830337633 0.3084831183 0.08075031189 0.2277328064) 375 768 2
(0.3620541216 0.3189729392 0.07539129875 0.2435816404) 1084 2126 2
(0.1816997793 0.4091501103 0.4086079483 0.0005421620759) 861 1706 2
(0.207763516 0.396118242 0.3444463401 0.05167190193) 1111 2179 2
(0.42512539 0.2770794259 0.0103578791 0.287437305) 878 1739 1
(0.07224422373 0.4638778881 0.260147513 0.2037303751) 1252 2398 1
(0.01842221996 0.49078889 0.04994241291 0.4408464771) 1146 2190 1
(0.6208303909 0.1895848046 0.1836288289 0.005955975656) 1117 2192 1
(0.1669778757 0.4165110622 0.2476255937 0.1688854685) 1115 2187 2
(0.5807750456 0.2096124772 0.1350313686 0.07458110856) 1084 2124 2
(0.7125627321 0.0188440852 0.1248745487 0.1437186339) 496 953 2
(0.1799156305 0.3159396079 0.4100421847 0.09410257683) 1233 2420 2
(0.1038257416 0.3637366634 0.4480871292 0.08435046576) 288 594 1
(0.8822542654 0.05887286729 0.01644091903 0.04243194826) 924 1826 2
(0.7868923848 0.0243292946 0.1065538076 0.08222451298) 1237 2425 1
(0.08838645524 0.4558067724 0.1062053043 0.349601468) 1176 2305 2
(0.1036914725 0.4481542638 0.005837300582 0.4423169632) 1099 2097 1
(0.6954870763 0.1522564619 0.08157189072 0.07068457114) 1113 2125 1
(0.2246101921 0.387694904 0.1839297954 0.2037651085) 1225 2403 2
(0.1020426557 0.4489786722 0.3249774748 0.1240011974) 1145 2244 2
(0.08323241748 0.1489896015 0.4583837913 0.3093941898) 813 1613 1
(0.04006668508 0.4799666575 0.2427328228 0.2372338346) 1236 2425 2
(0.2681809667 0.1326146354 0.2332948812 0.3659095166) 1168 2233 2
(0.6139826369 0.1695581763 0.02345050528 0.1930086816) 836 1659 1
(0.5711191124 0.2144404438 0.1638393002 0.05060114359) 802 2672 2
(0.2868974851 0.3565512574 0.1414353104 0.2151159471) 1249 2392 1
(0.06139109255 0.4693044537 0.4449119623 0.02439249139) 1203 2302 1
(0.1086351672 0.05328469444 0.4456824164 0.392397722) 840 1667 2
(0.6197705381 0.1901147309 0.05715087689 0.132963854) 904 1788 2
(0.5265716523 0.2367141739 0.2004384273 0.03627574661) 289 599 2
(0.2690366424 0.1892966496 0.3654816788 0.1761850292) 1132 2218 1
(0.3724504661 0.02449445678 0.3137747669 0.2892803101) 1081 2121 2
(0.1168764857 0.1880064271 0.4415617572 0.2535553301) 1052 2061 1
(0.1904063485 0.4047968258 0.08727479481 0.317522031) 286 533 1
(0.320972951 0.1189910806 0.2205224439 0.3395135245) 1207 2310 2
(0.446493897 0.2767530515 0.0238924901 0.2528605614) 857 1697 2
(0.1449934892 0.4275032554 0.4013406319 0.02616262347) 1257 2467 1
(0.7650843872 0.08218332568 0.03527448071 0.1174578064) 879 2547 1
(0.6106961456 0.1946519272 0.1382232384 0.05642868877) 216 439 1
(0.07356466874 0.4632176656 0.2657845066 0.197433159) 224 462 2
(0.2193373803 0.3903313098 0.3679560836 0.02237522628) 404 769 1
(0.4521070562 0.2739464719 0.00791368605 0.2660327858) 1093 2144 1
(0.4274002739 0.07440582406 0.2862998631 0.211894039) 1021 2003 2
(0.3296718713 0.1206803293 0.214483735 0.3351640644) 1177 2309 1
(0.3367838798 0.03401317997 0.2975948801 0.3316080601) 224 464 1
(0.394162952 0.069026337 0.233892187 0.302918524) 208 414 1
(0.4777379106 0.2611310447 0.2593271057 0.001803939066) 259 538 1
(0.2149262826 0.1009856604 0.2915511983 0.3925368587) 1237 2369 2
(0.07688097712 0.4615595114 0.08562750961 0.3759320018) 927 1833 1
(0.2733251627 0.1875114292 0.3633374187 0.1758259895) 1293 461 1
(0.04993805889 0.4750309706 0.1102995336 0.364731437) 945 1864 2
(0.4199043431 0.03813668571 0.2519111427 0.2900478284) 841 1650 2
(0.03870908855 0.4806454557 0.2627047489 0.2179407068) 318 656 2
(0.2234293292 0.3882853354 0.3792117318 0.009073603556) 1139 2235 1
(0.03045664265 0.2406975588 0.4847716787 0.2440741199) 1261 2475 2
(0.3601835795 0.3199082103 0.3131240134 0.006784196904) 1170 2296 1
(0.06661706344 0.4666914683 0.08534885192 0.3813426164) 1086 2072 1
(0.6338797822 0.08560080077 0.09745930815 0.1830601089) 1254 2402 2
(0.2044125223 0.1063383971 0.3977937389 0.2914553417) 1102 2159 1
(0.1820338888 0.4089830556 0.07838614034 0.3305969153) 229 478 2
(0.08879085727 0.4556045714 0.3324767996 0.1231277718) 1104 2107 1
(0.371467831 0.3142660845 0.1343383937 0.1799276908) 852 1687 2
(0.1666759712 0.3643952446 0.05226676975 0.4166620144) 1055 2069 1
(0.6332426342 0.1193868333 0.1833786829 0.0639918496) 1239 2429 1
(0.17431833 0.412840835 0.1469710026 0.2658698324) 1105 2165 2
(0.1811050994 0.2125263716 0.1969210787 0.4094474503) 817 1605 2
(0.2931006515 0.331392606 0.3534496743 0.02205706827) 1290 2510 1
(0.2690936629 0.1545476701 0.3654531686 0.2109054984) 1148 2253 2
(0.7308559233 0.1345720384 0.06525123958 0.06932079879) 342 704 2
(0.0004921147842 0.4997539426 0.1988251149 0.3009288278) 825 1639 1
(0.08128645641 0.1736272215 0.2857295503 0.4593567718) 1164 2283 1
(0.5584305379 0.06755487562 0.220784731 0.1532298554) 1171 2295 1
(0.2207965194 0.3896017403 0.1332246664 0.256377074) 1042 2044 1
(0.01693199246 0.4915340038 0.07961067775 0.411923326) 347 712 2
(0.2665010465 0.3343486738 0.3667494767 0.03240080292) 1022 2002 1
(0.680987175 0.130997368 0.1595064125 0.02850904446) 259 538 2
(0.04039489844 0.4798025508 0.06414121375 0.415661337) 1202 2356 2
(0.4647987456 0.2091661479 0.05843447928 0.2676006272) 435 831 2
(0.1299334579 0.2781901404 0.4350332711 0.1568431307) 822 1633 2
(0.3689100512 0.01637210895 0.2991728654 0.3155449744) 226 470 1
(0.02206058179 0.4889697091 0.24114198 0.2478277291) 401 823 1
(0.2699621837 0.3650189082 0.2911541399 0.0738647683) 926 1828 2
(0.4386030586 0.2685458392 0.0121526315 0.2806984707) 1176 2307 1
(0.6824549387 0.1587725306 0.04969566045 0.1090768702) 843 1654 1
(0.001815688217 0.1144714212 0.4990921559 0.3846207347) 1115 2185 1
(0.6141066828 0.1929466586 0.1220086425 0.07093801608) 1036 1973 1
(0.2945279054 0.0866846569 0.3527360473 0.2660513904) 1113 2184 2
(0.1798940736 0.4100529632 0.02825667488 0.3817962883) 224 462 2
(0.1435604321 0.4282197839 0.2397922676 0.1884275163) 1024 2654 2
(0.5849018168 0.2075490916 0.1390133604 0.06853573114) 1141 2238 2
(0.2484544854 0.0471342861 0.3286384712 0.3757727573) 1112 2181 1
(0.0673991496 0.4663004252 0.1580399261 0.3082604991) 1298 2518 2
(0.174783058 0.412608471 0.24953948 0.163068991) 1195 2345 1
(0.7397461354 0.03991471683 0.1301269323 0.09021221549) 227 472 2
(0.2527550189 0.3736224905 0.0642468647 0.3093756258) 1288 2469 1
(0.4198001179 0.2786406329 0.01145930817 0.2900999411) 1281 2502 1
(0.5761969045 0.2119015478 0.2028023318 0.009099215948) 879 1741 1
(0.01583795868 0.4920810207 0.4507091168 0.04137190389) 227 468 2
(0.4658091761 0.1872424472 0.2670954119 0.07985296475) 876 1736 2
(0.3452245566 0.2590976869 0.3273877217 0.06829003475) 825 1636 1
(0.1329836085 0.1724569392 0.4335081958 0.2610512566) 1058 2076 2
(0.09265827001 0.1943518183 0.453670865 0.2593190467) 1115 2188 2
(0.3377987632 0.2314010421 0.3311006184 0.09969957626) 1205 2365 2
(0.2492108666 0.1033203728 0.3753945667 0.2720741939) 1265 2483 2
(0.192577554 0.01411032986 0.403711223 0.3896008931) 1239 2429 1
(0.2559577937 0.05812573912 0.313895364 0.3720211031) 870 1723 1
(0.4050842884 0.2974578558 0.1246270275 0.1728308283) 1232 2359 1
(0.6590738422 0.1704630789 0.1621824551 0.008280623776) 1114 2186 1
(0.2213927763 0.05123519346 0.3380684184 0.3893036118) 846 1660 2
(0.3282841146 0.3358579427 0.3030513158 0.03280662692) 845 1658 1
(0.6441636815 0.1779181592 0.03968295573 0.1382352035) 281 583 1
(0.5096163914 0.1661196313 0.2451918043 0.079072173) 1128 2213 2
(0.09395459791 0.004636517264 0.453022701 0.4483861838) 310 641 2
(0.09176375261 0.1449919307 0.4541181237 0.309126193) 1259 2471 2
(0.05984520291 0.4700773985 0.3379671066 0.1321102919) 1227 2408 1
(0.879382036 0.06030898199 0.05632638326 0.003982598731) 1094 2143 2
(0.9005180686 0.007642805607 0.0497409657 0.0420981601) 1288 2508 1
(0.2615213499 0.1375727004 0.2316666247 0.3692393251) 1090 2137 1
(0.1566643624 0.4216678188 0.3495135228 0.07215429598) 1203 2361 1
(0.2944241556 0.3201943822 0.03259354005 0.3527879222) 1293 2479 2
(0.1190865768 0.1071147497 0.4404567116 0.3333419619) 1292 2512 1
(0.161046759 0.4194766205 0.04952281471 0.3699538058) 858 1701 2
(0.7751302757 0.1124348621 0.03332946436 0.07910539777) 1175 2306 1
(0.5912463327 0.05982358944 0.2043768336 0.1445532442) 1148 2250 1
(0.6097154504 0.1951422748 0.1124791499 0.08266312496) 318 657 1
(0.1983860316 0.3483587013 0.05244828288 0.4008069842) 1298 2489 2
(0.562735773 0.09432124012 0.1243108734 0.2186321135) 1286 2507 1
(0.1789199282 0.4105400359 0.3240000142 0.08654002169) 337 694 2
(0.2529769811 0.3735115094 0.1872187614 0.186292748) 1105 2168 1
(0.4657210882 0.2189456124 0.04819384353 0.2671394559) 824 1636 1
(0.3354874956 0.3322562522 0.05758217004 0.2746740821) 834 1637 1
(0.2613068649 0.2478443912 0.1215021763 0.3693465676) 1162 2221 2
(0.8747029869 0.01080817086 0.06264850654 0.05184033568) 223 460 2
(0.126317828 0.436841086 0.04876047852 0.3880806075) 311 642 2
(0.5176381048 0.0283375824 0.2411809476 0.2128433652) 875 1734 2
(0.5036747648 0.2481626176 0.1760502315 0.07211238607) 1252 2398 1
(0.3664263753 0.3167868123 0.05400562981 0.2627811825) 1100 2158 1
(0.565981178 0.217009411 0.00534498212 0.2116644289) 846 1676 2
(0.03205844651 0.4839707767 0.3204154098 0.163555367) 818 1623 2
(0.01010057069 0.323411184 0.1715385307 0.4949497147) 900 1780 1
(0.3069488689 0.05539214761 0.2911334179 0.3465255655) 1115 2129 2
(0.676428948 0.161785526 0.09826470544 0.06352082058) 1227 2349 1
(0.4725473559 0.1101990692 0.263726322 0.1535272528) 1080 2116 1
(0.7910192897 0.02090340117 0.08358695398 0.1044903551) 1193 2340 1
(0.32472831 0.337635845 0.05991005687 0.2777257881) 1266 2426 1
(0.260926134 0.3440452231 0.369536933 0.02549170995) 349 716 1
(0.03129587505 0.3983203458 0.4843520625 0.08603171665) 1163 2282 2
(0.1240014651 0.1612620403 0.2767372271 0.4379992675) 466 893 2
(0.04386519457 0.4780674027 0.0327273531 0.4453400496) 889 1758 2
(0.04844700119 0.4757764994 0.4012359997 0.07454049973) 1198 2348 2
(0.7559923207 0.1220038397 0.05530993866 0.06669390101) 1289 2509 2
(0.4743005714 0.2618766162 0.0009730981164 0.2628497143) 1091 2081 2
(0.3387121265 0.3306439368 0.08994146197 0.2407024748) 1225 2401 2
(0.02170803967 0.3415980369 0.4891459802 0.1475479432) 1297 473 1
(0.601507268 0.0416706223 0.199246366 0.1575757437) 1176 2308 2
(0.5617186893 0.1027213016 0.2191406553 0.1164193537) 1170 2293 1
(0.8619333454 0.06903332729 0.01298657686 0.05604675043) 1133 2223 1
(0.2793403712 0.310774675 0.04955513941 0.3603298144) 1199 2352 1
(0.3177880789 0.02573743489 0.3411059606 0.3153685257) 1231 2413 1
(0.213772438 0.393113781 0.3911885776 0.001925203373) 876 1717 1
(0.01347137821 0.4040536 0.08921071085 0.4932643109) 1114 2185 1
(0.1814030323 0.2609714736 0.1483270103 0.4092984838) 876 1735 1
(0.2507469342 0.3746265329 0.3199315922 0.05469494068) 915 1810 1
(0.3469650844 0.2045391628 0.121978295 0.3265174578) 1207 2310 2
(0.6168046726 0.05025600949 0.1413416542 0.1915976637) 1180 2256 2
(0.215773785 0.3921131075 0.2421296806 0.1499834269) 1153 2262 1
(0.05532025562 0.4723398722 0.09902123401 0.3733186382) 375 771 1
(0.07010882716 0.440720459 0.4649455864 0.02422512738) 286 593 2
(0.5248620793 0.2375689604 0.1807932412 0.05677571919) 222 453 2
(0.5976875009 0.07619818024 0.1249580693 0.2011562496) 846 1678 1
(0.7189560447 0.1405219776 0.004254395274 0.1362675824) 1021 2000 2
(0.5005893657 0.0539891164 0.2497053172 0.1957162008) 1171 2295 1
(0.1261469438 0.279669976 0.4369265281 0.1572565522) 1264 2481 2
(0.662101366 0.1635916972 0.168949317 0.005357619805) 881 1745 2
(0.1784294222 0.09097550873 0.3198097802 0.4107852889) 281 523 2
(0.5086012222 0.07790071655 0.2456993889 0.1677986723) 1259 2468 1
(0.7912449888 0.007658198703 0.09671930688 0.1043775056) 845 1676 1
(0.570410012 0.1860840474 0.214794994 0.02871094665) 1105 2168 2
(0.0818038768 0.2357669898 0.4590980616 0.2233310718) 307 632 1
(0.005216296595 0.05929134588 0.4973918517 0.4381005058) 1203 2358 1
(0.5141271726 0.1168108693 0.1261255445 0.2429364137) 874 1731 1
(0.1927113999 0.3431305824 0.4036443001 0.06051371763) 857 1697 1
(0.1938876405 0.01177155999 0.3912846198 0.4030561798) 1294 2481 2
(0.5252748544 0.1161167742 0.2373625728 0.1212457985) 1263 2476 1
(0.2715076472 0.2803341718 0.08391200461 0.3642461764) 1199 2352 1
(0.7621131536 0.008010602037 0.1189434232 0.1109328212) 280 581 2
(0.04883292084 0.09446593654 0.4755835396 0.381117603) 1065 2086 1
(0.5358635439 0.2320682281 0.1248824594 0.1071857687) 289 596 2
(0.1376687113 0.4311656444 0.2140791307 0.2170865136) 1298 476 2
(0.5091723232 0.2454138384 0.2094023741 0.03601146432) 467 952 2
(0.08634292336 0.4568285383 0.06178379924 0.3950447391) 244 509 1
(0.7175593849 0.1412203076 0.02007809725 0.1211422103) 1289 449 2
(0.3709459613 0.3145270193 0.002484938453 0.3120420809) 1288 2469 1
(0.1504036097 0.4213854814 0.4247981952 0.003412713812) 1201 2354 1
(0.8124809314 0.09375953429 0.04904759557 0.04471193871) 1067 2090 2
(0.02210868816 0.008066354153 0.4889456559 0.4808793018) 1206 2367 2
(0.03429014467 0.297074232 0.1857806957 0.4828549277) 1263 2478 1
(0.5789725242 0.2105137379 0.118342097 0.09217164092) 289 599 2