/*--------------------------------*- C++ -*----------------------------------*\
| =========                 |                                                 |
| \\      /  F ield         | OpenFOAM: The Open Source CFD Toolbox           |
|  \\    /   O peration     | Version:  v1912                                 |
|   \\  /    A nd           | Website:  www.openfoam.com                      |
|    \\/     M anipulation  |                                                 |
\*---------------------------------------------------------------------------*/
FoamFile
{
    version     2.0;
    format      ascii;
    class       volScalarField;
    location    "6.24";
    object      Ma;
}
// * * * * * * * * * * * * * * * * * * * * * * * * * * * * * * * * * * * * * //

dimensions      [0 0 0 0 0 0 0];


internalField   nonuniform List<scalar> 
1900
(
0.746326
0.0646047
0.0929533
0.0892548
0.092032
0.0939384
0.0956768
0.0979401
0.0986644
0.0903777
0.746324
0.0645984
0.0929636
0.089261
0.0920172
0.0938359
0.0954558
0.0973849
0.0998125
0.101461
0.746324
0.064596
0.0929644
0.0892545
0.0919862
0.0937885
0.0954
0.0972346
0.100484
0.107644
0.746324
0.0645984
0.0929636
0.089261
0.0920172
0.0938359
0.0954558
0.0973849
0.0998125
0.101461
0.746326
0.0646047
0.0929533
0.0892548
0.092032
0.0939384
0.0956768
0.0979401
0.0986644
0.0903777
0.0990721
0.137481
0.190331
0.277181
0.425719
0.117981
0.144459
0.176807
0.243441
0.388124
0.125989
0.150821
0.183412
0.247029
0.385359
0.117981
0.144459
0.176807
0.243441
0.388124
0.0990721
0.137481
0.190331
0.277181
0.425719
0.945407
1.35175
1.70167
1.80897
1.71476
0.90645
1.34824
1.71552
1.83586
1.73977
0.902833
1.35705
1.71536
1.82958
1.73632
0.90645
1.34824
1.71552
1.83586
1.73977
0.945407
1.35175
1.70167
1.80897
1.71476
1.77255
1.9535
2.12
1.93682
1.36378
1.05207
0.881488
0.682439
0.518483
0.388258
0.260236
0.129262
0.0483387
0.0278488
0.025333
0.0247809
0.0237303
0.0230258
0.028264
0.0467546
0.074286
0.105544
0.138157
0.171255
0.204555
0.237984
0.271048
0.304695
0.336795
0.368225
0.39919
0.429059
0.458014
0.482721
0.503125
0.51531
0.52992
0.516324
0.430887
0.129482
1.76307
1.98262
2.15099
2.02055
1.39746
1.06126
0.910357
0.709465
0.532514
0.393413
0.260638
0.126626
0.0412124
0.0156626
0.0126519
0.0125298
0.0120307
0.0116519
0.0201738
0.0423197
0.0716109
0.103763
0.1369
0.170346
0.203899
0.237526
0.270745
0.304534
0.336735
0.36827
0.399307
0.429264
0.458246
0.483006
0.5034
0.515537
0.530305
0.516719
0.430513
0.126977
1.74487
1.93679
2.10824
2.02222
1.40399
1.04627
0.888611
0.683623
0.514425
0.387672
0.261241
0.126919
0.0388469
0.00844572
0.000526707
0.00210974
0.00241994
0.00230687
0.0166791
0.0407586
0.0707091
0.103163
0.136466
0.170017
0.203645
0.237331
0.270597
0.304434
0.336674
0.368257
0.399341
0.429365
0.458411
0.483269
0.50378
0.516075
0.531143
0.51803
0.431918
0.127871
1.76307
1.98262
2.15099
2.02055
1.39746
1.06126
0.910357
0.709465
0.532514
0.393413
0.260638
0.126626
0.0412124
0.0156626
0.0126519
0.0125298
0.0120307
0.0116519
0.0201738
0.0423197
0.0716109
0.103763
0.1369
0.170346
0.203899
0.237526
0.270745
0.304534
0.336735
0.36827
0.399307
0.429264
0.458246
0.483006
0.5034
0.515537
0.530305
0.516719
0.430513
0.126977
1.77255
1.9535
2.12
1.93682
1.36378
1.05207
0.881488
0.682439
0.518483
0.388258
0.260236
0.129262
0.0483387
0.0278488
0.025333
0.0247809
0.0237303
0.0230258
0.028264
0.0467546
0.074286
0.105544
0.138157
0.171255
0.204555
0.237984
0.271048
0.304695
0.336795
0.368225
0.39919
0.429059
0.458014
0.482721
0.503125
0.51531
0.52992
0.516324
0.430887
0.129482
1.79868
1.86618
1.86749
1.60507
1.20184
0.958177
0.793552
0.630285
0.499588
0.385026
0.262187
0.137246
0.0694781
0.0553873
0.0526233
0.0512248
0.0492449
0.0478084
0.0501404
0.0624993
0.0851087
0.113395
0.144241
0.176216
0.208751
0.241632
0.274315
0.307608
0.339534
0.370755
0.401645
0.431346
0.460363
0.485054
0.505742
0.518246
0.532387
0.518791
0.435062
0.13978
1.51189
1.56348
1.45841
1.1526
0.882604
0.774414
0.684389
0.58999
0.487627
0.378749
0.261285
0.15572
0.109507
0.0983376
0.0943121
0.0914371
0.0882244
0.085914
0.086609
0.0943466
0.110642
0.133497
0.160442
0.189668
0.220216
0.251604
0.283227
0.315501
0.346905
0.377501
0.408131
0.437323
0.466405
0.49088
0.512205
0.525185
0.538371
0.523499
0.439884
0.155445
1.15304
1.12838
0.942774
0.751561
0.699352
0.694071
0.64703
0.572324
0.469789
0.368877
0.264076
0.184215
0.152376
0.141437
0.135837
0.131355
0.127054
0.124025
0.123848
0.129375
0.141669
0.159948
0.182885
0.208896
0.236911
0.266286
0.296422
0.327195
0.357817
0.387459
0.417636
0.446023
0.475043
0.499064
0.521063
0.534489
0.546643
0.530183
0.447714
0.178274
0.740908
0.642047
0.670371
0.723293
0.743551
0.709687
0.637018
0.545206
0.454741
0.364259
0.276709
0.220322
0.195822
0.184224
0.176831
0.170836
0.165598
0.161973
0.161218
0.165487
0.175196
0.190023
0.209501
0.232423
0.257799
0.284946
0.313368
0.342336
0.372003
0.400463
0.430033
0.457421
0.486237
0.509651
0.532213
0.545919
0.55731
0.539257
0.458327
0.20555
0.711574
0.748726
0.832782
0.832884
0.772736
0.698676
0.612159
0.529022
0.447243
0.366894
0.299207
0.259274
0.238517
0.22597
0.216918
0.209657
0.20366
0.199541
0.198453
0.20186
0.209787
0.222032
0.238717
0.258951
0.281881
0.306842
0.333533
0.360613
0.389272
0.416475
0.445382
0.471726
0.500293
0.523069
0.546109
0.559866
0.570853
0.551655
0.47282
0.236141
0.790948
0.869601
0.894385
0.83217
0.757043
0.681688
0.601175
0.524099
0.450365
0.383283
0.332336
0.300376
0.280616
0.266727
0.256219
0.247848
0.241183
0.236664
0.235247
0.238102
0.244714
0.254953
0.269358
0.287268
0.307958
0.330791
0.355723
0.38085
0.408352
0.434143
0.462187
0.487313
0.515367
0.537264
0.560346
0.573726
0.58377
0.563156
0.486568
0.26645
0.780344
0.877764
0.884245
0.80973
0.747855
0.669917
0.597552
0.526096
0.461303
0.40682
0.367059
0.339736
0.320457
0.305622
0.294118
0.284944
0.277771
0.27313
0.271324
0.273695
0.279306
0.288035
0.30073
0.316873
0.335828
0.356948
0.380472
0.404042
0.430655
0.455339
0.482769
0.506995
0.53477
0.556077
0.579345
0.592505
0.601799
0.580853
0.506962
0.300388
0.754781
0.864688
0.864367
0.795832
0.744572
0.666396
0.602378
0.538747
0.483701
0.438885
0.404889
0.37908
0.359363
0.343561
0.331091
0.321106
0.313482
0.308473
0.306519
0.308563
0.313354
0.32076
0.331894
0.346345
0.363558
0.382854
0.404794
0.42666
0.452114
0.475472
0.502007
0.525137
0.552349
0.572835
0.595894
0.608467
0.616288
0.595514
0.524445
0.332484
0.731316
0.849824
0.851853
0.795605
0.745981
0.669152
0.612372
0.555693
0.508909
0.470424
0.440093
0.41557
0.395656
0.379398
0.366447
0.356035
0.348327
0.342931
0.340705
0.3424
0.346557
0.35304
0.363168
0.376568
0.392709
0.410825
0.431827
0.452514
0.47725
0.499712
0.525613
0.547934
0.574689
0.594503
0.61726
0.629376
0.635744
0.615077
0.547108
0.366758
0.713833
0.836654
0.847156
0.800842
0.748022
0.677743
0.628314
0.57896
0.539613
0.504308
0.475796
0.451625
0.431331
0.414483
0.40085
0.389896
0.381723
0.376117
0.373732
0.375169
0.37873
0.384258
0.393282
0.40547
0.420349
0.437083
0.456957
0.47628
0.500166
0.521718
0.546941
0.568521
0.594844
0.614089
0.636571
0.648412
0.653631
0.63293
0.568558
0.399818
0.698719
0.825269
0.848946
0.806266
0.753296
0.691291
0.648281
0.603492
0.568295
0.535377
0.508331
0.484398
0.46412
0.447143
0.433328
0.422651
0.414191
0.408412
0.40578
0.406997
0.410178
0.41515
0.423594
0.435162
0.449386
0.465297
0.484497
0.502894
0.526162
0.547052
0.571659
0.592575
0.618345
0.636964
0.658878
0.670351
0.674205
0.652966
0.591939
0.432821
0.686564
0.816656
0.850126
0.81053
0.766276
0.708791
0.672132
0.629831
0.598009
0.566574
0.540262
0.516675
0.496444
0.479058
0.464754
0.453643
0.445048
0.439257
0.436528
0.437544
0.440197
0.444307
0.451759
0.462266
0.475412
0.490129
0.508375
0.525621
0.548125
0.56834
0.592322
0.612663
0.637966
0.656118
0.677645
0.689022
0.692072
0.670979
0.614227
0.464722
0.679691
0.812641
0.854621
0.82035
0.78264
0.726615
0.69342
0.653261
0.624113
0.593802
0.568078
0.544481
0.524421
0.50797
0.494705
0.483311
0.474626
0.468575
0.465591
0.466457
0.468946
0.472853
0.480157
0.490503
0.503434
0.517693
0.53563
0.552284
0.574303
0.594112
0.617524
0.637345
0.661981
0.679536
0.700264
0.711223
0.713081
0.691709
0.638419
0.495635
0.681376
0.813698
0.8602
0.830973
0.797302
0.743357
0.714464
0.675888
0.648929
0.619299
0.594311
0.570969
0.551908
0.53499
0.520524
0.508887
0.499897
0.493463
0.490113
0.490637
0.492607
0.495827
0.502492
0.512255
0.524598
0.538087
0.555507
0.571421
0.592805
0.612166
0.635055
0.654467
0.678588
0.69572
0.715936
0.726631
0.727813
0.706929
0.65899
0.525037
0.684954
0.816685
0.865572
0.840929
0.810336
0.758798
0.732274
0.694755
0.668933
0.63967
0.615295
0.593033
0.573277
0.556306
0.54175
0.529758
0.520116
0.512976
0.509139
0.509563
0.511607
0.514992
0.522011
0.532246
0.545004
0.558537
0.576167
0.591882
0.612868
0.632013
0.654436
0.67346
0.696769
0.713313
0.732542
0.742595
0.742769
0.722751
0.680251
0.552645
0.687326
0.817838
0.867877
0.846928
0.818027
0.768074
0.743573
0.707048
0.682753
0.654204
0.630475
0.60814
0.588504
0.571115
0.556204
0.543692
0.533365
0.525481
0.520961
0.520904
0.522553
0.525683
0.532714
0.543099
0.5559
0.569087
0.586513
0.601655
0.622061
0.641014
0.663224
0.682133
0.704964
0.721203
0.739815
0.749314
0.749092
0.732023
0.69773
0.577942
0.691414
0.818682
0.859538
0.838957
0.811654
0.764175
0.741959
0.707069
0.684137
0.656595
0.633796
0.61268
0.5947
0.578992
0.565539
0.554097
0.544778
0.538083
0.534836
0.53569
0.537267
0.539332
0.544926
0.554027
0.565798
0.577651
0.594098
0.607521
0.626158
0.643461
0.664074
0.681944
0.703351
0.718794
0.736345
0.745409
0.745759
0.734583
0.71292
0.599369
0.725529
0.823219
0.835041
0.814939
0.791824
0.748499
0.730226
0.6984
0.678022
0.652904
0.631959
0.611761
0.593944
0.577695
0.563555
0.551348
0.541253
0.533707
0.529602
0.529449
0.529175
0.528585
0.531439
0.538112
0.547898
0.557627
0.573321
0.585968
0.604437
0.621166
0.641057
0.658717
0.679408
0.695094
0.713299
0.725089
0.731104
0.734363
0.742776
0.669059
1.64565
0.94179
0.827503
0.801283
0.780601
0.739266
0.718389
0.684776
0.660494
0.631626
0.606129
0.581198
0.558727
0.537691
0.518807
0.501738
0.486568
0.473832
0.464849
0.460644
0.457268
0.454627
0.456649
0.46344
0.473742
0.484305
0.501822
0.516538
0.537517
0.557549
0.58084
0.602856
0.627172
0.648279
0.671429
0.690824
0.708619
0.74162
0.896191
1.57135
2.49932
1.64991
0.744352
0.668427
0.640776
0.596197
0.561106
0.520223
0.483865
0.445935
0.40982
0.37452
0.34121
0.309388
0.279823
0.252696
0.22839
0.207814
0.19303
0.186318
0.184763
0.188304
0.20044
0.219663
0.243368
0.268673
0.299439
0.328716
0.361664
0.393814
0.426992
0.459026
0.490609
0.520939
0.550056
0.577708
0.601781
0.67345
1.52399
2.46379
2.49932
1.64991
0.744352
0.668427
0.640776
0.596197
0.561106
0.520223
0.483865
0.445935
0.40982
0.37452
0.34121
0.309388
0.279823
0.252696
0.22839
0.207814
0.19303
0.186318
0.184763
0.188304
0.20044
0.219663
0.243368
0.268673
0.299439
0.328716
0.361664
0.393814
0.426992
0.459026
0.490609
0.520939
0.550056
0.577708
0.601781
0.67345
1.52399
2.46379
1.64565
0.94179
0.827503
0.801283
0.780601
0.739266
0.718389
0.684776
0.660494
0.631626
0.606129
0.581198
0.558727
0.537691
0.518807
0.501738
0.486568
0.473832
0.464849
0.460644
0.457268
0.454627
0.456649
0.46344
0.473742
0.484305
0.501822
0.516538
0.537517
0.557549
0.58084
0.602856
0.627172
0.648279
0.671429
0.690824
0.708619
0.74162
0.896191
1.57135
0.725529
0.823219
0.835041
0.814939
0.791824
0.748499
0.730226
0.6984
0.678022
0.652904
0.631959
0.611761
0.593944
0.577695
0.563555
0.551348
0.541253
0.533707
0.529602
0.529449
0.529175
0.528585
0.531439
0.538112
0.547898
0.557627
0.573321
0.585968
0.604437
0.621166
0.641057
0.658717
0.679408
0.695094
0.713299
0.725089
0.731104
0.734363
0.742776
0.669059
0.691414
0.818682
0.859538
0.838957
0.811654
0.764175
0.741959
0.707069
0.684137
0.656595
0.633796
0.61268
0.5947
0.578992
0.565539
0.554097
0.544778
0.538083
0.534836
0.53569
0.537267
0.539332
0.544926
0.554027
0.565798
0.577651
0.594098
0.607521
0.626158
0.643461
0.664074
0.681944
0.703351
0.718794
0.736345
0.745409
0.745759
0.734583
0.71292
0.599369
0.687326
0.817838
0.867877
0.846928
0.818027
0.768074
0.743573
0.707048
0.682753
0.654204
0.630475
0.60814
0.588504
0.571115
0.556204
0.543692
0.533365
0.525481
0.520961
0.520904
0.522553
0.525683
0.532714
0.543099
0.5559
0.569087
0.586513
0.601655
0.622061
0.641014
0.663224
0.682133
0.704964
0.721203
0.739815
0.749314
0.749092
0.732023
0.69773
0.577942
0.684954
0.816685
0.865572
0.840929
0.810336
0.758798
0.732274
0.694755
0.668933
0.63967
0.615295
0.593033
0.573277
0.556306
0.54175
0.529758
0.520116
0.512976
0.509139
0.509563
0.511607
0.514992
0.522011
0.532246
0.545004
0.558537
0.576167
0.591882
0.612868
0.632013
0.654436
0.67346
0.696769
0.713313
0.732542
0.742595
0.742769
0.722751
0.680251
0.552645
0.681376
0.813698
0.8602
0.830973
0.797302
0.743357
0.714464
0.675888
0.648929
0.619299
0.594311
0.570969
0.551908
0.53499
0.520524
0.508887
0.499897
0.493463
0.490113
0.490637
0.492607
0.495827
0.502492
0.512255
0.524598
0.538087
0.555507
0.571421
0.592805
0.612166
0.635055
0.654467
0.678588
0.69572
0.715936
0.726631
0.727813
0.706929
0.65899
0.525037
0.679691
0.812641
0.854621
0.82035
0.78264
0.726615
0.69342
0.653261
0.624113
0.593802
0.568078
0.544481
0.524421
0.50797
0.494705
0.483311
0.474626
0.468575
0.465591
0.466457
0.468946
0.472853
0.480157
0.490503
0.503434
0.517693
0.53563
0.552284
0.574303
0.594112
0.617524
0.637345
0.661981
0.679536
0.700264
0.711223
0.713081
0.691709
0.638419
0.495635
0.686564
0.816656
0.850126
0.81053
0.766276
0.708791
0.672132
0.629831
0.598009
0.566574
0.540262
0.516675
0.496444
0.479058
0.464754
0.453643
0.445048
0.439257
0.436528
0.437544
0.440197
0.444307
0.451759
0.462266
0.475412
0.490129
0.508375
0.525621
0.548125
0.56834
0.592322
0.612663
0.637966
0.656118
0.677645
0.689022
0.692072
0.670979
0.614227
0.464722
0.698719
0.825269
0.848946
0.806266
0.753296
0.691291
0.648281
0.603492
0.568295
0.535377
0.508331
0.484398
0.46412
0.447143
0.433328
0.422651
0.414191
0.408412
0.40578
0.406997
0.410178
0.41515
0.423594
0.435162
0.449386
0.465297
0.484497
0.502894
0.526162
0.547052
0.571659
0.592575
0.618345
0.636964
0.658878
0.670351
0.674205
0.652966
0.591939
0.432821
0.713833
0.836654
0.847156
0.800842
0.748022
0.677743
0.628314
0.57896
0.539613
0.504308
0.475796
0.451625
0.431331
0.414483
0.40085
0.389896
0.381723
0.376117
0.373732
0.375169
0.37873
0.384258
0.393282
0.40547
0.420349
0.437083
0.456957
0.47628
0.500166
0.521718
0.546941
0.568521
0.594844
0.614089
0.636571
0.648412
0.653631
0.63293
0.568558
0.399818
0.731316
0.849824
0.851853
0.795605
0.745981
0.669152
0.612372
0.555693
0.508909
0.470424
0.440093
0.41557
0.395656
0.379398
0.366447
0.356035
0.348327
0.342931
0.340705
0.3424
0.346557
0.35304
0.363168
0.376568
0.392709
0.410825
0.431827
0.452514
0.47725
0.499712
0.525613
0.547934
0.574689
0.594503
0.61726
0.629376
0.635744
0.615077
0.547108
0.366758
0.754781
0.864688
0.864367
0.795832
0.744572
0.666396
0.602378
0.538747
0.483701
0.438885
0.404889
0.37908
0.359363
0.343561
0.331091
0.321106
0.313482
0.308473
0.306519
0.308563
0.313354
0.32076
0.331894
0.346345
0.363558
0.382854
0.404794
0.42666
0.452114
0.475472
0.502007
0.525137
0.552349
0.572835
0.595894
0.608467
0.616288
0.595514
0.524445
0.332484
0.780344
0.877764
0.884245
0.80973
0.747855
0.669917
0.597552
0.526096
0.461303
0.40682
0.367059
0.339736
0.320457
0.305622
0.294118
0.284944
0.277771
0.27313
0.271324
0.273695
0.279306
0.288035
0.30073
0.316873
0.335828
0.356948
0.380472
0.404042
0.430655
0.455339
0.482769
0.506995
0.53477
0.556077
0.579345
0.592505
0.601799
0.580853
0.506962
0.300388
0.790948
0.869601
0.894385
0.83217
0.757043
0.681688
0.601175
0.524099
0.450365
0.383283
0.332336
0.300376
0.280616
0.266727
0.256219
0.247848
0.241183
0.236664
0.235247
0.238102
0.244714
0.254953
0.269358
0.287268
0.307958
0.330791
0.355723
0.38085
0.408352
0.434143
0.462187
0.487313
0.515367
0.537264
0.560346
0.573726
0.58377
0.563156
0.486568
0.26645
0.711574
0.748726
0.832782
0.832884
0.772736
0.698676
0.612159
0.529022
0.447243
0.366894
0.299207
0.259274
0.238517
0.22597
0.216918
0.209657
0.20366
0.199541
0.198453
0.20186
0.209787
0.222032
0.238717
0.258951
0.281881
0.306842
0.333533
0.360613
0.389272
0.416475
0.445382
0.471726
0.500293
0.523069
0.546109
0.559866
0.570853
0.551655
0.47282
0.236141
0.740908
0.642047
0.670371
0.723293
0.743551
0.709687
0.637018
0.545206
0.454741
0.364259
0.276709
0.220322
0.195822
0.184224
0.176831
0.170836
0.165598
0.161973
0.161218
0.165487
0.175196
0.190023
0.209501
0.232423
0.257799
0.284946
0.313368
0.342336
0.372003
0.400463
0.430033
0.457421
0.486237
0.509651
0.532213
0.545919
0.55731
0.539257
0.458327
0.20555
1.15304
1.12838
0.942774
0.751561
0.699352
0.694071
0.64703
0.572324
0.469789
0.368877
0.264076
0.184215
0.152376
0.141437
0.135837
0.131355
0.127054
0.124025
0.123848
0.129375
0.141669
0.159948
0.182885
0.208896
0.236911
0.266286
0.296422
0.327195
0.357817
0.387459
0.417636
0.446023
0.475043
0.499064
0.521063
0.534489
0.546643
0.530183
0.447714
0.178274
1.51189
1.56348
1.45841
1.1526
0.882604
0.774414
0.684389
0.58999
0.487627
0.378749
0.261285
0.15572
0.109507
0.0983376
0.0943121
0.0914371
0.0882244
0.085914
0.086609
0.0943466
0.110642
0.133497
0.160442
0.189668
0.220216
0.251604
0.283227
0.315501
0.346905
0.377501
0.408131
0.437323
0.466405
0.49088
0.512205
0.525185
0.538371
0.523499
0.439884
0.155445
1.79868
1.86618
1.86749
1.60507
1.20184
0.958177
0.793552
0.630285
0.499588
0.385026
0.262187
0.137246
0.0694781
0.0553873
0.0526233
0.0512248
0.0492449
0.0478084
0.0501404
0.0624993
0.0851087
0.113395
0.144241
0.176216
0.208751
0.241632
0.274315
0.307608
0.339534
0.370755
0.401645
0.431346
0.460363
0.485054
0.505742
0.518246
0.532387
0.518791
0.435062
0.13978
)
;

boundaryField
{
    inlet
    {
        type            calculated;
        value           uniform 0;
    }
    outlet
    {
        type            calculated;
        value           nonuniform List<scalar> 
165
(
1.79868
1.51189
1.15304
0.740908
0.711574
0.790948
0.780344
0.754781
0.731316
0.713833
0.698719
0.686564
0.679691
0.681376
0.684954
0.687326
0.691414
0.725529
1.64565
2.49932
2.49932
1.64991
0.744352
0.668427
0.640776
0.596197
0.561106
0.520223
0.483865
0.445935
0.40982
0.37452
0.34121
0.309388
0.279823
0.252696
0.22839
0.207814
0.19303
0.186318
0.184763
0.188304
0.20044
0.219663
0.243368
0.268673
0.299439
0.328716
0.361664
0.393814
0.426992
0.459026
0.490609
0.520939
0.550056
0.577708
0.601781
0.67345
1.52399
2.46379
0.13978
0.155445
0.178274
0.20555
0.236141
0.26645
0.300388
0.332484
0.366758
0.399818
0.432821
0.464722
0.495635
0.525037
0.552645
0.577942
0.599369
0.669059
1.57135
2.46379
0.129482
0.126977
0.127871
0.126977
0.129482
2.46379
1.57135
0.669059
0.599369
0.577942
0.552645
0.525037
0.495635
0.464722
0.432821
0.399818
0.366758
0.332484
0.300388
0.26645
0.236141
0.20555
0.178274
0.155445
0.13978
2.49932
1.64991
0.744352
0.668427
0.640776
0.596197
0.561106
0.520223
0.483865
0.445935
0.40982
0.37452
0.34121
0.309388
0.279823
0.252696
0.22839
0.207814
0.19303
0.186318
0.184763
0.188304
0.20044
0.219663
0.243368
0.268673
0.299439
0.328716
0.361664
0.393814
0.426992
0.459026
0.490609
0.520939
0.550056
0.577708
0.601781
0.67345
1.52399
2.46379
2.49932
1.64565
0.725529
0.691414
0.687326
0.684954
0.681376
0.679691
0.686564
0.698719
0.713833
0.731316
0.754781
0.780344
0.790948
0.711574
0.740908
1.15304
1.51189
1.79868
)
;
    }
    obstacle
    {
        type            calculated;
        value           nonuniform List<scalar> 
40
(
0.746326
0.0646047
0.0929533
0.0892548
0.092032
0.0939384
0.0956766
0.0979397
0.0986092
0.0895906
0.746326
0.0646047
0.0929533
0.0892548
0.092032
0.0939384
0.0956766
0.0979397
0.0986092
0.0895906
0.0971895
0.134581
0.187111
0.273939
0.419188
0.0971895
0.134581
0.187111
0.273939
0.419188
0.935685
1.34892
1.69958
1.80784
1.71344
0.935685
1.34892
1.69958
1.80784
1.71344
)
;
    }
    empty
    {
        type            empty;
    }
}


// ************************************************************************* //
