/*--------------------------------*- C++ -*----------------------------------*\
| =========                 |                                                 |
| \\      /  F ield         | OpenFOAM: The Open Source CFD Toolbox           |
|  \\    /   O peration     | Version:  v1912                                 |
|   \\  /    A nd           | Website:  www.openfoam.com                      |
|    \\/     M anipulation  |                                                 |
\*---------------------------------------------------------------------------*/
FoamFile
{
    version     2.0;
    format      ascii;
    class       volScalarField;
    location    "6.24";
    object      p;
}
// * * * * * * * * * * * * * * * * * * * * * * * * * * * * * * * * * * * * * //

dimensions      [1 -1 -2 0 0 0 0];


internalField   nonuniform List<scalar> 
1900
(
31385.6
9572.94
8762.46
8729.35
8691
8682.54
8687.78
8704.72
8715.05
8722.99
31385.5
9572.86
8762.42
8729.39
8691.69
8683.35
8688.87
8704.48
8725.09
8728.38
31385.5
9572.83
8762.46
8729.58
8692.23
8683.81
8688.32
8702.19
8716.95
8715.79
31385.5
9572.86
8762.42
8729.39
8691.69
8683.35
8688.87
8704.48
8725.09
8728.38
31385.6
9572.94
8762.46
8729.35
8691
8682.54
8687.78
8704.72
8715.05
8722.99
8848.78
8689.52
8622.4
8441.52
8683.82
8714.76
8605.93
8541.99
8361.2
8234.83
8680.61
8586.58
8525.58
8380.05
8263.94
8714.76
8605.93
8541.99
8361.2
8234.83
8848.78
8689.52
8622.4
8441.52
8683.82
3636.68
2079.11
1348.69
1149.1
1171.77
4101.32
2296.53
1472.87
1222.44
1248.75
4212.92
2256.72
1427.6
1181.73
1212.07
4101.32
2296.53
1472.87
1222.44
1248.75
3636.68
2079.11
1348.69
1149.1
1171.77
975.795
686.86
525.294
617.359
1118.04
1413.09
1473.74
1481.26
1396.89
1238.46
1027.28
823.394
698.106
638.32
600.301
567.645
538.562
513.713
496.279
486.032
480.193
476.258
473.016
470.181
467.823
466.171
465.224
465.235
466.32
468.48
471.164
475.233
479.626
487.679
497.866
514.562
529.599
565.456
659.883
660.347
1101.64
729.097
508.892
573.488
1108.11
1448.51
1513.33
1515.04
1415.85
1247.91
1032.34
825.634
698.824
638.556
600.447
567.744
538.742
513.757
496.272
486.013
480.176
476.243
473.003
470.168
467.808
466.154
465.205
465.214
466.298
468.46
471.142
475.214
479.596
487.677
497.853
514.602
529.593
565.368
659.671
659.621
1070.27
710.273
507.055
559.074
1095.09
1449.72
1508.12
1507.75
1412.11
1247.3
1033.72
826.797
699.183
638.652
600.523
567.783
538.796
513.781
496.273
486.008
480.171
476.24
473
470.165
467.803
466.148
465.198
465.206
466.289
468.451
471.132
475.205
479.583
487.673
497.851
514.62
529.583
565.391
659.593
659.447
1101.64
729.097
508.892
573.488
1108.11
1448.51
1513.33
1515.04
1415.85
1247.91
1032.34
825.634
698.824
638.556
600.447
567.744
538.742
513.757
496.272
486.013
480.176
476.243
473.003
470.168
467.808
466.154
465.205
465.214
466.298
468.46
471.142
475.214
479.596
487.677
497.853
514.602
529.593
565.368
659.671
659.621
975.795
686.86
525.294
617.359
1118.04
1413.09
1473.74
1481.26
1396.89
1238.46
1027.28
823.394
698.106
638.32
600.301
567.645
538.562
513.713
496.279
486.032
480.193
476.258
473.016
470.181
467.823
466.171
465.224
465.235
466.32
468.48
471.164
475.233
479.626
487.679
497.866
514.562
529.599
565.456
659.883
660.347
956.068
796.676
757.492
833.416
1155.02
1360.03
1433.68
1439.49
1358.05
1208.77
1007.75
813.278
694.301
637.053
599.642
566.924
537.751
513.376
496.247
486.092
480.257
476.31
473.06
470.229
467.879
466.239
465.297
465.314
466.403
468.556
471.243
475.299
479.725
487.66
497.859
514.345
529.659
565.792
660.198
661.684
987.057
897.845
906.548
1004.06
1171.97
1283.49
1323.97
1325.41
1267.65
1140.16
957.956
785.974
684.537
633.962
597.778
564.957
536.004
512.529
496.12
486.241
480.435
476.458
473.191
470.366
468.039
466.426
465.501
465.534
466.63
468.77
471.46
475.496
479.969
487.712
497.764
513.888
529.939
567.054
661.92
663.111
947.654
898.467
958.205
1012.62
1088.4
1174.44
1239.58
1224.25
1169.74
1051.81
892.031
751.748
672.62
629.335
594.534
561.984
533.687
511.351
495.897
486.449
480.727
476.724
473.437
470.624
468.331
466.754
465.854
465.913
467.01
469.127
471.821
475.831
480.367
487.866
497.665
513.368
530.326
568.746
663.739
664.196
939.816
907.972
931.894
960.08
1025.55
1083.12
1124.93
1122.85
1068.72
958.403
824.142
718.805
660.64
623.468
590.063
558.242
531.022
510.054
495.697
486.766
481.169
477.152
473.85
471.054
468.8
467.263
466.396
466.483
467.569
469.651
472.342
476.324
480.908
488.169
497.631
512.972
530.771
570.618
666.026
665.953
905.596
911.883
888.067
895.702
928.542
999.217
1034.56
1023.25
966.314
868.345
764.035
691.061
648.55
616.278
584.413
553.865
528.172
508.8
495.624
487.267
481.826
477.813
474.503
471.729
469.515
468.018
467.185
467.289
468.343
470.37
473.038
476.975
481.575
488.608
497.721
512.769
531.185
572.331
668.038
667.504
841.75
846.314
803.401
830.894
870.773
932.842
949.561
929.237
872.067
791.271
717.295
669.293
637.412
608.766
578.418
549.457
525.591
507.896
495.911
488.128
482.856
478.86
475.55
472.801
470.627
469.167
468.363
468.464
469.473
471.427
474.054
477.937
482.527
489.366
498.178
513.015
532.023
574.28
670.437
669.325
796.073
801.519
754.038
781.735
832.498
868.584
870.996
845.202
792.322
731.878
683.374
651.547
626.544
600.459
571.829
544.951
523.258
507.38
496.588
489.364
484.273
480.31
477.01
474.285
472.144
470.711
469.917
469.977
470.908
472.753
475.297
479.087
483.616
490.259
498.797
513.442
532.979
576.035
672.157
670.844
770.864
775.82
722.131
741.533
798.945
806.406
801.343
773.086
729.429
689.294
658.952
637.451
617.013
592.722
565.851
541.247
521.766
507.736
498.04
491.329
486.41
482.485
479.196
476.49
474.369
472.95
472.138
472.121
472.949
474.656
477.081
480.747
485.18
491.637
499.965
514.435
534.741
578.282
674.561
673.222
758.909
759.102
699.743
709.467
759.749
752.717
741.125
715.307
684.64
660.744
641.65
625.931
607.84
584.874
560.047
538.042
520.905
508.553
499.898
493.669
488.93
485.063
481.799
479.12
477.025
475.617
474.756
474.646
475.361
476.917
479.197
482.722
487.037
493.334
501.499
515.762
536.742
580.76
677.006
675.763
753.262
746.628
681.764
685.142
715.187
705.969
691.6
673.287
655.047
641.228
629.101
616.759
599.78
578
555.348
535.99
521.257
510.465
502.734
496.937
492.368
488.557
485.312
482.645
480.549
479.109
478.168
477.947
478.501
479.884
481.999
485.36
489.55
495.701
503.769
517.809
539.47
584.128
680.342
679.333
747.955
735.593
665.431
661.723
671.545
666.001
656.128
647.049
636.805
628.493
619.834
608.616
592.04
571.711
551.595
534.87
522.14
512.746
505.792
500.375
495.986
492.273
489.101
486.5
484.449
483.014
482.034
481.743
482.152
483.385
485.36
488.593
492.691
498.765
506.818
520.715
543.094
588.546
684.668
683.831
739.21
724.329
648.697
636.287
640.687
639.387
635.766
631.189
625.199
620.308
613.554
602.536
586.083
567.087
549.715
535.614
524.666
516.482
510.188
505.105
500.878
497.242
494.111
491.535
489.485
488.02
486.979
486.603
486.851
487.926
489.769
492.88
496.918
502.949
511.065
524.905
547.992
594.3
689.989
689.768
732.457
716.154
634.733
615.728
625.632
626.359
625.32
622.951
619.154
615.378
608.795
597.272
581.243
564.299
549.397
537.326
527.957
520.699
514.884
510.043
505.986
502.523
499.566
497.135
495.175
493.743
492.682
492.239
492.34
493.293
495.034
498.077
502.115
508.198
516.48
530.408
554.31
601.503
696.394
696.52
731.534
714.562
628.494
606.978
618.823
619.926
620.446
619.574
617.376
613.896
606.294
594.113
579.262
564.998
552.557
542.579
534.813
528.626
523.488
519.027
515.125
511.631
508.514
505.865
503.675
502.042
500.783
500.153
500.036
500.861
502.49
505.459
509.53
515.701
524.208
538.398
563.161
610.978
704.248
705.163
733.016
715.202
627.268
605.394
619.082
620.455
622.012
621.312
619.266
614.733
606.005
594.231
581.253
569.165
559.02
550.994
544.639
539.363
534.718
530.464
526.666
523.236
520.081
517.252
514.79
512.877
511.341
510.488
510.184
510.901
512.467
515.494
519.753
526.211
535.162
549.92
575.741
623.85
714.257
715.213
739.707
722.25
635.258
613.176
628.365
629.921
631.829
630.784
628.081
622.261
613.098
602.153
590.851
580.91
572.645
566.063
560.727
556.204
552.146
548.293
544.612
540.999
537.523
534.404
531.732
529.726
528.116
527.256
526.88
527.41
528.869
531.903
536.349
543.185
552.759
568.46
595.5
643.193
728.463
728.515
752.534
739.383
660.143
637.204
652.487
652.276
652.798
649.725
644.787
637.269
627.418
616.905
606.546
597.47
589.632
582.97
577.18
572.055
567.487
563.426
559.972
557.034
554.568
552.596
550.98
549.946
549.124
549.2
549.71
551.182
553.617
557.612
563.119
571.017
581.794
598.841
626.304
670.759
746.774
740.429
769.212
757.754
700.819
676.485
690.557
686.804
684.04
677.171
668.925
659.534
649.148
639.553
630.866
623.612
617.299
611.757
606.796
602.408
598.583
595.404
593.196
591.89
591.25
591.117
591.248
591.779
592.227
593.334
594.622
597.02
600.531
605.667
612.4
621.262
632.554
649.192
673.557
708.424
758.02
729.816
1652.47
726.391
741.342
732.708
740.755
735.358
730.745
723.564
715.765
708.704
701.607
695.771
690.844
687.126
684.232
682.12
680.613
679.606
678.935
678.56
678.913
679.857
680.973
682.15
683.475
685.314
686.542
688.676
690.504
693.351
696.999
701.883
708.024
715.491
724.011
735.918
750.597
760.462
706.226
1391.39
28372.1
1419.23
672.838
686.449
688.983
685.095
680.997
677.341
672.664
670.076
667.697
666.734
666.564
667.419
668.843
670.725
672.698
674.443
675.859
677.012
678.366
679.864
681.195
682.302
683.29
684.645
685.869
688.089
690.197
693.368
697.293
702.818
709.409
717.999
726.928
738.648
747.521
733.105
1326.42
23986.6
28372.1
1419.23
672.838
686.449
688.983
685.095
680.997
677.341
672.664
670.076
667.697
666.734
666.564
667.419
668.843
670.725
672.698
674.443
675.859
677.012
678.366
679.864
681.195
682.302
683.29
684.645
685.869
688.089
690.197
693.368
697.293
702.818
709.409
717.999
726.928
738.648
747.521
733.105
1326.42
23986.6
1652.47
726.391
741.342
732.708
740.755
735.358
730.745
723.564
715.765
708.704
701.607
695.771
690.844
687.126
684.232
682.12
680.613
679.606
678.935
678.56
678.913
679.857
680.973
682.15
683.475
685.314
686.542
688.676
690.504
693.351
696.999
701.883
708.024
715.491
724.011
735.918
750.597
760.462
706.226
1391.39
769.212
757.754
700.819
676.485
690.557
686.804
684.04
677.171
668.925
659.534
649.148
639.553
630.866
623.612
617.299
611.757
606.796
602.408
598.583
595.404
593.196
591.89
591.25
591.117
591.248
591.779
592.227
593.334
594.622
597.02
600.531
605.667
612.4
621.262
632.554
649.192
673.557
708.424
758.02
729.816
752.534
739.383
660.143
637.204
652.487
652.276
652.798
649.725
644.787
637.269
627.418
616.905
606.546
597.47
589.632
582.97
577.18
572.055
567.487
563.426
559.972
557.034
554.568
552.596
550.98
549.946
549.124
549.2
549.71
551.182
553.617
557.612
563.119
571.017
581.794
598.841
626.304
670.759
746.774
740.429
739.707
722.25
635.258
613.176
628.365
629.921
631.829
630.784
628.081
622.261
613.098
602.153
590.851
580.91
572.645
566.063
560.727
556.204
552.146
548.293
544.612
540.999
537.523
534.404
531.732
529.726
528.116
527.256
526.88
527.41
528.869
531.903
536.349
543.185
552.759
568.46
595.5
643.193
728.463
728.515
733.016
715.202
627.268
605.394
619.082
620.455
622.012
621.312
619.266
614.733
606.005
594.231
581.253
569.165
559.02
550.994
544.639
539.363
534.718
530.464
526.666
523.236
520.081
517.252
514.79
512.877
511.341
510.488
510.184
510.901
512.467
515.494
519.753
526.211
535.162
549.92
575.741
623.85
714.257
715.213
731.534
714.562
628.494
606.978
618.823
619.926
620.446
619.574
617.376
613.896
606.294
594.113
579.262
564.998
552.557
542.579
534.813
528.626
523.488
519.027
515.125
511.631
508.514
505.865
503.675
502.042
500.783
500.153
500.036
500.861
502.49
505.459
509.53
515.701
524.208
538.398
563.161
610.978
704.248
705.163
732.457
716.154
634.733
615.728
625.632
626.359
625.32
622.951
619.154
615.378
608.795
597.272
581.243
564.299
549.397
537.326
527.957
520.699
514.884
510.043
505.986
502.523
499.566
497.135
495.175
493.743
492.682
492.239
492.34
493.293
495.034
498.077
502.115
508.198
516.48
530.408
554.31
601.503
696.394
696.52
739.21
724.329
648.697
636.287
640.687
639.387
635.766
631.189
625.199
620.308
613.554
602.536
586.083
567.087
549.715
535.614
524.666
516.482
510.188
505.105
500.878
497.242
494.111
491.535
489.485
488.02
486.979
486.603
486.851
487.926
489.769
492.88
496.918
502.949
511.065
524.905
547.992
594.3
689.989
689.768
747.955
735.593
665.431
661.723
671.545
666.001
656.128
647.049
636.805
628.493
619.834
608.616
592.04
571.711
551.595
534.87
522.14
512.746
505.792
500.375
495.986
492.273
489.101
486.5
484.449
483.014
482.034
481.743
482.152
483.385
485.36
488.593
492.691
498.765
506.818
520.715
543.094
588.546
684.668
683.831
753.262
746.628
681.764
685.142
715.187
705.969
691.6
673.287
655.047
641.228
629.101
616.759
599.78
578
555.348
535.99
521.257
510.465
502.734
496.937
492.368
488.557
485.312
482.645
480.549
479.109
478.168
477.947
478.501
479.884
481.999
485.36
489.55
495.701
503.769
517.809
539.47
584.128
680.342
679.333
758.909
759.102
699.743
709.467
759.749
752.717
741.125
715.307
684.64
660.744
641.65
625.931
607.84
584.874
560.047
538.042
520.905
508.553
499.898
493.669
488.93
485.063
481.799
479.12
477.025
475.617
474.756
474.646
475.361
476.917
479.197
482.722
487.037
493.334
501.499
515.762
536.742
580.76
677.006
675.763
770.864
775.82
722.131
741.533
798.945
806.406
801.343
773.086
729.429
689.294
658.952
637.451
617.013
592.722
565.851
541.247
521.766
507.736
498.04
491.329
486.41
482.485
479.196
476.49
474.369
472.95
472.138
472.121
472.949
474.656
477.081
480.747
485.18
491.637
499.965
514.435
534.741
578.282
674.561
673.222
796.073
801.519
754.038
781.735
832.498
868.584
870.996
845.202
792.322
731.878
683.374
651.547
626.544
600.459
571.829
544.951
523.258
507.38
496.588
489.364
484.273
480.31
477.01
474.285
472.144
470.711
469.917
469.977
470.908
472.753
475.297
479.087
483.616
490.259
498.797
513.442
532.979
576.035
672.157
670.844
841.75
846.314
803.401
830.894
870.773
932.842
949.561
929.237
872.067
791.271
717.295
669.293
637.412
608.766
578.418
549.457
525.591
507.896
495.911
488.128
482.856
478.86
475.55
472.801
470.627
469.167
468.363
468.464
469.473
471.427
474.054
477.937
482.527
489.366
498.178
513.015
532.023
574.28
670.437
669.325
905.596
911.883
888.067
895.702
928.542
999.217
1034.56
1023.25
966.314
868.345
764.035
691.061
648.55
616.278
584.413
553.865
528.172
508.8
495.624
487.267
481.826
477.813
474.503
471.729
469.515
468.018
467.185
467.289
468.343
470.37
473.038
476.975
481.575
488.608
497.721
512.769
531.185
572.331
668.038
667.504
939.816
907.972
931.894
960.08
1025.55
1083.12
1124.93
1122.85
1068.72
958.403
824.142
718.805
660.64
623.468
590.063
558.242
531.022
510.054
495.697
486.766
481.169
477.152
473.85
471.054
468.8
467.263
466.396
466.483
467.569
469.651
472.342
476.324
480.908
488.169
497.631
512.972
530.771
570.618
666.026
665.953
947.654
898.467
958.205
1012.62
1088.4
1174.44
1239.58
1224.25
1169.74
1051.81
892.031
751.748
672.62
629.335
594.534
561.984
533.687
511.351
495.897
486.449
480.727
476.724
473.437
470.624
468.331
466.754
465.854
465.913
467.01
469.127
471.821
475.831
480.367
487.866
497.665
513.368
530.326
568.746
663.739
664.196
987.057
897.845
906.548
1004.06
1171.97
1283.49
1323.97
1325.41
1267.65
1140.16
957.956
785.974
684.537
633.962
597.778
564.957
536.004
512.529
496.12
486.241
480.435
476.458
473.191
470.366
468.039
466.426
465.501
465.534
466.63
468.77
471.46
475.496
479.969
487.712
497.764
513.888
529.939
567.054
661.92
663.111
956.068
796.676
757.492
833.416
1155.02
1360.03
1433.68
1439.49
1358.05
1208.77
1007.75
813.278
694.301
637.053
599.642
566.924
537.751
513.376
496.247
486.092
480.257
476.31
473.06
470.229
467.879
466.239
465.297
465.314
466.403
468.556
471.243
475.299
479.725
487.66
497.859
514.345
529.659
565.792
660.198
661.684
)
;

boundaryField
{
    inlet
    {
        type            fixedValue;
        value           uniform 10000;
    }
    outlet
    {
        type            fixedValue;
        value           uniform 1000;
    }
    obstacle
    {
        type            zeroGradient;
    }
    empty
    {
        type            empty;
    }
}


// ************************************************************************* //
