/*--------------------------------*- C++ -*----------------------------------*\
| =========                 |                                                 |
| \\      /  F ield         | OpenFOAM: The Open Source CFD Toolbox           |
|  \\    /   O peration     | Version:  v1912                                 |
|   \\  /    A nd           | Website:  www.openfoam.com                      |
|    \\/     M anipulation  |                                                 |
\*---------------------------------------------------------------------------*/
FoamFile
{
    version     2.0;
    format      ascii;
    class       volVectorField;
    location    "2.26";
    object      grad(T);
}
// * * * * * * * * * * * * * * * * * * * * * * * * * * * * * * * * * * * * * //

dimensions      [0 -1 0 1 0 0 0];


internalField   nonuniform List<vector> 
1900
(
(0.494503 -1.32457e-05 0)
(-0.301887 -1.30569e-05 0)
(0.0119738 -1.44984e-07 0)
(0.0125304 2.15833e-05 0)
(0.0122404 1.05868e-05 0)
(0.0129933 -4.6344e-05 0)
(0.0156959 -0.000314965 0)
(0.0177649 -0.00161476 0)
(0.0234552 -0.00278739 0)
(0.00779568 -0.00304125 0)
(0.494477 -2.29464e-05 0)
(-0.301874 -1.88398e-05 0)
(0.0120085 7.70164e-06 0)
(0.0125412 4.45508e-05 0)
(0.0121725 -4.35846e-06 0)
(0.0126677 -0.000121083 0)
(0.0141275 -0.000328441 0)
(0.0152925 -0.00132272 0)
(0.0220287 -0.00158602 0)
(0.0302699 -0.00438118 0)
(0.494462 -6.93889e-14 0)
(-0.301856 1.51788e-14 0)
(0.0120372 2.25514e-13 0)
(0.0125184 1.77809e-13 0)
(0.0120748 2.77556e-13 0)
(0.0126692 4.46691e-13 0)
(0.0144942 5.94143e-13 0)
(0.0165073 2.42861e-13 0)
(0.0203968 -4.18502e-13 0)
(0.026605 -3.14419e-13 0)
(0.494477 2.29464e-05 0)
(-0.301874 1.88398e-05 0)
(0.0120085 -7.70163e-06 0)
(0.0125412 -4.45508e-05 0)
(0.0121725 4.35847e-06 0)
(0.0126677 0.000121083 0)
(0.0141275 0.000328441 0)
(0.0152925 0.00132272 0)
(0.0220287 0.00158602 0)
(0.0302699 0.00438118 0)
(0.494503 1.32457e-05 0)
(-0.301887 1.30569e-05 0)
(0.0119738 1.44985e-07 0)
(0.0125304 -2.15833e-05 0)
(0.0122404 -1.05868e-05 0)
(0.0129933 4.6344e-05 0)
(0.0156959 0.000314965 0)
(0.0177649 0.00161476 0)
(0.0234552 0.00278739 0)
(0.00779568 0.00304125 0)
(0.0206815 0.016243 1.01038e-15)
(0.0639927 0.0186636 -1.23172e-15)
(0.0398768 0.0187885 -1.56609e-15)
(-0.212032 0.051661 0)
(-0.16676 0.358351 -6.53461e-15)
(0.0438004 0.0138201 1.01331e-15)
(0.0589365 0.012572 1.23172e-15)
(0.0536696 0.00644566 1.56609e-15)
(-0.0717555 0.0165349 0)
(-0.130211 0.275953 0)
(0.0456643 -1.66951e-13 0)
(0.058629 -8.79725e-14 0)
(0.0455533 1.02397e-13 0)
(-0.0726324 1.72487e-13 0)
(0.0259854 2.06515e-13 0)
(0.0438004 -0.0138201 1.01331e-15)
(0.0589365 -0.012572 1.23172e-15)
(0.0536696 -0.00644566 1.56609e-15)
(-0.0717555 -0.0165349 0)
(-0.130211 -0.275953 0)
(0.0206815 -0.016243 -3.037e-15)
(0.0639927 -0.0186636 -1.23172e-15)
(0.0398768 -0.0187885 -1.56609e-15)
(-0.212032 -0.051661 -4.27149e-15)
(-0.16676 -0.358351 6.53461e-15)
(0.193864 -0.131035 2.90597e-15)
(-0.152605 -0.0304196 -2.42411e-15)
(-0.220317 -0.0139861 0)
(-0.402342 0.13305 1.78975e-15)
(-0.785446 0.382031 -7.62575e-16)
(0.0651922 -0.158135 -1.45101e-15)
(-0.126367 -0.0373638 1.2116e-15)
(-0.159284 -0.0261322 0)
(-0.233923 0.144668 -1.12219e-15)
(-0.287664 0.448242 1.96895e-16)
(0.0984511 3.39498e-13 0)
(-0.122257 3.24334e-13 0)
(-0.151762 3.69432e-13 0)
(-0.209938 1.16215e-12 4.50618e-16)
(-0.289541 1.40439e-12 -3.9379e-16)
(0.0651922 0.158135 -1.45101e-15)
(-0.126367 0.0373638 1.2116e-15)
(-0.159284 0.0261322 0)
(-0.233923 -0.144668 -1.12219e-15)
(-0.287664 -0.448242 1.96895e-16)
(0.193864 0.131035 1.45101e-15)
(-0.152605 0.0304196 9.16138e-19)
(-0.220317 0.0139861 0)
(-0.402342 -0.13305 4.00703e-18)
(-0.785446 -0.382031 7.62575e-16)
(-0.770103 2.53883 0)
(-0.00276034 0.830452 0)
(0.277512 0.258776 0)
(0.0378546 0.0864694 0)
(-0.0212905 0.0400099 0)
(0.0153264 0.0186967 0)
(0.0436796 0.0111859 0)
(0.0593137 0.0127317 0)
(0.0721285 0.012967 0)
(0.0846117 0.0126745 0)
(0.0962084 0.013008 0)
(0.103836 0.0134823 0)
(0.108205 0.0141912 0)
(0.109592 0.0148203 0)
(0.108014 0.0150972 0)
(0.102348 0.0152949 0)
(0.0896028 0.0154424 0)
(0.0658663 0.0155029 0)
(0.0344107 0.0154162 0)
(0.00888324 0.0152254 0)
(-0.00995837 0.0151714 0)
(-0.0365857 0.0150753 0)
(-0.0687861 0.0148514 0)
(-0.0928899 0.0144622 0)
(-0.106025 0.0138978 0)
(-0.112441 0.0131738 0)
(-0.115525 0.0123178 0)
(-0.116844 0.0113637 0)
(-0.117012 0.0103495 0)
(-0.116208 0.00931559 0)
(-0.114308 0.00828069 0)
(-0.110956 0.00723023 0)
(-0.105935 0.00619577 0)
(-0.0996749 0.00520125 0)
(-0.0922582 0.00429029 0)
(-0.0789497 0.00345528 0)
(-0.0658963 0.00287391 0)
(-0.284211 0.00212422 0)
(-0.65458 0.00126822 0)
(-0.401403 0.000126333 0)
(-0.646168 1.48682 0)
(-0.361353 0.918979 0)
(0.123521 0.321888 0)
(-0.0144408 0.0541803 0)
(-0.0278065 0.0163991 0)
(0.0123 0.00849838 0)
(0.0428602 0.00372457 0)
(0.0595039 0.00450002 0)
(0.0720579 0.00438584 0)
(0.0845847 0.00419546 0)
(0.096256 0.00422398 0)
(0.103927 0.00429364 0)
(0.108291 0.00438344 0)
(0.109534 0.00431372 0)
(0.107857 0.00391399 0)
(0.102217 0.00366191 0)
(0.0894876 0.00349099 0)
(0.0657547 0.00337202 0)
(0.0343113 0.00325293 0)
(0.00883126 0.00313114 0)
(-0.00997472 0.00310277 0)
(-0.0366101 0.00307579 0)
(-0.0688372 0.0030099 0)
(-0.0929765 0.00288255 0)
(-0.106147 0.00268445 0)
(-0.112589 0.00242406 0)
(-0.115687 0.00211776 0)
(-0.117004 0.00178456 0)
(-0.117154 0.00144286 0)
(-0.116323 0.00110818 0)
(-0.114409 0.000802163 0)
(-0.111055 0.000522328 0)
(-0.106026 0.000281073 0)
(-0.0997533 8.39136e-05 0)
(-0.0923205 -7.92733e-05 0)
(-0.0789899 -0.000206854 0)
(-0.065921 -0.000271285 0)
(-0.284224 -0.000317433 0)
(-0.654538 -0.000316474 0)
(-0.40136 -7.04563e-05 0)
(-0.55959 1.4548e-12 0)
(-0.34165 6.34751e-13 0)
(0.0259342 6.30809e-14 0)
(-0.051015 -2.60209e-13 0)
(-0.0345798 -3.94255e-15 0)
(0.0116392 1.02506e-13 0)
(0.0425164 -9.06787e-14 0)
(0.059506 -2.36553e-13 0)
(0.0720399 8.27936e-14 0)
(0.0845646 4.33681e-13 0)
(0.096237 2.87806e-13 0)
(0.103882 -2.31822e-12 0)
(0.108211 -1.26477e-11 0)
(0.109456 -3.19662e-11 0)
(0.107824 -1.74497e-11 0)
(0.102225 5.65638e-11 0)
(0.0895185 4.00232e-10 0)
(0.065797 3.6907e-10 0)
(0.0343407 1.50363e-09 0)
(0.00883956 4.69605e-10 0)
(-0.00997447 4.66499e-10 0)
(-0.0366127 -1.36454e-09 0)
(-0.0688423 -5.72171e-10 0)
(-0.0929846 2.99146e-09 0)
(-0.106158 2.94572e-09 0)
(-0.112606 3.46726e-09 0)
(-0.115711 2.60069e-09 0)
(-0.11704 1.63398e-09 0)
(-0.117209 4.93371e-10 0)
(-0.116394 -7.28091e-10 0)
(-0.114478 -1.38516e-09 0)
(-0.111108 -2.24042e-09 0)
(-0.106063 -2.34207e-09 0)
(-0.0997797 -2.28866e-09 0)
(-0.0923428 -1.85677e-09 0)
(-0.0790056 -1.37472e-09 0)
(-0.0659285 -5.73677e-10 0)
(-0.284224 -9.04303e-11 0)
(-0.654508 -1.44408e-10 0)
(-0.401332 -2.45696e-10 0)
(-0.646168 -1.48682 0)
(-0.361353 -0.918979 0)
(0.123521 -0.321888 0)
(-0.0144408 -0.0541803 0)
(-0.0278065 -0.0163991 0)
(0.0123 -0.00849838 0)
(0.0428602 -0.00372457 0)
(0.0595039 -0.00450002 0)
(0.0720579 -0.00438584 0)
(0.0845847 -0.00419546 0)
(0.096256 -0.00422398 0)
(0.103927 -0.00429364 0)
(0.108291 -0.00438344 0)
(0.109534 -0.00431372 0)
(0.107857 -0.00391399 0)
(0.102217 -0.00366191 0)
(0.0894876 -0.00349098 0)
(0.0657547 -0.00337202 0)
(0.0343113 -0.00325292 0)
(0.00883126 -0.00313114 0)
(-0.00997472 -0.00310277 0)
(-0.0366101 -0.00307579 0)
(-0.0688372 -0.0030099 0)
(-0.0929765 -0.00288254 0)
(-0.106147 -0.00268444 0)
(-0.112589 -0.00242406 0)
(-0.115687 -0.00211776 0)
(-0.117004 -0.00178456 0)
(-0.117154 -0.00144286 0)
(-0.116323 -0.00110818 0)
(-0.114409 -0.000802165 0)
(-0.111055 -0.000522331 0)
(-0.106026 -0.000281076 0)
(-0.0997533 -8.39169e-05 0)
(-0.0923205 7.92707e-05 0)
(-0.0789899 0.000206852 0)
(-0.065921 0.000271285 0)
(-0.284224 0.000317432 0)
(-0.654538 0.000316473 0)
(-0.40136 7.04559e-05 0)
(-0.770103 -2.53883 0)
(-0.00276034 -0.830452 0)
(0.277512 -0.258776 0)
(0.0378546 -0.0864694 0)
(-0.0212905 -0.0400099 0)
(0.0153264 -0.0186967 0)
(0.0436796 -0.0111859 0)
(0.0593137 -0.0127317 0)
(0.0721285 -0.012967 0)
(0.0846117 -0.0126745 0)
(0.0962084 -0.013008 0)
(0.103836 -0.0134823 0)
(0.108205 -0.0141912 0)
(0.109592 -0.0148203 0)
(0.108014 -0.0150972 0)
(0.102348 -0.0152949 0)
(0.0896028 -0.0154424 0)
(0.0658663 -0.0155029 0)
(0.0344107 -0.0154162 0)
(0.00888324 -0.0152254 0)
(-0.00995837 -0.0151714 0)
(-0.0365857 -0.0150753 0)
(-0.0687861 -0.0148514 0)
(-0.0928899 -0.0144622 0)
(-0.106025 -0.0138978 0)
(-0.112441 -0.0131738 0)
(-0.115525 -0.0123178 0)
(-0.116844 -0.0113637 0)
(-0.117012 -0.0103495 0)
(-0.116208 -0.00931559 0)
(-0.114308 -0.00828069 0)
(-0.110956 -0.00723023 0)
(-0.105935 -0.00619577 0)
(-0.0996749 -0.00520125 0)
(-0.0922582 -0.00429029 0)
(-0.0789497 -0.00345528 0)
(-0.0658963 -0.00287391 0)
(-0.284211 -0.00212422 0)
(-0.65458 -0.00126822 0)
(-0.401403 -0.000126333 0)
(0.303969 -1.38048 0)
(0.654238 -0.276649 0)
(0.41215 -0.109296 0)
(0.0623187 -0.116399 0)
(0.00717134 -0.0597044 0)
(0.0268813 -0.0320318 0)
(0.0456545 -0.024883 0)
(0.0586067 -0.024813 0)
(0.0720122 -0.0251027 0)
(0.0845278 -0.0243888 0)
(0.0958042 -0.0247776 0)
(0.103291 -0.0254301 0)
(0.107551 -0.026414 0)
(0.108898 -0.0275056 0)
(0.107378 -0.0286566 0)
(0.101849 -0.0296576 0)
(0.0892238 -0.0304873 0)
(0.0656421 -0.0310497 0)
(0.0343705 -0.0312828 0)
(0.00892469 -0.0312469 0)
(-0.0098995 -0.0312109 0)
(-0.0364377 -0.0310418 0)
(-0.0685117 -0.0306549 0)
(-0.0924785 -0.0300321 0)
(-0.105479 -0.0291866 0)
(-0.11177 -0.0281342 0)
(-0.114739 -0.026892 0)
(-0.115954 -0.0254785 0)
(-0.116033 -0.0239143 0)
(-0.115158 -0.022222 0)
(-0.113219 -0.0204313 0)
(-0.109862 -0.0185876 0)
(-0.104859 -0.0167273 0)
(-0.0986488 -0.0148779 0)
(-0.0912973 -0.0131118 0)
(-0.0781478 -0.0113985 0)
(-0.0651145 -0.0100816 0)
(-0.283232 -0.00821906 0)
(-0.653237 -0.00577661 0)
(-0.400593 -0.00100814 0)
(0.557379 -0.27314 0)
(0.869895 -0.00295531 0)
(0.359738 -0.0853668 0)
(0.0725241 -0.104454 0)
(0.0447462 -0.0706904 0)
(0.0426854 -0.0528329 0)
(0.0495769 -0.0491016 0)
(0.059481 -0.0473515 0)
(0.0725996 -0.0473032 0)
(0.0849699 -0.0464852 0)
(0.0954217 -0.0470041 0)
(0.102551 -0.048001 0)
(0.106556 -0.0493733 0)
(0.107804 -0.0508747 0)
(0.106281 -0.0523726 0)
(0.100851 -0.0537685 0)
(0.0884646 -0.0549453 0)
(0.0652199 -0.0557693 0)
(0.0342423 -0.0561486 0)
(0.00893029 -0.0561962 0)
(-0.00979236 -0.0561551 0)
(-0.0361293 -0.0558638 0)
(-0.0679602 -0.0552293 0)
(-0.0916956 -0.0542968 0)
(-0.104489 -0.0531282 0)
(-0.11059 -0.0517531 0)
(-0.113388 -0.0501902 0)
(-0.114451 -0.048455 0)
(-0.114399 -0.0465622 0)
(-0.113414 -0.0445267 0)
(-0.11139 -0.0423646 0)
(-0.107974 -0.0400936 0)
(-0.102938 -0.0377406 0)
(-0.0967411 -0.0353318 0)
(-0.0894206 -0.0329477 0)
(-0.0764597 -0.0305358 0)
(-0.0632517 -0.0282749 0)
(-0.280587 -0.0250597 0)
(-0.648351 -0.0199549 0)
(-0.397242 -0.00646354 0)
(0.564329 0.0105683 0)
(0.835184 -0.0244279 0)
(0.314342 -0.0877762 0)
(0.0764614 -0.0916346 0)
(0.0569153 -0.0882233 0)
(0.047685 -0.0813098 0)
(0.0509365 -0.079532 0)
(0.0603397 -0.076625 0)
(0.0728471 -0.0756737 0)
(0.084816 -0.0749433 0)
(0.0943436 -0.0752463 0)
(0.101008 -0.0762772 0)
(0.104781 -0.0777601 0)
(0.106007 -0.0794384 0)
(0.10459 -0.0811444 0)
(0.0993695 -0.082752 0)
(0.0872958 -0.0841558 0)
(0.0644826 -0.085238 0)
(0.0339591 -0.0858645 0)
(0.00891839 -0.0860402 0)
(-0.00957916 -0.0859905 0)
(-0.0355455 -0.0855212 0)
(-0.0670017 -0.0845691 0)
(-0.0904538 -0.0833052 0)
(-0.103028 -0.0818564 0)
(-0.108939 -0.0802607 0)
(-0.111561 -0.0785312 0)
(-0.112458 -0.0766759 0)
(-0.112248 -0.0747003 0)
(-0.111113 -0.0726079 0)
(-0.108947 -0.0704022 0)
(-0.105406 -0.0680918 0)
(-0.10027 -0.0657025 0)
(-0.0940302 -0.0632732 0)
(-0.0866757 -0.0608499 0)
(-0.0736449 -0.0583563 0)
(-0.0598375 -0.0551903 0)
(-0.275215 -0.0516749 0)
(-0.635317 -0.0441929 0)
(-0.387593 -0.0222408 0)
(0.523656 0.0114866 0)
(0.775127 -0.0712451 0)
(0.294975 -0.0973133 0)
(0.0720932 -0.104366 0)
(0.0546956 -0.110036 0)
(0.0510606 -0.105341 0)
(0.0540913 -0.101599 0)
(0.063199 -0.0976837 0)
(0.0742202 -0.0951116 0)
(0.0853818 -0.0936647 0)
(0.0941363 -0.0931503 0)
(0.100128 -0.0935329 0)
(0.10351 -0.0945134 0)
(0.104543 -0.095835 0)
(0.103088 -0.0972984 0)
(0.0979492 -0.0987601 0)
(0.086069 -0.100115 0)
(0.0635733 -0.101272 0)
(0.0334692 -0.102099 0)
(0.00880893 -0.102449 0)
(-0.00929221 -0.102406 0)
(-0.0347596 -0.101778 0)
(-0.0658247 -0.100582 0)
(-0.0890815 -0.0991388 0)
(-0.101555 -0.0976261 0)
(-0.107386 -0.0960711 0)
(-0.109933 -0.0944739 0)
(-0.11076 -0.0928355 0)
(-0.110479 -0.0911569 0)
(-0.109272 -0.089438 0)
(-0.107038 -0.0876795 0)
(-0.103445 -0.0858963 0)
(-0.0982942 -0.0841245 0)
(-0.092065 -0.082426 0)
(-0.0846825 -0.0807245 0)
(-0.0710058 -0.0789097 0)
(-0.0568132 -0.0756015 0)
(-0.26999 -0.0738682 0)
(-0.619987 -0.0654414 0)
(-0.376088 -0.0460046 0)
(0.484606 -0.00490322 0)
(0.73034 -0.105818 0)
(0.282426 -0.111151 0)
(0.0642013 -0.118425 0)
(0.0559759 -0.119573 0)
(0.0558151 -0.117267 0)
(0.0583149 -0.11287 0)
(0.0665914 -0.108963 0)
(0.0767199 -0.105592 0)
(0.086706 -0.103511 0)
(0.0944706 -0.102586 0)
(0.0996947 -0.102609 0)
(0.102563 -0.103306 0)
(0.103324 -0.104396 0)
(0.101771 -0.105665 0)
(0.0966552 -0.106966 0)
(0.0848757 -0.108224 0)
(0.062571 -0.109418 0)
(0.0328244 -0.11043 0)
(0.00862244 -0.11095 0)
(-0.00893299 -0.110914 0)
(-0.0337879 -0.110141 0)
(-0.064458 -0.108724 0)
(-0.0876053 -0.10713 0)
(-0.100072 -0.105569 0)
(-0.105901 -0.104043 0)
(-0.108443 -0.102534 0)
(-0.109262 -0.101036 0)
(-0.108974 -0.099547 0)
(-0.107762 -0.0980659 0)
(-0.105534 -0.0966019 0)
(-0.10198 -0.0951771 0)
(-0.0969263 -0.0938567 0)
(-0.0907538 -0.0927024 0)
(-0.0832874 -0.0914428 0)
(-0.0687082 -0.0899765 0)
(-0.0549793 -0.0870919 0)
(-0.265424 -0.0875193 0)
(-0.608467 -0.0771829 0)
(-0.368863 -0.0676214 0)
(0.426411 -0.0441968 0)
(0.672743 -0.115861 0)
(0.282827 -0.119344 0)
(0.0639779 -0.11968 0)
(0.055811 -0.120039 0)
(0.0575193 -0.120809 0)
(0.0620939 -0.117326 0)
(0.0702128 -0.11355 0)
(0.0794734 -0.110209 0)
(0.088278 -0.108016 0)
(0.0950058 -0.107 0)
(0.0994343 -0.106927 0)
(0.101787 -0.107499 0)
(0.10227 -0.108433 0)
(0.100612 -0.109524 0)
(0.0954829 -0.110661 0)
(0.0837054 -0.111832 0)
(0.0614475 -0.113093 0)
(0.0319936 -0.114322 0)
(0.00834323 -0.115024 0)
(-0.00851256 -0.114998 0)
(-0.0326495 -0.114096 0)
(-0.0629234 -0.112479 0)
(-0.086041 -0.11075 0)
(-0.0985798 -0.109146 0)
(-0.104461 -0.107638 0)
(-0.107036 -0.106185 0)
(-0.107881 -0.104773 0)
(-0.107617 -0.103392 0)
(-0.106434 -0.102048 0)
(-0.104254 -0.100734 0)
(-0.1008 -0.0995295 0)
(-0.0959095 -0.0984503 0)
(-0.0897388 -0.0976002 0)
(-0.0820558 -0.0964338 0)
(-0.0668132 -0.0950399 0)
(-0.0544453 -0.0930364 0)
(-0.260441 -0.0950233 0)
(-0.600813 -0.0814286 0)
(-0.366875 -0.0802787 0)
(0.415548 -0.0742662 0)
(0.657925 -0.106077 0)
(0.278745 -0.117812 0)
(0.063532 -0.118862 0)
(0.0548882 -0.119708 0)
(0.0584287 -0.120912 0)
(0.0653102 -0.118207 0)
(0.0734502 -0.114998 0)
(0.0820522 -0.111905 0)
(0.089798 -0.10992 0)
(0.0955208 -0.108972 0)
(0.0992135 -0.108925 0)
(0.101112 -0.109412 0)
(0.101372 -0.110192 0)
(0.099623 -0.111099 0)
(0.0944311 -0.112085 0)
(0.0825322 -0.113207 0)
(0.060172 -0.114582 0)
(0.0309643 -0.11605 0)
(0.00797081 -0.116925 0)
(-0.00803921 -0.11691 0)
(-0.0313601 -0.115897 0)
(-0.0612332 -0.114094 0)
(-0.0843937 -0.112237 0)
(-0.0970734 -0.110593 0)
(-0.103048 -0.109096 0)
(-0.105682 -0.107684 0)
(-0.10657 -0.106327 0)
(-0.106348 -0.105022 0)
(-0.105201 -0.103741 0)
(-0.103107 -0.102556 0)
(-0.0997797 -0.101429 0)
(-0.0950671 -0.100549 0)
(-0.0888106 -0.0998306 0)
(-0.0808202 -0.0985932 0)
(-0.0654343 -0.0973123 0)
(-0.0549633 -0.0963366 0)
(-0.254238 -0.0990932 0)
(-0.594258 -0.0821573 0)
(-0.367755 -0.0857143 0)
(0.395757 -0.0640922 0)
(0.63078 -0.0987529 0)
(0.270507 -0.115857 0)
(0.0621512 -0.117271 0)
(0.0538351 -0.118724 0)
(0.0589656 -0.119704 0)
(0.0677933 -0.117624 0)
(0.0762858 -0.114817 0)
(0.0843669 -0.112137 0)
(0.0911042 -0.110282 0)
(0.0959641 -0.109562 0)
(0.0990108 -0.109489 0)
(0.100567 -0.109886 0)
(0.100644 -0.110498 0)
(0.0987871 -0.111248 0)
(0.0934518 -0.112137 0)
(0.0812996 -0.113274 0)
(0.0587077 -0.114814 0)
(0.0297355 -0.116532 0)
(0.00751445 -0.117557 0)
(-0.00752196 -0.11755 0)
(-0.0299358 -0.116446 0)
(-0.0593971 -0.114471 0)
(-0.0826674 -0.112492 0)
(-0.0955529 -0.110809 0)
(-0.101658 -0.109323 0)
(-0.104367 -0.107943 0)
(-0.105315 -0.106637 0)
(-0.105124 -0.105366 0)
(-0.104059 -0.104191 0)
(-0.102027 -0.102984 0)
(-0.0988648 -0.102104 0)
(-0.094369 -0.101127 0)
(-0.0878545 -0.100662 0)
(-0.079629 -0.099279 0)
(-0.0646387 -0.0983057 0)
(-0.0561616 -0.098211 0)
(-0.246777 -0.101086 0)
(-0.58792 -0.0816494 0)
(-0.370302 -0.0854219 0)
(0.382148 -0.0708154 0)
(0.608043 -0.0943445 0)
(0.2609 -0.114856 0)
(0.0607688 -0.116275 0)
(0.0525438 -0.117862 0)
(0.0594893 -0.118275 0)
(0.0700188 -0.116151 0)
(0.0787372 -0.113808 0)
(0.0864228 -0.111095 0)
(0.0922791 -0.109746 0)
(0.0962851 -0.108955 0)
(0.0989013 -0.108947 0)
(0.100139 -0.109199 0)
(0.10006 -0.10969 0)
(0.0980436 -0.11034 0)
(0.092479 -0.111204 0)
(0.079953 -0.112419 0)
(0.0570326 -0.114159 0)
(0.0283212 -0.116118 0)
(0.00698973 -0.117258 0)
(-0.00696874 -0.117258 0)
(-0.0283927 -0.116082 0)
(-0.0574237 -0.11395 0)
(-0.0808647 -0.111853 0)
(-0.094019 -0.110131 0)
(-0.100287 -0.108655 0)
(-0.103094 -0.10731 0)
(-0.104087 -0.106035 0)
(-0.103991 -0.104854 0)
(-0.102905 -0.103642 0)
(-0.101095 -0.102699 0)
(-0.0979907 -0.101591 0)
(-0.0936782 -0.100987 0)
(-0.0870296 -0.100346 0)
(-0.0785493 -0.0991687 0)
(-0.0644052 -0.098565 0)
(-0.0576424 -0.0992192 0)
(-0.238279 -0.101741 0)
(-0.579164 -0.0811738 0)
(-0.37139 -0.0843638 0)
(0.373083 -0.073044 0)
(0.588341 -0.0898537 0)
(0.249374 -0.113593 0)
(0.0592546 -0.116286 0)
(0.051907 -0.117033 0)
(0.0606145 -0.116432 0)
(0.0720982 -0.11384 0)
(0.0811574 -0.11145 0)
(0.088281 -0.109368 0)
(0.0931667 -0.107893 0)
(0.0967342 -0.107451 0)
(0.098776 -0.107253 0)
(0.0998516 -0.107468 0)
(0.0995442 -0.107856 0)
(0.0973285 -0.108477 0)
(0.0914485 -0.109375 0)
(0.0784521 -0.110714 0)
(0.0551434 -0.112669 0)
(0.0267483 -0.114842 0)
(0.00641576 -0.116061 0)
(-0.00638791 -0.116063 0)
(-0.0267483 -0.114837 0)
(-0.055322 -0.112566 0)
(-0.0789871 -0.110354 0)
(-0.092471 -0.108595 0)
(-0.0989406 -0.107136 0)
(-0.101843 -0.105828 0)
(-0.102949 -0.104632 0)
(-0.102819 -0.103458 0)
(-0.101982 -0.102481 0)
(-0.10005 -0.101298 0)
(-0.0972144 -0.100675 0)
(-0.0931689 -0.099618 0)
(-0.0861027 -0.0991552 0)
(-0.0779129 -0.0982836 0)
(-0.0646874 -0.0978748 0)
(-0.0592218 -0.0992645 0)
(-0.229388 -0.101007 0)
(-0.571175 -0.0800026 0)
(-0.373376 -0.0810133 0)
(0.365949 -0.0763452 0)
(0.568969 -0.0872304 0)
(0.235429 -0.113483 0)
(0.0574543 -0.11723 0)
(0.0524025 -0.115957 0)
(0.0625655 -0.113383 0)
(0.07482 -0.110364 0)
(0.0830472 -0.108124 0)
(0.0898508 -0.1062 0)
(0.094126 -0.105345 0)
(0.0969013 -0.104641 0)
(0.098885 -0.104507 0)
(0.0995582 -0.104554 0)
(0.0990878 -0.104906 0)
(0.0965793 -0.105519 0)
(0.0903229 -0.106481 0)
(0.0767794 -0.107957 0)
(0.0530553 -0.110117 0)
(0.0250521 -0.112465 0)
(0.00581255 -0.113725 0)
(-0.00578928 -0.113728 0)
(-0.0250227 -0.112476 0)
(-0.053103 -0.110086 0)
(-0.0770378 -0.107764 0)
(-0.090918 -0.105979 0)
(-0.0976211 -0.104558 0)
(-0.100681 -0.103336 0)
(-0.101803 -0.102226 0)
(-0.101919 -0.101257 0)
(-0.100823 -0.100264 0)
(-0.0993546 -0.0995157 0)
(-0.0963719 -0.0985101 0)
(-0.0922137 -0.0977456 0)
(-0.0857438 -0.0972101 0)
(-0.0773154 -0.0963777 0)
(-0.0653505 -0.0968624 0)
(-0.0606605 -0.0987614 0)
(-0.219718 -0.099861 0)
(-0.559898 -0.0794821 0)
(-0.372364 -0.0776484 0)
(0.362594 -0.0774992 0)
(0.552554 -0.0831512 0)
(0.220465 -0.111094 0)
(0.0568705 -0.114841 0)
(0.0556144 -0.111585 0)
(0.0660039 -0.107734 0)
(0.0771657 -0.104614 0)
(0.0851705 -0.103077 0)
(0.0909593 -0.101581 0)
(0.0946691 -0.100914 0)
(0.0975414 -0.100381 0)
(0.0988599 -0.100192 0)
(0.0994674 -0.100237 0)
(0.0986145 -0.100546 0)
(0.095811 -0.101158 0)
(0.0890989 -0.102163 0)
(0.0749481 -0.10375 0)
(0.0507992 -0.106082 0)
(0.0232712 -0.108557 0)
(0.0051987 -0.109822 0)
(-0.00518377 -0.109824 0)
(-0.0232382 -0.108571 0)
(-0.0507817 -0.106089 0)
(-0.07503 -0.103675 0)
(-0.0893812 -0.101891 0)
(-0.0963939 -0.100553 0)
(-0.0995955 -0.0994581 0)
(-0.100946 -0.0985073 0)
(-0.100929 -0.0976489 0)
(-0.100304 -0.0968266 0)
(-0.0983601 -0.0960899 0)
(-0.0955087 -0.0951508 0)
(-0.0919162 -0.0944192 0)
(-0.0847845 -0.0932672 0)
(-0.0775779 -0.0929162 0)
(-0.0669844 -0.0934951 0)
(-0.0621113 -0.0956876 0)
(-0.21081 -0.0959582 0)
(-0.54977 -0.0754701 0)
(-0.371609 -0.0725458 0)
(0.360503 -0.077968 0)
(0.536596 -0.0817589 0)
(0.204892 -0.108853 0)
(0.0569811 -0.109936 0)
(0.0592506 -0.106156 0)
(0.0692823 -0.100148 0)
(0.0793078 -0.0986574 0)
(0.08597 -0.096123 0)
(0.091935 -0.0960658 0)
(0.095283 -0.0948829 0)
(0.0975971 -0.0947432 0)
(0.0990233 -0.0944275 0)
(0.0992176 -0.0945202 0)
(0.0982001 -0.0948143 0)
(0.0950206 -0.0954087 0)
(0.0878252 -0.0964021 0)
(0.0730036 -0.0980371 0)
(0.0484232 -0.100489 0)
(0.0214478 -0.103046 0)
(0.00459137 -0.104289 0)
(-0.00458398 -0.10429 0)
(-0.0214232 -0.103058 0)
(-0.0483851 -0.10051 0)
(-0.0729927 -0.0980309 0)
(-0.0879091 -0.0962922 0)
(-0.0952765 -0.0950899 0)
(-0.0987101 -0.0941588 0)
(-0.100059 -0.0933818 0)
(-0.100299 -0.09264 0)
(-0.0993209 -0.092136 0)
(-0.0977398 -0.0912294 0)
(-0.0947619 -0.091098 0)
(-0.0903985 -0.0895027 0)
(-0.0842954 -0.0895188 0)
(-0.077535 -0.088608 0)
(-0.0680211 -0.0902269 0)
(-0.063034 -0.0927774 0)
(-0.200235 -0.092988 0)
(-0.537337 -0.073889 0)
(-0.369546 -0.0683399 0)
(0.358941 -0.0733938 0)
(0.522792 -0.0785326 0)
(0.193312 -0.103506 0)
(0.0594689 -0.102023 0)
(0.0650468 -0.0980125 0)
(0.0732301 -0.0908807 0)
(0.0810443 -0.0895495 0)
(0.0876679 -0.0875538 0)
(0.0921543 -0.086953 0)
(0.0959436 -0.0866814 0)
(0.0979802 -0.0864709 0)
(0.0990748 -0.0868927 0)
(0.0990946 -0.0874506 0)
(0.0977582 -0.0882037 0)
(0.0942809 -0.0890622 0)
(0.0865661 -0.0901676 0)
(0.0710102 -0.0918436 0)
(0.045972 -0.0943513 0)
(0.0196093 -0.0969208 0)
(0.0040003 -0.0981059 0)
(-0.00399792 -0.0981066 0)
(-0.0195956 -0.0969279 0)
(-0.0459374 -0.094372 0)
(-0.0709656 -0.0918672 0)
(-0.0865471 -0.0901536 0)
(-0.094338 -0.0889416 0)
(-0.0979496 -0.0878821 0)
(-0.0994821 -0.0868081 0)
(-0.099728 -0.0857956 0)
(-0.0989444 -0.0847405 0)
(-0.0973598 -0.0842058 0)
(-0.0938447 -0.0833485 0)
(-0.0903944 -0.0829976 0)
(-0.0839224 -0.0827739 0)
(-0.0782602 -0.0826963 0)
(-0.0710022 -0.0853845 0)
(-0.064772 -0.0882776 0)
(-0.192608 -0.0885045 0)
(-0.526019 -0.069868 0)
(-0.366262 -0.061507 0)
(0.355551 -0.0677958 0)
(0.507579 -0.0748018 0)
(0.182256 -0.0968288 0)
(0.0622749 -0.0952543 0)
(0.0699874 -0.0908361 0)
(0.0774376 -0.0844429 0)
(0.0825138 -0.0819369 0)
(0.0884721 -0.0797018 0)
(0.0927756 -0.0789044 0)
(0.0957475 -0.0782229 0)
(0.0973936 -0.0783809 0)
(0.0980792 -0.0789335 0)
(0.0979543 -0.0799484 0)
(0.0966472 -0.0811653 0)
(0.093128 -0.0824752 0)
(0.0851449 -0.083861 0)
(0.0689721 -0.085646 0)
(0.0435307 -0.0882096 0)
(0.0178297 -0.0907802 0)
(0.00344874 -0.091901 0)
(-0.00344885 -0.0919012 0)
(-0.0178245 -0.0907834 0)
(-0.0435084 -0.0882237 0)
(-0.0689277 -0.0856746 0)
(-0.0850899 -0.08389 0)
(-0.0930875 -0.0824688 0)
(-0.0966542 -0.0810656 0)
(-0.0980486 -0.0796757 0)
(-0.0983067 -0.07839 0)
(-0.0977889 -0.0774389 0)
(-0.0963985 -0.0767701 0)
(-0.0935976 -0.0767033 0)
(-0.0898447 -0.0768214 0)
(-0.0840051 -0.0775064 0)
(-0.0800508 -0.0792804 0)
(-0.0733994 -0.082471 0)
(-0.0660406 -0.0857814 0)
(-0.182495 -0.0853851 0)
(-0.511321 -0.0669665 0)
(-0.361489 -0.0558917 0)
(0.35219 -0.0512253 0)
(0.494815 -0.0668618 0)
(0.173603 -0.0861433 0)
(0.0652437 -0.0864371 0)
(0.0754651 -0.0827329 0)
(0.0818058 -0.0769031 0)
(0.0856131 -0.074237 0)
(0.0905901 -0.0704299 0)
(0.0935794 -0.0692416 0)
(0.0964482 -0.0674486 0)
(0.0972955 -0.0666247 0)
(0.0975643 -0.0661537 0)
(0.096944 -0.0662938 0)
(0.0953233 -0.0671597 0)
(0.0916832 -0.068763 0)
(0.0835106 -0.0709977 0)
(0.0668197 -0.0736838 0)
(0.0410244 -0.0766171 0)
(0.0160521 -0.0790152 0)
(0.00292005 -0.0799519 0)
(-0.00292092 -0.0799518 0)
(-0.0160518 -0.0790159 0)
(-0.0410143 -0.076624 0)
(-0.0667894 -0.0737049 0)
(-0.083458 -0.0710348 0)
(-0.0916164 -0.0688053 0)
(-0.095258 -0.0671807 0)
(-0.0969038 -0.0662511 0)
(-0.0975725 -0.0659877 0)
(-0.0973834 -0.0662522 0)
(-0.096651 -0.0667929 0)
(-0.0938942 -0.0681321 0)
(-0.0911682 -0.0688988 0)
(-0.086292 -0.0717649 0)
(-0.0830443 -0.0739352 0)
(-0.0772668 -0.0778956 0)
(-0.0675801 -0.0805846 0)
(-0.174477 -0.078575 0)
(-0.497598 -0.0615642 0)
(-0.35559 -0.041954 0)
(0.340483 -0.0113865 0)
(0.47393 -0.0475503 0)
(0.163393 -0.0653389 0)
(0.0655613 -0.0696918 0)
(0.0791747 -0.0701011 0)
(0.0856245 -0.0677118 0)
(0.0887516 -0.0666281 0)
(0.0932859 -0.0644889 0)
(0.0956485 -0.0634368 0)
(0.0982692 -0.0616032 0)
(0.0986413 -0.0598014 0)
(0.0983981 -0.0577888 0)
(0.0969848 -0.0558957 0)
(0.0942678 -0.0544977 0)
(0.0894296 -0.0540921 0)
(0.080403 -0.0551321 0)
(0.063557 -0.0577251 0)
(0.0383931 -0.0612334 0)
(0.0146163 -0.0640161 0)
(0.00254619 -0.0649623 0)
(-0.00254696 -0.0649622 0)
(-0.0146176 -0.0640158 0)
(-0.0383906 -0.0612351 0)
(-0.0635418 -0.0577355 0)
(-0.0803684 -0.0551577 0)
(-0.0893736 -0.0541341 0)
(-0.0941929 -0.0545487 0)
(-0.096899 -0.0559391 0)
(-0.0983078 -0.0577956 0)
(-0.0985647 -0.059734 0)
(-0.09821 -0.0614143 0)
(-0.095627 -0.063052 0)
(-0.0933455 -0.0638886 0)
(-0.0888583 -0.0655932 0)
(-0.0859585 -0.066396 0)
(-0.0798071 -0.0678953 0)
(-0.0666953 -0.0667983 0)
(-0.164166 -0.061357 0)
(-0.476032 -0.0443595 0)
(-0.342592 -0.00565692 0)
(0.317341 -0.0763395 0)
(0.442824 -0.14459 0)
(0.152267 -0.156482 0)
(0.0606546 -0.167816 0)
(0.0773731 -0.178541 0)
(0.0851525 -0.186487 0)
(0.0887188 -0.19736 0)
(0.0936654 -0.205538 0)
(0.0963602 -0.216312 0)
(0.0999514 -0.225749 0)
(0.100971 -0.235635 0)
(0.101328 -0.244964 0)
(0.100115 -0.253743 0)
(0.0970613 -0.261272 0)
(0.0910719 -0.267377 0)
(0.0800097 -0.272379 0)
(0.0609402 -0.277426 0)
(0.0349622 -0.28305 0)
(0.0124588 -0.287185 0)
(0.00200835 -0.288425 0)
(-0.00200885 -0.288425 0)
(-0.0124602 -0.287185 0)
(-0.0349624 -0.283049 0)
(-0.0609329 -0.277431 0)
(-0.0799875 -0.272396 0)
(-0.0910296 -0.267413 0)
(-0.0969974 -0.261329 0)
(-0.100033 -0.253817 0)
(-0.101229 -0.245041 0)
(-0.100871 -0.2357 0)
(-0.0998482 -0.225773 0)
(-0.0962785 -0.216274 0)
(-0.0936171 -0.205405 0)
(-0.0887082 -0.197068 0)
(-0.0852627 -0.186053 0)
(-0.0776544 -0.177759 0)
(-0.0612796 -0.166656 0)
(-0.152855 -0.154701 0)
(-0.443923 -0.143034 0)
(-0.318295 -0.0738122 0)
(0.274715 -0.287682 0)
(0.396702 -0.413682 0)
(0.141011 -0.462058 0)
(0.0443045 -0.494977 0)
(0.0611822 -0.518278 0)
(0.0674903 -0.532359 0)
(0.0703938 -0.548104 0)
(0.0750224 -0.560211 0)
(0.0761724 -0.573597 0)
(0.079649 -0.584354 0)
(0.0801246 -0.596444 0)
(0.0809487 -0.604929 0)
(0.08127 -0.614014 0)
(0.0811296 -0.621089 0)
(0.0787263 -0.628849 0)
(0.070719 -0.639176 0)
(0.0532742 -0.653969 0)
(0.0289892 -0.669478 0)
(0.00943661 -0.678125 0)
(0.00135164 -0.680019 0)
(-0.00135184 -0.680019 0)
(-0.00943769 -0.678124 0)
(-0.0289916 -0.669476 0)
(-0.053276 -0.653968 0)
(-0.0707148 -0.639183 0)
(-0.0787086 -0.628873 0)
(-0.0810907 -0.621141 0)
(-0.0812032 -0.614105 0)
(-0.0808503 -0.605066 0)
(-0.0799978 -0.596633 0)
(-0.0794905 -0.584588 0)
(-0.0759993 -0.573879 0)
(-0.0748375 -0.560507 0)
(-0.0702099 -0.548405 0)
(-0.0673513 -0.532622 0)
(-0.0611159 -0.518409 0)
(-0.0444759 -0.49487 0)
(-0.141403 -0.461476 0)
(-0.398085 -0.412959 0)
(-0.275888 -0.286108 0)
(0.195923 -0.206418 0)
(0.274789 -0.288183 0)
(0.0739287 -0.332931 0)
(0.00647969 -0.357797 0)
(0.0413499 -0.372184 0)
(0.0564112 -0.378378 0)
(0.0618805 -0.383681 0)
(0.069099 -0.387213 0)
(0.0730944 -0.389828 0)
(0.0779356 -0.390407 0)
(0.0811443 -0.391606 0)
(0.0843963 -0.389349 0)
(0.0845434 -0.388028 0)
(0.0827656 -0.385952 0)
(0.0736423 -0.38633 0)
(0.0558038 -0.391228 0)
(0.0317405 -0.401808 0)
(0.0116845 -0.413574 0)
(0.00230088 -0.419766 0)
(0.000182859 -0.420979 0)
(-0.000182855 -0.420979 0)
(-0.00230091 -0.419766 0)
(-0.0116847 -0.413573 0)
(-0.0317411 -0.401806 0)
(-0.0558049 -0.391225 0)
(-0.0736434 -0.386333 0)
(-0.0827662 -0.385969 0)
(-0.0845425 -0.388072 0)
(-0.0843927 -0.389434 0)
(-0.0811366 -0.391748 0)
(-0.0779223 -0.390616 0)
(-0.0730734 -0.390121 0)
(-0.0690692 -0.38758 0)
(-0.0618373 -0.384135 0)
(-0.0563573 -0.378891 0)
(-0.0412756 -0.372726 0)
(-0.00641639 -0.358302 0)
(-0.0739221 -0.33323 0)
(-0.274932 -0.288275 0)
(-0.196056 -0.205431 0)
(0.195923 0.206418 0)
(0.274789 0.288183 0)
(0.0739287 0.332931 0)
(0.00647969 0.357797 0)
(0.0413499 0.372184 0)
(0.0564112 0.378378 0)
(0.0618805 0.383681 0)
(0.069099 0.387213 0)
(0.0730944 0.389828 0)
(0.0779356 0.390407 0)
(0.0811443 0.391606 0)
(0.0843963 0.389349 0)
(0.0845434 0.388028 0)
(0.0827656 0.385952 0)
(0.0736423 0.38633 0)
(0.0558038 0.391228 0)
(0.0317405 0.401808 0)
(0.0116845 0.413574 0)
(0.00230088 0.419766 0)
(0.000182859 0.420979 0)
(-0.000182855 0.420979 0)
(-0.00230091 0.419766 0)
(-0.0116847 0.413573 0)
(-0.0317411 0.401806 0)
(-0.0558049 0.391225 0)
(-0.0736434 0.386333 0)
(-0.0827662 0.385969 0)
(-0.0845425 0.388072 0)
(-0.0843927 0.389434 0)
(-0.0811366 0.391748 0)
(-0.0779223 0.390616 0)
(-0.0730734 0.390121 0)
(-0.0690692 0.38758 0)
(-0.0618373 0.384135 0)
(-0.0563573 0.378891 0)
(-0.0412756 0.372726 0)
(-0.00641639 0.358302 0)
(-0.0739221 0.33323 0)
(-0.274932 0.288275 0)
(-0.196056 0.205431 0)
(0.274715 0.287682 0)
(0.396702 0.413682 0)
(0.141011 0.462058 0)
(0.0443045 0.494977 0)
(0.0611822 0.518278 0)
(0.0674903 0.532359 0)
(0.0703938 0.548104 0)
(0.0750224 0.560211 0)
(0.0761724 0.573597 0)
(0.079649 0.584354 0)
(0.0801246 0.596444 0)
(0.0809487 0.604929 0)
(0.08127 0.614014 0)
(0.0811296 0.621089 0)
(0.0787263 0.628849 0)
(0.070719 0.639176 0)
(0.0532742 0.653969 0)
(0.0289892 0.669478 0)
(0.00943661 0.678125 0)
(0.00135164 0.680019 0)
(-0.00135184 0.680019 0)
(-0.00943769 0.678124 0)
(-0.0289916 0.669476 0)
(-0.053276 0.653968 0)
(-0.0707148 0.639183 0)
(-0.0787086 0.628873 0)