/*--------------------------------*- C++ -*----------------------------------*\
| =========                 |                                                 |
| \\      /  F ield         | OpenFOAM: The Open Source CFD Toolbox           |
|  \\    /   O peration     | Version:  v1912                                 |
|   \\  /    A nd           | Website:  www.openfoam.com                      |
|    \\/     M anipulation  |                                                 |
\*---------------------------------------------------------------------------*/
FoamFile
{
    version     2.0;
    format      ascii;
    class       volVectorField;
    location    "5.32";
    object      grad(p);
}
// * * * * * * * * * * * * * * * * * * * * * * * * * * * * * * * * * * * * * //

dimensions      [1 -2 -2 0 0 0 0];


internalField   nonuniform List<vector> 
1900
(
(132501 0.306321 0)
(-129351 -0.953566 0)
(-7957.55 0.505572 0)
(-984.337 -1.93507 0)
(-907.606 -1.75283 0)
(-768.066 -1.41253 0)
(-805.807 -2.18233 0)
(-780.233 26.2754 0)
(-679.68 56.1662 0)
(196.923 -31.0833 0)
(132500 0.212859 0)
(-129350 -1.05433 0)
(-7958.53 0.641235 0)
(-986.595 -1.24617 0)
(-907.084 -0.0545844 0)
(-768.496 1.61252 0)
(-778.119 0.162034 0)
(-721.884 13.6255 0)
(-737.039 15.4292 0)
(-778.76 -77.9705 0)
(132500 -3.83693e-08 0)
(-129350 5.62217e-08 0)
(-7957.74 -4.49774e-08 0)
(-985.032 -3.76588e-09 0)
(-904.748 1.74083e-09 0)
(-767.85 3.42837e-09 0)
(-793.794 2.91323e-09 0)
(-764.966 2.45137e-09 0)
(-771.276 2.04281e-09 0)
(-889.34 -1.45661e-09 0)
(132500 -0.212859 0)
(-129350 1.05433 0)
(-7958.53 -0.641235 0)
(-986.595 1.24617 0)
(-907.084 0.0545844 0)
(-768.496 -1.61252 0)
(-778.119 -0.162034 0)
(-721.884 -13.6255 0)
(-737.039 -15.4292 0)
(-778.76 77.9705 0)
(132501 -0.306321 0)
(-129351 0.953566 0)
(-7957.55 -0.505572 0)
(-984.337 1.93507 0)
(-907.606 1.75283 0)
(-768.066 1.41253 0)
(-805.807 2.18233 0)
(-780.233 -26.2754 0)
(-679.68 -56.1662 0)
(196.923 31.0833 0)
(-553.296 -797.94 8.98533e-12)
(-2111.39 -692.12 -1.05139e-11)
(-2182.09 -751.006 -1.31757e-11)
(235.505 -1134 0)
(-15966.9 -8622.38 -5.69211e-11)
(-1145.38 -938.726 8.84114e-12)
(-1606.73 -817.448 1.05139e-11)
(-2093.71 -939.843 1.31757e-11)
(-2692.79 -989.969 0)
(-15109.7 -7226.33 0)
(-1502.18 -1.8021e-09 0)
(-1833.76 -1.6556e-09 0)
(-2132.96 -2.96059e-09 0)
(-2353.98 -2.55688e-09 0)
(-18025.5 -5.07531e-09 0)
(-1145.38 938.726 8.84114e-12)
(-1606.73 817.448 1.05139e-11)
(-2093.71 939.843 1.31757e-11)
(-2692.79 989.969 0)
(-15109.7 7226.33 0)
(-553.296 797.94 -2.66676e-11)
(-2111.39 692.12 -1.05139e-11)
(-2182.09 751.006 -1.31757e-11)
(235.505 1134 -3.52764e-11)
(-15966.9 8622.38 5.69211e-11)
(-30321 11222.3 1.24601e-11)
(-5094.8 3217.4 -8.3474e-12)
(-2244.11 1761.51 0)
(-3843.03 1145.37 5.60349e-12)
(-7406 1619.47 -2.1663e-12)
(-26423.8 13335.6 -6.39901e-12)
(-7197.55 2236.71 4.22215e-12)
(-2759.34 557.35 0)
(-3747.06 402.685 -3.52677e-12)
(-6940.67 906.942 5.60597e-13)
(-27885.6 -1.43544e-09 0)
(-8317.02 -2.84673e-10 0)
(-2890.2 1.43095e-09 0)
(-3744.9 -5.22458e-10 1.41556e-12)
(-6720.28 5.85626e-09 -1.12119e-12)
(-26423.8 -13335.6 -6.39901e-12)
(-7197.55 -2236.71 4.22215e-12)
(-2759.34 -557.35 0)
(-3747.06 -402.685 -3.52677e-12)
(-6940.67 -906.942 5.60597e-13)
(-30321 -11222.3 6.39901e-12)
(-5094.8 -3217.4 -9.68976e-14)
(-2244.11 -1761.51 0)
(-3843.03 -1145.37 3.44948e-14)
(-7406 -1619.47 2.1663e-12)
(-6811.81 4065.05 0)
(-642.657 307.174 0)
(2560.13 281.68 0)
(1843.16 1135 0)
(-235.597 1124.99 0)
(-1361.91 751.628 0)
(-1528.85 386.126 0)
(-1189.29 158.86 0)
(-778.752 66.802 0)
(-564.701 28.5421 0)
(-508.907 18.6645 0)
(-474.454 25.1742 0)
(-397.962 14.6749 0)
(-280.031 4.91264 0)
(-170.413 -0.105674 0)
(-105.774 -1.26234 0)
(-77.7871 -1.15862 0)
(-65.2859 -1.03098 0)
(-56.6598 -1.06558 0)
(-47.9772 -1.1937 0)
(-38.9155 -1.32671 0)
(-30.7091 -1.41265 0)
(-23.5859 -1.4521 0)
(-17.4325 -1.46975 0)
(-12.153 -1.48228 0)
(-7.6237 -1.50894 0)
(-3.15839 -1.54302 0)
(2.32365 -1.60146 0)
(10.8981 -1.62439 0)
(20.284 -1.58767 0)
(33.6254 -1.52779 0)
(45.5824 -1.15116 0)
(60.1835 -1.12736 0)
(69.6763 -0.21786 0)
(94.6835 -1.69071 0)
(123.426 0.947817 0)
(201.107 -1.54794 0)
(444.693 10.0228 0)
(3746.31 -11.516 0)
(-3124.91 -495.899 0)
(-7130.81 2507.19 0)
(-1116.14 121.683 0)
(2654.39 -142.242 0)
(1806.06 110.601 0)
(-337.064 432.179 0)
(-1441.95 438.625 0)
(-1592.64 241.851 0)
(-1229.97 78.2105 0)
(-792.988 27.6707 0)
(-569.716 10.0976 0)
(-508.559 4.29557 0)
(-474.365 12.6387 0)
(-400.106 4.92512 0)
(-281.195 1.37472 0)
(-170.893 -0.343323 0)
(-105.846 -0.735464 0)
(-77.7566 -0.649663 0)
(-65.2703 -0.574781 0)
(-56.6677 -0.571042 0)
(-47.9961 -0.612474 0)
(-38.9328 -0.66284 0)
(-30.7197 -0.698957 0)
(-23.5916 -0.720085 0)
(-17.4368 -0.73578 0)
(-12.1592 -0.752581 0)
(-7.63216 -0.778352 0)
(-3.17045 -0.806293 0)
(2.31092 -0.846715 0)
(10.8933 -0.874174 0)
(20.2849 -0.872375 0)
(33.6569 -0.859933 0)
(45.6102 -0.698345 0)
(60.2709 -0.68566 0)
(69.6174 -0.168543 0)
(94.8304 -0.685226 0)
(123.516 1.06348 0)
(201.767 1.0933 0)
(444.514 6.99134 0)
(3741.68 0.470664 0)
(-3120.71 -24.3787 0)
(-6923.06 -4.56685e-08 0)
(-1413.4 9.33314e-08 0)
(2556.91 5.0279e-08 0)
(2010.27 1.49295e-08 0)
(-140.172 6.11228e-09 0)
(-1417.28 5.12721e-09 0)
(-1633.7 2.36578e-09 0)
(-1251.6 -1.11547e-08 0)
(-798.567 -1.8567e-08 0)
(-571.501 -3.4639e-09 0)
(-508.168 4.79616e-09 0)
(-474.271 -9.9476e-09 0)
(-401.239 -7.76752e-09 0)
(-281.563 -1.02383e-08 0)
(-171.026 -7.45262e-09 0)
(-105.863 -5.19181e-09 0)
(-77.7403 -1.06581e-09 0)
(-65.2631 1.13041e-09 0)
(-56.6707 1.73599e-10 0)
(-48.0039 9.72959e-10 0)
(-38.9407 2.92291e-09 0)
(-30.7258 5.74086e-09 0)
(-23.5966 7.37592e-09 0)
(-17.4419 6.43526e-09 0)
(-12.1654 4.6912e-09 0)
(-7.63933 3.07229e-09 0)
(-3.17828 2.38193e-10 0)
(2.30391 -2.14374e-09 0)
(10.8906 -3.28626e-09 0)
(20.2881 -3.51234e-09 0)
(33.676 2.40616e-09 0)
(45.6331 9.71748e-09 0)
(60.3376 9.61251e-09 0)
(69.6764 5.12721e-09 0)
(95.0419 4.68716e-09 0)
(123.944 1.91685e-08 0)
(202.832 1.91201e-08 0)
(444.512 3.16111e-09 0)
(3737.19 -7.95283e-08 0)
(-3117.96 -2.90483e-07 0)
(-7130.81 -2507.19 0)
(-1116.14 -121.683 0)
(2654.39 142.242 0)
(1806.06 -110.601 0)
(-337.064 -432.179 0)
(-1441.95 -438.625 0)
(-1592.64 -241.851 0)
(-1229.97 -78.2105 0)
(-792.988 -27.6707 0)
(-569.716 -10.0976 0)
(-508.559 -4.29557 0)
(-474.365 -12.6387 0)
(-400.106 -4.92512 0)
(-281.195 -1.37472 0)
(-170.893 0.343323 0)
(-105.846 0.735464 0)
(-77.7566 0.649663 0)
(-65.2703 0.574781 0)
(-56.6677 0.571042 0)
(-47.9961 0.612474 0)
(-38.9328 0.66284 0)
(-30.7197 0.698957 0)
(-23.5916 0.720085 0)
(-17.4368 0.73578 0)
(-12.1592 0.752581 0)
(-7.63216 0.778352 0)
(-3.17045 0.806293 0)
(2.31092 0.846715 0)
(10.8933 0.874174 0)
(20.2849 0.872375 0)
(33.6569 0.859932 0)
(45.6102 0.698345 0)
(60.2709 0.68566 0)
(69.6174 0.168542 0)
(94.8304 0.685226 0)
(123.516 -1.06348 0)
(201.767 -1.0933 0)
(444.514 -6.99134 0)
(3741.68 -0.470664 0)
(-3120.71 24.3787 0)
(-6811.81 -4065.05 0)
(-642.657 -307.174 0)
(2560.13 -281.68 0)
(1843.16 -1135 0)
(-235.597 -1124.99 0)
(-1361.91 -751.628 0)
(-1528.85 -386.126 0)
(-1189.29 -158.86 0)
(-778.752 -66.802 0)
(-564.701 -28.5421 0)
(-508.907 -18.6645 0)
(-474.454 -25.1742 0)
(-397.962 -14.6749 0)
(-280.031 -4.91264 0)
(-170.413 0.105674 0)
(-105.774 1.26234 0)
(-77.7871 1.15862 0)
(-65.2859 1.03098 0)
(-56.6598 1.06558 0)
(-47.9772 1.1937 0)
(-38.9155 1.32671 0)
(-30.7091 1.41265 0)
(-23.5859 1.4521 0)
(-17.4325 1.46975 0)
(-12.153 1.48228 0)
(-7.6237 1.50894 0)
(-3.15839 1.54302 0)
(2.32365 1.60146 0)
(10.8981 1.62439 0)
(20.284 1.58767 0)
(33.6254 1.52779 0)
(45.5824 1.15116 0)
(60.1835 1.12736 0)
(69.6763 0.21786 0)
(94.6835 1.69071 0)
(123.426 -0.947817 0)
(201.107 1.54794 0)
(444.693 -10.0228 0)
(3746.31 11.516 0)
(-3124.91 495.899 0)
(1309.39 -1759.11 0)
(709.604 -129.174 0)
(2244.11 -358.599 0)
(1234.18 -1304.42 0)
(-213.907 -1411.68 0)
(-1071.04 -1057.98 0)
(-1294.57 -571.651 0)
(-1076.71 -277.757 0)
(-727.703 -121.252 0)
(-545.319 -61.4598 0)
(-506.045 -44.4695 0)
(-471.759 -42.0749 0)
(-389.876 -27.4468 0)
(-273.269 -9.67726 0)
(-167.575 -0.427309 0)
(-105.269 1.73859 0)
(-77.8665 1.64897 0)
(-65.3105 1.46856 0)
(-56.5748 1.57719 0)
(-47.8542 1.84096 0)
(-38.8155 2.09861 0)
(-30.6532 2.2635 0)
(-23.5623 2.34159 0)
(-17.4229 2.38021 0)
(-12.1418 2.40761 0)
(-7.60384 2.45568 0)
(-3.12634 2.52748 0)
(2.34723 2.63114 0)
(10.8791 2.66706 0)
(20.2253 2.60812 0)
(33.4194 2.45804 0)
(45.3912 1.8244 0)
(59.7865 1.64186 0)
(69.9027 0.392617 0)
(94.2689 2.1485 0)
(123.529 -0.901123 0)
(196.837 1.766 0)
(450.559 -17.3297 0)
(4053.69 9.02849 0)
(-3434.15 121.651 0)
(1302.55 327.784 0)
(-18.2012 -203.632 0)
(1597.09 -929.223 0)
(1154.93 -1277.06 0)
(-9.74487 -1364.42 0)
(-708.395 -1070.98 0)
(-902.634 -698.914 0)
(-815.647 -371.78 0)
(-597.694 -175.438 0)
(-501.104 -100.009 0)
(-491.762 -75.5322 0)
(-459.496 -60.4241 0)
(-371.078 -38.4788 0)
(-257.62 -14.212 0)
(-160.934 -1.29465 0)
(-104.044 2.12309 0)
(-78.0047 2.30617 0)
(-65.3419 2.18386 0)
(-56.3465 2.40796 0)
(-47.5407 2.82593 0)
(-38.562 3.22247 0)
(-30.505 3.48106 0)
(-23.4861 3.61755 0)
(-17.374 3.70615 0)
(-12.0863 3.78467 0)
(-7.51884 3.89238 0)
(-3.0065 4.05527 0)
(2.44552 4.27273 0)
(10.886 4.37425 0)
(20.114 4.3437 0)
(32.9807 4.15134 0)
(44.8984 3.2773 0)
(59.0166 2.93645 0)
(70.0431 1.53836 0)
(93.6592 3.14744 0)
(123.002 -0.103827 0)
(187.566 0.902818 0)
(448.547 -19.9033 0)
(3715.42 1.2545 0)
(-3085.02 -438.643 0)
(1429.03 349.411 0)
(-501.694 -221.848 0)
(1209.72 -489.496 0)
(814.81 -905.552 0)
(-15.3223 -1108.6 0)
(-429.738 -913.136 0)
(-620.792 -663.409 0)
(-572.265 -375.717 0)
(-465.816 -207.392 0)
(-449.046 -132.479 0)
(-467.899 -104.847 0)
(-436.053 -77.0921 0)
(-345.344 -46.9943 0)
(-237.437 -18.3359 0)
(-151.833 -2.97421 0)
(-101.799 1.81205 0)
(-77.808 2.54451 0)
(-65.2124 2.67229 0)
(-55.9561 3.08725 0)
(-47.0693 3.67274 0)
(-38.1841 4.2096 0)
(-30.2725 4.57054 0)
(-23.3454 4.78707 0)
(-17.2618 4.96074 0)
(-11.9623 5.13834 0)
(-7.34308 5.3461 0)
(-2.75983 5.62197 0)
(2.65461 6.03287 0)
(10.9475 6.24213 0)
(20.0105 6.27524 0)
(32.3918 6.07661 0)
(44.2205 5.00263 0)
(58.1108 4.59156 0)
(70.106 3.13878 0)
(92.6864 4.44012 0)
(121.366 0.97464 0)
(177.758 -0.391636 0)
(450.898 -15.4519 0)
(3650.17 14.7445 0)
(-3012.66 -136.9 0)
(1425.47 195.819 0)
(-826.603 -252.695 0)
(938.243 -321.777 0)
(558.339 -768.023 0)
(-17.0529 -853.25 0)
(-279.389 -759.704 0)
(-384.757 -556.754 0)
(-376.212 -337.669 0)
(-363.301 -214.044 0)
(-402.288 -155.856 0)
(-438.389 -125.291 0)
(-403.747 -88.9295 0)
(-314.459 -51.1735 0)
(-215.2 -20.7359 0)
(-141.518 -4.54939 0)
(-98.7257 0.995048 0)
(-77.1757 2.25874 0)
(-64.8189 2.74229 0)
(-55.3824 3.39015 0)
(-46.4592 4.12863 0)
(-37.6968 4.78131 0)
(-29.9485 5.23845 0)
(-23.11 5.55324 0)
(-17.0355 5.84729 0)
(-11.7149 6.1699 0)
(-7.0528 6.52669 0)
(-2.3447 6.92148 0)
(3.04313 7.56351 0)
(11.1196 7.91602 0)
(19.9545 8.01696 0)
(31.7543 7.80445 0)
(43.4674 6.62302 0)
(57.2206 6.11214 0)
(69.8972 4.65143 0)
(91.5737 5.28721 0)
(118.346 2.21586 0)
(171.737 -1.98368 0)
(463.132 -7.69866 0)
(3598.38 18.9236 0)
(-2967.3 -138.853 0)
(1374.22 109.447 0)
(-1000.47 -204.667 0)
(713.127 -232.95 0)
(302.664 -652.066 0)
(-7.30652 -656.533 0)
(-144.024 -577.619 0)
(-214.104 -427.474 0)
(-242.017 -290.223 0)
(-290.614 -205.076 0)
(-363.521 -167.657 0)
(-403.406 -134.763 0)
(-364.631 -93.4524 0)
(-279.63 -51.1147 0)
(-192.509 -20.9342 0)
(-130.893 -5.24226 0)
(-95.2387 0.400524 0)
(-76.1243 1.98948 0)
(-64.1222 2.81193 0)
(-54.6201 3.66533 0)
(-45.7287 4.52185 0)
(-37.1147 5.25868 0)
(-29.5287 5.80312 0)
(-22.7587 6.23403 0)
(-16.6676 6.68299 0)
(-11.3076 7.18922 0)
(-6.61883 7.73666 0)
(-1.76071 8.30735 0)
(3.61298 9.22229 0)
(11.3845 9.75335 0)
(19.903 9.95409 0)
(31.0485 9.78652 0)
(42.5897 8.61783 0)
(56.2109 8.07607 0)
(69.3111 6.71385 0)
(90.3394 6.95181 0)
(114.36 4.76113 0)
(168.204 -0.216998 0)
(471.045 0.619696 0)
(3523.79 18.0277 0)
(-2897.1 -170.137 0)
(1333.72 72.2569 0)
(-1156.55 -190.049 0)
(507.113 -261.994 0)
(150.159 -523.724 0)
(54.6873 -446.827 0)
(-58.6593 -405.68 0)
(-107.812 -316.237 0)
(-161.902 -245.148 0)
(-245.193 -197.135 0)
(-334.531 -173.676 0)
(-366.882 -137.985 0)
(-323.141 -92.1203 0)
(-244.578 -48.8572 0)
(-170.996 -20.1905 0)
(-120.96 -5.72127 0)
(-91.7569 -0.197814 0)
(-74.852 1.77143 0)
(-63.204 2.96009 0)
(-53.7347 4.02 0)
(-44.9238 4.98241 0)
(-36.4622 5.78767 0)
(-29.0086 6.40919 0)
(-22.2622 6.94787 0)
(-16.1151 7.53554 0)
(-10.6996 8.18959 0)
(-5.97532 8.8752 0)
(-0.9131 9.58086 0)
(4.43655 10.6613 0)
(11.8248 11.2383 0)
(19.9864 11.3897 0)
(30.4667 11.0933 0)
(41.8191 9.77203 0)
(55.3858 8.99068 0)
(68.8138 7.49969 0)
(89.692 7.35145 0)
(111.438 5.5429 0)
(167.746 0.45061 0)
(480.713 5.64107 0)
(3433.84 17.8945 0)
(-2820.73 -192.597 0)
(1260.72 65.1937 0)
(-1322.57 -171.809 0)
(391.586 -273.759 0)
(124.552 -332.9 0)
(106.445 -298.368 0)
(-18.1835 -284.78 0)
(-59.4093 -242.233 0)
(-127.246 -211.156 0)
(-221.741 -192.805 0)
(-306.522 -173.805 0)
(-324.816 -133.583 0)
(-278.744 -84.5183 0)
(-210.316 -42.9876 0)
(-150.941 -17.1889 0)
(-111.627 -4.5394 0)
(-88.0184 0.607333 0)
(-73.0812 3.02356 0)
(-61.9554 4.49641 0)
(-52.6714 5.71242 0)
(-44.0253 6.71976 0)
(-35.7398 7.55773 0)
(-28.4107 8.24426 0)
(-21.6733 8.88717 0)
(-15.471 9.60502 0)
(-10.0167 10.3854 0)
(-5.27816 11.1731 0)
(-0.0395095 11.9853 0)
(5.2102 13.1962 0)
(12.0863 13.7586 0)
(19.7633 13.7877 0)
(29.4897 13.2668 0)
(40.5635 11.6788 0)
(54.0212 10.5088 0)
(67.7315 8.68261 0)
(88.4538 8.11438 0)
(107.71 6.11935 0)
(168.298 1.82071 0)
(487.855 8.26355 0)
(3332.76 14.1669 0)
(-2728.75 -222.111 0)
(1230.98 93.9886 0)
(-1483.18 -133.651 0)
(351.88 -217.248 0)
(126.445 -198.661 0)
(101.058 -205.791 0)
(-4.56576 -210.52 0)
(-36.8651 -196.7 0)
(-114.27 -188.898 0)
(-209.2 -185.849 0)
(-277.463 -164.601 0)
(-280.842 -121.14 0)
(-235.839 -73.1645 0)
(-179.697 -35.9542 0)
(-133.946 -13.652 0)
(-103.81 -2.81998 0)
(-84.469 2.32269 0)
(-71.1043 5.23226 0)
(-60.613 7.08608 0)
(-51.5922 8.49932 0)
(-43.1456 9.5712 0)
(-34.9931 10.4476 0)
(-27.7275 11.1894 0)
(-20.9509 11.8923 0)
(-14.6713 12.6503 0)
(-9.18847 13.443 0)
(-4.4336 14.2029 0)
(1.03636 14.9734 0)
(6.14529 16.1528 0)
(12.3948 16.5105 0)
(19.5126 16.2684 0)
(28.4345 15.3737 0)
(39.1613 13.3913 0)
(52.4985 11.7057 0)
(66.5065 9.51304 0)
(87.222 8.45177 0)
(105.373 6.33787 0)
(169.812 3.19622 0)
(492.611 9.33702 0)
(3211.84 10.6649 0)
(-2620.34 -247.366 0)
(1222.5 92.5495 0)
(-1622.48 -97.173 0)
(328.939 -168.372 0)
(135.592 -147.888 0)
(95.0164 -155.109 0)
(-9.42292 -166.397 0)
(-38.5738 -171.24 0)
(-116.789 -178.426 0)
(-198.327 -178.167 0)
(-244.166 -150.441 0)
(-236.704 -104.928 0)
(-196.655 -60.2253 0)
(-152.968 -27.7396 0)
(-119.012 -8.36769 0)
(-96.2333 2.13179 0)
(-80.259 7.89224 0)
(-68.491 11.1637 0)
(-58.8071 13.4907 0)
(-50.2766 15.1639 0)
(-42.1479 16.3488 0)
(-34.1805 17.2611 0)
(-27.0184 17.98 0)
(-20.2655 18.5743 0)
(-13.9767 19.125 0)
(-8.52051 19.6436 0)
(-3.80346 20.1249 0)
(1.83944 20.5101 0)
(6.6914 21.2213 0)
(12.1978 20.9685 0)
(18.6679 20.0815 0)
(26.7172 18.4788 0)
(37.0289 15.7863 0)
(50.284 13.2914 0)
(64.5959 10.4374 0)
(85.3941 8.80725 0)
(102.646 6.41638 0)
(171.188 3.86093 0)
(495.052 8.70158 0)
(3085.39 4.84611 0)
(-2500.65 -270.407 0)
(1226.52 111.499 0)
(-1734.61 -59.2612 0)
(303.009 -118.518 0)
(139.225 -108.147 0)
(83.2222 -128.285 0)
(-20.1096 -142.519 0)
(-48.4565 -156.205 0)
(-120.946 -166.337 0)
(-182.232 -160.229 0)
(-206.887 -127.392 0)
(-193.908 -83.6459 0)
(-161.458 -44.4336 0)
(-129.725 -17.0745 0)
(-105.161 -0.690134 0)
(-88.1417 9.42079 0)
(-75.7655 15.2058 0)
(-65.7094 18.8799 0)
(-56.7582 21.5422 0)
(-48.838 23.4178 0)
(-41.1246 24.6997 0)
(-33.4212 25.6526 0)
(-26.4621 26.3465 0)
(-19.8475 26.8229 0)
(-13.6408 27.1858 0)
(-8.22498 27.4761 0)
(-3.5986 27.7629 0)
(2.09294 27.8148 0)
(6.58702 28.0955 0)
(11.2964 27.3168 0)
(17.1134 25.8617 0)
(24.2954 23.6386 0)
(34.1626 20.3195 0)
(47.3442 17.0595 0)
(62.1853 13.5191 0)
(83.3472 11.3554 0)
(100.607 8.76779 0)
(172.014 6.65092 0)
(493.56 9.44532 0)
(2942.88 1.35839 0)
(-2364.44 -284.64 0)
(1272.83 33.197 0)
(-1844.14 -32.5311 0)
(281.832 -73.383 0)
(126.18 -79.7546 0)
(61.8937 -111.442 0)
(-36.3281 -126.688 0)
(-61.5253 -143.952 0)
(-120.667 -149.674 0)
(-160.799 -135.679 0)
(-170.368 -100.256 0)
(-156.762 -60.6638 0)
(-132.505 -26.9683 0)
(-110.815 -3.93557 0)
(-93.4801 10.6423 0)
(-80.9154 19.3391 0)
(-71.1438 25.3058 0)
(-62.385 29.6838 0)
(-54.4342 32.8665 0)
(-47.2339 35.1044 0)
(-39.9944 36.5705 0)
(-32.5936 37.5205 0)
(-25.8907 38.0143 0)
(-19.4568 38.1337 0)
(-13.3473 38.0658 0)
(-7.96437 37.8657 0)
(-3.47708 37.7141 0)
(2.15996 37.2574 0)
(6.21155 36.8971 0)
(10.0452 35.5317 0)
(15.1235 33.4004 0)
(21.3765 30.4257 0)
(30.689 26.3254 0)
(43.7309 22.1777 0)
(59.0992 17.8606 0)
(80.8155 15.0806 0)
(98.1121 12.2213 0)
(171.841 9.99889 0)
(489.952 11.8089 0)
(2802 1.00833 0)
(-2227.67 -310.873 0)
(1227.16 -32.5705 0)
(-1837.31 -14.5156 0)
(257.503 -45.2596 0)
(102.55 -65.231 0)
(37.9956 -103.053 0)
(-51.437 -113.866 0)
(-70.6067 -127.344 0)
(-112.974 -123.951 0)
(-134.611 -104.162 0)
(-134.6 -70.5119 0)
(-123.285 -36.496 0)
(-106.793 -8.7987 0)
(-93.4819 10.3971 0)
(-82.7323 22.6791 0)
(-74.0114 30.5581 0)
(-65.7969 36.2905 0)
(-58.4237 40.4765 0)
(-51.5348 43.5629 0)
(-45.2687 45.7731 0)
(-38.7964 47.26 0)
(-32.0299 48.252 0)
(-25.8712 48.7797 0)
(-19.7979 48.9276 0)
(-13.8991 48.8852 0)
(-8.56388 48.6758 0)
(-4.18478 48.5549 0)
(1.30561 48.0414 0)
(4.92408 47.4593 0)
(7.92689 45.8784 0)
(12.1932 43.5121 0)
(17.4777 40.2315 0)
(26.2145 35.8127 0)
(39.1872 31.2465 0)
(55.3463 26.7639 0)
(77.9129 24.0246 0)
(95.7098 21.5541 0)
(171.617 19.6669 0)
(484.896 20.4468 0)
(2631.93 4.58843 0)
(-2065.84 -302.648 0)
(1227.46 -110.736 0)
(-1856.36 3.57259 0)
(232.96 -16.1261 0)
(70.4882 -42.8188 0)
(15.0274 -85.9051 0)
(-59.7358 -92.9561 0)
(-71.2435 -101.781 0)
(-98.3271 -90.7516 0)
(-109.303 -67.3832 0)
(-105.163 -37.5878 0)
(-97.2932 -8.81348 0)
(-87.3168 12.2473 0)
(-80.4818 27.0237 0)
(-74.0522 37.4265 0)
(-67.799 45.0073 0)
(-61.5861 50.3662 0)
(-55.3771 54.3581 0)
(-49.3303 57.3947 0)
(-43.6713 59.6862 0)
(-37.6055 61.2329 0)
(-31.1291 62.0629 0)
(-25.2397 62.2259 0)
(-19.3551 62.0338 0)
(-13.59 61.8118 0)
(-8.28268 61.551 0)
(-4.08839 61.5174 0)
(1.10422 60.932 0)
(4.12716 60.2096 0)
(6.24154 58.5546 0)
(9.68197 56.2886 0)
(13.9572 53.1194 0)
(22.0306 48.9132 0)
(35.011 44.5693 0)
(52.1399 40.4904 0)
(75.7953 38.608 0)
(93.9128 37.0299 0)
(170.774 35.2971 0)
(475.422 37.449 0)
(2490.65 17.3495 0)
(-1940.45 -299.582 0)
(1123.9 -178.76 0)
(-1746.14 24.459 0)
(212.798 8.1543 0)
(35.3088 -20.2423 0)
(-10.3186 -64.0649 0)
(-66.7355 -65.4021 0)
(-68.4823 -67.6665 0)
(-79.8269 -51.8627 0)
(-83.3808 -27.5739 0)
(-78.1603 -2.17947 0)
(-75.2621 17.8973 0)
(-72.2587 33.8902 0)
(-69.2183 45.2536 0)
(-65.4026 54.1557 0)
(-61.5422 60.3174 0)
(-56.7862 64.6475 0)
(-51.6508 67.4477 0)
(-46.4004 69.1912 0)
(-41.5701 70.2813 0)
(-36.5062 71.1196 0)
(-31.073 72.1434 0)
(-25.8992 73.2232 0)
(-20.1969 74.1008 0)
(-14.3644 74.7168 0)
(-8.84762 74.9882 0)
(-4.78125 75.2493 0)
(0.0454213 74.7356 0)
(2.63314 74.2249 0)
(4.14841 72.8589 0)
(6.95557 71.1265 0)
(10.3706 68.4315 0)
(17.9754 64.9442 0)
(31.0707 61.4396 0)
(49.6018 58.5811 0)
(74.5782 58.7885 0)
(92.5193 59.9679 0)
(172.021 60.6694 0)
(467.602 67.2551 0)
(2307.15 46.9912 0)
(-1793.87 -241.17 0)
(1078.77 -71.2116 0)
(-1676.25 64.1025 0)
(189.885 41.6539 0)
(0.895092 15.7632 0)
(-28.4902 -18.5681 0)
(-63.2063 -13.9964 0)
(-58.1964 -9.518 0)
(-59.6924 5.79639 0)
(-61.4266 24.3865 0)
(-61.345 42.0411 0)
(-62.5352 55.0323 0)
(-60.9553 66.4891 0)
(-60.9532 75.052 0)
(-59.5361 82.0653 0)
(-57.6887 87.3312 0)
(-54.7151 91.2893 0)
(-50.9986 94.0706 0)
(-46.5997 96.0708 0)
(-41.813 97.5171 0)
(-35.8112 98.5396 0)
(-29.102 99.349 0)
(-23.3535 99.7885 0)
(-17.9158 99.8701 0)
(-12.7348 99.8061 0)
(-7.76953 99.4509 0)
(-4.3318 99.3008 0)
(0.11704 98.4391 0)
(2.31871 97.8399 0)
(3.25579 96.4375 0)
(5.41557 94.8808 0)
(7.9997 92.3949 0)
(15.2929 89.3919 0)
(28.8793 86.5119 0)
(49.5853 84.6882 0)
(77.1317 86.5573 0)
(95.7253 90.4626 0)
(177.796 93.3481 0)
(462.241 106.883 0)
(2193.44 87.7904 0)
(-1753.33 -75.9446 0)
(1117.05 116.928 0)
(-1637.38 118.887 0)
(166.217 83.6865 0)
(-22.7233 61.2545 0)
(-38.996 34.8156 0)
(-58.0144 37.9216 0)
(-49.4092 45.5531 0)
(-47.1553 57.161 0)
(-48.4541 70.217 0)
(-48.629 80.9504 0)
(-51.7031 90.5904 0)
(-52.9669 98.935 0)
(-54.2085 105.388 0)
(-53.5699 112.617 0)
(-52.6537 119.017 0)
(-50.2919 124.894 0)
(-47.0432 129.25 0)
(-43.0792 131.396 0)
(-39.191 131.521 0)
(-34.7409 130.993 0)
(-29.8695 131.786 0)
(-25.397 133.619 0)
(-20.18 134.433 0)
(-14.7683 133.138 0)
(-9.33456 130.003 0)
(-5.7562 127.349 0)
(-1.36229 123.847 0)
(0.704325 121.574 0)
(1.29695 118.765 0)
(3.05989 116.946 0)
(5.08126 114.608 0)
(12.3063 112.162 0)
(26.538 109.511 0)
(49.6456 107.791 0)
(80.1426 109.558 0)
(99.0631 114.698 0)
(187.844 116.126 0)
(462.246 130.113 0)
(2130.98 118.699 0)
(-1805.29 115.819 0)
(1306.01 448.853 0)
(-1708.28 212.576 0)
(134.348 179.801 0)
(-46.1987 150.831 0)
(-50.9746 123.587 0)
(-52.8592 123.633 0)
(-39.6567 131.896 0)
(-35.9254 140.238 0)
(-38.5023 152.001 0)
(-41.7124 159.341 0)
(-45.2046 165.361 0)
(-46.696 169.931 0)
(-47.7686 172.437 0)
(-46.4028 175.189 0)
(-45.8582 177.441 0)
(-44.854 181.449 0)
(-44.7332 187.715 0)
(-44.4114 196.294 0)
(-42.2009 205.488 0)
(-35.5554 211.388 0)
(-26.5723 212.098 0)
(-20.8025 207.755 0)
(-18.3787 200.279 0)
(-17.0036 194.822 0)
(-13.3485 191.497 0)
(-10.264 192.141 0)
(-5.44777 193.441 0)
(-2.57844 194.332 0)
(-1.20358 195.47 0)
(1.40918 196.58 0)
(3.38921 197.527 0)
(10.381 197.627 0)
(24.668 196.535 0)
(49.6313 197.465 0)
(83.7869 201.663 0)
(102.054 215.366 0)
(192.651 223.397 0)
(464.72 231.246 0)
(2179.67 185.479 0)
(-1979.32 407.619 0)
(1754.42 10350.9 0)
(-1896.65 1280.88 0)
(106.717 742.139 0)
(-76.8927 657.386 0)
(-65.2053 654.446 0)
(-50.0078 642.126 0)
(-33.4082 650.889 0)
(-27.7813 643.345 0)
(-30.0451 645.414 0)
(-35.7545 638.548 0)
(-41.498 631.659 0)
(-46.1486 619.455 0)
(-49.1419 604.252 0)
(-48.7476 584.773 0)
(-46.6219 560.898 0)
(-40.3913 535.51 0)
(-32.7374 509.46 0)
(-25.9526 486.948 0)
(-24.6466 476.009 0)
(-28.3718 470.418 0)
(-33.3699 470.883 0)
(-36.7857 479.178 0)
(-32.6424 483.38 0)
(-23.2317 504.265 0)
(-11.9182 516.385 0)
(-3.88288 533.481 0)
(0.748546 545.832 0)
(2.65939 554.799 0)
(3.46328 561.849 0)
(5.04252 564.98 0)
(6.09018 565.338 0)
(11.3502 561.87 0)
(26.3824 554.362 0)
(54.5872 545.753 0)
(97.3921 538.447 0)
(120.006 541.049 0)
(203.147 557.269 0)
(425.708 517.963 0)
(2300.93 1079.15 0)
(-2376.82 9416.41 0)
(12514.8 162243 0)
(-10967.6 12675.9 0)
(-466.47 3754.49 0)
(-130.703 3498.01 0)
(-65.6793 3495.93 0)
(-56.2877 3578.23 0)
(-38.4829 3720.72 0)
(-41.2007 3839.08 0)
(-43.1243 3930.46 0)
(-54.9676 4016.14 0)
(-63.6039 4070.18 0)
(-73.1064 4101.37 0)
(-81.1892 4121.6 0)
(-88.1797 4116.52 0)
(-93.3292 4100.39 0)
(-94.4219 4072.47 0)
(-91.5297 4039.88 0)
(-76.6457 3999.76 0)
(-58.13 3967.78 0)
(-40.4952 3932.44 0)
(-18.1305 3909.81 0)
(-8.76008 3881.72 0)
(5.79567 3845.26 0)
(14.8009 3776.78 0)
(14.8055 3695.11 0)
(18.1128 3603.58 0)
(15.095 3505.08 0)
(12.8561 3380.29 0)
(8.6068 3252.52 0)
(4.77108 3103.08 0)
(0.392078 2952.31 0)
(-0.196351 2767.32 0)
(9.13753 2605.87 0)
(34.2955 2384.26 0)
(79.254 2238.29 0)
(120.192 2112.91 0)
(170.404 2151.19 0)
(967.62 2225.96 0)
(10754.5 10599 0)
(-12093.2 144915 0)
(170313 -176212 0)
(-154622 -13515.1 0)
(-8737.47 -4373.29 0)
(-326.056 -3963.86 0)
(12.0959 -3899.29 0)
(166.609 -3908.25 0)
(217.952 -4013.78 0)
(174.331 -4094.5 0)
(140.575 -4151.93 0)
(98.8871 -4195.62 0)
(40.6361 -4197.51 0)
(3.40509 -4171.79 0)
(-34.5473 -4125.18 0)
(-69.1867 -4051.69 0)
(-89.063 -3961.87 0)
(-98.6997 -3862.41 0)
(-102.805 -3761.46 0)
(-95.4291 -3660.74 0)
(-89.5231 -3582.9 0)
(-84.2374 -3507.52 0)
(-82.2405 -3453.46 0)
(-98.9935 -3403.36 0)
(-133.768 -3341.64 0)
(-167.916 -3270.56 0)
(-178.823 -3182.74 0)
(-187.002 -3100.35 0)
(-214.415 -3007.48 0)
(-240.723 -2893.51 0)
(-263.67 -2771.02 0)
(-284.25 -2628.82 0)
(-317.458 -2480.99 0)
(-322.486 -2299.79 0)
(-342.748 -2146.13 0)
(-299.63 -1953.59 0)
(-164.09 -1870.78 0)
(36.0723 -1865.55 0)
(312.083 -2032.94 0)
(8566.31 -2366.25 0)
(139801 -11926.6 0)
(-152236 -158603 0)
(170313 176212 0)
(-154622 13515.1 0)
(-8737.47 4373.29 0)
(-326.056 3963.86 0)
(12.0959 3899.29 0)
(166.609 3908.25 0)
(217.952 4013.78 0)
(174.331 4094.5 0)
(140.575 4151.93 0)
(98.8871 4195.62 0)
(40.6361 4197.51 0)
(3.40509 4171.79 0)
(-34.5473 4125.18 0)
(-69.1867 4051.69 0)
(-89.063 3961.87 0)
(-98.6997 3862.41 0)
(-102.805 3761.46 0)
(-95.4291 3660.74 0)
(-89.5231 3582.9 0)
(-84.2374 3507.52 0)
(-82.2405 3453.46 0)
(-98.9936 3403.36 0)
(-133.768 3341.64 0)
(-167.916 3270.56 0)
(-178.823 3182.74 0)
(-187.002 3100.35 0)
(-214.415 3007.48 0)
(-240.723 2893.51 0)
(-263.67 2771.02 0)
(-284.25 2628.82 0)
(-317.458 2480.99 0)
(-322.486 2299.79 0)
(-342.748 2146.13 0)
(-299.63 1953.59 0)
(-164.09 1870.78 0)
(36.0723 1865.55 0)
(312.083 2032.94 0)
(8566.31 2366.25 0)
(139801 11926.6 0)
(-152236 158603 0)
(12514.8 -162243 0)
(-10967.6 -12675.9 0)
(-466.47 -3754.49 0)
(-130.703 -3498.01 0)
(-65.6793 -3495.93 0)
(-56.2877 -3578.23 0)
(-38.4829 -3720.72 0)
(-41.2007 -3839.08 0)
(-43.1243 -3930.46 0)
(-54.9676 -4016.14 0)
(-63.6039 -4070.18 0)
(-73.1064 -4101.37 0)
(-81.1892 -4121.6 0)
(-88.1797 -4116.52 0)
(-93.3292 -4100.39 0)
(-94.4219 -4072.47 0)
(-91.5297 -4039.88 0)
(-76.6457 -3999.76 0)
(-58.13 -3967.78 0)
(-40.4952 -3932.44 0)
(-18.1305 -3909.81 0)
(-8.76008 -3881.72 0)
(5.79567 -3845.26 0)
(14.8009 -3776.78 0)
(14.8055 -3695.11 0)
(18.1128 -3603.58 0)
(15.095 -3505.08 0)
(12.8561 -3380.29 0)
(8.6068 -3252.52 0)
(4.77108 -3103.08 0)
(0.392078 -2952.31 0)
(-0.196351 -2767.32 0)
(9.13753 -2605.87 0)
(34.2955 -2384.26 0)
(79.254 -2238.29 0)
(120.192 -2112.91 0)
(170.404 -2151.19 0)
(967.62 -2225.96 0)
(10754.5 -10599 0)
(-12093.2 -144915 0)
(1754.42 -10350.9 0)
(-1896.65 -1280.88 0)
(106.717 -742.139 0)
(-76.8927 -657.386 0)
(-65.2053 -654.446 0)
(-50.0078 -642.126 0)
(-33.4082 -650.889 0)
(-27.7813 -643.345 0)
(-30.0451 -645.414 0)
(-35.7545 -638.548 0)
(-41.498 -631.659 0)
(-46.1486 -619.455 0)
(-49.1419 -604.252 0)
(-48.7476 -584.773 0)
(-46.6219 -560.898 0)
(-40.3913 -535.51 0)
(-32.7374 -509.46 0)
(-25.9526 -486.948 0)
(-24.6466 -476.009 0)
(-28.3718 -470.418 0)
(-33.3699 -470.883 0)
(-36.7857 -479.178 0)
(-32.6424 -483.38 0)
(-23.2317 -504.265 0)
(-11.9182 -516.385 0)
(-3.88288 -533.481 0)
(0.748546 -545.832 0)
(2.65939 -554.799 0)
(3.46328 -561.849 0)
(5.04252 -564.98 0)
(6.09018 -565.338 0)
(11.3502 -561.87 0)
(26.3824 -554.362 0)
(54.5872 -545.753 0)
(97.3921 -538.447 0)
(120.006 -541.049 0)
(203.147 -557.269 0)
(425.708 -517.963 0)
(2300.93 -1079.15 0)
(-2376.82 -9416.41 0)
(1306.01 -448.853 0)
(-1708.28 -212.576 0)
(134.348 -179.801 0)
(-46.1987 -150.831 0)
(-50.9746 -123.587 0)
(-52.8592 -123.633 0)
(-39.6567 -131.896 0)
(-35.9254 -140.238 0)
(-38.5023 -152.001 0)
(-41.7124 -159.341 0)
(-45.2046 -165.361 0)
(-46.696 -169.931 0)
(-47.7686 -172.437 0)
(-46.4028 -175.189 0)
(-45.8582 -177.441 0)
(-44.854 -181.449 0)
(-44.7332 -187.715 0)
(-44.4114 -196.294 0)
(-42.2009 -205.488 0)
(-35.5554 -211.388 0)
(-26.5723 -212.098 0)
(-20.8025 -207.755 0)
(-18.3787 -200.279 0)
(-17.0036 -194.822 0)
(-13.3485 -191.497 0)
(-10.264 -192.141 0)
(-5.44777 -193.441 0)
(-2.57844 -194.332 0)
(-1.20358 -195.47 0)
(1.40918 -196.58 0)
(3.38921 -197.527 0)
(10.381 -197.627 0)
(24.668 -196.535 0)
(49.6313 -197.465 0)
(83.7869 -201.663 0)
(102.054 -215.366 0)
(192.651 -223.397 0)
(464.72 -231.246 0)
(2179.67 -185.479 0)
(-1979.32 -407.619 0)
(1117.05 -116.928 0)
(-1637.38 -118.887 0)
(166.217 -83.6865 0)
(-22.7233 -61.2545 0)
(-38.996 -34.8156 0)
(-58.0144 -37.9216 0)
(-49.4092 -45.5531 0)
(-47.1553 -57.161 0)
(-48.4541 -70.217 0)
(-48.629 -80.9504 0)
(-51.7031 -90.5904 0)
(-52.9669 -98.935 0)
(-54.2085 -105.388 0)
(-53.5699 -112.617 0)
(-52.6537 -119.017 0)
(-50.2919 -124.894 0)
(-47.0432 -129.25 0)
(-43.0792 -131.396 0)
(-39.191 -131.521 0)
(-34.7409 -130.993 0)
(-29.8695 -131.786 0)
(-25.397 -133.619 0)
(-20.18 -134.433 0)
(-14.7683 -133.138 0)
(-9.33456 -130.003 0)
(-5.7562 -127.349 0)
(-1.36229 -123.847 0)
(0.704325 -121.574 0)
(1.29695 -118.765 0)
(3.05989 -116.946 0)
(5.08126 -114.608 0)
(12.3063 -112.162 0)
(26.538 -109.511 0)
(49.6456 -107.791 0)
(80.1426 -109.558 0)
(99.0631 -114.698 0)
(187.844 -116.126 0)
(462.246 -130.113 0)
(2130.98 -118.699 0)
(-1805.29 -115.819 0)
(1078.77 71.2116 0)
(-1676.25 -64.1025 0)
(189.885 -41.6539 0)
(0.895092 -15.7632 0)
(-28.4902 18.5681 0)
(-63.2063 13.9964 0)
(-58.1964 9.518 0)
(-59.6924 -5.79639 0)
(-61.4266 -24.3865 0)
(-61.345 -42.0411 0)
(-62.5352 -55.0323 0)
(-60.9553 -66.4891 0)
(-60.9532 -75.052 0)
(-59.5361 -82.0653 0)
(-57.6887 -87.3312 0)
(-54.7151 -91.2893 0)
(-50.9986 -94.0706 0)
(-46.5997 -96.0708 0)
(-41.813 -97.5171 0)
(-35.8112 -98.5396 0)
(-29.102 -99.349 0)
(-23.3535 -99.7885 0)
(-17.9158 -99.8701 0)
(-12.7348 -99.8061 0)
(-7.76953 -99.4509 0)
(-4.3318 -99.3008 0)
(0.11704 -98.4391 0)
(2.31871 -97.8399 0)
(3.25579 -96.4375 0)
(5.41557 -94.8808 0)
(7.9997 -92.3949 0)
(15.2929 -89.3919 0)
(28.8793 -86.5119 0)
(49.5853 -84.6882 0)
(77.1317 -86.5573 0)
(95.7253 -90.4626 0)
(177.796 -93.3481 0)
(462.241 -106.883 0)
(2193.44 -87.7904 0)
(-1753.33 75.9446 0)
(1123.9 178.76 0)
(-1746.14 -24.459 0)
(212.798 -8.1543 0)
(35.3088 20.2423 0)
(-10.3186 64.0649 0)
(-66.7355 65.4021 0)
(-68.4823 67.6665 0)
(-79.8269 51.8627 0)
(-83.3808 27.5739 0)
(-78.1603 2.17947 0)
(-75.2621 -17.8973 0)
(-72.2587 -33.8902 0)
(-69.2183 -45.2536 0)
(-65.4026 -54.1557 0)
(-61.5422 -60.3174 0)
(-56.7862 -64.6475 0)
(-51.6508 -67.4477 0)
(-46.4004 -69.1912 0)
(-41.5701 -70.2813 0)
(-36.5062 -71.1196 0)
(-31.073 -72.1434 0)
(-25.8992 -73.2232 0)
(-20.1969 -74.1008 0)
(-14.3644 -74.7168 0)
(-8.84762 -74.9882 0)