/*--------------------------------*- C++ -*----------------------------------*\
| =========                 |                                                 |
| \\      /  F ield         | OpenFOAM: The Open Source CFD Toolbox           |
|  \\    /   O peration     | Version:  v1912                                 |
|   \\  /    A nd           | Website:  www.openfoam.com                      |
|    \\/     M anipulation  |                                                 |
\*---------------------------------------------------------------------------*/
FoamFile
{
    version     2.0;
    format      ascii;
    class       volVectorField;
    location    "6.3";
    object      grad(T);
}
// * * * * * * * * * * * * * * * * * * * * * * * * * * * * * * * * * * * * * //

dimensions      [0 -1 0 1 0 0 0];


internalField   nonuniform List<vector> 
1900
(
(0.593953 3.35682e-06 0)
(-1.40756 2.99598e-07 0)
(0.0565409 2.11898e-05 0)
(0.124499 5.12331e-05 0)
(0.126162 9.27098e-05 0)
(0.0867467 -3.65083e-05 0)
(0.0442723 -5.49352e-05 0)
(0.0188103 0.000159382 0)
(0.0055894 0.00170834 0)
(0.0217395 0.000710462 0)
(0.593957 6.32416e-06 0)
(-1.40755 4.72902e-06 0)
(0.0565918 4.22049e-05 0)
(0.12457 8.86755e-05 0)
(0.126074 0.000127007 0)
(0.086599 -0.000109239 0)
(0.0444682 -0.000169043 0)
(0.0205736 -0.000149488 0)
(0.00614048 0.000308129 0)
(-0.006973 -0.0012567 0)
(0.593964 -2.23346e-13 0)
(-1.40753 3.25261e-14 0)
(0.0566248 -3.88144e-13 0)
(0.124584 -5.30175e-13 0)
(0.125964 -3.37187e-13 0)
(0.0864506 1.09504e-13 0)
(0.044232 1.73472e-13 0)
(0.0192875 -2.30935e-13 0)
(0.00448219 -4.51028e-13 0)
(-0.011467 -3.36103e-13 0)
(0.593957 -6.32416e-06 0)
(-1.40755 -4.72902e-06 0)
(0.0565918 -4.22049e-05 0)
(0.12457 -8.86755e-05 0)
(0.126074 -0.000127007 0)
(0.086599 0.000109239 0)
(0.0444682 0.000169043 0)
(0.0205736 0.000149488 0)
(0.00614048 -0.000308129 0)
(-0.006973 0.0012567 0)
(0.593953 -3.35682e-06 0)
(-1.40756 -2.99598e-07 0)
(0.0565409 -2.11898e-05 0)
(0.124499 -5.12331e-05 0)
(0.126162 -9.27098e-05 0)
(0.0867467 3.65083e-05 0)
(0.0442723 5.49352e-05 0)
(0.0188103 -0.000159382 0)
(0.0055894 -0.00170834 0)
(0.0217395 -0.000710462 0)
(-0.00249628 -0.0230654 9.53028e-16)
(-0.0112015 -0.0197607 -1.1442e-15)
(0.0911705 -0.0321032 -1.45248e-15)
(0.371847 -0.0627155 0)
(-0.534915 -0.32704 -6.52887e-15)
(-0.021271 -0.0285814 9.4886e-16)
(-0.00608022 -0.0245973 1.1442e-15)
(0.0721601 -0.0422969 1.45248e-15)
(0.263274 -0.0711898 0)
(-0.469125 -0.365245 0)
(-0.0317094 -1.64987e-13 0)
(-0.0146301 -3.25736e-13 0)
(0.0598838 -2.68039e-13 0)
(0.233515 -1.97128e-13 0)
(-0.598724 8.38966e-14 0)
(-0.021271 0.0285814 9.4886e-16)
(-0.00608022 0.0245973 1.1442e-15)
(0.0721601 0.0422969 1.45248e-15)
(0.263274 0.0711898 0)
(-0.469125 0.365245 0)
(-0.00249628 0.0230654 -2.85075e-15)
(-0.0112015 0.0197607 -1.1442e-15)
(0.0911705 0.0321032 -1.45248e-15)
(0.371847 0.0627155 -3.99916e-15)
(-0.534915 0.32704 6.52887e-15)
(-1.91893 0.444135 2.20684e-15)
(-1.07261 0.313144 -1.58854e-15)
(-0.628798 0.244345 0)
(-0.195662 0.165105 1.00362e-15)
(-0.10302 0.153657 -4.46659e-16)
(-1.71441 0.440952 -1.11011e-15)
(-1.10165 0.205853 7.98986e-16)
(-0.659583 0.143228 0)
(-0.213275 0.0802613 -6.30976e-16)
(-0.0583132 0.0863817 1.13472e-16)
(-1.76431 -1.20467e-13 0)
(-1.15644 -4.63334e-14 0)
(-0.678983 -1.96763e-13 0)
(-0.220788 9.56649e-14 2.53357e-16)
(-0.0663429 4.12124e-14 -2.26944e-16)
(-1.71441 -0.440952 -1.11011e-15)
(-1.10165 -0.205853 7.98986e-16)
(-0.659583 -0.143228 0)
(-0.213275 -0.0802613 -6.30976e-16)
(-0.0583132 -0.0863817 1.13472e-16)
(-1.91893 -0.444135 1.11011e-15)
(-1.07261 -0.313144 -9.43087e-18)
(-0.628798 -0.244345 0)
(-0.195662 -0.165105 4.97242e-18)
(-0.10302 -0.153657 4.46659e-16)
(-0.26659 0.436606 0)
(-0.29612 0.125105 0)
(-0.0682308 -0.222271 0)
(0.446689 -0.345175 0)
(0.430673 -0.0141135 0)
(-0.00950358 0.127536 0)
(-0.0780473 0.101676 0)
(-0.0342135 0.0819256 0)
(-0.0659786 0.0567069 0)
(-0.138755 0.0395716 0)
(-0.214769 0.0290731 0)
(-0.223036 0.0184121 0)
(-0.154647 0.00826078 0)
(-0.0847269 0.00280832 0)
(-0.0567105 0.00116949 0)
(-0.0496148 0.00104032 0)
(-0.0455959 0.00166311 0)
(-0.0386741 0.00090962 0)
(-0.0275409 0.00018689 0)
(-0.0166948 -6.81502e-05 0)
(-0.00986303 -0.000102321 0)
(-0.00679641 -8.1124e-05 0)
(-0.00555682 -6.3517e-05 0)
(-0.00473722 -6.31871e-05 0)
(-0.00369156 -7.7603e-05 0)
(-0.00242558 -9.70086e-05 0)
(-0.000881066 -0.000106559 0)
(0.00103223 -0.000120507 0)
(0.00300195 -0.000127345 0)
(0.0044217 -0.000112977 0)
(0.00615588 -0.000125466 0)
(0.00781294 -9.34203e-05 0)
(0.0116923 -0.000161944 0)
(0.0168073 0.000123981 0)
(0.0230623 2.57098e-05 0)
(0.0290606 0.000315725 0)
(0.0543068 -6.82924e-05 0)
(0.154871 -0.000749371 0)
(0.19047 0.000956733 0)
(0.0746984 -0.0017324 0)
(-0.259708 0.202145 0)
(-0.372036 0.10895 0)
(-0.142263 0.00488211 0)
(0.43772 -0.142844 0)
(0.478928 -0.0450763 0)
(0.014829 0.0618111 0)
(-0.0784052 0.0552355 0)
(-0.0412952 0.0438437 0)
(-0.0765457 0.025137 0)
(-0.145365 0.0147893 0)
(-0.218118 0.0116919 0)
(-0.225323 0.00896138 0)
(-0.156148 0.00380702 0)
(-0.0853531 0.0011896 0)
(-0.0568793 0.000445203 0)
(-0.0495522 0.000328672 0)
(-0.045591 0.000722731 0)
(-0.0388217 0.000360138 0)
(-0.0276268 4.52765e-05 0)
(-0.0167133 -5.01286e-05 0)
(-0.00986261 -5.59208e-05 0)
(-0.00679314 -4.66874e-05 0)
(-0.00555499 -3.9765e-05 0)
(-0.00473793 -3.89448e-05 0)
(-0.00369423 -4.46086e-05 0)
(-0.00242789 -5.37307e-05 0)
(-0.000883016 -5.81531e-05 0)
(0.00102991 -6.57277e-05 0)
(0.00300196 -7.21388e-05 0)
(0.00442116 -6.91271e-05 0)
(0.00615723 -7.73084e-05 0)
(0.00780803 -6.60148e-05 0)
(0.011718 -0.000101295 0)
(0.0168204 5.11746e-05 0)
(0.0230732 -2.1455e-05 0)
(0.0290643 0.000135336 0)
(0.0541899 -8.70989e-05 0)
(0.154999 -0.000302908 0)
(0.19047 0.000499902 0)
(0.0744805 4.28979e-05 0)
(-0.251179 7.0966e-13 0)
(-0.353505 -3.18755e-12 0)
(-0.14148 -1.8532e-11 0)
(0.432156 9.48973e-12 0)
(0.490209 7.46621e-11 0)
(0.019678 -1.22968e-11 0)
(-0.0832742 2.07339e-11 0)
(-0.0429694 8.77415e-11 0)
(-0.0744308 5.36148e-11 0)
(-0.142667 5.23374e-12 0)
(-0.216465 -9.0659e-12 0)
(-0.22533 -7.60519e-12 0)
(-0.156908 -4.42749e-12 0)
(-0.0857049 -3.17376e-12 0)
(-0.0569609 -1.64207e-12 0)
(-0.0495341 -6.46579e-13 0)
(-0.0455868 -3.52859e-13 0)
(-0.0388712 -3.23289e-13 0)
(-0.0276603 6.93889e-13 0)
(-0.0167242 1.06449e-13 0)
(-0.00986203 -4.37623e-13 0)
(-0.00679171 -8.45678e-13 0)
(-0.00555457 -1.07632e-12 0)
(-0.00473863 -6.87976e-13 0)
(-0.00369586 -5.81527e-13 0)
(-0.00242952 -8.0231e-13 0)
(-0.000884556 -1.08026e-12 0)
(0.00102816 -6.84033e-13 0)
(0.00300097 6.70234e-14 0)
(0.0044202 -4.29738e-13 0)
(0.00615678 -1.35624e-12 0)
(0.00780596 -3.12842e-12 0)
(0.0117264 -3.47142e-12 0)
(0.0168305 1.93185e-13 0)
(0.0230868 -5.20811e-12 0)
(0.0290415 -6.64714e-12 0)
(0.0541793 -5.92172e-12 0)
(0.155041 1.61448e-12 0)
(0.190571 1.35703e-11 0)
(0.0745655 2.09251e-11 0)
(-0.259708 -0.202145 0)
(-0.372036 -0.10895 0)
(-0.142263 -0.00488211 0)
(0.43772 0.142844 0)
(0.478928 0.0450763 0)
(0.014829 -0.0618111 0)
(-0.0784052 -0.0552355 0)
(-0.0412952 -0.0438437 0)
(-0.0765457 -0.025137 0)
(-0.145365 -0.0147893 0)
(-0.218118 -0.0116919 0)
(-0.225323 -0.00896138 0)
(-0.156148 -0.00380702 0)
(-0.0853531 -0.0011896 0)
(-0.0568793 -0.000445203 0)
(-0.0495522 -0.000328672 0)
(-0.045591 -0.000722731 0)
(-0.0388217 -0.000360138 0)
(-0.0276268 -4.52765e-05 0)
(-0.0167133 5.01286e-05 0)
(-0.00986261 5.59208e-05 0)
(-0.00679314 4.66874e-05 0)
(-0.00555499 3.9765e-05 0)
(-0.00473793 3.89447e-05 0)
(-0.00369423 4.46086e-05 0)
(-0.00242789 5.37307e-05 0)
(-0.000883016 5.81531e-05 0)
(0.00102991 6.57277e-05 0)
(0.00300196 7.21388e-05 0)
(0.00442116 6.91271e-05 0)
(0.00615723 7.73084e-05 0)
(0.00780803 6.60147e-05 0)
(0.011718 0.000101295 0)
(0.0168204 -5.11747e-05 0)
(0.0230732 2.1455e-05 0)
(0.0290643 -0.000135336 0)
(0.0541899 8.70989e-05 0)
(0.154999 0.000302908 0)
(0.19047 -0.000499902 0)
(0.0744805 -4.28979e-05 0)
(-0.26659 -0.436606 0)
(-0.29612 -0.125105 0)
(-0.0682308 0.222271 0)
(0.446689 0.345175 0)
(0.430673 0.0141135 0)
(-0.00950358 -0.127536 0)
(-0.0780473 -0.101676 0)
(-0.0342135 -0.0819256 0)
(-0.0659786 -0.0567069 0)
(-0.138755 -0.0395716 0)
(-0.214769 -0.0290731 0)
(-0.223036 -0.0184121 0)
(-0.154647 -0.00826078 0)
(-0.0847269 -0.00280832 0)
(-0.0567105 -0.00116949 0)
(-0.0496148 -0.00104032 0)
(-0.0455959 -0.00166311 0)
(-0.0386741 -0.00090962 0)
(-0.0275409 -0.00018689 0)
(-0.0166948 6.81502e-05 0)
(-0.00986303 0.000102321 0)
(-0.00679641 8.1124e-05 0)
(-0.00555682 6.3517e-05 0)
(-0.00473722 6.31871e-05 0)
(-0.00369156 7.7603e-05 0)
(-0.00242558 9.70086e-05 0)
(-0.000881066 0.000106559 0)
(0.00103223 0.000120507 0)
(0.00300195 0.000127345 0)
(0.0044217 0.000112977 0)
(0.00615588 0.000125466 0)
(0.00781294 9.34203e-05 0)
(0.0116923 0.000161944 0)
(0.0168073 -0.000123981 0)
(0.0230623 -2.57098e-05 0)
(0.0290606 -0.000315725 0)
(0.0543068 6.82924e-05 0)
(0.154871 0.000749371 0)
(0.19047 -0.000956733 0)
(0.0746984 0.0017324 0)
(-0.0388131 -0.15017 0)
(-0.0465184 0.0621529 0)
(0.0671304 0.304752 0)
(0.296777 0.327729 0)
(0.238204 -0.0467088 0)
(-0.0296679 -0.146551 0)
(-0.0502086 -0.0983663 0)
(-0.0212756 -0.075498 0)
(-0.0621963 -0.0633815 0)
(-0.135673 -0.0577423 0)
(-0.208717 -0.050062 0)
(-0.214911 -0.0345613 0)
(-0.148095 -0.0157902 0)
(-0.081629 -0.00514836 0)
(-0.0559655 -0.00235492 0)
(-0.0497894 -0.00230582 0)
(-0.0455033 -0.00273902 0)
(-0.0380664 -0.00165632 0)
(-0.0271128 -0.000461205 0)
(-0.0165533 9.59356e-05 0)
(-0.00985397 0.000199842 0)
(-0.0068137 0.000163956 0)
(-0.00556413 0.000130823 0)
(-0.00472991 0.000132636 0)
(-0.0036761 0.000161421 0)
(-0.00241239 0.000197018 0)
(-0.000870532 0.000219469 0)
(0.00104026 0.000245873 0)
(0.00299724 0.000251952 0)
(0.00441935 0.000227485 0)
(0.00614652 0.000239446 0)
(0.00782524 0.000197897 0)
(0.0116113 0.000271641 0)
(0.0167179 -0.000100204 0)
(0.0229656 -0.00018534 0)
(0.0291275 -0.000553266 0)
(0.0547229 0.000386553 0)
(0.154504 0.00135385 0)
(0.191086 0.000204145 0)
(0.0759154 0.00240667 0)
(-0.016932 -0.0153233 0)
(0.00841625 0.0562509 0)
(0.115103 0.143737 0)
(0.188396 0.109167 0)
(0.0768471 -0.127036 0)
(-0.0484699 -0.156834 0)
(-0.0245064 -0.096204 0)
(-0.00743867 -0.0849731 0)
(-0.0508968 -0.0814136 0)
(-0.127573 -0.0832762 0)
(-0.195676 -0.0747901 0)
(-0.194368 -0.0515321 0)
(-0.129818 -0.022411 0)
(-0.0734414 -0.00746159 0)
(-0.0543708 -0.00406831 0)
(-0.0498913 -0.00392312 0)
(-0.0450197 -0.00375017 0)
(-0.0368051 -0.00233716 0)
(-0.0260819 -0.000710845 0)
(-0.0161336 0.000177245 0)
(-0.00980234 0.000402921 0)
(-0.00685366 0.000376295 0)
(-0.00558308 0.00033275 0)
(-0.00471165 0.000336466 0)
(-0.00363781 0.000378612 0)
(-0.00237672 0.000429088 0)
(-0.000839637 0.000468569 0)
(0.00105923 0.000510315 0)
(0.00298676 0.0005089 0)
(0.00441092 0.000472153 0)
(0.00613238 0.000482963 0)
(0.00783737 0.000437896 0)
(0.0114484 0.000512825 0)
(0.0164148 4.27422e-05 0)
(0.0226777 -0.000280145 0)
(0.0295758 -0.000663908 0)
(0.0559214 0.000827359 0)
(0.154892 0.00215855 0)
(0.191154 0.00168307 0)
(0.0761683 0.00214869 0)
(0.0301584 -0.0242609 0)
(0.106758 0.0355389 0)
(0.118122 0.0460953 0)
(0.03585 -0.0483457 0)
(-0.0181235 -0.167299 0)
(4.28922e-05 -0.132826 0)
(0.019039 -0.0875855 0)
(-0.00702308 -0.0817991 0)
(-0.0605611 -0.0914127 0)
(-0.12929 -0.101087 0)
(-0.178128 -0.0911372 0)
(-0.164437 -0.0595015 0)
(-0.105627 -0.0245119 0)
(-0.0639533 -0.00938561 0)
(-0.0525557 -0.00611257 0)
(-0.0494829 -0.00556122 0)
(-0.0439751 -0.0046502 0)
(-0.0351375 -0.00278654 0)
(-0.0246899 -0.000816114 0)
(-0.01548 0.000333911 0)
(-0.00966216 0.000690633 0)
(-0.00688132 0.000698066 0)
(-0.00560251 0.00065756 0)
(-0.00468571 0.000665978 0)
(-0.00358685 0.00071788 0)
(-0.00232571 0.000778051 0)
(-0.000792259 0.000833352 0)
(0.00107912 0.000883417 0)
(0.00296046 0.000862165 0)
(0.00439435 0.00080372 0)
(0.00611351 0.0008081 0)
(0.00785401 0.000754696 0)
(0.0112306 0.0008264 0)
(0.0159538 0.00029308 0)
(0.0222846 -0.000218358 0)
(0.0301947 -0.000561445 0)
(0.0574427 0.00108893 0)
(0.155329 0.00268257 0)
(0.191076 0.00215756 0)
(0.0763641 0.00275641 0)
(0.0406933 0.0303434 0)
(0.076214 0.0229715 0)
(0.0342692 -0.0717871 0)
(-0.0172382 -0.137382 0)
(-0.00456112 -0.14299 0)
(0.0283448 -0.0979226 0)
(0.0246649 -0.0856556 0)
(-0.0111267 -0.0934995 0)
(-0.0694833 -0.105247 0)
(-0.127308 -0.109132 0)
(-0.155603 -0.0939836 0)
(-0.130165 -0.0564228 0)
(-0.0815242 -0.0233369 0)
(-0.0557112 -0.011061 0)
(-0.0506855 -0.00810594 0)
(-0.0484821 -0.00694201 0)
(-0.0423459 -0.00524067 0)
(-0.0331104 -0.00288888 0)
(-0.023075 -0.000663502 0)
(-0.0146817 0.00063748 0)
(-0.00945143 0.00108329 0)
(-0.00688553 0.00112946 0)
(-0.005614 0.00110268 0)
(-0.00465353 0.00111817 0)
(-0.00352981 0.00117416 0)
(-0.00226545 0.00123734 0)
(-0.000738102 0.00129791 0)
(0.001087 0.00133389 0)
(0.00290997 0.00128212 0)
(0.00435882 0.00119048 0)
(0.00608514 0.00116643 0)
(0.00785501 0.00109409 0)
(0.0110036 0.00112186 0)
(0.0154081 0.000605329 0)
(0.0218542 -2.82877e-05 0)
(0.0308356 -0.00029799 0)
(0.0590475 0.00118017 0)
(0.155921 0.002824 0)
(0.191226 0.00199512 0)
(0.0767454 0.00276449 0)
(0.0230545 0.0214904 0)
(0.00834153 -0.0569184 0)
(-0.0364009 -0.136776 0)
(-0.032764 -0.135235 0)
(0.0199014 -0.105777 0)
(0.0552927 -0.0813969 0)
(0.0233013 -0.085058 0)
(-0.0259021 -0.101489 0)
(-0.0756252 -0.111491 0)
(-0.118436 -0.108682 0)
(-0.127335 -0.085944 0)
(-0.0963589 -0.0468485 0)
(-0.0619146 -0.0210923 0)
(-0.0492761 -0.0120731 0)
(-0.0485865 -0.00945628 0)
(-0.0467218 -0.00770314 0)
(-0.0400693 -0.00528763 0)
(-0.0307268 -0.00256474 0)
(-0.0212917 -0.000167023 0)
(-0.0137968 0.00119412 0)
(-0.00918807 0.00168593 0)
(-0.00686263 0.00176522 0)
(-0.00561339 0.00175611 0)
(-0.00461683 0.00177988 0)
(-0.00347201 0.00183665 0)
(-0.00220645 0.00189795 0)
(-0.000699218 0.00195065 0)
(0.0010639 0.00195295 0)
(0.00282227 0.00186862 0)
(0.00428287 0.00173934 0)
(0.00602062 0.0016751 0)
(0.00781107 0.00157537 0)
(0.0107596 0.00154815 0)
(0.0148455 0.0010767 0)
(0.0214141 0.000450932 0)
(0.0313592 0.000223486 0)
(0.0604512 0.00166198 0)
(0.156114 0.00308248 0)
(0.191019 0.00182292 0)
(0.0771055 0.00178242 0)
(-0.0348643 0.00306432 0)
(-0.0762973 -0.0947485 0)
(-0.0411996 -0.127968 0)
(0.0126337 -0.0961765 0)
(0.0473192 -0.0652923 0)
(0.0483103 -0.069451 0)
(0.00530382 -0.0911857 0)
(-0.0365981 -0.103136 0)
(-0.0764148 -0.108346 0)
(-0.10269 -0.0988856 0)
(-0.0960182 -0.0699254 0)
(-0.067672 -0.0364875 0)
(-0.0480133 -0.0190021 0)
(-0.0444983 -0.0127777 0)
(-0.0464744 -0.0104114 0)
(-0.044465 -0.00803046 0)
(-0.0373943 -0.00496147 0)
(-0.028176 -0.00188724 0)
(-0.0194528 0.000558996 0)
(-0.0128961 0.00192199 0)
(-0.0089011 0.00243127 0)
(-0.00681789 0.00253917 0)
(-0.00559988 0.00254971 0)
(-0.00457591 0.00258109 0)
(-0.00341604 0.00263382 0)
(-0.0021556 0.00268452 0)
(-0.000685106 0.00271111 0)
(0.00100795 0.00265613 0)
(0.00270413 0.00252765 0)
(0.00417233 0.00234721 0)
(0.00592713 0.00222385 0)
(0.00773267 0.0020764 0)
(0.010523 0.00197902 0)
(0.0143507 0.00154436 0)
(0.021032 0.000978878 0)
(0.0320026 0.000792458 0)
(0.0618025 0.00219319 0)
(0.156076 0.00332405 0)
(0.189973 0.00146854 0)
(0.0767063 0.00157817 0)
(-0.0712015 -0.000621746 0)
(-0.117926 -0.0565057 0)
(-0.037777 -0.0711277 0)
(0.0276322 -0.0651931 0)
(0.0456551 -0.0499433 0)
(0.0303409 -0.0747204 0)
(-0.00915926 -0.0906379 0)
(-0.0424384 -0.0983784 0)
(-0.0715289 -0.0986234 0)
(-0.0814125 -0.0819953 0)
(-0.067206 -0.0523583 0)
(-0.0472873 -0.0284014 0)
(-0.039067 -0.016988 0)
(-0.0409979 -0.012885 0)
(-0.0440119 -0.0106227 0)
(-0.04147 -0.0076455 0)
(-0.0341495 -0.00411878 0)
(-0.0254071 -0.00071255 0)
(-0.017621 0.00167151 0)
(-0.0119926 0.00297632 0)
(-0.00859333 0.0034758 0)
(-0.0067485 0.00360196 0)
(-0.00557299 0.00362751 0)
(-0.00453578 0.00366103 0)
(-0.00337234 0.00370353 0)
(-0.00213197 0.00373712 0)
(-0.000726573 0.00371338 0)
(0.00088711 0.00358315 0)
(0.00252458 0.00341031 0)
(0.00399012 0.00316635 0)
(0.00575966 0.00296808 0)
(0.00757513 0.00275365 0)
(0.0102469 0.00257884 0)
(0.0138817 0.00215995 0)
(0.0206896 0.00167793 0)
(0.0325294 0.00150735 0)
(0.0628907 0.00285473 0)
(0.155416 0.00375661 0)
(0.189336 0.00182479 0)
(0.0772111 0.00218418 0)
(-0.0887161 -0.00506654 0)
(-0.144239 -0.0326993 0)
(-0.0495711 -0.0496068 0)
(0.0330478 -0.0590744 0)
(0.0381385 -0.0456933 0)
(0.00909547 -0.0759879 0)
(-0.0174939 -0.0848703 0)
(-0.0442932 -0.0892727 0)
(-0.0606274 -0.0830994 0)
(-0.0581072 -0.0615278 0)
(-0.0443732 -0.0374654 0)
(-0.0335879 -0.0221855 0)
(-0.0330612 -0.0151428 0)
(-0.0383645 -0.0125573 0)
(-0.0414254 -0.0102226 0)
(-0.0381976 -0.00672076 0)
(-0.0307135 -0.00286613 0)
(-0.0225963 0.000500095 0)
(-0.0158981 0.00278573 0)
(-0.0111574 0.00399368 0)
(-0.00829821 0.00447652 0)
(-0.0066717 0.00462298 0)
(-0.00554295 0.00467068 0)
(-0.00450266 0.0047172 0)
(-0.00334272 0.00476339 0)
(-0.00214611 0.00478288 0)
(-0.000833477 0.00470595 0)
(0.000715906 0.00453473 0)
(0.00230249 0.0043302 0)
(0.00374618 0.00405028 0)
(0.00552943 0.00379769 0)
(0.00735759 0.00354028 0)
(0.00995093 0.00331878 0)
(0.0134826 0.00294361 0)
(0.0204031 0.0025701 0)
(0.0331366 0.00233693 0)
(0.06397 0.00364506 0)
(0.155084 0.00440367 0)
(0.188458 0.00288948 0)
(0.0770527 0.00331533 0)
(-0.0978295 -0.00782556 0)
(-0.160846 -0.0231661 0)
(-0.0631929 -0.0374567 0)
(0.0314034 -0.0496395 0)
(0.0293567 -0.0516492 0)
(-0.00741151 -0.0699353 0)
(-0.021961 -0.076924 0)
(-0.0407319 -0.0760574 0)
(-0.0447929 -0.0630892 0)
(-0.037438 -0.0428379 0)
(-0.0292943 -0.0264305 0)
(-0.0257764 -0.017268 0)
(-0.0297889 -0.0135982 0)
(-0.0362565 -0.0119991 0)
(-0.0383876 -0.00942459 0)
(-0.0343811 -0.00547253 0)
(-0.0271912 -0.00125549 0)
(-0.0199608 0.00190665 0)
(-0.0142545 0.00405297 0)
(-0.0103633 0.00515623 0)
(-0.00798691 0.00562115 0)
(-0.00656139 0.00578547 0)
(-0.0054822 0.00585106 0)
(-0.00444644 0.00590316 0)
(-0.00330905 0.00593749 0)
(-0.00218732 0.00591528 0)
(-0.000965694 0.00579657 0)
(0.000525024 0.00560796 0)
(0.00205774 0.00534213 0)
(0.00347698 0.00503484 0)
(0.00526821 0.0047468 0)
(0.00711364 0.00445861 0)
(0.00967191 0.00421684 0)
(0.0131602 0.00389091 0)
(0.020105 0.00362557 0)
(0.0335652 0.00328301 0)
(0.0648823 0.00446107 0)
(0.154688 0.00526781 0)
(0.188288 0.00380674 0)
(0.0776215 0.00513407 0)
(-0.103499 -0.0031369 0)
(-0.172793 -0.0139805 0)
(-0.0750818 -0.0276816 0)
(0.0193714 -0.0392542 0)
(0.0185806 -0.0592111 0)
(-0.0152602 -0.0627325 0)
(-0.0233934 -0.0662599 0)
(-0.0309615 -0.0579945 0)
(-0.0286158 -0.0426964 0)
(-0.0227816 -0.0286807 0)
(-0.0197332 -0.0187878 0)
(-0.0212221 -0.0138733 0)
(-0.0279839 -0.0123593 0)
(-0.0343427 -0.0110172 0)
(-0.0351361 -0.00796341 0)
(-0.0303256 -0.00373504 0)
(-0.0236026 0.000294965 0)
(-0.0174808 0.00325208 0)
(-0.0127667 0.00513847 0)
(-0.00964625 0.00611312 0)
(-0.00769184 0.00655915 0)
(-0.00645015 0.006763 0)
(-0.00542955 0.00688497 0)
(-0.00441937 0.00698499 0)
(-0.00333104 0.0070454 0)
(-0.0022819 0.00702885 0)
(-0.00112962 0.00693501 0)
(0.000277988 0.00677156 0)
(0.00175021 0.00647786 0)
(0.0031725 0.00617422 0)
(0.00497415 0.00589193 0)
(0.0068469 0.00561851 0)
(0.00940388 0.00540423 0)
(0.0129128 0.0051593 0)
(0.0198174 0.00502654 0)
(0.0339417 0.00468335 0)
(0.0658826 0.00582806 0)
(0.154453 0.00679811 0)
(0.188329 0.00527236 0)
(0.0783317 0.00699456 0)
(-0.108279 0.000157683 0)
(-0.184498 -0.00792345 0)
(-0.0875476 -0.0230011 0)
(0.00102038 -0.0347164 0)
(0.00673211 -0.0575909 0)
(-0.014204 -0.0533454 0)
(-0.0173953 -0.0487612 0)
(-0.0180253 -0.0380192 0)
(-0.0165451 -0.0268298 0)
(-0.0143988 -0.0184378 0)
(-0.0150253 -0.0128635 0)
(-0.0195817 -0.0108883 0)
(-0.0270367 -0.0106706 0)
(-0.0320205 -0.0094297 0)
(-0.0313702 -0.00576861 0)
(-0.026423 -0.0012696 0)
(-0.0204582 0.00230561 0)
(-0.0152934 0.00498258 0)
(-0.0114975 0.00658937 0)
(-0.00899425 0.00744291 0)
(-0.00736067 0.0078678 0)
(-0.00624742 0.00809223 0)
(-0.00526827 0.00824248 0)
(-0.00429184 0.00836175 0)
(-0.00326679 0.00842975 0)
(-0.0022937 0.00842515 0)
(-0.00121363 0.0083542 0)
(8.44979e-05 0.00821431 0)
(0.00148212 0.00792556 0)
(0.00291235 0.00764014 0)
(0.00473271 0.00738686 0)
(0.00664368 0.00715008 0)
(0.0092294 0.00699417 0)
(0.0127963 0.0068381 0)
(0.0196463 0.00683689 0)
(0.0343376 0.00660455 0)
(0.0669202 0.00765315 0)
(0.154152 0.00860022 0)
(0.188477 0.0065336 0)
(0.0792811 0.00892611 0)
(-0.111286 -0.00104205 0)
(-0.19511 -0.00593857 0)
(-0.1009 -0.021946 0)
(-0.0139606 -0.0331783 0)
(0.000628989 -0.0420499 0)
(-0.00675149 -0.0360306 0)
(-0.0086245 -0.0283986 0)
(-0.00982764 -0.0216274 0)
(-0.00974642 -0.0156557 0)
(-0.00932321 -0.0111626 0)
(-0.0124583 -0.00853049 0)
(-0.0191089 -0.00830045 0)
(-0.0265783 -0.00851278 0)
(-0.029619 -0.00669485 0)
(-0.0272728 -0.00282754 0)
(-0.022545 0.00135548 0)
(-0.0175778 0.00462506 0)
(-0.0133529 0.00691654 0)
(-0.0103958 0.00823223 0)
(-0.00841431 0.00893654 0)
(-0.00706613 0.0093398 0)
(-0.00608909 0.00962539 0)
(-0.00516983 0.00985825 0)
(-0.00423891 0.0100372 0)
(-0.00326995 0.0101367 0)
(-0.00235471 0.0101522 0)
(-0.00133279 0.0100874 0)
(-0.000135069 0.00994053 0)
(0.00119692 0.00964948 0)
(0.00265339 0.00938958 0)
(0.00450191 0.00916789 0)
(0.00646849 0.00897916 0)
(0.00910325 0.00889644 0)
(0.0127612 0.00884131 0)
(0.0195923 0.00897695 0)
(0.0347283 0.00890428 0)
(0.0678057 0.00987907 0)
(0.153375 0.0105466 0)
(0.188643 0.00735313 0)
(0.0806372 0.0104825 0)
(-0.112997 -0.00103003 0)
(-0.204642 -0.00294885 0)
(-0.113797 -0.0172358 0)
(-0.0183525 -0.0245973 0)
(0.00398353 -0.0219578 0)
(-0.00104913 -0.01859 0)
(-0.00351585 -0.014143 0)
(-0.00574571 -0.0106889 0)
(-0.00646083 -0.00709801 0)
(-0.00753277 -0.00502671 0)
(-0.0122672 -0.00480375 0)
(-0.0195646 -0.00595389 0)
(-0.0254895 -0.00563399 0)
(-0.026542 -0.00239773 0)
(-0.0236126 0.00178395 0)
(-0.0192414 0.00561449 0)
(-0.0150993 0.0088153 0)
(-0.0118174 0.0109998 0)
(-0.00955092 0.0123339 0)
(-0.00792696 0.0130842 0)
(-0.00669687 0.0134876 0)
(-0.00574782 0.0136775 0)
(-0.00487141 0.0137193 0)
(-0.00402349 0.0136583 0)
(-0.00315596 0.0135243 0)
(-0.00234121 0.0133588 0)
(-0.00141765 0.0131447 0)
(-0.000337515 0.0128836 0)
(0.000951213 0.0125306 0)
(0.00244827 0.0122857 0)
(0.0043372 0.0120671 0)
(0.0063821 0.0119044 0)
(0.00909656 0.0118834 0)
(0.0128739 0.0119229 0)
(0.019707 0.0121647 0)
(0.0352069 0.0123068 0)
(0.0685027 0.013267 0)
(0.151718 0.0133158 0)
(0.188415 0.00818549 0)
(0.0822966 0.0112019 0)
(-0.113135 0.000174594 0)
(-0.210726 -0.000201862 0)
(-0.121762 -0.00780883 0)
(-0.0185108 -0.00986257 0)
(0.00641784 -0.00697849 0)
(0.000779071 -0.00604229 0)
(-0.0010107 -0.00369601 0)
(-0.00303881 -0.00200667 0)
(-0.0042901 -2.32078e-05 0)
(-0.00711238 0.000243104 0)
(-0.0133518 -0.000972039 0)
(-0.019909 -0.00181664 0)
(-0.0231515 -0.00011134 0)
(-0.0224708 0.00359602 0)
(-0.0195519 0.00787802 0)
(-0.0157693 0.0116857 0)
(-0.0123884 0.014733 0)
(-0.00996222 0.0168102 0)
(-0.0083872 0.0180864 0)
(-0.00730253 0.0187781 0)
(-0.00649436 0.0191256 0)
(-0.00586581 0.0192423 0)
(-0.00518835 0.0191432 0)
(-0.00442682 0.0188495 0)
(-0.00355848 0.0184366 0)
(-0.00272057 0.0180153 0)
(-0.00179074 0.0175882 0)
(-0.000726814 0.0172082 0)
(0.000620751 0.016838 0)
(0.00220672 0.0166133 0)
(0.00413447 0.0164388 0)
(0.00629152 0.0163887 0)
(0.0091211 0.0165277 0)
(0.0130323 0.0167577 0)
(0.0199622 0.0172144 0)
(0.0357905 0.0177083 0)
(0.068778 0.0187045 0)
(0.148478 0.0176714 0)
(0.186606 0.00946309 0)
(0.083544 0.0115586 0)
(-0.11336 0.00201825 0)
(-0.212335 0.00354928 0)
(-0.123106 0.0041342 0)
(-0.0175523 0.00463545 0)
(0.00766489 0.00638784 0)
(0.00211399 0.00699538 0)
(0.00037302 0.00856571 0)
(-0.00220646 0.00897647 0)
(-0.00429287 0.00940524 0)
(-0.00844709 0.00808427 0)
(-0.014252 0.00654989 0)
(-0.0187352 0.00686379 0)
(-0.0202737 0.0092255 0)
(-0.0188432 0.0126909 0)
(-0.0158171 0.0163305 0)
(-0.0126357 0.019485 0)
(-0.0101611 0.0217859 0)
(-0.00858593 0.0233362 0)
(-0.00765458 0.0243364 0)
(-0.00692555 0.0249461 0)
(-0.00624961 0.0252756 0)
(-0.0057309 0.0253843 0)
(-0.00524991 0.0253483 0)
(-0.00470432 0.025235 0)
(-0.00395981 0.025082 0)
(-0.00315882 0.0249608 0)
(-0.00219539 0.024816 0)
(-0.00106037 0.0247592 0)
(0.000377967 0.0246334 0)
(0.00206352 0.0244254 0)
(0.00412074 0.0243156 0)
(0.00646778 0.0243641 0)
(0.00945215 0.0246325 0)
(0.0135356 0.0250866 0)
(0.020623 0.0258235 0)
(0.0366428 0.0267379 0)
(0.0684672 0.0276726 0)
(0.142813 0.0249338 0)
(0.182525 0.0124037 0)
(0.084316 0.0130506 0)
(-0.11166 0.00334881 0)
(-0.208687 0.0129048 0)
(-0.120715 0.0253837 0)
(-0.0163392 0.0260897 0)
(0.00869196 0.0269687 0)
(0.00287775 0.0259882 0)
(0.000898346 0.025511 0)
(-0.00222982 0.0242801 0)
(-0.00514986 0.0227719 0)
(-0.0098639 0.0204342 0)
(-0.0145279 0.0190318 0)
(-0.0173307 0.0194659 0)
(-0.0175363 0.0212104 0)
(-0.0156241 0.023609 0)
(-0.0130048 0.025714 0)
(-0.0105123 0.0272077 0)
(-0.00867719 0.0280006 0)
(-0.00750444 0.0283908 0)
(-0.00683591 0.0286746 0)
(-0.00639748 0.0290538 0)
(-0.00607202 0.0296567 0)
(-0.0057958 0.0304945 0)
(-0.00533223 0.0315169 0)
(-0.00468339 0.0326561 0)
(-0.00382275 0.0337876 0)
(-0.00297696 0.035037 0)
(-0.00198497 0.0360872 0)
(-0.000902774 0.037224 0)
(0.000299024 0.0381061 0)
(0.00190053 0.0388769 0)
(0.00407541 0.0396342 0)
(0.0065969 0.0403713 0)
(0.00981738 0.0412037 0)
(0.01418 0.0421046 0)
(0.0215534 0.0431425 0)
(0.0375724 0.0442113 0)
(0.0670396 0.0438878 0)
(0.133764 0.0376061 0)
(0.175155 0.0170996 0)
(0.0841674 0.0105527 0)
(-0.104152 -0.0491274 0)
(-0.191102 0.011481 0)
(-0.110401 0.0514966 0)
(-0.016025 0.0510409 0)
(0.00756709 0.0512886 0)
(0.000709301 0.0477773 0)
(-0.00127296 0.044919 0)
(-0.00484595 0.04138 0)
(-0.00799897 0.0378134 0)
(-0.0120513 0.0351116 0)
(-0.0151851 0.0341704 0)
(-0.0166358 0.0354525 0)
(-0.0162812 0.0381736 0)
(-0.0145033 0.0412396 0)
(-0.0123493 0.0437971 0)
(-0.0104323 0.0455807 0)
(-0.009021 0.0467514 0)
(-0.00793642 0.0476319 0)
(-0.00701573 0.0485064 0)
(-0.00597918 0.0496467 0)
(-0.00486134 0.051332 0)
(-0.00393825 0.0535863 0)
(-0.00316688 0.0561407 0)
(-0.00251622 0.0587025 0)
(-0.00166552 0.0610847 0)
(-0.000942825 0.0632951 0)
(-8.79314e-05 0.0652077 0)
(0.000885052 0.0671182 0)
(0.00197083 0.0687122 0)
(0.00353613 0.0704159 0)
(0.00556072 0.0720872 0)
(0.00798018 0.0735875 0)
(0.0111225 0.0749107 0)
(0.0154039 0.0757007 0)
(0.022653 0.0756926 0)
(0.037361 0.0744425 0)
(0.0621023 0.069511 0)
(0.116999 0.0565318 0)
(0.156455 0.00673777 0)
(0.0780071 -0.0600297 0)
(-0.0532553 -0.628932 0)
(-0.111722 -0.155087 0)
(-0.0825937 0.0522964 0)
(-0.0165397 0.07595 0)
(0.00554702 0.0758151 0)
(-0.00326019 0.0749937 0)
(-0.0052663 0.074361 0)
(-0.009077 0.0743451 0)
(-0.0111903 0.0747087 0)
(-0.0133744 0.0770881 0)
(-0.0141993 0.0811894 0)
(-0.0134731 0.0872001 0)
(-0.0119596 0.0943069 0)
(-0.0102051 0.101825 0)
(-0.00882166 0.109 0)
(-0.00766535 0.115717 0)
(-0.00670055 0.122141 0)
(-0.00581333 0.128333 0)
(-0.00489438 0.134167 0)
(-0.00367455 0.139268 0)
(-0.00227567 0.143596 0)
(-0.00116198 0.147191 0)
(-0.000402109 0.149979 0)
(8.08114e-05 0.152136 0)
(0.000602849 0.15395 0)
(0.000996101 0.155581 0)
(0.00169912 0.156475 0)
(0.00247428 0.157546 0)
(0.00347685 0.158181 0)
(0.00515279 0.15884 0)
(0.00713166 0.159218 0)
(0.00931772 0.15907 0)
(0.0118538 0.158083 0)
(0.0149334 0.155482 0)
(0.0203409 0.150246 0)
(0.0316157 0.141773 0)
(0.0497801 0.12503 0)
(0.0732735 0.0831375 0)
(0.0628318 -0.156286 0)
(0.0198278 -0.613202 0)
(0.352462 -0.660979 0)
(0.465355 -0.576389 0)
(0.112235 0.019725 0)
(0.00663856 0.105731 0)
(0.00664554 0.106479 0)
(-0.000691947 0.10819 0)
(-0.00189804 0.111182 0)
(-0.00451095 0.11371 0)
(-0.00535567 0.116827 0)
(-0.0058062 0.121364 0)
(-0.00544074 0.127545 0)
(-0.0039953 0.134561 0)
(-0.00218794 0.142 0)
(-0.000344738 0.149407 0)
(0.00103737 0.156803 0)
(0.00223077 0.163943 0)
(0.00313601 0.170664 0)
(0.00365262 0.176992 0)
(0.00352182 0.18307 0)
(0.00310648 0.188316 0)
(0.00277358 0.191305 0)
(0.00221296 0.192119 0)
(0.00159815 0.192187 0)
(0.00131097 0.192144 0)
(0.00165417 0.191976 0)
(0.00148984 0.191529 0)
(0.00180531 0.191751 0)
(0.00252905 0.191578 0)
(0.00321787 0.19173 0)
(0.00453581 0.191809 0)
(0.00578244 0.192033 0)
(0.0068862 0.192145 0)
(0.00766552 0.191912 0)
(0.00785165 0.190462 0)
(0.0094423 0.187053 0)
(0.0130619 0.18044 0)
(0.0055989 0.16209 0)
(-0.154088 0.0741527 0)
(-0.514563 -0.507993 0)
(-0.362294 -0.627035 0)
(0.0282582 -0.0827114 0)
(0.544228 -0.419149 0)
(0.574722 -0.000861259 0)
(0.06706 0.0607897 0)
(0.00791598 0.0618403 0)
(0.00127151 0.0621081 0)
(5.35187e-05 0.0638778 0)
(-0.00363717 0.0641333 0)
(-0.00381473 0.0647846 0)
(-0.00304618 0.0657324 0)
(-0.00148257 0.0676487 0)
(0.000455923 0.0698399 0)
(0.00234684 0.0722679 0)
(0.00405967 0.0745458 0)
(0.00518603 0.0768385 0)
(0.0056914 0.0788511 0)
(0.00587326 0.0804298 0)
(0.00614198 0.0816916 0)
(0.00601837 0.0830131 0)
(0.004261 0.0842824 0)
(0.00138888 0.0842112 0)
(-0.000311732 0.0828454 0)
(-0.000378274 0.0815912 0)
(-0.000122581 0.0807944 0)
(1.02093e-05 0.0801035 0)
(0.00077912 0.0790884 0)
(0.00174635 0.079366 0)
(0.00245394 0.0790272 0)
(0.00369946 0.0792881 0)
(0.00544435 0.079527 0)
(0.00745583 0.0802309 0)
(0.00920134 0.0812635 0)
(0.0102316 0.0826334 0)
(0.0102509 0.0839264 0)
(0.010684 0.0851232 0)
(0.0075605 0.085215 0)
(-0.0526426 0.0794142 0)
(-0.572443 0.0247757 0)
(-0.612858 -0.354728 0)
(-0.0948853 -0.0772286 0)
(0.0282582 0.0827114 0)
(0.544228 0.419149 0)
(0.574722 0.000861259 0)
(0.06706 -0.0607897 0)
(0.00791598 -0.0618403 0)
(0.00127151 -0.0621081 0)
(5.35187e-05 -0.0638778 0)
(-0.00363717 -0.0641333 0)
(-0.00381473 -0.0647846 0)
(-0.00304618 -0.0657324 0)
(-0.00148257 -0.0676487 0)
(0.000455923 -0.0698399 0)
(0.00234684 -0.0722679 0)
(0.00405967 -0.0745458 0)
(0.00518603 -0.0768385 0)
(0.0056914 -0.0788511 0)
(0.00587326 -0.0804298 0)
(0.00614198 -0.0816916 0)
(0.00601837 -0.0830131 0)
(0.004261 -0.0842824 0)
(0.00138888 -0.0842112 0)
(-0.000311733 -0.0828454 0)
(-0.000378274 -0.0815912 0)
(-0.000122581 -0.0807944 0)