/*--------------------------------*- C++ -*----------------------------------*\
| =========                 |                                                 |
| \\      /  F ield         | OpenFOAM: The Open Source CFD Toolbox           |
|  \\    /   O peration     | Version:  v1912                                 |
|   \\  /    A nd           | Website:  www.openfoam.com                      |
|    \\/     M anipulation  |                                                 |
\*---------------------------------------------------------------------------*/
FoamFile
{
    version     2.0;
    format      ascii;
    class       labelField;
    location    "0.00035/lagrangian/dsmc";
    object      origId;
}
// * * * * * * * * * * * * * * * * * * * * * * * * * * * * * * * * * * * * * //


13023
(
331206
334040
337890
343610
346512
347449
347463
351298
356117
358983
359915
359952
360902
361059
362759
363055
365677
366701
367635
368527
368609
371387
371417
371491
372342
372384
372393
374332
376256
376375
376472
377172
377190
377211
377350
378335
379124
380049
380090
380097
381036
381047
382000
382035
382050
382146
383860
383947
383997
384865
384880
384889
384894
386740
386807
386808
386831
387719
387741
388682
388693
388745
388752
388931
389618
389620
389667
389812
390577
390672
390727
390825
391536
391579
391792
392484
392500
392518
392523
392527
393457
393470
393487
393507
393532
394375
394435
394442
395385
396340
396367
396389
396596
397325
397378
397387
397395
398450
399206
399237
399249
399255
399269
399471
400218
400232
401143
401163
401178
401191
401197
401200
401217
401332
402082
402085
402092
402096
402102
402118
402134
402149
402151
402154
402337
402341
403049
403094
403329
404127
404140
404951
404969
404973
404979
405005
405035
405052
405057
405982
405984
405987
406132
406222
406921
406943
406956
406976
406985
407078
407088
407838
407853
407861
407875
407893
407903
407908
407963
408787
408791
408794
408801
408811
408828
408840
408873
408906
408937
409777
409783
409794
409822
409824
409827
409831
409838
409865
409894
410026
410734
410761
410764
410774
410780
410818
410875
410889
410962
411661
411663
411686
411719
411733
411754
411762
411769
411942
412029
412672
412686
412699
413610
413612
413630
413631
413635
413665
413666
413667
413685
414534
414545
414555
414557
414564
414573
414583
414586
414587
414607
414611
414616
414625
414630
414642
414813
415496
415530
415531
415546
415548
415553
415564
415568
415575
415598
415605
415606
415610
415613
415813
416461
416486
416508
416513
416533
416540
416543
416576
416586
416739
417447
417450
417464
417483
417489
417496
417500
417525
417526
417537
417711
418385
418412
418421
418422
418438
418446
418453
418458
418467
418484
418488
418492
418497
418547
418552
418612
418721
419333
419355
419365
419373
419381
419391
419405
419407
419408
419409
419448
419474
419482
419589
419591
419610
420320
420330
420379
420386
420391
420399
420406
420420
420512
421270
421283
421288
421290
421295
421298
421303
421329
421348
421353
421356
421382
421412
421417
421528
421545
422216
422218
422241
422258
422266
422275
422283
422292
422304
422323
422327
422331
422347
422357
422432
422447
423167
423170
423184
423190
423194
423197
423208
423211
423213
423221
423227
423228
423231
423237
423241
423249
423253
423258
423259
423265
423273
423275
423278
423302
423308
423338
423388
423446
424147
424151
424158
424162
424170
424195
424202
424208
424222
424229
424248
424254
424261
424342
424356
424379
425077
425104
425108
425109
425121
425128
425131
425143
425148
425150
425152
425158
425161
425163
425173
425176
425184
425192
425202
425214
425258
425316
425356
426051
426060
426062
426074
426079
426082
426085
426094
426113
426122
426123
426126
426160
426162
426166
426201
426228
426284
427052
427059
427069
427071
427074
427079
427083
427085
427086
427091
427092
427094
427103
427104
427105
427109
427112
427125
427149
427152
427159
427253
427297
427975
427997
428002
428004
428007
428013
428027
428028
428034
428042
428048
428053
428060
428069
428082
428085
428095
428140
428192
428255
428935
428950
428955
428959
428961
428974
428976
428983
428995
428998
429000
429003
429016
429019
429038
429055
429163
429183
429199
429912
429913
429923
429937
429938
429952
429960
429962
429968
429974
429976
429982
429983
429984
429987
429988
429996
430000
430002
430009
430011
430138
430157
430851
430868
430878
430895
430896
430897
430906
430907
430909
430912
430916
430918
430921
430922
430924
430929
430937
430938
430941
430945
430947
430963
430966
430967
430968
430984
431071
431072
431101
431227
431848
431849
431850
431857
431860
431864
431873
431883
431885
431888
431891
431893
431904
431906
431911
431916
431917
431931
431935
431936
432035
432073
432112
432778
432786
432796
432803
432806
432815
432832
432844
432857
432863
432865
432866
432869
432874
432882
432888
432990
433011
433013
433043
433130
433164
433730
433732
433734
433743
433750
433754
433755
433757
433763
433775
433776
433792
433798
433799
433804
433808
433811
433812
433818
433831
433842
433843
433856
433857
433860
433869
433870
433873
433879
433880
433886
433891
433953
433968
433970
433971
433972
433974
433979
434018
434688
434691
434696
434700
434713
434715
434717
434719
434733
434734
434742
434746
434749
434771
434780
434782
434785
434786
434787
434792
434842
434844
434898
434914
434923
434960
435000
435648
435671
435673
435674
435678
435683
435688
435691
435716
435720
435722
435724
435727
435731
435735
435738
435740
435742
435752
435757
435759
435760
435763
435776
435867
435868
435893
435918
435940
436617
436618
436629
436633
436638
436639
436648
436649
436652
436653
436666
436669
436670
436676
436679
436680
436681
436686
436688
436690
436695
436696
436707
436709
436725
436735
436736
436738
436745
436769
436778
436828
436857
436893
436903
436946
437568
437570
437574
437575
437576
437581
437589
437591
437596
437600
437605
437616
437619
437620
437632
437635
437639
437640
437643
437650
437652
437655
437657
437659
437661
437677
437678
437682
437683
437688
437691
437720
437784
437788
437797
437804
437821
437824
437849
437886
438505
438512
438516
438521
438524
438527
438533
438541
438546
438549
438565
438568
438570
438598
438600
438604
438606
438610
438611
438613
438617
438618
438625
438627
438628
438676
438677
438737
438748
438783
438784
438785
438798
438805
438817
438832
439470
439481
439482
439492
439497
439499
439502
439503
439505
439515
439519
439520
439524
439525
439532
439535
439536
439540
439546
439553
439559
439565
439566
439568
439570
439572
439578
439584
439587
439589
439597
439603
439605
439610
439615
439618
439623
439644
439650
439708
439713
439721
439740
439762
440450
440466
440470
440471
440477
440479
440480
440481
440482
440484
440500
440502
440515
440528
440541
440550
440553
440554
440559
440562
440567
440568
440572
440582
440589
440609
440611
440661
440695
440713
440722
441407
441415
441438
441445
441446
441450
441452
441453
441459
441461
441462
441463
441465
441467
441470
441473
441479
441480
441481
441488
441492
441501
441504
441506
441508
441510
441512
441523
441524
441525
441530
441543
441546
441551
441554
441590
441635
441651
441654
441670
441680
441692
442359
442364
442367
442371
442372
442378
442379
442381
442389
442390
442394
442397
442398
442401
442411
442412
442413
442415
442416
442417
442423
442424
442426
442427
442428
442429
442431
442438
442439
442440
442444
442445
442447
442453
442458
442463
442465
442466
442469
442477
442482
442485
442499
442584
442587
442598
442604
442617
442634
442636
442667
443313
443332
443339
443340
443348
443349
443350
443351
443352
443355
443357
443362
443363
443366
443370
443381
443382
443388
443396
443398
443399
443400
443409
443411
443413
443416
443420
443430
443432
443433
443441
443442
443455
443464
443545
443561
443568
443574
443580
443597
443603
443615
444278
444283
444288
444289
444290
444299
444302
444304
444305
444306
444307
444308
444312
444315
444319
444322
444326
444328
444332
444338
444339
444343
444344
444348
444349
444352
444354
444355
444359
444365
444369
444372
444376
444382
444386
444388
444408
444420
444433
444447
444492
444494
444500
444502
444507
444510
444513
444516
444539
444542
444545
444552
444573
444574
444589
445224
445227
445232
445235
445236
445238
445241
445242
445246
445253
445269
445270
445274
445275
445277
445282
445284
445285
445294
445295
445303
445306
445312
445313
445317
445333
445334
445335
445339
445341
445342
445343
445348
445349
445360
445361
445377
445398
445404
445452
445454
445460
445480
445485
445488
445503
445510
445514
445549
445709
446183
446187
446210
446214
446223
446224
446229
446230
446231
446235
446236
446239
446241
446242
446244
446249
446251
446262
446265
446266
446275
446276
446277
446278
446284
446285
446288
446289
446296
446297
446298
446300
446304
446308
446310
446311
446315
446320
446323
446338
446369
446419
446423
446441
446443
446450
446474
446478
446493
446494
446495
446497
446502
447162
447172
447174
447175
447179
447190
447193
447199
447200
447201
447203
447204
447205
447207
447208
447209
447212
447215
447216
447218
447220
447221
447222
447226
447233
447234
447235
447236
447237
447242
447245
447246
447248
447249
447252
447256
447257
447259
447261
447263
447268
447272
447275
447276
447277
447280
447281
447286
447292
447297
447300
447302
447306
447309
447311
447312
447319
447341
447342
447382
447389
447410
447414
447419
447433
447446
447464
447480
447518
448134
448135
448139
448149
448155
448159
448160
448161
448165
448166
448167
448169
448170
448171
448172
448173
448176
448179
448180
448181
448182
448183
448185
448189
448195
448198
448203
448204
448205
448209
448210
448221
448223
448227
448228
448231
448232
448235
448240
448244
448249
448253
448255
448258
448266
448270
448275
448295
448317
448318
448319
448355
448363
448369
448380
448385
448389
448394
448396
448402
448409
448410
448412
448414
448415
448419
448425
448436
448437
448462
448480
449088
449089
449092
449096
449101
449109
449116
449117
449118
449119
449122
449125
449126
449128
449135
449139
449142
449151
449153
449154
449155
449156
449159
449160
449162
449164
449167
449168
449170
449176
449177
449180
449181
449186
449188
449190
449200
449202
449204
449217
449228
449239
449247
449292
449297
449298
449299
449301
449302
449309
449311
449312
449331
449334
449350
449354
449357
449360
449375
449399
449400
449401
449408
449439
449441
450037
450041
450044
450048
450050
450051
450061
450062
450064
450065
450067
450070
450071
450073
450076
450080
450082
450084
450085
450086
450087
450089
450099
450101
450102
450103
450105
450106
450109
450111
450114
450115
450116
450119
450120
450128
450131
450135
450143
450148
450152
450155
450158
450161
450164
450166
450169
450170
450171
450172
450194
450203
450212
450264
450269
450270
450276
450279
450286
450289
450290
450297
450299
450306
450313
450317
450326
450328
450334
450335
450349
450355
450366
450988
450992
450993
450999
451000
451004
451006
451009
451016
451017
451024
451026
451030
451031
451032
451033
451034
451036
451038
451039
451040
451041
451042
451043
451046
451047
451048
451049
451051
451054
451062
451063
451067
451075
451078
451080
451086
451090
451094
451096
451097
451099
451100
451102
451106
451107
451109
451112
451118
451121
451122
451143
451145
451150
451151
451171
451209
451215
451217
451223
451232
451241
451247
451251
451255
451260
451263
451267
451272
451273
451286
451294
451295
451303
451940
451945
451946
451951
451954
451956
451958
451962
451966
451967
451968
451979
451980
451983
451989
451990
451991
451995
451996
451999
452002
452005
452019
452025
452026
452031
452032
452033
452040
452042
452043
452051
452057
452058
452060
452063
452066
452069
452071
452075
452076
452077
452079
452082
452083
452087
452089
452099
452104
452123
452138
452169
452181
452182
452188
452195
452201
452206
452207
452212
452220
452225
452229
452236
452237
452239
452244
452261
452268
452299
452304
452363
452925
452926
452933
452936
452940
452941
452942
452955
452959
452960
452962
452963
452966
452967
452969
452970
452975
452976
452977
452978
452981
452983
452986
452987
452988
452990
452991
452996
452997
453000
453002
453004
453010
453011
453027
453030
453034
453037
453042
453044
453046
453052
453053
453056
453084
453085
453087
453092
453134
453136
453139
453141
453143
453146
453148
453151
453158
453161
453162
453164
453166
453167
453168
453171
453174
453175
453181
453186
453188
453189
453195
453199
453209
453211
453213
453224
453225
453244
453256
453286
453307
453857
453859
453861
453863
453869
453871
453874
453879
453880
453882
453883
453886
453889
453891
453893
453895
453897
453898
453900
453903
453904
453905
453906
453907
453909
453910
453913
453914
453915
453916
453918
453919
453920
453921
453922
453924
453926
453927
453929
453937
453940
453942
453945
453949
453951
453954
453958
453960
453963
453964
453966
453967
453971
453973
453975
453976
453977
453978
453980
453983
453985
453989
453997
453998
453999
454000
454001
454010
454020
454032
454033
454036
454090
454091
454092
454093
454095
454096
454097
454098
454099
454101
454110
454114
454115
454119
454122
454125
454126
454128
454129
454130
454132
454133
454134
454136
454138
454139
454140
454146
454148
454150
454155
454156
454159
454164
454165
454168
454172
454173
454178
454182
454187
454198
454204
454224
454237
454253
454258
454360
454822
454823
454824
454831
454832
454838
454845
454846
454852
454857
454858
454860
454866
454869
454871
454872
454874
454875
454877
454878
454879
454880
454882
454883
454884
454885
454886
454887
454889
454893
454896
454902
454910
454911
454912
454915
454916
454920
454921
454925
454926
454930
454934
454935
454936
454937
454939
454940
454941
454943
454947
454958
454963
454965
454967
454968
454990
454991
455003
455020
455055
455056
455057
455062
455063
455065
455066
455068
455069
455071
455073
455074
455075
455080
455081
455082
455083
455085
455089
455098
455100
455103
455107
455109
455112
455119
455120
455123
455127
455131
455132
455141
455143
455148
455149
455151
455152
455162
455163
455167
455188
455194
455215
455231
455785
455790
455793
455795
455797
455798
455799
455802
455803
455804
455807
455810
455811
455813
455814
455822
455823
455824
455825
455828
455829
455832
455833
455834
455835
455837
455838
455839
455840
455844
455845
455846
455847
455848
455850
455851
455856
455860
455865
455866
455867
455871
455878
455881
455883
455884
455888
455889
455894
455895
455897
455898
455903
455904
455906
455909
455913
455918
455925
455926
455928
455960
455971
456005
456006
456008
456009
456010
456014
456016
456023
456027
456030
456032
456036
456038
456042
456044
456045
456047
456049
456050
456051
456052
456055
456056
456059
456060
456066
456067
456068
456070
456072
456078
456083
456084
456088
456089
456091
456094
456100
456109
456111
456118
456119
456122
456125
456126
456127
456128
456139
456141
456145
456146
456147
456148
456150
456151
456152
456155
456159
456161
456187
456737
456738
456745
456746
456748
456751
456752
456753
456754
456755
456757
456758
456759
456760
456761
456762
456764
456767
456769
456771
456774
456775
456777
456778
456780
456781
456782
456783
456784
456785
456786
456787
456790
456792
456793
456794
456795
456796
456797
456798
456800
456801
456805
456808
456809
456810
456812
456813
456814
456816
456819
456831
456834
456836
456839
456841
456844
456848
456850
456852
456855
456858
456862
456863
456865
456872
456877
456887
456888
456904
456923
456924
456964
456965
456966
456969
456971
456972
456973
456974
456977
456980
456983
456984
456986
456987
456988
456989
456990
456992
456993
456995
456996
456997
456999
457000
457001
457002
457003
457004
457005
457006
457008
457009
457010
457011
457012
457013
457018
457020
457021
457022
457024
457026
457027
457028
457029
457030
457031
457032
457034
457035
457037
457039
457042
457043
457044
457049
457051
457052
457053
457054
457055
457056
457059
457060
457062
457065
457068
457070
457071
457072
457077
457078
457088
457096
457106
457107
457110
457117
457118
457119
457122
457125
457126
457127
457131
457135
457150
457158
457160
457181
457184
457189
457192
457196
457197
457199
457211
457223
457699
457701
457703
457705
457706
457707
457709
457710
457711
457712
457713
457714
457715
457716
457717
457719
457722
457725
457726
457727
457729
457730
457731
457733
457735
457737
457740
457742
457745
457746
457747
457748
457749
457750
457751
457756
457757
457760
457761
457763
457767
457768
457771
457772
457773
457782
457786
457787
457788
457789
457790
457795
457800
457804
457805
457815
457817
457820
457823
457835
457841
457849
457862
457864
457867
457872
457874
457879
457883
457894
457898
457933
457934
457935
457936
457937
457938
457939
457944
457945
457946
457947
457950
457951
457952
457953
457954
457955
457956
457961
457962
457964
457965
457966
457967
457968
457969
457970
457971
457972
457973
457974
457975
457977
457978
457980
457982
457984
457987
457989
457991
457992
457993
457994
457995
457996
457997
457998
457999
458000
458001
458004
458005
458006
458007
458008
458009
458010
458011
458013
458015
458016
458017
458018
458020
458022
458025
458026
458027
458028
458030
458031
458032
458034
458035
458036
458037
458038
458039
458040
458043
458047
458051
458053
458056
458057
458058
458062
458063
458064
458065
458069
458071
458074
458075
458077
458078
458079
458085
458090
458091
458094
458096
458097
458098
458099
458100
458103
458107
458116
458117
458123
458125
458126
458132
458139
458145
458149
458152
458154
458159
458164
458166
458172
458184
458204
458207
458220
458357
458369
458666
458667
458669
458670
458671
458672
458673
458675
458676
458678
458679
458680
458681
458682
458683
458684
458685
458686
458687
458695
458697
458700
458701
458703
458705
458706
458708
458709
458710
458712
458714
458715
458716
458717
458718
458719
458720
458721
458723
458724
458725
458726
458728
458732
458738
458740
458741
458742
458746
458750
458756
458757
458758
458761
458763
458767
458768
458771
458777
458782
458783
458787
458788
458795
458802
458803
458810
458811
458812
458815
458818
458828
458829
458830
458838
458840
458843
458847
458852
458853
458873
458886
458887
458889
458890
458892
458893
458894
458895
458896
458897
458898
458899
458902
458903
458904
458906
458908
458909
458911
458913
458914
458915
458916
458918
458919
458920
458922
458923
458924
458925
458926
458927
458928
458929
458930
458931
458932
458933
458934
458935
458936
458938
458939
458940
458941
458942
458943
458944
458945
458946
458947
458948
458949
458950
458951
458952
458953
458954
458955
458956
458957
458958
458959
458960
458961
458963
458964
458965
458966
458967
458968
458969
458970
458971
458972
458973
458974
458975
458976
458977
458979
458980
458981
458982
458983
458984
458985
458986
458987
458988
458989
458990
458991
458992
458993
458994
458995
458996
458997
458998
459000
459001
459002
459004
459006
459007
459008
459009
459010
459011
459012
459014
459016
459017
459018
459019
459023
459024
459025
459026
459028
459030
459032
459033
459034
459035
459037
459038
459041
459042
459043
459044
459046
459047
459048
459049
459050
459052
459053
459055
459057
459058
459059
459060
459061
459065
459066
459068
459071
459072
459074
459076
459077
459078
459079
459080
459081
459082
459083
459084
459085
459086
459088
459090
459091
459093
459094
459095
459096
459097
459098
459100
459101
459103
459104
459107
459110
459114
459116
459119
459120
459121
459123
459124
459126
459127
459131
459132
459133
459135
459136
459139
459141
459142
459143
459146
459147
459148
459149
459150
459152
459153
459159
459161
459162
459163
459166
459169
459170
459178
459180
459186
459191
459201
459202
459203
459204
459211
459214
459228
459234
459244
459248
459251
459269
459278
459298
459308
459327
459333
459355
459361
459619
459621
459624
459625
459627
459629
459630
459631
459632
459633
459634
459635
459637
459639
459642
459643
459645
459646
459647
459648
459649
459650
459651
459652
459659
459660
459664
459666
459672
459673
459678
459679
459681
459682
459683
459684
459685
459686
459687
459688
459690
459692
459695
459697
459701
459706
459708
459709
459711
459712
459717
459721
459722
459723
459725
459729
459731
459734
459739
459741
459743
459746
459747
459748
459749
459750
459752
459757
459766
459772
459774
459781
459790
459803
459805
459807
459821
459822
459848
459850
459853
459855
459856
459857
459858
459859
459860
459861
459862
459863
459864
459865
459866
459867
459868
459871
459873
459874
459875
459876
459877
459878
459881
459882
459883
459885
459886
459887
459889
459890
459891
459892
459893
459894
459895
459896
459897
459898
459899
459900
459901
459902
459903
459904
459905
459906
459907
459908
459909
459910
459911
459912
459913
459914
459915
459916
459917
459918
459919
459920
459921
459922
459923
459924
459925
459926
459927
459928
459929
459930
459931
459932
459933
459934
459935
459936
459937
459938
459939
459940
459941
459942
459943
459944
459945
459946
459947
459948
459949
459950
459951
459952
459953
459954
459955
459956
459957
459958
459959
459960
459961
459962
459963
459964
459965
459966
459967
459968
459969
459970
459971
459972
459973
459974
459975
459976
459977
459978
459979
459980
459981
459982
459983
459984
459985
459986
459987
459988
459990
459991
459992
459993
459994
459996
459997
459998
459999
460000
460001
460002
460003
460004
460005
460006
460007
460008
460009
460011
460012
460013
460014
460015
460016
460017
460018
460019
460020
460021
460022
460023
460024
460025
460026
460027
460028
460029
460030
460031
460032
460033
460034
460035
460037
460038
460039
460040
460041
460042
460043
460044
460046
460047
460048
460049
460050
460051
460052
460053
460054
460055
460056
460058
460059
460060
460063
460065
460067
460068
460069
460071
460073
460074
460076
460077
460078
460079
460080
460082
460084
460085
460086
460087
460088
460089
460090
460091
460092
460093
460095
460098
460100
460102
460103
460104
460105
460106
460107
460108
460109
460110
460111
460113
460114
460115
460116
460118
460119
460120
460122
460123
460124
460126
460127
460129
460130
460131
460132
460134
460136
460137
460138
460139
460140
460141
460142
460143
460144
460145
460146
460147
460148
460149
460151
460152
460154
460156
460157
460158
460159
460163
460165
460167
460169
460172
460173
460174
460175
460177
460179
460182
460183
460185
460189
460190
460192
460193
460197
460199
460202
460209
460210
460212
460227
460230
460234
460238
460240
460241
460244
460247
460259
460263
460264
460265
460266
460271
460279
460283
460290
460291
460301
460309
460327
460342
460352
460370
460383
460384
460388
460395
460404
460586
460587
460589
460591
460593
460594
460596
460597
460599
460600
460601
460605
460607
460608
460609
460611
460612
460620
460624
460625
460626
460627
460628
460629
460630
460632
460633
460636
460637
460638
460641
460642
460643
460644
460645
460646
460647
460648
460649
460654
460655
460658
460659
460660
460662
460663
460664
460667
460673
460674
460675
460683
460684
460687
460688
460691
460692
460696
460700
460701
460702
460703
460705
460710
460712
460713
460714
460716
460717
460718
460720
460724
460726
460743
460755
460758
460763
460766
460767
460768
460772
460773
460775
460782
460811
460814
460816
460817
460818
460819
460820
460821
460822
460823
460824
460826
460827
460828
460829
460830
460831
460832
460833
460834
460835
460836
460838
460839
460841
460842
460843
460844
460845
460846
460847
460848
460849
460850
460851
460852
460853
460854
460855
460856
460857
460858
460859
460860
460862
460863
460864
460865
460866
460867
460868
460869
460870
460871
460872
460873
460874
460875
460876
460879
460880
460881
460882
460883
460884
460885
460886
460887
460888
460889
460890
460891
460892
460893
460894
460895
460896
460897
460898
460899
460900
460901
460902
460903
460904
460905
460906
460907
460908
460909
460910
460911
460912
460913
460914
460915
460916
460917
460918
460919
460920
460921
460922
460923
460924
460925
460926
460927
460928
460929
460930
460931
460932
460933
460934
460935
460936
460937
460938
460939
460940
460941
460942
460943
460944
460945
460946
460947
460948
460949
460950
460951
460952
460953
460954
460955
460956
460957
460958
460959
460960
460961
460962
460963
460964
460965
460966
460967
460968
460969
460970
460971
460972
460973
460974
460975
460976
460977
460978
460979
460980
460981
460982
460983
460984
460985
460986
460987
460988
460989
460991
460992
460993
460994
460995
460996
460997
460998
460999
461000
461001
461002
461003
461004
461005
461006
461007
461008
461009
461010
461011
461013
461014
461015
461016
461017
461018
461019
461020
461021
461022
461023
461024
461025
461027
461028
461029
461030
461031
461032
461033
461034
461036
461037
461038
461039
461040
461041
461042
461043
461044
461045
461046
461047
461048
461049
461051
461052
461053
461054
461055
461056
461057
461058
461060
461061
461062
461063
461064
461065
461066
461067
461068
461069
461070
461071
461072
461073
461074
461075
461076
461077
461078
461079
461080
461081
461084
461085
461086
461087
461088
461089
461091
461092
461093
461094
461095
461096
461097
461098
461102
461103
461104
461105
461106
461107
461108
461109
461110
461111
461112
461113
461114
461115
461116
461117
461118
461119
461121
461122
461123
461124
461126
461127
461128
461129
461131
461132
461133
461134
461135
461137
461139
461140
461141
461148
461150
461152
461153
461154
461155
461156
461159
461160
461163
461164
461165
461166
461167
461168
461169
461172
461175
461178
461181
461182
461183
461184
461185
461186
461187
461188
461189
461190
461191
461194
461195
461196
461197
461198
461202
461206
461208
461209
461211
461215
461218
461220
461221
461223
461224
461226
461237
461238
461239
461244
461245
461246
461250
461253
461254
461256
461257
461262
461265
461267
461270
461272
461276
461277
461283
461321
461327
461332
461334
461353
461534
461536
461538
461539
461540
461541
461544
461546
461547
461548
461549
461550
461551
461552
461553
461554
461556
461557
461559
461560
461561
461562
461563
461564
461565
461570
461571
461572
461576
461578
461582
461583
461586
461588
461590
461591
461593
461594
461595
461596
461597
461602
461603
461605
461606
461607
461610
461612
461613
461614
461616
461617
461621
461622
461631
461635
461637
461639
461640
461641
461642
461644
461645
461649
461650
461652
461653
461656
461657
461659
461662
461664
461666
461669
461675
461699
461701
461710
461711
461722
461750
461751
461752
461753
461754
461755
461756
461757
461759
461760
461761
461762
461764
461765
461767
461768
461769
461771
461772
461774
461775
461777
461778
461779
461781
461782
461783
461784
461785
461786
461787
461788
461789
461790
461791
461792
461793
461794
461795
461796
461797
461798
461799
461800
461801
461802
461803
461804
461805
461806
461808
461809
461810
461811
461812
461813
461814
461815
461816
461817
461818
461819
461820
461821
461822
461823
461824
461825
461826
461827
461828
461829
461830
461831
461832
461833
461834
461835
461836
461837
461838
461839
461840
461841
461842
461843
461844
461845
461846
461847
461848
461849
461850
461851
461852
461853
461854
461855
461856
461857
461858
461859
461860
461861
461862
461863
461864
461865
461866
461867
461868
461869
461870
461871
461872
461873
461874
461875
461876
461877
461878
461879
461880
461881
461882
461883
461884
461885
461886
461887
461888
461889
461890
461891
461892
461893
461894
461895
461896
461897
461898
461899
461900
461901
461902
461903
461904
461905
461906
461907
461908
461909
461910
461911
461912
461913
461914
461915
461916
461917
461918
461919
461920
461921
461922
461923
461924
461925
461926
461927
461928
461929
461930
461931
461932
461933
461934
461935
461936
461937
461938
461939
461940
461941
461942
461943
461944
461945
461946
461947
461948
461949
461950
461951
461952
461953
461954
461955
461956
461957
461958
461959
461960
461961
461962
461963
461964
461965
461966
461967
461968
461969
461971
461972
461973
461974
461975
461976
461977
461978
461979
461980
461981
461982
461983
461984
461985
461986
461987
461988
461989
461990
461991
461992
461993
461994
461995
461996
461997
461998
461999
462000
462001
462002
462003
462004
462005
462006
462007
462008
462009
462010
462011
462012
462013
462014
462015
462016
462017
462018
462019
462020
462021
462022
462023
462024
462025
462026
462027
462028
462029
462030
462031
462032
462033
462034
462035
462036
462037
462038
462039
462041
462042
462043
462044
462045
462046
462047
462048
462049
462051
462052
462053
462054
462055
462056
462057
462058
462059
462060
462062
462063
462064
462065
462066
462067
462068
462069
462070
462071
462072
462073
462074
462075
462076
462077
462078
462080
462081
462082
462083
462084
462085
462086
462087
462088
462089
462090
462091
462092
462093
462095
462096
462098
462100
462101
462102
462103
462107
462109
462110
462111
462112
462114
462115
462116
462119
462120
462121
462123
462125
462127
462129
462130
462131
462132
462133
462136
462138
462139
462140
462142
462144
462145
462146
462147
462148
462150
462151
462153
462154
462155
462156
462157
462159
462161
462162
462163
462164
462165
462167
462168
462172
462176
462177
462178
462179
462182
462183
462187
462193
462194
462195
462196
462198
462201
462203
462205
462213
462218
462222
462223
462224
462226
462230
462234
462235
462242
462247
462251
462259
462260
462261
462268
462271
462290
462304
462311
462481
462485
462486
462487
462488
462489
462491
462492
462494
462495
462497
462498
462499
462500
462501
462502
462503
462504
462505
462507
462508
462509
462510
462511
462512
462513
462514
462517
462519
462520
462523
462525
462529
462533
462534
462537
462538
462540
462541
462542
462543
462544
462546
462547
462548
462549
462550
462551
462552
462554
462555
462556
462561
462562
462563
462568
462570
462572
462573
462578
462581
462585
462587
462592
462594
462595
462597
462598
462599
462600
462605
462608
462610
462611
462612
462613
462614
462615
462619
462620
462622
462623
462627
462628
462633
462635
462637
462638
462640
462641
462643
462644
462646
462649
462669
462674
462682
462684
462694
462699
462704
462710
462724
462725
462726
462727
462730
462731
462733
462735
462736
462737
462738
462740
462741
462743
462744
462749
462750