/*--------------------------------*- C++ -*----------------------------------*\
| =========                 |                                                 |
| \\      /  F ield         | OpenFOAM: The Open Source CFD Toolbox           |
|  \\    /   O peration     | Version:  v1912                                 |
|   \\  /    A nd           | Website:  www.openfoam.com                      |
|    \\/     M anipulation  |                                                 |
\*---------------------------------------------------------------------------*/
FoamFile
{
    version     2.0;
    format      ascii;
    class       volVectorField;
    location    "1.1";
    object      grad(T);
}
// * * * * * * * * * * * * * * * * * * * * * * * * * * * * * * * * * * * * * //

dimensions      [0 -1 0 1 0 0 0];


internalField   nonuniform List<vector> 
1900
(
(-5.7446e-07 3.07829e-10 0)
(-2.81088e-07 1.45378e-09 0)
(6.40264e-07 1.46109e-09 0)
(0.00010855 4.16446e-10 0)
(0.00261702 -3.65969e-07 0)
(0.0172264 -1.56141e-05 0)
(0.044879 -8.07564e-05 0)
(0.056831 0.000195257 0)
(0.0486184 0.00332655 0)
(0.0148004 0.00195425 0)
(-5.72698e-07 5.58809e-10 0)
(-2.79934e-07 2.51262e-09 0)
(6.39227e-07 2.25665e-09 0)
(0.000108183 1.20804e-08 0)
(0.0026014 1.08985e-06 0)
(0.017146 1.41409e-05 0)
(0.0450899 7.69515e-05 0)
(0.0602383 0.000444043 0)
(0.0503774 0.00346456 0)
(0.0265894 0.000392552 0)
(-5.71389e-07 1.56125e-13 0)
(-2.7939e-07 -2.64545e-13 0)
(6.49832e-07 -6.13658e-13 0)
(0.000109638 -9.75782e-14 0)
(0.00263114 9.84456e-13 0)
(0.0173023 1.21214e-12 0)
(0.0453089 2.27682e-13 0)
(0.0602186 -3.42608e-13 0)
(0.0485669 -3.27429e-13 0)
(0.021974 -1.71304e-13 0)
(-5.72699e-07 -5.58629e-10 0)
(-2.79935e-07 -2.51301e-09 0)
(6.39227e-07 -2.25703e-09 0)
(0.000108183 -1.20804e-08 0)
(0.0026014 -1.08985e-06 0)
(0.017146 -1.41409e-05 0)
(0.0450899 -7.69515e-05 0)
(0.0602383 -0.000444043 0)
(0.0503774 -0.00346456 0)
(0.0265894 -0.000392552 0)
(-5.7446e-07 -3.07807e-10 0)
(-2.81088e-07 -1.45391e-09 0)
(6.40265e-07 -1.46086e-09 0)
(0.00010855 -4.16414e-10 0)
(0.00261702 3.65969e-07 0)
(0.0172264 1.56141e-05 0)
(0.044879 8.07564e-05 0)
(0.056831 -0.000195257 0)
(0.0486184 -0.00332655 0)
(0.0148004 -0.00195425 0)
(-0.000732074 0.0134444 9.9862e-16)
(0.0188262 0.0147794 -1.21351e-15)
(0.00911397 0.0116088 -1.53858e-15)
(-0.107113 0.0224374 0)
(-0.00773641 0.169313 -6.50313e-15)
(0.0119347 0.00923905 1.00105e-15)
(0.0108921 0.00945843 1.21351e-15)
(0.00656017 0.00588958 1.53858e-15)
(-0.0445534 0.00823726 0)
(0.00472211 0.148032 0)
(0.0145209 -7.85654e-15 0)
(0.0181509 6.89515e-14 0)
(0.00879307 1.4456e-13 0)
(-0.0385129 2.17662e-13 0)
(0.0815504 3.29133e-13 0)
(0.0119347 -0.00923905 1.00105e-15)
(0.0108921 -0.00945843 1.21351e-15)
(0.00656017 -0.00588958 1.53858e-15)
(-0.0445534 -0.00823726 0)
(0.00472211 -0.148032 0)
(-0.000732074 -0.0134444 -3.00072e-15)
(0.0188262 -0.0147794 -1.21351e-15)
(0.00911397 -0.0116088 -1.53858e-15)
(-0.107113 -0.0224374 -4.19382e-15)
(-0.00773641 -0.169313 6.50313e-15)
(0.199056 -0.0810942 2.8636e-15)
(-0.0120693 -0.013695 -2.41413e-15)
(-0.0158608 -0.0087524 0)
(-0.0610808 0.0587305 1.84385e-15)
(-0.470738 0.0709222 -8.18577e-16)
(0.138716 -0.0819665 -1.43058e-15)
(0.00408604 -0.0133979 1.20686e-15)
(0.0112467 -0.0133718 0)
(-0.0288268 0.0618766 -1.15398e-15)
(-0.175573 0.0695852 2.05702e-16)
(0.151238 4.10683e-13 0)
(0.00358072 2.03867e-13 0)
(0.0130232 6.4249e-14 0)
(-0.0318723 1.2401e-13 4.62337e-16)
(-0.190572 -3.80422e-14 -4.11404e-16)
(0.138716 0.0819665 -1.43058e-15)
(0.00408604 0.0133979 1.20686e-15)
(0.0112467 0.0133718 0)
(-0.0288268 -0.0618766 -1.15398e-15)
(-0.175573 -0.0695852 2.05702e-16)
(0.199056 0.0810942 1.43058e-15)
(-0.0120693 0.013695 4.12449e-19)
(-0.0158608 0.0087524 0)
(-0.0610808 -0.0587305 1.76877e-18)
(-0.470738 -0.0709222 8.18577e-16)
(-0.742659 1.88696 0)
(-0.204015 0.933037 0)
(0.138455 0.305516 0)
(0.0623748 0.0402336 0)
(0.0951908 -0.00425401 0)
(0.134638 0.0021543 0)
(0.160113 0.00404518 0)
(0.156153 0.00290986 0)
(0.126724 0.00180538 0)
(0.0749995 0.000856867 0)
(0.0268821 0.000203758 0)
(0.00448701 1.45324e-05 0)
(0.00023899 1.96611e-07 0)
(2.66139e-06 3.44895e-10 0)
(4.24286e-09 -7.88511e-15 0)
(7.26415e-13 0 0)
(0 0 0)
(1.97128e-15 0 0)
(9.85638e-16 -1.18277e-14 0)
(-2.95692e-15 7.88511e-15 0)
(0 -3.94255e-15 0)
(0 3.94255e-15 0)
(1.97128e-15 0 0)
(9.85638e-16 -1.18277e-14 0)
(-9.334e-13 7.88511e-15 0)
(-5.40742e-09 -7.88511e-14 0)
(-3.29271e-06 -7.88511e-14 0)
(-0.000287135 -3.03577e-13 0)
(-0.00525163 1.57702e-13 0)
(-0.0308559 5.20417e-13 0)
(-0.0852016 -1.97128e-14 0)
(-0.144331 -7.0966e-14 0)
(-0.182607 1.97128e-14 0)
(-0.197604 4.33681e-14 0)
(-0.191808 7.88511e-14 0)
(-0.173338 -1.18277e-14 0)
(-0.219723 1.34047e-13 0)
(-0.541404 2.40496e-13 0)
(-0.478123 3.13433e-13 0)
(-0.0748974 3.05548e-13 0)
(-0.555537 0.82841 0)
(-0.398569 0.930432 0)
(-0.0132813 0.233211 0)
(0.00640171 0.0210332 0)
(0.090054 -0.0107781 0)
(0.137479 0.000878765 0)
(0.160223 0.00234377 0)
(0.15585 0.00142939 0)
(0.126489 0.000759022 0)
(0.074855 0.000359842 0)
(0.0268092 9.27458e-05 0)
(0.00446812 7.07027e-06 0)
(0.000237558 9.84368e-08 0)
(2.64159e-06 1.69317e-10 0)
(4.20886e-09 -3.94255e-15 0)
(7.30358e-13 0 0)
(0 0 0)
(0 0 0)
(1.97128e-15 -3.94255e-15 0)
(0 -7.88511e-15 0)
(0 0 0)
(0 0 0)
(-1.97128e-15 0 0)
(1.97128e-15 -3.94255e-15 0)
(-9.46213e-13 -7.88511e-15 0)
(-5.40745e-09 -6.70234e-14 0)
(-3.29271e-06 -1.65587e-13 0)
(-0.000287135 -3.23289e-13 0)
(-0.00525163 5.36187e-13 0)
(-0.0308559 5.8744e-13 0)
(-0.0852016 3.94255e-15 0)
(-0.144331 -1.37989e-13 0)
(-0.182607 -1.81357e-13 0)
(-0.197604 -7.49085e-14 0)
(-0.191808 1.97128e-14 0)
(-0.173338 -7.88511e-14 0)
(-0.219723 6.70234e-14 0)
(-0.541404 1.853e-13 0)
(-0.478123 1.91214e-13 0)
(-0.0748974 0 0)
(-0.443044 2.44438e-13 0)
(-0.377164 5.2436e-13 0)
(-0.126097 1.26162e-13 0)
(-0.00860397 -3.15404e-13 0)
(0.0893277 -3.94255e-15 0)
(0.138455 1.06449e-13 0)
(0.160273 -1.57702e-14 0)
(0.155692 -2.1684e-13 0)
(0.126413 2.20783e-13 0)
(0.0748057 1.37989e-13 0)
(0.0267795 3.94255e-14 0)
(0.00446005 -1.41932e-13 0)
(0.000236934 -2.87806e-13 0)
(2.63276e-06 1.02506e-13 0)
(4.1936e-09 3.94255e-15 0)
(7.28387e-13 0 0)
(0 0 0)
(0 0 0)
(0 0 0)
(0 -3.94255e-15 0)
(0 0 0)
(0 -3.94255e-15 0)
(0 -3.94255e-15 0)
(0 0 0)
(-9.4917e-13 -3.94255e-15 0)
(-5.40747e-09 3.15404e-14 0)
(-3.29271e-06 7.88511e-15 0)
(-0.000287135 -5.91383e-14 0)
(-0.00525163 4.92819e-13 0)
(-0.0308559 1.93185e-13 0)
(-0.0852016 -2.28668e-13 0)
(-0.144331 -1.81357e-13 0)
(-0.182607 -1.49817e-13 0)
(-0.197604 -2.52323e-13 0)
(-0.191808 -4.73106e-13 0)
(-0.173338 -1.89243e-13 0)
(-0.219723 9.46213e-14 0)
(-0.541404 8.67362e-14 0)
(-0.478123 -5.32245e-14 0)
(-0.0748974 -4.33681e-13 0)
(-0.555537 -0.82841 0)
(-0.398569 -0.930432 0)
(-0.0132813 -0.233211 0)
(0.00640171 -0.0210332 0)
(0.090054 0.0107781 0)
(0.137479 -0.000878765 0)
(0.160223 -0.00234377 0)
(0.15585 -0.00142939 0)
(0.126489 -0.000759022 0)
(0.074855 -0.000359842 0)
(0.0268092 -9.27458e-05 0)
(0.00446812 -7.07027e-06 0)
(0.000237558 -9.84372e-08 0)
(2.64159e-06 -1.69187e-10 0)
(4.20883e-09 7.88511e-15 0)
(7.29372e-13 0 0)
(0 0 0)
(0 0 0)
(0 0 0)
(0 0 0)
(0 0 0)
(-1.97128e-15 0 0)
(0 -3.94255e-15 0)
(1.97128e-15 0 0)
(-9.38328e-13 0 0)
(-5.40745e-09 8.67362e-14 0)
(-3.29271e-06 1.61645e-13 0)
(-0.000287135 -1.57702e-14 0)
(-0.00525163 9.85638e-14 0)
(-0.0308559 1.14334e-13 0)
(-0.0852016 -3.07519e-13 0)
(-0.144331 -3.3906e-13 0)
(-0.182607 -1.5376e-13 0)
(-0.197604 -5.59843e-13 0)
(-0.191808 -7.49085e-13 0)
(-0.173338 -1.14334e-13 0)
(-0.219723 1.34047e-13 0)
(-0.541404 -9.06787e-14 0)
(-0.478123 -2.48381e-13 0)
(-0.0748974 -4.43537e-13 0)
(-0.742659 -1.88696 0)
(-0.204015 -0.933037 0)
(0.138455 -0.305516 0)
(0.0623748 -0.0402336 0)
(0.0951908 0.00425401 0)
(0.134638 -0.0021543 0)
(0.160113 -0.00404518 0)
(0.156153 -0.00290986 0)
(0.126724 -0.00180538 0)
(0.0749995 -0.000856867 0)
(0.0268821 -0.000203758 0)
(0.00448701 -1.45324e-05 0)
(0.00023899 -1.96611e-07 0)
(2.66139e-06 -3.44926e-10 0)
(4.24282e-09 1.18277e-14 0)
(7.2543e-13 0 0)
(0 0 0)
(0 0 0)
(0 0 0)
(1.97128e-15 3.94255e-15 0)
(-1.97128e-15 0 0)
(0 0 0)
(0 7.88511e-15 0)
(0 0 0)
(-9.22557e-13 3.94255e-15 0)
(-5.40742e-09 7.49085e-14 0)
(-3.29271e-06 1.37989e-13 0)
(-0.000287135 -3.94255e-14 0)
(-0.00525163 -8.27936e-14 0)
(-0.0308559 2.91749e-13 0)
(-0.0852016 -9.06787e-14 0)
(-0.144331 -1.81357e-13 0)
(-0.182607 -1.93185e-13 0)
(-0.197604 -3.50887e-13 0)
(-0.191808 -3.27232e-13 0)
(-0.173338 6.30809e-14 0)
(-0.219723 2.75979e-14 0)
(-0.541404 -1.37989e-13 0)
(-0.478123 -2.34582e-13 0)
(-0.0748974 -1.97128e-13 0)
(0.0830135 -1.35019 0)
(0.368476 -0.557765 0)
(0.371304 -0.183544 0)
(0.135993 -0.0504459 0)
(0.108001 -0.0200019 0)
(0.135557 -0.00975141 0)
(0.159877 -0.00785217 0)
(0.156903 -0.00522555 0)
(0.127505 -0.00318826 0)
(0.0756926 -0.0014147 0)
(0.0272533 -0.000310256 0)
(0.00457398 -2.10812e-05 0)
(0.000245018 -2.82712e-07 0)
(2.74202e-06 -5.11197e-10 0)
(4.38589e-09 -5.47494e-14 0)
(7.24835e-13 1.1902e-15 0)
(0 0 0)
(0 0 0)
(0 0 0)
(0 -1.1902e-15 0)
(0 0 0)
(0 0 0)
(0 0 0)
(0 0 0)
(-9.08126e-13 -1.1902e-15 0)
(-5.4074e-09 2.97551e-14 0)
(-3.29271e-06 1.90433e-14 0)
(-0.000287135 -5.95102e-15 0)
(-0.00525163 -6.18906e-14 0)
(-0.0308559 4.99886e-14 0)
(-0.0852016 3.34448e-13 0)
(-0.144331 -1.07118e-14 0)
(-0.182607 -1.80911e-13 0)
(-0.197604 -8.33143e-14 0)
(-0.191808 5.11788e-14 0)
(-0.173338 1.49966e-13 0)
(-0.219723 9.52164e-15 0)
(-0.541404 -4.99886e-14 0)
(-0.478123 -8.74801e-14 0)
(-0.0748974 -7.08172e-14 0)
(0.229089 -0.293731 0)
(0.613216 -0.220223 0)
(0.502465 -0.0939467 0)
(0.180493 -0.0500938 0)
(0.127536 -0.0340393 0)
(0.145853 -0.0196553 0)
(0.1646 -0.0127631 0)
(0.160245 -0.00787261 0)
(0.129977 -0.00439609 0)
(0.0774012 -0.00176745 0)
(0.028026 -0.000362113 0)
(0.00473907 -2.40295e-05 0)
(0.000256072 -3.26375e-07 0)
(2.89059e-06 -6.14809e-10 0)
(4.65871e-09 -1.63058e-13 0)
(7.79584e-13 -1.1902e-15 0)
(0 0 0)
(0 0 0)
(0 0 0)
(0 0 0)
(0 0 0)
(0 0 0)
(0 0 0)
(0 0 0)
(-9.02175e-13 1.1902e-15 0)
(-5.40741e-09 -8.33143e-15 0)
(-3.29271e-06 -2.14237e-14 0)
(-0.000287135 6.66515e-14 0)
(-0.00525163 -6.07004e-14 0)
(-0.0308559 -4.6299e-13 0)
(-0.0852016 4.16572e-13 0)
(-0.144331 -2.04715e-13 0)
(-0.182607 -1.29732e-13 0)
(-0.197604 -4.0467e-14 0)
(-0.191808 3.33257e-14 0)
(-0.173338 1.20211e-13 0)
(-0.219723 1.23781e-13 0)
(-0.541404 8.45045e-14 0)
(-0.478123 3.98719e-14 0)
(-0.0748974 -5.95102e-16 0)
(0.153848 0.0423935 0)
(0.560995 -0.0876373 0)
(0.535247 -0.0553383 0)
(0.193722 -0.0420431 0)
(0.137332 -0.036079 0)
(0.15606 -0.0237746 0)
(0.171231 -0.0151868 0)
(0.164966 -0.00912532 0)
(0.133388 -0.0048408 0)
(0.0795799 -0.00183394 0)
(0.0289333 -0.000358849 0)
(0.00492261 -2.33543e-05 0)
(0.000268173 -3.1903e-07 0)
(3.05652e-06 -6.16243e-10 0)
(4.97834e-09 -1.20211e-13 0)
(8.83132e-13 0 0)
(0 0 0)
(0 0 0)
(0 0 0)
(0 0 0)
(0 0 0)
(0 0 0)
(0 0 0)
(0 0 0)
(-9.17648e-13 -1.1902e-15 0)
(-5.40742e-09 -3.21355e-14 0)
(-3.29271e-06 -3.45159e-14 0)
(-0.000287135 9.52164e-14 0)
(-0.00525163 8.45045e-14 0)
(-0.0308559 -7.27215e-13 0)
(-0.0852016 3.41589e-13 0)
(-0.144331 -2.42802e-13 0)
(-0.182607 1.1902e-14 0)
(-0.197604 4.40376e-14 0)
(-0.191808 -2.38041e-15 0)
(-0.173338 3.68963e-14 0)
(-0.219723 1.66629e-13 0)
(-0.541404 2.05905e-13 0)
(-0.478123 1.57702e-13 0)
(-0.0748974 1.05333e-13 0)
(0.103786 0.0233485 0)
(0.519038 -0.0499358 0)
(0.546402 -0.0452841 0)
(0.199052 -0.04053 0)
(0.145141 -0.0344168 0)
(0.165985 -0.0237031 0)
(0.178717 -0.0149219 0)
(0.170215 -0.00865571 0)
(0.137003 -0.00431064 0)
(0.0817202 -0.00152374 0)
(0.0297708 -0.000279505 0)
(0.00508456 -1.72813e-05 0)
(0.000278577 -2.27374e-07 0)
(3.19802e-06 -4.30849e-10 0)
(5.25254e-09 -2.38041e-14 0)
(8.95034e-13 0 0)
(0 -1.1902e-15 0)
(0 0 0)
(0 0 0)
(0 -1.1902e-15 0)
(0 0 0)
(0 0 0)
(0 0 0)
(0 0 0)
(-9.34311e-13 0 0)
(-5.40744e-09 -7.49829e-14 0)
(-3.29271e-06 -4.6418e-14 0)
(-0.000287135 -2.26139e-14 0)
(-0.00525163 3.02312e-13 0)
(-0.0308559 -5.51065e-13 0)
(-0.0852016 3.53491e-13 0)
(-0.144331 -1.27352e-13 0)
(-0.182607 7.14123e-14 0)
(-0.197604 4.0467e-14 0)
(-0.191808 -3.57061e-15 0)
(-0.173338 -2.85649e-14 0)
(-0.219723 6.78417e-14 0)
(-0.541404 1.1902e-13 0)
(-0.478123 1.19616e-13 0)
(-0.0748974 4.82033e-14 0)
(0.0832284 0.00152413 0)
(0.494858 -0.0321275 0)
(0.544311 -0.04147 0)
(0.204194 -0.0377974 0)
(0.153547 -0.0297816 0)
(0.174846 -0.0202396 0)
(0.185732 -0.0124 0)
(0.175192 -0.006825 0)
(0.140261 -0.00312095 0)
(0.0834644 -0.000991806 0)
(0.030385 -0.000160995 0)
(0.00519173 -8.76576e-06 0)
(0.000284826 -1.02844e-07 0)
(3.27563e-06 -1.95711e-10 0)
(5.39352e-09 -2.00907e-11 0)
(9.04556e-13 -2.00669e-11 0)
(0 -2.00621e-11 0)
(1.1902e-15 -2.00716e-11 0)
(-1.1902e-15 -2.00966e-11 0)
(0 -2.0093e-11 0)
(1.1902e-15 -2.00859e-11 0)
(0 -2.00704e-11 0)
(0 -2.00942e-11 0)
(0 -2.00871e-11 0)
(-9.9025e-13 -2.0068e-11 0)
(-5.40746e-09 -2.01502e-11 0)
(-3.29271e-06 -2.01537e-11 0)
(-0.000287135 -2.00323e-11 0)
(-0.00525163 -2.00311e-11 0)
(-0.0308559 -2.00228e-11 0)
(-0.0852016 -1.90123e-11 0)
(-0.144331 -1.75484e-11 0)
(-0.182607 -1.43443e-11 0)
(-0.197604 -1.0525e-11 0)
(-0.191808 -6.95199e-12 0)
(-0.173338 -4.16929e-12 0)
(-0.219723 -2.19355e-12 0)
(-0.541404 -9.46213e-13 0)
(-0.478123 -8.86703e-14 0)
(-0.0748974 -1.04738e-13 0)
(0.0713581 -0.0121118 0)
(0.477607 -0.0259452 0)
(0.540938 -0.0343828 0)
(0.210315 -0.0302361 0)
(0.16206 -0.022427 0)
(0.182735 -0.0144272 0)
(0.191644 -0.00831825 0)
(0.179156 -0.00422369 0)
(0.142624 -0.00172571 0)
(0.0845725 -0.000471534 0)
(0.0307181 -6.21133e-05 0)
(0.0052396 -2.56614e-06 0)
(0.000287024 -7.46217e-08 0)
(3.2971e-06 -5.42974e-08 0)
(5.4218e-09 -5.42771e-08 0)
(9.21219e-13 -5.4277e-08 0)
(-4.76082e-15 -5.42769e-08 0)
(-3.33257e-14 -5.42769e-08 0)
(-2.02335e-14 -5.42769e-08 0)
(1.07118e-14 -5.42769e-08 0)
(2.26139e-14 -5.42769e-08 0)
(-7.14123e-15 -5.42769e-08 0)
(-1.66629e-14 -5.42769e-08 0)
(2.38041e-14 -5.42769e-08 0)
(-9.95011e-13 -5.42769e-08 0)
(-5.40752e-09 -5.42768e-08 0)
(-3.29271e-06 -5.42771e-08 0)
(-0.000287135 -5.4277e-08 0)
(-0.00525163 -5.42651e-08 0)
(-0.0308559 -5.40437e-08 0)
(-0.0852016 -5.26643e-08 0)
(-0.144331 -4.87145e-08 0)
(-0.182607 -4.17429e-08 0)
(-0.197604 -3.27763e-08 0)
(-0.191808 -2.36545e-08 0)
(-0.173338 -1.59892e-08 0)
(-0.219723 -1.0005e-08 0)
(-0.541404 -5.31584e-09 0)
(-0.478123 -1.04017e-09 0)
(-0.0748974 -1.53397e-10 0)
(0.0698981 -0.0199523 0)
(0.473397 -0.0183339 0)
(0.540176 -0.0217318 0)
(0.215715 -0.0184589 0)
(0.168781 -0.0129319 0)
(0.188442 -0.0077823 0)
(0.195564 -0.00412381 0)
(0.181544 -0.00188238 0)
(0.143877 -0.000668492 0)
(0.0850675 -0.000156538 0)
(0.0308369 -2.93258e-05 0)
(0.00525151 -1.7045e-05 0)
(0.000287246 -1.69112e-05 0)
(3.29523e-06 -1.69151e-05 0)
(5.41321e-09 -1.69152e-05 0)
(1.01286e-12 -1.69152e-05 0)
(7.26025e-14 -1.69152e-05 0)
(2.85649e-14 -1.69152e-05 0)
(-1.1902e-15 -1.69152e-05 0)
(-2.38041e-14 -1.69152e-05 0)
(-1.1902e-15 -1.69152e-05 0)
(7.14123e-15 -1.69152e-05 0)
(9.52164e-15 -1.69152e-05 0)
(2.73747e-14 -1.69152e-05 0)
(-9.00985e-13 -1.69152e-05 0)
(-5.40768e-09 -1.69152e-05 0)
(-3.29271e-06 -1.69152e-05 0)
(-0.000287135 -1.69151e-05 0)
(-0.00525163 -1.69119e-05 0)
(-0.0308559 -1.6853e-05 0)
(-0.0852016 -1.65056e-05 0)
(-0.144331 -1.55429e-05 0)
(-0.182607 -1.38483e-05 0)
(-0.197604 -1.15977e-05 0)
(-0.191808 -9.15225e-06 0)
(-0.173338 -6.89298e-06 0)
(-0.219723 -4.90405e-06 0)
(-0.541404 -3.1147e-06 0)
(-0.478123 -9.1057e-07 0)
(-0.0748974 -2.16936e-07 0)
(0.0729177 -0.0134799 0)
(0.475892 -0.00859048 0)
(0.540818 -0.00901087 0)
(0.218795 -0.00753262 0)
(0.172348 -0.00503757 0)
(0.191223 -0.00304395 0)
(0.197329 -0.00183992 0)
(0.182486 -0.00120753 0)
(0.144287 -0.000932415 0)
(0.0851884 -0.000853788 0)
(0.0308525 -0.000848269 0)
(0.00525157 -0.000850262 0)
(0.000287149 -0.000850506 0)
(3.29333e-06 -0.00085051 0)
(5.40967e-09 -0.00085051 0)
(7.93867e-13 -0.00085051 0)
(-1.30923e-13 -0.00085051 0)
(-1.69009e-13 -0.00085051 0)
(-1.1664e-13 -0.00085051 0)
(-9.64066e-14 -0.00085051 0)
(4.6418e-14 -0.00085051 0)
(2.24949e-13 -0.00085051 0)
(8.09339e-14 -0.00085051 0)
(-4.28474e-14 -0.00085051 0)
(-1.08904e-12 -0.00085051 0)
(-5.40725e-09 -0.00085051 0)
(-3.29267e-06 -0.00085051 0)
(-0.000287131 -0.000850508 0)
(-0.00525157 -0.000850356 0)
(-0.0308555 -0.000847764 0)
(-0.0852003 -0.000833581 0)
(-0.144328 -0.000796447 0)
(-0.182603 -0.000732652 0)
(-0.1976 -0.000646913 0)
(-0.191803 -0.0005493 0)
(-0.173333 -0.000452133 0)
(-0.219719 -0.000358018 0)
(-0.5414 -0.000264056 0)
(-0.47812 -0.000108762 0)
(-0.0748967 -4.10942e-05 0)
(0.0746097 -0.00535144 0)
(0.477703 -0.00447778 0)
(0.541196 -0.00639819 0)
(0.219544 -0.00708187 0)
(0.173107 -0.00743052 0)
(0.191523 -0.00793543 0)
(0.197334 -0.00861508 0)
(0.182419 -0.00927163 0)
(0.144218 -0.00979496 0)
(0.0851486 -0.0101265 0)
(0.0308403 -0.0102658 0)
(0.00524936 -0.0102945 0)
(0.000287007 -0.0102964 0)
(3.291e-06 -0.0102964 0)
(5.40365e-09 -0.0102964 0)
(1.00929e-12 -0.0102964 0)
(-3.80866e-14 -0.0102964 0)
(3.13024e-13 -0.0102964 0)
(5.09408e-13 -0.0102964 0)
(2.47563e-13 -0.0102964 0)
(-1.45205e-13 -0.0102964 0)
(-4.57039e-13 -0.0102964 0)
(-3.73724e-13 -0.0102964 0)
(8.92654e-14 -0.0102964 0)
(-3.80866e-13 -0.0102964 0)
(-5.40376e-09 -0.0102964 0)
(-3.29087e-06 -0.0102964 0)
(-0.000286986 -0.0102964 0)
(-0.00524898 -0.0102946 0)
(-0.0308397 -0.0102656 0)
(-0.0851521 -0.0101215 0)
(-0.144234 -0.00977407 0)
(-0.182463 -0.00920767 0)
(-0.197427 -0.00845762 0)
(-0.19162 -0.00758503 0)
(-0.173153 -0.00667412 0)
(-0.219542 -0.00573596 0)
(-0.541164 -0.00473663 0)
(-0.477908 -0.00257295 0)
(-0.0748321 -0.00142094 0)
(0.0737595 -0.01359 0)
(0.474884 -0.0184064 0)
(0.538308 -0.0276932 0)
(0.2178 -0.0311058 0)
(0.171526 -0.0341396 0)
(0.190081 -0.0369992 0)
(0.196041 -0.0396672 0)
(0.181349 -0.0420029 0)
(0.143464 -0.0438591 0)
(0.0847347 -0.0450989 0)
(0.0306906 -0.0456717 0)
(0.00522205 -0.0457992 0)
(0.000285322 -0.0458081 0)
(3.26844e-06 -0.0458082 0)
(5.36034e-09 -0.0458082 0)
(7.34356e-13 -0.0458082 0)
(-2.93981e-13 -0.0458082 0)
(-2.48753e-13 -0.0458082 0)
(-1.89243e-13 -0.0458082 0)
(-1.49966e-13 -0.0458082 0)
(9.99772e-14 -0.0458082 0)
(3.4992e-13 -0.0458082 0)
(3.76105e-13 -0.0458082 0)
(1.32113e-13 -0.0458082 0)
(-1.18901e-12 -0.0458082 0)
(-5.361e-09 -0.0458082 0)
(-3.2686e-06 -0.0458082 0)
(-0.000285325 -0.0458081 0)
(-0.00522193 -0.0457993 0)
(-0.0306887 -0.0456721 0)
(-0.0847266 -0.045099 0)
(-0.143448 -0.0438531 0)
(-0.181334 -0.0419791 0)
(-0.196036 -0.0396023 0)
(-0.190085 -0.036852 0)
(-0.171552 -0.0339323 0)
(-0.217852 -0.0308617 0)
(-0.538352 -0.0274583 0)
(-0.474925 -0.0182172 0)
(-0.0737866 -0.0132183 0)
(0.0699684 -0.0495226 0)
(0.464113 -0.0568219 0)
(0.528958 -0.0750333 0)
(0.213332 -0.08062 0)
(0.167428 -0.0853297 0)
(0.186196 -0.0899187 0)
(0.192512 -0.0943069 0)
(0.178379 -0.0982327 0)
(0.141234 -0.10156 0)
(0.0834019 -0.104021 0)
(0.0301654 -0.105293 0)
(0.00511795 -0.105604 0)
(0.000278347 -0.105627 0)
(3.16864e-06 -0.105628 0)
(5.1572e-09 -0.105628 0)
(8.40285e-13 -0.105628 0)
(5.11788e-14 -0.105628 0)
(1.49966e-13 -0.105628 0)
(2.64225e-13 -0.105628 0)
(2.63035e-13 -0.105628 0)
(5.832e-14 -0.105628 0)
(-1.99954e-13 -0.105628 0)
(-2.35661e-13 -0.105628 0)
(-1.61868e-13 -0.105628 0)
(-1.02477e-12 -0.105628 0)
(-5.15739e-09 -0.105628 0)
(-3.16871e-06 -0.105628 0)
(-0.000278349 -0.105627 0)
(-0.00511795 -0.105604 0)
(-0.030165 -0.105293 0)
(-0.0833992 -0.104023 0)
(-0.141227 -0.101568 0)
(-0.178366 -0.0982495 0)
(-0.192487 -0.0943262 0)
(-0.186156 -0.0899319 0)
(-0.167381 -0.0853326 0)
(-0.213303 -0.0805917 0)
(-0.528979 -0.0749726 0)
(-0.464186 -0.056755 0)
(-0.070015 -0.0494398 0)
(0.0667257 -0.100892 0)
(0.450301 -0.102678 0)
(0.515376 -0.125477 0)
(0.207878 -0.131814 0)
(0.162565 -0.136328 0)
(0.18143 -0.140914 0)
(0.18803 -0.145586 0)
(0.17436 -0.150013 0)
(0.137886 -0.154115 0)
(0.0811371 -0.157541 0)
(0.0291648 -0.159534 0)
(0.00489975 -0.160065 0)
(0.000262655 -0.160106 0)
(2.93401e-06 -0.160107 0)
(4.66796e-09 -0.160107 0)
(6.30809e-13 -0.160107 0)
(-1.41634e-13 -0.160107 0)
(-1.1902e-14 -0.160107 0)
(6.90319e-14 -0.160107 0)
(7.14123e-15 -0.160107 0)
(-9.04556e-14 -0.160107 0)
(-2.26139e-13 -0.160107 0)
(-2.26139e-13 -0.160107 0)
(-1.1902e-14 -0.160107 0)
(-6.77227e-13 -0.160107 0)
(-4.66796e-09 -0.160107 0)
(-2.93402e-06 -0.160107 0)
(-0.000262656 -0.160106 0)
(-0.00489976 -0.160065 0)
(-0.0291648 -0.159534 0)
(-0.0811368 -0.157542 0)
(-0.137885 -0.154118 0)
(-0.174356 -0.150021 0)
(-0.188021 -0.145602 0)
(-0.181418 -0.140947 0)
(-0.162551 -0.136384 0)
(-0.207869 -0.131894 0)
(-0.515382 -0.125562 0)
(-0.450321 -0.102737 0)
(-0.0667374 -0.100903 0)
(0.0682479 -0.140677 0)
(0.440423 -0.132038 0)
(0.500881 -0.156848 0)
(0.202876 -0.163945 0)
(0.158659 -0.167243 0)
(0.177275 -0.171035 0)
(0.183744 -0.175176 0)
(0.170161 -0.17953 0)
(0.13398 -0.183925 0)
(0.0781793 -0.188009 0)
(0.0277334 -0.190609 0)
(0.0045669 -0.191337 0)
(0.000237845 -0.191395 0)
(2.55928e-06 -0.191396 0)
(3.8943e-09 -0.191396 0)
(5.43924e-13 -0.191396 0)
(4.52278e-14 -0.191396 0)
(1.53536e-13 -0.191396 0)
(1.78531e-13 -0.191396 0)
(1.57107e-13 -0.191396 0)
(-8.33143e-15 -0.191396 0)
(-1.84482e-13 -0.191396 0)
(-1.32113e-13 -0.191396 0)
(3.80866e-14 -0.191396 0)
(-5.14168e-13 -0.191396 0)
(-3.89426e-09 -0.191396 0)
(-2.55927e-06 -0.191396 0)
(-0.000237845 -0.191395 0)
(-0.0045669 -0.191337 0)
(-0.0277335 -0.190609 0)
(-0.0781795 -0.188009 0)
(-0.13398 -0.183925 0)
(-0.170161 -0.179532 0)
(-0.183743 -0.175181 0)
(-0.177273 -0.171046 0)
(-0.158657 -0.167261 0)
(-0.202874 -0.163971 0)
(-0.500882 -0.156876 0)
(-0.440424 -0.132058 0)
(-0.0682482 -0.140684 0)
(0.0750506 -0.151498 0)
(0.434718 -0.140664 0)
(0.48463 -0.168356 0)
(0.197861 -0.176138 0)
(0.155733 -0.178775 0)
(0.173786 -0.181159 0)
(0.179843 -0.184794 0)
(0.165929 -0.188891 0)
(0.129715 -0.193453 0)
(0.074696 -0.198036 0)
(0.0259576 -0.201107 0)
(0.00414277 -0.201977 0)
(0.000206242 -0.202045 0)
(2.09337e-06 -0.202046 0)
(2.97122e-09 -0.202046 0)
(4.17762e-13 -0.202046 0)
(1.66629e-14 -0.202046 0)
(-1.1902e-14 -0.202046 0)
(9.52164e-15 -0.202046 0)
(7.73633e-14 -0.202046 0)
(-1.30923e-14 -0.202046 0)
(-1.45205e-13 -0.202046 0)
(-1.40444e-13 -0.202046 0)
(-4.99886e-14 -0.202046 0)
(-4.48707e-13 -0.202046 0)
(-2.97132e-09 -0.202046 0)
(-2.09336e-06 -0.202046 0)
(-0.000206242 -0.202045 0)
(-0.00414277 -0.201977 0)
(-0.0259576 -0.201107 0)
(-0.0746961 -0.198036 0)
(-0.129715 -0.193453 0)
(-0.16593 -0.188891 0)
(-0.179844 -0.184794 0)
(-0.173786 -0.181161 0)
(-0.155733 -0.178777 0)
(-0.197862 -0.176141 0)
(-0.484629 -0.16836 0)
(-0.434717 -0.140666 0)
(-0.0750497 -0.151499 0)
(0.0786879 -0.149314 0)
(0.424178 -0.129763 0)
(0.466697 -0.160869 0)
(0.192836 -0.170147 0)
(0.15382 -0.171197 0)
(0.171474 -0.173359 0)
(0.176294 -0.175867 0)
(0.161817 -0.17958 0)
(0.125167 -0.184054 0)
(0.0708031 -0.188913 0)
(0.0239358 -0.192257 0)
(0.0036634 -0.193189 0)
(0.000171702 -0.193258 0)
(1.61188e-06 -0.193259 0)
(2.08455e-09 -0.193259 0)
(4.32044e-13 -0.193259 0)
(2.85649e-14 -0.193259 0)
(-6.66515e-14 -0.193259 0)
(-7.61731e-14 -0.193259 0)
(2.26139e-14 -0.193259 0)
(7.97437e-14 -0.193259 0)
(4.6418e-14 -0.193259 0)
(-3.33257e-14 -0.193259 0)
(-1.1664e-13 -0.193259 0)
(-3.78485e-13 -0.193259 0)
(-2.08443e-09 -0.193259 0)
(-1.61188e-06 -0.193259 0)
(-0.000171702 -0.193258 0)
(-0.0036634 -0.193189 0)
(-0.0239358 -0.192257 0)
(-0.0708031 -0.188913 0)
(-0.125167 -0.184054 0)
(-0.161817 -0.17958 0)
(-0.176294 -0.175866 0)
(-0.171475 -0.173358 0)
(-0.15382 -0.171196 0)
(-0.192836 -0.170146 0)
(-0.466697 -0.160868 0)
(-0.424177 -0.129762 0)
(-0.0786876 -0.149314 0)
(0.093891 -0.115682 0)
(0.423584 -0.115588 0)
(0.445714 -0.144238 0)
(0.187909 -0.15207 0)
(0.152638 -0.151356 0)
(0.169285 -0.15287 0)
(0.173848 -0.155039 0)
(0.158039 -0.158153 0)
(0.120722 -0.162285 0)
(0.0667918 -0.167177 0)
(0.0218369 -0.170653 0)
(0.00317753 -0.171598 0)
(0.000138572 -0.171664 0)
(1.18569e-06 -0.171664 0)
(1.37309e-09 -0.171664 0)
(2.13047e-13 -0.171664 0)
(-5.95102e-15 -0.171664 0)
(-2.49943e-14 -0.171664 0)
(-2.26139e-14 -0.171664 0)
(1.1902e-14 -0.171664 0)
(9.2836e-14 -0.171664 0)
(1.05928e-13 -0.171664 0)
(2.49943e-14 -0.171664 0)
(-9.75968e-14 -0.171664 0)
(-2.9279e-13 -0.171664 0)
(-1.37315e-09 -0.171664 0)
(-1.18569e-06 -0.171664 0)
(-0.000138572 -0.171664 0)
(-0.00317753 -0.171598 0)
(-0.0218369 -0.170653 0)
(-0.0667918 -0.167177 0)
(-0.120722 -0.162285 0)
(-0.158039 -0.158153 0)
(-0.173848 -0.155039 0)
(-0.169285 -0.152869 0)
(-0.152638 -0.151355 0)
(-0.187909 -0.15207 0)
(-0.445714 -0.144237 0)
(-0.423584 -0.115588 0)
(-0.093891 -0.115682 0)
(0.0787784 -0.116778 0)
(0.39666 -0.133915 0)
(0.431541 -0.169299 0)
(0.185976 -0.182389 0)
(0.15305 -0.184674 0)
(0.167925 -0.189786 0)
(0.171202 -0.194955 0)
(0.154834 -0.199982 0)
(0.116471 -0.205088 0)
(0.0627388 -0.210463 0)
(0.0196761 -0.21414 0)
(0.00268996 -0.215095 0)
(0.000107481 -0.215157 0)
(8.23397e-07 -0.215157 0)
(8.37489e-10 -0.215157 0)
(4.87984e-14 -0.215157 0)
(-3.57061e-15 -0.215157 0)
(-9.52164e-15 -0.215157 0)
(-3.92768e-14 -0.215157 0)
(-3.57061e-15 -0.215157 0)
(9.75968e-14 -0.215157 0)
(1.61868e-13 -0.215157 0)
(1.07118e-13 -0.215157 0)
(4.76082e-15 -0.215157 0)
(-1.36874e-13 -0.215157 0)
(-8.37665e-10 -0.215157 0)
(-8.23398e-07 -0.215157 0)
(-0.000107481 -0.215157 0)
(-0.00268996 -0.215095 0)
(-0.0196761 -0.21414 0)
(-0.0627388 -0.210463 0)
(-0.116471 -0.205088 0)
(-0.154834 -0.199982 0)
(-0.171202 -0.194955 0)
(-0.167925 -0.189786 0)
(-0.15305 -0.184674 0)
(-0.185976 -0.182389 0)
(-0.431541 -0.169299 0)
(-0.39666 -0.133915 0)
(-0.0787785 -0.116777 0)
(0.0773766 -0.327864 0)
(0.372972 -0.345284 0)
(0.399003 -0.404312 0)
(0.173093 -0.440499 0)
(0.14551 -0.45527 0)
(0.159378 -0.476314 0)
(0.164022 -0.494703 0)
(0.148275 -0.511336 0)
(0.110622 -0.526438 0)
(0.0580691 -0.539817 0)
(0.0173734 -0.547237 0)
(0.00219771 -0.548782 0)
(7.83648e-05 -0.548861 0)
(5.1859e-07 -0.548862 0)
(4.43831e-10 -0.548862 0)
(-7.14123e-15 -0.548862 0)
(-4.52278e-14 -0.548862 0)
(-1.78531e-14 -0.548862 0)
(1.42825e-14 -0.548862 0)
(3.45159e-14 -0.548862 0)
(1.1545e-13 -0.548862 0)
(1.59487e-13 -0.548862 0)
(1.07118e-13 -0.548862 0)
(6.90319e-14 -0.548862 0)
(-5.35592e-14 -0.548862 0)
(-4.44252e-10 -0.548862 0)
(-5.1859e-07 -0.548862 0)
(-7.83648e-05 -0.548861 0)
(-0.00219771 -0.548782 0)
(-0.0173734 -0.547237 0)
(-0.0580691 -0.539817 0)
(-0.110622 -0.526438 0)
(-0.148275 -0.511336 0)
(-0.164022 -0.494703 0)
(-0.159378 -0.476314 0)
(-0.14551 -0.45527 0)
(-0.173093 -0.440499 0)
(-0.399003 -0.404312 0)
(-0.372972 -0.345284 0)
(-0.0773766 -0.327864 0)
(0.0619925 -0.249842 0)
(0.322993 -0.340512 0)
(0.339788 -0.400644 0)
(0.136871 -0.427633 0)
(0.118537 -0.45734 0)
(0.129926 -0.459032 0)
(0.137454 -0.469657 0)
(0.124253 -0.476954 0)
(0.0890261 -0.489191 0)
(0.0426956 -0.5041 0)
(0.011037 -0.512788 0)
(0.0011248 -0.51442 0)
(3.01343e-05 -0.514491 0)
(1.41842e-07 -0.514491 0)
(8.20557e-11 -0.514491 0)
(-1.12474e-13 -0.514491 0)
(-1.28542e-13 -0.514491 0)
(-5.29641e-14 -0.514491 0)
(5.35592e-15 -0.514491 0)
(3.86817e-14 -0.514491 0)
(1.05928e-13 -0.514491 0)
(1.42825e-13 -0.514491 0)
(1.10689e-13 -0.514491 0)
(5.11788e-14 -0.514491 0)
(-3.5111e-14 -0.514491 0)
(-8.23354e-11 -0.514491 0)
(-1.41842e-07 -0.514491 0)
(-3.01343e-05 -0.514491 0)
(-0.0011248 -0.51442 0)
(-0.011037 -0.512788 0)
(-0.0426956 -0.5041 0)
(-0.0890261 -0.489191 0)
(-0.124253 -0.476954 0)
(-0.137454 -0.469657 0)
(-0.129926 -0.459032 0)
(-0.118537 -0.45734 0)
(-0.136871 -0.427633 0)
(-0.339788 -0.400644 0)
(-0.322993 -0.340512 0)
(-0.0619925 -0.249842 0)
(-0.00999619 0.00172942 0)
(0.227654 -0.0729758 0)
(0.315051 -0.0972069 0)
(0.118459 -0.098647 0)
(0.115253 -0.116314 0)
(0.147509 -0.102055 0)
(0.146752 -0.0980683 0)
(0.129451 -0.092406 0)
(0.0844632 -0.0926741 0)
(0.03533 -0.097141 0)
(0.00742839 -0.100318 0)
(0.000557123 -0.100886 0)
(9.88752e-06 -0.100907 0)
(2.87433e-08 -0.100907 0)
(1.03042e-11 -0.100907 0)
(-1.4699e-13 -0.100907 0)
(-2.31495e-13 -0.100907 0)
(-1.41039e-13 -0.100907 0)
(-3.03502e-14 -0.100907 0)
(3.98719e-14 -0.100907 0)
(1.21996e-13 -0.100907 0)
(1.30327e-13 -0.100907 0)
(6.18906e-14 -0.100907 0)
(2.02335e-14 -0.100907 0)
(-1.78531e-14 -0.100907 0)
(-1.03096e-11 -0.100907 0)
(-2.87435e-08 -0.100907 0)
(-9.88752e-06 -0.100907 0)
(-0.000557123 -0.100886 0)
(-0.00742839 -0.100318 0)
(-0.03533 -0.097141 0)
(-0.0844632 -0.0926741 0)
(-0.129451 -0.092406 0)
(-0.146752 -0.0980683 0)
(-0.147509 -0.102055 0)
(-0.115253 -0.116314 0)
(-0.118459 -0.098647 0)
(-0.315051 -0.0972069 0)
(-0.227654 -0.0729758 0)
(0.00999619 0.00172942 0)
(-0.00999619 -0.00172942 0)
(0.227654 0.0729758 0)
(0.315051 0.0972069 0)
(0.118459 0.098647 0)
(0.115253 0.116314 0)
(0.147509 0.102055 0)
(0.146752 0.0980683 0)
(0.129451 0.092406 0)
(0.0844632 0.0926741 0)
(0.03533 0.097141 0)
(0.00742839 0.100318 0)
(0.000557123 0.100886 0)
(9.88752e-06 0.100907 0)
(2.87435e-08 0.100907 0)
(1.02685e-11 0.100907 0)
(-8.92654e-15 0.100907 0)
(-2.49943e-14 0.100907 0)
(5.05837e-14 0.100907 0)
(3.5111e-14 0.100907 0)
(-1.24972e-14 0.100907 0)
(2.49943e-14 0.100907 0)
(4.52278e-14 0.100907 0)
(1.54727e-14 0.100907 0)
(-1.42825e-14 0.100907 0)
(-5.65347e-14 0.100907 0)
(-1.03863e-11 0.100907 0)
(-2.87432e-08 0.100907 0)
(-9.88752e-06 0.100907 0)
(-0.000557123 0.100886 0)
(-0.00742839 0.100318 0)
(-0.03533 0.097141 0)
(-0.0844632 0.0926741 0)
(-0.129451 0.092406 0)
(-0.146752 0.0980683 0)
(-0.147509 0.102055 0)
(-0.115253 0.116314 0)
(-0.118459 0.098647 0)
(-0.315051 0.0972069 0)
(-0.227654 0.0729758 0)
(0.00999619 -0.00172942 0)
(0.0619925 0.249842 0)
(0.322993 0.340512 0)
(0.339788 0.400644 0)
(0.136871 0.427633 0)
(0.118537 0.45734 0)
(0.129926 0.459032 0)
(0.137454 0.469657 0)
(0.124253 0.476954 0)
(0.0890261 0.489191 0)
(0.0426956 0.5041 0)
(0.011037 0.512788 0)
(0.0011248 0.51442 0)
(3.01343e-05 0.514491 0)
(1.41842e-07 0.514491 0)
(8.21664e-11 0.514491 0)
(6.78417e-14 0.514491 0)
(3.86817e-14 0.514491 0)
(1.07118e-14 0.514491 0)