/*--------------------------------*- C++ -*----------------------------------*\
| =========                 |                                                 |
| \\      /  F ield         | OpenFOAM: The Open Source CFD Toolbox           |
|  \\    /   O peration     | Version:  v1912                                 |
|   \\  /    A nd           | Website:  www.openfoam.com                      |
|    \\/     M anipulation  |                                                 |
\*---------------------------------------------------------------------------*/
FoamFile
{
    version     2.0;
    format      ascii;
    class       volScalarField;
    location    "1.1";
    object      Ma;
}
// * * * * * * * * * * * * * * * * * * * * * * * * * * * * * * * * * * * * * //

dimensions      [0 0 0 0 0 0 0];


internalField   nonuniform List<scalar> 
1900
(
9.61967e-08
1.90957e-07
2.36968e-07
1.28399e-07
5.39749e-05
0.0013041
0.0086015
0.0232617
0.0372685
0.0405764
9.60881e-08
1.90283e-07
2.36024e-07
1.29888e-07
5.38195e-05
0.00129761
0.00858992
0.0236689
0.0390744
0.0487647
9.60094e-08
1.89807e-07
2.3533e-07
1.36448e-07
5.4572e-05
0.00131357
0.00868062
0.0239607
0.0398074
0.0506233
9.6088e-08
1.90283e-07
2.36025e-07
1.29888e-07
5.38195e-05
0.00129761
0.00858992
0.0236689
0.0390744
0.0487647
9.61966e-08
1.90957e-07
2.36968e-07
1.28398e-07
5.39749e-05
0.0013041
0.0086015
0.0232617
0.0372685
0.0405764
0.0486599
0.0663262
0.0835841
0.107282
0.164374
0.0593813
0.072671
0.0919406
0.126681
0.18674
0.0616082
0.0737305
0.0934562
0.129669
0.189314
0.0593813
0.072671
0.0919406
0.126681
0.18674
0.0486599
0.0663262
0.0835841
0.107282
0.164374
0.182058
0.1472
0.129169
0.127972
0.202855
0.187354
0.154266
0.127563
0.0992294
0.10268
0.190897
0.157081
0.125306
0.0784662
0.0140246
0.187354
0.154266
0.127563
0.0992294
0.10268
0.182058
0.1472
0.129169
0.127972
0.202855
0.393819
0.193694
0.24493
0.27054
0.268215
0.224045
0.167794
0.108144
0.0552984
0.0187404
0.00309264
0.000164283
1.82672e-06
2.91137e-09
4.7656e-13
2.18904e-16
1.04684e-16
1.34863e-16
2.23695e-16
6.42144e-17
7.66661e-17
1.55053e-16
1.61163e-16
6.56315e-16
9.65218e-17
6.23965e-13
3.71332e-09
2.26311e-06
0.000197856
0.00363412
0.0216497
0.063487
0.125055
0.198643
0.279197
0.362852
0.443661
0.520714
0.656092
1.44279
0.109613
0.162161
0.132025
0.242191
0.265514
0.22514
0.168236
0.108025
0.0551425
0.0186708
0.00307731
0.000163221
1.81266e-06
2.88767e-09
4.76913e-13
1.88446e-16
5.85812e-17
6.93478e-17
4.32016e-16
1.89095e-16
1.26765e-16
3.30376e-16
4.14712e-16
9.04851e-16
4.53901e-16
6.24236e-13
3.71329e-09
2.26311e-06
0.000197856
0.00363412
0.0216497
0.063487
0.125055
0.198643
0.279197
0.362852
0.443661
0.520714
0.656092
1.44279
0.209497
0.209269
0.0532422
0.232225
0.265367
0.225648
0.168467
0.107995
0.0550885
0.018644
0.0030712
0.000162802
1.80722e-06
2.87881e-09
4.71357e-13
1.91745e-16
4.83004e-17
4.08458e-17
4.02704e-16
2.95916e-16
2.42288e-16
5.70725e-16
6.21065e-16
6.64921e-16
7.19822e-16
6.24508e-13
3.71328e-09
2.26311e-06
0.000197856
0.00363412
0.0216497
0.063487
0.125055
0.198643
0.279197
0.362852
0.443661
0.520714
0.656092
1.44279
0.109613
0.162161
0.132025
0.242191
0.265514
0.22514
0.168236
0.108025
0.0551425
0.0186708
0.00307731
0.000163221
1.81266e-06
2.88769e-09
4.73856e-13
1.21292e-16
1.50882e-18
2.1959e-17
1.34344e-16
1.14157e-16
1.04292e-16
2.37621e-16
6.99031e-17
3.7671e-16
4.95436e-16
6.25193e-13
3.71326e-09
2.26311e-06
0.000197856
0.00363412
0.0216497
0.063487
0.125055
0.198643
0.279197
0.362852
0.443661
0.520714
0.656092
1.44279
0.393819
0.193694
0.24493
0.27054
0.268215
0.224045
0.167794
0.108144
0.0552984
0.0187404
0.00309264
0.000164283
1.82672e-06
2.91138e-09
4.83996e-13
2.32681e-17
7.34033e-17
7.94671e-18
7.61988e-17
7.82098e-17
7.8292e-18
1.11969e-16
4.76386e-16
1.84898e-16
1.90671e-16
6.2772e-13
3.71325e-09
2.26311e-06
0.000197856
0.00363412
0.0216497
0.063487
0.125055
0.198643
0.279197
0.362852
0.443661
0.520714
0.656092
1.44279
1.18088
0.47088
0.367877
0.315804
0.27762
0.225626
0.168576
0.108938
0.0559152
0.0190385
0.00315795
0.000168625
1.8834e-06
3.01063e-09
4.95425e-13
1.29675e-16
3.34015e-17
4.61082e-17
5.55267e-17
5.32917e-17
1.71629e-17
1.0363e-16
2.62141e-16
2.54159e-16
2.69024e-17
6.2634e-13
3.71325e-09
2.26311e-06
0.000197856
0.00363412
0.0216497
0.063487
0.125055
0.198643
0.279197
0.362852
0.443661
0.520714
0.656092
1.44279
1.44956
0.621656
0.454839
0.361856
0.299703
0.237393
0.174251
0.111912
0.0574267
0.0196263
0.00327683
0.000176395
1.98652e-06
3.19896e-09
5.2699e-13
3.28192e-16
1.16583e-16
1.04979e-16
1.17192e-16
2.43269e-16
9.81642e-17
4.28756e-19
6.8616e-17
1.20876e-16
4.95173e-17
6.25713e-13
3.71326e-09
2.26311e-06
0.000197856
0.00363412
0.0216497
0.063487
0.125055
0.198643
0.279197
0.362852
0.443661
0.520714
0.656092
1.44279
1.45479
0.645374
0.483742
0.3914
0.321281
0.251175
0.181746
0.115884
0.0593281
0.0203112
0.00340843
0.000184893
2.10182e-06
3.42006e-09
5.79879e-13
2.04865e-16
1.27551e-16
1.1229e-16
9.86833e-17
8.27905e-17
4.22387e-17
1.34203e-17
1.19156e-16
6.70641e-17
4.69284e-17
6.24214e-13
3.71329e-09
2.26311e-06
0.000197856
0.00363412
0.0216497
0.063487
0.125055
0.198643
0.279197
0.362852
0.443661
0.520714
0.656092
1.44279
1.44674
0.650341
0.497197
0.413321
0.33883
0.262778
0.188614
0.119674
0.0611313
0.0209371
0.00352417
0.000192189
2.20018e-06
3.60991e-09
6.08401e-13
1.89244e-16
1.50347e-16
5.29344e-17
3.08639e-17
6.34296e-17
8.66478e-17
8.52088e-18
5.59279e-17
7.32976e-17
1.29779e-17
6.30352e-13
3.71331e-09
2.26311e-06
0.000197856
0.00363412
0.0216497
0.063487
0.125055
0.198643
0.279197
0.362852
0.443661
0.520714
0.656092
1.44279
1.44264
0.651102
0.507185
0.427484
0.350487
0.270911
0.193703
0.122511
0.0624445
0.0213671
0.00359767
0.000196445
2.25307e-06
3.70413e-09
6.25566e-13
3.50794e-16
6.46209e-16
6.34327e-16
6.44977e-16
7.45296e-16
6.65094e-16
6.95109e-16
6.18589e-16
7.18893e-16
6.88372e-16
6.40009e-13
3.71328e-09
2.26311e-06
0.000197856
0.00363412
0.0216497
0.063487
0.125055
0.198643
0.279197
0.362852
0.443661
0.520714
0.656092
1.44279
1.43995
0.65169
0.514579
0.43644
0.357649
0.275886
0.196777
0.124162
0.063159
0.0215762
0.00362777
0.000197823
2.26624e-06
3.72489e-09
1.32964e-11
1.32717e-11
1.32726e-11
1.32777e-11
1.32832e-11
1.32707e-11
1.32812e-11
1.32652e-11
1.326e-11
1.32786e-11
1.32656e-11
1.33043e-11
3.71334e-09
2.26311e-06
0.000197856
0.00363412
0.0216497
0.063487
0.125055
0.198643
0.279197
0.362852
0.443661
0.520714
0.656092
1.44279
1.44014
0.653627
0.51877
0.441378
0.36131
0.278292
0.19817
0.124849
0.0634216
0.0216387
0.00363414
0.000197938
2.26497e-06
3.61106e-08
3.59218e-08
3.59217e-08
3.59217e-08
3.59217e-08
3.59216e-08
3.59217e-08
3.59216e-08
3.59217e-08
3.59217e-08
3.59216e-08
3.59217e-08
3.59216e-08
3.61132e-08
2.2634e-06
0.000197856
0.00363412
0.0216497
0.063487
0.125055
0.198643
0.279197
0.362852
0.443661
0.520714
0.656092
1.44279
1.44187
0.655353
0.520324
0.443219
0.362575
0.279057
0.198583
0.125035
0.0634824
0.0216497
0.00363414
0.000198179
1.14355e-05
1.12098e-05
1.12098e-05
1.12098e-05
1.12098e-05
1.12098e-05
1.12098e-05
1.12098e-05
1.12098e-05
1.12098e-05
1.12098e-05
1.12098e-05
1.12098e-05
1.12098e-05
1.12098e-05
1.1436e-05
0.000198173
0.00363413
0.0216497
0.0634869
0.125055
0.198643
0.279197
0.362852
0.443661
0.520714
0.656092
1.44279
1.44278
0.656027
0.520697
0.443634
0.362834
0.279179
0.198629
0.125049
0.0634851
0.0216552
0.00367736
0.000598868
0.000565286
0.000565282
0.000565282
0.000565282
0.000565282
0.000565282
0.000565282
0.000565282
0.000565282
0.000565282
0.000565282
0.000565282
0.000565282
0.000565282
0.000565282
0.000565286
0.000598867
0.00367729
0.0216552
0.0634859
0.125052
0.198639
0.279195
0.362852
0.443658
0.520716
0.656075
1.4428
1.44306
0.655897
0.520851
0.443705
0.362925
0.279257
0.198707
0.12518
0.0638039
0.0226835
0.00777382
0.00688337
0.0068808
0.0068808
0.0068808
0.0068808
0.0068808
0.0068808
0.0068808
0.0068808
0.0068808
0.0068808
0.0068808
0.0068808
0.0068808
0.0068808
0.0068808
0.0068808
0.00688337
0.00777384
0.0226831
0.0638022
0.125177
0.198701
0.279244
0.3629
0.443664
0.520792
0.655835
1.44309
1.4455
0.655421
0.521787
0.444472
0.364008
0.280657
0.200697
0.128493
0.0704454
0.0379205
0.0315137
0.0313228
0.031323
0.031323
0.031323
0.031323
0.031323
0.031323
0.031323
0.031323
0.031323
0.031323
0.031323
0.031323
0.031323
0.031323
0.031323
0.031323
0.0313228
0.0315137
0.0379206
0.0704457
0.128492
0.200693
0.280647
0.363987
0.444437
0.521744
0.655378
1.44548
1.45278
0.657993
0.526738
0.449705
0.370561
0.289097
0.212477
0.146602
0.100346
0.0813923
0.078771
0.0787158
0.078717
0.078717
0.078717
0.078717
0.078717
0.078717
0.078717
0.078717
0.078717
0.078717
0.078717
0.078717
0.078717
0.078717
0.078717
0.078717
0.0787158
0.078771
0.0813923
0.100346
0.146602
0.212477
0.289096
0.370558
0.449701
0.526733
0.65799
1.45277
1.46548
0.669645
0.540555
0.465036
0.388833
0.311909
0.242656
0.188021
0.155199
0.144047
0.142702
0.142688
0.14269
0.14269
0.14269
0.14269
0.14269
0.14269
0.14269
0.14269
0.14269
0.14269
0.14269
0.14269
0.14269
0.14269
0.14269
0.14269
0.142688
0.142702
0.144047
0.155198
0.188021
0.242656
0.311909
0.388833
0.465036
0.540556
0.669646
1.46548
1.47861
0.69321
0.567347
0.493566
0.422288
0.351605
0.291772
0.248253
0.224676
0.217325
0.216494
0.216492
0.216493
0.216493
0.216493
0.216493
0.216493
0.216493
0.216493
0.216493
0.216493
0.216493
0.216493
0.216493
0.216493
0.216493
0.216493
0.216493
0.216492
0.216494
0.217325
0.224676
0.248253
0.291772
0.351605
0.422288
0.493567
0.567347
0.69321
1.47861
1.49794
0.727822
0.606899
0.535895
0.469228
0.406224
0.354832
0.319886
0.301998
0.296626
0.296014
0.296007
0.296008
0.296008
0.296008
0.296008
0.296008
0.296008
0.296008
0.296008
0.296008
0.296008
0.296008
0.296008
0.296008
0.296008
0.296008
0.296008
0.296007
0.296014
0.296626
0.301998
0.319886
0.354832
0.406224
0.469227
0.535895
0.606899
0.727822
1.49794
1.50175
0.771387
0.662289
0.587808
0.529995
0.47065
0.426445
0.396897
0.382421
0.378164
0.377666
0.377655
0.377655
0.377655
0.377655
0.377655
0.377655
0.377655
0.377655
0.377655
0.377655
0.377655
0.377655
0.377655
0.377655
0.377655
0.377655
0.377655
0.377655
0.377666
0.378164
0.382421
0.396897
0.426445
0.47065
0.529995
0.587808
0.662289
0.771387
1.50175
1.52907
0.815897
0.713204
0.643769
0.587481
0.536766
0.497067
0.471729
0.459503
0.456061
0.455712
0.455717
0.455718
0.455718
0.455718
0.455718
0.455718
0.455718
0.455718
0.455718
0.455718
0.455718
0.455718
0.455718
0.455718
0.455718
0.455718
0.455718
0.455717
0.455712
0.456061
0.459503
0.471729
0.497067
0.536766
0.587481
0.643769
0.713204
0.815897
1.52907
1.52408
0.875477
0.793522
0.711017
0.659113
0.605697
0.568823
0.545222
0.533981
0.530488
0.529951
0.529916
0.529916
0.529916
0.529916
0.529916
0.529916
0.529916
0.529916
0.529916
0.529916
0.529916
0.529916
0.529916
0.529916
0.529916
0.529916
0.529916
0.529916
0.529951
0.530488
0.533981
0.545222
0.568823
0.605697
0.659113
0.711017
0.793522
0.875477
1.52408
1.58692
0.966651
0.877328
0.817003
0.771664
0.728751
0.695546
0.674345
0.66538
0.664246
0.664798
0.664935
0.66494
0.66494
0.66494
0.66494
0.66494
0.66494
0.66494
0.66494
0.66494
0.66494
0.66494
0.66494
0.66494
0.66494
0.66494
0.66494
0.664935
0.664798
0.664246
0.66538
0.674345
0.695546
0.728751
0.771664
0.817003
0.877328
0.966651
1.58692
2.09916
1.59365
1.53148
1.53728
1.51036
1.50583
1.48716
1.47391
1.46241
1.45665
1.45518
1.45506
1.45506
1.45506
1.45506
1.45506
1.45506
1.45506
1.45506
1.45506
1.45506
1.45506
1.45506
1.45506
1.45506
1.45506
1.45506
1.45506
1.45506
1.45518
1.45665
1.46241
1.47391
1.48716
1.50583
1.51036
1.53728
1.53148
1.59365
2.09916
2.09916
1.59365
1.53148
1.53728
1.51036
1.50583
1.48716
1.47391
1.46241
1.45665
1.45518
1.45506
1.45506
1.45506
1.45506
1.45506
1.45506
1.45506
1.45506
1.45506
1.45506
1.45506
1.45506
1.45506
1.45506
1.45506
1.45506
1.45506
1.45506
1.45518
1.45665
1.46241
1.47391
1.48716
1.50583
1.51036
1.53728
1.53148
1.59365
2.09916
1.58692
0.966651
0.877328
0.817003
0.771664
0.728751
0.695546
0.674345
0.66538
0.664246
0.664798
0.664935
0.66494
0.66494
0.66494
0.66494
0.66494
0.66494
0.66494
0.66494
0.66494
0.66494
0.66494
0.66494
0.66494
0.66494
0.66494
0.66494
0.664935
0.664798
0.664246
0.66538
0.674345
0.695546
0.728751
0.771664
0.817003
0.877328
0.966651
1.58692
1.52408
0.875477
0.793522
0.711017
0.659113
0.605697
0.568823
0.545222
0.533981
0.530488
0.529951
0.529916
0.529916
0.529916
0.529916
0.529916
0.529916
0.529916
0.529916
0.529916
0.529916
0.529916
0.529916
0.529916
0.529916
0.529916
0.529916
0.529916
0.529916
0.529951
0.530488
0.533981
0.545222
0.568823
0.605697
0.659113
0.711017
0.793522
0.875477
1.52408
1.52907
0.815897
0.713204
0.643769
0.587481
0.536766
0.497067
0.471729
0.459503
0.456061
0.455712
0.455717
0.455718
0.455718
0.455718
0.455718
0.455718
0.455718
0.455718
0.455718
0.455718
0.455718
0.455718
0.455718
0.455718
0.455718
0.455718
0.455718
0.455717
0.455712
0.456061
0.459503
0.471729
0.497067
0.536766
0.587481
0.643769
0.713204
0.815897
1.52907
1.50175
0.771387
0.662289
0.587808
0.529995
0.47065
0.426445
0.396897
0.382421
0.378164
0.377666
0.377655
0.377655
0.377655
0.377655
0.377655
0.377655
0.377655
0.377655
0.377655
0.377655
0.377655
0.377655
0.377655
0.377655
0.377655
0.377655
0.377655
0.377655
0.377666
0.378164
0.382421
0.396897
0.426445
0.47065
0.529995
0.587808
0.662289
0.771387
1.50175
1.49794
0.727822
0.606899
0.535895
0.469228
0.406224
0.354832
0.319886
0.301998
0.296626
0.296014
0.296007
0.296008
0.296008
0.296008
0.296008
0.296008
0.296008
0.296008
0.296008
0.296008
0.296008
0.296008
0.296008
0.296008
0.296008
0.296008
0.296008
0.296007
0.296014
0.296626
0.301998
0.319886
0.354832
0.406224
0.469227
0.535895
0.606899
0.727822
1.49794
1.47861
0.69321
0.567347
0.493566
0.422288
0.351605
0.291772
0.248253
0.224676
0.217325
0.216494
0.216492
0.216493
0.216493
0.216493
0.216493
0.216493
0.216493
0.216493
0.216493
0.216493
0.216493
0.216493
0.216493
0.216493
0.216493
0.216493
0.216493
0.216492
0.216494
0.217325
0.224676
0.248253
0.291772
0.351605
0.422288
0.493567
0.567347
0.69321
1.47861
1.46548
0.669645
0.540555
0.465036
0.388833
0.311909
0.242656
0.188021
0.155199
0.144047
0.142702
0.142688
0.14269
0.14269
0.14269
0.14269
0.14269
0.14269
0.14269
0.14269
0.14269
0.14269
0.14269
0.14269
0.14269
0.14269
0.14269
0.14269
0.142688
0.142702
0.144047
0.155198
0.188021
0.242656
0.311909
0.388833
0.465036
0.540556
0.669646
1.46548
1.45278
0.657993
0.526738
0.449705
0.370561
0.289097
0.212477
0.146602
0.100346
0.0813923
0.078771
0.0787158
0.078717
0.078717
0.078717
0.078717
0.078717
0.078717
0.078717
0.078717
0.078717
0.078717
0.078717
0.078717
0.078717
0.078717
0.078717
0.078717
0.0787158
0.078771
0.0813923
0.100346
0.146602
0.212477
0.289096
0.370558
0.449701
0.526733
0.65799
1.45277
1.4455
0.655421
0.521787
0.444472
0.364008
0.280657
0.200697
0.128493
0.0704454
0.0379205
0.0315137
0.0313228
0.031323
0.031323
0.031323
0.031323
0.031323
0.031323
0.031323
0.031323
0.031323
0.031323
0.031323
0.031323
0.031323
0.031323
0.031323
0.031323
0.0313228
0.0315137
0.0379206
0.0704457
0.128492
0.200693
0.280647
0.363987
0.444437
0.521744
0.655378
1.44548
1.44306
0.655897
0.520851
0.443705
0.362925
0.279257
0.198707
0.12518
0.0638039
0.0226835
0.00777382
0.00688337
0.0068808
0.0068808
0.0068808
0.0068808
0.0068808
0.0068808
0.0068808
0.0068808
0.0068808
0.0068808
0.0068808
0.0068808
0.0068808
0.0068808
0.0068808
0.0068808
0.00688337
0.00777384
0.0226831
0.0638022
0.125177
0.198701
0.279244
0.3629
0.443664
0.520792
0.655835
1.44309
1.44278
0.656027
0.520697
0.443634
0.362834
0.279179
0.198629
0.125049
0.0634851
0.0216552
0.00367736
0.000598868
0.000565286
0.000565282
0.000565282
0.000565282
0.000565282
0.000565282
0.000565282
0.000565282
0.000565282
0.000565282
0.000565282
0.000565282
0.000565282
0.000565282
0.000565282
0.000565286
0.000598867
0.00367729
0.0216552
0.0634859
0.125052
0.198639
0.279195
0.362852
0.443658
0.520716
0.656075
1.4428
1.44187
0.655353
0.520324
0.443219
0.362575
0.279057
0.198583
0.125035
0.0634824
0.0216497
0.00363414
0.000198179
1.14355e-05
1.12098e-05
1.12098e-05
1.12098e-05
1.12098e-05
1.12098e-05
1.12098e-05
1.12098e-05
1.12098e-05
1.12098e-05
1.12098e-05
1.12098e-05
1.12098e-05
1.12098e-05
1.12098e-05
1.1436e-05
0.000198173
0.00363413
0.0216497
0.0634869
0.125055
0.198643
0.279197
0.362852
0.443661
0.520714
0.656092
1.44279
1.44014
0.653627
0.51877
0.441378
0.36131
0.278292
0.19817
0.124849
0.0634216
0.0216387
0.00363414
0.000197938
2.26497e-06
3.61106e-08
3.59218e-08
3.59216e-08
3.59217e-08
3.59217e-08
3.59217e-08
3.59217e-08
3.59217e-08
3.59217e-08
3.59217e-08
3.59217e-08
3.59217e-08
3.59216e-08
3.6113e-08
2.2634e-06
0.000197856
0.00363412
0.0216497
0.063487
0.125055
0.198643
0.279197
0.362852
0.443661
0.520714
0.656092
1.44279
1.43995
0.65169
0.514579
0.43644
0.357649
0.275886
0.196777
0.124162
0.063159
0.0215762
0.00362777
0.000197823
2.26624e-06
3.72484e-09
1.32952e-11
1.32738e-11
1.32572e-11
1.32595e-11
1.32798e-11
1.32703e-11
1.32812e-11
1.32653e-11
1.32601e-11
1.32787e-11
1.32656e-11
1.33199e-11
3.71333e-09
2.26311e-06
0.000197856
0.00363412
0.0216497
0.063487
0.125055
0.198643
0.279197
0.362852
0.443661
0.520714
0.656092
1.44279
1.44264
0.651102
0.507185
0.427484
0.350487
0.270911
0.193703
0.122511
0.0624445
0.0213671
0.00359767
0.000196445
2.25307e-06
3.70409e-09
6.25817e-13
4.65707e-16
5.66978e-16
5.22862e-16
6.22619e-16
7.41501e-16
6.45181e-16
6.87873e-16
5.09306e-16
6.03325e-16
7.1916e-16
6.25849e-13
3.71335e-09
2.26311e-06
0.000197856
0.00363412
0.0216497
0.063487
0.125055
0.198643
0.279197
0.362852
0.443661
0.520714
0.656092
1.44279
1.44674
0.650341
0.497197
0.413321
0.33883
0.262778
0.188614
0.119674
0.0611313
0.0209371
0.00352417
0.000192189
2.20018e-06
3.60993e-09
6.08219e-13
2.86837e-16
1.91001e-16
1.91293e-16
8.213e-17
7.11048e-17
8.5316e-19
5.71776e-17
5.41133e-17
1.4274e-18
4.47754e-17
6.35436e-13
3.71326e-09
2.26311e-06
0.000197856
0.00363412
0.0216497
0.063487
0.125055
0.198643
0.279197
0.362852
0.443661
0.520714
0.656092
1.44279
1.45479
0.645374
0.483742
0.3914
0.321281
0.251175
0.181746
0.115884
0.0593281
0.0203112
0.00340843
0.000184893
2.10182e-06
3.42006e-09
5.71678e-13
1.40471e-16
4.51893e-17
5.67005e-17
1.32732e-19
8.74455e-17
1.28141e-18
0
5.41133e-17
1.38895e-17
2.38418e-17
6.27819e-13
3.71326e-09
2.26311e-06
0.000197856
0.00363412
0.0216497
0.063487
0.125055
0.198643
0.279197
0.362852
0.443661
0.520714
0.656092
1.44279
1.44956
0.621656
0.454839
0.361856
0.299703
0.237393
0.174251
0.111912
0.0574267
0.0196263
0.00327683
0.000176395
1.98652e-06
3.19896e-09
5.28784e-13
1.18677e-16
6.95125e-17
1.73159e-16
5.16176e-17
1.84882e-16
6.45638e-17
0
0
8.55389e-17
1.15868e-16
6.2631e-13
3.71329e-09
2.26311e-06
0.000197856
0.00363412
0.0216497
0.063487
0.125055
0.198643
0.279197
0.362852
0.443661
0.520714
0.656092
1.44279
1.18088
0.47088
0.367877
0.315804
0.27762
0.225626
0.168576
0.108938
0.0559152
0.0190385
0.00315795
0.000168625
1.8834e-06
3.01062e-09
4.94126e-13
3.02175e-16
2.24834e-16
2.51415e-16
3.94301e-16
2.9363e-16
2.00638e-16
6.69542e-17
5.30917e-18
1.8166e-16
1.53796e-16
6.24912e-13
3.71333e-09
2.26311e-06
0.000197856
0.00363412
0.0216497
0.063487
0.125055
0.198643
0.279197
0.362852
0.443661
0.520714
0.656092
1.44279
)
;

boundaryField
{
    inlet
    {
        type            calculated;
        value           uniform 0;
    }
    outlet
    {
        type            calculated;
        value           nonuniform List<scalar> 
165
(
1.18088
1.44956
1.45479
1.44674
1.44264
1.43995
1.44014
1.44187
1.44278
1.44306
1.4455
1.45278
1.46548
1.47861
1.49794
1.50175
1.52907
1.52408
1.58692
2.09916
2.09916
1.59365
1.53148
1.53728
1.51036
1.50583
1.48716
1.47391
1.46241
1.45665
1.45518
1.45506
1.45506
1.45506
1.45506
1.45506
1.45506
1.45506
1.45506
1.45506
1.45506
1.45506
1.45506
1.45506
1.45506
1.45506
1.45506
1.45506
1.45506
1.45518
1.45665
1.46241
1.47391
1.48716
1.50583
1.51036
1.53728
1.53148
1.59365
2.09916
1.44279
1.44279
1.44279
1.44279
1.44279
1.44279
1.44279
1.44279
1.4428
1.44309
1.44548
1.45277
1.46548
1.47861
1.49794
1.50175
1.52907
1.52408
1.58692
2.09916
1.44279
1.44279
1.44279
1.44279
1.44279
2.09916
1.58692
1.52408
1.52907
1.50175
1.49794
1.47861
1.46548
1.45277
1.44548
1.44309
1.4428
1.44279
1.44279
1.44279
1.44279
1.44279
1.44279
1.44279
1.44279
2.09916
1.59365
1.53148
1.53728
1.51036
1.50583
1.48716
1.47391
1.46241
1.45665
1.45518
1.45506
1.45506
1.45506
1.45506
1.45506
1.45506
1.45506
1.45506
1.45506
1.45506
1.45506
1.45506
1.45506
1.45506
1.45506
1.45506
1.45506
1.45506
1.45518
1.45665
1.46241
1.47391
1.48716
1.50583
1.51036
1.53728
1.53148
1.59365
2.09916
2.09916
1.58692
1.52408
1.52907
1.50175
1.49794
1.47861
1.46548
1.45278
1.4455
1.44306
1.44278
1.44187
1.44014
1.43995
1.44264
1.44674
1.45479
1.44956
1.18088
)
;
    }
    obstacle
    {
        type            calculated;
        value           nonuniform List<scalar> 
40
(
9.61966e-08
1.90957e-07
2.36967e-07
1.28392e-07
5.39749e-05
0.0013041
0.00860143
0.0232589
0.0372451
0.0399603
9.61967e-08
1.90957e-07
2.36967e-07
1.28392e-07
5.39749e-05
0.0013041
0.00860143
0.0232589
0.0372451
0.0399603
0.0479919
0.0655294
0.0833407
0.107002
0.157668
0.0479919
0.0655294
0.0833407
0.107002
0.157668
0.181555
0.147119
0.129166
0.127045
0.196779
0.181555
0.147119
0.129166
0.127045
0.196779
)
;
    }
    empty
    {
        type            empty;
    }
}


// ************************************************************************* //
