/*--------------------------------*- C++ -*----------------------------------*\
| =========                 |                                                 |
| \\      /  F ield         | OpenFOAM: The Open Source CFD Toolbox           |
|  \\    /   O peration     | Version:  v1912                                 |
|   \\  /    A nd           | Website:  www.openfoam.com                      |
|    \\/     M anipulation  |                                                 |
\*---------------------------------------------------------------------------*/
FoamFile
{
    version     2.0;
    format      ascii;
    class       volVectorField;
    location    "7.46";
    object      grad(p);
}
// * * * * * * * * * * * * * * * * * * * * * * * * * * * * * * * * * * * * * //

dimensions      [1 -2 -2 0 0 0 0];


internalField   nonuniform List<vector> 
1900
(
(57503.2 -0.0864204 0)
(-68323.5 0.0437087 0)
(-3760.23 -0.332254 0)
(-513.014 0.518945 0)
(-423.045 -0.0973138 0)
(-332.71 2.16762 0)
(-259.885 -1.29077 0)
(-173.716 15.8506 0)
(-109.533 27.2624 0)
(735.058 -2.51028 0)
(57503.2 -0.1577 0)
(-68323.7 0.0800706 0)
(-3759.76 -0.579396 0)
(-512.779 1.11286 0)
(-421.396 1.00646 0)
(-333.904 4.95368 0)
(-246.202 -5.21519 0)
(-145.163 13.585 0)
(-127.894 -5.84872 0)
(-110.889 -54.9878 0)
(57503.1 1.77636e-10 0)
(-68323.9 -2.70006e-09 0)
(-3759.2 -1.04805e-09 0)
(-511.428 7.4607e-10 0)
(-419.204 1.20792e-09 0)
(-338.932 -3.19744e-10 0)
(-251.254 -1.13687e-09 0)
(-174.35 4.26326e-10 0)
(-178.106 4.08562e-10 0)
(-248.587 -4.44089e-10 0)
(57503.2 0.1577 0)
(-68323.7 -0.0800706 0)
(-3759.76 0.579396 0)
(-512.779 -1.11286 0)
(-421.396 -1.00646 0)
(-333.904 -4.95368 0)
(-246.202 5.21519 0)
(-145.163 -13.585 0)
(-127.894 5.84872 0)
(-110.889 54.9878 0)
(57503.2 0.0864204 0)
(-68323.5 -0.0437087 0)
(-3760.23 0.332254 0)
(-513.014 -0.518945 0)
(-423.045 0.0973138 0)
(-332.71 -2.16762 0)
(-259.885 1.29077 0)
(-173.716 -15.8506 0)
(-109.533 -27.2624 0)
(735.058 2.51028 0)
(-46.9687 -704.731 8.39061e-12)
(-1495.98 -532.406 -9.85945e-12)
(-1435.55 -607.894 -1.24139e-11)
(811.341 -843.281 0)
(-18327.3 -7696.97 -5.41239e-11)
(-504.422 -863.55 8.26326e-12)
(-983.225 -655.06 9.85945e-12)
(-1358.54 -714.9 1.24139e-11)
(-1858.22 -603.267 0)
(-17524.8 -7126.45 0)
(-806.95 -1.94691e-09 0)
(-1040.53 -1.07127e-09 0)
(-1276.54 -2.12176e-09 0)
(-1831.09 -7.73792e-10 0)
(-20190.9 -3.01346e-09 0)
(-504.422 863.55 8.26326e-12)
(-983.225 655.06 9.85945e-12)
(-1358.54 714.9 1.24139e-11)
(-1858.22 603.267 0)
(-17524.8 7126.45 0)
(-46.9687 704.731 -2.49171e-11)
(-1495.98 532.406 -9.85945e-12)
(-1435.55 607.894 -1.24139e-11)
(811.341 843.281 -3.33619e-11)
(-18327.3 7696.97 5.41239e-11)
(-36726.8 10450 9.96732e-12)
(-11063.9 4076.62 -4.87403e-12)
(-4994.14 1870.54 0)
(-3139.04 1286.32 2.01734e-12)
(-1307.77 813.269 -6.80033e-13)
(-32865.2 12934.4 -5.14102e-12)
(-12969.8 3312.96 2.4984e-12)
(-5685.24 1069.74 0)
(-3430.42 789.172 -1.29099e-12)
(-1985.4 245.86 1.77983e-13)
(-33927.1 2.69145e-10 0)
(-14092.9 4.36498e-10 0)
(-5789.37 2.96059e-10 0)
(-3504.98 5.15202e-10 5.25905e-13)
(-1942.32 1.46082e-10 -3.55965e-13)
(-32865.2 -12934.4 -5.14102e-12)
(-12969.8 -3312.96 2.4984e-12)
(-5685.24 -1069.74 0)
(-3430.42 -789.172 -1.29099e-12)
(-1985.4 -245.86 1.77983e-13)
(-36726.8 -10450 5.14102e-12)
(-11063.9 -4076.62 -1.22774e-13)
(-4994.14 -1870.54 0)
(-3139.04 -1286.32 3.87398e-14)
(-1307.77 -813.269 6.80033e-13)
(-42.0842 -1197.35 0)
(-210.798 -516.009 0)
(-277.954 146.515 0)
(-399.859 336.789 0)
(-620.471 247.716 0)
(-372.356 -51.6912 0)
(533.216 -245.31 0)
(2404.62 -505.451 0)
(2333.57 77.9441 0)
(404.569 302.313 0)
(-123.752 279.651 0)
(-139.38 257.905 0)
(-388.332 217.369 0)
(-775.402 185.962 0)
(-1018.77 117.891 0)
(-1070.11 123.739 0)
(-1075.16 106.556 0)
(-1135.13 76.0407 0)
(-1035.28 48.5708 0)
(-625.647 18.5818 0)
(-241.471 1.81386 0)
(-101.765 -0.494901 0)
(-75.6457 0.480895 0)
(-64.7784 0.0131255 0)
(-47.9895 -0.897621 0)
(-26.6905 -1.47727 0)
(-7.78699 -1.6048 0)
(3.37585 -1.4309 0)
(9.6605 -1.2542 0)
(12.2562 -1.0263 0)
(15.581 -0.929201 0)
(51.7561 -0.840008 0)
(272.724 -0.960682 0)
(868.946 -1.81071 0)
(1155.13 0.85611 0)
(824.849 4.32074 0)
(519.373 0.600711 0)
(438.547 4.41128 0)
(439.281 1.70212 0)
(605.701 0.498954 0)
(-483.977 -770.231 0)
(-12.7332 -640.157 0)
(-106.698 -125.343 0)
(-369.299 158.143 0)
(-671.885 265.948 0)
(-449.412 38.9112 0)
(505.29 -86.466 0)
(2424.56 -221.38 0)
(2377.2 -46.8973 0)
(445.765 79.5011 0)
(-113.676 98.1739 0)
(-140.414 98.49 0)
(-385.68 115.141 0)
(-785.177 315.714 0)
(-1027.81 268.319 0)
(-1061.21 114.565 0)
(-1075.64 53.7848 0)
(-1145.58 30.51 0)
(-1046.29 19.1781 0)
(-631.667 8.06991 0)
(-243.153 0.72888 0)
(-101.791 -0.238745 0)
(-75.5862 0.277076 0)
(-64.93 0.0226838 0)
(-48.1276 -0.412017 0)
(-26.7455 -0.653941 0)
(-7.77917 -0.689269 0)
(3.4074 -0.610753 0)
(9.69727 -0.538678 0)
(12.2838 -0.444493 0)
(15.588 -0.415963 0)
(51.7548 -0.419822 0)
(272.581 -0.425913 0)
(869.074 -1.07757 0)
(1155.59 0.160201 0)
(824.904 0.991237 0)
(518.997 0.499602 0)
(438.449 -0.456344 0)
(439.764 0.24922 0)
(605.374 0.574189 0)
(-359.695 -4.07755e-10 0)
(-23.1942 1.8571e-10 0)
(-45.7218 2.76546e-09 0)
(-286.029 2.67665e-09 0)
(-655.157 7.08524e-10 0)
(-474.877 -1.00929e-11 0)
(457.494 1.66735e-09 0)
(2416.13 9.78207e-09 0)
(2421.1 -2.20833e-09 0)
(446.772 -1.55795e-08 0)
(-118.228 2.21641e-09 0)
(-134.444 -1.10619e-09 0)
(-325.139 -2.71823e-08 0)
(-730.841 -2.91323e-08 0)
(-1077.29 -5.68838e-09 0)
(-1132.52 1.05734e-08 0)
(-1099.61 2.36578e-08 0)
(-1145.19 1.85649e-08 0)
(-1041.8 8.85554e-09 0)
(-631.014 4.46915e-09 0)
(-243.888 -3.41141e-10 0)
(-101.896 -3.86559e-09 0)
(-75.5697 1.31612e-09 0)
(-64.9789 -1.71883e-09 0)
(-48.1863 -1.43723e-09 0)
(-26.7711 -2.9976e-10 0)
(-7.77442 2.73519e-10 0)
(3.41966 -1.41705e-09 0)
(9.70887 -2.36679e-09 0)
(12.2919 -1.69057e-09 0)
(15.5881 -2.281e-09 0)
(51.7532 -3.38921e-09 0)
(272.533 6.27781e-10 0)
(869.117 -2.98347e-09 0)
(1155.73 2.07713e-09 0)
(824.947 1.21519e-09 0)
(518.952 2.70491e-10 0)
(438.474 -1.34438e-09 0)
(439.581 -7.02468e-10 0)
(605.461 -9.16439e-10 0)
(-483.977 770.231 0)
(-12.7332 640.157 0)
(-106.698 125.343 0)
(-369.299 -158.143 0)
(-671.885 -265.948 0)
(-449.412 -38.9112 0)
(505.29 86.466 0)
(2424.56 221.38 0)
(2377.2 46.8973 0)
(445.765 -79.5011 0)
(-113.676 -98.1739 0)
(-140.414 -98.49 0)
(-385.68 -115.141 0)
(-785.177 -315.714 0)
(-1027.81 -268.319 0)
(-1061.21 -114.565 0)
(-1075.64 -53.7848 0)
(-1145.58 -30.51 0)
(-1046.29 -19.1781 0)
(-631.667 -8.06991 0)
(-243.153 -0.72888 0)
(-101.791 0.238745 0)
(-75.5862 -0.277076 0)
(-64.93 -0.0226838 0)
(-48.1276 0.412017 0)
(-26.7455 0.653941 0)
(-7.77917 0.689269 0)
(3.4074 0.610753 0)
(9.69727 0.538678 0)
(12.2838 0.444493 0)
(15.588 0.415963 0)
(51.7548 0.419822 0)
(272.581 0.425913 0)
(869.074 1.07757 0)
(1155.59 -0.160201 0)
(824.904 -0.991237 0)
(518.997 -0.499602 0)
(438.449 0.456344 0)
(439.764 -0.24922 0)
(605.374 -0.574189 0)
(-42.0842 1197.35 0)
(-210.798 516.009 0)
(-277.954 -146.515 0)
(-399.859 -336.789 0)
(-620.471 -247.716 0)
(-372.356 51.6912 0)
(533.216 245.31 0)
(2404.62 505.451 0)
(2333.57 -77.9441 0)
(404.569 -302.313 0)
(-123.752 -279.651 0)
(-139.38 -257.905 0)
(-388.332 -217.369 0)
(-775.402 -185.962 0)
(-1018.77 -117.891 0)
(-1070.11 -123.739 0)
(-1075.16 -106.556 0)
(-1135.13 -76.0407 0)
(-1035.28 -48.5708 0)
(-625.647 -18.5818 0)
(-241.471 -1.81386 0)
(-101.765 0.494901 0)
(-75.6457 -0.480895 0)
(-64.7784 -0.0131255 0)
(-47.9895 0.897621 0)
(-26.6905 1.47727 0)
(-7.78699 1.6048 0)
(3.37585 1.4309 0)
(9.6605 1.2542 0)
(12.2562 1.0263 0)
(15.581 0.929201 0)
(51.7561 0.840008 0)
(272.724 0.960682 0)
(868.946 1.81071 0)
(1155.13 -0.85611 0)
(824.849 -4.32074 0)
(519.373 -0.600711 0)
(438.547 -4.41128 0)
(439.281 -1.70212 0)
(605.701 -0.498954 0)
(-674.653 555.329 0)
(-626.69 100.056 0)
(-443.62 -201.973 0)
(-397.445 -353.226 0)
(-487.648 -281.775 0)
(-229.247 50.7918 0)
(757.631 277.967 0)
(2244.85 730.287 0)
(1920.96 -285.032 0)
(366.873 -507.61 0)
(-74.1692 -409.917 0)
(-102.541 -369.194 0)
(-337.486 -391.672 0)
(-734.078 -365.713 0)
(-999.237 -300.606 0)
(-1043.81 -218.868 0)
(-1046.28 -144.437 0)
(-1121.29 -109.458 0)
(-1022.99 -84.9087 0)
(-609.298 -34.5267 0)
(-233.132 -3.98115 0)
(-100.984 0.477063 0)
(-75.836 -0.600299 0)
(-64.2405 -0.0483078 0)
(-47.3525 1.37492 0)
(-26.3655 2.48659 0)
(-7.79922 2.78989 0)
(3.22395 2.50128 0)
(9.48599 2.18528 0)
(12.1118 1.79581 0)
(15.4794 1.5639 0)
(51.7731 1.33825 0)
(273.025 1.58599 0)
(868.082 2.3159 0)
(1152.27 -1.26525 0)
(825.128 -7.28093 0)
(518.506 -0.018407 0)
(437.645 -10.8379 0)
(442.777 -3.69857 0)
(606.378 0.456541 0)
(-632.985 47.2904 0)
(-717.546 216.681 0)
(-625.918 275.806 0)
(-478.054 131.012 0)
(-302.369 171.039 0)
(90.2907 455.164 0)
(1067.66 730.899 0)
(1947.77 693.575 0)
(1361.95 -241.807 0)
(304.439 -561.235 0)
(-16.9579 -509.177 0)
(-141.552 -491.89 0)
(-412.243 -563.687 0)
(-709.807 -551.931 0)
(-887.745 -440.152 0)
(-933.73 -309.164 0)
(-985.214 -225.71 0)
(-1085.18 -190.475 0)
(-969.656 -138.496 0)
(-556.43 -49.4277 0)
(-212.211 -5.50979 0)
(-98.9253 0.341915 0)
(-76.05 -0.422693 0)
(-63.1635 0.311237 0)
(-45.8884 2.16459 0)
(-25.5012 3.78913 0)
(-7.76627 4.31214 0)
(2.87467 3.95656 0)
(9.07427 3.5174 0)
(11.7349 2.94301 0)
(15.1945 2.53512 0)
(51.7682 2.16381 0)
(273.505 2.43145 0)
(866.662 3.12693 0)
(1147.42 -1.06938 0)
(825.901 -7.05007 0)
(516.411 -0.905565 0)
(435.484 -9.74337 0)
(448.29 -0.444955 0)
(608.462 2.46456 0)
(-420.281 21.5845 0)
(-406.485 148.387 0)
(-526.173 263.437 0)
(-498.401 281.337 0)
(-175.284 448.992 0)
(310.254 670.919 0)
(987.372 713.271 0)
(1307.51 363.632 0)
(711.779 -381.524 0)
(109.225 -614.903 0)
(-7.34639 -526.816 0)
(-155.069 -596.341 0)
(-395.343 -636.556 0)
(-615.036 -581.128 0)
(-765.298 -471.85 0)
(-837.163 -362.156 0)
(-931.909 -291.714 0)
(-1037.25 -254.582 0)
(-887.073 -174.882 0)
(-481.147 -56.4651 0)
(-185.172 -5.83049 0)
(-96.0822 0.337304 0)
(-75.8656 0.0803451 0)
(-61.7473 1.16905 0)
(-44.001 3.3815 0)
(-24.2961 5.38324 0)
(-7.63788 6.08497 0)
(2.45811 5.72213 0)
(8.50929 5.21294 0)
(11.1652 4.47017 0)
(14.7285 3.88445 0)
(51.6732 3.37717 0)
(273.953 3.66129 0)
(864.708 4.58953 0)
(1142.46 -0.0615574 0)
(825.286 -5.01313 0)
(515.91 -1.32396 0)
(438.088 -3.78329 0)
(454.541 4.95484 0)
(604.432 6.07199 0)
(-469.194 -14.8101 0)
(-484.488 -76.7408 0)
(-497.803 -55.9357 0)
(-299.247 136.451 0)
(73.0472 385.231 0)
(344.96 497.172 0)
(771.55 416.844 0)
(892.789 5.6306 0)
(418.997 -524.611 0)
(164.43 -480.419 0)
(0.92894 -507.927 0)
(-247.302 -591.98 0)
(-397.583 -593.351 0)
(-551.091 -560.005 0)
(-676.736 -489.455 0)
(-760.143 -401.308 0)
(-881.552 -341.46 0)
(-972.598 -300.736 0)
(-778.743 -189.57 0)
(-393.526 -53.7821 0)
(-157.474 -5.38431 0)
(-93.2294 0.0747791 0)
(-75.2485 0.425254 0)
(-59.9824 2.03886 0)
(-41.8274 4.60188 0)
(-22.896 6.86482 0)
(-7.4397 7.67677 0)
(2.03436 7.34749 0)
(7.86783 6.82517 0)
(10.4548 5.98907 0)
(14.1413 5.26513 0)
(51.5532 4.6474 0)
(274.673 4.96738 0)
(863.075 5.71132 0)
(1138.17 -0.0448974 0)
(824.684 -4.66576 0)
(517.596 -1.88892 0)
(441.535 0.576291 0)
(457.787 6.75389 0)
(597.836 6.36683 0)
(-508.502 -7.05258 0)
(-446.115 25.4618 0)
(-320.734 179.301 0)
(-73.277 399.402 0)
(172.32 476.145 0)
(340.718 423.486 0)
(513.705 328.76 0)
(400.291 -209.017 0)
(243.403 -454.321 0)
(125.303 -460.817 0)
(-114.851 -567.016 0)
(-237.386 -575.942 0)
(-364.53 -568.345 0)
(-514.918 -554.588 0)
(-612.372 -492.832 0)
(-694.55 -414.216 0)
(-834.993 -372.45 0)
(-890.884 -328.067 0)
(-649.1 -181.133 0)
(-303.659 -43.4936 0)
(-133.274 -4.24845 0)
(-90.4839 -0.11017 0)
(-73.9729 0.836068 0)
(-57.7226 3.0964 0)
(-39.3506 6.04007 0)
(-21.333 8.48516 0)
(-7.17276 9.36 0)
(1.63748 9.10278 0)
(7.20027 8.62168 0)
(9.66189 7.77704 0)
(13.4356 6.99164 0)
(51.3863 6.41089 0)
(274.978 6.82804 0)
(859.878 8.4589 0)
(1132.46 2.60254 0)
(823.509 -2.68 0)
(520.962 -0.832461 0)
(446.417 4.0717 0)
(460.121 8.88023 0)
(591.788 6.45416 0)
(-451.455 35.6278 0)
(-304.911 165.915 0)
(-137.46 336.963 0)
(-13.1972 379.261 0)
(96.2553 249.143 0)
(202.935 88.9163 0)
(162.047 -160.07 0)
(138.184 -412.719 0)
(176.353 -375.592 0)
(55.8327 -480.871 0)
(-110.01 -538.737 0)
(-248.582 -545.286 0)
(-377.005 -569.717 0)
(-478.324 -546.257 0)
(-541.469 -470.132 0)
(-644.138 -410.555 0)
(-798.536 -395.773 0)
(-788.239 -329.965 0)
(-504.518 -149.281 0)
(-223.073 -30.6802 0)
(-115.668 -3.81295 0)
(-88.3298 -0.609959 0)
(-72.1585 1.16048 0)
(-54.9676 4.11005 0)
(-36.6346 7.44037 0)
(-19.6968 10.0181 0)
(-6.84454 10.9229 0)
(1.32289 10.7498 0)
(6.59031 10.3538 0)
(8.88399 9.5779 0)
(12.8248 8.8375 0)
(51.3955 8.29975 0)
(276.646 8.77524 0)
(859.003 9.99119 0)
(1127.43 4.09528 0)
(821.374 -0.899893 0)
(524.102 0.420555 0)
(450.894 6.04856 0)
(460.083 9.81493 0)
(583.059 5.4634 0)
(-314.288 22.3105 0)
(-155.738 151.742 0)
(-115.146 122.532 0)
(-157.903 -15.9878 0)
(-107.466 -158.308 0)
(-53.6147 -290.824 0)
(30.311 -368.613 0)
(192.606 -269.52 0)
(177.729 -359.806 0)
(-31.9089 -486.146 0)
(-176.923 -533.275 0)
(-267.24 -562.213 0)
(-365.466 -560.785 0)
(-418.954 -500.9 0)
(-481.604 -433.848 0)
(-622.895 -414.981 0)
(-757.335 -414.58 0)
(-653.355 -295.453 0)
(-360.698 -103.509 0)
(-163.481 -18.9046 0)
(-104.297 -3.17871 0)
(-85.6913 -0.384183 0)
(-69.4245 2.50227 0)
(-51.671 6.17963 0)
(-33.6574 9.77395 0)
(-17.9771 12.3099 0)
(-6.46762 13.1948 0)
(1.08905 13.0607 0)
(6.07098 12.6616 0)
(8.20075 11.9609 0)
(12.2039 11.3068 0)
(51.3263 10.8813 0)
(276.608 11.5073 0)
(855.368 12.6574 0)
(1121.97 6.59591 0)
(819.968 0.592028 0)
(527.657 1.30696 0)
(455.47 7.14114 0)
(459.557 10.1594 0)
(577.065 4.97423 0)
(-283.731 -148.186 0)
(-208.334 -49.5088 0)
(-299.091 -242.699 0)
(-283.825 -251.408 0)
(-168.587 -251.092 0)
(0.277074 -230.642 0)
(182.577 -176.506 0)
(146.67 -268.272 0)
(-32.3958 -427.784 0)
(-111.328 -520.89 0)
(-183.311 -536.226 0)
(-275.091 -552.134 0)
(-317.922 -507.854 0)
(-356.003 -439.269 0)
(-458.674 -410.935 0)
(-625.571 -431.083 0)
(-683.354 -402.434 0)
(-488.479 -221.463 0)
(-238.026 -60.3597 0)
(-126.391 -10.7789 0)
(-97.8214 -2.01024 0)
(-82.8554 1.22766 0)
(-65.8334 5.20044 0)
(-47.9603 9.38406 0)
(-30.7273 13.0406 0)
(-16.4003 15.391 0)
(-6.12101 16.2124 0)
(0.809067 16.0645 0)
(5.53046 15.5941 0)
(7.57843 15.0063 0)
(11.7845 14.5161 0)
(51.5887 14.3558 0)
(278.358 15.0828 0)
(854.27 16.1313 0)
(1115.8 10.2264 0)
(816.277 4.03911 0)
(530.413 4.66163 0)
(459.425 10.0415 0)
(457.995 12.1385 0)
(568.476 5.65917 0)
(-504.795 0.465283 0)
(-246.813 -15.4363 0)
(-309.703 -69.4016 0)
(-165.992 -24.1439 0)
(-87.4563 -34.8596 0)
(18.2592 -91.0188 0)
(-5.95011 -215.686 0)
(-49.5343 -399.453 0)
(-65.7023 -469.326 0)
(-136.408 -492.309 0)
(-207.032 -523.749 0)
(-239.9 -494.623 0)
(-256.704 -431.421 0)
(-325.559 -397.459 0)
(-473.715 -416.767 0)
(-614.704 -440.505 0)
(-555.338 -333.344 0)
(-323.719 -131.23 0)
(-157.674 -28.9078 0)
(-107.253 -4.64794 0)
(-92.7272 0.74091 0)
(-78.7429 4.89231 0)
(-61.5647 9.55625 0)
(-44.1159 13.8126 0)
(-27.8689 17.1639 0)
(-14.9207 19.0922 0)
(-5.81862 19.6641 0)
(0.493216 19.3546 0)
(5.05129 18.8008 0)
(7.16196 18.324 0)
(11.577 18.0637 0)
(51.8724 18.2419 0)
(278.319 19.208 0)
(850.689 19.9806 0)
(1110.32 13.9721 0)
(814.605 7.79124 0)
(533.442 9.08015 0)
(462.675 13.9375 0)
(455.334 15.0808 0)
(559.915 7.4956 0)
(-298.157 216.214 0)
(-275.66 58.1383 0)
(-307.482 136.554 0)
(-250.539 73.6424 0)
(-233.03 6.36333 0)
(-173.974 -158.148 0)
(-114.641 -320.029 0)
(-97.7469 -385.741 0)
(-121.876 -447.775 0)
(-163.772 -480.003 0)
(-185.541 -466.463 0)
(-186.12 -411.395 0)
(-224.291 -374.515 0)
(-341.881 -388.534 0)
(-500.154 -431.209 0)
(-545.182 -398.323 0)
(-385.325 -218.681 0)
(-195.113 -63.3393 0)
(-116.047 -12.355 0)
(-97.8205 -1.39789 0)
(-88.628 2.51743 0)
(-74.3606 7.13464 0)
(-57.2375 11.9426 0)
(-40.6293 16.1785 0)
(-25.6396 19.2704 0)
(-13.991 20.8592 0)
(-5.86815 21.2412 0)
(-0.0228408 20.7899 0)
(4.53731 20.2522 0)
(6.86812 20.0066 0)
(11.7054 20.171 0)
(52.6914 20.7806 0)
(280.033 22.0092 0)
(849.224 21.1458 0)
(1104.06 14.8961 0)
(811.563 10.5105 0)
(536.336 13.7012 0)
(465.207 18.4792 0)
(451.787 18.2634 0)
(546.72 8.39999 0)
(-240.419 70.4285 0)
(-323.576 -1.72403 0)
(-294.763 70.9723 0)
(-291.449 92.8164 0)
(-310.817 -8.0945 0)
(-296.264 -152.72 0)
(-225.268 -306.212 0)
(-172.635 -400.611 0)
(-156.536 -439.685 0)
(-154.416 -433.397 0)
(-140.919 -387.46 0)
(-151.296 -345.732 0)
(-234.674 -353.598 0)
(-380.191 -399.178 0)
(-483.149 -412.082 0)
(-409.904 -288.452 0)
(-232.536 -110.655 0)
(-124.895 -27.5175 0)
(-97.9851 -4.36248 0)
(-92.9214 1.69414 0)
(-84.5049 6.50964 0)
(-69.6605 12.5893 0)
(-52.8498 18.3844 0)
(-37.0545 23.3839 0)
(-23.3583 27.0588 0)
(-13.0216 29.3481 0)
(-5.88539 30.3684 0)
(-0.459797 30.7779 0)
(4.29641 31.0341 0)
(7.08366 31.9033 0)
(12.3229 32.8009 0)
(53.6438 34.4687 0)
(278.671 36.9115 0)
(843.834 38.1614 0)
(1100.07 39.4377 0)
(813.454 38.1035 0)
(541.121 35.1362 0)
(467.071 33.0502 0)
(445.621 27.1756 0)
(534.221 11.5218 0)
(-231.951 21.4347 0)
(-275.136 55.4259 0)
(-216.379 115.207 0)
(-326.73 165.975 0)
(-469.638 27.559 0)
(-461.25 -155.519 0)
(-353.519 -330.719 0)
(-226.367 -395.315 0)
(-153.469 -392.122 0)
(-113.446 -351.671 0)
(-101.063 -308.312 0)
(-153.49 -309.19 0)
(-275.794 -350.856 0)
(-398.239 -378.215 0)
(-393.454 -302.081 0)
(-254.717 -133.319 0)
(-133.879 -19.8043 0)
(-92.6856 19.5257 0)
(-87.8978 31.7907 0)
(-87.3438 38.9015 0)
(-78.1291 47.6887 0)
(-62.9177 57.2507 0)
(-46.8355 65.925 0)
(-32.2703 73.197 0)
(-19.8923 78.629 0)
(-10.8018 82.4355 0)
(-4.49034 84.7914 0)
(0.61859 86.5802 0)
(5.62182 88.0564 0)
(8.57073 90.3221 0)
(14.1775 91.9192 0)
(56.6525 95.0718 0)
(283.592 100.622 0)
(851.659 115.487 0)
(1104 140.076 0)
(807.418 139.536 0)
(531.467 124.886 0)
(457.536 92.3548 0)
(431.041 50.2714 0)
(509.43 14.3313 0)
(-166.353 57.8332 0)
(-233.213 95.2658 0)
(-188.234 137.273 0)
(-375.91 110.06 0)
(-620.621 36.8905 0)
(-641.513 -152.513 0)
(-456.343 -300.333 0)
(-231.806 -314.151 0)
(-114.48 -274.543 0)
(-73.6532 -219.556 0)
(-99.9823 -190.573 0)
(-192.293 -211.409 0)
(-301.19 -244.48 0)
(-333.19 -205.531 0)
(-247.157 -58.6945 0)
(-137.892 87.4773 0)
(-85.2495 162.272 0)
(-75.1765 199.303 0)
(-79.3139 222.77 0)
(-77.6016 244.268 0)
(-66.823 267.067 0)
(-52.0873 290.092 0)
(-37.4833 311.071 0)
(-24.8125 329.395 0)
(-14.4558 344.177 0)
(-7.08324 357.165 0)
(-1.89136 365.902 0)
(2.68646 375.491 0)
(7.90222 382.432 0)
(10.806 389.531 0)
(16.8999 391.634 0)
(62.0299 398.003 0)
(298.344 414.724 0)
(881.853 476.34 0)
(1123.24 556.047 0)
(798.817 508.758 0)
(495.655 403.943 0)
(395.169 265.782 0)
(370.435 134.758 0)
(471.968 26.3769 0)
(-84.4195 67.715 0)
(-198.586 110.238 0)
(-202.123 166.074 0)
(-423.462 130.741 0)
(-722.662 147.632 0)
(-786.211 22.1594 0)
(-509.279 -55.9503 0)
(-201.515 -9.20482 0)
(-62.3139 63.2841 0)
(-32.5297 123.601 0)
(-93.2131 148.901 0)
(-205.436 169.423 0)
(-270.13 231.63 0)
(-219.21 374.697 0)
(-111.101 536.947 0)
(-41.785 645.454 0)
(-26.1196 713.438 0)
(-34.3876 755.415 0)
(-44.5682 786.293 0)
(-44.6572 811.869 0)
(-33.9712 835.783 0)
(-20.514 858.667 0)
(-8.96103 877.359 0)
(-0.368487 893.417 0)
(6.86785 905.993 0)
(10.1335 918.185 0)
(13.1686 925.972 0)
(16.5475 935.22 0)
(19.1513 940.775 0)
(17.4382 946.193 0)
(22.3417 946.188 0)
(78.9023 952.335 0)
(359.081 981.18 0)
(987.843 1071.43 0)
(1135.24 1139.58 0)
(660.846 1033.45 0)
(297.326 865.748 0)
(198.139 617.462 0)
(200.342 329.674 0)
(354.155 70.0621 0)
(5.12871 49.6134 0)
(-138.431 200.137 0)
(-168.476 391.164 0)
(-393.681 570.273 0)
(-725.255 720.213 0)
(-837.693 744.442 0)
(-486.567 674.405 0)
(-116.907 699.924 0)
(13.497 752.81 0)
(8.8501 770.446 0)
(-55.8271 747.258 0)
(-112.572 757.453 0)
(-103.38 845.568 0)
(-38.9752 980.143 0)
(13.7541 1073.46 0)
(32.1809 1115.94 0)
(20.7129 1126.43 0)
(-4.97103 1124.28 0)
(-24.9124 1119.52 0)
(-29.9108 1116.3 0)
(-21.7268 1114.34 0)
(-12.0238 1110.06 0)
(-3.99674 1102.16 0)
(2.78108 1094.72 0)
(9.41138 1087.51 0)
(12.1688 1081.67 0)
(14.5239 1076.31 0)
(16.951 1070.09 0)
(18.4767 1064.2 0)
(16.022 1058.01 0)
(22.8181 1053.56 0)
(95.7494 1051.24 0)
(413.111 1066.13 0)
(1034.49 1054.02 0)
(1086.64 980.332 0)
(534.945 923.958 0)
(94.7905 887.308 0)
(-121.411 774.852 0)
(-157.059 495.577 0)
(86.7676 166.864 0)
(156.249 8.66141 0)
(130.545 305.827 0)
(154.553 629.127 0)
(-106.379 945.623 0)
(-554.827 1115.99 0)
(-830.353 1238.22 0)
(-552.178 1143.7 0)
(-125.961 1047.89 0)
(5.64353 978.346 0)
(-37.8801 903.656 0)
(-105.733 846.06 0)
(-110.701 849.711 0)
(-55.5388 896.281 0)
(0.39278 936.812 0)
(19.7589 944.741 0)
(9.2593 926.728 0)
(-18.0847 892.103 0)
(-41.0393 859.453 0)
(-52.255 833.751 0)
(-49.6528 817.213 0)
(-39.9822 805.045 0)
(-32.2491 794.574 0)
(-23.7436 786.529 0)
(-14.4872 778.182 0)
(-5.71283 769.841 0)
(-0.6612 761.658 0)
(2.00973 755.399 0)
(4.87772 747.696 0)
(7.51466 742.101 0)
(7.18343 736.255 0)
(15.8111 734.664 0)
(91.0152 729.923 0)
(361.767 720.381 0)
(905.168 596.168 0)
(1009.91 405.09 0)
(571.204 419.035 0)
(153.642 467.136 0)
(-179.347 479.535 0)
(-385.537 349.607 0)
(-284.198 143.226 0)
(308.181 -33.8046 0)
(459.472 221.306 0)
(448.054 423.031 0)
(75.4751 492.969 0)
(-443.298 555.662 0)
(-810.988 628.45 0)
(-669.973 635.704 0)
(-276.247 539.086 0)
(-125.494 432.545 0)
(-118.626 375.074 0)
(-107.81 380.589 0)
(-64.177 434.941 0)
(-19.4466 485.899 0)
(7.72271 507.484 0)
(4.03706 511.174 0)
(-18.5429 501.139 0)
(-44.116 492.978 0)
(-61.2014 489.204 0)
(-65.6161 492.669 0)
(-57.5729 502.557 0)
(-43.5426 514.762 0)
(-29.8666 519.487 0)
(-19.7929 522.802 0)
(-13.2999 524.676 0)
(-6.51172 527.321 0)
(-1.74814 529.933 0)
(1.06906 533.027 0)
(4.1369 535.604 0)
(7.45255 538.243 0)
(8.85491 540.669 0)
(16.7161 545.778 0)
(81.9864 546.752 0)
(284.219 513.257 0)
(730.665 371.401 0)
(915.954 101.305 0)
(594.735 102.959 0)
(153.09 87.1571 0)
(-234.666 126.809 0)
(-481.139 73.349 0)
(-388.144 -66.843 0)
(336.933 449.948 0)
(570.768 -461.181 0)
(416.337 -89.2308 0)
(21.4288 -175.354 0)
(-424.273 -104.483 0)
(-753.221 -32.7632 0)
(-638.292 141.94 0)
(-321.732 191.136 0)
(-152.405 185.044 0)
(-87.9471 208.916 0)
(-48.0429 258.542 0)
(-9.21979 305.386 0)
(14.3663 339.041 0)
(24.7483 354.688 0)
(13.6449 360.055 0)
(-8.2748 363.2 0)
(-29.5857 371.059 0)
(-41.3378 383.219 0)
(-39.3875 400.949 0)
(-28.3628 420.892 0)
(-23.668 442.445 0)
(-24.5013 454.533 0)
(-18.7437 463.618 0)
(-10.1323 472.137 0)
(-0.646882 480.021 0)
(4.83673 485.95 0)
(7.47436 490.393 0)
(9.90474 493.838 0)
(12.3958 496.305 0)
(14.4443 497.856 0)
(21.6726 500.728 0)
(59.6765 499.758 0)
(192.793 449.421 0)
(508.196 308.083 0)
(751.225 -32.6723 0)
(557.57 -162.793 0)
(176.625 -241.32 0)
(-192.653 -199.881 0)
(-572.147 -597.328 0)
(-290.467 -99.1841 0)
(297.356 34919.7 0)
(-60.0999 -470.168 0)
(723.488 -602.098 0)
(60.7773 -597.398 0)
(-305.892 -536.498 0)
(-573.526 -361.255 0)
(-454.215 -96.2674 0)
(-234.711 58.8578 0)
(-108.362 138.459 0)
(-47.8009 195.073 0)
(-14.8476 245.484 0)
(13.3945 281.663 0)
(28.0618 306.461 0)
(27.973 316.955 0)
(12.2404 321.629 0)
(-7.93951 330.168 0)
(-24.8257 344.577 0)
(-32.3986 364.748 0)
(-29.3124 384.922 0)
(-17.5857 401.331 0)
(-11.1252 412.27 0)
(-9.46279 425.612 0)
(-2.82938 439.058 0)
(2.50633 450.279 0)
(6.79959 458.111 0)
(8.24615 461.147 0)
(8.67012 461.943 0)
(9.83404 461.126 0)
(11.3243 459.118 0)
(13.1171 456.087 0)
(18.5486 452.154 0)
(32.5453 444.088 0)
(99.5142 402.379 0)
(266.102 265.734 0)
(462.2 -70.9672 0)
(393.674 -362.23 0)
(117.351 -490.501 0)
(-577.728 -571.682 0)
(-384.104 -408.037 0)
(283.041 22560.6 0)
(33533.7 -35471 0)
(-33659.3 363.208 0)
(293.734 -479.104 0)
(84.6429 -692.399 0)
(-196.716 -630.012 0)
(-328.999 -170.825 0)
(-233.456 306.57 0)
(-95.5406 542.796 0)
(-21.1427 649.283 0)
(15.1859 677.187 0)
(35.3983 683.129 0)
(49.5395 655.861 0)
(48.3747 617.82 0)
(39.3647 576.54 0)
(26.3773 547.942 0)
(13.8392 536.465 0)
(3.73718 541.819 0)
(-2.46043 558.35 0)
(-4.13519 577.994 0)
(-2.00898 593.059 0)
(-0.269779 598.328 0)
(1.31299 604.884 0)
(5.02618 606.785 0)
(8.22787 602.605 0)
(9.82589 595.646 0)
(8.52863 585.352 0)
(7.45389 578.238 0)
(7.18311 568.619 0)
(7.54004 560.579 0)
(7.73315 549.043 0)
(10.1101 538.942 0)
(11.7112 519.303 0)
(20.9242 493.015 0)
(52.063 394.32 0)
(146.097 162.844 0)
(153.292 -236.932 0)
(-25.2108 -404.762 0)
(-113.187 -332.549 0)
(21719 312.225 0)
(-21637.5 -22472.5 0)
(33533.7 35471 0)
(-33659.3 -363.208 0)
(293.734 479.104 0)
(84.6429 692.399 0)
(-196.716 630.012 0)
(-328.999 170.825 0)
(-233.456 -306.57 0)
(-95.5406 -542.796 0)
(-21.1427 -649.283 0)
(15.1859 -677.187 0)
(35.3983 -683.129 0)
(49.5395 -655.861 0)
(48.3747 -617.82 0)
(39.3647 -576.54 0)
(26.3773 -547.942 0)
(13.8392 -536.465 0)
(3.73718 -541.819 0)
(-2.46043 -558.35 0)
(-4.13519 -577.994 0)
(-2.00898 -593.059 0)
(-0.269779 -598.328 0)
(1.31299 -604.884 0)
(5.02618 -606.785 0)
(8.22787 -602.605 0)
(9.82589 -595.646 0)
(8.52863 -585.352 0)
(7.45389 -578.238 0)
(7.18311 -568.619 0)
(7.54004 -560.579 0)
(7.73315 -549.043 0)
(10.1101 -538.942 0)
(11.7112 -519.303 0)
(20.9242 -493.015 0)
(52.063 -394.32 0)
(146.097 -162.844 0)
(153.292 236.932 0)
(-25.2108 404.762 0)
(-113.187 332.549 0)
(21719 -312.225 0)
(-21637.5 22472.5 0)
(297.356 -34919.7 0)
(-60.0999 470.168 0)
(723.488 602.098 0)
(60.7773 597.398 0)
(-305.892 536.498 0)
(-573.526 361.255 0)
(-454.215 96.2674 0)
(-234.711 -58.8578 0)
(-108.362 -138.459 0)
(-47.8009 -195.073 0)
(-14.8476 -245.484 0)
(13.3945 -281.663 0)
(28.0618 -306.461 0)
(27.973 -316.955 0)
(12.2404 -321.629 0)
(-7.93951 -330.168 0)
(-24.8257 -344.577 0)
(-32.3986 -364.748 0)
(-29.3124 -384.922 0)
(-17.5857 -401.331 0)
(-11.1252 -412.27 0)
(-9.46279 -425.612 0)
(-2.82938 -439.058 0)
(2.50633 -450.279 0)
(6.79959 -458.111 0)
(8.24615 -461.147 0)
(8.67012 -461.943 0)
(9.83404 -461.126 0)
(11.3243 -459.118 0)
(13.1171 -456.087 0)
(18.5486 -452.154 0)
(32.5453 -444.088 0)
(99.5142 -402.379 0)
(266.102 -265.734 0)
(462.2 70.9672 0)
(393.674 362.23 0)
(117.351 490.501 0)
(-577.728 571.682 0)
(-384.104 408.037 0)
(283.041 -22560.6 0)
(336.933 -449.948 0)
(570.768 461.181 0)
(416.337 89.2308 0)
(21.4288 175.354 0)
(-424.273 104.483 0)
(-753.221 32.7632 0)
(-638.292 -141.94 0)
(-321.732 -191.136 0)
(-152.405 -185.044 0)
(-87.9471 -208.916 0)
(-48.0429 -258.542 0)
(-9.21979 -305.386 0)
(14.3663 -339.041 0)
(24.7483 -354.688 0)
(13.6449 -360.055 0)
(-8.2748 -363.2 0)
(-29.5857 -371.059 0)
(-41.3378 -383.219 0)
(-39.3875 -400.949 0)
(-28.3628 -420.892 0)
(-23.668 -442.445 0)
(-24.5013 -454.533 0)
(-18.7437 -463.618 0)
(-10.1323 -472.137 0)
(-0.646882 -480.021 0)
(4.83673 -485.95 0)
(7.47436 -490.393 0)
(9.90474 -493.838 0)
(12.3958 -496.305 0)
(14.4443 -497.856 0)
(21.6726 -500.728 0)
(59.6765 -499.758 0)
(192.793 -449.421 0)
(508.196 -308.083 0)
(751.225 32.6723 0)
(557.57 162.793 0)
(176.625 241.32 0)
(-192.653 199.881 0)
(-572.147 597.328 0)
(-290.467 99.1841 0)
(308.181 33.8046 0)
(459.472 -221.306 0)
(448.054 -423.031 0)
(75.4751 -492.969 0)
(-443.298 -555.662 0)
(-810.988 -628.45 0)
(-669.973 -635.704 0)
(-276.247 -539.086 0)
(-125.494 -432.545 0)
(-118.626 -375.074 0)
(-107.81 -380.589 0)
(-64.177 -434.941 0)
(-19.4466 -485.899 0)
(7.72271 -507.484 0)
(4.03706 -511.174 0)
(-18.5429 -501.139 0)
(-44.116 -492.978 0)
(-61.2014 -489.204 0)
(-65.6161 -492.669 0)
(-57.5729 -502.557 0)
(-43.5426 -514.762 0)
(-29.8666 -519.487 0)
(-19.7929 -522.802 0)
(-13.2999 -524.676 0)
(-6.51172 -527.321 0)
(-1.74814 -529.933 0)
(1.06906 -533.027 0)
(4.1369 -535.604 0)
(7.45255 -538.243 0)
(8.85491 -540.669 0)
(16.7161 -545.778 0)
(81.9864 -546.752 0)
(284.219 -513.257 0)
(730.665 -371.401 0)
(915.954 -101.305 0)
(594.735 -102.959 0)
(153.09 -87.1571 0)
(-234.666 -126.809 0)
(-481.139 -73.349 0)
(-388.144 66.843 0)
(156.249 -8.66141 0)
(130.545 -305.827 0)
(154.553 -629.127 0)
(-106.379 -945.623 0)
(-554.827 -1115.99 0)
(-830.353 -1238.22 0)
(-552.178 -1143.7 0)
(-125.961 -1047.89 0)
(5.64353 -978.346 0)
(-37.8801 -903.656 0)
(-105.733 -846.06 0)
(-110.701 -849.711 0)
(-55.5388 -896.281 0)
(0.39278 -936.812 0)
(19.7589 -944.741 0)
(9.2593 -926.728 0)
(-18.0847 -892.103 0)
(-41.0393 -859.453 0)
(-52.255 -833.751 0)
(-49.6528 -817.213 0)
(-39.9822 -805.045 0)
(-32.2491 -794.574 0)
(-23.7436 -786.529 0)
(-14.4872 -778.182 0)
(-5.71283 -769.841 0)
(-0.6612 -761.658 0)
(2.00973 -755.399 0)
(4.87772 -747.696 0)
(7.51466 -742.101 0)
(7.18343 -736.255 0)
(15.8111 -734.664 0)
(91.0152 -729.923 0)
(361.767 -720.381 0)
(905.168 -596.168 0)
(1009.91 -405.09 0)
(571.204 -419.035 0)
(153.642 -467.136 0)
(-179.347 -479.535 0)
(-385.537 -349.607 0)
(-284.198 -143.226 0)
(5.12871 -49.6134 0)
(-138.431 -200.137 0)
(-168.476 -391.164 0)
(-393.681 -570.273 0)
(-725.255 -720.213 0)
(-837.693 -744.442 0)
(-486.567 -674.405 0)
(-116.907 -699.924 0)
(13.497 -752.81 0)
(8.8501 -770.446 0)
(-55.8271 -747.258 0)
(-112.572 -757.453 0)
(-103.38 -845.568 0)
(-38.9752 -980.143 0)
(13.7541 -1073.46 0)
(32.1809 -1115.94 0)
(20.7129 -1126.43 0)
(-4.97103 -1124.28 0)
(-24.9124 -1119.52 0)
(-29.9108 -1116.3 0)
(-21.7268 -1114.34 0)
(-12.0238 -1110.06 0)
(-3.99674 -1102.16 0)
(2.78108 -1094.72 0)
(9.41138 -1087.51 0)
(12.1688 -1081.67 0)
(14.5239 -1076.31 0)
(16.951 -1070.09 0)
(18.4767 -1064.2 0)
(16.022 -1058.01 0)
(22.8181 -1053.56 0)
(95.7494 -1051.24 0)
(413.111 -1066.13 0)
(1034.49 -1054.02 0)
(1086.64 -980.332 0)
(534.945 -923.958 0)
(94.7905 -887.308 0)
(-121.411 -774.852 0)
(-157.059 -495.577 0)
(86.7676 -166.864 0)
(-84.4195 -67.715 0)
(-198.586 -110.238 0)
(-202.123 -166.074 0)
(-423.462 -130.741 0)
(-722.662 -147.632 0)
(-786.211 -22.1594 0)
(-509.279 55.9503 0)
(-201.515 9.20482 0)
(-62.3139 -63.2841 0)
(-32.5297 -123.601 0)
(-93.2131 -148.901 0)
(-205.436 -169.423 0)
(-270.13 -231.63 0)
(-219.21 -374.697 0)
(-111.101 -536.947 0)
(-41.785 -645.454 0)
(-26.1196 -713.438 0)
(-34.3876 -755.415 0)
(-44.5682 -786.293 0)
(-44.6572 -811.869 0)
(-33.9712 -835.783 0)
(-20.514 -858.667 0)
(-8.96103 -877.359 0)