/*--------------------------------*- C++ -*----------------------------------*\
| =========                 |                                                 |
| \\      /  F ield         | OpenFOAM: The Open Source CFD Toolbox           |
|  \\    /   O peration     | Version:  v1912                                 |
|   \\  /    A nd           | Website:  www.openfoam.com                      |
|    \\/     M anipulation  |                                                 |
\*---------------------------------------------------------------------------*/
FoamFile
{
    version     2.0;
    format      ascii;
    class       volVectorField;
    location    "3.68";
    object      grad(p);
}
// * * * * * * * * * * * * * * * * * * * * * * * * * * * * * * * * * * * * * //

dimensions      [1 -2 -2 0 0 0 0];


internalField   nonuniform List<vector> 
1900
(
(92970.4 -0.0254821 0)
(-70123.4 -3.12246 0)
(-6098.93 -0.0911094 0)
(-160.682 1.6178 0)
(-323.987 6.22528 0)
(-759.051 6.30408 0)
(-1095.01 1.72505 0)
(-1189.43 -44.6867 0)
(-1043.05 -239.377 0)
(-1929.39 -550.878 0)
(92967.3 0.567817 0)
(-70123.4 -5.14478 0)
(-6094.19 -0.0476927 0)
(-154.365 2.75492 0)
(-319.301 3.3897 0)
(-763.552 -6.94036 0)
(-1146 -9.70273 0)
(-1430.54 -53.2689 0)
(-1549.24 -218.419 0)
(-2007.94 -473.069 0)
(92965.8 -2.4869e-10 0)
(-70124 -6.16396e-09 0)
(-6091.03 -2.66454e-10 0)
(-157.244 -3.37508e-10 0)
(-333.682 -8.88178e-10 0)
(-772.144 -1.42109e-09 0)
(-1141.34 -1.59872e-10 0)
(-1398.15 2.30926e-10 0)
(-1462.85 3.01981e-10 0)
(-1940.7 8.17124e-10 0)
(92967.3 -0.567817 0)
(-70123.4 5.14478 0)
(-6094.19 0.0476927 0)
(-154.365 -2.75492 0)
(-319.301 -3.3897 0)
(-763.552 6.94036 0)
(-1146 9.70273 0)
(-1430.54 53.2689 0)
(-1549.24 218.419 0)
(-2007.94 473.069 0)
(92970.4 0.0254821 0)
(-70123.4 3.12246 0)
(-6098.93 0.0911094 0)
(-160.682 -1.6178 0)
(-323.987 -6.22528 0)
(-759.051 -6.30408 0)
(-1095.01 -1.72505 0)
(-1189.43 44.6867 0)
(-1043.05 239.377 0)
(-1929.39 550.878 0)
(-2316.08 -398.415 1.07772e-11)
(-2303.41 -622.624 -1.28113e-11)
(-3988.64 -1195.31 -1.58917e-11)
(-11615.7 -914.993 0)
(-9442.04 6192.93 -5.86674e-11)
(-2250.2 -304.906 1.07052e-11)
(-2880.8 -556.238 1.28113e-11)
(-3971.25 -1055.67 1.58917e-11)
(-7864.86 -1060.21 0)
(-7403.82 4827.05 0)
(-2466.94 5.47066e-10 0)
(-3150.44 7.01193e-10 0)
(-4632.16 -1.50497e-09 0)
(-8955.81 -6.05576e-10 0)
(-5024.52 -3.70074e-09 0)
(-2250.2 304.906 1.07052e-11)
(-2880.8 556.238 1.28113e-11)
(-3971.25 1055.67 1.58917e-11)
(-7864.86 1060.21 0)
(-7403.82 -4827.05 0)
(-2316.08 398.415 -3.21875e-11)
(-2303.41 622.624 -1.28113e-11)
(-3988.64 1195.31 -1.58917e-11)
(-11615.7 914.993 -4.21961e-11)
(-9442.04 -6192.93 5.86674e-11)
(-644.115 -2977.87 2.74138e-11)
(-7933.29 129.339 -2.08809e-11)
(-4486.33 645.302 0)
(-4638.09 674.139 1.45379e-11)
(-9163.83 -2301.44 -6.1378e-12)
(-2660.38 -3112.19 -1.3662e-11)
(-7019.35 169.727 1.04424e-11)
(-4274.94 654.495 0)
(-5892.89 -155.378 -9.09771e-12)
(-9182.38 -3956.02 1.48734e-12)
(-2000.42 -2.69145e-10 0)
(-6993.89 3.49198e-09 0)
(-4656.44 1.24345e-08 0)
(-6660.63 5.0214e-09 3.63721e-12)
(-9705.77 4.02537e-09 -2.97467e-12)
(-2660.38 3112.19 -1.3662e-11)
(-7019.35 -169.727 1.04424e-11)
(-4274.94 -654.495 0)
(-5892.89 155.378 -9.09771e-12)
(-9182.38 3956.02 1.48734e-12)
(-644.115 2977.87 1.3662e-11)
(-7933.29 -129.339 -3.89528e-15)
(-4486.33 -645.302 0)
(-4638.09 -674.139 2.03029e-14)
(-9163.83 2301.44 6.1378e-12)
(-18500.3 -2163.95 0)
(-11088 4620.26 0)
(1998.39 2699.99 0)
(330.193 1671.21 0)
(-1401.22 925.946 0)
(-1477.3 411.696 0)
(-1061.63 175.402 0)
(-371.751 58.2928 0)
(-81.3099 56.1956 0)
(-86.3867 37.4924 0)
(-63.4303 29.1876 0)
(-77.8879 21.5316 0)
(-84.4169 17.5568 0)
(-88.8759 15.5752 0)
(-83.5075 14.3759 0)
(-70.9188 13.5001 0)
(-56.8105 12.7474 0)
(-44.5722 12.081 0)
(-38.7573 11.5211 0)
(-37.64 11.1717 0)
(-39.5476 10.9212 0)
(-48.433 10.7427 0)
(-57.3425 10.6689 0)
(-67.5574 10.6136 0)
(-84.8193 10.6402 0)
(-109.076 10.7601 0)
(-143.293 11.0106 0)
(-190.171 11.398 0)
(-251.683 11.9842 0)
(-327.425 12.5399 0)
(-407.126 13.0286 0)
(-474.459 12.8805 0)
(-494.474 11.7958 0)
(-461.929 12.4788 0)
(-373.217 10.1892 0)
(-290.313 16.4908 0)
(-223.693 11.8331 0)
(750.697 24.7254 0)
(36609.9 -32.0837 0)
(-45878.6 -3894.55 0)
(-16998.5 -1209.5 0)
(-10980.5 5931.38 0)
(1506.18 2925.72 0)
(4.19464 1032.86 0)
(-1528.24 534.322 0)
(-1563.78 206.581 0)
(-1096.18 70.7287 0)
(-381.898 30.269 0)
(-83.4641 18.1135 0)
(-87.9794 14.794 0)
(-64.6074 10.4375 0)
(-78.6844 7.46073 0)
(-84.8106 5.65094 0)
(-89.0158 4.90104 0)
(-83.5687 4.53415 0)
(-70.9634 4.3181 0)
(-56.8606 4.13959 0)
(-44.6278 3.97317 0)
(-38.8055 3.81644 0)
(-37.6792 3.71429 0)
(-39.5899 3.62068 0)
(-48.4779 3.52018 0)
(-57.3939 3.43096 0)
(-67.6165 3.32597 0)
(-84.8791 3.24623 0)
(-109.132 3.20969 0)
(-143.336 3.26261 0)
(-190.186 3.44702 0)
(-251.676 3.85879 0)
(-327.401 4.48806 0)
(-407.12 5.43553 0)
(-474.532 6.60865 0)
(-494.389 8.01617 0)
(-461.937 10.8933 0)
(-372.576 13.7159 0)
(-289.883 21.3983 0)
(-222.585 25.89 0)
(747.413 37.6295 0)
(36509.2 19.3669 0)
(-45778 1729.49 0)
(-15520.5 1.09165e-08 0)
(-9885.02 5.99117e-09 0)
(573.369 5.5713e-09 0)
(-365.487 -1.66332e-09 0)
(-1641.59 1.08681e-08 0)
(-1612.16 1.68754e-08 0)
(-1112.92 2.24467e-09 0)
(-387.058 7.85473e-08 0)
(-85.8118 1.03231e-07 0)
(-88.6197 4.57412e-08 0)
(-65.5636 -4.33593e-08 0)
(-79.2804 -6.75419e-08 0)
(-85.1615 -5.83372e-08 0)
(-89.2008 -7.85634e-09 0)
(-83.677 4.70654e-08 0)
(-71.0336 7.35654e-08 0)
(-56.9109 7.08363e-08 0)
(-44.6662 9.57618e-09 0)
(-38.8326 -6.85351e-08 0)
(-37.697 -1.03658e-07 0)
(-39.6041 -4.0509e-08 0)
(-48.4882 7.43082e-08 0)
(-57.399 7.20393e-08 0)
(-67.6112 4.85026e-08 0)
(-84.8531 7.1022e-08 0)
(-109.072 6.2875e-08 0)
(-143.224 1.68835e-08 0)
(-189.997 -2.85832e-09 0)
(-251.38 1.66655e-08 0)
(-326.966 6.89146e-08 0)
(-406.509 7.22735e-08 0)
(-473.708 4.00003e-08 0)
(-493.227 -5.03193e-08 0)
(-460.271 -1.2118e-07 0)
(-370.161 8.66862e-08 0)
(-286.771 -9.33395e-09 0)
(-218.971 1.09658e-07 0)
(748.799 3.77234e-08 0)
(37102.1 -1.02378e-06 0)
(-46387.3 -2.53832e-06 0)
(-16998.5 1209.5 0)
(-10980.5 -5931.38 0)
(1506.18 -2925.72 0)
(4.19464 -1032.86 0)
(-1528.24 -534.322 0)
(-1563.78 -206.581 0)
(-1096.18 -70.7287 0)
(-381.898 -30.269 0)
(-83.4641 -18.1135 0)
(-87.9794 -14.794 0)
(-64.6074 -10.4375 0)
(-78.6844 -7.46073 0)
(-84.8106 -5.65094 0)
(-89.0158 -4.90104 0)
(-83.5687 -4.53415 0)
(-70.9634 -4.3181 0)
(-56.8606 -4.13959 0)
(-44.6278 -3.97317 0)
(-38.8055 -3.81644 0)
(-37.6792 -3.71429 0)
(-39.5899 -3.62068 0)
(-48.4779 -3.52018 0)
(-57.3939 -3.43096 0)
(-67.6165 -3.32597 0)
(-84.8791 -3.24623 0)
(-109.132 -3.2097 0)
(-143.336 -3.26261 0)
(-190.186 -3.44702 0)
(-251.676 -3.85879 0)
(-327.401 -4.48806 0)
(-407.12 -5.43553 0)
(-474.532 -6.60865 0)
(-494.389 -8.01617 0)
(-461.937 -10.8933 0)
(-372.576 -13.7159 0)
(-289.883 -21.3983 0)
(-222.585 -25.89 0)
(747.413 -37.6295 0)
(36509.2 -19.3669 0)
(-45778 -1729.49 0)
(-18500.3 2163.95 0)
(-11088 -4620.26 0)
(1998.39 -2699.99 0)
(330.193 -1671.21 0)
(-1401.22 -925.946 0)
(-1477.3 -411.696 0)
(-1061.63 -175.402 0)
(-371.751 -58.2928 0)
(-81.3099 -56.1956 0)
(-86.3867 -37.4924 0)
(-63.4303 -29.1876 0)
(-77.8879 -21.5316 0)
(-84.4169 -17.5568 0)
(-88.8759 -15.5752 0)
(-83.5075 -14.3759 0)
(-70.9188 -13.5001 0)
(-56.8105 -12.7474 0)
(-44.5722 -12.081 0)
(-38.7573 -11.5211 0)
(-37.64 -11.1717 0)
(-39.5476 -10.9212 0)
(-48.433 -10.7427 0)
(-57.3425 -10.6689 0)
(-67.5574 -10.6136 0)
(-84.8193 -10.6402 0)
(-109.076 -10.7601 0)
(-143.293 -11.0106 0)
(-190.171 -11.398 0)
(-251.683 -11.9842 0)
(-327.425 -12.5399 0)
(-407.126 -13.0286 0)
(-474.459 -12.8805 0)
(-494.474 -11.7958 0)
(-461.929 -12.4788 0)
(-373.217 -10.1892 0)
(-290.313 -16.4908 0)
(-223.693 -11.8331 0)
(750.697 -24.7254 0)
(36609.9 32.0837 0)
(-45878.6 3894.55 0)
(27014.2 5160.08 0)
(-13907.3 -3438.07 0)
(2786.91 -2035.64 0)
(740.07 -2215.52 0)
(-885.051 -1329.88 0)
(-1192.99 -725.994 0)
(-914.459 -331.722 0)
(-318.856 -117.962 0)
(-72.9073 -109.998 0)
(-72.8794 -77.1236 0)
(-55.9565 -58.6103 0)
(-72.3096 -43.1161 0)
(-81.5296 -35.7457 0)
(-87.1823 -31.6739 0)
(-82.3379 -29.0384 0)
(-69.9935 -27.0384 0)
(-56.0283 -25.3439 0)
(-43.9229 -23.8856 0)
(-38.2909 -22.6948 0)
(-37.3482 -21.9514 0)
(-39.3697 -21.4612 0)
(-48.3715 -21.1713 0)
(-57.3724 -21.1293 0)
(-67.6667 -21.1733 0)
(-85.0402 -21.4249 0)
(-109.428 -21.8979 0)
(-143.785 -22.6703 0)
(-190.814 -23.788 0)
(-252.385 -25.2582 0)
(-328.028 -26.8205 0)
(-407.326 -28.1712 0)
(-473.845 -28.8611 0)
(-494.04 -27.1035 0)
(-460.938 -28.3811 0)
(-374.351 -26.3452 0)
(-290.416 -34.1798 0)
(-226.47 -31.3826 0)
(771.165 -45.4521 0)
(38851.2 -83.0527 0)
(-48124.7 1038.1 0)
(27804.3 4079.3 0)
(-16510.3 -1395.65 0)
(2753.65 -1504.02 0)
(790.507 -1886.71 0)
(-242.645 -1387.75 0)
(-667.895 -914.366 0)
(-554.622 -448.905 0)
(-186.455 -204.424 0)
(-46.462 -168.228 0)
(-44.1107 -117.765 0)
(-34.6671 -89.1676 0)
(-58.846 -67.6519 0)
(-74.9391 -57.2014 0)
(-83.3206 -50.9255 0)
(-79.6676 -46.7365 0)
(-67.8548 -43.5314 0)
(-54.1919 -40.8655 0)
(-42.3676 -38.5815 0)
(-37.1435 -36.7176 0)
(-36.6078 -35.5608 0)
(-38.8913 -34.8046 0)
(-48.1462 -34.3458 0)
(-57.3284 -34.2623 0)
(-67.7836 -34.3101 0)
(-85.3991 -34.6449 0)
(-110.088 -35.3956 0)
(-144.851 -36.5496 0)
(-192.32 -38.2687 0)
(-254.229 -40.653 0)
(-329.908 -43.3353 0)
(-408.985 -45.405 0)
(-473.759 -47.3514 0)
(-494.244 -45.2638 0)
(-461.73 -47.8339 0)
(-378.197 -47.9573 0)
(-295.112 -57.3228 0)
(-233.067 -59.9644 0)
(689.93 -70.1139 0)
(36452.1 -257.979 0)
(-45594.5 -3135.91 0)
(29600.3 5890.89 0)
(-19287.6 -447.288 0)
(2313.71 -1182.69 0)
(852.11 -1420.56 0)
(51.9381 -1197.38 0)
(-288.282 -871.027 0)
(-230.334 -495.893 0)
(-48.3848 -291.607 0)
(10.6002 -233.469 0)
(3.30618 -157.033 0)
(-7.66531 -123.08 0)
(-41.5058 -98.6136 0)
(-65.4114 -84.8357 0)
(-77.0979 -75.6917 0)
(-75.2127 -69.3155 0)
(-64.336 -64.4765 0)
(-51.2584 -60.47 0)
(-39.9259 -57.1538 0)
(-35.3801 -54.4588 0)
(-35.5047 -52.8295 0)
(-38.1989 -51.8037 0)
(-47.8489 -51.1883 0)
(-57.338 -51.1352 0)
(-68.0354 -51.2497 0)
(-86.0862 -51.8789 0)
(-111.263 -52.944 0)
(-146.553 -54.8307 0)
(-194.769 -57.4123 0)
(-257.268 -60.6381 0)
(-332.608 -64.6922 0)
(-411.196 -67.5082 0)
(-473.708 -70.5667 0)
(-494.505 -68.0728 0)
(-463.533 -71.9743 0)
(-383.495 -74.7431 0)
(-301.987 -85.8182 0)
(-238.795 -91.3161 0)
(580.35 -96.1721 0)
(35896.9 -339.352 0)
(-44854.2 -1798.78 0)
(33050 2283.39 0)
(-23326.6 -318.97 0)
(1815.78 -891.981 0)
(776.354 -1143.73 0)
(286.901 -1021.31 0)
(8.07829 -758.201 0)
(3.72899 -500.028 0)
(66.4264 -343.831 0)
(83.2185 -272.665 0)
(62.2636 -195.114 0)
(21.6276 -156.708 0)
(-21.992 -130.357 0)
(-52.8507 -113.932 0)
(-68.3648 -101.856 0)
(-68.8603 -93.364 0)
(-59.3309 -86.5865 0)
(-47.1354 -81.1779 0)
(-36.575 -76.7887 0)
(-32.9765 -73.2502 0)
(-34.0493 -71.1608 0)
(-37.3098 -69.9159 0)
(-47.502 -69.1742 0)
(-57.3876 -69.1752 0)
(-68.5003 -69.4625 0)
(-87.0318 -70.3141 0)
(-112.933 -72.1381 0)
(-149.157 -74.4353 0)
(-197.916 -77.9975 0)
(-261.244 -82.7897 0)
(-336.528 -87.9257 0)
(-414.646 -91.0309 0)
(-474.303 -95.9527 0)
(-495.6 -95.2458 0)
(-468.157 -100.39 0)
(-391.538 -106.746 0)
(-311.082 -118.979 0)
(-243.044 -125.631 0)
(450.913 -125.611 0)
(34811.5 -440.259 0)
(-43534.1 -2656.89 0)
(31493.3 -1794.64 0)
(-22347.5 -383.491 0)
(1518.93 -807.454 0)
(727.484 -910.613 0)
(423.453 -854.232 0)
(214.043 -670.23 0)
(168.968 -497.869 0)
(170.711 -376.047 0)
(153.909 -297.751 0)
(115.046 -233.592 0)
(54.7367 -192.837 0)
(-0.285119 -164.465 0)
(-37.9467 -145.927 0)
(-57.2779 -131.854 0)
(-60.4981 -120.675 0)
(-52.5929 -111.941 0)
(-41.8168 -104.989 0)
(-32.2865 -99.5474 0)
(-29.9569 -95.1313 0)
(-32.2917 -92.6075 0)
(-36.2846 -91.2316 0)
(-47.1352 -90.405 0)
(-57.6158 -90.5495 0)
(-69.1328 -91.0482 0)
(-88.6645 -92.4997 0)
(-115.234 -94.5758 0)
(-152.2 -98.5555 0)
(-202.819 -102.575 0)
(-266.835 -108.893 0)
(-340.549 -116.212 0)
(-418.931 -119.45 0)
(-477.77 -126.89 0)
(-498.781 -128.124 0)
(-474.615 -136.14 0)
(-401.409 -145.58 0)
(-320.186 -159.813 0)
(-245.187 -166.992 0)
(277.164 -166.538 0)
(33457.7 -586.044 0)
(-41869.7 -3620.19 0)
(30951.1 -652.071 0)
(-22375.3 -387.53 0)
(1307.82 -719.411 0)
(731.277 -754.907 0)
(518.543 -716.074 0)
(351.483 -605.373 0)
(287.215 -492.242 0)
(259.267 -400.969 0)
(220.494 -328.813 0)
(163.363 -273.093 0)
(88.2405 -234.134 0)
(23.2123 -204.734 0)
(-21.4253 -184.443 0)
(-44.0314 -167.617 0)
(-49.6712 -153.865 0)
(-44.2156 -142.777 0)
(-35.1929 -134.118 0)
(-27.0754 -127.639 0)
(-26.2888 -122.276 0)
(-30.2913 -119.322 0)
(-35.1874 -117.94 0)
(-46.8448 -117.074 0)
(-58.0074 -117.47 0)
(-70.3796 -118.341 0)
(-90.4311 -120.503 0)
(-118.768 -123.787 0)
(-156.866 -128.317 0)
(-207.877 -135.067 0)
(-274.384 -142.416 0)
(-346.702 -151.217 0)
(-424.936 -153.499 0)
(-482.661 -165.347 0)
(-504.514 -167.019 0)
(-484.979 -175.221 0)
(-414.349 -183.071 0)
(-331.716 -199.246 0)
(-249.525 -201.306 0)
(47.0998 -198.699 0)
(31483.4 -676.374 0)
(-39480.8 -4516.11 0)
(30491.5 -1544.31 0)
(-22412.4 -416.373 0)
(1164.92 -656.993 0)
(730.7 -694.007 0)
(567.549 -659.163 0)
(429.736 -591.757 0)
(365.939 -511.204 0)
(328.197 -436.598 0)
(277.135 -372.961 0)
(206.282 -324.087 0)
(120.611 -286.553 0)
(47.599 -256.229 0)
(-2.17962 -233.346 0)
(-27.8123 -213.577 0)
(-36.5612 -197.269 0)
(-33.564 -183.387 0)
(-27.2294 -173.147 0)
(-20.8745 -165.587 0)
(-21.9427 -159.217 0)
(-28.114 -155.809 0)
(-34.1187 -154.581 0)
(-46.6823 -153.753 0)
(-58.8362 -154.482 0)
(-72.0553 -156.125 0)
(-93.9131 -158.797 0)
(-122.764 -163.789 0)
(-163.069 -169.52 0)
(-216.406 -179.205 0)
(-282.398 -186.371 0)
(-351.229 -202.705 0)
(-432.547 -204.179 0)
(-490.798 -221.322 0)
(-508.295 -229.266 0)
(-490.084 -239.616 0)
(-424.56 -251.39 0)
(-337.757 -273.766 0)
(-244.66 -283.577 0)
(-180.629 -280.365 0)
(29297.3 -727.788 0)
(-36866 -5089.96 0)
(29061.7 -2648.4 0)
(-21520.3 -448.822 0)
(1040.29 -596.978 0)
(729.186 -642.21 0)
(617.074 -615.077 0)
(494.061 -574.715 0)
(436.732 -517.478 0)
(392.483 -458.337 0)
(328.913 -410.095 0)
(246.629 -373.003 0)
(153.631 -342.651 0)
(74.4843 -319.069 0)
(19.6754 -295.164 0)
(-9.26626 -274.586 0)
(-20.5791 -255.522 0)
(-20.9706 -239.507 0)
(-18.0399 -227.343 0)
(-13.6525 -218.833 0)
(-16.8662 -211.486 0)
(-25.8232 -207.651 0)
(-33.2066 -206.71 0)
(-46.75 -205.954 0)
(-60.2923 -207.164 0)
(-74.5371 -209.543 0)
(-97.8172 -213.702 0)
(-129.102 -219.035 0)
(-171.721 -227.237 0)
(-224.115 -235.206 0)
(-297.029 -242.336 0)
(-363.863 -255.403 0)
(-442.876 -257.293 0)
(-506.836 -273.67 0)
(-522.143 -283.427 0)
(-506.298 -292.928 0)
(-447.258 -311.928 0)
(-362.732 -337.558 0)
(-255.884 -366.839 0)
(-380.958 -363.918 0)
(26848.7 -690.468 0)
(-33874.6 -5551.79 0)
(27506.9 -3047.55 0)
(-20435.5 -465.094 0)
(978.561 -558.075 0)
(713.26 -619.94 0)
(632.59 -640.814 0)
(523.785 -622.51 0)
(478.085 -577.979 0)
(431.676 -534.358 0)
(359.365 -494.043 0)
(271.273 -462.464 0)
(172.584 -433.514 0)
(93.3598 -407.144 0)
(40.6864 -379.934 0)
(10.3876 -354.555 0)
(-2.75793 -331.593 0)
(-6.40965 -313.626 0)
(-7.30721 -299.633 0)
(-5.59343 -290.477 0)
(-11.1677 -282.589 0)
(-23.5117 -278.621 0)
(-32.483 -277.83 0)
(-47.1202 -277.155 0)
(-62.2948 -278.951 0)
(-78.3552 -282.033 0)
(-103.06 -287.607 0)
(-135.808 -294.572 0)
(-178.652 -304.206 0)
(-230.956 -317.07 0)
(-301.861 -325.291 0)
(-365.642 -344.459 0)
(-450.15 -353.163 0)
(-515.982 -372.139 0)
(-526.853 -383.622 0)
(-517.548 -390.935 0)
(-467.568 -409.965 0)
(-390.671 -434.983 0)
(-270.061 -464.24 0)
(-492.491 -464.77 0)
(24298.1 -593.792 0)
(-30850.7 -5752.84 0)
(25676.8 -3468.19 0)
(-19121.3 -504.014 0)
(891.071 -588.368 0)
(649.456 -656.731 0)
(614.598 -703.896 0)
(554.61 -691.281 0)
(521.678 -647.661 0)
(473.367 -615.348 0)
(398.193 -576.988 0)
(304.957 -548.471 0)
(206.939 -514.629 0)
(126.116 -487.015 0)
(70.3526 -461.767 0)
(37.3165 -437.713 0)
(18.8612 -417.003 0)
(9.82759 -399.756 0)
(4.26702 -386.549 0)
(2.77141 -377.663 0)
(-5.44086 -370.097 0)
(-21.2374 -366.324 0)
(-31.7942 -365.506 0)
(-47.8307 -364.86 0)
(-64.9924 -366.661 0)
(-82.8782 -369.605 0)
(-109.901 -373.809 0)
(-145.097 -380.054 0)
(-193.402 -386.372 0)
(-244.433 -399.697 0)
(-323.422 -405.196 0)
(-390.722 -431.529 0)
(-469.549 -451.083 0)
(-536.187 -470.487 0)
(-540.256 -485.147 0)
(-531.684 -493.111 0)
(-489.703 -507.96 0)
(-415.033 -531.819 0)
(-284.588 -552.042 0)
(-505.799 -561.031 0)
(21752.9 -549.151 0)
(-27758.8 -5716.22 0)
(23679.1 -3707.2 0)
(-17660.4 -516.508 0)
(831.398 -589.276 0)
(601.933 -637.294 0)
(599.296 -685.957 0)
(577.975 -686.617 0)
(551.256 -669.358 0)
(499.778 -660.113 0)
(423.81 -642.478 0)
(331.364 -632.005 0)
(231.805 -602.63 0)
(144.3 -582.147 0)
(88.195 -551.933 0)
(53.5238 -525.203 0)
(33.8189 -502.916 0)
(22.9367 -484.622 0)
(13.983 -472.015 0)
(10.2606 -463.404 0)
(-0.241442 -456.719 0)
(-19.0878 -453.138 0)
(-31.0721 -452.255 0)
(-48.2326 -451.858 0)
(-66.8676 -453.539 0)
(-85.2439 -456.668 0)
(-113.129 -460.542 0)
(-147.914 -467.41 0)
(-197.58 -474.544 0)
(-249.095 -487.112 0)
(-332.535 -493.464 0)
(-409.86 -510.43 0)
(-487.692 -526.02 0)
(-548.807 -529.016 0)
(-548.654 -532.5 0)
(-539.532 -532.228 0)
(-504.868 -536.556 0)
(-433.149 -550.702 0)
(-298.21 -562.038 0)
(-489.705 -567 0)
(19330.3 -513.271 0)
(-24813.2 -5475.16 0)
(21606.6 -3743.7 0)
(-16116.8 -510.623 0)
(774.678 -589.263 0)
(556.291 -627.933 0)
(567.068 -668.605 0)
(570.606 -678.91 0)
(547.217 -690.459 0)
(499.27 -697.394 0)
(425.279 -697.648 0)
(343.356 -693.455 0)
(254.984 -669.489 0)
(174.969 -646.041 0)
(125.225 -610.713 0)
(84.5506 -582.06 0)
(57.9671 -557.205 0)
(39.6055 -539.696 0)
(24.7134 -528.921 0)
(17.5113 -522.824 0)
(4.45185 -518.795 0)
(-16.9363 -516.54 0)
(-30.5609 -515.395 0)
(-49.0675 -514.022 0)
(-69.6279 -513.768 0)
(-89.6266 -514.402 0)
(-120.252 -517.138 0)
(-158.59 -522.864 0)
(-212.387 -531.694 0)
(-262.665 -543.951 0)
(-345.892 -548.49 0)
(-422.093 -564.373 0)
(-487.459 -572.758 0)
(-542.432 -566.217 0)
(-543.351 -560.733 0)
(-535.592 -554.406 0)
(-507.506 -551.631 0)
(-439.588 -556.738 0)
(-300.294 -560.61 0)
(-458.805 -559.745 0)
(17023.2 -498.497 0)
(-21988.1 -5130.01 0)
(19579.5 -3711.17 0)
(-14620.7 -491.316 0)
(718.354 -571.637 0)
(525.476 -613.849 0)
(550.173 -640.265 0)
(556.916 -645.868 0)
(533.445 -670.736 0)
(492.85 -680.689 0)
(427.606 -687.432 0)
(358.499 -678.707 0)
(277.495 -654.276 0)
(200.938 -635.533 0)
(149.849 -606.772 0)
(105.086 -581.06 0)
(74.6429 -559.19 0)
(50.1924 -543.007 0)
(30.2409 -532.241 0)
(20.0179 -526.361 0)
(5.8139 -522.84 0)
(-15.8111 -520.869 0)
(-28.6451 -519.45 0)
(-46.6649 -518.174 0)
(-67.2343 -517.928 0)
(-88.4908 -517.827 0)
(-121.283 -520.069 0)
(-161.941 -523.598 0)
(-217.901 -527.818 0)
(-265.279 -537.384 0)
(-352.214 -537.892 0)
(-433.246 -548.403 0)
(-489.469 -555.744 0)
(-537.219 -552.75 0)
(-537.272 -548.178 0)
(-530.761 -543.739 0)
(-507.116 -541.411 0)
(-441.802 -543.784 0)
(-301.108 -545.71 0)
(-429.851 -544.142 0)
(14926.2 -485.634 0)
(-19389.4 -4803.38 0)
(17557 -3597.95 0)
(-13091.4 -475.205 0)
(656.6 -552.996 0)
(490.159 -592.585 0)
(536.214 -617.712 0)
(541.242 -624.686 0)
(513.662 -647.015 0)
(483.182 -655.71 0)
(427.189 -664.332 0)
(375.306 -649.122 0)
(296.588 -620.885 0)
(220.746 -594.999 0)
(177.717 -562.524 0)
(130.402 -537.908 0)
(94.6363 -514.014 0)
(65.5744 -495.82 0)
(40.7547 -482.829 0)
(26.5707 -475.137 0)
(9.74354 -471.181 0)
(-13.67 -469.964 0)
(-27.9631 -468.322 0)
(-47.6006 -466.24 0)
(-69.2936 -466.285 0)
(-91.69 -467.866 0)
(-125.813 -472.069 0)
(-166.057 -478.582 0)
(-225.672 -483.53 0)
(-272.373 -495.68 0)
(-356.51 -499.709 0)
(-439.296 -514.315 0)
(-491.647 -527.249 0)
(-535.142 -528.826 0)
(-534.668 -527.771 0)
(-529.071 -526.47 0)
(-507.549 -526.342 0)
(-443.732 -529.014 0)
(-300.639 -531.183 0)
(-400.913 -530.363 0)
(12918.9 -473.782 0)
(-16891.4 -4440.71 0)
(15654.5 -3536.33 0)
(-11686.5 -441.216 0)
(605.242 -517.71 0)
(463.114 -562.844 0)
(519.24 -585.679 0)
(528.679 -596.572 0)
(503.548 -607.245 0)
(476.163 -608.543 0)
(433.954 -614.675 0)
(400.366 -590.955 0)
(329.65 -556.023 0)
(257.177 -518.77 0)
(204.864 -475.452 0)
(151.832 -450.174 0)
(115.201 -425.181 0)
(80.2433 -406.063 0)
(50.1712 -392.103 0)
(31.2426 -382.45 0)
(10.7989 -375.86 0)
(-13.0564 -372.507 0)
(-25.0562 -370.362 0)
(-44.7022 -369.938 0)
(-68.8018 -372.639 0)
(-94.0642 -376.475 0)
(-131.609 -382.578 0)
(-172.985 -392.292 0)
(-234.378 -399.414 0)
(-280.869 -417.06 0)
(-370.171 -430.132 0)
(-459.785 -455.496 0)
(-503.453 -477.498 0)
(-537.722 -486.033 0)
(-535.001 -490.623 0)
(-529.384 -492.76 0)
(-509.568 -495.094 0)
(-446.467 -496.488 0)
(-302.408 -501.428 0)
(-374.538 -495.357 0)
(11158.1 -436.132 0)
(-14653.6 -4117.95 0)
(13724.1 -3094.58 0)
(-10182.6 -352.257 0)
(539.395 -442.626 0)
(424.661 -492.797 0)
(503.713 -510.796 0)
(520.461 -520.808 0)
(502.127 -522.923 0)
(476.022 -519.157 0)
(444.137 -515.572 0)
(431.825 -492.791 0)
(366.149 -455.713 0)
(298.388 -414.314 0)
(243.819 -376.917 0)
(178.845 -354.244 0)
(137.143 -334.138 0)
(97.449 -318.469 0)
(63.5087 -306.531 0)
(42.2232 -297.145 0)
(19.3256 -290.28 0)
(-8.37192 -286.611 0)
(-25.4879 -284.298 0)
(-49.794 -284.433 0)
(-75.5926 -288.381 0)
(-101.268 -293.4 0)
(-141.055 -299.259 0)
(-182.281 -307.993 0)
(-249.539 -311.936 0)
(-301.974 -329.565 0)
(-393.549 -342.112 0)
(-484.939 -365.474 0)
(-521.074 -389.87 0)
(-547.789 -402.037 0)
(-541.151 -410.243 0)
(-533.38 -414.163 0)
(-511.141 -417.577 0)
(-449.835 -420.167 0)
(-299.55 -420.553 0)
(-337.992 -400.553 0)
(9428 -331.011 0)
(-12502.9 -3399.92 0)
(12333 -2722.47 0)
(-9130.94 -151.521 0)
(469.812 -233.671 0)
(397.423 -313.184 0)
(492.248 -348.515 0)
(516.992 -369.993 0)
(505.139 -370.451 0)
(483.247 -368.218 0)
(459.361 -356.54 0)
(458.048 -326.382 0)
(405.274 -307.931 0)
(333.107 -279.203 0)
(262.749 -262.176 0)
(193.056 -257.093 0)
(149.675 -249.327 0)
(106.847 -244.486 0)
(70.7203 -240.04 0)
(46.902 -232.679 0)
(20.9502 -224.485 0)
(-7.29145 -218.002 0)
(-22.9583 -216.641 0)
(-48.6374 -220.617 0)
(-77.4419 -226.05 0)
(-104.546 -229.836 0)
(-145.671 -230.342 0)
(-185.201 -230.875 0)
(-255.165 -224.744 0)
(-309.948 -230.447 0)
(-404.774 -232.991 0)
(-505.807 -241.257 0)
(-538.687 -252.997 0)
(-557.354 -257.221 0)
(-546.686 -261.07 0)
(-536.452 -261.026 0)
(-515.353 -261.771 0)
(-449.334 -259.35 0)
(-283.508 -243.37 0)
(-288.252 -201.476 0)
(8267.79 -122.25 0)
(-11058.3 -2779.55 0)
(10954.6 3952.88 0)
(-7784.26 262.095 0)
(383.61 -93.1953 0)
(313.994 -242.087 0)
(448.97 -332.558 0)
(499.322 -394.689 0)
(503.837 -441.357 0)
(489.427 -482.628 0)
(484.453 -510.632 0)
(478.666 -513.132 0)
(411.612 -473.184 0)
(342.479 -326.297 0)
(265.124 -57.8197 0)
(191.227 216.208 0)
(149.292 497.946 0)
(106.398 709.211 0)
(74.8869 869.156 0)
(57.2132 959.825 0)
(33.4688 1009.94 0)
(-0.813667 1002.18 0)
(-28.0076 1003 0)
(-58.861 1014.03 0)
(-84.4769 967.678 0)
(-105.403 880.321 0)
(-142.056 731.568 0)
(-176.887 514.029 0)
(-249.126 276.234 0)
(-309.921 -22.8514 0)
(-403.966 -259.325 0)
(-504.217 -401.664 0)
(-536.457 -453.117 0)
(-555.568 -441.157 0)
(-544.818 -414.657 0)
(-534.056 -383.925 0)
(-509.526 -352.687 0)
(-432.104 -318.092 0)
(-243.78 -264.686 0)
(-221.276 -180.406 0)
(6943.67 187.667 0)
(-9706.65 4179.62 0)
(16394.7 154217 0)
(-13029.9 13921.1 0)
(-16.0361 8316.76 0)
(166.764 9640.35 0)
(345.196 10864.1 0)
(412.149 12687.5 0)
(420.397 14556.1 0)
(416.492 16726.9 0)
(429.966 19006.2 0)
(494.135 21538.8 0)
(585.316 24130.4 0)
(733.367 26831.9 0)
(785.526 29423.4 0)
(728.612 31909.5 0)
(624.75 34139.9 0)
(464.559 36055.9 0)
(312.221 37399.6 0)
(182.565 38545.3 0)
(61.7613 39027.2 0)
(-13.9813 39552.2 0)
(-11.5388 39553.7 0)
(-82.6715 39010.6 0)
(-206.286 38527.6 0)
(-332.07 37345.2 0)
(-498.643 36024.1 0)
(-623.978 34029.2 0)
(-772.523 31826 0)
(-826.032 29294.2 0)
(-769.811 26654.6 0)
(-692.551 23963.7 0)
(-576.744 21313.2 0)
(-520.293 18740.4 0)
(-491.536 16380.8 0)
(-476.736 14115.7 0)
(-451.914 12144.1 0)
(-364.532 10195 0)
(-150.829 8875.71 0)
(147.652 7376.04 0)
(12469.3 12526.3 0)
(-15266.8 144187 0)
(172978 -179324 0)
(-148379 -17194.6 0)
(-3741.45 -11825 0)
(2768.71 -13295.3 0)
(3385.29 -14871.2 0)
(4057.03 -17166.6 0)
(4396.36 -19509 0)
(4777.76 -22165.1 0)
(5121.35 -24899.3 0)
(5416.53 -27925.9 0)
(5512.28 -31033 0)
(5442.97 -34253.6 0)
(5158.09 -37442.4 0)
(4736.22 -40421.5 0)
(4144.88 -43113.5 0)
(3247.61 -45371.1 0)
(2473.74 -46965.7 0)
(1625.64 -48262.2 0)
(1003.84 -48842.2 0)
(506.493 -49368 0)
(-549.934 -49353.3 0)
(-1047.61 -48785.3 0)
(-1689.35 -48180.3 0)
(-2517.94 -46818.2 0)
(-3337.47 -45222.8 0)
(-4222.3 -42837.3 0)
(-4811.91 -40193.6 0)
(-5293.31 -37042.1 0)
(-5540.61 -33843.4 0)
(-5651.3 -30493.6 0)
(-5569.85 -27260.1 0)
(-5308.68 -24115 0)
(-5001.35 -21211.2 0)
(-4616.67 -18414.9 0)
(-4287.61 -15925.6 0)
(-3581.63 -13496.5 0)
(-2960.28 -11830.5 0)
(3296.58 -10268 0)
(138779 -15404.7 0)
(-160721 -167224 0)
(172978 179324 0)
(-148379 17194.6 0)
(-3741.45 11825 0)
(2768.71 13295.3 0)
(3385.29 14871.2 0)
(4057.03 17166.6 0)
(4396.36 19509 0)
(4777.76 22165.1 0)
(5121.35 24899.3 0)
(5416.53 27925.9 0)
(5512.28 31033 0)
(5442.97 34253.6 0)
(5158.09 37442.4 0)
(4736.22 40421.5 0)
(4144.88 43113.5 0)
(3247.61 45371.1 0)
(2473.74 46965.7 0)
(1625.64 48262.2 0)
(1003.84 48842.2 0)
(506.493 49368 0)
(-549.934 49353.3 0)
(-1047.61 48785.3 0)
(-1689.35 48180.3 0)
(-2517.94 46818.2 0)
(-3337.47 45222.8 0)
(-4222.3 42837.3 0)
(-4811.91 40193.6 0)
(-5293.31 37042.1 0)
(-5540.61 33843.4 0)
(-5651.3 30493.6 0)
(-5569.85 27260.1 0)
(-5308.68 24115 0)
(-5001.35 21211.2 0)
(-4616.67 18414.9 0)
(-4287.61 15925.6 0)
(-3581.63 13496.5 0)
(-2960.28 11830.5 0)
(3296.58 10268 0)
(138779 15404.7 0)
(-160721 167224 0)
(16394.7 -154217 0)
(-13029.9 -13921.1 0)
(-16.0361 -8316.76 0)
(166.764 -9640.35 0)
(345.196 -10864.1 0)
(412.149 -12687.5 0)
(420.397 -14556.1 0)
(416.492 -16726.9 0)
(429.966 -19006.2 0)
(494.135 -21538.8 0)
(585.316 -24130.4 0)
(733.367 -26831.9 0)
(785.526 -29423.4 0)
(728.612 -31909.5 0)
(624.75 -34139.9 0)
(464.559 -36055.9 0)
(312.221 -37399.6 0)
(182.565 -38545.3 0)
(61.7613 -39027.2 0)
(-13.9813 -39552.2 0)
(-11.5388 -39553.7 0)
(-82.6715 -39010.6 0)
(-206.286 -38527.6 0)
(-332.07 -37345.2 0)
(-498.643 -36024.1 0)
(-623.978 -34029.2 0)
(-772.523 -31826 0)
(-826.032 -29294.2 0)
(-769.811 -26654.6 0)
(-692.551 -23963.7 0)
(-576.744 -21313.2 0)
(-520.293 -18740.4 0)
(-491.536 -16380.8 0)
(-476.736 -14115.7 0)
(-451.914 -12144.1 0)
(-364.532 -10195 0)
(-150.829 -8875.71 0)
(147.652 -7376.04 0)
(12469.3 -12526.3 0)
(-15266.8 -144187 0)
(10954.6 -3952.88 0)
(-7784.26 -262.095 0)
(383.61 93.1953 0)
(313.994 242.087 0)
(448.97 332.558 0)
(499.322 394.689 0)
(503.837 441.357 0)
(489.427 482.628 0)
(484.453 510.632 0)
(478.666 513.132 0)
(411.612 473.184 0)
(342.479 326.297 0)
(265.124 57.8197 0)
(191.227 -216.208 0)
(149.292 -497.946 0)
(106.398 -709.211 0)
(74.8869 -869.156 0)
(57.2132 -959.825 0)
(33.4688 -1009.94 0)
(-0.813667 -1002.18 0)
(-28.0076 -1003 0)
(-58.861 -1014.03 0)
(-84.4769 -967.678 0)
(-105.403 -880.321 0)
(-142.056 -731.568 0)
(-176.887 -514.029 0)
(-249.126 -276.234 0)
(-309.921 22.8514 0)
(-403.966 259.325 0)
(-504.217 401.664 0)
(-536.457 453.117 0)
(-555.568 441.157 0)
(-544.818 414.657 0)
(-534.056 383.925 0)
(-509.526 352.687 0)
(-432.104 318.092 0)
(-243.78 264.686 0)
(-221.276 180.406 0)
(6943.67 -187.667 0)
(-9706.65 -4179.62 0)
(12333 2722.47 0)
(-9130.94 151.521 0)
(469.812 233.671 0)
(397.423 313.184 0)
(492.248 348.515 0)
(516.992 369.993 0)
(505.139 370.451 0)
(483.247 368.218 0)
(459.361 356.54 0)
(458.048 326.382 0)
(405.274 307.931 0)
(333.107 279.203 0)
(262.749 262.176 0)
(193.056 257.093 0)
(149.675 249.327 0)
(106.847 244.486 0)
(70.7203 240.04 0)
(46.902 232.679 0)
(20.9502 224.485 0)
(-7.29145 218.002 0)
(-22.9583 216.641 0)
(-48.6374 220.617 0)
(-77.4419 226.05 0)
(-104.546 229.836 0)
(-145.671 230.342 0)
(-185.201 230.875 0)
(-255.165 224.744 0)
(-309.948 230.447 0)
(-404.774 232.991 0)
(-505.807 241.257 0)
(-538.687 252.997 0)
(-557.354 257.221 0)
(-546.686 261.07 0)
(-536.452 261.026 0)
(-515.353 261.771 0)
(-449.334 259.35 0)
(-283.508 243.37 0)
(-288.252 201.476 0)
(8267.79 122.25 0)
(-11058.3 2779.55 0)
(13724.1 3094.58 0)
(-10182.6 352.257 0)
(539.395 442.626 0)
(424.661 492.797 0)
(503.713 510.796 0)
(520.461 520.808 0)
(502.127 522.923 0)
(476.022 519.157 0)
(444.137 515.572 0)
(431.825 492.791 0)
(366.149 455.713 0)
(298.388 414.314 0)
(243.819 376.917 0)
(178.845 354.244 0)
(137.143 334.138 0)
(97.449 318.469 0)
(63.5087 306.531 0)
(42.2232 297.145 0)
(19.3256 290.28 0)
(-8.37193 286.611 0)
(-25.4879 284.298 0)
(-49.794 284.433 0)
(-75.5926 288.381 0)
(-101.268 293.4 0)
(-141.055 299.259 0)
(-182.281 307.993 0)
(-249.539 311.936 0)
(-301.974 329.565 0)
(-393.549 342.112 0)
(-484.939 365.474 0)
(-521.074 389.87 0)
(-547.789 402.037 0)
(-541.151 410.243 0)
(-533.38 414.163 0)
(-511.141 417.577 0)
(-449.835 420.167 0)
(-299.55 420.553 0)
(-337.992 400.553 0)
(9428 331.011 0)
(-12502.9 3399.92 0)
(15654.5 3536.33 0)
(-11686.5 441.216 0)
(605.242 517.71 0)
(463.114 562.844 0)
(519.24 585.679 0)
(528.679 596.572 0)
(503.548 607.245 0)
(476.163 608.543 0)
(433.954 614.675 0)
(400.366 590.955 0)
(329.65 556.023 0)
(257.177 518.77 0)
(204.864 475.452 0)
(151.832 450.174 0)
(115.201 425.181 0)
(80.2433 406.063 0)
(50.1712 392.103 0)
(31.2426 382.45 0)
(10.7989 375.86 0)
(-13.0564 372.507 0)
(-25.0562 370.362 0)
(-44.7022 369.938 0)
(-68.8018 372.639 0)
(-94.0642 376.475 0)
(-131.609 382.578 0)
(-172.985 392.292 0)
(-234.378 399.414 0)
(-280.869 417.06 0)
(-370.171 430.132 0)
(-459.785 455.496 0)
(-503.453 477.498 0)
(-537.722 486.033 0)
(-535.001 490.623 0)
(-529.384 492.76 0)
(-509.568 495.094 0)
(-446.467 496.488 0)
(-302.408 501.428 0)
(-374.538 495.357 0)
(11158.1 436.132 0)
(-14653.6 4117.95 0)
(17557 3597.95 0)
(-13091.4 475.205 0)
(656.6 552.996 0)
(490.159 592.585 0)
(536.214 617.712 0)
(541.242 624.686 0)
(513.662 647.015 0)
(483.182 655.71 0)
(427.189 664.332 0)
(375.306 649.122 0)