/*--------------------------------*- C++ -*----------------------------------*\
| =========                 |                                                 |
| \\      /  F ield         | OpenFOAM: The Open Source CFD Toolbox           |
|  \\    /   O peration     | Version:  v1912                                 |
|   \\  /    A nd           | Website:  www.openfoam.com                      |
|    \\/     M anipulation  |                                                 |
\*---------------------------------------------------------------------------*/
FoamFile
{
    version     2.0;
    format      ascii;
    class       volVectorField;
    location    "3.68";
    object      grad(T);
}
// * * * * * * * * * * * * * * * * * * * * * * * * * * * * * * * * * * * * * //

dimensions      [0 -1 0 1 0 0 0];


internalField   nonuniform List<vector> 
1900
(
(0.948501 -2.7715e-05 0)
(-0.666629 -8.9172e-05 0)
(0.100467 1.62387e-05 0)
(0.0517447 9.44883e-05 0)
(0.0067561 0.000184672 0)
(-0.0135352 0.000133555 0)
(-0.0207962 -2.95102e-05 0)
(-0.0175055 -0.00110482 0)
(-0.00582719 -0.00604619 0)
(-0.0370388 -0.0155081 0)
(0.948384 -4.2317e-05 0)
(-0.666585 -0.00015014 0)
(0.100651 3.55214e-05 0)
(0.0519131 0.000155967 0)
(0.00679517 0.000132225 0)
(-0.0137494 -0.000232986 0)
(-0.0220345 -0.000434757 0)
(-0.0235222 -0.00141555 0)
(-0.0202305 -0.00553967 0)
(-0.0414011 -0.0137486 0)
(0.948308 2.9924e-13 0)
(-0.666551 -6.72205e-14 0)
(0.100773 -2.51535e-13 0)
(0.0518414 -1.4962e-13 0)
(0.00636715 -6.93889e-14 0)
(-0.0141022 -1.95156e-14 0)
(-0.0219787 8.0231e-14 0)
(-0.0226104 1.60462e-13 0)
(-0.0181603 -2.60209e-14 0)
(-0.0394815 1.30104e-14 0)
(0.948384 4.2317e-05 0)
(-0.666585 0.00015014 0)
(0.100651 -3.55214e-05 0)
(0.0519131 -0.000155967 0)
(0.00679517 -0.000132225 0)
(-0.0137494 0.000232986 0)
(-0.0220345 0.000434757 0)
(-0.0235222 0.00141555 0)
(-0.0202305 0.00553967 0)
(-0.0414011 0.0137486 0)
(0.948501 2.7715e-05 0)
(-0.666629 8.9172e-05 0)
(0.100467 -1.62387e-05 0)
(0.0517447 -9.44883e-05 0)
(0.0067561 -0.000184672 0)
(-0.0135352 -0.000133555 0)
(-0.0207962 2.95102e-05 0)
(-0.0175055 0.00110482 0)
(-0.00582719 0.00604619 0)
(-0.0370388 0.0155081 0)
(-0.098414 -0.0124704 1.01498e-15)
(-0.20543 -0.0196747 -1.21603e-15)
(-0.412782 -0.0448805 -1.5109e-15)
(-0.696523 -0.0377178 0)
(-0.52053 0.137053 -5.92863e-15)
(-0.0988289 -0.00998448 1.01273e-15)
(-0.23019 -0.019798 1.21603e-15)
(-0.418068 -0.0502539 1.5109e-15)
(-0.592967 -0.0630475 0)
(-0.463937 0.0852201 0)
(-0.107184 -5.10675e-14 0)
(-0.247142 -2.85316e-14 0)
(-0.453027 1.4456e-13 0)
(-0.62441 1.72487e-13 0)
(-0.398454 2.64597e-13 0)
(-0.0988289 0.00998448 1.01273e-15)
(-0.23019 0.019798 1.21603e-15)
(-0.418068 0.0502539 1.5109e-15)
(-0.592967 0.0630475 0)
(-0.463937 -0.0852201 0)
(-0.098414 0.0124704 -3.04044e-15)
(-0.20543 0.0196747 -1.21603e-15)
(-0.412782 0.0448805 -1.5109e-15)
(-0.696523 0.0377178 -3.98882e-15)
(-0.52053 -0.137053 5.92863e-15)
(-0.259598 -0.0960884 2.54182e-15)
(-0.474168 -0.00485292 -2.02842e-15)
(-0.28844 0.0141776 0)
(-0.184078 0.0118476 1.45835e-15)
(-0.291358 -0.0206896 -6.41595e-16)
(-0.306947 -0.114206 -1.26946e-15)
(-0.446804 -0.00646361 1.01413e-15)
(-0.282897 0.0118328 0)
(-0.198537 -0.0102106 -9.11616e-16)
(-0.113792 -0.0425229 1.59923e-16)
(-0.284294 7.72083e-13 0)
(-0.443088 5.88435e-13 0)
(-0.292083 4.73837e-13 0)
(-0.207993 5.73989e-13 3.64523e-16)
(-0.130126 7.10121e-13 -3.19845e-16)
(-0.306947 0.114206 -1.26946e-15)
(-0.446804 0.00646361 1.01413e-15)
(-0.282897 -0.0118328 0)
(-0.198537 0.0102106 -9.11616e-16)
(-0.113792 0.0425229 1.59923e-16)
(-0.259598 0.0960884 1.26946e-15)
(-0.474168 0.00485292 1.46154e-19)
(-0.28844 -0.0141776 0)
(-0.184078 -0.0118476 3.5681e-19)
(-0.291358 0.0206896 6.41595e-16)
(-0.580185 1.45825 0)
(-0.170711 0.696786 0)
(0.317304 0.223306 0)
(0.068533 0.12301 0)
(-0.107394 0.0687394 0)
(-0.105537 0.027685 0)
(-0.0722609 0.0116881 0)
(-0.0257088 0.00403349 0)
(-0.00592144 0.00394521 0)
(-0.00622052 0.0026508 0)
(-0.0045332 0.00206784 0)
(-0.00555569 0.00153124 0)
(-0.00605072 0.00125638 0)
(-0.0063955 0.00112105 0)
(-0.00601037 0.0010399 0)
(-0.00508056 0.00098088 0)
(-0.0040343 0.000929565 0)
(-0.00313939 0.000883642 0)
(-0.00274288 0.000844965 0)
(-0.00270119 0.000822118 0)
(-0.00287589 0.000805321 0)
(-0.00356584 0.000792729 0)
(-0.00424189 0.000788474 0)
(-0.00497739 0.000785763 0)
(-0.00621206 0.00078905 0)
(-0.00797455 0.000799146 0)
(-0.0105128 0.000818997 0)
(-0.0140517 0.000849406 0)
(-0.0187721 0.000895724 0)
(-0.0247068 0.000941394 0)
(-0.0311596 0.00098524 0)
(-0.0369275 0.000981285 0)
(-0.0391739 0.000905455 0)
(-0.0373887 0.000952852 0)
(-0.0308005 0.000704956 0)
(-0.0225451 0.00137666 0)
(-0.0200085 0.00129096 0)
(-0.202929 0.00152616 0)
(-0.553273 -0.00350587 0)
(-0.360642 -0.049186 0)
(-0.424258 0.435913 0)
(-0.274514 0.675757 0)
(0.213255 0.264313 0)
(0.0341565 0.0812731 0)
(-0.118034 0.0405616 0)
(-0.112341 0.0136042 0)
(-0.074541 0.00457474 0)
(-0.026344 0.00206773 0)
(-0.00606075 0.00125096 0)
(-0.0063276 0.00103521 0)
(-0.00461436 0.000733017 0)
(-0.00561053 0.000525719 0)
(-0.00607718 0.000400744 0)
(-0.0064042 0.000350464 0)
(-0.0060137 0.000326791 0)
(-0.00508288 0.000313541 0)
(-0.00403719 0.000302545 0)
(-0.00314284 0.000291981 0)
(-0.00274586 0.000281811 0)
(-0.00270364 0.000275573 0)
(-0.00287887 0.000269358 0)
(-0.00356915 0.000261998 0)
(-0.00424571 0.000255418 0)
(-0.00498183 0.000247614 0)
(-0.00621669 0.000241482 0)
(-0.007979 0.00023829 0)
(-0.0105165 0.000241409 0)
(-0.0140537 0.000253891 0)
(-0.0187729 0.000283056 0)
(-0.0247067 0.000328336 0)
(-0.0311615 0.000398705 0)
(-0.0369366 0.000486919 0)
(-0.0391735 0.000595796 0)
(-0.03741 0.000814268 0)
(-0.0307407 0.000975665 0)
(-0.0224454 0.00174165 0)
(-0.0199539 0.00236893 0)
(-0.203097 0.00300424 0)
(-0.555688 0.00463237 0)
(-0.362845 0.0152205 0)
(-0.341748 7.05717e-13 0)
(-0.220631 4.65221e-13 0)
(0.144364 2.68094e-13 0)
(0.00344157 -5.44072e-13 0)
(-0.12708 6.86004e-13 0)
(-0.116006 1.33258e-12 0)
(-0.0756169 3.74543e-13 0)
(-0.0266757 5.67531e-12 0)
(-0.00622181 7.78457e-12 0)
(-0.00637119 3.95241e-12 0)
(-0.00468142 -2.6218e-12 0)
(-0.00565235 -4.46691e-12 0)
(-0.00610171 -4.23036e-12 0)
(-0.00641701 -6.18981e-13 0)
(-0.00602111 2.9372e-12 0)
(-0.00508762 4.97156e-12 0)
(-0.00404057 4.7764e-12 0)
(-0.00314542 7.01774e-13 0)
(-0.00274766 -4.63841e-12 0)
(-0.00270481 -7.32526e-12 0)
(-0.00287984 -2.40299e-12 0)
(-0.00356989 6.42242e-12 0)
(-0.00424607 5.95523e-12 0)
(-0.00498144 3.89721e-12 0)
(-0.00621478 5.1884e-12 0)
(-0.00797457 4.049e-12 0)
(-0.0105082 -4.92819e-14 0)
(-0.0140396 -2.08955e-12 0)
(-0.0187505 -1.05463e-12 0)
(-0.0246732 2.64348e-12 0)
(-0.0311134 3.49704e-12 0)
(-0.0368701 1.9969e-12 0)
(-0.0390787 -4.25402e-12 0)
(-0.0372782 -9.83667e-12 0)
(-0.0305308 -1.48831e-12 0)
(-0.0221398 2.50944e-12 0)
(-0.0196412 2.38781e-11 0)
(-0.202271 1.4276e-11 0)
(-0.549719 2.5733e-11 0)
(-0.357561 -1.46702e-11 0)
(-0.424258 -0.435913 0)
(-0.274514 -0.675757 0)
(0.213255 -0.264313 0)
(0.0341565 -0.0812731 0)
(-0.118034 -0.0405616 0)
(-0.112341 -0.0136042 0)
(-0.074541 -0.00457474 0)
(-0.026344 -0.00206773 0)
(-0.00606075 -0.00125096 0)
(-0.0063276 -0.00103521 0)
(-0.00461436 -0.000733017 0)
(-0.00561053 -0.000525719 0)
(-0.00607718 -0.000400744 0)
(-0.0064042 -0.000350464 0)
(-0.0060137 -0.000326791 0)
(-0.00508288 -0.000313541 0)
(-0.00403719 -0.000302545 0)
(-0.00314284 -0.000291981 0)
(-0.00274586 -0.000281811 0)
(-0.00270364 -0.000275573 0)
(-0.00287887 -0.000269358 0)
(-0.00356915 -0.000261998 0)
(-0.00424571 -0.000255418 0)
(-0.00498183 -0.000247614 0)
(-0.00621669 -0.000241482 0)
(-0.007979 -0.00023829 0)
(-0.0105165 -0.000241409 0)
(-0.0140537 -0.000253891 0)
(-0.0187729 -0.000283056 0)
(-0.0247067 -0.000328336 0)
(-0.0311615 -0.000398705 0)
(-0.0369366 -0.000486919 0)
(-0.0391735 -0.000595796 0)
(-0.03741 -0.000814268 0)
(-0.0307407 -0.000975664 0)
(-0.0224454 -0.00174165 0)
(-0.0199539 -0.00236893 0)
(-0.203097 -0.00300424 0)
(-0.555688 -0.00463237 0)
(-0.362845 -0.0152205 0)
(-0.580185 -1.45825 0)
(-0.170711 -0.696786 0)
(0.317304 -0.223306 0)
(0.068533 -0.12301 0)
(-0.107394 -0.0687394 0)
(-0.105537 -0.027685 0)
(-0.0722609 -0.0116881 0)
(-0.0257088 -0.00403349 0)
(-0.00592144 -0.00394521 0)
(-0.00622052 -0.0026508 0)
(-0.0045332 -0.00206784 0)
(-0.00555569 -0.00153124 0)
(-0.00605072 -0.00125638 0)
(-0.0063955 -0.00112105 0)
(-0.00601037 -0.0010399 0)
(-0.00508056 -0.00098088 0)
(-0.0040343 -0.000929565 0)
(-0.00313939 -0.000883642 0)
(-0.00274288 -0.000844965 0)
(-0.00270119 -0.000822118 0)
(-0.00287589 -0.000805321 0)
(-0.00356584 -0.000792729 0)
(-0.00424189 -0.000788474 0)
(-0.00497739 -0.000785763 0)
(-0.00621206 -0.00078905 0)
(-0.00797455 -0.000799146 0)
(-0.0105128 -0.000818997 0)
(-0.0140517 -0.000849406 0)
(-0.0187721 -0.000895724 0)
(-0.0247068 -0.000941394 0)
(-0.0311596 -0.00098524 0)
(-0.0369275 -0.000981285 0)
(-0.0391739 -0.000905455 0)
(-0.0373887 -0.000952852 0)
(-0.0308005 -0.000704956 0)
(-0.0225451 -0.00137666 0)
(-0.0200085 -0.00129096 0)
(-0.202929 -0.00152616 0)
(-0.553273 0.00350587 0)
(-0.360642 0.049186 0)
(0.0464932 -1.33521 0)
(0.380114 -0.282186 0)
(0.452861 -0.0987514 0)
(0.0913641 -0.156861 0)
(-0.0705417 -0.0953325 0)
(-0.0844214 -0.0493165 0)
(-0.0623415 -0.0227058 0)
(-0.0222216 -0.00828086 0)
(-0.00535451 -0.00775979 0)
(-0.00527379 -0.00545989 0)
(-0.00400593 -0.00414323 0)
(-0.00516494 -0.00304975 0)
(-0.00585048 -0.00253551 0)
(-0.00627848 -0.00225231 0)
(-0.00592962 -0.00206944 0)
(-0.00501634 -0.00193031 0)
(-0.00397955 -0.00181126 0)
(-0.00309377 -0.00170815 0)
(-0.00271071 -0.00162383 0)
(-0.00268162 -0.00157299 0)
(-0.00286388 -0.00153976 0)
(-0.00356242 -0.00152064 0)
(-0.00424575 -0.00152121 0)
(-0.00498733 -0.00152874 0)
(-0.00623044 -0.00155216 0)
(-0.00800294 -0.00159266 0)
(-0.0105524 -0.00165689 0)
(-0.0141042 -0.00174958 0)
(-0.0188316 -0.00187326 0)
(-0.0247627 -0.00201094 0)
(-0.0311887 -0.00214301 0)
(-0.0368971 -0.00223457 0)
(-0.0391552 -0.00214288 0)
(-0.0373088 -0.00228181 0)
(-0.0309374 -0.00212736 0)
(-0.0226978 -0.00291483 0)
(-0.0199846 -0.00299785 0)
(-0.200281 -0.00303976 0)
(-0.526669 0.00272322 0)
(-0.336739 0.016984 0)
(0.422088 -0.440039 0)
(0.725419 0.0508001 0)
(0.365382 -0.0574411 0)
(0.0595849 -0.136054 0)
(-0.0235217 -0.0978531 0)
(-0.0468746 -0.0624904 0)
(-0.0380365 -0.0313071 0)
(-0.0131763 -0.0144859 0)
(-0.00350705 -0.0119144 0)
(-0.00324313 -0.00833596 0)
(-0.00249345 -0.00629607 0)
(-0.00421597 -0.00477237 0)
(-0.00538966 -0.00403959 0)
(-0.00600913 -0.00360014 0)
(-0.00574339 -0.00330756 0)
(-0.00486621 -0.0030829 0)
(-0.00384957 -0.00289429 0)
(-0.00298323 -0.00273177 0)
(-0.00262989 -0.00259884 0)
(-0.00263067 -0.00251834 0)
(-0.00283189 -0.00246701 0)
(-0.0035498 -0.00243803 0)
(-0.00424763 -0.00243879 0)
(-0.00500188 -0.00245026 0)
(-0.00626381 -0.00248408 0)
(-0.00806025 -0.00255052 0)
(-0.0106427 -0.00264999 0)
(-0.014232 -0.00279664 0)
(-0.0189921 -0.00300146 0)
(-0.0249368 -0.00324085 0)
(-0.0313594 -0.00345048 0)
(-0.0369437 -0.00366913 0)
(-0.0392295 -0.00358484 0)
(-0.0374166 -0.00386806 0)
(-0.0313372 -0.00393615 0)
(-0.023302 -0.00484828 0)
(-0.0201417 -0.00536849 0)
(-0.198836 -0.00518387 0)
(-0.548244 0.00103416 0)
(-0.359716 -0.022536 0)
(0.519484 -0.0313662 0)
(0.748799 0.036053 0)
(0.272802 -0.0744657 0)
(0.0524216 -0.1054 0)
(0.000346862 -0.0846757 0)
(-0.0202952 -0.0606787 0)
(-0.0160826 -0.0351722 0)
(-0.00353403 -0.0208738 0)
(0.00057177 -0.016675 0)
(0.000140195 -0.0111677 0)
(-0.000571924 -0.00873834 0)
(-0.00299051 -0.00700111 0)
(-0.00472088 -0.00602947 0)
(-0.00557306 -0.00538642 0)
(-0.00543119 -0.00493928 0)
(-0.0046181 -0.00459896 0)
(-0.00364119 -0.00431453 0)
(-0.00280906 -0.00407793 0)
(-0.00250504 -0.00388509 0)
(-0.00255459 -0.00377119 0)
(-0.00278649 -0.00370179 0)
(-0.00353522 -0.00366396 0)
(-0.00425753 -0.00367073 0)
(-0.00503097 -0.00369118 0)
(-0.00632705 -0.00375153 0)
(-0.00816281 -0.00384688 0)
(-0.0107896 -0.00400853 0)
(-0.0144429 -0.00422985 0)
(-0.0192596 -0.00451134 0)
(-0.0251954 -0.00487364 0)
(-0.0316015 -0.00516619 0)
(-0.0370266 -0.00550351 0)
(-0.0393469 -0.0054225 0)
(-0.0376474 -0.0058542 0)
(-0.031882 -0.00618295 0)
(-0.0240781 -0.00726222 0)
(-0.0203079 -0.00803437 0)
(-0.194112 -0.00749995 0)
(-0.54339 0.00241497 0)
(-0.359452 -0.0017437 0)
(0.487056 0.0071906 0)
(0.683887 -0.0177904 0)
(0.229073 -0.0710429 0)
(0.0497461 -0.0863691 0)
(0.0195737 -0.0739626 0)
(0.000828811 -0.0544714 0)
(0.000320863 -0.0361163 0)
(0.00464832 -0.0248877 0)
(0.00584614 -0.0196498 0)
(0.00440492 -0.0139858 0)
(0.00152161 -0.0112111 0)
(-0.0016056 -0.00932775 0)
(-0.00383369 -0.00816064 0)
(-0.00495859 -0.00730727 0)
(-0.00498456 -0.00671037 0)
(-0.00426418 -0.00623173 0)
(-0.00334748 -0.00584687 0)
(-0.00256941 -0.00553295 0)
(-0.0023343 -0.00527912 0)
(-0.00245403 -0.00513281 0)
(-0.00272856 -0.00504888 0)
(-0.00351987 -0.00500408 0)
(-0.00427386 -0.00501835 0)
(-0.00507974 -0.00505528 0)
(-0.00641384 -0.00513608 0)
(-0.00830791 -0.00529364 0)
(-0.0110118 -0.00549228 0)
(-0.0147165 -0.00579731 0)
(-0.0196125 -0.00621183 0)
(-0.0255678 -0.00667569 0)
(-0.0319664 -0.00701579 0)
(-0.0371907 -0.00753374 0)
(-0.0395674 -0.00763595 0)
(-0.0381494 -0.00821416 0)
(-0.032694 -0.00888679 0)
(-0.0250861 -0.0101159 0)
(-0.0203708 -0.0110667 0)
(-0.188766 -0.00995193 0)
(-0.542697 0.00408421 0)
(-0.363724 -0.00785871 0)
(0.495411 -0.0285906 0)
(0.67341 -0.0328646 0)
(0.206717 -0.0661709 0)
(0.0496081 -0.0699964 0)
(0.0310846 -0.0638012 0)
(0.0161748 -0.0495442 0)
(0.0124253 -0.0366598 0)
(0.0123337 -0.027551 0)
(0.0110773 -0.0216581 0)
(0.00827202 -0.0168908 0)
(0.00391672 -0.0139015 0)
(-5.09497e-05 -0.01185 0)
(-0.00277387 -0.0105217 0)
(-0.00417554 -0.00952294 0)
(-0.00439475 -0.0087317 0)
(-0.003786 -0.00811295 0)
(-0.00296782 -0.0076164 0)
(-0.00226196 -0.00722605 0)
(-0.00211945 -0.00690836 0)
(-0.00233271 -0.00673145 0)
(-0.00266244 -0.00663937 0)
(-0.00350581 -0.00659059 0)
(-0.00430687 -0.00661916 0)
(-0.00514442 -0.00667549 0)
(-0.00655674 -0.00680565 0)
(-0.00850605 -0.00698666 0)
(-0.0112749 -0.00732185 0)
(-0.0151363 -0.00767104 0)
(-0.0201061 -0.00821796 0)
(-0.0259702 -0.00887723 0)
(-0.0324283 -0.00925926 0)
(-0.0376242 -0.010018 0)
(-0.0400026 -0.0103274 0)
(-0.0388527 -0.011206 0)
(-0.0337145 -0.0122024 0)
(-0.0261787 -0.0136745 0)
(-0.02015 -0.0147656 0)
(-0.179512 -0.013444 0)
(-0.541373 0.00337634 0)
(-0.370961 -0.0137206 0)
(0.482937 -0.0085255 0)
(0.647673 -0.034593 0)
(0.193291 -0.0586216 0)
(0.0520296 -0.0591926 0)
(0.0392822 -0.0549642 0)
(0.0269832 -0.045805 0)
(0.0215143 -0.0368875 0)
(0.0191045 -0.0297483 0)
(0.0161187 -0.024169 0)
(0.0118794 -0.0199258 0)
(0.00637909 -0.0170083 0)
(0.00165135 -0.0148492 0)
(-0.00159121 -0.013382 0)
(-0.00323371 -0.012174 0)
(-0.00362585 -0.0111952 0)
(-0.00318943 -0.0104037 0)
(-0.00249283 -0.00978145 0)
(-0.00188712 -0.00931441 0)
(-0.00185768 -0.00892702 0)
(-0.00219482 -0.00871963 0)
(-0.00259282 -0.00862852 0)
(-0.0035004 -0.00857951 0)
(-0.00435567 -0.00863126 0)
(-0.00525945 -0.00871981 0)
(-0.0067137 -0.00890887 0)
(-0.00880534 -0.00918942 0)
(-0.0116713 -0.00957473 0)
(-0.0155801 -0.0101503 0)
(-0.0207748 -0.0107978 0)
(-0.0265712 -0.0116049 0)
(-0.0330656 -0.011956 0)
(-0.03822 -0.0131215 0)
(-0.0407122 -0.0135271 0)
(-0.0399562 -0.0144987 0)
(-0.0350728 -0.0154334 0)
(-0.0275562 -0.0171305 0)
(-0.0201487 -0.0178508 0)
(-0.171284 -0.0163534 0)
(-0.542963 0.00279004 0)
(-0.380199 -0.0205235 0)
(0.470291 -0.0188534 0)
(0.625136 -0.0372028 0)
(0.183012 -0.0543601 0)
(0.0531325 -0.0560924 0)
(0.0439855 -0.0520046 0)
(0.0335941 -0.0458164 0)
(0.0278982 -0.0390264 0)
(0.0245897 -0.0328828 0)
(0.0205426 -0.0277662 0)
(0.0151723 -0.023903 0)
(0.0088087 -0.0210093 0)
(0.00344349 -0.0187292 0)
(-0.000195924 -0.017048 0)
(-0.0020683 -0.0156122 0)
(-0.00268885 -0.0144385 0)
(-0.00242363 -0.0134374 0)
(-0.00191815 -0.0126959 0)
(-0.0014386 -0.0121462 0)
(-0.00154629 -0.0116838 0)
(-0.00204507 -0.0114439 0)
(-0.00252741 -0.0113656 0)
(-0.00350845 -0.0113231 0)
(-0.00444207 -0.0114061 0)
(-0.00541194 -0.0115593 0)
(-0.00700928 -0.011795 0)
(-0.00914769 -0.0122178 0)
(-0.0122008 -0.0127116 0)
(-0.0163149 -0.0135371 0)
(-0.0215078 -0.0142097 0)
(-0.0270862 -0.0156588 0)
(-0.0338897 -0.0160111 0)
(-0.0391382 -0.0176986 0)
(-0.0413297 -0.0187299 0)
(-0.0406897 -0.0200205 0)
(-0.0362507 -0.0214249 0)
(-0.0285081 -0.023766 0)
(-0.0194011 -0.0253192 0)
(-0.159621 -0.0241103 0)
(-0.545392 -0.0058861 0)
(-0.393427 -0.0255432 0)
(0.465255 -0.0293533 0)
(0.613458 -0.0409256 0)
(0.175089 -0.0511027 0)
(0.0542994 -0.0535717 0)
(0.0491844 -0.0497518 0)
(0.0394895 -0.0454476 0)
(0.0339776 -0.0402218 0)
(0.0299552 -0.0350497 0)
(0.0247718 -0.0309359 0)
(0.0183906 -0.0278301 0)
(0.0113648 -0.0253847 0)
(0.00546866 -0.0235455 0)
(0.00141249 -0.0217535 0)
(-0.000719098 -0.0202419 0)
(-0.00153022 -0.0188466 0)
(-0.00151019 -0.0176783 0)
(-0.00124855 -0.016786 0)
(-0.000911839 -0.0161584 0)
(-0.0011809 -0.015622 0)
(-0.00188815 -0.0153517 0)
(-0.00247641 -0.0152958 0)
(-0.00353948 -0.0152644 0)
(-0.00458327 -0.0153931 0)
(-0.00563418 -0.0156126 0)
(-0.0073483 -0.0159763 0)
(-0.00968867 -0.0164433 0)
(-0.0129425 -0.0171591 0)
(-0.0170236 -0.0178907 0)
(-0.0228194 -0.0186058 0)
(-0.0283071 -0.0198741 0)
(-0.0350313 -0.0203289 0)
(-0.0408399 -0.0220689 0)
(-0.0429497 -0.0233687 0)
(-0.0425532 -0.0247231 0)
(-0.0386821 -0.0268891 0)
(-0.0313089 -0.0296472 0)
(-0.0204805 -0.0331198 0)
(-0.152558 -0.0323207 0)
(-0.544344 -0.0202424 0)
(-0.399141 -0.0307893 0)
(0.45914 -0.0276776 0)
(0.604177 -0.0422359 0)
(0.170826 -0.0498257 0)
(0.0544344 -0.0534261 0)
(0.0518141 -0.0533102 0)
(0.0427775 -0.0504997 0)
(0.037918 -0.0459518 0)
(0.033538 -0.041691 0)
(0.0274996 -0.037938 0)
(0.0205217 -0.0350641 0)
(0.0129375 -0.0325878 0)
(0.00694268 -0.0304499 0)
(0.00298751 -0.0283463 0)
(0.000732832 -0.0264284 0)
(-0.000218478 -0.0247126 0)
(-0.00043791 -0.0233793 0)
(-0.000453492 -0.0223344 0)
(-0.000316927 -0.0216453 0)
(-0.000768928 -0.0210609 0)
(-0.00173079 -0.0207803 0)
(-0.00244326 -0.0207394 0)
(-0.00360222 -0.0207228 0)
(-0.0047776 -0.0209099 0)
(-0.00597386 -0.0211992 0)
(-0.0078098 -0.0216956 0)
(-0.0102875 -0.0223214 0)
(-0.0135956 -0.0231918 0)
(-0.017709 -0.0243762 0)
(-0.0234191 -0.0252532 0)
(-0.0287467 -0.0271331 0)
(-0.0360047 -0.0282695 0)
(-0.0420674 -0.0304354 0)
(-0.0438874 -0.0321038 0)
(-0.0440821 -0.0335171 0)
(-0.0409957 -0.0359561 0)
(-0.0345122 -0.0389435 0)
(-0.0219773 -0.0426502 0)
(-0.147212 -0.0422987 0)
(-0.543916 -0.0327228 0)
(-0.40359 -0.0337877 0)
(0.451226 -0.0279969 0)
(0.592115 -0.0457173 0)
(0.164305 -0.0542492 0)
(0.0509416 -0.0581587 0)
(0.0520044 -0.0601414 0)
(0.0465803 -0.0575378 0)
(0.042466 -0.0527213 0)
(0.0376777 -0.0490581 0)
(0.0311578 -0.0451919 0)
(0.0235462 -0.0423544 0)
(0.0158112 -0.0393399 0)
(0.00955592 -0.0370075 0)
(0.00528776 -0.0349675 0)
(0.00278249 -0.0330868 0)
(0.00140801 -0.0314985 0)
(0.000781573 -0.0301848 0)
(0.000422404 -0.0291786 0)
(0.000315343 -0.0284963 0)
(-0.000347352 -0.0279155 0)
(-0.00157839 -0.0276431 0)
(-0.00242104 -0.0276101 0)
(-0.00370372 -0.0276066 0)
(-0.00504238 -0.0278132 0)
(-0.0063913 -0.0281164 0)
(-0.00842967 -0.0285406 0)
(-0.0111305 -0.029159 0)
(-0.0149227 -0.0298273 0)
(-0.0190101 -0.03113 0)
(-0.0254759 -0.0318937 0)
(-0.0312137 -0.0344886 0)
(-0.0382135 -0.0366754 0)
(-0.0445347 -0.0391279 0)
(-0.0459193 -0.0413222 0)
(-0.0462655 -0.0430642 0)
(-0.0439112 -0.045451 0)
(-0.0377595 -0.048677 0)
(-0.0237137 -0.051815 0)
(-0.142991 -0.0522632 0)
(-0.536142 -0.0417716 0)
(-0.400168 -0.0343732 0)
(0.442064 -0.0273165 0)
(0.57888 -0.0466366 0)
(0.158837 -0.0556833 0)
(0.0487564 -0.0580536 0)
(0.0524124 -0.0604103 0)
(0.0499278 -0.0588734 0)
(0.0460893 -0.0560155 0)
(0.0407937 -0.0540133 0)
(0.0339595 -0.0515627 0)
(0.0261608 -0.0499535 0)
(0.01809 -0.0470856 0)
(0.0111561 -0.045161 0)
(0.00676563 -0.042606 0)
(0.00407565 -0.0404244 0)
(0.00257798 -0.0386392 0)
(0.00179766 -0.0371894 0)
(0.00117369 -0.0361958 0)
(0.000900246 -0.0355154 0)
(5.32111e-05 -0.0349767 0)
(-0.00143656 -0.0347108 0)
(-0.00240805 -0.0346828 0)
(-0.00379791 -0.0347087 0)
(-0.00526891 -0.034928 0)
(-0.0066748 -0.0352758 0)
(-0.00881447 -0.0357148 0)
(-0.0115275 -0.0364382 0)
(-0.015495 -0.0372464 0)
(-0.0197003 -0.0385979 0)
(-0.0266555 -0.0395415 0)
(-0.0333544 -0.0415826 0)
(-0.0404753 -0.0436374 0)
(-0.0465453 -0.0449426 0)
(-0.0476805 -0.0463794 0)
(-0.0480608 -0.0475765 0)
(-0.0464045 -0.0492149 0)
(-0.0406448 -0.0517762 0)
(-0.025433 -0.0542549 0)
(-0.137534 -0.0543657 0)
(-0.526677 -0.0423732 0)
(-0.396461 -0.0327489 0)
(0.432609 -0.025103 0)
(0.56478 -0.0465235 0)
(0.153304 -0.0569946 0)
(0.0463865 -0.0589013 0)
(0.0512144 -0.0607564 0)
(0.0508153 -0.0600168 0)
(0.0471493 -0.0594657 0)
(0.0419686 -0.0586523 0)
(0.03507 -0.0574747 0)
(0.0278605 -0.0561993 0)
(0.0204295 -0.0535623 0)
(0.0138726 -0.0512597 0)
(0.00985211 -0.0481628 0)
(0.00660504 -0.0457253 0)
(0.0045254 -0.0436539 0)
(0.00313618 -0.0422049 0)
(0.00203544 -0.0413119 0)
(0.00149013 -0.0408032 0)
(0.00042799 -0.0404529 0)
(-0.00129523 -0.040287 0)
(-0.00241896 -0.0402428 0)
(-0.00393998 -0.0401965 0)
(-0.00558886 -0.0402808 0)
(-0.00714948 -0.040456 0)
(-0.00954981 -0.040841 0)
(-0.0126064 -0.0415207 0)
(-0.0170038 -0.0425275 0)
(-0.0212218 -0.0439508 0)
(-0.0283521 -0.0448311 0)
(-0.0351607 -0.0469561 0)
(-0.0414513 -0.0485876 0)
(-0.047177 -0.0492427 0)
(-0.0484575 -0.0500448 0)
(-0.0489979 -0.0508288 0)
(-0.0479581 -0.0519535 0)
(-0.0426163 -0.0538275 0)
(-0.0262091 -0.055719 0)
(-0.131541 -0.0554554 0)
(-0.515312 -0.0420893 0)
(-0.390893 -0.029532 0)
(0.421422 -0.023037 0)
(0.548148 -0.0452653 0)
(0.146909 -0.0568914 0)
(0.0451314 -0.0594135 0)
(0.0513375 -0.0600825 0)
(0.0511716 -0.0588965 0)
(0.0474042 -0.0595431 0)
(0.0427122 -0.0589682 0)
(0.0363233 -0.0582852 0)
(0.0299309 -0.0565576 0)
(0.02285 -0.0537337 0)
(0.0163593 -0.0517034 0)
(0.0120988 -0.0489803 0)
(0.00842064 -0.04665 0)
(0.00597033 -0.0447204 0)
(0.00405442 -0.0433106 0)
(0.00252443 -0.0423751 0)
(0.00172808 -0.0418608 0)
(0.000550616 -0.0415369 0)
(-0.00123411 -0.0413868 0)
(-0.00232082 -0.0413172 0)
(-0.0038346 -0.0412777 0)
(-0.00551899 -0.0413701 0)
(-0.00721462 -0.041497 0)
(-0.00984048 -0.041863 0)
(-0.0131526 -0.042398 0)
(-0.0178366 -0.0430692 0)
(-0.02192 -0.0443447 0)
(-0.0295516 -0.0449361 0)
(-0.0369743 -0.0466995 0)
(-0.0426788 -0.0483047 0)
(-0.0479496 -0.0492931 0)
(-0.0492089 -0.0502087 0)
(-0.0499001 -0.0512017 0)
(-0.0492941 -0.0524223 0)
(-0.0442733 -0.0541172 0)
(-0.0270017 -0.0558904 0)
(-0.1244 -0.0557034 0)
(-0.501696 -0.0413948 0)
(-0.38436 -0.0267361 0)
(0.411189 -0.0195623 0)
(0.532156 -0.0451927 0)
(0.13967 -0.0567209 0)
(0.0433115 -0.0591629 0)
(0.0517127 -0.0597862 0)
(0.0513351 -0.0586981 0)
(0.0470802 -0.0591721 0)
(0.0431807 -0.0584924 0)
(0.0373929 -0.0579718 0)
(0.0322465 -0.0555984 0)
(0.0251071 -0.0523274 0)
(0.0184531 -0.0495994 0)
(0.0147218 -0.0464642 0)
(0.01071 -0.0441634 0)
(0.00774328 -0.0420085 0)
(0.00539623 -0.0403984 0)
(0.00343257 -0.0392637 0)
(0.00229783 -0.0385967 0)
(0.000884708 -0.0382384 0)
(-0.00108354 -0.0381438 0)
(-0.00231374 -0.0380447 0)
(-0.00399094 -0.0379306 0)
(-0.00580021 -0.038036 0)
(-0.00762447 -0.0382828 0)
(-0.0104181 -0.0387924 0)
(-0.0137687 -0.039565 0)
(-0.0188797 -0.0402835 0)
(-0.0230208 -0.0417812 0)
(-0.0306213 -0.0426542 0)
(-0.0384068 -0.0447972 0)
(-0.0439505 -0.0469299 0)
(-0.0490117 -0.048331 0)
(-0.0502967 -0.0495764 0)
(-0.051131 -0.0508817 0)
(-0.0507676 -0.0523527 0)
(-0.0459583 -0.0541389 0)
(-0.0277376 -0.0559788 0)
(-0.117573 -0.0558937 0)
(-0.487398 -0.0415441 0)
(-0.376768 -0.0223862 0)
(0.396724 -0.0183217 0)
(0.51234 -0.0423773 0)
(0.133447 -0.0550925 0)
(0.0421776 -0.0583198 0)
(0.0517854 -0.058754 0)
(0.0517634 -0.0580451 0)
(0.0476024 -0.0575093 0)
(0.0438689 -0.0561703 0)
(0.0391121 -0.0554656 0)
(0.03537 -0.0522743 0)
(0.0286308 -0.0483251 0)
(0.0220093 -0.0445613 0)
(0.0173371 -0.040408 0)
(0.0127144 -0.0379727 0)
(0.00959837 -0.0356476 0)
(0.00669942 -0.0338956 0)
(0.0042606 -0.0326287 0)
(0.00271603 -0.0317501 0)
(0.000987051 -0.031118 0)
(-0.00104738 -0.0308339 0)
(-0.00211539 -0.0306924 0)
(-0.00382622 -0.0307042 0)
(-0.00585831 -0.0310457 0)
(-0.00794352 -0.0315 0)
(-0.0110761 -0.0321791 0)
(-0.0145895 -0.0332286 0)
(-0.0199723 -0.0341257 0)
(-0.0242046 -0.0360992 0)
(-0.0324579 -0.037727 0)
(-0.0410945 -0.0407897 0)
(-0.0460841 -0.0437352 0)
(-0.0504998 -0.0457565 0)
(-0.0516668 -0.0475274 0)
(-0.0525755 -0.0491683 0)
(-0.0524329 -0.0508968 0)
(-0.0477675 -0.0525873 0)
(-0.0286927 -0.0548105 0)
(-0.11049 -0.0540137 0)
(-0.469407 -0.0380985 0)
(-0.365899 -0.0191514 0)
(0.388008 -0.00685793 0)
(0.496723 -0.0364983 0)
(0.124307 -0.0512193 0)
(0.0397831 -0.0547396 0)
(0.0519774 -0.0541368 0)
(0.0525345 -0.0530892 0)
(0.0488869 -0.0515796 0)
(0.0451501 -0.0496502 0)
(0.0411473 -0.0479471 0)
(0.0391274 -0.0446946 0)
(0.0325397 -0.0402837 0)
(0.0260823 -0.0358161 0)
(0.0210708 -0.0319058 0)
(0.0152974 -0.029445 0)
(0.0116721 -0.0273088 0)
(0.00830527 -0.0256444 0)
(0.00550001 -0.0243815 0)
(0.00375359 -0.0233998 0)
(0.0017676 -0.0226939 0)
(-0.000673359 -0.0224051 0)
(-0.00218873 -0.022242 0)
(-0.00433144 -0.0222646 0)
(-0.00656704 -0.0227407 0)
(-0.00871663 -0.0233935 0)
(-0.0120839 -0.0241851 0)
(-0.0156446 -0.0252997 0)
(-0.021646 -0.0260858 0)
(-0.0264911 -0.0281966 0)
(-0.0351413 -0.0299218 0)
(-0.0441965 -0.0329398 0)
(-0.0487367 -0.0362629 0)
(-0.052666 -0.0387 0)
(-0.0535845 -0.0408986 0)
(-0.0543778 -0.0427737 0)
(-0.0540623 -0.0446811 0)
(-0.0497297 -0.0466343 0)
(-0.029112 -0.0488466 0)
(-0.101469 -0.0466188 0)
(-0.453803 -0.0294243 0)
(-0.35851 -0.00398148 0)
(0.368161 0.0260205 0)
(0.469592 -0.0167753 0)
(0.115869 -0.0235184 0)
(0.0393662 -0.0292916 0)
(0.0533758 -0.0312956 0)
(0.0542276 -0.0324321 0)
(0.0509163 -0.0318994 0)
(0.0473692 -0.0311645 0)
(0.0438875 -0.0297784 0)
(0.0427548 -0.0268918 0)
(0.0371864 -0.024879 0)
(0.0300825 -0.022265 0)
(0.0234765 -0.020894 0)
(0.0171442 -0.0208 0)
(0.0132608 -0.0205032 0)
(0.00952032 -0.0205159 0)
(0.00642355 -0.0205457 0)
(0.00434229 -0.0203829 0)
(0.00194557 -0.0199981 0)
(-0.000611896 -0.0193503 0)
(-0.00198001 -0.0192884 0)
(-0.00430684 -0.019803 0)
(-0.00694614 -0.0200408 0)
(-0.00933535 -0.0200154 0)
(-0.012913 -0.0197139 0)
(-0.0164211 -0.0194959 0)
(-0.0227638 -0.0186284 0)
(-0.0279011 -0.0189447 0)
(-0.0370286 -0.0190619 0)
(-0.0472051 -0.0201479 0)
(-0.0516348 -0.0216506 0)
(-0.0549669 -0.0225799 0)
(-0.0555923 -0.0234892 0)
(-0.0562204 -0.0241211 0)
(-0.0561532 -0.0248588 0)
(-0.0517816 -0.0253171 0)
(-0.0286777 -0.0250285 0)
(-0.0917742 -0.0219609 0)
(-0.42832 -0.0107226 0)
(-0.341381 0.032473 0)
(0.346768 -0.0483561 0)
(0.448985 -0.0768061 0)
(0.112246 -0.0707306 0)
(0.0322887 -0.0828308 0)
(0.048951 -0.0971473 0)
(0.0519527 -0.109564 0)
(0.0501085 -0.120424 0)
(0.047194 -0.129246 0)
(0.0452646 -0.137949 0)
(0.0438486 -0.142647 0)
(0.0369982 -0.149285 0)
(0.0299224 -0.155831 0)
(0.0224825 -0.164262 0)
(0.015674 -0.176559 0)
(0.0119459 -0.185555 0)
(0.00826435 -0.195812 0)
(0.00562817 -0.203048 0)
(0.00428125 -0.208044 0)
(0.00276269 -0.210496 0)
(1.05938e-05 -0.204248 0)
(-0.00262499 -0.20431 0)
(-0.00505648 -0.210597 0)
(-0.00677171 -0.208108 0)
(-0.00840161 -0.203194 0)
(-0.0115833 -0.195125 0)
(-0.0145986 -0.187561 0)
(-0.0211148 -0.17482 0)
(-0.0269089 -0.166031 0)
(-0.0363008 -0.156589 0)
(-0.046691 -0.149351 0)
(-0.0510802 -0.143065 0)
(-0.0544378 -0.137077 0)
(-0.0550696 -0.129718 0)
(-0.0556976 -0.12245 0)
(-0.0552148 -0.114249 0)
(-0.0498933 -0.104785 0)
(-0.0258779 -0.094261 0)
(-0.0876829 -0.088289 0)
(-0.401349 -0.0910627 0)
(-0.316885 -0.0822826 0)
(0.340746 -0.292138 0)
(0.448031 -0.434095 0)
(0.110063 -0.417776 0)
(0.0139101 -0.45769 0)
(0.0276145 -0.488935 0)
(0.0317973 -0.511478 0)
(0.0319498 -0.532278 0)
(0.0304819 -0.547662 0)
(0.0309746 -0.559856 0)
(0.0318306 -0.569324 0)
(0.0244812 -0.57648 0)
(0.0156505 -0.578125 0)
(0.00350222 -0.579036 0)
(-0.00337474 -0.576327 0)
(-0.00529121 -0.574242 0)
(-0.00733625 -0.571961 0)
(-0.00536422 -0.572047 0)
(-0.00283527 -0.570036 0)
(0.00560322 -0.572335 0)
(0.0053493 -0.568804 0)
(-0.0080977 -0.568112 0)
(-0.0079668 -0.570759 0)
(0.000187857 -0.567351 0)
(0.00317583 -0.568519 0)
(0.00215101 -0.566926 0)
(0.00314482 -0.568347 0)
(-0.00201628 -0.569576 0)
(-0.0103327 -0.568747 0)
(-0.0209556 -0.568918 0)
(-0.0341728 -0.561542 0)
(-0.0398066 -0.553106 0)
(-0.0421055 -0.541223 0)
(-0.0414971 -0.527013 0)
(-0.0413135 -0.511952 0)
(-0.0391311 -0.492435 0)
(-0.0325208 -0.475102 0)
(-0.0127813 -0.446237 0)
(-0.0886922 -0.416181 0)
(-0.422532 -0.433803 0)
(-0.332921 -0.323415 0)
(0.209974 -0.221004 0)
(0.327917 -0.356711 0)
(0.0895083 -0.345652 0)
(-0.0362825 -0.378042 0)
(-0.00288026 -0.397738 0)
(0.0101858 -0.409687 0)
(0.01524 -0.420165 0)
(0.0206187 -0.427027 0)
(0.0243904 -0.430401 0)
(0.027829 -0.43386 0)
(0.0285167 -0.434553 0)
(0.0274589 -0.429672 0)
(0.0242149 -0.422299 0)
(0.0202936 -0.408178 0)
(0.0161533 -0.397738 0)
(0.0103796 -0.385924 0)
(0.00748362 -0.379353 0)
(0.00400356 -0.372592 0)
(0.00394944 -0.372257 0)
(0.00408059 -0.374308 0)
(-0.00450857 -0.373573 0)
(-0.00432318 -0.370583 0)
(-0.00461326 -0.369792 0)
(-0.00799225 -0.375566 0)
(-0.0114172 -0.381381 0)
(-0.0171524 -0.389646 0)
(-0.0215001 -0.402445 0)
(-0.0262743 -0.409865 0)
(-0.0293582 -0.418988 0)
(-0.0314545 -0.418585 0)
(-0.0314999 -0.416167 0)
(-0.0292932 -0.409964 0)
(-0.0268629 -0.402871 0)
(-0.0223778 -0.394778 0)
(-0.0197052 -0.383221 0)
(-0.0053749 -0.374619 0)
(0.0309005 -0.355051 0)
(-0.0757007 -0.329289 0)
(-0.311956 -0.341569 0)
(-0.210511 -0.214541 0)
(0.209974 0.221004 0)
(0.327917 0.356711 0)
(0.0895083 0.345652 0)
(-0.0362825 0.378042 0)
(-0.00288026 0.397738 0)
(0.0101858 0.409687 0)
(0.01524 0.420165 0)
(0.0206187 0.427027 0)
(0.0243904 0.430401 0)
(0.027829 0.43386 0)
(0.0285167 0.434553 0)
(0.0274589 0.429672 0)
(0.0242149 0.422299 0)
(0.0202936 0.408178 0)