/*--------------------------------*- C++ -*----------------------------------*\
| =========                 |                                                 |
| \\      /  F ield         | OpenFOAM: The Open Source CFD Toolbox           |
|  \\    /   O peration     | Version:  v1912                                 |
|   \\  /    A nd           | Website:  www.openfoam.com                      |
|    \\/     M anipulation  |                                                 |
\*---------------------------------------------------------------------------*/
FoamFile
{
    version     2.0;
    format      ascii;
    class       volVectorField;
    location    "8.6";
    object      U;
}
// * * * * * * * * * * * * * * * * * * * * * * * * * * * * * * * * * * * * * //

dimensions      [0 1 -1 0 0 0 0];


internalField   nonuniform List<vector> 
1900
(
(-0.0287856 -1.25606e-06 0)
(0.125737 -2.92366e-06 0)
(0.11307 -5.03059e-06 0)
(0.113079 -8.84415e-06 0)
(0.111988 -1.84056e-05 0)
(0.111342 -5.90537e-05 0)
(0.109069 -9.57796e-05 0)
(0.106167 -1.81605e-05 0)
(0.102927 0.00387353 0)
(0.0904743 0.0124453 0)
(-0.0287857 -1.7404e-06 0)
(0.125738 -2.66334e-06 0)
(0.113076 -2.21528e-06 0)
(0.113064 -4.89161e-06 0)
(0.111949 -2.59632e-05 0)
(0.111244 -9.57211e-05 0)
(0.108945 -0.000105468 0)
(0.106014 0.000138036 0)
(0.103706 0.0025667 0)
(0.103651 0.0113747 0)
(-0.0287858 -1.53724e-14 0)
(0.12574 -2.45957e-14 0)
(0.113078 -1.69214e-14 0)
(0.113048 -1.49029e-14 0)
(0.111915 -5.19645e-15 0)
(0.111156 5.25519e-16 0)
(0.108833 5.87342e-15 0)
(0.106217 5.60921e-15 0)
(0.105373 -7.22612e-16 0)
(0.111152 -1.02445e-14 0)
(-0.0287857 1.7404e-06 0)
(0.125738 2.66334e-06 0)
(0.113076 2.21528e-06 0)
(0.113064 4.89161e-06 0)
(0.111949 2.59632e-05 0)
(0.111244 9.57211e-05 0)
(0.108945 0.000105468 0)
(0.106014 -0.000138036 0)
(0.103706 -0.0025667 0)
(0.103651 -0.0113747 0)
(-0.0287856 1.25606e-06 0)
(0.125737 2.92366e-06 0)
(0.11307 5.03059e-06 0)
(0.113079 8.84415e-06 0)
(0.111988 1.84056e-05 0)
(0.111342 5.90537e-05 0)
(0.109069 9.57796e-05 0)
(0.106167 1.81605e-05 0)
(0.102927 -0.00387353 0)
(0.0904743 -0.0124453 0)
(0.0941705 0.0387901 0)
(0.130123 0.0532519 0)
(0.176905 0.0770848 0)
(0.252231 0.118481 0)
(0.396614 0.174424 0)
(0.117406 0.02713 0)
(0.142132 0.0288482 0)
(0.172165 0.0384747 0)
(0.235277 0.0604494 0)
(0.37694 0.102463 0)
(0.127663 -1.05986e-14 0)
(0.150851 -2.75675e-14 0)
(0.181943 3.92175e-15 0)
(0.245897 -1.98369e-14 0)
(0.386621 -2.09577e-15 0)
(0.117406 -0.02713 0)
(0.142132 -0.0288482 0)
(0.172165 -0.0384747 0)
(0.235277 -0.0604494 0)
(0.37694 -0.102463 0)
(0.0941705 -0.0387901 0)
(0.130123 -0.0532519 0)
(0.176905 -0.0770848 0)
(0.252231 -0.118481 0)
(0.396614 -0.174424 0)
(0.849032 0.0303243 0)
(1.11188 -0.0520737 0)
(1.26885 -0.0834343 0)
(1.35375 -0.0959981 0)
(1.4488 -0.106567 0)
(0.822208 -0.0177292 0)
(1.12452 -0.048472 0)
(1.30058 -0.0597829 0)
(1.38707 -0.0602334 0)
(1.47881 -0.0811694 0)
(0.81836 4.74291e-16 0)
(1.12862 5.59312e-15 0)
(1.29602 -2.54787e-15 0)
(1.37846 4.53197e-16 0)
(1.46782 6.66154e-15 0)
(0.822208 0.0177292 0)
(1.12452 0.048472 0)
(1.30058 0.0597829 0)
(1.38707 0.0602334 0)
(1.47881 0.0811694 0)
(0.849032 -0.0303243 0)
(1.11188 0.0520737 0)
(1.26885 0.0834343 0)
(1.35375 0.0959981 0)
(1.4488 0.106567 0)
(1.47313 -0.0138735 0)
(1.49258 0.0496342 0)
(1.50861 0.0178464 0)
(1.52144 -0.0110191 0)
(1.53398 -0.0194147 0)
(1.54719 -0.0187197 0)
(1.56329 -0.0179436 0)
(1.58067 -0.0164462 0)
(1.59862 -0.00622524 0)
(1.63118 -0.0099333 0)
(1.66257 -0.00988387 0)
(1.64983 -0.00445449 0)
(1.57558 -0.00320259 0)
(1.3648 -0.00464686 0)
(1.23753 -0.00598392 0)
(1.22947 -0.00326298 0)
(1.22764 -0.007056 0)
(1.21502 -0.0149261 0)
(1.17729 -0.0300468 0)
(1.11437 -0.0491083 0)
(1.03983 -0.0527846 0)
(0.96842 -0.0478143 0)
(0.899265 -0.0425948 0)
(0.830675 -0.0366554 0)
(0.756046 -0.030339 0)
(0.637776 -0.0235907 0)
(0.412156 -0.0153802 0)
(0.200311 -0.00963319 0)
(0.0303941 -0.00935723 0)
(-0.178034 -0.00947294 0)
(-0.262695 -0.00944996 0)
(-0.297073 -0.00925309 0)
(-0.318871 -0.00926713 0)
(-0.336683 -0.00946438 0)
(-0.350279 -0.00995521 0)
(-0.360179 -0.0109279 0)
(-0.369857 -0.0122592 0)
(-0.380179 -0.0122956 0)
(-0.387282 -0.0113608 0)
(-0.393399 -0.00930867 0)
(1.47895 -0.0125414 0)
(1.45834 0.0368601 0)
(1.45695 0.0392527 0)
(1.48194 0.0122309 0)
(1.49831 -0.00630731 0)
(1.51647 -0.0206605 0)
(1.53972 -0.0257417 0)
(1.56175 -0.0262841 0)
(1.58347 -0.0196889 0)
(1.6219 -0.0224903 0)
(1.6539 -0.0192174 0)
(1.6452 -0.0145762 0)
(1.5637 -0.0134662 0)
(1.34901 -0.0109364 0)
(1.23438 -0.00812956 0)
(1.2297 -0.00527628 0)
(1.23297 -0.00411593 0)
(1.23168 -0.00655198 0)
(1.20108 -0.0163846 0)
(1.13151 -0.0256531 0)
(1.04424 -0.0255296 0)
(0.964466 -0.0223286 0)
(0.898764 -0.0188221 0)
(0.837496 -0.0168431 0)
(0.7645 -0.0169819 0)
(0.644107 -0.0134267 0)
(0.416514 -0.00709078 0)
(0.201252 -0.00462804 0)
(0.03056 -0.00466928 0)
(-0.177829 -0.00474116 0)
(-0.262252 -0.00471241 0)
(-0.296416 -0.00461478 0)
(-0.317975 -0.00463128 0)
(-0.335605 -0.00474677 0)
(-0.349242 -0.00500519 0)
(-0.359624 -0.00550142 0)
(-0.370354 -0.00617115 0)
(-0.381649 -0.00619925 0)
(-0.389111 -0.00571586 0)
(-0.395183 -0.00468032 0)
(1.47553 -9.86465e-15 0)
(1.45839 -1.27537e-14 0)
(1.43636 -4.86477e-14 0)
(1.47069 -5.7123e-14 0)
(1.48393 -5.22435e-14 0)
(1.50586 -3.82586e-14 0)
(1.53314 -2.53722e-14 0)
(1.55631 -3.92436e-14 0)
(1.57943 -3.93835e-14 0)
(1.61913 -4.71465e-14 0)
(1.6506 -2.9904e-14 0)
(1.64326 2.26867e-15 0)
(1.55878 5.19414e-14 0)
(1.34313 7.91144e-14 0)
(1.23388 -3.07594e-14 0)
(1.23043 -5.37826e-14 0)
(1.23554 -2.43973e-13 0)
(1.23593 -9.02093e-13 0)
(1.20316 -1.01494e-12 0)
(1.12961 -6.26883e-13 0)
(1.04522 3.31257e-13 0)
(0.97197 7.29014e-13 0)
(0.906295 3.73858e-13 0)
(0.846088 5.26603e-15 0)
(0.772831 2.76366e-13 0)
(0.645509 6.17879e-13 0)
(0.414347 3.5086e-13 0)
(0.200646 -4.98874e-13 0)
(0.0304723 -1.32941e-12 0)
(-0.177901 -1.21031e-12 0)
(-0.262271 -4.27821e-13 0)
(-0.296298 2.49113e-13 0)
(-0.317698 7.60158e-13 0)
(-0.335177 5.53486e-13 0)
(-0.348669 3.84742e-13 0)
(-0.358897 3.96908e-13 0)
(-0.369496 -1.21176e-14 0)
(-0.380799 -3.67943e-13 0)
(-0.388398 -1.01901e-13 0)
(-0.39471 3.89599e-14 0)
(1.47895 0.0125414 0)
(1.45834 -0.0368601 0)
(1.45695 -0.0392527 0)
(1.48194 -0.0122309 0)
(1.49831 0.00630731 0)
(1.51647 0.0206605 0)
(1.53972 0.0257417 0)
(1.56175 0.0262841 0)
(1.58347 0.0196889 0)
(1.6219 0.0224903 0)
(1.6539 0.0192174 0)
(1.6452 0.0145762 0)
(1.5637 0.0134662 0)
(1.34901 0.0109364 0)
(1.23438 0.00812956 0)
(1.2297 0.00527628 0)
(1.23297 0.00411593 0)
(1.23168 0.00655198 0)
(1.20108 0.0163846 0)
(1.13151 0.0256531 0)
(1.04424 0.0255296 0)
(0.964466 0.0223286 0)
(0.898764 0.0188221 0)
(0.837496 0.0168431 0)
(0.7645 0.0169819 0)
(0.644107 0.0134267 0)
(0.416514 0.00709078 0)
(0.201252 0.00462804 0)
(0.03056 0.00466928 0)
(-0.177829 0.00474116 0)
(-0.262252 0.00471241 0)
(-0.296416 0.00461478 0)
(-0.317975 0.00463128 0)
(-0.335605 0.00474677 0)
(-0.349242 0.00500519 0)
(-0.359624 0.00550142 0)
(-0.370354 0.00617115 0)
(-0.381649 0.00619925 0)
(-0.389111 0.00571586 0)
(-0.395183 0.00468032 0)
(1.47313 0.0138735 0)
(1.49258 -0.0496342 0)
(1.50861 -0.0178464 0)
(1.52144 0.0110191 0)
(1.53398 0.0194147 0)
(1.54719 0.0187197 0)
(1.56329 0.0179436 0)
(1.58067 0.0164462 0)
(1.59862 0.00622524 0)
(1.63118 0.0099333 0)
(1.66257 0.00988387 0)
(1.64983 0.00445449 0)
(1.57558 0.00320259 0)
(1.3648 0.00464686 0)
(1.23753 0.00598392 0)
(1.22947 0.00326298 0)
(1.22764 0.007056 0)
(1.21502 0.0149261 0)
(1.17729 0.0300468 0)
(1.11437 0.0491083 0)
(1.03983 0.0527846 0)
(0.96842 0.0478143 0)
(0.899265 0.0425948 0)
(0.830675 0.0366554 0)
(0.756046 0.030339 0)
(0.637776 0.0235907 0)
(0.412156 0.0153802 0)
(0.200311 0.00963319 0)
(0.0303941 0.00935723 0)
(-0.178034 0.00947294 0)
(-0.262695 0.00944996 0)
(-0.297073 0.00925309 0)
(-0.318871 0.00926713 0)
(-0.336683 0.00946438 0)
(-0.350279 0.00995521 0)
(-0.360179 0.0109279 0)
(-0.369857 0.0122592 0)
(-0.380179 0.0122956 0)
(-0.387282 0.0113608 0)
(-0.393399 0.00930867 0)
(1.57232 -0.0829406 0)
(1.58412 -0.069268 0)
(1.5958 -0.0467883 0)
(1.59792 -0.0309584 0)
(1.60682 0.00737319 0)
(1.60942 0.0353936 0)
(1.61252 0.0577873 0)
(1.61542 0.073141 0)
(1.62218 0.0671752 0)
(1.64032 0.07803 0)
(1.66545 0.0768188 0)
(1.64882 0.0450257 0)
(1.588 0.0308074 0)
(1.37669 0.0271152 0)
(1.24799 0.0244972 0)
(1.22775 0.0199658 0)
(1.21629 0.0239774 0)
(1.2073 0.046871 0)
(1.1728 0.0782205 0)
(1.11136 0.0991635 0)
(1.04643 0.102219 0)
(0.981643 0.0933173 0)
(0.913867 0.0820108 0)
(0.84529 0.0717918 0)
(0.763059 0.0622849 0)
(0.632659 0.0493412 0)
(0.402161 0.0323822 0)
(0.198026 0.019948 0)
(0.0302211 0.0194487 0)
(-0.177791 0.0197021 0)
(-0.262613 0.0196741 0)
(-0.296876 0.0193477 0)
(-0.318567 0.0194536 0)
(-0.33633 0.0198341 0)
(-0.349833 0.0205945 0)
(-0.359325 0.0219856 0)
(-0.367902 0.0241078 0)
(-0.376732 0.0242686 0)
(-0.382973 0.0228893 0)
(-0.388895 0.0188813 0)
(1.65749 0.0291555 0)
(1.66137 0.0247154 0)
(1.66711 0.010382 0)
(1.67065 0.0199659 0)
(1.67018 0.0176223 0)
(1.66696 0.0169816 0)
(1.66384 0.0395033 0)
(1.65655 0.0466418 0)
(1.65218 0.04061 0)
(1.65939 0.0649242 0)
(1.6709 0.0745562 0)
(1.64868 0.0425585 0)
(1.59237 0.0188941 0)
(1.37254 0.0283682 0)
(1.25855 0.0341845 0)
(1.22375 0.0393896 0)
(1.20557 0.0499661 0)
(1.1903 0.0884317 0)
(1.15034 0.143005 0)
(1.08537 0.178131 0)
(1.01651 0.18455 0)
(0.951621 0.170252 0)
(0.886363 0.148765 0)
(0.820133 0.128016 0)
(0.741819 0.107748 0)
(0.610738 0.0839813 0)
(0.37902 0.0548213 0)
(0.19267 0.0351672 0)
(0.0300877 0.0347617 0)
(-0.176893 0.0352641 0)
(-0.262302 0.035248 0)
(-0.29642 0.0347435 0)
(-0.317815 0.0349513 0)
(-0.3353 0.0355408 0)
(-0.348561 0.0365973 0)
(-0.357784 0.0384913 0)
(-0.365762 0.0415102 0)
(-0.373786 0.042116 0)
(-0.379693 0.0409432 0)
(-0.38609 0.0345895 0)
(1.68246 0.101607 0)
(1.67675 0.106381 0)
(1.67435 0.104685 0)
(1.67403 0.114567 0)
(1.67458 0.109594 0)
(1.67332 0.102261 0)
(1.6682 0.120078 0)
(1.66394 0.113981 0)
(1.66155 0.105006 0)
(1.66069 0.13588 0)
(1.66176 0.130364 0)
(1.63579 0.0770015 0)
(1.56621 0.05294 0)
(1.34005 0.0742552 0)
(1.2507 0.0787961 0)
(1.21585 0.0794944 0)
(1.1943 0.0873346 0)
(1.16325 0.142299 0)
(1.10235 0.218985 0)
(1.02405 0.261462 0)
(0.958369 0.262219 0)
(0.903532 0.239825 0)
(0.849454 0.208874 0)
(0.791019 0.17757 0)
(0.713741 0.148079 0)
(0.576758 0.11386 0)
(0.345181 0.0733184 0)
(0.186023 0.0495974 0)
(0.0304778 0.0496545 0)
(-0.175109 0.0504216 0)
(-0.261222 0.0506192 0)
(-0.29508 0.0501142 0)
(-0.316098 0.050499 0)
(-0.333403 0.051326 0)
(-0.346726 0.0526845 0)
(-0.35614 0.0548622 0)
(-0.364104 0.0582615 0)
(-0.371895 0.0589073 0)
(-0.37733 0.0583738 0)
(-0.383804 0.0502312 0)
(1.65841 0.183185 0)
(1.66037 0.169066 0)
(1.65727 0.157778 0)
(1.65166 0.165666 0)
(1.64967 0.159753 0)
(1.64873 0.154675 0)
(1.64415 0.168668 0)
(1.64516 0.154994 0)
(1.6533 0.141238 0)
(1.64777 0.169471 0)
(1.61254 0.15771 0)
(1.58469 0.126063 0)
(1.48441 0.102513 0)
(1.30063 0.0982071 0)
(1.2398 0.103568 0)
(1.19982 0.108751 0)
(1.15733 0.13158 0)
(1.1004 0.215685 0)
(1.02273 0.305214 0)
(0.948416 0.337488 0)
(0.896408 0.326112 0)
(0.852933 0.295829 0)
(0.808227 0.258157 0)
(0.755518 0.220297 0)
(0.67765 0.182795 0)
(0.531451 0.137359 0)
(0.304947 0.0875764 0)
(0.179369 0.0638343 0)
(0.0309602 0.0646479 0)
(-0.173919 0.0659662 0)
(-0.261419 0.0667405 0)
(-0.295444 0.0665499 0)
(-0.316358 0.0671645 0)
(-0.333635 0.068167 0)
(-0.347011 0.0697258 0)
(-0.356487 0.0718678 0)
(-0.364319 0.0752874 0)
(-0.372056 0.0753711 0)
(-0.376869 0.0755543 0)
(-0.383066 0.0662774 0)
(1.60652 0.228461 0)
(1.60952 0.221676 0)
(1.61181 0.217245 0)
(1.61173 0.225091 0)
(1.61451 0.219412 0)
(1.61574 0.218545 0)
(1.6151 0.224639 0)
(1.62478 0.20914 0)
(1.6401 0.218322 0)
(1.59834 0.207775 0)
(1.57569 0.174881 0)
(1.53023 0.153244 0)
(1.41178 0.141223 0)
(1.2912 0.137961 0)
(1.23573 0.153398 0)
(1.17649 0.16251 0)
(1.11009 0.210138 0)
(1.0259 0.319297 0)
(0.935275 0.391415 0)
(0.873748 0.39965 0)
(0.835478 0.376308 0)
(0.802045 0.339489 0)
(0.764631 0.296749 0)
(0.71495 0.254217 0)
(0.633223 0.209812 0)
(0.474948 0.153737 0)
(0.263822 0.0994478 0)
(0.174156 0.0792235 0)
(0.0334439 0.0806276 0)
(-0.170256 0.0825665 0)
(-0.258612 0.083512 0)
(-0.292359 0.0835187 0)
(-0.312845 0.0844361 0)
(-0.329853 0.0856035 0)
(-0.343095 0.0874807 0)
(-0.352399 0.0891554 0)
(-0.359891 0.0921844 0)
(-0.367767 0.0911477 0)
(-0.37233 0.0917307 0)
(-0.378432 0.0817688 0)
(1.5517 0.274839 0)
(1.55301 0.26892 0)
(1.55461 0.26748 0)
(1.55663 0.270747 0)
(1.56109 0.267168 0)
(1.56353 0.274737 0)
(1.56605 0.273252 0)
(1.58201 0.259434 0)
(1.59043 0.260097 0)
(1.55446 0.245912 0)
(1.51 0.201427 0)
(1.46364 0.183846 0)
(1.35256 0.175859 0)
(1.26107 0.183389 0)
(1.19941 0.206578 0)
(1.12197 0.227996 0)
(1.02822 0.321952 0)
(0.925341 0.431984 0)
(0.846897 0.465612 0)
(0.805972 0.451461 0)
(0.779223 0.417747 0)
(0.752821 0.374414 0)
(0.719497 0.328474 0)
(0.669899 0.281883 0)
(0.580152 0.229781 0)
(0.409183 0.164233 0)
(0.227494 0.109763 0)
(0.169336 0.0946186 0)
(0.0348313 0.0970374 0)
(-0.169245 0.0988589 0)
(-0.259041 0.0995827 0)
(-0.292749 0.0993137 0)
(-0.312892 0.100619 0)
(-0.329811 0.102674 0)
(-0.343266 0.105482 0)
(-0.352919 0.106984 0)
(-0.360344 0.109874 0)
(-0.368362 0.107526 0)
(-0.372627 0.108301 0)
(-0.378569 0.0978701 0)
(1.49238 0.315546 0)
(1.49343 0.312068 0)
(1.49385 0.314499 0)
(1.495 0.315963 0)
(1.4979 0.314595 0)
(1.49978 0.318051 0)
(1.50405 0.310037 0)
(1.51543 0.301251 0)
(1.51243 0.293955 0)
(1.47517 0.276647 0)
(1.43325 0.241997 0)
(1.36471 0.215233 0)
(1.27614 0.221802 0)
(1.20302 0.247299 0)
(1.11833 0.26181 0)
(1.01678 0.335914 0)
(0.906575 0.465858 0)
(0.813373 0.525232 0)
(0.765723 0.519668 0)
(0.742885 0.489907 0)
(0.72583 0.449017 0)
(0.704951 0.401325 0)
(0.673333 0.350404 0)
(0.619694 0.300213 0)
(0.517145 0.239041 0)
(0.339807 0.159109 0)
(0.202065 0.116124 0)
(0.166995 0.107141 0)
(0.0366053 0.107382 0)
(-0.16909 0.104825 0)
(-0.259238 0.100812 0)
(-0.291573 0.0990025 0)
(-0.310155 0.102001 0)
(-0.325845 0.107524 0)
(-0.338188 0.114579 0)
(-0.347721 0.12001 0)
(-0.3557 0.126311 0)
(-0.364847 0.123115 0)
(-0.369074 0.124048 0)
(-0.375009 0.113433 0)
(1.42255 0.357428 0)
(1.4233 0.355207 0)
(1.42285 0.357332 0)
(1.42314 0.358445 0)
(1.42392 0.35936 0)
(1.42437 0.358474 0)
(1.42786 0.347779 0)
(1.42885 0.3395 0)
(1.41307 0.332926 0)
(1.38473 0.303609 0)
(1.33874 0.269968 0)
(1.26216 0.266284 0)
(1.17844 0.289095 0)
(1.08904 0.309732 0)
(0.983728 0.375743 0)
(0.867533 0.4991 0)
(0.766108 0.57448 0)
(0.711495 0.581876 0)
(0.692783 0.559691 0)
(0.684717 0.518206 0)
(0.674429 0.462642 0)
(0.652991 0.40473 0)
(0.615936 0.348472 0)
(0.555094 0.281153 0)
(0.438725 0.197479 0)
(0.271002 0.126958 0)
(0.1843 0.0885624 0)
(0.16411 0.0765309 0)
(0.0249483 0.0600662 0)
(-0.18037 0.0375082 0)
(-0.260163 0.0319792 0)
(-0.285104 0.0387305 0)
(-0.299186 0.0569185 0)
(-0.314416 0.0792213 0)
(-0.32869 0.100474 0)
(-0.340528 0.117295 0)
(-0.348545 0.132382 0)
(-0.36118 0.135921 0)
(-0.366932 0.139662 0)
(-0.373561 0.12924 0)
(1.33295 0.393297 0)
(1.33347 0.392302 0)
(1.33266 0.395665 0)
(1.33257 0.398122 0)
(1.33319 0.398637 0)
(1.33406 0.395103 0)
(1.33233 0.387142 0)
(1.32077 0.378776 0)
(1.29815 0.360192 0)
(1.26202 0.333495 0)
(1.2022 0.324114 0)
(1.12355 0.343815 0)
(1.03222 0.359912 0)
(0.92135 0.41415 0)
(0.796083 0.527486 0)
(0.694929 0.620399 0)
(0.642155 0.637669 0)
(0.632641 0.619241 0)
(0.631287 0.5718 0)
(0.624774 0.509544 0)
(0.602133 0.442783 0)
(0.569369 0.362724 0)
(0.528509 0.26842 0)
(0.453574 0.17024 0)
(0.325995 0.0602835 0)
(0.209643 -0.0364114 0)
(0.170144 -0.0677176 0)
(0.15096 -0.0848529 0)
(-0.0109308 -0.119233 0)
(-0.190617 -0.13037 0)
(-0.248684 -0.110911 0)
(-0.264371 -0.0816774 0)
(-0.269885 -0.0432541 0)
(-0.282844 -0.000823271 0)
(-0.296976 0.0422178 0)
(-0.313511 0.0828283 0)
(-0.327802 0.118731 0)
(-0.348554 0.138343 0)
(-0.358292 0.150987 0)
(-0.368957 0.144377 0)
(1.21537 0.42564 0)
(1.21486 0.42738 0)
(1.21491 0.430559 0)
(1.21828 0.430582 0)
(1.2221 0.426811 0)
(1.22174 0.418508 0)
(1.20925 0.412615 0)
(1.18394 0.407274 0)
(1.15204 0.395754 0)
(1.1059 0.386552 0)
(1.03951 0.403326 0)
(0.948911 0.438001 0)
(0.832935 0.47953 0)
(0.700135 0.560219 0)
(0.608917 0.65317 0)
(0.566411 0.684115 0)
(0.548932 0.6628 0)
(0.545361 0.605362 0)
(0.539565 0.514457 0)
(0.520558 0.408539 0)
(0.501696 0.295711 0)
(0.476755 0.188297 0)
(0.432056 0.0883427 0)
(0.352557 -0.0243402 0)
(0.241062 -0.138591 0)
(0.172526 -0.195453 0)
(0.159911 -0.209145 0)
(0.135219 -0.221727 0)
(-0.0222518 -0.235877 0)
(-0.171289 -0.22163 0)
(-0.221657 -0.188832 0)
(-0.234825 -0.149564 0)
(-0.233266 -0.107752 0)
(-0.24462 -0.0636577 0)
(-0.255281 -0.018313 0)
(-0.270643 0.0283847 0)
(-0.289803 0.0792499 0)
(-0.318132 0.124117 0)
(-0.340222 0.154559 0)
(-0.362461 0.160553 0)
(1.05956 0.453046 0)
(1.05963 0.455893 0)
(1.06449 0.459871 0)
(1.07214 0.464116 0)
(1.07491 0.472156 0)
(1.06677 0.481804 0)
(1.04778 0.488087 0)
(1.02422 0.481451 0)
(0.987986 0.465187 0)
(0.924898 0.45226 0)
(0.834059 0.463821 0)
(0.709901 0.510631 0)
(0.579463 0.612336 0)
(0.488889 0.70814 0)
(0.44481 0.707575 0)
(0.432807 0.643416 0)
(0.437774 0.545482 0)
(0.441112 0.429948 0)
(0.44317 0.318165 0)
(0.437107 0.218862 0)
(0.420943 0.133153 0)
(0.394927 0.0468877 0)
(0.348511 -0.0559038 0)
(0.258166 -0.158004 0)
(0.175511 -0.22802 0)
(0.153362 -0.254104 0)
(0.152815 -0.260999 0)
(0.127621 -0.268173 0)
(-0.0113791 -0.266451 0)
(-0.139041 -0.244816 0)
(-0.186462 -0.211995 0)
(-0.20145 -0.171303 0)
(-0.196072 -0.128863 0)
(-0.206002 -0.0852813 0)
(-0.213653 -0.041969 0)
(-0.223558 0.00172642 0)
(-0.240258 0.0504181 0)
(-0.27127 0.101008 0)
(-0.301955 0.148731 0)
(-0.338701 0.17305 0)
(0.851352 0.490437 0)
(0.864255 0.488467 0)
(0.876117 0.485966 0)
(0.885608 0.482119 0)
(0.890974 0.47512 0)
(0.885151 0.4703 0)
(0.867105 0.462739 0)
(0.827747 0.465918 0)
(0.757313 0.494487 0)
(0.660426 0.555889 0)
(0.540454 0.628233 0)
(0.419389 0.671245 0)
(0.324804 0.657632 0)
(0.302249 0.604704 0)
(0.315051 0.517141 0)
(0.337797 0.41977 0)
(0.359924 0.329286 0)
(0.367118 0.253277 0)
(0.363092 0.184734 0)
(0.362541 0.108395 0)
(0.35891 0.0219709 0)
(0.320883 -0.0575094 0)
(0.248657 -0.137898 0)
(0.172962 -0.221121 0)
(0.142713 -0.263009 0)
(0.143675 -0.276935 0)
(0.146566 -0.281585 0)
(0.125563 -0.285645 0)
(0.0101704 -0.275766 0)
(-0.101005 -0.247259 0)
(-0.145198 -0.215757 0)
(-0.162686 -0.178414 0)
(-0.156915 -0.137705 0)
(-0.166993 -0.0951041 0)
(-0.172798 -0.0500019 0)
(-0.181761 -0.00268881 0)
(-0.190923 0.0501603 0)
(-0.218483 0.102461 0)
(-0.246299 0.153305 0)
(-0.289842 0.175045 0)
(0.607839 0.478175 0)
(0.621833 0.465257 0)
(0.615175 0.457215 0)
(0.597252 0.452022 0)
(0.574859 0.447997 0)
(0.545271 0.444533 0)
(0.500292 0.446757 0)
(0.43501 0.45335 0)
(0.356663 0.472195 0)
(0.279498 0.496305 0)
(0.2214 0.498094 0)
(0.196092 0.46965 0)
(0.205404 0.434296 0)
(0.224909 0.382505 0)
(0.253494 0.33201 0)
(0.272713 0.285924 0)
(0.288658 0.22751 0)
(0.305633 0.158224 0)
(0.316298 0.0864106 0)
(0.302842 0.0242097 0)
(0.273205 -0.0372002 0)
(0.223292 -0.121267 0)
(0.159972 -0.213368 0)
(0.128027 -0.264032 0)
(0.12933 -0.283498 0)
(0.136437 -0.292781 0)
(0.141354 -0.296458 0)
(0.127766 -0.298772 0)
(0.0393615 -0.283069 0)
(-0.0602952 -0.248876 0)
(-0.104079 -0.211007 0)
(-0.12252 -0.173055 0)
(-0.115154 -0.131163 0)
(-0.125237 -0.0864296 0)
(-0.127135 -0.0386721 0)
(-0.137791 0.00902164 0)
(-0.138443 0.0628415 0)
(-0.164005 0.11766 0)
(-0.181981 0.16145 0)
(-0.220558 0.177384 0)
(0.300229 0.473588 0)
(0.290208 0.446789 0)
(0.268808 0.402657 0)
(0.240452 0.363888 0)
(0.21057 0.335657 0)
(0.18434 0.317132 0)
(0.166229 0.304396 0)
(0.151196 0.29769 0)
(0.140658 0.300463 0)
(0.135257 0.31115 0)
(0.13411 0.319717 0)
(0.141542 0.318706 0)
(0.163454 0.312874 0)
(0.17928 0.285578 0)
(0.20803 0.247701 0)
(0.230551 0.194171 0)
(0.244404 0.140902 0)
(0.248079 0.0851403 0)
(0.242641 0.0281547 0)
(0.223595 -0.037182 0)
(0.187831 -0.120918 0)
(0.139628 -0.20996 0)
(0.109599 -0.264705 0)
(0.110521 -0.289531 0)
(0.120406 -0.297814 0)
(0.130449 -0.30676 0)
(0.137606 -0.309629 0)
(0.131542 -0.311471 0)
(0.0695986 -0.295497 0)
(-0.0185212 -0.259752 0)
(-0.0630116 -0.221371 0)
(-0.0812931 -0.181682 0)
(-0.0712457 -0.138902 0)
(-0.080506 -0.0941407 0)
(-0.0772762 -0.0434688 0)
(-0.0887296 0.0126667 0)
(-0.0825732 0.0771384 0)
(-0.104329 0.139479 0)
(-0.112964 0.183453 0)
(-0.142604 0.1974 0)
(0.0105338 0.443639 0)
(0.0173043 0.404754 0)
(0.00538789 0.361314 0)
(-0.00116333 0.330248 0)
(-0.0037974 0.309758 0)
(0.000811657 0.297673 0)
(0.0142885 0.293557 0)
(0.0351509 0.287273 0)
(0.0596156 0.276712 0)
(0.0852038 0.269028 0)
(0.105517 0.263141 0)
(0.11918 0.254996 0)
(0.134866 0.243264 0)
(0.149552 0.210791 0)
(0.167259 0.169818 0)
(0.176845 0.125514 0)
(0.182612 0.0742221 0)
(0.180013 0.0171408 0)
(0.172096 -0.051021 0)
(0.148631 -0.131441 0)
(0.111497 -0.211577 0)
(0.0882634 -0.264421 0)
(0.0899321 -0.290712 0)
(0.10034 -0.30288 0)
(0.113803 -0.309686 0)
(0.125698 -0.318638 0)
(0.135315 -0.321176 0)
(0.135772 -0.322359 0)
(0.0976597 -0.308293 0)
(0.0241806 -0.271104 0)
(-0.0207578 -0.227609 0)
(-0.0386044 -0.186798 0)
(-0.0267499 -0.141442 0)
(-0.0314537 -0.0916987 0)
(-0.024269 -0.0381622 0)
(-0.0355754 0.0202254 0)
(-0.0232311 0.0838512 0)
(-0.0355561 0.14568 0)
(-0.0375847 0.18684 0)
(-0.0612361 0.200641 0)
(-0.16103 0.448532 0)
(-0.126669 0.41725 0)
(-0.1151 0.379876 0)
(-0.0961502 0.354606 0)
(-0.0792768 0.333952 0)
(-0.0598457 0.314211 0)
(-0.0349109 0.294459 0)
(-0.00082958 0.274202 0)
(0.0393924 0.254386 0)
(0.0775047 0.238131 0)
(0.0992899 0.218724 0)
(0.112994 0.196583 0)
(0.116739 0.170778 0)
(0.115689 0.140716 0)
(0.119257 0.100758 0)
(0.122988 0.0505753 0)
(0.125501 -0.00740808 0)
(0.119437 -0.0727015 0)
(0.100529 -0.145828 0)
(0.0744537 -0.217619 0)
(0.0607793 -0.264975 0)
(0.0662904 -0.288369 0)
(0.078736 -0.302236 0)
(0.092576 -0.312775 0)
(0.107388 -0.318813 0)
(0.120381 -0.327701 0)
(0.132204 -0.330258 0)
(0.138615 -0.33091 0)
(0.121074 -0.32029 0)
(0.0672504 -0.287302 0)
(0.0225685 -0.239786 0)
(0.00611388 -0.194917 0)
(0.0173932 -0.149771 0)
(0.0231517 -0.10116 0)
(0.0319107 -0.047074 0)
(0.0241758 0.0139801 0)
(0.0377242 0.0836853 0)
(0.0340349 0.156958 0)
(0.035936 0.208167 0)
(0.0158743 0.225279 0)
(-0.216983 0.457156 0)
(-0.179617 0.423179 0)
(-0.163949 0.389242 0)
(-0.138233 0.367541 0)
(-0.114515 0.341675 0)
(-0.0876056 0.314441 0)
(-0.0570899 0.286514 0)
(-0.0206822 0.258487 0)
(0.0208013 0.231722 0)
(0.0570551 0.206325 0)
(0.0725624 0.180788 0)
(0.0789996 0.154466 0)
(0.0735436 0.120712 0)
(0.0676861 0.075271 0)
(0.068308 0.0226716 0)
(0.0698393 -0.034378 0)
(0.0663149 -0.097113 0)
(0.0518185 -0.165548 0)
(0.0334228 -0.228056 0)
(0.027607 -0.266434 0)
(0.0368628 -0.287576 0)
(0.0532624 -0.301738 0)
(0.0706959 -0.312076 0)
(0.0865478 -0.322089 0)
(0.102191 -0.327439 0)
(0.1164 -0.335762 0)
(0.13064 -0.33801 0)
(0.142663 -0.338533 0)
(0.139409 -0.330642 0)
(0.108894 -0.30402 0)
(0.0701487 -0.258106 0)
(0.0548698 -0.209415 0)
(0.0667425 -0.156312 0)
(0.0847083 -0.100202 0)
(0.0925795 -0.0389205 0)
(0.0936247 0.0246737 0)
(0.101754 0.0909764 0)
(0.107247 0.159953 0)
(0.111 0.213499 0)
(0.0855387 0.230102 0)
(-0.214507 0.466843 0)
(-0.193569 0.448177 0)
(-0.187916 0.420759 0)
(-0.167024 0.396351 0)
(-0.143588 0.368694 0)
(-0.11612 0.338433 0)
(-0.0858802 0.308372 0)
(-0.0518863 0.276092 0)
(-0.0132115 0.243106 0)
(0.0175282 0.203674 0)
(0.0338222 0.158677 0)
(0.0403324 0.108903 0)
(0.032743 0.0522938 0)
(0.0240005 -0.00887973 0)
(0.0222688 -0.0690889 0)
(0.0183388 -0.128921 0)
(0.00822413 -0.188098 0)
(-0.00339248 -0.237515 0)
(-0.00361987 -0.268462 0)
(0.00723247 -0.289727 0)
(0.0246555 -0.304052 0)
(0.0443086 -0.314328 0)
(0.0635576 -0.323649 0)
(0.0804912 -0.332631 0)
(0.0963133 -0.33683 0)
(0.110336 -0.344034 0)
(0.124878 -0.346062 0)
(0.138864 -0.348533 0)
(0.145503 -0.344266 0)
(0.139023 -0.326577 0)
(0.117334 -0.287805 0)
(0.105146 -0.234877 0)
(0.118342 -0.18081 0)
(0.142193 -0.123104 0)
(0.150556 -0.0539258 0)
(0.16425 0.0174624 0)
(0.167266 0.0935636 0)
(0.181287 0.17111 0)
(0.187279 0.239746 0)
(0.138984 0.271441 0)
(-0.23755 0.482508 0)
(-0.228472 0.47842 0)
(-0.223366 0.443533 0)
(-0.19397 0.420414 0)
(-0.174402 0.388479 0)
(-0.149351 0.361927 0)
(-0.121955 0.33325 0)
(-0.091469 0.298964 0)
(-0.0573397 0.259787 0)
(-0.0363656 0.210211 0)
(-0.0291549 0.144195 0)
(-0.0315826 0.0683376 0)
(-0.0408588 -0.0106903 0)
(-0.0439926 -0.0833437 0)
(-0.0400293 -0.146075 0)
(-0.0367341 -0.200735 0)
(-0.0340938 -0.2438 0)
(-0.0275843 -0.271633 0)
(-0.015413 -0.291484 0)
(0.00125174 -0.30418 0)
(0.0198882 -0.315556 0)
(0.0397563 -0.326001 0)
(0.0587144 -0.334499 0)
(0.0759681 -0.341699 0)
(0.0924838 -0.3443 0)
(0.107642 -0.350084 0)
(0.123158 -0.351356 0)
(0.138148 -0.353912 0)
(0.151653 -0.350749 0)
(0.158953 -0.342492 0)
(0.156681 -0.314214 0)
(0.155418 -0.264345 0)
(0.163223 -0.202508 0)
(0.18303 -0.133946 0)
(0.18918 -0.0575523 0)
(0.211785 0.0178694 0)
(0.216406 0.0950684 0)
(0.245525 0.172946 0)
(0.269283 0.258628 0)
(0.222424 0.310808 0)
(-0.36942 0.557928 0)
(-0.298789 0.456068 0)
(-0.249193 0.422418 0)
(-0.212896 0.420926 0)
(-0.193777 0.424592 0)
(-0.169077 0.415111 0)
(-0.139701 0.403566 0)
(-0.108782 0.374036 0)
(-0.0853317 0.316166 0)
(-0.0696782 0.222493 0)
(-0.0664476 0.110622 0)
(-0.0751973 -0.00361064 0)
(-0.0771723 -0.0985152 0)
(-0.0726372 -0.169249 0)
(-0.0656601 -0.22251 0)
(-0.0569709 -0.259765 0)
(-0.0433691 -0.283207 0)
(-0.0275651 -0.298205 0)
(-0.0110934 -0.307385 0)
(0.0054144 -0.316282 0)
(0.0209539 -0.327182 0)
(0.0361869 -0.33739 0)
(0.0513619 -0.344838 0)
(0.066098 -0.350457 0)
(0.0813013 -0.351833 0)
(0.0960908 -0.356498 0)
(0.1116 -0.357156 0)
(0.12703 -0.35927 0)
(0.142487 -0.358479 0)
(0.158086 -0.357141 0)
(0.173456 -0.343613 0)
(0.179834 -0.306384 0)
(0.179729 -0.242962 0)
(0.196799 -0.164581 0)
(0.201351 -0.0812916 0)
(0.228001 -0.00157416 0)
(0.231044 0.0709519 0)
(0.27362 0.125481 0)
(0.316171 0.212628 0)
(0.270739 0.263769 0)
(-0.36942 -0.557928 0)
(-0.298789 -0.456068 0)
(-0.249193 -0.422418 0)
(-0.212896 -0.420926 0)
(-0.193777 -0.424592 0)
(-0.169077 -0.415111 0)
(-0.139701 -0.403566 0)
(-0.108782 -0.374036 0)
(-0.0853317 -0.316166 0)
(-0.0696782 -0.222493 0)
(-0.0664476 -0.110622 0)
(-0.0751973 0.00361064 0)
(-0.0771723 0.0985152 0)
(-0.0726372 0.169249 0)
(-0.0656601 0.22251 0)
(-0.0569709 0.259765 0)
(-0.0433691 0.283207 0)
(-0.0275651 0.298205 0)
(-0.0110934 0.307385 0)
(0.0054144 0.316282 0)
(0.0209539 0.327182 0)
(0.0361869 0.33739 0)
(0.0513619 0.344838 0)
(0.066098 0.350457 0)
(0.0813013 0.351833 0)
(0.0960908 0.356498 0)
(0.1116 0.357156 0)
(0.12703 0.35927 0)
(0.142487 0.358479 0)
(0.158086 0.357141 0)
(0.173456 0.343613 0)
(0.179834 0.306384 0)
(0.179729 0.242962 0)
(0.196799 0.164581 0)
(0.201351 0.0812916 0)
(0.228001 0.00157416 0)
(0.231044 -0.0709519 0)
(0.27362 -0.125481 0)
(0.316171 -0.212628 0)
(0.270739 -0.263769 0)
(-0.23755 -0.482508 0)
(-0.228472 -0.47842 0)
(-0.223366 -0.443533 0)
(-0.19397 -0.420414 0)
(-0.174402 -0.388479 0)
(-0.149351 -0.361927 0)
(-0.121955 -0.33325 0)
(-0.091469 -0.298964 0)
(-0.0573397 -0.259787 0)
(-0.0363656 -0.210211 0)
(-0.0291549 -0.144195 0)
(-0.0315826 -0.0683376 0)
(-0.0408588 0.0106903 0)
(-0.0439926 0.0833437 0)
(-0.0400293 0.146075 0)
(-0.0367341 0.200735 0)
(-0.0340938 0.2438 0)
(-0.0275843 0.271633 0)
(-0.015413 0.291484 0)
(0.00125174 0.30418 0)
(0.0198882 0.315556 0)
(0.0397563 0.326001 0)
(0.0587144 0.334499 0)
(0.0759681 0.341699 0)
(0.0924838 0.3443 0)
(0.107642 0.350084 0)
(0.123158 0.351356 0)
(0.138148 0.353912 0)
(0.151653 0.350749 0)
(0.158953 0.342492 0)
(0.156681 0.314214 0)
(0.155418 0.264345 0)
(0.163223 0.202508 0)
(0.18303 0.133946 0)
(0.18918 0.0575523 0)
(0.211785 -0.0178694 0)
(0.216406 -0.0950684 0)
(0.245525 -0.172946 0)
(0.269283 -0.258628 0)
(0.222424 -0.310808 0)
(-0.214507 -0.466843 0)
(-0.193569 -0.448177 0)
(-0.187916 -0.420759 0)
(-0.167024 -0.396351 0)
(-0.143588 -0.368694 0)
(-0.11612 -0.338433 0)
(-0.0858802 -0.308372 0)
(-0.0518863 -0.276092 0)
(-0.0132115 -0.243106 0)
(0.0175282 -0.203674 0)
(0.0338222 -0.158677 0)
(0.0403324 -0.108903 0)
(0.032743 -0.0522938 0)
(0.0240005 0.00887973 0)
(0.0222688 0.0690889 0)
(0.0183388 0.128921 0)
(0.00822413 0.188098 0)
(-0.00339248 0.237515 0)
(-0.00361987 0.268462 0)
(0.00723247 0.289727 0)
(0.0246555 0.304052 0)
(0.0443086 0.314328 0)
(0.0635576 0.323649 0)
(0.0804912 0.332631 0)
(0.0963133 0.33683 0)
(0.110336 0.344034 0)
(0.124878 0.346062 0)
(0.138864 0.348533 0)
(0.145503 0.344266 0)
(0.139023 0.326577 0)
(0.117334 0.287805 0)
(0.105146 0.234877 0)
(0.118342 0.18081 0)
(0.142193 0.123104 0)
(0.150556 0.0539258 0)
(0.16425 -0.0174624 0)
(0.167266 -0.0935636 0)
(0.181287 -0.17111 0)
(0.187279 -0.239746 0)
(0.138984 -0.271441 0)
(-0.216983 -0.457156 0)
(-0.179617 -0.423179 0)
(-0.163949 -0.389242 0)
(-0.138233 -0.367541 0)
(-0.114515 -0.341675 0)
(-0.0876056 -0.314441 0)
(-0.0570899 -0.286514 0)
(-0.0206822 -0.258487 0)
(0.0208013 -0.231722 0)
(0.0570551 -0.206325 0)
(0.0725624 -0.180788 0)
(0.0789996 -0.154466 0)
(0.0735436 -0.120712 0)
(0.0676861 -0.075271 0)
(0.068308 -0.0226716 0)
(0.0698393 0.034378 0)
(0.0663149 0.097113 0)
(0.0518185 0.165548 0)
(0.0334228 0.228056 0)
(0.027607 0.266434 0)
(0.0368628 0.287576 0)
(0.0532624 0.301738 0)
(0.0706959 0.312076 0)
(0.0865478 0.322089 0)
(0.102191 0.327439 0)
(0.1164 0.335762 0)
(0.13064 0.33801 0)
(0.142663 0.338533 0)
(0.139409 0.330642 0)
(0.108894 0.30402 0)
(0.0701487 0.258106 0)
(0.0548698 0.209415 0)
(0.0667425 0.156312 0)
(0.0847083 0.100202 0)
(0.0925795 0.0389205 0)
(0.0936247 -0.0246737 0)
(0.101754 -0.0909764 0)
(0.107247 -0.159953 0)
(0.111 -0.213499 0)
(0.0855387 -0.230102 0)
(-0.16103 -0.448532 0)
(-0.126669 -0.41725 0)
(-0.1151 -0.379876 0)
(-0.0961502 -0.354606 0)
(-0.0792768 -0.333952 0)
(-0.0598457 -0.314211 0)
(-0.0349109 -0.294459 0)