/*--------------------------------*- C++ -*----------------------------------*\
| =========                 |                                                 |
| \\      /  F ield         | OpenFOAM: The Open Source CFD Toolbox           |
|  \\    /   O peration     | Version:  v1912                                 |
|   \\  /    A nd           | Website:  www.openfoam.com                      |
|    \\/     M anipulation  |                                                 |
\*---------------------------------------------------------------------------*/
FoamFile
{
    version     2.0;
    format      ascii;
    class       Cloud<dsmcParcel>;
    location    "0.00029/lagrangian/dsmc";
    object      coordinates;
}
// * * * * * * * * * * * * * * * * * * * * * * * * * * * * * * * * * * * * * //

12943
(
(0.8833046361 0.02287486344 0.03547281853 0.05834768197) 1238 2371 2
(0.7451405983 0.1274297008 0.07228410696 0.05514559389) 1197 2348 2
(0.4128287339 0.1498641977 0.2935856331 0.1437214354) 1205 2362 1
(0.3819507396 0.009833553659 0.2991910765 0.3090246302) 1113 2183 1
(0.5401241783 0.2299379108 0.08865327205 0.1412846388) 858 1701 2
(0.5829595991 0.08783869714 0.2085202005 0.1206815033) 252 525 2
(0.6072203424 0.01547312837 0.1809167004 0.1963898288) 258 475 2
(0.6108960704 0.1945519648 0.02781589566 0.1667360691) 1174 2301 2
(0.07668291915 0.4616585404 0.03280320691 0.4288553335) 823 1635 1
(0.3267625764 0.3349770467 0.001641665096 0.3366187118) 1295 2516 1
(0.6893446542 0.0695912089 0.085736464 0.1553276729) 1225 2403 1
(0.1700507099 0.2076809949 0.2072936502 0.414974645) 313 587 2
(0.691335787 0.1359799314 0.1543321065 0.01835217514) 1238 2427 1
(0.4889729612 0.08002695875 0.1754865606 0.2555135194) 1077 2112 1
(0.6633109154 0.1683445423 0.03412803627 0.134216506) 1140 2236 2
(0.5206616474 0.2396691763 0.1734017465 0.06626742975) 1105 2109 1
(0.3463650793 0.04092599962 0.2858914607 0.3268174603) 218 446 1
(0.365782373 0.05012638952 0.3171088135 0.266982424) 810 539 1
(0.2829213244 0.3585393378 0.02003688827 0.3385024495) 1085 2126 2
(0.06611018218 0.4669449089 0.1457603029 0.321184606) 810 1591 1
(0.4838113411 0.2580943295 0.2449508293 0.01314350015) 872 1725 2
(0.2865085085 0.3567457458 0.07340240897 0.2833433368) 1262 2418 1
(0.6626398095 0.1686800952 0.1125448587 0.05613523652) 1295 467 2
(0.1095161136 0.05675894796 0.3884829952 0.4452419432) 1053 2065 1
(0.5619161936 0.1889418739 0.2190419032 0.03010002933) 319 658 2
(0.310007932 0.06241260817 0.344996034 0.2825834258) 1171 2295 1
(0.786186774 0.09100203471 0.106906613 0.0159045783) 1200 2352 1
(0.5798588817 0.152957333 0.05711322615 0.2100705591) 1266 2426 2
(0.3456632783 0.3271683609 0.1277148379 0.199453523) 528 1076 2
(0.6255723274 0.1872138363 0.08012128615 0.1070925502) 1166 2229 1
(0.5570591927 0.2214704036 0.1347380655 0.08673233809) 851 1669 1
(0.237684403 0.3290774655 0.3811577985 0.05208033303) 1170 2293 1
(0.2692530699 0.1183959483 0.3653734651 0.2469775167) 843 1673 2
(0.2304234814 0.3847882593 0.05068439422 0.3341038651) 831 1631 1
(0.295652099 0.3521739505 0.2822353692 0.06993858133) 1176 2305 2
(0.6329837707 0.1835081146 0.0442903886 0.139217726) 822 1630 2
(0.5031220669 0.01123543595 0.2372035306 0.2484389666) 1206 2308 2
(0.3846065741 0.307696713 0.007771814832 0.2999248981) 1052 2063 2
(0.1348876593 0.1533110676 0.4325561703 0.2792451028) 849 1684 2
(0.1434886968 0.04114906195 0.4282556516 0.3871065897) 1268 2486 1
(0.1844739587 0.4077630207 0.3746335582 0.03312946245) 1202 2300 1
(0.829058379 0.08547081048 0.02670580007 0.05876501041) 832 1633 1
(0.2332400995 0.2094125514 0.1739673989 0.3833799502) 309 638 1
(0.09273622626 0.009665537834 0.443966349 0.4536318869) 811 1611 1
(0.4907611062 0.2546194469 0.1513714396 0.1032480074) 1136 2226 2
(0.08361121268 0.3539612403 0.4581943937 0.1042331533) 276 573 2
(0.3914038783 0.3042980608 0.1613936831 0.1429043778) 319 659 2
(0.3204379728 0.3233112993 0.01646971434 0.3397810136) 1118 2193 1
(0.2347859082 0.3826070459 0.2832560877 0.09935095824) 843 1672 2
(0.6720966875 0.03843674924 0.125514907 0.1639516562) 1209 2666 1
(0.5049254268 0.2475372866 0.07095854867 0.1765787379) 1234 2363 1
(0.1944559876 0.4027720062 0.0767371937 0.3260348125) 1171 2297 2
(0.3355143792 0.29173672 0.04050609038 0.3322428104) 226 468 1
(0.2352449935 0.08174765798 0.3006298452 0.3823775032) 832 1633 2
(0.7336246021 0.01345263442 0.1331876989 0.1197350645) 829 1644 1
(0.1880942448 0.4059528776 0.3395919009 0.06636097665) 1281 2502 2
(0.3892711993 0.2240967703 0.3053644004 0.08126763005) 1206 2364 1
(0.31196083 0.344019585 0.1678985041 0.1761210809) 1047 1995 1
(0.5766707519 0.211664624 0.1814811142 0.03018350988) 833 1651 2
(0.7254628528 0.1372685736 0.08706912983 0.05019944376) 1113 2125 1
(0.04205273241 0.4789736338 0.1640256958 0.314947938) 1236 2367 1
(0.6794972628 0.00737800332 0.1528733653 0.1602513686) 1128 2212 1
(0.1927772053 0.4036113974 0.2105846547 0.1930267427) 853 1692 1
(0.2427022384 0.2336540212 0.1449948595 0.3786488808) 1173 2243 2
(0.5893046167 0.1584435465 0.2053476917 0.04690414512) 228 475 2
(0.193328581 0.4033357095 0.3949745116 0.008361197896) 1199 2294 1
(0.1615030313 0.4192484844 0.07158993855 0.3476585458) 1110 2178 1
(0.1599427766 0.4200286117 0.243967433 0.1760611787) 1118 2191 2
(0.5269444842 0.2365277579 0.2198988832 0.0166288747) 1192 2338 2
(0.371871552 0.06090858845 0.2531556355 0.314064224) 1176 2307 1
(0.002454166592 0.2533671999 0.2454057169 0.4987729167) 1098 2095 2
(0.503858738 0.248070631 0.2008833058 0.04718732525) 289 596 2
(0.3549149559 0.322542522 0.04289330012 0.2796492219) 1106 2170 1
(0.643275225 0.1783623875 0.0426588276 0.1357035599) 825 1638 2
(0.1207372104 0.3824218922 0.4396313948 0.05720950266) 1267 2484 1
(0.6864507746 0.1567746127 0.06952354164 0.08725107105) 1293 461 2
(0.7617796254 0.02047419378 0.1191101873 0.09863599354) 1179 2311 1
(0.01716411235 0.4761756763 0.01524226751 0.4914179438) 1084 2068 2
(0.8955428941 0.05222855294 0.03713875399 0.01508979895) 257 535 1
(0.5043131903 0.2478434049 0.0659811996 0.1818622053) 849 1665 1
(0.6685690309 0.09885805423 0.1657154845 0.06685743032) 1106 2167 1
(0.004302053017 0.4978489735 0.3784165772 0.1194323963) 249 518 2
(0.1842275151 0.3541569385 0.4078862425 0.05372930394) 1299 2519 1
(0.1120090593 0.4439954703 0.4316547848 0.01234068557) 1201 2356 2
(0.1061350681 0.10140503 0.345527436 0.446932466) 1294 2515 1
(0.7185212265 0.1407393868 0.05774162018 0.08299776658) 379 776 2
(0.3936963368 0.3031518316 0.2383159764 0.06483585522) 1026 2010 2
(0.3422357946 0.1140015354 0.2148805673 0.3288821027) 1055 2069 1
(0.6967572182 0.1516213909 0.1452135967 0.006407794215) 1233 2419 2
(0.5914616474 0.2042691763 0.1122527594 0.09201641692) 225 465 2
(0.008963457929 0.495518271 0.1601690011 0.3353492699) 860 1686 1
(0.2373361754 0.3813319123 0.245995767 0.1353361453) 1177 2251 1
(0.04084712647 0.4235157753 0.05606066142 0.4795764368) 1105 2167 1
(0.2503345948 0.3748327026 0.3713418532 0.003490849432) 1074 2107 1
(0.2389979917 0.3805010041 0.1801839677 0.2003170364) 1170 2293 2
(0.2354026286 0.3822986857 0.06604288877 0.3162557969) 1097 2152 1
(0.3191996467 0.05255333638 0.2878468403 0.3404001766) 1294 2481 2
(0.35705947 0.1458709179 0.1755993471 0.321470265) 1266 2426 2
(0.2461468344 0.3769265828 0.2671774387 0.1097491441) 1117 2191 2
(0.09466483686 0.4526675816 0.3217232682 0.1309443133) 1138 2174 1
(0.3624598184 0.2562846892 0.3187700908 0.06248540156) 254 526 1
(0.5434215282 0.09695623902 0.1313329969 0.2282892359) 1177 2251 2
(0.3843174389 0.3078412805 0.2529916116 0.05484966894) 279 578 2
(0.3997187627 0.3001406186 0.1404305687 0.15971005) 1136 2228 2
(0.6191818899 0.190409055 0.1648772354 0.02553181967) 257 472 1
(0.6398179989 0.1800910005 0.1723116156 0.007779384904) 1229 2412 1
(0.2171432555 0.3914283723 0.34263516 0.04879321229) 1045 2049 2
(0.3639970318 0.3180014841 0.01177429852 0.3062271856) 853 1691 2
(0.3180591102 0.02967145991 0.3409704449 0.311298985) 820 599 1
(0.6964610827 0.1112381478 0.04053131086 0.1517694586) 1012 1984 1
(0.2864417775 0.3392785456 0.01750056565 0.3567791112) 1286 2465 2
(0.2859558366 0.3503089478 0.006713133909 0.3570220817) 1290 2473 2
(0.02601653258 0.4869917337 0.3200079826 0.1669837512) 871 1723 2
(0.03953253766 0.2886328355 0.1916008957 0.4802337312) 834 1655 1
(0.9175068379 0.01809142292 0.04124658103 0.02315515811) 1047 2054 2
(0.02832545931 0.1607213204 0.4858372703 0.3251159499) 822 1630 1
(0.7257672618 0.1371163691 0.1034686179 0.03364775121) 406 830 2
(0.5051070971 0.1413737453 0.1060727061 0.2474464514) 864 1712 1
(0.4598290519 0.1012825078 0.270085474 0.1688029662) 315 648 1
(0.380066393 0.01445337556 0.295513428 0.3099668035) 229 478 1
(0.0192693451 0.4903653274 0.1910245157 0.2993408118) 843 1672 2
(0.269996895 0.3650015525 0.1269217143 0.2380798382) 1080 2060 1
(0.09410792935 0.1543546609 0.2985913744 0.4529460353) 1145 2188 2
(0.3410600054 0.1618126697 0.1676573276 0.3294699973) 1078 2114 1
(0.2609189779 0.05213163926 0.3695405111 0.3174088718) 1105 2168 2
(0.06614469047 0.4669276548 0.3725500721 0.09437758264) 1229 2411 2
(0.3880307769 0.3059846115 0.05551985649 0.2504647551) 257 535 1
(0.6933885331 0.1533057335 0.02034856036 0.1329571731) 1114 2183 2
(0.4898973606 0.2550513197 0.2480299724 0.007021347324) 1238 2429 2
(0.1860901617 0.4069549191 0.008849120173 0.398105799) 1200 2296 1
(0.2047312975 0.3976343512 0.1527924125 0.2448419388) 831 1650 1
(0.1222222095 0.4388888953 0.1617508381 0.2771380572) 1140 2234 2
(0.1135224566 0.4432387717 0.1496810786 0.2935576931) 1199 2352 2
(0.363245194 0.318377403 0.09275804673 0.2256193563) 405 771 1
(0.3326161083 0.04481173563 0.2888802102 0.3336919458) 1292 2477 2
(0.003370878523 0.3707659423 0.1275486184 0.4983145607) 1262 2476 1
(0.2194293395 0.01103153528 0.379253795 0.3902853303) 803 1596 1
(0.113588722 0.272114886 0.1710907529 0.443205639) 1267 2486 1
(0.2900654958 0.3042611559 0.05070609624 0.3549672521) 1066 2032 2
(0.1622130944 0.4188934528 0.05525253927 0.3636409135) 1204 2360 2
(0.7344905508 0.08372124979 0.1327547246 0.04903347479) 225 462 1
(0.5789348427 0.2105325786 0.1114785533 0.09905402539) 1168 2233 1
(0.7834256964 0.05528207328 0.1082871518 0.05300507852) 318 657 2
(0.155361031 0.2494188132 0.1729006713 0.4223194845) 1258 2468 1
(0.4485737807 0.03801104803 0.2757131096 0.2377020616) 1138 2233 2
(0.1306229834 0.2651531525 0.1695353558 0.4346885083) 1176 2249 2
(0.2259523062 0.3870238469 0.2185517152 0.1684721317) 258 536 2
(0.04018992237 0.1468274728 0.333077566 0.4799050388) 1200 2354 1
(0.738958516 0.1050564838 0.02546425825 0.130520742) 1286 2507 1
(0.1642674811 0.2322244218 0.1856418377 0.4178662595) 1164 2225 2
(0.4763444317 0.1758066685 0.2618277841 0.08602111566) 1011 1980 1
(0.02174072554 0.003291619704 0.4891296372 0.4858380175) 1231 2413 1
(0.6389900602 0.04169541409 0.1388095558 0.1805049699) 852 1671 2
(0.01215438696 0.4939228065 0.2996365552 0.1942862513) 802 1592 2
(0.6115636045 0.140527241 0.1942181978 0.05369095681) 1164 2281 1
(0.5019898634 0.2490050683 0.1899514828 0.05905358552) 1174 2301 2
(0.1767641098 0.3203058776 0.4116179451 0.0913120675) 1254 2458 1
(0.3990592332 0.3004703834 0.1105809962 0.1898893872) 874 1713 1
(0.2158857478 0.3920571261 0.3874765672 0.004580558888) 1254 2460 2
(0.02133033332 0.4893348333 0.09634990943 0.3929849239) 1111 2180 1
(0.283055259 0.3584723705 0.1699149329 0.1885574377) 831 1649 2
(0.7266989067 0.0802318137 0.1366505467 0.05641873295) 1029 2018 2
(0.5390864008 0.2304567996 0.07582882034 0.1546279793) 1172 2299 2
(0.08185242286 0.1587069984 0.4590737886 0.3003667902) 1238 2430 2
(0.3899844977 0.02827520942 0.3050077511 0.2767325417) 1148 2250 1
(0.07144773156 0.1656441256 0.4642761342 0.2986320086) 1207 2366 1
(0.01566521583 0.2101158185 0.2820515736 0.4921673921) 1025 2010 1
(0.1903275494 0.07006602024 0.4048362253 0.334770205) 1285 437 1
(0.5445398672 0.2277300664 0.0428933952 0.1848366712) 319 598 1
(0.2007579391 0.3996210304 0.3031633525 0.09645767789) 866 1717 1
(0.8550776701 0.007988926562 0.06447223837 0.07246116493) 1297 2487 2
(0.4861595102 0.2569202449 0.215632642 0.04128760294) 898 1777 2
(0.1417365956 0.2661800246 0.1629516776 0.4291317022) 1127 2210 1
(0.1163305357 0.07506384531 0.3667708869 0.4418347322) 1294 2481 2
(0.6080133887 0.1959933057 0.1794786813 0.01651462434) 1134 2224 2
(0.3551060241 0.3224469879 0.07290344818 0.2495435398) 348 717 1
(0.1700107477 0.4149946262 0.1410097988 0.2739848274) 804 1599 1
(0.1575994631 0.0001001467381 0.4212002685 0.4211001217) 1269 2488 1
(0.0008127798259 0.467245079 0.03234853107 0.4995936101) 257 534 1
(0.7387870752 0.1306064624 0.0318089229 0.09879753948) 1265 2424 1
(0.4217091806 0.1745400537 0.2891454097 0.114605356) 227 468 1
(0.6460206802 0.1769896599 0.09049283418 0.08649682571) 1081 2120 2
(0.1233555639 0.4383222181 0.3812565985 0.0570656196) 1230 2414 1
(0.6285703753 0.1857148123 0.08447837229 0.1012364401) 851 1687 2
(0.5944164321 0.202791784 0.002230269894 0.2005615141) 912 1785 1
(0.3417435264 0.3291282368 0.1593912053 0.1697370314) 1260 2473 1
(0.377558715 0.3112206425 0.08764394372 0.2235766988) 466 893 1
(0.2860785971 0.1123342032 0.3569607015 0.2446264983) 1147 2248 1
(0.3144608568 0.3405115396 0.00225803197 0.3427695716) 1071 2100 1
(0.07611214072 0.4619439296 0.1508303312 0.3111135984) 1291 2475 1
(0.1496763214 0.4251618393 0.3178635409 0.1072982983) 1258 2468 2
(0.1546878144 0.4226560928 0.1048681649 0.3177879279) 1294 464 2
(0.5589124852 0.2205437574 0.1333907018 0.08715305562) 1174 2245 1
(0.7061430598 0.1090757417 0.03785272844 0.1469284701) 1172 2241 2
(0.2542794356 0.1519231127 0.3728602822 0.2209371695) 285 591 2
(0.09909614002 0.3778725041 0.0725794259 0.45045193) 1057 2073 1
(0.3191182859 0.340440857 0.3251158186 0.01532503842) 406 832 2
(0.1797266264 0.3149191238 0.4101366868 0.09521756302) 1202 2359 2
(0.1009334749 0.4495332625 0.3435460696 0.105987193) 1292 2513 2
(0.1110424055 0.3882566216 0.4444787973 0.05622217561) 891 1764 2
(0.05543643207 0.472281784 0.3024579689 0.1698238151) 225 466 1
(0.777490839 0.007768494048 0.1112545805 0.1034860864) 463 944 1
(0.0729223585 0.4635388208 0.2584127706 0.2051260502) 1068 2094 2
(0.07525322045 0.4623733898 0.3793716933 0.08300169644) 317 595 1
(0.2043257022 0.3978371489 0.09713900586 0.3006981431) 256 533 1
(0.4748340774 0.0396199335 0.2625829613 0.2229630278) 1205 2365 2
(0.1362003956 0.4318998022 0.006321866848 0.4255779353) 834 1653 2
(0.3745492267 0.3127253866 0.2525807365 0.06014465015) 1128 2210 2
(0.7201849581 0.139907521 0.01090968429 0.1289978367) 1259 2468 2
(0.8369138214 0.06640602172 0.0151370676 0.08154308932) 377 715 2
(0.7849818566 0.09238137053 0.01512770116 0.1075090717) 1296 2485 2
(0.2414987735 0.3792506132 0.239029753 0.1402208602) 1112 2182 1
(0.6358916222 0.1820541889 0.04200477099 0.1400494179) 820 1610 1
(0.07507465027 0.205788341 0.4624626749 0.2566743339) 1297 2517 1
(0.7449825154 0.1275087423 0.1082804728 0.01922826953) 1112 2181 2
(0.3071021693 0.3196382423 0.02681067308 0.3464489153) 1173 2301 1
(0.5136039083 0.2431980459 0.1976663476 0.0455316983) 1223 2341 1
(0.8437715128 0.0781142436 0.06941381809 0.008700425513) 1295 2516 2
(0.0034286619 0.2072816567 0.4982856691 0.2910040123) 1231 2416 2
(0.102868664 0.448565668 0.1562071677 0.2923585003) 287 594 2
(0.3934181037 0.3032909482 0.2797676618 0.02352328633) 256 530 2
(0.04807397969 0.04261741811 0.4759630102 0.433345592) 1227 2408 2
(0.3814279362 0.06041876153 0.2488672704 0.3092860319) 840 1666 1
(0.4201825011 0.2899087495 0.05958865977 0.2303200897) 318 657 1
(0.6283511026 0.1858244487 0.1116276338 0.07419681495) 1231 2357 1
(0.700306141 0.1498469295 0.03205706346 0.117789866) 1266 2485 1
(0.5524079648 0.03190157673 0.2237960176 0.1918944408) 1198 2351 2
(0.5697812232 0.09083698773 0.2151093884 0.1242724007) 319 656 1
(0.2311919027 0.3844040487 0.2470571317 0.137346917) 1140 2236 2
(0.2408208688 0.242515683 0.3795895656 0.1370738826) 1085 2126 1
(0.5631929718 0.01909904567 0.2184035141 0.1993044684) 1268 2486 1
(0.4246879599 0.03145219599 0.28765602 0.256203824) 867 1716 1
(0.5264917023 0.02874581893 0.2080083299 0.2367541488) 825 1638 1
(0.08993406949 0.2566402941 0.1983926712 0.4550329653) 861 1688 2
(0.2365967606 0.3817016197 0.3316300276 0.05007159211) 348 714 2
(0.02422055527 0.4217045505 0.06618517184 0.4878897224) 1263 2478 1
(0.09328521179 0.3057590462 0.4533573941 0.1475983479) 845 1674 1
(0.198827211 0.1694555194 0.4005863945 0.2311308751) 1258 2466 1
(0.7576305976 0.1104381233 0.01074657794 0.1211847012) 850 1667 2
(0.3410671417 0.3294664291 0.1300332657 0.1994331635) 1165 2227 1
(0.210036545 0.3949817275 0.03557420077 0.3594075268) 843 1672 2
(0.331846061 0.3340769695 0.1227711405 0.211305829) 249 516 2
(0.09807870538 0.2893088777 0.1616517696 0.4509606473) 1268 2430 2
(0.4168623551 0.01142022608 0.2801485964 0.2915688225) 311 642 1
(0.5316725916 0.1701636081 0.2341637042 0.06400009612) 222 453 1
(0.6116133549 0.1550063629 0.1941933226 0.03918695971) 1108 2174 2
(0.82495938 0.04927501218 0.03824529781 0.08752030999) 1105 2167 1
(0.4816649065 0.2591675467 0.1775406549 0.08162689186) 1201 2354 2
(0.1346761075 0.2773429666 0.4326619462 0.1553189796) 287 592 1
(0.5900796914 0.02632082866 0.2049601543 0.1786393257) 1209 2370 1
(0.1539994554 0.1817317735 0.4230002723 0.2412684989) 1173 2302 2
(0.1897162678 0.1475970601 0.4051418661 0.2575448059) 865 1715 2
(0.5354362744 0.2322818628 0.02228219926 0.2099996635) 227 473 2
(0.2744999862 0.1180200666 0.3627500069 0.2447299403) 850 1686 2
(0.6627075116 0.03364381367 0.1686462442 0.1350024305) 1296 470 1
(0.5622508629 0.2188745686 0.02410528228 0.1947692863) 1231 2413 2
(0.2171337334 0.1825080329 0.3914331333 0.2089251004) 224 463 2
(0.3678990099 0.3160504951 0.2969994939 0.0190510012) 283 587 1
(0.1200113277 0.4399943361 0.1717148106 0.2682795255) 1229 2411 2
(0.2160465045 0.3175263351 0.0744504126 0.3919767477) 1166 2287 1
(0.4358450094 0.2820774953 0.00386683771 0.2782106576) 1197 2349 1
(0.2526799044 0.1193025984 0.3736600478 0.2543574494) 852 1687 1
(0.4211498404 0.2894250798 0.1811090004 0.1083160795) 1167 2231 1
(0.05456078268 0.4727196087 0.2394244979 0.2332951108) 1105 2168 1
(0.7136155699 0.1373071154 0.005885099603 0.143192215) 1287 2467 2
(0.242684316 0.305316289 0.07334155303 0.378657842) 1159 2215 2
(0.5463414343 0.1191087598 0.2268292829 0.1077205231) 1203 2361 2
(0.1103562288 0.2568043079 0.1880175777 0.4448218856) 1199 2294 2
(0.3992370913 0.3003814543 0.09514035951 0.2052410948) 1165 2283 2
(0.3074031321 0.3462984339 0.1607775886 0.1855208454) 1105 2165 2
(0.6688073129 0.01565770761 0.1499386359 0.1655963436) 1127 2210 1
(0.2568154126 0.3112547626 0.06033753116 0.3715922937) 343 647 2
(0.05449909121 0.3357549509 0.1369955035 0.4727504544) 1233 2419 1
(0.1997496454 0.02293502506 0.4001251773 0.3771901523) 1050 2057 1
(0.7788325315 0.0008824406139 0.1105837343 0.1097012936) 841 1669 2
(0.2343284647 0.3828357677 0.004695196968 0.3781405707) 1292 2477 1
(0.2660879855 0.3669560073 0.2595585169 0.1073974904) 1261 2475 1
(0.2832606207 0.3583696897 0.3211422449 0.03722744481) 1162 2277 2
(0.4618352475 0.1915634389 0.07751893733 0.2690823763) 1174 2303 1
(0.1123524573 0.1782183474 0.265605424 0.4438237713) 227 471 1
(0.3714280361 0.02615302619 0.314285982 0.2881329558) 222 453 1
(0.04204522799 0.478977386 0.351246736 0.12773065) 1233 2361 1
(0.04164252238 0.1956992279 0.2834795109 0.4791787388) 1235 2423 1
(0.6984015716 0.1507992142 0.08477526506 0.06602394913) 1263 2420 1
(0.02339865659 0.4370707523 0.4883006717 0.05122991938) 1169 2294 2
(0.5083530371 0.2353265889 0.01049689251 0.2458234814) 1264 2422 2
(0.09436478353 0.4528176082 0.3926590103 0.06015859795) 858 1683 1
(0.03143714725 0.04974573304 0.4345356933 0.4842814264) 1007 1974 1
(0.6694293227 0.1199494647 0.04533587394 0.1652853387) 1233 2361 2
(0.2201519402 0.3899240299 0.1190808985 0.2708431314) 834 1653 2
(0.04591654009 0.47704173 0.1092160826 0.3678256474) 831 1631 1
(0.1357694412 0.4321152794 0.1610602059 0.2710550735) 1045 2050 1
(0.7201151434 0.1260012593 0.1399424283 0.01394116902) 1267 2487 2
(0.04178974231 0.03054457679 0.4485605521 0.4791051288) 833 1635 2
(0.6837973436 0.07142620285 0.08667512533 0.1581013282) 1205 2364 1
(0.2058575327 0.3970712336 0.3823687313 0.01470250232) 1159 2273 2
(0.0766001768 0.405333424 0.05636648757 0.4616999116) 255 466 2
(0.2252862515 0.3873568743 0.2731120136 0.1142448606) 1017 2647 2
(0.02492643298 0.0901782241 0.4875367835 0.3973585594) 1262 2474 1
(0.2841803345 0.3579098327 0.3138805411 0.04402929167) 1233 2420 1
(0.5312349238 0.1275692465 0.1068132916 0.2343825381) 253 526 1
(0.5574798009 0.02475127888 0.1965088206 0.2212600995) 815 1619 1
(0.4085970511 0.2957014744 0.1203652057 0.1753362687) 803 1596 2
(0.393353965 0.3033230175 0.2950344631 0.008288554414) 1294 464 2
(0.6284259116 0.1565736376 0.02921340665 0.1857870442) 1222 2397 1
(0.4964278718 0.2517860641 0.1473495203 0.1044365438) 276 570 2
(0.002148687203 0.03812538098 0.4608002754 0.4989256564) 319 659 1
(0.5838556769 0.2080721615 0.128832806 0.07923935557) 258 537 1
(0.5615111036 0.2038806528 0.01536379541 0.2192444482) 1290 2473 2
(0.09564938375 0.4521753081 0.1371758299 0.3149994782) 223 459 2
(0.4978809128 0.07068711214 0.2510595436 0.1803724315) 841 1669 2
(0.5834876032 0.2082561984 0.2055730574 0.002683140999) 1145 2247 1
(0.9034757667 0.04826211665 0.01005806558 0.03820405107) 1148 2253 1
(0.598711161 0.2006444195 0.0148957117 0.1857487078) 813 1616 1
(0.01663513457 0.4916824327 0.03523096001 0.4564514727) 1198 2350 2
(0.4676278618 0.2661860691 0.2177849163 0.04840115277) 1189 2330 2
(0.04910454687 0.3179071085 0.157540618 0.4754477266) 1260 2472 1
(0.4352134931 0.2823932535 0.11454534 0.1678479135) 863 1710 2
(0.2139294539 0.384195856 0.3930352731 0.008839417057) 1171 2298 2
(0.6192709035 0.1251957308 0.06516881748 0.1903645482) 1135 2168 2
(0.2219688887 0.233366952 0.1556486037 0.3890155557) 1228 2351 2
(0.16733336 0.07494122291 0.41633332 0.3413920971) 1073 2102 1
(0.03268725436 0.0710435678 0.4836563728 0.412612805) 1157 2270 2
(0.1207970652 0.4196079102 0.01999355719 0.4396014674) 259 477 2
(0.5982561973 0.2008719013 0.1456313149 0.05524058641) 227 472 1
(0.02084593351 0.1836274591 0.4895770332 0.3059495741) 256 530 1
(0.1074464881 0.4462767559 0.01736900761 0.4289077483) 1206 2366 2
(0.1155518898 0.01149588448 0.4422240551 0.4307281706) 1206 2367 2
(0.6602194064 0.1698902968 0.1499683212 0.01992197555) 254 463 1
(0.3937091413 0.1765112378 0.3031454294 0.1266341916) 1019 1999 2
(0.5659634847 0.2170182576 0.1662783793 0.05073987838) 1112 2123 1
(0.621557181 0.02038543125 0.1892214095 0.1688359783) 1103 2161 1
(0.2926022348 0.2038663033 0.1498325793 0.3536988826) 909 2550 1
(0.4687980717 0.1391938102 0.126407154 0.2656009642) 1258 2410 2
(0.1458630452 0.4270684774 0.03583694052 0.3912315369) 1166 2285 2
(0.7881337447 0.02464851031 0.1059331276 0.08128461733) 835 1658 2
(0.7745574274 0.1127212863 0.02209427973 0.09062700656) 1166 2285 2
(0.02007583787 0.4899620811 0.3421910688 0.1477710122) 1252 2456 2
(0.2599407694 0.3591108572 0.3700296153 0.01091875804) 1223 2397 1
(0.1719266013 0.4140366994 0.1277769433 0.286259756) 339 698 2
(0.09547479792 0.452262601 0.04493736114 0.4073252399) 1158 2269 2
(0.7149041492 0.1425479254 0.09500566486 0.04754226053) 856 1698 1
(0.6102148247 0.1119022405 0.1948925877 0.08299034716) 1106 2167 1
(0.2488108563 0.0965911064 0.2790034655 0.3755945719) 254 528 1
(0.4537891447 0.2731054277 0.1382973593 0.1348080683) 1261 2472 2
(0.3868136749 0.3065931626 0.2086818864 0.09791127619) 1264 2481 1
(0.3763801757 0.3118099122 0.05291710481 0.2588928073) 848 1683 1
(0.1622745296 0.4188627352 0.2390612187 0.1798015165) 1255 2404 1
(0.3493598936 0.0776501494 0.2476699038 0.3253200532) 872 1727 1
(0.2532879612 0.3211681321 0.05218788729 0.3733560194) 827 1642 1
(0.1246290091 0.01950371792 0.4376854955 0.4181817775) 1297 2517 1
(0.4203497654 0.2898251173 0.1637749846 0.1260501327) 820 1629 1
(0.7247552163 0.01212112127 0.1255012706 0.1376223919) 1226 2347 2
(0.4229827664 0.2885086168 0.02359574372 0.2649128731) 314 589 1
(0.4518421018 0.2740789491 0.1201740708 0.1539048783) 318 657 1
(0.08988660081 0.4157896883 0.4550566996 0.03926701129) 1208 2371 2
(0.01661482127 0.421902331 0.06979025839 0.4916925894) 1046 1993 2
(0.4001909463 0.05051690342 0.2999045269 0.2493876234) 831 1650 2
(0.4470929213 0.1231753999 0.1532781395 0.2764535394) 1143 2184 2
(0.5918226404 0.2040886798 0.05911759562 0.1449710842) 813 1615 2
(0.02808933836 0.4859553308 0.2680125188 0.217942812) 815 1619 2
(0.05682894174 0.4492039449 0.02238158422 0.4715855291) 1044 2047 1
(0.06304851232 0.0302431191 0.4382326247 0.4684757438) 253 460 2
(0.334141877 0.3329290615 0.2974911907 0.03543787079) 1227 2408 1
(0.06893319321 0.235619671 0.2299137324 0.4655334034) 1264 2422 2
(0.2720227567 0.3639886216 0.07720859922 0.2867800224) 286 592 2
(0.06165391098 0.1411639045 0.32800914 0.4691730445) 211 423 1
(0.9006702108 0.04966489461 0.009783014857 0.03988187975) 349 658 1
(0.2717974686 0.3641012657 0.1789602723 0.1851409934) 841 1650 1
(0.5522360082 0.2238819959 0.2099577265 0.0139242694) 819 1627 1
(0.1315950898 0.4244110153 0.4342024551 0.00979143977) 1029 2018 2
(0.3991415895 0.3004292052 0.248710516 0.05171868927) 1146 2248 2
(0.2357020866 0.3655333241 0.01661563265 0.3821489567) 1200 2354 1
(0.2367085506 0.3816457247 0.1361947548 0.2454509699) 220 450 2
(0.7769252556 0.004622580188 0.106914792 0.1115373722) 840 1666 1
(0.2276352468 0.3393394098 0.3861823766 0.04684296676) 1080 2116 1
(0.8201930269 0.08990348656 0.0580609456 0.03184254095) 1166 2229 1
(0.06610356894 0.4669482155 0.06981862891 0.3971295866) 1175 2303 2
(0.01257091584 0.1463394236 0.4937145421 0.3473751184) 1292 2512 1
(0.1312833033 0.1776227167 0.2567356317 0.4343583483) 1187 2328 1
(0.3560695877 0.3219652061 0.2257391384 0.09622606771) 872 1709 1
(0.2173304465 0.3201753385 0.3913347768 0.07115943826) 220 447 1
(0.4302955984 0.07176962219 0.2130825786 0.2848522008) 1041 2041 1
(0.1998922348 0.1220648842 0.4000538826 0.2779889983) 1296 470 1
(0.4646192162 0.2676903919 0.009638048375 0.2580523435) 1200 2296 1
(0.4719929204 0.2640035398 0.003666574215 0.2603369656) 316 593 1
(0.7427700064 0.1286149968 0.0483065341 0.0803084627) 873 1727 2
(0.4754955914 0.2622522043 0.2411460841 0.02110612025) 341 703 1
(0.1286114688 0.3736252621 0.0620690035 0.4356942656) 1207 2310 2
(0.2387174859 0.2810887835 0.3806412571 0.09955247358) 1268 2489 2
(0.3655573269 0.05585831137 0.3172213366 0.2613630252) 1296 2516 1
(0.1152022547 0.4423988727 0.4220998946 0.02029897803) 1205 2365 1
(0.489274249 0.1443074628 0.1110554127 0.2553628755) 315 650 1
(0.1399749437 0.114368285 0.3156442432 0.4300125282) 1206 2308 2
(0.1398377623 0.4298679177 0.4300811189 0.000213201148) 899 1779 2
(0.5331818659 0.1685665136 0.06484255347 0.233409067) 1263 2478 1
(0.02054299337 0.4897285033 0.01707372058 0.4726547827) 284 529 1
(0.683668209 0.1581658955 0.1403422183 0.01782367715) 228 475 1
(0.6143678868 0.1928160566 0.002586893335 0.1902291633) 250 451 1
(0.3651330681 0.317433466 0.2033142406 0.1141192253) 875 1734 1
(0.2315697529 0.3842151236 0.08826670262 0.2959484209) 1110 2178 1
(0.6232309489 0.1883845256 0.1012362279 0.08714829771) 1295 2515 2
(0.2930738611 0.3534630695 0.04886428681 0.3045987827) 438 894 2
(0.132606847 0.4329026593 0.4336965765 0.0007939172023) 888 1759 2
(0.5641789609 0.1145006723 0.2179105196 0.1034098473) 255 531 2
(0.1093933738 0.4453033131 0.254612602 0.1906907111) 854 1693 2
(0.03226473969 0.007898894303 0.4759687359 0.4838676302) 1129 2156 2
(0.07634826274 0.4618258686 0.3945505274 0.06727534121) 226 469 1
(0.03715294503 0.05338930992 0.4814235275 0.4280342176) 400 818 1
(0.03775583654 0.4811220817 0.4472249853 0.03389709643) 256 533 1
(0.5952513954 0.08799100934 0.2023743023 0.114383293) 1203 2358 1
(0.6632733188 0.05888728513 0.1094760555 0.1683633406) 1203 2302 2
(0.5731726657 0.2134136671 0.1641341542 0.04927951296) 1203 2360 2
(0.06939546082 0.04360319546 0.4653022696 0.4216990741) 221 450 1
(0.4316289452 0.2841855274 0.04274401563 0.2414415118) 1130 2216 2
(0.1307367955 0.4346316023 0.08311000855 0.3515215937) 1104 2107 1
(0.1488137475 0.4255931263 0.1306884712 0.2949046551) 1081 2118 2
(0.6427115109 0.09074608223 0.1786442446 0.08789816233) 907 1792 1
(0.3946515357 0.3026742321 0.1780001802 0.124674052) 1208 2370 2
(0.02994979414 0.4850251029 0.3156859889 0.1693391141) 1289 2509 2
(0.3383512029 0.3308243985 0.3005391279 0.03028527067) 1066 2091 1
(0.03225915363 0.4838704232 0.1490017157 0.3348687075) 852 1689 2
(0.104085126 0.3184139105 0.447957437 0.1295435265) 222 453 1
(0.5036022901 0.2481988549 0.175834179 0.07236467588) 1081 2120 2
(0.4906676129 0.03931806262 0.2153481309 0.2546661936) 1232 2417 1
(0.002058353346 0.4989708233 0.1666144489 0.3323563744) 349 718 1
(0.529966491 0.06145017464 0.2350167545 0.1735665799) 1266 2485 2
(0.4090539136 0.2954730432 0.1426285923 0.1528444509) 313 646 2
(0.4790750745 0.2604624627 0.2150434856 0.04541897709) 379 779 2
(0.01551920374 0.4922403981 0.2777516356 0.2144887625) 1228 2351 1
(0.4756159631 0.2621920184 0.1586723349 0.1035196835) 254 463 1
(0.080450956 0.1616677654 0.2981067566 0.459774522) 226 468 1
(0.1497130367 0.172608034 0.4251434817 0.2525354477) 344 706 1
(0.2411549229 0.07908524978 0.3003372888 0.3794225386) 253 460 2
(0.8752964662 0.06235176689 0.02250298782 0.03984877908) 832 1633 1
(0.1590459436 0.07930626869 0.3411707595 0.4204770282) 1144 2244 1
(0.4103044689 0.2948477656 0.1724031795 0.1224445861) 929 1834 2
(0.1916521185 0.2094985289 0.1946754119 0.4041739408) 304 628 1
(0.835131737 0.002331211678 0.08010291982 0.08243413149) 1170 2295 1
(0.6320238757 0.1579133424 0.1839880622 0.0260747198) 1163 2279 1
(0.1756935871 0.1357478535 0.4121532065 0.2764053529) 1227 2408 2
(0.7427841043 0.1286079478 0.05511330254 0.07349464529) 1200 2354 2