/*--------------------------------*- C++ -*----------------------------------*\
| =========                 |                                                 |
| \\      /  F ield         | OpenFOAM: The Open Source CFD Toolbox           |
|  \\    /   O peration     | Version:  v1912                                 |
|   \\  /    A nd           | Website:  www.openfoam.com                      |
|    \\/     M anipulation  |                                                 |
\*---------------------------------------------------------------------------*/
FoamFile
{
    version     2.0;
    format      ascii;
    class       volTensorField;
    location    "1.22";
    object      grad(U);
}
// * * * * * * * * * * * * * * * * * * * * * * * * * * * * * * * * * * * * * //

dimensions      [0 0 -1 0 0 0 0];


internalField   nonuniform List<tensor> 
1900
(
(2.70896e-06 -2.50911e-09 0 -2.30906e-09 -2.55366e-09 0 0 0 0)
(-1.13796e-05 -1.16401e-09 0 -1.03365e-09 -4.60616e-09 0 0 0 0)
(-0.000812798 5.0328e-07 0 -5.10072e-09 -8.67945e-09 0 0 0 0)
(-0.0125854 1.54717e-05 0 3.25561e-06 8.52371e-07 0 0 0 0)
(-0.0604774 9.59317e-05 0 9.34688e-05 3.29251e-05 0 0 0 0)
(-0.127017 -7.01579e-05 0 0.000544528 0.000215489 0 0 0 0)
(-0.140276 -0.00332493 0 0.00104818 -9.83897e-05 0 0 0 0)
(-0.100911 -0.011854 0 -0.00168008 -0.00539938 0 0 0 0)
(-0.0203715 -0.0371306 0 -0.00546224 -0.0210512 0 0 0 0)
(0.00932537 -0.118123 0 -0.033148 -0.0738241 0 0 0 0)
(2.70562e-06 -4.65071e-09 0 -3.75538e-09 6.5976e-10 0 0 0 0)
(-1.13824e-05 -4.96178e-09 0 -1.3829e-09 1.84882e-09 0 0 0 0)
(-0.000809541 3.53696e-07 0 -3.01474e-08 1.82402e-09 0 0 0 0)
(-0.012492 1.74621e-05 0 3.32223e-06 -5.01432e-07 0 0 0 0)
(-0.0599362 0.000118705 0 0.000114624 -1.54698e-05 0 0 0 0)
(-0.126063 -6.11569e-05 0 0.00066278 -9.64332e-05 0 0 0 0)
(-0.1425 -0.00228994 0 0.00122249 5.4688e-05 0 0 0 0)
(-0.107422 -0.00909884 0 -0.00254073 0.0032285 0 0 0 0)
(-0.0518394 -0.0312942 0 -0.00581893 0.0119087 0 0 0 0)
(-0.0593208 -0.0769074 0 -0.0491333 0.0403591 0 0 0 0)
(2.70383e-06 -5.3327e-13 0 -3.28213e-13 3.78568e-09 0 0 0 0)
(-1.1406e-05 2.48298e-13 0 2.06292e-13 5.5146e-09 0 0 0 0)
(-0.000809474 -2.4319e-14 0 -4.20459e-14 1.37097e-08 0 0 0 0)
(-0.0124708 1.02286e-14 0 1.85486e-13 -7.01878e-07 0 0 0 0)
(-0.059818 1.66023e-13 0 -6.1448e-14 -3.49105e-05 0 0 0 0)
(-0.12591 1.46494e-13 0 1.7808e-13 -0.000238113 0 0 0 0)
(-0.143479 -2.78128e-13 0 -1.3539e-13 8.74033e-05 0 0 0 0)
(-0.107953 -1.69646e-13 0 -2.24904e-13 0.00434176 0 0 0 0)
(-0.0669641 3.59853e-14 0 -3.84892e-14 0.0182851 0 0 0 0)
(-0.0838578 1.32232e-13 0 1.57209e-13 0.0669302 0 0 0 0)
(2.70562e-06 4.64957e-09 0 3.75463e-09 6.60147e-10 0 0 0 0)
(-1.13824e-05 4.96229e-09 0 1.38321e-09 1.84883e-09 0 0 0 0)
(-0.000809541 -3.53696e-07 0 3.01471e-08 1.82414e-09 0 0 0 0)
(-0.012492 -1.74621e-05 0 -3.32223e-06 -5.01432e-07 0 0 0 0)
(-0.0599362 -0.000118705 0 -0.000114624 -1.54698e-05 0 0 0 0)
(-0.126063 6.11569e-05 0 -0.00066278 -9.64332e-05 0 0 0 0)
(-0.1425 0.00228994 0 -0.00122249 5.4688e-05 0 0 0 0)
(-0.107422 0.00909884 0 0.00254073 0.0032285 0 0 0 0)
(-0.0518394 0.0312942 0 0.00581893 0.0119087 0 0 0 0)
(-0.0593208 0.0769074 0 0.0491333 0.0403591 0 0 0 0)
(2.70896e-06 2.50844e-09 0 2.30864e-09 -2.55193e-09 0 0 0 0)
(-1.13796e-05 1.16424e-09 0 1.03376e-09 -4.60608e-09 0 0 0 0)
(-0.000812798 -5.0328e-07 0 5.10047e-09 -8.67846e-09 0 0 0 0)
(-0.0125854 -1.54717e-05 0 -3.25561e-06 8.52371e-07 0 0 0 0)
(-0.0604774 -9.59317e-05 0 -9.34688e-05 3.29251e-05 0 0 0 0)
(-0.127017 7.01579e-05 0 -0.000544528 0.000215489 0 0 0 0)
(-0.140276 0.00332493 0 -0.00104818 -9.83897e-05 0 0 0 0)
(-0.100911 0.011854 0 0.00168008 -0.00539938 0 0 0 0)
(-0.0203715 0.0371306 0 0.00546224 -0.0210512 0 0 0 0)
(0.00932537 0.118123 0 0.033148 -0.0738241 0 0 0 0)
(-0.0657318 -0.211664 7.52884e-18 -0.112926 0.101891 -1.12933e-17 -3.10635e-17 -3.67167e-17 2.0407e-33)
(-0.151887 -0.253292 0 -0.141607 0.168773 0 7.86748e-17 2.86717e-17 0)
(-0.183759 -0.29876 0 -0.191238 0.194919 0 1.22222e-16 5.23516e-17 0)
(-0.515247 -0.243228 0 -0.453513 0.318294 0 0 0 0)
(0.0139796 -0.765426 -1.80292e-16 -1.53902 1.73289 2.70438e-16 8.84996e-16 5.89997e-16 4.88683e-32)
(-0.125203 -0.108589 0 -0.0962986 0.120997 0 -5.14692e-17 -1.83051e-17 0)
(-0.217696 -0.148215 0 -0.104486 0.196397 0 -7.86748e-17 -2.86717e-17 0)
(-0.368934 -0.239215 0 -0.194022 0.348983 0 -1.22222e-16 -5.23516e-17 0)
(-0.688641 -0.213938 0 -0.480653 0.612445 0 0 0 0)
(-0.501008 0.0522736 0 -0.664915 0.884222 0 0 0 0)
(-0.153543 -2.35351e-14 0 1.38963e-13 0.163208 0 0 0 0)
(-0.259438 2.86011e-13 0 1.12195e-13 0.241884 0 0 0 0)
(-0.471216 1.96847e-13 0 2.76697e-13 0.460893 0 0 0 0)
(-0.829514 -8.53209e-14 0 -2.66944e-14 0.858667 0 0 0 0)
(-0.655784 1.31758e-13 0 -1.16971e-13 1.29589 0 0 0 0)
(-0.125203 0.108589 0 0.0962986 0.120997 0 -5.14692e-17 1.83051e-17 0)
(-0.217696 0.148215 0 0.104486 0.196397 0 -7.86748e-17 2.86717e-17 0)
(-0.368934 0.239215 0 0.194022 0.348983 0 -1.22222e-16 5.23516e-17 0)
(-0.688641 0.213938 0 0.480653 0.612445 0 0 0 0)
(-0.501008 -0.0522736 0 0.664915 0.884222 0 0 0 0)
(-0.0657318 0.211664 -7.52884e-18 0.112926 0.101891 -1.12933e-17 1.34002e-16 -7.33269e-17 2.0407e-33)
(-0.151887 0.253292 0 0.141607 0.168773 0 7.86748e-17 -2.86717e-17 0)
(-0.183759 0.29876 0 0.191238 0.194919 0 1.22222e-16 -5.23516e-17 0)
(-0.515247 0.243228 -1.6285e-17 0.453513 0.318294 -2.44275e-17 3.68648e-16 -2.45766e-16 4.41406e-33)
(0.0139796 0.765426 1.80292e-16 1.53902 1.73289 2.70438e-16 -8.84996e-16 5.89997e-16 4.88683e-32)
(-0.00428758 0.297789 2.11896e-18 -0.219587 -0.632699 1.90707e-17 -5.45228e-16 4.07913e-17 -5.74346e-34)
(0.277002 0.0102177 -6.74225e-19 -0.173068 -0.279766 -6.06802e-18 3.80701e-16 -3.32954e-17 -1.82749e-34)
(0.120809 0.0991073 0 0.0266296 -0.130535 0 0 0 0)
(-0.332721 0.398198 -1.57725e-18 0.497493 0.401121 -1.41953e-17 -2.37311e-16 4.01131e-17 4.27515e-34)
(-1.09017 0.339605 4.66976e-18 1.97742 1.5639 4.20278e-17 1.70048e-16 -1.88943e-17 1.26574e-33)
(0.134131 0.261934 0 -0.252474 -0.180172 0 2.75921e-16 -1.08682e-17 0)
(0.328168 -0.000108069 0 -0.210592 -0.245586 0 -1.92957e-16 1.24349e-17 0)
(0.3386 0.0967288 0 0.0757005 -0.247924 0 0 0 0)
(0.444026 0.441447 0 0.723124 -0.468372 0 1.33511e-16 -2.90945e-17 0)
(1.01205 0.304769 0 2.83359 -1.01143 0 -6.28917e-18 8.8832e-18 0)
(0.164269 4.7435e-14 0 -2.9706e-13 -0.361395 0 0 0 0)
(0.378176 5.24984e-15 0 -2.21242e-13 -0.334607 0 0 0 0)
(0.462412 2.30944e-13 0 2.17844e-13 -0.317846 0 0 0 0)
(0.841742 2.5252e-13 0 9.5532e-13 -0.7963 0 -4.46931e-17 1.99404e-29 0)
(1.5058 4.2212e-14 0 1.93163e-12 -2.35967 0 1.25783e-17 -2.05072e-29 0)
(0.134131 -0.261934 0 0.252474 -0.180172 0 2.75921e-16 1.08682e-17 0)
(0.328168 0.000108069 0 0.210592 -0.245586 0 -1.92957e-16 -1.24349e-17 0)
(0.3386 -0.0967288 0 -0.0757005 -0.247924 0 0 0 0)
(0.444026 -0.441447 0 -0.723124 -0.468372 0 1.33511e-16 2.90945e-17 0)
(1.01205 -0.304769 0 -2.83359 -1.01143 0 -6.28917e-18 -8.8832e-18 0)
(-0.00428758 -0.297789 0 0.219587 -0.632699 0 -2.75921e-16 -1.08682e-17 0)
(0.277002 -0.0102177 6.74225e-19 0.173068 -0.279766 -6.06802e-18 5.21225e-18 -8.42563e-18 -1.82749e-34)
(0.120809 -0.0991073 0 -0.0266296 -0.130535 0 0 0 0)
(-0.332721 -0.398198 1.57725e-18 -0.497493 0.401121 -1.41953e-17 1.49829e-17 -1.20804e-17 4.27515e-34)
(-1.09017 -0.339605 -4.66976e-18 -1.97742 1.5639 4.20278e-17 -1.70048e-16 -1.88943e-17 1.26574e-33)
(0.232413 -0.794438 0 9.60108 0.110061 0 0 0 0)
(0.793962 -0.749548 0 4.69858 0.650783 0 0 0 0)
(-0.556909 0.279518 0 2.09468 0.751112 0 0 0 0)
(-0.344357 0.454713 0 0.532472 0.483366 0 0 0 0)
(0.0358476 0.201978 0 0.120141 0.191191 0 0 0 0)
(0.262485 0.0602842 0 -0.00765292 0.0776942 0 0 0 0)
(0.35905 0.0158772 0 -0.00443389 0.0407903 0 0 0 0)
(0.389574 0.00556771 0 0.00462019 0.0232137 0 0 0 0)
(0.367042 0.00413801 0 0.00621862 0.012237 0 0 0 0)
(0.287493 0.00297574 0 0.00423354 0.00542826 0 0 0 0)
(0.163577 0.00158267 0 0.00184595 0.00163548 0 0 0 0)
(0.0556903 0.000521321 0 0.000395192 0.000239774 0 0 0 0)
(0.00863827 8.08096e-05 0 2.61602e-05 1.1088e-05 0 0 0 0)
(0.000416149 3.90985e-06 0 3.38112e-07 1.04502e-07 0 0 0 0)
(4.10108e-06 3.80658e-08 0 5.83647e-10 1.38319e-10 0 0 0 0)
(5.7009e-09 5.10096e-11 0 1.66971e-13 5.70537e-14 0 0 0 0)
(8.00131e-13 4.37121e-14 0 5.69272e-16 1.97381e-15 0 0 0 0)
(-4.33843e-16 1.03435e-15 0 -3.72982e-16 2.58821e-15 0 0 0 0)
(3.58752e-16 2.16434e-16 0 -1.23828e-15 5.98718e-15 0 0 0 0)
(6.14756e-16 -4.34545e-16 0 1.51329e-16 4.49655e-15 0 0 0 0)
(1.40608e-16 -2.69284e-16 0 5.10229e-16 2.16815e-15 0 0 0 0)
(-3.29698e-16 3.97634e-16 0 1.33682e-15 5.07122e-15 0 0 0 0)
(-1.00763e-15 2.82538e-15 0 1.51807e-16 4.10725e-15 0 0 0 0)
(1.06768e-12 -3.39163e-15 0 -1.83811e-15 7.26907e-15 0 0 0 0)
(7.40879e-09 -1.51059e-14 0 -1.10529e-14 8.3581e-14 0 0 0 0)
(5.12245e-06 -3.34831e-13 0 -4.79835e-14 2.37491e-13 0 0 0 0)
(0.000501076 3.62659e-13 0 -4.97391e-13 -8.584e-13 0 0 0 0)
(0.0100834 5.79164e-13 0 1.03575e-12 6.40328e-13 0 0 0 0)
(0.0635564 -8.78327e-13 0 -2.67123e-13 -3.92055e-13 0 0 0 0)
(0.184319 6.75242e-14 0 -3.73988e-13 8.28474e-14 0 0 0 0)
(0.323725 2.79939e-13 0 6.89947e-14 -1.99784e-13 0 0 0 0)
(0.421626 2.21102e-13 0 -1.82343e-14 1.56335e-13 0 0 0 0)
(0.473318 -1.56454e-13 0 -9.01859e-14 -4.47585e-13 0 0 0 0)
(0.496134 -3.5228e-13 0 2.66122e-14 1.03776e-13 0 0 0 0)
(0.498796 4.02033e-13 0 6.8009e-14 3.11932e-14 0 0 0 0)
(0.476878 -6.75887e-14 0 5.7167e-14 -1.19409e-15 0 0 0 0)
(0.423224 5.22073e-14 0 -4.73106e-14 7.19205e-14 0 0 0 0)
(0.482583 2.46192e-14 0 -1.26162e-13 -2.30158e-13 0 0 0 0)
(2.58787 -5.3833e-14 0 5.91383e-15 -4.42871e-13 0 0 0 0)
(2.29936 -1.39485e-13 0 2.87806e-13 -1.58113e-13 0 0 0 0)
(0.873391 -0.685986 0 7.60407 -0.775095 0 0 0 0)
(-0.525032 -0.660886 0 4.08961 1.72966 0 0 0 0)
(-1.35164 0.230732 0 1.88932 1.80148 0 0 0 0)
(-0.71807 0.311337 0 0.406062 0.768819 0 0 0 0)
(-0.0565874 0.115485 0 0.0636933 0.238401 0 0 0 0)
(0.244387 0.0317762 0 -0.0192096 0.0745206 0 0 0 0)
(0.363555 0.00827383 0 -0.0113707 0.0311736 0 0 0 0)
(0.392582 0.00252218 0 0.000715777 0.0199427 0 0 0 0)
(0.36729 0.00187173 0 0.00328444 0.0120346 0 0 0 0)
(0.286941 0.00148307 0 0.00210093 0.00571834 0 0 0 0)
(0.163162 0.00079367 0 0.000835232 0.00180548 0 0 0 0)
(0.0555186 0.000256422 0 0.000175783 0.000277914 0 0 0 0)
(0.00860188 3.93171e-05 0 1.19044e-05 1.34403e-05 0 0 0 0)
(0.000413664 1.91346e-06 0 1.57638e-07 1.30852e-07 0 0 0 0)
(4.06788e-06 1.88596e-08 0 2.75608e-10 1.75461e-10 0 0 0 0)
(5.64241e-09 2.54621e-11 0 8.34728e-14 1.89447e-13 0 0 0 0)
(7.79041e-13 1.78944e-14 0 2.87789e-16 1.2371e-15 0 0 0 0)
(-7.68811e-16 1.4387e-15 0 8.07015e-16 1.95226e-15 0 0 0 0)
(3.44901e-16 5.73801e-16 0 4.45547e-16 2.58955e-15 0 0 0 0)
(8.61918e-16 -1.04106e-15 0 -1.1293e-15 4.32553e-15 0 0 0 0)
(4.20269e-16 4.21962e-16 0 2.6598e-16 2.09644e-15 0 0 0 0)
(-2.64033e-16 1.16857e-15 0 9.81358e-16 8.57608e-15 0 0 0 0)
(-1.60006e-15 2.03766e-15 0 8.25232e-17 5.73277e-15 0 0 0 0)
(1.07101e-12 1.11983e-14 0 -7.37904e-16 -4.44088e-16 0 0 0 0)
(7.40878e-09 3.26958e-14 0 2.38709e-14 5.5906e-14 0 0 0 0)
(5.12245e-06 -4.40182e-13 0 4.69051e-14 2.68659e-13 0 0 0 0)
(0.000501076 3.66227e-13 0 -8.17212e-13 -1.21132e-13 0 0 0 0)
(0.0100834 5.99489e-13 0 1.43647e-12 5.94554e-13 0 0 0 0)
(0.0635564 -9.2935e-13 0 -4.28414e-13 -4.44827e-13 0 0 0 0)
(0.184319 4.88176e-14 0 -5.59535e-13 2.52417e-13 0 0 0 0)
(0.323725 3.09438e-13 0 7.95903e-14 -6.93408e-13 0 0 0 0)
(0.421626 2.35892e-13 0 -1.97128e-15 3.27102e-13 0 0 0 0)
(0.473318 -1.39331e-13 0 -8.52577e-14 -3.56571e-13 0 0 0 0)
(0.496134 -2.85882e-13 0 -8.67362e-14 2.95588e-13 0 0 0 0)
(0.498796 3.47029e-13 0 3.05548e-14 -3.55897e-13 0 0 0 0)
(0.476878 -8.11096e-14 0 3.74543e-14 9.25077e-14 0 0 0 0)
(0.423224 2.85934e-14 0 -3.94255e-14 -1.21307e-13 0 0 0 0)
(0.482583 -1.35168e-13 0 -6.70234e-14 -2.20475e-13 0 0 0 0)
(2.58787 -1.03506e-13 0 -1.0842e-13 -6.60233e-13 0 0 0 0)
(2.29936 -3.96825e-14 0 1.37989e-13 -5.54986e-13 0 0 0 0)
(0.949453 -1.87389e-13 0 2.24183e-12 -2.15538 0 0 0 0)
(-0.868513 -2.58624e-13 0 1.06548e-12 2.45571 0 0 0 0)
(-1.62849 4.95008e-15 0 4.4058e-13 2.38821 0 0 0 0)
(-0.875447 6.96817e-14 0 -1.82343e-13 0.869435 0 0 0 0)
(-0.0878677 -2.48113e-14 0 -3.74543e-14 0.247774 0 0 0 0)
(0.240648 2.4524e-14 0 -7.0966e-14 0.0754776 0 0 0 0)
(0.364847 5.02097e-14 0 3.94255e-14 0.0293121 0 0 0 0)
(0.393837 -9.63584e-14 0 -3.89327e-14 0.0185951 0 0 0 0)
(0.367445 2.13948e-13 0 1.00042e-13 0.0119722 0 0 0 0)
(0.286781 4.25967e-14 0 1.37989e-13 0.00572692 0 0 0 0)
(0.163017 -1.84132e-13 0 -3.20887e-13 0.00177605 0 0 0 0)
(0.0554508 6.01766e-15 0 1.76144e-13 0.000270435 0 0 0 0)
(0.00858718 2.06806e-14 0 -2.30018e-14 1.31552e-05 0 0 0 0)
(0.000412686 3.46455e-14 0 7.94929e-14 1.2966e-07 0 0 0 0)
(4.05522e-06 -7.78626e-14 0 -1.59357e-14 1.75755e-10 0 0 0 0)
(5.62072e-09 -3.32746e-14 0 -3.16554e-14 2.03724e-13 0 0 0 0)
(7.76083e-13 -1.08318e-14 0 -1.25886e-15 0 0 0 0 0)
(-3.87949e-16 1.42779e-15 0 5.1577e-16 -3.77763e-16 0 0 0 0)
(-2.04538e-16 9.06841e-16 0 2.18706e-15 -3.26722e-15 0 0 0 0)
(5.62519e-16 -5.77995e-16 0 -9.52598e-16 -1.04678e-15 0 0 0 0)
(7.54616e-16 9.67241e-16 0 -4.4781e-17 -2.85485e-16 0 0 0 0)
(-3.83067e-16 1.45547e-15 0 5.12991e-16 -1.96379e-15 0 0 0 0)
(-1.50777e-15 2.01334e-16 0 -1.14123e-17 -4.29381e-15 0 0 0 0)
(1.0746e-12 1.12042e-14 0 -5.42253e-16 -8.32232e-15 0 0 0 0)
(7.40881e-09 6.31785e-14 0 2.89729e-14 -6.5252e-14 0 0 0 0)
(5.12245e-06 -3.86333e-13 0 1.25608e-13 2.29406e-13 0 0 0 0)
(0.000501076 4.57465e-13 0 -9.42407e-13 2.85595e-13 0 0 0 0)
(0.0100834 4.84999e-13 0 1.35408e-12 9.03872e-14 0 0 0 0)
(0.0635564 -9.77858e-13 0 -5.83575e-13 -4.33347e-13 0 0 0 0)
(0.184319 -4.79022e-15 0 -2.96924e-13 7.76258e-13 0 0 0 0)
(0.323725 3.01665e-13 0 2.85835e-13 -8.33402e-13 0 0 0 0)
(0.421626 3.19091e-13 0 8.08223e-14 2.44978e-13 0 0 0 0)
(0.473318 -1.65622e-13 0 -1.91707e-13 -2.97432e-13 0 0 0 0)
(0.496134 -3.52084e-13 0 -2.0797e-13 2.29458e-13 0 0 0 0)
(0.498796 3.42955e-13 0 7.68798e-14 -4.85033e-13 0 0 0 0)
(0.476878 6.55564e-16 0 1.37989e-13 2.36889e-13 0 0 0 0)
(0.423224 -3.8842e-14 0 -3.5483e-14 -4.97479e-14 0 0 0 0)
(0.482583 -1.32159e-13 0 -2.36553e-14 -2.33353e-13 0 0 0 0)
(2.58787 -1.51146e-13 0 -7.49085e-14 -5.61693e-14 0 0 0 0)
(2.29936 -1.08868e-13 0 -3.03577e-13 6.1945e-14 0 0 0 0)
(0.873391 0.685986 0 -7.60407 -0.775095 0 0 0 0)
(-0.525032 0.660886 0 -4.08961 1.72966 0 0 0 0)
(-1.35164 -0.230732 0 -1.88932 1.80148 0 0 0 0)
(-0.71807 -0.311337 0 -0.406062 0.768819 0 0 0 0)
(-0.0565874 -0.115485 0 -0.0636933 0.238401 0 0 0 0)
(0.244387 -0.0317762 0 0.0192096 0.0745206 0 0 0 0)
(0.363555 -0.00827383 0 0.0113707 0.0311736 0 0 0 0)
(0.392582 -0.00252218 0 -0.000715777 0.0199427 0 0 0 0)
(0.36729 -0.00187173 0 -0.00328444 0.0120346 0 0 0 0)
(0.286941 -0.00148307 0 -0.00210093 0.00571834 0 0 0 0)
(0.163162 -0.00079367 0 -0.000835232 0.00180548 0 0 0 0)
(0.0555186 -0.000256422 0 -0.000175783 0.000277914 0 0 0 0)
(0.00860188 -3.93171e-05 0 -1.19044e-05 1.34403e-05 0 0 0 0)
(0.000413664 -1.91346e-06 0 -1.57638e-07 1.30851e-07 0 0 0 0)
(4.06788e-06 -1.88597e-08 0 -2.75817e-10 1.76154e-10 0 0 0 0)
(5.64241e-09 -2.56668e-11 0 -1.36969e-13 -6.62959e-15 0 0 0 0)
(7.884e-13 -4.14806e-14 0 -2.03609e-15 0 0 0 0 0)
(2.33639e-16 4.88234e-16 0 -3.04578e-17 -5.10412e-16 0 0 0 0)
(-8.22604e-17 3.79178e-16 0 1.07865e-15 -5.85965e-15 0 0 0 0)
(2.12655e-16 -1.7365e-16 0 7.002e-16 -4.60236e-15 0 0 0 0)
(8.46622e-16 1.55195e-16 0 -6.94094e-16 -2.92117e-15 0 0 0 0)
(-2.54325e-16 2.51667e-18 0 -1.08199e-15 -8.14641e-15 0 0 0 0)
(-1.90704e-15 1.87911e-16 0 3.57569e-16 -1.3513e-14 0 0 0 0)
(1.07944e-12 -6.53496e-15 0 1.66434e-15 -9.23356e-15 0 0 0 0)
(7.40882e-09 1.01853e-13 0 -1.604e-14 -6.35478e-14 0 0 0 0)
(5.12245e-06 -3.38117e-13 0 2.04636e-13 2.2585e-14 0 0 0 0)
(0.000501076 3.25785e-13 0 -9.80352e-13 4.48662e-13 0 0 0 0)
(0.0100834 3.90342e-13 0 1.11377e-12 -1.03419e-12 0 0 0 0)
(0.0635564 -7.29824e-13 0 -5.12902e-13 -2.21156e-13 0 0 0 0)
(0.184319 -6.75621e-14 0 9.01243e-14 1.20976e-12 0 0 0 0)
(0.323725 1.54884e-13 0 3.14419e-13 -9.07447e-13 0 0 0 0)
(0.421626 3.9181e-13 0 6.70234e-14 2.01459e-13 0 0 0 0)
(0.473318 -1.43846e-13 0 -1.42425e-13 -6.15643e-13 0 0 0 0)
(0.496134 -3.40457e-13 0 -2.31625e-13 4.40768e-13 0 0 0 0)
(0.498796 3.49191e-13 0 1.20248e-13 -1.32675e-13 0 0 0 0)
(0.476878 4.55188e-14 0 1.0842e-13 1.33373e-13 0 0 0 0)
(0.423224 -1.08204e-13 0 9.85638e-15 -3.10803e-13 0 0 0 0)
(0.482583 -1.37036e-13 0 5.91383e-15 -1.55985e-13 0 0 0 0)
(2.58787 -1.76009e-14 0 -1.18277e-14 -3.08354e-13 0 0 0 0)
(2.29936 -5.32202e-15 0 -3.78485e-13 3.39098e-13 0 0 0 0)
(0.232413 0.794438 0 -9.60108 0.110061 0 0 0 0)
(0.793962 0.749548 0 -4.69858 0.650783 0 0 0 0)
(-0.556909 -0.279518 0 -2.09468 0.751112 0 0 0 0)
(-0.344357 -0.454713 0 -0.532472 0.483366 0 0 0 0)
(0.0358476 -0.201978 0 -0.120141 0.191191 0 0 0 0)
(0.262485 -0.0602842 0 0.00765292 0.0776942 0 0 0 0)
(0.35905 -0.0158772 0 0.00443389 0.0407903 0 0 0 0)
(0.389574 -0.00556771 0 -0.00462019 0.0232137 0 0 0 0)
(0.367042 -0.00413801 0 -0.00621862 0.012237 0 0 0 0)
(0.287493 -0.00297574 0 -0.00423354 0.00542826 0 0 0 0)
(0.163577 -0.00158267 0 -0.00184595 0.00163548 0 0 0 0)
(0.0556903 -0.000521321 0 -0.000395192 0.000239774 0 0 0 0)
(0.00863827 -8.08096e-05 0 -2.61602e-05 1.1088e-05 0 0 0 0)
(0.000416149 -3.90985e-06 0 -3.38112e-07 1.04501e-07 0 0 0 0)
(4.10108e-06 -3.80658e-08 0 -5.83812e-10 1.37722e-10 0 0 0 0)
(5.70096e-09 -5.12781e-11 0 -1.22364e-13 -1.1488e-13 0 0 0 0)
(8.1592e-13 -9.05163e-15 0 -4.2277e-16 1.12237e-16 0 0 0 0)
(5.18157e-16 -2.76834e-16 0 -4.35442e-17 -3.22985e-18 0 0 0 0)
(8.01719e-18 -2.83545e-16 0 -3.20827e-16 -2.39773e-15 0 0 0 0)
(4.68106e-17 2.76834e-16 0 5.63675e-16 -1.48493e-15 0 0 0 0)
(2.3616e-16 -6.37557e-17 0 -5.65222e-16 -1.06846e-15 0 0 0 0)
(-7.71292e-17 -1.62577e-15 0 -1.90209e-15 -3.09278e-15 0 0 0 0)
(-7.08841e-16 -1.14928e-16 0 3.01817e-17 -5.51441e-15 0 0 0 0)
(1.06983e-12 -3.35137e-15 0 3.03636e-15 -4.94052e-15 0 0 0 0)
(7.40887e-09 7.24348e-14 0 -2.1972e-14 1.45921e-14 0 0 0 0)
(5.12245e-06 -2.37327e-13 0 1.69692e-13 -2.20184e-13 0 0 0 0)
(0.000501076 1.50038e-13 0 -5.5954e-13 7.09145e-13 0 0 0 0)
(0.0100834 2.90143e-13 0 5.79734e-13 -1.1147e-12 0 0 0 0)
(0.0635564 -3.25072e-13 0 -2.22985e-13 -1.9056e-13 0 0 0 0)
(0.184319 -2.04439e-13 0 1.06387e-13 1.36746e-12 0 0 0 0)
(0.323725 8.34139e-15 0 2.13884e-13 -8.29357e-13 0 0 0 0)
(0.421626 4.03979e-13 0 -5.42101e-14 3.73852e-13 0 0 0 0)
(0.473318 -9.60043e-14 0 -1.21234e-13 -6.74384e-13 0 0 0 0)
(0.496134 -2.11585e-13 0 -1.36018e-13 6.89902e-13 0 0 0 0)
(0.498796 2.53531e-13 0 7.0966e-14 9.45794e-14 0 0 0 0)
(0.476878 -5.11634e-14 0 -8.08223e-14 5.10117e-14 0 0 0 0)
(0.423224 -1.23019e-13 0 3.74543e-14 -2.71042e-13 0 0 0 0)
(0.482583 -1.31447e-13 0 1.39961e-13 -8.737e-14 0 0 0 0)
(2.58787 -7.12148e-15 0 5.91383e-14 -5.56929e-14 0 0 0 0)
(2.29936 7.94819e-14 0 -1.89243e-13 1.3774e-13 0 0 0 0)
(2.36289 0.942877 0 -4.34049 -0.0668146 0 0 0 0)
(2.65844 0.960485 0 -2.22072 0.00600882 0 0 0 0)
(0.34274 -0.279339 0 -1.1328 0.0790711 0 0 0 0)
(0.0883957 -0.496782 0 -0.41724 0.136193 0 0 0 0)
(0.175341 -0.269944 0 -0.144981 0.110954 0 0 0 0)
(0.301604 -0.093156 0 -0.0472423 0.0745308 0 0 0 0)
(0.361065 -0.0336566 0 -0.0238489 0.0449824 0 0 0 0)
(0.389378 -0.0169115 0 -0.0151866 0.0226117 0 0 0 0)
(0.367818 -0.0104076 0 -0.0106156 0.0102135 0 0 0 0)
(0.289044 -0.00640718 0 -0.0066395 0.00382813 0 0 0 0)
(0.16509 -0.00313598 0 -0.00287554 0.000985031 0 0 0 0)
(0.0564615 -0.000969069 0 -0.000602021 0.00012724 0 0 0 0)
(0.00880747 -0.000141679 0 -3.87245e-05 5.43749e-06 0 0 0 0)
(0.000427198 -6.56026e-06 0 -4.9011e-07 4.95461e-08 0 0 0 0)
(4.24158e-06 -6.22035e-08 0 -8.377e-10 6.51664e-11 0 0 0 0)
(5.94093e-09 -8.2443e-11 0 -1.31198e-13 1.9849e-14 0 0 0 0)
(8.33309e-13 -6.91752e-15 0 7.19845e-16 4.37329e-16 0 0 0 0)
(-3.13889e-17 -2.01587e-16 0 -4.44676e-16 3.56655e-17 0 0 0 0)
(1.94248e-16 2.16022e-16 0 -3.87904e-16 7.6254e-16 0 0 0 0)
(2.51109e-16 1.39287e-16 0 -5.59131e-18 1.51721e-15 0 0 0 0)
(5.76422e-18 -6.00202e-16 0 1.19786e-16 3.80586e-16 0 0 0 0)
(-8.57279e-17 -9.03596e-16 0 -3.6967e-16 3.33501e-16 0 0 0 0)
(-1.94707e-16 -6.20969e-16 0 8.06826e-17 1.7981e-15 0 0 0 0)
(1.07676e-12 2.39625e-15 0 3.67657e-16 -2.48269e-16 0 0 0 0)
(7.40887e-09 8.51426e-16 0 7.27103e-15 9.13262e-15 0 0 0 0)
(5.12245e-06 -1.89814e-14 0 -3.76574e-15 -1.41574e-13 0 0 0 0)
(0.000501076 -3.21153e-14 0 1.8736e-14 5.65148e-13 0 0 0 0)
(0.0100834 -5.81625e-14 0 -4.75835e-14 -6.96645e-13 0 0 0 0)
(0.0635564 3.59175e-13 0 -4.29497e-14 -4.89547e-13 0 0 0 0)
(0.184319 -3.09998e-13 0 1.82622e-13 1.09592e-12 0 0 0 0)
(0.323725 -2.98939e-13 0 -1.27203e-13 -6.79305e-13 0 0 0 0)
(0.421626 4.7495e-13 0 -9.52164e-15 1.96116e-13 0 0 0 0)
(0.473318 -9.14418e-16 0 -2.6854e-13 -5.20791e-13 0 0 0 0)
(0.496134 -7.11513e-15 0 -7.43878e-15 5.21879e-13 0 0 0 0)
(0.498796 5.90391e-14 0 9.93821e-14 -1.15716e-13 0 0 0 0)
(0.476878 -7.20368e-14 0 -4.76082e-14 8.63417e-15 0 0 0 0)
(0.423224 -1.77878e-13 0 -2.61845e-14 2.22144e-13 0 0 0 0)
(0.482583 -8.41586e-15 0 3.80866e-14 -2.31539e-14 0 0 0 0)
(2.58787 1.11488e-13 0 -4.93935e-14 2.64387e-13 0 0 0 0)
(2.29936 1.79588e-14 0 -7.37927e-14 2.64126e-13 0 0 0 0)
(2.41635 0.68396 0 -0.653067 0.356346 0 0 0 0)
(2.88521 0.777017 0 -0.661067 -0.320193 0 0 0 0)
(0.69857 -0.154164 0 -0.521254 -0.216892 0 0 0 0)
(0.375489 -0.40143 0 -0.30922 -0.0794636 0 0 0 0)
(0.31759 -0.224952 0 -0.158168 0.0261727 0 0 0 0)
(0.358236 -0.10623 0 -0.0919594 0.0412188 0 0 0 0)
(0.38886 -0.0563745 0 -0.0496628 0.0270055 0 0 0 0)
(0.402431 -0.0329893 0 -0.0278992 0.0135346 0 0 0 0)
(0.374862 -0.0188765 0 -0.0163245 0.00540847 0 0 0 0)
(0.29412 -0.0100286 0 -0.00885018 0.00159902 0 0 0 0)
(0.168583 -0.00431605 0 -0.00348288 0.000301211 0 0 0 0)
(0.0580104 -0.0012252 0 -0.000689525 2.82912e-05 0 0 0 0)
(0.0091272 -0.000170734 0 -4.31912e-05 9.48346e-07 0 0 0 0)
(0.00044754 -7.72831e-06 0 -5.42737e-07 7.69186e-09 0 0 0 0)
(4.49803e-06 -7.28669e-08 0 -9.31592e-10 1.00637e-11 0 0 0 0)
(6.37951e-09 -9.73627e-11 0 -1.89455e-13 4.26009e-15 0 0 0 0)
(9.32593e-13 -2.92889e-14 0 -1.01061e-16 2.32321e-16 0 0 0 0)
(-2.54625e-16 -3.79875e-18 0 -1.04098e-16 2.90138e-16 0 0 0 0)
(3.31272e-16 8.76245e-16 0 -2.23878e-16 1.82388e-16 0 0 0 0)
(4.26487e-16 -1.74742e-17 0 -3.38502e-17 1.73715e-16 0 0 0 0)
(8.86547e-18 -9.16765e-16 0 8.67218e-17 2.60178e-17 0 0 0 0)
(-1.10199e-16 -6.47054e-16 0 1.87184e-17 4.64642e-16 0 0 0 0)
(-2.7402e-16 -4.04187e-16 0 3.51326e-17 1.37054e-15 0 0 0 0)
(1.07304e-12 6.34391e-16 0 1.76565e-17 1.1277e-15 0 0 0 0)
(7.40886e-09 -2.53668e-14 0 1.16063e-15 -3.46379e-16 0 0 0 0)
(5.12245e-06 1.81386e-13 0 -6.03235e-14 -2.65697e-15 0 0 0 0)
(0.000501076 -2.87171e-13 0 3.82738e-13 2.463e-13 0 0 0 0)
(0.0100834 -5.39427e-13 0 -6.97313e-13 -1.87721e-13 0 0 0 0)
(0.0635564 1.03539e-12 0 9.01301e-14 -5.91899e-13 0 0 0 0)
(0.184319 -3.30692e-13 0 4.02996e-13 5.13074e-13 0 0 0 0)
(0.323725 -6.93968e-13 0 -3.42928e-13 -7.51395e-13 0 0 0 0)
(0.421626 5.18673e-13 0 2.14981e-13 -2.1424e-15 0 0 0 0)
(0.473318 1.66922e-13 0 -1.58446e-13 -3.16062e-13 0 0 0 0)
(0.496134 6.91169e-14 0 7.58756e-14 2.82855e-13 0 0 0 0)
(0.498796 -1.36758e-13 0 1.38956e-13 -3.01114e-13 0 0 0 0)
(0.476878 2.85604e-13 0 7.08172e-14 -7.08344e-14 0 0 0 0)
(0.423224 -1.24234e-13 0 2.3209e-14 3.24147e-13 0 0 0 0)
(0.482583 -1.56713e-13 0 -2.49943e-14 7.28027e-14 0 0 0 0)
(2.58787 2.0611e-13 0 1.64248e-13 -1.12614e-14 0 0 0 0)
(2.29936 1.12221e-13 0 4.0467e-14 2.3849e-13 0 0 0 0)
(2.35518 0.29094 0 -0.0327253 0.333854 0 0 0 0)
(2.78546 0.408092 0 -0.117973 -0.270759 0 0 0 0)
(0.681792 -0.0473634 0 -0.208248 -0.272552 0 0 0 0)
(0.438278 -0.262555 0 -0.208817 -0.126887 0 0 0 0)
(0.384701 -0.15365 0 -0.146895 -0.0308079 0 0 0 0)
(0.406164 -0.0923536 0 -0.0984164 -0.00323119 0 0 0 0)
(0.422796 -0.0603341 0 -0.0577963 9.02053e-05 0 0 0 0)
(0.421504 -0.0377232 0 -0.0338764 0.000141351 0 0 0 0)
(0.386175 -0.0219092 0 -0.0192464 -0.000424574 0 0 0 0)
(0.301419 -0.0113287 0 -0.00974917 -0.000502028 0 0 0 0)
(0.172954 -0.00464959 0 -0.00357398 -0.000239896 0 0 0 0)
(0.0597761 -0.00125841 0 -0.000669215 -4.56451e-05 0 0 0 0)
(0.0094714 -0.000168934 0 -4.05185e-05 -2.50884e-06 0 0 0 0)
(0.000468818 -7.47411e-06 0 -5.01699e-07 -2.84307e-08 0 0 0 0)
(4.76458e-06 -6.96156e-08 0 -8.50626e-10 -4.67073e-11 0 0 0 0)
(6.83864e-09 -9.21406e-11 0 -1.54478e-13 -1.73345e-14 0 0 0 0)
(1.01577e-12 -1.07431e-14 0 1.9363e-17 8.95119e-16 0 0 0 0)
(-1.4974e-16 -2.49704e-16 0 2.54895e-16 1.53216e-15 0 0 0 0)
(2.61941e-16 1.03832e-16 0 1.95002e-16 1.24649e-15 0 0 0 0)
(5.50415e-16 -1.13962e-17 0 1.10469e-16 4.3731e-16 0 0 0 0)
(5.64212e-17 -3.19855e-16 0 1.97308e-16 1.28355e-15 0 0 0 0)
(-1.35441e-16 3.92031e-16 0 3.04564e-17 1.64885e-15 0 0 0 0)
(-1.95731e-16 1.79807e-17 0 2.85336e-17 2.26092e-15 0 0 0 0)
(1.07784e-12 7.41769e-16 0 8.40887e-17 2.04647e-15 0 0 0 0)
(7.40881e-09 -2.79563e-15 0 2.81517e-15 1.09091e-15 0 0 0 0)
(5.12245e-06 2.18696e-13 0 1.48464e-13 2.19892e-13 0 0 0 0)
(0.000501076 -2.1045e-13 0 2.82719e-13 -4.4725e-14 0 0 0 0)
(0.0100834 -8.65881e-13 0 -7.36874e-13 5.20621e-13 0 0 0 0)
(0.0635564 1.03449e-12 0 -1.61124e-13 -3.57593e-13 0 0 0 0)
(0.184319 -4.63695e-13 0 7.27922e-13 3.65369e-13 0 0 0 0)
(0.323725 -7.9542e-13 0 -5.23913e-13 -2.25227e-13 0 0 0 0)
(0.421626 8.94452e-13 0 4.00355e-13 2.82728e-13 0 0 0 0)
(0.473318 2.73719e-13 0 2.39529e-14 -3.02293e-14 0 0 0 0)
(0.496134 7.28955e-15 0 1.21103e-13 2.41678e-13 0 0 0 0)
(0.498796 -2.81789e-13 0 7.58756e-14 -1.17673e-13 0 0 0 0)
(0.476878 5.30488e-13 0 7.67682e-14 -5.60526e-14 0 0 0 0)
(0.423224 -3.94638e-14 0 7.20074e-14 1.99757e-13 0 0 0 0)
(0.482583 -3.31628e-13 0 1.48776e-14 -1.53883e-14 0 0 0 0)
(2.58787 2.7115e-13 0 1.48776e-13 -1.44204e-14 0 0 0 0)
(2.29936 2.58628e-13 0 6.90319e-14 -2.82786e-14 0 0 0 0)
(2.3342 0.101333 0 0.0155004 0.11646 0 0 0 0)
(2.71607 0.192663 0 -0.0112618 -0.154336 0 0 0 0)
(0.611029 -0.015524 0 -0.100259 -0.215045 0 0 0 0)
(0.43461 -0.168477 0 -0.146597 -0.118176 0 0 0 0)
(0.423977 -0.105792 0 -0.116338 -0.0572483 0 0 0 0)
(0.444095 -0.0764557 0 -0.081086 -0.0324037 0 0 0 0)
(0.451053 -0.0531246 0 -0.0515426 -0.0188858 0 0 0 0)
(0.439579 -0.0334854 0 -0.0316337 -0.0104164 0 0 0 0)
(0.398112 -0.0194965 0 -0.017961 -0.00539504 0 0 0 0)
(0.309223 -0.00985064 0 -0.00869346 -0.00234488 0 0 0 0)
(0.177333 -0.00387626 0 -0.00297503 -0.000704968 0 0 0 0)
(0.0614154 -0.000996442 0 -0.000518495 -0.000106968 0 0 0 0)
(0.00977159 -0.000126776 0 -2.95203e-05 -5.49842e-06 0 0 0 0)
(0.000486584 -5.31074e-06 0 -3.47005e-07 -5.19131e-08 0 0 0 0)
(4.98148e-06 -4.54701e-08 0 -5.91862e-10 -2.01824e-11 0 0 0 0)
(7.19921e-09 -5.2353e-11 0 -1.15371e-13 3.38941e-11 0 0 0 0)
(1.0817e-12 -1.11083e-14 0 1.64283e-14 3.38909e-11 0 0 0 0)
(-8.53727e-17 3.34796e-16 0 1.54918e-14 3.39325e-11 0 0 0 0)
(1.92098e-16 -1.78794e-16 0 -1.59339e-14 3.39244e-11 0 0 0 0)
(4.28709e-16 1.8234e-17 0 1.61829e-14 3.39015e-11 0 0 0 0)
(-6.82378e-17 2.50717e-16 0 1.0375e-14 3.39584e-11 0 0 0 0)
(-2.72837e-16 2.94783e-16 0 -1.38087e-14 3.39293e-11 0 0 0 0)
(-2.22338e-16 -2.10197e-17 0 -3.3742e-15 3.39218e-11 0 0 0 0)
(1.07573e-12 -4.93078e-16 0 1.15976e-14 3.39336e-11 0 0 0 0)
(7.409e-09 1.84557e-13 0 1.60682e-14 3.3952e-11 0 0 0 0)
(5.12245e-06 1.37236e-13 0 4.38915e-13 3.41985e-11 0 0 0 0)
(0.000501076 2.6226e-15 0 -4.06171e-13 3.34499e-11 0 0 0 0)
(0.0100834 -8.40918e-13 0 4.03704e-13 3.4769e-11 0 0 0 0)
(0.0635564 8.85787e-13 0 -7.44845e-13 3.42301e-11 0 0 0 0)
(0.184319 -2.03139e-13 0 6.55598e-13 3.37703e-11 0 0 0 0)
(0.323725 -7.73604e-13 0 -1.43174e-12 3.13383e-11 0 0 0 0)
(0.421626 7.06579e-13 0 -5.56272e-13 2.66998e-11 0 0 0 0)
(0.473318 1.27365e-13 0 -1.08264e-12 1.98444e-11 0 0 0 0)
(0.496134 -1.51474e-14 0 -9.91143e-13 1.34707e-11 0 0 0 0)
(0.498796 -4.23662e-13 0 -7.34951e-13 8.14334e-12 0 0 0 0)
(0.476878 5.91492e-13 0 -3.41589e-13 4.5778e-12 0 0 0 0)
(0.423224 -8.50482e-14 0 -2.18998e-13 2.45615e-12 0 0 0 0)
(0.482583 -3.63102e-13 0 -1.55322e-13 8.80014e-13 0 0 0 0)
(2.58787 1.93689e-13 0 -2.916e-13 1.98947e-13 0 0 0 0)
(2.29936 9.88667e-14 0 -5.95102e-15 -2.24807e-13 0 0 0 0)
(2.32939 0.0299915 0 0.0168055 -0.00364427 0 0 0 0)
(2.67391 0.0886415 0 0.00810375 -0.106623 0 0 0 0)
(0.551378 -0.0125185 0 -0.0672709 -0.175992 0 0 0 0)
(0.422784 -0.110496 0 -0.0963347 -0.108514 0 0 0 0)
(0.447831 -0.0709961 0 -0.079623 -0.0699181 0 0 0 0)
(0.468603 -0.0553862 0 -0.0576581 -0.0449421 0 0 0 0)
(0.47045 -0.0391463 0 -0.0387353 -0.0267705 0 0 0 0)
(0.453865 -0.024723 0 -0.0242121 -0.0148632 0 0 0 0)
(0.408281 -0.0141312 0 -0.0135234 -0.00734247 0 0 0 0)
(0.31586 -0.0068092 0 -0.00618638 -0.00296561 0 0 0 0)
(0.180832 -0.00249306 0 -0.00193152 -0.000820804 0 0 0 0)
(0.0626145 -0.000584378 0 -0.000298011 -0.000110803 0 0 0 0)
(0.00997071 -6.5906e-05 0 -1.51219e-05 -4.13848e-06 0 0 0 0)
(0.000497264 -2.17565e-06 0 -1.62341e-07 6.05146e-08 0 0 0 0)
(5.09897e-06 -1.95576e-08 0 -2.59904e-10 9.72042e-08 0 0 0 0)
(7.409e-09 -4.00335e-11 0 -4.36204e-14 9.72543e-08 0 0 0 0)
(1.14188e-12 2.63003e-14 0 3.05595e-14 9.72543e-08 0 0 0 0)
(-3.13351e-14 3.19948e-14 0 4.60558e-14 9.72543e-08 0 0 0 0)
(9.27938e-16 -2.98037e-14 0 -3.63375e-14 9.72543e-08 0 0 0 0)
(2.59026e-14 3.27543e-14 0 -2.57299e-14 9.72543e-08 0 0 0 0)
(-2.88446e-14 2.65201e-14 0 -3.30121e-14 9.72542e-08 0 0 0 0)
(-1.33846e-14 -3.4855e-14 0 -1.20399e-13 9.72541e-08 0 0 0 0)
(2.42867e-14 4.13962e-15 0 3.73519e-14 9.72541e-08 0 0 0 0)
(1.09658e-12 2.98779e-14 0 6.90873e-14 9.72542e-08 0 0 0 0)
(7.40923e-09 2.52484e-13 0 -6.79893e-14 9.72541e-08 0 0 0 0)
(5.12245e-06 -2.65191e-13 0 4.85804e-13 9.72541e-08 0 0 0 0)
(0.000501076 3.39274e-13 0 1.51251e-13 9.72548e-08 0 0 0 0)
(0.0100834 -1.14037e-13 0 -6.27376e-12 9.72437e-08 0 0 0 0)
(0.0635564 7.2158e-14 0 -1.01422e-10 9.7019e-08 0 0 0 0)
(0.184319 -3.25031e-12 0 -5.80321e-10 9.53622e-08 0 0 0 0)
(0.323725 -7.60881e-12 0 -1.54843e-09 8.99783e-08 0 0 0 0)