/*--------------------------------*- C++ -*----------------------------------*\
| =========                 |                                                 |
| \\      /  F ield         | OpenFOAM: The Open Source CFD Toolbox           |
|  \\    /   O peration     | Version:  v1912                                 |
|   \\  /    A nd           | Website:  www.openfoam.com                      |
|    \\/     M anipulation  |                                                 |
\*---------------------------------------------------------------------------*/
FoamFile
{
    version     2.0;
    format      ascii;
    class       volVectorField;
    location    "1.22";
    object      grad(rho);
}
// * * * * * * * * * * * * * * * * * * * * * * * * * * * * * * * * * * * * * //

dimensions      [1 -4 0 0 0 0 0];


internalField   nonuniform List<vector> 
1900
(
(-0.0379061 2.79485e-05 0)
(0.15936 -6.69173e-06 0)
(11.3737 1.13305e-05 0)
(176.104 -0.0446517 0)
(849.017 -1.25102 0)
(1791.07 -7.2823 0)
(2070.24 -12.0606 0)
(1352.35 -21.4401 0)
(842.988 37.8743 0)
(39.8682 -103.55 0)
(-0.0378849 4.6426e-05 0)
(0.159344 -2.11821e-05 0)
(11.329 0.000321415 0)
(174.853 -0.0456317 0)
(841.78 -1.56258 0)
(1780.26 -9.1357 0)
(2056.08 -13.5944 0)
(1402.29 -31.5931 0)
(760.878 50.8041 0)
(265.95 -192.434 0)
(-0.0378809 4.28102e-09 0)
(0.159635 -8.34888e-10 0)
(11.328 1.15286e-08 0)
(174.541 2.00728e-09 0)
(839.927 -1.25411e-08 0)
(1779.04 -2.01972e-08 0)
(2047.78 -2.98428e-09 0)
(1416.75 4.10338e-09 0)
(682.147 6.39488e-09 0)
(174.756 3.64153e-09 0)
(-0.0378849 -4.64165e-05 0)
(0.159344 2.118e-05 0)
(11.329 -0.000321404 0)
(174.853 0.0456317 0)
(841.78 1.56258 0)
(1780.26 9.1357 0)
(2056.08 13.5944 0)
(1402.29 31.5931 0)
(760.878 -50.8041 0)
(265.95 192.434 0)
(-0.0379061 -2.79433e-05 0)
(0.15936 6.69042e-06 0)
(11.3737 -1.13304e-05 0)
(176.104 0.0446517 0)
(849.017 1.25102 0)
(1791.07 7.2823 0)
(2070.24 12.0606 0)
(1352.35 21.4401 0)
(842.988 -37.8743 0)
(39.8682 103.55 0)
(-378.886 203.542 1.44074e-11)
(-210.813 169.061 -1.74992e-11)
(-1347.71 32.3826 -2.20907e-11)
(-5939.78 691.463 0)
(-1034.73 6668.72 -8.99183e-11)
(-71.6487 116.063 1.44442e-11)
(-466.758 34.3101 1.74992e-11)
(-1085.46 -168.92 2.20907e-11)
(-3039.98 180.407 0)
(-387.766 5846.2 0)
(-1.80224 3.34676e-09 0)
(-448.756 2.84373e-09 0)
(-1237.28 -2.26979e-09 0)
(-2897.42 6.72862e-10 0)
(2581.8 -5.07531e-09 0)
(-71.6487 -116.063 1.44442e-11)
(-466.758 -34.3101 1.74992e-11)
(-1085.46 168.92 2.20907e-11)
(-3039.98 -180.407 0)
(-387.766 -5846.2 0)
(-378.886 -203.542 -4.32958e-11)
(-210.813 -169.061 -1.74992e-11)
(-1347.71 -32.3826 -2.20907e-11)
(-5939.78 -691.463 -5.9709e-11)
(-1034.73 -6668.72 8.99183e-11)
(8774.43 -3233.51 4.22694e-11)
(1298.7 -382.66 -3.57897e-11)
(2401.91 92.9327 0)
(4347.87 390.426 2.81576e-11)
(-1119.99 -6715.87 -1.30468e-11)
(6444.09 -3345.31 -2.1086e-11)
(2095.84 -237.531 1.78891e-11)
(2656.97 8.81266 0)
(1343.56 -349.424 -1.76032e-11)
(-6448.62 -11671.2 3.12326e-12)
(6973.82 -6.81834e-09 0)
(2116.76 -2.58103e-09 0)
(2319.44 1.4474e-09 0)
(-824.213 -2.08983e-09 7.03707e-12)
(-9015.74 -3.42806e-09 -6.24651e-12)
(6444.09 3345.31 -2.1086e-11)
(2095.84 237.531 1.78891e-11)
(2656.97 -8.81266 0)
(1343.56 349.424 -1.76032e-11)
(-6448.62 11671.2 3.12326e-12)
(8774.43 3233.51 2.1086e-11)
(1298.7 382.66 1.15245e-14)
(2401.91 -92.9327 0)
(4347.87 -390.426 1.17584e-14)
(-1119.99 6715.87 1.30468e-11)
(-24625 -52454.4 0)
(-20104.1 1928.16 0)
(1001.5 2620.62 0)
(824.04 1410.56 0)
(2280.61 390.885 0)
(3637.22 318.11 0)
(4513.46 38.5408 0)
(4983.53 41.6119 0)
(4841.52 54.585 0)
(3901.15 44.7416 0)
(2266.96 22.3758 0)
(780.454 5.13966 0)
(121.4 0.351061 0)
(5.84201 0.00460611 0)
(0.0575008 8.01589e-06 0)
(7.98826e-05 5.81353e-09 0)
(1.03675e-08 0 0)
(0 0 0)
(0 -6.45948e-11 0)
(0 0 0)
(0 -6.45948e-11 0)
(0 0 0)
(0 0 0)
(-1.28382e-08 -6.45948e-11 0)
(-0.000103677 1.35649e-09 0)
(-0.0717027 1.67946e-09 0)
(-7.01965 1.13687e-08 0)
(-141.312 -7.94516e-09 0)
(-886.67 3.10055e-09 0)
(-2533.64 -5.81353e-09 0)
(-4327.21 -3.10055e-09 0)
(-5405.35 3.87569e-10 0)
(-5765.02 1.03352e-09 0)
(-5740.9 1.67946e-09 0)
(-5543.39 -4.13407e-09 0)
(-5171.37 1.2919e-10 0)
(-3994.2 -4.29555e-09 0)
(-956.741 -2.84217e-09 0)
(82892.9 -7.78367e-09 0)
(-128883 -2.40293e-08 0)
(-23057.1 -20632.4 0)
(-16021 5921.6 0)
(1043.97 1857.95 0)
(474.808 779.919 0)
(2158.09 102.393 0)
(3617.29 158.488 0)
(4480.77 -0.160655 0)
(4989.77 13.1915 0)
(4842.72 24.4292 0)
(3897.77 19.795 0)
(2263.23 9.63165 0)
(778.508 2.27247 0)
(120.937 0.162668 0)
(5.80891 0.00222244 0)
(0.0570505 3.96489e-06 0)
(7.90843e-05 4.00488e-09 0)
(9.26935e-09 0 0)
(0 0 0)
(0 0 0)
(0 0 0)
(0 0 0)
(-1.61487e-11 0 0)
(0 0 0)
(-1.30643e-08 0 0)
(-0.000103677 -1.87325e-09 0)
(-0.0717027 -1.93784e-10 0)
(-7.01965 1.4986e-08 0)
(-141.312 -9.30165e-09 0)
(-886.67 -2.58379e-10 0)
(-2533.64 -5.16758e-09 0)
(-4327.21 -1.09811e-09 0)
(-5405.35 2.19622e-09 0)
(-5765.02 2.90677e-09 0)
(-5740.9 4.52164e-10 0)
(-5543.39 -2.32541e-09 0)
(-5171.37 2.39001e-09 0)
(-3994.2 -7.75138e-10 0)
(-956.741 -1.2273e-09 0)
(82892.9 -1.32419e-09 0)
(-128883 -1.55028e-09 0)
(-20280.1 -3.22974e-10 0)
(-13561.4 -3.55271e-10 0)
(-494.266 1.35649e-09 0)
(313.331 5.84583e-09 0)
(2099.83 1.13041e-09 0)
(3607.38 -1.90555e-09 0)
(4471.19 2.4546e-09 0)
(4990.68 2.5192e-09 0)
(4843.44 -1.09811e-09 0)
(3896.84 -2.64839e-09 0)
(2261.86 -3.87569e-09 0)
(777.699 7.4284e-09 0)
(120.739 3.22974e-09 0)
(5.79469 -2.39001e-09 0)
(0.0568543 -1.2273e-09 0)
(7.87292e-05 -3.87569e-10 0)
(9.20476e-09 0 0)
(-1.61487e-11 0 0)
(0 0 0)
(0 0 0)
(0 0 0)
(0 0 0)
(0 0 0)
(-1.33711e-08 0 0)
(-0.000103677 -4.26326e-09 0)
(-0.0717027 -2.58379e-09 0)
(-7.01965 1.14979e-08 0)
(-141.312 -1.71822e-08 0)
(-886.67 3.03596e-09 0)
(-2533.64 1.2273e-09 0)
(-4327.21 -6.45948e-10 0)
(-5405.35 6.45948e-11 0)
(-5765.02 9.04327e-10 0)
(-5740.9 4.55393e-09 0)
(-5543.39 5.19988e-09 0)
(-5171.37 1.61487e-09 0)
(-3994.2 -4.19866e-10 0)
(-956.741 0 0)
(82892.9 8.39732e-10 0)
(-128883 2.77758e-08 0)
(-23057.1 20632.4 0)
(-16021 -5921.6 0)
(1043.97 -1857.95 0)
(474.808 -779.919 0)
(2158.09 -102.393 0)
(3617.29 -158.488 0)
(4480.77 0.160655 0)
(4989.77 -13.1915 0)
(4842.72 -24.4292 0)
(3897.77 -19.795 0)
(2263.23 -9.63165 0)
(778.508 -2.27247 0)
(120.937 -0.162668 0)
(5.80891 -0.00222244 0)
(0.0570505 -3.97807e-06 0)
(7.90846e-05 -6.2657e-09 0)
(9.38239e-09 0 0)
(0 0 0)
(-1.61487e-11 0 0)
(1.61487e-11 0 0)
(-1.61487e-11 0 0)
(0 0 0)
(0 0 0)
(-1.43239e-08 0 0)
(-0.000103678 6.45948e-10 0)
(-0.0717027 -6.52407e-09 0)
(-7.01965 7.68678e-09 0)
(-141.312 -1.60841e-08 0)
(-886.67 1.14979e-08 0)
(-2533.64 9.04327e-10 0)
(-4327.21 -1.48568e-09 0)
(-5405.35 3.22974e-09 0)
(-5765.02 2.13163e-09 0)
(-5740.9 1.04644e-08 0)
(-5543.39 8.62341e-09 0)
(-5171.37 -1.61487e-10 0)
(-3994.2 -3.94028e-09 0)
(-956.741 2.13163e-09 0)
(82892.9 3.84339e-09 0)
(-128883 2.01536e-08 0)
(-24625 52454.4 0)
(-20104.1 -1928.16 0)
(1001.5 -2620.62 0)
(824.04 -1410.56 0)
(2280.61 -390.885 0)
(3637.22 -318.11 0)
(4513.46 -38.5408 0)
(4983.53 -41.6119 0)
(4841.52 -54.585 0)
(3901.15 -44.7416 0)
(2266.96 -22.3758 0)
(780.454 -5.13966 0)
(121.4 -0.351061 0)
(5.84201 -0.00460612 0)
(0.0575008 -8.02125e-06 0)
(7.98864e-05 -4.58623e-09 0)
(1.10134e-08 0 0)
(0 0 0)
(0 0 0)
(0 0 0)
(0 0 0)
(0 0 0)
(0 0 0)
(-1.31773e-08 0 0)
(-0.000103679 2.39001e-09 0)
(-0.0717027 -5.03839e-09 0)
(-7.01965 4.13407e-09 0)
(-141.312 -7.04083e-09 0)
(-886.67 1.02706e-08 0)
(-2533.64 7.75138e-10 0)
(-4327.21 -2.13163e-09 0)
(-5405.35 3.81109e-09 0)
(-5765.02 5.81353e-09 0)
(-5740.9 5.32907e-09 0)
(-5543.39 4.29555e-09 0)
(-5171.37 2.26082e-10 0)
(-3994.2 1.77636e-09 0)
(-956.741 2.55149e-09 0)
(82892.9 7.26691e-09 0)
(-128883 1.36941e-08 0)
(103015 61062.8 0)
(-45847 -3875.36 0)
(1417.77 -3084.98 0)
(1469.66 -1950.32 0)
(2701.68 -901.51 0)
(3815.28 -493.693 0)
(4616.43 -186.596 0)
(4986.91 -122.978 0)
(4842.15 -105.746 0)
(3914.06 -77.064 0)
(2283.76 -36.6775 0)
(790.075 -8.03747 0)
(123.623 -0.527436 0)
(5.99084 -0.00674295 0)
(0.0594192 -1.159e-05 0)
(8.3189e-05 -1.34552e-09 0)
(1.03742e-08 0 0)
(0 0 0)
(0 0 0)
(0 0 0)
(0 0 0)
(0 0 0)
(0 0 0)
(-1.41572e-08 0 0)
(-0.00010368 -1.11152e-09 0)
(-0.0717027 -5.65509e-10 0)
(-7.01965 4.87508e-10 0)
(-141.312 5.07008e-10 0)
(-886.67 3.00305e-09 0)
(-2533.64 -2.96405e-09 0)
(-4327.21 -2.12553e-09 0)
(-5405.35 -1.59903e-09 0)
(-5765.02 4.54357e-09 0)
(-5740.9 2.49604e-09 0)
(-5543.39 -2.75929e-09 0)
(-5171.37 -5.07008e-10 0)
(-3994.2 1.78428e-09 0)
(-956.741 2.82755e-10 0)
(82892.9 -9.65266e-10 0)
(-128883 4.71908e-09 0)
(119490 32879.8 0)
(-68115 -2749.41 0)
(2633.31 -2699.17 0)
(2581.91 -1895.85 0)
(3458.47 -1116.64 0)
(4230.65 -614.402 0)
(4815.47 -366.095 0)
(5059.62 -241.954 0)
(4885.43 -171.717 0)
(3960.78 -106.839 0)
(2324.46 -45.6174 0)
(810.13 -9.37012 0)
(127.946 -0.594972 0)
(6.27045 -0.00751611 0)
(0.0629699 -1.29438e-05 0)
(8.9284e-05 -3.62706e-09 0)
(1.26557e-08 0 0)
(0 0 0)
(0 0 0)
(0 0 0)
(0 0 0)
(0 0 0)
(0 0 0)
(-1.36892e-08 0 0)
(-0.00010368 1.95003e-11 0)
(-0.0717027 1.48202e-09 0)
(-7.01965 -4.56307e-09 0)
(-141.312 9.80866e-09 0)
(-886.67 -7.80013e-10 0)
(-2533.64 -1.11152e-09 0)
(-4327.21 5.12858e-09 0)
(-5405.35 -1.67703e-09 0)
(-5765.02 5.44059e-09 0)
(-5740.9 2.9933e-09 0)
(-5543.39 7.80013e-11 0)
(-5171.37 -9.36015e-10 0)
(-3994.2 -1.34552e-09 0)
(-956.741 -1.85253e-10 0)
(82892.9 -5.9476e-10 0)
(-128883 -5.57709e-09 0)
(130263 16270.4 0)
(-80132.2 -496.546 0)
(2240.3 -1692.51 0)
(2994.65 -1519.29 0)
(3936.53 -1061.29 0)
(4538.52 -664.633 0)
(4975.33 -471.739 0)
(5174.22 -322.273 0)
(4972.35 -213.289 0)
(4035.57 -120.748 0)
(2377.69 -47.3619 0)
(833.46 -9.13978 0)
(132.645 -0.558701 0)
(6.56417 -0.00692684 0)
(0.066662 -1.18732e-05 0)
(9.56621e-05 -2.28154e-09 0)
(1.38647e-08 0 0)
(0 0 0)
(0 0 0)
(0 0 0)
(0 0 0)
(0 0 0)
(0 0 0)
(-1.41572e-08 0 0)
(-0.000103678 -3.90006e-11 0)
(-0.0717027 -3.95856e-09 0)
(-7.01965 -8.58014e-09 0)
(-141.312 4.71908e-09 0)
(-886.67 9.94516e-10 0)
(-2533.64 -3.74406e-09 0)
(-4327.21 9.22365e-09 0)
(-5405.35 -1.63803e-09 0)
(-5765.02 1.95003e-09 0)
(-5740.9 -6.1426e-10 0)
(-5543.39 -2.14503e-10 0)
(-5171.37 -5.55759e-10 0)
(-3994.2 -2.45704e-09 0)
(-956.741 -2.77879e-09 0)
(82892.9 2.04753e-10 0)
(-128883 -1.32212e-08 0)
(134990 4692.2 0)
(-85424.7 -198.226 0)
(1647.76 -1355.43 0)
(3190.18 -1333.58 0)
(4282.05 -988.816 0)
(4798.77 -689.048 0)
(5145.38 -496.532 0)
(5308.68 -338.052 0)
(5079.62 -212.548 0)
(4120.68 -111.413 0)
(2432.01 -40.127 0)
(855.232 -7.15206 0)
(136.747 -0.409017 0)
(6.80882 -0.00488779 0)
(0.0696448 -8.62869e-06 0)
(0.000100725 -4.74969e-07 0)
(1.48592e-08 -4.72532e-07 0)
(0 -4.75125e-07 0)
(0 -4.74638e-07 0)
(0 -4.72902e-07 0)
(0 -4.75554e-07 0)
(0 -4.74306e-07 0)
(0 -4.74189e-07 0)
(-1.37477e-08 -4.75106e-07 0)
(-0.000103683 -4.75457e-07 0)
(-0.0717027 -4.85324e-07 0)
(-7.01965 -4.72668e-07 0)
(-141.312 -4.85889e-07 0)
(-886.67 -4.70114e-07 0)
(-2533.64 -4.75106e-07 0)
(-4327.21 -4.07167e-07 0)
(-5405.35 -3.43245e-07 0)
(-5765.02 -2.44924e-07 0)
(-5740.9 -1.57621e-07 0)
(-5543.39 -8.92139e-08 0)
(-5171.37 -4.73468e-08 0)
(-3994.2 -2.45899e-08 0)
(-956.741 -1.11737e-08 0)
(82892.9 -3.83181e-09 0)
(-128883 -3.90006e-10 0)
(134870 -751.057 0)
(-85959.9 -253.872 0)
(1146.23 -1264.49 0)
(3347.93 -1154.16 0)
(4557.63 -875.084 0)
(5012.91 -643.121 0)
(5313.56 -456.638 0)
(5447.88 -301.131 0)
(5190.75 -177.629 0)
(4201.72 -85.2676 0)
(2478.16 -27.5642 0)
(871.734 -4.35681 0)
(139.532 -0.22049 0)
(6.9583 -0.00368885 0)
(0.0713716 -0.00136476 0)
(0.000103522 -0.00136106 0)
(1.37087e-08 -0.00136106 0)
(-2.04753e-09 -0.00136106 0)
(2.12553e-09 -0.00136106 0)
(-8.58014e-10 -0.00136106 0)
(-1.36502e-09 -0.00136106 0)
(1.32602e-09 -0.00136106 0)
(-7.60512e-10 -0.00136105 0)
(-1.54052e-08 -0.00136106 0)
(-0.000103688 -0.00136106 0)
(-0.0717027 -0.00136106 0)
(-7.01965 -0.00136106 0)
(-141.312 -0.00136074 0)
(-886.67 -0.00135436 0)
(-2533.64 -0.00131418 0)
(-4327.21 -0.00120306 0)
(-5405.35 -0.00101695 0)
(-5765.02 -0.000787164 0)
(-5740.9 -0.000557858 0)
(-5543.39 -0.000364541 0)
(-5171.37 -0.000223829 0)
(-3994.2 -0.000125625 0)
(-956.741 -6.73421e-05 0)
(82892.9 -1.82537e-05 0)
(-128883 -3.68533e-06 0)
(134092 -2123.82 0)
(-85919.5 -483.339 0)
(780.203 -1163.14 0)
(3565.42 -949.1 0)
(4774.51 -732.103 0)
(5202 -537.446 0)
(5474.94 -368.136 0)
(5577.54 -230.908 0)
(5287.64 -126.418 0)
(4265.28 -54.0093 0)
(2509.98 -15.1062 0)
(881.581 -2.27772 0)
(140.942 -0.519719 0)
(7.01998 -0.449951 0)
(0.071888 -0.449478 0)
(0.00010429 -0.449478 0)
(1.48202e-08 -0.449478 0)
(-1.36502e-09 -0.449478 0)
(2.43754e-09 -0.449478 0)
(1.13102e-09 -0.449478 0)
(1.89153e-09 -0.449478 0)
(5.71359e-09 -0.449478 0)
(-2.92505e-09 -0.449478 0)
(-1.68678e-08 -0.449478 0)
(-0.000103689 -0.449478 0)
(-0.0717027 -0.449478 0)
(-7.01965 -0.449477 0)
(-141.312 -0.449381 0)
(-886.67 -0.447468 0)
(-2533.64 -0.435937 0)
(-4327.21 -0.405087 0)
(-5405.35 -0.354132 0)
(-5765.02 -0.29018 0)
(-5740.9 -0.223134 0)
(-5543.39 -0.161823 0)
(-5171.37 -0.112071 0)
(-3994.2 -0.0723937 0)
(-956.741 -0.0461311 0)
(82892.9 -0.0158498 0)
(-128883 -0.00900536 0)
(132332 -2972.17 0)
(-85034.2 -746.263 0)
(697.405 -918.925 0)
(3763.3 -734.806 0)
(4954.31 -560 0)
(5363.64 -393.336 0)
(5608.95 -254.825 0)
(5680.81 -150.866 0)
(5361.21 -82.7 0)
(4308.99 -45.0035 0)
(2528.01 -28.2696 0)
(885.79 -24.1918 0)
(141.294 -23.899 0)
(7.02599 -23.9002 0)
(0.0718271 -23.9004 0)
(0.000103989 -23.9004 0)
(3.1259e-08 -23.9004 0)
(1.75503e-09 -23.9004 0)
(9.55515e-10 -23.9004 0)
(-6.63011e-10 -23.9004 0)
(-1.28702e-09 -23.9004 0)
(-2.76904e-09 -23.9004 0)
(3.54906e-09 -23.9004 0)
(-1.60878e-08 -23.9004 0)
(-0.000103677 -23.9004 0)
(-0.0717017 -23.9004 0)
(-7.01956 -23.9004 0)
(-141.31 -23.8954 0)
(-886.657 -23.8014 0)
(-2533.6 -23.2613 0)
(-4327.13 -21.8794 0)
(-5405.24 -19.6627 0)
(-5764.89 -16.8856 0)
(-5740.78 -13.8879 0)
(-5543.28 -10.9756 0)
(-5171.28 -8.3965 0)
(-3994.14 -6.10841 0)
(-956.687 -4.4955 0)
(82892.9 -1.97336 0)
(-128883 -2.33567 0)
(130397 -2609.61 0)
(-83940.9 -675.775 0)
(791.244 -577.228 0)
(3911.29 -478.19 0)
(5103.56 -397.93 0)
(5496.08 -335.375 0)
(5708.59 -294.605 0)
(5743.4 -276.015 0)
(5389.65 -276.034 0)
(4317.74 -286.671 0)
(2530.04 -296.843 0)
(885.793 -301.948 0)
(141.222 -303.012 0)
(7.01858 -303.079 0)
(0.0717166 -303.079 0)
(0.000103713 -303.079 0)
(1.00817e-08 -303.079 0)
(-1.22072e-08 -303.079 0)
(-1.08227e-08 -303.079 0)
(-3.13955e-09 -303.079 0)
(4.21207e-09 -303.079 0)
(1.21292e-08 -303.079 0)
(9.65266e-09 -303.079 0)
(-2.24449e-08 -303.079 0)
(-0.000103625 -303.079 0)
(-0.0716509 -303.079 0)
(-7.01483 -303.079 0)
(-141.217 -303.016 0)
(-886.059 -301.877 0)
(-2531.78 -295.67 0)
(-4323.74 -280.605 0)
(-5400.54 -257.447 0)
(-5759.45 -229.043 0)
(-5735.21 -198.192 0)
(-5538.1 -167.144 0)
(-5166.68 -137.917 0)
(-3990.44 -110.113 0)
(-952.756 -90.3637 0)
(82895 -50.609 0)
(-128879 -102.544 0)
(129038 -2304.52 0)
(-83075.7 -658.787 0)
(887.805 -711.067 0)
(3936.08 -746.587 0)
(5091.93 -821.607 0)
(5463.2 -910.758 0)
(5666.16 -1009.72 0)
(5698.7 -1112.77 0)
(5350.95 -1211.09 0)
(4288.94 -1295.05 0)
(2513.29 -1354.47 0)
(879.845 -1380.8 0)
(140.204 -1385.97 0)
(6.96076 -1386.27 0)
(0.0710353 -1386.28 0)
(0.000102601 -1386.28 0)
(3.0206e-08 -1386.28 0)
(8.73614e-09 -1386.28 0)
(8.30713e-09 -1386.28 0)
(6.82511e-09 -1386.28 0)
(-2.88605e-09 -1386.28 0)
(-9.32115e-09 -1386.28 0)
(-7.46862e-09 -1386.28 0)
(-1.71603e-08 -1386.28 0)
(-0.000102552 -1386.28 0)
(-0.0710144 -1386.28 0)
(-6.9582 -1386.27 0)
(-140.152 -1385.97 0)
(-879.578 -1380.79 0)
(-2513.1 -1354.04 0)
(-4290.29 -1292.57 0)
(-5355.55 -1202.68 0)
(-5707.79 -1096.19 0)
(-5681.13 -982.06 0)
(-5485.2 -865.879 0)
(-5116.33 -752.756 0)
(-3948.32 -642.125 0)
(-899.347 -566.911 0)
(82881.2 -396.314 0)
(-128731 -1146.3 0)
(127427 -5117.36 0)
(-82405.4 -1431.61 0)
(706.636 -1676.03 0)
(3804.77 -1806.99 0)
(4945.36 -2004 0)
(5314.8 -2207 0)
(5513.93 -2417.62 0)
(5549.36 -2629.19 0)
(5213.99 -2833.96 0)
(4179.57 -3015.88 0)
(2447.41 -3148.12 0)
(855.433 -3209.32 0)
(135.947 -3221.82 0)
(6.72184 -3222.58 0)
(0.0682268 -3222.59 0)
(9.78956e-05 -3222.59 0)
(1.39817e-08 -3222.59 0)
(-9.82816e-09 -3222.59 0)
(-1.07252e-08 -3222.59 0)
(-4.15357e-09 -3222.59 0)
(4.75808e-09 -3222.59 0)
(8.30713e-09 -3222.59 0)
(7.37112e-09 -3222.59 0)
(-1.70823e-08 -3222.59 0)
(-9.79286e-05 -3222.59 0)
(-0.0682342 -3222.59 0)
(-6.7219 -3222.58 0)
(-135.935 -3221.83 0)
(-855.283 -3209.37 0)
(-2446.77 -3148.36 0)
(-4177.89 -3015.86 0)
(-5211.3 -2831.94 0)
(-5546.85 -2622.81 0)
(-5513.27 -2404.05 0)
(-5317.13 -2182.56 0)
(-4951.06 -1964.26 0)
(-3811.36 -1752.8 0)
(-715.884 -1619.92 0)
(82336.6 -1364.08 0)
(-127339 -4867.19 0)
(122483 -10927.6 0)
(-79759.5 -2718.61 0)
(526.072 -2775.1 0)
(3620.04 -2916.47 0)
(4706.47 -3166.64 0)
(5064.62 -3438.32 0)
(5259.31 -3716.72 0)
(5297.51 -3998.31 0)
(4978.32 -4275.52 0)
(3986.2 -4529.32 0)
(2326.88 -4721.43 0)
(808.816 -4814.9 0)
(127.418 -4834.95 0)
(6.22054 -4836.21 0)
(0.0621048 -4836.23 0)
(8.73708e-05 -4836.23 0)
(2.05338e-08 -4836.23 0)
(3.95856e-09 -4836.23 0)
(1.56003e-10 -4836.23 0)
(-9.75016e-10 -4836.23 0)
(-1.32602e-09 -4836.23 0)
(-1.67703e-09 -4836.23 0)
(-2.43754e-09 -4836.23 0)
(-1.71408e-08 -4836.23 0)
(-8.73786e-05 -4836.23 0)
(-0.0621103 -4836.23 0)
(-6.22084 -4836.21 0)
(-127.418 -4834.95 0)
(-808.778 -4814.91 0)
(-2326.63 -4721.59 0)
(-3985.38 -4529.94 0)
(-4976.79 -4277.2 0)
(-5295.47 -4001.22 0)
(-5256.88 -3720.15 0)
(-5061.4 -3440.61 0)
(-4702.2 -3165.8 0)
(-3616.5 -2910.83 0)
(-524.759 -2766.15 0)
(79752 -2703.39 0)
(-122495 -10847.6 0)
(113743 -15812.7 0)
(-74549.3 -3727.63 0)
(515.968 -3446.3 0)
(3427.47 -3572.04 0)
(4442.49 -3825.52 0)
(4784.72 -4107.08 0)
(4974.29 -4399.56 0)
(5010.88 -4698.16 0)
(4702.29 -4997.9 0)
(3749.88 -5280.79 0)
(2172.22 -5504.68 0)
(746.043 -5619.05 0)
(115.41 -5644.54 0)
(5.49028 -5646.18 0)
(0.0530203 -5646.2 0)
(7.17043e-05 -5646.2 0)
(1.31042e-08 -5646.2 0)
(-5.9281e-09 -5646.2 0)
(-6.64961e-09 -5646.2 0)
(-4.34857e-09 -5646.2 0)
(4.48507e-10 -5646.2 0)
(5.34309e-09 -5646.2 0)
(7.97563e-09 -5646.2 0)
(-8.87264e-09 -5646.2 0)
(-7.17053e-05 -5646.2 0)
(-0.0530218 -5646.2 0)
(-5.49042 -5646.18 0)
(-115.412 -5644.54 0)
(-746.043 -5619.05 0)
(-2172.17 -5504.72 0)
(-3749.66 -5281.07 0)
(-4701.8 -4998.8 0)
(-5010.06 -4699.97 0)
(-4973.05 -4402.41 0)
(-4782.94 -4111.06 0)
(-4440.54 -3831.22 0)
(-3426.24 -3579.97 0)
(-515.988 -3455.37 0)
(74549.1 -3737.09 0)
(-113751 -15813.4 0)
(102847 -18410.1 0)
(-67842.9 -4176.61 0)
(676.002 -3673.19 0)
(3254.61 -3781.88 0)
(4190.89 -4015.21 0)
(4511.45 -4291.36 0)
(4689.72 -4570.85 0)
(4720.92 -4866.63 0)
(4416.88 -5166.32 0)
(3497.86 -5455.69 0)
(2000.93 -5692.47 0)
(674.039 -5817.6 0)
(101.275 -5845.97 0)
(4.62293 -5847.79 0)
(0.0423447 -5847.81 0)
(5.37905e-05 -5847.81 0)
(6.2011e-09 -5847.81 0)
(-3.54906e-09 -5847.81 0)
(-2.63254e-09 -5847.81 0)
(-6.53261e-10 -5847.81 0)
(1.97928e-09 -5847.81 0)
(5.29434e-09 -5847.81 0)
(4.19257e-09 -5847.81 0)
(-8.94089e-09 -5847.81 0)
(-5.37838e-05 -5847.81 0)
(-0.0423447 -5847.81 0)
(-4.62295 -5847.79 0)
(-101.276 -5845.97 0)
(-674.043 -5817.6 0)
(-2000.93 -5692.48 0)
(-3497.86 -5455.75 0)
(-4416.83 -5166.57 0)
(-4720.76 -4867.24 0)
(-4689.39 -4571.97 0)
(-4510.97 -4293.24 0)
(-4190.42 -4018.16 0)
(-3254.32 -3785.77 0)
(-676.168 -3677.41 0)
(67843.4 -4180.52 0)
(-102849 -18413.9 0)
(90981.4 -18485.3 0)
(-60348.3 -4175.61 0)
(896.35 -3653 0)
(3097.89 -3743.23 0)
(3951.53 -3972.88 0)
(4249.28 -4219.18 0)
(4419.94 -4489.74 0)
(4437.07 -4769.15 0)
(4134.66 -5060.97 0)
(3242.85 -5347.56 0)
(1823.46 -5587.95 0)
(598.127 -5716.85 0)
(86.324 -5745.83 0)
(3.72212 -5747.62 0)
(0.0316958 -5747.64 0)
(3.69256e-05 -5747.64 0)
(2.80805e-09 -5747.64 0)
(6.2401e-10 -5747.64 0)
(-6.82511e-11 -5747.64 0)
(-2.34004e-09 -5747.64 0)
(6.4351e-10 -5747.64 0)
(1.57953e-09 -5747.64 0)
(2.44729e-09 -5747.64 0)
(-4.03657e-09 -5747.64 0)
(-3.69263e-05 -5747.64 0)
(-0.0316956 -5747.64 0)
(-3.72211 -5747.62 0)
(-86.3241 -5745.83 0)
(-598.128 -5716.84 0)
(-1823.47 -5587.94 0)
(-3242.87 -5347.56 0)
(-4134.69 -5060.97 0)
(-4437.08 -4769.21 0)
(-4419.92 -4489.93 0)
(-4249.27 -4219.62 0)
(-3951.53 -3973.6 0)
(-3097.88 -3744.19 0)
(-896.383 -3654.04 0)
(60348.5 -4176.37 0)
(-90981.5 -18486.8 0)
(79966.5 -18331.3 0)
(-53549.9 -3906.86 0)
(1092.67 -3475.8 0)
(2946.36 -3556.62 0)
(3732.24 -3782.96 0)
(4013.39 -4040.84 0)
(4159.76 -4287.33 0)
(4170.46 -4556.95 0)
(3859.5 -4836.24 0)
(2990.04 -5116.4 0)
(1645.07 -5354.68 0)
(521.898 -5481.77 0)
(71.6186 -5509.41 0)
(2.87576 -5511.02 0)
(0.0223596 -5511.04 0)
(2.33889e-05 -5511.04 0)
(1.89153e-09 -5511.04 0)
(1.21877e-09 -5511.04 0)
(8.28763e-10 -5511.04 0)
(-1.46252e-10 -5511.04 0)
(1.75503e-10 -5511.04 0)
(-1.65753e-10 -5511.04 0)
(1.23827e-09 -5511.04 0)
(-9.16515e-10 -5511.04 0)
(-2.33871e-05 -5511.04 0)
(-0.0223596 -5511.04 0)
(-2.87576 -5511.02 0)
(-71.6186 -5509.41 0)
(-521.898 -5481.77 0)
(-1645.07 -5354.68 0)
(-2990.05 -5116.39 0)
(-3859.52 -4836.22 0)
(-4170.48 -4556.92 0)
(-4159.78 -4287.3 0)
(-4013.42 -4040.83 0)
(-3732.28 -3782.96 0)
(-2946.37 -3556.63 0)
(-1092.64 -3475.82 0)
(53550 -3906.82 0)
(-79966.4 -18331.5 0)
(68499.9 -16985 0)
(-46033 -3468.43 0)
(1233.86 -3203.98 0)
(2801.91 -3294.83 0)
(3484.92 -3492.36 0)
(3763.25 -3750.9 0)
(3922.59 -3980.51 0)
(3908.12 -4228.13 0)
(3595.56 -4485.47 0)
(2743.26 -4750.25 0)
(1471.38 -4982.06 0)
(449.026 -5105.34 0)
(58.1339 -5130.99 0)
(2.15134 -5132.38 0)
(0.0150789 -5132.39 0)
(1.39538e-05 -5132.39 0)
(3.99756e-10 -5132.39 0)
(-1.06277e-09 -5132.39 0)
(2.34004e-10 -5132.39 0)
(9.06765e-10 -5132.39 0)
(-6.1426e-10 -5132.39 0)
(-8.48264e-10 -5132.39 0)
(4.87508e-11 -5132.39 0)
(-9.06765e-10 -5132.39 0)
(-1.39495e-05 -5132.39 0)
(-0.0150789 -5132.39 0)
(-2.15134 -5132.38 0)
(-58.1339 -5130.99 0)
(-449.026 -5105.34 0)
(-1471.38 -4982.06 0)
(-2743.26 -4750.24 0)
(-3595.56 -4485.46 0)
(-3908.13 -4228.11 0)
(-3922.6 -3980.48 0)
(-3763.27 -3750.86 0)
(-3484.94 -3492.29 0)
(-2801.91 -3294.76 0)
(-1233.84 -3203.9 0)
(46033 -3468.38 0)
(-68499.9 -16985 0)
(59425.5 -13662.8 0)
(-40270 -2670.79 0)
(1259.95 -2650.94 0)
(2668.47 -2690.64 0)
(3292.76 -2823.72 0)
(3542.98 -2971.14 0)
(3699.88 -3129.11 0)
(3683.87 -3295.58 0)
(3356.37 -3478.77 0)
(2511.5 -3677.36 0)
(1302.89 -3861.84 0)
(378.385 -3963.5 0)
(45.5613 -3984.47 0)
(1.52761 -3985.55 0)
(0.00947626 -3985.56 0)
(7.61842e-06 -3985.56 0)
(-9.75016e-10 -3985.56 0)
(-5.55759e-10 -3985.56 0)
(5.65509e-10 -3985.56 0)
(-1.95003e-11 -3985.56 0)
(-4.29007e-10 -3985.56 0)
(-1.34552e-09 -3985.56 0)
(3.99756e-10 -3985.56 0)
(-1.98903e-09 -3985.56 0)
(-7.61187e-06 -3985.56 0)
(-0.00947625 -3985.56 0)
(-1.52761 -3985.55 0)
(-45.5613 -3984.47 0)
(-378.385 -3963.5 0)
(-1302.89 -3861.84 0)
(-2511.5 -3677.36 0)
(-3356.37 -3478.77 0)
(-3683.87 -3295.57 0)
(-3699.88 -3129.1 0)
(-3542.99 -2971.13 0)
(-3292.76 -2823.7 0)
(-2668.47 -2690.61 0)
(-1259.95 -2650.92 0)
(40270 -2670.77 0)
(-59425.5 -13662.8 0)
(51947.3 -6544.29 0)
(-35421.6 -1336.3 0)
(1214.73 -1264.24 0)
(2635.41 -1305.81 0)
(3214.62 -1269.26 0)
(3468.97 -1097.24 0)
(3609.95 -868.172 0)
(3571.17 -632.27 0)
(3227.65 -498.906 0)
(2374.12 -574.123 0)
(1195.65 -795.595 0)
(330.853 -937.126 0)
(36.8849 -963.268 0)
(1.10662 -964.37 0)
(0.00595288 -964.378 0)
(4.05313e-06 -964.378 0)
(-9.26265e-10 -964.378 0)
(-1.26752e-10 -964.378 0)
(-9.26265e-10 -964.378 0)
(1.26752e-10 -964.378 0)
(-7.80013e-11 -964.378 0)
(-1.60878e-09 -964.378 0)
(6.3376e-10 -964.378 0)
(-1.78428e-09 -964.378 0)
(-4.04089e-06 -964.378 0)
(-0.00595288 -964.378 0)
(-1.10662 -964.37 0)
(-36.8849 -963.268 0)
(-330.853 -937.126 0)
(-1195.65 -795.595 0)
(-2374.12 -574.123 0)
(-3227.65 -498.906 0)
(-3571.17 -632.27 0)
(-3609.95 -868.171 0)
(-3468.97 -1097.23 0)
(-3214.62 -1269.26 0)
(-2635.41 -1305.81 0)
(-1214.73 -1264.24 0)
(35421.6 -1336.3 0)
(-51947.3 -6544.29 0)
(48819 179988 0)
(-35181.9 37982 0)
(1289.33 38316.6 0)
(2663.63 43909.5 0)
(3493.75 50336.7 0)
(3929.49 58754.9 0)
(4147.94 66374.1 0)
(4039.71 74539.5 0)
(3412.4 81613.6 0)
(2225.6 86539.3 0)
(953.09 88508.6 0)
(216.81 88785.2 0)
(19.3084 88784.2 0)
(0.458127 88783.6 0)
(0.0019621 88783.6 0)
(1.0685e-06 88783.6 0)
(2.9348e-09 88783.6 0)
(1.49177e-09 88783.6 0)
(5.55759e-10 88783.6 0)
(1.17977e-09 88783.6 0)
(-5.9476e-10 88783.6 0)
(-1.62828e-09 88783.6 0)
(-1.40402e-09 88783.6 0)
(6.92261e-10 88783.6 0)
(-1.07043e-06 88783.6 0)
(-0.0019621 88783.6 0)
(-0.458127 88783.6 0)
(-19.3084 88784.2 0)
(-216.81 88785.2 0)
(-953.09 88508.6 0)
(-2225.6 86539.3 0)
(-3412.4 81613.6 0)
(-4039.71 74539.5 0)
(-4147.94 66374.1 0)
(-3929.49 58754.9 0)
(-3493.75 50336.7 0)
(-2663.63 43909.5 0)
(-1289.33 38316.6 0)
(35181.9 37982 0)
(-48819 179988 0)
(259278 -267566 0)
(-171941 -52011.2 0)
(6926.64 -55320.2 0)
(14218.4 -63733.4 0)
(17520.2 -73745.9 0)
(18923.3 -86441.8 0)
(18820.5 -98592.6 0)
(18256.5 -111382 0)
(14791.1 -122758 0)
(9018.44 -131059 0)
(3359.84 -134887 0)
(596.456 -135703 0)
(35.3555 -135760 0)
(0.467512 -135761 0)
(0.000930421 -135761 0)
(1.98474e-07 -135761 0)
(2.05533e-08 -135761 0)
(7.09811e-09 -135761 0)
(5.42109e-09 -135761 0)
(5.85009e-10 -135761 0)
(-7.41012e-10 -135761 0)
(-9.12615e-09 -135761 0)
(5.07008e-10 -135761 0)
(8.77514e-09 -135761 0)
(-1.92e-07 -135761 0)
(-0.000930412 -135761 0)
(-0.467512 -135761 0)
(-35.3555 -135760 0)
(-596.456 -135703 0)
(-3359.84 -134887 0)
(-9018.44 -131059 0)
(-14791.1 -122758 0)
(-18256.5 -111382 0)
(-18820.5 -98592.6 0)
(-18923.3 -86441.8 0)
(-17520.2 -73745.9 0)
(-14218.4 -63733.4 0)
(-6926.65 -55320.2 0)
(171941 -52011.2 0)
(-259278 -267566 0)
(259278 267566 0)
(-171941 52011.2 0)
(6926.64 55320.2 0)
(14218.4 63733.4 0)
(17520.2 73745.9 0)
(18923.3 86441.8 0)
(18820.5 98592.6 0)
(18256.5 111382 0)
(14791.1 122758 0)
(9018.44 131059 0)
(3359.84 134887 0)
(596.456 135703 0)
(35.3555 135760 0)
(0.467512 135761 0)
(0.000930412 135761 0)
(1.97031e-07 135761 0)
(-2.02023e-08 135761 0)
(-1.62243e-08 135761 0)
(-1.49372e-08 135761 0)
(-6.78611e-09 135761 0)
(-2.80805e-09 135761 0)
(-2.37904e-09 135761 0)
(2.22304e-09 135761 0)
(-1.83303e-09 135761 0)
(-1.68288e-07 135761 0)
(-0.000930425 135761 0)
(-0.467512 135761 0)
(-35.3555 135760 0)
(-596.456 135703 0)
(-3359.84 134887 0)
(-9018.44 131059 0)
(-14791.1 122758 0)
(-18256.5 111382 0)
(-18820.5 98592.6 0)
(-18923.3 86441.8 0)
(-17520.2 73745.9 0)
(-14218.4 63733.4 0)
(-6926.65 55320.2 0)
(171941 52011.2 0)
(-259278 267566 0)
(48819 -179988 0)
(-35181.9 -37982 0)
(1289.33 -38316.6 0)
(2663.63 -43909.5 0)
(3493.75 -50336.7 0)
(3929.49 -58754.9 0)
(4147.94 -66374.1 0)
(4039.71 -74539.5 0)
(3412.4 -81613.6 0)
(2225.6 -86539.3 0)
(953.09 -88508.6 0)
(216.81 -88785.2 0)
(19.3084 -88784.2 0)
(0.458127 -88783.6 0)
(0.0019621 -88783.6 0)
(1.06771e-06 -88783.6 0)
(1.20902e-09 -88783.6 0)
(2.15478e-09 -88783.6 0)
(2.34004e-10 -88783.6 0)
(8.19013e-10 -88783.6 0)
(-1.03352e-09 -88783.6 0)
(-2.24254e-09 -88783.6 0)
(-4.87508e-10 -88783.6 0)
(3.51006e-10 -88783.6 0)
(-1.06824e-06 -88783.6 0)
(-0.00196211 -88783.6 0)
(-0.458127 -88783.6 0)
(-19.3084 -88784.2 0)
(-216.81 -88785.2 0)
(-953.09 -88508.6 0)
(-2225.6 -86539.3 0)
(-3412.4 -81613.6 0)
(-4039.71 -74539.5 0)
(-4147.94 -66374.1 0)
(-3929.49 -58754.9 0)
(-3493.75 -50336.7 0)
(-2663.63 -43909.5 0)
(-1289.33 -38316.6 0)
(35181.9 -37982 0)
(-48819 -179988 0)
(51947.3 6544.29 0)
(-35421.6 1336.3 0)
(1214.73 1264.24 0)
(2635.41 1305.81 0)
(3214.62 1269.26 0)
(3468.97 1097.24 0)
(3609.95 868.172 0)
(3571.17 632.27 0)
(3227.65 498.906 0)
(2374.12 574.123 0)
(1195.65 795.595 0)
(330.853 937.126 0)
(36.8849 963.268 0)
(1.10662 964.37 0)
(0.00595287 964.378 0)
(4.0485e-06 964.378 0)
(-2.31079e-09 964.378 0)
(5.65509e-10 964.378 0)
(-1.56003e-09 964.378 0)
(-2.24254e-10 964.378 0)
(2.14503e-10 964.378 0)
(-4.48507e-10 964.378 0)
(2.33029e-09 964.378 0)
(-1.87203e-09 964.378 0)
(-4.04472e-06 964.378 0)
(-0.00595288 964.378 0)
(-1.10662 964.37 0)
(-36.8849 963.268 0)
(-330.853 937.126 0)
(-1195.65 795.595 0)
(-2374.12 574.123 0)
(-3227.65 498.906 0)
(-3571.17 632.27 0)
(-3609.95 868.171 0)
(-3468.97 1097.23 0)
(-3214.62 1269.26 0)
(-2635.41 1305.81 0)
(-1214.73 1264.24 0)
(35421.6 1336.3 0)
(-51947.3 6544.29 0)
(59425.5 13662.8 0)
(-40270 2670.79 0)
(1259.95 2650.94 0)
(2668.47 2690.64 0)
(3292.76 2823.72 0)
(3542.98 2971.14 0)
(3699.88 3129.11 0)
(3683.87 3295.58 0)
(3356.37 3478.77 0)
(2511.5 3677.36 0)
(1302.89 3861.84 0)
(378.385 3963.5 0)
(45.5613 3984.47 0)
(1.52761 3985.55 0)
(0.00947625 3985.56 0)
(7.61774e-06 3985.56 0)
(-1.53077e-09 3985.56 0)
(-5.9476e-10 3985.56 0)
(-9.26265e-10 3985.56 0)
(1.26752e-10 3985.56 0)
(0 3985.56 0)
(-9.84766e-10 3985.56 0)
(1.48202e-09 3985.56 0)
(-1.18952e-09 3985.56 0)
(-7.61131e-06 3985.56 0)
(-0.00947625 3985.56 0)
(-1.52761 3985.55 0)
(-45.5613 3984.47 0)
(-378.385 3963.5 0)
(-1302.89 3861.84 0)
(-2511.5 3677.36 0)
(-3356.37 3478.77 0)
(-3683.87 3295.57 0)
(-3699.88 3129.1 0)
(-3542.99 2971.13 0)
(-3292.76 2823.7 0)
(-2668.47 2690.61 0)
(-1259.95 2650.92 0)
(40270 2670.77 0)
(-59425.5 13662.8 0)
(68499.9 16985 0)
(-46033 3468.43 0)
(1233.86 3203.98 0)
(2801.91 3294.83 0)
(3484.92 3492.36 0)
(3763.25 3750.9 0)
(3922.59 3980.51 0)
(3908.12 4228.13 0)
(3595.56 4485.47 0)
(2743.26 4750.25 0)
(1471.38 4982.06 0)
(449.026 5105.34 0)
(58.1339 5130.99 0)
(2.15134 5132.38 0)
(0.0150789 5132.39 0)
(1.39548e-05 5132.39 0)
(-7.31262e-10 5132.39 0)
(-1.89153e-09 5132.39 0)
(-1.56003e-10 5132.39 0)
(4.48507e-10 5132.39 0)
(-1.17002e-10 5132.39 0)
(8.19013e-10 5132.39 0)
(-2.34004e-10 5132.39 0)
(-9.94516e-10 5132.39 0)
(-1.3953e-05 5132.39 0)
(-0.0150789 5132.39 0)
(-2.15134 5132.38 0)
(-58.1339 5130.99 0)
(-449.026 5105.34 0)
(-1471.38 4982.06 0)
(-2743.26 4750.24 0)
(-3595.56 4485.46 0)
(-3908.13 4228.11 0)
(-3922.6 3980.48 0)
(-3763.27 3750.86 0)
(-3484.94 3492.29 0)
(-2801.91 3294.76 0)
(-1233.84 3203.9 0)
(46033 3468.38 0)
(-68499.9 16985 0)
(79966.5 18331.3 0)
(-53549.9 3906.86 0)
(1092.67 3475.8 0)
(2946.36 3556.62 0)
(3732.24 3782.96 0)
(4013.39 4040.84 0)
(4159.76 4287.33 0)
(4170.46 4556.95 0)