/*--------------------------------*- C++ -*----------------------------------*\
| =========                 |                                                 |
| \\      /  F ield         | OpenFOAM: The Open Source CFD Toolbox           |
|  \\    /   O peration     | Version:  v1912                                 |
|   \\  /    A nd           | Website:  www.openfoam.com                      |
|    \\/     M anipulation  |                                                 |
\*---------------------------------------------------------------------------*/
FoamFile
{
    version     2.0;
    format      ascii;
    class       volScalarField;
    location    "3.94";
    object      p;
}
// * * * * * * * * * * * * * * * * * * * * * * * * * * * * * * * * * * * * * //

dimensions      [1 -1 -2 0 0 0 0];


internalField   nonuniform List<scalar> 
1900
(
28775.1
13060.9
11766.6
11630.8
11450.1
11273.5
11111.6
10953.5
10797
10685.1
28775.3
13061.1
11766.9
11631.4
11451.2
11275
11113.5
10952.5
10764.7
10606.7
28775.5
13061.1
11766.9
11631.2
11449.9
11272.2
11110.1
10953.1
10768.4
10612
28775.3
13061.1
11766.9
11631.4
11451.2
11275
11113.5
10952.5
10764.7
10606.7
28775.1
13060.9
11766.6
11630.8
11450.1
11273.5
11111.6
10953.5
10797
10685.1
10515.9
10388.7
10198.6
9925.62
9320
10428.3
10267
10062
9816.56
9333.52
10431.5
10263.1
10069.3
9825.91
9320.85
10428.3
10267
10062
9816.56
9333.52
10515.9
10388.7
10198.6
9925.62
9320
9132.01
8049.18
7401.55
6836.32
6311.32
9076.21
8073.07
7445.43
6874.57
6189.66
9067.5
8066.42
7437.46
6834.86
6109.31
9076.21
8073.07
7445.43
6874.57
6189.66
9132.01
8049.18
7401.55
6836.32
6311.32
5098.72
2551.39
2828.26
3134.06
3031.11
2864.92
2666.43
2485.12
2408.53
2347.41
2307.06
2271.08
2241.17
2216.37
2196.32
2180.22
2167.48
2157.39
2149.61
2142.95
2137.39
2132.28
2126.88
2121.52
2115.95
2110.35
2104.59
2098.28
2090.52
2079.86
2064.1
2042.67
2014.3
1985.59
1953.81
1928.55
1899.83
1881.47
2121.12
10069.5
5140.87
2688.7
2896.58
3174.33
3055.26
2875.76
2671.26
2486.2
2409.46
2347.86
2307.43
2271.32
2241.35
2216.51
2196.44
2180.34
2167.6
2157.5
2149.71
2143.05
2137.48
2132.37
2126.96
2121.6
2116.02
2110.42
2104.65
2098.34
2090.57
2079.91
2064.15
2042.71
2014.34
1985.7
1953.92
1928.91
1900.21
1882.09
2121.17
10072.5
5020.73
2931.97
3031.28
3217.65
3070.2
2881.23
2673.57
2487.18
2409.84
2348.2
2307.67
2271.46
2241.46
2216.59
2196.51
2180.4
2167.65
2157.55
2149.76
2143.1
2137.53
2132.42
2127.01
2121.64
2116.06
2110.46
2104.7
2098.4
2090.64
2080.01
2064.29
2042.92
2014.66
1986.2
1954.71
1930.13
1902
1884.37
2123.29
10199.1
5140.87
2688.7
2896.58
3174.33
3055.26
2875.76
2671.26
2486.2
2409.46
2347.86
2307.43
2271.32
2241.35
2216.51
2196.44
2180.34
2167.6
2157.5
2149.71
2143.05
2137.48
2132.37
2126.96
2121.6
2116.02
2110.42
2104.65
2098.34
2090.57
2079.91
2064.15
2042.71
2014.34
1985.7
1953.92
1928.91
1900.21
1882.09
2121.17
10072.5
5098.72
2551.39
2828.26
3134.06
3031.11
2864.92
2666.43
2485.12
2408.53
2347.41
2307.06
2271.08
2241.17
2216.37
2196.32
2180.22
2167.48
2157.39
2149.61
2142.95
2137.39
2132.28
2126.88
2121.52
2115.95
2110.35
2104.59
2098.28
2090.52
2079.86
2064.1
2042.67
2014.3
1985.59
1953.81
1928.55
1899.83
1881.47
2121.12
10069.5
5428.67
2230.02
2622.04
2963.16
2946.15
2819.78
2640.17
2477.49
2401.95
2343.91
2304.28
2269
2239.51
2215.01
2195.14
2179.15
2166.49
2156.46
2148.73
2142.12
2136.59
2131.5
2126.1
2120.74
2115.16
2109.54
2103.75
2097.39
2089.57
2078.87
2063.06
2041.67
2013.36
1984.41
1952.82
1926.83
1898.42
1879.04
2124.48
10564.9
5859
1988.73
2450.34
2721
2774.41
2702.04
2577.05
2456.34
2385.54
2336.09
2297.8
2264.16
2235.76
2211.94
2192.43
2176.67
2164.19
2154.31
2146.71
2140.19
2134.74
2129.71
2124.34
2118.99
2113.4
2107.76
2101.91
2095.48
2087.54
2076.76
2060.89
2039.49
2011.37
1981.85
1950.21
1922.81
1894.13
1873.21
2106.98
9994.2
6383.49
1926.08
2324.38
2554.17
2612.5
2576.73
2500.7
2421.78
2364.11
2323.21
2287.92
2256.86
2230.02
2207.14
2188.18
2172.77
2160.58
2150.93
2143.54
2137.17
2131.84
2126.9
2121.56
2116.23
2110.63
2104.94
2099.01
2092.46
2084.34
2073.41
2057.42
2036.03
2008.18
1977.83
1945.88
1916.76
1887.48
1865.26
2081.41
9836.8
7139.02
1908.17
2222.39
2399.78
2473.68
2465.54
2425.99
2380.09
2338.63
2306.23
2275.44
2247.55
2222.62
2200.86
2182.59
2167.69
2155.9
2146.59
2139.46
2133.3
2128.14
2123.31
2118.01
2112.7
2107.07
2101.33
2095.28
2088.56
2080.18
2069.11
2052.99
2031.51
2003.93
1972.56
1939.84
1908.92
1878.67
1855.89
2057.57
9645.83
7084.01
1878.62
2147.05
2278.79
2354.24
2370.06
2357.56
2336.2
2310.81
2286.05
2260.89
2236.39
2213.57
2193.12
2175.72
2161.47
2150.21
2141.34
2134.58
2128.67
2123.71
2119.01
2113.76
2108.45
2102.79
2096.95
2090.72
2083.77
2074.98
2063.69
2047.38
2025.75
1998.16
1965.42
1931.38
1898.53
1867.46
1844.86
2025.77
9468.71
7072.92
1843.25
2067.9
2179.08
2254.67
2289.61
2297.58
2294.45
2281.86
2264.77
2244.93
2223.81
2203.09
2184.07
2167.69
2154.23
2143.65
2135.34
2129.02
2123.41
2118.69
2114.14
2108.92
2103.61
2097.87
2091.9
2085.41
2078.16
2068.94
2057.41
2040.88
2018.82
1991.15
1956.87
1921.17
1886.38
1854.53
1832.64
1981.66
9158.11
7186.76
1809.86
2002.08
2099.85
2175.01
2221.18
2244.23
2254.46
2251.56
2242.12
2227.24
2209.47
2191.01
2173.63
2158.44
2145.98
2136.22
2128.6
2122.81
2117.56
2113.11
2108.71
2103.5
2098.15
2092.28
2086.09
2079.23
2071.54
2061.64
2049.78
2033.04
2010.3
1982.22
1946.14
1908.39
1871.88
1839.52
1819.25
1931.57
8812.18
6900.2
1773.15
1938.65
2027.39
2107.19
2162
2197.62
2218.81
2223.85
2220.18
2209.37
2194.38
2177.84
2161.9
2147.89
2136.51
2127.7
2120.87
2115.69
2110.83
2106.67
2102.43
2097.21
2091.79
2085.78
2079.34
2072.14
2064.14
2053.78
2041.59
2024.9
2001.34
1972.89
1934.53
1894.28
1855.02
1821.69
1801.9
1852.39
8357
6721.8
1741.15
1890.71
1971.35
2053.04
2111.97
2154.92
2183.53
2194.87
2196
2188.35
2176.04
2161.5
2147.35
2134.86
2124.81
2117.15
2111.25
2106.76
2102.35
2098.51
2094.4
2089.12
2083.57
2077.3
2070.52
2062.72
2054.19
2043.04
2030.79
2014.43
1990.09
1961.52
1921.94
1879.25
1838.18
1804.91
1786.49
1782.27
7865.42
6436.16
1703.8
1839.86
1912.45
1993.3
2057.92
2109.36
2145.64
2164.4
2170.5
2165.89
2156.24
2143.27
2130.42
2119.1
2110.15
2103.52
2098.5
2094.68
2090.69
2087.17
2083.22
2077.92
2072.35
2065.96
2059.03
2050.95
2042.13
2030.72
2017.33
2000.8
1974.17
1943.46
1900.25
1853.41
1808.5
1773.71
1755.68
1705.17
7311.45
6092.2
1666.96
1799.12
1868.29
1946.71
2011.68
2068.41
2109.54
2133.38
2142.6
2139.52
2131.46
2119.29
2107.74
2097.66
2089.91
2084.37
2080.26
2077.13
2073.59
2070.36
2066.57
2061.26
2055.74
2049.31
2042.38
2034.17
2025.41
2014.43
2000.97
1985.38
1957.56
1925.5
1879.47
1828.81
1780.25
1743.22
1725.92
1648.52
6721.16
5707.79
1624.35
1749.31
1817.72
1887.48
1953.72
2015.51
2060.56
2090.41
2102.26
2102.42
2097.06
2087.57
2078.54
2070.32
2064.13
2059.73
2056.49
2054.07
2050.94
2047.92
2044.29
2039
2033.46
2026.83
2019.38
2010.53
2000.81
1988.64
1972.8
1956.21
1925.58
1890.85
1840.65
1785.96
1733.21
1693.52
1676
1593.48
6108.82
5294.35
1572.82
1689.77
1754.98
1822.01
1891.14
1956.1
2006.76
2044.08
2057.82
2060.77
2057.92
2050.24
2043.25
2036.94
2032.2
2028.8
2026.15
2024.13
2021.21
2018.4
2015.17
2010.26
2005.11
1998.61
1991.02
1981.49
1971.04
1958.21
1940.03
1921.76
1887.45
1848.14
1793.31
1734.7
1678.45
1636.06
1617.51
1538.88
5510.67
4866.13
1519.28
1626.97
1685.41
1749.98
1821.09
1885.29
1940.51
1981.88
1999.26
2007.05
2007.07
2003.43
2000.6
1997.79
1996.05
1994.99
1994.04
1993.53
1991.44
1988.63
1985.13
1979.47
1973.31
1965.41
1956.11
1944.77
1932.1
1917.61
1895.27
1874.2
1836.13
1792.71
1734.71
1673.53
1615.82
1572.03
1553.57
1482.1
4928.49
4448.54
1460.85
1559.84
1614.99
1677.44
1748.5
1812.94
1871.27
1914.69
1936.69
1951.24
1954.78
1955.28
1957.01
1957.5
1958.64
1959.6
1959.87
1960.05
1958.28
1955.77
1952.64
1946.93
1940.31
1931.3
1920.46
1907.11
1891.77
1875.02
1849.46
1825.26
1783.77
1736.47
1675.67
1612.49
1553.07
1508.24
1489.25
1424.48
4401.07
4020.51
1412.76
1503.06
1551.68
1612.83
1683.69
1749.82
1812.34
1853.82
1879.16
1897.87
1905.62
1910.46
1916.03
1919.86
1923.92
1927.33
1929.65
1931.77
1931.16
1928.64
1924.74
1917.64
1909.57
1898.97
1886.6
1871.9
1855
1837.52
1808.99
1782.24
1737.26
1686.38
1623.7
1558.7
1499.17
1453.1
1436.23
1377.98
3897.06
3731.01
1381.86
1459.95
1503.18
1561.05
1629.68
1696.66
1761.61
1805.67
1837.69
1858.16
1866.8
1873.19
1880.37
1885.97
1891.64
1896.53
1899.9
1902.9
1902.64
1900.21
1896.47
1888.92
1880.15
1868.9
1855.98
1841.21
1823.99
1806.48
1777.04
1750.04
1704.32
1651.32
1587.18
1520.87
1460.11
1414.5
1400.27
1351.4
3564.81
3402.5
1386.28
1458.9
1489.68
1541.96
1607.85
1673.98
1738.53
1783.05
1814.11
1833.8
1842.69
1850.26
1857.01
1862.52
1868.68
1874.5
1879.39
1884.33
1885.53
1883
1877.91
1868.88
1859.29
1847.92
1835.59
1822.32
1805.97
1790.72
1761.66
1735.05
1689.68
1636.44
1572.75
1506.3
1447.19
1404.52
1394.58
1356.28
3203.52
5237.19
1498.16
1462.38
1467.44
1503.81
1557.4
1611.06
1665.71
1718.12
1776.52
1852.44
1925.03
2003.6
2054.62
2100.18
2129.18
2150.04
2158.46
2167.59
2162.14
2159.42
2161.48
2148.61
2135.85
2110.83
2074.41
2029.68
1958.78
1891.08
1789.5
1713.21
1636.98
1571.37
1509.07
1448.17
1394.97
1361
1364.33
1436.31
5003.15
45721.3
5390.77
3642.4
4019.68
4375.44
4897.61
5430.27
6015.98
6591.96
7173.66
7715.3
8230.49
8706.94
9126.29
9479.41
9764.28
9952.16
10143.8
10233.2
10309.5
10305.7
10215.8
10122.6
9904.77
9723.86
9397.33
9051.46
8587.02
8093.9
7546.76
6966.08
6353.68
5738.26
5122.55
4558.09
4009.19
3641.47
3239.22
4884.54
42149.2
45721.3
5390.77
3642.4
4019.68
4375.44
4897.61
5430.27
6015.98
6591.96
7173.66
7715.3
8230.49
8706.94
9126.29
9479.41
9764.28
9952.16
10143.8
10233.2
10309.5
10305.7
10215.8
10122.6
9904.77
9723.86
9397.33
9051.46
8587.02
8093.9
7546.76
6966.08
6353.68
5738.26
5122.55
4558.09
4009.19
3641.47
3239.22
4884.54
42149.2
5237.19
1498.16
1462.38
1467.44
1503.81
1557.4
1611.06
1665.71
1718.12
1776.52
1852.44
1925.03
2003.6
2054.62
2100.18
2129.18
2150.04
2158.46
2167.59
2162.14
2159.42
2161.48
2148.61
2135.85
2110.83
2074.41
2029.68
1958.78
1891.08
1789.5
1713.21
1636.98
1571.37
1509.07
1448.17
1394.97
1361
1364.33
1436.31
5003.15
3402.5
1386.28
1458.9
1489.68
1541.96
1607.85
1673.98
1738.53
1783.05
1814.11
1833.8
1842.69
1850.26
1857.01
1862.52
1868.68
1874.5
1879.39
1884.33
1885.53
1883
1877.91
1868.88
1859.29
1847.92
1835.59
1822.32
1805.97
1790.72
1761.66
1735.05
1689.68
1636.44
1572.75
1506.3
1447.19
1404.52
1394.58
1356.28
3203.52
3731.01
1381.86
1459.95
1503.18
1561.05
1629.68
1696.66
1761.61
1805.67
1837.69
1858.16
1866.8
1873.19
1880.37
1885.97
1891.64
1896.53
1899.9
1902.9
1902.64
1900.21
1896.47
1888.92
1880.15
1868.9
1855.98
1841.21
1823.99
1806.48
1777.04
1750.04
1704.32
1651.32
1587.18
1520.87
1460.11
1414.5
1400.27
1351.4
3564.81
4020.51
1412.76
1503.06
1551.68
1612.83
1683.69
1749.82
1812.34
1853.82
1879.16
1897.87
1905.62
1910.46
1916.03
1919.86
1923.92
1927.33
1929.65
1931.77
1931.16
1928.64
1924.74
1917.64
1909.57
1898.97
1886.6
1871.9
1855
1837.52
1808.99
1782.24
1737.26
1686.38
1623.7
1558.7
1499.17
1453.1
1436.23
1377.98
3897.06
4448.54
1460.85
1559.84
1614.99
1677.44
1748.5
1812.94
1871.27
1914.69
1936.69
1951.24
1954.78
1955.28
1957.01
1957.5
1958.64
1959.6
1959.87
1960.05
1958.28
1955.77
1952.64
1946.93
1940.31
1931.3
1920.46
1907.11
1891.77
1875.02
1849.46
1825.26
1783.77
1736.47
1675.67
1612.49
1553.07
1508.24
1489.25
1424.48
4401.07
4866.13
1519.28
1626.97
1685.41
1749.98
1821.09
1885.29
1940.51
1981.88
1999.26
2007.05
2007.07
2003.43
2000.6
1997.79
1996.05
1994.99
1994.04
1993.53
1991.44
1988.63
1985.13
1979.47
1973.31
1965.41
1956.11
1944.77
1932.1
1917.61
1895.27
1874.2
1836.13
1792.71
1734.71
1673.53
1615.82
1572.03
1553.57
1482.1
4928.49
5294.35
1572.82
1689.77
1754.98
1822.01
1891.14
1956.1
2006.76
2044.08
2057.82
2060.77
2057.92
2050.24
2043.25
2036.94
2032.2
2028.8
2026.15
2024.13
2021.21
2018.4
2015.17
2010.26
2005.11
1998.61
1991.02
1981.49
1971.04
1958.21
1940.03
1921.76
1887.45
1848.14
1793.31
1734.7
1678.45
1636.06
1617.51
1538.88
5510.67
5707.79
1624.35
1749.31
1817.72
1887.48
1953.72
2015.51
2060.56
2090.41
2102.26
2102.42
2097.06
2087.57
2078.54
2070.32
2064.13
2059.73
2056.49
2054.07
2050.94
2047.92
2044.29
2039
2033.46
2026.83
2019.38
2010.53
2000.81
1988.64
1972.8
1956.21
1925.58
1890.85
1840.65
1785.96
1733.21
1693.52
1676
1593.48
6108.82
6092.2
1666.96
1799.12
1868.29
1946.71
2011.68
2068.41
2109.54
2133.38
2142.6
2139.52
2131.46
2119.29
2107.74
2097.66
2089.91
2084.37
2080.26
2077.13
2073.59
2070.36
2066.57
2061.26
2055.74
2049.31
2042.38
2034.17
2025.41
2014.43
2000.97
1985.38
1957.56
1925.5
1879.47
1828.81
1780.25
1743.22
1725.92
1648.52
6721.16
6436.16
1703.8
1839.86
1912.45
1993.3
2057.92
2109.36
2145.64
2164.4
2170.5
2165.89
2156.24
2143.27
2130.42
2119.1
2110.15
2103.52
2098.5
2094.68
2090.69
2087.17
2083.22
2077.92
2072.35
2065.96
2059.03
2050.95
2042.13
2030.72
2017.33
2000.8
1974.17
1943.46
1900.25
1853.41
1808.5
1773.71
1755.68
1705.17
7311.45
6721.8
1741.15
1890.71
1971.35
2053.04
2111.97
2154.92
2183.53
2194.87
2196
2188.35
2176.04
2161.5
2147.35
2134.86
2124.81
2117.15
2111.25
2106.76
2102.35
2098.51
2094.4
2089.12
2083.57
2077.3
2070.52
2062.72
2054.19
2043.04
2030.79
2014.43
1990.09
1961.52
1921.94
1879.25
1838.18
1804.91
1786.49
1782.27
7865.42
6900.2
1773.15
1938.65
2027.39
2107.19
2162
2197.62
2218.81
2223.85
2220.18
2209.37
2194.38
2177.84
2161.9
2147.89
2136.51
2127.7
2120.87
2115.69
2110.83
2106.67
2102.43
2097.21
2091.79
2085.78
2079.34
2072.14
2064.14
2053.78
2041.59
2024.9
2001.34
1972.89
1934.53
1894.28
1855.02
1821.69
1801.9
1852.39
8357
7186.76
1809.86
2002.08
2099.85
2175.01
2221.18
2244.23
2254.46
2251.56
2242.12
2227.24
2209.47
2191.01
2173.63
2158.44
2145.98
2136.22
2128.6
2122.81
2117.56
2113.11
2108.71
2103.5
2098.15
2092.28
2086.09
2079.23
2071.54
2061.64
2049.78
2033.04
2010.3
1982.22
1946.14
1908.39
1871.88
1839.52
1819.25
1931.57
8812.18
7072.92
1843.25
2067.9
2179.08
2254.67
2289.61
2297.58
2294.45
2281.86
2264.77
2244.93
2223.81
2203.09
2184.07
2167.69
2154.23
2143.65
2135.34
2129.02
2123.41
2118.69
2114.14
2108.92
2103.61
2097.87
2091.9
2085.41
2078.16
2068.94
2057.41
2040.88
2018.82
1991.15
1956.87
1921.17
1886.38
1854.53
1832.64
1981.66
9158.11
7084.01
1878.62
2147.05
2278.79
2354.24
2370.06
2357.56
2336.2
2310.81
2286.05
2260.89
2236.39
2213.57
2193.12
2175.72
2161.47
2150.21
2141.34
2134.58
2128.67
2123.71
2119.01
2113.76
2108.45
2102.79
2096.95
2090.72
2083.77
2074.98
2063.69
2047.38
2025.75
1998.16
1965.42
1931.38
1898.53
1867.46
1844.86
2025.77
9468.71
7139.02
1908.17
2222.39
2399.78
2473.68
2465.54
2425.99
2380.09
2338.63
2306.23
2275.44
2247.55
2222.62
2200.86
2182.59
2167.69
2155.9
2146.59
2139.46
2133.3
2128.14
2123.31
2118.01
2112.7
2107.07
2101.33
2095.28
2088.56
2080.18
2069.11
2052.99
2031.51
2003.93
1972.56
1939.84
1908.92
1878.67
1855.89
2057.57
9645.83
6383.49
1926.08
2324.38
2554.17
2612.5
2576.73
2500.7
2421.78
2364.11
2323.21
2287.92
2256.86
2230.02
2207.14
2188.18
2172.77
2160.58
2150.93
2143.54
2137.17
2131.84
2126.9
2121.56
2116.23
2110.63
2104.94
2099.01
2092.46
2084.34
2073.41
2057.42
2036.03
2008.18
1977.83
1945.88
1916.76
1887.48
1865.26
2081.41
9836.8
5859
1988.73
2450.34
2721
2774.41
2702.04
2577.05
2456.34
2385.54
2336.09
2297.8
2264.16
2235.76
2211.94
2192.43
2176.67
2164.19
2154.31
2146.71
2140.19
2134.74
2129.71
2124.34
2118.99
2113.4
2107.76
2101.91
2095.48
2087.54
2076.76
2060.89
2039.49
2011.37
1981.85
1950.21
1922.81
1894.13
1873.21
2106.98
9994.2
5428.67
2230.02
2622.04
2963.16
2946.15
2819.78
2640.17
2477.49
2401.95
2343.91
2304.28
2269
2239.51
2215.01
2195.14
2179.15
2166.49
2156.46
2148.73
2142.12
2136.59
2131.5
2126.1
2120.74
2115.16
2109.54
2103.75
2097.39
2089.57
2078.87
2063.06
2041.67
2013.36
1984.41
1952.82
1926.83
1898.42
1879.04
2124.48
10564.9
)
;

boundaryField
{
    inlet
    {
        type            fixedValue;
        value           uniform 10000;
    }
    outlet
    {
        type            fixedValue;
        value           uniform 1000;
    }
    obstacle
    {
        type            zeroGradient;
    }
    empty
    {
        type            empty;
    }
}


// ************************************************************************* //
