/*--------------------------------*- C++ -*----------------------------------*\
| =========                 |                                                 |
| \\      /  F ield         | OpenFOAM: The Open Source CFD Toolbox           |
|  \\    /   O peration     | Version:  v1912                                 |
|   \\  /    A nd           | Website:  www.openfoam.com                      |
|    \\/     M anipulation  |                                                 |
\*---------------------------------------------------------------------------*/
FoamFile
{
    version     2.0;
    format      ascii;
    class       Cloud<dsmcParcel>;
    location    "4e-05/lagrangian/dsmc";
    object      positions;
}
// * * * * * * * * * * * * * * * * * * * * * * * * * * * * * * * * * * * * * //

11282
(
(0.03584290561 0.01302080384 2.5e-05) 311
(0.0499959015 0.0132143269 2.5e-05) 833
(0.04121354632 0.009987301992 2.5e-05) 1295
(0.05478035541 0.01533721448 2.5e-05) 858
(0.050021616 0.01428658141 2.5e-05) 843
(0.05590932844 0.01400567899 2.5e-05) 849
(0.04671271867 0.01282262792 2.5e-05) 820
(0.05297697193 0.01818123916 2.5e-05) 886
(0.04173531812 0.01312636788 2.5e-05) 316
(0.04467961376 0.01278912982 2.5e-05) 288
(0.05357202321 0.01320231283 2.5e-05) 837
(0.05489553619 0.01546255595 2.5e-05) 858
(0.04425155818 0.01073995005 2.5e-05) 228
(0.046349481 0.01327044479 2.5e-05) 319
(0.05328202284 0.01543424631 2.5e-05) 856
(0.04885870928 0.0128139815 2.5e-05) 822
(0.03541571175 0.011925736 2.5e-05) 250
(0.05349028352 0.0130346162 2.5e-05) 837
(0.04292047451 0.008896893408 2.5e-05) 1267
(0.05019374181 0.01405971113 2.5e-05) 843
(0.05132092886 0.01529275231 2.5e-05) 854
(0.05429815331 0.01782535829 2.5e-05) 877
(0.05252163315 0.01453185187 2.5e-05) 846
(0.0435013513 0.01610672007 2.5e-05) 407
(0.03486628058 0.0146950102 2.5e-05) 340
(0.05072718949 0.01576055074 2.5e-05) 854
(0.0370877302 0.009432681044 2.5e-05) 1292
(0.03778726612 0.01245310404 2.5e-05) 282
(0.04342001148 0.01072599371 2.5e-05) 227
(0.05425919375 0.01344933206 2.5e-05) 837
(0.04271735272 0.007894185413 2.5e-05) 1236
(0.0431125775 0.01198558209 2.5e-05) 257
(0.04845625876 0.01707454714 2.5e-05) 872
(0.05033453309 0.01490146899 2.5e-05) 843
(0.045891866 0.01640354464 2.5e-05) 409
(0.05443762429 0.01214020569 2.5e-05) 828
(0.05270353809 0.01998019716 2.5e-05) 896
(0.05156562221 0.01637082006 2.5e-05) 865
(0.05065640633 0.01442161076 2.5e-05) 844
(0.05079349026 0.0134993172 2.5e-05) 834
(0.05132234712 0.01221103774 2.5e-05) 824
(0.0536634441 0.01022382375 2.5e-05) 807
(0.03554126106 0.01162008529 2.5e-05) 251
(0.05477871361 0.01409787708 2.5e-05) 848
(0.03150500922 0.008617847509 2.5e-05) 1257
(0.0218066979 0.007988821619 2.5e-05) 1218
(0.04234349121 0.009754409452 2.5e-05) 1296
(0.04492281709 0.006748570421 2.5e-05) 1208
(0.03481723885 0.01112250771 2.5e-05) 250
(0.04236553158 0.006883317568 2.5e-05) 1206
(0.03719805308 0.008303224329 2.5e-05) 1262
(0.03848321624 0.009445737165 2.5e-05) 1293
(0.03687590992 0.01053091048 2.5e-05) 222
(0.04250164935 0.002061724758 2.5e-05) 1086
(0.03689416118 0.00341812047 2.5e-05) 1111
(0.04309036602 0.01137124801 2.5e-05) 257
(0.04433972281 0.007064148842 2.5e-05) 1238
(0.04132997388 0.007963732752 2.5e-05) 1235
(0.03901484483 0.008788860183 2.5e-05) 1263
(0.04635835071 0.005622078101 2.5e-05) 1179
(0.04301377412 0.01169275337 2.5e-05) 257
(0.04293406905 0.009034673502 2.5e-05) 1297
(0.05268831037 0.01453433062 2.5e-05) 846
(0.03978767025 0.007047759654 2.5e-05) 1234
(0.03750932405 0.003732790927 2.5e-05) 1111
(0.04034960988 0.004662098126 2.5e-05) 1144
(0.03803591953 0.003337208484 2.5e-05) 1112
(0.03767132867 0.009477684211 2.5e-05) 1292
(0.04111084133 0.003889546653 2.5e-05) 1115
(0.03980627053 0.009994502878 2.5e-05) 1294
(0.04032672741 0.01541941471 2.5e-05) 374
(0.02563704618 0.008791652278 2.5e-05) 1252
(0.03917041293 0.01323266819 2.5e-05) 314
(0.04113499043 0.008770316555 2.5e-05) 1265
(0.03639127291 0.01241591105 2.5e-05) 281
(0.02814623358 0.002032878651 2.5e-05) 1072
(0.04358281305 0.005935160276 2.5e-05) 1177
(0.03244390799 0.0111646434 2.5e-05) 248
(0.04935495915 0.01250346248 2.5e-05) 822
(0.04019347984 0.00851287852 2.5e-05) 1264
(0.05017675263 0.01618559507 2.5e-05) 863
(0.04364928409 0.005469021992 2.5e-05) 1177
(0.05162114508 0.01662204521 2.5e-05) 865
(0.04300311314 0.01279684541 2.5e-05) 287
(0.04360511678 0.01337015316 2.5e-05) 317
(0.0395310571 0.01368114363 2.5e-05) 314
(0.04250615471 0.005267604673 2.5e-05) 1176
(0.02888626143 0.008720622712 2.5e-05) 1255
(0.04125627352 0.01011977262 2.5e-05) 225
(0.04005763766 0.01062351852 2.5e-05) 224
(0.04473181586 0.0073026718 2.5e-05) 1238
(0.04017557341 0.01007287878 2.5e-05) 224
(0.0501226407 0.0184717093 2.5e-05) 883
(0.04106431923 0.0087086337 2.5e-05) 1265
(0.02773048517 0.00482323412 2.5e-05) 1133
(0.04874935486 0.01217013585 2.5e-05) 822
(0.04559767665 0.00468815148 2.5e-05) 1149
(0.0492803985 0.01335470583 2.5e-05) 832
(0.04428453532 0.008122108897 2.5e-05) 1268
(0.04525313651 0.007862374342 2.5e-05) 1239
(0.0379495134 0.004128348741 2.5e-05) 1142
(0.05408793297 0.01263985797 2.5e-05) 827
(0.05575899035 0.01494732403 2.5e-05) 849
(0.04126904857 0.00431500217 2.5e-05) 1145
(0.03991604228 0.007483531208 2.5e-05) 1234
(0.05540854177 0.01801491129 2.5e-05) 888
(0.05339478986 0.015898864 2.5e-05) 856
(0.05640822868 0.01395300138 2.5e-05) 839
(0.05069357008 0.01632811202 2.5e-05) 864
(0.04424470141 0.01307043713 2.5e-05) 318
(0.03164917289 0.01272087848 2.5e-05) 277
(0.04981813846 0.01497304592 2.5e-05) 843
(0.04597921043 0.0086189518 2.5e-05) 1269
(0.05481302936 0.01489603228 2.5e-05) 848
(0.04354725157 0.008138353568 2.5e-05) 1267
(0.03641604508 0.005577296456 2.5e-05) 1171
(0.04906180897 0.01631766004 2.5e-05) 862
(0.04115143126 0.01076196544 2.5e-05) 225
(0.04380539016 0.01010230847 2.5e-05) 227
(0.04394598583 0.00930123188 2.5e-05) 1297
(0.05152528382 0.01040768359 2.5e-05) 805
(0.047688595 0.01581778291 2.5e-05) 851
(0.04999582285 0.0145487767 2.5e-05) 843
(0.05044526974 0.0158618652 2.5e-05) 854
(0.04507985261 0.01395105792 2.5e-05) 318
(0.05082588252 0.01694329117 2.5e-05) 864
(0.04340395976 0.01246897755 2.5e-05) 287
(0.04081420777 0.007997363481 2.5e-05) 1235
(0.03983780022 0.006577917818 2.5e-05) 1204
(0.05436280534 0.01686571891 2.5e-05) 867
(0.04102042232 0.006430521668 2.5e-05) 1205
(0.05508224313 0.01850584643 2.5e-05) 888
(0.05284152038 0.0110429839 2.5e-05) 816
(0.03619780849 0.006144499245 2.5e-05) 1200
(0.05640572942 0.01228397834 2.5e-05) 829
(0.05412432259 0.01800342756 2.5e-05) 887
(0.05233742169 0.01797956667 2.5e-05) 875
(0.04084108006 0.01155892648 2.5e-05) 255
(0.04635392057 0.01458527598 2.5e-05) 349
(0.0380640782 0.009082294479 2.5e-05) 1293
(0.05433737457 0.02020355763 2.5e-05) 907
(0.04142215421 0.01363577981 2.5e-05) 315
(0.05278650788 0.01527748681 2.5e-05) 856
(0.03679237316 0.01378896418 2.5e-05) 312
(0.05326101256 0.01648407794 2.5e-05) 866
(0.04537263652 0.01177207559 2.5e-05) 259
(0.04255340369 0.0122951981 2.5e-05) 286
(0.05508286379 0.01575160946 2.5e-05) 858
(0.05552347066 0.01682326316 2.5e-05) 869
(0.04913817034 0.01297830414 2.5e-05) 822
(0.05235144295 0.01838177817 2.5e-05) 885
(0.04487356915 0.01618595254 2.5e-05) 408
(0.05148319438 0.01941557473 2.5e-05) 895
(0.05368290388 0.01345839965 2.5e-05) 837
(0.04366466162 0.008407281312 2.5e-05) 1267
(0.05555733852 0.01672195768 2.5e-05) 869
(0.04680371043 0.01779174799 2.5e-05) 870
(0.0559790763 0.0126844081 2.5e-05) 829
(0.04863880103 0.01011155298 2.5e-05) 802
(0.04745867628 0.01326047222 2.5e-05) 831
(0.03461009231 0.006011500383 2.5e-05) 1199
(0.04567247794 0.01351631562 2.5e-05) 319
(0.04478090213 0.004061368035 2.5e-05) 1148
(0.03987368105 0.01017240104 2.5e-05) 224
(0.05372972498 0.01507125018 2.5e-05) 857
(0.03879070179 0.01071152415 2.5e-05) 223
(0.03775117004 0.01238987516 2.5e-05) 282
(0.03605857953 0.01612461476 2.5e-05) 401
(0.03335392611 0.007957859416 2.5e-05) 1228
(0.05604174505 0.0112979581 2.5e-05) 819
(0.04633397158 0.0158387538 2.5e-05) 379
(0.02642961075 0.009236485931 2.5e-05) 1283
(0.03251161556 0.01093444383 2.5e-05) 218
(0.025585041 0.01080244065 2.5e-05) 212
(0.03760303419 0.01205042613 2.5e-05) 282
(0.0281962097 0.009242167905 2.5e-05) 1284
(0.04549893888 0.01490331544 2.5e-05) 349
(0.0392226937 0.01033028481 2.5e-05) 224
(0.04482479924 0.01370321518 2.5e-05) 318
(0.03183920053 0.007470000069 2.5e-05) 1227
(0.04166849644 0.01373268623 2.5e-05) 316
(0.0358521013 0.008523072842 2.5e-05) 1261
(0.04292589429 0.009950465502 2.5e-05) 1297
(0.03594547229 0.01167600145 2.5e-05) 251
(0.04287005402 0.009763976344 2.5e-05) 1297
(0.02730594533 0.005995469332 2.5e-05) 1163
(0.03004055691 0.01232479771 2.5e-05) 276
(0.04945013182 0.01657248983 2.5e-05) 863
(0.03492844575 0.007778654257 2.5e-05) 1230
(0.03957605001 0.01151495335 2.5e-05) 254
(0.05413303599 0.01405682655 2.5e-05) 847
(0.0144611601 0.007501921097 2.5e-05) 1212
(0.03170215215 0.009139086181 2.5e-05) 1287
(0.03554939372 0.009296114938 2.5e-05) 1290
(0.04438741282 0.01463805688 2.5e-05) 348
(0.03785282722 0.01180626937 2.5e-05) 252
(0.02932538801 0.00953066589 2.5e-05) 1285
(0.05224944683 0.01714358774 2.5e-05) 875
(0.04007148824 0.004436699439 2.5e-05) 1144
(0.04113635207 0.01004670597 2.5e-05) 225
(0.04028764825 0.01302163108 2.5e-05) 314
(0.04339799922 0.009796253788 2.5e-05) 1297
(0.04523407129 0.0059291426 2.5e-05) 1178
(0.05637770604 0.01389920542 2.5e-05) 839
(0.04088050584 0.01201695001 2.5e-05) 285
(0.0413113996 0.01362718162 2.5e-05) 315
(0.05407221527 0.01615822794 2.5e-05) 867
(0.01862333925 0.009016561233 2.5e-05) 1276
(0.0441342962 0.0222457285 2.5e-05) 588
(0.04372003082 0.011570891 2.5e-05) 257
(0.04722871775 0.01164008359 2.5e-05) 810
(0.05593872042 0.02210643786 2.5e-05) 929
(0.04103377724 0.01320414245 2.5e-05) 315
(0.05390119323 0.01459672734 2.5e-05) 847
(0.03757266696 0.01127882582 2.5e-05) 252
(0.04124950893 0.01514997959 2.5e-05) 375
(0.05476272074 0.01487724968 2.5e-05) 848
(0.05325603261 0.01758303886 2.5e-05) 876
(0.05432544404 0.01746782564 2.5e-05) 877
(0.05346650775 0.01796980383 2.5e-05) 877
(0.05488377006 0.01439873605 2.5e-05) 848
(0.05140903643 0.01330406218 2.5e-05) 834
(0.05167928384 0.02093906432 2.5e-05) 905
(0.04975654236 0.01462153879 2.5e-05) 843
(0.04706353426 0.01544790325 2.5e-05) 850
(0.05079974834 0.015877779 2.5e-05) 854
(0.05511594081 0.02101114872 2.5e-05) 918
(0.0509084991 0.02065113076 2.5e-05) 904
(0.05539683726 0.01657926933 2.5e-05) 868
(0.04856907285 0.0184662217 2.5e-05) 882
(0.04445210809 0.0121130223 2.5e-05) 288
(0.02421918979 0.009333604102 2.5e-05) 1281
(0.05594853232 0.02816060253 2.5e-05) 989
(0.05436836054 0.02080506426 2.5e-05) 907
(0.05020571496 0.01184836148 2.5e-05) 813
(0.0474239517 0.01587503438 2.5e-05) 851
(0.04710366609 0.01072807724 2.5e-05) 800
(0.05611648765 0.01490525403 2.5e-05) 849
(0.02614215422 0.003165185504 2.5e-05) 1101
(0.04937998609 0.01411421263 2.5e-05) 842
(0.04093257131 0.0107759131 2.5e-05) 225
(0.03064547939 0.008034812318 2.5e-05) 1256
(0.02871123579 0.006978761316 2.5e-05) 1194
(0.03992931642 0.01219479646 2.5e-05) 284
(0.04419076635 0.01303525284 2.5e-05) 318
(0.03421132323 0.009262530013 2.5e-05) 1289
(0.0448495622 0.01769953644 2.5e-05) 438
(0.03557880782 0.01112057868 2.5e-05) 251
(0.02931655516 0.01463159831 2.5e-05) 335
(0.04161292846 0.01263756526 2.5e-05) 286
(0.02577490968 0.01273209041 2.5e-05) 272
(0.03437197813 0.006212113784 2.5e-05) 1199
(0.02700310206 0.005472325402 2.5e-05) 1162
(0.03049242684 0.009461616955 2.5e-05) 1286
(0.03872546683 0.01600915176 2.5e-05) 403
(0.05178464858 0.01777054297 2.5e-05) 875
(0.04424520071 0.01171980557 2.5e-05) 258
(0.04189550725 0.01724959846 2.5e-05) 436
(0.04570171532 0.01759654807 2.5e-05) 439
(0.03695085697 0.01327635542 2.5e-05) 312
(0.03884377078 0.0160688475 2.5e-05) 403
(0.04687989221 0.01655911617 2.5e-05) 860
(0.04753503099 0.01108946927 2.5e-05) 811
(0.04119453818 0.01501061905 2.5e-05) 375
(0.03807304166 0.001764296871 2.5e-05) 1051
(0.03331996711 0.002958819557 2.5e-05) 1077
(0.04522144989 0.01647306368 2.5e-05) 409
(0.04153321193 0.01322563311 2.5e-05) 315
(0.05368892627 0.01565061992 2.5e-05) 857
(0.04432946925 0.01521768499 2.5e-05) 378
(0.0376401482 0.007248332293 2.5e-05) 1232
(0.02924705746 0.008439218232 2.5e-05) 1255
(0.03408155693 0.009555039172 2.5e-05) 1289
(0.02441911544 0.007684367323 2.5e-05) 1221
(0.03360479735 0.01136680843 2.5e-05) 249
(0.0440711771 0.0120654834 2.5e-05) 288
(0.03226580949 0.006641117737 2.5e-05) 1197
(0.04078341742 0.01112275816 2.5e-05) 255
(0.02703724522 0.006874212855 2.5e-05) 1193
(0.04670151334 0.01248991372 2.5e-05) 820
(0.04150608169 0.009804802176 2.5e-05) 1295
(0.02457472024 0.007908392842 2.5e-05) 1221
(0.03822109712 0.002970422107 2.5e-05) 1082
(0.03369351583 0.01236969035 2.5e-05) 279
(0.04535727523 0.01813815302 2.5e-05) 469
(0.04956720204 0.01856991512 2.5e-05) 883
(0.04491526411 0.01007017181 2.5e-05) 228
(0.04286033672 0.007096657007 2.5e-05) 1236
(0.02953071572 0.007629366755 2.5e-05) 1225
(0.04657818883 0.01465116808 2.5e-05) 840
(0.038247574 0.01081539195 2.5e-05) 223
(0.0464565641 0.01214713308 2.5e-05) 820
(0.05357093836 0.01618742315 2.5e-05) 867
(0.04382681675 0.01658799905 2.5e-05) 407
(0.05320361574 0.01342672782 2.5e-05) 836
(0.03663325888 0.01542141219 2.5e-05) 371
(0.05396914682 0.0168159346 2.5e-05) 867
(0.05577563574 0.02112293777 2.5e-05) 919
(0.05491247518 0.01863321567 2.5e-05) 888
(0.05072740734 0.01674300524 2.5e-05) 864
(0.05149245334 0.02053784577 2.5e-05) 905
(0.05054414878 0.01588087028 2.5e-05) 854
(0.04730893252 0.01824888788 2.5e-05) 880
(0.04844778627 0.01772427492 2.5e-05) 872
(0.03565393514 0.01224835161 2.5e-05) 281
(0.03566080267 0.01047283139 2.5e-05) 221
(0.04329919581 0.01352331475 2.5e-05) 317
(0.04810348866 0.01681787104 2.5e-05) 861
(0.03885116403 0.01061926709 2.5e-05) 223
(0.04997405456 0.01703018993 2.5e-05) 873
(0.05638110696 0.01934835113 2.5e-05) 899
(0.05572751927 0.01610165514 2.5e-05) 869
(0.04134416001 0.01281769074 2.5e-05) 285
(0.0559582898 0.02067602438 2.5e-05) 909
(0.04923763706 0.01129641006 2.5e-05) 812
(0.05319751647 0.01614266353 2.5e-05) 866
(0.05611698688 0.01769849446 2.5e-05) 879
(0.05600830636 0.01904042936 2.5e-05) 899
(0.04731827616 0.01535238258 2.5e-05) 850
(0.04287679372 0.01569495132 2.5e-05) 377
(0.04725182049 0.0137920578 2.5e-05) 830
(0.04316638063 0.01039578609 2.5e-05) 227
(0.04979146227 0.01923561496 2.5e-05) 893
(0.0257835902 0.01095027032 2.5e-05) 213
(0.04441061186 0.01550265754 2.5e-05) 378
(0.03845352131 0.01211761975 2.5e-05) 283
(0.03492430485 0.01099154159 2.5e-05) 220
(0.05319408741 0.01899183224 2.5e-05) 886
(0.03483938135 0.008490297551 2.5e-05) 1260
(0.04778022726 0.01588700956 2.5e-05) 851
(0.04723719317 0.01437277553 2.5e-05) 840
(0.02904321818 0.00395386865 2.5e-05) 1103
(0.05432506665 0.01691242117 2.5e-05) 867
(0.05386221131 0.01849989332 2.5e-05) 887
(0.0508072193 0.02303876364 2.5e-05) 934
(0.05584592385 0.01881595411 2.5e-05) 889
(0.05510187019 0.01498271083 2.5e-05) 848
(0.05530272188 0.02890289854 2.5e-05) 988
(0.04822578956 0.01298049942 2.5e-05) 821
(0.05607948682 0.01863338358 2.5e-05) 889
(0.05547245873 0.02791338206 2.5e-05) 979
(0.05204346346 0.01473101849 2.5e-05) 845
(0.05542460842 0.02884079146 2.5e-05) 989
(0.05600878511 0.02762386553 2.5e-05) 979
(0.05521153386 0.0238341689 2.5e-05) 938
(0.05502109069 0.02871423243 2.5e-05) 988
(0.05521909418 0.02814079596 2.5e-05) 988
(0.0563408968 0.02824367113 2.5e-05) 989
(0.02769228576 0.02494674368 2.5e-05) 634
(0.03386847773 0.01128901054 2.5e-05) 249
(0.04979174237 0.01780988885 2.5e-05) 873
(0.05443998206 0.0171961478 2.5e-05) 878
(0.05067682558 0.01959795022 2.5e-05) 894
(0.03623703448 0.01209732059 2.5e-05) 281
(0.05576585264 0.02750096377 2.5e-05) 979
(0.04974575255 0.01609506093 2.5e-05) 863
(0.04540535984 0.01422434801 2.5e-05) 349
(0.03300774146 0.01219162899 2.5e-05) 278
(0.04850638184 0.01919547232 2.5e-05) 892
(0.04776340055 0.01888585931 2.5e-05) 881
(0.05108350238 0.01353798532 2.5e-05) 834
(0.05223247371 0.0143496659 2.5e-05) 845
(0.05144378344 0.02033072219 2.5e-05) 905
(0.04453801023 0.01811444215 2.5e-05) 468
(0.04262186235 0.01617350647 2.5e-05) 406
(0.02944109333 0.004059540418 2.5e-05) 1134
(0.02445911307 0.003918002345 2.5e-05) 1099
(0.02397207131 0.004757531292 2.5e-05) 1129
(0.03068605484 0.01127789716 2.5e-05) 247
(0.03702390595 0.00701969333 2.5e-05) 1231
(0.03426620599 0.003290325252 2.5e-05) 1108
(0.02648027778 0.005348364824 2.5e-05) 1162
(0.02165479849 0.008187347429 2.5e-05) 1248
(0.02930434004 0.008697948485 2.5e-05) 1255
(0.03937833856 0.01576149861 2.5e-05) 374
(0.02539845774 0.01136857055 2.5e-05) 242
(0.01817392782 0.006296292913 2.5e-05) 1185
(0.04928094751 0.01286296327 2.5e-05) 822
(0.02624826508 0.009776720357 2.5e-05) 1283
(0.05590301836 0.0191267888 2.5e-05) 899
(0.02612846022 0.005452802762 2.5e-05) 1161
(0.04923352141 0.01550333986 2.5e-05) 852
(0.02310059611 0.007257706685 2.5e-05) 1219
(0.02193320649 0.00802828126 2.5e-05) 1249
(0.05344287867 0.01766983172 2.5e-05) 877
(0.02165152408 0.0086217345 2.5e-05) 1249
(0.05137717405 0.01644596394 2.5e-05) 864
(0.03226999684 0.0103129095 2.5e-05) 218
(0.03492468785 0.01453154 2.5e-05) 340
(0.03349524711 0.0124927045 2.5e-05) 279
(0.04101483865 0.01646819922 2.5e-05) 405
(0.05149025187 0.01507990734 2.5e-05) 855
(0.02705513976 0.008856813752 2.5e-05) 1253
(0.03833996333 0.01309874852 2.5e-05) 313
(0.03550375348 0.01122820448 2.5e-05) 251
(0.02496787077 0.004913611654 2.5e-05) 1130
(0.02303235506 0.007547425836 2.5e-05) 1219
(0.02307759207 0.006964858892 2.5e-05) 1189
(0.03183381462 0.01083348508 2.5e-05) 217
(0.02642615483 0.005996314101 2.5e-05) 1162
(0.03465527364 0.01446477556 2.5e-05) 340
(0.02914473627 0.007764513362 2.5e-05) 1225
(0.02838902497 0.007753812815 2.5e-05) 1224
(0.04540158314 0.01499892964 2.5e-05) 349
(0.03998093412 0.008174362377 2.5e-05) 1264
(0.04090920674 0.005341704309 2.5e-05) 1175
(0.0439296143 0.009054647269 2.5e-05) 1297
(0.02873049883 0.003640127919 2.5e-05) 1103
(0.03273440417 0.007924193293 2.5e-05) 1228
(0.03190375146 0.01292247345 2.5e-05) 278
(0.04585691552 0.01114504047 2.5e-05) 259
(0.04241570068 0.0142313815 2.5e-05) 346
(0.04908058583 0.01567922304 2.5e-05) 852
(0.03828439761 0.003886660719 2.5e-05) 1112
(0.03455018102 0.00676023847 2.5e-05) 1199
(0.04936213546 0.0190505794 2.5e-05) 892
(0.04797337779 0.01626421345 2.5e-05) 861
(0.03315607626 0.007421679416 2.5e-05) 1228
(0.03663947918 0.009051423926 2.5e-05) 1291
(0.03167127472 0.006083592411 2.5e-05) 1196
(0.04880459878 0.0107017667 2.5e-05) 802
(0.02963028759 0.00639151248 2.5e-05) 1195
(0.05106592461 0.01715412188 2.5e-05) 874
(0.03883615665 0.005411759755 2.5e-05) 1173
(0.0403969876 0.009122267284 2.5e-05) 1294
(0.03279985179 0.01316791551 2.5e-05) 308
(0.04576266382 0.02037478632 2.5e-05) 529
(0.03930507649 0.01760534477 2.5e-05) 434
(0.05192715492 0.01906309934 2.5e-05) 895
(0.04322881156 0.01146268615 2.5e-05) 257
(0.04986180778 0.02156147136 2.5e-05) 913
(0.04324409737 0.01850852052 2.5e-05) 467
(0.04846536214 0.0155348953 2.5e-05) 852
(0.05496310625 0.01953379217 2.5e-05) 898
(0.03587393438 0.009801336562 2.5e-05) 1291
(0.0557857703 0.02119882213 2.5e-05) 919
(0.04887383747 0.01689962084 2.5e-05) 862
(0.04833736704 0.01394578057 2.5e-05) 831
(0.05151689594 0.01776360275 2.5e-05) 875
(0.03937572331 0.01794519402 2.5e-05) 434
(0.03678074495 0.01233397382 2.5e-05) 282
(0.05536308961 0.01983345148 2.5e-05) 898
(0.05292826333 0.01957849454 2.5e-05) 896
(0.03468604918 0.01532179157 2.5e-05) 370
(0.03358954449 0.01141227492 2.5e-05) 249
(0.05194635861 0.01861476843 2.5e-05) 885
(0.05269013935 0.0239805961 2.5e-05) 936
(0.04373013424 0.01570669518 2.5e-05) 377
(0.05566072729 0.01951796342 2.5e-05) 899
(0.05019102302 0.01559530366 2.5e-05) 853
(0.05498228151 0.02062107126 2.5e-05) 908
(0.0514075716 0.0180286931 2.5e-05) 884
(0.0433928328 0.01480750545 2.5e-05) 347
(0.04871735914 0.01338438762 2.5e-05) 832
(0.05462237789 0.02542235279 2.5e-05) 958
(0.04763683738 0.01516827608 2.5e-05) 851
(0.04735923322 0.01367205643 2.5e-05) 830
(0.04117905937 0.01561048221 2.5e-05) 375
(0.03153236415 0.01110660984 2.5e-05) 247
(0.0501644602 0.01511537275 2.5e-05) 853
(0.05600205926 0.0188053683 2.5e-05) 889
(0.05394745632 0.02501829925 2.5e-05) 957
(0.04410506681 0.01300027448 2.5e-05) 318
(0.03598682475 0.01473296335 2.5e-05) 341
(0.05617268147 0.02386421949 2.5e-05) 939
(0.05152728549 0.01516738109 2.5e-05) 855
(0.05409148433 0.01682361165 2.5e-05) 867
(0.04757888012 0.01345420046 2.5e-05) 831
(0.04775857323 0.01443559569 2.5e-05) 841
(0.05512328985 0.02509424102 2.5e-05) 958
(0.05296724912 0.02293823279 2.5e-05) 926
(0.04427444548 0.02468308944 2.5e-05) 648
(0.05386684136 0.02873453319 2.5e-05) 987
(0.05258375657 0.02483672225 2.5e-05) 946
(0.05573915176 0.021379093 2.5e-05) 919
(0.05352235335 0.01995621121 2.5e-05) 897
(0.05056737456 0.01383012793 2.5e-05) 834
(0.04493518113 0.01474193855 2.5e-05) 348
(0.04888979421 0.01656674899 2.5e-05) 862
(0.04017311868 0.01067591769 2.5e-05) 224
(0.04425882998 0.01142995524 2.5e-05) 258
(0.05031896015 0.02582631971 2.5e-05) 953
(0.05292320363 0.01816232473 2.5e-05) 886
(0.05154968184 0.01881531362 2.5e-05) 885
(0.05314209502 0.0273309153 2.5e-05) 976
(0.05541479567 0.01988945007 2.5e-05) 898
(0.05204207807 0.01434955224 2.5e-05) 845
(0.05512026414 0.01813912737 2.5e-05) 888
(0.05188564511 0.02213122155 2.5e-05) 925
(0.05166143314 0.0169077451 2.5e-05) 865
(0.05270805982 0.02891038226 2.5e-05) 986
(0.05361364921 0.01733362739 2.5e-05) 877
(0.0510796351 0.01413802368 2.5e-05) 844
(0.05248749569 0.02512329501 2.5e-05) 956
(0.0559346019 0.02476912952 2.5e-05) 949
(0.04976311164 0.01274190196 2.5e-05) 823
(0.05357454381 0.02147598149 2.5e-05) 917
(0.04776086473 0.0127657053 2.5e-05) 821
(0.05546039865 0.02148352434 2.5e-05) 919
(0.05265629302 0.01734793478 2.5e-05) 876
(0.04951381777 0.01651437061 2.5e-05) 863
(0.05562707665 0.01599960856 2.5e-05) 859
(0.05243541674 0.02146537685 2.5e-05) 916
(0.05270523481 0.02090197207 2.5e-05) 906
(0.05478345023 0.02459748698 2.5e-05) 948
(0.05639949877 0.02457030831 2.5e-05) 949
(0.05110682545 0.02117040112 2.5e-05) 914
(0.05412121233 0.01743518796 2.5e-05) 877
(0.05002698015 0.01450474897 2.5e-05) 843
(0.05302784797 0.02396378008 2.5e-05) 936
(0.05587209484 0.01914536651 2.5e-05) 899
(0.04787032063 0.02106313187 2.5e-05) 911
(0.04488893883 0.01277647127 2.5e-05) 288
(0.05369943358 0.0173122145 2.5e-05) 877
(0.05555974613 0.01919168604 2.5e-05) 899
(0.04895383387 0.01515854218 2.5e-05) 852
(0.05597648276 0.02614331853 2.5e-05) 969
(0.05600177187 0.01658851224 2.5e-05) 869
(0.05351609084 0.01496309108 2.5e-05) 847
(0.04304313341 0.0189393402 2.5e-05) 467
(0.05634185579 0.02440094535 2.5e-05) 949
(0.05494811342 0.02458829848 2.5e-05) 948
(0.0554857907 0.02866311281 2.5e-05) 989
(0.05494146704 0.02852784423 2.5e-05) 988
(0.05511418323 0.02482031945 2.5e-05) 948
(0.05606053143 0.02206972791 2.5e-05) 929
(0.05463628981 0.02514901285 2.5e-05) 958
(0.0551235492 0.02790355413 2.5e-05) 978
(0.0553804803 0.02044067711 2.5e-05) 908
(0.05314006439 0.02818750512 2.5e-05) 986
(0.05356992955 0.02238911314 2.5e-05) 927
(0.05063511525 0.0204485791 2.5e-05) 904
(0.05070203888 0.01997794131 2.5e-05) 894
(0.04954390528 0.02159487348 2.5e-05) 913
(0.05325577869 0.02410991365 2.5e-05) 946
(0.05594281109 0.02457826618 2.5e-05) 949
(0.05086878457 0.02728454873 2.5e-05) 974
(0.05578849071 0.02068191031 2.5e-05) 909
(0.05513367344 0.02694147118 2.5e-05) 968
(0.05427818925 0.02572076877 2.5e-05) 957
(0.05361950913 0.02725173897 2.5e-05) 977
(0.05238883848 0.01984839571 2.5e-05) 895
(0.05530521584 0.02697989587 2.5e-05) 968
(0.05541831329 0.02391410267 2.5e-05) 938
(0.04966489857 0.01826576998 2.5e-05) 883
(0.05534020985 0.02892350378 2.5e-05) 988
(0.05094882 0.02412989167 2.5e-05) 944
(0.05397639864 0.01768287269 2.5e-05) 877
(0.05601734114 0.02490553481 2.5e-05) 949
(0.05523790416 0.02923718796 2.5e-05) 998
(0.05070059368 0.02293478912 2.5e-05) 924
(0.05496831833 0.02335508228 2.5e-05) 938
(0.05622324397 0.0244477857 2.5e-05) 949
(0.05379168109 0.02468285014 2.5e-05) 947
(0.05141828075 0.01802665081 2.5e-05) 884
(0.05374298091 0.02132983281 2.5e-05) 917
(0.05546238181 0.02852250033 2.5e-05) 989
(0.0548105261 0.0276628356 2.5e-05) 978
(0.05246391141 0.02567552273 2.5e-05) 956
(0.05534913699 0.02747226406 2.5e-05) 978
(0.05328545917 0.024754306 2.5e-05) 946
(0.05599491019 0.02509885192 2.5e-05) 959
(0.05510475873 0.02485869754 2.5e-05) 948
(0.05597003852 0.02204295613 2.5e-05) 929
(0.05292254092 0.02809154034 2.5e-05) 986
(0.05172036272 0.02489856273 2.5e-05) 945
(0.0552773459 0.02917308613 2.5e-05) 998
(0.05238577749 0.02992508718 2.5e-05) 995
(0.05483100151 0.02962843557 2.5e-05) 998
(0.05633632443 0.02762191154 2.5e-05) 979
(0.05504078078 0.0251805744 2.5e-05) 958
(0.05509868585 0.02866329178 2.5e-05) 988
(0.05510894821 0.02911957599 2.5e-05) 998
(0.05487365107 0.0275228953 2.5e-05) 978
(0.05558916684 0.02907267593 2.5e-05) 999
(0.05637062138 0.02935161925 2.5e-05) 999
(0.05180184465 0.02415934606 2.5e-05) 945
(0.03077387398 0.009682351506 2.5e-05) 1287
(0.03829435962 0.01429040567 2.5e-05) 343
(0.05289466224 0.02131131705 2.5e-05) 916
(0.05111509434 0.01767718749 2.5e-05) 874
(0.05639158515 0.01855003687 2.5e-05) 889
(0.04070885512 0.01292220729 2.5e-05) 285
(0.03829132349 0.02624451023 2.5e-05) 703
(0.03088013329 0.007958330568 2.5e-05) 1226
(0.04548304444 0.01405489285 2.5e-05) 349
(0.05031248857 0.01401694872 2.5e-05) 843
(0.02725699024 0.01089004604 2.5e-05) 214
(0.0494301381 0.01634458342 2.5e-05) 863
(0.05117272368 0.01668850274 2.5e-05) 864
(0.02465362363 0.005343679969 2.5e-05) 1160
(0.04775286038 0.0148570921 2.5e-05) 841
(0.05078853633 0.01328393196 2.5e-05) 834
(0.03400604971 0.006522822899 2.5e-05) 1199
(0.02186358226 0.01085516711 2.5e-05) 209
(0.04052589766 0.008428131878 2.5e-05) 1265
(0.02722644505 0.008123842543 2.5e-05) 1253
(0.01889356009 0.008350765224 2.5e-05) 1246
(0.03845273319 0.01030163665 2.5e-05) 223
(0.01812812459 0.004847642202 2.5e-05) 1124
(0.0323694356 0.01108602084 2.5e-05) 248
(0.03498419482 0.00643291498 2.5e-05) 1199
(0.03329672066 0.0151302545 2.5e-05) 369
(0.03843505984 0.01521162803 2.5e-05) 373
(0.03693386748 0.01052220742 2.5e-05) 222
(0.02368945289 0.00718130127 2.5e-05) 1220
(0.04153734273 0.008613755548 2.5e-05) 1265
(0.02221469223 0.003787408406 2.5e-05) 1097
(0.02426976003 0.00604467104 2.5e-05) 1190
(0.04807259464 0.01891670751 2.5e-05) 881
(0.03105012397 0.01222031573 2.5e-05) 277
(0.03444419809 0.0151555924 2.5e-05) 370
(0.03089028456 0.009069011514 2.5e-05) 1286
(0.02927275616 0.0035458283 2.5e-05) 1104
(0.0280550281 0.009931063312 2.5e-05) 1284
(0.03063858715 0.00918195359 2.5e-05) 1286
(0.04145464195 0.01904213341 2.5e-05) 495
(0.02602687106 0.01328802211 2.5e-05) 303
(0.03215731912 0.0139032363 2.5e-05) 308
(0.03820959721 0.01104216504 2.5e-05) 253
(0.04137149298 0.0157513953 2.5e-05) 375
(0.05215091248 0.01723779414 2.5e-05) 875
(0.02159600407 0.007965389583 2.5e-05) 1218
(0.04859553124 0.01905793863 2.5e-05) 892
(0.03468598672 0.01471068735 2.5e-05) 340
(0.03275149657 0.01854642599 2.5e-05) 458
(0.04586074921 0.01946095924 2.5e-05) 499
(0.02188205857 0.009127354765 2.5e-05) 1279
(0.03454212757 0.01119078756 2.5e-05) 250
(0.01855507503 0.002985429934 2.5e-05) 1063
(0.03254946642 0.01102765796 2.5e-05) 248
(0.04198600629 0.01278248756 2.5e-05) 286
(0.03826750554 0.01088515119 2.5e-05) 223
(0.04572965044 0.01308988334 2.5e-05) 319
(0.04424502838 0.01503950537 2.5e-05) 378
(0.02254405526 0.009204527871 2.5e-05) 1280
(0.0289589956 0.007808894692 2.5e-05) 1225
(0.03497311105 0.01276581604 2.5e-05) 280
(0.04171340384 0.01611519665 2.5e-05) 406
(0.04185888143 0.009865203225 2.5e-05) 1296
(0.02731301338 0.003364583367 2.5e-05) 1102
(0.03471127393 0.01172844905 2.5e-05) 250
(0.02882740252 0.005676425405 2.5e-05) 1164
(0.05546230494 0.01924190143 2.5e-05) 899
(0.03624695066 0.00913094616 2.5e-05) 1291
(0.03397362057 0.002798352004 2.5e-05) 1078
(0.03601093297 0.007476271524 2.5e-05) 1231
(0.03735066328 0.01006850866 2.5e-05) 222
(0.0362882307 0.007847393175 2.5e-05) 1231
(0.03028348837 0.00897478564 2.5e-05) 1256
(0.0462925234 0.009001882756 2.5e-05) 1299
(0.04458391562 0.01169100982 2.5e-05) 258
(0.04043151471 0.01047455218 2.5e-05) 225
(0.0353360961 0.003072241097 2.5e-05) 1109
(0.03660723314 0.008746070244 2.5e-05) 1261
(0.03939867979 0.01390892914 2.5e-05) 314
(0.05583223545 0.01799364625 2.5e-05) 879
(0.0416141682 0.01143770807 2.5e-05) 256
(0.04550323815 0.01474320473 2.5e-05) 349
(0.03883878922 0.003554712897 2.5e-05) 1112
(0.0429231988 0.01007142707 2.5e-05) 227
(0.04086015742 0.01184207315 2.5e-05) 255
(0.04513183024 0.01017650012 2.5e-05) 228
(0.04502890388 0.01003825453 2.5e-05) 228
(0.04380233592 0.008369065295 2.5e-05) 1267
(0.04031952302 0.001727767519 2.5e-05) 1054
(0.03976393116 0.005917587806 2.5e-05) 1174
(0.04185630152 0.004874157489 2.5e-05) 1145
(0.05037660184 0.02357413483 2.5e-05) 933
(0.05372409067 0.02523461153 2.5e-05) 957
(0.04629424357 0.01873741334 2.5e-05) 469
(0.03576262675 0.009017076042 2.5e-05) 1291
(0.04540941155 0.02703513534 2.5e-05) 739
(0.02068075001 0.007043426521 2.5e-05) 1217
(0.03277799445 0.01153074011 2.5e-05) 248
(0.05191275809 0.019426479 2.5e-05) 895
(0.0493461354 0.01789057311 2.5e-05) 872
(0.04874656023 0.01930890226 2.5e-05) 892
(0.04705052728 0.01974769876 2.5e-05) 890
(0.04729829426 0.01663644519 2.5e-05) 860
(0.04665913366 0.02091030243 2.5e-05) 900
(0.05065561407 0.01734539256 2.5e-05) 874
(0.02062729711 0.00607321271 2.5e-05) 1187
(0.04677663373 0.0228336206 2.5e-05) 920
(0.04376827766 0.01692493274 2.5e-05) 407
(0.04299116832 0.016408811 2.5e-05) 407
(0.04933201616 0.01814291491 2.5e-05) 882
(0.04483663371 0.01597000517 2.5e-05) 378
(0.02901029502 0.01382874513 2.5e-05) 305
(0.03971860366 0.01521734816 2.5e-05) 374