/*--------------------------------*- C++ -*----------------------------------*\
| =========                 |                                                 |
| \\      /  F ield         | OpenFOAM: The Open Source CFD Toolbox           |
|  \\    /   O peration     | Version:  v1912                                 |
|   \\  /    A nd           | Website:  www.openfoam.com                      |
|    \\/     M anipulation  |                                                 |
\*---------------------------------------------------------------------------*/
FoamFile
{
    version     2.0;
    format      ascii;
    class       vectorField;
    location    "4e-05/lagrangian/dsmc";
    object      U;
}
// * * * * * * * * * * * * * * * * * * * * * * * * * * * * * * * * * * * * * //


11282
(
(838.3138514 883.1766969 96.23900118)
(54.90293022 789.9673862 584.3662056)
(263.7645556 -29.84044743 -417.9265484)
(1207.776572 521.6015417 404.3428614)
(1508.507927 -248.6008446 972.0072284)
(1203.425358 -359.9964557 888.9420708)
(647.8952116 1001.293273 -385.0462718)
(1853.01894 506.0030025 -619.5246439)
(1016.030803 -224.5822667 -365.590078)
(162.5325655 401.7778647 525.3127481)
(1443.446252 -270.0821299 401.2092597)
(703.238696 133.8511691 -657.698817)
(1158.885143 125.0532633 1073.224718)
(1302.645845 31.9555682 329.2718305)
(1238.282918 500.5472753 218.4639256)
(1004.606897 -150.2626054 96.51723954)
(459.8185897 888.8587681 610.0548826)
(974.5096876 507.2655136 -54.45907231)
(1258.034845 528.0811572 286.5497848)
(1515.137299 -148.2881515 -324.1706466)
(1482.625928 592.8079033 -412.215157)
(987.6121382 307.5891727 -909.7516852)
(709.3001355 -122.4802662 135.5338645)
(1276.419452 529.8610507 464.6545141)
(868.0347374 732.9157168 429.4552695)
(1126.499539 -285.3571779 -552.7656079)
(-396.8880413 502.4453191 152.8439609)
(1608.107153 397.6020223 -42.02332249)
(-26.59237549 459.4359358 -24.25971997)
(450.7065845 -147.6815467 -718.4876256)
(66.8068157 -37.68637039 322.5051817)
(-69.28490949 -462.1884463 116.0767936)
(1909.258288 699.7627898 524.2876554)
(2133.738816 124.3112967 580.342581)
(1323.20546 77.09961107 23.63520814)
(1179.620316 -32.68273357 -246.3326831)
(1537.627917 181.1879053 134.3884482)
(1143.449324 599.0611317 -11.31967166)
(-74.70108974 548.926506 -496.9421946)
(975.5844887 290.605766 -379.4408112)
(475.2132523 728.3523792 -64.68959458)
(477.503956 33.25290433 -395.3393659)
(1101.249047 171.7997491 -647.3783935)
(1213.902905 424.6756421 992.6304391)
(-342.8214095 -291.1283577 643.2296976)
(29.60769978 520.868347 235.6141977)
(-425.163091 -337.0179347 124.4521954)
(114.6620811 151.2537225 -376.92559)
(1067.300315 229.5834571 76.29063603)
(114.2894937 408.1396538 -184.3016769)
(-19.12210037 935.59896 552.316647)
(704.2079309 633.5614895 -420.9367068)
(732.4906471 416.9507915 -274.4060042)
(-500.5988829 -410.9700525 -202.3683015)
(-557.9844227 -267.3199486 246.4162761)
(551.2105971 723.1438755 246.112223)
(394.8344619 -348.1879822 -520.2908255)
(142.1986638 248.2066103 -230.3790254)
(523.2449292 39.94938847 -505.4577226)
(1153.842868 -260.7333658 263.6742995)
(251.4453491 -865.0366218 -95.68111312)
(-521.4116635 377.3076521 246.859551)
(544.9002042 681.9286282 -155.8345342)
(-621.185652 289.0147551 -130.3174143)
(-384.3686684 -348.9403477 -311.0521137)
(36.83126128 -158.8346018 569.0713828)
(-194.3419884 42.29002444 20.95811456)
(-233.0397529 806.6308778 646.2327426)
(-148.5361188 -387.8157828 431.2378966)
(884.9042906 1106.415648 2.068667518)
(1371.224496 -44.43230687 546.8379084)
(1848.660884 -183.5092434 1116.760457)
(742.1409179 -363.6491697 81.22754893)
(494.9505573 173.6999673 778.5847974)
(377.340445 123.3077256 -578.0005249)
(-259.30729 415.7831157 -713.3230342)
(686.4441436 314.3716937 616.9862331)
(-38.18932589 660.0995226 406.4742985)
(-76.56890191 306.9733856 -553.0062557)
(79.95044755 929.6477505 -486.3507172)
(1186.630203 273.9601906 -1147.091279)
(-643.1690658 -45.08375232 727.3198649)
(2117.29268 661.1557843 370.4902476)
(801.3644154 1170.955001 -549.9118699)
(-201.7134155 72.13821424 183.9751468)
(1878.668462 -207.0054549 388.4715832)
(-551.7323052 -772.5124382 -527.4075537)
(438.0024335 260.0210151 -458.4595976)
(845.7192216 8.93020609 -767.8598198)
(1696.716454 -336.9889902 1255.529596)
(150.7077916 -412.7504093 244.0664201)
(1649.873796 2.19624221 -169.2019567)
(1123.583934 874.4013118 155.1352218)
(288.0170151 -231.8633498 241.3312383)
(456.9427973 -23.24430129 542.0841036)
(260.3508623 304.9147432 -1296.507975)
(121.0665399 65.94770495 -125.6574719)
(915.0495135 252.4822461 571.3807921)
(99.28681658 -321.9860139 -51.61032303)
(-38.70834145 -358.5943032 -580.4056273)
(1390.641238 -346.3835592 -111.0972446)
(312.0198673 364.0506627 -509.7346589)
(1033.060628 -228.0438426 -265.2853686)
(332.1847822 485.5249815 139.5684417)
(548.9348474 293.5516502 154.9296269)
(1450.320083 -609.1809308 413.9108671)
(1975.426833 299.943045 247.7650418)
(1159.417187 -401.7290148 273.0733009)
(1847.495394 717.2405478 -563.6457892)
(646.9732251 1163.153284 -631.0063101)
(1276.137893 1252.809138 -221.0960107)
(510.8386314 719.6285489 -1237.084435)
(574.9460347 14.63033547 259.1304926)
(787.2444392 779.0144502 -633.5343991)
(199.9489668 -206.1306222 -80.27390663)
(-16.2712294 248.8239244 140.5812526)
(1126.951281 12.03188337 -517.9857991)
(-4.195536854 1062.861529 -869.7136804)
(-14.42198441 -630.745817 -147.6698531)
(106.7765348 -359.3897153 598.9186889)
(552.5158696 -574.8236741 142.5730213)
(1076.370065 -82.14573214 319.5926252)
(221.1971164 738.4335992 530.467204)
(1006.561855 -189.7518197 -47.38776651)
(178.8930286 235.9275207 -26.0836835)
(1756.32983 1034.045374 -9.054661952)
(761.6384835 -100.2482358 150.1816573)
(266.3488275 98.19878676 92.88699496)
(205.6276013 620.4836926 117.825391)
(1390.71089 -251.1114273 164.2194984)
(-272.2871328 -325.3296258 141.5457711)
(1324.435268 67.20153306 -714.9952821)
(657.5465961 899.0981101 593.8091593)
(-546.7363717 166.7903318 76.48336794)
(619.5208933 1020.408248 283.9500976)
(1554.618642 247.2640698 -1022.644029)
(1131.966753 648.1314859 13.12617147)
(-59.55784544 1152.713449 -760.7815776)
(902.5338576 808.0886054 -161.810934)
(412.0045164 -340.3199111 979.5251465)
(1486.605233 311.8945888 -211.9259264)
(1745.412082 785.2192448 265.241172)
(646.0986266 -122.9019138 617.4210037)
(851.340964 -241.2582485 -231.3749642)
(1253.946557 -416.6378025 -391.3299972)
(-347.3687015 474.3204394 -49.44817215)
(193.5942584 957.8450759 98.23752639)
(955.3215422 -760.2225566 460.0511338)
(1110.287619 483.5822578 -271.8105941)
(272.3757133 518.9660372 -7.094112313)
(790.4820252 272.3159609 -847.763564)
(1594.037999 858.0290535 -562.050873)
(1939.242154 1043.252259 -105.5911646)
(1384.953491 708.9084194 34.08131965)
(-487.8385842 -147.9406658 275.1587621)
(1298.152196 -141.4508343 206.0476953)
(1601.825976 676.185796 -371.0597511)
(326.2425021 149.505178 279.2633384)
(628.8156232 168.9286434 -1186.665951)
(345.1081014 -600.5979215 1103.898852)
(-266.0200335 800.2467899 -324.1814658)
(719.8019434 -354.965777 692.3435592)
(-210.8880809 551.8055712 -556.2123156)
(429.2482901 180.9775112 1005.889441)
(296.0103719 -33.87318537 -426.3922518)
(721.7504507 261.3434382 -301.4214309)
(1109.759874 568.8695874 -1057.331736)
(1480.43797 -260.730134 39.29865629)
(20.23464809 302.7605857 100.3656871)
(346.8014869 640.861652 -413.9641115)
(1507.593915 60.69508709 246.4178629)
(647.0965262 -61.58203986 834.3252147)
(495.1640286 -667.2970328 -139.1294743)
(719.9741719 364.8062279 210.7417384)
(151.2277227 128.5715511 1269.768549)
(546.0695903 759.0904232 98.8765631)
(2336.80106 1003.110246 977.433377)
(188.2844546 -71.81991708 746.5582808)
(-292.580549 266.1009207 -80.32426592)
(686.1821675 -325.351417 158.4341674)
(590.4741149 871.7391191 801.105008)
(171.0867199 351.3479439 192.6514727)
(158.3808554 866.5608463 622.0894956)
(706.9737898 360.2072492 -388.9732605)
(-204.3832266 -240.8327981 955.9740049)
(-405.8691352 307.2898891 -503.327255)
(801.5662871 -143.8401179 454.5737086)
(1254.560226 443.3206167 100.2243644)
(685.976142 441.7818035 -213.2063053)
(-681.2048882 699.6539693 534.3936392)
(1592.460216 265.7827854 201.7731081)
(144.8120748 -127.309527 -221.4314535)
(583.0772517 -268.1341735 131.4956376)
(696.7427999 269.7552245 -473.9851218)
(692.960421 -16.17668856 853.9712426)
(236.8213136 -50.80075743 -50.75574301)
(1449.296587 535.597155 491.7501473)
(1694.081845 -270.7416756 133.703186)
(-64.15222083 429.3319996 -25.69344236)
(1005.821991 358.5220033 276.0310971)
(1426.940407 -251.1033073 -30.98969794)
(1412.296971 -43.0400732 127.8995782)
(-60.85918324 291.137956 185.2163827)
(1593.816936 -295.840546 -1271.848075)
(1111.725538 65.99259523 303.8423048)
(1252.363554 407.3152073 26.58644314)
(340.5397741 1254.950581 -219.1362531)
(539.3663444 -31.95958993 689.7846225)
(1078.436989 632.7528074 24.55067964)
(794.6183144 176.0258673 -1065.462695)
(735.6840317 984.105657 523.0164507)
(1525.481419 454.8173171 849.9146262)
(1294.871176 -689.5397478 400.299018)
(638.9387756 591.8488475 -607.8639271)
(1528.522472 275.6833438 576.1089674)
(1177.141835 -105.2534777 556.485314)
(771.8000199 650.3584816 -379.0727206)
(1127.531501 -241.0510639 207.4880762)
(1464.308313 606.0451246 -47.21525649)
(1455.699011 540.549469 -257.0274258)
(-216.1860226 21.66158759 103.073527)
(792.2432745 541.5323459 673.7120142)
(1779.807313 317.8560679 669.7901123)
(850.5374536 -143.3788034 603.8075279)
(1941.00552 -280.7339394 -460.7069073)
(1162.423731 771.2126566 -332.4841002)
(1803.619639 414.6739925 -548.1078656)
(1492.51344 286.1515624 151.0306815)
(1574.085871 522.4730377 427.6121359)
(1612.562818 -125.142454 327.7128624)
(1467.118387 1362.383609 393.9654597)
(1301.275246 -681.6376976 -422.9450125)
(1666.050531 226.4099859 -224.3762)
(1483.689284 428.5652383 493.7463822)
(184.5914171 -240.6663219 19.21029346)
(1256.852221 997.1427146 306.457398)
(300.9901482 -169.0097569 124.0875298)
(718.327822 918.6444752 -719.4957344)
(754.5210562 -235.784927 -336.7845475)
(1266.207894 131.4248103 378.8410825)
(259.5426728 472.3894843 95.50893383)
(732.8488699 -84.0696276 -709.833135)
(-416.8136466 -213.2454735 144.2419767)
(-396.2800264 35.2149826 597.399524)
(-413.2732164 257.4531512 388.2054152)
(595.5367661 -113.3280646 285.3064247)
(1003.256946 233.6742249 -180.4649084)
(985.5177368 816.4018216 -33.62792296)
(1710.44365 601.8332357 -265.0767125)
(1040.67806 298.8112424 80.47946704)
(1622.258087 -457.3466927 542.1708481)
(800.0678561 756.1836441 -521.336893)
(15.71803555 -316.6933514 387.4852349)
(320.2752223 -192.0765174 451.5373822)
(1977.520717 108.7684045 -39.23212796)
(2371.025942 484.1344963 133.3391926)
(37.74185464 1270.570091 -1201.661033)
(2085.691752 842.396557 526.6463105)
(1505.504893 1074.486816 174.9890275)
(1293.717509 641.097906 409.2176493)
(938.5915226 479.1170446 -847.3350791)
(2003.015848 1158.993816 -240.4818893)
(1400.885772 469.1558663 1031.076641)
(783.7275475 395.909058 78.07757447)
(207.2689379 51.99323031 -286.9155723)
(-491.4998967 -206.549229 -28.586472)
(1318.902056 83.51880409 284.3130375)
(467.8264411 0.7457271443 124.1699777)
(869.3679225 699.4000729 -571.3531909)
(1177.421057 -272.9222874 627.353253)
(-77.79333963 207.649153 -202.8538068)
(1026.410344 -206.1149331 -14.17692796)
(-405.8906513 253.7841465 399.2146551)
(431.6903927 -253.0914448 61.63611833)
(1030.360981 220.7762248 11.9634328)
(257.4605851 52.28264633 -255.173548)
(1096.001211 423.6814982 495.5785231)
(119.9635466 863.4019832 1025.049267)
(-314.8813137 450.0690746 -306.0760201)
(584.083274 1038.863238 464.8546521)
(176.2904149 94.71682844 -1500.435032)
(704.4734105 312.6738472 -72.57885408)
(191.2141986 442.5901264 224.1890882)
(330.4221878 299.2862619 229.1860249)
(1929.86299 562.0727417 -243.1194388)
(1568.049705 30.76980883 441.6733014)
(-843.1994798 944.9045747 -29.02447138)
(-429.705244 759.9400509 -498.635117)
(250.7933816 -649.7158745 -820.6250527)
(1308.095934 315.0992913 -32.39100475)
(456.830352 238.5301458 2.779571498)
(1794.224606 -28.72509817 -448.9630522)
(1267.295253 -44.34375476 -267.1998026)
(1048.955091 422.2899191 -169.7888643)
(121.9677439 207.4354699 196.5310494)
(1700.911982 -129.5808064 -325.0399998)
(910.4566486 344.8636233 -503.8759787)
(1580.222788 -49.04226044 -268.1932939)
(1122.101808 852.1755546 229.2683227)
(1386.742227 -576.6919642 813.0336554)
(1854.009145 335.4361748 422.5334758)
(170.8491711 1238.364748 412.3914241)
(1853.026585 381.609403 -526.7766161)
(1738.063374 438.2108246 767.5503186)
(649.1943811 -41.43624711 -188.5496207)
(653.9513596 947.5528971 361.4713311)
(701.1398777 704.7540017 -294.7619761)
(645.5398461 390.0939349 -302.4484825)
(1047.817 683.1006488 275.0498078)
(1617.500654 571.7500886 604.7360848)
(1487.108332 272.1055613 -23.83760587)
(1418.215643 491.7515756 -469.0235567)
(793.4332236 -2.213588897 -375.5831195)
(1283.986791 249.2538163 -270.2466787)
(-163.1054484 -90.77022326 -1068.845568)
(1194.883067 8.466803138 -70.74400939)
(1952.849721 943.6133442 393.5605119)
(1602.392398 856.7970299 -458.2701468)
(1747.815482 250.4984625 318.336063)
(2199.354601 -225.3106841 351.3939788)
(966.841185 -823.6017561 -155.5305314)
(76.13142069 549.0134881 316.4027166)
(1712.267835 199.7502303 -232.7262292)
(593.836454 330.2587113 988.3547539)
(34.1626327 -284.7786672 -208.4845911)
(882.44757 600.4977715 173.0145875)
(202.6959247 -1116.708953 -398.2270216)
(1087.145596 288.685707 245.925723)
(543.8099059 872.2519306 313.8342877)
(539.5047946 -605.2378615 445.0242408)
(108.7277862 560.2856118 -279.7090455)
(-412.9758891 946.7620937 284.2928709)
(1986.37899 315.5154536 -265.6089991)
(1179.36978 -766.4918496 272.9077599)
(1908.845533 65.04346442 226.6784321)
(1437.96264 61.59754244 -142.6582944)
(1016.35509 509.056586 85.86219548)
(1681.092171 738.4444679 -341.7568064)
(308.0215445 812.3153342 542.6266469)
(1665.970423 -277.8668168 -79.81160747)
(1932.593911 38.84863505 -101.8187841)
(1169.43509 -674.8547175 220.3165533)
(1441.932232 41.82307889 170.1125781)
(1654.390225 565.7724702 -23.94643098)
(1858.501567 -105.5292255 -122.0956193)
(1592.028601 643.8063695 251.4703319)
(1635.74632 322.7960682 -164.2289618)
(1661.459048 40.72227986 -41.72767309)
(1636.862435 257.7158726 42.71427126)
(1288.374334 -625.6932312 402.5696261)
(1071.139984 282.6532779 -563.8783896)
(1695.087947 -342.4433853 -275.5308244)
(2079.903524 549.4005157 215.994147)
(1490.554561 409.5057018 -510.2455056)
(1581.86531 86.1089262 236.4160918)
(932.8446264 -159.4881288 110.5232214)
(935.387737 576.9560117 -228.8049594)
(1158.388721 -283.6906563 468.9316882)
(1497.725711 602.0898135 -442.3945583)
(981.6784183 293.8337137 -250.1223289)
(507.5352289 243.9531298 -630.6229196)
(2109.054539 240.5263447 -439.3212269)
(2529.558903 -259.8457869 140.8006778)
(1358.282199 659.3575383 177.536575)
(1672.264172 -685.6146219 -645.7177487)
(311.8343958 864.1301915 251.8877201)
(636.8101628 136.4223297 -13.84606797)
(-155.5344285 108.3467985 -265.2629594)
(744.9491672 458.8680926 553.848067)
(-105.3392888 152.068054 896.1064302)
(45.57289279 159.5653184 -66.51432796)
(456.9713121 155.2532764 -9.13830647)
(670.0166966 95.77021598 204.1272438)
(453.197537 -807.2471034 -789.7910546)
(1293.819092 1190.114898 -762.9265746)
(2155.54515 -546.2336023 -179.9589259)
(193.9098392 163.8124752 137.066552)
(1046.205259 276.279444 682.6912692)
(785.8606429 466.6686984 -612.2500283)
(1683.206678 292.8180566 60.93046549)
(535.2503329 105.9173939 -66.98324573)
(872.5312748 895.0085817 -200.7277317)
(404.4269079 -700.0586024 421.6175053)
(424.2089634 309.8220415 328.6542487)
(896.6863086 -697.6407896 -415.5844713)
(1179.681809 385.460508 376.296939)
(1154.731912 -113.7266055 -18.6201654)
(503.1697025 1063.111303 371.1364226)
(1580.924307 24.06325592 -315.1503151)
(129.5114138 681.4548421 -42.78764567)
(1133.532934 1175.423243 25.75549176)
(806.4662396 -101.6152713 134.5164801)
(505.4478351 -496.7945982 103.9385059)
(1709.319524 235.9216538 -90.09679207)
(-491.7642428 136.271289 -674.8710106)
(631.2146245 572.0101237 -122.0868241)
(576.0830528 -530.6145034 1133.331515)
(-86.30335162 587.3006962 315.1986865)
(407.4748206 -390.6789251 -56.09296048)
(530.7951477 463.3696339 185.9460401)
(582.4659892 861.2141861 -1154.92886)
(611.5739665 -379.9688531 -6.386345587)
(423.5169012 -633.1652922 -337.7183041)
(1001.074196 -317.1603649 -306.5898638)
(135.3673712 361.0001365 898.3071921)
(-684.5181321 324.5351859 -198.2637729)
(-555.5527965 -148.3542883 661.2531934)
(-202.4970038 -258.0920665 -196.426715)
(-242.7119845 -74.89566168 961.1824933)
(1152.095407 754.9629566 -375.2755425)
(-722.0873475 -471.0618273 1290.416346)
(1114.363244 -231.6750246 571.0269155)
(1221.826299 -213.2905247 -164.1847903)
(-329.5261015 141.490413 286.1147441)
(593.0983111 -294.2500234 653.7557832)
(2069.021235 -103.4857496 -313.0661725)
(1295.465707 928.7270183 302.8193636)
(160.2424692 -82.99558145 -290.4153902)
(152.3373604 -197.6875219 -547.7578531)
(172.6762183 -218.3894403 115.9038429)
(-306.3313702 -540.3546492 239.8354207)
(29.3097631 619.1488003 374.8301928)
(1326.26334 450.8994315 -520.1438541)
(47.22029909 444.0552221 -42.97584748)
(-146.8923033 311.7243021 816.2738174)
(435.9273056 -1091.462021 748.2408314)
(2040.355304 663.0141465 -122.4686755)
(2075.857146 517.8316243 351.5065422)
(2228.547073 -68.36762301 179.1597617)
(302.3035378 -26.94503014 209.5584629)
(2229.798205 79.6191544 -289.7263451)
(1278.402651 824.4037276 -114.6803349)
(1242.006552 941.8898167 391.6854552)
(1936.035683 279.7524693 118.8355268)
(382.1196597 -288.6983346 -725.7057088)
(1972.107126 -264.3507883 321.5777303)
(586.8771873 8.623299698 -397.7285563)
(1450.905036 205.1626005 -253.9964943)
(1212.349405 864.205669 -294.6182881)
(1187.64023 483.9653597 -250.2305356)
(660.9241312 388.9875568 12.32469243)
(1469.033863 404.6783919 284.3852015)
(1881.039208 474.5073246 65.43917236)
(965.3456232 255.9466237 -444.1339572)
(882.3637101 -69.67476117 80.44734593)
(801.886054 471.2071908 -564.6041391)
(1725.068807 667.4287351 88.20230191)
(732.5255452 587.8335484 463.7445182)
(2275.281838 448.2120042 40.08830357)
(674.3425685 773.1395667 -169.4292329)
(1549.289808 529.4490387 551.469812)
(1113.504051 918.6983852 371.4573243)
(1697.713066 364.4804589 593.4497593)
(250.8271157 662.4310267 684.8379901)
(1754.145518 70.5940964 -21.1552758)
(1004.05058 185.3800355 122.0025292)
(1379.000298 -99.97592381 -34.70208079)
(1537.942546 125.0071804 16.07299391)
(614.7678515 91.64154831 -107.1127819)
(1677.722883 -31.93619441 347.9199127)
(1776.664541 -48.61583451 65.65913332)
(1633.74707 276.2242025 218.9575042)
(1335.221961 268.8770572 33.97260865)
(789.3133267 1123.472198 -83.72708379)
(2100.518966 774.4764769 -183.4469845)
(842.4225854 238.2886579 295.6014607)
(2002.749415 507.2054799 -536.2897842)
(1139.514373 462.7285998 -196.7861437)
(1117.902702 154.9676021 -420.6467206)
(1902.545412 -126.284839 -392.9862294)
(1569.320465 359.1814352 143.2069487)
(2134.200154 612.9672476 -183.2489062)
(1877.570838 -42.43776824 -581.9938124)
(1549.480521 534.922923 366.0544148)
(1867.294885 726.4452819 230.5022029)
(1895.018154 177.5337771 364.4876554)
(334.9821935 -175.7589005 -433.3003034)
(869.1498788 914.7915702 494.7991705)
(988.0294633 662.8042558 -532.0179414)
(549.6290911 447.8235584 -185.8763469)
(-129.5274581 41.74336951 -525.1385182)
(2045.488096 305.016265 -354.9807564)
(1488.907289 26.39322615 342.6234281)
(1224.234437 459.0405215 324.7344388)
(1048.512923 14.44111988 -616.9490084)
(1295.347602 378.1930615 -582.5940269)
(739.8701829 -248.1210508 750.6760317)
(1685.153219 927.7374457 -584.1395095)
(1965.106279 -123.9057278 94.91760483)
(-65.55195336 441.0258406 -465.8185303)
(1794.981047 105.0602557 -186.7232762)
(1170.386978 294.1707158 -576.3954451)
(-90.29343085 402.5517205 398.707597)
(2141.41847 819.2841528 291.3245901)
(1543.091718 285.5257199 -96.41159307)
(298.9594388 -236.715025 29.60091454)
(2553.428405 -415.8134186 -583.9199785)
(241.8849792 118.0168551 -113.9519764)
(2217.179348 34.59291999 -409.504219)
(912.4719238 42.0240751 -253.0267201)
(852.2066236 268.3897615 -455.1824442)
(2045.687332 -22.68701236 16.83061486)
(1432.549571 437.728633 -45.82123932)
(1475.77365 10.88791111 163.3749355)
(1776.968324 92.52613169 -314.6952768)
(2384.626115 262.7568061 -240.7163373)
(1604.697955 405.5113591 -376.9030703)
(1382.937318 196.4431028 390.4924506)
(1509.85401 351.13416 -275.2313634)
(1586.968101 868.0015053 104.3872178)
(2080.209956 -83.96093198 -61.41629742)
(1715.352507 294.6864063 -266.5726285)
(1277.945195 78.68361086 311.9384173)
(2074.217606 308.6091294 238.1039429)
(2226.157686 470.3641986 -760.3303259)
(508.9077153 51.89418204 -141.9669117)
(1312.362243 75.36895353 49.59132728)
(918.4626147 -515.9095292 400.095362)
(650.8919946 -67.79333448 -682.0650676)
(2347.278805 -519.2825161 -228.9026234)
(2092.311881 482.4180192 -6.700523839)
(1560.887882 -77.07267599 -43.38217616)
(1311.379575 219.6296851 -285.9899149)
(1839.347113 251.5396317 278.9208357)
(1878.036647 112.8200274 396.4459143)
(1573.93816 310.8523963 119.5579687)
(2110.09503 206.1544907 -112.6968453)
(1852.058916 82.36115486 -234.6455561)
(1659.736354 423.4170029 -156.2913431)
(1309.792745 89.59918698 156.7184871)
(1098.777058 171.8871577 243.9007525)
(1799.201553 369.8047848 -298.2485886)
(2007.183928 177.3128969 755.6186134)
(2055.090666 -186.7601792 -365.0011795)
(1527.137958 186.653823 4.427890025)
(1445.620343 103.5712132 -48.75993358)
(2059.925064 -270.6688744 5.802618758)
(1700.55362 35.70434487 -199.6756625)
(1873.732772 -213.7482014 -488.133123)
(1344.618567 150.0957274 -135.6164253)
(1006.654335 624.4179891 -490.1780966)
(1475.328496 171.7273938 385.5839055)
(1775.292947 423.6853158 -345.3718741)
(2145.895258 -142.6135604 -62.25198452)
(1890.446125 552.0246322 -544.5454425)
(1873.955996 205.4178442 -267.9173897)
(1422.202345 137.4866114 -510.4431897)
(1355.900766 -489.6051274 -719.8380309)
(1576.863031 581.6276968 -156.3621461)
(1956.813112 285.9705318 -226.4426299)
(1270.716133 83.50554738 -580.8897244)
(1642.2591 304.021441 292.336208)
(1455.175779 338.917418 25.94363083)
(1559.598823 577.1969052 59.46176064)
(906.9647962 41.25086748 365.9141019)
(1791.665148 737.5942515 -64.76506307)
(1342.424101 489.2511925 -58.96681656)
(1585.185445 614.9710996 31.74445289)
(1593.67731 803.4057007 -198.5829744)
(1772.975279 89.87076637 -270.3543232)
(1615.512368 656.3840704 310.3832764)
(1956.350256 614.5999143 -94.52118438)
(1405.882136 -210.6295961 58.24164626)
(1816.496632 469.7870063 364.5471881)
(1525.290347 457.998675 -92.62015645)
(1283.478051 -82.24560766 -81.7987644)
(1389.829031 89.12929861 -235.9449313)
(1450.627863 343.9298191 15.97178296)
(1415.232107 792.7988692 -650.6955661)
(1663.291307 -30.95657563 113.1806646)
(1655.086107 -95.04533292 365.2447693)
(1741.312014 619.7900551 -323.55871)
(1806.613787 570.2043874 549.2920334)
(1493.120274 -99.65679004 167.7368634)
(1640.727865 641.7113699 -311.3283803)
(1966.762233 106.6438007 -25.72820194)
(1890.217618 -49.72518956 -90.35979626)
(1064.555381 214.5043201 -13.39075055)
(1344.916648 -167.5526633 -204.3946176)
(1770.562345 -67.904679 -122.5163852)
(2055.354862 -58.8307968 -329.4292092)
(1140.844581 1062.439521 62.08360935)
(726.1105218 -8.542371443 667.1030167)
(1392.258627 358.2948846 -217.9102562)
(1772.590051 -558.7873141 -212.523997)
(349.4200777 79.84665162 -1112.935241)
(199.0528817 342.3942213 -154.4792881)
(1028.04157 157.0472262 584.950453)
(1117.835899 149.5827099 435.206361)
(1681.774672 1107.613692 297.8098968)
(446.1825937 -98.90146916 269.7306201)
(484.7206552 469.0284666 654.0098515)
(441.0530719 405.8468562 -473.7217712)
(165.4672563 -112.5374309 46.24506627)
(755.8783976 1384.467755 160.8578606)
(290.6569973 448.3048623 -674.6995349)
(904.5517569 36.61150047 11.35961425)
(807.0095529 -582.1458894 -243.9193902)
(157.8801471 -345.5895195 -1214.889288)
(614.8997411 -90.04273403 -206.7076077)
(1414.41535 466.4365411 -198.2403771)
(632.7069742 141.7261986 339.0681247)
(1102.412918 191.3492704 393.9134227)
(1353.406975 -90.92779769 11.95062161)
(412.3194402 696.6947676 342.4562611)
(64.0533216 -176.759137 -350.1260686)
(653.1174671 826.2177258 640.1090917)
(183.0351996 -646.3642767 -206.8471225)
(429.8802619 -83.39668983 506.8974372)
(1053.220392 468.1289502 -89.21982578)
(1319.564677 232.9322511 538.1479826)
(1360.978177 141.3600718 47.44660966)
(81.90159994 122.9458852 -187.9138155)
(-5.833063454 -1456.30189 613.236104)
(174.4261064 217.1882238 353.3082586)
(-956.8744247 -478.2567581 195.3387773)
(1667.734971 -123.807562 -575.3236596)
(1850.416146 -418.1787398 16.98085227)
(775.3430533 -132.4427339 -437.4136058)
(-932.3664898 89.29593428 266.668911)
(1421.144565 346.2926235 -726.4258642)
(1677.68069 342.7194745 885.9527998)
(976.1862321 909.7204796 -791.4744809)
(1096.96352 450.5809937 -48.23515491)
(1492.526432 595.2987225 117.1485914)
(1715.212795 -40.07082103 -375.1037574)
(2001.223767 -136.536293 -1.199307371)
(572.4979255 -152.2076494 697.7224488)
(362.9971302 349.3300575 -120.115718)
(308.516888 475.7176937 51.11754928)
(665.3243827 628.8563805 -203.5919038)
(1001.82901 -46.51303912 -932.8805578)
(254.6903919 515.16363 565.5137553)
(1872.261935 1551.240469 71.61224712)
(1464.639629 202.3083659 183.1180597)
(975.9785735 -20.62688886 192.5469311)
(818.959327 599.6712042 233.5169879)
(1120.835659 1389.801559 280.7734523)
(1651.023526 506.8630697 -550.7362616)
(588.0801487 -137.4385889 -448.3406978)
(80.68709352 -225.0291885 -617.2423099)
(675.5314092 -242.4012266 565.064799)
(698.260665 540.2332443 184.0378718)
(1741.925995 361.6110446 776.6081673)
(572.0719784 -865.5619371 -765.6985727)
(-321.9874429 281.8629958 89.02541288)
(198.4233337 37.77426657 -1646.765749)
(559.0616102 796.7468313 -935.1988494)
(1501.393129 -660.5964424 -275.5925796)
(924.5509802 175.3329529 99.75773919)
(392.146574 339.1951354 542.1100756)
(-126.3189809 767.1269518 -273.0678289)
(494.5625545 247.4414966 709.7790358)
(-272.5382694 221.2604253 572.8311097)
(-251.7747538 374.5506568 -218.1451301)
(943.9525487 183.2581485 125.6262283)
(1661.562829 -41.8384011 -14.25027844)
(387.5908866 -165.1331561 -209.4397616)
(969.0870857 958.301692 894.1421108)
(483.621087 -309.8937749 -401.962732)
(635.6344422 -6.509949458 17.11588242)
(418.3882663 21.96494369 -395.4027041)
(893.1762692 1433.158226 17.32285789)
(322.7646346 229.7589662 624.7149312)
(-116.4848183 -1395.355479 -439.8250189)
(364.2757871 304.4591211 -31.13633817)
(-695.1504365 108.0024056 178.8800004)
(-314.2611132 -291.1771817 372.0677656)
(1315.7364 645.2722722 51.19013123)
(1864.640602 468.9834336 -161.8456421)
(1718.766741 700.3327926 763.3290405)
(988.9564211 -357.7678276 -623.9876244)
(2203.997089 35.06605151 -191.2815458)
(302.7226043 -443.3286346 -684.0770856)
(478.409776 -117.0297604 -142.6413534)
(1342.512462 142.7647058 -42.03964015)
(1860.9874 89.07389464 -18.79408349)
(1328.405785 547.1875031 518.6561152)
(1647.934401 390.0786294 -255.8567854)
(707.3050558 -286.1825057 -67.9253878)
(1855.777617 372.9828183 -1006.984311)
(1950.713251 510.4840438 330.1677386)
(651.5608807 105.9566598 -1231.09665)
(2210.238311 224.0942384 195.4170168)
(587.5680151 252.2561544 -278.5794857)
(1567.858839 -6.348413285 -588.2816557)
(993.7285706 717.0786001 -12.77252644)
(518.352813 822.4294124 -23.9524929)
(2032.230831 -260.616024 169.8682904)
(726.9191111 172.2592685 -188.8280657)
(238.8792982 -19.65181314 219.0698556)
(2407.999591 161.9960734 -35.32570289)
(781.6754698 221.369939 -23.46054782)
(1280.806187 -289.9987958 -188.9209433)
(1224.372161 737.1744972 655.1858491)
(1310.642571 473.0279938 -598.8566479)
(77.25885257 11.10418873 -248.2114679)
(1280.770577 -718.3724915 523.2549952)
(1160.209047 -79.07226841 217.8073193)
(1240.888306 298.0831249 210.6698945)
(488.777746 521.6628356 -75.19209871)
(1799.829863 327.0690929 -178.7723416)
(1542.340766 217.1789396 253.9557715)
(599.0773087 70.90957122 -380.892161)
(1033.197353 120.4919253 -481.9041133)
(1754.46496 448.1008539 97.2582719)
(1594.727442 766.3097031 -76.52353356)
(2000.60097 -17.75797179 -175.8439555)
(-169.0944079 168.3778239 -310.1584158)
(1213.05389 605.7755862 2.647579736)
(1426.995003 -373.2658981 -649.6223762)
(1810.060623 -571.0486351 -91.51345624)
(1061.84599 676.4059362 -71.72295093)
(1288.135236 -77.85089762 -1202.408748)
(1871.792105 473.0163002 178.2048627)
(1493.389183 -537.5066846 527.9349856)
(418.4930961 307.8991787 589.7944204)
(2046.58652 111.4531162 225.1497074)
(1479.958738 177.0956714 363.9615946)
(1516.146479 639.0362625 -56.19164428)
(1187.877188 25.78004953 112.1997301)
(1382.489715 38.83619223 -639.1708504)
(1785.13706 193.4000509 145.1026496)
(1179.354383 -152.3447211 -688.6307597)
(1277.917427 35.63600001 -70.12765981)
(1397.084022 457.5158678 -173.3648512)
(127.8355644 623.4537703 1214.610407)
(1496.775714 218.5573084 129.2989717)
(1627.953097 155.9707967 557.4125695)
(1690.795373 169.2819024 189.4545393)
(1278.155474 -84.47215685 766.5834143)
(2187.266871 159.1107218 371.5234161)
(247.119 -295.8173079 472.0438235)
(1391.132348 167.2325979 -23.34204845)
(2308.554014 -435.290831 -534.1796228)
(1584.333156 459.4802998 -64.27159094)
(2201.460577 259.2882934 -71.79154857)
(390.4708404 328.0217435 221.3345977)
(1690.43247 -214.1026815 316.7178801)
(1920.366867 342.9521063 -509.1768737)
(1047.16587 828.6028797 -1240.573804)
(1977.121535 104.8500848 -285.8846947)
(1722.769382 -86.09065828 360.3891576)
(1382.217628 470.7116611 -28.92254169)
(801.301248 -14.93527296 -1227.10565)
(1388.492451 474.7217914 105.8572003)
(2186.873136 -189.6315028 -19.22638616)
(2042.051797 -314.5233552 271.8757112)
(1896.076482 366.1319948 -391.5702139)
(1307.129494 -163.7122749 -15.45744801)
(1841.968689 311.3255216 246.4214478)
(2407.615454 -133.1301687 -368.2594313)
(1427.379967 -279.4784965 78.86193384)
(1182.726548 -335.7077373 -362.3773631)
(1803.848218 497.410287 -558.8561256)
(1442.955022 264.7799504 81.8835328)