/*--------------------------------*- C++ -*----------------------------------*\
| =========                 |                                                 |
| \\      /  F ield         | OpenFOAM: The Open Source CFD Toolbox           |
|  \\    /   O peration     | Version:  v1912                                 |
|   \\  /    A nd           | Website:  www.openfoam.com                      |
|    \\/     M anipulation  |                                                 |
\*---------------------------------------------------------------------------*/
FoamFile
{
    version     2.0;
    format      ascii;
    class       volVectorField;
    location    "5.12";
    object      grad(T);
}
// * * * * * * * * * * * * * * * * * * * * * * * * * * * * * * * * * * * * * //

dimensions      [0 -1 0 1 0 0 0];


internalField   nonuniform List<vector> 
1900
(
(0.524215 1.29712e-05 0)
(-1.0462 -1.46986e-05 0)
(0.220756 2.55944e-05 0)
(0.140784 -1.02346e-05 0)
(0.0274167 -5.7994e-06 0)
(-0.0117864 7.36688e-06 0)
(-0.0242589 -9.58249e-05 0)
(-0.0205866 0.000764422 0)
(-0.0184196 -0.00135153 0)
(0.00315523 -0.00131656 0)
(0.524213 2.10367e-05 0)
(-1.04619 -1.56421e-05 0)
(0.22076 2.55533e-05 0)
(0.140752 -5.99766e-06 0)
(0.0274343 3.00962e-05 0)
(-0.0118764 6.20125e-05 0)
(-0.0235018 -0.000171429 0)
(-0.0218424 0.00030757 0)
(-0.0205006 -0.00230332 0)
(-0.0233271 -0.0018246 0)
(0.52422 5.85469e-14 0)
(-1.04619 9.06393e-13 0)
(0.220766 -3.57787e-14 0)
(0.140788 2.92735e-13 0)
(0.0274847 8.97719e-13 0)
(-0.0119879 5.7029e-13 0)
(-0.0240133 2.29851e-13 0)
(-0.0227185 -1.79978e-13 0)
(-0.0205518 -5.29091e-13 0)
(-0.0260196 -5.76796e-13 0)
(0.524213 -2.10367e-05 0)
(-1.04619 1.56421e-05 0)
(0.22076 -2.55533e-05 0)
(0.140752 5.99766e-06 0)
(0.0274343 -3.00962e-05 0)
(-0.0118764 -6.20125e-05 0)
(-0.0235018 0.000171429 0)
(-0.0218424 -0.00030757 0)
(-0.0205006 0.00230332 0)
(-0.0233271 0.0018246 0)
(0.524215 -1.29712e-05 0)
(-1.0462 1.46986e-05 0)
(0.220756 -2.55944e-05 0)
(0.140784 1.02346e-05 0)
(0.0274167 5.7994e-06 0)
(-0.0117864 -7.36688e-06 0)
(-0.0242589 9.58249e-05 0)
(-0.0205866 -0.000764422 0)
(-0.0184196 0.00135153 0)
(0.00315523 0.00131656 0)
(-0.0302254 -0.0242389 9.64973e-16)
(-0.105107 -0.0228328 -1.15502e-15)
(-0.0855898 -0.0289287 -1.45306e-15)
(0.165256 -0.0569105 0)
(-0.348902 -0.318236 -6.37199e-15)
(-0.0500101 -0.0274887 9.60593e-16)
(-0.0957215 -0.0271277 1.15502e-15)
(-0.0963733 -0.0357554 1.45306e-15)
(0.0563999 -0.0551583 0)
(-0.304803 -0.302357 0)
(-0.0630133 -4.63536e-13 0)
(-0.106061 -4.13709e-13 0)
(-0.101141 -1.74677e-13 0)
(0.0478897 1.60166e-13 0)
(-0.432453 1.54886e-13 0)
(-0.0500101 0.0274887 9.60593e-16)
(-0.0957215 0.0271277 1.15502e-15)
(-0.0963733 0.0357554 1.45306e-15)
(0.0563999 0.0551583 0)
(-0.304803 0.302357 0)
(-0.0302254 0.0242389 -2.88616e-15)
(-0.105107 0.0228328 -1.15502e-15)
(-0.0855898 0.0289287 -1.45306e-15)
(0.165256 0.0569105 -3.94995e-15)
(-0.348902 0.318236 6.37199e-15)
(-1.13763 0.389504 2.31116e-15)
(-0.449107 0.159113 -1.83577e-15)
(-0.423912 0.0919979 0)
(-0.516665 0.0689996 1.26581e-15)
(-0.664787 0.0978961 -5.25291e-16)
(-0.983294 0.384445 -1.16145e-15)
(-0.513034 0.109075 9.2028e-16)
(-0.444611 0.0346596 0)
(-0.506041 0.0320296 -7.9267e-16)
(-0.665926 0.0623699 1.32529e-16)
(-1.02996 2.08079e-13 0)
(-0.542193 2.40934e-13 0)
(-0.451096 2.40934e-14 0)
(-0.507592 1.38183e-13 3.17454e-16)
(-0.66348 6.65738e-14 -2.65059e-16)
(-0.983294 -0.384445 -1.16145e-15)
(-0.513034 -0.109075 9.2028e-16)
(-0.444611 -0.0346596 0)
(-0.506041 -0.0320296 -7.9267e-16)
(-0.665926 -0.0623699 1.32529e-16)
(-1.13763 -0.389504 1.16145e-15)
(-0.449107 -0.159113 -4.79197e-18)
(-0.423912 -0.0919979 0)
(-0.516665 -0.0689996 2.07804e-18)
(-0.664787 -0.0978961 5.25291e-16)
(-0.589476 0.105916 0)
(-0.0570265 -0.106902 0)
(0.324838 -0.194942 0)
(0.242737 -0.0486272 0)
(0.0156158 0.0645765 0)
(-0.134853 0.0736856 0)
(-0.15547 0.0349552 0)
(-0.112438 0.0118802 0)
(-0.0829759 0.00534672 0)
(-0.0784462 0.00384795 0)
(-0.0783201 0.00458457 0)
(-0.070191 0.00320553 0)
(-0.0518419 0.00126748 0)
(-0.0324534 0.000125346 0)
(-0.020499 -7.70098e-05 0)
(-0.0152343 -6.66068e-05 0)
(-0.0128911 -5.05454e-05 0)
(-0.0112323 -6.31171e-05 0)
(-0.00963332 -9.92836e-05 0)
(-0.00801196 -0.00013274 0)
(-0.00642565 -0.000156087 0)
(-0.00504452 -0.000168741 0)
(-0.00382661 -0.000172997 0)
(-0.00273532 -0.000173345 0)
(-0.00181295 -0.000172682 0)
(-0.00104381 -0.000173582 0)
(-0.000335103 -0.000173504 0)
(0.000403239 -0.000181513 0)
(0.00161058 -0.000182754 0)
(0.00305538 -0.000181647 0)
(0.00542249 -0.00017362 0)
(0.00769676 -9.97435e-05 0)
(0.0104439 -7.22126e-05 0)
(0.0122013 0.00010291 0)
(0.0157655 -7.83913e-05 0)
(0.0212469 0.000363847 0)
(0.0346389 -9.23851e-05 0)
(-0.0839068 0.00326998 0)
(-0.418205 0.00727916 0)
(-0.311007 -0.0117932 0)
(-0.632888 0.047445 0)
(-0.113494 -0.149 0)
(0.321756 -0.232962 0)
(0.289579 -0.0488944 0)
(0.0410751 0.0525259 0)
(-0.136103 0.047502 0)
(-0.162991 0.0199198 0)
(-0.11623 0.0050313 0)
(-0.0838272 0.00189101 0)
(-0.078451 0.00115771 0)
(-0.0783266 0.00198027 0)
(-0.0705078 0.0011311 0)
(-0.0520963 0.000395278 0)
(-0.0325563 -3.57489e-05 0)
(-0.0205043 -8.30445e-05 0)
(-0.0152289 -6.40864e-05 0)
(-0.0128891 -5.26888e-05 0)
(-0.0112351 -5.44187e-05 0)
(-0.00963847 -6.6487e-05 0)
(-0.00801631 -7.80442e-05 0)
(-0.00642858 -8.66358e-05 0)
(-0.00504617 -9.22359e-05 0)
(-0.00382752 -9.55951e-05 0)
(-0.00273606 -9.83187e-05 0)
(-0.00181393 -0.000101353 0)
(-0.00104495 -0.000105467 0)
(-0.000337102 -0.000109283 0)
(0.000400942 -0.000116683 0)
(0.00160892 -0.000121 0)
(0.00305371 -0.000124241 0)
(0.00542678 -0.000126326 0)
(0.00770377 -0.000100795 0)
(0.0104708 -8.41244e-05 0)
(0.0122074 7.40477e-05 0)
(0.0158067 4.84875e-05 0)
(0.0212678 0.000434581 0)
(0.0349854 0.000462649 0)
(-0.0822717 0.00276157 0)
(-0.415448 0.00978329 0)
(-0.309499 0.0198829 0)
(-0.650805 -1.17094e-12 0)
(-0.138599 4.90848e-12 0)
(0.35396 8.42524e-12 0)
(0.325788 8.78795e-12 0)
(0.0436583 1.05463e-12 0)
(-0.144339 5.00704e-13 0)
(-0.167825 1.32076e-13 0)
(-0.117683 -2.35962e-12 0)
(-0.0841028 -1.40749e-12 0)
(-0.0784202 4.08054e-13 0)
(-0.0783279 -6.89947e-13 0)
(-0.0706521 -9.14672e-13 0)
(-0.0521813 -9.28471e-13 0)
(-0.0325925 -8.35821e-13 0)
(-0.0205073 -7.49085e-14 0)
(-0.0152254 5.20417e-13 0)
(-0.0128883 -2.1684e-14 0)
(-0.0112363 -1.44297e-12 0)
(-0.0096402 -5.32245e-13 0)
(-0.00801782 -8.47649e-14 0)
(-0.00642978 6.44607e-13 0)
(-0.00504713 1.42326e-12 0)
(-0.00382838 1.62039e-12 0)
(-0.002737 1.56716e-12 0)
(-0.00181503 1.10589e-12 0)
(-0.00104611 4.84934e-13 0)
(-0.000338366 -2.70065e-13 0)
(0.000399831 -1.19065e-12 0)
(0.00160839 -2.38919e-12 0)
(0.00305383 -4.51619e-12 0)
(0.00542931 -5.53732e-12 0)
(0.00770904 -5.9434e-12 0)
(0.0104948 -1.96536e-12 0)
(0.0122399 1.28527e-12 0)
(0.0158704 -2.63954e-12 0)
(0.0213674 -4.14165e-12 0)
(0.0353158 -5.73642e-13 0)
(-0.0811954 -7.90482e-13 0)
(-0.413224 1.58195e-11 0)
(-0.308069 1.05148e-11 0)
(-0.632888 -0.047445 0)
(-0.113494 0.149 0)
(0.321756 0.232962 0)
(0.289579 0.0488944 0)
(0.0410751 -0.0525259 0)
(-0.136103 -0.047502 0)
(-0.162991 -0.0199198 0)
(-0.11623 -0.0050313 0)
(-0.0838272 -0.00189101 0)
(-0.078451 -0.00115771 0)
(-0.0783266 -0.00198027 0)
(-0.0705078 -0.0011311 0)
(-0.0520963 -0.000395278 0)
(-0.0325563 3.57489e-05 0)
(-0.0205043 8.30445e-05 0)
(-0.0152289 6.40864e-05 0)
(-0.0128891 5.26888e-05 0)
(-0.0112351 5.44187e-05 0)
(-0.00963847 6.6487e-05 0)
(-0.00801631 7.80442e-05 0)
(-0.00642858 8.66358e-05 0)
(-0.00504617 9.22359e-05 0)
(-0.00382752 9.55951e-05 0)
(-0.00273606 9.83187e-05 0)
(-0.00181393 0.000101353 0)
(-0.00104495 0.000105467 0)
(-0.000337102 0.000109283 0)
(0.000400942 0.000116683 0)
(0.00160892 0.000121 0)
(0.00305371 0.000124241 0)
(0.00542678 0.000126326 0)
(0.00770377 0.000100795 0)
(0.0104708 8.41244e-05 0)
(0.0122074 -7.40477e-05 0)
(0.0158067 -4.84875e-05 0)
(0.0212678 -0.000434581 0)
(0.0349854 -0.000462649 0)
(-0.0822717 -0.00276157 0)
(-0.415448 -0.00978329 0)
(-0.309499 -0.0198829 0)
(-0.589476 -0.105916 0)
(-0.0570265 0.106902 0)
(0.324838 0.194942 0)
(0.242737 0.0486272 0)
(0.0156158 -0.0645765 0)
(-0.134853 -0.0736856 0)
(-0.15547 -0.0349552 0)
(-0.112438 -0.0118802 0)
(-0.0829759 -0.00534672 0)
(-0.0784462 -0.00384795 0)
(-0.0783201 -0.00458457 0)
(-0.070191 -0.00320553 0)
(-0.0518419 -0.00126748 0)
(-0.0324534 -0.000125346 0)
(-0.020499 7.70098e-05 0)
(-0.0152343 6.66068e-05 0)
(-0.0128911 5.05454e-05 0)
(-0.0112323 6.31171e-05 0)
(-0.00963332 9.92836e-05 0)
(-0.00801196 0.00013274 0)
(-0.00642565 0.000156087 0)
(-0.00504452 0.000168741 0)
(-0.00382661 0.000172997 0)
(-0.00273532 0.000173345 0)
(-0.00181295 0.000172682 0)
(-0.00104381 0.000173582 0)
(-0.000335103 0.000173504 0)
(0.000403239 0.000181513 0)
(0.00161058 0.000182754 0)
(0.00305538 0.000181647 0)
(0.00542249 0.00017362 0)
(0.00769676 9.97435e-05 0)
(0.0104439 7.22126e-05 0)
(0.0122013 -0.00010291 0)
(0.0157655 7.83913e-05 0)
(0.0212469 -0.000363847 0)
(0.0346389 9.23851e-05 0)
(-0.0839068 -0.00326998 0)
(-0.418205 -0.00727916 0)
(-0.311007 0.0117932 0)
(-0.131046 -0.236453 0)
(0.00993409 0.0163487 0)
(0.281637 0.0282815 0)
(0.180952 -0.0447807 0)
(-0.00621101 -0.111952 0)
(-0.118967 -0.101178 0)
(-0.132918 -0.0527707 0)
(-0.102041 -0.0223924 0)
(-0.079773 -0.0114603 0)
(-0.0779785 -0.00862683 0)
(-0.0779311 -0.0082274 0)
(-0.0687934 -0.00581169 0)
(-0.0504584 -0.00242451 0)
(-0.0318319 -0.000429346 0)
(-0.0203899 5.22237e-05 0)
(-0.0152394 6.44041e-05 0)
(-0.0128889 5.17018e-05 0)
(-0.0112078 9.20996e-05 0)
(-0.00960074 0.00016354 0)
(-0.00798571 0.00022706 0)
(-0.00640938 0.000271039 0)
(-0.00503748 0.000294197 0)
(-0.00382567 0.00030153 0)
(-0.00273711 0.000301665 0)
(-0.00181493 0.000299807 0)
(-0.00104577 0.00030052 0)
(-0.000334438 0.000300305 0)
(0.000404087 0.000312804 0)
(0.00160707 0.000314875 0)
(0.00304605 0.000311933 0)
(0.00538035 0.000284854 0)
(0.00764826 0.00015946 0)
(0.0103747 9.77436e-05 0)
(0.0122183 -0.000115212 0)
(0.0156906 9.04813e-05 0)
(0.0213007 -0.000321314 0)
(0.0335632 0.000169921 0)
(-0.085005 -0.00384182 0)
(-0.402811 0.000818092 0)
(-0.295792 0.009095 0)
(0.00297478 -0.390386 0)
(0.162175 -0.0352203 0)
(0.289097 -0.0235625 0)
(0.140735 -0.0908271 0)
(-0.0270265 -0.131684 0)
(-0.0863427 -0.107603 0)
(-0.0916418 -0.0649035 0)
(-0.0782048 -0.0323514 0)
(-0.0714285 -0.0190463 0)
(-0.0755816 -0.0142366 0)
(-0.075816 -0.0120678 0)
(-0.0653486 -0.00797186 0)
(-0.0473971 -0.00343642 0)
(-0.0303999 -0.00074622 0)
(-0.0200818 4.21157e-05 0)
(-0.015232 0.000128626 0)
(-0.0128656 0.00014808 0)
(-0.0111376 0.000231427 0)
(-0.00952074 0.000343326 0)
(-0.00792244 0.000439318 0)
(-0.00636969 0.000505848 0)
(-0.00501891 0.00054162 0)
(-0.00381992 0.000554961 0)
(-0.00273602 0.000559342 0)
(-0.00181299 0.000562383 0)
(-0.00104228 0.000570433 0)
(-0.000323622 0.000578204 0)
(0.000416824 0.00060733 0)
(0.00161163 0.000622172 0)
(0.00303146 0.000630751 0)
(0.00529816 0.000597364 0)
(0.00754246 0.000431099 0)
(0.0102164 0.000334853 0)
(0.0121852 4.01751e-05 0)
(0.015607 0.000231938 0)
(0.0212946 -0.000159176 0)
(0.0318232 3.18665e-05 0)
(-0.0826933 -0.00376091 0)
(-0.413994 0.00629052 0)
(-0.31119 -0.00668167 0)
(0.211204 -0.274746 0)
(0.363418 0.0245315 0)
(0.228053 -0.0177941 0)
(0.0767616 -0.113957 0)
(-0.0223772 -0.121937 0)
(-0.0546146 -0.0937653 0)
(-0.0604023 -0.0619401 0)
(-0.0578516 -0.0362387 0)
(-0.0623169 -0.0248966 0)
(-0.0712538 -0.019289 0)
(-0.0718942 -0.0154604 0)
(-0.0604759 -0.00966987 0)
(-0.0434955 -0.00429477 0)
(-0.0284799 -0.00115 0)
(-0.0195468 -9.22933e-05 0)
(-0.0151372 0.000127209 0)
(-0.0127898 0.000221397 0)
(-0.0110197 0.000358968 0)
(-0.00940041 0.00051532 0)
(-0.0078291 0.000644513 0)
(-0.0063108 0.000734174 0)
(-0.00499015 0.000784032 0)
(-0.0038086 0.000805769 0)
(-0.00272996 0.000818005 0)
(-0.00180424 0.000830889 0)
(-0.00103052 0.000851882 0)
(-0.000298883 0.000872397 0)
(0.000446456 0.000926932 0)
(0.00162964 0.000961344 0)
(0.00302214 0.000987586 0)
(0.00518796 0.000955429 0)
(0.00739529 0.00074927 0)
(0.00999796 0.000626839 0)
(0.0121191 0.000272588 0)
(0.0154985 0.000422483 0)
(0.0211079 7.77765e-06 0)
(0.0300925 -0.000173661 0)
(-0.078974 -0.00263788 0)
(-0.405626 0.00637301 0)
(-0.308292 0.0112525 0)
(0.29137 -0.0880229 0)
(0.409784 0.00785616 0)
(0.155645 -0.0429947 0)
(0.0403789 -0.108507 0)
(-0.00756944 -0.0972536 0)
(-0.0285278 -0.0767545 0)
(-0.0362071 -0.0537915 0)
(-0.0425084 -0.036466 0)
(-0.0550952 -0.0280062 0)
(-0.0664884 -0.0230151 0)
(-0.0665466 -0.0174855 0)
(-0.054589 -0.0106352 0)
(-0.0391871 -0.00475212 0)
(-0.0263503 -0.0015219 0)
(-0.018851 -0.000322201 0)
(-0.0149298 2.93456e-05 0)
(-0.0126423 0.00022338 0)
(-0.0108544 0.000418847 0)
(-0.00924558 0.000613159 0)
(-0.00771155 0.000767218 0)
(-0.00623524 0.000875324 0)
(-0.00494992 0.00093913 0)
(-0.00378718 0.000973083 0)
(-0.00271182 0.00100011 0)
(-0.00178034 0.00103179 0)
(-0.00100228 0.00107502 0)
(-0.000251301 0.00111689 0)
(0.000502537 0.00120541 0)
(0.00167008 0.00126634 0)
(0.00302576 0.00131401 0)
(0.00506851 0.00128577 0)
(0.00722582 0.00105745 0)
(0.00975701 0.000909781 0)
(0.0119883 0.000534857 0)
(0.0153518 0.000566446 0)
(0.0207201 0.000129298 0)
(0.0292737 -0.000455991 0)
(-0.0763847 -0.000997529 0)
(-0.400608 0.00515394 0)
(-0.306488 0.00731509 0)
(0.303597 -0.0405795 0)
(0.406809 -0.0288103 0)
(0.115921 -0.0511031 0)
(0.0244757 -0.0875289 0)
(0.00822079 -0.0691937 0)
(-0.0127329 -0.0583713 0)
(-0.0215788 -0.0437889 0)
(-0.0330039 -0.034846 0)
(-0.0493551 -0.0293109 0)
(-0.0611156 -0.0249587 0)
(-0.0599645 -0.0179847 0)
(-0.0482056 -0.0106998 0)
(-0.0347136 -0.0048117 0)
(-0.0242111 -0.00174627 0)
(-0.018052 -0.00051625 0)
(-0.0146115 -6.16789e-05 0)
(-0.0124145 0.000203583 0)
(-0.0106441 0.000447426 0)
(-0.0090647 0.000665003 0)
(-0.00757647 0.00083196 0)
(-0.00614514 0.000952857 0)
(-0.00489594 0.0010314 0)
(-0.00374983 0.00108397 0)
(-0.00267339 0.00113642 0)
(-0.00173205 0.00120011 0)
(-0.000948515 0.00127849 0)
(-0.000173241 0.00135593 0)
(0.000590464 0.00149697 0)
(0.00173429 0.00159794 0)
(0.00304087 0.00168076 0)
(0.00494073 0.00167662 0)
(0.00703297 0.00145923 0)
(0.00949437 0.00131851 0)
(0.0117883 0.000974979 0)
(0.0151077 0.000953751 0)
(0.0201227 0.000559542 0)
(0.0290066 -0.000135341 0)
(-0.0735681 0.000477033 0)
(-0.397615 0.00468899 0)
(-0.30621 0.00381277 0)
(0.302711 -0.0399198 0)
(0.399643 -0.0404403 0)
(0.0990616 -0.0454267 0)
(0.0229462 -0.0550959 0)
(0.0205278 -0.0464157 0)
(-0.00404679 -0.0435043 0)
(-0.0135373 -0.0362272 0)
(-0.0285569 -0.0329195 0)
(-0.0455674 -0.0301018 0)
(-0.0555741 -0.0255113 0)
(-0.0528062 -0.0176782 0)
(-0.041895 -0.010205 0)
(-0.0305592 -0.00474306 0)
(-0.022211 -0.00192216 0)
(-0.0172277 -0.000697894 0)
(-0.0142361 -0.000153923 0)
(-0.0121517 0.00016002 0)
(-0.0104097 0.000440895 0)
(-0.00887503 0.000672812 0)
(-0.00743416 0.000847529 0)
(-0.00604306 0.000978532 0)
(-0.00482358 0.00107212 0)
(-0.00368597 0.00114569 0)
(-0.0025999 0.00122614 0)
(-0.00164344 0.00132169 0)
(-0.000852125 0.00143219 0)
(-4.07686e-05 0.0015396 0)
(0.000735754 0.00172057 0)
(0.00184719 0.0018415 0)
(0.00310158 0.00193082 0)
(0.00485503 0.00192085 0)
(0.00688074 0.00168915 0)
(0.00929037 0.00152351 0)
(0.0116368 0.00116395 0)
(0.0149515 0.0010666 0)
(0.0196706 0.000701806 0)
(0.0291942 -4.30136e-05 0)
(-0.0717358 0.00154116 0)
(-0.397394 0.00585897 0)
(-0.307332 0.00303525 0)
(0.303095 -0.0350947 0)
(0.401502 -0.0364079 0)
(0.101798 -0.0347392 0)
(0.0235227 -0.0311766 0)
(0.0193908 -0.0322989 0)
(-0.00291485 -0.0339167 0)
(-0.011379 -0.0322593 0)
(-0.0271013 -0.0318467 0)
(-0.0422162 -0.0301379 0)
(-0.0491438 -0.0245376 0)
(-0.0452149 -0.0163241 0)
(-0.0357408 -0.00908349 0)
(-0.0267319 -0.00423292 0)
(-0.020313 -0.00173957 0)
(-0.0163481 -0.000598696 0)
(-0.0137848 -5.27846e-05 0)
(-0.0118413 0.000300993 0)
(-0.0101499 0.000587102 0)
(-0.00867286 0.000817201 0)
(-0.00728187 0.000990529 0)
(-0.00592872 0.00112785 0)
(-0.00473486 0.00123817 0)
(-0.00360141 0.00133887 0)
(-0.00250379 0.00145564 0)
(-0.00153349 0.00159032 0)
(-0.000738529 0.00173478 0)
(0.000104658 0.00187613 0)
(0.000881384 0.00210634 0)
(0.0019369 0.00224412 0)
(0.00311734 0.00232876 0)
(0.00470784 0.00229955 0)
(0.00665009 0.0020394 0)
(0.00898827 0.0018244 0)
(0.011348 0.00143041 0)
(0.0146624 0.00128404 0)
(0.0190534 0.000949791 0)
(0.0298154 0.000322019 0)
(-0.0678807 0.0022833 0)
(-0.396175 0.00672168 0)
(-0.308931 0.0041286 0)
(0.301446 -0.014856 0)
(0.399986 -0.0248911 0)
(0.104103 -0.0269101 0)
(0.0252978 -0.0229252 0)
(0.0178873 -0.0257147 0)
(-0.00400871 -0.0286321 0)
(-0.0115425 -0.0299835 0)
(-0.0265126 -0.0306357 0)
(-0.038524 -0.0285747 0)
(-0.0422626 -0.0222033 0)
(-0.0379141 -0.0142828 0)
(-0.0302435 -0.00777385 0)
(-0.0234823 -0.00364135 0)
(-0.0187089 -0.00147286 0)
(-0.0156022 -0.000448948 0)
(-0.0133691 0.000107896 0)
(-0.0115351 0.000528348 0)
(-0.00991228 0.000846582 0)
(-0.00848627 0.00108353 0)
(-0.00713481 0.00125819 0)
(-0.00580442 0.00140316 0)
(-0.00462023 0.00152932 0)
(-0.00347641 0.0016515 0)
(-0.00235759 0.00179172 0)
(-0.00137445 0.0019469 0)
(-0.000576714 0.002098 0)
(0.000317278 0.00224272 0)
(0.00109037 0.00249705 0)
(0.00206152 0.00261241 0)
(0.003155 0.00265514 0)
(0.00457619 0.00256768 0)
(0.00642286 0.00224254 0)
(0.00870352 0.00193667 0)
(0.0111161 0.00149992 0)
(0.0144884 0.00130238 0)
(0.0187436 0.000972154 0)
(0.0304792 0.000525489 0)
(-0.0655689 0.00255394 0)
(-0.395616 0.0072721 0)
(-0.309831 0.00544272 0)
(0.293425 0.000709721 0)
(0.389887 -0.0145184 0)
(0.103693 -0.0191673 0)
(0.0246746 -0.0174187 0)
(0.0138915 -0.0227678 0)
(-0.00702843 -0.0262024 0)
(-0.0133097 -0.0290668 0)
(-0.0257437 -0.0294288 0)
(-0.0340904 -0.0261946 0)
(-0.0353716 -0.0193197 0)
(-0.0313101 -0.0119894 0)
(-0.0254863 -0.00634805 0)
(-0.02066 -0.00284928 0)
(-0.0172367 -0.000926297 0)
(-0.0148248 0.000156598 0)
(-0.012843 0.000880758 0)
(-0.0111295 0.00137966 0)
(-0.00961493 0.00174023 0)
(-0.00827622 0.00199358 0)
(-0.00697386 0.00217624 0)
(-0.00566744 0.00233091 0)
(-0.00449555 0.00246725 0)
(-0.00334856 0.00259367 0)
(-0.00221913 0.00272288 0)
(-0.00123835 0.00284275 0)
(-0.000453472 0.0029642 0)
(0.000489193 0.00306874 0)
(0.00123763 0.00325032 0)
(0.00208924 0.00327716 0)
(0.00307423 0.00321044 0)
(0.00431025 0.00299428 0)
(0.00604202 0.00253257 0)
(0.00827266 0.00206104 0)
(0.0107368 0.00149771 0)
(0.0141538 0.00116763 0)
(0.0183048 0.000717643 0)
(0.0313397 0.000307048 0)
(-0.0613794 0.00221628 0)
(-0.393392 0.0076803 0)
(-0.310693 0.00688886 0)
(0.286771 0.00545062 0)
(0.380831 -0.00876248 0)
(0.101308 -0.0141669 0)
(0.0218281 -0.0153799 0)
(0.00942302 -0.0220294 0)
(-0.0100786 -0.0248807 0)
(-0.0146516 -0.0275732 0)
(-0.0237449 -0.0266502 0)
(-0.0287826 -0.0223775 0)
(-0.0285739 -0.0156104 0)
(-0.025414 -0.00922498 0)
(-0.0214358 -0.00457221 0)
(-0.0182577 -0.00172088 0)
(-0.0158124 -2.02059e-05 0)
(-0.0138609 0.00117987 0)
(-0.0121905 0.00198347 0)
(-0.0107069 0.00254735 0)
(-0.00932069 0.00294739 0)
(-0.00806611 0.00323379 0)
(-0.00680975 0.00344047 0)
(-0.005524 0.00361513 0)
(-0.00436703 0.00376507 0)
(-0.00323007 0.00389006 0)
(-0.00211757 0.00399713 0)
(-0.00114191 0.00406845 0)
(-0.000358936 0.00416118 0)
(0.000592997 0.00422996 0)
(0.0012912 0.00431803 0)
(0.00202309 0.00425929 0)
(0.00288241 0.00409126 0)
(0.00392297 0.00376279 0)
(0.00552355 0.00318178 0)
(0.0077063 0.00254334 0)
(0.0102552 0.00182991 0)
(0.0137367 0.00137549 0)
(0.0179143 0.000890207 0)
(0.0319234 0.000459699 0)
(-0.0584637 0.00187306 0)
(-0.391113 0.00769474 0)
(-0.310593 0.00886804 0)
(0.279729 0.00302947 0)
(0.370983 -0.00595785 0)
(0.0973157 -0.0116331 0)
(0.017098 -0.0145228 0)
(0.00473616 -0.0218909 0)
(-0.0123706 -0.0234583 0)
(-0.0150149 -0.0249628 0)
(-0.020737 -0.0226923 0)
(-0.023452 -0.0179373 0)
(-0.0226974 -0.0118289 0)
(-0.0206733 -0.00655469 0)
(-0.0182551 -0.00269873 0)
(-0.0162736 -0.000122761 0)
(-0.0144414 0.00167673 0)
(-0.012894 0.00286645 0)
(-0.0115253 0.0037468 0)
(-0.0102006 0.00442951 0)
(-0.00895345 0.00494682 0)
(-0.00780107 0.00532773 0)
(-0.00660639 0.0055948 0)
(-0.00535465 0.00579018 0)
(-0.00423062 0.00591595 0)
(-0.00312493 0.00597157 0)
(-0.00204722 0.00598136 0)
(-0.00108027 0.00594965 0)
(-0.00029784 0.00592215 0)
(0.000640342 0.00584916 0)
(0.0012659 0.00581476 0)
(0.00187071 0.00559578 0)
(0.00259578 0.00526182 0)
(0.00343385 0.0047682 0)
(0.00486692 0.00402848 0)
(0.00696994 0.00318428 0)
(0.00961138 0.00229542 0)
(0.0132483 0.00170696 0)
(0.0174223 0.00121044 0)
(0.0322868 0.000789261 0)
(-0.0544075 0.00197101 0)
(-0.386651 0.0088202 0)
(-0.309563 0.0105107 0)
(0.278111 0.00312644 0)
(0.366702 -0.00505076 0)
(0.0930544 -0.0107679 0)
(0.0119433 -0.0143282 0)
(0.000812535 -0.0214489 0)
(-0.0130387 -0.0212433 0)
(-0.0139135 -0.0209212 0)
(-0.0169749 -0.0176903 0)
(-0.0183142 -0.013039 0)
(-0.0176052 -0.00790611 0)
(-0.0166159 -0.00363358 0)
(-0.0152377 -0.000307884 0)
(-0.0140413 0.0020692 0)
(-0.0129318 0.00372745 0)
(-0.0118661 0.00487429 0)
(-0.0106843 0.00576418 0)
(-0.0095505 0.00643679 0)
(-0.00845513 0.00696519 0)
(-0.0074417 0.00737216 0)
(-0.00636412 0.00766793 0)
(-0.00521453 0.00788585 0)
(-0.00419223 0.00801839 0)
(-0.00316703 0.00806257 0)
(-0.00213869 0.00805366 0)
(-0.00119896 0.0080078 0)
(-0.00045577 0.00794745 0)
(0.000489514 0.00781181 0)
(0.00104703 0.00774758 0)
(0.00149025 0.00743565 0)
(0.00208493 0.0070038 0)
(0.00273448 0.00639091 0)
(0.00399723 0.0055445 0)
(0.00603626 0.00453619 0)
(0.00883159 0.00349913 0)
(0.0126911 0.00279851 0)
(0.01703 0.00222782 0)
(0.0326563 0.00172489 0)
(-0.0507248 0.00246195 0)
(-0.382884 0.00975474 0)
(-0.308964 0.0141867 0)
(0.271849 0.00543294 0)
(0.357593 -0.00232644 0)
(0.0883757 -0.00837338 0)
(0.00680542 -0.011987 0)
(-0.00192749 -0.018464 0)
(-0.0118621 -0.017013 0)
(-0.0115911 -0.0154934 0)
(-0.0131414 -0.0120969 0)
(-0.0140236 -0.00794363 0)
(-0.013634 -0.00367626 0)
(-0.0133514 -3.64821e-05 0)
(-0.0127597 0.00270199 0)
(-0.012385 0.00464396 0)
(-0.0117383 0.00612244 0)
(-0.0109313 0.00729483 0)
(-0.0100196 0.00817342 0)
(-0.00904327 0.00885769 0)
(-0.00805208 0.00941925 0)
(-0.00712388 0.00987392 0)
(-0.00611138 0.0102044 0)
(-0.00501693 0.0104153 0)
(-0.00406032 0.0104986 0)
(-0.00309095 0.01048 0)
(-0.0021 0.0104197 0)
(-0.00118262 0.010336 0)
(-0.000486703 0.0102841 0)
(0.000447743 0.0101217 0)
(0.000903411 0.00998949 0)
(0.00115398 0.00964203 0)
(0.00158903 0.0091995 0)
(0.00202761 0.0085526 0)
(0.00307965 0.00768772 0)
(0.00499894 0.00660443 0)
(0.00793689 0.00548522 0)
(0.0120232 0.00473531 0)
(0.0163877 0.00420651 0)
(0.0325124 0.00357258 0)
(-0.0466696 0.00417042 0)
(-0.375353 0.0128583 0)
(-0.305292 0.0174147 0)
(0.270634 0.00902818 0)
(0.353398 0.00214411 0)
(0.0837451 -0.00516176 0)
(0.00221966 -0.00809647 0)
(-0.0040307 -0.0137107 0)
(-0.0101762 -0.0117941 0)
(-0.00917621 -0.00946883 0)
(-0.00969967 -0.00605524 0)
(-0.0101997 -0.00213465 0)
(-0.00998558 0.00119236 0)
(-0.0104695 0.00370323 0)
(-0.0107275 0.00581532 0)
(-0.0107453 0.0074009 0)
(-0.0103774 0.00875497 0)
(-0.00988968 0.00972259 0)
(-0.00917828 0.010442 0)
(-0.00834997 0.0109584 0)
(-0.00747586 0.0113502 0)
(-0.00668509 0.0116679 0)
(-0.0058424 0.0119375 0)
(-0.004931 0.012197 0)
(-0.00412988 0.0124075 0)
(-0.00324314 0.0125296 0)
(-0.00227748 0.0125834 0)
(-0.00132959 0.0125769 0)
(-0.000662272 0.0126008 0)
(0.000205604 0.012475 0)
(0.000584787 0.0123539 0)
(0.00072899 0.0120702 0)
(0.00103512 0.0117216 0)
(0.00127767 0.0111956 0)
(0.0021199 0.0104923 0)
(0.00391386 0.00958104 0)
(0.00703044 0.00870753 0)
(0.0114589 0.00825692 0)
(0.0159095 0.00824677 0)
(0.0326215 0.00779493 0)
(-0.0417767 0.00831756 0)
(-0.370121 0.0180455 0)
(-0.304574 0.0241539 0)
(0.265215 0.0195874 0)
(0.343919 0.00966198 0)
(0.0785075 0.00143852 0)
(-0.00143263 -0.000968423 0)
(-0.00549066 -0.00467856 0)
(-0.0077745 -0.00248876 0)
(-0.00606088 2.28448e-05 0)
(-0.00607391 0.00249188 0)
(-0.0070396 0.00534972 0)
(-0.00800841 0.00747999 0)
(-0.00889656 0.00904805 0)
(-0.00919647 0.0106178 0)
(-0.00955221 0.0118295 0)
(-0.00950104 0.0129226 0)
(-0.00930565 0.0137093 0)
(-0.00882876 0.0143168 0)
(-0.0081681 0.0147684 0)
(-0.00736831 0.0151405 0)
(-0.00655791 0.0154697 0)
(-0.00560152 0.0157512 0)
(-0.004564 0.0159901 0)
(-0.00373986 0.0161467 0)
(-0.00292144 0.0162164 0)
(-0.00205438 0.0162403 0)
(-0.00116589 0.0161876 0)
(-0.000584946 0.0161763 0)
(0.000209844 0.0160337 0)
(0.000513347 0.015916 0)
(0.000544656 0.0156619 0)
(0.000746251 0.0153357 0)
(0.000843052 0.0149436 0)
(0.00152378 0.0144142 0)
(0.00327905 0.0137111 0)
(0.00666092 0.0131517 0)
(0.0115792 0.0129616 0)
(0.0159425 0.0137027 0)
(0.0325806 0.0139416 0)
(-0.0367917 0.0151561 0)
(-0.360092 0.0250779 0)
(-0.299406 0.0354033 0)
(0.261069 0.0331818 0)
(0.335909 0.0203284 0)
(0.0735013 0.0109135 0)
(-0.00367498 0.00808679 0)
(-0.00549576 0.00571554 0)
(-0.00564577 0.00743017 0)
(-0.00437668 0.00973389 0)
(-0.0045665 0.0111039 0)
(-0.00539302 0.0129336 0)
(-0.00642174 0.0142766 0)
(-0.00744582 0.0154306 0)
(-0.00804721 0.0166518 0)
(-0.00852432 0.0175894 0)
(-0.00856584 0.0187103 0)
(-0.00854618 0.0196131 0)
(-0.0081577 0.0204741 0)
(-0.00755617 0.0211651 0)
(-0.00680005 0.021579 0)
(-0.00609665 0.0216919 0)
(-0.00534094 0.0216955 0)
(-0.00454985 0.0219948 0)
(-0.00391179 0.0225139 0)
(-0.00315298 0.0227989 0)
(-0.00230532 0.022686 0)
(-0.00139122 0.0222361 0)
(-0.000810494 0.0218736 0)
(-4.51989e-05 0.021348 0)
(0.000226492 0.0209967 0)
(0.000169806 0.0205199 0)
(0.000342921 0.0201561 0)
(0.000389626 0.019759 0)
(0.000932165 0.0193703 0)
(0.00269727 0.0186616 0)
(0.00630821 0.0180852 0)
(0.0119899 0.0176362 0)
(0.0168539 0.0186235 0)
(0.034022 0.019132 0)
(-0.0310454 0.0208742 0)
(-0.35061 0.0299362 0)
(-0.294624 0.0486759 0)
(0.252829 0.0601126 0)
(0.322461 0.0395382 0)
(0.066711 0.032895 0)
(-0.00644153 0.0278454 0)
(-0.00612341 0.0251468 0)
(-0.00390228 0.0254608 0)
(-0.00252076 0.0274432 0)
(-0.00299056 0.0279362 0)
(-0.00398226 0.0289948 0)
(-0.00560222 0.0292818 0)
(-0.00660767 0.0295975 0)
(-0.00711619 0.0296439 0)
(-0.00756862 0.0294768 0)
(-0.00755092 0.0293411 0)
(-0.00760595 0.0292203 0)
(-0.00733317 0.0296341 0)
(-0.00710345 0.0307107 0)
(-0.00686064 0.0324468 0)
(-0.00644559 0.0344857 0)
(-0.00530965 0.0359387 0)
(-0.00377534 0.0361565 0)
(-0.002965 0.0352145 0)
(-0.00275566 0.0338541 0)
(-0.00259676 0.033082 0)
(-0.00194872 0.0328576 0)
(-0.00144068 0.0334238 0)
(-0.000635166 0.0342034 0)
(-0.000284617 0.0347704 0)
(-0.000265417 0.0356262 0)
(1.29346e-05 0.0362417 0)
(8.58588e-05 0.0367734 0)
(0.000466344 0.0372612 0)
(0.00204067 0.0372052 0)
(0.00567283 0.0372079 0)
(0.012098 0.0370843 0)
(0.0173838 0.0389581 0)
(0.0347495 0.0408188 0)
(-0.0263804 0.0407584 0)
(-0.333302 0.0407591 0)
(-0.281348 0.0731337 0)
(0.241243 -0.172933 0)
(0.309681 -0.0386038 0)
(0.0622337 -0.00919465 0)
(-0.0111414 -0.023944 0)
(-0.00779366 -0.0288642 0)
(-0.00343289 -0.0370619 0)
(-0.0019913 -0.0419062 0)
(-0.00307134 -0.0490773 0)
(-0.00409634 -0.0541226 0)
(-0.00584098 -0.0595385 0)
(-0.00709686 -0.0627792 0)
(-0.00816346 -0.0671002 0)
(-0.00881611 -0.0702186 0)
(-0.00881308 -0.0741029 0)
(-0.00826391 -0.077586 0)
(-0.00672148 -0.0808408 0)
(-0.00484567 -0.0831822 0)
(-0.00316229 -0.0844648 0)
(-0.00273176 -0.0839726 0)
(-0.00373085 -0.0817236 0)
(-0.00524769 -0.0817605 0)
(-0.00613049 -0.0837472 0)
(-0.00520797 -0.0836794 0)
(-0.00326558 -0.0818758 0)
(-0.00106187 -0.0787466 0)
(0.000486339 -0.0756532 0)
(0.00125249 -0.0707897 0)
(0.00159755 -0.0681213 0)
(0.00158757 -0.0631065 0)
(0.00144842 -0.0595426 0)
(0.00137206 -0.0547176 0)
(0.0013483 -0.0504 0)
(0.00264594 -0.0453298 0)
(0.0061917 -0.040124 0)
(0.0136764 -0.0343003 0)
(0.0204526 -0.0272769 0)
(0.0357569 -0.0192879 0)
(-0.0311029 -0.0234458 0)
(-0.319412 -0.0455519 0)
(-0.263427 -0.134079 0)
(0.382274 -0.359921 0)
(0.480245 -0.430401 0)
(0.0808376 -0.313782 0)
(-0.0253958 -0.349204 0)
(-0.0187643 -0.366093 0)
(-0.0164701 -0.377882 0)
(-0.0140991 -0.391108 0)
(-0.0147627 -0.399492 0)
(-0.0140631 -0.4082 0)
(-0.013944 -0.414712 0)
(-0.0138944 -0.419352 0)
(-0.0142851 -0.423637 0)
(-0.0143167 -0.426015 0)
(-0.0146504 -0.428606 0)
(-0.0140988 -0.430382 0)
(-0.0127258 -0.432495 0)
(-0.0105957 -0.433921 0)
(-0.0076223 -0.434952 0)
(-0.00380402 -0.435251 0)
(-0.00317807 -0.434045 0)
(-0.00572538 -0.4325 0)
(-0.00481413 -0.431477 0)
(-0.000952279 -0.427561 0)
(0.00215669 -0.427404 0)
(0.00404759 -0.423898 0)
(0.00622688 -0.422379 0)
(0.00662281 -0.419315 0)
(0.0071192 -0.417654 0)
(0.00800138 -0.413983 0)
(0.00809683 -0.410944 0)
(0.00889596 -0.405545 0)
(0.00951272 -0.401007 0)
(0.011943 -0.392594 0)
(0.0163012 -0.387006 0)
(0.0244779 -0.376381 0)
(0.0318503 -0.367416 0)
(0.0384413 -0.349185 0)
(-0.0516893 -0.332558 0)
(-0.439912 -0.455402 0)
(-0.366656 -0.347585 0)
(0.173326 -0.148492 0)
(0.354142 -0.365325 0)
(0.140477 -0.279354 0)
(-0.0615507 -0.303435 0)
(-0.0354281 -0.316873 0)
(-0.0275382 -0.320727 0)
(-0.0228153 -0.328359 0)
(-0.0195413 -0.329773 0)
(-0.0187635 -0.333318 0)
(-0.0165879 -0.33465 0)
(-0.0156973 -0.336062 0)
(-0.0145837 -0.336521 0)
(-0.0136044 -0.336372 0)
(-0.0130214 -0.335782 0)
(-0.012011 -0.334681 0)
(-0.0101321 -0.333616 0)
(-0.00721328 -0.331989 0)
(-0.00444393 -0.330106 0)
(-0.00185836 -0.328691 0)
(-0.00107998 -0.328086 0)
(-0.0027725 -0.326514 0)
(-0.0013713 -0.325022 0)
(-0.00128372 -0.322941 0)
(0.000264392 -0.325366 0)
(0.00378042 -0.324905 0)
(0.00490281 -0.325643 0)
(0.00580615 -0.326279 0)
(0.00673536 -0.326491 0)
(0.00805312 -0.326677 0)
(0.00957994 -0.326437 0)
(0.0109482 -0.325138 0)
(0.0138282 -0.324307 0)
(0.0161371 -0.32066 0)
(0.0218153 -0.319955 0)
(0.0325542 -0.314938 0)
(0.04666 -0.311574 0)
(0.069348 -0.299569 0)
(-0.133458 -0.279501 0)
(-0.333893 -0.384424 0)
(-0.15953 -0.169482 0)
(0.173326 0.148492 0)
(0.354142 0.365325 0)
(0.140477 0.279354 0)
(-0.0615507 0.303435 0)
(-0.0354281 0.316873 0)
(-0.0275382 0.320727 0)
(-0.0228153 0.328359 0)
(-0.0195413 0.329773 0)
(-0.0187635 0.333318 0)
(-0.0165879 0.33465 0)
(-0.0156973 0.336062 0)