/*--------------------------------*- C++ -*----------------------------------*\
| =========                 |                                                 |
| \\      /  F ield         | OpenFOAM: The Open Source CFD Toolbox           |
|  \\    /   O peration     | Version:  v1912                                 |
|   \\  /    A nd           | Website:  www.openfoam.com                      |
|    \\/     M anipulation  |                                                 |
\*---------------------------------------------------------------------------*/
FoamFile
{
    version     2.0;
    format      ascii;
    class       volVectorField;
    location    "5.12";
    object      grad(p);
}
// * * * * * * * * * * * * * * * * * * * * * * * * * * * * * * * * * * * * * //

dimensions      [1 -2 -2 0 0 0 0];


internalField   nonuniform List<vector> 
1900
(
(135614 0.332966 0)
(-128680 -0.359414 0)
(-8380.42 1.10429 0)
(-1370.11 -1.12316 0)
(-1556.79 -0.760864 0)
(-1413.93 -0.643773 0)
(-1221.35 -3.91891 0)
(-826.807 18.7954 0)
(-612.605 -71.1353 0)
(254.897 -68.8783 0)
(135614 0.388454 0)
(-128680 -0.374744 0)
(-8381.18 1.0897 0)
(-1371.97 -1.46513 0)
(-1556.31 0.184447 0)
(-1417.09 0.666464 0)
(-1201.91 -7.55328 0)
(-894.023 1.57124 0)
(-700.279 -106.774 0)
(-542.765 -91.6421 0)
(135614 -1.62004e-08 0)
(-128680 1.78524e-08 0)
(-8381.51 -2.00906e-08 0)
(-1371.01 -6.57252e-10 0)
(-1554.65 4.26326e-10 0)
(-1421.67 2.98428e-09 0)
(-1220.45 4.20997e-09 0)
(-926.027 3.14415e-09 0)
(-705.819 1.81188e-09 0)
(-620.614 1.77636e-11 0)
(135614 -0.388454 0)
(-128680 0.374744 0)
(-8381.18 -1.0897 0)
(-1371.97 1.46513 0)
(-1556.31 -0.184447 0)
(-1417.09 -0.666464 0)
(-1201.91 7.55328 0)
(-894.023 -1.57124 0)
(-700.279 106.774 0)
(-542.765 91.6421 0)
(135614 -0.332966 0)
(-128680 0.359414 0)
(-8380.42 -1.10429 0)
(-1370.11 1.12316 0)
(-1556.79 0.760864 0)
(-1413.93 0.643773 0)
(-1221.35 3.91891 0)
(-826.807 -18.7954 0)
(-612.605 71.1353 0)
(254.897 68.8783 0)
(-308.361 -762.889 9.11924e-12)
(-1859.27 -669.144 -1.07067e-11)
(-2143.03 -816.249 -1.34261e-11)
(-207.988 -1295.53 0)
(-14424.7 -9009.84 -5.75908e-11)
(-835.314 -865.665 8.98139e-12)
(-1469.29 -790.439 1.07067e-11)
(-2207.19 -995.123 1.34261e-11)
(-3259.22 -1089.11 0)
(-13659.8 -7466.95 0)
(-1218.8 4.34435e-10 0)
(-1740.03 0 0)
(-2235.93 -1.28292e-09 0)
(-2933.18 6.05576e-10 0)
(-16849.6 -3.2778e-09 0)
(-835.314 865.665 8.98139e-12)
(-1469.29 790.439 1.07067e-11)
(-2207.19 995.123 1.34261e-11)
(-3259.22 1089.11 0)
(-13659.8 7466.95 0)
(-308.361 762.889 -2.7082e-11)
(-1859.27 669.144 -1.07067e-11)
(-2143.03 816.249 -1.34261e-11)
(-207.988 1295.53 -3.59345e-11)
(-14424.7 9009.84 5.75908e-11)
(-26772.6 10733.8 1.38076e-11)
(-4834.13 2913.71 -9.98373e-12)
(-3738.51 1589.37 0)
(-5232.98 1121.73 6.38663e-12)
(-8032.66 1459.72 -2.41715e-12)
(-22849.4 12452.1 -7.06543e-12)
(-6873.08 2016.14 5.03574e-12)
(-4171.2 516.641 0)
(-5149.6 453.798 -4.01618e-12)
(-7583.61 867.087 6.21807e-13)
(-24310.9 -1.34572e-10 0)
(-7835.24 1.0438e-09 0)
(-4285.01 2.13821e-10 0)
(-5135.91 1.58189e-09 1.61194e-12)
(-7396.23 4.15522e-10 -1.24361e-12)
(-22849.4 -12452.1 -7.06543e-12)
(-6873.08 -2016.14 5.03574e-12)
(-4171.2 -516.641 0)
(-5149.6 -453.798 -4.01618e-12)
(-7583.61 -867.087 6.21807e-13)
(-26772.6 -10733.8 7.06543e-12)
(-4834.13 -2913.71 -8.77513e-14)
(-3738.51 -1589.37 0)
(-5232.98 -1121.73 3.37829e-14)
(-8032.66 -1459.72 2.41715e-12)
(-7124.48 3938.37 0)
(-867.436 921.386 0)
(2279.05 135.539 0)
(1105.44 932.039 0)
(-685.915 1047.04 0)
(-1483.52 683.378 0)
(-1365.73 272.093 0)
(-938.449 101.363 0)
(-679.783 46.8485 0)
(-610.894 30.5253 0)
(-578.024 33.8273 0)
(-494.504 22.2052 0)
(-351.558 8.0652 0)
(-213.869 0.397803 0)
(-132.585 -1.00144 0)
(-97.385 -0.888988 0)
(-81.7047 -0.754665 0)
(-70.6279 -0.816049 0)
(-60.0936 -1.03431 0)
(-49.6299 -1.23707 0)
(-39.5589 -1.37351 0)
(-30.8513 -1.4419 0)
(-23.2265 -1.46004 0)
(-16.4705 -1.45638 0)
(-10.8338 -1.44823 0)
(-6.20246 -1.45102 0)
(-1.98968 -1.44969 0)
(2.42338 -1.49774 0)
(9.70788 -1.50654 0)
(18.4957 -1.50071 0)
(32.9864 -1.44839 0)
(47.0932 -0.975887 0)
(64.4174 -0.780271 0)
(76.3523 0.155729 0)
(100.527 -1.00617 0)
(123.474 1.83082 0)
(191.815 -2.57767 0)
(597.445 12.0781 0)
(6563.51 -11.6611 0)
(-6837.37 -682.492 0)
(-7269.78 2386.35 0)
(-1542.09 153.706 0)
(2128.74 -597.08 0)
(1273.11 673.198 0)
(-664.461 834.928 0)
(-1567.15 440.639 0)
(-1437.8 154.597 0)
(-967.064 43.6349 0)
(-687.182 17.4839 0)
(-611.643 9.70378 0)
(-578.403 14.9091 0)
(-496.99 7.95335 0)
(-353.372 2.47849 0)
(-214.573 -0.435191 0)
(-132.632 -0.775742 0)
(-97.3374 -0.627631 0)
(-81.6765 -0.523831 0)
(-70.6366 -0.492872 0)
(-60.1252 -0.571479 0)
(-49.6567 -0.648078 0)
(-39.5756 -0.700762 0)
(-30.8593 -0.731402 0)
(-23.2297 -0.746618 0)
(-16.4727 -0.757314 0)
(-10.8375 -0.769672 0)
(-6.20733 -0.788504 0)
(-2.00019 -0.806042 0)
(2.41126 -0.847203 0)
(9.70043 -0.866023 0)
(18.4899 -0.876105 0)
(33.0282 -0.869077 0)
(47.1485 -0.631019 0)
(64.5306 -0.528324 0)
(76.3245 0.138745 0)
(100.733 -0.0506226 0)
(123.434 2.11666 0)
(192.688 1.8986 0)
(597.305 10.1196 0)
(6566.9 1.23377 0)
(-6841.46 118.515 0)
(-7220.65 -1.22003e-08 0)
(-1735.34 4.79172e-08 0)
(2430.17 5.64316e-08 0)
(1522.02 4.54747e-08 0)
(-753.569 6.10421e-09 0)
(-1681.44 6.36259e-09 0)
(-1481.22 2.61609e-09 0)
(-978.337 -2.13607e-08 0)
(-689.654 -1.37385e-08 0)
(-611.643 2.01859e-09 0)
(-578.533 -4.06543e-09 0)
(-498.12 -4.79616e-09 0)
(-353.998 -4.00891e-09 0)
(-214.816 -4.81231e-09 0)
(-132.641 -4.03717e-10 0)
(-97.3117 1.15867e-09 0)
(-81.6655 -9.89108e-10 0)
(-70.6418 -5.21199e-09 0)
(-60.1388 -1.85306e-09 0)
(-49.6675 1.25556e-09 0)
(-39.5832 4.85268e-09 0)
(-30.8646 8.99886e-09 0)
(-23.234 1.13525e-08 0)
(-16.4772 1.06299e-08 0)
(-10.8429 1.00001e-08 0)
(-6.21304 1.11224e-08 0)
(-2.00676 1.05612e-08 0)
(2.40593 5.37348e-09 0)
(9.69947 -1.33227e-10 0)
(18.4948 -7.40014e-09 0)
(33.0577 -7.48896e-09 0)
(47.1923 1.61487e-11 0)
(64.6414 1.61487e-08 0)
(76.4913 2.12961e-08 0)
(101.102 2.52202e-08 0)
(124.041 1.9334e-08 0)
(194.143 4.78486e-08 0)
(597.251 1.31168e-08 0)
(6595.04 -4.3226e-08 0)
(-6872.2 -8.76632e-08 0)
(-7269.78 -2386.35 0)
(-1542.09 -153.706 0)
(2128.74 597.08 0)
(1273.11 -673.198 0)
(-664.461 -834.928 0)
(-1567.15 -440.639 0)
(-1437.8 -154.597 0)
(-967.064 -43.6349 0)
(-687.182 -17.4839 0)
(-611.643 -9.70378 0)
(-578.403 -14.9091 0)
(-496.99 -7.95335 0)
(-353.372 -2.47849 0)
(-214.573 0.435191 0)
(-132.632 0.775742 0)
(-97.3374 0.627631 0)
(-81.6765 0.523831 0)
(-70.6366 0.492872 0)
(-60.1252 0.571479 0)
(-49.6567 0.648078 0)
(-39.5756 0.700762 0)
(-30.8593 0.731402 0)
(-23.2297 0.746618 0)
(-16.4727 0.757314 0)
(-10.8375 0.769672 0)
(-6.20733 0.788503 0)
(-2.00019 0.806042 0)
(2.41126 0.847203 0)
(9.70043 0.866023 0)
(18.4899 0.876105 0)
(33.0282 0.869077 0)
(47.1485 0.631019 0)
(64.5306 0.528324 0)
(76.3245 -0.138745 0)
(100.733 0.0506225 0)
(123.434 -2.11666 0)
(192.688 -1.8986 0)
(597.305 -10.1196 0)
(6566.9 -1.23377 0)
(-6841.46 -118.515 0)
(-7124.48 -3938.37 0)
(-867.436 -921.386 0)
(2279.05 -135.539 0)
(1105.44 -932.039 0)
(-685.915 -1047.04 0)
(-1483.52 -683.378 0)
(-1365.73 -272.093 0)
(-938.449 -101.363 0)
(-679.783 -46.8485 0)
(-610.894 -30.5253 0)
(-578.024 -33.8273 0)
(-494.504 -22.2052 0)
(-351.558 -8.0652 0)
(-213.869 -0.397803 0)
(-132.585 1.00144 0)
(-97.385 0.888988 0)
(-81.7047 0.754665 0)
(-70.6279 0.816049 0)
(-60.0936 1.03431 0)
(-49.6299 1.23707 0)
(-39.5589 1.37351 0)
(-30.8513 1.4419 0)
(-23.2265 1.46004 0)
(-16.4705 1.45638 0)
(-10.8338 1.44823 0)
(-6.20246 1.45102 0)
(-1.98968 1.44969 0)
(2.42338 1.49774 0)
(9.70788 1.50654 0)
(18.4957 1.50071 0)
(32.9864 1.44839 0)
(47.0932 0.975887 0)
(64.4174 0.780271 0)
(76.3523 -0.155729 0)
(100.527 1.00617 0)
(123.474 -1.83082 0)
(191.815 2.57767 0)
(597.445 -12.0781 0)
(6563.51 11.6611 0)
(-6837.37 682.492 0)
(3264.12 -1414.79 0)
(63.2509 -537.359 0)
(1948.27 -1084.06 0)
(895.212 -1469.77 0)
(-483.676 -1380.53 0)
(-1177.73 -912.765 0)
(-1156.05 -429.264 0)
(-858.86 -188.97 0)
(-651.303 -95.7356 0)
(-604.342 -66.8794 0)
(-573.624 -60.0996 0)
(-483.706 -40.1745 0)
(-341.79 -15.7294 0)
(-209.699 -2.27225 0)
(-131.88 0.83766 0)
(-97.4371 0.880859 0)
(-81.6897 0.779921 0)
(-70.4713 1.04858 0)
(-59.8977 1.48839 0)
(-49.475 1.87188 0)
(-39.4664 2.12995 0)
(-30.8143 2.25919 0)
(-23.2243 2.29516 0)
(-16.4826 2.29143 0)
(-10.8452 2.27888 0)
(-6.21203 2.28482 0)
(-1.98303 2.28767 0)
(2.4329 2.36634 0)
(9.69367 2.38863 0)
(18.4467 2.38296 0)
(32.7473 2.22964 0)
(46.7934 1.4928 0)
(63.9515 1.06295 0)
(76.434 -0.325082 0)
(99.9201 0.891994 0)
(124.375 -2.14313 0)
(187.27 3.06658 0)
(602.841 -18.6592 0)
(7006.51 1.60539 0)
(-7281.61 158.798 0)
(3305.35 381.487 0)
(-1047.8 -638.905 0)
(1557.91 -1116.21 0)
(932.475 -1347.68 0)
(-257.609 -1330.25 0)
(-730.825 -947.033 0)
(-780.689 -544.564 0)
(-659.728 -270.284 0)
(-577.405 -154.175 0)
(-580.068 -109.196 0)
(-554.649 -87.7541 0)
(-457.537 -55.1986 0)
(-320.271 -22.7023 0)
(-200.141 -4.54415 0)
(-129.925 0.531071 0)
(-97.4127 1.05361 0)
(-81.5511 1.16074 0)
(-70.0292 1.67942 0)
(-59.4054 2.37024 0)
(-49.0947 2.95277 0)
(-39.2353 3.3469 0)
(-30.7119 3.55116 0)
(-23.1966 3.62125 0)
(-16.4797 3.64057 0)
(-10.8341 3.65551 0)
(-6.18885 3.70463 0)
(-1.91469 3.75428 0)
(2.51556 3.93261 0)
(9.73152 4.02981 0)
(18.3688 4.09271 0)
(32.2569 3.89839 0)
(46.1297 2.89346 0)
(62.9155 2.29178 0)
(76.1438 0.430551 0)
(99.1002 1.5015 0)
(125.086 -1.40312 0)
(178.337 1.641 0)
(593.143 -20.5108 0)
(6496.96 -14.2297 0)
(-6753.72 -659.742 0)
(3016.06 245.374 0)
(-1379.98 -444.219 0)
(1265.26 -569.609 0)
(688.953 -1077.72 0)
(-97.5968 -1066.23 0)
(-420.616 -802.324 0)
(-503.909 -520.674 0)
(-482.667 -298.82 0)
(-496.072 -197.352 0)
(-540.336 -146.369 0)
(-521.59 -111.664 0)
(-421.02 -66.8829 0)
(-292.978 -28.6716 0)
(-187.311 -7.46029 0)
(-126.486 -0.556671 0)
(-96.8304 0.80778 0)
(-81.0867 1.38469 0)
(-69.3057 2.23057 0)
(-58.6706 3.19012 0)
(-48.5338 3.97284 0)
(-38.8898 4.50597 0)
(-30.55 4.79434 0)
(-23.1381 4.91392 0)
(-16.4496 4.97959 0)
(-10.7835 5.05407 0)
(-6.11686 5.18309 0)
(-1.76334 5.31105 0)
(2.69842 5.64358 0)
(9.84795 5.85957 0)
(18.3201 6.03053 0)
(31.5917 5.84554 0)
(45.2452 4.60712 0)
(61.5782 3.89297 0)
(75.6725 1.73525 0)
(98.1531 2.54172 0)
(124.509 -0.360585 0)
(168.857 -0.1609 0)
(587.547 -15.3616 0)
(6390.53 3.73618 0)
(-6632.14 -231.074 0)
(3113.73 571.677 0)
(-1833.14 -228.728 0)
(947.442 -371.818 0)
(453.913 -839.269 0)
(7.77699 -792.564 0)
(-205.108 -639.097 0)
(-295.494 -445.182 0)
(-348.163 -294.785 0)
(-430.497 -218.094 0)
(-497.496 -172.286 0)
(-478.053 -125.156 0)
(-377.562 -73.246 0)
(-263.009 -31.8319 0)
(-173.048 -10.0722 0)
(-121.958 -2.18855 0)
(-95.5419 0.0542531 0)
(-80.1801 1.2513 0)
(-68.2895 2.45855 0)
(-57.7264 3.65001 0)
(-47.8267 4.58323 0)
(-38.4437 5.22765 0)
(-30.3187 5.6003 0)
(-23.018 5.79439 0)
(-16.3447 5.95105 0)
(-10.638 6.14205 0)
(-5.94122 6.40975 0)
(-1.47094 6.67041 0)
(3.04413 7.21092 0)
(10.1044 7.59158 0)
(18.3552 7.89834 0)
(30.8852 7.74369 0)
(44.2482 6.38589 0)
(60.1481 5.52432 0)
(74.8417 3.26263 0)
(97.0806 3.39286 0)
(122.481 0.535748 0)
(163.881 -2.33846 0)
(596.898 -7.22621 0)
(6289.09 10.8176 0)
(-6534.65 -241.586 0)
(3346.54 607.036 0)
(-2289.17 -164.617 0)
(676.925 -312.366 0)
(283.507 -635.72 0)
(95.2958 -541.405 0)
(-85.8668 -473.141 0)
(-172.117 -355.605 0)
(-263.837 -275.382 0)
(-378.028 -224.33 0)
(-450.777 -184.071 0)
(-426.151 -127.456 0)
(-331.09 -73.2717 0)
(-232.101 -32.197 0)
(-158.745 -11.585 0)
(-116.727 -3.50751 0)
(-93.5156 -0.578487 0)
(-78.7698 1.09251 0)
(-66.9942 2.6024 0)
(-56.6232 3.93637 0)
(-47.0135 4.94782 0)
(-37.9097 5.66959 0)
(-30.0038 6.1317 0)
(-22.8001 6.43952 0)
(-16.1146 6.75191 0)
(-10.3415 7.1392 0)
(-5.60771 7.62302 0)
(-0.991309 8.10108 0)
(3.58608 8.96157 0)
(10.5104 9.58792 0)
(18.4667 10.1133 0)
(30.1342 10.1098 0)
(43.1065 8.82215 0)
(58.5685 7.99753 0)
(73.6185 5.92021 0)
(95.5254 5.80631 0)
(118.986 3.37093 0)
(161.378 -0.731883 0)
(600.225 1.03494 0)
(6164.69 10.0952 0)
(-6409.77 -295.705 0)
(3540.06 480.343 0)
(-2719.11 -157.172 0)
(493.47 -282.611 0)
(233.203 -398.886 0)
(164.444 -358.051 0)
(-26.0639 -344.728 0)
(-104.927 -287.587 0)
(-221.661 -254.43 0)
(-342.506 -226.307 0)
(-404.146 -185.332 0)
(-371.283 -123.919 0)
(-285.766 -69.4156 0)
(-203.566 -31.602 0)
(-145.402 -12.6762 0)
(-111.351 -4.64414 0)
(-91.1092 -1.14756 0)
(-77.1148 0.849212 0)
(-65.549 2.59328 0)
(-55.4663 4.0167 0)
(-46.1565 5.07652 0)
(-37.3029 5.86049 0)
(-29.5768 6.41495 0)
(-22.4204 6.85179 0)
(-15.6704 7.33603 0)
(-9.79856 7.91954 0)
(-5.01432 8.60268 0)
(-0.181064 9.26636 0)
(4.47691 10.3717 0)
(11.2143 11.1231 0)
(18.8581 11.694 0)
(29.641 11.6599 0)
(42.2127 10.2868 0)
(57.3516 9.31113 0)
(72.7302 7.13921 0)
(94.624 6.59386 0)
(116.181 4.46101 0)
(161.63 -0.346251 0)
(607.332 5.89774 0)
(6003.14 10.4341 0)
(-6259.43 -335.923 0)
(3657.96 332.854 0)
(-3024.38 -131.057 0)
(444 -223.438 0)
(210.81 -232.369 0)
(147.484 -250.475 0)
(-17.965 -262.555 0)
(-85.1024 -249.078 0)
(-204.786 -241.172 0)
(-311.443 -222.711 0)
(-352.112 -175.739 0)
(-314.45 -113.272 0)
(-242.13 -61.4251 0)
(-177.425 -28.1036 0)
(-132.768 -11.4319 0)
(-105.618 -3.96432 0)
(-88.222 -0.446787 0)
(-75.165 1.77027 0)
(-63.9419 3.54674 0)
(-54.2303 4.95704 0)
(-45.2368 6.00585 0)
(-36.6199 6.8261 0)
(-29.0486 7.48069 0)
(-21.9125 8.08125 0)
(-15.0857 8.78476 0)
(-9.12087 9.60466 0)
(-4.30985 10.4978 0)
(0.713359 11.3722 0)
(5.37527 12.7761 0)
(11.7846 13.6295 0)
(18.984 14.1746 0)
(28.7782 14.0258 0)
(40.8431 12.4811 0)
(55.5354 11.2084 0)
(71.0001 8.83227 0)
(92.9445 7.99911 0)
(112.299 6.10784 0)
(162.762 1.86248 0)
(610.613 9.36233 0)
(5835.3 6.76094 0)
(-6096.11 -371.629 0)
(3734.52 302.369 0)
(-3255.18 -92.2187 0)
(395.842 -178.7 0)
(207.148 -173.606 0)
(135.355 -196.956 0)
(-24.717 -216.31 0)
(-84.3207 -225.934 0)
(-196.253 -227.704 0)
(-279.453 -207.628 0)
(-298.687 -156.881 0)
(-261.126 -98.2055 0)
(-203.695 -52.2888 0)
(-155.391 -24.0892 0)
(-122.14 -9.63615 0)
(-100.766 -2.94947 0)
(-85.5831 0.622807 0)
(-73.2665 3.25632 0)
(-62.4781 5.2244 0)
(-53.0966 6.6691 0)
(-44.3554 7.71919 0)
(-35.8817 8.58067 0)
(-28.3673 9.32769 0)
(-21.1637 10.0562 0)
(-14.2024 10.9003 0)
(-8.1478 11.8419 0)
(-3.31101 12.7761 0)
(2.01436 13.6762 0)
(6.65211 15.2286 0)
(12.562 15.9425 0)
(19.24 16.2275 0)
(28.0091 15.716 0)
(39.4977 13.7629 0)
(53.8355 11.9193 0)
(69.6376 9.25817 0)
(91.9986 8.07 0)
(110.268 6.16993 0)
(164.766 3.03315 0)
(612.052 11.0166 0)
(5636 4.39668 0)
(-5907.83 -399.128 0)
(3860.47 224.234 0)
(-3487.95 -61.052 0)
(365.572 -127.249 0)
(193.218 -129.643 0)
(106.333 -170.361 0)
(-45.8895 -193.86 0)
(-96.0816 -214.745 0)
(-187.146 -214.912 0)
(-243.196 -187.265 0)
(-246.668 -134.819 0)
(-213.661 -81.7849 0)
(-170.709 -42.5205 0)
(-136.323 -18.8252 0)
(-112.397 -6.06712 0)
(-95.7321 0.977419 0)
(-82.2419 5.56128 0)
(-70.7307 8.66694 0)
(-60.6533 10.8614 0)
(-51.8262 12.3753 0)
(-43.3947 13.4467 0)
(-35.0699 14.3451 0)
(-27.6267 15.1365 0)
(-20.3971 15.8783 0)
(-13.3649 16.654 0)
(-7.31327 17.3909 0)
(-2.5423 18.1205 0)
(3.07672 18.7456 0)
(7.55917 19.9047 0)
(12.7472 20.0851 0)
(18.7657 19.6992 0)
(26.4032 18.3965 0)
(37.1844 15.5982 0)
(51.1944 12.7237 0)
(67.2908 9.26349 0)
(89.9686 7.22333 0)
(107.445 4.54106 0)
(167.433 1.63049 0)
(611.927 8.98497 0)
(5440.07 -2.89805 0)
(-5715.74 -426.29 0)
(3891.77 95.321 0)
(-3593.88 -37.7463 0)
(329.746 -90.823 0)
(165.605 -110.985 0)
(73.4724 -161.07 0)
(-67.4878 -181.083 0)
(-104.606 -200.27 0)
(-169.772 -191.345 0)
(-202.272 -157.601 0)
(-197.043 -107.787 0)
(-172.184 -62.5547 0)
(-143.024 -30.5645 0)
(-120.263 -11.3913 0)
(-103.058 -0.184653 0)
(-89.5601 7.55027 0)
(-78.1732 12.6072 0)
(-68.1592 16.077 0)
(-58.9047 18.4826 0)
(-50.6053 20.1673 0)
(-42.4571 21.3546 0)
(-34.2533 22.3473 0)
(-26.8899 23.1971 0)
(-19.7014 23.9101 0)
(-12.7448 24.5413 0)
(-6.73462 24.9823 0)
(-2.0056 25.5144 0)
(3.73366 25.8934 0)
(7.94288 26.5043 0)
(12.3639 26.1655 0)
(17.6129 25.1607 0)
(24.0572 23.1647 0)
(34.0312 19.6269 0)
(47.7311 15.7217 0)
(64.3372 11.3448 0)
(87.4479 8.55652 0)
(104.878 5.67785 0)
(169.049 2.68838 0)
(607.688 7.3633 0)
(5216.56 -8.23518 0)
(-5494.25 -444.842 0)
(3915.95 -67.9273 0)
(-3667.33 -30.5115 0)
(294.996 -71.9493 0)
(125.526 -102.411 0)
(38.7844 -157.144 0)
(-83.6643 -168.357 0)
(-105.97 -178.577 0)
(-146.028 -160.506 0)
(-162.677 -124.797 0)
(-155.078 -81.0356 0)
(-139.246 -44.2645 0)
(-121.406 -18.0129 0)
(-107.048 -0.849183 0)
(-94.1438 10.8552 0)
(-83.4054 18.4156 0)
(-74.0252 23.9019 0)
(-65.069 28.0632 0)
(-56.7117 31.1459 0)
(-49.0586 33.3632 0)
(-41.294 34.8714 0)
(-33.2944 35.9452 0)
(-26.1206 36.6068 0)
(-19.1018 36.8623 0)
(-12.3317 36.8662 0)
(-6.37546 36.6366 0)
(-1.6644 36.458 0)
(4.03059 36.0197 0)
(7.82143 35.8043 0)
(11.4525 34.4771 0)
(15.874 32.461 0)
(21.0706 29.4442 0)
(30.0122 24.9167 0)
(43.2135 19.7351 0)
(60.3861 14.2836 0)
(84.5077 10.6805 0)
(101.79 7.75292 0)
(169.057 4.93207 0)
(601.401 8.34797 0)
(5004.31 -13.1563 0)
(-5279.13 -485.506 0)
(3796.91 -205.841 0)
(-3597.75 -30.3773 0)
(260.461 -66.3968 0)
(83.5079 -100.019 0)
(9.92376 -151.758 0)
(-88.1413 -150.544 0)
(-97.0407 -147.696 0)
(-117.948 -123.628 0)
(-125.692 -89.9185 0)
(-119.438 -53.8681 0)
(-111.453 -24.4741 0)
(-101.188 -2.08301 0)
(-92.4444 13.5681 0)
(-84.4936 24.2294 0)
(-76.9878 31.4333 0)
(-68.8765 36.8972 0)
(-61.1786 40.9236 0)
(-53.7974 44.0125 0)
(-47.0152 46.3366 0)
(-39.9691 47.974 0)
(-32.5811 49.1469 0)
(-26.0061 49.8183 0)
(-19.4515 49.9774 0)
(-12.9623 49.8397 0)
(-7.12794 49.4948 0)
(-2.6 49.1317 0)
(3.10375 48.343 0)
(6.45632 47.9104 0)
(9.1422 45.9878 0)
(12.763 43.3618 0)
(16.7873 39.6005 0)
(24.6751 34.4012 0)
(37.4847 28.1966 0)
(55.6119 21.8443 0)
(81.1547 17.5668 0)
(99.3387 14.1958 0)
(169.622 10.99 0)
(590.258 12.7233 0)
(4740.66 -17.7216 0)
(-5013.72 -492.588 0)
(3688.32 -331.98 0)
(-3532.96 -22.2825 0)
(227.887 -51.6149 0)
(43.2689 -82.78 0)
(-9.90299 -128.945 0)
(-79.7504 -119.335 0)
(-80.0335 -108.264 0)
(-90.3516 -83.7733 0)
(-95.4534 -54.462 0)
(-92.0133 -25.0343 0)
(-89.3441 -0.328547 0)
(-84.7473 17.8808 0)
(-81.6925 30.5317 0)
(-76.9283 39.9591 0)
(-71.1983 47.2563 0)
(-64.88 52.5725 0)
(-58.2124 56.603 0)
(-51.4956 59.8398 0)
(-45.2412 62.4083 0)
(-38.5859 64.2112 0)
(-31.5172 65.2972 0)
(-25.3204 65.6245 0)
(-19.0812 65.3578 0)
(-12.7967 64.8741 0)
(-7.05771 64.28 0)
(-2.77434 63.9327 0)
(2.85369 62.9386 0)
(5.5519 62.1211 0)
(7.06927 59.946 0)
(9.7189 57.2306 0)
(12.4358 53.2396 0)
(19.023 47.9126 0)
(31.1132 41.2435 0)
(50.1429 34.4142 0)
(77.1374 29.8862 0)
(95.4525 26.8713 0)
(167.638 23.1728 0)
(573.733 24.79 0)
(4517.37 -18.5453 0)
(-4787.38 -522.804 0)
(3455.53 -370.261 0)
(-3327.58 -1.1288 0)
(202.164 -29.0791 0)
(8.99025 -54.193 0)
(-25.3024 -94.3019 0)
(-68.2131 -81.9337 0)
(-62.7716 -65.5026 0)
(-66.1019 -41.3953 0)
(-69.0888 -14.4547 0)
(-67.2733 8.15759 0)
(-70.0986 25.0119 0)
(-71.4497 38.9238 0)
(-71.169 49.1684 0)
(-68.3772 57.7316 0)
(-64.8331 63.6581 0)
(-59.8696 67.9118 0)
(-54.1756 70.8489 0)
(-48.2032 73.0181 0)
(-42.8027 74.754 0)
(-37.1852 76.1874 0)
(-31.2193 77.5458 0)
(-25.9477 78.595 0)
(-20.1745 79.1285 0)
(-14.0009 79.3102 0)
(-8.03518 79.1775 0)
(-3.89266 79.2764 0)
(1.35803 78.4753 0)
(3.57251 77.7608 0)
(4.42955 75.9849 0)
(6.30052 73.8628 0)
(7.80815 70.6074 0)
(13.1152 66.2711 0)
(24.4771 60.6632 0)
(44.6676 55.3922 0)
(73.8861 52.8473 0)
(92.8695 53.3597 0)
(167.616 51.2651 0)
(550.056 53.8196 0)
(4212.98 0.811714 0)
(-4492.05 -481.699 0)
(3330.43 -342.388 0)
(-3204.18 43.3731 0)
(176.752 14.8932 0)
(-19.5822 -4.72228 0)
(-36.6349 -31.4355 0)
(-51.9983 -17.0821 0)
(-40.9692 0.380441 0)
(-41.16 17.5835 0)
(-47.7024 36.9333 0)
(-53.9819 51.2373 0)
(-59.6967 61.5863 0)
(-61.4692 71.7625 0)
(-63.5686 79.3921 0)
(-62.9655 86.1067 0)
(-61.3883 90.7409 0)
(-57.9506 94.2102 0)
(-53.2918 96.7544 0)
(-47.7326 98.9207 0)
(-42.1871 100.91 0)
(-35.8956 102.522 0)
(-29.1971 103.631 0)
(-23.7952 104.035 0)
(-18.392 103.935 0)
(-12.7494 103.747 0)
(-7.09032 103.264 0)
(-3.45103 103.162 0)
(1.39325 102.274 0)
(3.15207 101.606 0)
(3.313 100.079 0)
(4.53691 98.1486 0)
(5.12016 95.7755 0)
(9.44044 92.547 0)
(20.6299 88.2311 0)
(42.6112 84.9685 0)
(75.1789 84.2485 0)
(93.9278 89.9494 0)
(168.081 92.8677 0)
(525.114 101.912 0)
(4001.33 30.2255 0)
(-4323.98 -391.655 0)
(3167.39 -129.987 0)
(-2983.29 108.477 0)
(155.817 69.8567 0)
(-35.6538 50.0869 0)
(-37.2128 33.3582 0)
(-37.5541 43.8659 0)
(-29.3666 59.1409 0)
(-30.8783 68.1795 0)
(-36.6588 80.2256 0)
(-43.5168 88.8649 0)
(-50.3197 96.0856 0)
(-54.2914 103.73 0)
(-57.3464 109.401 0)
(-57.4411 116.127 0)
(-57.0242 121.269 0)
(-54.0748 125.944 0)
(-49.6363 129.299 0)
(-44.1989 130.662 0)
(-39.3328 130.06 0)
(-34.563 129.129 0)
(-29.7613 130.58 0)
(-25.6551 133.842 0)
(-20.4521 135.853 0)
(-14.6472 135.294 0)
(-8.59851 132.494 0)
(-4.84646 130.071 0)
(-0.141761 126.617 0)
(1.45764 124.178 0)
(1.09834 121.036 0)
(2.15299 118.559 0)
(2.41026 116.023 0)
(5.84519 113.466 0)
(17.1742 109.013 0)
(40.8298 105.655 0)
(78.6858 103.465 0)
(101.175 110.954 0)
(179.144 115.92 0)
(489.692 128.687 0)
(3737.36 59.8386 0)
(-4143.77 -127.932 0)
(3309.71 327.216 0)
(-3011.6 218.469 0)
(120.486 173.13 0)
(-54.7534 147.921 0)
(-42.6297 132.132 0)
(-27.1532 134.05 0)
(-17.5398 146.865 0)
(-20.842 151.554 0)
(-27.7693 159.705 0)
(-38.6986 163.327 0)
(-45.3722 166.225 0)
(-48.6384 168.292 0)
(-51.6225 168.606 0)
(-51.5286 169.281 0)
(-51.9283 169.491 0)
(-50.2123 172.149 0)
(-48.7456 177.575 0)
(-46.9991 185.568 0)
(-43.6638 194.401 0)
(-35.3954 199.952 0)
(-24.6559 200.879 0)
(-18.7136 197.376 0)
(-16.9927 190.968 0)
(-15.9859 186.516 0)
(-12.1231 183.726 0)
(-9.11444 185.112 0)
(-4.28578 187.101 0)
(-2.22614 188.729 0)
(-2.10155 190.787 0)
(-0.294021 192.28 0)
(0.212745 193.225 0)
(2.68523 194.289 0)
(13.1021 192.362 0)
(37.2651 191.328 0)
(80.2852 190.34 0)
(105.93 202.776 0)
(185.17 214.809 0)
(471.073 219.42 0)
(3754.04 124.837 0)
(-4258.36 189.61 0)
(3693.23 10736.7 0)
(-3131.78 1307.36 0)
(87.8346 751.931 0)
(-75.1609 694.578 0)
(-50.5791 728.765 0)
(-23.3569 747.377 0)
(-12.4996 773.987 0)
(-18.5054 779.61 0)
(-25.3135 784.691 0)
(-37.2334 779.496 0)
(-45.5353 776.902 0)
(-51.9971 764.856 0)
(-56.3934 751.392 0)
(-56.5884 732.358 0)
(-54.2609 710.84 0)
(-46.2845 688.043 0)
(-36.7048 665.184 0)
(-27.9848 643.088 0)
(-25.472 635.858 0)
(-28.3207 629.787 0)
(-32.2439 630.867 0)
(-35.2052 641.117 0)
(-30.9164 643.466 0)
(-21.6267 665.153 0)
(-9.95156 673.115 0)
(-1.59371 689.25 0)
(3.34336 698.843 0)
(5.00957 706.263 0)
(4.52044 711.033 0)
(4.5024 710.562 0)
(4.34611 707.505 0)
(5.01361 698.854 0)
(14.3208 685.501 0)
(38.8815 661.925 0)
(89.7173 638.873 0)
(124.754 609.163 0)
(195.183 605.813 0)
(402.992 533.027 0)
(3708.64 1041.16 0)
(-4446.78 9618.71 0)
(14915.8 167935 0)
(-12633.2 14763.2 0)
(-470.013 5439.24 0)
(-77.0771 5286.06 0)
(8.24965 5387.38 0)
(16.4247 5680.91 0)
(13.5206 5898.71 0)
(-10.5271 6152.32 0)
(-27.879 6327.7 0)
(-46.2043 6473.98 0)
(-59.4798 6602.53 0)
(-73.2208 6685.01 0)
(-82.939 6765.77 0)
(-90.6062 6815.17 0)
(-94.6313 6858.31 0)
(-94.2085 6879.45 0)
(-92.0656 6894 0)
(-75.2587 6888.52 0)
(-56.4811 6885.09 0)
(-40.2051 6862.6 0)
(-13.738 6842.81 0)
(-6.57229 6806.69 0)
(6.16874 6778.89 0)
(12.5853 6641.54 0)
(11.0974 6515.66 0)
(15.6776 6349.55 0)
(12.1087 6187.13 0)
(9.52107 5975.87 0)
(2.04105 5774.54 0)
(-3.69373 5529.88 0)
(-11.0694 5296.67 0)
(-18.5189 5001.32 0)
(-22.4839 4739.51 0)
(-7.66798 4377.88 0)
(29.4422 4107.98 0)
(74.0726 3775.77 0)
(111.802 3757.02 0)
(890.593 3669.63 0)
(12509.3 12395 0)
(-14530.6 150492 0)
(179748 -185639 0)
(-159719 -16370.1 0)
(-9044.65 -6783.58 0)
(-125.139 -6496.4 0)
(329.915 -6573.74 0)
(469.384 -6847.32 0)
(441.767 -7077.88 0)
(394.885 -7319.79 0)
(284.649 -7476.74 0)
(227.599 -7586.25 0)
(157.818 -7664.98 0)
(105.31 -7688.3 0)
(69.0387 -7698.28 0)
(32.5895 -7673.88 0)
(7.6766 -7638.07 0)
(-11.8967 -7583.64 0)
(-27.9605 -7527.96 0)
(-36.5719 -7459.08 0)
(-50.4526 -7411.91 0)
(-69.0574 -7348.11 0)
(-86.1179 -7298.53 0)
(-96.803 -7244.49 0)
(-190.065 -7191.25 0)
(-275.282 -7053.66 0)
(-291.321 -6918.64 0)
(-318.185 -6762.86 0)
(-356.744 -6604.72 0)
(-392.578 -6405.22 0)
(-425.251 -6207.21 0)
(-455.984 -5966.04 0)
(-504.998 -5730.18 0)
(-531.892 -5430.49 0)
(-586.45 -5159 0)
(-569.679 -4798.58 0)
(-490.497 -4559.87 0)
(-213.443 -4320.13 0)
(92.907 -4415.24 0)
(8726.86 -4532.56 0)
(145192 -14395.6 0)
(-161410 -168185 0)
(179748 185639 0)
(-159719 16370.1 0)
(-9044.65 6783.58 0)
(-125.139 6496.4 0)
(329.915 6573.74 0)
(469.384 6847.32 0)
(441.767 7077.88 0)
(394.885 7319.79 0)
(284.649 7476.74 0)
(227.599 7586.25 0)
(157.818 7664.98 0)
(105.31 7688.3 0)
(69.0387 7698.28 0)
(32.5895 7673.88 0)
(7.6766 7638.07 0)
(-11.8967 7583.64 0)
(-27.9605 7527.96 0)
(-36.5719 7459.08 0)
(-50.4526 7411.91 0)
(-69.0574 7348.11 0)
(-86.1179 7298.53 0)
(-96.803 7244.49 0)
(-190.065 7191.25 0)
(-275.282 7053.66 0)
(-291.321 6918.64 0)
(-318.185 6762.86 0)
(-356.744 6604.72 0)
(-392.578 6405.22 0)
(-425.251 6207.21 0)
(-455.984 5966.04 0)
(-504.998 5730.18 0)
(-531.892 5430.49 0)
(-586.45 5159 0)
(-569.679 4798.58 0)
(-490.497 4559.87 0)
(-213.443 4320.13 0)
(92.907 4415.24 0)
(8726.86 4532.56 0)
(145192 14395.6 0)
(-161410 168185 0)
(14915.8 -167935 0)
(-12633.2 -14763.2 0)
(-470.013 -5439.24 0)
(-77.0771 -5286.06 0)
(8.24965 -5387.38 0)
(16.4247 -5680.91 0)
(13.5206 -5898.71 0)
(-10.5271 -6152.32 0)
(-27.879 -6327.7 0)
(-46.2043 -6473.98 0)
(-59.4798 -6602.53 0)
(-73.2208 -6685.01 0)
(-82.939 -6765.77 0)
(-90.6062 -6815.17 0)
(-94.6313 -6858.31 0)
(-94.2085 -6879.45 0)
(-92.0656 -6894 0)
(-75.2587 -6888.52 0)
(-56.4811 -6885.09 0)
(-40.2051 -6862.6 0)
(-13.738 -6842.81 0)
(-6.57229 -6806.69 0)
(6.16874 -6778.89 0)
(12.5853 -6641.54 0)
(11.0974 -6515.66 0)
(15.6776 -6349.55 0)
(12.1087 -6187.13 0)
(9.52107 -5975.87 0)
(2.04105 -5774.54 0)
(-3.69373 -5529.88 0)
(-11.0694 -5296.67 0)
(-18.5189 -5001.32 0)
(-22.4839 -4739.51 0)
(-7.66798 -4377.88 0)
(29.4422 -4107.98 0)
(74.0726 -3775.77 0)
(111.802 -3757.02 0)
(890.593 -3669.63 0)
(12509.3 -12395 0)
(-14530.6 -150492 0)
(3693.23 -10736.7 0)
(-3131.78 -1307.36 0)
(87.8346 -751.931 0)
(-75.1609 -694.578 0)
(-50.5791 -728.765 0)
(-23.3569 -747.377 0)
(-12.4996 -773.987 0)
(-18.5054 -779.61 0)
(-25.3135 -784.691 0)
(-37.2334 -779.496 0)
(-45.5353 -776.902 0)
(-51.9971 -764.856 0)
(-56.3934 -751.392 0)
(-56.5884 -732.358 0)
(-54.2609 -710.84 0)
(-46.2845 -688.043 0)
(-36.7048 -665.184 0)
(-27.9848 -643.088 0)
(-25.472 -635.858 0)
(-28.3207 -629.787 0)
(-32.2439 -630.867 0)
(-35.2052 -641.117 0)
(-30.9164 -643.466 0)
(-21.6267 -665.153 0)
(-9.95156 -673.115 0)
(-1.59371 -689.25 0)
(3.34336 -698.843 0)
(5.00957 -706.263 0)
(4.52044 -711.033 0)
(4.5024 -710.562 0)
(4.34611 -707.505 0)
(5.01361 -698.854 0)
(14.3208 -685.501 0)
(38.8815 -661.925 0)
(89.7173 -638.873 0)
(124.754 -609.163 0)
(195.183 -605.813 0)
(402.992 -533.027 0)
(3708.64 -1041.16 0)
(-4446.78 -9618.71 0)
(3309.71 -327.216 0)
(-3011.6 -218.469 0)
(120.486 -173.13 0)
(-54.7534 -147.921 0)
(-42.6297 -132.132 0)
(-27.1532 -134.05 0)
(-17.5398 -146.865 0)
(-20.842 -151.554 0)
(-27.7693 -159.705 0)
(-38.6986 -163.327 0)
(-45.3722 -166.225 0)
(-48.6384 -168.292 0)
(-51.6225 -168.606 0)
(-51.5286 -169.281 0)
(-51.9283 -169.491 0)
(-50.2123 -172.149 0)
(-48.7456 -177.575 0)
(-46.9991 -185.568 0)
(-43.6638 -194.401 0)
(-35.3954 -199.952 0)
(-24.6559 -200.879 0)
(-18.7136 -197.376 0)
(-16.9927 -190.968 0)
(-15.9859 -186.516 0)
(-12.1231 -183.726 0)
(-9.11444 -185.112 0)
(-4.28578 -187.101 0)
(-2.22614 -188.729 0)
(-2.10155 -190.787 0)
(-0.294021 -192.28 0)
(0.212745 -193.225 0)
(2.68523 -194.289 0)
(13.1021 -192.362 0)
(37.2651 -191.328 0)
(80.2852 -190.34 0)
(105.93 -202.776 0)
(185.17 -214.809 0)
(471.073 -219.42 0)
(3754.04 -124.837 0)
(-4258.36 -189.61 0)
(3167.39 129.987 0)
(-2983.29 -108.477 0)
(155.817 -69.8567 0)
(-35.6538 -50.0869 0)
(-37.2128 -33.3582 0)
(-37.5541 -43.8659 0)
(-29.3666 -59.1409 0)
(-30.8783 -68.1795 0)
(-36.6588 -80.2256 0)
(-43.5168 -88.8649 0)
(-50.3197 -96.0856 0)
(-54.2914 -103.73 0)
(-57.3464 -109.401 0)
(-57.4411 -116.127 0)
(-57.0242 -121.269 0)
(-54.0748 -125.944 0)
(-49.6363 -129.299 0)
(-44.1989 -130.662 0)
(-39.3328 -130.06 0)
(-34.563 -129.129 0)
(-29.7613 -130.58 0)
(-25.6551 -133.842 0)
(-20.4521 -135.853 0)
(-14.6472 -135.294 0)
(-8.59851 -132.494 0)
(-4.84646 -130.071 0)
(-0.141761 -126.617 0)
(1.45764 -124.178 0)
(1.09834 -121.036 0)
(2.15299 -118.559 0)
(2.41026 -116.023 0)
(5.84519 -113.466 0)
(17.1742 -109.013 0)
(40.8298 -105.655 0)
(78.6858 -103.465 0)
(101.175 -110.954 0)
(179.144 -115.92 0)
(489.692 -128.687 0)
(3737.36 -59.8386 0)
(-4143.77 127.932 0)
(3330.43 342.388 0)
(-3204.18 -43.3731 0)
(176.752 -14.8932 0)
(-19.5822 4.72228 0)
(-36.6349 31.4355 0)
(-51.9983 17.0821 0)
(-40.9692 -0.380441 0)
(-41.16 -17.5835 0)
(-47.7024 -36.9333 0)
(-53.9819 -51.2373 0)
(-59.6967 -61.5863 0)
(-61.4692 -71.7625 0)
(-63.5686 -79.3921 0)
(-62.9655 -86.1067 0)
(-61.3883 -90.7409 0)
(-57.9506 -94.2102 0)
(-53.2918 -96.7544 0)
(-47.7326 -98.9207 0)
(-42.1871 -100.91 0)
(-35.8956 -102.522 0)
(-29.1971 -103.631 0)
(-23.7952 -104.035 0)
(-18.392 -103.935 0)
(-12.7494 -103.747 0)
(-7.09032 -103.264 0)
(-3.45103 -103.162 0)
(1.39325 -102.274 0)
(3.15207 -101.606 0)
(3.313 -100.079 0)
(4.53691 -98.1486 0)
(5.12016 -95.7755 0)
(9.44044 -92.547 0)
(20.6299 -88.2311 0)
(42.6112 -84.9685 0)
(75.1789 -84.2485 0)
(93.9278 -89.9494 0)
(168.081 -92.8677 0)
(525.114 -101.912 0)
(4001.33 -30.2255 0)
(-4323.98 391.655 0)
(3455.53 370.261 0)
(-3327.58 1.12881 0)
(202.164 29.0791 0)
(8.99025 54.193 0)
(-25.3024 94.3019 0)
(-68.2131 81.9337 0)
(-62.7716 65.5026 0)
(-66.1019 41.3953 0)
(-69.0888 14.4547 0)
(-67.2733 -8.15759 0)
(-70.0986 -25.0119 0)
(-71.4497 -38.9238 0)
(-71.169 -49.1684 0)
(-68.3772 -57.7316 0)
(-64.8331 -63.6581 0)
(-59.8696 -67.9118 0)
(-54.1756 -70.8489 0)
(-48.2032 -73.0181 0)
(-42.8027 -74.754 0)
(-37.1852 -76.1874 0)
(-31.2193 -77.5458 0)