/*--------------------------------*- C++ -*----------------------------------*\
| =========                 |                                                 |
| \\      /  F ield         | OpenFOAM: The Open Source CFD Toolbox           |
|  \\    /   O peration     | Version:  v1912                                 |
|   \\  /    A nd           | Website:  www.openfoam.com                      |
|    \\/     M anipulation  |                                                 |
\*---------------------------------------------------------------------------*/
FoamFile
{
    version     2.0;
    format      ascii;
    class       volScalarField;
    location    "5.12";
    object      rho;
}
// * * * * * * * * * * * * * * * * * * * * * * * * * * * * * * * * * * * * * //

dimensions      [1 -3 0 0 0 0 0];


internalField   nonuniform List<scalar> 
1900
(
42732.2
17146.4
14474.8
13983
13673.1
13463.5
13303.7
13181.7
13123.4
13055.9
42732.2
17146.4
14475.1
13982.7
13672.9
13463.3
13302.8
13185
13106.7
13039.7
42732.2
17146.4
14475.1
13982.6
13673
13463.5
13302
13181.3
13099.1
13034.6
42732.2
17146.4
14475.1
13982.7
13672.9
13463.3
13302.8
13185
13106.7
13039.7
42732.2
17146.4
14474.8
13983
13673.1
13463.5
13303.7
13181.7
13123.4
13055.9
13160.3
13027.6
12983.6
12736.5
12653.4
13019
12927.4
12888
12636.3
12157.4
12999.9
12909.5
12867.8
12660.9
12270.9
13019
12927.4
12888
12636.3
12157.4
13160.3
13027.6
12983.6
12736.5
12653.4
8209.92
7566.68
7405.2
7037.91
6442.2
8817.27
7753.89
7526.79
7140.65
6602.42
8943.11
7697.15
7442.12
7076.87
6534.66
8817.27
7753.89
7526.79
7140.65
6602.42
8209.92
7566.68
7405.2
7037.91
6442.2
4627.55
3610.06
4160.48
4521.28
4396.55
4059.04
3704.03
3441.63
3262.1
3107.19
2955.07
2811.45
2697.42
2625.36
2582.85
2553.77
2529.98
2509.21
2491.32
2476.24
2464.04
2454.45
2447.04
2441.67
2437.99
2435.72
2434.59
2434.63
2435.92
2439.98
2446.12
2458.15
2472.04
2493.53
2513.98
2548.67
2578.52
2644.85
3174.37
9716.35
5008.35
3793.55
4210.59
4594.21
4457.18
4094.41
3717.9
3446.21
3264.05
3108.27
2956.63
2812.34
2697.69
2625.29
2582.75
2553.68
2529.9
2509.13
2491.24
2476.14
2463.94
2454.35
2446.94
2441.56
2437.88
2435.62
2434.48
2434.52
2435.81
2439.87
2446
2458.07
2471.96
2493.49
2513.87
2548.73
2578.35
2645.08
3171.15
9699.63
5058.72
3728.71
4180.2
4675.12
4515.54
4114.02
3723.34
3447.77
3264.73
3108.65
2957.31
2812.66
2697.79
2625.28
2582.72
2553.65
2529.88
2509.12
2491.22
2476.12
2463.92
2454.33
2446.91
2441.53
2437.85
2435.58
2434.45
2434.49
2435.78
2439.83
2445.97
2458.05
2471.95
2493.53
2513.95
2548.96
2578.75
2645.92
3169.55
9710.93
5008.35
3793.55
4210.59
4594.21
4457.18
4094.41
3717.9
3446.21
3264.05
3108.27
2956.63
2812.34
2697.69
2625.29
2582.75
2553.68
2529.9
2509.13
2491.24
2476.14
2463.94
2454.35
2446.94
2441.56
2437.88
2435.62
2434.48
2434.52
2435.81
2439.87
2446
2458.07
2471.96
2493.49
2513.87
2548.73
2578.35
2645.08
3171.15
9699.63
4627.55
3610.06
4160.48
4521.28
4396.55
4059.04
3704.03
3441.63
3262.1
3107.19
2955.07
2811.45
2697.42
2625.36
2582.85
2553.77
2529.98
2509.21
2491.32
2476.24
2464.04
2454.45
2447.04
2441.67
2437.99
2435.72
2434.59
2434.63
2435.92
2439.98
2446.12
2458.15
2472.04
2493.53
2513.98
2548.67
2578.52
2644.85
3174.37
9716.35
3937.17
3449.73
3961.08
4244.74
4199.64
3949.28
3660.13
3420.91
3251.41
3099.82
2947.55
2806.14
2695.38
2625.15
2583.03
2553.94
2530.12
2509.38
2491.56
2476.52
2464.36
2454.79
2447.38
2442
2438.32
2436.05
2434.92
2434.97
2436.26
2440.31
2446.43
2458.35
2472.18
2493.46
2514.16
2548.25
2579.3
2642.57
3181.42
10039.4
4578.5
3283.27
3497.91
3849.78
3870.01
3730.29
3541.76
3364.94
3221.77
3078.7
2929.48
2794.16
2690.57
2624.41
2583.3
2554.24
2530.4
2509.76
2492.08
2477.17
2465.1
2455.57
2448.18
2442.8
2439.12
2436.86
2435.73
2435.81
2437.12
2441.18
2447.24
2458.95
2472.62
2493.47
2514.42
2547.75
2580.11
2637.86
3170.4
9630.17
5123.73
3056.29
3268.84
3562.77
3605.1
3535.66
3415.52
3294.35
3177.6
3046.79
2904.16
2778.35
2683.82
2622.87
2583.36
2554.54
2530.78
2510.32
2492.86
2478.13
2466.18
2456.73
2449.36
2443.99
2440.32
2438.08
2436.97
2437.11
2438.46
2442.54
2448.56
2459.94
2473.44
2493.73
2514.96
2547.43
2580.46
2632.89
3159.7
9475.43
5532.45
2928.7
3148.47
3350.35
3394.3
3367.97
3300.98
3223.6
3127.15
3007.37
2874.05
2760.36
2675.89
2620.56
2583.02
2554.66
2531.13
2510.93
2493.77
2479.27
2467.48
2458.12
2450.79
2445.45
2441.81
2439.62
2438.56
2438.82
2440.24
2444.39
2450.36
2461.39
2474.69
2494.4
2515.74
2547.48
2580.22
2630.36
3162.27
9346.65
5878.71
2881.78
3086.11
3186.06
3244.54
3239.01
3205.4
3153.62
3072.46
2962.42
2841.76
2741.21
2667.46
2617.63
2582.2
2554.54
2531.4
2511.58
2494.75
2480.53
2468.92
2459.67
2452.41
2447.13
2443.56
2441.46
2440.5
2440.93
2442.48
2446.72
2452.65
2463.31
2476.35
2495.44
2516.71
2547.65
2579.37
2629.03
3159.08
9208.39
6188.27
2853.87
3013.83
3059.97
3142.41
3143.63
3130.51
3091.13
3018.28
2916.73
2810.2
2723.1
2659.31
2614.52
2581.15
2554.32
2531.66
2512.26
2495.8
2481.85
2470.45
2461.33
2454.17
2449
2445.57
2443.64
2442.84
2443.56
2445.31
2449.74
2455.7
2466.04
2478.89
2497.49
2518.75
2549.2
2579.87
2630.46
3161.9
9052.21
6439.54
2828.21
2960.52
2998.15
3074.19
3072.95
3066.02
3030.26
2961.81
2870.58
2779.4
2705.82
2651.17
2611.03
2579.75
2553.9
2531.81
2512.91
2496.84
2483.17
2471.99
2463.04
2456.01
2450.99
2447.74
2446.02
2445.4
2446.43
2448.37
2452.92
2458.82
2468.74
2481.25
2499.18
2520.16
2549.99
2579.17
2631.19
3156.97
8882.57
6614.43
2812.34
2910.7
2946.37
3020.53
3015.87
3009.09
2973.33
2908.57
2829.08
2752.96
2691.7
2644.81
2608.58
2579.07
2554.06
2532.56
2514.1
2498.39
2485
2474.04
2465.27
2458.44
2453.65
2450.66
2449.21
2448.88
2450.34
2452.55
2457.25
2463.13
2472.64
2484.8
2502.13
2522.94
2552.41
2580.8
2634.11
3155.53
8688.01
6763.36
2797.42
2875.58
2911.63
2977.44
2967.08
2955.25
2918.15
2858.72
2791.84
2729.56
2679.03
2638.73
2606.02
2578.2
2554.21
2533.5
2515.64
2500.34
2487.24
2476.52
2467.97
2461.34
2456.77
2454.02
2452.8
2452.67
2454.51
2456.84
2461.53
2467.15
2476.02
2487.54
2504.04
2524.37
2553.21
2580.68
2635.67
3147.93
8486.95
6807.24
2788.86
2849.49
2881.49
2936.58
2920.46
2903.1
2866.7
2814.95
2761.06
2711.31
2669.88
2635.08
2605.42
2579.57
2556.96
2537.09
2519.8
2504.9
2492.09
2481.61
2473.28
2466.85
2462.48
2459.89
2458.83
2458.83
2460.91
2463.21
2467.7
2472.87
2480.89
2491.51
2506.99
2526.71
2554.78
2581.57
2637.58
3140.32
8261.07
6823.42
2782.5
2832.22
2856.31
2897.92
2877.42
2855.7
2822.55
2779.46
2737.21
2697.61
2663.31
2632.84
2605.91
2582.12
2560.79
2541.92
2525.34
2510.95
2498.51
2488.33
2480.24
2474
2469.79
2467.29
2466.34
2466.41
2468.58
2470.72
2474.86
2479.4
2486.39
2495.82
2510
2528.84
2556.18
2582.02
2638.44
3128.75
8034.7
6735.22
2775.09
2815.49
2830.52
2858.71
2836.56
2813.71
2786
2751.84
2719.83
2688.65
2660.6
2634.63
2611.04
2589.14
2569.43
2551.78
2536.14
2522.45
2510.47
2500.59
2492.63
2486.36
2482.01
2479.31
2478.16
2477.93
2479.88
2481.47
2484.88
2488.44
2494.04
2501.91
2514.49
2532.29
2558.84
2584.1
2640.92
3115.65
7766.08
6631.33
2767.46
2800.71
2806.39
2822.37
2801.97
2781.34
2760.07
2733.8
2709.72
2685.06
2662.23
2639.83
2618.46
2598.46
2580.02
2563.31
2548.41
2535.29
2523.75
2514.23
2506.53
2500.41
2496.14
2493.46
2492.34
2492
2493.92
2495.02
2497.76
2500.31
2504.52
2510.66
2521.46
2538.03
2563.59
2587.7
2644.25
3099.24
7518.8
6424.25
2762.02
2790.89
2789.13
2794.23
2776.43
2758.92
2743.5
2724.1
2707.02
2688.46
2669.78
2650.37
2631.7
2613.65
2596.77
2581.3
2567.42
2555.13
2544.16
2534.91
2527.17
2520.79
2516.21
2513.21
2511.89
2511.14
2512.65
2513.07
2515.03
2516.47
2519.25
2523.58
2532.55
2547.93
2572.85
2596.16
2653.07
3080.57
7212.33
6274.46
2763.5
2787.43
2779.51
2775.13
2760.54
2748.12
2739.09
2726.46
2713.91
2697.9
2682.25
2665.2
2648.33
2631.48
2615.35
2600.26
2586.58
2574.45
2563.74
2554.99
2547.88
2542.07
2537.92
2535.19
2534.12
2533.36
2534.89
2535.06
2536.67
2537.49
2539.41
2542.58
2550.58
2565.74
2591.46
2614.43
2671.53
3070.29
6977.66
6053.4
2779.91
2799.39
2787.15
2778.58
2767.81
2759.16
2752.53
2742.99
2733.24
2720.05
2706.66
2691.27
2676.16
2660.62
2645.65
2631.64
2619.04
2607.94
2597.94
2589.33
2581.8
2575.37
2570.7
2567.47
2566.11
2564.92
2566.07
2565.71
2566.67
2566.87
2567.95
2570.01
2577.22
2592.12
2619.84
2644.54
2705.21
3062.25
6710.48
6038.48
2813.44
2821.32
2803.51
2790.69
2781.21
2776.46
2772
2765.49
2757.35
2745.09
2733.42
2719.4
2706.07
2691.98
2678.33
2665.01
2652.03
2639.58
2628.42
2620.5
2615.2
2610.59
2606.28
2602.19
2599.87
2597.33
2597.53
2596.05
2596.31
2595.81
2596.35
2597.18
2603.38
2617.29
2646.65
2672.01
2734.47
3066.05
6659.51
6109.08
2880.79
2874.04
2851.67
2836.09
2826.45
2824.16
2820.28
2815.2
2807.84
2796.58
2784.93
2770.4
2756.36
2741.55
2728.3
2717.05
2708.12
2700.87
2693.15
2685.19
2676.69
2667.72
2661.06
2656.23
2655.14
2654.36
2655.86
2655.83
2656.99
2657.14
2658.28
2658.96
2665.19
2679.08
2712.18
2741.89
2803.38
3087.9
6575.93
16896.5
3846.3
3366.4
3333.58
3354.48
3373.19
3396.44
3408.99
3415.57
3413.83
3406.28
3394.23
3376.72
3357.02
3333.91
3309.73
3284.06
3257.31
3239.11
3219.98
3213.33
3219.53
3216.85
3226.11
3222.85
3227.5
3223.9
3225.03
3218.54
3212.27
3201.22
3187.88
3170.11
3149.64
3135.97
3130.18
3138.03
3149.41
3917.07
16255.1
184263
17371.3
7885.24
7916.75
8082.01
8392.02
8650.06
8918.24
9122.14
9290.41
9432.85
9534.17
9623.11
9685.98
9738.22
9771.9
9793.83
9793.2
9788.61
9757.53
9730.01
9693.79
9646.77
9520.77
9382.53
9218.78
9048.9
8844.02
8636.3
8394.73
8152.13
7860.18
7581.76
7232.73
6950.33
6635.19
6553.86
6430.51
15657
167076
184263
17371.3
7885.24
7916.75
8082.01
8392.02
8650.06
8918.24
9122.14
9290.41
9432.85
9534.17
9623.11
9685.98
9738.22
9771.9
9793.83
9793.2
9788.61
9757.53
9730.01
9693.79
9646.77
9520.77
9382.53
9218.78
9048.9
8844.02
8636.3
8394.73
8152.13
7860.18
7581.76
7232.73
6950.33
6635.19
6553.86
6430.51
15657
167076
16896.5
3846.3
3366.4
3333.58
3354.48
3373.19
3396.44
3408.99
3415.57
3413.83
3406.28
3394.23
3376.72
3357.02
3333.91
3309.73
3284.06
3257.31
3239.11
3219.98
3213.33
3219.53
3216.85
3226.11
3222.85
3227.5
3223.9
3225.03
3218.54
3212.27
3201.22
3187.88
3170.11
3149.64
3135.97
3130.18
3138.03
3149.41
3917.07
16255.1
6109.08
2880.79
2874.04
2851.67
2836.09
2826.45
2824.16
2820.28
2815.2
2807.84
2796.58
2784.93
2770.4
2756.36
2741.55
2728.3
2717.05
2708.12
2700.87
2693.15
2685.19
2676.69
2667.72
2661.06
2656.23
2655.14
2654.36
2655.86
2655.83
2656.99
2657.14
2658.28
2658.96
2665.19
2679.08
2712.18
2741.89
2803.38
3087.9
6575.93
6038.48
2813.44
2821.32
2803.51
2790.69
2781.21
2776.46
2772
2765.49
2757.35
2745.09
2733.42
2719.4
2706.07
2691.98
2678.33
2665.01
2652.03
2639.58
2628.42
2620.5
2615.2
2610.59
2606.28
2602.19
2599.87
2597.33
2597.53
2596.05
2596.31
2595.81
2596.35
2597.18
2603.38
2617.29
2646.65
2672.01
2734.47
3066.05
6659.51
6053.4
2779.91
2799.39
2787.15
2778.58
2767.81
2759.16
2752.53
2742.99
2733.24
2720.05
2706.66
2691.27
2676.16
2660.62
2645.65
2631.64
2619.04
2607.94
2597.94
2589.33
2581.8
2575.37
2570.7
2567.47
2566.11
2564.92
2566.07
2565.71
2566.67
2566.87
2567.95
2570.01
2577.22
2592.12
2619.84
2644.54
2705.21
3062.25
6710.48
6274.46
2763.5
2787.43
2779.51
2775.13
2760.54
2748.12
2739.09
2726.46
2713.91
2697.9
2682.25
2665.2
2648.33
2631.48
2615.35
2600.26
2586.58
2574.45
2563.74
2554.99
2547.88
2542.07
2537.92
2535.19
2534.12
2533.36
2534.89
2535.06
2536.67
2537.49
2539.41
2542.58
2550.58
2565.74
2591.46
2614.43
2671.53
3070.29
6977.66
6424.25
2762.02
2790.89
2789.13
2794.23
2776.43
2758.92
2743.5
2724.1
2707.02
2688.46
2669.78
2650.37
2631.7
2613.65
2596.77
2581.3
2567.42
2555.13
2544.16
2534.91
2527.17
2520.79
2516.21
2513.21
2511.89
2511.14
2512.65
2513.07
2515.03
2516.47
2519.25
2523.58
2532.55
2547.93
2572.85
2596.16
2653.07
3080.57
7212.33
6631.33
2767.46
2800.71
2806.39
2822.37
2801.97
2781.34
2760.07
2733.8
2709.72
2685.06
2662.23
2639.83
2618.46
2598.46
2580.02
2563.31
2548.41
2535.29
2523.75
2514.23
2506.53
2500.41
2496.14
2493.46
2492.34
2492
2493.92
2495.02
2497.76
2500.31
2504.52
2510.66
2521.46
2538.03
2563.59
2587.7
2644.25
3099.24
7518.8
6735.22
2775.09
2815.49
2830.52
2858.71
2836.56
2813.71
2786
2751.84
2719.83
2688.65
2660.6
2634.63
2611.04
2589.14
2569.43
2551.78
2536.14
2522.45
2510.47
2500.59
2492.63
2486.36
2482.01
2479.31
2478.16
2477.93
2479.88
2481.47
2484.88
2488.44
2494.04
2501.91
2514.49
2532.29
2558.84
2584.1
2640.92
3115.65
7766.08
6823.42
2782.5
2832.22
2856.31
2897.92
2877.42
2855.7
2822.55
2779.46
2737.21
2697.61
2663.31
2632.84
2605.91
2582.12
2560.79
2541.92
2525.34
2510.95
2498.51
2488.33
2480.24
2474
2469.79
2467.29
2466.34
2466.41
2468.58
2470.72
2474.86
2479.4
2486.39
2495.82
2510
2528.84
2556.18
2582.02
2638.44
3128.75
8034.7
6807.24
2788.86
2849.49
2881.49
2936.58
2920.46
2903.1
2866.7
2814.95
2761.06
2711.31
2669.88
2635.08
2605.42
2579.57
2556.96
2537.09
2519.8
2504.9
2492.09
2481.61
2473.28
2466.85
2462.48
2459.89
2458.83
2458.83
2460.91
2463.21
2467.7
2472.87
2480.89
2491.51
2506.99
2526.71
2554.78
2581.57
2637.58
3140.32
8261.07
6763.36
2797.42
2875.58
2911.63
2977.44
2967.08
2955.25
2918.15
2858.72
2791.84
2729.56
2679.03
2638.73
2606.02
2578.2
2554.21
2533.5
2515.64
2500.34
2487.24
2476.52
2467.97
2461.34
2456.77
2454.02
2452.8
2452.67
2454.51
2456.84
2461.53
2467.15
2476.02
2487.54
2504.04
2524.37
2553.21
2580.68
2635.67
3147.93
8486.95
6614.43
2812.34
2910.7
2946.37
3020.53
3015.87
3009.09
2973.33
2908.57
2829.08
2752.96
2691.7
2644.81
2608.58
2579.07
2554.06
2532.56
2514.1
2498.39
2485
2474.04
2465.27
2458.44
2453.65
2450.66
2449.21
2448.88
2450.34
2452.55
2457.25
2463.13
2472.64
2484.8
2502.13
2522.94
2552.41
2580.8
2634.11
3155.53
8688.01
6439.54
2828.21
2960.52
2998.15
3074.19
3072.95
3066.02
3030.26
2961.81
2870.58
2779.4
2705.82
2651.17
2611.03
2579.75
2553.9
2531.81
2512.91
2496.84
2483.17
2471.99
2463.04
2456.01
2450.99
2447.74
2446.02
2445.4
2446.43
2448.37
2452.92
2458.82
2468.74
2481.25
2499.18
2520.16
2549.99
2579.17
2631.19
3156.97
8882.57
6188.27
2853.87
3013.83
3059.97
3142.41
3143.63
3130.51
3091.13
3018.28
2916.73
2810.2
2723.1
2659.31
2614.52
2581.15
2554.32
2531.66
2512.26
2495.8
2481.85
2470.45
2461.33
2454.17
2449
2445.57
2443.64
2442.84
2443.56
2445.31
2449.74
2455.7
2466.04
2478.89
2497.49
2518.75
2549.2
2579.87
2630.46
3161.9
9052.21
5878.71
2881.78
3086.11
3186.06
3244.54
3239.01
3205.4
3153.62
3072.46
2962.42
2841.76
2741.21
2667.46
2617.63
2582.2
2554.54
2531.4
2511.58
2494.75
2480.53
2468.92
2459.67
2452.41
2447.13
2443.56
2441.46
2440.5
2440.93
2442.48
2446.72
2452.65
2463.31
2476.35
2495.44
2516.71
2547.65
2579.37
2629.03
3159.08
9208.39
5532.45
2928.7
3148.47
3350.35
3394.3
3367.97
3300.98
3223.6
3127.15
3007.37
2874.05
2760.36
2675.89
2620.56
2583.02
2554.66
2531.13
2510.93
2493.77
2479.27
2467.48
2458.12
2450.79
2445.45
2441.81
2439.62
2438.56
2438.82
2440.24
2444.39
2450.36
2461.39
2474.69
2494.4
2515.74
2547.48
2580.22
2630.36
3162.27
9346.65
5123.73
3056.29
3268.84
3562.77
3605.1
3535.66
3415.52
3294.35
3177.6
3046.79
2904.16
2778.35
2683.82
2622.87
2583.36
2554.54
2530.78
2510.32
2492.86
2478.13
2466.18
2456.73
2449.36
2443.99
2440.32
2438.08
2436.97
2437.11
2438.46
2442.54
2448.56
2459.94
2473.44
2493.73
2514.96
2547.43
2580.46
2632.89
3159.7
9475.43
4578.5
3283.27
3497.91
3849.78
3870.01
3730.29
3541.76
3364.94
3221.77
3078.7
2929.48
2794.16
2690.57
2624.41
2583.3
2554.24
2530.4
2509.76
2492.08
2477.17
2465.1
2455.57
2448.18
2442.8
2439.12
2436.86
2435.73
2435.81
2437.12
2441.18
2447.24
2458.95
2472.62
2493.47
2514.42
2547.75
2580.11
2637.86
3170.4
9630.17
3937.17
3449.73
3961.08
4244.74
4199.64
3949.28
3660.13
3420.91
3251.41
3099.82
2947.55
2806.14
2695.38
2625.15
2583.03
2553.94
2530.12
2509.38
2491.56
2476.52
2464.36
2454.79
2447.38
2442
2438.32
2436.05
2434.92
2434.97
2436.26
2440.31
2446.43
2458.35
2472.18
2493.46
2514.16
2548.25
2579.3
2642.57
3181.42
10039.4
)
;

boundaryField
{
    inlet
    {
        type            calculated;
        value           uniform 14000.1;
    }
    outlet
    {
        type            calculated;
        value           nonuniform List<scalar> 
165
(
2473.49
2704.38
3026.7
3146.98
3187.44
3224.93
3266.1
3295.53
3296.38
3294.07
3285.2
3287.86
3278.83
3276.78
3260.56
3237.45
3195.13
3122.43
3568.33
3966.12
3966.12
3494.28
3108.5
3186.99
3229.88
3259.28
3287.32
3307.59
3329.33
3348.41
3365.84
3383.34
3398.61
3414.21
3428.41
3441.94
3451.96
3458.8
3462.4
3463.18
3464.94
3469.72
3468.18
3472.76
3467.56
3463.83
3456.01
3450.2
3440.28
3431.47
3418.16
3406.33
3386.71
3369.95
3338.26
3298.86
3239.16
3156.99
3539.73
3981.35
3463.13
3494.1
3478.36
3468.29
3461.69
3459.63
3454.82
3450.3
3442.56
3434.85
3422.78
3411.54
3391.61
3373.6
3339.82
3299.02
3240.12
3154.93
3530.43
3981.35
3496.88
3489.33
3483.04
3489.33
3496.88
3981.35
3530.43
3154.93
3240.12
3299.02
3339.82
3373.6
3391.61
3411.54
3422.78
3434.85
3442.56
3450.3
3454.82
3459.63
3461.69
3468.29
3478.36
3494.1
3463.13
3966.12
3494.28
3108.5
3186.99
3229.88
3259.28
3287.32
3307.59
3329.33
3348.41
3365.84
3383.34
3398.61
3414.21
3428.41
3441.94
3451.96
3458.8
3462.4
3463.18
3464.94
3469.72
3468.18
3472.76
3467.56
3463.83
3456.01
3450.2
3440.28
3431.47
3418.16
3406.33
3386.71
3369.95
3338.26
3298.86
3239.16
3156.99
3539.73
3981.35
3966.12
3568.33
3122.43
3195.13
3237.45
3260.56
3276.78
3278.83
3287.86
3285.2
3294.07
3296.38
3295.53
3266.1
3224.93
3187.44
3146.98
3026.7
2704.38
2473.49
)
;
    }
    obstacle
    {
        type            calculated;
        value           nonuniform List<scalar> 
40
(
42732.2
17146.4
14474.8
13983
13673.1
13463.5
13303.7
13181.7
13123.4
13055.9
42732.2
17146.4
14474.8
13983
13673.1
13463.5
13303.7
13181.7
13123.4
13055.9
13160.3
13027.6
12983.6
12736.5
12653.4
13160.3
13027.6
12983.6
12736.5
12653.4
8209.92
7566.68
7405.2
7037.91
6442.2
8209.92
7566.68
7405.2
7037.91
6442.2
)
;
    }
    empty
    {
        type            empty;
    }
}


// ************************************************************************* //
