/*--------------------------------*- C++ -*----------------------------------*\
| =========                 |                                                 |
| \\      /  F ield         | OpenFOAM: The Open Source CFD Toolbox           |
|  \\    /   O peration     | Version:  v1912                                 |
|   \\  /    A nd           | Website:  www.openfoam.com                      |
|    \\/     M anipulation  |                                                 |
\*---------------------------------------------------------------------------*/
FoamFile
{
    version     2.0;
    format      ascii;
    class       volVectorField;
    location    "8.74";
    object      grad(T);
}
// * * * * * * * * * * * * * * * * * * * * * * * * * * * * * * * * * * * * * //

dimensions      [0 -1 0 1 0 0 0];


internalField   nonuniform List<vector> 
1900
(
(0.888351 -6.79217e-06 0)
(-0.419897 -2.4779e-06 0)
(-0.649773 2.45497e-06 0)
(-0.407831 9.12245e-07 0)
(-0.115428 -2.32361e-05 0)
(-9.43944e-05 -3.78007e-05 0)
(0.0407247 7.90393e-05 0)
(0.0660677 0.000638793 0)
(0.06485 0.00221536 0)
(0.0707545 0.00146044 0)
(0.888342 -1.03882e-05 0)
(-0.419888 -1.97804e-06 0)
(-0.64977 6.37372e-06 0)
(-0.407856 4.56761e-06 0)
(-0.115467 -9.70395e-06 0)
(7.88102e-06 1.88315e-05 0)
(0.0414013 0.000255327 0)
(0.068204 0.00047176 0)
(0.0656716 0.000430149 0)
(0.0404768 -0.00145906 0)
(0.888339 -3.77302e-13 0)
(-0.419881 -4.55365e-13 0)
(-0.649767 -4.33681e-13 0)
(-0.407847 -5.0307e-13 0)
(-0.115414 -4.97649e-13 0)
(0.000170637 -2.6563e-13 0)
(0.0411776 1.0842e-14 0)
(0.0662425 5.20417e-14 0)
(0.0629191 -2.1684e-15 0)
(0.0362353 -4.33681e-14 0)
(0.888342 1.03882e-05 0)
(-0.419888 1.97804e-06 0)
(-0.64977 -6.37372e-06 0)
(-0.407856 -4.56761e-06 0)
(-0.115467 9.70395e-06 0)
(7.88102e-06 -1.88315e-05 0)
(0.0414013 -0.000255327 0)
(0.068204 -0.00047176 0)
(0.0656716 -0.000430149 0)
(0.0404768 0.00145906 0)
(0.888351 6.79217e-06 0)
(-0.419897 2.47789e-06 0)
(-0.649773 -2.45497e-06 0)
(-0.407831 -9.12245e-07 0)
(-0.115428 2.32361e-05 0)
(-9.43944e-05 3.78007e-05 0)
(0.0407247 -7.90393e-05 0)
(0.0660677 -0.000638793 0)
(0.06485 -0.00221536 0)
(0.0707545 -0.00146044 0)
(0.0261464 -0.0238056 9.41285e-16)
(-0.00208029 -0.0166729 -1.13097e-15)
(0.105151 -0.0287763 -1.43653e-15)
(0.395936 -0.0563627 0)
(-0.505169 -0.316915 -6.4803e-15)
(0.0102624 -0.0296514 9.36983e-16)
(0.00781981 -0.0209432 1.13097e-15)
(0.0863895 -0.0364917 1.43653e-15)
(0.28848 -0.0615875 0)
(-0.44137 -0.352179 0)
(0.00159006 -7.66012e-14 0)
(0.00337655 -9.51055e-14 0)
(0.0769424 -6.62568e-14 0)
(0.259829 0 0)
(-0.569297 3.22679e-14 0)
(0.0102624 0.0296514 9.36983e-16)
(0.00781981 0.0209432 1.13097e-15)
(0.0863895 0.0364917 1.43653e-15)
(0.28848 0.0615875 0)
(-0.44137 0.352179 0)
(0.0261464 0.0238056 -2.81525e-15)
(-0.00208029 0.0166729 -1.13097e-15)
(0.105151 0.0287763 -1.43653e-15)
(0.395936 0.0563627 -3.96032e-15)
(-0.505169 0.316915 6.4803e-15)
(-1.87768 0.449303 2.19456e-15)
(-0.966788 0.313286 -1.58717e-15)
(-0.591025 0.217469 0)
(-0.415797 0.195676 1.01776e-15)
(-0.301084 0.0822759 -4.26837e-16)
(-1.67645 0.446227 -1.10405e-15)
(-1.00648 0.204284 7.98305e-16)
(-0.609059 0.113435 0)
(-0.456705 0.125124 -6.40727e-16)
(-0.287878 -0.0433939 1.07002e-16)
(-1.72819 1.31418e-13 0)
(-1.06231 1.85334e-13 0)
(-0.620535 4.01556e-14 0)
(-0.491048 2.12589e-14 2.57798e-16)
(-0.272141 3.17018e-14 -2.14004e-16)
(-1.67645 -0.446227 -1.10405e-15)
(-1.00648 -0.204284 7.98305e-16)
(-0.609059 -0.113435 0)
(-0.456705 -0.125124 -6.40727e-16)
(-0.287878 0.0433939 1.07002e-16)
(-1.87768 -0.449303 1.10405e-15)
(-0.966788 -0.313286 -9.43516e-18)
(-0.591025 -0.217469 0)
(-0.415797 -0.195676 5.89311e-18)
(-0.301084 -0.0822759 4.26837e-16)
(-0.185913 0.850091 0)
(-0.106389 1.064 0)
(-0.074221 1.1296 0)
(-0.0535121 1.05942 0)
(-0.0555303 0.961886 0)
(-0.0572385 0.840984 0)
(-0.0598298 0.731507 0)
(-0.0559301 0.628929 0)
(-0.0495861 0.554493 0)
(-0.0672178 0.490934 0)
(-0.0532904 0.428021 0)
(0.0029702 0.369943 0)
(0.131881 0.364529 0)
(0.330918 0.392878 0)
(0.304172 0.39885 0)
(0.131964 0.326326 0)
(0.0605768 0.262499 0)
(0.0531852 0.208173 0)
(0.0752895 0.139129 0)
(0.0466111 0.0537519 0)
(-0.0255051 -0.00604117 0)
(-0.103458 -0.0369576 0)
(-0.16403 -0.0614124 0)
(-0.154553 -0.0661067 0)
(-0.112235 -0.0526374 0)
(-0.134649 -0.0273983 0)
(-0.205029 0.00770521 0)
(-0.144251 0.0342506 0)
(0.0259766 0.0118805 0)
(0.0963651 -0.00142434 0)
(0.0706261 -0.00108282 0)
(0.057168 -0.000552998 0)
(0.0736024 -0.000429964 0)
(0.086651 -0.000300989 0)
(0.0743651 -0.000317166 0)
(0.0399317 -0.000873703 0)
(0.0092391 -0.00161375 0)
(-0.00448778 -0.00217831 0)
(-0.00698948 -0.00192189 0)
(-0.00309693 -0.00146498 0)
(-0.0535842 0.240879 0)
(0.00825961 0.530321 0)
(-0.0508722 0.767616 0)
(-0.0837646 0.783585 0)
(-0.096477 0.729693 0)
(-0.097193 0.644032 0)
(-0.0938364 0.553625 0)
(-0.0822326 0.467745 0)
(-0.0699561 0.412038 0)
(-0.0858171 0.362896 0)
(-0.0756701 0.315758 0)
(-0.0124319 0.247456 0)
(0.133797 0.238342 0)
(0.334862 0.254827 0)
(0.294611 0.254804 0)
(0.11281 0.209247 0)
(0.0447499 0.163174 0)
(0.0375014 0.129065 0)
(0.054669 0.0864343 0)
(0.0306746 0.0253207 0)
(-0.0307262 0.0059656 0)
(-0.106418 0.008811 0)
(-0.168041 0.00375298 0)
(-0.156728 0.00860399 0)
(-0.112364 0.0167926 0)
(-0.130873 0.00988664 0)
(-0.198661 0.0119507 0)
(-0.144427 0.0166943 0)
(0.0214558 0.00405686 0)
(0.0949652 -0.000888201 0)
(0.0707029 -0.000685742 0)
(0.057207 -0.00055603 0)
(0.0736219 -0.000560807 0)
(0.0866944 -0.000472416 0)
(0.074361 -0.000311611 0)
(0.0398441 -0.000436572 0)
(0.00912226 -0.00082075 0)
(-0.00454063 -0.00134359 0)
(-0.00698599 -0.00139153 0)
(-0.00309862 -0.00152263 0)
(-0.00181672 1.0842e-13 0)
(0.0468436 3.0949e-13 0)
(-0.000544414 1.87271e-13 0)
(-0.0645443 -6.50521e-14 0)
(-0.0961274 -3.37088e-13 0)
(-0.108458 -3.66657e-13 0)
(-0.111113 -3.43002e-13 0)
(-0.0971193 -3.46945e-13 0)
(-0.0800877 -3.80456e-13 0)
(-0.0952265 -3.88342e-13 0)
(-0.0868728 -4.11997e-13 0)
(-0.0195507 -2.22754e-13 0)
(0.134025 -2.97663e-13 0)
(0.335707 -3.52859e-13 0)
(0.290913 -1.77415e-13 0)
(0.105308 2.1684e-14 0)
(0.0372511 5.12532e-14 0)
(0.030861 -3.50887e-13 0)
(0.0451094 -1.71107e-12 0)
(0.023202 1.65587e-12 0)
(-0.030308 5.55112e-12 0)
(-0.104101 2.35962e-12 0)
(-0.16409 -2.36553e-14 0)
(-0.15076 1.17685e-12 0)
(-0.111862 1.71304e-12 0)
(-0.136058 5.83498e-13 0)
(-0.203048 3.17376e-13 0)
(-0.146547 1.58885e-12 0)
(0.0208617 2.20783e-13 0)
(0.0949854 -1.09012e-12 0)
(0.0707228 -1.00732e-12 0)
(0.0572044 -5.53929e-13 0)
(0.0736268 -9.65926e-14 0)
(0.0867235 -1.91214e-13 0)
(0.0743756 -2.03041e-13 0)
(0.0397836 -1.37989e-13 0)
(0.00897524 -3.03577e-13 0)
(-0.00465383 -4.57336e-13 0)
(-0.00704156 -2.52323e-13 0)
(-0.00313507 -1.61645e-13 0)
(-0.0535842 -0.240879 0)
(0.00825961 -0.530321 0)
(-0.0508722 -0.767616 0)
(-0.0837646 -0.783585 0)
(-0.096477 -0.729693 0)
(-0.097193 -0.644032 0)
(-0.0938364 -0.553625 0)
(-0.0822326 -0.467745 0)
(-0.0699561 -0.412038 0)
(-0.0858171 -0.362896 0)
(-0.0756701 -0.315758 0)
(-0.0124319 -0.247456 0)
(0.133797 -0.238342 0)
(0.334862 -0.254827 0)
(0.294611 -0.254804 0)
(0.11281 -0.209247 0)
(0.0447499 -0.163174 0)
(0.0375014 -0.129065 0)
(0.054669 -0.0864343 0)
(0.0306746 -0.0253207 0)
(-0.0307262 -0.0059656 0)
(-0.106418 -0.008811 0)
(-0.168041 -0.00375298 0)
(-0.156728 -0.00860399 0)
(-0.112364 -0.0167926 0)
(-0.130873 -0.00988664 0)
(-0.198661 -0.0119507 0)
(-0.144427 -0.0166943 0)
(0.0214558 -0.00405686 0)
(0.0949652 0.000888201 0)
(0.0707029 0.000685742 0)
(0.057207 0.00055603 0)
(0.0736219 0.000560807 0)
(0.0866944 0.000472416 0)
(0.074361 0.000311611 0)
(0.0398441 0.000436572 0)
(0.00912226 0.00082075 0)
(-0.00454063 0.00134359 0)
(-0.00698599 0.00139153 0)
(-0.00309862 0.00152263 0)
(-0.185913 -0.850091 0)
(-0.106389 -1.064 0)
(-0.074221 -1.1296 0)
(-0.0535121 -1.05942 0)
(-0.0555303 -0.961886 0)
(-0.0572385 -0.840984 0)
(-0.0598298 -0.731507 0)
(-0.0559301 -0.628929 0)
(-0.0495861 -0.554493 0)
(-0.0672178 -0.490934 0)
(-0.0532904 -0.428021 0)
(0.0029702 -0.369943 0)
(0.131881 -0.364529 0)
(0.330918 -0.392878 0)
(0.304172 -0.39885 0)
(0.131964 -0.326326 0)
(0.0605768 -0.262499 0)
(0.0531852 -0.208173 0)
(0.0752895 -0.139129 0)
(0.0466111 -0.0537519 0)
(-0.0255051 0.00604117 0)
(-0.103458 0.0369576 0)
(-0.16403 0.0614124 0)
(-0.154553 0.0661067 0)
(-0.112235 0.0526374 0)
(-0.134649 0.0273983 0)
(-0.205029 -0.00770521 0)
(-0.144251 -0.0342506 0)
(0.0259766 -0.0118805 0)
(0.0963651 0.00142434 0)
(0.0706261 0.00108282 0)
(0.057168 0.000552998 0)
(0.0736024 0.000429964 0)
(0.086651 0.000300989 0)
(0.0743651 0.000317166 0)
(0.0399317 0.000873703 0)
(0.0092391 0.00161375 0)
(-0.00448778 0.00217831 0)
(-0.00698948 0.00192189 0)
(-0.00309693 0.00146498 0)
(-0.0195433 -0.928202 0)
(-0.0345068 -0.8491 0)
(-0.0210028 -0.783737 0)
(-0.0135407 -0.746731 0)
(-0.0068012 -0.705238 0)
(0.00111995 -0.649982 0)
(-0.000140182 -0.590107 0)
(-0.00160894 -0.524411 0)
(-0.00694817 -0.464897 0)
(-0.0279902 -0.418042 0)
(-0.0256519 -0.36229 0)
(0.0095861 -0.341202 0)
(0.121625 -0.334194 0)
(0.317894 -0.349878 0)
(0.325301 -0.371894 0)
(0.176193 -0.31575 0)
(0.100564 -0.258875 0)
(0.0967537 -0.200942 0)
(0.12769 -0.129001 0)
(0.10331 -0.0576117 0)
(0.0201367 -0.0310005 0)
(-0.0751091 -0.0146406 0)
(-0.154395 0.00130807 0)
(-0.164746 0.0128157 0)
(-0.136794 0.0126195 0)
(-0.164358 -0.00023948 0)
(-0.229969 -0.0212037 0)
(-0.147251 -0.0428936 0)
(0.0386065 -0.0159033 0)
(0.101478 0.00203406 0)
(0.070245 0.0013557 0)
(0.0568425 0.000423053 0)
(0.0734862 0.000131212 0)
(0.0866738 -3.1491e-05 0)
(0.0747155 0.000129913 0)
(0.0405561 0.000980723 0)
(0.00980551 0.00200172 0)
(-0.00440845 0.0026411 0)
(-0.00742942 0.00204262 0)
(-0.00338719 0.00083205 0)
(-0.00316512 -0.344968 0)
(-0.00572309 -0.319845 0)
(-0.0041125 -0.296131 0)
(0.000698172 -0.285056 0)
(0.0115705 -0.274004 0)
(0.0224125 -0.271478 0)
(0.0291674 -0.268196 0)
(0.0355985 -0.261283 0)
(0.0300511 -0.25209 0)
(0.0106224 -0.241904 0)
(0.00593518 -0.214494 0)
(0.0264968 -0.204879 0)
(0.12902 -0.196629 0)
(0.301573 -0.182172 0)
(0.325729 -0.218604 0)
(0.217157 -0.204513 0)
(0.149767 -0.172287 0)
(0.154974 -0.136518 0)
(0.185308 -0.082995 0)
(0.110644 -0.0512955 0)
(-0.00857114 -0.0750801 0)
(-0.0875254 -0.091983 0)
(-0.142739 -0.0932793 0)
(-0.138187 -0.0688045 0)
(-0.111646 -0.0443178 0)
(-0.151312 -0.0349647 0)
(-0.232758 -0.0442935 0)
(-0.137534 -0.0593241 0)
(0.062498 -0.0202286 0)
(0.110255 0.00245496 0)
(0.0692781 0.00105876 0)
(0.0561626 -0.000189946 0)
(0.0732267 -0.000505375 0)
(0.0866376 -0.000560888 0)
(0.0751527 -0.000269438 0)
(0.0414006 0.00064546 0)
(0.0105354 0.00168791 0)
(-0.00449091 0.00220926 0)
(-0.00849683 0.00157135 0)
(-0.00410784 0.000357352 0)
(0.004666 -0.0490418 0)
(0.0125539 -0.047769 0)
(0.0125212 -0.0450738 0)
(0.00778198 -0.0417527 0)
(0.00628352 -0.0402513 0)
(0.00671689 -0.0477401 0)
(0.00968382 -0.0599449 0)
(0.0139112 -0.0725837 0)
(0.0117259 -0.092999 0)
(0.0082384 -0.103735 0)
(0.0100266 -0.0918721 0)
(0.0268022 -0.0765547 0)
(0.143506 -0.0565691 0)
(0.296718 -0.0393418 0)
(0.303774 -0.100064 0)
(0.220825 -0.114783 0)
(0.166086 -0.107364 0)
(0.182799 -0.0808304 0)
(0.209814 -0.0411579 0)
(0.110937 -0.0456758 0)
(-0.0190713 -0.0604853 0)
(-0.0926465 -0.0700682 0)
(-0.132059 -0.0670574 0)
(-0.117565 -0.0445458 0)
(-0.104185 -0.0294275 0)
(-0.164334 -0.0364252 0)
(-0.253443 -0.0636396 0)
(-0.124061 -0.080657 0)
(0.098139 -0.0249334 0)
(0.121991 0.00186417 0)
(0.0676963 -0.00010448 0)
(0.0553353 -0.00156443 0)
(0.0731288 -0.0019201 0)
(0.0869012 -0.00185943 0)
(0.0758779 -0.00128551 0)
(0.0424423 -1.46387e-05 0)
(0.0113124 0.00128733 0)
(-0.00452077 0.00192921 0)
(-0.00921398 0.00161599 0)
(-0.00455704 0.00102706 0)
(-0.00193854 0.00468978 0)
(-0.00189937 -0.000362871 0)
(0.00168502 -0.00981153 0)
(0.00534529 -0.0148514 0)
(0.0058008 -0.0164378 0)
(0.00343514 -0.0201053 0)
(0.00522723 -0.0237826 0)
(0.00374631 -0.0291628 0)
(3.24971e-05 -0.0413904 0)
(0.0117083 -0.0408175 0)
(0.0321272 -0.028009 0)
(0.060516 -0.00935028 0)
(0.16488 0.0330276 0)
(0.259659 0.0319131 0)
(0.253031 -0.0374489 0)
(0.210123 -0.055418 0)
(0.182485 -0.0509232 0)
(0.218773 -0.0205302 0)
(0.219185 0.00669811 0)
(0.0920193 -0.0404848 0)
(-0.0320765 -0.0623408 0)
(-0.0938585 -0.0773467 0)
(-0.118144 -0.0687443 0)
(-0.101925 -0.0475508 0)
(-0.103821 -0.0397134 0)
(-0.18428 -0.0542457 0)
(-0.275381 -0.090185 0)
(-0.100236 -0.0942292 0)
(0.142018 -0.0251996 0)
(0.134181 0.00114874 0)
(0.0659742 3.88333e-05 0)
(0.054413 -0.000991047 0)
(0.0729425 -0.00183934 0)
(0.0872491 -0.00271037 0)
(0.0769304 -0.00276695 0)
(0.0438799 -0.00130166 0)
(0.0124085 0.000428198 0)
(-0.0041742 0.00149897 0)
(-0.00936618 0.00177215 0)
(-0.00467536 0.00172116 0)
(-0.000202916 0.030948 0)
(-0.00142008 0.0327707 0)
(-0.00144041 0.0311605 0)
(0.00139662 0.0280697 0)
(0.0012206 0.0243261 0)
(-0.000360798 0.0203786 0)
(0.00095567 0.0194463 0)
(-0.00305633 0.0126403 0)
(0.000495046 0.0118615 0)
(0.0211332 0.0248435 0)
(0.0403496 0.0341932 0)
(0.0856193 0.0481689 0)
(0.183269 0.0777153 0)
(0.228804 0.050488 0)
(0.219618 0.0159747 0)
(0.20784 0.00831135 0)
(0.199705 0.0147021 0)
(0.238325 0.0508256 0)
(0.190585 0.0389506 0)
(0.0444082 -0.0426974 0)
(-0.0545927 -0.0675457 0)
(-0.0988171 -0.0826922 0)
(-0.103347 -0.0701851 0)
(-0.0895899 -0.0516701 0)
(-0.110637 -0.0508415 0)
(-0.212971 -0.0742306 0)
(-0.291972 -0.115939 0)
(-0.0614385 -0.0885462 0)
(0.190049 -0.012314 0)
(0.146312 0.011881 0)
(0.0656343 0.0120356 0)
(0.0535254 0.0114925 0)
(0.071472 0.00996496 0)
(0.0860073 0.0071319 0)
(0.0772354 0.00359781 0)
(0.0455213 0.000674254 0)
(0.0140112 0.000218046 0)
(-0.00322569 0.00102265 0)
(-0.00899987 0.00164967 0)
(-0.00460617 0.00188842 0)
(-0.000182102 0.0421152 0)
(-0.00169453 0.0421746 0)
(-0.00284504 0.0421813 0)
(-0.00124059 0.0411535 0)
(-0.00161064 0.0374402 0)
(-0.0012672 0.0348895 0)
(-0.00222968 0.0351872 0)
(-0.00356266 0.0327913 0)
(0.011792 0.0380019 0)
(0.0332279 0.0467976 0)
(0.0546044 0.0571888 0)
(0.102456 0.0844855 0)
(0.167115 0.0956633 0)
(0.200164 0.0615449 0)
(0.212389 0.0590791 0)
(0.208896 0.0455734 0)
(0.223454 0.0560106 0)
(0.242139 0.0930114 0)
(0.129062 0.0126825 0)
(-0.0106044 -0.057257 0)
(-0.070617 -0.0812087 0)
(-0.0964019 -0.0818099 0)
(-0.0882504 -0.0603134 0)
(-0.0832851 -0.0424397 0)
(-0.125561 -0.0447834 0)
(-0.24701 -0.0736242 0)
(-0.289176 -0.110707 0)
(-0.000378488 -0.0411061 0)
(0.238794 0.051259 0)
(0.157645 0.0790202 0)
(0.0655998 0.0753554 0)
(0.0524177 0.0657801 0)
(0.0687404 0.051526 0)
(0.0811135 0.0363364 0)
(0.0707076 0.024 0)
(0.040623 0.0148769 0)
(0.0127443 0.00836988 0)
(-0.00279464 0.00305638 0)
(-0.00853189 0.0018204 0)
(-0.00444529 0.00200022 0)
(-0.00014568 0.0506078 0)
(-0.00135637 0.0505704 0)
(-0.00242441 0.0514511 0)
(-0.00317209 0.0518948 0)
(-0.00481559 0.0494304 0)
(-0.00253186 0.0494019 0)
(-0.00106624 0.0489801 0)
(-0.000343996 0.0531021 0)
(0.013992 0.0619345 0)
(0.0396224 0.0704103 0)
(0.076667 0.0877943 0)
(0.122695 0.109163 0)
(0.161162 0.115094 0)
(0.193551 0.108824 0)
(0.204227 0.102718 0)
(0.204883 0.0831107 0)
(0.245418 0.120429 0)
(0.196573 0.0818181 0)
(0.045781 -0.0383638 0)
(-0.0460687 -0.0730427 0)
(-0.0782528 -0.0817143 0)
(-0.0786817 -0.0529583 0)
(-0.0654084 -0.0167752 0)
(-0.0746246 0.0105926 0)
(-0.140687 0.0236645 0)
(-0.276497 0.00202191 0)
(-0.260637 0.00688063 0)
(0.0946377 0.164653 0)
(0.305807 0.263972 0)
(0.169532 0.251583 0)
(0.0528757 0.219427 0)
(0.0305625 0.187841 0)
(0.043099 0.152286 0)
(0.0594823 0.115756 0)
(0.0565562 0.0810081 0)
(0.0304595 0.0516475 0)
(0.0026206 0.0310519 0)
(-0.00953701 0.0157733 0)
(-0.0100176 0.0053415 0)
(-0.00443289 0.00306117 0)
(-0.000218106 0.068633 0)
(-0.000881879 0.0685149 0)
(-0.00156883 0.0691646 0)
(-0.00318783 0.0696232 0)
(-0.00401294 0.0708872 0)
(-0.00170112 0.0748285 0)
(0.00133601 0.0774606 0)
(0.00892061 0.0843105 0)
(0.0284708 0.0981593 0)
(0.0581474 0.113935 0)
(0.0919475 0.128012 0)
(0.128762 0.131337 0)
(0.166789 0.137499 0)
(0.188238 0.142194 0)
(0.18761 0.133849 0)
(0.225963 0.145687 0)
(0.222208 0.128797 0)
(0.0891209 0.00148422 0)
(-0.020167 -0.059374 0)
(-0.0523785 -0.0546592 0)
(-0.051263 -0.00954141 0)
(-0.0338243 0.0600024 0)
(-0.0270104 0.129957 0)
(-0.0443158 0.164848 0)
(-0.13382 0.160176 0)
(-0.263184 0.119822 0)
(-0.13246 0.178068 0)
(0.247364 0.348467 0)
(0.322563 0.366094 0)
(0.114719 0.302223 0)
(0.00417564 0.263808 0)
(-0.0122819 0.234264 0)
(-0.000722878 0.209328 0)
(0.012428 0.18198 0)
(0.00893011 0.150363 0)
(-0.00751666 0.116844 0)
(-0.0218254 0.0790024 0)
(-0.0275701 0.0422984 0)
(-0.0207818 0.0167606 0)
(-0.00664269 0.0062517 0)
(-0.000259471 0.105659 0)
(-0.000844054 0.105443 0)
(-0.00135644 0.105123 0)
(-0.00151213 0.104225 0)
(0.000200497 0.103077 0)
(0.00380246 0.103 0)
(0.00807089 0.104445 0)
(0.019602 0.1112 0)
(0.0425394 0.122757 0)
(0.0683893 0.136058 0)
(0.0934362 0.149343 0)
(0.131837 0.170617 0)
(0.171624 0.185498 0)
(0.190033 0.163931 0)
(0.207594 0.137889 0)
(0.200016 0.158306 0)
(0.106459 0.0664764 0)
(0.0152437 -0.00490188 0)
(-0.00832089 0.0332503 0)
(0.00195179 0.11533 0)
(0.0322393 0.200115 0)
(0.0557436 0.246634 0)
(0.0356242 0.255217 0)
(-0.0455042 0.226673 0)
(-0.184075 0.145102 0)
(-0.259255 0.0814151 0)
(-0.0403066 0.176334 0)
(0.275826 0.247644 0)
(0.261245 0.188484 0)
(0.0709657 0.146396 0)
(-0.0126125 0.142984 0)
(-0.0219357 0.14057 0)
(-0.00728397 0.143134 0)
(0.00266105 0.142454 0)
(-0.00621047 0.140563 0)
(-0.0383061 0.141665 0)
(-0.0692148 0.124483 0)
(-0.0695155 0.0808701 0)
(-0.0447535 0.040627 0)
(-0.0145596 0.0177408 0)
(-0.000426245 0.151685 0)
(-0.00139879 0.151248 0)
(-0.00274245 0.149807 0)
(-0.00515952 0.146167 0)
(-0.00519342 0.145313 0)
(-0.000382486 0.146586 0)
(0.00923709 0.152285 0)
(0.0265664 0.163343 0)
(0.0524248 0.172278 0)
(0.0837664 0.175306 0)
(0.12525 0.179453 0)
(0.163603 0.193826 0)
(0.160345 0.190009 0)
(0.14236 0.186568 0)
(0.18219 0.187331 0)
(0.157148 0.164413 0)
(0.0649345 0.146179 0)
(0.057103 0.202902 0)
(0.0956931 0.255007 0)
(0.108419 0.28876 0)
(0.0752658 0.285264 0)
(0.0192739 0.240206 0)
(-0.0462457 0.152786 0)
(-0.150426 0.0546758 0)
(-0.273796 -0.0482415 0)
(-0.233088 -0.0393601 0)
(0.0277248 0.0691685 0)
(0.259072 0.0824362 0)
(0.224997 0.0338326 0)
(0.0708731 0.0272251 0)
(-0.00143838 0.0413854 0)
(-0.0121373 0.052567 0)
(0.00109215 0.0619353 0)
(0.00995102 0.0693335 0)
(0.00817033 0.0753532 0)
(-0.0230121 0.0899256 0)
(-0.0804098 0.110269 0)
(-0.108377 0.100969 0)
(-0.0816155 0.0685127 0)
(-0.0286966 0.0376129 0)
(-0.000680227 0.211926 0)
(-0.00265327 0.210258 0)
(-0.00625244 0.208862 0)
(-0.00584287 0.210399 0)
(0.000604223 0.218693 0)
(0.0105212 0.231966 0)
(0.0242185 0.249492 0)
(0.0388675 0.26806 0)
(0.0540674 0.279325 0)
(0.0753038 0.279571 0)
(0.111282 0.28187 0)
(0.142009 0.307456 0)
(0.16463 0.329475 0)
(0.187452 0.357609 0)
(0.186245 0.373276 0)
(0.16036 0.319145 0)
(0.143549 0.308577 0)
(0.120114 0.315049 0)
(0.0744147 0.282563 0)
(0.0311085 0.201667 0)
(-0.0145497 0.113046 0)
(-0.0719168 0.0424941 0)
(-0.143159 -0.0338313 0)
(-0.239221 -0.128182 0)
(-0.274691 -0.151856 0)
(-0.146115 -0.0395638 0)
(0.0770608 0.0336544 0)
(0.241775 0.0202015 0)
(0.208041 -0.0154827 0)
(0.0782438 -0.0134745 0)
(0.0118078 0.000301593 0)
(-0.00213297 0.0105808 0)
(0.00887283 0.0165745 0)
(0.015591 0.0209936 0)
(0.0136328 0.021767 0)
(-0.00466019 0.0260847 0)
(-0.0585733 0.0516986 0)
(-0.109753 0.0761346 0)
(-0.105805 0.0750903 0)
(-0.0443358 0.059633 0)
(-0.00203299 0.282177 0)
(-0.00435104 0.288224 0)
(-0.00260639 0.315194 0)
(0.00431394 0.355882 0)
(0.0155885 0.397626 0)
(0.0292968 0.439486 0)
(0.0440189 0.487782 0)
(0.055314 0.539042 0)
(0.0635168 0.580502 0)
(0.0862191 0.608588 0)
(0.152122 0.617035 0)
(0.209477 0.584595 0)
(0.208674 0.532014 0)
(0.184569 0.472689 0)
(0.145124 0.383436 0)
(0.094801 0.304035 0)
(0.0609875 0.229369 0)
(0.0320346 0.146595 0)
(-0.0135653 0.0790008 0)
(-0.054934 0.0219884 0)
(-0.0781193 -0.0343176 0)
(-0.122262 -0.0896819 0)
(-0.210716 -0.147469 0)
(-0.26416 -0.180949 0)
(-0.1884 -0.0994314 0)
(-0.0543227 0.0170991 0)
(0.0853167 0.0419718 0)
(0.211722 0.00761282 0)
(0.192545 -0.0247846 0)
(0.0860834 -0.0187923 0)
(0.0217422 -0.00526303 0)
(0.00354382 -0.000173044 0)
(0.0111264 0.00179196 0)
(0.0149547 0.000277616 0)
(0.0130763 -0.00376091 0)
(0.00583106 -0.00539355 0)
(-0.0321799 0.00656073 0)
(-0.0858357 0.0363687 0)
(-0.0975171 0.0582806 0)
(-0.0435918 0.0655274 0)
(0.00514655 0.348462 0)
(0.0291633 0.377597 0)
(0.0589457 0.449006 0)
(0.073592 0.521212 0)
(0.0811678 0.566756 0)
(0.0973985 0.594041 0)
(0.120154 0.614386 0)
(0.128216 0.628056 0)
(0.121085 0.636326 0)
(0.110508 0.633148 0)
(0.0881616 0.591774 0)
(0.0600799 0.479648 0)
(0.0567933 0.352678 0)
(0.0442777 0.246042 0)
(0.0237237 0.151985 0)
(0.0118951 0.091796 0)
(-0.00816623 0.048206 0)
(-0.0247861 -0.000252517 0)
(-0.0456603 -0.0413231 0)
(-0.0780892 -0.0655736 0)
(-0.122159 -0.0935553 0)
(-0.180954 -0.147041 0)
(-0.231107 -0.17752 0)
(-0.19293 -0.113624 0)
(-0.083845 0.00357457 0)
(-0.00985343 0.0576385 0)
(0.0679195 0.060631 0)
(0.177446 0.0177148 0)
(0.182596 -0.0133857 0)
(0.0970555 -0.00638353 0)
(0.0297501 0.00494059 0)
(0.00466547 0.00848068 0)
(0.0093071 0.00678179 0)
(0.01024 0.00134736 0)
(0.00816787 -0.00472856 0)
(0.00528612 -0.0107608 0)
(-0.0183297 -0.00894548 0)
(-0.059914 0.0126348 0)
(-0.077707 0.0395673 0)
(-0.0373525 0.0568426 0)
(0.026043 0.326361 0)
(0.0925373 0.34514 0)
(0.135786 0.367811 0)
(0.117782 0.357351 0)
(0.0857686 0.333625 0)
(0.0751942 0.309174 0)
(0.0767974 0.280502 0)
(0.0764564 0.246191 0)
(0.068424 0.215988 0)
(0.0432873 0.184785 0)
(0.00420416 0.148128 0)
(-0.0209248 0.117248 0)
(-0.016437 0.092676 0)
(-0.00882651 0.0494318 0)
(-0.00351299 0.0255677 0)
(-0.00520377 -0.000772705 0)
(-0.0277137 -0.0223211 0)
(-0.0542389 -0.0453176 0)
(-0.0765111 -0.0708089 0)
(-0.105267 -0.0996725 0)
(-0.156625 -0.135366 0)
(-0.203173 -0.158974 0)
(-0.178514 -0.111054 0)
(-0.0896505 -0.00123687 0)
(-0.0233646 0.064084 0)
(0.000658945 0.0762946 0)
(0.0468447 0.0750224 0)
(0.140397 0.0350156 0)
(0.169323 -0.00227784 0)
(0.103743 0.0022411 0)
(0.0360659 0.0101078 0)
(0.00531806 0.0134268 0)
(0.00425245 0.00791212 0)
(0.00386292 0.000105529 0)
(0.00140837 -0.00565498 0)
(0.00176749 -0.0134484 0)
(-0.009635 -0.0159761 0)
(-0.039087 -0.00149496 0)
(-0.0549168 0.0209581 0)
(-0.0269447 0.0396044 0)
(0.023243 0.130037 0)
(0.0691062 0.118848 0)
(0.0707122 0.0830842 0)
(0.0406483 0.0329003 0)
(0.0347423 0.00736775 0)
(0.0462078 -0.00221599 0)
(0.0594624 -0.00872336 0)
(0.0660475 -0.0160177 0)
(0.0619109 -0.0221688 0)
(0.0451162 -0.020661 0)
(0.0230811 -0.00474555 0)
(0.00664407 0.0165638 0)
(-0.008557 0.0320417 0)
(-0.0203904 0.0220012 0)
(-0.0246552 0.00372446 0)
(-0.0342522 -0.0243301 0)
(-0.0510913 -0.0478756 0)
(-0.0715107 -0.0661811 0)
(-0.0980386 -0.0908358 0)
(-0.140299 -0.128859 0)
(-0.179304 -0.152406 0)
(-0.157526 -0.106359 0)
(-0.0791063 -0.0107159 0)
(-0.0241606 0.0560564 0)
(-0.00913289 0.0723939 0)
(0.000687152 0.0726665 0)
(0.0281416 0.0688705 0)
(0.102957 0.0381623 0)
(0.151014 -0.00635796 0)
(0.108991 -0.00291965 0)
(0.040529 0.00988206 0)
(0.00254965 0.0135513 0)
(-0.00352976 0.00731636 0)
(-0.00283374 -0.000439694 0)
(-0.00489321 -0.00775298 0)
(-0.00465972 -0.0184647 0)
(-0.00681087 -0.0283987 0)
(-0.0243229 -0.019303 0)
(-0.0381021 0.000329381 0)
(-0.0193842 0.0148239 0)
(0.0152602 -0.0277437 0)
(0.0472916 -0.0545471 0)
(0.0529644 -0.0800196 0)
(0.0448192 -0.0821464 0)
(0.0519293 -0.0662031 0)
(0.0596882 -0.0509599 0)
(0.0634976 -0.043236 0)
(0.0634999 -0.0394194 0)
(0.0639495 -0.033861 0)
(0.0600769 -0.0177517 0)
(0.0400754 -8.03404e-05 0)
(0.0145247 0.00787294 0)
(-0.0111974 0.00430835 0)
(-0.036114 -0.00502588 0)
(-0.0481595 -0.0232289 0)
(-0.0549274 -0.0454821 0)
(-0.0680429 -0.0692686 0)
(-0.095637 -0.0995936 0)
(-0.13691 -0.136928 0)
(-0.164598 -0.155483 0)
(-0.134943 -0.110399 0)
(-0.0666362 -0.0283438 0)
(-0.0220045 0.0291793 0)
(-0.00956285 0.0440333 0)
(-0.0073585 0.0468304 0)
(-0.00273632 0.0447844 0)
(0.0135952 0.0389877 0)
(0.0679038 0.0223438 0)
(0.129735 -0.0242357 0)
(0.119393 -0.0349307 0)
(0.0519379 -0.014303 0)
(0.00284565 0.00323364 0)
(-0.0092298 0.00388901 0)
(-0.0106584 0.00220957 0)
(-0.0159612 -0.00448937 0)
(-0.0181275 -0.0178726 0)
(-0.0104428 -0.0339196 0)
(-0.0114035 -0.035044 0)
(-0.0220309 -0.0173572 0)
(-0.0129772 -0.00478495 0)
(-0.00258578 -0.0470145 0)
(0.0187312 -0.0731881 0)
(0.0441164 -0.0959515 0)
(0.0539624 -0.0992989 0)
(0.0647948 -0.0914483 0)
(0.0683397 -0.0877483 0)
(0.0705832 -0.0854533 0)
(0.0750816 -0.0789546 0)
(0.0827906 -0.0653238 0)
(0.0776684 -0.0479205 0)
(0.047774 -0.0389523 0)
(0.0108732 -0.0335686 0)
(-0.0209868 -0.0393754 0)
(-0.0469263 -0.0523009 0)
(-0.0636403 -0.0732103 0)
(-0.0786178 -0.0999095 0)
(-0.103235 -0.133222 0)
(-0.13671 -0.164613 0)
(-0.151896 -0.16691 0)
(-0.114734 -0.11729 0)
(-0.0567881 -0.0458691 0)
(-0.0230234 -0.000791173 0)
(-0.00936101 0.0128141 0)
(-0.0071514 0.0150088 0)
(-0.00840916 0.0147389 0)
(-0.00687036 0.0135636 0)
(0.00651701 0.00924739 0)
(0.0420322 -0.00040329 0)
(0.0958217 -0.0412117 0)
(0.118562 -0.0785613 0)
(0.0773056 -0.0717958 0)
(0.0200801 -0.0421246 0)
(-0.00451659 -0.0234601 0)
(-0.0109074 -0.0128265 0)
(-0.0242451 -0.0098477 0)
(-0.0330197 -0.0115101 0)
(-0.0233578 -0.0220209 0)
(-0.0083627 -0.0356572 0)
(-0.0089434 -0.0261427 0)
(-0.00726914 -0.0244637 0)
(-0.00996169 -0.0850095 0)
(0.000134067 -0.0659996 0)
(0.0278031 -0.0750283 0)
(0.0491586 -0.0910071 0)
(0.0630598 -0.102069 0)
(0.0654652 -0.11127 0)
(0.0719716 -0.11678 0)
(0.0828974 -0.116849 0)
(0.0938551 -0.110987 0)
(0.0854895 -0.105452 0)
(0.0539055 -0.102026 0)
(0.014117 -0.102397 0)
(-0.0292486 -0.115284 0)
(-0.0687186 -0.141048 0)
(-0.0940368 -0.165522 0)
(-0.112757 -0.184508 0)
(-0.130393 -0.194401 0)
(-0.1281 -0.174896 0)
(-0.091308 -0.118216 0)
(-0.0479587 -0.0539877 0)
(-0.02268 -0.0190565 0)
(-0.0100869 -0.00618373 0)
(-0.00677905 -0.00419001 0)
(-0.00770804 -0.00586494 0)
(-0.00875114 -0.006247 0)
(-0.00802811 -0.00575159 0)
(0.000136221 -0.00613266 0)
(0.0192796 -0.0159078 0)
(0.0544192 -0.0448037 0)
(0.0899208 -0.0907464 0)
(0.0870496 -0.114016 0)
(0.0494236 -0.0971539 0)
(0.019003 -0.0679745 0)
(0.002459 -0.0466888 0)
(-0.0146927 -0.0322333 0)
(-0.029858 -0.0166479 0)
(-0.0337118 -0.00971328 0)
(-0.0153755 -0.0165126 0)
(-0.0112444 -0.00462424 0)
(-0.0113593 -0.0156965 0)
(0.0157329 -0.261499 0)
(0.0283495 -0.104174 0)
(0.0200182 -0.0539864 0)
(0.0279054 -0.0607011 0)
(0.0452688 -0.0901149 0)
(0.054163 -0.113042 0)
(0.065207 -0.125019 0)
(0.080664 -0.128106 0)
(0.0937732 -0.127285 0)
(0.0863038 -0.131893 0)
(0.0507181 -0.142233 0)
(-0.00190275 -0.164495 0)
(-0.0582325 -0.19965 0)
(-0.0953372 -0.223927 0)
(-0.10552 -0.224362 0)
(-0.106447 -0.206174 0)
(-0.0939725 -0.165027 0)
(-0.0632954 -0.107937 0)
(-0.0353843 -0.0558984 0)
(-0.0191803 -0.0273098 0)
(-0.0107225 -0.0139407 0)
(-0.00869759 -0.0112105 0)
(-0.00905382 -0.0131657 0)
(-0.0091336 -0.0147935 0)
(-0.00829993 -0.0146814 0)
(-0.00676017 -0.0131704 0)
(-0.0032699 -0.0116918 0)
(0.00476733 -0.0161725 0)
(0.0237046 -0.0311684 0)
(0.0518666 -0.0639575 0)
(0.071131 -0.0988465 0)
(0.0644476 -0.105089 0)
(0.0441134 -0.0851891 0)
(0.0235341 -0.061876 0)
(0.00470334 -0.0436214 0)
(-0.0113186 -0.0258719 0)
(-0.0232275 -0.0122906 0)
(-0.00345871 -0.0139043 0)
(-0.0081569 -0.0104085 0)
(-0.0179387 -0.0225584 0)
(0.141642 -0.201069 0)
(0.200101 -0.0704082 0)
(0.0696955 -0.0228363 0)
(0.0143438 -0.0188564 0)
(0.0126224 -0.0369096 0)
(0.0318305 -0.0527347 0)
(0.0574549 -0.060085 0)
(0.0807138 -0.0607793 0)
(0.0902058 -0.0600332 0)
(0.0710853 -0.0644813 0)
(0.0224888 -0.0758259 0)
(-0.0412125 -0.0937758 0)
(-0.0865191 -0.116619 0)
(-0.0925323 -0.12313 0)
(-0.0769297 -0.113708 0)
(-0.0555791 -0.0934609 0)
(-0.035728 -0.0609208 0)
(-0.0229393 -0.0330185 0)
(-0.0136131 -0.0190418 0)
(-0.00752668 -0.0104258 0)
(-0.00716611 -0.00694849 0)
(-0.00934009 -0.00673519 0)
(-0.0102317 -0.00761524 0)
(-0.00916864 -0.00795757 0)
(-0.00718705 -0.00765161 0)
(-0.00514721 -0.00680269 0)
(-0.0027567 -0.00597778 0)
(0.000511293 -0.00627013 0)
(0.00837181 -0.0103944 0)
(0.0247037 -0.0221815 0)
(0.0474135 -0.0385823 0)
(0.0625844 -0.046794 0)
(0.0606448 -0.0405158 0)
(0.0425152 -0.0296388 0)
(0.0200022 -0.0208184 0)
(0.000333532 -0.0137627 0)
(-0.0221794 -0.00872657 0)
(-0.0135619 -0.012675 0)
(-0.0195839 -0.019211 0)
(-0.0230674 -0.0245332 0)
(0.141642 0.201069 0)
(0.200101 0.0704082 0)
(0.0696955 0.0228363 0)
(0.0143438 0.0188564 0)
(0.0126224 0.0369096 0)
(0.0318305 0.0527347 0)
(0.0574549 0.060085 0)
(0.0807138 0.0607793 0)
(0.0902058 0.0600332 0)
(0.0710853 0.0644813 0)
(0.0224888 0.0758259 0)
(-0.0412125 0.0937758 0)
(-0.0865191 0.116619 0)
(-0.0925323 0.12313 0)
(-0.0769297 0.113708 0)
(-0.0555791 0.0934609 0)
(-0.035728 0.0609208 0)
(-0.0229393 0.0330185 0)
(-0.0136131 0.0190418 0)
(-0.00752668 0.0104258 0)
(-0.00716611 0.00694849 0)
(-0.00934009 0.00673519 0)
(-0.0102317 0.00761524 0)
(-0.00916864 0.00795757 0)
(-0.00718705 0.00765161 0)
(-0.00514721 0.00680269 0)
(-0.0027567 0.00597778 0)
(0.000511293 0.00627013 0)
(0.00837181 0.0103944 0)
(0.0247037 0.0221815 0)
(0.0474135 0.0385823 0)
(0.0625844 0.046794 0)
(0.0606448 0.0405158 0)
(0.0425152 0.0296388 0)
(0.0200022 0.0208184 0)
(0.000333532 0.0137627 0)
(-0.0221794 0.00872657 0)
(-0.0135619 0.012675 0)
(-0.0195839 0.019211 0)
(-0.0230674 0.0245332 0)
(0.0157329 0.261499 0)
(0.0283495 0.104174 0)
(0.0200182 0.0539864 0)
(0.0279054 0.0607011 0)
(0.0452688 0.0901149 0)
(0.054163 0.113042 0)
(0.065207 0.125019 0)
(0.080664 0.128106 0)
(0.0937732 0.127285 0)
(0.0863038 0.131893 0)
(0.0507181 0.142233 0)
(-0.00190275 0.164495 0)
(-0.0582325 0.19965 0)
(-0.0953372 0.223927 0)
(-0.10552 0.224362 0)
(-0.106447 0.206174 0)
(-0.0939725 0.165027 0)
(-0.0632954 0.107937 0)
(-0.0353843 0.0558984 0)
(-0.0191803 0.0273098 0)
(-0.0107225 0.0139407 0)
(-0.00869759 0.0112105 0)
(-0.00905382 0.0131657 0)