/*--------------------------------*- C++ -*----------------------------------*\
| =========                 |                                                 |
| \\      /  F ield         | OpenFOAM: The Open Source CFD Toolbox           |
|  \\    /   O peration     | Version:  v1912                                 |
|   \\  /    A nd           | Website:  www.openfoam.com                      |
|    \\/     M anipulation  |                                                 |
\*---------------------------------------------------------------------------*/
FoamFile
{
    version     2.0;
    format      ascii;
    class       volVectorField;
    location    "8.74";
    object      U;
}
// * * * * * * * * * * * * * * * * * * * * * * * * * * * * * * * * * * * * * //

dimensions      [0 1 -1 0 0 0 0];


internalField   nonuniform List<vector> 
1900
(
(0.110704 2.00841e-07 0)
(0.147655 -4.0939e-07 0)
(0.125452 -2.17496e-06 0)
(0.115863 -1.10424e-05 0)
(0.113127 -2.24297e-05 0)
(0.111835 -5.02721e-05 0)
(0.109346 -7.06032e-05 0)
(0.106491 -0.000250853 0)
(0.103649 0.00388001 0)
(0.0902128 0.0117519 0)
(0.110707 2.29429e-06 0)
(0.147655 1.56452e-06 0)
(0.125443 -1.96978e-06 0)
(0.115851 -1.81802e-05 0)
(0.113103 -2.98266e-05 0)
(0.111781 -6.53977e-05 0)
(0.10922 -8.40635e-05 0)
(0.106177 -8.4374e-05 0)
(0.103679 0.00231148 0)
(0.10332 0.0107579 0)
(0.11071 -3.63903e-14 0)
(0.147655 -2.13747e-14 0)
(0.125436 -2.38989e-14 0)
(0.11584 -2.84752e-14 0)
(0.113076 -1.52409e-14 0)
(0.111724 1.70319e-14 0)
(0.109088 6.44466e-15 0)
(0.106329 6.71455e-15 0)
(0.105315 -9.02396e-16 0)
(0.110654 -9.16574e-15 0)
(0.110707 -2.29429e-06 0)
(0.147655 -1.56452e-06 0)
(0.125443 1.96978e-06 0)
(0.115851 1.81802e-05 0)
(0.113103 2.98266e-05 0)
(0.111781 6.53977e-05 0)
(0.10922 8.40635e-05 0)
(0.106177 8.4374e-05 0)
(0.103679 -0.00231148 0)
(0.10332 -0.0107579 0)
(0.110704 -2.00842e-07 0)
(0.147655 4.0939e-07 0)
(0.125452 2.17496e-06 0)
(0.115863 1.10424e-05 0)
(0.113127 2.24297e-05 0)
(0.111835 5.02721e-05 0)
(0.109346 7.06032e-05 0)
(0.106491 0.000250853 0)
(0.103649 -0.00388001 0)
(0.0902128 -0.0117519 0)
(0.0933288 0.037422 0)
(0.128924 0.0518501 0)
(0.175124 0.0755225 0)
(0.249961 0.116815 0)
(0.394216 0.172874 0)
(0.11633 0.0260314 0)
(0.140125 0.0278895 0)
(0.170143 0.0377549 0)
(0.232703 0.0597509 0)
(0.374502 0.101883 0)
(0.126154 -1.17026e-14 0)
(0.148453 -2.88003e-14 0)
(0.179631 8.7634e-16 0)
(0.242871 -2.02568e-14 0)
(0.38427 -5.94638e-15 0)
(0.11633 -0.0260314 0)
(0.140125 -0.0278895 0)
(0.170143 -0.0377549 0)
(0.232703 -0.0597509 0)
(0.374502 -0.101883 0)
(0.0933288 -0.037422 0)
(0.128924 -0.0518501 0)
(0.175124 -0.0755225 0)
(0.249961 -0.116815 0)
(0.394216 -0.172874 0)
(0.845082 0.0291835 0)
(1.10706 -0.0519917 0)
(1.26488 -0.0830861 0)
(1.3511 -0.0957547 0)
(1.44856 -0.106481 0)
(0.819207 -0.0178711 0)
(1.11968 -0.0482658 0)
(1.29622 -0.059449 0)
(1.38416 -0.0601193 0)
(1.47763 -0.0805574 0)
(0.815427 -1.18076e-15 0)
(1.1236 2.83725e-15 0)
(1.29146 -2.51966e-15 0)
(1.37551 -1.18701e-15 0)
(1.46587 5.40715e-15 0)
(0.819207 0.0178711 0)
(1.11968 0.0482658 0)
(1.29622 0.059449 0)
(1.38416 0.0601193 0)
(1.47763 0.0805574 0)
(0.845082 -0.0291835 0)
(1.10706 0.0519917 0)
(1.26488 0.0830861 0)
(1.3511 0.0957547 0)
(1.44856 0.106481 0)
(1.47152 -0.0132983 0)
(1.4931 0.0496266 0)
(1.49983 0.0169286 0)
(1.51773 -0.0119537 0)
(1.52685 -0.0181172 0)
(1.54242 -0.0186424 0)
(1.55965 -0.0138567 0)
(1.57864 -0.0145077 0)
(1.59474 -0.00909378 0)
(1.61314 -0.00208795 0)
(1.64992 -0.0084103 0)
(1.66334 -0.00592622 0)
(1.64742 -0.00536366 0)
(1.52988 -0.00496417 0)
(1.31949 -0.00813876 0)
(1.24073 -0.00557011 0)
(1.23411 -0.00230834 0)
(1.23461 -0.00848223 0)
(1.2258 -0.0182913 0)
(1.19124 -0.0261309 0)
(1.13004 -0.0412685 0)
(1.06212 -0.0518542 0)
(0.995432 -0.0446522 0)
(0.930361 -0.0371892 0)
(0.86629 -0.034214 0)
(0.796923 -0.0311741 0)
(0.694886 -0.0252835 0)
(0.360893 -0.0173241 0)
(-0.0748297 -0.0105357 0)
(-0.266956 -0.00901488 0)
(-0.303093 -0.00898854 0)
(-0.327283 -0.00879957 0)
(-0.348272 -0.00892723 0)
(-0.363751 -0.00930108 0)
(-0.374507 -0.0100232 0)
(-0.382878 -0.0111828 0)
(-0.392276 -0.0122097 0)
(-0.401985 -0.0117402 0)
(-0.407774 -0.0105823 0)
(-0.412286 -0.00891116 0)
(1.48136 -0.0138303 0)
(1.46134 0.0393178 0)
(1.44978 0.0390397 0)
(1.47763 0.00973655 0)
(1.49273 -0.00653157 0)
(1.51141 -0.0205867 0)
(1.53366 -0.0244767 0)
(1.55833 -0.0266932 0)
(1.57776 -0.0228769 0)
(1.6007 -0.0180877 0)
(1.64209 -0.0213896 0)
(1.65727 -0.0157427 0)
(1.6412 -0.014337 0)
(1.51471 -0.0149412 0)
(1.30787 -0.0127234 0)
(1.2331 -0.00774477 0)
(1.23224 -0.00517786 0)
(1.23703 -0.00566652 0)
(1.23459 -0.00837488 0)
(1.20908 -0.0134585 0)
(1.15285 -0.0227605 0)
(1.0713 -0.025894 0)
(0.992181 -0.0212153 0)
(0.925221 -0.0169201 0)
(0.865448 -0.0151428 0)
(0.801329 -0.0149268 0)
(0.700638 -0.0147772 0)
(0.365652 -0.00829233 0)
(-0.0731468 -0.0049544 0)
(-0.266726 -0.00450644 0)
(-0.302579 -0.00448851 0)
(-0.3265 -0.00438998 0)
(-0.347277 -0.00446541 0)
(-0.362685 -0.00467013 0)
(-0.373664 -0.0050449 0)
(-0.38275 -0.00562717 0)
(-0.39323 -0.00614818 0)
(-0.403678 -0.00592272 0)
(-0.409649 -0.00533509 0)
(-0.414064 -0.00449258 0)
(1.47925 -1.37626e-14 0)
(1.46239 -2.34307e-14 0)
(1.43197 -5.78582e-14 0)
(1.46593 -6.30709e-14 0)
(1.47916 -5.39792e-14 0)
(1.50122 -3.72921e-14 0)
(1.52709 -2.54675e-14 0)
(1.55339 -5.19116e-14 0)
(1.57337 -4.01854e-14 0)
(1.59789 -2.96682e-14 0)
(1.63994 -7.68704e-14 0)
(1.65512 -3.34713e-14 0)
(1.63893 -8.79387e-15 0)
(1.50893 9.06171e-14 0)
(1.30363 4.73944e-14 0)
(1.23173 -3.63083e-14 0)
(1.23232 -2.23341e-14 0)
(1.23845 -1.1173e-13 0)
(1.23789 -7.85065e-13 0)
(1.21191 -1.7126e-12 0)
(1.15176 -7.28782e-13 0)
(1.07132 2.79497e-13 0)
(0.997959 1.18057e-13 0)
(0.932152 -2.45563e-13 0)
(0.871744 3.3294e-14 0)
(0.809295 3.61153e-13 0)
(0.704282 4.30288e-13 0)
(0.364172 -2.90029e-13 0)
(-0.0737058 -1.59558e-12 0)
(-0.26677 -9.6178e-13 0)
(-0.302531 -2.105e-13 0)
(-0.326304 4.48978e-13 0)
(-0.346934 7.6776e-13 0)
(-0.36221 5.02125e-13 0)
(-0.373051 3.80348e-13 0)
(-0.38197 3.0854e-13 0)
(-0.392331 -1.24319e-13 0)
(-0.402815 -3.20455e-13 0)
(-0.408961 -1.58293e-14 0)
(-0.413629 4.86864e-14 0)
(1.48136 0.0138303 0)
(1.46134 -0.0393178 0)
(1.44978 -0.0390397 0)
(1.47763 -0.00973655 0)
(1.49273 0.00653157 0)
(1.51141 0.0205867 0)
(1.53366 0.0244767 0)
(1.55833 0.0266932 0)
(1.57776 0.0228769 0)
(1.6007 0.0180877 0)
(1.64209 0.0213896 0)
(1.65727 0.0157427 0)
(1.6412 0.014337 0)
(1.51471 0.0149412 0)
(1.30787 0.0127234 0)
(1.2331 0.00774477 0)
(1.23224 0.00517786 0)
(1.23703 0.00566652 0)
(1.23459 0.00837488 0)
(1.20908 0.0134585 0)
(1.15285 0.0227605 0)
(1.0713 0.025894 0)
(0.992181 0.0212153 0)
(0.925221 0.0169201 0)
(0.865448 0.0151428 0)
(0.801329 0.0149268 0)
(0.700638 0.0147772 0)
(0.365652 0.00829233 0)
(-0.0731468 0.0049544 0)
(-0.266726 0.00450644 0)
(-0.302579 0.00448851 0)
(-0.3265 0.00438998 0)
(-0.347277 0.00446541 0)
(-0.362685 0.00467013 0)
(-0.373664 0.0050449 0)
(-0.38275 0.00562717 0)
(-0.39323 0.00614818 0)
(-0.403678 0.00592272 0)
(-0.409649 0.00533509 0)
(-0.414064 0.00449258 0)
(1.47152 0.0132983 0)
(1.4931 -0.0496266 0)
(1.49983 -0.0169286 0)
(1.51773 0.0119537 0)
(1.52685 0.0181172 0)
(1.54242 0.0186424 0)
(1.55965 0.0138567 0)
(1.57864 0.0145077 0)
(1.59474 0.00909378 0)
(1.61314 0.00208795 0)
(1.64992 0.0084103 0)
(1.66334 0.00592622 0)
(1.64742 0.00536366 0)
(1.52988 0.00496417 0)
(1.31949 0.00813876 0)
(1.24073 0.00557011 0)
(1.23411 0.00230834 0)
(1.23461 0.00848223 0)
(1.2258 0.0182913 0)
(1.19124 0.0261309 0)
(1.13004 0.0412685 0)
(1.06212 0.0518542 0)
(0.995432 0.0446522 0)
(0.930361 0.0371892 0)
(0.86629 0.034214 0)
(0.796923 0.0311741 0)
(0.694886 0.0252835 0)
(0.360893 0.0173241 0)
(-0.0748297 0.0105357 0)
(-0.266956 0.00901488 0)
(-0.303093 0.00898854 0)
(-0.327283 0.00879957 0)
(-0.348272 0.00892723 0)
(-0.363751 0.00930108 0)
(-0.374507 0.0100232 0)
(-0.382878 0.0111828 0)
(-0.392276 0.0122097 0)
(-0.401985 0.0117402 0)
(-0.407774 0.0105823 0)
(-0.412286 0.00891116 0)
(1.57425 -0.0825016 0)
(1.58104 -0.0790745 0)
(1.59517 -0.0506027 0)
(1.59974 -0.0243017 0)
(1.60197 -0.000656387 0)
(1.61011 0.0359154 0)
(1.61532 0.0576764 0)
(1.62046 0.0771465 0)
(1.62566 0.076581 0)
(1.63437 0.0676763 0)
(1.65633 0.0805746 0)
(1.66783 0.0620893 0)
(1.65237 0.0448797 0)
(1.55419 0.0356578 0)
(1.33429 0.0335457 0)
(1.25596 0.0285641 0)
(1.2365 0.0208465 0)
(1.22795 0.0232124 0)
(1.21715 0.0434917 0)
(1.18543 0.0737891 0)
(1.12772 0.09501 0)
(1.06556 0.0970089 0)
(1.00617 0.0875517 0)
(0.942911 0.0766195 0)
(0.878194 0.067741 0)
(0.80833 0.0600868 0)
(0.694212 0.0515366 0)
(0.348199 0.0322235 0)
(-0.0801955 0.0210849 0)
(-0.266621 0.0188822 0)
(-0.302765 0.0188433 0)
(-0.326971 0.0185917 0)
(-0.347885 0.0189078 0)
(-0.363327 0.0195194 0)
(-0.373943 0.0205636 0)
(-0.381725 0.0222908 0)
(-0.389836 0.0240146 0)
(-0.398241 0.023371 0)
(-0.403468 0.0214381 0)
(-0.407991 0.0181206 0)
(1.66666 0.0193633 0)
(1.66752 0.023995 0)
(1.67223 0.0102367 0)
(1.67593 0.00629469 0)
(1.67809 0.0166766 0)
(1.67584 0.0119237 0)
(1.67379 0.0187736 0)
(1.67067 0.042398 0)
(1.66513 0.0452615 0)
(1.66372 0.044836 0)
(1.6737 0.0710612 0)
(1.67528 0.0616464 0)
(1.65804 0.0408834 0)
(1.57182 0.0221818 0)
(1.34339 0.0312694 0)
(1.26823 0.0339806 0)
(1.23719 0.036701 0)
(1.22046 0.0466504 0)
(1.20442 0.0833949 0)
(1.16521 0.1366 0)
(1.10352 0.169314 0)
(1.0405 0.174597 0)
(0.979389 0.162961 0)
(0.917933 0.143738 0)
(0.855769 0.124663 0)
(0.786046 0.108114 0)
(0.670207 0.0881474 0)
(0.326022 0.0531155 0)
(-0.0890583 0.036837 0)
(-0.265683 0.0340027 0)
(-0.302123 0.0340553 0)
(-0.326395 0.0337776 0)
(-0.34698 0.0343041 0)
(-0.362115 0.035145 0)
(-0.372491 0.0364784 0)
(-0.379927 0.0388155 0)
(-0.38731 0.0413953 0)
(-0.395031 0.0409833 0)
(-0.400234 0.0387044 0)
(-0.405451 0.0332172 0)
(1.6981 0.0900231 0)
(1.69278 0.101944 0)
(1.68844 0.0992651 0)
(1.68796 0.0978608 0)
(1.68858 0.104559 0)
(1.68876 0.0929891 0)
(1.68636 0.0952896 0)
(1.68004 0.115111 0)
(1.67448 0.105667 0)
(1.67283 0.108924 0)
(1.67105 0.140345 0)
(1.66788 0.116628 0)
(1.64717 0.0706121 0)
(1.54849 0.0544622 0)
(1.32075 0.0752923 0)
(1.25866 0.0800644 0)
(1.22778 0.079846 0)
(1.21055 0.08685 0)
(1.18615 0.137693 0)
(1.13245 0.209086 0)
(1.05759 0.249033 0)
(0.990661 0.251148 0)
(0.934587 0.231309 0)
(0.8812 0.203601 0)
(0.826204 0.176061 0)
(0.759838 0.150209 0)
(0.636302 0.12023 0)
(0.293097 0.0710555 0)
(-0.100448 0.0523673 0)
(-0.263347 0.0492212 0)
(-0.300392 0.0496962 0)
(-0.32475 0.0494109 0)
(-0.345053 0.050125 0)
(-0.360114 0.051123 0)
(-0.37066 0.0526437 0)
(-0.378269 0.0551704 0)
(-0.385485 0.0580299 0)
(-0.392832 0.0576895 0)
(-0.397804 0.0555838 0)
(-0.403302 0.0482625 0)
(1.6767 0.175753 0)
(1.6769 0.172641 0)
(1.6765 0.154052 0)
(1.67269 0.14857 0)
(1.66798 0.153233 0)
(1.66692 0.140506 0)
(1.66507 0.143624 0)
(1.66073 0.156491 0)
(1.66131 0.140814 0)
(1.66673 0.141181 0)
(1.655 0.166029 0)
(1.62349 0.142469 0)
(1.59292 0.11752 0)
(1.47419 0.0988028 0)
(1.29564 0.0967906 0)
(1.24988 0.104415 0)
(1.21363 0.107358 0)
(1.17957 0.12629 0)
(1.12984 0.201008 0)
(1.05917 0.287074 0)
(0.98485 0.322471 0)
(0.930549 0.314781 0)
(0.88596 0.287913 0)
(0.841565 0.254056 0)
(0.792532 0.220303 0)
(0.726851 0.186933 0)
(0.58947 0.146533 0)
(0.253124 0.0851642 0)
(-0.112358 0.0685318 0)
(-0.261639 0.0659465 0)
(-0.300128 0.0665799 0)
(-0.324939 0.0665479 0)
(-0.34525 0.0675086 0)
(-0.360459 0.0686513 0)
(-0.371267 0.070169 0)
(-0.37898 0.0722917 0)
(-0.385931 0.0749057 0)
(-0.392908 0.074081 0)
(-0.397356 0.072385 0)
(-0.402704 0.0637556 0)
(1.6279 0.219619 0)
(1.62983 0.219539 0)
(1.63442 0.208197 0)
(1.63599 0.207721 0)
(1.63618 0.211349 0)
(1.63904 0.201415 0)
(1.6373 0.206653 0)
(1.63597 0.207381 0)
(1.64468 0.194159 0)
(1.64664 0.213523 0)
(1.60805 0.197312 0)
(1.58846 0.162862 0)
(1.54148 0.138214 0)
(1.40738 0.135977 0)
(1.29883 0.137625 0)
(1.24785 0.151804 0)
(1.19589 0.157492 0)
(1.13836 0.196701 0)
(1.06297 0.296892 0)
(0.977327 0.371698 0)
(0.912663 0.385411 0)
(0.871338 0.366347 0)
(0.836809 0.333678 0)
(0.8004 0.295457 0)
(0.755457 0.257751 0)
(0.68649 0.217504 0)
(0.529194 0.166172 0)
(0.212243 0.0975741 0)
(-0.119651 0.0837632 0)
(-0.257175 0.0828267 0)
(-0.297068 0.0832536 0)
(-0.321782 0.0831021 0)
(-0.341479 0.0843594 0)
(-0.35638 0.0859155 0)
(-0.367191 0.0877626 0)
(-0.374949 0.0894222 0)
(-0.38183 0.0916063 0)
(-0.388713 0.0896778 0)
(-0.392865 0.0882524 0)
(-0.398173 0.0787503 0)
(1.57593 0.265094 0)
(1.57645 0.262896 0)
(1.57942 0.253928 0)
(1.58087 0.254959 0)
(1.58382 0.252245 0)
(1.58783 0.249725 0)
(1.58881 0.260349 0)
(1.59248 0.256139 0)
(1.6123 0.247076 0)
(1.6099 0.251043 0)
(1.5682 0.225522 0)
(1.54071 0.189217 0)
(1.48043 0.174325 0)
(1.35617 0.168968 0)
(1.27526 0.178509 0)
(1.21821 0.201177 0)
(1.15203 0.217403 0)
(1.06825 0.29488 0)
(0.972304 0.404355 0)
(0.891563 0.447516 0)
(0.846475 0.439363 0)
(0.817568 0.410588 0)
(0.790966 0.372965 0)
(0.759625 0.330811 0)
(0.715431 0.288387 0)
(0.637415 0.241543 0)
(0.455961 0.175391 0)
(0.17384 0.09805 0)
(-0.126794 0.0956224 0)
(-0.257066 0.089937 0)
(-0.298068 0.0884355 0)
(-0.322183 0.0881965 0)
(-0.34076 0.0914135 0)
(-0.354893 0.0960307 0)
(-0.365646 0.101449 0)
(-0.37419 0.105812 0)
(-0.381942 0.108798 0)
(-0.389278 0.10552 0)
(-0.39321 0.104502 0)
(-0.398395 0.0944231 0)
(1.52049 0.305066 0)
(1.52134 0.302122 0)
(1.52309 0.298184 0)
(1.524 0.300435 0)
(1.52675 0.297301 0)
(1.52942 0.299321 0)
(1.53145 0.301855 0)
(1.53561 0.297135 0)
(1.5545 0.286555 0)
(1.53818 0.2774 0)
(1.50252 0.25545 0)
(1.46401 0.224188 0)
(1.38588 0.204781 0)
(1.29438 0.208624 0)
(1.22808 0.237203 0)
(1.15448 0.251126 0)
(1.06302 0.304417 0)
(0.960544 0.428956 0)
(0.867273 0.502972 0)
(0.813586 0.506629 0)
(0.78601 0.48278 0)
(0.766218 0.444458 0)
(0.744294 0.395255 0)
(0.7129 0.345253 0)
(0.663914 0.294988 0)
(0.571963 0.227391 0)
(0.370092 0.14876 0)
(0.141041 0.0866284 0)
(-0.139541 0.0590448 0)
(-0.259801 0.0436715 0)
(-0.296126 0.0429028 0)
(-0.316113 0.0506601 0)
(-0.332266 0.0664084 0)
(-0.347029 0.0829806 0)
(-0.358584 0.0979679 0)
(-0.367125 0.110481 0)
(-0.375541 0.120176 0)
(-0.384954 0.119971 0)
(-0.389689 0.119823 0)
(-0.395022 0.109598 0)
(1.45804 0.345883 0)
(1.45905 0.343155 0)
(1.45984 0.341603 0)
(1.46004 0.342402 0)
(1.46166 0.340588 0)
(1.46185 0.343104 0)
(1.46261 0.341818 0)
(1.46668 0.32898 0)
(1.47536 0.325598 0)
(1.44821 0.316622 0)
(1.42063 0.286832 0)
(1.37101 0.254642 0)
(1.29381 0.252891 0)
(1.2163 0.275766 0)
(1.13644 0.29128 0)
(1.04176 0.337232 0)
(0.933159 0.458363 0)
(0.830297 0.552478 0)
(0.766992 0.567102 0)
(0.741136 0.545975 0)
(0.726409 0.505483 0)
(0.708238 0.451937 0)
(0.677913 0.389749 0)
(0.637596 0.314782 0)
(0.579134 0.228277 0)
(0.467588 0.133681 0)
(0.261315 0.0203484 0)
(0.0907128 -0.0685816 0)
(-0.168457 -0.112057 0)
(-0.259012 -0.107497 0)
(-0.282782 -0.0873424 0)
(-0.294494 -0.0575957 0)
(-0.304942 -0.0197819 0)
(-0.319703 0.0195166 0)
(-0.334203 0.0578265 0)
(-0.348683 0.0914407 0)
(-0.363652 0.11635 0)
(-0.378483 0.127465 0)
(-0.386117 0.133933 0)
(-0.393609 0.125097 0)
(1.37976 0.381072 0)
(1.38091 0.378462 0)
(1.38145 0.377871 0)
(1.38148 0.379632 0)
(1.3819 0.38169 0)
(1.38141 0.385306 0)
(1.38284 0.382606 0)
(1.38308 0.376233 0)
(1.3764 0.367615 0)
(1.35247 0.34583 0)
(1.31575 0.315616 0)
(1.25306 0.302083 0)
(1.17352 0.313912 0)
(1.09125 0.338676 0)
(0.995142 0.394165 0)
(0.877845 0.488306 0)
(0.77546 0.580717 0)
(0.707553 0.615404 0)
(0.676168 0.603836 0)
(0.657501 0.554401 0)
(0.639423 0.47153 0)
(0.610414 0.370625 0)
(0.582065 0.26121 0)
(0.54223 0.155885 0)
(0.476526 0.0509288 0)
(0.355212 -0.0780367 0)
(0.198349 -0.177564 0)
(0.0380572 -0.231333 0)
(-0.164279 -0.23895 0)
(-0.238303 -0.21046 0)
(-0.258832 -0.175185 0)
(-0.263185 -0.136055 0)
(-0.268975 -0.0941155 0)
(-0.280357 -0.0507756 0)
(-0.292441 -0.00512353 0)
(-0.311162 0.0422016 0)
(-0.33072 0.0887948 0)
(-0.355843 0.122652 0)
(-0.374081 0.141961 0)
(-0.388533 0.140324 0)
(1.27923 0.412806 0)
(1.28007 0.412165 0)
(1.28035 0.414323 0)
(1.28128 0.417489 0)
(1.28331 0.41958 0)
(1.28583 0.415962 0)
(1.28602 0.40541 0)
(1.27492 0.396299 0)
(1.24979 0.387291 0)
(1.21734 0.371149 0)
(1.17226 0.367206 0)
(1.10864 0.395964 0)
(1.02789 0.425665 0)
(0.930905 0.428997 0)
(0.792116 0.495729 0)
(0.693466 0.624318 0)
(0.610004 0.667789 0)
(0.576354 0.623189 0)
(0.559701 0.530887 0)
(0.54705 0.415795 0)
(0.534172 0.298352 0)
(0.520725 0.193267 0)
(0.496031 0.103979 0)
(0.457013 0.0103349 0)
(0.380893 -0.105214 0)
(0.25202 -0.210005 0)
(0.159999 -0.260346 0)
(0.0271943 -0.282211 0)
(-0.136907 -0.271739 0)
(-0.206001 -0.243063 0)
(-0.227775 -0.207069 0)
(-0.232828 -0.166554 0)
(-0.231902 -0.125961 0)
(-0.244066 -0.0852942 0)
(-0.251133 -0.0422772 0)
(-0.266817 0.00286141 0)
(-0.285126 0.0530009 0)
(-0.317313 0.101255 0)
(-0.346494 0.140488 0)
(-0.376785 0.156517 0)
(1.1496 0.436723 0)
(1.14951 0.438607 0)
(1.15084 0.443834 0)
(1.15611 0.449967 0)
(1.16131 0.455402 0)
(1.16291 0.459151 0)
(1.15414 0.465253 0)
(1.13468 0.467221 0)
(1.10848 0.459542 0)
(1.07374 0.439282 0)
(1.01745 0.412273 0)
(0.931061 0.412928 0)
(0.820223 0.464499 0)
(0.681902 0.57497 0)
(0.546707 0.65805 0)
(0.474477 0.623511 0)
(0.448178 0.539451 0)
(0.452343 0.435035 0)
(0.461428 0.328496 0)
(0.465482 0.237678 0)
(0.452363 0.165525 0)
(0.444461 0.0846408 0)
(0.430672 -0.00918726 0)
(0.372462 -0.0961028 0)
(0.270737 -0.188996 0)
(0.177157 -0.266379 0)
(0.143775 -0.290884 0)
(0.0361065 -0.294059 0)
(-0.103347 -0.275967 0)
(-0.168449 -0.247601 0)
(-0.189944 -0.212215 0)
(-0.198232 -0.171326 0)
(-0.194538 -0.129268 0)
(-0.205238 -0.0877306 0)
(-0.209971 -0.0453892 0)
(-0.220564 -0.00274285 0)
(-0.237179 0.0425061 0)
(-0.266251 0.0906329 0)
(-0.300249 0.139302 0)
(-0.344024 0.164614 0)
(0.970736 0.479384 0)
(0.975832 0.481027 0)
(0.98415 0.479298 0)
(0.997749 0.470335 0)
(1.00488 0.460556 0)
(1.00183 0.452905 0)
(0.989774 0.442133 0)
(0.967501 0.430236 0)
(0.929189 0.425541 0)
(0.863717 0.442108 0)
(0.756501 0.488975 0)
(0.623052 0.543194 0)
(0.468766 0.554727 0)
(0.359089 0.539394 0)
(0.330193 0.482629 0)
(0.344474 0.415376 0)
(0.360791 0.338338 0)
(0.381138 0.280566 0)
(0.382414 0.221478 0)
(0.396214 0.149075 0)
(0.405363 0.0668748 0)
(0.382724 -0.000302901 0)
(0.337378 -0.0648632 0)
(0.264068 -0.160225 0)
(0.181196 -0.256685 0)
(0.144949 -0.297805 0)
(0.137425 -0.307452 0)
(0.054766 -0.301212 0)
(-0.0664955 -0.275416 0)
(-0.129284 -0.243133 0)
(-0.149485 -0.212371 0)
(-0.16024 -0.175475 0)
(-0.156251 -0.134929 0)
(-0.165817 -0.0924887 0)
(-0.169106 -0.046462 0)
(-0.178119 0.00303958 0)
(-0.191083 0.0568852 0)
(-0.216137 0.108308 0)
(-0.243104 0.151434 0)
(-0.285688 0.166885 0)
(0.744783 0.474961 0)
(0.757673 0.460776 0)
(0.749018 0.437167 0)
(0.729457 0.415147 0)
(0.713962 0.391529 0)
(0.690227 0.370166 0)
(0.653333 0.352665 0)
(0.600284 0.334596 0)
(0.529607 0.327901 0)
(0.444696 0.346037 0)
(0.357003 0.375133 0)
(0.282747 0.38509 0)
(0.238265 0.371641 0)
(0.23046 0.360758 0)
(0.246796 0.335139 0)
(0.278168 0.303996 0)
(0.298936 0.257976 0)
(0.326787 0.198861 0)
(0.343325 0.135251 0)
(0.341115 0.07488 0)
(0.326487 0.0188313 0)
(0.295449 -0.0515152 0)
(0.239231 -0.149067 0)
(0.171718 -0.248873 0)
(0.137635 -0.29804 0)
(0.135231 -0.31592 0)
(0.133828 -0.319853 0)
(0.0764536 -0.31093 0)
(-0.0285384 -0.282665 0)
(-0.0907352 -0.247612 0)
(-0.109414 -0.208885 0)
(-0.120429 -0.172091 0)
(-0.114352 -0.130768 0)
(-0.123068 -0.0855887 0)
(-0.123073 -0.0371509 0)
(-0.132597 0.0141753 0)
(-0.137482 0.0703533 0)
(-0.160017 0.122996 0)
(-0.176687 0.160958 0)
(-0.21265 0.173229 0)
(0.442753 0.464572 0)
(0.428139 0.43512 0)
(0.40097 0.390574 0)
(0.367969 0.347575 0)
(0.332279 0.31384 0)
(0.295751 0.286673 0)
(0.259648 0.26677 0)
(0.22418 0.25355 0)
(0.191724 0.252384 0)
(0.169933 0.265472 0)
(0.157992 0.280108 0)
(0.156981 0.287911 0)
(0.166815 0.291344 0)
(0.185204 0.286287 0)
(0.211088 0.265563 0)
(0.238846 0.228644 0)
(0.263939 0.178845 0)
(0.276979 0.127404 0)
(0.279199 0.0758455 0)
(0.267704 0.0198777 0)
(0.248427 -0.053789 0)
(0.208945 -0.14863 0)
(0.151273 -0.243898 0)
(0.121184 -0.298404 0)
(0.122661 -0.319019 0)
(0.12922 -0.327801 0)
(0.132318 -0.330454 0)
(0.096505 -0.323338 0)
(0.00977598 -0.293631 0)
(-0.0516962 -0.255976 0)
(-0.071671 -0.219385 0)
(-0.0800437 -0.180252 0)
(-0.0704879 -0.137365 0)
(-0.0772933 -0.0909625 0)
(-0.0730305 -0.0397075 0)
(-0.0822696 0.0170818 0)
(-0.0795351 0.0826699 0)
(-0.0986003 0.144147 0)
(-0.106855 0.183587 0)
(-0.134357 0.19451 0)
(0.104946 0.443868 0)
(0.105792 0.406326 0)
(0.0854789 0.362152 0)
(0.0654529 0.322573 0)
(0.044568 0.295164 0)
(0.0317771 0.278729 0)
(0.0296201 0.272187 0)
(0.038105 0.269313 0)
(0.0549634 0.263662 0)
(0.0762287 0.257891 0)
(0.0991068 0.252596 0)
(0.119489 0.247119 0)
(0.141649 0.244713 0)
(0.162778 0.227352 0)
(0.18455 0.19544 0)
(0.197975 0.15959 0)
(0.208416 0.118891 0)
(0.212485 0.0671873 0)
(0.21329 0.00427655 0)
(0.201691 -0.0688349 0)
(0.169063 -0.153924 0)
(0.124224 -0.241626 0)
(0.0985685 -0.296294 0)
(0.101902 -0.320528 0)
(0.114342 -0.329389 0)
(0.125028 -0.338144 0)
(0.131663 -0.339979 0)
(0.113285 -0.335271 0)
(0.0490702 -0.306462 0)
(-0.0107409 -0.264676 0)
(-0.0317482 -0.221801 0)
(-0.036839 -0.181563 0)
(-0.0254882 -0.136357 0)
(-0.0281726 -0.086245 0)
(-0.0210141 -0.0341395 0)
(-0.029032 0.0249684 0)
(-0.0186544 0.0894339 0)
(-0.0293086 0.149221 0)
(-0.0318468 0.186129 0)
(-0.053807 0.197736 0)
(-0.125475 0.446605 0)
(-0.0994723 0.421016 0)
(-0.0957566 0.384479 0)
(-0.08689 0.354622 0)
(-0.0800006 0.33141 0)
(-0.0668078 0.312894 0)
(-0.0468521 0.296641 0)
(-0.0191337 0.279086 0)
(0.0155122 0.25831 0)
(0.055531 0.240398 0)
(0.0926076 0.225431 0)
(0.116526 0.208283 0)
(0.132242 0.189389 0)
(0.141434 0.163667 0)
(0.146502 0.133721 0)
(0.151865 0.0931723 0)
(0.157448 0.0423517 0)
(0.157461 -0.0173093 0)
(0.147063 -0.0868291 0)
(0.121087 -0.167767 0)
(0.088022 -0.246816 0)
(0.0720516 -0.29448 0)
(0.0778803 -0.31726 0)
(0.0910715 -0.33116 0)
(0.107377 -0.337761 0)
(0.120288 -0.346686 0)
(0.130034 -0.348451 0)
(0.125239 -0.346392 0)
(0.0865171 -0.323388 0)
(0.0326653 -0.28293 0)
(0.00897464 -0.236266 0)
(0.00934357 -0.191889 0)
(0.0215617 -0.145577 0)
(0.0274414 -0.0947886 0)
(0.0366402 -0.0399658 0)
(0.0308508 0.0211093 0)
(0.042526 0.0906899 0)
(0.0392546 0.160729 0)
(0.0400907 0.206754 0)
(0.020044 0.220936 0)
(-0.214083 0.459039 0)
(-0.181035 0.42994 0)
(-0.169505 0.3978 0)
(-0.146978 0.377112 0)
(-0.127139 0.352701 0)
(-0.102366 0.329785 0)
(-0.0747937 0.304869 0)
(-0.0427514 0.277444 0)
(-0.00533968 0.249039 0)
(0.0372281 0.223907 0)
(0.0733375 0.200536 0)
(0.0912138 0.177164 0)
(0.0983779 0.152067 0)
(0.098886 0.117551 0)
(0.100296 0.0710301 0)
(0.102581 0.0159863 0)
(0.102575 -0.0452714 0)
(0.0923648 -0.113555 0)
(0.0706722 -0.189325 0)
(0.0467593 -0.256353 0)
(0.0403751 -0.295488 0)
(0.0504958 -0.317289 0)
(0.0674197 -0.331028 0)
(0.084469 -0.340938 0)
(0.101822 -0.346334 0)
(0.116183 -0.355203 0)
(0.128857 -0.35753 0)
(0.133773 -0.356148 0)
(0.117454 -0.338787 0)
(0.0784725 -0.302522 0)
(0.0531904 -0.254803 0)
(0.0583986 -0.208581 0)
(0.0731898 -0.156702 0)
(0.090397 -0.0983405 0)
(0.0987093 -0.0347804 0)
(0.0999815 0.0293884 0)
(0.106749 0.0957805 0)
(0.110282 0.164516 0)
(0.112636 0.215357 0)
(0.0872368 0.229804 0)
(-0.215203 0.471434 0)
(-0.200513 0.452159 0)
(-0.193501 0.429462 0)
(-0.174518 0.410084 0)
(-0.151157 0.387948 0)
(-0.124583 0.363095 0)
(-0.0980439 0.336303 0)
(-0.0692759 0.306341 0)
(-0.0345118 0.275901 0)
(0.00353891 0.24315 0)
(0.0340372 0.203373 0)
(0.0509346 0.157479 0)
(0.0610927 0.107142 0)
(0.057865 0.0510522 0)
(0.0531645 -0.011589 0)
(0.049216 -0.0773711 0)
(0.0415302 -0.14603 0)
(0.0254439 -0.21319 0)
(0.0104872 -0.266541 0)
(0.0108656 -0.298695 0)
(0.0228739 -0.320764 0)
(0.0413872 -0.333959 0)
(0.0608253 -0.342852 0)
(0.0784377 -0.351284 0)
(0.0953019 -0.355473 0)
(0.109438 -0.363332 0)
(0.122887 -0.366043 0)
(0.13398 -0.366666 0)
(0.13391 -0.35782 0)
(0.119305 -0.3297 0)
(0.100061 -0.283734 0)
(0.107034 -0.232093 0)
(0.123881 -0.178282 0)
(0.147487 -0.118154 0)
(0.1545 -0.0475741 0)
(0.167046 0.0229469 0)
(0.171593 0.0967108 0)
(0.181078 0.171293 0)
(0.188028 0.23115 0)
(0.149041 0.257838 0)
(-0.218914 0.499244 0)
(-0.231817 0.480439 0)
(-0.221901 0.451563 0)
(-0.197219 0.433212 0)
(-0.176356 0.409376 0)
(-0.153483 0.387879 0)
(-0.130952 0.364087 0)
(-0.10584 0.335963 0)
(-0.074888 0.303507 0)
(-0.0418195 0.263794 0)
(-0.0180487 0.215211 0)
(-0.0117811 0.149 0)
(-0.00882393 0.0702938 0)
(-0.0154156 -0.013303 0)
(-0.0180566 -0.0943428 0)
(-0.0177531 -0.167119 0)
(-0.0178586 -0.229172 0)
(-0.0173506 -0.275094 0)
(-0.0106723 -0.302873 0)
(0.00231007 -0.321732 0)
(0.0188689 -0.334375 0)
(0.0374167 -0.344166 0)
(0.0561196 -0.352216 0)
(0.0728364 -0.359542 0)
(0.0892946 -0.362489 0)
(0.104212 -0.368973 0)
(0.119217 -0.370955 0)
(0.133607 -0.373261 0)
(0.144355 -0.368109 0)
(0.147629 -0.352421 0)
(0.144106 -0.315831 0)
(0.151915 -0.261943 0)
(0.161302 -0.198121 0)
(0.184294 -0.128277 0)
(0.188554 -0.0519895 0)
(0.209928 0.0222965 0)
(0.218235 0.0971376 0)
(0.237166 0.174514 0)
(0.255904 0.24546 0)
(0.230729 0.282475 0)
(-0.270721 0.494735 0)
(-0.286239 0.449539 0)
(-0.246736 0.432882 0)
(-0.21145 0.430947 0)
(-0.192933 0.434341 0)
(-0.172351 0.430486 0)
(-0.149357 0.428079 0)
(-0.120479 0.415035 0)
(-0.0881812 0.387931 0)
(-0.0644031 0.331726 0)
(-0.0477455 0.237205 0)
(-0.0445214 0.12133 0)
(-0.0501864 -0.00100015 0)
(-0.0544557 -0.109122 0)
(-0.0521098 -0.191899 0)
(-0.0478519 -0.2518 0)
(-0.0398813 -0.290744 0)
(-0.0262665 -0.31332 0)
(-0.0108013 -0.327055 0)
(0.00515136 -0.335345 0)
(0.020233 -0.344778 0)
(0.035017 -0.354287 0)
(0.0497586 -0.361832 0)
(0.0639812 -0.367982 0)
(0.0787503 -0.369925 0)
(0.0929183 -0.375128 0)
(0.107969 -0.376488 0)
(0.12293 -0.379011 0)
(0.138229 -0.378038 0)
(0.154361 -0.374163 0)
(0.167513 -0.352478 0)
(0.170246 -0.304479 0)
(0.173949 -0.235165 0)
(0.194468 -0.156146 0)
(0.198569 -0.0738816 0)
(0.2238 0.00262745 0)
(0.230972 0.0728194 0)
(0.261009 0.135342 0)
(0.289235 0.220935 0)
(0.260633 0.253754 0)
(-0.270721 -0.494735 0)
(-0.286239 -0.449539 0)
(-0.246736 -0.432882 0)
(-0.21145 -0.430947 0)
(-0.192933 -0.434341 0)
(-0.172351 -0.430486 0)
(-0.149357 -0.428079 0)
(-0.120479 -0.415035 0)
(-0.0881812 -0.387931 0)
(-0.0644031 -0.331726 0)
(-0.0477455 -0.237205 0)
(-0.0445214 -0.12133 0)
(-0.0501864 0.00100015 0)
(-0.0544557 0.109122 0)
(-0.0521098 0.191899 0)
(-0.0478519 0.2518 0)
(-0.0398813 0.290744 0)
(-0.0262665 0.31332 0)
(-0.0108013 0.327055 0)
(0.00515136 0.335345 0)
(0.020233 0.344778 0)
(0.035017 0.354287 0)
(0.0497586 0.361832 0)
(0.0639812 0.367982 0)
(0.0787503 0.369925 0)
(0.0929183 0.375128 0)
(0.107969 0.376488 0)
(0.12293 0.379011 0)
(0.138229 0.378038 0)
(0.154361 0.374163 0)
(0.167513 0.352478 0)
(0.170246 0.304479 0)
(0.173949 0.235165 0)
(0.194468 0.156146 0)
(0.198569 0.0738816 0)
(0.2238 -0.00262745 0)
(0.230972 -0.0728194 0)
(0.261009 -0.135342 0)
(0.289235 -0.220935 0)
(0.260633 -0.253754 0)
(-0.218914 -0.499244 0)
(-0.231817 -0.480439 0)
(-0.221901 -0.451563 0)
(-0.197219 -0.433212 0)
(-0.176356 -0.409376 0)
(-0.153483 -0.387879 0)
(-0.130952 -0.364087 0)
(-0.10584 -0.335963 0)
(-0.074888 -0.303507 0)
(-0.0418195 -0.263794 0)
(-0.0180487 -0.215211 0)
(-0.0117811 -0.149 0)
(-0.00882393 -0.0702938 0)
(-0.0154156 0.013303 0)
(-0.0180566 0.0943428 0)
(-0.0177531 0.167119 0)
(-0.0178586 0.229172 0)
(-0.0173506 0.275094 0)
(-0.0106723 0.302873 0)
(0.00231007 0.321732 0)
(0.0188689 0.334375 0)
(0.0374167 0.344166 0)
(0.0561196 0.352216 0)
(0.0728364 0.359542 0)
(0.0892946 0.362489 0)
(0.104212 0.368973 0)
(0.119217 0.370955 0)
(0.133607 0.373261 0)
(0.144355 0.368109 0)
(0.147629 0.352421 0)
(0.144106 0.315831 0)
(0.151915 0.261943 0)
(0.161302 0.198121 0)
(0.184294 0.128277 0)
(0.188554 0.0519895 0)
(0.209928 -0.0222965 0)
(0.218235 -0.0971376 0)
(0.237166 -0.174514 0)
(0.255904 -0.24546 0)
(0.230729 -0.282475 0)
(-0.215203 -0.471434 0)
(-0.200513 -0.452159 0)
(-0.193501 -0.429462 0)
(-0.174518 -0.410084 0)
(-0.151157 -0.387948 0)
(-0.124583 -0.363095 0)
(-0.0980439 -0.336303 0)
(-0.0692759 -0.306341 0)
(-0.0345118 -0.275901 0)
(0.00353891 -0.24315 0)
(0.0340372 -0.203373 0)
(0.0509346 -0.157479 0)
(0.0610927 -0.107142 0)
(0.057865 -0.0510522 0)
(0.0531645 0.011589 0)
(0.049216 0.0773711 0)
(0.0415302 0.14603 0)
(0.0254439 0.21319 0)
(0.0104872 0.266541 0)
(0.0108656 0.298695 0)
(0.0228739 0.320764 0)
(0.0413872 0.333959 0)
(0.0608253 0.342852 0)
(0.0784377 0.351284 0)
(0.0953019 0.355473 0)
(0.109438 0.363332 0)
(0.122887 0.366043 0)
(0.13398 0.366666 0)
(0.13391 0.35782 0)
(0.119305 0.3297 0)
(0.100061 0.283734 0)
(0.107034 0.232093 0)
(0.123881 0.178282 0)
(0.147487 0.118154 0)
(0.1545 0.0475741 0)
(0.167046 -0.0229469 0)
(0.171593 -0.0967108 0)
(0.181078 -0.171293 0)
(0.188028 -0.23115 0)
(0.149041 -0.257838 0)
(-0.214083 -0.459039 0)
(-0.181035 -0.42994 0)
(-0.169505 -0.3978 0)
(-0.146978 -0.377112 0)
(-0.127139 -0.352701 0)
(-0.102366 -0.329785 0)
(-0.0747937 -0.304869 0)
(-0.0427514 -0.277444 0)
(-0.00533968 -0.249039 0)
(0.0372281 -0.223907 0)
(0.0733375 -0.200536 0)
(0.0912138 -0.177164 0)
(0.0983779 -0.152067 0)
(0.098886 -0.117551 0)
(0.100296 -0.0710301 0)
(0.102581 -0.0159863 0)
(0.102575 0.0452714 0)
(0.0923648 0.113555 0)
(0.0706722 0.189325 0)
(0.0467593 0.256353 0)
(0.0403751 0.295488 0)
(0.0504958 0.317289 0)
(0.0674197 0.331028 0)
(0.084469 0.340938 0)
(0.101822 0.346334 0)
(0.116183 0.355203 0)
(0.128857 0.35753 0)
(0.133773 0.356148 0)
(0.117454 0.338787 0)
(0.0784725 0.302522 0)
(0.0531904 0.254803 0)
(0.0583986 0.208581 0)
(0.0731898 0.156702 0)
(0.090397 0.0983405 0)
(0.0987093 0.0347804 0)
(0.0999815 -0.0293884 0)
(0.106749 -0.0957805 0)
(0.110282 -0.164516 0)
(0.112636 -0.215357 0)
(0.0872368 -0.229804 0)
(-0.125475 -0.446605 0)
(-0.0994723 -0.421016 0)
(-0.0957566 -0.384479 0)
(-0.08689 -0.354622 0)
(-0.0800006 -0.33141 0)
(-0.0668078 -0.312894 0)
(-0.0468521 -0.296641 0)