/*--------------------------------*- C++ -*----------------------------------*\
| =========                 |                                                 |
| \\      /  F ield         | OpenFOAM: The Open Source CFD Toolbox           |
|  \\    /   O peration     | Version:  v1912                                 |
|   \\  /    A nd           | Website:  www.openfoam.com                      |
|    \\/     M anipulation  |                                                 |
\*---------------------------------------------------------------------------*/
FoamFile
{
    version     2.0;
    format      ascii;
    class       volVectorField;
    location    "3.9";
    object      U;
}
// * * * * * * * * * * * * * * * * * * * * * * * * * * * * * * * * * * * * * //

dimensions      [0 1 -1 0 0 0 0];


internalField   nonuniform List<vector> 
1900
(
(-0.7224 1.29939e-06 0)
(-0.107932 2.69489e-06 0)
(-0.0923695 7.97748e-06 0)
(-0.0947448 1.54448e-05 0)
(-0.0922995 0.000132614 0)
(-0.0855315 0.000306407 0)
(-0.0773232 0.000668447 0)
(-0.067803 0.0011884 0)
(-0.0577701 -0.00265861 0)
(-0.0412588 -0.00794745 0)
(-0.722407 1.49992e-06 0)
(-0.107948 3.04995e-06 0)
(-0.0923918 -5.26667e-06 0)
(-0.0947663 2.71745e-06 0)
(-0.0922478 9.7438e-05 0)
(-0.085213 0.000287502 0)
(-0.0764503 0.000661296 0)
(-0.0657295 0.00110289 0)
(-0.0551238 -0.0017295 0)
(-0.0432681 -0.00417051 0)
(-0.722409 -1.38625e-14 0)
(-0.107955 1.641e-14 0)
(-0.0923919 -6.11266e-15 0)
(-0.0947452 -4.14508e-15 0)
(-0.0921301 -5.61667e-17 0)
(-0.0848893 7.1485e-15 0)
(-0.0758628 -8.54312e-17 0)
(-0.0649416 6.64235e-16 0)
(-0.0554704 -2.5442e-14 0)
(-0.0466801 -1.88209e-14 0)
(-0.722407 -1.49992e-06 0)
(-0.107948 -3.04995e-06 0)
(-0.0923918 5.26667e-06 0)
(-0.0947663 -2.71745e-06 0)
(-0.0922478 -9.7438e-05 0)
(-0.085213 -0.000287502 0)
(-0.0764503 -0.000661296 0)
(-0.0657295 -0.00110289 0)
(-0.0551238 0.0017295 0)
(-0.0432681 0.00417051 0)
(-0.7224 -1.29939e-06 0)
(-0.107932 -2.69489e-06 0)
(-0.0923695 -7.97748e-06 0)
(-0.0947448 -1.54448e-05 0)
(-0.0922995 -0.000132614 0)
(-0.0855315 -0.000306407 0)
(-0.0773232 -0.000668447 0)
(-0.067803 -0.0011884 0)
(-0.0577701 0.00265861 0)
(-0.0412588 0.00794745 0)
(-0.0338025 -0.0199283 0)
(-0.0354311 -0.0223552 0)
(-0.0349194 -0.0240173 0)
(-0.0361031 -0.0285056 0)
(-0.075986 -0.0279186 0)
(-0.0399778 -0.0110384 0)
(-0.041284 -0.0130403 0)
(-0.0441936 -0.0160459 0)
(-0.0574702 -0.020763 0)
(-0.0992405 -0.0194763 0)
(-0.0436162 -1.12663e-14 0)
(-0.0458887 -1.05219e-14 0)
(-0.0524839 1.51524e-14 0)
(-0.0701034 -6.5328e-15 0)
(-0.10778 3.67899e-15 0)
(-0.0399778 0.0110384 0)
(-0.041284 0.0130403 0)
(-0.0441936 0.0160459 0)
(-0.0574702 0.020763 0)
(-0.0992405 0.0194763 0)
(-0.0338025 0.0199283 0)
(-0.0354311 0.0223552 0)
(-0.0349194 0.0240173 0)
(-0.0361031 0.0285056 0)
(-0.075986 0.0279186 0)
(-0.103926 0.0048512 0)
(-0.0500535 0.00507588 0)
(-0.0219457 0.00489192 0)
(0.00372798 0.0179078 0)
(-0.00348774 0.0377117 0)
(-0.108649 0.00545937 0)
(-0.0563535 0.00387647 0)
(-0.0256362 0.00288247 0)
(0.0225703 0.0147056 0)
(0.0934157 0.0539837 0)
(-0.112531 1.52602e-14 0)
(-0.0599739 4.86382e-14 0)
(-0.0265929 4.23097e-14 0)
(0.0346667 5.03462e-14 0)
(0.140795 -1.96511e-14 0)
(-0.108649 -0.00545937 0)
(-0.0563535 -0.00387647 0)
(-0.0256362 -0.00288247 0)
(0.0225703 -0.0147056 0)
(0.0934157 -0.0539837 0)
(-0.103926 -0.0048512 0)
(-0.0500535 -0.00507588 0)
(-0.0219457 -0.00489192 0)
(0.00372798 -0.0179078 0)
(-0.00348774 -0.0377117 0)
(-0.134812 0.00551385 0)
(0.151839 -0.151263 0)
(0.0594165 -0.203513 0)
(-0.118373 -0.160257 0)
(-0.228168 -0.0823216 0)
(-0.296612 -0.0451479 0)
(-0.346618 -0.0349089 0)
(-0.379588 -0.0317389 0)
(-0.381848 -0.0294002 0)
(-0.368924 -0.0283475 0)
(-0.348284 -0.0277141 0)
(-0.321758 -0.0273835 0)
(-0.290955 -0.0271189 0)
(-0.256779 -0.0269439 0)
(-0.220135 -0.0268104 0)
(-0.181594 -0.0267021 0)
(-0.141525 -0.02661 0)
(-0.100251 -0.0265362 0)
(-0.0579526 -0.0264583 0)
(-0.0150367 -0.0265528 0)
(0.0282854 -0.0265118 0)
(0.0720905 -0.026376 0)
(0.11611 -0.0264034 0)
(0.160055 -0.0264157 0)
(0.203864 -0.0264331 0)
(0.247295 -0.026453 0)
(0.290063 -0.0264783 0)
(0.331794 -0.0265082 0)
(0.372068 -0.0265478 0)
(0.410477 -0.0265771 0)
(0.446576 -0.0266519 0)
(0.479825 -0.0265784 0)
(0.509327 -0.0267743 0)
(0.533941 -0.0263717 0)
(0.553434 -0.0268971 0)
(0.567878 -0.0262467 0)
(0.580424 -0.027104 0)
(0.588797 -0.0265025 0)
(0.579047 -0.0292778 0)
(1.19059 -0.0307276 0)
(0.25115 0.0532874 0)
(0.439732 -0.0903961 0)
(0.239725 -0.132723 0)
(-0.0514378 -0.0942362 0)
(-0.218077 -0.043368 0)
(-0.296883 -0.0224103 0)
(-0.347196 -0.0172395 0)
(-0.380735 -0.015853 0)
(-0.38288 -0.0146129 0)
(-0.369989 -0.0141653 0)
(-0.349295 -0.0138389 0)
(-0.322681 -0.0136756 0)
(-0.291788 -0.0135447 0)
(-0.25751 -0.0134577 0)
(-0.220756 -0.013391 0)
(-0.182102 -0.0133367 0)
(-0.141919 -0.0132905 0)
(-0.10053 -0.0132536 0)
(-0.0581174 -0.0132147 0)
(-0.0150876 -0.0132621 0)
(0.0283484 -0.0132418 0)
(0.0722667 -0.0131743 0)
(0.116398 -0.0131885 0)
(0.160452 -0.0131953 0)
(0.204368 -0.0132047 0)
(0.247902 -0.0132155 0)
(0.290769 -0.0132289 0)
(0.332594 -0.0132443 0)
(0.372956 -0.0132641 0)
(0.411446 -0.0132778 0)
(0.447617 -0.0133122 0)
(0.48093 -0.0132699 0)
(0.510462 -0.0133555 0)
(0.535111 -0.0131441 0)
(0.554556 -0.013378 0)
(0.568949 -0.0130412 0)
(0.581477 -0.0134339 0)
(0.589702 -0.013131 0)
(0.580362 -0.0147011 0)
(1.19047 -0.0127876 0)
(0.353554 -8.13006e-14 0)
(0.526483 -1.49627e-13 0)
(0.319407 -5.27558e-14 0)
(-0.0191592 1.39091e-13 0)
(-0.2151 -4.20853e-13 0)
(-0.299892 -1.08715e-12 0)
(-0.349412 -1.75546e-12 0)
(-0.382692 -2.7514e-12 0)
(-0.38421 -4.3316e-12 0)
(-0.371078 -1.8238e-12 0)
(-0.350215 -2.18751e-13 0)
(-0.323432 9.07043e-14 0)
(-0.292397 -4.31408e-13 0)
(-0.257997 -7.13487e-13 0)
(-0.22114 1.24216e-12 0)
(-0.182397 7.60698e-12 0)
(-0.142136 1.48597e-11 0)
(-0.100678 9.57922e-12 0)
(-0.0582015 -1.32634e-11 0)
(-0.0151117 -1.62455e-11 0)
(0.028383 2.70456e-12 0)
(0.0723608 1.68451e-11 0)
(0.116555 -9.3316e-12 0)
(0.160677 -3.5805e-11 0)
(0.204667 -2.57507e-11 0)
(0.248286 -1.38295e-13 0)
(0.29125 1.53969e-11 0)
(0.33319 1.75751e-11 0)
(0.37369 7.68179e-12 0)
(0.412347 7.00824e-12 0)
(0.448723 2.00799e-13 0)
(0.482292 7.35028e-12 0)
(0.512143 4.30067e-12 0)
(0.537155 -2.77917e-12 0)
(0.557091 2.0357e-11 0)
(0.571934 -1.39702e-12 0)
(0.585061 -1.48898e-11 0)
(0.593604 -3.87063e-12 0)
(0.583871 1.42457e-11 0)
(1.19597 4.93718e-12 0)
(0.25115 -0.0532874 0)
(0.439732 0.0903961 0)
(0.239725 0.132723 0)
(-0.0514378 0.0942362 0)
(-0.218077 0.043368 0)
(-0.296883 0.0224103 0)
(-0.347196 0.0172395 0)
(-0.380735 0.015853 0)
(-0.38288 0.0146129 0)
(-0.369989 0.0141653 0)
(-0.349295 0.0138389 0)
(-0.322681 0.0136756 0)
(-0.291788 0.0135447 0)
(-0.25751 0.0134577 0)
(-0.220756 0.013391 0)
(-0.182102 0.0133367 0)
(-0.141919 0.0132905 0)
(-0.10053 0.0132536 0)
(-0.0581174 0.0132147 0)
(-0.0150876 0.0132621 0)
(0.0283484 0.0132418 0)
(0.0722667 0.0131743 0)
(0.116398 0.0131885 0)
(0.160452 0.0131953 0)
(0.204368 0.0132047 0)
(0.247902 0.0132155 0)
(0.290769 0.0132289 0)
(0.332594 0.0132443 0)
(0.372956 0.0132641 0)
(0.411446 0.0132778 0)
(0.447617 0.0133122 0)
(0.48093 0.0132699 0)
(0.510462 0.0133555 0)
(0.535111 0.0131441 0)
(0.554556 0.013378 0)
(0.568949 0.0130412 0)
(0.581477 0.0134339 0)
(0.589702 0.013131 0)
(0.580362 0.0147011 0)
(1.19047 0.0127876 0)
(-0.134812 -0.00551385 0)
(0.151839 0.151263 0)
(0.0594165 0.203513 0)
(-0.118373 0.160257 0)
(-0.228168 0.0823216 0)
(-0.296612 0.0451479 0)
(-0.346618 0.0349089 0)
(-0.379588 0.0317389 0)
(-0.381848 0.0294002 0)
(-0.368924 0.0283475 0)
(-0.348284 0.0277141 0)
(-0.321758 0.0273835 0)
(-0.290955 0.0271189 0)
(-0.256779 0.0269439 0)
(-0.220135 0.0268104 0)
(-0.181594 0.0267021 0)
(-0.141525 0.02661 0)
(-0.100251 0.0265362 0)
(-0.0579526 0.0264583 0)
(-0.0150367 0.0265528 0)
(0.0282854 0.0265118 0)
(0.0720905 0.026376 0)
(0.11611 0.0264034 0)
(0.160055 0.0264157 0)
(0.203864 0.0264331 0)
(0.247295 0.026453 0)
(0.290063 0.0264783 0)
(0.331794 0.0265082 0)
(0.372068 0.0265478 0)
(0.410477 0.0265771 0)
(0.446576 0.0266519 0)
(0.479825 0.0265784 0)
(0.509327 0.0267743 0)
(0.533941 0.0263717 0)
(0.553434 0.0268971 0)
(0.567878 0.0262467 0)
(0.580424 0.027104 0)
(0.588797 0.0265025 0)
(0.579047 0.0292778 0)
(1.19059 0.0307276 0)
(-0.868548 -0.0486028 0)
(-0.252671 0.164869 0)
(-0.204526 0.275694 0)
(-0.223241 0.232647 0)
(-0.263847 0.143927 0)
(-0.310178 0.0910889 0)
(-0.355711 0.0724239 0)
(-0.38451 0.0654014 0)
(-0.385366 0.0609806 0)
(-0.371465 0.058803 0)
(-0.350395 0.057612 0)
(-0.32354 0.0569059 0)
(-0.292435 0.0563624 0)
(-0.258018 0.0559991 0)
(-0.221167 0.0557151 0)
(-0.182434 0.0554833 0)
(-0.142178 0.0552867 0)
(-0.100718 0.0551296 0)
(-0.0582367 0.0549661 0)
(-0.0151428 0.055163 0)
(0.0283523 0.0550784 0)
(0.0723273 0.0547965 0)
(0.116517 0.054855 0)
(0.160629 0.0548829 0)
(0.204606 0.054922 0)
(0.248207 0.0549668 0)
(0.291149 0.0550227 0)
(0.333059 0.0550873 0)
(0.37352 0.0551722 0)
(0.412124 0.0552287 0)
(0.448424 0.0553921 0)
(0.481864 0.0552142 0)
(0.511622 0.0556266 0)
(0.536407 0.0547865 0)
(0.556341 0.055753 0)
(0.571113 0.0545366 0)
(0.584082 0.0560868 0)
(0.593239 0.0547334 0)
(0.58239 0.0633208 0)
(1.19728 0.0612848 0)
(-1.10352 0.0257765 0)
(-0.515073 0.280298 0)
(-0.405041 0.343588 0)
(-0.325088 0.292669 0)
(-0.327379 0.20774 0)
(-0.339638 0.154041 0)
(-0.372881 0.127941 0)
(-0.39211 0.115441 0)
(-0.388351 0.108611 0)
(-0.373321 0.105166 0)
(-0.351693 0.103247 0)
(-0.324473 0.101977 0)
(-0.293085 0.101053 0)
(-0.258511 0.100421 0)
(-0.221566 0.099913 0)
(-0.182761 0.0994977 0)
(-0.142441 0.0991467 0)
(-0.10092 0.0988678 0)
(-0.0583816 0.098579 0)
(-0.01524 0.0989395 0)
(0.0282924 0.0987913 0)
(0.0722964 0.0982854 0)
(0.116512 0.0983912 0)
(0.160644 0.0984432 0)
(0.204636 0.0985147 0)
(0.248246 0.0985962 0)
(0.291191 0.0986964 0)
(0.333098 0.09881 0)
(0.373544 0.0989627 0)
(0.41211 0.0990533 0)
(0.448346 0.0993775 0)
(0.481618 0.0990162 0)
(0.511316 0.0998274 0)
(0.535819 0.098366 0)
(0.555841 0.0999721 0)
(0.570507 0.0981781 0)
(0.5834 0.100633 0)
(0.593216 0.0984981 0)
(0.580797 0.11709 0)
(1.18563 0.110764 0)
(-1.14084 0.0715091 0)
(-0.604292 0.29617 0)
(-0.488452 0.358629 0)
(-0.394305 0.310268 0)
(-0.377694 0.245371 0)
(-0.375252 0.204309 0)
(-0.393071 0.178886 0)
(-0.400241 0.163677 0)
(-0.392309 0.155679 0)
(-0.375842 0.1512 0)
(-0.353286 0.148771 0)
(-0.325552 0.146958 0)
(-0.293817 0.145677 0)
(-0.259061 0.144773 0)
(-0.222004 0.144026 0)
(-0.183116 0.143421 0)
(-0.142723 0.142912 0)
(-0.101135 0.142511 0)
(-0.0585374 0.1421 0)
(-0.0153487 0.142632 0)
(0.0282165 0.142422 0)
(0.0722441 0.14169 0)
(0.116484 0.141844 0)
(0.160632 0.141922 0)
(0.204639 0.14203 0)
(0.24826 0.142152 0)
(0.291214 0.142301 0)
(0.333129 0.142468 0)
(0.373574 0.1427 0)
(0.412122 0.142801 0)
(0.448333 0.143336 0)
(0.481462 0.142717 0)
(0.511206 0.143943 0)
(0.535515 0.141985 0)
(0.555808 0.143981 0)
(0.570621 0.142021 0)
(0.583774 0.144947 0)
(0.594603 0.142477 0)
(0.584067 0.168729 0)
(1.19242 0.16882 0)
(-1.14592 0.160189 0)
(-0.627692 0.318329 0)
(-0.521413 0.368256 0)
(-0.440861 0.326071 0)
(-0.410963 0.281037 0)
(-0.409268 0.246711 0)
(-0.41073 0.224756 0)
(-0.40912 0.210248 0)
(-0.397279 0.202051 0)
(-0.379365 0.196665 0)
(-0.355567 0.193903 0)
(-0.327143 0.191669 0)
(-0.294984 0.190029 0)
(-0.25997 0.188858 0)
(-0.222736 0.187867 0)
(-0.183706 0.187071 0)
(-0.143188 0.186406 0)
(-0.101486 0.185886 0)
(-0.0587862 0.185359 0)
(-0.0155124 0.186072 0)
(0.0281192 0.185803 0)
(0.0722018 0.184839 0)
(0.116498 0.185039 0)
(0.160695 0.185145 0)
(0.204748 0.185289 0)
(0.248415 0.185454 0)
(0.291407 0.185655 0)
(0.333358 0.185864 0)
(0.37384 0.186197 0)
(0.412375 0.186266 0)
(0.448557 0.187073 0)
(0.48147 0.186086 0)
(0.511292 0.187759 0)
(0.535353 0.185469 0)
(0.555777 0.187666 0)
(0.570564 0.185801 0)
(0.583744 0.188896 0)
(0.595109 0.186448 0)
(0.584672 0.217006 0)
(1.17792 0.216689 0)
(-1.13326 0.221499 0)
(-0.635009 0.344072 0)
(-0.538492 0.383001 0)
(-0.474348 0.343983 0)
(-0.443078 0.313156 0)
(-0.432576 0.286976 0)
(-0.42713 0.268164 0)
(-0.41828 0.255071 0)
(-0.403175 0.247041 0)
(-0.383312 0.241646 0)
(-0.358308 0.238472 0)
(-0.329072 0.235935 0)
(-0.296442 0.233962 0)
(-0.261118 0.23253 0)
(-0.223658 0.231299 0)
(-0.184446 0.230316 0)
(-0.143768 0.229498 0)
(-0.101921 0.228863 0)
(-0.0590927 0.228227 0)
(-0.0157143 0.229134 0)
(0.0279974 0.228809 0)
(0.0721459 0.227605 0)
(0.116512 0.227849 0)
(0.160767 0.227982 0)
(0.204879 0.228166 0)
(0.248596 0.22837 0)
(0.291645 0.228632 0)
(0.333646 0.228879 0)
(0.374159 0.229333 0)
(0.412704 0.229304 0)
(0.448928 0.230491 0)
(0.481621 0.229047 0)
(0.511517 0.231106 0)
(0.535568 0.228708 0)
(0.556358 0.230989 0)
(0.57148 0.229387 0)
(0.585035 0.232472 0)
(0.59716 0.23026 0)
(0.588276 0.265583 0)
(1.17194 0.273088 0)
(-1.13021 0.271553 0)
(-0.636311 0.367737 0)
(-0.548551 0.400661 0)
(-0.496198 0.367615 0)
(-0.465762 0.347344 0)
(-0.450749 0.325761 0)
(-0.439005 0.310099 0)
(-0.425912 0.298601 0)
(-0.408784 0.29103 0)
(-0.387225 0.285817 0)
(-0.361147 0.282344 0)
(-0.331236 0.279548 0)
(-0.29815 0.277275 0)
(-0.262496 0.275583 0)
(-0.224781 0.274122 0)
(-0.185344 0.272955 0)
(-0.144468 0.271991 0)
(-0.102445 0.271245 0)
(-0.0594589 0.270507 0)
(-0.0159536 0.271627 0)
(0.0278547 0.271247 0)
(0.0720825 0.269793 0)
(0.116533 0.270079 0)
(0.160859 0.270241 0)
(0.205037 0.270462 0)
(0.248827 0.270716 0)
(0.291918 0.271037 0)
(0.33398 0.271313 0)
(0.37453 0.271976 0)
(0.41291 0.271703 0)
(0.449101 0.273374 0)
(0.481399 0.271433 0)
(0.511222 0.273866 0)
(0.534644 0.271352 0)
(0.555375 0.27358 0)
(0.569913 0.272281 0)
(0.582897 0.274986 0)
(0.594354 0.27319 0)
(0.590268 0.308606 0)
(1.15684 0.318392 0)
(-1.13713 0.321665 0)
(-0.642063 0.394224 0)
(-0.562085 0.422681 0)
(-0.51823 0.394043 0)
(-0.488246 0.381283 0)
(-0.468876 0.363288 0)
(-0.452216 0.35068 0)
(-0.435377 0.340598 0)
(-0.415528 0.333788 0)
(-0.392087 0.328838 0)
(-0.364711 0.32521 0)
(-0.333916 0.322193 0)
(-0.30022 0.319681 0)
(-0.264162 0.317763 0)
(-0.226111 0.316083 0)
(-0.186396 0.314746 0)
(-0.145278 0.313647 0)
(-0.103046 0.312795 0)
(-0.0598772 0.311962 0)
(-0.0162252 0.313315 0)
(0.0276933 0.312883 0)
(0.0720104 0.311165 0)
(0.116557 0.311491 0)
(0.160966 0.311686 0)
(0.205229 0.311945 0)
(0.249108 0.312235 0)
(0.292323 0.312658 0)
(0.334472 0.312875 0)
(0.37523 0.313813 0)
(0.413744 0.313275 0)
(0.450167 0.315459 0)
(0.482559 0.313015 0)
(0.512868 0.3159 0)
(0.536757 0.313648 0)
(0.558148 0.31582 0)
(0.573858 0.315094 0)
(0.587486 0.317693 0)
(0.599246 0.316362 0)
(0.601608 0.35078 0)
(1.14515 0.369638 0)
(-1.11793 0.364864 0)
(-0.640412 0.417819 0)
(-0.566519 0.445003 0)
(-0.528262 0.422886 0)
(-0.499063 0.41495 0)
(-0.476469 0.399361 0)
(-0.457695 0.389595 0)
(-0.439362 0.380709 0)
(-0.418546 0.374864 0)
(-0.394421 0.370309 0)
(-0.36687 0.366695 0)
(-0.335867 0.363568 0)
(-0.302058 0.360917 0)
(-0.265798 0.358766 0)
(-0.227507 0.3569 0)
(-0.187537 0.355405 0)
(-0.146165 0.354179 0)
(-0.103709 0.353227 0)
(-0.0603391 0.352305 0)
(-0.0165234 0.353917 0)
(0.0275181 0.353433 0)
(0.0719318 0.351434 0)
(0.116584 0.351803 0)
(0.161069 0.35203 0)
(0.205405 0.352336 0)
(0.249318 0.352651 0)
(0.292517 0.353157 0)
(0.3346 0.353316 0)
(0.375054 0.354515 0)
(0.413058 0.353352 0)
(0.449133 0.356188 0)
(0.480442 0.353004 0)
(0.50997 0.355822 0)
(0.532808 0.353627 0)
(0.55362 0.355327 0)
(0.568722 0.354687 0)
(0.581984 0.357318 0)
(0.592086 0.356391 0)
(0.609304 0.379645 0)
(1.12904 0.408433 0)
(-1.10711 0.415513 0)
(-0.645149 0.444764 0)
(-0.575893 0.469572 0)
(-0.542965 0.453209 0)
(-0.515524 0.447757 0)
(-0.490602 0.4346 0)
(-0.470274 0.427496 0)
(-0.449611 0.41968 0)
(-0.426902 0.414675 0)
(-0.400899 0.410292 0)
(-0.37203 0.406701 0)
(-0.339999 0.40345 0)
(-0.305267 0.400569 0)
(-0.268274 0.398198 0)
(-0.229416 0.396191 0)
(-0.188975 0.394552 0)
(-0.147227 0.393231 0)
(-0.104479 0.392194 0)
(-0.060868 0.391195 0)
(-0.0168569 0.393097 0)
(0.0273318 0.392561 0)
(0.0718609 0.39026 0)
(0.116651 0.390667 0)
(0.161269 0.390927 0)
(0.20577 0.391263 0)
(0.249917 0.391625 0)
(0.293369 0.392232 0)
(0.335859 0.392212 0)
(0.37701 0.394075 0)
(0.415336 0.39215 0)
(0.452101 0.39565 0)
(0.484049 0.392333 0)
(0.514036 0.395181 0)
(0.537498 0.393263 0)
(0.559066 0.394689 0)
(0.575105 0.39414 0)
(0.589136 0.396837 0)
(0.598206 0.396598 0)
(0.626087 0.409122 0)
(1.11188 0.454277 0)
(-1.09116 0.452999 0)
(-0.644188 0.468837 0)
(-0.577113 0.493037 0)
(-0.547135 0.483269 0)
(-0.520368 0.478834 0)
(-0.49376 0.46726 0)
(-0.472603 0.462478 0)
(-0.450228 0.45513 0)
(-0.426901 0.451313 0)
(-0.400562 0.446944 0)
(-0.371983 0.443883 0)
(-0.340398 0.440516 0)
(-0.306048 0.437762 0)
(-0.269338 0.435401 0)
(-0.230501 0.43339 0)
(-0.18995 0.431726 0)
(-0.148042 0.430387 0)
(-0.105127 0.429301 0)
(-0.0613455 0.428254 0)
(-0.0171753 0.430484 0)
(0.0271337 0.429891 0)
(0.0717311 0.42726 0)
(0.116587 0.427689 0)
(0.161207 0.427951 0)
(0.205628 0.428253 0)
(0.249598 0.428492 0)
(0.292799 0.429184 0)
(0.334589 0.428601 0)
(0.375135 0.430782 0)
(0.412501 0.427949 0)
(0.448385 0.431804 0)
(0.479358 0.428014 0)
(0.508797 0.430478 0)
(0.531614 0.428536 0)
(0.553558 0.429455 0)
(0.569774 0.42848 0)
(0.584483 0.431135 0)
(0.592508 0.431207 0)
(0.633186 0.431021 0)
(1.09371 0.486791 0)
(-1.0752 0.49759 0)
(-0.645058 0.495134 0)
(-0.58031 0.516662 0)
(-0.555515 0.512551 0)
(-0.527949 0.50789 0)
(-0.502483 0.498393 0)
(-0.481897 0.495065 0)
(-0.458186 0.488466 0)
(-0.434576 0.485916 0)
(-0.407501 0.481625 0)
(-0.378292 0.479079 0)
(-0.346056 0.475557 0)
(-0.310794 0.47286 0)
(-0.273192 0.470303 0)
(-0.233457 0.468212 0)
(-0.192142 0.466512 0)
(-0.149599 0.465158 0)
(-0.106214 0.464034 0)
(-0.0620735 0.462967 0)
(-0.0176073 0.465568 0)
(0.0269379 0.464908 0)
(0.0717319 0.461924 0)
(0.116851 0.46237 0)
(0.161784 0.462635 0)
(0.206604 0.46296 0)
(0.251036 0.463117 0)
(0.294802 0.464019 0)
(0.337239 0.463184 0)
(0.378402 0.465877 0)
(0.416146 0.462233 0)
(0.452435 0.466485 0)
(0.483125 0.462459 0)
(0.512349 0.464552 0)
(0.534521 0.462722 0)
(0.557296 0.463435 0)
(0.573376 0.462163 0)
(0.588781 0.464616 0)
(0.595884 0.46488 0)
(0.639968 0.457866 0)
(1.07338 0.526504 0)
(-1.05851 0.528656 0)
(-0.643691 0.516818 0)
(-0.581375 0.536975 0)
(-0.559133 0.535728 0)
(-0.530277 0.530291 0)
(-0.505859 0.525166 0)
(-0.484841 0.523019 0)
(-0.459651 0.517029 0)
(-0.435723 0.51637 0)
(-0.407722 0.511348 0)
(-0.377944 0.50999 0)
(-0.345472 0.505891 0)
(-0.310268 0.503608 0)
(-0.272722 0.501055 0)
(-0.233098 0.499204 0)
(-0.191914 0.497714 0)
(-0.14948 0.496551 0)
(-0.106232 0.495546 0)
(-0.0621917 0.494577 0)
(-0.0178124 0.497634 0)
(0.0266501 0.496885 0)
(0.071245 0.493467 0)
(0.116144 0.493824 0)
(0.160725 0.493893 0)
(0.205139 0.494017 0)
(0.249082 0.493788 0)
(0.292368 0.494654 0)
(0.334241 0.492855 0)
(0.375247 0.49605 0)
(0.412531 0.491181 0)
(0.448973 0.495465 0)
(0.479405 0.490911 0)
(0.508839 0.491912 0)
(0.530535 0.489182 0)
(0.554389 0.489189 0)
(0.570886 0.486946 0)
(0.587354 0.488606 0)
(0.594243 0.488191 0)
(0.638468 0.478953 0)
(1.05418 0.551829 0)
(-1.03945 0.568953 0)
(-0.64242 0.540218 0)
(-0.582703 0.557727 0)
(-0.562379 0.557642 0)
(-0.533182 0.551794 0)
(-0.510845 0.550575 0)
(-0.487985 0.548352 0)
(-0.463453 0.543576 0)
(-0.440005 0.543795 0)
(-0.412104 0.538193 0)
(-0.382815 0.537669 0)
(-0.350429 0.53358 0)
(-0.314956 0.531689 0)
(-0.276885 0.528903 0)
(-0.236691 0.52714 0)
(-0.194836 0.525539 0)
(-0.151765 0.524334 0)
(-0.107946 0.52322 0)
(-0.0633622 0.522197 0)
(-0.0184439 0.525658 0)
(0.0264936 0.524826 0)
(0.0715325 0.521052 0)
(0.116942 0.521519 0)
(0.161997 0.521685 0)
(0.206826 0.521886 0)
(0.251181 0.521658 0)
(0.294753 0.522792 0)
(0.336546 0.520345 0)
(0.377842 0.524185 0)
(0.414535 0.518348 0)
(0.450464 0.522344 0)
(0.47993 0.517846 0)
(0.509141 0.51855 0)
(0.530312 0.515845 0)
(0.554913 0.515855 0)
(0.571828 0.513533 0)
(0.588938 0.514914 0)
(0.595757 0.514259 0)
(0.637265 0.505808 0)
(1.03088 0.586904 0)
(-1.02124 0.596038 0)
(-0.640031 0.560191 0)
(-0.583123 0.575715 0)
(-0.564305 0.575462 0)
(-0.535479 0.569782 0)
(-0.514437 0.570252 0)
(-0.489523 0.567174 0)
(-0.465822 0.564373 0)
(-0.442324 0.564481 0)
(-0.414355 0.558492 0)
(-0.384998 0.559888 0)
(-0.351755 0.554255 0)
(-0.315608 0.55318 0)
(-0.276909 0.550494 0)
(-0.236087 0.54891 0)
(-0.193843 0.547455 0)
(-0.150597 0.546414 0)
(-0.106893 0.545406 0)
(-0.0626511 0.544509 0)
(-0.0183842 0.548529 0)
(0.0259381 0.547576 0)
(0.0702551 0.543215 0)
(0.115137 0.543508 0)
(0.159823 0.54345 0)
(0.204515 0.543499 0)
(0.248845 0.54273 0)
(0.292768 0.544301 0)
(0.334511 0.540542 0)
(0.37605 0.544955 0)
(0.412815 0.538551 0)
(0.448914 0.542288 0)
(0.47776 0.53756 0)
(0.506981 0.537835 0)
(0.527782 0.534978 0)
(0.552994 0.534911 0)
(0.57041 0.532705 0)
(0.588056 0.533987 0)
(0.594997 0.533518 0)
(0.633894 0.526105 0)
(1.00955 0.609171 0)
(-0.998442 0.63448 0)
(-0.637129 0.58166 0)
(-0.583218 0.594632 0)
(-0.566002 0.596124 0)
(-0.537813 0.591206 0)
(-0.517547 0.591458 0)
(-0.491167 0.587016 0)
(-0.469348 0.585445 0)
(-0.445614 0.58447 0)
(-0.418179 0.577928 0)
(-0.388712 0.578894 0)
(-0.355439 0.572178 0)
(-0.31958 0.572029 0)
(-0.280489 0.568735 0)
(-0.239424 0.567243 0)
(-0.196898 0.565592 0)
(-0.153294 0.564436 0)
(-0.109167 0.563221 0)
(-0.0642546 0.562137 0)
(-0.0192134 0.566482 0)
(0.0259739 0.56552 0)
(0.0710278 0.560907 0)
(0.116489 0.561432 0)
(0.161491 0.561534 0)
(0.206331 0.561797 0)
(0.250635 0.560959 0)
(0.294559 0.563107 0)
(0.335977 0.558961 0)
(0.37727 0.564051 0)
(0.413705 0.557847 0)
(0.44973 0.562521 0)
(0.478029 0.55903 0)
(0.507107 0.56019 0)
(0.527672 0.55823 0)
(0.55337 0.558789 0)
(0.57106 0.55699 0)
(0.589091 0.558622 0)
(0.595949 0.558056 0)
(0.631945 0.551843 0)
(0.982473 0.642681 0)
(-0.978196 0.659594 0)
(-0.634016 0.602447 0)
(-0.582948 0.613056 0)
(-0.566966 0.613183 0)
(-0.540039 0.608365 0)
(-0.520093 0.608217 0)
(-0.493011 0.60326 0)
(-0.472637 0.60241 0)
(-0.448257 0.599116 0)
(-0.421266 0.592397 0)
(-0.391867 0.592988 0)
(-0.358223 0.585712 0)
(-0.321345 0.585714 0)
(-0.281395 0.581749 0)
(-0.239588 0.580682 0)
(-0.196474 0.578914 0)
(-0.152491 0.577764 0)
(-0.108236 0.576381 0)
(-0.063388 0.575176 0)
(-0.019333 0.579928 0)
(0.0250513 0.578787 0)
(0.0694065 0.573665 0)
(0.114603 0.574303 0)
(0.159585 0.57446 0)
(0.204609 0.574967 0)
(0.249167 0.57376 0)
(0.293518 0.576804 0)
(0.335121 0.572004 0)
(0.376708 0.578279 0)
(0.412821 0.572037 0)
(0.448661 0.576829 0)
(0.476173 0.573784 0)
(0.505129 0.575397 0)
(0.525623 0.57406 0)
(0.551665 0.575065 0)
(0.570218 0.574205 0)
(0.588248 0.575963 0)
(0.595318 0.576204 0)
(0.629341 0.570744 0)
(0.959414 0.662012 0)
(-0.953166 0.68893 0)
(-0.630256 0.612573 0)
(-0.582417 0.624036 0)
(-0.567592 0.627848 0)
(-0.540884 0.623053 0)
(-0.520911 0.621618 0)
(-0.49428 0.615402 0)
(-0.475456 0.613992 0)
(-0.451113 0.609365 0)
(-0.425409 0.604352 0)
(-0.396227 0.604543 0)
(-0.362251 0.595806 0)
(-0.325521 0.597206 0)
(-0.285244 0.592834 0)
(-0.243342 0.592337 0)
(-0.200018 0.590509 0)
(-0.155736 0.589375 0)
(-0.111006 0.587748 0)
(-0.0652881 0.58637 0)
(-0.0202433 0.591629 0)
(0.025529 0.590576 0)
(0.0708387 0.585095 0)
(0.116728 0.585962 0)
(0.162034 0.586304 0)
(0.207188 0.58714 0)
(0.251563 0.585541 0)
(0.295913 0.589149 0)
(0.33722 0.583664 0)
(0.378725 0.590529 0)
(0.415129 0.584668 0)
(0.451054 0.589891 0)
(0.478123 0.587609 0)
(0.506706 0.58963 0)
(0.526956 0.588892 0)
(0.553151 0.590178 0)
(0.571743 0.589359 0)
(0.589807 0.590945 0)
(0.595906 0.588417 0)
(0.62665 0.582323 0)
(0.930518 0.683713 0)
(-0.922873 0.696157 0)
(-0.62033 0.616617 0)
(-0.578495 0.626159 0)
(-0.569457 0.630337 0)
(-0.546828 0.627199 0)
(-0.5278 0.626171 0)
(-0.501456 0.620958 0)
(-0.482496 0.619068 0)
(-0.45693 0.613642 0)
(-0.431332 0.6108 0)
(-0.400431 0.610553 0)
(-0.364724 0.603562 0)
(-0.326816 0.606662 0)
(-0.285546 0.602386 0)
(-0.242786 0.602942 0)
(-0.198843 0.60081 0)
(-0.154233 0.59921 0)
(-0.109647 0.596699 0)
(-0.064612 0.594321 0)
(-0.0202728 0.599341 0)
(0.0243746 0.598381 0)
(0.0689421 0.593232 0)
(0.114245 0.595216 0)
(0.159328 0.596525 0)
(0.204548 0.598374 0)
(0.249251 0.596614 0)
(0.293934 0.600862 0)
(0.335607 0.594144 0)
(0.377463 0.600637 0)
(0.413943 0.593444 0)
(0.450426 0.59737 0)
(0.477409 0.594238 0)
(0.506176 0.595723 0)
(0.526493 0.59484 0)
(0.552742 0.596027 0)
(0.571889 0.595284 0)
(0.587729 0.59584 0)
(0.592512 0.592245 0)
(0.616041 0.588492 0)
(0.89878 0.676244 0)
(-1.03771 0.457754 0)
(-0.593393 0.59816 0)
(-0.578884 0.6306 0)
(-0.56743 0.646469 0)
(-0.547125 0.647749 0)
(-0.527413 0.650634 0)
(-0.499889 0.650581 0)
(-0.480396 0.652453 0)
(-0.456731 0.64775 0)
(-0.438765 0.641055 0)
(-0.418966 0.627706 0)
(-0.396679 0.60901 0)
(-0.368847 0.59665 0)
(-0.32963 0.584874 0)
(-0.286346 0.580147 0)
(-0.237976 0.576565 0)
(-0.185823 0.575258 0)
(-0.13319 0.575364 0)
(-0.0777327 0.574448 0)
(-0.0248016 0.581846 0)
(0.0278204 0.581238 0)
(0.0805311 0.573505 0)
(0.136351 0.574023 0)
(0.189427 0.572828 0)
(0.242665 0.574416 0)
(0.290763 0.574585 0)
(0.338133 0.582352 0)
(0.374072 0.586611 0)
(0.40959 0.602083 0)
(0.431976 0.614252 0)
(0.456749 0.627166 0)
(0.475221 0.631909 0)
(0.500938 0.634216 0)
(0.520819 0.631708 0)
(0.548275 0.62975 0)
(0.56823 0.626989 0)
(0.582431 0.624748 0)
(0.590091 0.611991 0)
(0.588181 0.581826 0)
(1.02964 0.427932 0)
(-1.03048 1.03297 0)
(-0.436918 1.03988 0)
(-0.652121 0.926354 0)
(-0.659871 0.953475 0)
(-0.636189 0.980263 0)
(-0.61862 1.00068 0)
(-0.586626 1.0251 0)
(-0.565443 1.04458 0)
(-0.530886 1.06632 0)
(-0.504294 1.08528 0)
(-0.463218 1.10559 0)
(-0.428999 1.12413 0)
(-0.382979 1.14062 0)
(-0.341263 1.15523 0)
(-0.290945 1.16635 0)
(-0.242186 1.17793 0)
(-0.18653 1.1813 0)
(-0.136058 1.19274 0)
(-0.0787636 1.18578 0)
(-0.0279175 1.20653 0)
(0.0290951 1.20654 0)
(0.0796975 1.18527 0)
(0.137597 1.19284 0)
(0.187192 1.1798 0)
(0.244894 1.17823 0)
(0.291559 1.16454 0)
(0.344944 1.15455 0)
(0.385658 1.13884 0)
(0.433523 1.12222 0)
(0.468681 1.10291 0)
(0.511927 1.08137 0)
(0.540167 1.06083 0)
(0.578039 1.03669 0)
(0.601399 1.01481 0)
(0.636682 0.986886 0)
(0.656739 0.963029 0)
(0.681536 0.932436 0)
(0.674843 0.899281 0)
(0.444693 1.01912 0)
(1.02151 1.02871 0)
(-1.03048 -1.03297 0)
(-0.436918 -1.03988 0)
(-0.652121 -0.926354 0)
(-0.659871 -0.953475 0)
(-0.636189 -0.980263 0)
(-0.61862 -1.00068 0)
(-0.586626 -1.0251 0)
(-0.565443 -1.04458 0)
(-0.530886 -1.06632 0)
(-0.504294 -1.08528 0)
(-0.463218 -1.10559 0)
(-0.428999 -1.12413 0)
(-0.382979 -1.14062 0)
(-0.341263 -1.15523 0)
(-0.290945 -1.16635 0)
(-0.242186 -1.17793 0)
(-0.18653 -1.1813 0)
(-0.136058 -1.19274 0)
(-0.0787636 -1.18578 0)
(-0.0279175 -1.20653 0)
(0.0290951 -1.20654 0)
(0.0796975 -1.18527 0)
(0.137597 -1.19284 0)
(0.187192 -1.1798 0)
(0.244894 -1.17823 0)
(0.291559 -1.16454 0)
(0.344944 -1.15455 0)
(0.385658 -1.13884 0)
(0.433523 -1.12222 0)
(0.468681 -1.10291 0)
(0.511927 -1.08137 0)
(0.540167 -1.06083 0)
(0.578039 -1.03669 0)
(0.601399 -1.01481 0)
(0.636682 -0.986886 0)
(0.656739 -0.963029 0)
(0.681536 -0.932436 0)
(0.674843 -0.899281 0)
(0.444693 -1.01912 0)
(1.02151 -1.02871 0)
(-1.03771 -0.457754 0)
(-0.593393 -0.59816 0)
(-0.578884 -0.6306 0)
(-0.56743 -0.646469 0)
(-0.547125 -0.647749 0)
(-0.527413 -0.650634 0)
(-0.499889 -0.650581 0)
(-0.480396 -0.652453 0)
(-0.456731 -0.64775 0)
(-0.438765 -0.641055 0)
(-0.418966 -0.627706 0)
(-0.396679 -0.60901 0)
(-0.368847 -0.59665 0)
(-0.32963 -0.584874 0)
(-0.286346 -0.580147 0)
(-0.237976 -0.576565 0)
(-0.185823 -0.575258 0)
(-0.13319 -0.575364 0)
(-0.0777327 -0.574448 0)
(-0.0248016 -0.581846 0)
(0.0278204 -0.581238 0)
(0.0805311 -0.573505 0)
(0.136351 -0.574023 0)
(0.189427 -0.572828 0)
(0.242665 -0.574416 0)
(0.290763 -0.574585 0)
(0.338133 -0.582352 0)
(0.374072 -0.586611 0)
(0.40959 -0.602083 0)
(0.431976 -0.614252 0)
(0.456749 -0.627166 0)
(0.475221 -0.631909 0)
(0.500938 -0.634216 0)
(0.520819 -0.631708 0)
(0.548275 -0.62975 0)
(0.56823 -0.626989 0)
(0.582431 -0.624748 0)
(0.590091 -0.611991 0)
(0.588181 -0.581826 0)
(1.02964 -0.427932 0)
(-0.922873 -0.696157 0)
(-0.62033 -0.616617 0)
(-0.578495 -0.626159 0)
(-0.569457 -0.630337 0)
(-0.546828 -0.627199 0)
(-0.5278 -0.626171 0)
(-0.501456 -0.620958 0)
(-0.482496 -0.619068 0)
(-0.45693 -0.613642 0)
(-0.431332 -0.6108 0)
(-0.400431 -0.610553 0)
(-0.364724 -0.603562 0)
(-0.326816 -0.606662 0)
(-0.285546 -0.602386 0)
(-0.242786 -0.602942 0)
(-0.198843 -0.60081 0)
(-0.154233 -0.59921 0)
(-0.109647 -0.596699 0)
(-0.064612 -0.594321 0)
(-0.0202728 -0.599341 0)
(0.0243746 -0.598381 0)
(0.0689421 -0.593232 0)
(0.114245 -0.595216 0)
(0.159328 -0.596525 0)
(0.204548 -0.598374 0)
(0.249251 -0.596614 0)
(0.293934 -0.600862 0)
(0.335607 -0.594144 0)
(0.377463 -0.600637 0)
(0.413943 -0.593444 0)
(0.450426 -0.59737 0)
(0.477409 -0.594238 0)
(0.506176 -0.595723 0)
(0.526493 -0.59484 0)
(0.552742 -0.596027 0)
(0.571889 -0.595284 0)
(0.587729 -0.59584 0)
(0.592512 -0.592245 0)
(0.616041 -0.588492 0)
(0.89878 -0.676244 0)
(-0.953166 -0.68893 0)
(-0.630256 -0.612573 0)
(-0.582417 -0.624036 0)
(-0.567592 -0.627848 0)
(-0.540884 -0.623053 0)
(-0.520911 -0.621618 0)
(-0.49428 -0.615402 0)
(-0.475456 -0.613992 0)
(-0.451113 -0.609365 0)
(-0.425409 -0.604352 0)
(-0.396227 -0.604543 0)
(-0.362251 -0.595806 0)
(-0.325521 -0.597206 0)
(-0.285244 -0.592834 0)
(-0.243342 -0.592337 0)
(-0.200018 -0.590509 0)
(-0.155736 -0.589375 0)
(-0.111006 -0.587748 0)
(-0.0652881 -0.58637 0)
(-0.0202433 -0.591629 0)
(0.025529 -0.590576 0)
(0.0708387 -0.585095 0)
(0.116728 -0.585962 0)
(0.162034 -0.586304 0)
(0.207188 -0.58714 0)
(0.251563 -0.585541 0)
(0.295913 -0.589149 0)
(0.33722 -0.583664 0)
(0.378725 -0.590529 0)
(0.415129 -0.584668 0)
(0.451054 -0.589891 0)
(0.478123 -0.587609 0)
(0.506706 -0.58963 0)
(0.526956 -0.588892 0)
(0.553151 -0.590178 0)
(0.571743 -0.589359 0)
(0.589807 -0.590945 0)
(0.595906 -0.588417 0)
(0.62665 -0.582323 0)
(0.930518 -0.683713 0)
(-0.978196 -0.659594 0)
(-0.634016 -0.602447 0)
(-0.582948 -0.613056 0)