/*--------------------------------*- C++ -*----------------------------------*\
| =========                 |                                                 |
| \\      /  F ield         | OpenFOAM: The Open Source CFD Toolbox           |
|  \\    /   O peration     | Version:  v1912                                 |
|   \\  /    A nd           | Website:  www.openfoam.com                      |
|    \\/     M anipulation  |                                                 |
\*---------------------------------------------------------------------------*/
FoamFile
{
    version     2.0;
    format      ascii;
    class       volVectorField;
    location    "0.00011";
    object      momentumMean;
}
// * * * * * * * * * * * * * * * * * * * * * * * * * * * * * * * * * * * * * //

dimensions      [1 -2 -1 0 0 0 0];


internalField   nonuniform List<vector> 
1300
(
(-1.233271838 2.270346038 -0.6050038051)
(-0.3712272752 1.965466327 0.3983464749)
(19.30622725 2.667357994 0.2192364498)
(90.88352204 3.99157045 -0.2956297285)
(44.87134972 3.122374729 0.1289123073)
(16.8976601 1.233829183 0.02927560834)
(32.49935519 -1.285004197 -1.406232073)
(39.55019263 -0.5322061155 -0.009745091957)
(24.29191694 0.1658634066 -1.444037905)
(26.09514884 -1.357408029 1.595987551)
(-1.548863202 4.593858382 0.4246743085)
(0.6866344022 5.426717617 -0.1111132052)
(33.5565786 10.00655501 -0.04706702361)
(170.4382764 26.06951185 -1.080739373)
(83.15820198 14.19036428 0.5482451706)
(32.1131615 7.490534567 -0.5438847387)
(60.1946152 10.73816556 -0.1292398057)
(71.95187991 9.320392407 0.05120445019)
(45.12817841 6.458284519 0.512621022)
(36.47596921 5.995875339 -0.004116834072)
(-0.985708437 2.96191243 -0.2559881004)
(0.6375376544 3.224155833 0.2278355574)
(38.5221754 9.240444597 0.123430891)
(188.8764623 27.3512531 -0.5066930683)
(92.96535158 13.98200301 -0.40068672)
(35.44338223 9.849894403 0.4156734073)
(80.46559563 16.37078666 -1.27731369)
(108.6826706 16.50801344 -1.275418036)
(69.13980897 13.08773907 -0.3424546447)
(60.21652821 10.73159946 -1.613098707)
(-0.4757067605 2.073895248 -0.1619871712)
(0.6053001271 2.144399139 0.1102803236)
(35.92248592 6.694510232 -0.337375473)
(176.3069928 25.92343063 -1.401132538)
(86.72660069 13.3971463 -0.2534524722)
(38.37259593 8.834629678 0.5332208611)
(87.30082156 18.3056243 -0.586484255)
(133.4038423 25.0518546 0.9579346244)
(82.33680189 15.1579274 -0.6749943055)
(73.07218578 15.22648771 0.1393928138)
(-0.2475856163 1.196548537 -0.1764020824)
(0.4584677587 2.146584242 0.09538088013)
(37.25536258 6.533393885 -0.7344394542)
(176.8482014 25.10444512 0.3794727535)
(93.65082789 11.67404743 0.05664675414)
(36.54189336 7.522614851 0.3205794995)
(82.01764933 14.94147521 -1.516901953)
(120.9244403 19.90377547 -0.5497284812)
(91.86747389 15.50174164 -0.3657456042)
(79.74191364 17.68919787 0.3404548508)
(-0.1758931563 1.213047404 -0.1877254015)
(0.4143712067 1.022386207 0.1754897227)
(34.63017743 6.193301599 -0.07062032743)
(181.9387576 26.1745392 0.01728434811)
(88.79812614 12.16574672 0.07600114758)
(32.8363956 5.384783843 -0.9265738994)
(85.85338546 14.5877354 0.2593129265)
(112.0710328 16.86683332 0.3738779643)
(94.53672849 15.86788071 0.4397393514)
(78.12143554 14.59329221 -0.2937183315)
(-0.1112840714 0.8232450758 -0.08534737792)
(0.7445663791 1.053130698 -0.04583987147)
(35.33324057 8.241653546 0.3906860462)
(174.2439472 24.00050155 -0.2576892458)
(86.99900955 10.89789918 0.9346315511)
(27.50498038 4.929991636 -0.08856164616)
(82.56021709 12.68607946 -0.0664648324)
(111.8013979 16.98699627 -0.6632710648)
(89.45273187 12.88161236 -0.04585530022)
(73.4283472 13.24923085 0.09798249091)
(-0.1449492529 0.9153905824 -0.04883109055)
(0.6745899527 0.7159935817 -0.004615052762)
(39.49469779 7.542566369 0.03928366948)
(179.6174249 25.30931844 0.02838830818)
(87.3292404 11.70232091 0.4672779826)
(33.15500735 5.623788382 -0.1897677163)
(77.87607254 11.60490981 0.4193738226)
(114.1039318 15.71186819 -0.1149162747)
(81.7203079 11.16645058 -0.5682645981)
(71.78015614 11.4346262 0.1380697679)
(-0.03209767057 0.5145328906 -0.07768055057)
(0.816425936 0.6045957287 -0.06053547233)
(36.16345867 7.187146284 -0.752526936)
(181.0648644 25.52484682 0.3578404914)
(90.33172974 12.51560329 0.2741907082)
(35.23754942 6.350983896 -0.1104135643)
(86.32337367 13.64378308 -0.177571566)
(111.1064475 15.69379585 -0.4489313018)
(88.05491343 12.39067671 0.98284731)
(69.13386968 10.33072249 0.08560845227)
(-0.0521921947 0.418109295 -0.1138986665)
(0.4974677714 0.3929357585 0.02847854742)
(34.69895248 6.827653712 -0.1938615861)
(175.2018423 26.00161717 -1.034127648)
(90.54957236 11.02266665 0.8556203082)
(32.5339878 5.337911464 0.2592946544)
(76.87551765 13.75183326 0.3119032422)
(115.5760502 17.33199415 -0.3479251691)
(88.71078126 12.44718043 0.299617438)
(64.42719145 9.603191621 0.2020567071)
(0.005624154534 0.43255915 -0.07456443182)
(0.9395735791 0.5340996581 -0.0822024034)
(37.04433322 6.31935085 0.6676173883)
(183.2204162 26.9866836 -0.4786859161)
(86.42736778 10.20210696 0.07024922005)
(34.44146079 5.920975412 0.223775877)
(81.29555572 13.00485222 -0.5899861804)
(118.0881657 16.39732942 0.1847612214)
(83.09779241 11.71086479 0.1876095387)
(74.68494657 12.05057448 0.3530650424)
(0.05512232233 0.3143072773 -0.07706374815)
(0.7378761157 0.45554824 -0.02849656874)
(38.79984051 7.513443805 0.7879439156)
(172.808622 25.10186093 -0.09907725545)
(91.96718244 10.77336164 -0.1448324571)
(31.34733201 5.811393564 0.3812596036)
(82.95736987 13.54531583 -0.2471211412)
(116.826919 16.42902886 0.1662784844)
(85.84944406 12.30810496 -0.2638638787)
(76.13901478 11.7731744 -0.5685389061)
(-0.02963229306 0.2513280258 0.007194631313)
(0.8955249279 0.2900722343 0.1158539284)
(33.81745669 6.345333706 -0.5227212249)
(181.0353617 24.4967997 1.364541508)
(88.02298062 11.2887351 0.4053941199)
(33.46574159 6.248061293 -0.08700710202)
(78.82753429 11.25789587 0.300148793)
(118.933681 16.72910801 0.03186504423)
(81.10608481 10.54503215 1.185294847)
(74.36353779 10.15256155 0.09442444349)
(0.002124684733 0.1343416271 0.01821783464)
(0.484384373 0.3828455058 0.004132829469)
(35.89986841 6.563880758 -0.6809855533)
(180.6878521 25.16335695 -0.01293454528)
(85.13578472 9.767791592 -1.000087925)
(31.31290556 5.745622383 -0.5314313767)
(80.85434532 12.42308089 0.7924658626)
(115.6296492 16.25205228 0.1009569625)
(80.27817882 11.33365439 0.2709718956)
(68.26182327 10.55299738 0.1025965451)
(0.001495012794 0.1362544807 0.01801522422)
(0.5218915088 0.2885829047 -0.1028593014)
(37.16020642 6.831311802 0.4124424423)
(173.6383592 24.94250735 -0.5158351916)
(87.63966836 11.31037522 0.1042073284)
(31.27433914 5.217854992 0.3247943032)
(78.92365839 12.88281859 -1.669127292)
(117.9858475 17.04042409 0.4755498472)
(87.02587198 11.68420967 -0.7222133163)
(64.68292706 9.043153771 -0.1348935767)
(-0.005646689893 0.2667179766 0.02092003218)
(0.873828248 0.3138424164 0.1054859157)
(37.8425704 6.453373586 0.1125505403)
(187.2484165 26.4637127 -1.466191568)
(85.54972837 10.89494379 0.4728241778)
(32.87816121 5.72115186 0.1014085715)
(82.90850147 12.07919444 0.1685166833)
(109.7367201 14.36612484 -0.4295697726)
(83.72265106 11.57656677 0.1832710418)
(72.56679919 10.78355918 0.03681333601)
(-0.03606740604 0.1652425944 0.03206820089)
(0.4826002319 0.2373912144 -0.009716569237)
(37.09763004 6.511200694 -0.2482883356)
(172.8119077 26.72211743 -0.7950208398)
(85.28107617 9.742037822 0.3027474878)
(35.24240534 5.812101664 0.34947691)
(84.56728969 13.32224392 -0.6795328308)
(111.1112986 15.86665634 -0.8955902215)
(83.42138667 11.11327983 0.667851004)
(73.34899149 10.385289 -0.6381616691)
(0.001495012794 0.1362544807 0.01801522422)
(0.2649635955 0.1550106803 0.08908485699)
(38.1634355 7.672598275 -0.1033292617)
(175.3243739 24.24002223 -0.8518421117)
(87.08040697 10.25284505 -0.8037631987)
(35.12786097 6.719061901 -0.6167266654)
(80.29586564 13.61888382 -0.1693311648)
(111.8807854 15.85282558 0.0588778749)
(84.92294747 11.52926478 -0.4112672664)
(69.30637954 10.27016071 0.1145205251)
(0.002318700486 0.07063050546 0.007515952927)
(0.6792470605 0.16156743 0.03241905502)
(37.55299095 6.933990306 -0.4065349938)
(182.0536173 26.66414999 -1.17387843)
(92.62292741 11.55252584 -0.3670684241)
(37.21099124 6.748608499 0.2114962287)
(73.76528147 11.86660442 -1.10348071)
(113.3818556 16.30076678 -0.2437273386)
(88.69565297 11.54185515 -1.312670402)
(68.73351356 11.02581815 -1.03294301)
(-0.000194015753 0.06371112168 0.01070188171)
(0.3181419057 0.1640063426 -0.02081985025)
(33.4428844 6.898546682 0.5842339392)
(171.7275606 28.22300903 0.4116961518)
(80.77890385 10.22944208 0.2381850307)
(36.58045476 5.451065828 0.3556487237)
(79.51419004 13.07509979 -0.4295518911)
(113.3587271 17.06229383 -0.3694640756)
(87.21862044 12.37914586 0.7591783109)
(74.26952482 10.85324976 -0.355771667)
(25.44074986 0.2085797302 -1.20862675)
(22.66320676 0.3975835984 -0.01677216299)
(22.31663776 0.3417297714 -0.6344266208)
(19.62314671 0.9501999798 0.218954627)
(20.41866854 0.9361645312 -0.01992078114)
(17.90459535 1.873644204 0.1084307133)
(20.6413183 2.578891823 -0.6691980046)
(22.67431824 1.78939084 0.01720630672)
(18.19216291 1.719958934 -1.001226136)
(21.33800968 1.676642781 0.1210039401)
(20.05834913 0.9595499049 -0.2827310391)
(23.10456109 4.473388105 0.3932933647)
(21.50925012 1.954452263 0.5310551903)
(21.3592841 2.429252878 0.4054563998)
(22.97600585 2.414622988 0.4338415247)
(22.69118079 3.289238067 0.1378719175)
(24.1592798 2.451299029 0.05937727854)
(21.25636811 3.40318018 0.36443983)
(22.11713379 4.128714474 0.6410712238)
(19.05551553 3.562345644 -0.1191321018)
(20.89624264 2.277304012 -0.1223178039)
(21.38937701 5.600526172 0.3984198127)
(20.68677035 3.249069488 -0.3469374391)
(19.49794231 4.656955557 0.9167578772)
(21.50572575 3.572749657 -0.9413727088)
(18.05389435 4.542125806 -0.4618204461)
(20.21007547 5.131177212 0.1175189641)
(21.7843906 5.822270081 0.7273918159)
(17.42678333 6.211163525 -0.3545135064)
(20.84131521 5.134945352 -1.034064767)
(38.33927716 4.375841299 0.7025718532)
(34.13787788 2.461150035 0.3140427621)
(30.10992969 2.356446113 -1.055254039)
(29.55220312 2.146808957 0.1220705739)
(27.60634505 1.126350193 -0.5108870576)
(27.83815809 1.564998679 0.5333410038)
(25.90812509 2.22802235 -0.291435086)
(26.40678229 2.16584467 0.1835941996)
(27.85668356 2.742707793 -0.2118615351)
(25.21580421 2.570600255 -0.6152981619)
(26.76572269 1.676932167 -0.4673657149)
(23.80713467 2.119113407 -0.7140181688)
(29.04019468 4.292379671 -0.3857658061)
(23.87566866 2.998208408 0.4076671534)
(26.82661401 2.674761856 -0.840231393)
(24.9541732 3.8389816 0.4434125452)
(23.24214426 4.764441355 1.161688748)
(24.3552669 3.148331269 -0.07756432629)
(25.37166629 3.246806819 0.7472295373)
(26.68098541 3.700027524 1.250874902)
(23.11510861 2.800114191 -0.0573342869)
(24.29719181 3.613085392 0.2276905106)
(24.3384966 5.096272342 0.3510466299)
(22.81791689 3.678833313 0.2694289599)
(21.03176199 3.90220914 0.1752033622)
(23.4802522 5.361707962 -0.1530807271)
(24.24197156 5.439702326 0.6513514753)
(20.14283215 6.214776851 0.8880014619)
(21.49596146 5.047972588 -1.583108132)
(22.59712243 5.523746426 -0.6165940988)
(60.75901487 7.961930104 0.1680164112)
(55.98498409 6.511849468 -0.2920941098)
(46.75056956 5.690363868 -1.093991294)
(42.02616122 3.182750107 -0.2702812172)
(42.56419027 4.115261927 1.220645293)
(37.8302721 2.926909895 -0.5924728571)
(33.7302903 3.429606806 -0.04115799241)
(33.50336544 2.825498325 0.5076660199)
(33.5233817 2.862119718 -0.2878516997)
(30.93138643 3.477450148 -0.1075308444)
(31.9425366 3.011484321 0.02373485122)
(31.18279774 3.37657733 -0.3995266934)
(28.96509318 1.990358117 -0.8248901275)
(28.64143968 3.519172035 -0.8094418083)
(30.52505694 3.768187274 -0.5186771108)
(29.23032517 3.580716039 0.1037117442)
(30.27765875 4.147787016 -0.6957856356)
(30.01115012 3.906141445 0.004208766566)
(29.77192499 5.19683672 -1.017124395)
(27.84775813 4.651641598 0.1650116561)
(27.6709783 5.455738292 0.002487370935)
(27.99635608 5.352108083 -1.59768575)
(25.08050297 4.993508595 -0.9639158455)
(25.73384257 4.75671218 -0.5422342644)
(25.52261158 5.375168793 0.6528212862)
(23.37924528 4.303082722 -0.08027575911)
(24.60030977 5.959651745 0.9293041892)
(24.44847255 4.34951161 -0.2821101661)
(26.73439641 6.490641293 -0.5549526486)
(25.09335553 5.166379231 0.4857143395)
(82.31017369 15.49202537 -1.300134145)
(78.2139985 12.30651245 -0.3261800015)
(63.82963259 9.226339037 -0.7958806124)
(59.96851462 7.404204571 0.1424943625)
(61.503291 5.626669283 -1.020141415)
(49.6424929 6.090804356 -0.3875516501)
(47.63727868 5.587684037 -0.3701601549)
(48.59874173 4.563065549 -0.9946811642)
(41.65447372 4.502188094 -0.2852800434)
(40.55548806 3.512474162 -0.2354005526)
(40.40091947 3.169733873 -0.8810021296)
(38.49536873 5.194069231 0.2139670773)
(37.7948814 3.74736405 0.3517979437)
(38.96862521 4.508968964 -0.572751835)
(34.1843752 5.02830447 -1.229309423)
(34.10659637 3.173710794 0.3655147515)
(33.7451004 4.382522202 -0.2420361865)
(31.75319223 5.02082579 -0.9424390282)
(32.99967166 5.187798836 0.2339169814)
(32.45962193 4.303561935 -1.11139926)
(34.30448468 6.831831854 -0.9622287498)
(29.28192523 5.720203698 -1.124913763)
(31.54322744 5.086841887 -0.7085013807)
(33.32501041 6.416106628 -1.447257804)
(32.19871175 6.160910356 -0.9647585713)
(27.7543665 4.030104318 -0.1658342848)
(29.27890236 5.527506414 -0.3773120817)
(33.41306085 6.067554318 -0.4549884294)
(28.62996559 5.696524311 -0.3649757848)
(31.21113543 5.74925836 -0.02824023605)
(101.3846442 21.73388315 -0.6520042879)
(95.18293666 17.79766658 -1.441724991)
(78.45205033 13.30837536 0.1986943548)
(80.25949829 12.94325229 -1.491850701)
(68.52701296 11.36906034 0.7498378942)
(67.37471936 8.39174576 -0.9189262075)
(62.90320923 9.416537828 -0.9291840307)
(59.0308038 8.441051093 0.1218763202)
(57.10125748 6.527776196 -0.4136444136)
(48.74868651 6.060821654 0.5852267266)
(46.80285168 5.333008339 -1.342234463)
(48.41023612 5.816591315 -0.3798267961)
(43.83220798 4.914795094 -0.03802859968)
(40.68760968 5.00099639 0.2433437154)
(39.78559398 4.351372753 0.2633196253)
(40.81837868 5.75795035 0.09133558186)
(41.81425294 5.173090988 -0.4263809947)
(38.24170712 4.710004103 -0.9626972794)
(40.03147426 5.79128339 -0.4504027679)
(38.03848608 5.241076908 -1.101833489)
(37.2550172 4.894796113 -0.4027441114)
(38.06797483 6.363507451 -0.7471725019)
(36.20124347 5.205687698 -0.2783959455)
(36.62419461 6.545031259 -0.6208199226)
(35.24884813 5.795061595 0.1391643679)
(36.80649134 5.473465868 -0.415621147)
(35.59760642 6.309064261 0.2427171355)
(33.35663069 6.123133247 -0.9509828049)
(28.8223548 4.054702955 -0.1387634123)
(32.82193518 6.123599147 0.4508549502)
(91.54352736 18.28803924 0.4851664623)
(104.9316744 20.11183319 -0.2587568329)
(92.57324553 19.46829064 -1.169675525)
(90.86072639 17.85463244 0.7903830784)
(86.2547808 14.82885944 -0.03501132336)
(82.62110382 14.49556018 -0.6895144861)
(71.57105247 11.80722478 0.0996522219)
(68.95052079 10.43587758 0.1894459443)
(66.46794268 9.518540168 -0.5273482264)
(62.06790507 9.853174505 -0.5828977601)
(59.2959767 6.824169844 -0.05926851768)
(56.53182964 7.932571499 -0.6861432589)
(52.43100261 7.099752817 0.2556094468)
(54.08922315 6.487708952 -0.3171480486)
(51.16324292 6.735645198 -0.5137167159)
(48.32761906 7.854976977 -0.785606817)
(49.58680074 5.940716749 -0.1759816759)
(44.32684415 6.021519221 -0.6402970663)
(43.66761991 7.132087127 0.338138526)
(46.47004693 6.850008457 0.543864086)
(43.21337422 6.20664702 0.1372257487)
(42.43434876 6.45123592 -0.4037662986)
(42.46872601 6.690756784 -0.1391934592)
(40.8426178 7.82961998 -0.2220653926)
(43.25656133 6.283903557 -0.4896389369)
(39.79877978 6.769357025 -0.8547363182)
(41.07328951 6.891822975 -0.2142819883)
(39.27193102 7.244447627 0.3106975522)
(36.90901814 6.250955752 0.4965181179)
(41.42760423 7.39474699 -1.384988758)
(81.49193636 14.98639656 0.3565823246)
(95.5795174 18.0061643 -0.8608953719)
(97.29574918 19.91964346 0.488381572)
(93.92751728 20.41753801 0.07788130778)
(94.71839558 19.10303282 0.924627926)
(91.23245586 16.84127713 -1.364711541)
(86.61554242 16.2721067 0.1965046879)
(80.86874819 14.46859223 0.6671796009)
(82.53926017 13.17187277 -1.313100489)
(75.8274386 12.91159101 -0.7168886001)
(71.08006999 9.813516152 0.5218719217)
(64.59652831 9.852155071 -0.1967310277)
(60.7307341 9.434089148 -0.4721990386)
(62.79338715 9.275565534 -0.5059643324)
(57.7218079 8.159726236 0.1395674585)
(57.52497153 7.549657079 -1.341135148)
(54.37048732 6.918770089 -0.4684705378)
(59.6116006 7.97927448 -0.4825534886)
(50.69895014 6.999790127 -1.172159943)
(50.1553129 6.858085629 -0.8411031138)
(53.8997114 6.631159588 -0.1462051892)
(48.07093448 7.503447442 0.4192588188)
(46.95765185 7.892901534 0.1753163481)
(45.71751424 6.609006531 0.09702041628)
(47.03296277 6.94116072 0.06454981877)
(45.53356275 6.902120677 -0.7903285342)
(43.68483029 7.919649613 0.005145080183)
(43.64826762 7.036478045 -0.5766820381)
(47.10740474 7.684696131 -0.1192155166)
(39.19286153 6.529644187 -0.4208234611)
(88.91909407 14.08218998 -0.3766129623)
(92.99188971 15.43364143 -0.9612533575)
(98.16413921 16.43145613 0.9804299063)
(89.84288376 16.13254439 -0.2442424067)
(98.64930431 20.62033984 -0.5646924203)
(108.3122042 21.22194262 0.0591824467)
(98.18836681 19.04929797 -0.304334043)
(93.61018096 17.43866075 0.6138116006)
(93.59186907 17.47226874 -0.265586159)
(88.27160421 14.98493227 -0.06910986829)
(80.77806714 14.21847349 0.3400791967)
(82.17972504 13.37138122 -0.4794682884)
(77.81048738 11.82826544 -0.7129956919)
(71.47968125 10.83975559 0.2404804729)
(67.88795893 10.06053851 -0.4362045596)
(69.4062962 10.50569536 -0.3499639823)
(61.27087952 8.755442041 -0.661438203)
(64.93607998 8.737963175 -0.547240182)
(57.9611007 8.615492593 -0.8508943125)
(56.54689964 8.605117897 0.5665605837)
(55.75380364 7.361338551 -0.246706079)
(62.78454903 9.522533163 -0.6843318254)
(53.29551164 8.459140972 -0.05566646945)
(54.40069074 8.116363825 -0.9675616571)
(52.58778318 8.882250853 -0.3687531775)
(52.75672094 8.898203034 -0.5830956052)
(46.77604774 7.757402086 -0.4189852636)
(50.00808975 7.770800503 -0.7430249422)
(48.9434088 8.363123032 -0.7912409907)
(47.96774248 8.093110054 -0.9764142236)
(82.24839288 12.25800101 -0.2591063527)
(89.35669403 15.08155553 0.3025369714)
(82.496204 14.24968006 -0.01261009912)
(91.01254701 14.96637974 -0.1787375791)
(88.8239008 16.87818774 0.8655129416)
(96.87211013 17.84344608 -0.1767332083)
(99.48147699 19.45379885 0.8848334041)
(98.6283168 20.01554772 -1.134248382)
(100.0657932 19.22003699 0.8786097115)
(93.82912067 18.02917655 -0.9088632333)
(90.09909592 15.58890819 1.585553939)
(92.4694781 16.67798673 -0.03877049432)
(80.68580364 13.50950057 0.2763578316)
(81.61344452 13.62824675 0.2724628201)
(81.29178008 13.12683422 0.1093249367)
(78.59438366 11.61686108 0.8821097524)
(73.06355205 11.74268606 -0.3954085596)
(69.53608744 10.57520401 0.04508482146)
(72.36798709 9.669610873 0.8233202743)
(64.719742 9.145403 -0.5265419822)
(67.69144639 11.01770308 -0.6038784964)
(63.83732427 9.402730249 0.7449489124)
(61.97883749 9.787169407 0.1628004072)
(59.92669568 10.12887539 -0.3725314205)
(63.56544763 9.557175935 -0.1098674179)
(58.57803375 8.683160593 0.5085323699)
(60.10644075 10.34010061 -0.4788732486)
(53.09498311 9.040282174 -0.2531462507)
(61.05828206 8.840969622 1.024088957)
(50.92555029 8.987770826 0.1391900128)
(76.89024897 10.80631375 -1.009357255)
(96.15172034 14.66164384 0.4649915358)
(82.66617805 12.47312349 0.3752457777)
(79.51568352 13.47646149 -1.044122883)
(89.0472256 15.30211716 0.5861947428)
(90.33867991 16.28013454 0.04180010383)
(93.7371212 16.06797287 -1.090440177)
(91.93450128 17.68470869 -0.002239875496)
(93.13087989 18.57505161 -0.03024515141)
(106.871523 21.29048741 1.355234427)
(94.99984809 18.85940462 -0.4689362413)
(96.10799387 18.35127189 0.6528629182)
(96.6206585 17.43675338 -0.7747017809)
(87.33273169 14.70332019 0.485110867)
(84.51153988 16.06814377 1.421074486)
(81.51365469 13.2330972 -1.293995216)
(83.86150222 13.55316259 1.578679727)
(74.2196124 11.89030973 -0.2017360279)
(81.45913484 12.83674662 0.04414399425)
(75.05506621 12.02689168 -0.158821007)
(69.08644605 10.56749683 0.1983803307)
(69.58075219 10.98718004 -0.04701818513)
(71.53057353 10.78729802 -0.1023065962)
(67.07096685 10.81297622 -0.5370820338)
(68.63673295 10.10983434 0.5889709198)
(63.44669674 9.723931056 0.42647801)
(62.2753151 10.5893718 -1.224747253)
(62.40341253 10.88908357 -0.1238069787)
(64.77844221 11.04025527 0.3909823608)
(60.65823668 10.2526384 -0.1782278684)
(83.62718419 13.37819196 0.3469334257)
(93.41197922 12.51178513 0.05453277231)
(85.76842657 12.38646883 0.03386785434)
(83.72134384 12.98396885 0.003007271104)
(87.54624528 13.20843702 0.6662538197)
(88.2054749 12.80407065 0.6709773137)
(88.40273112 14.92583902 -0.7025295411)
(94.79166881 16.76548767 0.7316909141)
(93.16141002 15.85065423 -0.6012645515)
(98.69943063 17.99507292 -0.3013373503)
(96.30869246 18.81841712 -0.5623493817)
(98.03666996 19.4079071 0.4801367041)
(102.2600073 19.69207588 -0.007095721041)
(97.78693558 17.97982524 0.8099226876)
(94.56141693 18.50162668 0.6258560325)
(90.89398159 15.4387862 -0.07008815365)
(94.52492293 16.68701234 0.4763561554)
(86.20918942 14.20314255 0.7807544753)
(84.95946401 14.33095135 -0.2184623913)
(83.38332771 13.8895091 0.4252942434)
(74.72361423 11.57258797 1.117604306)
(83.35800655 12.83342752 0.4982794959)
(74.92807504 11.98096304 0.3766961081)
(70.84122322 10.62407106 -0.2850857498)
(73.24687022 12.77955883 -0.1420921159)
(73.76461309 11.69955201 -0.6111842436)
(71.81569908 10.85743412 -0.03432155049)
(66.16771754 12.6651177 0.0785990286)
(68.80449523 11.73053923 -0.1282147163)
(70.23823935 11.50981067 -0.1509469441)
(79.97110322 10.64496783 -0.640624099)
(92.42245643 12.83885682 0.1323295779)
(87.03359096 12.75338418 0.182333941)
(85.20604042 12.81522996 -0.8499830036)
(85.40200363 12.70925287 -0.1669035064)
(89.27195338 12.95477641 -0.2387043865)
(84.06812289 13.361584 -0.1452969018)
(85.69193236 13.60383777 -0.2206865674)
(94.17021982 15.91325989 0.330817031)
(91.02884749 17.45404034 -0.789959439)
(94.48359244 18.11254225 -0.7522408568)
(97.18758739 19.23889314 -0.4859875785)
(99.44853317 19.14113026 0.355524479)
(96.57693359 18.05047281 -0.4099350879)
(93.56756425 18.62015682 -0.2734009168)
(100.3073684 17.31806848 -0.4443184326)
(94.28025602 17.41119287 0.2330512652)
(87.81584291 15.22435788 0.7817253486)
(96.32548127 16.41388786 -0.6546997775)
(87.37944046 15.37941117 1.082665551)
(88.10027292 15.09858027 0.06979827624)
(82.45313876 13.5101862 -0.318415368)
(82.96464052 11.9997516 0.4150061353)
(80.87271536 13.8673624 0.5083017256)
(76.25230172 12.25308735 0.1720308211)
(82.03490714 12.71648099 0.3378611564)
(75.15169793 12.41441214 0.1743735033)
(73.88159434 11.86791839 -0.5834895857)
(78.57395405 12.4219074 0.3600487739)
(71.06419554 12.54212121 -0.8621117825)
(83.27751736 11.92180165 0.1835490924)
(89.59212031 12.67500202 0.08809362024)
(83.2818435 12.91696375 -0.4741206687)
(81.85888319 11.86181933 0.4530485888)
(83.48753817 12.12658461 -0.9530981604)
(90.90710912 13.19682685 -0.9978460893)
(86.39219489 13.23069766 0.3201916713)
(78.73182676 12.32115993 -1.090149112)
(96.76958328 15.10085214 -0.5038169022)
(91.49832872 14.58452524 -0.7951977947)
(86.82176552 14.57402647 -0.05683841247)
(99.40536851 16.27560572 -0.403440742)
(93.84690909 16.85941552 -1.550390083)
(100.9765421 20.13689625 -0.1480596287)
(98.14416665 19.3602317 0.7251852528)
(100.0590643 19.44202406 -0.68894539)
(96.17496369 19.11568001 0.9894218506)
(94.95847709 18.29622635 -0.7303189959)
(92.41462952 16.79856277 0.1209057002)
(95.12606607 18.02042814 -0.0247268824)
(87.45621771 15.75295238 -0.4644144908)
(91.72464697 15.85859891 0.3536910289)
(85.55456895 14.07977208 -0.557861122)
(84.0161645 14.02077152 1.01328361)
(86.30632922 13.6016569 -0.222681111)
(77.91372834 12.9116787 0.6225512047)
(78.97189585 13.71668134 0.2627352095)
(78.77871452 12.89266856 0.8457556372)
(82.36707658 14.18365224 0.6635169752)
(77.21606529 13.20567078 -0.4466953828)
(80.19047878 12.46669496 -0.5279330058)
(95.06490208 14.16012319 0.6282943972)
(81.00689998 11.99706257 1.006562055)
(79.9225517 11.41526719 -0.1789517664)
(80.60803579 11.76125009 0.5841268925)
(86.8059058 13.34046917 0.3834566094)
(86.03848524 13.3372736 0.5129024698)
(77.73480749 11.06691015 0.3563491609)
(83.34231212 12.03789614 -0.2735197015)
(93.76677531 15.28314496 0.7709767206)
(80.58515686 12.60895052 -0.4724976543)
(84.87923239 15.09589077 -0.1426789058)
(94.70529011 16.59959877 -0.7232315729)
(87.28107578 15.98720796 0.1514827272)
(98.34910177 18.74821868 -0.1472834153)
(91.61347167 17.60804141 -1.081961373)
(99.88500391 20.05714246 0.1330945189)
(103.918745 20.03562769 -0.7344399131)
(93.3184487 17.52571012 -0.2558086191)
(92.62117313 16.51229366 -0.07699244124)
(98.31811023 18.56611615 -0.4038005317)
(92.6456456 16.46257254 -0.4274507522)
(89.59709503 15.40328745 0.08205701457)
(91.44495927 16.06862288 0.8478141358)
(85.72658483 14.81302398 -0.6937215324)
(88.20548888 14.18106349 -0.5442534255)
(87.9837204 14.72038234 0.0622353113)
(86.64108469 15.49985195 -0.610076791)
(84.94292346 12.99664121 0.5388592608)
(79.88035834 14.72081389 -0.2243917546)
(78.64343043 11.4029606 -0.05790175458)
(89.83434802 12.87425074 -0.6999448076)
(84.52842088 12.00222528 -0.2512219874)
(81.45963032 12.04617512 -0.1873595293)
(85.42551042 11.95947805 0.2791851635)
(85.41777366 12.44104579 -0.2572550999)
(83.44564101 11.62309222 -0.5519457981)
(84.82713616 12.80576252 0.6852908568)
(87.24729602 12.39916538 -0.5074955328)
(83.20458858 11.83306417 -0.2912432108)
(83.84158064 13.5913005 -0.2699490391)
(87.80487625 12.47361159 0.05768017299)
(95.13071627 15.85193382 0.1072384796)
(82.81315707 13.41931873 -0.608255579)
(93.76539926 14.85853936 -0.2196579405)
(96.85630966 17.10413142 -0.3736009748)
(89.78437585 16.4418011 0.3438116823)
(104.2760556 19.790119 -0.062563984)
(98.75171988 18.51821692 -0.4030868249)
(97.42902657 17.49827179 0.2933310004)
(100.4198399 18.32302539 0.03467260436)
(90.69138392 16.5843438 0.2990460996)
(95.55462399 18.12137013 -0.5719700027)
(96.36084858 16.7605797 -0.7977189094)
(96.45786384 16.39468911 -0.5588232459)
(84.71835265 14.411144 0.7425085286)
(83.47067817 14.14425977 -0.2785293694)
(89.45430225 15.95290317 -0.7928718209)
(79.54866471 13.36441511 -0.1699452652)
(90.1563394 15.44995765 0.09641074526)
(86.27951612 13.25011939 -0.8873030168)
(92.61136867 11.92993027 -0.44648855)
(82.45753951 11.82761652 0.8835286481)
(81.07245966 11.93913409 -0.7965372809)
(86.12692589 12.44614634 -0.1395144186)
(90.69481789 13.23194678 0.2314304184)
(76.35420319 10.74510648 0.2575117055)
(85.16338363 12.8853235 0.2795640984)
(89.67193834 13.44458221 -0.809958784)
(85.93447362 13.37740634 -0.1609582018)
(81.54629473 12.0055708 0.3586265736)
(80.81488309 11.63078261 0.2137122213)
(83.23483427 12.59806572 0.2503557697)
(83.75142462 13.3923325 0.08522841173)
(89.51976697 14.86720459 0.6144998304)
(91.59613443 16.30718486 -0.821893941)
(87.48470757 14.24704527 -0.8317018919)
(96.41633589 17.44485611 0.7599198499)
(94.44981039 17.24999708 -0.9905689552)
(96.95251415 18.6909226 0.01350748604)
(99.33900096 19.41276876 0.6104434251)
(102.8984843 19.06194403 -1.928253575)
(97.78040047 18.06257368 1.001665022)
(88.31735717 17.35169783 -0.1799269467)
(97.50786886 18.42208825 -0.09495073821)
(93.8452121 16.87112109 -0.9614843813)
(87.81518647 15.7790325 -0.281108418)
(91.09094305 16.81063202 0.3268144581)
(89.26039504 15.3104457 0.01287890424)
(87.82096697 14.07358066 1.174227697)
(79.67237945 12.05130489 0.2537686285)
(87.54959239 12.49886351 0.1263342992)
(91.80023997 13.09268829 -0.3953075264)
(77.84425573 11.43213716 0.1104760312)
(86.21980643 12.10234335 0.2374439738)
(85.14328264 12.08307364 -0.6283110902)
(85.56600305 12.59597212 -0.113848678)
(82.70721465 13.05964318 -0.4437106293)
(84.21953751 11.22127418 0.9334360866)
(84.97881794 11.89225348 0.55020952)
(87.63517072 13.07635961 0.6047496524)
(87.09256783 13.1176602 -0.4134033738)
(91.03080381 14.80148606 -0.06124380012)
(80.98289881 11.38496999 -0.406132209)
(90.25005154 13.46097801 -0.01451026897)
(86.48494922 13.06027158 -0.1380479491)
(90.4868771 14.82650087 -0.1907546961)
(87.30783783 14.1337686 -0.1515413451)
(93.60628629 16.42723314 -0.0323692673)
(95.06678941 16.87254767 -1.390763772)
(97.41799293 17.69236601 0.7579415774)
(98.31614112 16.8378923 -1.005598038)
(106.0893526 19.04658525 -0.07714456008)
(101.3345891 18.57116668 0.2922515015)
(101.995539 17.50970736 -1.00002423)
(102.1332288 18.92796698 0.8232375887)
(101.2693974 17.81786748 1.326782909)
(97.56458917 17.33044489 0.01490354532)
(93.31667646 15.06313895 -0.4862299438)
(94.7937531 15.5939365 -0.5583206199)
(81.48189765 12.2403894 -0.4853759952)
(85.27266552 11.69309088 -0.06953991359)
(81.87202329 11.64417531 -0.7601203629)
(84.07149114 12.71161323 -0.1715916405)
(82.64504976 11.77243862 -0.6634980752)
(88.94036185 12.78663451 0.2220167161)
(81.70914201 11.57351865 -1.284802944)
(81.82235128 11.54436749 0.1171583734)
(89.2976629 12.56896378 -0.2262366642)
(82.51287526 11.67931186 -0.7973828871)
(88.91163758 12.63478331 0.4849516472)
(82.79914956 10.73864727 -0.7358204019)
(88.1176996 12.66262911 0.2640483495)
(87.58958655 13.68842674 1.090668237)
(88.94805881 12.58000227 0.4529267139)
(86.81741174 13.74070368 -0.09702254227)
(93.81990764 13.59543126 0.8736748749)
(91.34273261 12.86072309 0.3814888077)
(85.7717752 13.92433145 -0.8593888829)
(90.37541318 14.43492556 1.235051772)
(93.22766334 15.73230154 0.1856385295)
(94.81181721 15.38555974 -0.9111009495)
(95.62743525 18.03742722 0.6607835418)
(98.65006077 18.1631047 -0.1858761287)
(101.5399744 17.73436662 -0.5166347421)
(94.10045454 16.65931939 -0.08899098898)
(103.6129295 18.52018343 -1.498838921)
(104.6555902 18.99507692 -0.6060831897)