/*--------------------------------*- C++ -*----------------------------------*\
| =========                 |                                                 |
| \\      /  F ield         | OpenFOAM: The Open Source CFD Toolbox           |
|  \\    /   O peration     | Version:  v1912                                 |
|   \\  /    A nd           | Website:  www.openfoam.com                      |
|    \\/     M anipulation  |                                                 |
\*---------------------------------------------------------------------------*/
FoamFile
{
    version     2.0;
    format      ascii;
    class       volScalarField;
    location    "0.00011";
    object      rhoM;
}
// * * * * * * * * * * * * * * * * * * * * * * * * * * * * * * * * * * * * * //

dimensions      [1 -3 0 0 0 0 0];


internalField   nonuniform List<scalar> 
1300
(
0.014612
0.005312
0.00465
0.067748
0.0186
0.019262
0.020586
0.039186
0.066424
0.020586
0.009962
0.0093
0.023912
0.141486
0.06376
0.05115
0.066424
0.048486
0.037862
0.019924
0.00465
0.01395
0.02325
0.079034
0.037862
0.0372
0.071736
0.043836
0.077048
0.043836
1e-277
0.00465
0.028562
0.106272
0.052474
0.014612
0.06045
0.081036
0.065762
0.08701
1e-277
1e-277
0.033874
0.107596
0.042512
0.033212
0.07771
0.038524
0.057124
0.05446
1e-277
1e-277
0.023912
0.08236
0.023912
0.0279
0.07771
0.062436
0.02325
0.058448
1e-277
0.00465
0.049148
0.134834
0.04185
0.038524
0.037862
0.043174
0.044498
0.043174
1e-277
1e-277
0.01395
0.09631
0.037862
0.00465
0.035198
0.057786
0.039848
0.071736
1e-277
1e-277
0.0186
0.10561
0.033212
0.023912
0.057124
0.056462
0.039186
0.037862
1e-277
1e-277
0.023912
0.11026
0.043174
0.024574
0.042512
0.063098
0.04185
0.075724
1e-277
1e-277
0.038524
0.085024
0.043836
0.028562
0.066424
0.067086
0.061112
0.059772
1e-277
1e-277
0.0186
0.104948
0.04516
0.038524
0.071736
0.047824
0.05911
0.053136
1e-277
1e-277
0.033212
0.144134
0.043836
0.0093
0.043836
0.053136
0.061774
0.019262
1e-277
1e-277
0.033874
0.071736
0.023912
0.019262
0.088334
0.05115
0.0465
0.039186
1e-277
0.00465
0.043174
0.081036
0.038524
0.037862
0.066424
0.081036
0.035198
0.051812
1e-277
1e-277
0.033212
0.148784
0.037862
0.028562
0.028562
0.057786
0.043174
0.0372
1e-277
1e-277
0.0186
0.108936
0.015936
0.033874
0.025236
0.053136
0.072398
0.053136
1e-277
1e-277
0.00465
0.07771
0.047824
0.014612
0.024574
0.047824
0.072398
0.081698
1e-277
1e-277
0.019262
0.084362
0.075062
0.0093
0.07771
0.037862
0.047824
0.029224
1e-277
1e-277
0.01395
0.108258
0.039848
0.0093
0.051812
0.063098
0.066424
0.053798
0.03447194171
0.03118701663
0.04814375266
0.03173230782
0.03173230756
0.01969636965
0.05416831136
0.01532086285
0.02298129447
0.04048332117
0.01149064714
0.02735680114
0.02790209207
0.01532086285
0.01915107873
0.03064172596
0.04759846134
0.0235265854
0.03118701689
0.03774368697
0.02024166058
0.03993803024
0.01203593807
0.01969636965
0.01969636965
0.05142867705
0.03939273931
0.06565895859
0.02790209184
0.02407187633
0.03282288968
0.01969636949
0.03064172596
0.02407187633
0.03501723235
0.03227759875
0.03118701689
0.03556252327
0.03173230782
0.01586615391
0.02024166042
0.02298129447
0.03282288968
0.02298129428
0.01915107873
0.03282288968
0.0164114447
0.03447194171
0.03610781449
0.04376824562
0.03556252356
0.03719839635
0.01915107857
0.05306455026
0.04650787987
0.03556252327
0.01969636965
0.01969636965
0.04814375226
0.03556252356
0.03173230782
0.02790209184
0.03227759875
0.05854381803
0.03282288941
0.03556252356
0.04814375266
0.02352658521
0.01915107873
0.02024166058
0.03173230756
0.01586615391
0.03993803024
0.02790209184
0.028447383
0.03830215745
0.03501723235
0.03830215745
0.02735680114
0.03118701663
0.0235265854
0.01969636965
0.03884744806
0.01641144484
0.02407187633
0.03939273899
0.02735680114
0.04376824598
0.04213237285
0.03173230782
0.06565895859
0.05142867705
0.04650787987
0.03993803024
0.05142867705
0.02024166058
0.05471360229
0.05088338613
0.03173230782
0.03939273931
0.03173230756
0.02461716726
0.03064172596
0.03939273899
0.03173230782
0.01641144484
0.01203593807
0.01532086298
0.02790209207
0.0503380952
0.0235265854
0.02899267393
0.01312651992
0.03993803024
0.03118701689
0.04431353655
0.05142867747
0.01641144484
0.04814375226
0.01586615391
0.06237403378
0.0432229547
0.04267766412
0.04485882784
0.03501723235
0.0235265854
0.05471360229
0.02735680092
0.05854381803
0.04322295505
0.03064172571
0.02298129447
0.02790209207
0.04705317041
0.03227759875
0.02735680114
0.03118701663
0.03993803024
0.02681151022
0.03501723235
0.0421323732
0.0235265854
0.03064172571
0.03501723263
0.01969636965
0.007660431427
0.04868904359
0.02298129447
0.03064172571
0.02298129447
0.05525889322
0.07550055318
0.03993803024
0.0755005538
0.07495526226
0.0519739684
0.03173230782
0.05580418369
0.04759846173
0.05854381803
0.04814375226
0.02681151022
0.03993803024
0.0432229547
0.02024166058
0.03501723263
0.02352658521
0.03227759875
0.03118701689
0.01915107857
0.03118701689
0.03227759875
0.05525889276
0.01969636965
0.05033809561
0.03665310512
0.02461716726
0.03556252356
0.03173230756
0.02735680114
0.0705797562
0.04650787949
0.06346461564
0.07495526287
0.05088338613
0.01969636965
0.05142867747
0.03501723235
0.06128345192
0.02790209207
0.07550055318
0.03610781449
0.01586615391
0.03556252327
0.03282288968
0.04485882784
0.03884744806
0.05580418415
0.04322295505
0.0574532357
0.03173230782
0.04650787987
0.03884744806
0.03939273931
0.01915107873
0.03118701663
0.03173230782
0.03556252356
0.01969636949
0.0235265854
0.03501723263
0.02790209184
0.06838541324
0.05963439989
0.07769489612
0.03939273931
0.04048332117
0.05689476554
0.0410286121
0.06291932471
0.0454041184
0.05854381803
0.07987606048
0.04705317041
0.04868904359
0.04322295505
0.03501723235
0.03610781449
0.03227759875
0.03993802991
0.03939273931
0.03610781449
0.05197396798
0.02790209207
0.03173230782
0.03118701663
0.04431353691
0.02681151022
0.01586615378
0.03939273931
0.04431353691
0.01969636949
0.03173230782
0.05580418415
0.05142867705
0.04759846173
0.05963439989
0.06346461512
0.06182874285
0.05471360229
0.1121536583
0.09957243013
0.03665310542
0.02844738277
0.05088338654
0.0519739684
0.03173230756
0.03556252356
0.0470531708
0.0432229547
0.04376824598
0.03556252356
0.05525889276
0.04759846173
0.03610781449
0.03173230756
0.02735680114
0.02298129447
0.02735680092
0.028447383
0.04267766412
0.03556252327
0.03610781449
0.07167033806
0.0432229547
0.05471360229
0.03993803024
0.02735680092
0.05142867747
0.07878547862
0.04979280428
0.05525889322
0.07386468101
0.03993802991
0.02298129447
0.0470531708
0.05416831091
0.06346461564
0.0470531708
0.03447194142
0.05908910896
0.05088338654
0.05142867705
0.05908910896
0.05033809561
0.03993802991
0.01641144484
0.0470531708
0.05525889276
0.03884744838
0.0579985271
0.05908910848
0.04267766412
0.05033809561
0.04814375226
0.03884744838
0.03939273931
0.04102861176
0.03830215745
0.03884744838
0.03501723235
0.04868904359
0.06674954045
0.06400990604
0.04376824598
0.0470531708
0.06784012176
0.05854381803
0.05416831136
0.07003446469
0.05744005694
0.0990271392
0.04376824562
0.03447194171
0.03610781449
0.03447194142
0.05580418415
0.06620424952
0.05525889276
0.03939273931
0.03118701689
0.04596258856
0.06346461564
0.08588743994
0.07878547797
0.05525889322
0.05580418415
0.09245728881
0.03993803024
0.03610781449
0.03173230756
0.04759846173
0.03884744838
0.07276091932
0.07003446527
0.04759846173
0.0503380952
0.07112504713
0.04923433452
0.05634947461
0.04759846173
0.06620424952
0.04376824562
0.06565895859
0.05088338654
0.03939273899
0.05634947508
0.04650787987
0.04868904319
0.05580418415
0.06400990657
0.0525192589
0.06237403378
0.04267766412
0.07167033747
0.03610781449
0.08425156715
0.04267766377
0.06291932471
0.03939273931
0.04705317041
0.07878547862
0.06291932471
0.09082141604
0.06400990657
0.07112504713
0.06947599453
0.04759846173
0.05471360229
0.03939273899
0.03227759875
0.06729483138
0.05580418369
0.05525889322
0.03993803024
0.05908910848
0.03118701689
0.04048332117
0.05854381755
0.0421323732
0.05360984119
0.05854381755
0.05854381803
0.03719839635
0.04705317041
0.06291932471
0.05033809561
0.03118701663
0.07933076955
0.04376824598
0.05634947461
0.07440997194
0.07495526287
0.06291932419
0.05525889322
0.07112504713
0.0596343994
0.06237403378
0.06291932471
0.06237403327
0.06784012231
0.03118701689
0.04267766377
0.05471360229
0.0755005538
0.1105177855
0.06674954045
0.05416831136
0.06784012176
0.05525889322
0.04267766412
0.06291932419
0.03939273931
0.05580418415
0.06291932419
0.05416831136
0.03939273931
0.04868904319
0.08316098529
0.04048332117
0.03501723235
0.04376824598
0.06237403378
0.05580418369
0.02790209207
0.0421323732
0.07386468041
0.06017969082
0.06674954045
0.04705317041
0.07167033806
0.05963439989
0.05416831091
0.06674954045
0.03939273931
0.05306454983
0.06291932471
0.03118701689
0.04705317041
0.07714960583
0.02735680114
0.02790209184
0.04322295505
0.03884744838
0.0432229547
0.06237403378
0.04596258894
0.04705317041
0.05963439989
0.04814375266
0.02298129428
0.0421323732
0.03282288968
0.04102861176
0.05963439989
0.01915107873
0.05908910848
0.09465163253
0.05088338654
0.0596343994
0.07824018769
0.04322295505
0.08699120032
0.03173230782
0.07987606048
0.0793307689
0.03610781449
0.06291932471
0.05580418369
0.05963439989
0.03447194171
0.05088338613
0.0421323732
0.05689476601
0.05744005647
0.02298129447
0.03501723263
0.06291932419
0.06291932471
0.03173230782
0.05142867705
0.06291932471
0.04322295505
0.03884744806
0.05142867747
0.05798534787
0.04705317041
0.03610781449
0.03118701689
0.04759846134
0.08316098529
0.08917236476
0.04759846134
0.07495526287
0.06510048843
0.0596343994
0.08590061918
0.0880817829
0.07112504654
0.03884744838
0.0235265854
0.0667495399
0.03556252356
0.05908910896
0.03939273899
0.03501723263
0.04376824598
0.03556252327
0.05525889322
0.03610781449
0.03501723235
0.04759846173
0.02681151022
0.03501723235
0.04759846173
0.06291932471
0.0596343994
0.04650787987
0.0470531708
0.04376824562
0.05634947508
0.04267766412
0.05908910848
0.07824018769
0.05580418415
0.06072498125
0.06838541324
0.08042135141
0.06182874234
0.0815251125
0.03501723263
0.04431353655
0.06729483138
0.03173230782
0.03173230756
0.05416831136
0.02790209207
0.07057975562
0.07221562899
0.09519692346
0.04759846134
0.03939273931
0.04759846173
0.05908910848
0.05088338654
0.05033809561
0.04650787949
0.06784012231
0.03610781449
0.06455519697
0.05142867747
0.06182874285
0.05908910848
0.05142867747
0.07003446527
0.08097982091
0.08699120104
0.04759846173
0.0935610499
0.0579985271
0.06620424952
0.0667495399
0.06838541324
0.04376824598
0.05580418369
0.02407187633
0.05471360229
0.03447194142
0.05471360229
0.03939273931
0.05088338613
0.03993803024
0.04267766412
0.05088338613
0.05963439989
0.03556252356
0.03556252327
0.07604584473
0.03501723263
0.03939273899
0.028447383
0.05088338654
0.04376824562
0.04376824598
0.04267766412
0.06017969033
0.08261569436
0.0755005538
0.05525889276
0.03118701689
0.033874
0.033874
0.037862
0.010624
0.0186
0.019262
0.061112
0.019924
0.023912
0.00465
0.034536
0.063098
0.024574
0.023912
0.033212
0.043836
0.03255
0.042512
0.043836
0.028562
0.033212
0.033874
0.023912
0.02325
0.0093
0.014612
0.0186
0.033874
0.023912
0.034536
0.03255
0.043174
0.038524
0.023912
0.02325
0.0186
0.0186
0.029224
0.043174
0.01395
0.0093
0.038524
0.0279
0.038524
0.034536
0.029886
0.0279
0.009962
0.0279
0.005312
0.038524
0.028562
0.047824
0.02325
0.029224
0.047162
0.03255
0.0279
0.033212
0.038524
0.042512
0.029224
0.03255
0.019262
0.0093
0.01395
0.042512
0.010624
0.029224
0.028562
0.044498
0.0093
0.015274
0.023912
0.033212
0.029224
0.014612
0.019262
0.005312
0.0186
0.053136
0.033874
0.043836
0.037862
0.033874
0.014612
0.028562
0.0186
0.03586
0.028562
0.028562
0.05446
0.037862
0.029886
0.028562
0.009962
0.019262
0.028562
0.023912
0.019262
0.0651
0.042512
0.053136
0.035198
0.063098
0.033212
0.033212
0.01395
0.019262
0.048486
0.01395
0.053798
0.039186
0.043174
0.033212
0.029224
0.067086
0.067748
0.014612
0.062436
0.072398
0.061774
0.047162
0.063098
0.030548
0.044498
0.0372
0.058448
0.033212
0.062436
0.052474
0.062436
0.052474
0.047824
0.067086
0.043174
0.047824
0.049148
0.047824
0.009962
0.06841
0.043174
0.0558
0.033874
0.0372
0.063098
0.073722
0.057124
0.02325
0.05911
0.047824
0.067086
0.0465
0.037862
0.047162
0.09166
0.075724
0.058448
0.023912
0.083684
0.079712
0.048486
0.042512
0.062436
0.028562
0.033212
0.057124
0.083684
0.07306
0.062436
0.056462
0.073722
0.051812
0.063098
0.060434
0.042512
0.058448
0.053136
0.07771
0.067086
0.106272
0.06841
0.053136
0.057124
0.07306
0.038524
0.085686
0.077048
0.051812
0.099636
0.042512
0.066424
0.061112
0.090998
0.078372
0.049148
0.053798
0.079696
0.05115
0.033874
0.01445728572
0.040081073
0.04206187589
0.01840306011
0.01905805056
0.04271686652
0.03811610149
0.03877109174
0.04206187589
0.0624299079
0.03746111049
0.02891457144
0.05520918034
0.04731763108
0.03811610149
0.03286034583
0.03286034551
0.03680612022
0.03877109213
0.02891457115
0.02365881577
0.02300382514
0.0276045899
0.05257338721
0.02891457144
0.040081073
0.05717415224
0.02891457144
0.03811610112
0.04271686652
0.02703214475
0.0463363899
0.01802142983
0.05985246272
0.02252678707
0.0540642895
0.03604285967
0.06113527789
0.04118962501
0.03732567543
0.02831496024
0.02380960305
0.03668426755
0.0463363899
0.02703214475
0.01415748025
0.01866283753
0.03604285967
0.02316819517
0.03668426719
0.06435782018
0.04183103289
0.06177668576
0.03346172585
0.02252678729
0.05084174731
0.04569498247
0.02767355263
0.0463363899
0.03668426755
0.04413826495
0.03089678517
0.02332588651
0.05422267197
0.04160956912
0.05359429496
0.05673618005
0.06997765887
0.03152516248
0.05863649847
0.04160956912
0.02773971301
0.07439148603
0.0321535392
0.06746415146
0.07629180445
0.04918046799
0.03341029354
0.064307079
0.02648295872
0.03593898898
0.02711133599
0.0409811921
0.04223794653
0.04855209144
0.04855209098
0.0870045885
0.06934928252
0.05547942549
0.03719574302
0.01853549245
0.0179196272
0.0401651953
0.02718737359
0.02286143281
0.06241076323
0.03954933021
0.02347729789
0.02718737359
0.04943294152
0.04449113545
0.03460752455
0.03089744907
0.02595564317
0.05375888209
0.0240931632
0.03460752423
0.06179489814
0.03089744907
0.0302815837
0.06612083871
0.05746895757
0.05252715143
0.05808482266
0.03583925473
0.03460752423
0.04820121135
0.03212917925
0.06673670318
0.04572286604
0.03089808677
0.03513957265
0.04967555663
0.02665660057
0.03938105881
0.03029424508
0.04362254536
0.04058874218
0.06664150143
0.01393214198
0.05210551728
0.04846787325
0.03453573128
0.03877721712
0.03817337578
0.02605275888
0.04786403113
0.05331320114
0.04483022875
0.05270935897
0.04422638705
0.03877721747
0.02665660033
0.02181127268
0.02181127268
0.04362254497
0.03817337578
0.06119233185
0.05331320066
0.01696594479
0.02080133125
0.03387440846
0.05526801878
0.05288458882
0.03446668722
0.03921923254
0.05051547376
0.02496159728
0.03030642128
0.02555387626
0.04753976462
0.05051547376
0.03089870004
0.03149097853
0.05051547376
0.04337949879
0.03565124474
0.03089870004
0.02139361001
0.03030642101
0.03328213
0.03921923254
0.02496159728
0.03505896629
0.02971414251
0.05170003083
0.02139361001
0.04576292875
0.03446668722
0.04040379007
0.01632839363
0.04140213407
0.04372673585
0.04838998461
0.04548423245
0.02973698957
0.02449259045
0.04956633082
0.04198328479
0.05422958001
0.008164196745
0.02973698957
0.01340859593
0.04548423245
0.03906348709
0.02565489116
0.04606538279
0.04198328479
0.071139124
0.02507374058
0.03498138868
0.03790118638
0.03323793733
0.01690954399
0.02449259045
0.04140213407
0.0250737408
0.05889282878
0.05014748117
0.05481073037
0.02060450145
0.02003406886
0.04578624912
0.03663175668
0.01602725509
0.01202044142
0.02117493387
0.0165976875
0.02518174767
0.03777262151
0.02861812882
0.02861812906
0.03606132426
0.03720218877
0.02461131526
0.02575218009
0.02518174746
0.01659768764
0.03663175668
0.02003406886
0.03777262151
0.008013627613
0.03376580741
0.02518174767
0.04979306293
0.04922263009
0.04578624912
0.0526590119
0.0497930625
0.04521581671
0.02023138171
0.01967127888
0.03147404648
0.02416563752
0.03259425152
0.05338573615
0.02416563752
0.03259425152
0.02023138171
0.02416563752
0.007868511554
0.02865999598
0.05114532553
0.02023138154
0.02753979067
0.02809989333
0.02472573996
0.03203414914
0.04046276341
0.0438369162
0.05619978665
0.03259425179
0.04889137728
0.02865999598
0.04495712188
0.02360553466
0.03259425179
0.03708861026
0.04102286572
0.0528256335
0.02318567357
0.02483609443
0.02318567357
0.03146437178
0.04029321001
0.01600725607
0.03587879107
0.02318567338
0.02428595428
0.03587879107
0.03587879077
0.01932139464
0.03201451214
0.04802176781
0.02318567357
0.04250706821
0.03201451187
0.01932139464
0.019871535
0.03146437152
0.04967218927
0.04912204892
0.03477851007
0.0270499525
0.01600725607
0.02815023298
0.02318567357
0.02760009285
0.06734316229
0.06016474535
)
;

boundaryField
{
    inlet
    {
        type            zeroGradient;
    }
    outlet
    {
        type            zeroGradient;
    }
    wall
    {
        type            calculated;
        value           uniform 1e-300;
    }
    frontAndBack
    {
        type            empty;
    }
}


// ************************************************************************* //
