/*--------------------------------*- C++ -*----------------------------------*\
| =========                 |                                                 |
| \\      /  F ield         | OpenFOAM: The Open Source CFD Toolbox           |
|  \\    /   O peration     | Version:  v1912                                 |
|   \\  /    A nd           | Website:  www.openfoam.com                      |
|    \\/     M anipulation  |                                                 |
\*---------------------------------------------------------------------------*/
FoamFile
{
    version     2.0;
    format      ascii;
    class       volVectorField;
    location    "7.96";
    object      grad(T);
}
// * * * * * * * * * * * * * * * * * * * * * * * * * * * * * * * * * * * * * //

dimensions      [0 -1 0 1 0 0 0];


internalField   nonuniform List<vector> 
1900
(
(1.44008 -9.59461e-07 0)
(-1.67415 2.67355e-06 0)
(-0.444023 2.82317e-05 0)
(-0.0641595 8.37603e-08 0)
(0.0196676 4.57697e-06 0)
(0.059074 -3.77623e-05 0)
(0.0811122 -2.68428e-05 0)
(0.0650604 -0.000178938 0)
(0.0282706 0.000486986 0)
(0.0296804 -0.000996801 0)
(1.44008 -1.71623e-06 0)
(-1.67412 6.30803e-06 0)
(-0.444025 5.09328e-05 0)
(-0.0641831 1.87344e-05 0)
(0.0196298 4.10521e-05 0)
(0.0590426 7.72023e-06 0)
(0.080971 6.02244e-05 0)
(0.0655742 -0.00086193 0)
(0.0274527 -0.00150676 0)
(-0.00170398 -0.00393152 0)
(1.44008 -4.42354e-13 0)
(-1.67409 -3.92481e-13 0)
(-0.44401 -5.10659e-13 0)
(-0.0641694 -3.36103e-13 0)
(0.0196566 -3.65376e-13 0)
(0.0590932 -2.1684e-13 0)
(0.0802425 1.0842e-13 0)
(0.0634934 1.0842e-14 0)
(0.025201 1.0842e-15 0)
(-0.0049011 1.30104e-14 0)
(1.44008 1.71623e-06 0)
(-1.67412 -6.30803e-06 0)
(-0.444025 -5.09328e-05 0)
(-0.0641831 -1.87344e-05 0)
(0.0196298 -4.10521e-05 0)
(0.0590426 -7.72023e-06 0)
(0.080971 -6.02244e-05 0)
(0.0655742 0.00086193 0)
(0.0274527 0.00150676 0)
(-0.00170398 0.00393152 0)
(1.44008 9.59461e-07 0)
(-1.67415 -2.67355e-06 0)
(-0.444023 -2.82317e-05 0)
(-0.0641595 -8.37607e-08 0)
(0.0196676 -4.57697e-06 0)
(0.059074 3.77623e-05 0)
(0.0811122 2.68428e-05 0)
(0.0650604 0.000178938 0)
(0.0282706 -0.000486986 0)
(0.0296804 0.000996801 0)
(-0.00158816 -0.0268013 9.40789e-16)
(-0.0159187 -0.020401 -1.12826e-15)
(0.0941615 -0.033222 -1.43226e-15)
(0.378295 -0.0628003 0)
(-0.515435 -0.321946 -6.44766e-15)
(-0.0180874 -0.0319318 9.35946e-16)
(-0.00603161 -0.0236765 1.12826e-15)
(0.0753417 -0.0401247 1.43226e-15)
(0.272178 -0.0646654 0)
(-0.448322 -0.351087 0)
(-0.0270016 9.82067e-15 0)
(-0.0123405 2.85316e-14 0)
(0.065028 1.20467e-14 0)
(0.2427 2.87478e-14 0)
(-0.579908 3.22679e-14 0)
(-0.0180874 0.0319318 9.35946e-16)
(-0.00603161 0.0236765 1.12826e-15)
(0.0753417 0.0401247 1.43226e-15)
(0.272178 0.0646654 0)
(-0.448322 0.351087 0)
(-0.00158816 0.0268013 -2.81268e-15)
(-0.0159187 0.020401 -1.12826e-15)
(0.0941615 0.033222 -1.43226e-15)
(0.378295 0.0628003 -3.94568e-15)
(-0.515435 0.321946 6.44766e-15)
(-1.86886 0.448985 2.18206e-15)
(-0.957428 0.313609 -1.57894e-15)
(-0.58891 0.214394 0)
(-0.407956 0.197517 1.01233e-15)
(-0.30558 0.0777638 -4.2561e-16)
(-1.66583 0.447732 -1.09779e-15)
(-0.998099 0.206345 7.94192e-16)
(-0.606203 0.110897 0)
(-0.44988 0.128446 -6.3739e-16)
(-0.298389 -0.0440493 1.06656e-16)
(-1.719 1.31418e-13 0)
(-1.0542 1.89967e-13 0)
(-0.617374 1.0842e-13 0)
(-0.482837 2.4802e-14 2.56503e-16)
(-0.28331 1.72775e-13 -2.13313e-16)
(-1.66583 -0.447732 -1.09779e-15)
(-0.998099 -0.206345 7.94192e-16)
(-0.606203 -0.110897 0)
(-0.44988 -0.128446 -6.3739e-16)
(-0.298389 0.0440493 1.06656e-16)
(-1.86886 -0.448985 1.09779e-15)
(-0.957428 -0.313609 -9.44489e-18)
(-0.58891 -0.214394 0)
(-0.407956 -0.197517 5.94856e-18)
(-0.30558 -0.0777638 4.2561e-16)
(-0.200031 0.742885 0)
(-0.0915532 0.868523 0)
(-0.0572731 0.893041 0)
(-0.0460513 0.851404 0)
(-0.0388725 0.745399 0)
(-0.0602559 0.632184 0)
(-0.0880507 0.507646 0)
(-0.0448366 0.385983 0)
(0.0903305 0.362551 0)
(0.34231 0.345707 0)
(0.398295 0.348532 0)
(0.199618 0.263142 0)
(0.0906246 0.173206 0)
(0.0408864 0.0836831 0)
(-0.0184698 0.0583316 0)
(-0.10795 0.0474245 0)
(-0.200873 0.0387729 0)
(-0.209244 0.0121006 0)
(-0.169393 -0.00144239 0)
(-0.174777 0.00326372 0)
(-0.241769 0.0118625 0)
(-0.304831 0.0162646 0)
(-0.239307 0.00929044 0)
(-0.0976389 0.00103645 0)
(-0.0284664 -0.000218969 0)
(-0.0177118 -0.00013963 0)
(-0.0152196 -0.000196651 0)
(-0.0117923 -0.000398233 0)
(-0.00507513 -0.000507907 0)
(0.0160577 -0.000563889 0)
(0.134086 -0.000434491 0)
(0.294719 6.63478e-05 0)
(0.263846 0.0001631 0)
(0.133012 -0.000167746 0)
(0.0967104 -0.000535729 0)
(0.112347 -0.000857377 0)
(0.110157 -0.000422885 0)
(0.0652326 -0.000899513 0)
(0.00745088 -0.00148851 0)
(-0.00932362 -0.00213817 0)
(-0.0917717 0.224781 0)
(-0.0135023 0.469206 0)
(-0.0418967 0.577544 0)
(-0.0696298 0.625345 0)
(-0.083688 0.575548 0)
(-0.10638 0.462159 0)
(-0.127242 0.347537 0)
(-0.0654954 0.258785 0)
(0.092892 0.242938 0)
(0.347389 0.241818 0)
(0.38304 0.248758 0)
(0.173315 0.193249 0)
(0.0634329 0.130432 0)
(0.0204075 0.0554649 0)
(-0.026845 0.0316662 0)
(-0.111724 0.0168294 0)
(-0.20444 0.0364161 0)
(-0.213015 0.0493402 0)
(-0.169019 0.0360564 0)
(-0.172335 0.0139108 0)
(-0.240437 0.0088147 0)
(-0.306116 0.00613709 0)
(-0.241559 0.00285842 0)
(-0.098649 0.000330663 0)
(-0.0285568 -0.00011135 0)
(-0.0177014 -4.05127e-05 0)
(-0.015247 -6.81263e-05 0)
(-0.0118234 -0.000173787 0)
(-0.00509391 -0.000225664 0)
(0.0160625 -0.00025966 0)
(0.134124 -0.000195434 0)
(0.294755 -4.75883e-05 0)
(0.26383 -1.33538e-05 0)
(0.132932 -0.000205276 0)
(0.0966082 -0.000457697 0)
(0.11234 -0.000685736 0)
(0.110159 -0.0004518 0)
(0.0651393 -0.000590928 0)
(0.00735391 -0.000953809 0)
(-0.00936937 -0.00142012 0)
(-0.0345112 1.43903e-13 0)
(0.0110687 -8.67362e-14 0)
(-0.011851 -2.66122e-13 0)
(-0.0466319 -4.41566e-13 0)
(-0.0863446 -4.57336e-13 0)
(-0.126587 -4.55365e-13 0)
(-0.147214 -2.18812e-13 0)
(-0.0752653 -1.04478e-13 0)
(0.0853948 -1.97128e-13 0)
(0.344003 -4.15939e-13 0)
(0.384166 -1.83329e-13 0)
(0.165196 6.52493e-13 0)
(0.0505421 -1.06252e-12 0)
(0.0121546 -2.0797e-12 0)
(-0.0297092 -2.25711e-12 0)
(-0.106568 -1.9831e-12 0)
(-0.191416 -2.52915e-12 0)
(-0.209349 -1.84906e-12 0)
(-0.179699 -9.60012e-13 0)
(-0.182702 1.26162e-13 0)
(-0.24403 1.80963e-12 0)
(-0.306564 1.39172e-12 0)
(-0.240996 -6.11096e-14 0)
(-0.0985028 -6.84033e-13 0)
(-0.0285744 4.75078e-13 0)
(-0.0176992 1.56716e-13 0)
(-0.0152584 -3.64686e-14 0)
(-0.0118381 6.18981e-13 0)
(-0.00510012 8.77218e-13 0)
(0.0160664 5.70685e-13 0)
(0.134148 2.94706e-13 0)
(0.294772 7.58942e-13 0)
(0.2638 -1.17291e-12 0)
(0.132883 -5.69699e-13 0)
(0.0965706 -2.75979e-13 0)
(0.112348 -2.38524e-13 0)
(0.110185 -6.70234e-14 0)
(0.0650866 -3.84399e-13 0)
(0.00720966 -5.63785e-13 0)
(-0.00945927 -6.05182e-13 0)
(-0.0917717 -0.224781 0)
(-0.0135023 -0.469206 0)
(-0.0418967 -0.577544 0)
(-0.0696298 -0.625345 0)
(-0.083688 -0.575548 0)
(-0.10638 -0.462159 0)
(-0.127242 -0.347537 0)
(-0.0654954 -0.258785 0)
(0.092892 -0.242938 0)
(0.347389 -0.241818 0)
(0.38304 -0.248758 0)
(0.173315 -0.193249 0)
(0.0634329 -0.130432 0)
(0.0204075 -0.0554649 0)
(-0.026845 -0.0316662 0)
(-0.111724 -0.0168294 0)
(-0.20444 -0.0364161 0)
(-0.213015 -0.0493402 0)
(-0.169019 -0.0360564 0)
(-0.172335 -0.0139108 0)
(-0.240437 -0.0088147 0)
(-0.306116 -0.00613709 0)
(-0.241559 -0.00285842 0)
(-0.098649 -0.000330663 0)
(-0.0285568 0.00011135 0)
(-0.0177014 4.05127e-05 0)
(-0.015247 6.81263e-05 0)
(-0.0118234 0.000173787 0)
(-0.00509391 0.000225664 0)
(0.0160625 0.00025966 0)
(0.134124 0.000195434 0)
(0.294755 4.75883e-05 0)
(0.26383 1.33538e-05 0)
(0.132932 0.000205276 0)
(0.0966082 0.000457697 0)
(0.11234 0.000685736 0)
(0.110159 0.0004518 0)
(0.0651393 0.000590928 0)
(0.00735391 0.000953809 0)
(-0.00936937 0.00142012 0)
(-0.200031 -0.742885 0)
(-0.0915532 -0.868523 0)
(-0.0572731 -0.893041 0)
(-0.0460513 -0.851404 0)
(-0.0388725 -0.745399 0)
(-0.0602559 -0.632184 0)
(-0.0880507 -0.507646 0)
(-0.0448366 -0.385983 0)
(0.0903305 -0.362551 0)
(0.34231 -0.345707 0)
(0.398295 -0.348532 0)
(0.199618 -0.263142 0)
(0.0906246 -0.173206 0)
(0.0408864 -0.0836831 0)
(-0.0184698 -0.0583316 0)
(-0.10795 -0.0474245 0)
(-0.200873 -0.0387729 0)
(-0.209244 -0.0121006 0)
(-0.169393 0.00144239 0)
(-0.174777 -0.00326372 0)
(-0.241769 -0.0118625 0)
(-0.304831 -0.0162646 0)
(-0.239307 -0.00929044 0)
(-0.0976389 -0.00103645 0)
(-0.0284664 0.000218969 0)
(-0.0177118 0.00013963 0)
(-0.0152196 0.000196651 0)
(-0.0117923 0.000398233 0)
(-0.00507513 0.000507907 0)
(0.0160577 0.000563889 0)
(0.134086 0.000434491 0)
(0.294719 -6.63478e-05 0)
(0.263846 -0.0001631 0)
(0.133012 0.000167746 0)
(0.0967104 0.000535729 0)
(0.112347 0.000857377 0)
(0.110157 0.000422885 0)
(0.0652326 0.000899513 0)
(0.00745088 0.00148851 0)
(-0.00932362 0.00213817 0)
(-0.0105965 -0.744035 0)
(-0.0174445 -0.659949 0)
(-0.0133793 -0.620376 0)
(-0.00428033 -0.584971 0)
(0.00200444 -0.547893 0)
(-0.0105748 -0.511142 0)
(-0.0181204 -0.442006 0)
(0.00163208 -0.350617 0)
(0.121117 -0.309069 0)
(0.362054 -0.223016 0)
(0.417191 -0.271842 0)
(0.25288 -0.229744 0)
(0.144562 -0.15539 0)
(0.0687864 -0.086419 0)
(-0.0137847 -0.0727383 0)
(-0.103819 -0.0757243 0)
(-0.186406 -0.067708 0)
(-0.192149 -0.0396284 0)
(-0.163044 -0.0201572 0)
(-0.177858 -0.0178239 0)
(-0.247051 -0.0217734 0)
(-0.305988 -0.0250681 0)
(-0.234611 -0.0148339 0)
(-0.0938521 -0.00181354 0)
(-0.0279236 0.000344402 0)
(-0.0177033 0.000297073 0)
(-0.0151165 0.000375353 0)
(-0.011664 0.00068742 0)
(-0.00501171 0.000889478 0)
(0.0160221 0.000965476 0)
(0.133771 0.000754069 0)
(0.294422 -0.0003254 0)
(0.263958 -0.000488106 0)
(0.133278 0.000121948 0)
(0.0969227 0.000634345 0)
(0.112262 0.000992327 0)
(0.110187 0.000565417 0)
(0.0656999 0.000866757 0)
(0.00801878 0.00142175 0)
(-0.00901476 0.00213029 0)
(-0.00625457 -0.214408 0)
(-0.0121303 -0.195369 0)
(-0.00855892 -0.18624 0)
(0.00139697 -0.181227 0)
(0.0103523 -0.188675 0)
(0.0151408 -0.191837 0)
(0.0291384 -0.174756 0)
(0.0583481 -0.150393 0)
(0.196782 -0.115301 0)
(0.367596 -0.0675609 0)
(0.38168 -0.145017 0)
(0.283274 -0.147741 0)
(0.199815 -0.11489 0)
(0.105571 -0.0838387 0)
(-0.0106763 -0.0869657 0)
(-0.105318 -0.099368 0)
(-0.173848 -0.0940648 0)
(-0.17259 -0.0639282 0)
(-0.151785 -0.0446492 0)
(-0.174682 -0.0409655 0)
(-0.245917 -0.0426501 0)
(-0.297524 -0.0410957 0)
(-0.219416 -0.0210619 0)
(-0.0850431 -0.00236792 0)
(-0.0267236 0.000606484 0)
(-0.0176864 0.00054061 0)
(-0.0148988 0.000648381 0)
(-0.0113657 0.00106583 0)
(-0.0048412 0.00137703 0)
(0.0159462 0.00150348 0)
(0.133012 0.00121907 0)
(0.293682 -0.000335878 0)
(0.264217 -0.000659209 0)
(0.133951 0.000112471 0)
(0.0974353 0.000897054 0)
(0.112326 0.00124705 0)
(0.11002 0.00120697 0)
(0.0658073 0.000991598 0)
(0.00836394 0.0012467 0)
(-0.00880646 0.00176551 0)
(0.00775006 -0.000913104 0)
(0.00969838 0.00402164 0)
(0.000247981 0.0077717 0)
(-0.00662609 0.00588793 0)
(-0.00821992 -0.0110916 0)
(0.00283751 -0.0180689 0)
(0.0218165 -0.00795528 0)
(0.0589257 -0.000685744 0)
(0.200938 0.0430415 0)
(0.333418 0.0218219 0)
(0.339927 -0.0212382 0)
(0.281912 -0.0403846 0)
(0.206141 -0.03638 0)
(0.0956951 -0.0650524 0)
(-0.0287493 -0.0936396 0)
(-0.11066 -0.117307 0)
(-0.152255 -0.106183 0)
(-0.14453 -0.0717078 0)
(-0.140916 -0.0540659 0)
(-0.175932 -0.0529204 0)
(-0.247177 -0.0567477 0)
(-0.285185 -0.0543745 0)
(-0.197291 -0.025459 0)
(-0.0729717 -0.0024579 0)
(-0.0251208 0.000907675 0)
(-0.017663 0.000856159 0)
(-0.0146104 0.00102398 0)
(-0.0109619 0.00154482 0)
(-0.00458997 0.0019481 0)
(0.0158699 0.00212761 0)
(0.131999 0.00181742 0)
(0.292612 8.48327e-05 0)
(0.26439 -0.000311331 0)
(0.134777 0.000420392 0)
(0.098016 0.0013486 0)
(0.112561 0.00135715 0)
(0.109941 0.00164212 0)
(0.0657381 0.0011664 0)
(0.00876455 0.00137686 0)
(-0.00851481 0.00208544 0)
(-0.00149927 0.00694741 0)
(-0.00376129 -0.00245544 0)
(-0.00676049 -0.00719779 0)
(-0.0167804 -0.00801551 0)
(-0.0127335 -0.00978264 0)
(0.018163 0.00308662 0)
(0.0458895 0.0265381 0)
(0.107491 0.0648529 0)
(0.218471 0.110556 0)
(0.305654 0.0824547 0)
(0.321735 0.0657575 0)
(0.268683 0.0222073 0)
(0.176044 0.00799681 0)
(0.0503939 -0.0648577 0)
(-0.0610311 -0.10461 0)
(-0.117405 -0.12406 0)
(-0.129907 -0.103765 0)
(-0.122368 -0.0755924 0)
(-0.133681 -0.0652066 0)
(-0.177266 -0.065446 0)
(-0.247318 -0.0701807 0)
(-0.267373 -0.064306 0)
(-0.169388 -0.0257959 0)
(-0.0596352 -0.00187328 0)
(-0.02353 0.00115757 0)
(-0.0175744 0.00117171 0)
(-0.0142351 0.00143184 0)
(-0.0104752 0.00205417 0)
(-0.00427961 0.00252681 0)
(0.0158203 0.00271984 0)
(0.131043 0.0024027 0)
(0.291631 0.000351598 0)
(0.26454 -0.000158505 0)
(0.135551 0.000603808 0)
(0.098338 0.0015775 0)
(0.112608 0.00111605 0)
(0.109836 0.00144869 0)
(0.0655517 0.000993582 0)
(0.00924956 0.00130558 0)
(-0.00812364 0.00222364 0)
(-0.00131086 0.026444 0)
(-0.00393245 0.0270767 0)
(-0.0051099 0.0280724 0)
(-0.00911695 0.0361064 0)
(0.00247849 0.0578969 0)
(0.0378375 0.0800342 0)
(0.0813367 0.100143 0)
(0.139888 0.136018 0)
(0.2179 0.151652 0)
(0.290249 0.145627 0)
(0.28187 0.099373 0)
(0.226252 0.0568395 0)
(0.122242 -0.00487378 0)
(-0.0128167 -0.0915043 0)
(-0.0857985 -0.124609 0)
(-0.109845 -0.120748 0)
(-0.10555 -0.0943692 0)
(-0.107374 -0.0765906 0)
(-0.131139 -0.0730321 0)
(-0.180725 -0.0757259 0)
(-0.246078 -0.0823872 0)
(-0.242414 -0.0688416 0)
(-0.137129 -0.0219825 0)
(-0.0469983 -0.000661166 0)
(-0.0221865 0.00158096 0)
(-0.0173987 0.00167979 0)
(-0.01376 0.00206856 0)
(-0.00990672 0.00278801 0)
(-0.00394851 0.00330792 0)
(0.0157503 0.00353671 0)
(0.129717 0.00324827 0)
(0.290144 0.00129994 0)
(0.264633 0.000554669 0)
(0.13645 0.00115499 0)
(0.0985096 0.00208739 0)
(0.112437 0.00131939 0)
(0.109823 0.00139552 0)
(0.0656002 0.000907239 0)
(0.00994988 0.00116807 0)
(-0.00763014 0.00220152 0)
(-0.000889658 0.0691095 0)
(-0.00219218 0.0706055 0)
(0.00194088 0.076782 0)
(0.0119597 0.0903205 0)
(0.029597 0.116276 0)
(0.058873 0.137699 0)
(0.0998374 0.152852 0)
(0.157126 0.164392 0)
(0.227731 0.180171 0)
(0.255276 0.169163 0)
(0.236177 0.109588 0)
(0.168227 0.0483944 0)
(0.0330943 -0.0651542 0)
(-0.0649876 -0.116255 0)
(-0.0892118 -0.124301 0)
(-0.0882642 -0.104351 0)
(-0.0873548 -0.0846181 0)
(-0.101807 -0.0787642 0)
(-0.132848 -0.0796987 0)
(-0.186281 -0.0850416 0)
(-0.240684 -0.091926 0)
(-0.209165 -0.0652727 0)
(-0.103687 -0.0155029 0)
(-0.0369286 0.000638836 0)
(-0.0212742 0.00202958 0)
(-0.0171045 0.00220712 0)
(-0.0131672 0.0027066 0)
(-0.00928087 0.00349537 0)
(-0.00355814 0.00405165 0)
(0.0157628 0.00426182 0)
(0.128888 0.00396812 0)
(0.289035 0.00155338 0)
(0.264401 0.000485082 0)
(0.137028 0.00116589 0)
(0.0984964 0.00213227 0)
(0.111942 0.00134992 0)
(0.109439 0.00121497 0)
(0.0653325 0.000815235 0)
(0.0104968 0.00108512 0)
(-0.00712778 0.00211845 0)
(0.000130735 0.135319 0)
(0.00346112 0.138213 0)
(0.0138883 0.145094 0)
(0.0289406 0.153645 0)
(0.0481337 0.165065 0)
(0.0730837 0.177872 0)
(0.107059 0.190888 0)
(0.166214 0.206632 0)
(0.222498 0.209483 0)
(0.222233 0.151667 0)
(0.165493 0.0738757 0)
(0.057864 -0.0297625 0)
(-0.0364207 -0.10732 0)
(-0.0698123 -0.119466 0)
(-0.074327 -0.105675 0)
(-0.0716059 -0.0883743 0)
(-0.0808936 -0.0817144 0)
(-0.102634 -0.0827681 0)
(-0.137188 -0.0855327 0)
(-0.192508 -0.0943535 0)
(-0.227028 -0.0969265 0)
(-0.16877 -0.0536872 0)
(-0.0736143 -0.00896637 0)
(-0.0301033 0.0012743 0)
(-0.0206753 0.0019713 0)
(-0.0167463 0.00223598 0)
(-0.0125186 0.00282871 0)
(-0.00861058 0.00362391 0)
(-0.00320992 0.00418253 0)
(0.0156698 0.00437097 0)
(0.127107 0.00409427 0)
(0.286787 0.00129234 0)
(0.264259 -0.000290953 0)
(0.138037 0.000235233 0)
(0.098687 0.00119696 0)
(0.111553 0.000717336 0)
(0.109308 0.000743157 0)
(0.0654751 0.000715911 0)
(0.0112057 0.00118725 0)
(-0.00663438 0.00225316 0)
(0.0018988 0.213954 0)
(0.00722652 0.212519 0)
(0.0168115 0.214214 0)
(0.0312048 0.216793 0)
(0.0529433 0.219323 0)
(0.0837572 0.219514 0)
(0.127552 0.223594 0)
(0.175045 0.227421 0)
(0.174764 0.172253 0)
(0.1246 0.0736105 0)
(0.0613452 -0.00960746 0)
(-0.00638009 -0.0919146 0)
(-0.0533474 -0.114672 0)
(-0.0634021 -0.105317 0)
(-0.0592506 -0.0888896 0)
(-0.065175 -0.0820697 0)
(-0.0819524 -0.0843702 0)
(-0.105487 -0.0869081 0)
(-0.144012 -0.0918404 0)
(-0.197261 -0.103406 0)
(-0.201497 -0.0929176 0)
(-0.124404 -0.037562 0)
(-0.0507236 -0.00501694 0)
(-0.0263886 0.000348892 0)
(-0.0203475 0.00063979 0)
(-0.0162782 0.00106506 0)
(-0.0118298 0.00180669 0)
(-0.00797628 0.00265951 0)
(-0.00283824 0.00326663 0)
(0.0156778 0.0034842 0)
(0.125921 0.00318206 0)
(0.284809 -3.98733e-05 0)
(0.263382 -0.00114836 0)
(0.138461 -6.65111e-05 0)
(0.0989609 0.000795809 0)
(0.111504 0.000280217 0)
(0.109437 0.000467057 0)
(0.0657604 0.00090008 0)
(0.0119781 0.00157365 0)
(-0.00610063 0.00264829 0)
(-0.00125225 0.262287 0)
(0.00371141 0.253428 0)
(0.0180073 0.251014 0)
(0.0338642 0.24395 0)
(0.0507556 0.231458 0)
(0.0771995 0.220363 0)
(0.114679 0.207115 0)
(0.11674 0.150794 0)
(0.0742799 0.0573758 0)
(0.0469852 -0.0105001 0)
(0.0059871 -0.0767822 0)
(-0.0433805 -0.11044 0)
(-0.049336 -0.106032 0)
(-0.0449669 -0.0903701 0)
(-0.0519248 -0.0840222 0)
(-0.0672509 -0.0868473 0)
(-0.0855561 -0.0896519 0)
(-0.109832 -0.0901508 0)
(-0.153086 -0.0987609 0)
(-0.193546 -0.10758 0)
(-0.163579 -0.0734385 0)
(-0.0840657 -0.019377 0)
(-0.037082 0.000526757 0)
(-0.0246523 0.0036446 0)
(-0.0199851 0.00452801 0)
(-0.0156218 0.00571441 0)
(-0.0109821 0.00700421 0)
(-0.00720372 0.00825389 0)
(-0.00241522 0.00912228 0)
(0.0155883 0.00959211 0)
(0.123711 0.00956 0)
(0.282614 0.00714714 0)
(0.264234 0.00769762 0)
(0.139911 0.0097839 0)
(0.0990211 0.0107414 0)
(0.111236 0.00812879 0)
(0.109905 0.00484907 0)
(0.0665415 0.00304992 0)
(0.0128903 0.00289814 0)
(-0.00559882 0.00378791 0)
(-0.00663777 0.248667 0)
(-0.00363629 0.249341 0)
(0.00767771 0.230461 0)
(0.0123602 0.206597 0)
(0.0302148 0.187281 0)
(0.0602993 0.165951 0)
(0.0605115 0.113495 0)
(0.0307505 0.035734 0)
(0.0193354 -0.0261286 0)
(-0.00467941 -0.0716067 0)
(-0.0349601 -0.108194 0)
(-0.0345665 -0.10268 0)
(-0.0340077 -0.0871321 0)
(-0.0421924 -0.0825134 0)
(-0.0558559 -0.0842372 0)
(-0.0706 -0.0849163 0)
(-0.0851357 -0.0813108 0)
(-0.114264 -0.0819822 0)
(-0.160807 -0.0907562 0)
(-0.172859 -0.0845932 0)
(-0.116502 -0.0319195 0)
(-0.0531279 0.00986904 0)
(-0.0285391 0.0217929 0)
(-0.0225329 0.0254318 0)
(-0.018353 0.0284134 0)
(-0.0138921 0.0315939 0)
(-0.00938262 0.0343448 0)
(-0.00593522 0.0369439 0)
(-0.00154868 0.0385221 0)
(0.0160996 0.0398546 0)
(0.123565 0.0413634 0)
(0.283015 0.0463857 0)
(0.265923 0.0530912 0)
(0.141395 0.0520897 0)
(0.097366 0.0446436 0)
(0.105826 0.0315915 0)
(0.104543 0.0218763 0)
(0.0638804 0.0134566 0)
(0.0126893 0.00704709 0)
(-0.00524322 0.00581647 0)
(-0.000602195 0.199563 0)
(-0.0138323 0.1989 0)
(-0.023183 0.172279 0)
(-0.00774513 0.150465 0)
(0.011588 0.12555 0)
(0.00609628 0.0758617 0)
(-0.0108029 0.00941035 0)
(-0.0178068 -0.04246 0)
(-0.0291575 -0.0728459 0)
(-0.0320958 -0.0990603 0)
(-0.0239558 -0.0899561 0)
(-0.0230847 -0.0757439 0)
(-0.0299032 -0.0689791 0)
(-0.0421772 -0.0656288 0)
(-0.0542404 -0.0590983 0)
(-0.064431 -0.0422998 0)
(-0.0827286 -0.0256462 0)
(-0.118934 -0.0246927 0)
(-0.155602 -0.0243627 0)
(-0.136849 0.0224497 0)
(-0.0725515 0.0897296 0)
(-0.0323064 0.122964 0)
(-0.0220852 0.136037 0)
(-0.0182726 0.144649 0)
(-0.0140472 0.15212 0)
(-0.00990616 0.158912 0)
(-0.00582661 0.163852 0)
(-0.00317828 0.16855 0)
(0.000389557 0.170765 0)
(0.0183262 0.17352 0)
(0.130004 0.179776 0)
(0.293916 0.199248 0)
(0.26973 0.195024 0)
(0.13177 0.168936 0)
(0.0792683 0.139818 0)
(0.0892967 0.1008 0)
(0.0924299 0.0667128 0)
(0.0522515 0.0389461 0)
(0.00552803 0.0215515 0)
(-0.00678469 0.0117881 0)
(-0.00727609 0.124594 0)
(-0.0299282 0.101483 0)
(-0.0389962 0.0803987 0)
(-0.032669 0.0595059 0)
(-0.0416758 0.0318733 0)
(-0.0516174 -0.00147216 0)
(-0.0535077 -0.0268644 0)
(-0.0485146 -0.0543537 0)
(-0.0352067 -0.0630275 0)
(-0.0211674 -0.045559 0)
(-0.0124916 -0.0280131 0)
(-0.0143522 -0.0110215 0)
(-0.0242605 0.00714564 0)
(-0.0326709 0.0315171 0)
(-0.0333752 0.0648726 0)
(-0.0383643 0.0947965 0)
(-0.0681689 0.107244 0)
(-0.113027 0.107142 0)
(-0.115379 0.133549 0)
(-0.0629157 0.200597 0)
(-0.0196425 0.249978 0)
(-0.00850416 0.267216 0)
(-0.00764217 0.274453 0)
(-0.0070352 0.279579 0)
(-0.00460939 0.283718 0)
(-0.00258602 0.287533 0)
(-9.44315e-05 0.290379 0)
(0.000726175 0.292523 0)
(0.00323985 0.292895 0)
(0.024783 0.295275 0)
(0.148358 0.302255 0)
(0.297708 0.308979 0)
(0.236714 0.269396 0)
(0.0881962 0.22851 0)
(0.0317075 0.203235 0)
(0.035379 0.167719 0)
(0.0449381 0.125068 0)
(0.0203614 0.0859154 0)
(-0.0134812 0.0526432 0)
(-0.0146516 0.0272443 0)
(-0.0228725 0.0440141 0)
(-0.0564204 0.0281409 0)
(-0.0636339 0.0241151 0)
(-0.054506 0.0218956 0)
(-0.0471727 0.0306844 0)
(-0.0505055 0.0542895 0)
(-0.0617614 0.068329 0)
(-0.0526549 0.0775614 0)
(-0.0206825 0.0914273 0)
(0.00164531 0.112282 0)
(0.00932573 0.13345 0)
(0.0107956 0.14968 0)
(0.0110885 0.164818 0)
(0.0134505 0.182855 0)
(0.00673795 0.194312 0)
(-0.0235999 0.185386 0)
(-0.0708318 0.158193 0)
(-0.0935858 0.15016 0)
(-0.0655455 0.191594 0)
(-0.0246541 0.231887 0)
(-0.00835517 0.241357 0)
(-0.0087215 0.239369 0)
(-0.0101713 0.235595 0)
(-0.00934442 0.232952 0)
(-0.00638271 0.231006 0)
(-0.00348708 0.229752 0)
(-0.00101754 0.229222 0)
(-0.000753854 0.227517 0)
(0.00304122 0.226375 0)
(0.0273464 0.227315 0)
(0.14321 0.227684 0)
(0.262251 0.19976 0)
(0.192187 0.149363 0)
(0.0680156 0.127091 0)
(0.0206879 0.128203 0)
(0.0139723 0.126735 0)
(0.0136013 0.114602 0)
(-0.0175399 0.103331 0)
(-0.0510096 0.0831653 0)
(-0.03126 0.0541216 0)
(-0.0225721 0.0188176 0)
(-0.0491036 0.0409965 0)
(-0.0450144 0.0815297 0)
(-0.0263386 0.123204 0)
(-0.0104599 0.177127 0)
(-0.0153418 0.237959 0)
(-0.031082 0.28083 0)
(-0.0262563 0.301312 0)
(-0.00174858 0.282225 0)
(0.0193269 0.248323 0)
(0.0235463 0.222636 0)
(0.0158754 0.20308 0)
(0.00770849 0.185636 0)
(-0.00424994 0.162178 0)
(-0.0309365 0.122583 0)
(-0.0731698 0.0763886 0)
(-0.102114 0.0513328 0)
(-0.0808407 0.0732742 0)
(-0.0366234 0.110204 0)
(-0.0149619 0.125621 0)
(-0.0124328 0.124787 0)
(-0.0140572 0.121814 0)
(-0.013826 0.120363 0)
(-0.011457 0.120393 0)
(-0.00769268 0.121031 0)
(-0.00430471 0.121679 0)
(-0.00224803 0.122155 0)
(-0.00201775 0.121654 0)
(0.00304493 0.12191 0)
(0.026044 0.12194 0)
(0.121804 0.117939 0)
(0.222235 0.0744294 0)
(0.166688 0.0419037 0)
(0.0678064 0.0414927 0)
(0.0313645 0.0462694 0)
(0.022272 0.048209 0)
(0.0223854 0.0456534 0)
(-0.00993202 0.0518338 0)
(-0.0609015 0.0657717 0)
(-0.0426392 0.0666541 0)
(-0.00150014 0.0368717 0)
(0.00401133 0.070107 0)
(0.0155844 0.120975 0)
(0.0376151 0.164249 0)
(0.0634092 0.215516 0)
(0.0494264 0.257695 0)
(-0.000712238 0.281543 0)
(-0.0513102 0.2733 0)
(-0.0717443 0.215566 0)
(-0.0557769 0.144843 0)
(-0.0342724 0.0949331 0)
(-0.0248597 0.0651903 0)
(-0.0283258 0.0430027 0)
(-0.0473095 0.0161095 0)
(-0.075932 -0.01529 0)
(-0.092259 -0.0299555 0)
(-0.073833 -0.000689987 0)
(-0.0368556 0.0490417 0)
(-0.015102 0.0761422 0)
(-0.0106012 0.083374 0)
(-0.0120235 0.0851944 0)
(-0.012985 0.0871486 0)
(-0.0115411 0.0904251 0)
(-0.0087004 0.0938865 0)
(-0.00514323 0.0968365 0)
(-0.0024039 0.0989394 0)
(-0.00104196 0.100095 0)
(-0.000990419 0.100759 0)
(0.00331681 0.101644 0)
(0.0235201 0.0997215 0)
(0.0974273 0.0936083 0)
(0.188981 0.0441635 0)
(0.160448 0.0163934 0)
(0.0722225 0.0259624 0)
(0.0271601 0.0227327 0)
(0.0133788 0.0139511 0)
(0.0170943 0.00349259 0)
(0.00184681 -0.00130926 0)
(-0.0367282 0.0153607 0)
(-0.0304096 0.04444 0)
(0.00945468 0.0332781 0)
(0.0319412 0.0434738 0)
(0.0457041 0.0643526 0)
(0.0647652 0.0814517 0)
(0.0795878 0.0967828 0)
(0.0482835 0.0880785 0)
(-0.0160443 0.0783486 0)
(-0.0898333 0.0609498 0)
(-0.125534 0.0258946 0)
(-0.0969198 0.00182004 0)
(-0.0532097 -0.00707218 0)
(-0.0341666 -0.0134984 0)
(-0.0395875 -0.0246171 0)
(-0.060423 -0.0343533 0)
(-0.0753264 -0.0277134 0)
(-0.0591007 0.00538044 0)
(-0.0259897 0.0523956 0)
(-0.00680245 0.082634 0)
(-0.00353946 0.0942577 0)
(-0.00623891 0.0985083 0)
(-0.00879553 0.101258 0)
(-0.00901677 0.104422 0)
(-0.00733311 0.108176 0)
(-0.00527872 0.111448 0)
(-0.00282351 0.113725 0)
(-0.00116499 0.114987 0)
(-0.000494357 0.115551 0)
(-0.000524572 0.115818 0)
(0.00204498 0.116262 0)
(0.0183003 0.113129 0)
(0.0682664 0.104812 0)
(0.147828 0.0575582 0)
(0.149148 0.0170822 0)
(0.0739152 0.0213751 0)
(0.0197899 0.0147759 0)
(0.0037315 0.00625971 0)
(0.00768003 -0.00470607 0)
(0.0015045 -0.0173377 0)
(-0.0168158 -0.0193905 0)
(-0.0146172 0.00194353 0)
(0.0083248 -0.00832884 0)
(0.0339558 -0.0064762 0)
(0.0521813 -0.00595329 0)
(0.0688661 -0.00896275 0)
(0.069795 -0.0102074 0)
(0.0316626 -0.0256074 0)
(-0.0268545 -0.0322137 0)
(-0.101857 -0.0342982 0)
(-0.128724 -0.0285912 0)
(-0.0875449 -0.00906939 0)
(-0.0490338 0.00249636 0)
(-0.0417666 0.0031722 0)
(-0.0484224 -0.000891542 0)
(-0.0502932 0.00591202 0)
(-0.0376431 0.0341958 0)
(-0.015063 0.0733014 0)
(0.000611323 0.0971447 0)
(0.00348427 0.10492 0)
(0.000195108 0.106632 0)
(-0.00385551 0.107557 0)
(-0.00632506 0.108895 0)
(-0.00631824 0.110214 0)
(-0.00477035 0.111128 0)
(-0.00335337 0.111694 0)
(-0.001733 0.11192 0)
(-0.000644882 0.11158 0)
(-0.000241435 0.111316 0)
(-0.000305027 0.11097 0)
(0.000725722 0.111188 0)
(0.0124871 0.108882 0)
(0.0438775 0.098545 0)
(0.104441 0.0649033 0)
(0.125581 0.0141381 0)
(0.0700001 0.0146842 0)
(0.0125943 0.0124987 0)
(-0.0053948 0.00561371 0)
(-0.00564508 -0.0075642 0)
(-0.0123036 -0.0117986 0)
(-0.0181481 -0.0242787 0)
(-0.00985139 -0.0474248 0)
(0.0112399 -0.296256 0)
(0.0342303 -0.136644 0)
(0.043308 -0.0603955 0)
(0.0606658 -0.0644211 0)
(0.0635484 -0.0653313 0)
(0.0270774 -0.0684085 0)
(-0.0244191 -0.0624945 0)
(-0.0863425 -0.0515715 0)
(-0.101223 -0.0199237 0)
(-0.0669627 0.00742523 0)
(-0.0414133 0.0170008 0)
(-0.0374313 0.0206013 0)
(-0.0369473 0.0288163 0)
(-0.0266115 0.0458464 0)
(-0.0103876 0.0664086 0)
(0.00155919 0.0796825 0)
(0.00447933 0.0814006 0)
(0.00234003 0.0782508 0)
(-0.000998913 0.0749613 0)
(-0.00405812 0.072994 0)
(-0.00623506 0.0724908 0)
(-0.00686532 0.0722642 0)
(-0.00590645 0.0716468 0)
(-0.00451497 0.0709954 0)
(-0.0029337 0.0705217 0)
(-0.00174737 0.069593 0)
(-0.00108163 0.0689547 0)
(-0.000648297 0.0683345 0)
(3.2656e-05 0.0685016 0)
(0.00611733 0.0677062 0)
(0.0258868 0.0582646 0)
(0.0664904 0.0360106 0)
(0.100755 -0.0109467 0)
(0.0723354 -0.0189512 0)
(0.0110493 -0.00777413 0)
(-0.0156018 -0.00221216 0)
(-0.00909912 -0.014678 0)
(-0.0146022 -0.0176565 0)
(-0.0511465 -0.111045 0)
(-0.0369217 -0.311239 0)
(0.162132 -0.751216 0)
(0.26124 -0.443452 0)
(0.121778 -0.0986609 0)
(0.0641097 -0.0651162 0)
(0.0659526 -0.0803862 0)
(0.0343962 -0.0880564 0)
(-0.0106298 -0.0879936 0)
(-0.0608339 -0.079972 0)
(-0.0718724 -0.0497872 0)
(-0.0519632 -0.0262081 0)
(-0.0363368 -0.0144607 0)
(-0.0303807 -0.00569439 0)
(-0.0240953 0.00696801 0)
(-0.0140679 0.0206541 0)
(-0.00503741 0.0291571 0)
(-0.000616223 0.0291058 0)
(-0.000768339 0.0245899 0)
(-0.00272084 0.0197182 0)
(-0.00487049 0.0158719 0)
(-0.00623621 0.0134177 0)
(-0.00702833 0.0124189 0)
(-0.0071315 0.0124533 0)
(-0.00599307 0.0130399 0)
(-0.00443761 0.0137839 0)
(-0.00308437 0.0147051 0)
(-0.0021549 0.0151588 0)
(-0.0014542 0.0156224 0)
(-0.000741574 0.0160338 0)
(0.000120336 0.0166816 0)
(0.00262228 0.017264 0)
(0.0133345 0.0130365 0)
(0.0377461 -0.00207874 0)
(0.0726173 -0.0363779 0)
(0.0730572 -0.0634783 0)
(0.0287247 -0.0465138 0)
(-0.0120476 -0.0195292 0)
(-0.0205278 -0.0199972 0)
(-0.105167 -0.0531778 0)
(-0.301055 -0.306969 0)
(-0.202766 -0.674899 0)
(0.307812 -0.472821 0)
(0.663056 -0.321644 0)
(0.407886 -0.0558419 0)
(0.078276 -0.0247395 0)
(0.0414424 -0.041141 0)
(0.0197466 -0.0501747 0)
(-0.0166287 -0.0563434 0)
(-0.0495254 -0.0563999 0)
(-0.049414 -0.0446082 0)
(-0.0329207 -0.033094 0)
(-0.0216456 -0.0248471 0)
(-0.0167818 -0.0178484 0)
(-0.011557 -0.0107351 0)
(-0.00522934 -0.00483696 0)
(-0.0022432 -0.00156297 0)
(-0.00284189 -0.00193731 0)
(-0.00456689 -0.00387263 0)
(-0.0060609 -0.0058792 0)
(-0.00707027 -0.00733873 0)
(-0.00738558 -0.00816199 0)
(-0.00716442 -0.00853147 0)
(-0.00626692 -0.00830321 0)
(-0.0046243 -0.00763427 0)
(-0.00291033 -0.00688278 0)
(-0.00160874 -0.00604935 0)
(-0.000863423 -0.00535148 0)
(-0.000238487 -0.00470914 0)
(0.000372372 -0.00408988 0)
(0.00121814 -0.00355316 0)
(0.00260476 -0.00295065 0)
(0.00724745 -0.00357134 0)
(0.0188729 -0.00926741 0)
(0.0415886 -0.0231567 0)
(0.0625681 -0.041467 0)
(0.0534002 -0.0340417 0)
(0.00995047 -0.0158604 0)
(-0.0415241 -0.0112135 0)
(-0.291138 -0.037649 0)
(-0.650259 -0.204203 0)
(-0.391472 -0.400031 0)
(0.307812 0.472821 0)
(0.663056 0.321644 0)
(0.407886 0.0558419 0)
(0.078276 0.0247395 0)
(0.0414424 0.041141 0)
(0.0197466 0.0501747 0)
(-0.0166287 0.0563434 0)
(-0.0495254 0.0563999 0)
(-0.049414 0.0446082 0)
(-0.0329207 0.033094 0)
(-0.0216456 0.0248471 0)
(-0.0167818 0.0178484 0)
(-0.011557 0.0107351 0)
(-0.00522934 0.00483696 0)
(-0.0022432 0.00156297 0)
(-0.00284189 0.00193731 0)
(-0.00456689 0.00387263 0)
(-0.0060609 0.0058792 0)
(-0.00707027 0.00733873 0)
(-0.00738558 0.00816199 0)
(-0.00716442 0.00853147 0)
(-0.00626692 0.00830321 0)
(-0.0046243 0.00763427 0)
(-0.00291033 0.00688278 0)
(-0.00160874 0.00604935 0)
(-0.000863423 0.00535148 0)
(-0.000238487 0.00470914 0)
(0.000372372 0.00408988 0)
(0.00121814 0.00355316 0)
(0.00260476 0.00295065 0)
(0.00724745 0.00357134 0)
(0.0188729 0.00926741 0)
(0.0415886 0.0231567 0)
(0.0625681 0.041467 0)
(0.0534002 0.0340417 0)
(0.00995047 0.0158604 0)
(-0.0415241 0.0112135 0)
(-0.291138 0.037649 0)
(-0.650259 0.204203 0)
(-0.391472 0.400031 0)
(0.162132 0.751216 0)
(0.26124 0.443452 0)
(0.121778 0.0986609 0)
(0.0641097 0.0651162 0)
(0.0659526 0.0803862 0)
(0.0343962 0.0880564 0)
(-0.0106298 0.0879936 0)
(-0.0608339 0.079972 0)
(-0.0718724 0.0497872 0)
(-0.0519632 0.0262081 0)
(-0.0363368 0.0144607 0)
(-0.0303807 0.00569439 0)
(-0.0240953 -0.00696801 0)
(-0.0140679 -0.0206541 0)
(-0.00503741 -0.0291571 0)