/*--------------------------------*- C++ -*----------------------------------*\
| =========                 |                                                 |
| \\      /  F ield         | OpenFOAM: The Open Source CFD Toolbox           |
|  \\    /   O peration     | Version:  v1912                                 |
|   \\  /    A nd           | Website:  www.openfoam.com                      |
|    \\/     M anipulation  |                                                 |
\*---------------------------------------------------------------------------*/
FoamFile
{
    version     2.0;
    format      ascii;
    class       volScalarField;
    location    "1.3";
    object      s;
}
// * * * * * * * * * * * * * * * * * * * * * * * * * * * * * * * * * * * * * //

dimensions      [0 2 -2 0 0 0 0];


internalField   nonuniform List<scalar> 
10000
(
-1.25144e-35
4.77365e-32
-1.75447e-29
-4.948e-27
3.07226e-24
-1.13596e-21
9.31846e-19
1.9896e-16
1.01777e-14
2.10717e-13
2.09323e-12
1.05293e-11
2.54693e-11
2.00233e-11
-1.79946e-11
-1.59593e-11
2.43674e-11
-2.98503e-12
-1.64776e-11
1.52645e-11
-1.59646e-12
-7.22605e-12
3.90058e-12
5.68938e-12
-1.13632e-11
7.96796e-12
1.98256e-12
-1.18622e-11
1.6167e-11
-1.35272e-11
6.41169e-12
1.20176e-12
-6.21981e-12
7.60125e-12
-6.13449e-12
3.43881e-12
-9.62009e-13
-5.50455e-13
1.05772e-12
-9.17759e-13
5.48142e-13
-2.24029e-13
4.08353e-14
2.32085e-14
-2.64087e-14
1.3678e-14
-4.29873e-15
6.8987e-16
1.82144e-17
-2.15919e-17
7.26447e-19
2.35303e-17
1.90488e-16
6.98564e-16
1.19144e-15
-8.70946e-16
-1.17853e-14
-3.97079e-14
-8.52634e-14
-1.25129e-13
-9.88474e-14
8.18556e-14
4.84403e-13
1.07214e-12
1.62735e-12
1.75052e-12
9.97643e-13
-8.46329e-13
-3.46608e-12
-5.886e-12
-6.70926e-12
-4.77283e-12
8.90341e-15
6.10203e-12
1.06469e-11
1.0785e-11
5.53688e-12
-2.92498e-12
-9.8616e-12
-1.07431e-11
-4.78927e-12
3.57587e-12
7.60291e-12
4.23675e-12
-2.16791e-12
-3.96789e-12
9.84108e-14
2.27643e-12
-1.15964e-12
2.403e-13
-2.34611e-14
1.0326e-15
-1.66907e-17
4.48008e-20
6.36289e-23
-6.62224e-26
-2.08436e-27
-1.23777e-29
-2.18372e-32
-4.98052e-36
-5.21356e-32
1.2494e-28
-5.92534e-26
-4.51117e-24
9.46364e-21
-4.933e-18
-4.31072e-15
-3.79846e-13
-1.19578e-11
-1.73696e-10
-1.28374e-09
-4.88323e-09
-8.49634e-09
-2.44621e-09
8.03648e-09
1.75551e-10
-7.49351e-09
5.22674e-09
1.73837e-09
-5.31656e-09
3.24657e-09
9.26149e-10
-2.86717e-09
1.26742e-09
2.01125e-09
-4.17032e-09
3.66969e-09
-9.43766e-10
-2.31779e-09
4.42691e-09
-4.60174e-09
3.13587e-09
-9.75251e-10
-8.95314e-10
1.89542e-09
-1.96766e-09
1.42596e-09
-6.96156e-10
1.03536e-10
2.15929e-10
-2.89052e-10
2.21523e-10
-1.1779e-10
3.89295e-11
-2.2906e-13
-9.46951e-12
6.84824e-12
-2.7104e-12
5.63144e-13
-6.71249e-15
1.25181e-15
1.31571e-13
3.78549e-13
3.5499e-13
-1.42109e-12
-7.43629e-12
-1.91234e-11
-3.25543e-11
-3.42205e-11
-1.7713e-12
8.5686e-11
2.2802e-10
3.83821e-10
4.64903e-10
3.6024e-10
-8.0705e-12
-6.15025e-10
-1.28695e-09
-1.72212e-09
-1.59917e-09
-7.49548e-10
6.81708e-10
2.19092e-09
3.06569e-09
2.71992e-09
1.07845e-09
-1.21984e-09
-3.01244e-09
-3.22406e-09
-1.61956e-09
8.28217e-10
2.41926e-09
1.98393e-09
3.75618e-11
-1.43369e-09
-9.35842e-10
5.60493e-10
6.3808e-10
-5.35236e-10
1.54736e-10
-2.10889e-11
1.37776e-12
-3.86759e-14
3.32949e-16
1.23855e-19
8.14978e-22
6.50569e-24
3.00829e-26
5.56605e-29
2.25996e-32
-2.7909e-29
7.77609e-26
-6.8645e-23
2.07317e-20
-4.50802e-18
2.01367e-14
3.00243e-12
1.4135e-10
2.94709e-09
3.1035e-08
1.73152e-07
4.96976e-07
5.87402e-07
-1.42397e-07
-5.85941e-07
3.40709e-07
3.33767e-07
-5.46211e-07
1.89011e-07
2.52608e-07
-3.66059e-07
1.42253e-07
1.49984e-07
-2.5678e-07
1.20296e-07
1.3364e-07
-3.23509e-07
3.3687e-07
-1.79694e-07
-5.33683e-08
2.47423e-07
-3.27644e-07
2.84142e-07
-1.60077e-07
1.94124e-08
8.51027e-08
-1.29735e-07
1.20076e-07
-7.92653e-08
3.30325e-08
1.08538e-09
-1.72756e-08
1.88618e-08
-1.30091e-08
6.07807e-09
-1.40686e-09
-5.31265e-10
7.49641e-10
-3.98927e-10
1.14295e-10
1.54237e-11
4.1459e-11
-5.34657e-12
-3.08164e-10
-1.02799e-09
-2.03131e-09
-2.56745e-09
-1.24105e-09
3.4189e-09
1.17947e-08
2.19149e-08
2.89662e-08
2.64027e-08
8.83127e-09
-2.41898e-08
-6.52496e-08
-9.91775e-08
-1.07411e-07
-7.60512e-08
-4.73427e-09
8.81129e-08
1.67879e-07
1.95821e-07
1.47554e-07
3.01033e-08
-1.12726e-07
-2.14288e-07
-2.17214e-07
-1.10304e-07
5.28485e-08
1.74388e-07
1.72769e-07
5.05838e-08
-8.89443e-08
-1.18587e-07
-1.8784e-08
7.42552e-08
2.83971e-08
-5.26961e-08
2.16653e-08
-4.07645e-09
3.8173e-10
-1.70273e-11
3.08616e-13
-1.39468e-15
-1.87249e-18
-6.48071e-21
-2.09106e-23
-3.33518e-26
-1.42612e-29
7.78419e-28
7.26395e-24
-2.591e-20
1.75833e-17
-3.84573e-14
-9.05947e-12
-6.20982e-10
-1.82422e-08
-2.67639e-07
-2.10357e-06
-8.96505e-06
-1.92361e-05
-1.3553e-05
1.35165e-05
1.20393e-05
-1.76302e-05
2.88817e-07
1.50237e-05
-1.33849e-05
4.9309e-07
9.87805e-06
-9.97161e-06
2.03179e-06
6.39489e-06
-9.13364e-06
4.99397e-06
2.75721e-06
-9.32816e-06
1.13446e-05
-8.26516e-06
2.02921e-06
4.37491e-06
-8.45268e-06
9.14036e-06
-6.89997e-06
3.16453e-06
4.59247e-07
-2.84084e-06
3.60995e-06
-3.06616e-06
1.85911e-06
-6.34537e-07
-2.02323e-07
5.48418e-07
-5.22863e-07
3.27804e-07
-1.30803e-07
1.1781e-08
2.80092e-08
-2.15636e-08
1.07285e-08
-5.19099e-09
-2.33312e-08
-5.41163e-08
-7.90475e-08
-5.92042e-08
4.88684e-08
2.623e-07
5.38299e-07
7.60525e-07
7.64579e-07
4.05483e-07
-3.53858e-07
-1.37335e-06
-2.3285e-06
-2.79092e-06
-2.38796e-06
-9.91924e-07
1.14121e-06
3.36484e-06
4.81194e-06
4.71972e-06
2.8053e-06
-4.71815e-07
-3.92843e-06
-6.04555e-06
-5.65281e-06
-2.64087e-06
1.70407e-06
5.10651e-06
5.49679e-06
2.49067e-06
-1.87923e-06
-4.20599e-06
-2.49219e-06
1.35671e-06
2.68882e-06
-1.41958e-07
-1.885e-06
1.14961e-06
-2.9709e-07
3.8742e-08
-2.56227e-09
7.9499e-11
-9.55036e-13
2.42143e-15
3.20576e-18
7.12485e-21
8.63237e-24
2.98664e-27
2.58205e-24
-5.5338e-21
-7.37615e-18
3.83864e-14
1.30159e-11
1.26744e-09
5.17693e-08
1.04302e-06
1.12722e-05
6.76894e-05
0.000222033
0.00034868
9.3562e-05
-0.00031082
-3.48672e-05
0.000299105
-0.000167551
-0.000121706
0.000249099
-0.000141475
-5.68022e-05
0.000172494
-0.000138805
7.71332e-06
0.000117816
-0.000159684
0.000102642
1.26376e-05
-0.000122887
0.000177505
-0.000158878
8.31328e-05
1.35472e-05
-9.34949e-05
0.000132334
-0.000125178
8.40454e-05
-2.96713e-05
-1.7883e-05
4.60426e-05
-5.21009e-05
4.14154e-05
-2.31738e-05
5.96708e-06
5.09103e-06
-9.01973e-06
7.80785e-06
-4.45744e-06
1.49668e-06
2.14926e-07
-8.53816e-07
-4.18818e-07
-1.38315e-06
-1.23254e-06
1.81982e-07
3.18877e-06
7.23465e-06
1.07237e-05
1.14283e-05
7.37226e-06
-2.06903e-06
-1.53294e-05
-2.85789e-05
-3.66596e-05
-3.48428e-05
-2.08704e-05
3.45488e-06
3.18936e-05
5.50939e-05
6.35105e-05
5.11423e-05
1.87996e-05
-2.45789e-05
-6.37017e-05
-8.19806e-05
-6.86532e-05
-2.53095e-05
3.16814e-05
7.57948e-05
8.24107e-05
4.42435e-05
-1.8715e-05
-6.52383e-05
-5.9191e-05
-3.96884e-06
4.69174e-05
3.48879e-05
-2.29396e-05
-2.87981e-05
2.86855e-05
-1.02262e-05
1.82019e-06
-1.70044e-07
8.0689e-09
-1.76431e-10
1.44752e-12
-2.41191e-15
-2.18695e-18
-1.5874e-21
-2.62752e-25
1.17751e-21
-3.30762e-18
-2.03337e-14
-9.50983e-12
-1.31363e-09
-7.46612e-08
-2.05867e-06
-3.02446e-05
-0.000248945
-0.00116175
-0.00293759
-0.00323179
0.000578584
0.00302589
-0.00124068
-0.00203513
0.00246337
-0.000305821
-0.00176654
0.00200957
-0.000666935
-0.00092205
0.0016134
-0.00112877
-3.63173e-05
0.00110755
-0.00151442
0.00112459
-0.000204502
-0.000787427
0.00143581
-0.00152759
0.00109453
-0.000353692
-0.000406562
0.00094117
-0.0011236
0.000964724
-0.000581326
0.000135598
0.000227601
-0.000424084
0.000443599
-0.000334785
0.000173191
-2.77269e-05
-6.08276e-05
8.90941e-05
-7.28644e-05
3.08231e-05
-2.22004e-05
-1.96227e-05
4.73209e-06
2.0829e-05
6.06511e-05
9.33596e-05
0.000101783
7.14648e-05
-1.2484e-06
-0.000104158
-0.000209521
-0.00028025
-0.000282232
-0.000198389
-3.80559e-05
0.00016164
0.00034295
0.000443161
0.000415689
0.000249716
-1.90189e-05
-0.00031166
-0.00052618
-0.000571119
-0.000404151
-6.13996e-05
0.000338174
0.000624987
0.000647481
0.000357745
-0.000127228
-0.000542222
-0.000604667
-0.000229521
0.000312105
0.000510531
0.000111137
-0.000391177
-0.000172168
0.000372242
-0.000186801
4.49534e-05
-5.74914e-06
3.90276e-07
-1.33211e-08
2.05147e-10
-1.16381e-12
1.4747e-15
3.98821e-19
-3.55555e-23
8.52814e-19
4.5552e-15
3.33378e-12
6.91327e-10
5.62819e-08
2.15322e-06
4.31111e-05
0.000481431
0.00309037
0.0113254
0.0219302
0.0153878
-0.0115436
-0.0135312
0.0136861
0.00417625
-0.0143304
0.00850451
0.00385234
-0.0109667
0.00876325
-0.000891356
-0.0063587
0.00872064
-0.00571742
-0.000193333
0.00562988
-0.00808785
0.00682315
-0.00276209
-0.00221884
0.00618857
-0.00786599
0.0069429
-0.00401354
0.000225556
0.00317816
-0.00526386
0.00564266
-0.00449593
0.00242256
-0.000185146
-0.00155368
0.00242076
-0.00239321
0.00174594
-0.000829386
-8.0328e-06
0.000345926
-0.00066275
0.00039499
-8.71502e-05
0.000379377
0.000588929
0.000522124
0.000443648
5.48739e-05
-0.000483194
-0.00100022
-0.0013439
-0.00138852
-0.0010608
-0.000392176
0.00045913
0.00125762
0.00176509
0.00180119
0.00130134
0.00036116
-0.000768635
-0.00174179
-0.00221262
-0.00195036
-0.000942988
0.000550003
0.00203094
0.00290023
0.00268204
0.00128063
-0.000841462
-0.00270505
-0.00319254
-0.00174083
0.000959587
0.00291444
0.00212131
-0.00102993
-0.00272085
0.00013056
0.00259045
-0.00192453
0.000628582
-0.000108263
1.01052e-05
-4.96714e-07
1.19956e-08
-1.26393e-10
4.74448e-13
-4.27638e-16
3.25308e-20
-2.26039e-16
-4.50253e-13
-1.68495e-10
-2.13395e-08
-1.18039e-06
-3.28721e-05
-0.000501164
-0.00438015
-0.0222754
-0.0642997
-0.0935318
-0.0325505
0.0628083
0.0230981
-0.0569102
0.0119294
0.0374168
-0.0412682
0.0088123
0.02487
-0.0354239
0.0214164
0.00324786
-0.022549
0.027435
-0.0180681
0.00107278
0.0150449
-0.023787
0.0226511
-0.0131496
-0.000533476
0.0134308
-0.0215033
0.0227189
-0.0173536
0.00758433
0.00341083
-0.0124953
0.0174209
-0.0173387
0.0129259
-0.00604216
-0.00100953
0.00654508
-0.00919841
0.0080763
-0.00648942
0.0023435
0.000862086
-0.000591354
0.00447195
0.000461498
0.00247486
0.000139877
-0.00185292
-0.0028274
-0.00439188
-0.00449766
-0.00335558
-0.00157987
0.000580502
0.0027345
0.00417002
0.00439211
0.00339209
0.00144823
-0.000948467
-0.00308342
-0.00422611
-0.0039018
-0.0020462
0.000923148
0.00413837
0.00647657
0.00689609
0.00483878
0.000590076
-0.00455675
-0.00850474
-0.00905484
-0.00507961
0.00219317
0.00867661
0.0090304
0.00115033
-0.00871358
-0.00787296
0.00607291
0.00910443
-0.0113761
0.00517028
-0.00119889
0.000150849
-1.02114e-05
3.5437e-07
-5.77588e-09
3.82522e-11
-7.96823e-14
2.92556e-17
1.28236e-14
1.49992e-11
3.58869e-09
3.13143e-07
1.26793e-05
0.000270555
0.00325686
0.0227967
0.0926927
0.209116
0.218641
0.00295926
-0.150156
0.00919396
0.104976
-0.0603585
-0.0404889
0.0832149
-0.0487762
-0.0155673
0.0588176
-0.060271
0.0293663
0.010724
-0.0392075
0.0460857
-0.0327894
0.00817874
0.0167276
-0.033033
0.0363044
-0.0269639
0.0091978
0.0108832
-0.0271359
0.0350604
-0.0329436
0.0218664
-0.00495246
-0.0131073
0.0269912
-0.0332133
0.0320409
-0.0226921
0.00591104
0.0048752
-0.0184428
0.0240772
-0.0159973
0.0192134
0.00127981
0.00144155
0.00691112
-0.0101223
-0.00201928
-0.0115808
-0.00861649
-0.00618368
-0.00562428
0.000531068
0.00371143
0.00467993
0.00566251
0.00501201
0.00235829
-0.000342566
-0.00201489
-0.00249778
-0.00136502
0.00141028
0.00497622
0.00810605
0.00956491
0.00836481
0.00419172
-0.00228235
-0.00938909
-0.0147865
-0.0161368
-0.0120372
-0.00295041
0.00823104
0.0164461
0.0161137
0.00467567
-0.0124871
-0.0199487
-0.00285113
0.0246088
0.010545
-0.0368741
0.025062
-0.00801175
0.00135853
-0.000124017
5.90541e-06
-1.36667e-07
1.35787e-09
-4.607e-12
3.06281e-15
-2.60392e-13
-1.98593e-10
-3.23288e-08
-2.03278e-06
-6.32296e-05
-0.00109228
-0.0109242
-0.0633361
-0.207209
-0.353604
-0.234777
0.0786408
0.133666
-0.0423414
-0.0767617
0.0598473
0.0249573
-0.0744266
0.059496
-0.0100461
-0.0343476
0.0527529
-0.0452197
0.0230524
0.00108908
-0.0185951
0.0260841
-0.0242614
0.0161192
-0.00541649
-0.00436418
0.010742
-0.0124121
0.00916724
-0.00245841
-0.00506222
0.0117257
-0.0157595
0.0129711
-0.00337328
-0.00481074
0.0163507
-0.0341638
0.0276814
-0.0293551
0.0209738
0.0099876
-0.00774705
0.043129
-0.0301759
0.0324554
-0.0225415
-0.00808808
-0.00250125
-0.0276878
0.00183934
-0.0151123
0.00120052
-0.00228541
0.00131426
0.00833263
0.000531551
0.00252297
0.00599478
0.00407053
0.00493217
0.00875759
0.0109683
0.0117759
0.0114137
0.00830158
0.00210397
-0.00624172
-0.0152602
-0.0227168
-0.0260124
-0.0231237
-0.013571
0.000756553
0.0154449
0.0246481
0.0235726
0.0116056
-0.00576092
-0.0183779
-0.0167967
0.000855122
0.0233901
0.0239955
-0.0212659
-0.0509874
0.0672517
-0.0320656
0.00753443
-0.000928206
5.94038e-05
-1.86775e-06
2.57991e-08
-1.25793e-10
1.24754e-13
1.4332e-12
4.93054e-10
2.41849e-08
2.28305e-07
1.53672e-05
0.00071724
0.0105882
0.0658805
0.183542
0.197488
0.014719
-0.0164881
0.0327217
-0.0702108
0.0360627
0.030243
-0.0585149
0.0399816
-0.00836876
-0.00796963
0.00514058
0.00480459
-0.00911772
0.00301756
0.0100654
-0.0228204
0.0287585
-0.0249661
0.0126518
0.00404481
-0.0200972
0.0308269
-0.0334435
0.0288261
-0.0178499
0.000880327
0.012714
-0.0178634
0.0307698
-0.0343043
0.0118991
-0.0247171
0.0121248
0.00183928
0.0142348
0.0137393
0.010322
0.019772
-0.0159278
0.0280998
-0.0479354
0.0265097
-0.0436793
-0.00549327
0.00222548
-0.0366843
0.0239928
-0.0171981
0.00573426
0.00605046
0.0155426
0.010292
0.00861925
0.0244092
0.0153405
0.00923094
0.0104435
0.0028288
-0.00718262
-0.01453
-0.0218706
-0.027625
-0.0293604
-0.0265565
-0.0188283
-0.00649445
0.00868662
0.0235419
0.0336429
0.0343055
0.022829
0.00159617
-0.0196948
-0.026218
-0.00798451
0.0251525
0.0391295
0.0041954
-0.0525357
-0.0497032
0.0306767
0.0725315
-0.0713856
0.0254826
-0.00436646
0.000376009
-1.57556e-05
2.91032e-07
-1.91867e-09
2.60825e-12
2.12169e-11
1.50374e-08
1.94884e-06
8.35479e-05
0.00148339
0.0119849
0.0446116
0.0728351
0.0712035
0.153286
0.146762
-0.157236
-0.0782887
0.153247
-0.0564219
-0.0362947
0.0467707
-0.00922439
-0.0215535
0.0229295
-0.00300795
-0.0201183
0.0334761
-0.0333266
0.0226446
-0.00704962
-0.00822032
0.0194447
-0.0246619
0.023882
-0.017918
0.00868046
0.0011237
-0.0120753
0.0179056
-0.0113105
0.0161326
-0.0145108
-0.0213071
0.00935296
-0.0184183
0.0292012
-0.0163047
0.0232972
0.0181967
0.00209201
0.0334155
-0.0275794
0.0230751
-0.0426243
0.0084847
-0.042789
0.00888241
-0.0314006
0.00772068
0.013955
-0.0290007
0.0671517
-0.0286249
0.0356142
0.0304109
-0.000512981
0.00758814
0.00850781
-0.00485064
-0.0217357
-0.0172233
-0.0229098
-0.0271572
-0.0215668
-0.0152521
-0.00694019
0.00366816
0.0135048
0.0213165
0.0259001
0.0264572
0.0232729
0.0171971
0.00940945
0.00123145
-0.0056105
-0.00830865
-0.00363891
0.00729771
0.0110852
-0.0160429
-0.0731239
-0.0819904
0.0503263
0.1599
-0.0708198
-0.060884
0.0488808
-0.0127991
0.00152676
-8.5385e-05
2.07525e-06
-1.79347e-08
3.19826e-11
-4.14608e-10
-1.94966e-07
-1.83218e-05
-0.000597249
-0.00830101
-0.0534782
-0.159539
-0.195193
-0.0675894
-0.0629286
-0.0903836
0.0376192
0.0158817
0.0201346
-0.037397
-0.00161416
0.0478482
-0.0599596
0.0396062
-0.0100308
-0.010565
0.0178048
-0.0164357
0.0128185
-0.0105481
0.00999834
-0.00937592
0.00666458
-0.00209821
-0.00424869
0.0131292
-0.0210903
0.0231065
-0.0205521
0.0263343
-0.0187557
-0.00894565
-0.00164313
-0.0159105
0.0164632
-0.0318442
0.0359886
0.00479141
0.0370478
0.00033087
0.00824132
-0.0183677
-0.00894045
-0.0308587
0.000552736
-0.0221645
0.00473332
0.00131476
0.00267997
0.0223043
-0.000857431
0.0164676
-0.0165997
0.0461771
-0.066054
0.0402464
-0.0194194
-0.0322813
0.01695
-0.0172634
-0.000428768
0.00633101
0.00784246
0.0114244
0.0150459
0.0145057
0.0139692
0.0121077
0.00902999
0.00635619
0.00358886
0.00141739
0.000564205
0.00104765
0.00237489
0.00241684
-0.00280577
-0.0172753
-0.0405425
-0.0627697
-0.0659519
-0.0366789
0.0197735
0.0869933
0.138678
0.0518724
-0.241163
0.0710985
0.0366585
-0.0217077
0.00392573
-0.00030166
9.68563e-06
-1.08543e-07
2.48522e-10
3.30957e-09
1.19948e-06
8.74785e-05
0.00220731
0.0233646
0.109463
0.203775
0.0293285
-0.271031
-0.173999
0.0450804
0.117468
-0.0210943
-0.0939242
0.0932053
-0.0306799
-0.0211776
0.0416625
-0.0396786
0.0254432
-0.00407713
-0.0199111
0.0397809
-0.0486048
0.0426373
-0.0233705
-0.00368181
0.0326251
-0.0535821
0.0597412
-0.0607586
0.0510681
-0.0162988
0.00190285
0.00564334
-0.047934
0.0389885
-0.0505858
0.033367
-0.0282774
0.0496607
0.00291
0.0123861
-0.00539685
-0.012167
-0.00783828
-0.0145478
0.00778958
-0.00726274
0.0153147
-0.00759359
0.0150407
-0.0209884
0.0192954
-0.034873
0.0151303
-0.0538791
0.0205476
-0.0293866
0.00780371
-0.0294246
0.045656
0.00346197
0.00733096
0.0496055
0.00816137
0.0362591
0.0126395
0.0108072
0.00134432
-0.00949879
-0.0149473
-0.0206656
-0.0207617
-0.0169982
-0.0125562
-0.00737517
-0.0046717
-0.00681634
-0.0137898
-0.0240587
-0.034058
-0.0390523
-0.0335927
-0.0104639
0.0382201
0.108368
0.157343
0.103359
-0.0740748
-0.203376
-0.087829
0.19552
-0.0428946
-0.0135873
0.00576266
-0.000674296
2.96755e-05
-4.36011e-07
1.27797e-09
-1.59705e-08
-4.56817e-06
-0.000259625
-0.00499114
-0.0386012
-0.120728
-0.111
0.0604516
0.0196488
-0.0332427
0.113557
-0.0238451
-0.0419833
0.0249343
-0.00301322
0.00253367
0.00197091
-0.0220654
0.0409018
-0.0378595
0.00882699
0.0336573
-0.0705038
0.0868796
-0.078703
0.051006
-0.0139547
-0.0254707
0.0569622
-0.0666242
0.0718314
-0.0645045
0.0342676
-0.0137563
-0.00744061
0.0287138
-0.0684997
0.0440331
-0.0482804
0.0779005
-0.0312839
0.0237499
-0.00522894
-0.0150505
0.0377891
-0.0458688
0.0600679
-0.0576822
0.056188
-0.038306
0.0168972
-0.0163227
-0.00233853
-0.00392058
0.00799381
-0.0170405
0.0219164
-0.0088843
0.0351117
-0.00742201
0.0143186
0.0104903
0.0151639
0.0128351
-0.0246057
0.034266
-0.0297852
0.0104557
-0.0148061
-0.0123701
-0.00738424
-0.0120166
-0.0135198
-0.00875165
-0.00864577
-0.0083607
-0.00467732
-0.00109595
0.0041254
0.0118504
0.0219286
0.0353553
0.0519996
0.0683683
0.0755893
0.0616312
0.0199182
-0.0446866
-0.121409
-0.176909
-0.0875536
0.194365
0.111272
-0.125861
0.0234472
0.0020364
-0.000798207
5.61379e-05
-1.14471e-06
4.39588e-09
5.08742e-08
1.13212e-05
0.000483336
0.00656206
0.0313688
0.0387475
-0.0218877
0.103213
0.302747
0.0183575
-0.0916985
0.0466124
-0.0204815
-0.0254625
0.0607091
-0.0340975
-0.0396926
0.103646
-0.116904
0.0785439
-0.015879
-0.0412242
0.0752983
-0.0791796
0.0589855
-0.0286796
-0.000675379
0.0234157
-0.0415996
0.0403323
-0.0161061
0.0216054
0.0014057
-0.0410066
0.00667685
-0.0440937
0.0409694
0.0162348
0.0212407
0.00285485
-0.0251412
0.0266165
-0.0162357
0.0150947
-0.00882333
0.0141768
-0.00759561
0.0267093
-0.025394
0.0437748
-0.0229786
0.0338597
0.0152318
0.00836852
0.0571864
-0.0135418
0.0511436
0.00279395
0.0283814
0.00873693
0.0169359
-0.011751
0.0309804
-0.0165365
0.0313675
-0.0395446
0.0352081
-0.0299073
0.00893451
-0.0107679
0.00564229
0.00349316
0.0113525
0.0233387
0.0216529
0.0235888
0.0236046
0.0194278
0.0182272
0.0183106
0.0169015
0.00969776
-0.00852645
-0.0381224
-0.0731995
-0.103172
-0.11423
-0.0873498
-0.00655008
0.0969853
0.126955
0.0669281
-0.0259913
-0.113347
0.0618531
-0.0091435
9.08867e-05
4.74292e-05
-1.76624e-06
9.73826e-09
-1.05603e-07
-1.70543e-05
-0.000469351
-0.00278441
0.00857442
0.0826827
0.112734
-0.00104796
0.105259
0.111992
-0.103811
-0.0432853
0.0300267
0.0786358
-0.120536
0.0664485
0.0202242
-0.0813357
0.0986376
-0.0794392
0.0421972
-0.00506725
-0.0289851
0.0519727
-0.0519833
0.0404161
-0.0234009
0.00106863
0.0306515
-0.0458425
0.04775
-0.0509182
0.034148
-0.0135329
-0.00761083
0.0396445
-0.0440543
0.0396294
-0.055804
0.0404207
0.00709866
-0.0111495
0.0279109
-0.0359797
0.0291451
-0.0348667
0.00108358
0.0115658
-0.0115449
0.0411821
0.00365479
0.0448835
0.025251
0.0496612
0.0181968
0.0741996
-0.00110251
0.0828202
0.010957
0.0796362
0.0297138
0.0645765
0.0211908
0.0619489
0.00225061
0.0482303
-0.0426424
0.0287576
-0.0467906
-0.00592094
-0.0222158
-0.0235089
0.00127983
0.00261408
0.000623974
0.00186239
-0.0143102
-0.0368094
-0.0560431
-0.0691285
-0.0677347
-0.0535638
-0.0335965
-0.0136844
0.00591215
0.0333538
0.0736139
0.111577
0.115813
0.0670868
-0.0324042
-0.124528
-0.00490919
-0.0190119
0.0484598
-0.016775
0.00177124
-4.16378e-05
-8.34161e-07
1.17674e-08
1.27282e-07
1.13722e-05
1.22146e-05
-0.00382503
-0.0291803
-0.0396083
0.0661614
0.0712867
-0.0117318
-0.0093303
-0.154466
0.117993
0.0411799
-0.134312
0.132461
-0.082573
0.0200917
0.0357979
-0.0720086
0.0757467
-0.0446711
0.00732014
0.0255171
-0.0601443
0.0609155
-0.0366288
0.0196766
0.00722082
-0.0231511
0.0492481
-0.0477894
0.0360158
-0.0449125
0.008904
-0.00557585
-0.0151915
0.0468322
-0.0353038
0.0650895
-0.0675829
0.0148638
-0.0550755
-0.0130203
-0.0107816
-0.0459873
0.0315438
-0.0375
0.0307754
0.00758618
0.0209742
0.0431669
0.0243912
0.0560846
0.0562004
0.060465
0.0650509
0.0954073
0.0497342
0.0952184
0.075585
0.0703106
0.0691354
0.0482197
0.0275957
0.0344277
-0.0132734
0.00666019
-0.0428364
-0.0257169
-0.0510941
-0.0492668
-0.0487103
-0.0448234
-0.0337544
-0.0243693
-0.00545496
-0.00262365
0.00119774
0.00240243
0.00995127
0.0316846
0.0594304
0.0846376
0.0931504
0.0751232
0.0364305
-0.00627032
-0.0410673
-0.0725798
-0.0982212
-0.0718684
0.0120034
0.0307596
0.0380472
-0.00927481
-0.0071468
0.00206579
-0.000142343
2.13347e-06
9.78025e-10
-5.79972e-08
3.54975e-06
0.000302928
0.00206377
-0.0152133
-0.121812
-0.226478
-0.21982
-0.231805
0.0819123
0.133437
-0.173033
0.101534
0.0191482
-0.113744
0.122298
-0.0534093
-0.0296948
0.0760102
-0.0758225
0.026965
0.02414
-0.0254044
0.032274
-0.031869
-0.0137199
0.0282609
-0.0235074
0.0354765
-0.00893743
-0.00583332
-0.00157844
-0.032064
0.0310459
-0.0138444
0.018852
-0.0377531
-0.00835585
-0.040433
-0.0161132
-0.0253037
-0.0154598
-0.0164338
-0.0481216
0.0136203
-0.0659545
0.0485923
-0.0410189
0.0639374
0.02762
0.0708103
0.09658
0.0765012
0.113351
0.102489
0.0873826
0.120057
0.0794415
0.0716739
0.0840422
0.0616124
0.0291228
0.0670149
-0.00729044
0.042485
-0.0228958
0.0101962
-0.014534
-0.0251546
-0.0357838
-0.025686
-0.0601713
-0.0257651
-0.0553887
-0.0130522
-0.00500964
0.00753513
0.00917631
-0.00618743
-0.0141338
-0.0167637
-0.0176632
-0.0214816
-0.0441166
-0.0799119
-0.101407
-0.0847846
-0.0353549
0.0143728
0.0411096
0.0491494
0.0498938
0.0129893
-0.0109898
-0.0202647
0.006434
0.000101594
-9.89917e-05
3.84551e-06
-1.79249e-08
-2.44557e-08
-5.1137e-06
7.74633e-05
0.00445012
0.0285335
0.0272782
-0.053928
0.0268242
0.0960119
-0.12253
-0.0416677
0.158563
-0.0871854
-0.0478207
0.101527
-0.0621709
-0.00151832
0.0260401
0.00136488
-0.0251792
0.0383609
-0.0645678
0.0160178
0.0490818
-0.0381195
0.0621956
-0.0628
0.0274047
-0.0156344
-0.0292052
0.0433988
-0.0590861
0.0541332
-0.0577375
0.0232079
-0.0176992
-0.0120006
0.0125045
-0.070067
0.00641215
-0.095708
-0.0203408
-0.0856735
-0.00966883
-0.0270976
0.0176449
0.0180674
0.0605448
0.0674756
0.0993067
0.112753
0.101267
0.15129
0.0849722
0.160702
0.0844988
0.136337
0.102861
0.085984
0.071407
0.0820888
0.0432754
0.0300613
0.0472223
-0.000567372
0.0127919
-0.0346835
-0.0143934
-0.0794769
-0.0381733
-0.125807
-0.0756085
-0.14231
-0.0935318
-0.113741
-0.0561425
-0.0398161
-0.0292548
-0.0379725
-0.0455311
-0.0470013
-0.0155223
0.0305389
0.047639
0.0289104
0.0088852
0.0374231
0.0985843
0.0921184
-0.00424398
-0.0428843
0.00156753
-0.014717
-0.035847
0.0194729
0.000924063
-0.000809817
2.96425e-05
1.45685e-06
-2.06399e-08
2.29137e-09
-5.44461e-06
-0.000257551
-0.00122219
0.00939162
0.0242846
-0.128905
-0.4172
-0.2972
0.26445
0.141644
-0.209053
0.0704611
0.000277202
0.0268795
-0.059637
0.0496995
-0.013288
-0.043775
0.0693721
-0.0218729
0.0289938
-0.0369192
-0.042981
0.0249931
-0.00306983
0.0274034
0.0139906
0.000636705
-0.0168441
-0.0238807
-0.0151875
0.00664359
0.00255348
0.00421594
-0.0221698
-0.0341673
-0.0610361
-0.0554813
-0.0696923
-0.0516079
-0.070301
-0.0210226
-0.0513836
-0.00607091
0.00437021
0.0358372
0.0783956
0.0781556
0.125876
0.100161
0.159817
0.0940099
0.171834
0.0930734
0.132462
0.0731993
0.098768
0.0486768
0.0390585
0.0171053
0.0344165
-0.0175395
0.00088611
-0.00560563
-0.0237912
-0.0230444
-0.0338014
-0.0606847
-0.0644242
-0.0606086
-0.116359
-0.0588537
-0.131544
-0.0602837
-0.0768843
0.00307608
0.0198942
0.0426631
0.0161774
-0.0236008
-0.0133692
0.0264691
0.0576132
0.0391699
-0.0340033
-0.0767854
-0.0232197
0.0217087
-0.0708613
-0.0907574
0.0984724
-0.056101
0.0312711
0.00676403
-0.00574783
0.000478548
1.86979e-05
-7.9509e-07
-4.44675e-09
3.18176e-08
3.67673e-06
2.28187e-05
0.000887285
0.0253356
0.153493
0.379224
0.556028
0.268614
-0.172082
0.0326636
-0.104992
0.10281
0.00563565
-0.0952814
0.101187
-0.0480709
0.0138731
0.00066275
-0.0319092
-0.0244019
0.0667945
0.00361577
0.0144988
-0.0106197
-0.0328171
0.0165174
-0.0615749
0.0349094
-0.0222024
0.0216762
0.0236047
-0.0245711
0.0187161
-0.0735536
-0.00579945
-0.102368
-0.0441107
-0.104052
-0.0911742
-0.103577
-0.10138
-0.0620821
-0.0509279
0.0212118
0.0290417
0.0880796
0.0711153
0.112238
0.0767218
0.101704
0.0686242
0.0884402
0.0312672
0.0818073
0.0144913
0.022964
0.0355159
-0.00344938
0.027613
-0.0277847
0.0189159
-0.0148101
0.0070222
-0.0118024
0.0159439
0.0120526
-0.00297021
0.0162666
-0.0378801
-0.0129814
-0.0383564
-0.0558405
-0.0534812
-0.130533
-0.124797
-0.155897
-0.0805503
-0.0371486
-0.0262967
-0.049728
-0.0603779
-0.0511893
0.00161039
0.0458474
0.0171083
-0.0458694
-0.0290768
0.0667816
0.0401474
-0.0609461
0.108297
-0.0500586
0.0236117
-0.0167024
0.00218164
0.000352798
-4.0696e-05
4.19582e-07
7.07876e-10
-1.87273e-08
-4.95736e-06
-0.00037041
-0.00676046
-0.0323484
-0.0472166
-0.148079
-0.322401
-0.0722787
-0.136944
0.0233835
0.142335
-0.130441
0.0527439
-0.0207148
0.0338377
-0.0647838
0.0612146
0.00419708
-0.00523747
0.00643193
-0.0821519
0.0225557
0.0168815
-0.00252884
0.046086
-0.00314736
0.0216841
-0.0302468
-0.0259619
-0.00415305
-0.023695
0.00951116
-0.0492195
-0.0490182
-0.0853983
-0.107384
-0.113115
-0.150808
-0.114303
-0.119556
-0.0401077
-0.0588552
0.0328661
-0.00127431
0.0586505
0.010206
0.049959
-0.0169179
0.0460844
-0.0348393
0.0289176
-0.0376083
0.0191375
-0.0281298
0.0436807
-0.0323246
0.0340514
0.0124619
-0.0058057
0.0233971
-0.0317371
0.0140832
-0.0255343
0.0336911
-0.0397567
0.0532527
-0.0265913
0.0134094
-0.0030423
-0.0384496
0.00756631
-0.0138362
0.0419548
-0.0034611
-0.0496526
-0.123347
-0.127485
-0.0301549
0.0191458
0.0689707
0.0586078
0.0279723
0.0385316
0.0637899
0.0629655
0.0101851
-0.0459392
-0.00863933
0.0384326
-0.0445766
0.0173851
-0.021731
-0.0113571
0.00870374
0.000701736
-0.000378155
8.31157e-06
5.52745e-07
-4.62011e-09
7.42331e-08
1.6919e-05
0.000510879
0.00227431
-0.00516408
0.0374115
0.200381
-0.0283983
-0.0782024
0.264385
-0.017028
-0.00259541
-0.100217
0.0956193
-0.0114073
-0.0360664
0.027773
-0.017281
-0.0367969
0.0508578
0.0170596
0.00667524
0.0178842
-0.0290711
-0.0115523
-0.0251524
-0.0405355
0.032207
-0.02549
0.0647854
-0.00976497
0.00662672
-0.0484787
-0.0984189
-0.0856478
-0.169467
-0.118211
-0.208273
-0.115868
-0.148445
-0.0459433
-0.0695928
0.00453466
-0.0160777
0.00302764
-0.0232571
-0.032084
-0.0502341
-0.0701308
-0.0738562
-0.0851134
-0.0791608
-0.0728313
-0.0620859
-0.0492246
-0.0218144
-0.0163373
-0.0167081
0.017451
0.00278726
0.0216894
0.023647
0.0232381
0.0169696
0.0567079
0.0483348
0.0448768
0.0917179
0.0192343
0.0713939
-0.00664752
0.0186078
0.0129148
0.0457697
0.130428
0.0819076
0.0309665
-0.114816
-0.102182
-0.0538682
-0.00429076
0.00531609
-0.0124198
-0.0190436
-0.0266077
-0.00759996
0.0113854
-0.0127407
-0.0320354
0.0192771
0.0246375
-0.0322084
0.0106721
0.0125496
0.00223062
-0.00364022
0.000449042
-1.44039e-06
-3.81677e-07
2.47394e-10
-1.37738e-07
-1.63338e-05
-0.000229042
-0.000885265
-0.0123565
-0.0149186
0.290661
0.5382
0.0324413
-0.00148867
-0.11703
-0.0815963
0.114013
0.015958
-0.0851109
0.0352414
0.056893
-0.0574465
0.00501747
0.0132587
-0.0693302
0.0531107
-0.0102557
0.00167497
0.0524006
-0.00789877
0.0321589
-0.0261229
-0.0205609
-0.00162922
-0.0606014
-0.0225797
-0.12474
-0.0744863
-0.161104
-0.165564
-0.195738
-0.188519
-0.109034
-0.0987596
-0.0198829
-0.0627841
0.00902684
-0.10068
-0.0212231
-0.143611
-0.0484492
-0.157639
-0.0502956
-0.142636
-0.0216408
-0.116321
0.00511339
-0.0864575
0.0251774
-0.0564062
0.0423046
-0.0424732
0.0510757
-0.0536275
0.050004
-0.0418887
0.023232
-0.0276085
-0.0100599
0.0191419
-0.00312718
0.0589294
0.0349223
0.0584108
0.0249458
-0.0237344
-0.00656468
-0.0755996
0.0196223
0.106254
0.109626
0.0892238
-0.103795
-0.0622567
-0.0165876
-0.00554045
0.0227065
0.0505259
0.0594975
0.0661885
0.0780181
0.0768487
0.0141666
-0.0437025
0.00912143
-0.0173232
0.0252834
-0.00464479
-0.00968144
0.00258296
0.000118004
-3.56495e-05
7.88554e-07
-6.80115e-10
1.51021e-07
1.50964e-05
0.00024974
0.00010321
-0.0261157
-0.178178
-0.273496
0.0830938
-0.0417689
-0.243401
0.0556254
0.0494348
0.0404913
-0.0624127
0.00110347
0.0414944
-0.0525202
0.0166893
0.0519794
-0.0440631
0.0438811
0.0218023
-0.0838629
0.0368798
-0.0417255
-0.0231368
0.036962
-0.0178833
0.0738125
-0.038012
-0.00587782
-0.113668
-0.129047
-0.168009
-0.258123
-0.203972
-0.24034
-0.0678923
-0.11194
-0.00108006
-0.0764392
-0.0302419
-0.0830874
-0.0697569
-0.0679195
-0.0524287
-0.0304144
-0.0114183
0.00219238
0.0116888
0.0253792
0.0194325
0.0239952
0.029709
-0.00468235
0.0413568
-0.0297261
0.0345694
-0.0367828
0.0240514
-0.0838313
0.0380579
-0.106753
0.0161878
-0.0954399
-0.0306779
-0.0652187
-0.0289322
-0.000606948
0.0070665
0.0865206
0.0222122
0.0394959
-0.0326174
-0.0944473
-0.0108177
0.0630785
0.184194
0.113088
-0.0618216
0.0265963
0.0056145
-0.0048193
0.0120599
0.0483881
0.0548686
0.0147049
0.00328147
0.00114519
-0.0589406
-0.0209014
0.039678
-0.00388958
-0.0107765
0.00485001
0.00111955
-0.000473962
2.24991e-05
3.05833e-07
-5.41369e-09
-1.83036e-07
-1.33766e-05
0.000109169
0.0057091
0.0288407
-0.0200359
-0.273279
-0.259832
-0.000305204
-0.070029
0.153032
0.0847194
-0.0955345
-0.0500975
0.0522705
0.0404185
-0.064005
0.00664622
0.0212529
-0.0264629
0.0128813
-0.0144854
0.0259281
0.0283661