/*--------------------------------*- C++ -*----------------------------------*\
| =========                 |                                                 |
| \\      /  F ield         | OpenFOAM: The Open Source CFD Toolbox           |
|  \\    /   O peration     | Version:  v1912                                 |
|   \\  /    A nd           | Website:  www.openfoam.com                      |
|    \\/     M anipulation  |                                                 |
\*---------------------------------------------------------------------------*/
FoamFile
{
    version     2.0;
    format      ascii;
    class       volVectorField;
    location    "0.34";
    object      grad(T);
}
// * * * * * * * * * * * * * * * * * * * * * * * * * * * * * * * * * * * * * //

dimensions      [0 -1 0 1 0 0 0];


internalField   nonuniform List<vector> 
1900
(
(0 0 0)
(0 0 0)
(0 0 0)
(0 0 0)
(0 -2.1684e-15 0)
(0 0 0)
(0 -2.1684e-15 0)
(-3.17021e-12 0 0)
(-5.61244e-10 -1.50704e-12 0)
(-1.59797e-08 -2.92147e-10 0)
(0 0 0)
(0 0 0)
(0 0 0)
(0 0 0)
(0 0 0)
(2.1684e-15 0 0)
(0 2.1684e-15 0)
(-4.67942e-12 0 0)
(-8.53389e-10 -2.43512e-12 0)
(-2.55761e-08 -4.99485e-10 0)
(0 0 0)
(0 0 0)
(0 0 0)
(0 0 0)
(0 0 0)
(2.1684e-15 0 0)
(0 0 0)
(-5.60533e-12 0 0)
(-1.06073e-09 -1.30104e-14 0)
(-3.16426e-08 -2.1684e-15 0)
(0 0 0)
(0 0 0)
(0 2.1684e-15 0)
(0 0 0)
(0 0 0)
(0 0 0)
(0 -2.1684e-15 0)
(-4.69026e-12 0 0)
(-8.53391e-10 2.25948e-12 0)
(-2.55761e-08 4.99472e-10 0)
(0 0 0)
(2.1684e-15 0 0)
(-2.1684e-15 0 0)
(2.1684e-15 0 0)
(-2.1684e-15 2.1684e-15 0)
(0 0 0)
(0 0 0)
(-3.34585e-12 0 0)
(-5.61257e-10 1.34441e-12 0)
(-1.59795e-08 2.92136e-10 0)
(-7.48077e-07 -8.32155e-09 9.82067e-16)
(-8.30332e-06 -3.14795e-07 -1.18882e-15)
(-2.21497e-05 -3.94064e-06 -1.50583e-15)
(2.03933e-05 -1.68629e-05 0)
(0.00622685 -3.96291e-05 -6.45359e-15)
(-1.12094e-06 -1.35873e-08 9.82067e-16)
(-1.19913e-05 -4.69368e-07 1.18882e-15)
(-3.35163e-05 -5.2602e-06 1.50583e-15)
(6.03482e-06 -2.04821e-05 0)
(0.00606604 -4.38403e-05 0)
(-1.30665e-06 -1.96413e-14 0)
(-1.33431e-05 1.11749e-13 0)
(-3.73571e-05 -7.52918e-14 0)
(-1.11312e-06 3.77828e-13 0)
(0.00612859 3.29133e-13 0)
(-1.12094e-06 1.35873e-08 9.82067e-16)
(-1.19913e-05 4.69368e-07 1.18882e-15)
(-3.35163e-05 5.2602e-06 1.50583e-15)
(6.03482e-06 2.04821e-05 0)
(0.00606604 4.38403e-05 0)
(-7.48077e-07 8.32155e-09 -2.9462e-15)
(-8.30332e-06 3.14795e-07 -1.18882e-15)
(-2.21497e-05 3.94064e-06 -1.50583e-15)
(2.03933e-05 1.68629e-05 -4.10681e-15)
(0.00622685 3.96291e-05 6.45359e-15)
(0.0418456 -0.000759831 2.74129e-15)
(0.0956473 -0.00359518 -2.33303e-15)
(0.120173 -0.010335 0)
(0.113055 -0.0151592 1.82229e-15)
(-0.184713 -0.0452473 -8.23297e-16)
(0.0407645 -0.000410689 -1.37063e-15)
(0.0923645 -0.00107858 1.16646e-15)
(0.115543 -0.0079467 0)
(0.0971227 -0.00790282 -1.13859e-15)
(-0.0928037 -0.0954586 2.04765e-16)
(0.0415955 4.59965e-13 0)
(0.0933417 2.96534e-13 0)
(0.118383 3.61401e-14 0)
(0.0752852 -7.79492e-14 4.55339e-16)
(-0.107096 -1.29977e-13 -4.0953e-16)
(0.0407645 0.000410689 -1.37063e-15)
(0.0923645 0.00107858 1.16646e-15)
(0.115543 0.0079467 0)
(0.0971227 0.00790282 -1.13859e-15)
(-0.0928037 0.0954586 2.04765e-16)
(0.0418456 0.000759831 1.37063e-15)
(0.0956473 0.00359518 1.08275e-19)
(0.120173 0.010335 0)
(0.113055 0.0151592 -4.56547e-19)
(-0.184713 0.0452473 8.23297e-16)
(-0.417098 0.691025 0)
(-0.0809491 0.407461 0)
(0.188216 0.102042 0)
(0.118821 0.0140319 0)
(0.0469213 -0.000348144 0)
(0.00759628 -8.7831e-05 0)
(0.000338309 -9.85861e-07 0)
(2.51422e-06 -9.69785e-10 0)
(2.05954e-09 -7.0966e-14 0)
(1.36018e-13 -3.94255e-15 0)
(0 0 0)
(0 3.94255e-15 0)
(0 -3.94255e-15 0)
(0 0 0)
(1.97128e-15 -3.94255e-15 0)
(-1.97128e-15 0 0)
(0 0 0)
(1.97128e-15 0 0)
(9.85638e-16 -1.18277e-14 0)
(-2.95692e-15 7.88511e-15 0)
(0 -3.94255e-15 0)
(0 3.94255e-15 0)
(1.97128e-15 0 0)
(9.85638e-16 -1.18277e-14 0)
(-2.95692e-15 7.88511e-15 0)
(0 -3.94255e-15 0)
(0 0 0)
(0 0 0)
(0 -3.94255e-15 0)
(0 -3.94255e-15 0)
(-2.47395e-13 -3.94255e-15 0)
(-3.05438e-09 -1.18277e-14 0)
(-3.75778e-06 2.75979e-14 0)
(-0.000509908 -7.88511e-15 0)
(-0.0116459 -8.27936e-14 0)
(-0.0752244 -8.67362e-14 0)
(-0.222445 3.27232e-13 0)
(-0.434887 3.78485e-13 0)
(-0.215516 2.75979e-13 0)
(0.0610104 2.83864e-13 0)
(-0.332351 0.217462 0)
(-0.142606 0.290145 0)
(0.134646 0.0443255 0)
(0.108335 0.00178856 0)
(0.0464943 -0.00276491 0)
(0.0080913 -0.000227929 0)
(0.000375101 -2.12256e-06 0)
(2.8505e-06 -1.9199e-09 0)
(2.36029e-09 -1.97128e-13 0)
(1.5376e-13 3.94255e-15 0)
(1.97128e-15 0 0)
(0 0 0)
(-1.97128e-15 0 0)
(0 0 0)
(0 3.94255e-15 0)
(0 0 0)
(0 0 0)
(0 0 0)
(1.97128e-15 -3.94255e-15 0)
(0 -7.88511e-15 0)
(0 0 0)
(0 0 0)
(-1.97128e-15 0 0)
(1.97128e-15 -3.94255e-15 0)
(0 -7.88511e-15 0)
(-1.97128e-15 3.94255e-15 0)
(0 0 0)
(0 0 0)
(0 0 0)
(0 0 0)
(-2.30639e-13 0 0)
(-3.05437e-09 1.41932e-13 0)
(-3.75778e-06 -2.75979e-14 0)
(-0.000509908 -2.75979e-14 0)
(-0.0116459 -7.49085e-14 0)
(-0.0752244 5.51957e-14 0)
(-0.222445 3.19347e-13 0)
(-0.434887 2.36553e-13 0)
(-0.215516 3.15404e-14 0)
(0.0610104 8.67362e-14 0)
(-0.286837 1.93185e-13 0)
(-0.131316 3.43002e-13 0)
(0.104331 2.36553e-14 0)
(0.105122 -2.36553e-13 0)
(0.0463347 3.94255e-14 0)
(0.0084 1.02506e-13 0)
(0.000404615 3.5483e-14 0)
(3.1317e-06 -8.27936e-14 0)
(2.61805e-09 -2.12898e-13 0)
(1.94171e-13 0 0)
(-1.97128e-15 0 0)
(0 -3.94255e-15 0)
(0 0 0)
(0 0 0)
(1.97128e-15 0 0)
(-1.97128e-15 0 0)
(0 0 0)
(0 0 0)
(0 0 0)
(0 -3.94255e-15 0)
(0 0 0)
(0 -3.94255e-15 0)
(0 -3.94255e-15 0)
(0 0 0)
(1.97128e-15 -3.94255e-15 0)
(0 0 0)
(-1.97128e-15 0 0)
(0 -3.94255e-15 0)
(0 0 0)
(0 0 0)
(-2.06984e-13 0 0)
(-3.05438e-09 9.06787e-14 0)
(-3.75778e-06 3.15404e-14 0)
(-0.000509908 3.15404e-14 0)
(-0.0116459 -4.49451e-13 0)
(-0.0752244 2.36553e-14 0)
(-0.222445 1.6953e-13 0)
(-0.434887 -3.5483e-14 0)
(-0.215516 -2.36553e-13 0)
(0.0610104 -2.72036e-13 0)
(-0.332351 -0.217462 0)
(-0.142606 -0.290145 0)
(0.134646 -0.0443255 0)
(0.108335 -0.00178856 0)
(0.0464943 0.00276491 0)
(0.0080913 0.000227929 0)
(0.000375101 2.12256e-06 0)
(2.8505e-06 1.91979e-09 0)
(2.36032e-09 -3.94255e-15 0)
(2.1684e-13 -3.94255e-15 0)
(0 0 0)
(0 0 0)
(0 0 0)
(0 0 0)
(0 -3.94255e-15 0)
(0 0 0)
(0 0 0)
(0 0 0)
(0 0 0)
(0 0 0)
(0 0 0)
(-1.97128e-15 0 0)
(0 -3.94255e-15 0)
(1.97128e-15 0 0)
(0 0 0)
(0 -3.94255e-15 0)
(-1.97128e-15 0 0)
(0 -3.94255e-15 0)
(1.97128e-15 0 0)
(0 0 0)
(-2.04027e-13 0 0)
(-3.05436e-09 -3.5483e-14 0)
(-3.75778e-06 9.06787e-14 0)
(-0.000509908 -1.57702e-14 0)
(-0.0116459 -6.34751e-13 0)
(-0.0752244 1.57702e-14 0)
(-0.222445 -3.5483e-14 0)
(-0.434887 -2.28668e-13 0)
(-0.215516 -3.07519e-13 0)
(0.0610104 -2.08955e-13 0)
(-0.417098 -0.691025 0)
(-0.0809491 -0.407461 0)
(0.188216 -0.102042 0)
(0.118821 -0.0140319 0)
(0.0469213 0.000348144 0)
(0.00759628 8.7831e-05 0)
(0.000338309 9.85861e-07 0)
(2.51422e-06 9.69793e-10 0)
(2.05957e-09 1.77415e-13 0)
(1.92199e-13 3.94255e-15 0)
(0 0 0)
(0 0 0)
(0 3.94255e-15 0)
(0 0 0)
(0 0 0)
(0 0 0)
(0 0 0)
(0 0 0)
(0 0 0)
(1.97128e-15 3.94255e-15 0)
(-1.97128e-15 0 0)
(0 0 0)
(0 7.88511e-15 0)
(0 0 0)
(1.97128e-15 3.94255e-15 0)
(-1.97128e-15 0 0)
(0 0 0)
(0 7.88511e-15 0)
(0 0 0)
(0 3.94255e-15 0)
(-2.1684e-13 0 0)
(-3.05436e-09 -1.57702e-14 0)
(-3.75778e-06 -3.94255e-15 0)
(-0.000509908 3.94255e-14 0)
(-0.0116459 -2.24726e-13 0)
(-0.0752244 1.49817e-13 0)
(-0.222445 -2.28668e-13 0)
(-0.434887 -3.19347e-13 0)
(-0.215516 -2.56266e-13 0)
(0.0610104 -7.49085e-14 0)
(-0.0502723 -0.562225 0)
(0.155556 -0.326677 0)
(0.319493 -0.116658 0)
(0.160436 -0.026856 0)
(0.0548575 -0.00347858 0)
(0.0084459 -0.000133616 0)
(0.000362547 -8.84396e-07 0)
(2.62092e-06 -6.50057e-10 0)
(2.09973e-09 5.95102e-14 0)
(1.35683e-13 -1.1902e-15 0)
(0 0 0)
(0 0 0)
(0 -1.1902e-15 0)
(0 0 0)
(0 0 0)
(0 1.1902e-15 0)
(0 0 0)
(0 0 0)
(0 0 0)
(0 -1.1902e-15 0)
(0 0 0)
(0 0 0)
(0 0 0)
(0 0 0)
(0 -1.1902e-15 0)
(0 0 0)
(0 1.1902e-15 0)
(0 0 0)
(0 0 0)
(0 -1.1902e-15 0)
(-1.98764e-13 0 0)
(-3.05437e-09 3.21355e-14 0)
(-3.75778e-06 0 0)
(-0.000509908 4.6418e-14 0)
(-0.0116459 1.39254e-13 0)
(-0.0752244 2.17807e-13 0)
(-0.222445 -1.21401e-13 0)
(-0.434887 -1.90433e-13 0)
(-0.215516 -8.09339e-14 0)
(0.0610104 -4.76082e-14 0)
(-0.0379512 -0.129267 0)
(0.221594 -0.136855 0)
(0.40674 -0.065366 0)
(0.20557 -0.020317 0)
(0.0684164 -0.00315909 0)
(0.0104919 -0.00014525 0)
(0.000454069 -1.11964e-06 0)
(3.30925e-06 -9.39308e-10 0)
(2.66445e-09 -5.47494e-14 0)
(1.66629e-13 0 0)
(0 0 0)
(0 0 0)
(0 0 0)
(0 0 0)
(0 0 0)
(0 -1.1902e-15 0)
(0 0 0)
(0 0 0)
(0 0 0)
(0 0 0)
(0 0 0)
(0 0 0)
(0 0 0)
(0 0 0)
(0 1.1902e-15 0)
(1.1902e-15 0 0)
(-1.1902e-15 0 0)
(0 0 0)
(0 0 0)
(0 0 0)
(-1.96384e-13 0 0)
(-3.05435e-09 7.14123e-15 0)
(-3.75778e-06 3.80866e-14 0)
(-0.000509908 -9.75968e-14 0)
(-0.0116459 1.45205e-13 0)
(-0.0752244 4.52278e-14 0)
(-0.222445 8.09339e-14 0)
(-0.434887 1.1902e-14 0)
(-0.215516 0 0)
(0.0610104 2.38041e-15 0)
(-0.0575849 -0.0123095 0)
(0.217133 -0.0361989 0)
(0.431793 -0.0186319 0)
(0.220381 -0.00708904 0)
(0.0742957 -0.00119259 0)
(0.011489 -5.7707e-05 0)
(0.000502514 -4.63719e-07 0)
(3.69984e-06 -4.03257e-10 0)
(3.00488e-09 -2.14237e-14 0)
(1.89243e-13 0 0)
(0 0 0)
(0 0 0)
(0 0 0)
(0 0 0)
(0 0 0)
(0 0 0)
(0 0 0)
(0 0 0)
(0 0 0)
(0 0 0)
(0 0 0)
(0 0 0)
(0 0 0)
(0 0 0)
(0 -1.1902e-15 0)
(1.1902e-15 1.1902e-15 0)
(0 -1.1902e-15 0)
(0 1.1902e-15 0)
(-1.1902e-15 0 0)
(0 0 0)
(-1.91623e-13 0 0)
(-3.05433e-09 1.30923e-14 0)
(-3.75778e-06 2.26139e-14 0)
(-0.000509908 -2.26139e-14 0)
(-0.0116459 1.29732e-13 0)
(-0.0752244 -1.58297e-13 0)
(-0.222445 1.7615e-13 0)
(-0.434887 1.45205e-13 0)
(-0.215516 3.21355e-14 0)
(0.0610104 3.09453e-14 0)
(-0.0609719 -0.000621026 0)
(0.215501 -0.00418105 0)
(0.434791 -0.00230486 0)
(0.222375 -0.000971266 0)
(0.0751921 -0.000162856 0)
(0.0116407 -7.67218e-06 0)
(0.000509677 -6.01164e-08 0)
(3.7561e-06 -5.13597e-11 0)
(3.05304e-09 -5.95102e-15 0)
(1.86862e-13 0 0)
(0 1.1902e-15 0)
(0 0 0)
(0 0 0)
(0 0 0)
(0 0 0)
(0 0 0)
(0 -1.1902e-15 0)
(0 0 0)
(0 0 0)
(0 -1.1902e-15 0)
(0 0 0)
(0 0 0)
(0 0 0)
(0 0 0)
(0 0 0)
(0 -1.1902e-15 0)
(0 0 0)
(0 -1.1902e-15 0)
(0 0 0)
(0 0 0)
(-1.83292e-13 0 0)
(-3.05433e-09 1.1902e-15 0)
(-3.75778e-06 -2.38041e-15 0)
(-0.000509908 2.85649e-14 0)
(-0.0116459 5.71298e-14 0)
(-0.0752244 -2.14237e-13 0)
(-0.222445 1.08309e-13 0)
(-0.434887 7.85535e-14 0)
(-0.215516 -3.57061e-14 0)
(0.0610104 -2.61845e-14 0)
(-0.0610154 -9.38495e-05 0)
(0.215511 -0.000133847 0)
(0.434887 -7.83109e-05 0)
(0.222445 -3.3816e-05 0)
(0.0752242 -5.44065e-06 0)
(0.0116459 -2.3942e-07 0)
(0.000509907 -1.74317e-09 0)
(3.75777e-06 -1.36516e-12 0)
(3.05437e-09 -8.68849e-14 0)
(1.94003e-13 0 0)
(1.1902e-15 -1.1902e-15 0)
(-1.1902e-15 0 0)
(0 0 0)
(0 0 0)
(0 0 0)
(-1.1902e-15 0 0)
(0 0 0)
(1.1902e-15 0 0)
(-1.1902e-15 0 0)
(0 0 0)
(1.1902e-15 0 0)
(0 0 0)
(0 0 0)
(0 0 0)
(0 0 0)
(0 0 0)
(0 0 0)
(0 0 0)
(0 0 0)
(0 0 0)
(-1.90433e-13 0 0)
(-3.05433e-09 -1.78531e-14 0)
(-3.75778e-06 -1.54727e-14 0)
(-0.000509908 -7.49829e-14 0)
(-0.0116459 -7.02221e-14 0)
(-0.0752244 -7.02221e-14 0)
(-0.222445 3.33257e-14 0)
(-0.434887 -5.11788e-14 0)
(-0.215516 -9.04556e-14 0)
(0.0610104 -5.59396e-14 0)
(-0.0610105 -6.35927e-06 0)
(0.215516 -1.11162e-06 0)
(0.434887 -4.92115e-07 0)
(0.222445 -2.00763e-07 0)
(0.0752244 -2.91579e-08 0)
(0.0116459 -1.1524e-09 0)
(0.000509908 -7.4602e-12 0)
(3.75778e-06 4.16572e-14 0)
(3.05436e-09 -2.38041e-14 0)
(2.70176e-13 0 0)
(0 -1.1902e-15 0)
(0 1.1902e-15 0)
(0 0 0)
(0 0 0)
(0 0 0)
(0 0 0)
(0 1.1902e-15 0)
(0 0 0)
(0 0 0)
(0 1.1902e-15 0)
(0 0 0)
(0 0 0)
(0 0 0)
(0 0 0)
(0 0 0)
(0 0 0)
(0 0 0)
(0 0 0)
(0 0 0)
(0 0 0)
(-2.02335e-13 0 0)
(-3.05434e-09 -8.21241e-14 0)
(-3.75778e-06 -1.78531e-14 0)
(-0.000509908 -1.90433e-14 0)
(-0.0116459 -1.1902e-15 0)
(-0.0752244 7.61731e-14 0)
(-0.222445 -5.95102e-15 0)
(-0.434887 -5.95102e-15 0)
(-0.215516 3.57061e-15 0)
(0.0610104 1.90433e-14 0)
(-0.0610104 -9.07294e-08 0)
(0.215516 -4.93066e-09 0)
(0.434887 -5.59964e-10 0)
(0.222445 -1.42842e-10 0)
(0.0752244 -1.27364e-11 0)
(0.0116459 -6.51042e-13 0)
(0.000509908 2.02335e-14 0)
(3.75778e-06 -1.1902e-14 0)
(3.05433e-09 8.56947e-14 0)
(2.15427e-13 0 0)
(1.1902e-15 0 0)
(1.1902e-15 0 0)
(-1.1902e-15 0 0)
(0 0 0)
(0 0 0)
(0 0 0)
(0 0 0)
(0 1.1902e-15 0)
(0 0 0)
(0 0 0)
(0 0 0)
(0 0 0)
(0 0 0)
(0 0 0)
(0 0 0)
(0 0 0)
(-1.1902e-15 0 0)
(1.1902e-15 0 0)
(0 0 0)
(0 0 0)
(-2.67796e-13 0 0)
(-3.05435e-09 -7.37927e-14 0)
(-3.75778e-06 -9.52164e-15 0)
(-0.000509908 6.30809e-14 0)
(-0.0116459 1.28542e-13 0)
(-0.0752244 4.16572e-14 0)
(-0.222445 -5.2369e-14 0)
(-0.434887 2.38041e-14 0)
(-0.215516 9.04556e-14 0)
(0.0610104 6.66515e-14 0)
(-0.0610104 -1.5048e-10 0)
(0.215516 -7.096e-12 0)
(0.434887 -3.10643e-13 0)
(0.222445 -4.87984e-14 0)
(0.0752244 7.14123e-15 0)
(0.0116459 -1.86862e-13 0)
(0.000509908 5.11788e-14 0)
(3.75778e-06 -2.14237e-14 0)
(3.05437e-09 2.49943e-14 0)
(1.88052e-13 0 0)
(1.1902e-15 1.1902e-15 0)
(0 0 0)
(-1.1902e-15 0 0)
(0 0 0)
(0 0 0)
(0 0 0)
(1.1902e-15 0 0)
(-1.1902e-15 0 0)
(0 0 0)
(0 0 0)
(0 0 0)
(0 0 0)
(0 0 0)
(0 0 0)
(0 0 0)
(0 0 0)
(0 0 0)
(0 0 0)
(0 0 0)
(0 0 0)
(-2.72557e-13 0 0)
(-3.05435e-09 6.78417e-14 0)
(-3.75778e-06 -1.1902e-14 0)
(-0.000509908 -5.71298e-14 0)
(-0.0116459 8.21241e-14 0)
(-0.0752244 -3.57061e-15 0)
(-0.222445 -9.8787e-14 0)
(-0.434887 -5.95102e-14 0)
(-0.215516 2.38041e-14 0)
(0.0610104 3.57061e-15 0)
(-0.0610104 1.07118e-14 0)
(0.215516 0 0)
(0.434887 0 0)
(0.222445 3.45159e-14 0)
(0.0752244 -8.92654e-14 0)
(0.0116459 2.26139e-14 0)
(0.000509908 1.90433e-14 0)
(3.75778e-06 1.30923e-14 0)
(3.05435e-09 -1.30923e-14 0)
(1.94003e-13 0 0)
(0 0 0)
(0 -1.1902e-15 0)
(0 -1.1902e-15 0)
(0 0 0)
(0 0 0)
(0 -1.1902e-15 0)
(0 -1.1902e-15 0)
(0 -1.1902e-15 0)
(0 0 0)
(0 0 0)
(0 0 0)
(0 0 0)
(0 0 0)
(0 0 0)
(0 0 0)
(0 0 0)
(0 0 0)
(0 1.1902e-15 0)
(0 0 0)
(0 0 0)
(-2.02335e-13 0 0)
(-3.05436e-09 9.2836e-14 0)
(-3.75778e-06 -1.54727e-14 0)
(-0.000509908 -2.61845e-14 0)
(-0.0116459 -1.1902e-13 0)
(-0.0752244 4.52278e-14 0)
(-0.222445 -7.14123e-14 0)
(-0.434887 -6.54613e-14 0)
(-0.215516 -2.38041e-15 0)
(0.0610104 -3.21355e-14 0)
(-0.0610104 2.73747e-14 0)
(0.215516 2.26139e-14 0)
(0.434887 -1.1902e-15 0)
(0.222445 8.33143e-14 0)
(0.0752244 -6.66515e-14 0)
(0.0116459 2.18998e-13 0)
(0.000509908 -4.87984e-14 0)
(3.75778e-06 0 0)
(3.05436e-09 -7.97437e-14 0)
(1.99954e-13 0 0)
(0 0 0)
(-1.1902e-15 0 0)
(0 0 0)
(1.1902e-15 0 0)
(-1.1902e-15 0 0)
(-1.1902e-15 0 0)
(1.1902e-15 0 0)
(1.1902e-15 0 0)
(0 0 0)
(0 0 0)
(0 0 0)
(0 0 0)
(0 0 0)
(0 0 0)
(0 0 0)
(0 0 0)
(1.1902e-15 0 0)
(0 -1.1902e-15 0)
(-1.1902e-15 0 0)
(0 0 0)
(-1.84482e-13 0 0)
(-3.05437e-09 -5.832e-14 0)
(-3.75778e-06 2.73747e-14 0)
(-0.000509908 -2.14237e-14 0)
(-0.0116459 -1.45205e-13 0)
(-0.0752244 1.02358e-13 0)
(-0.222445 7.97437e-14 0)
(-0.434887 -2.97551e-14 0)
(-0.215516 3.68963e-14 0)
(0.0610104 1.90433e-14 0)
(-0.0610104 -2.76128e-13 0)
(0.215516 -2.58274e-13 0)
(0.434887 -5.07027e-13 0)
(0.222445 -6.70085e-13 0)
(0.0752244 -5.84391e-13 0)
(0.0116459 -6.9746e-13 0)
(0.000509908 -6.93889e-13 0)
(3.75778e-06 -6.66515e-13 0)
(3.05435e-09 -7.03411e-13 0)
(2.71367e-13 -7.02221e-13 0)
(0 -7.59351e-13 0)
(0 -6.9984e-13 0)
(0 -7.01031e-13 0)
(0 -7.59351e-13 0)
(0 -7.71253e-13 0)
(0 -7.62921e-13 0)
(0 -7.10552e-13 0)
(0 -6.91509e-13 0)
(0 -7.62921e-13 0)
(0 -7.73633e-13 0)
(0 -7.73633e-13 0)
(0 -7.73633e-13 0)
(0 -7.71253e-13 0)
(0 -7.20074e-13 0)
(0 -7.05791e-13 0)
(0 -7.62921e-13 0)
(0 -7.73633e-13 0)
(0 -7.76014e-13 0)
(0 -7.73633e-13 0)
(0 -7.77204e-13 0)
(-2.58274e-13 -7.77204e-13 0)
(-3.05434e-09 -7.98627e-13 0)
(-3.75778e-06 -7.85535e-13 0)
(-0.000509908 -8.04578e-13 0)
(-0.0116459 -7.12933e-13 0)
(-0.0752244 -6.30809e-13 0)
(-0.222445 -5.8082e-13 0)
(-0.434887 -5.05837e-13 0)
(-0.215516 -2.47563e-13 0)
(0.0610104 -2.67796e-13 0)
(-0.0610104 -3.53523e-09 0)
(0.215516 -3.6275e-09 0)
(0.434887 -6.00478e-09 0)
(0.222445 -7.19626e-09 0)
(0.0752244 -7.73466e-09 0)
(0.0116459 -7.81922e-09 0)
(0.000509908 -7.82256e-09 0)
(3.75778e-06 -7.82271e-09 0)
(3.05432e-09 -7.82259e-09 0)
(1.46395e-13 -7.82267e-09 0)
(3.57061e-15 -7.82269e-09 0)
(5.35592e-14 -7.82266e-09 0)
(-5.71298e-14 -7.82269e-09 0)
(-6.66515e-14 -7.8227e-09 0)
(-4.76082e-15 -7.82272e-09 0)
(5.71298e-14 -7.82272e-09 0)
(7.02221e-14 -7.82271e-09 0)
(-4.99886e-14 -7.82267e-09 0)
(-7.85535e-14 -7.82269e-09 0)
(-1.07118e-14 -7.82272e-09 0)
(0 -7.82271e-09 0)
(1.1902e-15 -7.82274e-09 0)
(5.2369e-14 -7.82274e-09 0)
(6.30809e-14 -7.8227e-09 0)
(-4.16572e-14 -7.82271e-09 0)
(-6.42711e-14 -7.82269e-09 0)
(-1.30923e-14 -7.82269e-09 0)
(1.1902e-15 -7.82269e-09 0)
(-2.38041e-15 -7.82271e-09 0)
(-2.38041e-15 -7.82271e-09 0)
(-2.03525e-13 -7.82269e-09 0)
(-3.05438e-09 -7.8227e-09 0)
(-3.75778e-06 -7.82257e-09 0)
(-0.000509908 -7.8227e-09 0)
(-0.0116459 -7.81895e-09 0)
(-0.0752244 -7.73472e-09 0)
(-0.222445 -7.1959e-09 0)
(-0.434887 -6.00472e-09 0)
(-0.215516 -3.62743e-09 0)
(0.0610104 -3.53514e-09 0)
(-0.0610104 -4.14323e-06 0)
(0.215516 -4.14051e-06 0)
(0.434887 -6.01023e-06 0)
(0.222445 -6.82391e-06 0)
(0.0752244 -7.21286e-06 0)
(0.0116459 -7.27711e-06 0)
(0.000509908 -7.27995e-06 0)
(3.75778e-06 -7.27997e-06 0)
(3.0544e-09 -7.27997e-06 0)
(1.67819e-13 -7.27997e-06 0)
(5.95102e-15 -7.27997e-06 0)
(0 -7.27997e-06 0)
(-3.92768e-14 -7.27997e-06 0)
(-2.73747e-14 -7.27997e-06 0)
(-1.54727e-14 -7.27997e-06 0)
(1.66629e-14 -7.27997e-06 0)
(4.28474e-14 -7.27997e-06 0)
(1.30923e-14 -7.27997e-06 0)
(-4.87984e-14 -7.27997e-06 0)
(-2.14237e-14 -7.27997e-06 0)
(-1.66629e-14 -7.27997e-06 0)
(-2.38041e-14 -7.27997e-06 0)
(3.68963e-14 -7.27997e-06 0)
(2.61845e-14 -7.27997e-06 0)
(1.1902e-14 -7.27997e-06 0)
(2.38041e-14 -7.27997e-06 0)
(1.1902e-15 -7.27997e-06 0)
(-2.49943e-14 -7.27997e-06 0)
(-1.54727e-14 -7.27997e-06 0)
(1.78531e-14 -7.27997e-06 0)
(-2.52323e-13 -7.27997e-06 0)
(-3.05422e-09 -7.27997e-06 0)
(-3.75778e-06 -7.27997e-06 0)
(-0.000509908 -7.27995e-06 0)
(-0.0116459 -7.27711e-06 0)
(-0.0752244 -7.21286e-06 0)
(-0.222445 -6.82391e-06 0)
(-0.434887 -6.01023e-06 0)
(-0.215516 -4.14051e-06 0)
(0.0610104 -4.14323e-06 0)
(-0.0610104 -0.000540216 0)
(0.215515 -0.000525394 0)
(0.434885 -0.000687021 0)
(0.222444 -0.000748418 0)
(0.075224 -0.000780316 0)
(0.0116459 -0.00078601 0)
(0.000509905 -0.000786287 0)
(3.75776e-06 -0.00078629 0)
(3.05423e-09 -0.00078629 0)
(2.52323e-13 -0.00078629 0)
(-5.95102e-15 -0.00078629 0)
(-3.57061e-15 -0.00078629 0)
(1.1902e-15 -0.00078629 0)
(6.66515e-14 -0.00078629 0)
(1.1902e-15 -0.00078629 0)
(-6.66515e-14 -0.00078629 0)
(1.90433e-14 -0.00078629 0)
(8.80752e-14 -0.00078629 0)
(7.97437e-14 -0.00078629 0)
(2.26139e-14 -0.00078629 0)
(-2.02335e-14 -0.00078629 0)
(-7.49829e-14 -0.00078629 0)
(2.38041e-15 -0.00078629 0)
(1.21401e-13 -0.00078629 0)
(3.92768e-14 -0.00078629 0)
(-4.16572e-14 -0.00078629 0)
(-3.57061e-14 -0.00078629 0)
(-2.26139e-14 -0.00078629 0)
(-3.57061e-15 -0.00078629 0)
(3.33257e-14 -0.00078629 0)
(-2.96361e-13 -0.00078629 0)
(-3.05451e-09 -0.00078629 0)
(-3.75776e-06 -0.00078629 0)
(-0.000509905 -0.000786287 0)
(-0.0116459 -0.00078601 0)
(-0.075224 -0.000780316 0)
(-0.222444 -0.000748418 0)
(-0.434885 -0.000687021 0)
(-0.215515 -0.000525394 0)
(0.0610104 -0.000540216 0)
(-0.0609961 -0.0119452 0)
(0.215375 -0.0113073 0)
(0.434672 -0.013747 0)
(0.222355 -0.0145887 0)
(0.0751882 -0.0150588 0)
(0.0116402 -0.015151 0)
(0.000509638 -0.015156 0)
(3.75558e-06 -0.0151561 0)
(3.05273e-09 -0.0151561 0)
(1.71389e-13 -0.0151561 0)
(4.28474e-14 -0.0151561 0)
(5.95102e-15 -0.0151561 0)
(-6.54613e-14 -0.0151561 0)
(-1.60678e-13 -0.0151561 0)
(-1.30923e-14 -0.0151561 0)
(1.67819e-13 -0.0151561 0)
(3.57061e-15 -0.0151561 0)
(-2.03525e-13 -0.0151561 0)
(-9.52164e-14 -0.0151561 0)
(9.75968e-14 -0.0151561 0)
(5.35592e-14 -0.0151561 0)
(2.38041e-14 -0.0151561 0)
(-6.30809e-14 -0.0151561 0)
(-1.77341e-13 -0.0151561 0)
(-9.64066e-14 -0.0151561 0)
(4.40376e-14 -0.0151561 0)
(1.26162e-13 -0.0151561 0)
(-2.49943e-14 -0.0151561 0)
(-9.64066e-14 -0.0151561 0)
(9.52164e-15 -0.0151561 0)
(-9.16458e-14 -0.0151561 0)
(-3.05222e-09 -0.0151561 0)
(-3.75558e-06 -0.0151561 0)
(-0.000509638 -0.015156 0)
(-0.0116402 -0.015151 0)
(-0.0751882 -0.0150588 0)
(-0.222355 -0.0145887 0)
(-0.434672 -0.013747 0)
(-0.215375 -0.0113073 0)
(0.0609961 -0.0119452 0)
(-0.0603957 -0.0752271 0)
(0.213778 -0.069523 0)
(0.431723 -0.0809345 0)
(0.22118 -0.0849901 0)
(0.0746821 -0.0872274 0)
(0.0115522 -0.0877065 0)
(0.000505032 -0.0877349 0)
(3.71417e-06 -0.0877352 0)
(3.01122e-09 -0.0877352 0)
(1.7496e-13 -0.0877352 0)
(-7.02221e-14 -0.0877352 0)
(1.27352e-13 -0.0877352 0)
(1.40444e-13 -0.0877352 0)
(-5.95102e-15 -0.0877352 0)
(-6.90319e-14 -0.0877352 0)
(-6.54613e-14 -0.0877352 0)
(-6.42711e-14 -0.0877352 0)
(-2.85649e-14 -0.0877352 0)
(-2.85649e-14 -0.0877352 0)
(-7.14123e-14 -0.0877352 0)
(1.1902e-14 -0.0877352 0)
(9.8787e-14 -0.0877352 0)
(6.54613e-14 -0.0877352 0)
(-4.28474e-14 -0.0877352 0)
(-3.57061e-14 -0.0877352 0)
(5.95102e-14 -0.0877352 0)
(6.18906e-14 -0.0877352 0)
(7.49829e-14 -0.0877352 0)
(1.20211e-13 -0.0877352 0)
(0 -0.0877352 0)
(-4.36805e-13 -0.0877352 0)
(-3.0113e-09 -0.0877352 0)
(-3.71417e-06 -0.0877352 0)
(-0.000505032 -0.0877349 0)
(-0.0115522 -0.0877065 0)
(-0.0746821 -0.0872274 0)
(-0.22118 -0.0849901 0)
(-0.431723 -0.0809345 0)
(-0.213778 -0.069523 0)
(0.0603957 -0.0752271 0)
(-0.0554994 -0.212758 0)
(0.209875 -0.198735 0)
(0.419768 -0.225872 0)
(0.216291 -0.237445 0)
(0.0725706 -0.242326 0)
(0.0111511 -0.243374 0)
(0.00048199 -0.24344 0)
(3.49082e-06 -0.243441 0)
(2.77807e-09 -0.243441 0)
(1.20211e-13 -0.243441 0)
(-1.40444e-13 -0.243441 0)
(-1.13069e-13 -0.243441 0)
(4.76082e-14 -0.243441 0)
(2.05905e-13 -0.243441 0)
(7.85535e-14 -0.243441 0)
(-3.92768e-14 -0.243441 0)
(9.8787e-14 -0.243441 0)
(1.7496e-13 -0.243441 0)
(6.42711e-14 -0.243441 0)
(-2.73747e-14 -0.243441 0)
(5.95102e-15 -0.243441 0)
(3.45159e-14 -0.243441 0)
(5.47494e-14 -0.243441 0)
(7.49829e-14 -0.243441 0)
(-3.21355e-14 -0.243441 0)
(-1.55917e-13 -0.243441 0)
(-1.47585e-13 -0.243441 0)
(-9.52164e-15 -0.243441 0)
(9.40262e-14 -0.243441 0)
(6.66515e-14 -0.243441 0)
(-2.82079e-13 -0.243441 0)
(-2.77839e-09 -0.243441 0)
(-3.49082e-06 -0.243441 0)
(-0.00048199 -0.24344 0)
(-0.0111511 -0.243374 0)
(-0.0725706 -0.242326 0)
(-0.216291 -0.237445 0)
(-0.419768 -0.225872 0)
(-0.209875 -0.198735 0)
(0.0554994 -0.212758 0)
(-0.0468832 -0.34367 0)
(0.201141 -0.36624 0)
(0.394421 -0.421155 0)
(0.205324 -0.447426 0)
(0.0689687 -0.459042 0)
(0.0104788 -0.461581 0)
(0.000440565 -0.461734 0)
(3.05518e-06 -0.461735 0)
(2.29811e-09 -0.461735 0)
(1.64248e-13 -0.461735 0)
(-1.07118e-14 -0.461735 0)
(-3.33257e-14 -0.461735 0)
(3.92768e-14 -0.461735 0)
(3.45159e-14 -0.461735 0)
(-9.04556e-14 -0.461735 0)
(-1.28542e-13 -0.461735 0)
(-4.87984e-14 -0.461735 0)
(1.07118e-14 -0.461735 0)
(2.38041e-15 -0.461735 0)
(1.07118e-14 -0.461735 0)
(1.54727e-14 -0.461735 0)
(2.73747e-14 -0.461735 0)
(5.71298e-14 -0.461735 0)
(6.30809e-14 -0.461735 0)
(4.76082e-15 -0.461735 0)
(-7.14123e-14 -0.461735 0)
(-3.09453e-14 -0.461735 0)
(3.21355e-14 -0.461735 0)
(1.54727e-14 -0.461735 0)
(-2.38041e-15 -0.461735 0)
(-1.99954e-13 -0.461735 0)
(-2.29802e-09 -0.461735 0)
(-3.05517e-06 -0.461735 0)
(-0.000440565 -0.461734 0)
(-0.0104788 -0.461581 0)
(-0.0689687 -0.459042 0)
(-0.205324 -0.447426 0)
(-0.394421 -0.421155 0)
(-0.201141 -0.36624 0)
(0.0468832 -0.34367 0)
(-0.0772489 -0.175998 0)
(0.135208 -0.144744 0)
(0.341534 -0.213294 0)
(0.179781 -0.222074 0)
(0.0589302 -0.225872 0)
(0.00855773 -0.227261 0)
(0.000333655 -0.227362 0)
(2.07839e-06 -0.227363 0)
(1.36659e-09 -0.227363 0)
(1.1664e-13 -0.227363 0)
(3.21355e-14 -0.227363 0)
(2.02335e-14 -0.227363 0)
(1.66629e-14 -0.227363 0)
(-2.26139e-14 -0.227363 0)
(4.76082e-15 -0.227363 0)
(-1.66629e-14 -0.227363 0)
(-7.85535e-14 -0.227363 0)
(-1.54727e-14 -0.227363 0)
(1.90433e-14 -0.227363 0)
(-9.52164e-15 -0.227363 0)
(3.68963e-14 -0.227363 0)
(4.40376e-14 -0.227363 0)
(-1.66629e-14 -0.227363 0)
(-4.76082e-14 -0.227363 0)
(-3.57061e-14 -0.227363 0)
(2.02335e-14 -0.227363 0)
(5.35592e-14 -0.227363 0)
(0 -0.227363 0)
(-4.6418e-14 -0.227363 0)
(-1.07118e-14 -0.227363 0)
(-1.01167e-13 -0.227363 0)
(-1.36661e-09 -0.227363 0)
(-2.07839e-06 -0.227363 0)
(-0.000333655 -0.227362 0)
(-0.00855773 -0.227261 0)
(-0.0589302 -0.225872 0)
(-0.179781 -0.222074 0)
(-0.341534 -0.213294 0)
(-0.135208 -0.144744 0)
(0.0772489 -0.175998 0)
(-0.0167653 0.0187317 0)
(0.165201 0.0814977 0)
(0.319903 0.0498568 0)
(0.193204 0.0590505 0)
(0.0639703 0.0637861 0)
(0.00904269 0.0642808 0)
(0.000341841 0.0642894 0)
(2.06531e-06 0.0642893 0)
(1.31861e-09 0.0642893 0)
(1.23781e-13 0.0642893 0)
(5.2369e-14 0.0642893 0)
(2.49943e-14 0.0642893 0)
(-4.87984e-14 0.0642893 0)
(-5.95102e-15 0.0642893 0)
(3.21355e-14 0.0642893 0)
(-1.78531e-14 0.0642893 0)
(-4.76082e-14 0.0642893 0)
(-4.76082e-15 0.0642893 0)
(1.1902e-14 0.0642893 0)
(-4.76082e-15 0.0642893 0)
(3.09453e-14 0.0642893 0)
(5.832e-14 0.0642893 0)
(1.1902e-14 0.0642893 0)
(-4.16572e-14 0.0642893 0)
(-3.21355e-14 0.0642893 0)
(3.57061e-15 0.0642893 0)
(1.42825e-14 0.0642893 0)
(1.1902e-15 0.0642893 0)
(-8.33143e-15 0.0642893 0)
(0 0.0642893 0)
(-1.32113e-13 0.0642893 0)
(-1.31872e-09 0.0642893 0)
(-2.06531e-06 0.0642893 0)
(-0.000341841 0.0642894 0)
(-0.00904269 0.0642808 0)
(-0.0639703 0.0637861 0)
(-0.193204 0.0590505 0)
(-0.319903 0.0498568 0)
(-0.165201 0.0814977 0)
(0.0167653 0.0187317 0)
(-0.0167653 -0.0187317 0)
(0.165201 -0.0814977 0)
(0.319903 -0.0498568 0)
(0.193204 -0.0590505 0)
(0.0639703 -0.0637861 0)
(0.00904269 -0.0642808 0)
(0.000341841 -0.0642894 0)
(2.06531e-06 -0.0642893 0)
(1.31857e-09 -0.0642893 0)
(2.04715e-13 -0.0642893 0)
(2.49943e-14 -0.0642893 0)
(-2.73747e-14 -0.0642893 0)
(-1.66629e-14 -0.0642893 0)
(0 -0.0642893 0)
(2.02335e-14 -0.0642893 0)
(-8.33143e-15 -0.0642893 0)
(-2.26139e-14 -0.0642893 0)
(-1.07118e-14 -0.0642893 0)
(-1.1902e-14 -0.0642893 0)
(-2.73747e-14 -0.0642893 0)
(0 -0.0642893 0)
(3.21355e-14 -0.0642893 0)
(8.33143e-15 -0.0642893 0)
(1.1902e-14 -0.0642893 0)
(7.14123e-15 -0.0642893 0)
(-2.61845e-14 -0.0642893 0)
(-3.57061e-15 -0.0642893 0)
(-5.95102e-15 -0.0642893 0)
(-2.14237e-14 -0.0642893 0)
(-8.33143e-15 -0.0642893 0)
(-5.2369e-14 -0.0642893 0)
(-1.31857e-09 -0.0642893 0)
(-2.06531e-06 -0.0642893 0)
(-0.000341841 -0.0642894 0)
(-0.00904269 -0.0642808 0)
(-0.0639703 -0.0637861 0)
(-0.193204 -0.0590505 0)
(-0.319903 -0.0498568 0)
(-0.165201 -0.0814977 0)
(0.0167653 -0.0187317 0)
(-0.0772489 0.175998 0)
(0.135208 0.144744 0)
(0.341534 0.213294 0)
(0.179781 0.222074 0)
(0.0589302 0.225872 0)
(0.00855773 0.227261 0)
(0.000333655 0.227362 0)
(2.07839e-06 0.227363 0)
(1.3666e-09 0.227363 0)
(1.91623e-13 0.227363 0)
(5.47494e-14 0.227363 0)
(-1.42825e-14 0.227363 0)
(4.76082e-15 0.227363 0)
(-9.52164e-15 0.227363 0)
(3.57061e-15 0.227363 0)
(8.33143e-15 0.227363 0)
(-4.76082e-14 0.227363 0)
(-5.832e-14 0.227363 0)
(-2.85649e-14 0.227363 0)
(-4.76082e-15 0.227363 0)
(2.85649e-14 0.227363 0)
(3.21355e-14 0.227363 0)
(3.57061e-15 0.227363 0)
(1.1902e-15 0.227363 0)
(1.30923e-14 0.227363 0)
(-1.07118e-14 0.227363 0)
(1.1902e-15 0.227363 0)
(-1.54727e-14 0.227363 0)
(-4.76082e-14 0.227363 0)
(-2.49943e-14 0.227363 0)
(-8.33143e-14 0.227363 0)
(-1.36655e-09 0.227363 0)
(-2.07839e-06 0.227363 0)
(-0.000333655 0.227362 0)
(-0.00855773 0.227261 0)
(-0.0589302 0.225872 0)
(-0.179781 0.222074 0)
(-0.341534 0.213294 0)
(-0.135208 0.144744 0)
(0.0772489 0.175998 0)
(-0.0468832 0.34367 0)
(0.201141 0.36624 0)
(0.394421 0.421155 0)
(0.205324 0.447426 0)
(0.0689687 0.459042 0)
(0.0104788 0.461581 0)
(0.000440565 0.461734 0)
(3.05517e-06 0.461735 0)
(2.29802e-09 0.461735 0)
(2.74937e-13 0.461735 0)
(1.07118e-14 0.461735 0)
(-8.33143e-14 0.461735 0)
(-2.49943e-14 0.461735 0)
(5.95102e-15 0.461735 0)
(-4.6418e-14 0.461735 0)
(-4.76082e-14 0.461735 0)
(-5.95102e-15 0.461735 0)
(1.07118e-14 0.461735 0)
(2.14237e-14 0.461735 0)
(1.90433e-14 0.461735 0)
(5.71298e-14 0.461735 0)
(4.99886e-14 0.461735 0)
(-2.14237e-14 0.461735 0)
(-7.14123e-15 0.461735 0)
(-4.76082e-14 0.461735 0)
(-8.45045e-14 0.461735 0)
(-9.52164e-15 0.461735 0)
(1.07118e-14 0.461735 0)
(-1.90433e-14 0.461735 0)
(-1.90433e-14 0.461735 0)
(-1.7377e-13 0.461735 0)
(-2.29792e-09 0.461735 0)
(-3.05517e-06 0.461735 0)
(-0.000440565 0.461734 0)
(-0.0104788 0.461581 0)
(-0.0689687 0.459042 0)
(-0.205324 0.447426 0)
(-0.394421 0.421155 0)
(-0.201141 0.36624 0)
(0.0468832 0.34367 0)
(-0.0554994 0.212758 0)
(0.209875 0.198735 0)
(0.419768 0.225872 0)
(0.216291 0.237445 0)
(0.0725706 0.242326 0)
(0.0111511 0.243374 0)
(0.00048199 0.24344 0)
(3.49082e-06 0.243441 0)
(2.77793e-09 0.243441 0)
(2.16617e-13 0.243441 0)
(-1.51156e-13 0.243441 0)
(-6.66515e-14 0.243441 0)
(7.61731e-14 0.243441 0)
(1.85672e-13 0.243441 0)
(9.16458e-14 0.243441 0)
(1.54727e-14 0.243441 0)
(1.40444e-13 0.243441 0)
(1.54727e-13 0.243441 0)
(2.02335e-14 0.243441 0)
(-9.40262e-14 0.243441 0)
(-1.09499e-13 0.243441 0)
(-8.68849e-14 0.243441 0)
(0 0.243441 0)
(4.76082e-15 0.243441 0)
(-1.35683e-13 0.243441 0)
(-1.23781e-13 0.243441 0)
(-8.33143e-15 0.243441 0)
(8.92654e-14 0.243441 0)
(1.32113e-13 0.243441 0)
(9.8787e-14 0.243441 0)
(-1.65438e-13 0.243441 0)
(-2.77822e-09 0.243441 0)
(-3.49082e-06 0.243441 0)
(-0.00048199 0.24344 0)
(-0.0111511 0.243374 0)
(-0.0725706 0.242326 0)
(-0.216291 0.237445 0)
(-0.419768 0.225872 0)
(-0.209875 0.198735 0)
(0.0554994 0.212758 0)
(-0.0603957 0.0752271 0)
(0.213778 0.069523 0)
(0.431723 0.0809345 0)
(0.22118 0.0849901 0)
(0.0746821 0.0872274 0)
(0.0115522 0.0877065 0)
(0.000505032 0.0877349 0)
(3.71417e-06 0.0877352 0)
(3.01167e-09 0.0877352 0)
(1.10689e-13 0.0877352 0)
(-1.42825e-14 0.0877352 0)
(-8.09339e-14 0.0877352 0)
(-1.53536e-13 0.0877352 0)
(-1.22591e-13 0.0877352 0)
(-1.44015e-13 0.0877352 0)
(-5.47494e-14 0.0877352 0)
(9.75968e-14 0.0877352 0)
(1.32113e-13 0.0877352 0)
(2.61845e-14 0.0877352 0)
(1.1902e-15 0.0877352 0)
(5.2369e-14 0.0877352 0)
(6.90319e-14 0.0877352 0)
(6.18906e-14 0.0877352 0)
(5.59396e-14 0.0877352 0)
(1.26162e-13 0.0877352 0)
(1.54727e-14 0.0877352 0)