/*--------------------------------*- C++ -*----------------------------------*\
| =========                 |                                                 |
| \\      /  F ield         | OpenFOAM: The Open Source CFD Toolbox           |
|  \\    /   O peration     | Version:  v1912                                 |
|   \\  /    A nd           | Website:  www.openfoam.com                      |
|    \\/     M anipulation  |                                                 |
\*---------------------------------------------------------------------------*/
FoamFile
{
    version     2.0;
    format      ascii;
    class       volScalarField;
    location    "0.34";
    object      Ma;
}
// * * * * * * * * * * * * * * * * * * * * * * * * * * * * * * * * * * * * * //

dimensions      [0 0 0 0 0 0 0];


internalField   nonuniform List<scalar> 
1900
(
0
6.29817e-17
2.73592e-17
0
8.99967e-17
4.61969e-17
1.29892e-16
1.59651e-15
1.63311e-12
2.78374e-10
0
4.5917e-17
1.57777e-16
1.34495e-17
6.64846e-18
1.21228e-17
8.74321e-17
2.05317e-15
2.34287e-12
4.30267e-10
0
5.35945e-17
7.66211e-17
0
3.05993e-17
4.50724e-17
1.49884e-16
2.25459e-15
2.87414e-12
5.31977e-10
0
0
6.39488e-17
0
8.10576e-17
1.00064e-16
1.39571e-18
1.90021e-15
2.33839e-12
4.30266e-10
0
5.53208e-17
2.23948e-16
9.69382e-17
1.9819e-16
3.97142e-17
0
1.46808e-15
1.61588e-12
2.78367e-10
6.76613e-09
2.63219e-07
3.06574e-06
9.67177e-06
6.26287e-06
1.03972e-08
3.69208e-07
4.00847e-06
1.21227e-05
8.93345e-06
1.26832e-08
4.21756e-07
4.36173e-06
1.30308e-05
9.63292e-06
1.03972e-08
3.69208e-07
4.00847e-06
1.21227e-05
8.93345e-06
6.76619e-09
2.63219e-07
3.06574e-06
9.67177e-06
6.26287e-06
0.0028678
0.0156715
0.0410675
0.0802789
0.131101
0.00298961
0.0168369
0.0419339
0.0658316
0.0715131
0.00307589
0.017726
0.042326
0.0526325
0.020441
0.00298961
0.0168369
0.0419339
0.0658316
0.0715131
0.0028678
0.0156715
0.0410675
0.0802789
0.131101
0.277076
0.144111
0.0952938
0.0330356
0.00530361
0.000234017
1.72438e-06
1.40435e-09
9.08139e-14
2.36378e-17
1.20701e-16
1.31305e-16
4.33994e-17
1.26181e-16
5.93225e-17
1.6626e-16
2.29918e-17
6.58685e-17
2.17383e-16
6.55641e-17
7.11068e-17
1.50789e-16
1.10504e-16
3.95878e-16
4.29569e-17
1.73984e-16
9.10594e-17
9.13585e-17
3.65455e-16
4.48934e-16
1.69175e-16
1.37749e-13
2.0829e-09
2.59032e-06
0.000359145
0.00836925
0.053868
0.158637
0.282278
0.914999
0.0290218
0.062392
0.0641647
0.0302086
0.00555131
0.000260911
1.9807e-06
1.63397e-09
1.05634e-13
7.94798e-17
2.59165e-17
2.35589e-16
1.2331e-16
9.26753e-17
6.8048e-19
1.38469e-16
1.6989e-19
6.19341e-17
4.09564e-16
1.84903e-16
2.43565e-17
2.067e-16
2.10288e-16
5.61987e-16
3.10358e-16
1.51418e-16
3.6653e-16
6.34026e-17
2.09723e-16
3.00885e-17
1.45258e-17
1.34671e-13
2.0829e-09
2.59032e-06
0.000359145
0.00836925
0.053868
0.158637
0.282278
0.914999
0.0521369
0.00784492
0.0463123
0.0281193
0.00579759
0.000282141
2.17874e-06
1.81248e-09
1.17551e-13
2.75067e-17
6.41099e-17
3.40439e-16
2.76889e-17
2.4066e-16
6.95815e-17
1.5099e-16
5.07753e-18
2.49278e-17
3.70311e-16
2.87702e-16
1.09147e-16
4.34207e-16
3.44857e-16
3.42643e-16
5.16882e-16
1.70532e-16
2.42296e-16
2.14867e-16
3.25823e-17
4.70211e-16
1.31696e-16
1.34527e-13
2.0829e-09
2.59032e-06
0.000359145
0.00836925
0.053868
0.158637
0.282278
0.914999
0.0290218
0.062392
0.0641647
0.0302086
0.00555131
0.000260911
1.9807e-06
1.63396e-09
1.09792e-13
1.33597e-16
1.11833e-16
1.69398e-16
5.11573e-17
3.53737e-16
8.72398e-17
6.98674e-17
1.52352e-17
2.1558e-17
1.35615e-16
1.08837e-16
4.74627e-17
1.56732e-16
5.7553e-18
1.67884e-16
3.16813e-16
3.53195e-16
2.24712e-16
7.69996e-17
1.4752e-16
3.02186e-16
8.71173e-17
1.34294e-13
2.08291e-09
2.59032e-06
0.000359145
0.00836925
0.053868
0.158637
0.282278
0.914999
0.277076
0.144111
0.0952938
0.0330356
0.00530361
0.000234017
1.72438e-06
1.40434e-09
9.56483e-14
9.21662e-17
1.54195e-16
3.17704e-17
5.91077e-17
1.45449e-16
1.30544e-16
8.17357e-18
4.55434e-17
1.45012e-18
7.15156e-17
7.77444e-17
3.16911e-21
1.04156e-17
2.32541e-16
2.02313e-16
6.98795e-17
2.09521e-16
1.28544e-16
3.92203e-16
1.01917e-16
1.22727e-16
1.82964e-16
1.33072e-13
2.08291e-09
2.59032e-06
0.000359145
0.00836925
0.053868
0.158637
0.282278
0.914999
0.779085
0.243269
0.126154
0.0404792
0.00605205
0.000253234
1.79512e-06
1.42696e-09
9.09387e-14
1.87791e-16
1.99878e-17
6.16433e-17
4.12739e-17
6.5861e-17
3.09663e-17
2.88787e-17
3.20027e-19
3.17786e-18
8.6637e-17
3.20362e-17
2.70715e-20
3.85827e-17
1.63872e-16
1.51022e-16
3.19954e-17
3.91654e-17
8.27575e-17
1.86785e-16
1.5777e-16
6.67668e-17
1.32174e-16
1.33159e-13
2.0829e-09
2.59032e-06
0.000359145
0.00836925
0.053868
0.158637
0.282278
0.914999
0.9101
0.27623
0.150835
0.0502813
0.00765239
0.000322466
2.29097e-06
1.82091e-09
1.15975e-13
1.66966e-16
1.05745e-23
8.15404e-17
2.8465e-17
2.30265e-17
4.26229e-17
1.56534e-16
3.52702e-17
2.96902e-17
5.57165e-18
1.06555e-16
5.64445e-18
2.09374e-22
3.18972e-17
5.08092e-17
6.53414e-17
3.97824e-17
7.31912e-17
3.46031e-18
4.11244e-17
1.15273e-16
3.50438e-17
1.33743e-13
2.08287e-09
2.59032e-06
0.000359145
0.00836925
0.053868
0.158637
0.282278
0.914999
0.915043
0.281753
0.157866
0.0534931
0.00828841
0.000354827
2.55433e-06
2.05109e-09
1.31364e-13
4.62523e-17
2.58232e-21
1.05449e-19
6.44849e-17
1.57538e-16
8.77405e-17
8.7635e-17
1.3705e-16
7.79496e-17
2.43352e-19
7.64481e-18
4.91455e-18
4.6662e-18
1.04679e-16
1.274e-17
4.61954e-17
3.13679e-17
7.09603e-17
2.35751e-17
2.20706e-32
1.38491e-17
9.22881e-19
1.32255e-13
2.08285e-09
2.59032e-06
0.000359145
0.00836925
0.053868
0.158637
0.282278
0.914999
0.914999
0.282264
0.158617
0.0538581
0.00836704
0.000359027
2.58936e-06
2.08208e-09
1.3225e-13
8.48372e-18
7.32544e-20
3.50911e-18
1.02846e-16
2.94503e-17
7.0766e-17
8.94158e-17
1.49674e-16
4.74646e-17
5.21998e-18
5.72645e-18
4.09489e-17
1.17021e-19
4.25409e-18
4.40958e-17
1.96416e-18
9.30627e-17
4.82444e-17
4.74945e-17
7.80106e-32
3.65768e-18
1.139e-18
1.32061e-13
2.08287e-09
2.59032e-06
0.000359145
0.00836925
0.053868
0.158637
0.282278
0.914999
0.914998
0.282278
0.158637
0.0538679
0.00836924
0.000359144
2.59031e-06
2.08286e-09
1.33036e-13
3.42189e-17
4.61751e-17
1.70708e-17
1.2871e-16
3.0268e-17
1.26181e-16
1.15902e-16
3.36018e-17
2.71945e-17
2.61504e-17
3.11325e-17
9.59898e-17
3.8823e-19
7.37408e-17
8.50056e-17
3.9844e-17
1.38616e-16
5.16088e-17
3.17047e-17
1.35546e-27
1.89977e-17
3.05079e-17
1.3266e-13
2.08287e-09
2.59032e-06
0.000359145
0.00836925
0.053868
0.158637
0.282278
0.914999
0.914999
0.282278
0.158637
0.053868
0.00836925
0.000359145
2.59032e-06
2.08289e-09
1.38683e-13
2.91992e-17
4.61889e-17
1.9501e-17
7.00738e-17
7.38741e-17
8.943e-17
4.53509e-17
4.63429e-17
4.92929e-17
4.63417e-17
6.80895e-17
4.56165e-17
4.84172e-17
5.52727e-17
6.90868e-17
6.77656e-17
1.49314e-16
6.74473e-17
6.70961e-17
6.24892e-24
4.26054e-17
6.20225e-17
1.33079e-13
2.08285e-09
2.59032e-06
0.000359145
0.00836925
0.053868
0.158637
0.282278
0.914999
0.914999
0.282278
0.158637
0.053868
0.00836925
0.000359145
2.59032e-06
2.08288e-09
1.3501e-13
4.82899e-17
1.75758e-17
1.28288e-16
3.24541e-17
1.28077e-16
8.88374e-17
1.62426e-16
1.65069e-16
4.68026e-17
3.85962e-17
4.61918e-17
1.81008e-19
6.04137e-17
5.79919e-17
1.56385e-19
4.60347e-17
2.93393e-17
1.85048e-17
4.81239e-17
1.93949e-21
2.32005e-25
5.92039e-17
1.39137e-13
2.08286e-09
2.59032e-06
0.000359145
0.00836925
0.053868
0.158637
0.282278
0.914999
0.914999
0.282278
0.158637
0.053868
0.00836925
0.000359145
2.59032e-06
2.08288e-09
1.32734e-13
4.34626e-17
5.00962e-17
7.60062e-18
6.97993e-20
1.98825e-17
8.83633e-17
3.69193e-18
8.7869e-17
1.24996e-16
1.10501e-16
5.67521e-18
2.71034e-19
7.71651e-17
8.45611e-17
6.93079e-18
6.01368e-19
4.08834e-17
5.4966e-17
5.34865e-17
6.11423e-20
1.33716e-17
2.03704e-16
1.38996e-13
2.08286e-09
2.59032e-06
0.000359145
0.00836925
0.053868
0.158637
0.282278
0.914999
0.914999
0.282278
0.158637
0.053868
0.00836925
0.000359145
2.59032e-06
2.08289e-09
1.34452e-13
7.00056e-17
1.15841e-16
1.57077e-16
3.01144e-17
4.66135e-17
1.80112e-16
1.36516e-16
1.39843e-16
1.00945e-16
8.38756e-18
4.32381e-18
7.89777e-17
3.94426e-17
3.80187e-18
5.88113e-17
1.19814e-17
5.81584e-17
5.05131e-17
1.50849e-16
5.50195e-17
7.89065e-17
1.45052e-16
1.3315e-13
2.08286e-09
2.59032e-06
0.000359145
0.00836925
0.053868
0.158637
0.282278
0.914999
0.914999
0.282278
0.158637
0.053868
0.00836925
0.000359145
2.59032e-06
2.08288e-09
1.33156e-13
1.09862e-16
1.76484e-16
5.11883e-17
7.3801e-18
1.17977e-16
2.04578e-17
9.8763e-17
5.51313e-17
5.29067e-18
1.45805e-18
1.99332e-17
7.44456e-17
1.34325e-16
2.09372e-17
1.41966e-16
4.60797e-17
7.98845e-17
4.20257e-17
2.84844e-17
7.89183e-17
8.91442e-18
9.09432e-17
1.33017e-13
2.08288e-09
2.59032e-06
0.000359145
0.00836925
0.053868
0.158637
0.282278
0.914999
0.914999
0.282278
0.158637
0.053868
0.00836925
0.000359145
2.59032e-06
2.08287e-09
1.39281e-13
2.21466e-17
1.1935e-16
9.61783e-17
1.01053e-16
1.77863e-16
9.30653e-17
1.09443e-16
1.56355e-16
7.00529e-17
2.05848e-17
9.54062e-17
1.82813e-16
5.85188e-17
1.65016e-17
5.02588e-17
1.10739e-17
2.16004e-17
3.24847e-17
1.36084e-16
7.74531e-17
1.30513e-16
2.64167e-17
1.39143e-13
2.08284e-09
2.59032e-06
0.000359145
0.00836925
0.053868
0.158637
0.282278
0.914999
0.914999
0.282278
0.158637
0.053868
0.00836925
0.000359145
2.59032e-06
2.08286e-09
4.72867e-13
4.55281e-13
4.62041e-13
4.54668e-13
4.56154e-13
4.62937e-13
4.643e-13
4.63357e-13
4.552e-13
4.56366e-13
4.6346e-13
4.64438e-13
4.64339e-13
4.64422e-13
4.63588e-13
4.5364e-13
4.56232e-13
4.63458e-13
4.64233e-13
4.63893e-13
4.64228e-13
4.63564e-13
4.64401e-13
4.85247e-13
2.08291e-09
2.59032e-06
0.000359145
0.00836925
0.053868
0.158637
0.282278
0.914999
0.914999
0.282278
0.158637
0.053868
0.00836925
0.000359145
2.59032e-06
5.5472e-09
5.14124e-09
5.14126e-09
5.14124e-09
5.14126e-09
5.14125e-09
5.14124e-09
5.14127e-09
5.14124e-09
5.14125e-09
5.14127e-09
5.14127e-09
5.14128e-09
5.14127e-09
5.14127e-09
5.14124e-09
5.14127e-09
5.14129e-09
5.14127e-09
5.14125e-09
5.14126e-09
5.14125e-09
5.14127e-09
5.14127e-09
5.1413e-09
5.54704e-09
2.59032e-06
0.000359145
0.00836925
0.053868
0.158637
0.282278
0.914999
0.915
0.282278
0.158637
0.0538679
0.00836924
0.000359177
5.48711e-06
4.83722e-06
4.83722e-06
4.83722e-06
4.83722e-06
4.83722e-06
4.83722e-06
4.83722e-06
4.83722e-06
4.83722e-06
4.83722e-06
4.83722e-06
4.83722e-06
4.83722e-06
4.83722e-06
4.83722e-06
4.83722e-06
4.83722e-06
4.83722e-06
4.83722e-06
4.83722e-06
4.83722e-06
4.83722e-06
4.83722e-06
4.83722e-06
4.83722e-06
4.83722e-06
5.48711e-06
0.000359177
0.00836924
0.0538679
0.158637
0.282278
0.915
0.915045
0.282284
0.158633
0.0538683
0.00838524
0.000643344
0.000533885
0.000533879
0.000533879
0.000533879
0.000533879
0.000533879
0.000533879
0.000533879
0.000533879
0.000533879
0.000533879
0.000533879
0.000533879
0.000533879
0.000533879
0.000533879
0.000533879
0.000533879
0.000533879
0.000533879
0.000533879
0.000533879
0.000533879
0.000533879
0.000533879
0.000533879
0.000533879
0.000533885
0.000643344
0.00838524
0.0538683
0.158633
0.282284
0.915045
0.916014
0.282586
0.158927
0.0548229
0.0134054
0.0105095
0.0105041
0.0105041
0.0105041
0.0105041
0.0105041
0.0105041
0.0105041
0.0105041
0.0105041
0.0105041
0.0105041
0.0105041
0.0105041
0.0105041
0.0105041
0.0105041
0.0105041
0.0105041
0.0105041
0.0105041
0.0105041
0.0105041
0.0105041
0.0105041
0.0105041
0.0105041
0.0105041
0.0105041
0.0105095
0.0134054
0.0548229
0.158927
0.282586
0.916014
0.923203
0.288971
0.170385
0.0808508
0.0612736
0.0607464
0.060747
0.060747
0.060747
0.060747
0.060747
0.060747
0.060747
0.060747
0.060747
0.060747
0.060747
0.060747
0.060747
0.060747
0.060747
0.060747
0.060747
0.060747
0.060747
0.060747
0.060747
0.060747
0.060747
0.060747
0.060747
0.060747
0.060747
0.060747
0.0607464
0.0612736
0.0808508
0.170385
0.288971
0.923203
0.955468
0.33719
0.241993
0.177795
0.169187
0.169027
0.169031
0.169031
0.169031
0.169031
0.169031
0.169031
0.169031
0.169031
0.169031
0.169031
0.169031
0.169031
0.169031
0.169031
0.169031
0.169031
0.169031
0.169031
0.169031
0.169031
0.169031
0.169031
0.169031
0.169031
0.169031
0.169031
0.169031
0.169031
0.169027
0.169187
0.177795
0.241993
0.33719
0.955468
0.947032
0.388015
0.342492
0.299225
0.294194
0.293983
0.293979
0.293979
0.293979
0.293979
0.293979
0.293979
0.293979
0.293979
0.293979
0.293979
0.293979
0.293979
0.293979
0.293979
0.293979
0.293979
0.293979
0.293979
0.293979
0.293979
0.293979
0.293979
0.293979
0.293979
0.293979
0.293979
0.293979
0.293979
0.293983
0.294194
0.299225
0.342492
0.388015
0.947032
1.31369
0.961617
0.970227
0.940602
0.934218
0.933439
0.933408
0.933408
0.933408
0.933408
0.933408
0.933408
0.933408
0.933408
0.933408
0.933408
0.933408
0.933408
0.933408
0.933408
0.933408
0.933408
0.933408
0.933408
0.933408
0.933408
0.933408
0.933408
0.933408
0.933408
0.933408
0.933408
0.933408
0.933408
0.933439
0.934218
0.940602
0.970227
0.961617
1.31369
1.31369
0.961617
0.970227
0.940602
0.934218
0.933439
0.933408
0.933408
0.933408
0.933408
0.933408
0.933408
0.933408
0.933408
0.933408
0.933408
0.933408
0.933408
0.933408
0.933408
0.933408
0.933408
0.933408
0.933408
0.933408
0.933408
0.933408
0.933408
0.933408
0.933408
0.933408
0.933408
0.933408
0.933408
0.933439
0.934218
0.940602
0.970227
0.961617
1.31369
0.947032
0.388015
0.342492
0.299225
0.294194
0.293983
0.293979
0.293979
0.293979
0.293979
0.293979
0.293979
0.293979
0.293979
0.293979
0.293979
0.293979
0.293979
0.293979
0.293979
0.293979
0.293979
0.293979
0.293979
0.293979
0.293979
0.293979
0.293979
0.293979
0.293979
0.293979
0.293979
0.293979
0.293979
0.293983
0.294194
0.299225
0.342492
0.388015
0.947032
0.955468
0.33719
0.241993
0.177795
0.169187
0.169027
0.169031
0.169031
0.169031
0.169031
0.169031
0.169031
0.169031
0.169031
0.169031
0.169031
0.169031
0.169031
0.169031
0.169031
0.169031
0.169031
0.169031
0.169031
0.169031
0.169031
0.169031
0.169031
0.169031
0.169031
0.169031
0.169031
0.169031
0.169031
0.169027
0.169187
0.177795
0.241993
0.33719
0.955468
0.923203
0.288971
0.170385
0.0808508
0.0612736
0.0607464
0.060747
0.060747
0.060747
0.060747
0.060747
0.060747
0.060747
0.060747
0.060747
0.060747
0.060747
0.060747
0.060747
0.060747
0.060747
0.060747
0.060747
0.060747
0.060747
0.060747
0.060747
0.060747
0.060747
0.060747
0.060747
0.060747
0.060747
0.060747
0.0607464
0.0612736
0.0808508
0.170385
0.288971
0.923203
0.916014
0.282586
0.158927
0.0548229
0.0134054
0.0105095
0.0105041
0.0105041
0.0105041
0.0105041
0.0105041
0.0105041
0.0105041
0.0105041
0.0105041
0.0105041
0.0105041
0.0105041
0.0105041
0.0105041
0.0105041
0.0105041
0.0105041
0.0105041
0.0105041
0.0105041
0.0105041
0.0105041
0.0105041
0.0105041
0.0105041
0.0105041
0.0105041
0.0105041
0.0105095
0.0134054
0.0548229
0.158927
0.282586
0.916014
0.915045
0.282284
0.158633
0.0538683
0.00838524
0.000643344
0.000533885
0.000533879
0.000533879
0.000533879
0.000533879
0.000533879
0.000533879
0.000533879
0.000533879
0.000533879
0.000533879
0.000533879
0.000533879
0.000533879
0.000533879
0.000533879
0.000533879
0.000533879
0.000533879
0.000533879
0.000533879
0.000533879
0.000533879
0.000533879
0.000533879
0.000533879
0.000533879
0.000533885
0.000643344
0.00838524
0.0538683
0.158633
0.282284
0.915045
0.915
0.282278
0.158637
0.0538679
0.00836924
0.000359177
5.48711e-06
4.83722e-06
4.83722e-06
4.83722e-06
4.83722e-06
4.83722e-06
4.83722e-06
4.83722e-06
4.83722e-06
4.83722e-06
4.83722e-06
4.83722e-06
4.83722e-06
4.83722e-06
4.83722e-06
4.83722e-06
4.83722e-06
4.83722e-06
4.83722e-06
4.83722e-06
4.83722e-06
4.83722e-06
4.83722e-06
4.83722e-06
4.83722e-06
4.83722e-06
4.83722e-06
5.48711e-06
0.000359177
0.00836924
0.0538679
0.158637
0.282278
0.915
0.914999
0.282278
0.158637
0.053868
0.00836925
0.000359145
2.59032e-06
5.54711e-09
5.14128e-09
5.14124e-09
5.14124e-09
5.14125e-09
5.14125e-09
5.14124e-09
5.14125e-09
5.14124e-09
5.14125e-09
5.14124e-09
5.14126e-09
5.14126e-09
5.14126e-09
5.14125e-09
5.14124e-09
5.14126e-09
5.14126e-09
5.14126e-09
5.14127e-09
5.14124e-09
5.14127e-09
5.14126e-09
5.14126e-09
5.14125e-09
5.54707e-09
2.59032e-06
0.000359145
0.00836925
0.053868
0.158637
0.282278
0.914999
0.914999
0.282278
0.158637
0.053868
0.00836925
0.000359145
2.59032e-06
2.08288e-09
4.80304e-13
4.55288e-13
4.62303e-13
4.54712e-13
4.56152e-13
4.62907e-13
4.63043e-13
4.53601e-13
4.53534e-13
4.55048e-13
4.54161e-13
4.62183e-13
4.55128e-13
4.63247e-13
4.63718e-13
4.56736e-13
4.63309e-13
4.63134e-13
4.54262e-13
4.56183e-13
4.54141e-13
4.60946e-13
4.53754e-13
4.78777e-13
2.08292e-09
2.59032e-06
0.000359145
0.00836925
0.053868
0.158637
0.282278
0.914999
0.914999
0.282278
0.158637
0.053868
0.00836925
0.000359145
2.59032e-06
2.08286e-09
1.32562e-13
1.57549e-17
3.54536e-17
1.32989e-16
1.52723e-16
1.3503e-16
8.19757e-18
1.41981e-16
1.30991e-16
7.49207e-17
8.70647e-18
1.49734e-17
9.87577e-18
6.73738e-17
8.36189e-18
6.9733e-17
1.65386e-17
3.45657e-17
8.53235e-17
9.78356e-17
3.33193e-17
1.16884e-16
7.57317e-17
1.33291e-13
2.08285e-09
2.59032e-06
0.000359145
0.00836925
0.053868
0.158637
0.282278
0.914999
0.914999
0.282278
0.158637
0.053868
0.00836925
0.000359145
2.59032e-06
2.08287e-09
1.32593e-13
6.05659e-17
1.54212e-16
3.26484e-17
5.87034e-18
4.71521e-17
4.94903e-17
8.1175e-17
1.78586e-17
1.65202e-17
1.31387e-17
5.06205e-20
1.80565e-17
1.29138e-16
2.43426e-17
1.34816e-16
3.90364e-17
6.34166e-17
6.9064e-17
4.29273e-17
9.22863e-17
8.51008e-17
1.12914e-16
1.35105e-13
2.08288e-09
2.59032e-06
0.000359145
0.00836925
0.053868
0.158637
0.282278
0.914999
0.914999
0.282278
0.158637
0.053868
0.00836925
0.000359145
2.59032e-06
2.08287e-09
1.32954e-13
6.29281e-17
7.4553e-17
3.5588e-17
6.91481e-20
4.72473e-17
1.21917e-16
1.51349e-17
4.19953e-17
1.59551e-16
7.78205e-17
2.66476e-18
1.01754e-36
1.14679e-17
2.71088e-17
4.25482e-17
3.09197e-19
5.63886e-17
1.57506e-16
1.69568e-19
1.73412e-16
5.91793e-17
7.06634e-17
1.33826e-13
2.08286e-09
2.59032e-06
0.000359145
0.00836925
0.053868
0.158637
0.282278
0.914999
0.914999
0.282278
0.158637
0.053868
0.00836925
0.000359145
2.59032e-06
2.08286e-09
1.32482e-13
5.71416e-17
2.57682e-17
5.68294e-17
3.02103e-19
8.96824e-18
4.30302e-19
6.22823e-18
4.58049e-20
3.78004e-17
1.2833e-16
1.74763e-17
1.75462e-35
2.1272e-17
7.7546e-17
5.44585e-17
1.10968e-19
1.06986e-16
1.12988e-17
2.54641e-17
7.03796e-17
6.67752e-17
1.3959e-16
1.38747e-13
2.08286e-09
2.59032e-06
0.000359145
0.00836925
0.053868
0.158637
0.282278
0.914999
0.914999
0.282278
0.158637
0.053868
0.00836925
0.000359145
2.59032e-06
2.08287e-09
1.32532e-13
2.25946e-17
1.54958e-16
3.31505e-17
1.12385e-17
5.81634e-17
4.63602e-17
5.59352e-17
2.79537e-17
1.53667e-16
1.69515e-17
5.10655e-17
6.03324e-31
8.46753e-17
6.15071e-17
1.06047e-16
4.73182e-17
1.26457e-17
1.38861e-17
1.31072e-16
8.34677e-17
2.64769e-17
6.62105e-17
1.35849e-13
2.08287e-09
2.59032e-06
0.000359145
0.00836925
0.053868
0.158637
0.282278
0.914999
0.914999
0.282278
0.158637
0.053868
0.00836925
0.000359145
2.59032e-06
2.08287e-09
1.33048e-13
5.39865e-17
9.84765e-17
2.57682e-18
8.91618e-17
1.37275e-16
4.75297e-17
1.37743e-16
9.28892e-18
5.29688e-17
6.09807e-17
5.77694e-17
1.83835e-26
5.08067e-17
8.1177e-17
7.19195e-18
6.65381e-17
4.79174e-17
1.39286e-19
1.33739e-16
1.38639e-16
1.10636e-16
5.25178e-17
1.35666e-13
2.08285e-09
2.59032e-06
0.000359145
0.00836925
0.053868
0.158637
0.282278
0.914999
0.914998
0.282278
0.158637
0.0538679
0.00836924
0.000359144
2.59031e-06
2.08288e-09
1.3409e-13
7.3668e-17
0
0
2.21065e-17
6.73594e-17
2.84266e-17
2.68658e-17
1.43068e-19
1.19383e-17
1.17869e-20
2.1608e-18
7.16399e-23
0
4.62436e-17
0
0
8.04398e-21
0
3.99597e-17
1.39149e-16
1.42947e-17
1.02354e-16
1.39468e-13
2.08286e-09
2.59032e-06
0.000359145
0.00836925
0.053868
0.158637
0.282278
0.914999
0.914999
0.282264
0.158617
0.0538581
0.00836704
0.000359027
2.58936e-06
2.08208e-09
1.33115e-13
4.75234e-18
0
0
1.16082e-16
3.70506e-17
9.37131e-17
1.27058e-16
3.12014e-17
1.03663e-16
4.18101e-18
7.10186e-18
2.08575e-20
0
4.61043e-17
0
0
3.92946e-20
4.61739e-17
5.14075e-20
2.6395e-17
4.96869e-21
2.85917e-17
1.38807e-13
2.08285e-09
2.59032e-06
0.000359145
0.00836925
0.053868
0.158637
0.282278
0.914999
0.915043
0.281753
0.157866
0.0534931
0.00828841
0.000354827
2.55433e-06
2.05112e-09
1.30211e-13
5.66803e-17
0
4.61739e-17
0
6.46992e-17
0
8.86884e-17
1.14684e-18
3.72466e-17
1.0618e-18
5.34568e-17
7.6387e-19
0
4.61043e-17
0
0
2.33452e-18
4.61739e-17
2.17926e-19
0
1.42384e-19
5.39086e-17
1.34565e-13
2.08289e-09
2.59032e-06
0.000359145
0.00836925
0.053868
0.158637
0.282278
0.914999
0.9101
0.27623
0.150835
0.0502813
0.00765239
0.000322466
2.29097e-06
1.82091e-09
1.15728e-13
1.74646e-16
0
4.61739e-17
0
2.76486e-17
2.01967e-17
2.50971e-17
3.3323e-18
1.27307e-16
1.34274e-17
1.30052e-16
1.31717e-17
0
0
5.17454e-17
1.94307e-17
2.30191e-17
4.44328e-17
2.01155e-18
0
2.0315e-17
1.90682e-16
1.33966e-13
2.08288e-09
2.59032e-06
0.000359145
0.00836925
0.053868
0.158637
0.282278
0.914999
0.779085
0.243269
0.126154
0.0404792
0.00605205
0.000253234
1.79512e-06
1.42696e-09
9.05383e-14
1.82579e-16
1.37834e-17
3.71976e-17
8.62865e-17
2.78235e-19
1.29461e-16
1.49725e-16
7.66574e-17
1.35967e-16
2.76022e-16
1.85469e-16
1.13796e-16
3.11315e-17
6.41062e-18
1.80826e-16
1.28057e-16
9.1029e-17
1.34384e-16
6.58981e-17
5.54566e-17
9.99623e-17
7.40409e-17
1.33629e-13
2.0829e-09
2.59032e-06
0.000359145
0.00836925
0.053868
0.158637
0.282278
0.914999
)
;

boundaryField
{
    inlet
    {
        type            calculated;
        value           uniform 0;
    }
    outlet
    {
        type            calculated;
        value           nonuniform List<scalar> 
165
(
0.779085
0.9101
0.915043
0.914999
0.914998
0.914999
0.914999
0.914999
0.914999
0.914999
0.914999
0.914999
0.914999
0.915
0.915045
0.916014
0.923203
0.955468
0.947032
1.31369
1.31369
0.961617
0.970227
0.940602
0.934218
0.933439
0.933408
0.933408
0.933408
0.933408
0.933408
0.933408
0.933408
0.933408
0.933408
0.933408
0.933408
0.933408
0.933408
0.933408
0.933408
0.933408
0.933408
0.933408
0.933408
0.933408
0.933408
0.933408
0.933408
0.933408
0.933408
0.933408
0.933408
0.933408
0.933439
0.934218
0.940602
0.970227
0.961617
1.31369
0.914999
0.914999
0.914999
0.914999
0.914999
0.914999
0.914999
0.914999
0.914999
0.914999
0.914999
0.914999
0.914999
0.915
0.915045
0.916014
0.923203
0.955468
0.947032
1.31369
0.914999
0.914999
0.914999
0.914999
0.914999
1.31369
0.947032
0.955468
0.923203
0.916014
0.915045
0.915
0.914999
0.914999
0.914999
0.914999
0.914999
0.914999
0.914999
0.914999
0.914999
0.914999
0.914999
0.914999
0.914999
1.31369
0.961617
0.970227
0.940602
0.934218
0.933439
0.933408
0.933408
0.933408
0.933408
0.933408
0.933408
0.933408
0.933408
0.933408
0.933408
0.933408
0.933408
0.933408
0.933408
0.933408
0.933408
0.933408
0.933408
0.933408
0.933408
0.933408
0.933408
0.933408
0.933408
0.933408
0.933408
0.933408
0.933408
0.933439
0.934218
0.940602
0.970227
0.961617
1.31369
1.31369
0.947032
0.955468
0.923203
0.916014
0.915045
0.915
0.914999
0.914999
0.914999
0.914999
0.914999
0.914999
0.914999
0.914999
0.914998
0.914999
0.915043
0.9101
0.779085
)
;
    }
    obstacle
    {
        type            calculated;
        value           nonuniform List<scalar> 
40
(
0
0
0
0
0
0
0
1.46714e-15
1.61476e-12
2.78063e-10
0
2.09903e-17
2.6046e-17
0
2.58249e-18
3.57519e-18
1.37071e-17
1.59608e-15
1.63212e-12
2.78071e-10
5.83368e-09
2.28583e-07
2.70359e-06
8.88741e-06
5.49312e-06
5.83373e-09
2.28583e-07
2.70359e-06
8.88741e-06
5.49312e-06
0.00285364
0.015595
0.041009
0.0800543
0.128688
0.00285364
0.015595
0.041009
0.0800543
0.128688
)
;
    }
    empty
    {
        type            empty;
    }
}


// ************************************************************************* //
