/*--------------------------------*- C++ -*----------------------------------*\
| =========                 |                                                 |
| \\      /  F ield         | OpenFOAM: The Open Source CFD Toolbox           |
|  \\    /   O peration     | Version:  v1912                                 |
|   \\  /    A nd           | Website:  www.openfoam.com                      |
|    \\/     M anipulation  |                                                 |
\*---------------------------------------------------------------------------*/
FoamFile
{
    version     2.0;
    format      ascii;
    class       volScalarField;
    location    "5.64";
    object      Ma;
}
// * * * * * * * * * * * * * * * * * * * * * * * * * * * * * * * * * * * * * //

dimensions      [0 0 0 0 0 0 0];


internalField   nonuniform List<scalar> 
1900
(
0.799223
0.0748016
0.072317
0.0716673
0.0767327
0.0817723
0.0882798
0.0950777
0.0997696
0.0950276
0.799223
0.0747963
0.0723219
0.0716489
0.076674
0.0815585
0.0876337
0.0942481
0.101725
0.108377
0.799223
0.0747941
0.0723194
0.0716276
0.0766293
0.0814437
0.0873966
0.0940865
0.102432
0.114715
0.799223
0.0747963
0.0723219
0.0716489
0.076674
0.0815585
0.0876337
0.0942481
0.101725
0.108377
0.799223
0.0748016
0.072317
0.0716673
0.0767327
0.0817723
0.0882798
0.0950777
0.0997696
0.0950276
0.104006
0.143803
0.198676
0.283636
0.427812
0.126243
0.152216
0.183853
0.248052
0.386439
0.134818
0.160025
0.191727
0.252453
0.383387
0.126243
0.152216
0.183853
0.248052
0.386439
0.104006
0.143803
0.198676
0.283636
0.427812
0.916705
1.23388
1.1768
1.15128
1.16887
0.878098
1.24839
1.20458
1.17495
1.18648
0.874265
1.25867
1.20561
1.16647
1.1813
0.878098
1.24839
1.20458
1.17495
1.18648
0.916705
1.23388
1.1768
1.15128
1.16887
1.53719
1.8156
1.58131
1.0629
0.767049
0.498192
0.286631
0.13081
0.0455795
0.0755965
0.0992679
0.109
0.115935
0.120765
0.119496
0.106665
0.0826958
0.0534417
0.0280173
0.0332547
0.0629412
0.0974502
0.133722
0.171012
0.208989
0.247443
0.28597
0.324805
0.362703
0.399436
0.435235
0.469225
0.50232
0.533301
0.563165
0.585239
0.602505
0.601848
0.634492
0.937579
1.48892
1.82515
1.68206
1.11595
0.827656
0.542031
0.297412
0.124578
0.0229063
0.0689318
0.0960644
0.106821
0.113838
0.118994
0.117931
0.104872
0.0801846
0.0491725
0.0181161
0.0253226
0.0591965
0.0951867
0.132198
0.169944
0.208241
0.24694
0.285659
0.32466
0.362683
0.399537
0.435416
0.46949
0.502619
0.533667
0.56351
0.585479
0.602834
0.602055
0.63511
0.931518
1.44104
1.81569
1.70157
1.10542
0.808101
0.527918
0.293672
0.122685
0.00220048
0.0667517
0.0949858
0.10603
0.113164
0.118434
0.117392
0.104224
0.0792897
0.0476322
0.013244
0.0220757
0.0579046
0.0944201
0.131677
0.169571
0.207973
0.246755
0.285546
0.324615
0.362702
0.399631
0.435587
0.469761
0.503004
0.534224
0.564269
0.586515
0.604362
0.604155
0.636994
0.930805
1.48892
1.82515
1.68206
1.11595
0.827656
0.542031
0.297412
0.124578
0.0229063
0.0689318
0.0960644
0.106821
0.113838
0.118994
0.117931
0.104872
0.0801846
0.0491725
0.0181161
0.0253226
0.0591965
0.0951867
0.132198
0.169944
0.208241
0.24694
0.285659
0.32466
0.362683
0.399537
0.435416
0.46949
0.502619
0.533667
0.56351
0.585479
0.602834
0.602055
0.63511
0.931518
1.53719
1.8156
1.58131
1.0629
0.767049
0.498192
0.286631
0.13081
0.0455795
0.0755965
0.0992679
0.109
0.115935
0.120765
0.119496
0.106665
0.0826958
0.0534417
0.0280173
0.0332547
0.0629412
0.0974502
0.133722
0.171012
0.208989
0.247443
0.28597
0.324805
0.362703
0.399436
0.435235
0.469225
0.50232
0.533301
0.563165
0.585239
0.602505
0.601848
0.634492
0.937579
1.33044
1.45601
1.13813
0.78326
0.607289
0.444384
0.290117
0.157887
0.0942809
0.104504
0.117751
0.123321
0.128678
0.131911
0.129189
0.116427
0.0945291
0.0701589
0.0532058
0.0561016
0.0774371
0.10736
0.141164
0.176976
0.213984
0.251762
0.289808
0.328253
0.365919
0.402414
0.43813
0.471996
0.505146
0.536018
0.566061
0.588443
0.605862
0.606498
0.637312
0.945578
0.558322
0.624326
0.543976
0.559137
0.560755
0.471541
0.326688
0.213573
0.167247
0.159345
0.157825
0.156661
0.158294
0.158308
0.153146
0.14057
0.122265
0.104306
0.0935629
0.0952225
0.109035
0.131811
0.160541
0.192832
0.227326
0.263241
0.299904
0.337189
0.374118
0.409852
0.445226
0.478617
0.511731
0.542136
0.572432
0.595049
0.613118
0.616339
0.64416
0.93858
0.589914
0.598836
0.68509
0.671018
0.599025
0.474906
0.353947
0.27282
0.234109
0.215149
0.203825
0.19722
0.194726
0.191498
0.184175
0.171711
0.156133
0.142165
0.13429
0.135453
0.145345
0.162889
0.186841
0.215223
0.246607
0.280045
0.314775
0.350375
0.386191
0.420763
0.455554
0.488171
0.521085
0.550716
0.581137
0.603815
0.623083
0.628784
0.651822
0.940502
0.88411
0.831947
0.844239
0.736173
0.603751
0.491373
0.397537
0.333364
0.294207
0.268982
0.251297
0.240682
0.234437
0.228269
0.219126
0.206688
0.192966
0.181433
0.175105
0.176003
0.183571
0.19748
0.217575
0.242369
0.270609
0.30136
0.333887
0.367488
0.401955
0.435096
0.469129
0.500781
0.533357
0.562065
0.592473
0.615059
0.635658
0.642998
0.660718
0.941525
0.97459
0.888613
0.861655
0.734461
0.609806
0.515951
0.441891
0.387888
0.348562
0.319788
0.298511
0.284746
0.275538
0.266785
0.25616
0.243723
0.231257
0.221266
0.215856
0.216592
0.222633
0.233946
0.251045
0.272791
0.298148
0.326276
0.356597
0.388008
0.421052
0.452637
0.485815
0.516421
0.54859
0.576351
0.606711
0.629016
0.650797
0.659486
0.673921
0.948563
0.985452
0.898754
0.850246
0.729617
0.628083
0.550528
0.489322
0.438272
0.398435
0.367255
0.343992
0.328087
0.316592
0.30575
0.294022
0.281674
0.270144
0.261216
0.256418
0.257066
0.262027
0.271391
0.286125
0.305311
0.32809
0.35372
0.381896
0.410999
0.442504
0.472371
0.504475
0.533832
0.565311
0.591899
0.621833
0.643397
0.665352
0.674157
0.686865
0.953175
0.988487
0.902617
0.838591
0.733725
0.654601
0.585449
0.531284
0.482552
0.444246
0.412693
0.388536
0.371196
0.357784
0.345225
0.332566
0.320205
0.309337
0.301039
0.296588
0.297152
0.301309
0.309192
0.322113
0.339281
0.359964
0.383479
0.409822
0.436934
0.467134
0.495561
0.526829
0.555263
0.586344
0.612164
0.642005
0.663178
0.685516
0.694845
0.706956
0.966327
0.98375
0.905918
0.834334
0.743927
0.687131
0.620752
0.571021
0.523767
0.486958
0.45544
0.430833
0.412281
0.397195
0.383342
0.37021
0.358101
0.347802
0.340134
0.336037
0.336609
0.340136
0.346763
0.358097
0.373425
0.392111
0.413493
0.437901
0.462872
0.491498
0.51821
0.548266
0.575451
0.605707
0.630429
0.659697
0.679974
0.701771
0.711162
0.724258
0.973447
0.987212
0.915033
0.845625
0.763941
0.716338
0.652249
0.607465
0.562914
0.527806
0.496839
0.47234
0.453073
0.436849
0.421958
0.408373
0.396347
0.386161
0.378643
0.374593
0.375078
0.378105
0.383818
0.394083
0.408211
0.425602
0.445536
0.468659
0.492174
0.519787
0.545345
0.574603
0.600985
0.630718
0.654728
0.683605
0.703291
0.72449
0.734308
0.748086
0.988697
0.994828
0.928734
0.862537
0.784523
0.743397
0.682636
0.642593
0.600219
0.566581
0.536283
0.511692
0.491286
0.473854
0.458141
0.444423
0.432396
0.422604
0.415411
0.411557
0.412071
0.414662
0.419466
0.42861
0.441436
0.457391
0.475702
0.497332
0.519253
0.545713
0.570056
0.598433
0.62404
0.653239
0.676638
0.705085
0.724165
0.744532
0.754701
0.770186
0.998191
1.01241
0.944875
0.882065
0.807359
0.770405
0.713049
0.676762
0.635992
0.603575
0.573938
0.549523
0.528519
0.510409
0.494699
0.480476
0.468387
0.458558
0.451319
0.4474
0.447858
0.450131
0.454348
0.462861
0.474991
0.490157
0.507461
0.52819
0.548988
0.574649
0.59809
0.62572
0.650689
0.679314
0.702186
0.730045
0.748632
0.768038
0.778616
0.795601
1.01592
1.02509
0.960183
0.900689
0.830294
0.796897
0.742548
0.709253
0.669809
0.638721
0.609643
0.584967
0.56323
0.544654
0.528321
0.514059
0.502066
0.49239
0.485253
0.481372
0.48181
0.483715
0.487216
0.494916
0.506154
0.520326
0.536453
0.556174
0.575791
0.600676
0.623329
0.65034
0.674891
0.703141
0.725804
0.75334
0.771784
0.790641
0.801977
0.820475
1.02687
1.04993
0.978211
0.919495
0.853472
0.822959
0.771205
0.74019
0.701775
0.671755
0.643203
0.618752
0.597361
0.578872
0.562123
0.547604
0.535441
0.525583
0.518235
0.514181
0.514575
0.516326
0.519548
0.52701
0.537989
0.551779
0.567264
0.586551
0.605327
0.629676
0.651724
0.67811
0.702188
0.729764
0.751985
0.778606
0.796473
0.813982
0.825169
0.845424
1.04519
1.06627
0.993847
0.935876
0.873896
0.846125
0.797063
0.768419
0.731216
0.701904
0.673126
0.649186
0.627448
0.608469
0.591673
0.577292
0.565325
0.555711
0.548553
0.544615
0.545029
0.546398
0.54887
0.555498
0.565623
0.578489
0.592899
0.611451
0.629147
0.652887
0.674356
0.700257
0.724091
0.751272
0.773442
0.799576
0.81737
0.834409
0.845924
0.867843
1.05662
1.08108
1.01021
0.953275
0.894915
0.868284
0.820975
0.792988
0.757266
0.729706
0.702285
0.678732
0.65714
0.638186
0.621353
0.606888
0.594776
0.584973
0.577583
0.573477
0.573901
0.575255
0.577663
0.584286
0.594425
0.607203
0.621235
0.639763
0.656757
0.680123
0.701175
0.726543
0.75
0.776336
0.79814
0.823165
0.840451
0.856326
0.867201
0.889131
1.06928
1.09414
1.01929
0.964395
0.909445
0.884395
0.83923
0.812923
0.778323
0.751787
0.724484
0.701204
0.679588
0.660873
0.644166
0.629722
0.617439
0.607248
0.599311
0.594689
0.594788
0.595721
0.59773
0.60425
0.614453
0.627112
0.640618
0.658923
0.674967
0.697778
0.718365
0.743413
0.766724
0.79262
0.814512
0.839007
0.856199
0.87162
0.882113
0.905254
1.08129
1.10054
1.01946
0.967889
0.916828
0.893114
0.85129
0.826275
0.793121
0.768024
0.741635
0.719433
0.69834
0.68022
0.663471
0.648614
0.635348
0.623852
0.614846
0.609994
0.610492
0.611463
0.61322
0.620072
0.631331
0.645096
0.658875
0.677708
0.692983
0.715284
0.735047
0.759241
0.781787
0.806352
0.82778
0.850856
0.867423
0.881967
0.891755
0.914265
1.08965
1.11658
1.01098
0.967637
0.920775
0.900453
0.862787
0.83879
0.805881
0.780693
0.75372
0.731173
0.709095
0.690491
0.672922
0.657249
0.642631
0.629142
0.617831
0.610797
0.609865
0.610435
0.612955
0.621534
0.634541
0.649881
0.664106
0.684122
0.699421
0.722423
0.74261
0.76734
0.790546
0.815111
0.837043
0.859323
0.87532
0.889179
0.899755
0.919622
1.11127
1.83511
0.978326
0.931257
0.910592
0.89218
0.860223
0.836027
0.804856
0.778676
0.752387
0.72971
0.708025
0.690447
0.674587
0.662144
0.652315
0.645424
0.640771
0.638633
0.64013
0.640891
0.641111
0.646395
0.653618
0.664808
0.6764
0.695558
0.711377
0.734651
0.756189
0.782226
0.807347
0.833741
0.857754
0.880524
0.897525
0.909992
0.920505
0.931422
1.77905
2.48267
1.7804
1.19978
1.18205
1.17185
1.15127
1.13916
1.11457
1.09617
1.07751
1.05811
1.03878
1.02217
1.00451
0.989324
0.974809
0.962917
0.952212
0.943709
0.9392
0.936122
0.930232
0.932162
0.931978
0.937606
0.940867
0.95351
0.959183
0.974004
0.98318
1.0012
1.01157
1.03169
1.04315
1.0555
1.06647
1.07595
1.10135
1.7561
2.4536
2.48267
1.7804
1.19978
1.18205
1.17185
1.15127
1.13916
1.11457
1.09617
1.07751
1.05811
1.03878
1.02217
1.00451
0.989324
0.974809
0.962917
0.952212
0.943709
0.9392
0.936122
0.930232
0.932162
0.931978
0.937606
0.940867
0.95351
0.959183
0.974004
0.98318
1.0012
1.01157
1.03169
1.04315
1.0555
1.06647
1.07595
1.10135
1.7561
2.4536
1.83511
0.978326
0.931257
0.910592
0.89218
0.860223
0.836027
0.804856
0.778676
0.752387
0.72971
0.708025
0.690447
0.674587
0.662144
0.652315
0.645424
0.640771
0.638633
0.64013
0.640891
0.641111
0.646395
0.653618
0.664808
0.6764
0.695558
0.711377
0.734651
0.756189
0.782226
0.807347
0.833741
0.857754
0.880524
0.897525
0.909992
0.920505
0.931422
1.77905
1.11658
1.01098
0.967637
0.920775
0.900453
0.862787
0.83879
0.805881
0.780693
0.75372
0.731173
0.709095
0.690491
0.672922
0.657249
0.642631
0.629142
0.617831
0.610797
0.609865
0.610435
0.612955
0.621534
0.634541
0.649881
0.664106
0.684122
0.699421
0.722423
0.74261
0.76734
0.790546
0.815111
0.837043
0.859323
0.87532
0.889179
0.899755
0.919622
1.11127
1.10054
1.01946
0.967889
0.916828
0.893114
0.85129
0.826275
0.793121
0.768024
0.741635
0.719433
0.69834
0.68022
0.663471
0.648614
0.635348
0.623852
0.614846
0.609994
0.610492
0.611463
0.61322
0.620072
0.631331
0.645096
0.658875
0.677708
0.692983
0.715284
0.735047
0.759241
0.781787
0.806352
0.82778
0.850856
0.867423
0.881967
0.891755
0.914265
1.08965
1.09414
1.01929
0.964395
0.909445
0.884395
0.83923
0.812923
0.778323
0.751787
0.724484
0.701204
0.679588
0.660873
0.644166
0.629722
0.617439
0.607248
0.599311
0.594689
0.594788
0.595721
0.59773
0.60425
0.614453
0.627112
0.640618
0.658923
0.674967
0.697778
0.718365
0.743413
0.766724
0.79262
0.814512
0.839007
0.856199
0.87162
0.882113
0.905254
1.08129
1.08108
1.01021
0.953275
0.894915
0.868284
0.820975
0.792988
0.757266
0.729706
0.702285
0.678732
0.65714
0.638186
0.621353
0.606888
0.594776
0.584973
0.577583
0.573477
0.573901
0.575255
0.577663
0.584286
0.594425
0.607203
0.621235
0.639763
0.656757
0.680123
0.701175
0.726543
0.75
0.776336
0.79814
0.823165
0.840451
0.856326
0.867201
0.889131
1.06928
1.06627
0.993847
0.935876
0.873896
0.846125
0.797063
0.768419
0.731216
0.701904
0.673126
0.649186
0.627448
0.608469
0.591673
0.577292
0.565325
0.555711
0.548553
0.544615
0.545029
0.546398
0.54887
0.555498
0.565623
0.578489
0.592899
0.611451
0.629147
0.652887
0.674356
0.700257
0.724091
0.751272
0.773442
0.799576
0.81737
0.834409
0.845924
0.867843
1.05662
1.04993
0.978211
0.919495
0.853472
0.822959
0.771205
0.74019
0.701775
0.671755
0.643203
0.618752
0.597361
0.578872
0.562123
0.547604
0.535441
0.525583
0.518235
0.514181
0.514575
0.516326
0.519548
0.52701
0.537989
0.551779
0.567264
0.586551
0.605327
0.629676
0.651724
0.67811
0.702188
0.729764
0.751985
0.778606
0.796473
0.813982
0.825169
0.845424
1.04519
1.02509
0.960183
0.900689
0.830294
0.796897
0.742548
0.709253
0.669809
0.638721
0.609643
0.584967
0.56323
0.544654
0.528321
0.514059
0.502066
0.49239
0.485253
0.481372
0.48181
0.483715
0.487216
0.494916
0.506154
0.520326
0.536453
0.556174
0.575791
0.600676
0.623329
0.65034
0.674891
0.703141
0.725804
0.75334
0.771784
0.790641
0.801977
0.820475
1.02687
1.01241
0.944875
0.882065
0.807359
0.770405
0.713049
0.676762
0.635992
0.603575
0.573938
0.549523
0.528519
0.510409
0.494699
0.480476
0.468387
0.458558
0.451319
0.4474
0.447858
0.450131
0.454348
0.462861
0.474991
0.490157
0.507461
0.52819
0.548988
0.574649
0.59809
0.62572
0.650689
0.679314
0.702186
0.730045
0.748632
0.768038
0.778616
0.795601
1.01592
0.994828
0.928734
0.862537
0.784523
0.743397
0.682636
0.642593
0.600219
0.566581
0.536283
0.511692
0.491286
0.473854
0.458141
0.444423
0.432396
0.422604
0.415411
0.411557
0.412071
0.414662
0.419466
0.42861
0.441436
0.457391
0.475702
0.497332
0.519253
0.545713
0.570056
0.598433
0.62404
0.653239
0.676638
0.705085
0.724165
0.744532
0.754701
0.770186
0.998191
0.987212
0.915033
0.845625
0.763941
0.716338
0.652249
0.607465
0.562914
0.527806
0.496839
0.47234
0.453073
0.436849
0.421958
0.408373
0.396347
0.386161
0.378643
0.374593
0.375078
0.378105
0.383818
0.394083
0.408211
0.425602
0.445536
0.468659
0.492174
0.519787
0.545345
0.574603
0.600985
0.630718
0.654728
0.683605
0.703291
0.72449
0.734308
0.748086
0.988697
0.98375
0.905918
0.834334
0.743927
0.687131
0.620752
0.571021
0.523767
0.486958
0.45544
0.430833
0.412281
0.397195
0.383342
0.37021
0.358101
0.347802
0.340134
0.336037
0.336609
0.340136
0.346763
0.358097
0.373425
0.392111
0.413493
0.437901
0.462872
0.491498
0.51821
0.548266
0.575451
0.605707
0.630429
0.659697
0.679974
0.701771
0.711162
0.724258
0.973447
0.988487
0.902617
0.838591
0.733725
0.654601
0.585449
0.531284
0.482552
0.444246
0.412693
0.388536
0.371196
0.357784
0.345225
0.332566
0.320205
0.309337
0.301039
0.296588
0.297152
0.301309
0.309192
0.322113
0.339281
0.359964
0.383479
0.409822
0.436934
0.467134
0.495561
0.526829
0.555263
0.586344
0.612164
0.642005
0.663178
0.685516
0.694845
0.706956
0.966327
0.985452
0.898754
0.850246
0.729617
0.628083
0.550528
0.489322
0.438272
0.398435
0.367255
0.343992
0.328087
0.316592
0.30575
0.294022
0.281674
0.270144
0.261216
0.256418
0.257066
0.262027
0.271391
0.286125
0.305311
0.32809
0.35372
0.381896
0.410999
0.442504
0.472371
0.504475
0.533832
0.565311
0.591899
0.621833
0.643397
0.665352
0.674157
0.686865
0.953175
0.97459
0.888613
0.861655
0.734461
0.609806
0.515951
0.441891
0.387888
0.348562
0.319788
0.298511
0.284746
0.275538
0.266785
0.25616
0.243723
0.231257
0.221266
0.215856
0.216592
0.222633
0.233946
0.251045
0.272791
0.298148
0.326276
0.356597
0.388008
0.421052
0.452637
0.485815
0.516421
0.54859
0.576351
0.606711
0.629016
0.650797
0.659486
0.673921
0.948563
0.88411
0.831947
0.844239
0.736173
0.603751
0.491373
0.397537
0.333364
0.294207
0.268982
0.251297
0.240682
0.234437
0.228269
0.219126
0.206688
0.192966
0.181433
0.175105
0.176003
0.183571
0.19748
0.217575
0.242369
0.270609
0.30136
0.333887
0.367488
0.401955
0.435096
0.469129
0.500781
0.533357
0.562065
0.592473
0.615059
0.635658
0.642998
0.660718
0.941525
0.589914
0.598836
0.68509
0.671018
0.599025
0.474906
0.353947
0.27282
0.234109
0.215149
0.203825
0.19722
0.194726
0.191498
0.184175
0.171711
0.156133
0.142165
0.13429
0.135453
0.145345
0.162889
0.186841
0.215223
0.246607
0.280045
0.314775
0.350375
0.386191
0.420763
0.455554
0.488171
0.521085
0.550716
0.581137
0.603815
0.623083
0.628784
0.651822
0.940502
0.558322
0.624326
0.543976
0.559137
0.560755
0.471541
0.326688
0.213573
0.167247
0.159345
0.157825
0.156661
0.158294
0.158308
0.153146
0.14057
0.122265
0.104306
0.0935629
0.0952225
0.109035
0.131811
0.160541
0.192832
0.227326
0.263241
0.299904
0.337189
0.374118
0.409852
0.445226
0.478617
0.511731
0.542136
0.572432
0.595049
0.613118
0.616339
0.64416
0.93858
1.33044
1.45601
1.13813
0.78326
0.607289
0.444384
0.290117
0.157887
0.0942809
0.104504
0.117751
0.123321
0.128678
0.131911
0.129189
0.116427
0.0945291
0.0701589
0.0532058
0.0561016
0.0774371
0.10736
0.141164
0.176976
0.213984
0.251762
0.289808
0.328253
0.365919
0.402414
0.43813
0.471996
0.505146
0.536018
0.566061
0.588443
0.605862
0.606498
0.637312
0.945578
)
;

boundaryField
{
    inlet
    {
        type            calculated;
        value           uniform 0;
    }
    outlet
    {
        type            calculated;
        value           nonuniform List<scalar> 
165
(
1.33044
0.558322
0.589914
0.88411
0.97459
0.985452
0.988487
0.98375
0.987212
0.994828
1.01241
1.02509
1.04993
1.06627
1.08108
1.09414
1.10054
1.11658
1.83511
2.48267
2.48267
1.7804
1.19978
1.18205
1.17185
1.15127
1.13916
1.11457
1.09617
1.07751
1.05811
1.03878
1.02217
1.00451
0.989324
0.974809
0.962917
0.952212
0.943709
0.9392
0.936122
0.930232
0.932162
0.931978
0.937606
0.940867
0.95351
0.959183
0.974004
0.98318
1.0012
1.01157
1.03169
1.04315
1.0555
1.06647
1.07595
1.10135
1.7561
2.4536
0.945578
0.93858
0.940502
0.941525
0.948563
0.953175
0.966327
0.973447
0.988697
0.998191
1.01592
1.02687
1.04519
1.05662
1.06928
1.08129
1.08965
1.11127
1.77905
2.4536
0.937579
0.931518
0.930805
0.931518
0.937579
2.4536
1.77905
1.11127
1.08965
1.08129
1.06928
1.05662
1.04519
1.02687
1.01592
0.998191
0.988697
0.973447
0.966327
0.953175
0.948563
0.941525
0.940502
0.93858
0.945578
2.48267
1.7804
1.19978
1.18205
1.17185
1.15127
1.13916
1.11457
1.09617
1.07751
1.05811
1.03878
1.02217
1.00451
0.989324
0.974809
0.962917
0.952212
0.943709
0.9392
0.936122
0.930232
0.932162
0.931978
0.937606
0.940867
0.95351
0.959183
0.974004
0.98318
1.0012
1.01157
1.03169
1.04315
1.0555
1.06647
1.07595
1.10135
1.7561
2.4536
2.48267
1.83511
1.11658
1.10054
1.09414
1.08108
1.06627
1.04993
1.02509
1.01241
0.994828
0.987212
0.98375
0.988487
0.985452
0.97459
0.88411
0.589914
0.558322
1.33044
)
;
    }
    obstacle
    {
        type            calculated;
        value           nonuniform List<scalar> 
40
(
0.799223
0.0748016
0.072317
0.0716673
0.0767327
0.0817721
0.0882784
0.0950762
0.0997128
0.094259
0.799223
0.0748016
0.072317
0.0716673
0.0767327
0.0817721
0.0882784
0.0950762
0.0997128
0.094259
0.101733
0.140344
0.194979
0.280255
0.421002
0.101733
0.140344
0.194979
0.280255
0.421002
0.906799
1.23186
1.1761
1.1508
1.16793
0.906799
1.23186
1.1761
1.1508
1.16793
)
;
    }
    empty
    {
        type            empty;
    }
}


// ************************************************************************* //
