/*--------------------------------*- C++ -*----------------------------------*\
| =========                 |                                                 |
| \\      /  F ield         | OpenFOAM: The Open Source CFD Toolbox           |
|  \\    /   O peration     | Version:  v1912                                 |
|   \\  /    A nd           | Website:  www.openfoam.com                      |
|    \\/     M anipulation  |                                                 |
\*---------------------------------------------------------------------------*/
FoamFile
{
    version     2.0;
    format      ascii;
    class       volScalarField;
    location    "5.64";
    object      T;
}
// * * * * * * * * * * * * * * * * * * * * * * * * * * * * * * * * * * * * * //

dimensions      [0 0 0 1 0 0 0];


internalField   nonuniform List<scalar> 
1900
(
1.17627
0.917894
0.931767
0.95308
0.964768
0.969871
0.971441
0.971807
0.971879
0.970503
1.17628
0.917895
0.931764
0.95308
0.964787
0.969896
0.971478
0.971917
0.971967
0.970095
1.17628
0.917896
0.931764
0.953086
0.964806
0.969907
0.971449
0.971814
0.971512
0.969877
1.17628
0.917895
0.931764
0.95308
0.964787
0.969896
0.971478
0.971917
0.971967
0.970095
1.17627
0.917894
0.931767
0.95308
0.964768
0.969871
0.971441
0.971807
0.971879
0.970503
0.973116
0.967529
0.968535
0.972102
1.00292
0.968133
0.963934
0.963985
0.966531
0.985619
0.967441
0.963175
0.962727
0.966142
0.985156
0.968133
0.963934
0.963985
0.966531
0.985619
0.973116
0.967529
0.968535
0.972102
1.00292
0.80348
0.715127
0.710042
0.698585
0.675574
0.823743
0.729513
0.719167
0.705243
0.685646
0.823704
0.723601
0.712994
0.700564
0.681342
0.823743
0.729513
0.719167
0.705243
0.685646
0.80348
0.715127
0.710042
0.698585
0.675574
0.579748
0.50395
0.514548
0.555166
0.583092
0.603848
0.595089
0.568518
0.539195
0.519142
0.506932
0.497595
0.488671
0.480038
0.472421
0.466961
0.463662
0.461646
0.460175
0.458923
0.457829
0.456894
0.456118
0.4555
0.455028
0.454697
0.454493
0.454464
0.454648
0.45515
0.455839
0.456947
0.458115
0.459859
0.461451
0.464692
0.469206
0.477405
0.457528
0.385485
0.596119
0.491087
0.50419
0.554112
0.587261
0.607273
0.597462
0.569977
0.539761
0.519332
0.50702
0.497633
0.488714
0.480094
0.472445
0.466963
0.463657
0.461641
0.460171
0.458919
0.457825
0.45689
0.456113
0.455495
0.455022
0.454691
0.454487
0.454457
0.45464
0.455143
0.455832
0.456941
0.458108
0.459856
0.461437
0.464696
0.469219
0.477463
0.457919
0.386711
0.595052
0.488804
0.496128
0.549521
0.584671
0.60478
0.597013
0.570519
0.540041
0.519412
0.507055
0.497654
0.488732
0.480113
0.472452
0.466963
0.463656
0.461639
0.460169
0.458918
0.457824
0.456889
0.456111
0.455494
0.45502
0.454689
0.454484
0.454454
0.454637
0.45514
0.455829
0.456938
0.458105
0.459854
0.461434
0.464701
0.469232
0.477521
0.458106
0.387183
0.596119
0.491087
0.50419
0.554112
0.587261
0.607273
0.597462
0.569977
0.539761
0.519332
0.50702
0.497633
0.488714
0.480094
0.472445
0.466963
0.463657
0.461641
0.460171
0.458919
0.457825
0.45689
0.456113
0.455495
0.455022
0.454691
0.454487
0.454457
0.45464
0.455143
0.455832
0.456941
0.458108
0.459856
0.461437
0.464696
0.469219
0.477463
0.457919
0.386711
0.579748
0.50395
0.514548
0.555166
0.583092
0.603848
0.595089
0.568518
0.539195
0.519142
0.506932
0.497595
0.488671
0.480038
0.472421
0.466961
0.463662
0.461646
0.460175
0.458923
0.457829
0.456894
0.456118
0.4555
0.455028
0.454697
0.454493
0.454464
0.454648
0.45515
0.455839
0.456947
0.458115
0.459859
0.461451
0.464692
0.469206
0.477405
0.457528
0.385485
0.540184
0.508218
0.527645
0.55878
0.584347
0.596939
0.587125
0.56316
0.536877
0.518156
0.506478
0.497322
0.488376
0.479749
0.472275
0.466929
0.463673
0.461662
0.460187
0.458933
0.457839
0.456906
0.456132
0.455517
0.455046
0.454718
0.454515
0.454488
0.454672
0.455173
0.455861
0.456961
0.458132
0.459859
0.461492
0.46467
0.469151
0.477195
0.457196
0.388184
0.517625
0.50493
0.525087
0.549136
0.573673
0.581084
0.571359
0.551595
0.530846
0.515507
0.505279
0.496504
0.487604
0.479094
0.471933
0.466856
0.463709
0.461713
0.460229
0.458969
0.457877
0.456949
0.456181
0.455572
0.455106
0.454782
0.454585
0.454561
0.454748
0.455245
0.455929
0.457015
0.458189
0.459892
0.461575
0.464657
0.469039
0.476763
0.458151
0.386556
0.478324
0.491093
0.515649
0.546354
0.561217
0.563866
0.554879
0.539359
0.523831
0.512089
0.503426
0.495177
0.486446
0.478213
0.471468
0.466744
0.463754
0.461787
0.460296
0.459031
0.457942
0.457023
0.456264
0.455663
0.455206
0.454892
0.454701
0.454685
0.454877
0.45537
0.456049
0.457116
0.458294
0.459973
0.461698
0.464659
0.468914
0.47631
0.459248
0.389039
0.464916
0.49601
0.519598
0.538901
0.548471
0.547204
0.539326
0.528068
0.517034
0.508449
0.501159
0.493443
0.484977
0.477175
0.470937
0.466608
0.463797
0.461871
0.460378
0.459111
0.458028
0.45712
0.456373
0.455785
0.455339
0.455038
0.454859
0.454852
0.455052
0.455541
0.456214
0.45726
0.458441
0.460099
0.461846
0.4647
0.4688
0.476063
0.460207
0.391062
0.460648
0.498134
0.518067
0.531016
0.535173
0.53259
0.52631
0.518476
0.510846
0.504747
0.498571
0.491318
0.483276
0.476033
0.470379
0.46646
0.463834
0.461959
0.460471
0.459205
0.458132
0.45724
0.456509
0.455935
0.455503
0.455217
0.455054
0.455061
0.455268
0.455749
0.456414
0.457435
0.458612
0.460247
0.462002
0.464757
0.468687
0.475992
0.461062
0.392424
0.456682
0.496657
0.513337
0.521684
0.522442
0.520231
0.515704
0.510754
0.505763
0.50134
0.495944
0.489039
0.48151
0.47491
0.469861
0.466333
0.463886
0.462064
0.460587
0.45933
0.458271
0.457397
0.456684
0.456129
0.455714
0.455444
0.455299
0.455327
0.455538
0.456014
0.456669
0.457665
0.458835
0.460451
0.462205
0.46489
0.468692
0.476131
0.461874
0.393628
0.450706
0.491919
0.507673
0.511427
0.511406
0.510142
0.507567
0.504765
0.501564
0.498073
0.493094
0.486554
0.479675
0.473806
0.469373
0.466225
0.463949
0.462188
0.460734
0.459492
0.458453
0.457599
0.456907
0.45637
0.455972
0.455717
0.455589
0.455635
0.455845
0.456307
0.456943
0.457903
0.459052
0.460637
0.462376
0.464985
0.468665
0.476353
0.462878
0.394984
0.443652
0.485447
0.502139
0.501616
0.503268
0.502722
0.5016
0.500118
0.498088
0.4951
0.490316
0.484177
0.478021
0.472911
0.469051
0.466242
0.464121
0.462422
0.460996
0.459777
0.45876
0.457928
0.457256
0.456737
0.456356
0.456115
0.456002
0.456065
0.45627
0.456714
0.457324
0.458243
0.459361
0.460908
0.462627
0.465165
0.468781
0.476654
0.463754
0.396394
0.437864
0.480115
0.496253
0.495361
0.498205
0.497911
0.497389
0.496573
0.49506
0.492179
0.487514
0.481895
0.476522
0.472161
0.468832
0.466326
0.464359
0.462732
0.461348
0.460159
0.45917
0.458362
0.457708
0.457205
0.456835
0.456603
0.456499
0.45657
0.456759
0.457172
0.457742
0.458607
0.45968
0.461177
0.462862
0.465334
0.468889
0.476936
0.464832
0.398088
0.43399
0.476488
0.491534
0.491489
0.494561
0.494261
0.494131
0.493675
0.492297
0.489357
0.484893
0.479938
0.475394
0.471727
0.468891
0.466663
0.464841
0.463298
0.461967
0.460818
0.459859
0.459071
0.458428
0.45793
0.457562
0.457328
0.457218
0.45728
0.457438
0.457803
0.458315
0.459109
0.46012
0.461553
0.463198
0.465603
0.469132
0.47728
0.465866
0.399896
0.431218
0.473542
0.487928
0.488835
0.49211
0.491725
0.491757
0.4913
0.489752
0.486728
0.48261
0.478384
0.474598
0.471531
0.469113
0.467112
0.465428
0.463969
0.462697
0.461589
0.460663
0.459896
0.459268
0.458779
0.458415
0.458185
0.458071
0.458126
0.458252
0.458567
0.459018
0.459737
0.460681
0.462045
0.463645
0.465985
0.469476
0.477685
0.467036
0.401964
0.430149
0.471664
0.48536
0.487075
0.490368
0.489831
0.489839
0.489199
0.487393
0.48445
0.480835
0.477316
0.474264
0.471773
0.469663
0.467884
0.466337
0.464975
0.463774
0.462716
0.461819
0.461065
0.460436
0.459941
0.459568
0.459331
0.459201
0.459233
0.459315
0.45957
0.45995
0.460584
0.461453
0.46274
0.464294
0.466568
0.470021
0.478276
0.468426
0.404443
0.429812
0.470776
0.484212
0.486307
0.489291
0.488519
0.488335
0.487419
0.485454
0.482719
0.479612
0.476758
0.474304
0.472199
0.470374
0.468763
0.467322
0.466031
0.464882
0.463865
0.463003
0.462278
0.461674
0.461201
0.460846
0.460624
0.460492
0.460515
0.460566
0.460774
0.461094
0.461657
0.46247
0.463711
0.46525
0.467506
0.470974
0.479288
0.470108
0.407126
0.430981
0.471232
0.484257
0.486431
0.488973
0.487874
0.487342
0.486065
0.484015
0.481663
0.479154
0.476953
0.474942
0.473182
0.471595
0.470149
0.468827
0.46763
0.466555
0.46559
0.464752
0.464024
0.463408
0.462924
0.46256
0.462334
0.462185
0.462187
0.462203
0.46236
0.46262
0.463112
0.463878
0.465081
0.466628
0.468883
0.472375
0.48084
0.472391
0.411114
0.433654
0.472667
0.485128
0.487028
0.488897
0.487624
0.486739
0.485292
0.483328
0.481407
0.479421
0.477611
0.475939
0.474428
0.473013
0.471682
0.470427
0.469253
0.468168
0.467192
0.466389
0.465738
0.465201
0.464772
0.464438
0.464228
0.464076
0.464075
0.464073
0.464203
0.464419
0.464862
0.465604
0.466802
0.46839
0.47068
0.474256
0.482988
0.475281
0.415921
0.437966
0.475243
0.48739
0.488758
0.489804
0.488452
0.487286
0.485852
0.484079
0.482495
0.480861
0.479428
0.478046
0.476776
0.475559
0.474412
0.473329
0.472311
0.47135
0.470449
0.469666
0.468982
0.468373
0.467861
0.467449
0.467188
0.466976
0.46692
0.466861
0.466938
0.467081
0.467453
0.46816
0.469339
0.470964
0.473307
0.476954
0.485958
0.478619
0.42154
0.443839
0.479199
0.491216
0.491712
0.491895
0.490425
0.489024
0.487721
0.486209
0.484965
0.48366
0.482529
0.48139
0.48036
0.479378
0.478468
0.477593
0.476724
0.47586
0.475017
0.474269
0.473597
0.47296
0.47237
0.471833
0.471477
0.471151
0.471047
0.47093
0.470986
0.471109
0.471475
0.472201
0.473415
0.475148
0.477598
0.481389
0.490687
0.483509
0.428252
0.449424
0.486758
0.500304
0.499013
0.497985
0.496033
0.49441
0.493315
0.492228
0.491372
0.490429
0.489496
0.488431
0.487377
0.486328
0.485429
0.48472
0.484187
0.483724
0.483177
0.482479
0.481608
0.480654
0.479902
0.479414
0.479274
0.479241
0.479303
0.479393
0.479587
0.479828
0.480267
0.481078
0.482462
0.484485
0.487298
0.49141
0.500981
0.492219
0.435998
0.350671
0.465651
0.497602
0.493625
0.491661
0.487956
0.485335
0.482817
0.480838
0.47895
0.477218
0.475463
0.47374
0.472009
0.470286
0.468637
0.467114
0.465799
0.464823
0.464198
0.463523
0.462905
0.462707
0.463008
0.463513
0.464195
0.465102
0.465848
0.46685
0.467841
0.468966
0.470263
0.471858
0.474082
0.476949
0.480313
0.484857
0.492839
0.467387
0.351969
0.338959
0.356413
0.434904
0.428569
0.422905
0.417977
0.414061
0.410807
0.408527
0.406373
0.404451
0.402628
0.400921
0.399273
0.397732
0.396363
0.395219
0.394334
0.393754
0.393424
0.392924
0.392373
0.392263
0.392717
0.393494
0.394647
0.396062
0.397514
0.399236
0.401103
0.403237
0.405688
0.408463
0.412425
0.417481
0.423452
0.43027
0.436555
0.352329
0.337583
0.338959
0.356413
0.434904
0.428569
0.422905
0.417977
0.414061
0.410807
0.408527
0.406373
0.404451
0.402628
0.400921
0.399273
0.397732
0.396363
0.395219
0.394334
0.393754
0.393424
0.392924
0.392373
0.392263
0.392717
0.393494
0.394647
0.396062
0.397514
0.399236
0.401103
0.403237
0.405688
0.408463
0.412425
0.417481
0.423452
0.43027
0.436555
0.352329
0.337583
0.350671
0.465651
0.497602
0.493625
0.491661
0.487956
0.485335
0.482817
0.480838
0.47895
0.477218
0.475463
0.47374
0.472009
0.470286
0.468637
0.467114
0.465799
0.464823
0.464198
0.463523
0.462905
0.462707
0.463008
0.463513
0.464195
0.465102
0.465848
0.46685
0.467841
0.468966
0.470263
0.471858
0.474082
0.476949
0.480313
0.484857
0.492839
0.467387
0.351969
0.449424
0.486758
0.500304
0.499013
0.497985
0.496033
0.49441
0.493315
0.492228
0.491372
0.490429
0.489496
0.488431
0.487377
0.486328
0.485429
0.48472
0.484187
0.483724
0.483177
0.482479
0.481608
0.480654
0.479902
0.479414
0.479274
0.479241
0.479303
0.479393
0.479587
0.479828
0.480267
0.481078
0.482462
0.484485
0.487298
0.49141
0.500981
0.492219
0.435998
0.443839
0.479199
0.491216
0.491712
0.491895
0.490425
0.489024
0.487721
0.486209
0.484965
0.48366
0.482529
0.48139
0.48036
0.479378
0.478468
0.477593
0.476724
0.47586
0.475017
0.474269
0.473597
0.47296
0.47237
0.471833
0.471477
0.471151
0.471047
0.47093
0.470986
0.471109
0.471475
0.472201
0.473415
0.475148
0.477598
0.481389
0.490687
0.483509
0.428252
0.437966
0.475243
0.48739
0.488758
0.489804
0.488452
0.487286
0.485852
0.484079
0.482495
0.480861
0.479428
0.478046
0.476776
0.475559
0.474412
0.473329
0.472311
0.47135
0.470449
0.469666
0.468982
0.468373
0.467861
0.467449
0.467188
0.466976
0.46692
0.466861
0.466938
0.467081
0.467453
0.46816
0.469339
0.470964
0.473307
0.476954
0.485958
0.478619
0.42154
0.433654
0.472667
0.485128
0.487028
0.488897
0.487624
0.486739
0.485292
0.483328
0.481407
0.479421
0.477611
0.475939
0.474428
0.473013
0.471682
0.470427
0.469253
0.468168
0.467192
0.466389
0.465738
0.465201
0.464772
0.464438
0.464228
0.464076
0.464075
0.464073
0.464203
0.464419
0.464862
0.465604
0.466802
0.46839
0.47068
0.474256
0.482988
0.475281
0.415921
0.430981
0.471232
0.484257
0.486431
0.488973
0.487874
0.487342
0.486065
0.484015
0.481663
0.479154
0.476953
0.474942
0.473182
0.471595
0.470149
0.468827
0.46763
0.466555
0.46559
0.464752
0.464024
0.463408
0.462924
0.46256
0.462334
0.462185
0.462187
0.462203
0.46236
0.46262
0.463112
0.463878
0.465081
0.466628
0.468883
0.472375
0.48084
0.472391
0.411114
0.429812
0.470776
0.484212
0.486307
0.489291
0.488519
0.488335
0.487419
0.485454
0.482719
0.479612
0.476758
0.474304
0.472199
0.470374
0.468763
0.467322
0.466031
0.464882
0.463865
0.463003
0.462278
0.461674
0.461201
0.460846
0.460624
0.460492
0.460515
0.460566
0.460774
0.461094
0.461657
0.46247
0.463711
0.46525
0.467506
0.470974
0.479288
0.470108
0.407126
0.430149
0.471664
0.48536
0.487075
0.490368
0.489831
0.489839
0.489199
0.487393
0.48445
0.480835
0.477316
0.474264
0.471773
0.469663
0.467884
0.466337
0.464975
0.463774
0.462716
0.461819
0.461065
0.460436
0.459941
0.459568
0.459331
0.459201
0.459233
0.459315
0.45957
0.45995
0.460584
0.461453
0.46274
0.464294
0.466568
0.470021
0.478276
0.468426
0.404443
0.431218
0.473542
0.487928
0.488835
0.49211
0.491725
0.491757
0.4913
0.489752
0.486728
0.48261
0.478384
0.474598
0.471531
0.469113
0.467112
0.465428
0.463969
0.462697
0.461589
0.460663
0.459896
0.459268
0.458779
0.458415
0.458185
0.458071
0.458126
0.458252
0.458567
0.459018
0.459737
0.460681
0.462045
0.463645
0.465985
0.469476
0.477685
0.467036
0.401964
0.43399
0.476488
0.491534
0.491489
0.494561
0.494261
0.494131
0.493675
0.492297
0.489357
0.484893
0.479938
0.475394
0.471727
0.468891
0.466663
0.464841
0.463298
0.461967
0.460818
0.459859
0.459071
0.458428
0.45793
0.457562
0.457328
0.457218
0.45728
0.457438
0.457803
0.458315
0.459109
0.46012
0.461553
0.463198
0.465603
0.469132
0.47728
0.465866
0.399896
0.437864
0.480115
0.496253
0.495361
0.498205
0.497911
0.497389
0.496573
0.49506
0.492179
0.487514
0.481895
0.476522
0.472161
0.468832
0.466326
0.464359
0.462732
0.461348
0.460159
0.45917
0.458362
0.457708
0.457205
0.456835
0.456603
0.456499
0.45657
0.456759
0.457172
0.457742
0.458607
0.45968
0.461177
0.462862
0.465334
0.468889
0.476936
0.464832
0.398088
0.443652
0.485447
0.502139
0.501616
0.503268
0.502722
0.5016
0.500118
0.498088
0.4951
0.490316
0.484177
0.478021
0.472911
0.469051
0.466242
0.464121
0.462422
0.460996
0.459777
0.45876
0.457928
0.457256
0.456737
0.456356
0.456115
0.456002
0.456065
0.45627
0.456714
0.457324
0.458243
0.459361
0.460908
0.462627
0.465165
0.468781
0.476654
0.463754
0.396394
0.450706
0.491919
0.507673
0.511427
0.511406
0.510142
0.507567
0.504765
0.501564
0.498073
0.493094
0.486554
0.479675
0.473806
0.469373
0.466225
0.463949
0.462188
0.460734
0.459492
0.458453
0.457599
0.456907
0.45637
0.455972
0.455717
0.455589
0.455635
0.455845
0.456307
0.456943
0.457903
0.459052
0.460637
0.462376
0.464985
0.468665
0.476353
0.462878
0.394984
0.456682
0.496657
0.513337
0.521684
0.522442
0.520231
0.515704
0.510754
0.505763
0.50134
0.495944
0.489039
0.48151
0.47491
0.469861
0.466333
0.463886
0.462064
0.460587
0.45933
0.458271
0.457397
0.456684
0.456129
0.455714
0.455444
0.455299
0.455327
0.455538
0.456014
0.456669
0.457665
0.458835
0.460451
0.462205
0.46489
0.468692
0.476131
0.461874
0.393628
0.460648
0.498134
0.518067
0.531016
0.535173
0.53259
0.52631
0.518476
0.510846
0.504747
0.498571
0.491318
0.483276
0.476033
0.470379
0.46646
0.463834
0.461959
0.460471
0.459205
0.458132
0.45724
0.456509
0.455935
0.455503
0.455217
0.455054
0.455061
0.455268
0.455749
0.456414
0.457435
0.458612
0.460247
0.462002
0.464757
0.468687
0.475992
0.461062
0.392424
0.464916
0.49601
0.519598
0.538901
0.548471
0.547204
0.539326
0.528068
0.517034
0.508449
0.501159
0.493443
0.484977
0.477175
0.470937
0.466608
0.463797
0.461871
0.460378
0.459111
0.458028
0.45712
0.456373
0.455785
0.455339
0.455038
0.454859
0.454852
0.455052
0.455541
0.456214
0.45726
0.458441
0.460099
0.461846
0.4647
0.4688
0.476063
0.460207
0.391062
0.478324
0.491093
0.515649
0.546354
0.561217
0.563866
0.554879
0.539359
0.523831
0.512089
0.503426
0.495177
0.486446
0.478213
0.471468
0.466744
0.463754
0.461787
0.460296
0.459031
0.457942
0.457023
0.456264
0.455663
0.455206
0.454892
0.454701
0.454685
0.454877
0.45537
0.456049
0.457116
0.458294
0.459973
0.461698
0.464659
0.468914
0.47631
0.459248
0.389039
0.517625
0.50493
0.525087
0.549136
0.573673
0.581084
0.571359
0.551595
0.530846
0.515507
0.505279
0.496504
0.487604
0.479094
0.471933
0.466856
0.463709
0.461713
0.460229
0.458969
0.457877
0.456949
0.456181
0.455572
0.455106
0.454782
0.454585
0.454561
0.454748
0.455245
0.455929
0.457015
0.458189
0.459892
0.461575
0.464657
0.469039
0.476763
0.458151
0.386556
0.540184
0.508218
0.527645
0.55878
0.584347
0.596939
0.587125
0.56316
0.536877
0.518156
0.506478
0.497322
0.488376
0.479749
0.472275
0.466929
0.463673
0.461662
0.460187
0.458933
0.457839
0.456906
0.456132
0.455517
0.455046
0.454718
0.454515
0.454488
0.454672
0.455173
0.455861
0.456961
0.458132
0.459859
0.461492
0.46467
0.469151
0.477195
0.457196
0.388184
)
;

boundaryField
{
    inlet
    {
        type            fixedValue;
        value           uniform 1;
    }
    outlet
    {
        type            zeroGradient;
    }
    obstacle
    {
        type            zeroGradient;
    }
    empty
    {
        type            empty;
    }
}


// ************************************************************************* //
