/*--------------------------------*- C++ -*----------------------------------*\
| =========                 |                                                 |
| \\      /  F ield         | OpenFOAM: The Open Source CFD Toolbox           |
|  \\    /   O peration     | Version:  v1912                                 |
|   \\  /    A nd           | Website:  www.openfoam.com                      |
|    \\/     M anipulation  |                                                 |
\*---------------------------------------------------------------------------*/
FoamFile
{
    version     2.0;
    format      ascii;
    class       volVectorField;
    location    "8.34";
    object      grad(T);
}
// * * * * * * * * * * * * * * * * * * * * * * * * * * * * * * * * * * * * * //

dimensions      [0 -1 0 1 0 0 0];


internalField   nonuniform List<vector> 
1900
(
(1.48258 1.54606e-06 0)
(-1.40266 5.01082e-06 0)
(-0.596679 -6.1788e-07 0)
(-0.194533 2.37614e-05 0)
(-0.0357748 1.88012e-05 0)
(0.0241647 1.32995e-05 0)
(0.0644903 2.72096e-05 0)
(0.0807683 0.000499427 0)
(0.068551 0.00210585 0)
(0.0732749 -0.00196874 0)
(1.48258 1.70402e-06 0)
(-1.40266 9.53095e-06 0)
(-0.596661 3.86846e-06 0)
(-0.194514 4.85476e-05 0)
(-0.0357852 3.56154e-05 0)
(0.0241731 -2.83091e-06 0)
(0.0649764 -1.01482e-05 0)
(0.0828469 0.00050329 0)
(0.0660829 0.000688414 0)
(0.037828 -0.0050396 0)
(1.48259 -3.70797e-13 0)
(-1.40266 -4.77049e-13 0)
(-0.59664 -5.87638e-13 0)
(-0.194501 -4.4886e-13 0)
(-0.0358262 -4.46691e-13 0)
(0.0241189 -2.69966e-13 0)
(0.0649964 1.12757e-13 0)
(0.0814669 6.83047e-14 0)
(0.0630082 5.42101e-15 0)
(0.0330307 -2.1684e-14 0)
(1.48258 -1.70402e-06 0)
(-1.40266 -9.53095e-06 0)
(-0.596661 -3.86846e-06 0)
(-0.194514 -4.85476e-05 0)
(-0.0357852 -3.56154e-05 0)
(0.0241731 2.83091e-06 0)
(0.0649764 1.01482e-05 0)
(0.0828469 -0.00050329 0)
(0.0660829 -0.000688414 0)
(0.037828 0.0050396 0)
(1.48258 -1.54606e-06 0)
(-1.40266 -5.01082e-06 0)
(-0.596679 6.17879e-07 0)
(-0.194533 -2.37614e-05 0)
(-0.0357748 -1.88012e-05 0)
(0.0241647 -1.32995e-05 0)
(0.0644903 -2.72096e-05 0)
(0.0807683 -0.000499427 0)
(0.068551 -0.00210585 0)
(0.0732749 0.00196874 0)
(0.0255735 -0.0291236 9.44421e-16)
(-0.00419641 -0.0221072 -1.13313e-15)
(0.10501 -0.0315455 -1.43963e-15)
(0.395653 -0.0598104 0)
(-0.514909 -0.319176 -6.49346e-15)
(0.00896154 -0.0351656 9.39158e-16)
(0.0109188 -0.0265819 1.13313e-15)
(0.0907145 -0.0375324 1.43963e-15)
(0.289014 -0.0593902 0)
(-0.44736 -0.349961 0)
(-0.00181125 -3.14261e-14 0)
(0.00622309 -5.70633e-14 0)
(0.084292 -1.50584e-14 0)
(0.259121 3.28546e-14 0)
(-0.579934 1.67793e-13 0)
(0.00896154 0.0351656 9.39158e-16)
(0.0109188 0.0265819 1.13313e-15)
(0.0907145 0.0375324 1.43963e-15)
(0.289014 0.0593902 0)
(-0.44736 0.349961 0)
(0.0255735 0.0291236 -2.82274e-15)
(-0.00419641 0.0221072 -1.13313e-15)
(0.10501 0.0315455 -1.43963e-15)
(0.395653 0.0598104 -3.96879e-15)
(-0.514909 0.319176 6.49346e-15)
(-1.89339 0.458411 2.19464e-15)
(-0.970701 0.319271 -1.58568e-15)
(-0.59536 0.218713 0)
(-0.415497 0.195951 1.01512e-15)
(-0.310678 0.0808454 -4.26145e-16)
(-1.68952 0.457721 -1.10422e-15)
(-1.01223 0.211078 7.97647e-16)
(-0.614985 0.114174 0)
(-0.457444 0.125216 -6.39081e-16)
(-0.2907 -0.0430161 1.06821e-16)
(-1.74305 1.20467e-13 0)
(-1.0692 1.34367e-13 0)
(-0.626837 3.61401e-14 0)
(-0.490848 7.08629e-14 2.57141e-16)
(-0.277022 9.98607e-14 -2.13642e-16)
(-1.68952 -0.457721 -1.10422e-15)
(-1.01223 -0.211078 7.97647e-16)
(-0.614985 -0.114174 0)
(-0.457444 -0.125216 -6.39081e-16)
(-0.2907 0.0430161 1.06821e-16)
(-1.89339 -0.458411 1.10422e-15)
(-0.970701 -0.319271 -9.6154e-18)
(-0.59536 -0.218713 0)
(-0.415497 -0.195951 5.90141e-18)
(-0.310678 -0.0808454 4.26145e-16)
(-0.213027 0.8355 0)
(-0.110059 1.00829 0)
(-0.0607309 1.04227 0)
(-0.0414534 0.969848 0)
(-0.0380784 0.859756 0)
(-0.0451377 0.732017 0)
(-0.0547962 0.622315 0)
(-0.0816948 0.542446 0)
(-0.0700152 0.45335 0)
(-0.00388918 0.379599 0)
(0.144556 0.368231 0)
(0.352009 0.386221 0)
(0.325594 0.391709 0)
(0.144541 0.313329 0)
(0.0689589 0.226047 0)
(0.0577253 0.110005 0)
(0.0293967 0.00282089 0)
(-0.0319305 -0.0256367 0)
(-0.108205 -0.0360874 0)
(-0.170323 -0.0092721 0)
(-0.166695 0.00704247 0)
(-0.141796 0.0112139 0)
(-0.18026 0.0129475 0)
(-0.304416 0.0147583 0)
(-0.369624 0.0148284 0)
(-0.222352 0.00544693 0)
(-0.0543175 0.000113223 0)
(-0.00863274 -0.000167162 0)
(0.0812215 -7.94059e-05 0)
(0.272358 0.000195593 0)
(0.296469 6.3377e-05 0)
(0.148971 -0.000361014 0)
(0.0807121 -0.000407769 0)
(0.0859032 -0.000368563 0)
(0.103439 -0.000344259 0)
(0.0937837 -0.000192739 0)
(0.0536555 -0.000587779 0)
(0.0157843 -0.00144759 0)
(-0.00540953 -0.0017264 0)
(-0.006711 -0.00175687 0)
(-0.0770556 0.253301 0)
(-0.0145178 0.560765 0)
(-0.0511122 0.70389 0)
(-0.0729163 0.72638 0)
(-0.0872497 0.66083 0)
(-0.0904786 0.548969 0)
(-0.084276 0.449188 0)
(-0.103872 0.390344 0)
(-0.0954446 0.329005 0)
(-0.0206004 0.257776 0)
(0.149495 0.247197 0)
(0.358158 0.269001 0)
(0.311708 0.267041 0)
(0.121046 0.214219 0)
(0.044942 0.156935 0)
(0.0318696 0.0982607 0)
(0.0132302 0.0404281 0)
(-0.0390337 0.0244603 0)
(-0.11039 0.00369934 0)
(-0.168964 0.0154203 0)
(-0.16737 0.0485427 0)
(-0.142204 0.0398136 0)
(-0.179085 0.0178318 0)
(-0.303803 0.0109736 0)
(-0.371539 0.00509935 0)
(-0.224431 0.00126055 0)
(-0.0548877 6.60447e-06 0)
(-0.0086492 -7.04473e-05 0)
(0.0812367 -3.08105e-05 0)
(0.272357 4.68721e-05 0)
(0.296423 -8.68148e-06 0)
(0.148927 -0.000243276 0)
(0.0806918 -0.000293694 0)
(0.0858786 -0.000355749 0)
(0.103446 -0.000406533 0)
(0.0937773 -0.000285 0)
(0.0535421 -0.000364853 0)
(0.0156631 -0.000857653 0)
(-0.00543743 -0.00117417 0)
(-0.00670529 -0.00136003 0)
(-0.0194167 1.26162e-13 0)
(0.021022 3.27232e-13 0)
(-0.0125518 4.92819e-14 0)
(-0.0539801 -3.72571e-13 0)
(-0.089689 -6.1701e-13 0)
(-0.106706 -6.40665e-13 0)
(-0.100941 -6.01239e-13 0)
(-0.116657 -4.59307e-13 0)
(-0.108581 -5.63785e-13 0)
(-0.0276877 -9.85638e-14 0)
(0.147822 -1.59673e-13 0)
(0.357781 -3.5483e-14 0)
(0.309657 1.14334e-13 0)
(0.11251 8.08223e-14 0)
(0.0352257 -2.06984e-13 0)
(0.0238324 -5.65756e-13 0)
(0.00792747 6.93889e-13 0)
(-0.0426152 1.47057e-12 0)
(-0.110835 1.78598e-12 0)
(-0.157277 8.25965e-13 0)
(-0.159599 -5.04647e-13 0)
(-0.15073 -5.08589e-13 0)
(-0.18865 -3.82428e-13 0)
(-0.30812 -2.1684e-13 0)
(-0.372449 -6.70234e-14 0)
(-0.223834 -5.22388e-14 0)
(-0.0547046 4.70149e-13 0)
(-0.00864362 1.22219e-13 0)
(0.0812557 5.46044e-13 0)
(0.272365 2.11124e-12 0)
(0.296384 -3.66657e-13 0)
(0.148888 -1.35821e-12 0)
(0.0806794 -5.81527e-13 0)
(0.0858703 -2.68094e-13 0)
(0.103459 -1.41932e-13 0)
(0.0937958 0 0)
(0.0534889 -2.10927e-13 0)
(0.0155489 -4.57336e-13 0)
(-0.00555567 -4.19882e-13 0)
(-0.00676507 -3.23289e-13 0)
(-0.0770556 -0.253301 0)
(-0.0145178 -0.560765 0)
(-0.0511122 -0.70389 0)
(-0.0729163 -0.72638 0)
(-0.0872497 -0.66083 0)
(-0.0904786 -0.548969 0)
(-0.084276 -0.449188 0)
(-0.103872 -0.390344 0)
(-0.0954446 -0.329005 0)
(-0.0206004 -0.257776 0)
(0.149495 -0.247197 0)
(0.358158 -0.269001 0)
(0.311708 -0.267041 0)
(0.121046 -0.214219 0)
(0.044942 -0.156935 0)
(0.0318696 -0.0982607 0)
(0.0132302 -0.0404281 0)
(-0.0390337 -0.0244603 0)
(-0.11039 -0.00369934 0)
(-0.168964 -0.0154203 0)
(-0.16737 -0.0485427 0)
(-0.142204 -0.0398136 0)
(-0.179085 -0.0178318 0)
(-0.303803 -0.0109736 0)
(-0.371539 -0.00509935 0)
(-0.224431 -0.00126055 0)
(-0.0548877 -6.60447e-06 0)
(-0.0086492 7.04473e-05 0)
(0.0812367 3.08105e-05 0)
(0.272357 -4.68721e-05 0)
(0.296423 8.68148e-06 0)
(0.148927 0.000243276 0)
(0.0806918 0.000293694 0)
(0.0858786 0.000355749 0)
(0.103446 0.000406533 0)
(0.0937773 0.000285 0)
(0.0535421 0.000364853 0)
(0.0156631 0.000857653 0)
(-0.00543743 0.00117417 0)
(-0.00670529 0.00136003 0)
(-0.213027 -0.8355 0)
(-0.110059 -1.00829 0)
(-0.0607309 -1.04227 0)
(-0.0414534 -0.969848 0)
(-0.0380784 -0.859756 0)
(-0.0451377 -0.732017 0)
(-0.0547962 -0.622315 0)
(-0.0816948 -0.542446 0)
(-0.0700152 -0.45335 0)
(-0.00388918 -0.379599 0)
(0.144556 -0.368231 0)
(0.352009 -0.386221 0)
(0.325594 -0.391709 0)
(0.144541 -0.313329 0)
(0.0689589 -0.226047 0)
(0.0577253 -0.110005 0)
(0.0293967 -0.00282089 0)
(-0.0319305 0.0256367 0)
(-0.108205 0.0360874 0)
(-0.170323 0.0092721 0)
(-0.166695 -0.00704247 0)
(-0.141796 -0.0112139 0)
(-0.18026 -0.0129475 0)
(-0.304416 -0.0147583 0)
(-0.369624 -0.0148284 0)
(-0.222352 -0.00544693 0)
(-0.0543175 -0.000113223 0)
(-0.00863274 0.000167162 0)
(0.0812215 7.94059e-05 0)
(0.272358 -0.000195593 0)
(0.296469 -6.3377e-05 0)
(0.148971 0.000361014 0)
(0.0807121 0.000407769 0)
(0.0859032 0.000368563 0)
(0.103439 0.000344259 0)
(0.0937837 0.000192739 0)
(0.0536555 0.000587779 0)
(0.0157843 0.00144759 0)
(-0.00540953 0.0017264 0)
(-0.006711 0.00175687 0)
(-0.0160482 -0.839231 0)
(-0.0337519 -0.737631 0)
(-0.0158751 -0.700583 0)
(0.00519273 -0.659903 0)
(0.00508113 -0.623847 0)
(0.00603599 -0.579847 0)
(0.000550624 -0.520044 0)
(-0.0235273 -0.462978 0)
(-0.0226975 -0.385174 0)
(0.0134705 -0.343342 0)
(0.151052 -0.322315 0)
(0.350542 -0.292611 0)
(0.341376 -0.328445 0)
(0.197795 -0.273719 0)
(0.144712 -0.206422 0)
(0.141998 -0.115286 0)
(0.079622 -0.0330514 0)
(-0.0228407 -0.0178401 0)
(-0.123182 -0.0171031 0)
(-0.194448 -0.0244701 0)
(-0.181001 -0.0239979 0)
(-0.146381 -0.0210937 0)
(-0.17995 -0.0223692 0)
(-0.304275 -0.0258177 0)
(-0.367912 -0.0280125 0)
(-0.217603 -0.00966453 0)
(-0.0520255 -0.000150497 0)
(-0.00854739 0.000333942 0)
(0.0810267 0.000175095 0)
(0.272265 -0.000514774 0)
(0.29672 -0.000225337 0)
(0.149173 0.000658547 0)
(0.0806731 0.000788155 0)
(0.0858105 0.000610609 0)
(0.103345 0.000423684 0)
(0.0939227 0.000186031 0)
(0.0541981 0.000520542 0)
(0.0162372 0.00132071 0)
(-0.00527569 0.00153723 0)
(-0.00667958 0.00149556 0)
(-0.0059272 -0.268898 0)
(-0.0173705 -0.245109 0)
(-0.00988232 -0.219916 0)
(0.00747852 -0.219459 0)
(0.0159226 -0.221199 0)
(0.0274505 -0.220793 0)
(0.0281448 -0.225257 0)
(0.0170791 -0.221292 0)
(0.0198974 -0.19695 0)
(0.0473754 -0.181394 0)
(0.18996 -0.15489 0)
(0.346888 -0.121524 0)
(0.335336 -0.176871 0)
(0.23357 -0.163714 0)
(0.181009 -0.142154 0)
(0.179602 -0.103815 0)
(0.0963669 -0.0851715 0)
(-0.0214364 -0.0939748 0)
(-0.106562 -0.0983382 0)
(-0.16403 -0.0802597 0)
(-0.155771 -0.0483856 0)
(-0.137767 -0.0313942 0)
(-0.184978 -0.0339001 0)
(-0.30993 -0.0478829 0)
(-0.354975 -0.0489156 0)
(-0.198051 -0.0135829 0)
(-0.0459116 4.8669e-05 0)
(-0.00836475 0.000685568 0)
(0.0805081 0.000462213 0)
(0.272022 -0.000668195 0)
(0.297465 -0.000341798 0)
(0.149839 0.00110821 0)
(0.0806869 0.00146452 0)
(0.0856016 0.00129269 0)
(0.10308 0.00101476 0)
(0.0938025 0.000703923 0)
(0.0544579 0.000611793 0)
(0.0165212 0.000844168 0)
(-0.00531281 0.000959833 0)
(-0.00676801 0.00113243 0)
(0.00687622 -0.024436 0)
(0.0134494 -0.0181621 0)
(0.00884208 -0.00324137 0)
(0.00395578 -0.00373914 0)
(0.00379559 -0.0104635 0)
(0.00212534 -0.0222349 0)
(6.93804e-05 -0.0503538 0)
(0.00375116 -0.0621927 0)
(0.0157493 -0.0511151 0)
(0.0540011 -0.0382255 0)
(0.208745 -0.00884795 0)
(0.32936 -0.0233387 0)
(0.30072 -0.0783994 0)
(0.231249 -0.0907039 0)
(0.202433 -0.0682258 0)
(0.196909 -0.0305604 0)
(0.0891047 -0.051869 0)
(-0.0355286 -0.0728093 0)
(-0.109966 -0.0918173 0)
(-0.146312 -0.0817488 0)
(-0.133912 -0.0527443 0)
(-0.132422 -0.0402853 0)
(-0.19584 -0.0478894 0)
(-0.318744 -0.0665686 0)
(-0.334859 -0.0617777 0)
(-0.170419 -0.0142618 0)
(-0.038276 0.00061036 0)
(-0.00814888 0.00129617 0)
(0.0797222 0.00103289 0)
(0.271491 -0.000314707 0)
(0.298431 -3.6346e-06 0)
(0.150913 0.00178598 0)
(0.0808508 0.00230949 0)
(0.0853771 0.00209832 0)
(0.102778 0.00171527 0)
(0.0935344 0.0013224 0)
(0.0543332 0.00107274 0)
(0.0165726 0.000926989 0)
(-0.0049979 0.00105965 0)
(-0.00651325 0.00179029 0)
(0.000118593 0.00985911 0)
(0.00305345 0.0023638 0)
(0.00401617 -0.00440657 0)
(0.000519035 -0.00796137 0)
(-0.00190056 -0.0111659 0)
(-0.0109893 -0.0151691 0)
(-0.01036 -0.0254232 0)
(0.0163455 -0.0190798 0)
(0.0429931 -0.00276245 0)
(0.0881056 0.0283385 0)
(0.204305 0.0784631 0)
(0.279866 0.022688 0)
(0.27042 -0.00959407 0)
(0.243374 -0.0205943 0)
(0.238965 0.00227599 0)
(0.195364 0.0127867 0)
(0.0556544 -0.0536819 0)
(-0.0599321 -0.0811928 0)
(-0.115177 -0.0977803 0)
(-0.126377 -0.0812804 0)
(-0.115815 -0.0572644 0)
(-0.133089 -0.05285 0)
(-0.210306 -0.0657457 0)
(-0.323313 -0.0851184 0)
(-0.304571 -0.0673447 0)
(-0.137931 -0.0120376 0)
(-0.0309193 0.00129628 0)
(-0.00795759 0.00186131 0)
(0.0789558 0.0015542 0)
(0.271023 -0.000204862 0)
(0.299489 -0.00035993 0)
(0.152068 0.0015115 0)
(0.0809879 0.00212154 0)
(0.085029 0.00181636 0)
(0.102332 0.00137456 0)
(0.0931834 0.00100326 0)
(0.0540769 0.00104307 0)
(0.0165086 0.00107347 0)
(-0.0044809 0.00134385 0)
(-0.00606394 0.00226751 0)
(-0.000346539 0.0302707 0)
(-0.000297536 0.0298285 0)
(-0.00110762 0.0260201 0)
(-0.00255773 0.0231309 0)
(-0.00315008 0.0223133 0)
(-0.0116135 0.0202544 0)
(-0.00369907 0.0305469 0)
(0.0255878 0.0484488 0)
(0.0614433 0.0592541 0)
(0.132273 0.082136 0)
(0.2033 0.108772 0)
(0.244505 0.0800661 0)
(0.259012 0.0733308 0)
(0.242688 0.0497165 0)
(0.2346 0.0691982 0)
(0.142985 0.0146114 0)
(-0.00145731 -0.0660217 0)
(-0.0780235 -0.0949168 0)
(-0.11005 -0.0970789 0)
(-0.10727 -0.0761819 0)
(-0.106516 -0.06209 0)
(-0.140595 -0.066111 0)
(-0.226935 -0.0831492 0)
(-0.320285 -0.10056 0)
(-0.264436 -0.0652506 0)
(-0.104274 -0.00887305 0)
(-0.0248825 0.00134623 0)
(-0.00790034 0.00164766 0)
(0.0777312 0.00139204 0)
(0.269646 -0.000332825 0)
(0.300085 -0.00100873 0)
(0.153305 0.000531486 0)
(0.0811446 0.000980686 0)
(0.0846573 0.000544887 0)
(0.101994 0.000206243 0)
(0.0932149 3.7697e-05 0)
(0.0544009 0.00052994 0)
(0.0168624 0.000961221 0)
(-0.00384728 0.00138402 0)
(-0.00562318 0.00223665 0)
(-0.000307511 0.0417154 0)
(-0.00104255 0.0417196 0)
(-0.00243785 0.0407588 0)
(-0.003053 0.0398676 0)
(-0.00467249 0.0417673 0)
(-0.00305504 0.0466623 0)
(0.0168091 0.0677756 0)
(0.0440088 0.087047 0)
(0.0754553 0.110939 0)
(0.135823 0.125687 0)
(0.20231 0.121811 0)
(0.245713 0.124727 0)
(0.241174 0.100877 0)
(0.239391 0.0952219 0)
(0.205137 0.0846643 0)
(0.065061 -0.0334183 0)
(-0.049891 -0.0857796 0)
(-0.0898599 -0.103089 0)
(-0.0971232 -0.0917136 0)
(-0.0926608 -0.0735933 0)
(-0.10611 -0.0703228 0)
(-0.153382 -0.080546 0)
(-0.243502 -0.100626 0)
(-0.306065 -0.110656 0)
(-0.216218 -0.056154 0)
(-0.073756 -0.00659345 0)
(-0.0207812 -5.78559e-05 0)
(-0.00791345 -2.84916e-05 0)
(0.0770474 -0.000224243 0)
(0.26871 -0.00242673 0)
(0.300322 -0.00328635 0)
(0.153985 -0.00091938 0)
(0.0810008 2.30783e-05 0)
(0.0842828 -0.000453166 0)
(0.101843 -0.00107111 0)
(0.0934953 -0.00118978 0)
(0.0549668 -0.000326508 0)
(0.0173316 0.000691214 0)
(-0.00325185 0.00133203 0)
(-0.00524231 0.00206104 0)
(-0.000342497 0.0677974 0)
(-0.00121931 0.0681825 0)
(-0.00289225 0.0692191 0)
(-0.00158595 0.0725561 0)
(0.00339756 0.0794659 0)
(0.0134491 0.0921678 0)
(0.0352171 0.108722 0)
(0.0671817 0.121744 0)
(0.098678 0.139865 0)
(0.142749 0.155844 0)
(0.202375 0.164817 0)
(0.224332 0.156674 0)
(0.23058 0.134292 0)
(0.227065 0.127352 0)
(0.110638 0.0164832 0)
(-0.0212604 -0.0805945 0)
(-0.0685946 -0.103966 0)
(-0.0837418 -0.102056 0)
(-0.0816271 -0.0855081 0)
(-0.0866567 -0.0773751 0)
(-0.113216 -0.082767 0)
(-0.169796 -0.0952768 0)
(-0.25595 -0.114723 0)
(-0.27743 -0.108714 0)
(-0.164158 -0.0389838 0)
(-0.050218 -0.0015728 0)
(-0.0185562 0.00218866 0)
(-0.00806068 0.00248273 0)
(0.0754201 0.00281011 0)
(0.266695 0.000939354 0)
(0.301538 0.0020844 0)
(0.156494 0.00693761 0)
(0.0815939 0.00927962 0)
(0.0836028 0.00862489 0)
(0.101284 0.00639468 0)
(0.0939325 0.00272839 0)
(0.0562135 0.000707705 0)
(0.0184606 0.000854172 0)
(-0.00252727 0.00154311 0)
(-0.00492068 0.00226202 0)
(6.35273e-05 0.119362 0)
(0.0003274 0.12051 0)
(0.00177678 0.122206 0)
(0.00682119 0.125495 0)
(0.014226 0.128716 0)
(0.0251371 0.135254 0)
(0.0453096 0.14576 0)
(0.0740194 0.157203 0)
(0.108315 0.168218 0)
(0.159867 0.190815 0)
(0.20311 0.200665 0)
(0.216299 0.173327 0)
(0.212919 0.141215 0)
(0.125866 0.0506963 0)
(0.00475204 -0.0658783 0)
(-0.0510086 -0.0989613 0)
(-0.0705724 -0.105457 0)
(-0.0720728 -0.0931141 0)
(-0.0733395 -0.0798307 0)
(-0.0900194 -0.0772699 0)
(-0.123361 -0.0813907 0)
(-0.184177 -0.0925596 0)
(-0.25645 -0.105778 0)
(-0.23308 -0.079142 0)
(-0.112973 -0.00626861 0)
(-0.0340807 0.018694 0)
(-0.0168731 0.0213363 0)
(-0.0073146 0.0225432 0)
(0.0755601 0.0243703 0)
(0.268011 0.0287916 0)
(0.306102 0.0423446 0)
(0.160919 0.0512352 0)
(0.0826267 0.0500108 0)
(0.0815027 0.041067 0)
(0.096161 0.0303801 0)
(0.0880151 0.0208631 0)
(0.0531608 0.0128206 0)
(0.0181366 0.00578894 0)
(-0.0018952 0.00313309 0)
(-0.00454954 0.00298204 0)
(0.000763997 0.187445 0)
(0.00152184 0.186796 0)
(0.00191143 0.18149 0)
(0.00468671 0.179312 0)
(0.0128012 0.179995 0)
(0.0298737 0.187741 0)
(0.0563687 0.199181 0)
(0.0888233 0.207043 0)
(0.131068 0.214362 0)
(0.174016 0.223139 0)
(0.185522 0.195593 0)
(0.167044 0.135725 0)
(0.112409 0.0620642 0)
(0.027502 -0.0457696 0)
(-0.0335779 -0.0958318 0)
(-0.0593997 -0.106293 0)
(-0.06296 -0.0905538 0)
(-0.0590474 -0.0656844 0)
(-0.0663591 -0.0504077 0)
(-0.08816 -0.0402514 0)
(-0.127949 -0.0282709 0)
(-0.193297 -0.0293207 0)
(-0.24302 -0.0274484 0)
(-0.181539 0.0441961 0)
(-0.0698792 0.114766 0)
(-0.0236169 0.134271 0)
(-0.014847 0.139926 0)
(-0.00513705 0.144714 0)
(0.0814412 0.152082 0)
(0.284016 0.185305 0)
(0.323165 0.208643 0)
(0.163881 0.194599 0)
(0.0717954 0.169448 0)
(0.064686 0.136199 0)
(0.0818153 0.102669 0)
(0.0770115 0.0702881 0)
(0.0416874 0.0426754 0)
(0.00912538 0.0252767 0)
(-0.0052321 0.0113085 0)
(-0.00506624 0.00582758 0)
(-0.000562263 0.248853 0)
(-0.00541142 0.239653 0)
(-0.00543514 0.235731 0)
(0.00538111 0.237478 0)
(0.0223485 0.241786 0)
(0.0436251 0.243415 0)
(0.0639105 0.236383 0)
(0.0886483 0.228612 0)
(0.123825 0.229949 0)
(0.141781 0.200185 0)
(0.118874 0.117377 0)
(0.0876258 0.0434156 0)
(0.0380249 -0.0454735 0)
(-0.0262881 -0.0976253 0)
(-0.0535704 -0.0901925 0)
(-0.0459225 -0.0537335 0)
(-0.0314406 -0.0101558 0)
(-0.0333866 0.0294498 0)
(-0.0488314 0.0660594 0)
(-0.0686876 0.0973616 0)
(-0.112828 0.110517 0)
(-0.183384 0.108409 0)
(-0.185607 0.139951 0)
(-0.0960368 0.231967 0)
(-0.0261738 0.279538 0)
(-0.00983615 0.290209 0)
(-0.00680929 0.293529 0)
(0.00440002 0.297113 0)
(0.114675 0.307968 0)
(0.322515 0.346528 0)
(0.315058 0.323777 0)
(0.123148 0.27565 0)
(0.0263506 0.243063 0)
(0.0171523 0.208975 0)
(0.0326467 0.176706 0)
(0.0302032 0.139231 0)
(0.0097861 0.100614 0)
(-0.0120897 0.0633588 0)
(-0.0206371 0.0303638 0)
(-0.00983117 0.013304 0)
(-0.00810149 0.274648 0)
(-0.0111223 0.264234 0)
(-0.000183832 0.264708 0)
(0.0105213 0.257523 0)
(0.0185222 0.236088 0)
(0.0246673 0.210027 0)
(0.0421036 0.190688 0)
(0.0826225 0.183422 0)
(0.103674 0.154132 0)
(0.0655384 0.0883629 0)
(0.0344534 0.0200187 0)
(0.010115 -0.0254666 0)
(-0.0235033 -0.0439277 0)
(-0.0155909 -0.013893 0)
(0.00871783 0.0548105 0)
(0.0177265 0.12663 0)
(0.0171985 0.174446 0)
(0.0143963 0.194905 0)
(-0.000916845 0.202344 0)
(-0.0453195 0.194349 0)
(-0.117303 0.158737 0)
(-0.164933 0.135447 0)
(-0.123956 0.188824 0)
(-0.0470285 0.248991 0)
(-0.0137546 0.26237 0)
(-0.0101345 0.261297 0)
(-0.00819403 0.258449 0)
(0.00877747 0.2576 0)
(0.129059 0.264331 0)
(0.29925 0.261936 0)
(0.254864 0.196297 0)
(0.0861021 0.161201 0)
(0.00754451 0.156649 0)
(0.000742696 0.148496 0)
(0.0146076 0.144564 0)
(0.00368597 0.138759 0)
(-0.0314255 0.130677 0)
(-0.0585702 0.102707 0)
(-0.0534667 0.0618534 0)
(-0.0215057 0.031441 0)
(-0.0105977 0.246238 0)
(-0.0149903 0.249545 0)
(-0.0119016 0.236362 0)
(-0.0221981 0.221735 0)
(-0.0234205 0.21665 0)
(-0.000123494 0.218681 0)
(0.0382726 0.207938 0)
(0.0534213 0.169529 0)
(0.0322232 0.112292 0)
(0.0125444 0.0724943 0)
(0.00918426 0.0879054 0)
(0.0260047 0.11531 0)
(0.0491775 0.171243 0)
(0.0688597 0.230649 0)
(0.0818427 0.257039 0)
(0.0693621 0.254013 0)
(0.0343521 0.232901 0)
(-0.00650247 0.195994 0)
(-0.0493677 0.140469 0)
(-0.110709 0.0732171 0)
(-0.169587 0.0200744 0)
(-0.154391 0.0327368 0)
(-0.0761921 0.0980312 0)
(-0.0251657 0.127914 0)
(-0.0143155 0.129815 0)
(-0.0136141 0.127941 0)
(-0.0103717 0.126333 0)
(0.0100682 0.126675 0)
(0.118853 0.12862 0)
(0.256955 0.0980337 0)
(0.217987 0.0480476 0)
(0.0849418 0.0432646 0)
(0.0141071 0.0560408 0)
(0.00550698 0.0606879 0)
(0.0232638 0.0664092 0)
(0.0168217 0.0724522 0)
(-0.0249545 0.0831133 0)
(-0.0784109 0.0944944 0)
(-0.0893118 0.0820897 0)
(-0.0391377 0.0580377 0)
(-0.00491504 0.199122 0)
(-0.02064 0.225176 0)
(-0.026983 0.245045 0)
(-0.00847325 0.269897 0)
(0.0155793 0.305919 0)
(0.0162717 0.33959 0)
(-0.00526099 0.354257 0)
(-0.00954519 0.342456 0)
(0.0101684 0.32279 0)
(0.0420384 0.311542 0)
(0.0757123 0.305901 0)
(0.0904224 0.307945 0)
(0.0876416 0.294056 0)
(0.0670849 0.264635 0)
(0.0312317 0.208153 0)
(-0.00553379 0.135467 0)
(-0.0387104 0.0713468 0)
(-0.0746742 0.0227935 0)
(-0.119229 -0.0289093 0)
(-0.161336 -0.0744656 0)
(-0.156312 -0.0652566 0)
(-0.0898111 0.00736887 0)
(-0.032239 0.0600461 0)
(-0.0164004 0.0719726 0)
(-0.0137286 0.0736429 0)
(-0.0134896 0.0744855 0)
(-0.00941483 0.0754431 0)
(0.0109811 0.0767055 0)
(0.10146 0.075467 0)
(0.221607 0.0351602 0)
(0.202087 -0.00170447 0)
(0.0938047 0.0013543 0)
(0.0243343 0.0116189 0)
(0.0107341 0.0162607 0)
(0.025944 0.015997 0)
(0.0197827 0.0143719 0)
(-0.0101847 0.0168133 0)
(-0.0595566 0.0398132 0)
(-0.0885977 0.0646528 0)
(-0.044683 0.0699523 0)
(0.0145084 0.135017 0)
(0.0292626 0.159121 0)
(0.0311936 0.208003 0)
(0.0364617 0.245563 0)
(0.0437377 0.271226 0)
(0.0464574 0.289925 0)
(0.0410344 0.319714 0)
(0.0230981 0.358573 0)
(0.00243378 0.366966 0)
(-0.00372982 0.343504 0)
(0.00571776 0.285326 0)
(0.0145899 0.210947 0)
(0.00744259 0.139065 0)
(-0.013919 0.0716584 0)
(-0.0426284 0.0179712 0)
(-0.0624697 -0.0204786 0)
(-0.0742242 -0.05187 0)
(-0.103113 -0.0811888 0)
(-0.14309 -0.0991823 0)
(-0.145734 -0.0826652 0)
(-0.0907288 -0.0140119 0)
(-0.033645 0.0490872 0)
(-0.0139376 0.0697323 0)
(-0.0120634 0.0749433 0)
(-0.011894 0.0770989 0)
(-0.0118793 0.0790617 0)
(-0.00823241 0.0809604 0)
(0.0100913 0.0812666 0)
(0.0788183 0.0787977 0)
(0.182589 0.0353735 0)
(0.18541 -0.000393997 0)
(0.0977807 0.00162186 0)
(0.0284714 0.00751785 0)
(0.0097259 0.00723542 0)
(0.0214437 -0.0012835 0)
(0.0176083 -0.0115958 0)
(-0.000438297 -0.0156103 0)
(-0.0323111 -0.0032481 0)
(-0.0602687 0.0256761 0)
(-0.0340308 0.0478812 0)
(0.0183126 0.0485316 0)
(0.0496921 0.0421919 0)
(0.0563151 0.0583933 0)
(0.0524509 0.0671564 0)
(0.0583289 0.0782697 0)
(0.0629957 0.0896536 0)
(0.0608907 0.105658 0)
(0.0359894 0.121312 0)
(-0.00435337 0.128599 0)
(-0.0366335 0.120904 0)
(-0.0520238 0.0938417 0)
(-0.0505202 0.0442742 0)
(-0.0465823 -0.00503125 0)
(-0.0496051 -0.0408823 0)
(-0.0575549 -0.0582137 0)
(-0.0728353 -0.0624547 0)
(-0.097213 -0.073851 0)
(-0.120266 -0.088114 0)
(-0.120652 -0.0700763 0)
(-0.079263 -0.00580557 0)
(-0.0293503 0.0580557 0)
(-0.00911219 0.083833 0)
(-0.00732301 0.0900737 0)
(-0.00930171 0.0923908 0)
(-0.00975998 0.0941815 0)
(-0.00976856 0.096135 0)
(-0.00729007 0.0981774 0)
(0.00889711 0.0977973 0)
(0.0572358 0.0940539 0)
(0.145295 0.0549903 0)
(0.169563 0.0150517 0)
(0.101429 0.0161826 0)
(0.0297437 0.0213159 0)
(0.00225282 0.0188168 0)
(0.0077975 0.00357794 0)
(0.00597679 -0.0109332 0)
(-0.00214052 -0.0199878 0)
(-0.0197715 -0.0194924 0)
(-0.0393277 -0.000867965 0)
(-0.0232854 0.0196595 0)
(0.00839921 -0.0131678 0)
(0.0387656 -0.0292282 0)
(0.0552503 -0.0338335 0)
(0.0556153 -0.032274 0)
(0.0654168 -0.0236536 0)
(0.0728502 -0.0133864 0)
(0.0715418 -0.000375598 0)
(0.045204 0.0089153 0)
(0.0020405 0.0177485 0)
(-0.0372228 0.0168877 0)
(-0.0681256 0.0027213 0)
(-0.0806877 -0.0218857 0)
(-0.0746173 -0.0407886 0)
(-0.0651676 -0.0496642 0)
(-0.0634163 -0.055151 0)
(-0.0775384 -0.0644234 0)
(-0.0989504 -0.0689074 0)
(-0.0994755 -0.04678 0)
(-0.0637748 0.00569121 0)
(-0.0222617 0.0601047 0)
(-0.00434985 0.0846288 0)
(-0.00279133 0.089567 0)
(-0.00569089 0.0898434 0)
(-0.00810494 0.0900678 0)
(-0.00828601 0.0910259 0)
(-0.00802872 0.0923731 0)
(-0.0066305 0.094318 0)
(0.00611774 0.0941971 0)
(0.0375679 0.0871938 0)
(0.10646 0.0578485 0)
(0.148014 0.00901918 0)
(0.103817 0.00951617 0)
(0.0310098 0.0164626 0)
(-0.00736706 0.0171927 0)
(-0.00722453 0.00328097 0)
(-0.00510044 -0.00972311 0)
(-0.00868626 -0.020416 0)
(-0.0138866 -0.0271537 0)
(-0.0225405 -0.0179054 0)
(-0.0142499 -0.003372 0)
(0.00283625 -0.0385613 0)
(0.029778 -0.0557267 0)
(0.0533801 -0.0656043 0)
(0.0622606 -0.0665048 0)
(0.0765296 -0.0567298 0)
(0.0854272 -0.0476713 0)
(0.0823814 -0.037625 0)
(0.0534544 -0.0345671 0)
(0.00332913 -0.0299554 0)
(-0.0511142 -0.031942 0)
(-0.0893872 -0.0493478 0)
(-0.0924479 -0.0604596 0)
(-0.0733507 -0.0571915 0)
(-0.0634451 -0.0523625 0)
(-0.0717774 -0.0567925 0)
(-0.0860915 -0.0615005 0)
(-0.0802112 -0.0426871 0)
(-0.0483801 -0.00039758 0)
(-0.0176538 0.0418054 0)
(-0.00319583 0.0599894 0)
(-0.000959468 0.0621515 0)
(-0.00408726 0.0594777 0)
(-0.00684041 0.057198 0)
(-0.0081622 0.0564106 0)
(-0.0075385 0.0569875 0)
(-0.00659609 0.0578856 0)
(-0.00553239 0.0597697 0)
(0.00203192 0.060643 0)
(0.0222089 0.0525579 0)
(0.0699631 0.0346571 0)
(0.122988 -0.0153721 0)
(0.108602 -0.0311003 0)
(0.0371411 -0.0164395 0)
(-0.0104495 -0.000753978 0)
(-0.0181396 -0.00252946 0)
(-0.0168585 -0.0107357 0)
(-0.0189372 -0.0215484 0)
(-0.0173522 -0.0262578 0)
(-0.0164108 -0.0271 0)
(-0.00928047 -0.0353529 0)
(-0.00814202 -0.197022 0)
(0.012706 -0.110316 0)
(0.0448642 -0.0749159 0)
(0.0641671 -0.0879697 0)
(0.0835654 -0.0886493 0)
(0.0912603 -0.0869583 0)
(0.0841695 -0.0836985 0)
(0.0525947 -0.0884461 0)
(0.00457006 -0.0905427 0)
(-0.05591 -0.094647 0)
(-0.0956061 -0.0999693 0)
(-0.0882462 -0.0892164 0)
(-0.0668147 -0.0774986 0)
(-0.0647831 -0.0750598 0)
(-0.0722219 -0.0711378 0)
(-0.0639459 -0.050663 0)
(-0.0400694 -0.0158496 0)
(-0.0180555 0.0135438 0)
(-0.00558365 0.0258769 0)
(-0.00265545 0.0274004 0)
(-0.00484302 0.0240377 0)
(-0.00756472 0.020527 0)
(-0.00864643 0.0184155 0)
(-0.00830782 0.0179562 0)
(-0.00686467 0.0188124 0)
(-0.00534768 0.0196439 0)
(-0.00397338 0.0212543 0)
(-0.000831855 0.0224457 0)
(0.0125269 0.0179658 0)
(0.0410001 0.00366308 0)
(0.0846478 -0.0361904 0)
(0.102789 -0.0770272 0)
(0.0602526 -0.0708358 0)
(0.00603719 -0.0400123 0)
(-0.0168433 -0.0221085 0)
(-0.0234278 -0.0154357 0)
(-0.0236439 -0.0190056 0)
(-0.0192363 -0.0200482 0)
(-0.0313049 -0.0497562 0)
(-0.0222027 -0.152089 0)
(0.0863897 -0.630914 0)
(0.147444 -0.30789 0)
(0.0749139 -0.076169 0)
(0.0490266 -0.0729583 0)
(0.0775043 -0.0862579 0)
(0.090198 -0.0971206 0)
(0.0809477 -0.10904 0)
(0.046859 -0.122337 0)
(-0.00264628 -0.136696 0)
(-0.060198 -0.152426 0)
(-0.0841541 -0.144314 0)
(-0.0707943 -0.118591 0)
(-0.0597088 -0.101404 0)
(-0.0573156 -0.0881849 0)
(-0.0482678 -0.0661244 0)
(-0.0328138 -0.0365402 0)
(-0.0183392 -0.0139947 0)
(-0.00817088 -0.00271899 0)
(-0.00430106 -0.000601172 0)
(-0.00496823 -0.00273332 0)
(-0.00758293 -0.00515669 0)
(-0.00950493 -0.00660053 0)
(-0.00931776 -0.0068626 0)
(-0.00777973 -0.00608716 0)
(-0.00591213 -0.0044979 0)
(-0.00424303 -0.00303603 0)
(-0.00283249 -0.00148766 0)
(-0.001137 -0.00028492 0)
(0.0041093 -0.000886294 0)
(0.0177762 -0.0114497 0)
(0.0452318 -0.036263 0)
(0.075216 -0.0773493 0)
(0.07281 -0.0966139 0)
(0.0365059 -0.0714969 0)
(0.00554333 -0.0449468 0)
(-0.0138684 -0.0251006 0)
(-0.023382 -0.0190803 0)
(-0.0469846 -0.0326257 0)
(-0.14365 -0.144741 0)
(-0.107892 -0.404125 0)
(0.303136 -0.455777 0)
(0.547279 -0.230851 0)
(0.271253 -0.0408543 0)
(0.0544451 -0.0271035 0)
(0.0602817 -0.0352314 0)
(0.0693068 -0.0449759 0)
(0.0598696 -0.0569109 0)
(0.0259445 -0.0668494 0)
(-0.0244241 -0.0786147 0)
(-0.0632514 -0.0894491 0)
(-0.063002 -0.0817832 0)
(-0.0468965 -0.0674987 0)
(-0.037514 -0.0569836 0)
(-0.0307863 -0.0444665 0)
(-0.0224552 -0.0294533 0)
(-0.0137117 -0.0176798 0)
(-0.0074781 -0.00963032 0)
(-0.005149 -0.00640894 0)
(-0.00559745 -0.00649441 0)
(-0.00704532 -0.00775425 0)
(-0.0085696 -0.00864988 0)
(-0.00920859 -0.00877815 0)
(-0.00815173 -0.00834235 0)
(-0.00602911 -0.00756812 0)
(-0.00392448 -0.00652567 0)
(-0.00244691 -0.00550547 0)
(-0.00132232 -0.00466177 0)
(-0.000252354 -0.0039383 0)
(0.0017682 -0.00374374 0)
(0.00690974 -0.00636776 0)
(0.0211444 -0.0150202 0)
(0.0446323 -0.0313641 0)
(0.0658922 -0.0467581 0)
(0.0558254 -0.0385429 0)
(0.0278659 -0.0267095 0)
(0.00149818 -0.015378 0)
(-0.0308954 -0.0107631 0)
(-0.140328 -0.0231749 0)
(-0.389295 -0.107628 0)
(-0.272154 -0.27809 0)
(0.303136 0.455777 0)
(0.547279 0.230851 0)
(0.271253 0.0408543 0)
(0.0544451 0.0271035 0)
(0.0602817 0.0352314 0)
(0.0693068 0.0449759 0)
(0.0598696 0.0569109 0)
(0.0259445 0.0668494 0)
(-0.0244241 0.0786147 0)
(-0.0632514 0.0894491 0)
(-0.063002 0.0817832 0)
(-0.0468965 0.0674987 0)
(-0.037514 0.0569836 0)
(-0.0307863 0.0444665 0)
(-0.0224552 0.0294533 0)
(-0.0137117 0.0176798 0)
(-0.0074781 0.00963032 0)
(-0.005149 0.00640894 0)
(-0.00559745 0.00649441 0)
(-0.00704532 0.00775425 0)
(-0.0085696 0.00864988 0)
(-0.00920859 0.00877815 0)
(-0.00815173 0.00834235 0)
(-0.00602911 0.00756812 0)
(-0.00392448 0.00652567 0)
(-0.00244691 0.00550547 0)
(-0.00132232 0.00466177 0)
(-0.000252354 0.0039383 0)
(0.0017682 0.00374374 0)
(0.00690974 0.00636776 0)
(0.0211444 0.0150202 0)
(0.0446323 0.0313641 0)
(0.0658922 0.0467581 0)
(0.0558254 0.0385429 0)
(0.0278659 0.0267095 0)
(0.00149818 0.015378 0)
(-0.0308954 0.0107631 0)
(-0.140328 0.0231749 0)
(-0.389295 0.107628 0)
(-0.272154 0.27809 0)
(0.0863897 0.630914 0)
(0.147444 0.30789 0)
(0.0749139 0.076169 0)
(0.0490266 0.0729583 0)
(0.0775043 0.0862579 0)
(0.090198 0.0971206 0)
(0.0809477 0.10904 0)
(0.046859 0.122337 0)
(-0.00264628 0.136696 0)
(-0.060198 0.152426 0)
(-0.0841541 0.144314 0)
(-0.0707943 0.118591 0)
(-0.0597088 0.101404 0)
(-0.0573156 0.0881849 0)
(-0.0482678 0.0661244 0)
(-0.0328138 0.0365402 0)
(-0.0183392 0.0139947 0)
(-0.00817088 0.00271899 0)
(-0.00430106 0.000601172 0)
(-0.00496823 0.00273332 0)