/*--------------------------------*- C++ -*----------------------------------*\
| =========                 |                                                 |
| \\      /  F ield         | OpenFOAM: The Open Source CFD Toolbox           |
|  \\    /   O peration     | Version:  v1912                                 |
|   \\  /    A nd           | Website:  www.openfoam.com                      |
|    \\/     M anipulation  |                                                 |
\*---------------------------------------------------------------------------*/
FoamFile
{
    version     2.0;
    format      ascii;
    class       volScalarField;
    location    "5.42";
    object      p;
}
// * * * * * * * * * * * * * * * * * * * * * * * * * * * * * * * * * * * * * //

dimensions      [1 -1 -2 0 0 0 0];


internalField   nonuniform List<scalar> 
1900
(
35201.9
10866.1
9439.34
9343.81
9235.55
9188.03
9140.96
9084.13
9018.91
8956.14
35202
10865.9
9439.38
9343.51
9235.35
9188.37
9142.28
9088.16
9031.8
8946.62
35202
10865.9
9439.38
9343.63
9235.73
9189.32
9143.03
9085.35
9020.26
8933.9
35202
10865.9
9439.38
9343.51
9235.35
9188.37
9142.28
9088.16
9031.8
8946.62
35201.9
10866.1
9439.34
9343.81
9235.55
9188.03
9140.96
9084.13
9018.91
8956.14
9032.77
8843.56
8738.1
8536.64
8788.97
8876.67
8734.87
8646.3
8438.25
8311.5
8849.35
8715.72
8625.51
8451.52
8383.7
8876.67
8734.87
8646.3
8438.25
8311.5
9032.77
8843.56
8738.1
8536.64
8788.97
4219.86
3202.96
3141.59
2913.92
2577.19
4717.49
3381.43
3252.62
2992.83
2698.96
4815.22
3327.46
3177.33
2940.47
2644.5
4717.49
3381.43
3252.62
2992.83
2698.96
4219.86
3202.96
3141.59
2913.92
2577.19
1468.35
1017.61
1258.77
1731.59
1882.91
1760.05
1533.62
1319.52
1166.96
1074.08
1005.22
941.14
881.292
830.973
796.614
776.462
763.988
754.632
746.667
739.693
733.839
729.116
725.379
722.532
720.431
719.011
718.154
718.019
718.808
721.152
724.532
730.341
736.714
746.232
755.043
771.713
789.366
827.595
889.571
1525.14
1650.56
972.62
1268.73
1807.18
1937.19
1787.82
1547.68
1325.17
1169.04
1074.92
1005.51
941.542
881.716
831.136
796.616
776.422
763.945
754.595
746.632
739.658
733.801
729.076
725.337
722.49
720.387
718.967
718.108
717.97
718.758
721.103
724.483
730.3
736.669
746.217
754.978
771.729
789.353
827.743
889.555
1524.8
1672.54
982.994
1221.82
1762.24
1913.74
1793.02
1554.95
1327.8
1169.79
1075.21
1005.64
941.733
881.876
831.187
796.617
776.409
763.933
754.584
746.623
739.648
733.791
729.065
725.325
722.477
720.374
718.952
718.092
717.953
718.74
721.085
724.465
730.287
736.656
746.22
754.972
771.772
789.447
828.031
889.718
1524.31
1650.56
972.62
1268.73
1807.18
1937.19
1787.82
1547.68
1325.17
1169.04
1074.92
1005.51
941.542
881.716
831.136
796.616
776.422
763.945
754.595
746.632
739.658
733.801
729.076
725.337
722.49
720.387
718.967
718.108
717.97
718.758
721.103
724.483
730.3
736.669
746.217
754.978
771.729
789.353
827.743
889.555
1524.8
1468.35
1017.61
1258.77
1731.59
1882.91
1760.05
1533.62
1319.52
1166.96
1074.08
1005.22
941.14
881.292
830.973
796.614
776.462
763.988
754.632
746.667
739.693
733.839
729.116
725.379
722.532
720.431
719.011
718.154
718.019
718.808
721.152
724.532
730.341
736.714
746.232
755.043
771.713
789.366
827.595
889.571
1525.14
1166.52
1023.31
1339.25
1659.19
1762.24
1667.21
1486.74
1298.06
1157.18
1069.94
1002.84
938.731
879.157
829.969
796.433
776.561
764.117
754.743
746.771
739.806
733.965
729.254
725.524
722.681
720.582
719.168
718.315
718.186
718.977
721.314
724.685
730.452
736.827
746.244
755.234
771.609
789.433
826.454
891.282
1592.11
1141.11
1002.03
1203.99
1449.43
1565.04
1499.88
1384.58
1242.18
1132.24
1058.69
995.803
932.524
874.279
827.635
795.979
776.792
764.427
755.012
747.026
740.085
734.281
729.599
725.888
723.057
720.97
719.57
718.734
718.624
719.426
721.753
725.101
730.781
737.132
746.401
755.62
771.57
789.43
823.991
891.691
1517.31
1164.11
1004.75
1141.41
1340.49
1385.45
1362.48
1281.41
1180.3
1101.77
1042.27
984.358
923.458
867.709
824.443
795.208
776.998
764.817
755.382
747.395
740.494
734.746
730.109
726.429
723.622
721.555
720.185
719.383
719.309
720.135
722.453
725.775
731.334
737.658
746.762
756.209
771.626
789.359
821.417
893.259
1502.2
1211.9
985.181
1095.21
1235.75
1266.41
1244.76
1188.54
1124.58
1070.46
1023.18
969.669
912.197
860.068
820.743
794.186
777.105
765.187
755.775
747.813
740.972
735.295
730.718
727.082
724.315
722.286
720.957
720.215
720.206
721.066
723.383
726.679
732.106
738.397
747.352
756.94
771.896
789.133
819.968
896.771
1491.92
1212.81
953.315
1062.35
1153.51
1163.17
1148.73
1114.49
1077.61
1040.53
1001.84
952.54
899.216
851.909
816.831
793.026
777.103
765.497
756.157
748.254
741.494
735.904
731.4
727.824
725.114
723.144
721.877
721.202
721.293
722.199
724.517
727.779
733.055
739.29
748.086
757.731
772.291
788.752
819.349
899.235
1476.66
1205.85
929.173
1038.75
1076.74
1084.25
1076.77
1059.66
1039.73
1014.52
980.729
934.829
885.965
843.977
813.168
791.931
777.084
765.806
756.578
748.761
742.099
736.608
732.188
728.687
726.054
724.167
722.984
722.4
722.628
723.601
725.934
729.17
734.305
740.485
749.149
758.824
773.153
788.972
820.036
902.466
1460.48
1192.63
900.955
1003.9
1007.63
1029.33
1027.24
1020.52
1008.91
989.759
958.524
916.103
872.624
836.296
809.662
790.801
776.969
766.084
757.033
749.345
742.804
737.425
733.1
729.683
727.137
725.341
724.247
723.756
724.115
725.137
727.45
730.608
735.547
741.597
750.063
759.685
773.726
788.818
820.734
904.721
1441.19
1188.27
878.104
966.962
969.788
993.279
992.573
990.982
983.678
967.077
937.281
898.574
860.832
829.953
807.067
790.211
777.272
766.785
757.935
750.398
743.983
738.717
734.491
731.168
728.723
727.028
726.034
725.649
726.158
727.229
729.514
732.58
737.304
743.191
751.431
760.968
774.727
789.419
822.052
906.885
1418.47
1187.58
860.551
940.832
945.874
969.419
968.208
968.028
961.621
944.902
916.531
882.24
850.305
824.407
804.848
789.774
777.753
767.743
759.175
751.842
745.582
740.443
736.323
733.09
730.729
729.117
728.197
727.886
728.499
729.555
731.741
734.633
739.062
744.691
752.63
761.988
775.449
789.733
823.03
908.215
1393.35
1190.28
847.845
917.728
926.805
950.459
948.48
948.347
941.199
923.692
897.555
868.276
842.046
820.679
804.039
790.685
779.569
770.042
761.816
754.727
748.639
743.626
739.59
736.41
734.086
732.499
731.598
731.287
731.921
732.869
734.859
737.476
741.517
746.793
754.344
763.48
776.627
790.722
824.39
909.198
1365.2
1199.55
839.759
903.076
914.391
936.421
932.906
931.351
922.46
904.669
881.593
857.302
836.122
818.515
804.173
792.271
781.971
772.997
765.152
758.332
752.429
747.55
743.603
740.478
738.194
736.637
735.758
735.433
736.075
736.886
738.641
740.929
744.527
749.375
756.476
765.315
778.114
791.934
825.791
909.756
1336.95
1197.95
836.417
894.369
905.462
924.436
919.159
915.579
905.244
888.235
869.061
849.638
832.956
818.606
806.456
795.724
786.311
777.956
770.575
764.087
758.397
753.634
749.719
746.563
744.219
742.585
741.644
741.212
741.738
742.32
743.746
745.604
748.649
752.963
759.518
768.013
780.438
794.016
827.987
911.041
1304.27
1203.89
835.84
890.859
899.658
914.207
907.496
902.078
891.595
876.395
860.744
845.431
832.078
820.326
809.694
800.087
791.368
783.503
776.47
770.232
764.72
760.097
756.285
753.204
750.923
749.336
748.453
748.007
748.491
748.905
750.069
751.56
754.119
757.963
764.095
772.372
784.628
798.129
832.154
913.255
1278.11
1188.93
839.027
892.257
898.247
907.434
898.985
891.563
881.642
868.912
856.996
845.435
834.948
824.963
815.823
807.213
799.242
791.94
785.35
779.452
774.159
769.605
765.731
762.537
760.159
758.49
757.57
757.011
757.356
757.544
758.414
759.523
761.597
765.019
770.78
779.01
791.205
804.628
839.311
918.84
1250.26
1179.28
844.907
896.39
898.47
902.179
893.766
885.582
877.072
866.969
858.204
848.691
840.112
831.58
823.444
815.53
807.992
800.892
794.313
788.32
782.98
778.601
775.086
772.267
770.173
768.676
767.87
767.316
767.674
767.765
768.495
769.344
771.086
774.232
779.859
788.353
800.965
814.92
850.97
928.895
1237.93
1195.8
858.735
907.249
905.625
905.21
896.921
888.581
881.592
873.309
866.359
858.745
851.594
844.137
836.95
829.823
823.004
816.545
810.547
805.029
799.964
795.599
791.842
788.66
786.224
784.419
783.419
782.621
782.794
782.623
783.092
783.554
784.887
787.729
793.189
802.01
815.084
829.348
867.604
945.51
1257.48
1234.49
878.429
922.086
917.146
912.888
904.063
896.197
890.632
883.997
878.316
871.745
865.657
859.045
852.903
846.812
840.993
835.234
829.425
823.681
818.349
814.117
810.849
808.011
805.414
802.999
801.45
799.948
799.702
799.098
799.409
799.668
800.838
803.537
808.95
818.222
832.008
846.449
886.162
965.746
1294.91
1328.17
915.845
957.698
947.338
938.639
929.004
921.586
917.139
912.319
907.9
902.413
896.838
890.317
884.034
877.679
872.046
867.312
863.577
860.413
856.855
852.665
847.78
842.641
838.733
836.02
835.11
834.587
834.946
835.021
835.762
836.428
837.766
840.524
846.528
857.014
873.496
889.804
930.749
1002.26
1380.71
3875.28
1202.8
1111.69
1081.31
1071.02
1055.95
1048.63
1040.37
1034.27
1026.6
1018.15
1008.82
997.979
986.617
974.106
961.431
948.59
936.768
927.66
920.756
916.527
915.261
913.888
916.764
918.196
921.255
923.298
925.579
927.141
928.669
929.383
930.133
931.541
935.811
944.573
961.125
981.032
1013.81
1243.53
3697.1
43228.4
3964.76
1739.78
1653.74
1628.86
1620.61
1643.85
1656.65
1670.11
1680.31
1682.33
1679.87
1672.5
1660.53
1645.52
1629
1611.97
1595.06
1581.08
1567.4
1556.45
1544.87
1530.09
1515.17
1496.49
1479.02
1459.24
1435.99
1410.79
1382.49
1353.05
1317.92
1288.27
1252.23
1233.82
1243.09
1273.18
1338.5
3542.15
38713.6
43228.4
3964.76
1739.78
1653.74
1628.86
1620.61
1643.85
1656.65
1670.11
1680.31
1682.33
1679.87
1672.5
1660.53
1645.52
1629
1611.97
1595.06
1581.08
1567.4
1556.45
1544.87
1530.09
1515.17
1496.49
1479.02
1459.24
1435.99
1410.79
1382.49
1353.05
1317.92
1288.27
1252.23
1233.82
1243.09
1273.18
1338.5
3542.15
38713.6
3875.28
1202.8
1111.69
1081.31
1071.02
1055.95
1048.63
1040.37
1034.27
1026.6
1018.15
1008.82
997.979
986.617
974.106
961.431
948.59
936.768
927.66
920.756
916.527
915.261
913.888
916.764
918.196
921.255
923.298
925.579
927.141
928.669
929.383
930.133
931.541
935.811
944.573
961.125
981.032
1013.81
1243.53
3697.1
1328.17
915.845
957.698
947.338
938.639
929.004
921.586
917.139
912.319
907.9
902.413
896.838
890.317
884.034
877.679
872.046
867.312
863.577
860.413
856.855
852.665
847.78
842.641
838.733
836.02
835.11
834.587
834.946
835.021
835.762
836.428
837.766
840.524
846.528
857.014
873.496
889.804
930.749
1002.26
1380.71
1234.49
878.429
922.086
917.146
912.888
904.063
896.197
890.632
883.997
878.316
871.745
865.657
859.045
852.903
846.812
840.993
835.234
829.425
823.681
818.349
814.117
810.849
808.011
805.414
802.999
801.45
799.948
799.702
799.098
799.409
799.668
800.838
803.537
808.95
818.222
832.008
846.449
886.162
965.746
1294.91
1195.8
858.735
907.249
905.625
905.21
896.921
888.581
881.592
873.309
866.359
858.745
851.594
844.137
836.95
829.823
823.004
816.545
810.547
805.029
799.964
795.599
791.842
788.66
786.224
784.419
783.419
782.621
782.794
782.623
783.092
783.554
784.887
787.729
793.189
802.01
815.084
829.348
867.604
945.51
1257.48
1179.28
844.907
896.39
898.47
902.179
893.766
885.582
877.072
866.969
858.204
848.691
840.112
831.58
823.444
815.53
807.992
800.892
794.313
788.32
782.98
778.601
775.086
772.267
770.173
768.676
767.87
767.316
767.674
767.765
768.495
769.344
771.086
774.232
779.859
788.353
800.965
814.92
850.97
928.895
1237.93
1188.93
839.027
892.257
898.247
907.434
898.985
891.563
881.642
868.912
856.996
845.435
834.948
824.963
815.823
807.213
799.242
791.94
785.35
779.452
774.159
769.605
765.731
762.537
760.159
758.49
757.57
757.011
757.356
757.544
758.414
759.523
761.597
765.019
770.78
779.01
791.205
804.628
839.311
918.84
1250.26
1203.89
835.84
890.859
899.658
914.207
907.496
902.078
891.595
876.395
860.744
845.431
832.078
820.326
809.694
800.087
791.368
783.503
776.47
770.232
764.72
760.097
756.285
753.204
750.923
749.336
748.453
748.007
748.491
748.905
750.069
751.56
754.119
757.963
764.095
772.372
784.628
798.129
832.154
913.255
1278.11
1197.95
836.417
894.369
905.462
924.436
919.159
915.579
905.244
888.235
869.061
849.638
832.956
818.606
806.456
795.724
786.311
777.956
770.575
764.087
758.397
753.634
749.719
746.563
744.219
742.585
741.644
741.212
741.738
742.32
743.746
745.604
748.649
752.963
759.518
768.013
780.438
794.016
827.987
911.041
1304.27
1199.55
839.759
903.076
914.391
936.421
932.906
931.351
922.46
904.669
881.593
857.302
836.122
818.515
804.173
792.271
781.971
772.997
765.152
758.332
752.429
747.55
743.603
740.478
738.194
736.637
735.758
735.433
736.075
736.886
738.641
740.929
744.527
749.375
756.476
765.315
778.114
791.934
825.791
909.756
1336.95
1190.28
847.845
917.728
926.805
950.459
948.48
948.347
941.199
923.692
897.555
868.276
842.046
820.679
804.039
790.685
779.569
770.042
761.816
754.727
748.639
743.626
739.59
736.41
734.086
732.499
731.598
731.287
731.921
732.869
734.859
737.476
741.517
746.793
754.344
763.48
776.627
790.722
824.39
909.198
1365.2
1187.58
860.551
940.832
945.874
969.419
968.208
968.028
961.621
944.902
916.531
882.24
850.305
824.407
804.848
789.774
777.753
767.743
759.175
751.842
745.582
740.443
736.323
733.09
730.729
729.117
728.197
727.886
728.499
729.555
731.741
734.633
739.062
744.691
752.63
761.988
775.449
789.733
823.03
908.215
1393.35
1188.27
878.104
966.962
969.788
993.279
992.573
990.982
983.678
967.077
937.281
898.574
860.832
829.953
807.067
790.211
777.272
766.785
757.935
750.398
743.983
738.717
734.491
731.168
728.723
727.028
726.034
725.649
726.158
727.229
729.514
732.58
737.304
743.191
751.431
760.968
774.727
789.419
822.052
906.885
1418.47
1192.63
900.955
1003.9
1007.63
1029.33
1027.24
1020.52
1008.91
989.759
958.524
916.103
872.624
836.296
809.662
790.801
776.969
766.084
757.033
749.345
742.804
737.425
733.1
729.683
727.137
725.341
724.247
723.756
724.115
725.137
727.45
730.608
735.547
741.597
750.063
759.685
773.726
788.818
820.734
904.721
1441.19
1205.85
929.173
1038.75
1076.74
1084.25
1076.77
1059.66
1039.73
1014.52
980.729
934.829
885.965
843.977
813.168
791.931
777.084
765.806
756.578
748.761
742.099
736.608
732.188
728.687
726.054
724.167
722.984
722.4
722.628
723.601
725.934
729.17
734.305
740.485
749.149
758.824
773.153
788.972
820.036
902.466
1460.48
1212.81
953.315
1062.35
1153.51
1163.17
1148.73
1114.49
1077.61
1040.53
1001.84
952.54
899.216
851.909
816.831
793.026
777.103
765.497
756.157
748.254
741.494
735.904
731.4
727.824
725.114
723.144
721.877
721.202
721.293
722.199
724.517
727.779
733.055
739.29
748.086
757.731
772.291
788.752
819.349
899.235
1476.66
1211.9
985.181
1095.21
1235.75
1266.41
1244.76
1188.54
1124.58
1070.46
1023.18
969.669
912.197
860.068
820.743
794.186
777.105
765.187
755.775
747.813
740.972
735.295
730.718
727.082
724.315
722.286
720.957
720.215
720.206
721.066
723.383
726.679
732.106
738.397
747.352
756.94
771.896
789.133
819.968
896.771
1491.92
1164.11
1004.75
1141.41
1340.49
1385.45
1362.48
1281.41
1180.3
1101.77
1042.27
984.358
923.458
867.709
824.443
795.208
776.998
764.817
755.382
747.395
740.494
734.746
730.109
726.429
723.622
721.555
720.185
719.383
719.309
720.135
722.453
725.775
731.334
737.658
746.762
756.209
771.626
789.359
821.417
893.259
1502.2
1141.11
1002.03
1203.99
1449.43
1565.04
1499.88
1384.58
1242.18
1132.24
1058.69
995.803
932.524
874.279
827.635
795.979
776.792
764.427
755.012
747.026
740.085
734.281
729.599
725.888
723.057
720.97
719.57
718.734
718.624
719.426
721.753
725.101
730.781
737.132
746.401
755.62
771.57
789.43
823.991
891.691
1517.31
1166.52
1023.31
1339.25
1659.19
1762.24
1667.21
1486.74
1298.06
1157.18
1069.94
1002.84
938.731
879.157
829.969
796.433
776.561
764.117
754.743
746.771
739.806
733.965
729.254
725.524
722.681
720.582
719.168
718.315
718.186
718.977
721.314
724.685
730.452
736.827
746.244
755.234
771.609
789.433
826.454
891.282
1592.11
)
;

boundaryField
{
    inlet
    {
        type            fixedValue;
        value           uniform 10000;
    }
    outlet
    {
        type            fixedValue;
        value           uniform 1000;
    }
    obstacle
    {
        type            zeroGradient;
    }
    empty
    {
        type            empty;
    }
}


// ************************************************************************* //
