/*--------------------------------*- C++ -*----------------------------------*\
| =========                 |                                                 |
| \\      /  F ield         | OpenFOAM: The Open Source CFD Toolbox           |
|  \\    /   O peration     | Version:  v1912                                 |
|   \\  /    A nd           | Website:  www.openfoam.com                      |
|    \\/     M anipulation  |                                                 |
\*---------------------------------------------------------------------------*/
FoamFile
{
    version     2.0;
    format      ascii;
    class       volVectorField;
    location    "1.86";
    object      grad(p);
}
// * * * * * * * * * * * * * * * * * * * * * * * * * * * * * * * * * * * * * //

dimensions      [1 -2 -2 0 0 0 0];


internalField   nonuniform List<vector> 
1900
(
(8087.28 0.0541835 0)
(-1582.65 -0.300678 0)
(623.399 0.128829 0)
(123.304 2.18084 0)
(18.8677 1.78769 0)
(68.2848 5.86959 0)
(160.129 -6.39473 0)
(283.373 -43.693 0)
(426.914 -63.8501 0)
(-92.3358 -67.2411 0)
(8087.03 0.114773 0)
(-1582.58 -0.451812 0)
(625.881 -0.0780265 0)
(124.963 2.46242 0)
(22.5565 1.82067 0)
(60.1024 3.85041 0)
(110.567 -11.2171 0)
(225.917 -37.5428 0)
(403.366 -29.1957 0)
(462.313 -86.7048 0)
(8086.94 -4.65405e-09 0)
(-1582.84 2.04281e-09 0)
(626.313 7.63833e-10 0)
(125.203 3.14415e-09 0)
(20.2557 5.32907e-10 0)
(55.247 -7.10543e-10 0)
(118.736 -1.84741e-09 0)
(265.394 -1.38556e-09 0)
(377.752 1.33227e-09 0)
(364.821 3.37508e-10 0)
(8087.03 -0.114773 0)
(-1582.58 0.451812 0)
(625.881 0.0780266 0)
(124.963 -2.46242 0)
(22.5565 -1.82067 0)
(60.1024 -3.85041 0)
(110.567 11.2171 0)
(225.917 37.5428 0)
(403.366 29.1957 0)
(462.313 86.7048 0)
(8087.28 -0.0541835 0)
(-1582.65 0.300678 0)
(623.399 -0.128829 0)
(123.304 -2.18084 0)
(18.8677 -1.78769 0)
(68.2848 -5.86959 0)
(160.129 6.39473 0)
(283.373 43.693 0)
(426.914 63.8501 0)
(-92.3358 67.2411 0)
(0.0846023 406.889 1.05609e-11)
(573.676 478.22 -1.29527e-11)
(-535.412 514.842 -1.64296e-11)
(-6752.27 1472.62 0)
(-2035.5 9940.18 -6.49254e-11)
(579.757 348.427 1.06345e-11)
(490.734 320.274 1.29527e-11)
(-79.1956 218.908 1.64296e-11)
(-2861.56 605.646 0)
(-1133.22 8231.18 0)
(600.469 2.28481e-09 0)
(495.752 2.45418e-09 0)
(-248.241 -5.18104e-10 0)
(-2680.12 1.58123e-09 0)
(3317.51 -2.74912e-09 0)
(579.757 -348.427 1.06345e-11)
(490.734 -320.274 1.29527e-11)
(-79.1956 -218.908 1.64296e-11)
(-2861.56 -605.646 0)
(-1133.22 -8231.18 0)
(0.0846023 -406.889 -3.18299e-11)
(573.676 -478.22 -1.29527e-11)
(-535.412 -514.842 -1.64296e-11)
(-6752.27 -1472.62 -4.44022e-11)
(-2035.5 -9940.18 6.49254e-11)
(11164.3 -3635.92 3.2621e-11)
(1398.5 -551.95 -2.77603e-11)
(1238.98 -56.5636 0)
(901.876 1781.44 2.17065e-11)
(-9189.95 -1860.78 -9.78075e-12)
(7697.67 -3793.67 -1.62557e-11)
(2241.57 -408.516 1.38719e-11)
(2090.76 -286.034 0)
(27.4801 726.447 -1.36056e-11)
(-8873.95 -7315.2 2.3761e-12)
(8546.11 -4.03717e-09 0)
(2233.51 -2.42921e-09 0)
(1640.39 2.63164e-09 0)
(-2403.14 -2.38009e-09 5.45097e-12)
(-11301.6 -8.05074e-09 -4.7522e-12)
(7697.67 3793.67 -1.62557e-11)
(2241.57 408.516 1.38719e-11)
(2090.76 286.034 0)
(27.4801 -726.447 -1.36056e-11)
(-8873.95 7315.2 2.3761e-12)
(11164.3 3635.92 1.62557e-11)
(1398.5 551.95 1.66229e-14)
(1238.98 56.5636 0)
(901.876 -1781.44 5.36512e-14)
(-9189.95 1860.78 9.78075e-12)
(-27684.5 -7467.36 0)
(-16658.1 7380.52 0)
(2507.7 3644.21 0)
(805.308 1265.46 0)
(179.388 452.057 0)
(983.092 157.398 0)
(1604.41 235.748 0)
(2126.47 52.4102 0)
(2786.12 34.1871 0)
(3236.79 21.1475 0)
(3571.11 14.5563 0)
(3762.97 10.3294 0)
(3769.78 8.75854 0)
(3454.14 9.36684 0)
(2631.35 9.27971 0)
(1422.44 5.55493 0)
(445.432 1.3681 0)
(61.1035 0.0923197 0)
(2.50497 0.00359781 0)
(0.0203557 0.00241716 0)
(-0.0262652 0.00241541 0)
(-3.00344 0.00241612 0)
(-69.5457 0.00241526 0)
(-489.468 0.00241131 0)
(-1526.31 0.00236635 0)
(-2779.94 0.00222467 0)
(-3621.44 0.00197713 0)
(-3955.4 0.0016497 0)
(-3990.63 0.00129144 0)
(-3884.37 0.000948407 0)
(-3706.83 0.000652677 0)
(-3485.44 0.000421536 0)
(-3228.08 0.000255605 0)
(-2924.26 0.000145568 0)
(-2562.43 7.86693e-05 0)
(-2165.97 4.07749e-05 0)
(-1858.36 2.1319e-05 0)
(-2635.26 9.91186e-06 0)
(47231.2 3.80756e-06 0)
(-69799 -1.48633e-07 0)
(-25663.8 -3530.38 0)
(-16941.8 9730.92 0)
(1430.62 3606.13 0)
(186.817 710.788 0)
(83.0879 244.295 0)
(958.678 71.6729 0)
(1592.51 100.643 0)
(2104.2 14.1208 0)
(2785.02 11.4928 0)
(3235.72 7.74535 0)
(3570.28 5.63273 0)
(3762.5 3.98906 0)
(3769.76 3.4165 0)
(3454.18 3.88646 0)
(2630.92 3.74028 0)
(1421.73 2.12439 0)
(444.988 0.476919 0)
(61.0057 -0.00192847 0)
(2.50559 -0.00213607 0)
(0.020489 -0.00152632 0)
(-0.0262649 -0.00152485 0)
(-3.00344 -0.00152528 0)
(-69.5457 -0.00152294 0)
(-489.468 -0.00152451 0)
(-1526.31 -0.00149438 0)
(-2779.94 -0.00140315 0)
(-3621.44 -0.00124441 0)
(-3955.4 -0.00103532 0)
(-3990.63 -0.000807096 0)
(-3884.37 -0.000589365 0)
(-3706.83 -0.00040283 0)
(-3485.44 -0.000257724 0)
(-3228.08 -0.000154684 0)
(-2924.26 -8.69589e-05 0)
(-2562.43 -4.63838e-05 0)
(-2165.97 -2.36815e-05 0)
(-1858.36 -1.22547e-05 0)
(-2635.26 -5.68749e-06 0)
(47231.2 -2.1901e-06 0)
(-69799 -8.44254e-08 0)
(-22616 3.13285e-09 0)
(-14582 1.04967e-09 0)
(-116.343 -2.90677e-10 0)
(-172.681 6.45948e-10 0)
(-6.5362 -4.19866e-10 0)
(941.303 -8.07435e-10 0)
(1587.67 -6.13651e-10 0)
(2100.54 1.2919e-10 0)
(2784.27 -1.13041e-09 0)
(3235.09 -3.22974e-10 0)
(3570.02 2.90677e-10 0)
(3762.33 -2.58379e-10 0)
(3769.75 9.68922e-11 0)
(3454.24 -5.81353e-10 0)
(2630.84 5.0061e-09 0)
(1421.49 1.36295e-08 0)
(444.813 -4.63145e-08 0)
(60.9641 5.96856e-08 0)
(2.50509 -1.10154e-06 0)
(0.0205336 -1.40817e-08 0)
(-0.0262649 -1.54511e-07 0)
(-3.00344 1.09553e-07 0)
(-69.5457 2.53234e-06 0)
(-489.468 -2.99442e-06 0)
(-1526.31 -1.32594e-06 0)
(-2779.94 -1.08474e-06 0)
(-3621.44 -3.46648e-07 0)
(-3955.4 -2.90257e-07 0)
(-3990.63 8.84626e-08 0)
(-3884.37 4.37436e-07 0)
(-3706.83 3.2362e-07 0)
(-3485.44 6.09678e-07 0)
(-3228.08 3.47649e-07 0)
(-2924.26 3.20003e-07 0)
(-2562.43 1.48536e-07 0)
(-2165.97 4.5071e-08 0)
(-1858.36 -1.36166e-07 0)
(-2635.26 -3.02142e-08 0)
(47231.2 -6.84705e-09 0)
(-69799 -3.6819e-09 0)
(-25663.8 3530.38 0)
(-16941.8 -9730.92 0)
(1430.62 -3606.13 0)
(186.817 -710.788 0)
(83.0879 -244.295 0)
(958.678 -71.6729 0)
(1592.51 -100.643 0)
(2104.2 -14.1208 0)
(2785.02 -11.4928 0)
(3235.72 -7.74535 0)
(3570.28 -5.63273 0)
(3762.5 -3.98906 0)
(3769.76 -3.4165 0)
(3454.18 -3.88646 0)
(2630.92 -3.74028 0)
(1421.73 -2.12439 0)
(444.988 -0.476919 0)
(61.0057 0.00192846 0)
(2.50559 0.00213408 0)
(0.0204893 0.00152628 0)
(-0.0262649 0.00152456 0)
(-3.00343 0.00152549 0)
(-69.5457 0.0015277 0)
(-489.468 0.00151886 0)
(-1526.31 0.00149191 0)
(-2779.94 0.00140109 0)
(-3621.44 0.00124373 0)
(-3955.4 0.00103479 0)
(-3990.63 0.000807269 0)
(-3884.37 0.00059018 0)
(-3706.83 0.000403457 0)
(-3485.44 0.000258871 0)
(-3228.08 0.000155348 0)
(-2924.26 8.75651e-05 0)
(-2562.43 4.66653e-05 0)
(-2165.97 2.37638e-05 0)
(-1858.36 1.20002e-05 0)
(-2635.26 5.63057e-06 0)
(47231.2 2.17694e-06 0)
(-69799 7.84827e-08 0)
(-27684.5 7467.36 0)
(-16658.1 -7380.52 0)
(2507.7 -3644.21 0)
(805.308 -1265.46 0)
(179.388 -452.057 0)
(983.092 -157.398 0)
(1604.41 -235.748 0)
(2126.47 -52.4102 0)
(2786.12 -34.1871 0)
(3236.79 -21.1475 0)
(3571.11 -14.5563 0)
(3762.97 -10.3294 0)
(3769.78 -8.75854 0)
(3454.14 -9.36684 0)
(2631.35 -9.27971 0)
(1422.44 -5.55493 0)
(445.432 -1.3681 0)
(61.1035 -0.0923198 0)
(2.50497 -0.00359698 0)
(0.0203562 -0.00241716 0)
(-0.0262651 -0.0024153 0)
(-3.00343 -0.00241618 0)
(-69.5457 -0.00241725 0)
(-489.468 -0.0024091 0)
(-1526.31 -0.0023651 0)
(-2779.94 -0.00222383 0)
(-3621.44 -0.0019769 0)
(-3955.4 -0.00164946 0)
(-3990.63 -0.0012915 0)
(-3884.37 -0.000948764 0)
(-3706.83 -0.000652917 0)
(-3485.44 -0.000422021 0)
(-3228.08 -0.000255874 0)
(-2924.26 -0.000145812 0)
(-2562.43 -7.87861e-05 0)
(-2165.97 -4.08137e-05 0)
(-1858.36 -2.12098e-05 0)
(-2635.26 -9.88417e-06 0)
(47231.2 -3.80252e-06 0)
(-69799 1.46889e-07 0)
(53429.9 16785.9 0)
(-24239.9 -4771.52 0)
(4021.06 -2372.33 0)
(1474.04 -1820.76 0)
(666.799 -781.293 0)
(1066.13 -367.106 0)
(1644.6 -343.157 0)
(2204.88 -138.586 0)
(2803.35 -82.9307 0)
(3246.8 -47.1914 0)
(3576.11 -31.0858 0)
(3765.58 -23.5299 0)
(3770.35 -21.5538 0)
(3453.89 -21.8248 0)
(2632.82 -19.4361 0)
(1425.87 -10.9942 0)
(447.901 -2.95519 0)
(61.7486 -0.597586 0)
(2.56269 -0.410746 0)
(0.0213844 -0.407997 0)
(-0.026264 -0.407993 0)
(-3.00344 -0.407993 0)
(-69.5457 -0.407948 0)
(-489.468 -0.406893 0)
(-1526.31 -0.399836 0)
(-2779.94 -0.379523 0)
(-3621.44 -0.344355 0)
(-3955.4 -0.298165 0)
(-3990.63 -0.24647 0)
(-3884.37 -0.194583 0)
(-3706.83 -0.146742 0)
(-3485.44 -0.105712 0)
(-3228.08 -0.0727403 0)
(-2924.26 -0.0478335 0)
(-2562.43 -0.0302131 0)
(-2165.97 -0.0185937 0)
(-1858.36 -0.0115146 0)
(-2635.26 -0.00631123 0)
(47231.2 -0.00295289 0)
(-69799 -0.000229304 0)
(57837.2 12438.2 0)
(-31054 -1662.56 0)
(4539.64 -1586.56 0)
(1979.89 -1518.07 0)
(1318.82 -1007.92 0)
(1360.77 -614.736 0)
(1803.08 -447.195 0)
(2335.19 -245.809 0)
(2864.95 -159.417 0)
(3281.39 -100.913 0)
(3591.23 -75.118 0)
(3770.75 -65.2257 0)
(3771.12 -62.5864 0)
(3456.32 -59.5032 0)
(2641 -50.4123 0)
(1436.48 -34.9838 0)
(454.126 -22.541 0)
(63.2095 -19.1402 0)
(2.65671 -18.9133 0)
(0.0224582 -18.9106 0)
(-0.0262614 -18.9106 0)
(-3.00339 -18.9106 0)
(-69.5446 -18.9085 0)
(-489.46 -18.8623 0)
(-1526.28 -18.5643 0)
(-2779.89 -17.7401 0)
(-3621.37 -16.3608 0)
(-3955.31 -14.5807 0)
(-3990.53 -12.579 0)
(-3884.27 -10.5146 0)
(-3706.75 -8.5182 0)
(-3485.37 -6.6887 0)
(-3228.02 -5.09022 0)
(-2924.22 -3.75621 0)
(-2562.4 -2.69888 0)
(-2165.95 -1.90877 0)
(-1858.35 -1.35888 0)
(-2635.26 -0.860757 0)
(47231.2 -0.476141 0)
(-69799 -0.130218 0)
(63813.6 10450.5 0)
(-37754.6 -377.928 0)
(4160.3 -1087.46 0)
(2031.64 -1189.67 0)
(1537.28 -1071.46 0)
(1606.46 -778.594 0)
(2000.11 -582.561 0)
(2482.19 -394.954 0)
(2942.98 -302.351 0)
(3328.03 -251.274 0)
(3610.5 -236.074 0)
(3777.66 -240.186 0)
(3775.86 -250.904 0)
(3465.62 -257.062 0)
(2656.45 -251.531 0)
(1452.73 -236.633 0)
(463.168 -224.668 0)
(65.2443 -221.398 0)
(2.78391 -221.175 0)
(0.0239926 -221.172 0)
(-0.0262407 -221.172 0)
(-3.00139 -221.172 0)
(-69.4991 -221.147 0)
(-489.136 -220.621 0)
(-1525.23 -217.361 0)
(-2777.82 -208.716 0)
(-3618.4 -194.81 0)
(-3951.75 -177.369 0)
(-3986.71 -157.97 0)
(-3880.45 -137.806 0)
(-3703.14 -117.812 0)
(-3482.14 -98.7266 0)
(-3225.25 -81.1031 0)
(-2921.96 -65.3566 0)
(-2560.65 -51.8512 0)
(-2164.68 -40.8324 0)
(-1857.35 -32.2946 0)
(-2634.41 -23.1455 0)
(47231.9 -14.7441 0)
(-69798.4 -9.84375 0)
(67543.5 6524.08 0)
(-42172.5 -453.226 0)
(3757.42 -1092.87 0)
(1995.31 -1287.22 0)
(1714.94 -1159.72 0)
(1831.89 -946.001 0)
(2172.77 -823.073 0)
(2605.21 -744.058 0)
(3003.41 -713.424 0)
(3345.25 -726.175 0)
(3601.91 -767.839 0)
(3756.46 -823.955 0)
(3754.86 -880.983 0)
(3455.72 -928.883 0)
(2660.68 -959.758 0)
(1462.37 -971.307 0)
(468.807 -971.739 0)
(66.5753 -970.989 0)
(2.87396 -970.91 0)
(0.0251201 -970.908 0)
(-0.0260288 -970.908 0)
(-2.97922 -970.907 0)
(-69.014 -970.794 0)
(-485.812 -968.474 0)
(-1514.81 -954.651 0)
(-2758.16 -919.488 0)
(-3591.16 -865.166 0)
(-3919.8 -799.274 0)
(-3952.4 -727.533 0)
(-3845.57 -653.546 0)
(-3669.09 -579.802 0)
(-3449.99 -508.198 0)
(-3195.86 -440.21 0)
(-2896.03 -377.19 0)
(-2538.77 -320.77 0)
(-2147.11 -272.442 0)
(-1841.3 -231.409 0)
(-2618.34 -182.717 0)
(47244 -130.44 0)
(-69775.3 -180.546 0)
(69663.7 5180.93 0)
(-45094.5 -592.369 0)
(3356.63 -1196.84 0)
(1967.22 -1394.14 0)
(1866.09 -1456.45 0)
(1930.87 -1462.18 0)
(2194.71 -1445.74 0)
(2587.85 -1460.49 0)
(2960.21 -1506.21 0)
(3275.6 -1589.96 0)
(3516.27 -1699.41 0)
(3668.63 -1820.05 0)
(3674.75 -1939.19 0)
(3389.71 -2047.99 0)
(2615.57 -2136.77 0)
(1441.18 -2192.62 0)
(463.475 -2213.42 0)
(66.0434 -2216.76 0)
(2.86178 -2216.92 0)
(0.0251166 -2216.92 0)
(-0.0251595 -2216.92 0)
(-2.89075 -2216.92 0)
(-67.1545 -2216.64 0)
(-473.581 -2211.15 0)
(-1478.02 -2179.7 0)
(-2691.59 -2102.94 0)
(-3502.56 -1988.92 0)
(-3819.13 -1855.19 0)
(-3846.28 -1713.28 0)
(-3738.1 -1569.36 0)
(-3563.08 -1427.01 0)
(-3347.62 -1288.73 0)
(-3099.01 -1156.41 0)
(-2806.86 -1032.21 0)
(-2459.71 -919.505 0)
(-2078.57 -821.255 0)
(-1770.89 -729.713 0)
(-2537.12 -618.534 0)
(47234 -483.451 0)
(-69498.7 -1170.43 0)
(71965.2 655.238 0)
(-48318.3 -986.333 0)
(2984.81 -1503.51 0)
(1745.15 -1826.18 0)
(1649.38 -2055.08 0)
(1842.21 -2178.19 0)
(2174.39 -2196.76 0)
(2546.94 -2233.23 0)
(2878.64 -2307.84 0)
(3159.08 -2423.21 0)
(3380.19 -2564.65 0)
(3525.4 -2720.55 0)
(3535.21 -2880.72 0)
(3265.32 -3035 0)
(2521.31 -3169.54 0)
(1388.5 -3263.18 0)
(445.546 -3303.52 0)
(63.203 -3311.02 0)
(2.71924 -3311.43 0)
(0.0236352 -3311.43 0)
(-0.0232949 -3311.43 0)
(-2.70725 -3311.43 0)
(-63.4502 -3310.97 0)
(-450.214 -3302.2 0)
(-1410.54 -3253.98 0)
(-2574.31 -3141.05 0)
(-3352.41 -2979.41 0)
(-3654.19 -2795.6 0)
(-3676.96 -2605.32 0)
(-3569.71 -2416.03 0)
(-3398.67 -2231.51 0)
(-3189.23 -2054.01 0)
(-2948.67 -1885.17 0)
(-2667.74 -1727.66 0)
(-2335.48 -1586.11 0)
(-1964.22 -1464.13 0)
(-1645.95 -1337.42 0)
(-2381.04 -1193.25 0)
(46712.2 -1003.99 0)
(-68181.5 -3634.01 0)
(69344.7 -5807.27 0)
(-47174.8 -1591.64 0)
(2547.33 -2015.79 0)
(1435.71 -2376.28 0)
(1526.88 -2522.21 0)
(1794.35 -2581.01 0)
(2141.67 -2596.77 0)
(2480.81 -2649.38 0)
(2777.14 -2740.88 0)
(3028.12 -2866.86 0)
(3229.74 -3016.23 0)
(3364.06 -3180.87 0)
(3371.73 -3354.68 0)
(3111.39 -3529.43 0)
(2395.7 -3690.05 0)
(1312.08 -3809.24 0)
(417.367 -3863.89 0)
(58.4194 -3874.53 0)
(2.4658 -3875.12 0)
(0.0209105 -3875.13 0)
(-0.0205361 -3875.13 0)
(-2.4417 -3875.12 0)
(-58.2598 -3874.52 0)
(-418.662 -3863.38 0)
(-1322.73 -3804.12 0)
(-2427.01 -3670.48 0)
(-3169.67 -3485.39 0)
(-3458.63 -3279.99 0)
(-3480.51 -3071.24 0)
(-3377.88 -2866.66 0)
(-3214.23 -2669.82 0)
(-3013.87 -2482.53 0)
(-2784.52 -2306.35 0)
(-2518.68 -2144.19 0)
(-2205.76 -2001.68 0)
(-1838.92 -1882.26 0)
(-1509.85 -1748.89 0)
(-2215.81 -1615.42 0)
(44882 -1436.66 0)
(-65029.4 -6785.55 0)
(64835.3 -9152.03 0)
(-44664.7 -1952.39 0)
(2228.7 -2297.11 0)
(1257.14 -2526.1 0)
(1452.09 -2629.71 0)
(1770.36 -2659.26 0)
(2108.51 -2680.82 0)
(2408.07 -2742.8 0)
(2669.07 -2842.5 0)
(2893.74 -2971.57 0)
(3077.59 -3122.14 0)
(3199.25 -3288.23 0)
(3199.33 -3466.2 0)
(2942.15 -3650.07 0)
(2251.67 -3824.71 0)
(1220.98 -3958.76 0)
(382.633 -4022 0)
(52.3849 -4034.47 0)
(2.14369 -4035.16 0)
(0.0174787 -4035.17 0)
(-0.0172235 -4035.17 0)
(-2.12349 -4035.16 0)
(-52.1364 -4034.48 0)
(-382.376 -4021.97 0)
(-1224.65 -3956.75 0)
(-2267.16 -3813.91 0)
(-2976.12 -3621.46 0)
(-3255.11 -3411.84 0)
(-3278.67 -3201.3 0)
(-3182.89 -2996.71 0)
(-3028.5 -2801.16 0)
(-2838.98 -2616.53 0)
(-2622.64 -2443.66 0)
(-2374.15 -2286.61 0)
(-2083.07 -2149.66 0)
(-1720.62 -2035.87 0)
(-1388.81 -1917.69 0)
(-2080.15 -1812.48 0)
(41730 -1662.6 0)
(-60258.3 -9051.74 0)
(58644.1 -11379.5 0)
(-40569.2 -2035.29 0)
(1994.47 -2312.86 0)
(1115.2 -2467.44 0)
(1398.56 -2528.53 0)
(1745.1 -2552.34 0)
(2061.17 -2590.38 0)
(2325.01 -2667.83 0)
(2556.69 -2773.62 0)
(2758.65 -2904.54 0)
(2924.6 -3054.59 0)
(3032.51 -3221.34 0)
(3023.05 -3401.11 0)
(2765.92 -3588.55 0)
(2098.23 -3769.44 0)
(1121.96 -3910.82 0)
(344.409 -3978.17 0)
(45.7376 -3991.37 0)
(1.79423 -3992.08 0)
(0.0138701 -3992.09 0)
(-0.013746 -3992.09 0)
(-1.78261 -3992.08 0)
(-45.5497 -3991.38 0)
(-343.754 -3978.32 0)
(-1122.24 -3910.54 0)
(-2103.91 -3764.91 0)
(-2782.22 -3572.98 0)
(-3053.75 -3367.09 0)
(-3080.48 -3161.98 0)
(-2992.29 -2963.44 0)
(-2847.86 -2774.49 0)
(-2669.37 -2595.9 0)
(-2466.6 -2430.98 0)
(-2235.38 -2279.4 0)
(-1964.14 -2148.45 0)
(-1615.38 -2035.61 0)
(-1294.59 -1938.4 0)
(-1970.01 -1870.59 0)
(37906 -1726.36 0)
(-54704.6 -10050.9 0)
(51908.4 -11777.1 0)
(-35927.8 -2013.33 0)
(1812.27 -2285.47 0)
(1049.32 -2310.89 0)
(1370.27 -2340.38 0)
(1710.75 -2368.83 0)
(1997.23 -2430.64 0)
(2231.49 -2515.78 0)
(2440.96 -2630.1 0)
(2623 -2761.66 0)
(2772.31 -2912.3 0)
(2865.34 -3078.43 0)
(2845.48 -3258 0)
(2587.21 -3445.44 0)
(1941.12 -3627.38 0)
(1019.84 -3770.72 0)
(305.011 -3838.86 0)
(38.9801 -3851.95 0)
(1.45001 -3852.63 0)
(0.0104842 -3852.64 0)
(-0.0104428 -3852.64 0)
(-1.44521 -3852.63 0)
(-38.8802 -3851.96 0)
(-304.479 -3839.02 0)
(-1019 -3771.1 0)
(-1941.87 -3626.36 0)
(-2592.78 -3438.88 0)
(-2859.05 -3240.4 0)
(-2889.7 -3043.87 0)
(-2809.49 -2854.39 0)
(-2674.33 -2673.54 0)
(-2507.97 -2505.06 0)
(-2317.64 -2346.17 0)
(-2101.9 -2206.35 0)
(-1848.15 -2075.87 0)
(-1518.21 -1967.1 0)
(-1229.79 -1883.22 0)
(-1875.83 -1860.8 0)
(33847.2 -1696.07 0)
(-48909.3 -10026.5 0)
(45355.1 -11496.5 0)
(-31422.7 -1921.03 0)
(1707.74 -2170.84 0)
(1062.29 -2093.12 0)
(1342.73 -2114.87 0)
(1658.12 -2160.48 0)
(1919.56 -2237.6 0)
(2132.81 -2336.83 0)
(2319.75 -2449.78 0)
(2486.71 -2586.1 0)
(2619.36 -2735.67 0)
(2699.38 -2900.58 0)
(2669.38 -3077.17 0)
(2409.97 -3261.09 0)
(1784.78 -3439.95 0)
(918.168 -3581.29 0)
(266.127 -3647.84 0)
(32.4704 -3660.23 0)
(1.13294 -3660.84 0)
(0.00755894 -3660.84 0)
(-0.00755321 -3660.84 0)
(-1.1318 -3660.84 0)
(-32.4342 -3660.23 0)
(-265.836 -3647.93 0)
(-917.315 -3581.74 0)
(-1783.76 -3440.39 0)
(-2410.29 -3259.56 0)
(-2673.11 -3070.38 0)
(-2708.5 -2884.28 0)
(-2635.42 -2704.81 0)
(-2511.24 -2535.54 0)
(-2353.91 -2374.21 0)
(-2178.76 -2230.76 0)
(-1974.9 -2092.3 0)
(-1733.58 -1971.85 0)
(-1429.75 -1864.01 0)
(-1192.16 -1795.29 0)
(-1789.66 -1804.01 0)
(30037.2 -1615.45 0)
(-43408.4 -9747.89 0)
(38978.8 -10468.2 0)
(-26941.3 -1741.36 0)
(1646.44 -1951.14 0)
(1103.25 -1865.17 0)
(1305.36 -1889.51 0)
(1592.48 -1944.37 0)
(1827.29 -2042.87 0)
(2027.02 -2140.67 0)
(2200.76 -2262.68 0)
(2347.5 -2393.79 0)
(2469.26 -2542.55 0)
(2536.26 -2702.38 0)
(2498.08 -2872.74 0)
(2237.62 -3049.38 0)
(1632.56 -3221.76 0)
(819.51 -3358.22 0)
(228.945 -3421.46 0)
(26.4513 -3432.77 0)
(0.856099 -3433.29 0)
(0.00519868 -3433.29 0)
(-0.00520224 -3433.29 0)
(-0.856271 -3433.29 0)
(-26.4465 -3432.77 0)
(-228.841 -3421.51 0)
(-818.995 -3358.51 0)
(-1631.41 -3222.47 0)
(-2236.23 -3049.97 0)
(-2497.41 -2871.68 0)
(-2537.42 -2697.22 0)
(-2473.43 -2530.22 0)
(-2355.75 -2370.95 0)
(-2214.27 -2225.34 0)
(-2045.98 -2084.67 0)
(-1852.41 -1963.03 0)
(-1628.17 -1839.18 0)
(-1348.06 -1744.58 0)
(-1171.98 -1686.83 0)
(-1702.53 -1701.95 0)
(26192.2 -1508.96 0)
(-37959.2 -9130.35 0)
(33589.6 -9215.96 0)
(-23215.4 -1516.14 0)
(1588.43 -1704.53 0)
(1121.67 -1653.07 0)
(1266.41 -1680.79 0)
(1510.34 -1741.92 0)
(1730.39 -1841.36 0)
(1920.99 -1950.34 0)
(2075.83 -2066.5 0)
(2217.03 -2196.81 0)
(2322 -2336.7 0)
(2381.19 -2487.29 0)
(2334.99 -2645.8 0)
(2073.64 -2810.54 0)
(1487.18 -2972.95 0)
(725.724 -3102.12 0)
(194.292 -3160.79 0)
(21.0751 -3170.76 0)
(0.625503 -3171.18 0)
(0.00340909 -3171.19 0)
(-0.00341237 -3171.19 0)
(-0.62586 -3171.18 0)
(-21.0799 -3170.76 0)
(-194.282 -3160.8 0)
(-725.516 -3102.24 0)
(-1486.44 -2973.45 0)
(-2072.25 -2811.52 0)
(-2333.19 -2646.87 0)
(-2379.46 -2487.44 0)
(-2321.02 -2334.52 0)
(-2217.45 -2190.33 0)
(-2078.04 -2053.41 0)
(-1925.98 -1927.98 0)
(-1738.33 -1807.24 0)
(-1523.08 -1693.88 0)
(-1282.93 -1611.46 0)
(-1151.08 -1564.84 0)
(-1618.25 -1575.05 0)
(22878.9 -1383.24 0)
(-33155.9 -8429.81 0)
(28637 -7974.39 0)
(-19703 -1280.18 0)
(1514.49 -1452.81 0)
(1126.13 -1439.94 0)
(1219.73 -1465.01 0)
(1437.76 -1531 0)
(1626.45 -1626.9 0)
(1810.06 -1738.93 0)
(1963.26 -1852.6 0)
(2087.13 -1977.75 0)
(2189.34 -2106.65 0)
(2238.4 -2242.04 0)
(2186.59 -2383.28 0)
(1922.37 -2531.04 0)
(1351.59 -2679.29 0)
(638.506 -2798.29 0)
(162.8 -2851.12 0)
(16.4307 -2859.6 0)
(0.441956 -2859.93 0)
(0.00213143 -2859.93 0)
(-0.00213293 -2859.93 0)
(-0.442173 -2859.93 0)
(-16.4355 -2859.6 0)
(-162.818 -2851.12 0)
(-638.467 -2798.31 0)
(-1351.26 -2679.53 0)
(-1921.52 -2531.75 0)
(-2185.12 -2384.58 0)
(-2236.43 -2243.79 0)
(-2187.12 -2108.4 0)
(-2084.86 -1978.65 0)
(-1961.47 -1851.62 0)
(-1808.76 -1735.06 0)
(-1626.82 -1618.13 0)
(-1439.51 -1516.46 0)
(-1223.71 -1441.02 0)
(-1136.89 -1407.71 0)
(-1527.54 -1401.09 0)
(19586.7 -1222.3 0)
(-28503 -7610.49 0)
(24671.6 -6961.16 0)
(-16931 -1113.62 0)
(1434.48 -1275.49 0)
(1109.91 -1276.95 0)
(1178.66 -1301.41 0)
(1354.34 -1337.84 0)
(1530.02 -1425.02 0)
(1703.49 -1508.39 0)
(1845.7 -1613.61 0)
(1972.22 -1720.62 0)
(2067.32 -1836.25 0)
(2114.62 -1954.73 0)
(2056.5 -2077.08 0)
(1788.39 -2205.44 0)
(1229.64 -2336.93 0)
(560.14 -2443.3 0)
(135.207 -2489.3 0)
(12.587 -2496.21 0)
(0.303406 -2496.45 0)
(0.00127751 -2496.45 0)
(-0.00127794 -2496.45 0)
(-0.303489 -2496.45 0)
(-12.5896 -2496.21 0)
(-135.224 -2489.29 0)
(-560.161 -2443.29 0)
(-1229.57 -2336.99 0)
(-1788.03 -2205.79 0)
(-2055.7 -2077.94 0)
(-2113.33 -1956.3 0)
(-2065.52 -1838.54 0)
(-1970 -1723.48 0)
(-1843.31 -1616.89 0)
(-1700.98 -1511.46 0)
(-1527.68 -1427.73 0)
(-1352.4 -1338.54 0)
(-1178.14 -1300.29 0)
(-1112.6 -1272.26 0)
(-1439.58 -1263.42 0)
(16895.3 -1097.31 0)
(-24644.3 -6832.37 0)
(20855.8 -5739.55 0)
(-14224.1 -929.677 0)
(1357.1 -1094.9 0)
(1101.16 -1125.71 0)
(1161.06 -1147.11 0)
(1318.64 -1167.83 0)
(1462.11 -1212.79 0)
(1628.33 -1271.5 0)
(1758.74 -1335.32 0)
(1872.58 -1414.14 0)
(1963.74 -1503.02 0)
(2006.32 -1608.42 0)
(1944.99 -1729.62 0)
(1671.97 -1859.74 0)
(1122.38 -1986.5 0)
(491.679 -2082.38 0)
(111.821 -2120.93 0)
(9.53442 -2126.25 0)
(0.204128 -2126.42 0)
(0.000742681 -2126.42 0)
(-0.000742741 -2126.42 0)
(-0.204147 -2126.42 0)
(-9.53524 -2126.25 0)
(-111.829 -2120.93 0)
(-491.704 -2082.37 0)
(-1122.39 -1986.49 0)
(-1671.89 -1859.83 0)
(-1944.7 -1730 0)
(-2005.73 -1609.3 0)
(-1962.77 -1504.58 0)
(-1871.28 -1416.53 0)
(-1757.16 -1338.65 0)
(-1626.48 -1275.68 0)
(-1460.18 -1217.84 0)
(-1316.7 -1173.47 0)
(-1159.84 -1153.13 0)
(-1101.36 -1130.98 0)
(-1358.95 -1097.74 0)
(14220.3 -930.174 0)
(-20861.6 -5704.83 0)
(18244.9 -4696.63 0)
(-12455.2 -803.463 0)
(1245.58 -974.286 0)
(1059.6 -1049.99 0)
(1138.06 -1095.48 0)
(1291.05 -1114.12 0)
(1430.12 -1138.36 0)
(1585.42 -1158.88 0)
(1708.26 -1181.6 0)
(1810.62 -1211 0)
(1880.1 -1262.36 0)
(1896.26 -1340.44 0)
(1814.32 -1447.2 0)
(1540.85 -1577.9 0)
(1015.1 -1715.4 0)
(430.6 -1818.69 0)
(92.9361 -1856.72 0)
(7.29877 -1861.3 0)
(0.139161 -1861.42 0)
(0.000437056 -1861.42 0)
(-0.000437046 -1861.42 0)
(-0.139161 -1861.42 0)
(-7.29887 -1861.3 0)
(-92.9385 -1856.72 0)
(-430.613 -1818.68 0)
(-1015.12 -1715.38 0)
(-1540.87 -1577.9 0)
(-1814.28 -1447.29 0)
(-1896.1 -1340.75 0)
(-1879.77 -1263.04 0)
(-1810.11 -1212.21 0)
(-1707.58 -1183.44 0)
(-1584.57 -1161.42 0)
(-1429.18 -1141.73 0)
(-1290.04 -1118.18 0)
(-1137.19 -1100.32 0)
(-1059.23 -1054.76 0)
(-1246.08 -978.561 0)
(12455.8 -806.494 0)
(-18250.6 -4696.68 0)
(15555.7 -3737.57 0)
(-10637.1 -981.614 0)
(1119.54 -1114.54 0)
(984.365 -1248.37 0)
(1099.26 -1370.29 0)
(1277.32 -1462.12 0)
(1418.98 -1556.42 0)
(1586.67 -1659.53 0)
(1708.52 -1756.4 0)
(1794.77 -1857.79 0)
(1839.01 -1957 0)
(1828.2 -2056.73 0)
(1716.16 -2169.22 0)
(1413.52 -2313.13 0)
(890.347 -2478.72 0)
(355.505 -2602.03 0)
(70.7612 -2643.21 0)
(5.00162 -2647.49 0)
(0.0840074 -2647.59 0)
(0.000228832 -2647.59 0)
(-0.000228826 -2647.59 0)
(-0.0840053 -2647.59 0)
(-5.00158 -2647.49 0)
(-70.7616 -2643.21 0)
(-355.51 -2602.02 0)
(-890.366 -2478.7 0)
(-1413.55 -2313.11 0)
(-1716.18 -2169.22 0)
(-1828.18 -2056.79 0)
(-1838.9 -1957.19 0)
(-1794.57 -1858.2 0)
(-1708.22 -1757.09 0)
(-1586.28 -1660.56 0)
(-1418.51 -1557.86 0)
(-1276.8 -1463.93 0)
(-1098.73 -1372.53 0)
(-984.026 -1250.76 0)
(-1119.71 -1116.84 0)
(10637.3 -983.384 0)
(-15558.6 -3739.68 0)
(13697.3 86174.8 0)
(-9927.56 10625.8 0)
(988.528 11433 0)
(813.148 13486.9 0)
(932.076 15473.8 0)
(1111.69 18494.5 0)
(1239.89 21547.8 0)
(1392.71 25275.8 0)
(1517.21 29002.5 0)
(1617.31 33319.1 0)
(1688.39 37596.8 0)
(1691.76 42003.8 0)
(1567.24 45952.4 0)
(1242.61 48802.1 0)
(736.71 50067.4 0)
(272.092 50271.4 0)
(49.1227 50255.5 0)
(3.0738 50251.9 0)
(0.0446167 50251.8 0)
(0.000102761 50251.8 0)
(-0.000102759 50251.8 0)
(-0.0446152 50251.8 0)
(-3.07375 50251.9 0)
(-49.1224 50255.5 0)
(-272.094 50271.4 0)
(-736.721 50067.5 0)
(-1242.63 48802.1 0)
(-1567.27 45952.5 0)
(-1691.79 42003.8 0)
(-1688.4 37596.7 0)
(-1617.28 33318.9 0)
(-1517.12 29002.1 0)
(-1392.59 25275.1 0)
(-1239.71 21546.9 0)
(-1111.45 18493.2 0)
(-931.77 15472.2 0)
(-812.827 13485.1 0)
(-988.428 11431.2 0)
(9928.3 10624.3 0)
(-13699.3 86173.1 0)
(108836 -112642 0)
(-82661 -14515.4 0)
(3876.57 -16559.7 0)
(4878.15 -19564 0)
(5924.77 -22465.8 0)
(7130.5 -26679.6 0)
(7953.68 -31019 0)
(8770.25 -36220.1 0)
(9459.32 -41565.5 0)
(10076.5 -47610.9 0)
(10207.9 -53700.6 0)
(9880.01 -59956.1 0)
(8267.26 -65709 0)
(5378.92 -70161.7 0)
(2306.24 -72580.4 0)
(536.678 -73319.5 0)
(51.9741 -73419.7 0)
(1.49712 -73424.4 0)
(0.00848575 -73424.4 0)
(4.01174e-06 -73424.4 0)
(-4.01658e-06 -73424.4 0)
(-0.00848548 -73424.4 0)
(-1.49709 -73424.4 0)
(-51.9736 -73419.7 0)
(-536.675 -73319.5 0)
(-2306.23 -72580.4 0)
(-5378.92 -70161.7 0)
(-8267.28 -65709 0)
(-9880.07 -59956 0)
(-10208 -53700.4 0)
(-10076.7 -47610.7 0)
(-9459.48 -41565.2 0)
(-8770.41 -36219.9 0)
(-7953.8 -31018.7 0)
(-7130.58 -26679.4 0)
(-5924.78 -22465.7 0)
(-4878.05 -19564.2 0)
(-3876.39 -16560 0)
(82661.4 -14515.8 0)
(-108836 -112644 0)
(108836 112642 0)
(-82661 14515.4 0)
(3876.57 16559.7 0)
(4878.15 19564 0)
(5924.77 22465.8 0)
(7130.5 26679.6 0)
(7953.68 31019 0)
(8770.25 36220.1 0)
(9459.32 41565.5 0)
(10076.5 47610.9 0)
(10207.9 53700.6 0)
(9880.01 59956.1 0)
(8267.26 65709 0)
(5378.92 70161.7 0)
(2306.24 72580.4 0)
(536.678 73319.5 0)
(51.9741 73419.7 0)
(1.49712 73424.4 0)
(0.00848575 73424.4 0)
(4.00338e-06 73424.4 0)
(-4.02506e-06 73424.4 0)
(-0.00848546 73424.4 0)
(-1.49709 73424.4 0)
(-51.9736 73419.7 0)
(-536.675 73319.5 0)
(-2306.23 72580.4 0)
(-5378.92 70161.7 0)
(-8267.28 65709 0)
(-9880.07 59956 0)
(-10208 53700.4 0)
(-10076.7 47610.7 0)
(-9459.48 41565.2 0)
(-8770.41 36219.9 0)
(-7953.8 31018.7 0)
(-7130.58 26679.4 0)
(-5924.78 22465.7 0)
(-4878.05 19564.2 0)
(-3876.39 16560 0)
(82661.4 14515.8 0)
(-108836 112644 0)
(13697.3 -86174.8 0)
(-9927.56 -10625.8 0)
(988.528 -11433 0)
(813.148 -13486.9 0)
(932.076 -15473.8 0)
(1111.69 -18494.5 0)
(1239.89 -21547.8 0)
(1392.71 -25275.8 0)
(1517.21 -29002.5 0)
(1617.31 -33319.1 0)
(1688.39 -37596.8 0)
(1691.76 -42003.8 0)
(1567.24 -45952.4 0)
(1242.61 -48802.1 0)
(736.71 -50067.4 0)
(272.092 -50271.4 0)
(49.1227 -50255.5 0)
(3.0738 -50251.9 0)
(0.0446167 -50251.8 0)
(0.00010276 -50251.8 0)
(-0.000102759 -50251.8 0)
(-0.0446152 -50251.8 0)
(-3.07375 -50251.9 0)
(-49.1224 -50255.5 0)
(-272.094 -50271.4 0)
(-736.721 -50067.5 0)
(-1242.63 -48802.1 0)
(-1567.27 -45952.5 0)
(-1691.79 -42003.8 0)
(-1688.4 -37596.7 0)
(-1617.28 -33318.9 0)
(-1517.12 -29002.1 0)
(-1392.59 -25275.1 0)
(-1239.71 -21546.9 0)
(-1111.45 -18493.2 0)
(-931.77 -15472.2 0)
(-812.827 -13485.1 0)
(-988.428 -11431.2 0)
(9928.3 -10624.3 0)
(-13699.3 -86173.1 0)
(15555.7 3737.57 0)
(-10637.1 981.614 0)
(1119.54 1114.54 0)
(984.365 1248.37 0)
(1099.26 1370.29 0)
(1277.32 1462.12 0)
(1418.98 1556.42 0)
(1586.67 1659.53 0)
(1708.52 1756.4 0)
(1794.77 1857.79 0)
(1839.01 1957 0)
(1828.2 2056.73 0)
(1716.16 2169.22 0)
(1413.52 2313.13 0)
(890.347 2478.72 0)
(355.505 2602.03 0)
(70.7612 2643.21 0)
(5.00162 2647.49 0)
(0.0840074 2647.59 0)
(0.00022883 2647.59 0)
(-0.000228826 2647.59 0)
(-0.0840053 2647.59 0)
(-5.00158 2647.49 0)
(-70.7616 2643.21 0)
(-355.51 2602.02 0)
(-890.366 2478.7 0)
(-1413.55 2313.11 0)
(-1716.18 2169.22 0)
(-1828.18 2056.79 0)
(-1838.9 1957.19 0)
(-1794.57 1858.2 0)
(-1708.22 1757.09 0)
(-1586.28 1660.56 0)
(-1418.51 1557.86 0)
(-1276.8 1463.93 0)
(-1098.73 1372.53 0)
(-984.026 1250.76 0)
(-1119.71 1116.84 0)
(10637.3 983.384 0)
(-15558.6 3739.68 0)
(18244.9 4696.63 0)
(-12455.2 803.463 0)
(1245.58 974.286 0)
(1059.6 1049.99 0)
(1138.06 1095.48 0)
(1291.05 1114.12 0)
(1430.12 1138.36 0)
(1585.42 1158.88 0)
(1708.26 1181.6 0)
(1810.62 1211 0)
(1880.1 1262.36 0)
(1896.26 1340.44 0)
(1814.32 1447.2 0)
(1540.85 1577.9 0)
(1015.1 1715.4 0)
(430.6 1818.69 0)
(92.9361 1856.72 0)
(7.29877 1861.3 0)
(0.139161 1861.42 0)
(0.000437052 1861.42 0)
(-0.000437046 1861.42 0)
(-0.139161 1861.42 0)
(-7.29887 1861.3 0)
(-92.9385 1856.72 0)
(-430.613 1818.68 0)
(-1015.12 1715.38 0)
(-1540.87 1577.9 0)
(-1814.28 1447.29 0)
(-1896.1 1340.75 0)
(-1879.77 1263.04 0)
(-1810.11 1212.21 0)
(-1707.58 1183.44 0)
(-1584.57 1161.42 0)
(-1429.18 1141.73 0)
(-1290.04 1118.18 0)
(-1137.19 1100.32 0)
(-1059.23 1054.76 0)
(-1246.08 978.561 0)
(12455.8 806.494 0)
(-18250.6 4696.68 0)
(20855.8 5739.55 0)
(-14224.1 929.677 0)
(1357.1 1094.9 0)
(1101.16 1125.71 0)
(1161.06 1147.11 0)
(1318.64 1167.83 0)
(1462.11 1212.79 0)
(1628.33 1271.5 0)
(1758.74 1335.32 0)
(1872.58 1414.14 0)
(1963.74 1503.02 0)
(2006.32 1608.42 0)
(1944.99 1729.62 0)
(1671.97 1859.74 0)
(1122.38 1986.5 0)
(491.679 2082.38 0)
(111.821 2120.93 0)
(9.53442 2126.25 0)
(0.204128 2126.42 0)
(0.000742681 2126.42 0)
(-0.000742742 2126.42 0)
(-0.204147 2126.42 0)
(-9.53524 2126.25 0)
(-111.829 2120.93 0)
(-491.704 2082.37 0)
(-1122.39 1986.49 0)
(-1671.89 1859.83 0)
(-1944.7 1730 0)
(-2005.73 1609.3 0)
(-1962.77 1504.58 0)
(-1871.28 1416.53 0)
(-1757.16 1338.65 0)
(-1626.48 1275.68 0)
(-1460.18 1217.84 0)
(-1316.7 1173.47 0)
(-1159.84 1153.13 0)
(-1101.36 1130.98 0)
(-1358.95 1097.74 0)
(14220.3 930.174 0)
(-20861.6 5704.83 0)
(24671.6 6961.16 0)
(-16931 1113.62 0)
(1434.48 1275.49 0)
(1109.91 1276.95 0)
(1178.66 1301.41 0)
(1354.34 1337.84 0)
(1530.02 1425.02 0)
(1703.49 1508.39 0)
(1845.7 1613.61 0)
(1972.22 1720.62 0)
(2067.32 1836.25 0)
(2114.62 1954.73 0)
(2056.5 2077.08 0)
(1788.39 2205.44 0)
(1229.64 2336.93 0)
(560.14 2443.3 0)
(135.207 2489.3 0)
(12.587 2496.21 0)
(0.303406 2496.45 0)
(0.0012775 2496.45 0)
(-0.00127795 2496.45 0)
(-0.303489 2496.45 0)
(-12.5896 2496.21 0)
(-135.224 2489.29 0)
(-560.161 2443.29 0)
(-1229.57 2336.99 0)
(-1788.03 2205.79 0)
(-2055.7 2077.94 0)
(-2113.33 1956.3 0)
(-2065.52 1838.54 0)
(-1970 1723.48 0)
(-1843.31 1616.89 0)
(-1700.98 1511.46 0)
(-1527.68 1427.73 0)
(-1352.4 1338.54 0)