/*--------------------------------*- C++ -*----------------------------------*\
| =========                 |                                                 |
| \\      /  F ield         | OpenFOAM: The Open Source CFD Toolbox           |
|  \\    /   O peration     | Version:  v1912                                 |
|   \\  /    A nd           | Website:  www.openfoam.com                      |
|    \\/     M anipulation  |                                                 |
\*---------------------------------------------------------------------------*/
FoamFile
{
    version     2.0;
    format      ascii;
    class       Cloud<dsmcParcel>;
    location    "0.00027/lagrangian/dsmc";
    object      coordinates;
}
// * * * * * * * * * * * * * * * * * * * * * * * * * * * * * * * * * * * * * //

13032
(
(0.4036421717 0.009528064478 0.2981789142 0.2886508497) 1055 2067 1
(0.5893304359 0.07387474823 0.205334782 0.1314600338) 1199 2350 1
(0.00174382741 0.03204514331 0.467082943 0.4991280863) 314 648 1
(0.07147051112 0.4642647444 0.1917181842 0.2725465602) 1109 2176 1
(0.6068786973 0.1965606513 0.01440093996 0.1821597114) 1114 2127 1
(0.2979501892 0.3510249054 0.0521854732 0.2988394322) 1108 2173 2
(0.7851421013 0.1074289494 0.05329805256 0.05413089679) 317 655 1
(0.6690667231 0.1654666384 0.162010428 0.003456210448) 1232 2359 1
(0.08253886707 0.4587305665 0.2048651796 0.2538653869) 258 534 2
(0.0577026403 0.4711486799 0.09931346665 0.3718352132) 1297 473 2
(0.3388123827 0.3305938087 0.06362200348 0.2669718052) 378 774 2
(0.5386863308 0.2306568346 0.1287752989 0.1018815357) 811 1609 2
(0.8343269675 0.02135010191 0.08283651624 0.06148641432) 1298 2518 1
(0.417437759 0.2532350383 0.2912811205 0.0380460822) 851 1685 1
(0.5341811977 0.06514217564 0.1677672255 0.2329094012) 1144 2186 2
(0.1113195514 0.4443402243 0.2916112824 0.1527289419) 1110 2177 2
(0.2116827028 0.3941586486 0.02228354803 0.3718751006) 226 468 2
(0.2594958648 0.3702520676 0.3495456369 0.02070643077) 1206 2308 1
(0.6354907727 0.05369065998 0.1822546136 0.1285639537) 1105 2165 1
(0.1729375734 0.00242301134 0.4111082019 0.4135312133) 1116 2131 2
(0.2850916874 0.3574541563 0.03147258744 0.3259815688) 1229 2353 1
(0.1271576275 0.4364211863 0.3552132435 0.08120794281) 1205 2306 1
(0.2413238222 0.1108842581 0.2684538308 0.3793380889) 1237 2427 1
(0.5217636692 0.2391181654 0.130007908 0.1091102574) 1077 2054 1
(0.1721168855 0.4139415572 0.2153029528 0.1986386045) 873 1711 1
(0.1243837389 0.279044099 0.4378081305 0.1587640316) 1136 2229 2
(0.001738913806 0.3760106202 0.4991305431 0.1231199229) 1169 2291 1
(0.2664625543 0.3667687229 0.2293142469 0.137454476) 1287 2508 2
(0.1069399976 0.379414066 0.06711593516 0.4465300012) 1225 2403 1
(0.2195725278 0.1307952882 0.2594184479 0.3902137361) 289 599 1
(0.2347617527 0.3826191237 0.1376780364 0.2449410873) 1238 2427 2
(0.07516813202 0.2856665997 0.1767493343 0.462415934) 1088 2134 1
(0.1363459442 0.02414873872 0.4318270279 0.4076782892) 1114 2186 2
(0.04495990019 0.4775200499 0.1143184116 0.3632016383) 1019 2649 2
(0.0789480227 0.02954863369 0.4605259886 0.430977355) 840 719 1
(0.2168982962 0.3763643638 0.3915508519 0.01518648806) 1027 2015 2
(0.2913899487 0.2034961267 0.1508088989 0.3543050256) 287 594 1
(0.4226608238 0.2886695881 0.2167978634 0.07187172476) 1234 2421 2
(0.1961318858 0.161823527 0.4019340571 0.2401105301) 1048 2053 1
(0.003976877462 0.4980115613 0.3977487037 0.1002628575) 1147 2192 1
(0.4290363549 0.1879893185 0.2854818226 0.09749250409) 1296 470 1
(0.4517487966 0.1095074374 0.2741256017 0.1646181643) 836 1660 2
(0.01060836408 0.07961131081 0.4150845072 0.494695818) 1266 2426 2
(0.03062487192 0.484687564 0.1029527613 0.3817348028) 855 1677 1
(0.6673197028 0.1564468423 0.009893306293 0.1663401486) 1113 2183 1
(0.8114368011 0.09428159943 0.03183504421 0.06244655521) 1232 2417 2
(0.6077701227 0.05136782329 0.1961149387 0.1447471154) 1027 2012 1
(0.01634188431 0.07245868858 0.4918290578 0.4193703693) 1027 2012 1
(0.7644051964 0.1177974018 0.08534493608 0.03245246571) 1140 2234 2
(0.2865013063 0.3260470652 0.03070228165 0.3567493469) 1230 2413 1
(0.4334850898 0.1229092527 0.2832574551 0.1603482023) 1169 2294 2
(0.6396059062 0.09664320012 0.0835538468 0.1801970469) 1140 2178 2
(0.9453352315 0.02286609619 0.02733238424 0.004466288049) 1170 2293 1
(0.7411487942 0.05401621645 0.1294256029 0.07540938644) 215 432 1
(0.3721793825 0.2427516901 0.07115861868 0.3139103087) 1078 2114 1
(0.3108773924 0.3445613038 0.2934057858 0.05115551805) 218 441 2
(0.2326180618 0.3790832532 0.3836909691 0.004607715897) 377 775 2
(0.3487485961 0.1800041592 0.325625702 0.1456215428) 1035 2030 2
(0.09545842852 0.09909986744 0.4522707857 0.3531709183) 433 884 1
(0.1104386595 0.227531032 0.2172496383 0.4447806703) 1050 2059 1
(0.8916481561 0.03659527168 0.01758065027 0.05417592195) 224 464 1
(0.1892054593 0.06207945145 0.4053972703 0.3433178189) 282 582 1
(0.4064792252 0.2967603874 0.1114934006 0.1852669868) 1147 2251 1
(0.01578151013 0.4921092449 0.4377834975 0.05432574743) 285 588 2
(0.3487806483 0.1996455372 0.3256096759 0.1259641387) 255 528 1
(0.7982814135 0.1008592933 0.05788772231 0.04297157096) 885 1752 2
(0.6256471643 0.1871764179 0.08780394103 0.09937247683) 1178 2309 2
(0.9867830484 0.00660847581 0.00270580542 0.003902670389) 1118 2193 2
(0.8004616858 0.0997691571 0.01524157289 0.08452758421) 854 1675 1
(0.4461081524 0.00113577521 0.2769459238 0.2758101486) 874 1729 1
(0.5951141867 0.2024429067 0.09087475141 0.1115681552) 843 1672 2
(0.2734553944 0.3632723028 0.3361404812 0.02713182161) 873 1730 1
(0.3802112506 0.3098943747 0.2983736418 0.01152073286) 287 595 1
(0.3779279939 0.1143202524 0.311036003 0.1967157506) 1059 2077 2
(0.8751955118 0.01352544626 0.06240224412 0.04887679786) 1113 2184 2
(0.6185203565 0.1907398218 0.09580766281 0.09493215895) 1233 2417 2
(0.06923862417 0.3583570555 0.1070236324 0.4653806879) 225 465 1
(0.2382534491 0.3808732754 0.1174754014 0.263397874) 855 1677 1
(0.03991526636 0.4800423668 0.4795711951 0.0004711717005) 1191 2334 2
(0.1960669196 0.4019665402 0.1255481093 0.2764184309) 832 1652 1
(0.3338890097 0.1963690277 0.3330554951 0.1366864674) 228 475 2
(0.4040304881 0.297984756 0.05224127292 0.245743483) 1135 2227 1
(0.8436082612 0.07819586942 0.0005974140984 0.07759845532) 1131 2219 1
(0.4312673371 0.2843663315 0.2329657027 0.05140062875) 1297 2517 2
(0.5464455001 0.2267772499 0.05123967511 0.1755375748) 1114 2186 1
(0.5957734748 0.2021132626 0.06082578282 0.1412874798) 438 896 2
(0.1518660979 0.424066951 0.1083434503 0.3157235008) 848 1682 2
(0.3665338383 0.1691351647 0.1475979161 0.3167330808) 343 647 2
(0.1855639004 0.4072180498 0.2992952969 0.1079227529) 1264 2480 2
(0.1287487217 0.4356256391 0.06010289203 0.3755227471) 1259 2470 2
(0.5988195628 0.03987797665 0.160712242 0.2005902186) 916 1811 1
(0.5274347902 0.05241398972 0.2362826049 0.1838686152) 1082 2123 2
(0.06805983457 0.4659700827 0.2208663587 0.245103724) 1235 2421 2
(0.2200327356 0.08330351032 0.3899836322 0.3066801219) 1297 2517 1
(0.3779815423 0.3110092289 0.2180020498 0.09300717908) 820 1628 2
(0.463764113 0.2616226764 0.006495267094 0.2681179435) 1186 2326 1
(0.1983423031 0.2958991047 0.4008288484 0.1049297438) 1204 2363 2
(0.00896346643 0.4955182668 0.02919664399 0.4663216228) 1104 2165 2
(0.2039542553 0.3980228723 0.1015254288 0.2964974436) 252 522 2
(0.4129021086 0.07512335036 0.2184255953 0.2935489457) 1140 2178 2
(0.3119444029 0.3440277985 0.05157433034 0.2924534682) 1085 2126 2
(0.1048189975 0.4475905013 0.0579641176 0.3896263837) 887 1754 2
(0.2866266866 0.3566866567 0.06366078025 0.2930258764) 1118 2193 2
(0.01412653139 0.4686297708 0.02430696353 0.4929367343) 1098 2153 1
(0.8862256963 0.05688715186 0.0440786997 0.01280845215) 227 471 2
(0.1238979145 0.4380510427 0.2093373668 0.228713676) 1054 2068 1
(0.05378059968 0.4731097002 0.2008855283 0.2722241718) 1057 2071 2
(0.3733291071 0.3133354465 0.05637247419 0.2569629723) 867 1719 1
(0.164119184 0.3711706869 0.417940408 0.0467697211) 840 1667 2
(0.8321286942 0.003991056912 0.079944596 0.08393565292) 1140 2236 1
(0.5413450467 0.2293274767 0.1863759413 0.04295153534) 863 1708 2
(0.5828000805 0.2085999598 0.05016689334 0.1584330664) 801 1592 2
(0.2491869998 0.3073482667 0.3754065001 0.0680582334) 875 1734 2
(0.1166903938 0.4416548031 0.2886848798 0.1529699233) 347 655 1
(0.2039951153 0.1490450449 0.3980024424 0.2489573975) 1142 2241 2
(0.1773808126 0.3304444811 0.4113095937 0.08086511265) 819 1625 1
(0.4512731654 0.2743634173 0.08079984412 0.1935635732) 1265 2424 1
(0.6652802353 0.1673598824 0.05123818418 0.1161216982) 1070 2096 2
(0.524780067 0.2376099665 0.1632752173 0.0743347492) 1178 2309 2
(0.3857530533 0.1906626537 0.3071234734 0.1164608197) 1132 2218 1
(0.6385205343 0.1807397328 0.04572011117 0.1350196217) 814 1617 2
(0.410254802 0.2100869529 0.0847856461 0.294872599) 219 449 1
(0.1398090838 0.4300954581 0.3110463053 0.1190491529) 1239 2431 1
(0.2951882851 0.07510805232 0.3524058574 0.2772978051) 316 653 2
(0.7077089504 0.01152118029 0.1461455248 0.1346243445) 1077 2110 1
(0.1553237404 0.4223381298 0.05013293329 0.3722051965) 229 478 2
(0.2782984609 0.3608507696 0.05208212494 0.3087686446) 1045 2049 2
(0.5487216384 0.2256391808 0.04104399766 0.1845951832) 1258 2410 1
(0.3014687206 0.158056718 0.1912089217 0.3492656397) 1283 2459 2
(0.1945490835 0.3271802468 0.4027254583 0.07554521141) 1207 2366 1
(0.4897369753 0.2551315124 0.2148423858 0.04028912652) 1113 2125 1
(0.07601160181 0.4619941991 0.1868607839 0.2751334152) 1293 2513 2
(0.4171434412 0.2914282794 0.09955231222 0.1918759672) 347 655 1
(0.5341927208 0.2329036396 0.1794522701 0.0534513695) 227 472 1
(0.4014573273 0.2992713364 0.08758784488 0.2116834915) 1229 2411 2
(0.2242983803 0.3878508099 0.2212035281 0.1666472817) 916 1809 2
(0.4918865506 0.237419624 0.01663710071 0.2540567247) 1194 2284 2
(0.02569472101 0.09263486976 0.4871526395 0.3945177697) 1235 2424 2
(0.2315470591 0.3842264704 0.06634502552 0.3178814449) 1175 2303 2
(0.4977352055 0.2082000108 0.2511323973 0.04293238646) 1196 2347 2
(0.1449862124 0.0006088873216 0.4275068938 0.4268980065) 1259 2471 2
(0.1403278288 0.4298360856 0.2442282428 0.1856078428) 1163 2279 2
(0.2590072147 0.3704963927 0.3638593279 0.00663706475) 1176 2305 2
(0.5371210911 0.005322710687 0.2314394544 0.2261167437) 1091 2137 1
(0.1015084193 0.08986606382 0.4492457904 0.3593797265) 1176 2308 2
(0.07263008141 0.4636849593 0.1274745987 0.3362103606) 885 1750 2
(0.05045944455 0.4747702777 0.3358959072 0.1388743705) 1037 2033 2
(0.3416351116 0.1494210029 0.1797614413 0.3291824442) 1195 2344 1
(0.8442266523 0.07788667384 0.01489471889 0.06299195495) 1162 2277 2
(0.4637146184 0.2681426908 0.1268279906 0.1413147002) 257 535 1
(0.2787325602 0.09622273703 0.3606337199 0.2644109829) 1205 2362 1
(0.3883009094 0.1686082963 0.137241249 0.3058495453) 1267 2486 1
(0.9355494602 0.03222526991 0.01202676145 0.02019850846) 1086 2130 2
(0.2509081092 0.3745459454 0.3334977193 0.04104822604) 1197 2348 2
(0.490897932 0.254551034 0.2076346164 0.04691641758) 317 655 1
(0.3941755043 0.3029122479 0.1317545276 0.1711577202) 1100 2099 1
(0.4559889235 0.01979433977 0.2720055383 0.2522111985) 1052 2061 1
(0.2106882884 0.3946558558 0.1446668847 0.2499889712) 1297 473 2
(0.7661812426 0.1169093787 0.05107899162 0.06583038707) 1142 2241 1
(0.03358590834 0.4832070458 0.1813733899 0.3018336559) 255 466 1
(0.4984989732 0.2507505134 0.01543727115 0.2353132422) 1093 2141 2
(0.2098920891 0.3950539555 0.1847233334 0.2103306221) 1259 2412 1
(0.3092873572 0.3453563214 0.1671432656 0.1782130559) 1203 2361 1
(0.4604274738 0.2697862631 0.0754728383 0.1943134248) 1167 2231 1
(0.7778381465 0.09658517634 0.1110809267 0.0144957504) 1109 2173 1
(0.1903207437 0.4048396281 0.1331932629 0.2716463652) 1168 2289 2
(0.1831895536 0.4084052232 0.2146811581 0.1937240651) 1235 2424 1
(0.5719491172 0.2140254414 0.1639258186 0.05009962283) 221 455 2
(0.03543039577 0.4822848021 0.3271677932 0.1551170089) 435 890 2
(0.5304352443 0.2347823779 0.151250322 0.0835320559) 857 1681 1
(0.4622190444 0.119966444 0.1489240338 0.2688904778) 1205 2364 1
(0.2908215786 0.1552353791 0.3545892107 0.1993538316) 1054 2068 2
(0.6374500007 0.1655876876 0.1812749997 0.01568731206) 1298 2518 1
(0.06171724921 0.4691413754 0.409460836 0.05968053938) 876 1733 2
(0.3060610434 0.1904242387 0.3469694783 0.1565452396) 432 885 2
(0.5201888753 0.1609785307 0.2399055623 0.07892703165) 807 1605 2
(0.05582794395 0.472086028 0.3748113164 0.09727471159) 1252 2454 2
(0.341848562 0.3225993495 0.329075719 0.006476369457) 831 1650 2
(0.2385079972 0.01733706116 0.3807460014 0.3634089402) 1147 2251 2
(0.2915241353 0.1082685963 0.245969336 0.3542379324) 1224 2401 1
(0.1287322903 0.2150582452 0.4356338548 0.2205756097) 898 1778 2
(0.3871311419 0.199621953 0.1068124761 0.3064344291) 1015 2645 1
(0.1781865831 0.4109067085 0.2446970373 0.1662096712) 858 1702 1
(0.7962194227 0.1018902887 0.02041551156 0.08147477709) 1084 2124 2
(0.5254515112 0.2372742444 0.06100587504 0.1762683694) 1262 2476 2
(0.7552102695 0.1208391088 0.001555756444 0.1223948652) 1257 2466 1
(0.2604368064 0.3368880045 0.3697815968 0.03289359224) 903 1787 2
(0.400003926 0.2796648009 0.02033323613 0.299998037) 1136 2228 1
(0.6016331055 0.1991834472 0.1163952135 0.08278823372) 284 589 1
(0.7152241398 0.1423879301 0.09816835396 0.04421957616) 1297 2487 1
(0.427828133 0.1801965728 0.1058893607 0.2860859335) 373 766 1
(0.3414561867 0.3292719067 0.2494372794 0.07983462723) 1130 2216 2
(0.01278372161 0.4936081392 0.3884974428 0.1051106964) 1192 2338 2
(0.4509576609 0.2525318229 0.2745211695 0.02198934666) 1239 2431 2
(0.6183518218 0.1908240891 0.1412981456 0.04952594346) 465 951 1
(0.6006660525 0.1996669737 0.04086078776 0.158806186) 1168 2291 2
(0.2121752068 0.1724749916 0.3939123966 0.221437405) 344 706 1
(0.01774570137 0.4911271493 0.1342798207 0.3568473286) 222 457 1
(0.1717844839 0.4141077581 0.109682631 0.304425127) 1079 2114 2
(0.7240860104 0.09751335425 0.04044364056 0.1379569948) 830 1647 1
(0.7805499125 0.1097250438 0.00546933702 0.1042557067) 1074 2107 1
(0.05660495124 0.4716975244 0.1889953782 0.2827021462) 1295 2483 1
(0.02949799234 0.07497724492 0.4852510038 0.4102737589) 1258 2469 2
(0.6481836871 0.05369067037 0.1759081565 0.1222174861) 1293 461 1
(0.6181935245 0.1909032377 0.01139702996 0.1795062078) 1296 2516 2
(0.1350047533 0.4324976233 0.2684141236 0.1640834998) 1167 2290 1
(0.05010715163 0.4749464242 0.3156717692 0.159274655) 1233 2361 1
(0.8987962445 0.0110968395 0.03950503824 0.05060187774) 890 1743 2
(0.4527042567 0.1770977066 0.2736478716 0.09655016501) 854 1691 1
(0.2151976025 0.2656855403 0.1267156584 0.3924011988) 1044 1989 2
(0.2454030796 0.2131883704 0.1641100898 0.3772984602) 1069 2096 1
(0.08424947402 0.457875263 0.253595037 0.204280226) 339 639 1
(0.05046150152 0.332186882 0.4747692492 0.1425823673) 1170 2293 1
(0.2805392334 0.08317655133 0.276553832 0.3597303833) 1142 2240 1
(0.4603306006 0.111781226 0.2698346997 0.1580534736) 1044 2048 2
(0.1839434772 0.4067284143 0.4080282614 0.001299847151) 1196 2347 2
(0.5257448065 0.2371275968 0.09604916237 0.1410784344) 1202 2359 1
(0.2903923353 0.05474498954 0.3548038324 0.3000588428) 1235 2421 1
(0.6282111659 0.1471704418 0.03872397523 0.185894417) 1139 2234 1
(0.6174207444 0.01022448863 0.1912896278 0.1810651392) 1085 2129 2
(0.2877777082 0.3561111459 0.03587904187 0.320232104) 1146 2249 1
(0.5795481806 0.2102259097 0.1010664569 0.1091594528) 250 451 1
(0.2576601192 0.302472936 0.3711699404 0.06869700444) 804 1596 1
(0.2003126606 0.3735260359 0.3998436697 0.02631763382) 249 516 1
(0.02852201669 0.4857389917 0.07749901641 0.4082399752) 1238 2427 2
(0.7633289139 0.1010631359 0.01727240713 0.1183355431) 1201 2298 2
(0.01538645342 0.1688658965 0.4923067733 0.3234408768) 313 644 1
(0.7132327404 0.08979136899 0.1433836298 0.0535922608) 1200 2352 1
(0.5728474728 0.2135762636 0.09977606874 0.1138001949) 1198 2348 2
(0.426647643 0.1634401872 0.2866761785 0.1232359912) 1282 428 1
(0.1735394527 0.4132302736 0.1536487055 0.2595815682) 882 1746 2
(0.2746319771 0.3241698161 0.03851419535 0.3626840114) 1233 2361 2
(0.35467419 0.322662905 0.3080525424 0.01461036265) 1289 2471 1
(0.4567610105 0.1049053755 0.2716194947 0.1667141192) 259 538 2
(0.5201771502 0.2399114249 0.2122942917 0.02761713323) 318 654 2
(0.05529998313 0.05438174065 0.4179682678 0.4723500084) 284 588 1
(0.7423401408 0.1288299296 0.007339064173 0.1214908654) 1175 2303 2
(0.3090911516 0.0981649142 0.24728951 0.3454544242) 377 715 2
(0.5624261174 0.2187869413 0.1155856165 0.1032013248) 1128 2154 1
(0.4421351641 0.1083114933 0.1706209246 0.2789324179) 408 836 1
(0.2690649426 0.01839410836 0.3654675287 0.3470734203) 818 1626 2
(0.4293410882 0.2207321472 0.2853294559 0.0645973087) 854 1691 1
(0.04477106194 0.31485268 0.162761789 0.477614469) 1265 2424 2
(0.4437820149 0.2020918749 0.2781089926 0.07601711767) 1289 449 1
(0.04679592991 0.476602035 0.09614147906 0.380460556) 820 1629 1
(0.2327287634 0.264123043 0.3836356183 0.1195125753) 837 1659 1
(0.1485571129 0.347690688 0.4257214436 0.07803075554) 1289 449 1
(0.5591755208 0.2204122396 0.01497055293 0.2054416867) 406 773 1
(0.5721682613 0.1555476063 0.2139158693 0.05836826303) 1286 440 1
(0.1273111131 0.2034215459 0.4363444435 0.2329228976) 1220 2394 2
(0.262631972 0.3408144599 0.02786955406 0.368684014) 1102 2161 1
(0.3923196569 0.2645223219 0.3038401716 0.03931784967) 1291 455 1
(0.1877586744 0.3101731101 0.4061206628 0.0959475527) 222 453 1
(0.3399406212 0.06386457192 0.3300296894 0.2661651175) 825 1639 2
(0.1713437279 0.3252235398 0.08910459622 0.414328136) 1196 2346 1
(0.3059764167 0.1595125985 0.1874991932 0.3470117917) 1164 2225 2
(0.3929709877 0.3035145062 0.06440155259 0.2391129536) 1135 2168 1
(0.2272163197 0.3863918402 0.1788416991 0.207550141) 1136 2170 1
(0.2488126149 0.1803962038 0.1951974888 0.3755936926) 872 1709 2
(0.1166514294 0.209725546 0.4416742853 0.2319487393) 1199 2350 1
(0.06945375955 0.07987516167 0.3853979586 0.4652731202) 1105 2167 1
(0.1620955831 0.4189522084 0.2042076175 0.214744591) 318 657 1
(0.1546298611 0.4226850694 0.3480578929 0.07462717656) 1021 2000 2
(0.1542975021 0.4228512489 0.1767253666 0.2461258823) 1262 2476 2
(0.09216816029 0.4539159199 0.1317244354 0.3221914845) 1085 2070 1
(0.2508215815 0.2492067682 0.1253824411 0.3745892093) 877 1719 2
(0.5000452379 0.2499773811 0.1895819557 0.0603954254) 1235 2365 1
(0.2449327061 0.1228650328 0.2546686141 0.3775336469) 891 1745 2
(0.1272831552 0.3192492981 0.1171091242 0.4363584224) 1160 2275 1
(0.1339352941 0.4330323529 0.3501640194 0.08286833349) 867 1718 2
(0.1630345078 0.2902577923 0.4184827461 0.1282249538) 1143 2243 2
(0.1886591713 0.4056704144 0.1197428391 0.2859275752) 872 1725 2
(0.7891376695 0.1054311652 0.07556560796 0.02986555728) 1189 2333 1
(0.5151626543 0.2424186728 0.1703317909 0.07208688195) 315 651 1
(0.3989266342 0.3005366829 0.07197043997 0.2285662429) 1126 2209 1
(0.3134429409 0.3432785296 0.3088772461 0.0344012835) 1171 2295 2
(0.5321928263 0.2188762921 0.2339035869 0.01502729477) 1173 2302 2
(0.8374478122 0.08127609391 0.008123617913 0.073152476) 318 656 2
(0.7941782674 0.009101953062 0.09380891322 0.1029108663) 1178 2253 2
(0.0876570257 0.4561714872 0.02491158956 0.4312598976) 1117 2189 2
(0.5028821665 0.1025317995 0.2485589167 0.1460271172) 1237 2428 2
(0.8116006423 0.03920538541 0.05499429345 0.09419967886) 1298 2519 1
(0.4060988628 0.2969505686 0.01045716177 0.2864934068) 409 839 2
(0.8461600716 0.07691996422 0.02939253653 0.04752742769) 1174 2303 2
(0.5706353783 0.2146823108 0.1232949756 0.0913873353) 1266 2426 1
(0.7026670539 0.09071200138 0.1486664731 0.05795447167) 1146 2246 1
(0.2714754711 0.3257435394 0.3642622644 0.03851872508) 319 658 2
(0.500822109 0.2495889455 0.02665277846 0.222936167) 1163 2281 2
(0.5272194196 0.2363902902 0.02026309997 0.2161271902) 1291 455 2
(0.3717894487 0.3141052756 0.05909707629 0.2550081994) 259 536 2
(0.4308852939 0.2053790676 0.2845573531 0.07917828543) 1231 2416 2
(0.07859425974 0.4607028701 0.343893891 0.1168089792) 225 466 1
(0.07737663434 0.1402316307 0.3210800521 0.4613116828) 1155 2207 2
(0.1453402262 0.03003337322 0.4273298869 0.3972965137) 225 466 2
(0.3987685694 0.3006157153 0.2940518987 0.006563816644) 1289 2509 2
(0.4767623261 0.13269873 0.1289201069 0.2616188369) 1100 2157 1
(0.4526854643 0.2213527785 0.05230448938 0.2736572679) 244 508 1
(0.3373380407 0.1649272434 0.1664037363 0.3313309797) 1232 2359 2
(0.5615432325 0.2192283838 0.004623122614 0.2146052611) 1176 2307 2
(0.625573427 0.1872132865 0.05838168755 0.128831599) 1235 2421 2
(0.1016031664 0.4491984168 0.1883195384 0.2608788785) 1143 2184 1
(0.8525540297 0.006030054625 0.06769293052 0.07372298515) 251 522 1
(0.2510195687 0.2119396395 0.1625505761 0.3744902156) 1197 2290 2
(0.1424208455 0.4287895772 0.0003513296654 0.4284382476) 1134 2225 1
(0.05324967154 0.4733751642 0.09507804716 0.3782971171) 228 476 2
(0.4485201366 0.2757399317 0.1092079419 0.1665319898) 1041 2041 2
(0.4581794762 0.04713589342 0.2709102619 0.2237743685) 831 1650 2
(0.09944865008 0.450275675 0.0455678058 0.4047078692) 339 639 1
(0.113075347 0.4434623265 0.04647919633 0.3969831302) 1170 2295 2
(0.56197458 0.1841569583 0.21901271 0.03485575172) 215 436 2
(0.6108981313 0.1945509343 0.1439032118 0.05064772253) 1266 2485 1
(0.8257976719 0.02495344884 0.08710116407 0.06214771523) 1166 2285 1
(0.462952069 0.2685239655 0.1630867262 0.1054372393) 1166 2288 1
(0.6987955214 0.1506022393 0.03971494654 0.1108872928) 860 1705 1
(0.7080283338 0.1459858331 0.02780146724 0.1181843659) 1087 2132 2
(0.7452672133 0.1273663934 0.04961691638 0.07774947699) 288 537 1
(0.3139262844 0.3430368578 0.3318879122 0.01114894565) 1230 2411 2
(0.7088502817 0.05360625218 0.1455748592 0.09196860698) 1201 2354 1
(0.1096646543 0.1984902675 0.4451676728 0.2466774053) 1262 2477 2
(0.1446505983 0.1682430197 0.2594316811 0.4276747009) 1137 2230 1
(0.5926995487 0.2036502256 0.04046232618 0.1631878994) 831 1649 2
(0.07259005828 0.02031274835 0.4637049709 0.4433922225) 1288 446 1
(0.5082239342 0.2275234399 0.2458880329 0.01836459298) 1112 2182 2
(0.5506193902 0.2246903049 0.1971773152 0.02751298966) 1178 2312 1
(0.3406328683 0.2899712374 0.03971232846 0.3296835658) 314 589 2
(0.7186307951 0.1406846025 0.02729207201 0.1133925305) 1043 2046 1
(0.4472711016 0.2763644492 0.003369293525 0.2729951557) 928 1832 2
(0.8127310912 0.09363445441 0.07751150474 0.01612294966) 853 1692 1
(0.008638505226 0.4956807474 0.379024916 0.1166558314) 243 504 2
(0.410288413 0.1499817016 0.144874092 0.2948557935) 1195 2344 1
(0.327309665 0.3363451675 0.08943532281 0.2469098447) 219 444 2
(0.2028853587 0.3985573206 0.05192240202 0.3466349186) 1291 455 2
(0.5190196649 0.2404901675 0.2253681993 0.01512196825) 1234 2419 2
(0.6116656448 0.1941671776 0.03537883692 0.1587883407) 1223 2399 2
(0.2418667679 0.379066616 0.2794109079 0.09965570811) 315 591 1
(0.8316714727 0.08416426365 0.07817043484 0.005993828808) 1072 2100 2
(0.4809655311 0.2595172345 0.2235909098 0.03592632463) 1263 2476 2
(0.08117226779 0.4594138661 0.1661600411 0.293253825) 1174 2304 1
(0.002209497344 0.4988952513 0.1587255655 0.3401696858) 888 1756 2
(0.227124235 0.2775769577 0.1088609248 0.3864378825) 1205 2306 2
(0.4591473466 0.2628694616 0.007556865136 0.2704263267) 559 1078 2
(0.5554957636 0.2222521182 0.04171361758 0.1805385006) 1298 2518 2
(0.2570961054 0.2190637068 0.3714519473 0.1523882405) 1159 2271 1
(0.2434406921 0.3782796539 0.001709027831 0.3765706261) 1198 2351 1
(0.4370905883 0.2124335065 0.06902119933 0.2814547058) 285 531 2
(0.0742333188 0.4628833406 0.1465597759 0.3163235647) 1263 2479 1
(0.6232642628 0.01079855952 0.1883678686 0.1775693091) 227 468 1
(0.07606436708 0.4619678165 0.06521087397 0.3967569425) 1112 2181 2
(0.2165957707 0.3917021146 0.3303790612 0.06132305348) 284 586 2
(0.4233634354 0.2883182823 0.008660350907 0.2796579314) 1055 2069 2
(0.8657714082 0.01026198596 0.05685230995 0.06711429591) 254 463 2
(0.2519995826 0.08484663983 0.3740002087 0.2891535689) 1086 2128 1
(0.3536442028 0.1792019364 0.3231778986 0.1439759622) 811 1609 1
(0.1943574219 0.4028212891 0.2214668006 0.1813544884) 1142 2182 1
(0.4068436433 0.2965781784 0.1983606808 0.09821749752) 821 1630 2
(0.5283707135 0.1725687381 0.2358146432 0.06324590515) 1036 2032 2
(0.1646938425 0.4176530788 0.3795191492 0.03813392952) 1109 2176 1
(0.4549941439 0.140221407 0.2725029281 0.132281521) 1288 2508 1
(0.1457048206 0.2010200998 0.4271475897 0.2261274899) 825 1636 1
(0.9793370255 0.001118579208 0.009212908058 0.01033148727) 252 524 1
(0.3256153978 0.3371923011 0.079401147 0.2577911541) 1196 2346 2
(0.792136872 0.103931564 0.09068610841 0.0132454556) 1199 2350 2
(0.6993225268 0.1503387366 0.03602366391 0.1143150727) 1264 2422 1
(0.002787270273 0.4986063649 0.4557170841 0.04288928076) 223 460 1
(0.6399760693 0.1800119654 0.1107444725 0.06926749287) 1138 2230 2
(0.0653584278 0.4673207861 0.4078666461 0.05945413996) 871 1726 1
(0.5758616712 0.1132194751 0.09884968932 0.2120691644) 376 772 1
(0.8897409214 0.0551295393 0.02691546367 0.02821407563) 1292 2477 1
(0.5609496512 0.2195251744 0.2106141586 0.008911015784) 1228 2409 2
(0.4000683615 0.1743511261 0.2999658192 0.1256146931) 287 592 1
(0.3048198687 0.3475900657 0.09937318714 0.2482168785) 1265 2424 1
(0.2693413903 0.3609927551 0.004336549704 0.3653293048) 220 450 1
(0.2010516758 0.1105651407 0.2889090214 0.3994741621) 1235 2423 1
(0.2750872936 0.3624563532 0.2423156207 0.1201407325) 250 520 2
(0.8829473469 0.05852632654 0.01566201965 0.04286430689) 319 598 1
(0.1626409546 0.4186795227 0.4132975338 0.005381988866) 1149 2195 1
(0.07348219828 0.4632589009 0.2911262231 0.1721326777) 225 466 1
(0.7643320501 0.1003490205 0.01748495445 0.1178339749) 333 686 1
(0.2154257162 0.3922871419 0.3783265373 0.01396060457) 1263 2476 2
(0.751583393 0.1242083035 0.1235795871 0.0006287164303) 1231 2415 2
(0.3529195565 0.2972534603 0.02628676148 0.3235402217) 221 453 1
(0.3605344297 0.1729121588 0.1468206263 0.3197327852) 1044 1989 2
(0.1226632069 0.166506141 0.4386683965 0.2721622555) 223 460 2
(0.5714841283 0.2142579358 0.03390873565 0.1803492002) 1104 2163 2
(0.4238820104 0.2880589948 0.09869378872 0.1893652061) 225 467 2
(0.03103704358 0.4263701335 0.4844814782 0.05811134472) 803 1594 1
(0.4520835015 0.1135983364 0.2739582493 0.1603599129) 1244 2441 2
(0.09083404467 0.1045241856 0.4545829777 0.3500587921) 344 709 2
(0.1533621487 0.2555613038 0.4233189257 0.1677576219) 865 1712 1
(0.4658474152 0.02503630397 0.2670762924 0.2420399884) 1292 458 1
(0.2795731458 0.3181681231 0.04204530398 0.3602134271) 831 1649 1
(0.1219182946 0.4390408527 0.1005272995 0.3385135532) 214 434 2
(0.2830519339 0.3584740331 0.235085176 0.123388857) 1292 2477 1
(0.04159503816 0.4792024809 0.3403551814 0.1388472995) 1163 2281 2
(0.1070262225 0.1773728421 0.4464868888 0.2691140466) 1162 2280 2
(0.5990258545 0.2004870728 0.1910225373 0.009464535456) 439 899 2
(0.194439323 0.1110253754 0.4027803385 0.2917549631) 1298 476 1
(0.1334871658 0.2571289352 0.4332564171 0.1761274819) 1082 2123 2
(0.8531132941 0.06649175995 0.00695159302 0.07344335297) 1199 2352 1
(0.002487870918 0.4987560645 0.1343047345 0.36445133) 1294 2514 2
(0.3730990643 0.3134504678 0.3054150369 0.008035430939) 836 1659 2
(0.526294526 0.1674571926 0.06939554439 0.236852737) 821 1630 1
(0.20599034 0.1485345709 0.2484702591 0.39700483) 1238 2429 1
(0.1828979974 0.3896454779 0.4085510013 0.01890552335) 821 1631 2
(0.5557531185 0.1517548402 0.0703686006 0.2221234408) 221 455 1
(0.4815063951 0.04649951647 0.212747286 0.2592468024) 255 466 2
(0.5247148129 0.2030652695 0.03457732407 0.2376425935) 820 1628 1
(0.5251987134 0.2374006433 0.09716387737 0.1402367659) 850 779 2
(0.6466952236 0.1334962628 0.04315612535 0.1766523882) 928 1834 1
(0.006752087458 0.009006530315 0.4966239563 0.487617426) 1260 2473 2
(0.6974382782 0.1512808609 0.1115949926 0.03968586832) 496 1013 1
(0.05795456023 0.1623829398 0.3086397801 0.4710227199) 270 501 2
(0.266724647 0.3666376765 0.2183214504 0.1483162261) 1079 2058 1
(0.1305706526 0.4239895035 0.01072517025 0.4347146737) 344 649 2
(0.03529620234 0.4823518988 0.06063538672 0.4217165121) 1296 2516 2
(0.2152100925 0.3498801971 0.3923949537 0.04251475668) 1168 2292 2
(0.8363652221 0.02241556181 0.08181738895 0.05940182713) 904 1789 2
(0.1666957605 0.4166521197 0.274543467 0.1421086528) 829 1644 2
(0.1800365537 0.08709319838 0.3228885248 0.4099817232) 1096 2149 1
(0.5541787744 0.2229106128 0.1238378042 0.09907280861) 1296 2517 2
(0.08390605128 0.1759248396 0.2821221348 0.4580469744) 1087 2132 1
(0.3700376814 0.2397003813 0.3149811593 0.07528077801) 377 775 2
(0.08314444606 0.458427777 0.1052024192 0.3532253578) 1055 2011 1
(0.5466123654 0.2266938173 0.2126080654 0.01408575195) 1291 455 2
(0.1460106942 0.1804663084 0.2465283445 0.4269946529) 1225 2345 2
(0.2324621422 0.3205275813 0.3837689289 0.06324134765) 377 775 2
(0.0908189749 0.2798272251 0.1747632874 0.4545905126) 406 773 2
(0.3411332683 0.1728520224 0.1565813434 0.3294333659) 1267 2486 1
(0.5364231799 0.23178841 0.07549740096 0.1562910091) 1196 2344 2
(0.3200175451 0.3399912275 0.07839303802 0.2615981895) 1106 2167 2
(0.09106196246 0.4544690188 0.4510924253 0.003376593442) 225 466 1
(0.4156518233 0.2921740883 0.2696577246 0.0225163637) 1100 2155 2
(0.4399205136 0.08505003184 0.1949897113 0.2800397432) 1164 2225 2
(0.06411932526 0.3913721966 0.07656814077 0.4679403374) 346 653 2
(0.02090528567 0.4895473572 0.1693097382 0.320237619) 1226 2347 1
(0.04676347629 0.4766182619 0.298470863 0.1781473989) 406 832 2
(0.03887479147 0.4805626043 0.2270587268 0.2535038775) 842 1670 2
(0.09844862877 0.4507756856 0.332547225 0.1182284606) 1097 2151 2
(0.3877953018 0.3061023491 0.1735148596 0.1325874895) 1102 2162 1
(0.6947632768 0.1526183616 0.1441665159 0.008451845766) 256 530 2
(0.08809010873 0.4559549456 0.1332973251 0.3226576206) 1049 2058 1