/*--------------------------------*- C++ -*----------------------------------*\
| =========                 |                                                 |
| \\      /  F ield         | OpenFOAM: The Open Source CFD Toolbox           |
|  \\    /   O peration     | Version:  v1912                                 |
|   \\  /    A nd           | Website:  www.openfoam.com                      |
|    \\/     M anipulation  |                                                 |
\*---------------------------------------------------------------------------*/
FoamFile
{
    version     2.0;
    format      ascii;
    class       vectorField;
    location    "0.00027/lagrangian/dsmc";
    object      U;
}
// * * * * * * * * * * * * * * * * * * * * * * * * * * * * * * * * * * * * * //


13032
(
(-85.01269757 174.9352145 489.8755431)
(495.5968049 -124.1964687 -744.5992902)
(1054.382537 -106.0307037 -220.05957)
(301.3314579 172.0348444 -142.7949463)
(407.0750474 227.810134 185.8363432)
(31.97808298 850.3020133 -110.8560467)
(140.0719485 -11.08830667 90.2276486)
(419.2540186 282.1897282 485.0119501)
(365.9638482 -100.8854651 451.1705164)
(-61.27958493 75.37408018 -97.17671027)
(1136.986271 140.3331112 -124.3594663)
(349.0039173 83.19915118 -57.70552884)
(151.6594716 -308.7533179 -59.51009753)
(471.1442375 389.9832495 103.5897606)
(-398.6181216 968.8828232 36.79006666)
(265.9374227 598.9839382 -1070.63804)
(436.5881358 -127.2155375 -205.8008916)
(45.71472728 807.1926939 -411.5611951)
(-304.6322517 500.7450919 -678.8205013)
(-280.2741228 -86.27627807 -781.9553167)
(112.2812756 455.546437 1338.536799)
(-94.46668366 388.0512375 -183.2465376)
(493.2327981 393.4946982 593.8540145)
(-557.2451256 -16.72353783 -306.2786822)
(707.8987933 69.2958566 880.2590361)
(466.4243151 389.7141793 -322.4548197)
(226.0904738 202.2371038 246.1820538)
(781.8134573 592.0053049 555.7484302)
(-733.2057926 -311.9369529 -364.3746219)
(839.0763638 432.1196869 -922.2854839)
(-591.7624482 341.5054576 -159.7927887)
(-8.442467275 -579.7811212 167.0578761)
(-492.718508 467.5694215 -133.8264458)
(289.3388179 -271.5590324 236.6369552)
(885.1811616 728.888886 49.95798627)
(373.5417151 -467.8718008 -294.5762379)
(1199.334133 402.1955779 -564.8289603)
(171.8277131 -344.21565 16.31865359)
(-98.64541437 129.6506431 -452.053215)
(-35.17371174 524.2259164 -657.2278739)
(577.4438262 253.8119138 1025.097613)
(1355.245995 -226.0510631 -367.0857087)
(-257.1416181 1096.757421 608.4058725)
(384.7729873 490.792554 -4.150167946)
(-456.2941177 488.9736312 61.10436561)
(-91.83688602 734.9262327 408.291234)
(-1142.41181 -139.0300329 349.7475471)
(-1427.143656 -601.726633 521.0028758)
(-141.0504762 692.9096743 158.2077525)
(-550.1647263 228.1350273 -53.56367346)
(9.880761386 164.1578257 278.8468122)
(-243.9395605 554.0258088 77.95656794)
(428.0246558 539.9792679 246.9202215)
(-437.3396293 1093.630957 589.1187584)
(17.69723053 338.7684978 -269.1153765)
(11.79962242 327.0234868 -21.56621997)
(627.4819463 1247.586987 -422.0279021)
(-346.9872184 235.8286093 -506.6552661)
(312.4225838 418.3893936 447.4159434)
(-468.5310016 928.6741974 142.2757296)
(59.1036188 386.2614251 288.1960616)
(448.301958 -177.6838542 405.2078325)
(-811.3007679 -42.66695763 398.8472859)
(759.6123431 93.43147508 320.4103802)
(1037.879012 987.4051733 235.2833934)
(1157.612055 381.4115471 405.4385741)
(-829.3292905 133.3022311 -312.6004168)
(-586.9034638 -80.59364619 -11.97878876)
(615.5089326 619.3912211 -115.6046006)
(567.7771871 -272.632431 336.4356631)
(-175.7079957 -118.7718374 -24.81895364)
(853.8008351 536.7188949 -190.1806549)
(588.2358647 138.288872 246.2609611)
(-41.40415206 -305.7776048 -221.5818278)
(378.3900959 334.4197571 -364.5697734)
(247.7110603 -55.35283768 -20.61664028)
(-297.0992292 -726.7115351 74.73837688)
(913.4236251 261.7281751 -1482.54163)
(299.9271638 590.4049101 387.25768)
(-430.8998065 -427.9716981 114.1902969)
(643.0016448 310.1170477 -480.588539)
(-401.5432315 191.5685148 -703.5662351)
(-107.6797898 -69.0308953 1136.468855)
(-242.6458707 65.3776126 -765.2407042)
(-116.5401964 869.4404684 200.4068303)
(965.2987927 777.7464222 -76.14032087)
(930.1877124 437.0506398 514.3535558)
(491.9899154 417.8948725 657.3585826)
(-284.2139744 2.511103009 -207.0865175)
(257.5437878 -573.3170608 -999.0676056)
(-263.0129217 679.9798487 783.0246224)
(591.9515009 212.9697683 192.9656898)
(265.7439811 -168.2757853 255.3421198)
(378.0410369 -260.3577069 69.08619167)
(267.9149482 -591.0863543 -386.0347297)
(-264.0606984 368.0005035 45.79963841)
(-187.8302781 -288.9596135 108.9340771)
(-125.1365054 -55.13390597 -398.7579261)
(-20.01991086 1039.327627 -290.4072562)
(368.8151487 256.3588447 -849.762863)
(-445.9935767 814.5814416 567.7581984)
(753.2248028 60.44092239 1075.146142)
(576.6963427 907.0836081 -801.9008966)
(48.56572508 7.586199478 307.9404667)
(345.3564071 -264.6966591 -11.16113508)
(42.70428893 -244.1533222 1020.005429)
(-431.5443348 170.0283307 139.3214755)
(1260.779528 240.74508 -943.9062806)
(-530.9209502 136.4509082 80.33944778)
(162.0338171 -132.4828738 238.5624399)
(350.5840269 524.9559697 -99.36306264)
(378.4686039 -175.5692434 253.4805381)
(611.2866277 296.6136199 -741.1723758)
(1323.630076 452.098954 -79.49464223)
(183.8776843 -388.8711548 -51.23091954)
(-137.4125908 428.9032849 -305.7334307)
(184.4793225 256.1841969 51.55057932)
(-74.49978625 485.0111966 -232.6985489)
(-161.8599685 643.594006 -60.3714034)
(82.13642984 148.5729742 -190.1631367)
(965.6757833 563.0379865 358.8078666)
(-47.76970766 361.0437425 -54.74403526)
(249.7104118 471.6263635 130.1341313)
(362.7175758 1237.674132 177.1112027)
(311.2680554 -400.5499394 -69.31683757)
(142.2493649 676.6462403 -233.481968)
(-428.8230882 -344.5389802 141.2781722)
(1314.814451 363.0567626 1263.86178)
(290.895601 2.356073298 -298.6255065)
(127.9989464 -148.8100874 -190.7316538)
(83.28806339 671.3632255 570.8395228)
(948.5328933 -154.6128491 -157.5596694)
(559.4969384 534.5370208 -150.9140327)
(677.7206595 651.8461161 379.4796997)
(-318.4293894 35.32148336 -438.963994)
(1452.035566 1271.5559 -80.54405273)
(388.4349414 -127.4886234 -265.0531073)
(1003.558264 -210.6814141 1237.018408)
(-763.4459298 64.66690121 298.0167912)
(240.8663935 193.4869324 -495.4452845)
(393.4633548 129.6107133 653.5074314)
(-162.6635398 -1405.064223 -488.8826427)
(454.1014984 -706.2532729 234.6669551)
(13.80733122 -171.4043218 -84.3168676)
(894.6508981 -279.5870529 464.4515902)
(1015.003045 681.963665 -123.3274063)
(-174.7276863 -846.7201874 -525.9862186)
(-230.5971021 -29.40700199 -267.6233295)
(-494.8274253 -834.8421606 193.5229304)
(526.26677 -373.6047493 -330.3337327)
(-540.0313276 2.603799278 201.5527525)
(369.5727387 -207.8998475 -308.5723113)
(429.1055133 1182.301605 -304.352292)
(-149.8211165 773.6284407 -142.0004252)
(1072.821465 -364.5313625 147.9521052)
(230.7163527 18.04665966 322.4538486)
(417.4000315 74.16468252 46.43533508)
(688.0806841 135.9276798 340.6704821)
(-2.649537681 -348.4994463 -236.2599828)
(32.54216617 -409.4411713 103.4587505)
(-32.42551946 48.91070538 176.248059)
(-209.6670087 692.004122 -759.1039436)
(515.610967 -18.98453734 336.1288693)
(177.2291436 -161.3513928 382.5350411)
(819.4694609 231.3520937 198.480873)
(-125.184928 -423.4436554 -922.2944946)
(85.53345779 -236.4205376 -323.7493063)
(-280.2822526 467.3293904 660.4970168)
(1098.035783 247.8011052 -260.6769083)
(-94.87735812 360.6692707 39.25333699)
(315.1933758 -42.9775573 -725.8619471)
(-380.6734491 531.990894 -252.7283685)
(662.73729 694.9478485 -768.856752)
(1686.12717 904.9064446 -59.12993683)
(1498.645296 651.3399022 -187.8865859)
(-139.3825054 108.5729535 -126.8526575)
(307.55753 -218.9920336 1231.655374)
(24.73551612 -487.5310112 -172.1501761)
(445.1500967 -310.4242808 -403.9949965)
(-69.40940098 29.40407396 16.87997897)
(1239.176453 569.3991628 -88.83912502)
(-310.8322516 -18.76624663 -408.6364241)
(798.021697 260.6149692 -267.6032509)
(589.1789394 -553.8850484 -302.7289566)
(756.2257161 571.7916242 218.826051)
(-731.9138489 -245.0842782 -32.03500329)
(657.2977159 522.0373616 492.5939795)
(388.0281814 -186.9520522 -99.3321153)
(341.1295653 -353.3854626 786.1764027)
(591.4381165 420.2886328 459.8724736)
(609.1937948 791.2266434 -212.2091098)
(473.5755454 114.1239729 -232.3553619)
(-54.59668207 -440.3993708 -559.9510092)
(284.8378665 -341.3618075 447.0644682)
(1452.867826 46.43476788 507.3545556)
(-313.8769995 248.344671 166.5211533)
(840.2205589 686.072333 -695.7749636)
(25.25234699 267.5100625 -544.1710002)
(-552.5637484 -277.3010789 143.9167563)
(-371.2149959 -375.9148724 -167.2649048)
(395.1535538 -248.5906693 -42.97766623)
(195.3405951 347.4779107 -47.97944648)
(68.73102573 343.453426 143.858302)
(-167.781537 148.6895308 664.9403443)
(489.9328419 498.0411588 714.9928472)
(191.1055654 290.0472117 -249.051021)
(72.79028627 -178.2189653 102.1268674)
(637.455635 289.0754783 -218.7591367)
(1107.81664 529.026943 630.9460129)
(-232.4704697 -224.5576321 -302.392606)
(-242.8235441 -940.6353214 204.9944975)
(1338.869985 -661.1726391 -50.29029881)
(-42.4043459 -360.5646257 337.2098197)
(59.63599602 12.51107555 -180.7002947)
(-486.3030097 -259.7753164 -233.0886238)
(-334.1682217 -147.724403 481.7622411)
(322.0635382 -592.7188664 22.78130051)
(-78.59438634 201.0812447 -176.287541)
(194.7650791 359.8301994 -205.5874997)
(166.4267369 -43.7317057 -36.29080592)
(616.4844466 -412.9879409 -283.0530729)
(350.7382956 666.5855031 -109.4664908)
(412.7472277 -887.8681255 -679.7291158)
(3.967657737 1071.146571 -711.5391998)
(-470.5804369 496.0794133 215.0249681)
(-298.0249383 -569.132913 -191.1141283)
(614.9919331 142.4353194 1032.507476)
(-202.4936321 440.4928305 -534.5634191)
(384.3282424 -193.9541125 215.3451694)
(681.3821363 209.6504512 -485.5449497)
(1045.723539 275.2376138 19.30345486)
(-406.0983577 -48.27865327 -226.4066221)
(75.84720786 -893.2449921 -352.5176458)
(465.9016175 -150.88089 -413.1000397)
(-184.9331 1247.919582 104.4297588)
(-313.5745577 401.0081759 -54.40183655)
(-417.3165298 47.39881393 431.4804505)
(472.4535821 729.8529197 -882.456389)
(-466.6639115 -704.0628406 414.2446842)
(1516.814577 -260.8289365 -1024.604541)
(266.4381198 -22.11465712 -316.6364095)
(685.3530163 193.313268 -911.400921)
(-389.127395 -378.6950567 -691.8077688)
(936.8948601 -857.6311722 250.9699358)
(-359.3458635 654.1755636 1200.559258)
(172.4348431 -26.41907622 -256.386288)
(-148.6350132 185.2084613 165.1783701)
(651.081762 698.2768879 -565.5250505)
(-95.62537195 389.0515376 502.5522358)
(493.5270749 -72.60805772 753.9823801)
(86.23153084 213.5635375 -582.8419814)
(-197.4890261 -419.2034251 847.8109577)
(206.5032994 303.1817825 -436.1328018)
(613.4141981 -540.1707829 392.3955331)
(134.6500461 -139.5279754 352.8626254)
(-267.2764312 324.736944 1050.113696)
(-318.2256276 666.3218997 926.6456104)
(-627.2317198 163.8455426 450.2344083)
(777.5295348 462.0561982 429.6473207)
(-1.939017149 60.14210362 -264.7252281)
(187.1551357 -131.7851039 224.3881086)
(1320.654078 -600.8365753 -795.3063112)
(-338.3981294 -662.6223307 409.2868689)
(840.1748283 959.6981727 -314.25175)
(-868.6532507 271.1437991 -70.38494196)
(314.4263718 586.1364264 62.02390799)
(362.6877142 245.3735925 -75.94194376)
(2128.065448 748.2322556 -526.9198789)
(-336.8356926 301.7390064 622.0499023)
(631.8379358 1320.255657 -121.5070601)
(452.4514825 -289.6974264 661.3062069)
(1597.777888 84.46079958 -17.41571256)
(274.5979432 -425.7917342 371.2529911)
(390.7813564 -577.7320464 -208.8523948)
(-367.7283724 -323.1183207 -39.54816989)
(370.5641581 -88.86482285 169.9302815)
(-390.5962797 -150.727631 -193.6355751)
(24.50044092 166.5545289 -223.6422052)
(-90.83173342 482.383814 249.0356674)
(308.1425309 -41.86919501 -19.25559793)
(-125.2662191 148.6303356 141.0647306)
(956.7828709 392.1534668 -146.5721752)
(1491.457812 307.1116421 464.2524337)
(315.5414819 617.5219935 -145.2160035)
(829.8433819 -71.47083984 277.0237779)
(124.6523687 -122.0466336 -150.2534678)
(633.4702123 55.85852584 188.0350053)
(739.7548801 18.36562629 350.5698615)
(-69.00226194 -393.5812113 -108.6671146)
(371.2228444 -557.7079345 -103.7616603)
(1211.611189 470.881058 -603.2795696)
(568.4591711 223.4155609 318.7011196)
(456.4349314 574.3772589 -344.1756582)
(1013.691773 100.2406934 -87.35298127)
(667.3709129 -638.7176068 352.3268891)
(-118.884069 277.6368053 33.51724538)
(1009.480482 555.3782157 -283.9249623)
(361.9927947 537.979699 -136.6380664)
(514.1987866 328.9875408 458.972605)
(-616.3192007 106.4916612 1122.540769)
(661.3707021 285.974246 919.9279171)
(-146.9200622 26.12257465 -163.9985183)
(-234.737626 -680.2334115 -28.44399037)
(365.0637332 -45.57027853 -205.7459778)
(100.1134547 405.9730165 -247.6545966)
(401.8460127 45.56055233 180.3977654)
(768.3075973 447.2666807 -548.5426436)
(961.0158393 138.7529184 -543.0946674)
(-521.1103258 -32.69045305 165.0003266)
(-701.2092215 478.1301743 -303.7187073)
(171.1482005 -39.98210989 156.5767122)
(-616.7234287 336.8047068 -958.9993791)
(428.9616926 438.7055433 141.6937718)
(-454.9981373 -67.48063496 1100.352671)
(653.9656627 62.82653027 458.1961045)
(1136.961995 -89.19714839 432.0136755)
(-36.60700413 4.891837022 676.9399962)
(-91.71596928 891.0176974 -858.1712724)
(471.5072661 191.5978497 -18.8960952)
(45.12746216 112.2916734 375.1647772)
(530.2654368 843.4026534 134.6111821)
(445.9911325 328.6431081 -544.6969319)
(393.2931596 -134.7102993 -658.2933099)
(63.35760414 -918.6562999 578.0265395)
(29.15469962 205.6384243 31.26981216)
(-240.6976998 -924.9997699 -94.28720701)
(1339.250809 818.4396522 -345.9108876)
(398.3377827 406.6032239 943.1996214)
(380.2363032 -305.7305533 -325.6687497)
(299.9811609 -543.1372113 -165.8472838)
(728.382571 -295.4363157 618.7053192)
(-782.4598276 553.8870058 440.8955265)
(411.6276772 98.65939727 -364.3227367)
(217.4031588 852.9042756 -109.9614972)
(709.6185766 -237.5676276 852.9318489)
(-383.4667063 815.7445742 -189.2506126)
(383.9064162 306.9135547 -205.9794903)
(2.592576735 25.16316297 278.6721713)
(1075.720135 -250.1384295 153.58672)
(92.51883937 741.1248321 -236.1973019)
(1265.358993 776.4826631 -830.6227427)
(-72.11458732 -432.916186 -103.2886847)
(71.99637704 -229.9679566 543.8447437)
(535.2899801 280.8876013 42.06978084)
(206.8446379 -160.5389878 -641.7359479)
(-314.6271429 -140.9129351 -566.2025318)
(-18.54020968 559.3455726 -528.3594422)
(-678.7799782 334.6208386 -109.5364886)
(384.6536343 -262.4603449 1286.624146)
(-147.0554592 284.1749678 702.6117921)
(420.1657265 -108.0873539 -368.7141607)
(124.9821453 -344.7136909 27.5319532)
(-272.6554525 -404.7760487 -435.6049419)
(241.4107032 -481.1956664 535.1356278)
(-9.895340294 526.6429449 79.16157603)
(231.3549989 764.5457507 414.3119031)
(-68.68567299 92.55106149 -505.5565871)
(646.7818884 -143.6549721 -40.58937524)
(631.0471664 -177.4138447 -424.1242915)
(849.0245435 195.9454232 -122.3097187)
(-148.7482593 884.7825618 368.4251381)
(-11.48716327 -306.6115428 206.3107078)
(-124.012119 -204.4088031 -121.8168228)
(1077.869176 96.96499614 -387.4089117)
(514.6565895 1150.537448 -310.9748383)
(1041.05285 894.6494458 -88.23838956)
(483.1161363 -288.5277682 -812.7908095)
(1041.011971 646.1020193 764.8391431)
(-228.0507325 384.4605731 6.271300953)
(856.9213126 -277.4181697 368.279925)
(-20.2809766 338.3580791 -304.6293507)
(1306.270038 -141.1393259 -424.0164362)
(1393.112415 -80.26763601 -743.6354769)
(1074.328362 -550.7328618 -106.853921)
(762.0684377 -176.7751272 234.9834271)
(310.0073261 -184.6608481 -46.89097941)
(56.05754953 1134.727858 -39.0050112)
(1440.892553 465.7730675 101.0242214)
(196.7186181 394.035771 -129.9825538)
(864.9644479 -207.3474331 349.4924533)
(225.6643814 455.9812742 -5.22246829)
(-242.3622873 511.8454266 344.2005925)
(-153.8202104 -601.3916899 668.2416115)
(126.7616491 578.8465467 499.8693601)
(724.5480679 602.2254688 761.4846465)
(384.8148748 352.0775594 375.3237582)
(-94.89605305 803.9130989 -10.24530114)
(269.7491393 131.9414019 424.5709036)
(814.5170963 281.7187077 887.5051005)
(-44.80773805 708.6470352 109.8894076)
(485.2252759 -176.5656753 203.1381491)
(1110.877859 275.7602459 -427.4369691)
(436.2448384 433.3491965 -297.7435499)
(410.4352504 -736.8792735 380.4232641)
(478.6244236 -277.6730592 -443.1707184)
(1152.380418 731.8003416 75.34543344)
(548.7065431 409.0687146 147.7984842)
(250.157149 -546.528108 -40.20915409)
(-125.7351865 329.1535634 317.0584873)
(865.357008 -843.314179 -60.63613193)
(-224.793319 -323.4881153 -233.947237)
(752.424644 79.00830656 773.6070902)
(-705.3803284 71.18708435 -705.2060097)
(349.443392 10.76367962 -84.16289628)
(-97.28300397 -48.68397723 158.9712862)
(1593.559395 -115.9878916 164.7829184)
(1232.321878 1660.602413 110.4220834)
(890.2772004 452.3513145 -872.508148)
(2253.593118 360.5124669 812.5781602)
(295.2925418 560.8027208 -720.6283427)
(1799.371764 166.4058325 -229.6796756)
(1345.902111 351.3758425 227.5224357)
(303.3447263 180.687683 212.7935936)
(533.9475995 1010.184181 238.5973345)
(-0.9548435596 -528.2783871 -254.4118009)
(62.82670098 -392.9943819 -1233.031557)
(1139.059963 -45.04562348 -665.0388624)
(663.5351149 -676.2336187 -138.3056207)
(306.9304886 -567.2203732 -360.2897551)
(-601.3980469 285.7353767 -296.8639842)
(102.8160675 105.580231 -148.181096)
(815.5110273 -469.6565987 -180.7171695)
(446.991235 -829.0682141 44.39933767)
(560.2785856 -204.6874374 547.9886327)
(-395.3872756 682.0280273 -140.5670049)
(859.9637425 -677.9511386 -772.1277647)
(552.9742834 1039.597764 -687.7540068)
(129.7070669 -393.2820484 -511.1814979)
(-210.5600583 -167.40436 -555.7395039)
(-486.3879144 -401.2677619 905.6292405)
(-238.3261341 -965.1439686 65.8391051)
(-309.1201577 392.4885226 496.9307396)
(-258.1796179 680.6850535 20.43889418)
(7.36659013 512.0000454 939.8467175)
(896.9521507 344.7569122 -424.8596614)
(1474.710677 -5.014150408 168.8493961)
(719.7027696 18.78034264 -255.7434469)
(74.753386 -244.1009416 318.8744687)
(502.4182355 -198.6823852 475.8190786)
(582.6208792 -244.6310671 -287.2100243)
(-485.5054852 -26.34035124 428.6981565)
(-364.2397192 -4.25502102 112.3857013)
(-68.36736161 1055.37082 -801.4488801)
(-9.208252645 622.175183 -139.0828034)
(45.3330523 282.9685861 33.88602458)
(-730.56019 -687.6212001 166.7099211)
(586.4204978 362.0294572 -327.4183845)
(84.08295687 -536.6249495 788.4931591)
(256.6690102 -712.6497273 405.5257348)
(-197.3582364 -67.53375616 -303.1237628)
(-120.135247 135.6185928 -222.2122878)
(242.6817553 -214.3503019 -154.5209399)
(326.442091 78.50725723 -264.9067951)
(92.23048483 -528.4261619 -112.1538988)
(345.9855604 -321.2995919 88.78759366)
(1159.999932 -95.13751974 -441.8528046)
(662.8343682 329.371911 353.7724482)
(1403.987964 654.3633308 -90.71892532)
(-424.4228924 169.3289934 -12.46990807)
(-590.4141273 173.5579629 -979.2156105)
(262.3333532 23.07423113 -966.3399995)
(815.9801454 353.7762791 -165.3997696)
(-458.193487 67.62679139 571.9324046)
(333.3211043 342.9853399 48.66331003)
(196.5075406 -33.21333579 -464.5961869)
(-207.414549 -271.6407017 -608.3830676)
(851.1136037 -631.5769812 -726.5374018)
(1184.636064 -10.47039292 -28.29377408)
(-143.3078964 -128.8016286 129.6064455)
(682.0444748 409.2372955 552.2928012)
(-340.1104055 898.7742726 -610.8246143)
(-251.803426 247.6694223 426.4367311)
(817.5657644 -928.1295285 -668.3963255)
(812.1560608 759.0187357 -225.7996536)
(141.0769712 215.1155002 -217.8468573)
(921.5956935 1086.257929 284.8421789)
(464.6923858 64.10582704 -183.6475894)
(32.560462 451.4238567 -688.5512404)
(1307.833553 516.804862 -684.0212847)
(-460.4741682 -357.9173025 -144.6551726)
(826.2989945 -159.1581579 703.4254927)
(547.9060137 -16.39170029 -7.510736355)
(2229.016596 -43.43279534 -443.3361704)
(740.9108742 114.0684643 104.8829413)
(890.1757964 385.0409999 -971.2738053)
(622.7896971 -93.41574765 126.3305573)
(413.3803573 542.9407165 178.9597729)
(1994.749784 671.9634521 -187.0553652)
(1393.780693 246.8956236 785.9900387)
(86.54687516 -328.1798028 426.2437656)
(-313.3137127 144.2756944 347.2249755)
(-472.6934613 173.9044015 -245.9008341)
(-604.6935877 224.0392744 80.57450926)
(44.67414515 231.9184661 581.6875836)
(115.5871559 -86.79536572 226.1833115)
(-412.5289291 -41.27469023 90.32518734)
(741.1256696 131.34243 458.1981027)
(87.14043615 79.51334916 239.0827888)
(-19.70637366 -324.8411567 -637.9924869)
(1311.128312 741.7898939 -17.77474785)
(483.1353658 -416.8592732 -129.3134533)
(824.1046877 238.4474761 -7.27971934)
(-260.1336584 -147.5854013 254.4272567)
(648.342981 -458.863022 -561.0457443)
(210.1811684 -204.9854755 173.7276444)
(1496.394065 698.9922419 247.096344)
(100.3547773 447.2477012 -438.0406215)
(1251.879204 -376.4302006 594.7631776)
(-176.1351834 218.6159054 623.8598522)
(1220.398208 388.634725 -408.3979799)
(586.6293213 6.697209975 819.9942093)
(395.849843 -720.4371258 -278.0946312)
(734.4890599 -50.80229261 105.827697)
(-299.6919162 8.026490529 -249.2737016)
(427.6972554 368.6350775 636.9584975)
(234.448415 -465.0129485 -927.69296)
(1160.735225 -123.4796987 -92.87907779)
(1034.138768 -1171.927775 16.1168378)
(153.0423961 257.9782114 124.6902218)
(973.8848716 357.2726429 -464.2066328)
(135.7510655 -253.9537457 217.6764314)
(-75.43182201 129.7267485 615.0747868)
(-339.6132768 344.6988761 -126.3811982)
(-77.86028555 530.4411924 -438.1482912)
(508.7634442 83.55724145 503.4036605)
(-416.0766738 559.9644128 82.04687703)
(-33.61733978 605.1343028 -500.0757903)
(484.2957392 1125.308674 -236.9763223)
(86.01483174 -1173.918048 358.9080444)
(834.9497311 861.0542013 879.8728216)
(-801.2258805 531.6219362 -276.4577132)
(-284.6240221 101.8144692 494.6687748)
(470.5357363 -296.9395815 -685.2313325)
(661.0738465 345.7946153 -133.9227133)
(541.2608135 -566.7271483 -243.8024899)
(26.09436573 68.95085388 -101.9047179)
(395.542772 376.9936403 416.5410729)
(390.1330112 425.0499021 150.4030605)
(1944.707147 169.1537816 44.38382027)
(33.67474559 392.0996108 -364.5050024)
(1174.682184 -655.335374 37.08271113)
(76.49704583 -1363.208009 645.5941099)
(30.56667498 908.0896678 496.1818915)
(174.4392889 -183.8626575 -856.264598)
(1548.098867 426.5737642 27.17416739)
(188.0336282 -374.540778 370.4461979)
(1841.123609 892.4998033 -451.8771307)
(-63.92719883 -21.54802461 -91.98505227)
(456.5964975 188.0826398 183.937764)
(329.0122557 1000.314842 -641.2932768)
(1767.890644 324.5040331 -52.71415595)
(964.4338097 -402.9656691 -192.5767355)
(339.3143218 -191.3910347 -350.9976254)
(575.8435475 -361.6324153 162.1324238)
(234.9379821 706.3724362 -298.1222909)
(-310.3607918 229.6112449 329.4011324)
(650.6023077 94.1811113 -337.27257)
(1439.639021 -855.3623699 -504.1576299)
(-201.653821 -112.9712695 315.4098885)
(1384.866653 -146.6239366 207.6566373)
(1235.553463 413.3206446 -96.96264348)
(67.05427038 -584.2137403 -271.5654543)
(216.8049408 -208.2269673 613.1877147)
(-337.4474402 -260.3726424 381.6683178)
(1584.891276 798.6727999 -947.2043454)
(99.12205115 612.9297855 -112.816715)
(381.8739394 383.2034534 783.4796477)
(-150.9690519 -43.02572147 -529.1545977)
(1372.706998 -285.1095842 -293.061728)
(87.51142823 -887.2374333 234.3810852)
(304.6139835 -445.9943009 -14.94070535)
(1088.579004 368.8383806 271.5987874)
(867.5513188 -340.5094537 925.0755464)
(1029.072211 -611.4421344 115.5293203)
(691.6137377 168.1609704 -656.6499346)
(-616.7847874 688.2321048 19.7812692)
(1577.555313 272.72583 -485.9336469)
(962.0939789 -92.49336457 -182.2308203)
(470.7482962 -29.69621064 689.4095797)
(1474.545381 -450.4613532 -311.190675)
(-516.7790646 -94.47779222 -112.4770973)
(855.2827954 641.8529382 550.4955134)
(807.4086325 -225.4677964 733.9905438)
(-206.3997754 -475.7563223 1024.94762)
(323.1284374 453.0010317 216.1903753)
(197.1670842 -1125.001769 -146.011704)
(203.0216138 281.6271341 667.4837902)
(1290.061164 229.3109433 -190.763063)
(482.2066435 578.7609037 309.391504)
(-803.0852041 523.6653444 97.51728973)
(261.8957195 475.8941992 779.3283486)
(-374.7831822 -522.9558016 -312.1148394)
(-156.2831434 142.2469099 310.2978654)
(-256.1197875 -55.7271709 -271.1031488)
(1698.733303 585.8513507 277.6152223)
(152.0818077 -296.408647 -62.29607346)
(814.1617253 -182.7993224 -65.60579093)
(870.8806196 493.3954099 28.64236257)
(241.0646402 -188.7872776 319.2426404)
(590.3373244 101.2516953 -239.6581199)
(52.19454111 -292.6686938 301.6826499)
(472.4165733 99.22370652 -361.0134904)
(-83.28968052 333.1296869 -30.85593347)
(491.9705223 -41.53789109 714.2333738)
(1358.076676 646.2249363 86.90299601)
(1271.692357 -211.6962691 -309.2196668)
(977.9647058 -496.9629499 -207.6316659)
(331.8295136 110.3055876 404.4764342)
(-733.9970648 490.0480547 870.6248581)
(1107.494869 994.7910099 -642.3351824)
(1595.40159 680.6104613 -243.874625)
(807.3680847 -227.4528005 919.6954106)
(-65.03130604 -93.71017041 664.5745266)
(1137.791575 -102.4614291 -630.5194654)
(-12.55243174 333.4875341 -136.4088746)
(-68.6036231 302.1038909 -119.843303)
(472.7554839 322.2935607 -257.7354492)
(660.3780684 160.3279052 -195.2686642)
(-368.6855977 -14.1102639 -126.8428341)
(-273.8558803 119.5970466 62.07594381)
(-130.9814584 -142.4188339 -248.8388282)
(478.8276294 11.64106004 -484.2495801)
(552.7882282 1088.431978 1183.169173)
(603.2099588 48.57299633 -195.5831361)
(-295.535183 41.17131573 -105.1398509)
(1314.031027 522.1214402 1034.778158)
(1534.467803 911.9965968 187.0327105)
(563.3621372 -30.58044132 174.6800639)
(672.693601 583.6066914 -222.15649)
(-266.5054883 -216.7832028 -347.7567649)
(1327.194795 832.027565 165.519166)
(163.6377046 245.4396854 461.7603683)
(726.2144087 287.6337551 441.5987744)
(-570.1965529 -50.09751974 460.7261711)
(401.370952 503.5371242 565.9923146)
(739.4595641 362.9866136 -727.8166901)
(1256.864312 -496.9793065 90.36800272)
(694.4389738 -624.1333745 221.497563)
(-160.6011893 -346.9012972 -394.1299567)
(588.4564698 446.5638803 119.009924)
(736.9519515 -517.3240229 -106.4304745)
(364.3953057 487.6660268 -834.0126379)
(297.4278046 -230.2908197 169.4546975)
(178.6154906 -688.1693779 855.8908511)
(403.4974432 562.7317727 240.0603748)
(-251.176534 97.84361564 138.698316)
(1493.05219 753.7873704 -964.0311004)
(-8.115396251 -951.329767 -348.3668073)
(266.952309 706.2537882 209.9468628)
(285.3750686 -56.95628029 329.8466387)
(-554.2786299 -78.74357177 -874.7558952)
(363.3856314 110.6026694 -129.9909825)
(462.6934311 660.0675173 44.47029176)
(-34.66640351 -260.8321917 -332.710465)
(-137.3172179 -561.8902899 105.3613865)
(-15.42715289 249.9695394 421.7717594)
(730.2489364 528.2707756 125.0544187)
(1200.644122 336.1969283 267.7858643)
(1028.262358 204.3504819 -355.3510939)
(631.112351 234.7180883 170.6687124)
(1329.862055 -94.23925153 63.11986893)
(-291.149232 -406.1035853 44.26959824)
(202.0873272 698.6056276 -599.1096222)
(564.282546 -554.9505546 -194.3906558)
(849.8214493 83.04057816 -226.2140786)
(62.99496999 -133.4989661 423.8376143)
(526.7927522 740.2244819 -272.0826094)
(1021.545298 989.123533 -68.48746321)
(306.3390313 538.0118292 698.0895719)
(-505.1758477 -474.3218176 248.2056062)
(-228.2837843 211.0531178 365.4153539)
(521.9246427 761.0782738 124.4852323)
(691.2413518 -1092.481112 -18.95858778)
(1245.426511 700.2494238 180.4341045)
(578.810549 -25.00452736 -42.36597089)
(711.31749 -40.89427643 874.2700926)
(1458.375503 523.5193079 446.1917034)
(69.21260596 -252.2779455 168.1582711)
(1190.894159 483.5957754 -175.2254585)
(669.9396871 151.5115048 108.2556362)
(541.7211473 -209.2368468 -32.14863153)
(590.1747139 -613.9713867 -206.2233788)
(146.3490168 -176.4099624 -108.8719588)
(-135.7845789 -264.2739626 287.6849816)
(-632.8163386 -297.5592271 -200.0617208)
(-108.8258948 -136.6793691 -14.21333028)
(8.079128298 -436.0130886 -135.3936488)
(464.4752055 78.31472721 -140.4777259)
(-154.9131831 -361.731517 185.0221468)
(442.703575 -353.1448712 86.66987174)
(-123.6980287 -299.5622829 312.9629543)
(114.3320453 -661.3145176 802.1753436)
(1024.942006 701.5750987 -240.6746763)
(-470.1156624 -46.01158624 782.9919518)
(-64.3193313 175.4963583 -349.9076994)
(241.3616955 -235.4494667 -306.0860296)
(491.0588153 62.45138069 -13.15306273)
(341.7869866 755.7957968 66.45147989)
(925.5024845 1295.032334 -1383.125895)
(-370.9685229 -658.936621 160.4376487)
(975.9184062 165.4896273 231.8685905)
(822.7162433 720.1655645 -728.4542533)
(37.06309125 -1067.098794 19.50103454)
(-399.7901786 -454.878689 -731.5453617)
(-124.674822 -155.5898347 376.9730364)
(-123.8620868 -351.8664371 -293.3989498)
(293.0602967 766.5052449 -170.4441671)
(85.87325105 -20.29255664 -209.9209124)
(947.3228813 76.57192703 18.591426)
(-1008.758052 -800.2417263 -356.498841)
(853.8424628 1533.29561 -585.6448968)
(943.8288746 261.6709833 187.2162074)
(599.5166242 -73.11898292 735.3219086)
(152.505756 -548.5601468 167.1454509)
(-26.18287328 -118.6080543 580.838644)
(-128.7587755 435.2965513 -393.0277226)
(-153.0520559 -65.93561797 -326.3610037)
(-36.08198201 362.1278226 -17.33859669)
(622.6156341 279.463507 -796.7549069)
(-9.552658422 -624.2277939 1052.97843)
(-599.4085042 764.6176172 392.4501273)
(1270.774867 587.1173574 -408.3179131)
(696.6725754 392.9897643 618.9201613)
(629.9090318 -104.7822161 487.8303853)
(779.5616414 186.8463309 228.2376113)
(446.1785386 132.0994935 34.10488279)
(729.1071928 -218.8979355 -48.98447829)
(-209.5300566 538.9057984 682.0105372)
(-449.2725008 199.6445003 -928.0253666)
(-367.148049 188.1146836 163.6510696)
(569.7135745 -562.0582113 -356.8225327)
(479.9759322 252.5971964 417.1127251)
(1126.855522 98.69427359 453.4425157)
(902.4025562 -339.8203531 176.0225198)
(653.6515484 940.3614893 -1150.272394)
(413.8076095 286.3567855 308.5169991)
(-489.7337343 -125.2752538 264.4768501)
(862.7179453 -37.56546221 52.33434966)
(-10.14168103 161.6590805 -236.2220897)
(-88.59207879 238.8546005 -421.135215)
(-240.7142231 851.0919926 -149.1039727)
(-133.8335153 -339.7718931 228.4981095)
(-296.4557526 485.0719811 -12.46239601)
(-214.0527312 282.0075822 -327.3063921)
(236.3427565 -496.141564 -40.62333414)
(255.3305141 770.2196087 465.3004661)
(-366.3221554 -141.0421302 -134.5606557)
(571.6990188 49.58119469 176.4941257)
(1124.088062 967.4534767 -981.3067739)