/*--------------------------------*- C++ -*----------------------------------*\
| =========                 |                                                 |
| \\      /  F ield         | OpenFOAM: The Open Source CFD Toolbox           |
|  \\    /   O peration     | Version:  v1912                                 |
|   \\  /    A nd           | Website:  www.openfoam.com                      |
|    \\/     M anipulation  |                                                 |
\*---------------------------------------------------------------------------*/
FoamFile
{
    version     2.0;
    format      ascii;
    class       volScalarField;
    location    "9.02";
    object      T;
}
// * * * * * * * * * * * * * * * * * * * * * * * * * * * * * * * * * * * * * //

dimensions      [0 0 0 1 0 0 0];


internalField   nonuniform List<scalar> 
1900
(
0.793021
1.03764
1.0274
0.985509
0.950526
0.938326
0.935035
0.936922
0.942819
0.948947
0.79302
1.03764
1.0274
0.985509
0.950523
0.938339
0.935078
0.936939
0.943076
0.94852
0.793019
1.03764
1.0274
0.985513
0.950531
0.938362
0.935099
0.936802
0.942635
0.947699
0.79302
1.03764
1.0274
0.985509
0.950523
0.938339
0.935078
0.936939
0.943076
0.94852
0.793021
1.03764
1.0274
0.985509
0.950526
0.938326
0.935035
0.936922
0.942819
0.948947
0.956086
0.95209
0.954977
0.962835
1.00139
0.950934
0.948918
0.950868
0.957241
0.983347
0.949862
0.948331
0.95015
0.957279
0.981979
0.950934
0.948918
0.950868
0.957241
0.983347
0.956086
0.95209
0.954977
0.962835
1.00139
0.794129
0.679292
0.614473
0.569584
0.536011
0.813983
0.695615
0.627524
0.582739
0.542307
0.813957
0.690038
0.62134
0.577905
0.53302
0.813983
0.695615
0.627524
0.582739
0.542307
0.794129
0.679292
0.614473
0.569584
0.536011
0.509057
0.495627
0.483054
0.477227
0.471386
0.464199
0.454686
0.444608
0.434861
0.427446
0.422534
0.414595
0.407047
0.407566
0.419217
0.4716
0.51162
0.5282
0.534726
0.538812
0.546495
0.558784
0.563119
0.559653
0.545185
0.522359
0.502526
0.567472
0.611158
0.530089
0.463284
0.464229
0.474605
0.485373
0.493127
0.496212
0.496388
0.494946
0.493882
0.493524
0.525307
0.534592
0.532566
0.524355
0.512858
0.500231
0.486429
0.473118
0.460082
0.44977
0.442691
0.432588
0.42224
0.421011
0.43254
0.485517
0.524934
0.5388
0.543399
0.545802
0.551194
0.560703
0.564849
0.560411
0.544818
0.52169
0.502322
0.567017
0.611067
0.530493
0.463457
0.464258
0.474619
0.485388
0.493128
0.49618
0.496345
0.494906
0.493841
0.493475
0.526611
0.534601
0.545063
0.539962
0.529523
0.516061
0.50088
0.485975
0.471163
0.45937
0.451117
0.440151
0.428399
0.426086
0.437483
0.490725
0.529663
0.54274
0.546487
0.548208
0.552642
0.561226
0.563998
0.559481
0.54432
0.521532
0.502859
0.567555
0.611458
0.530742
0.463501
0.464259
0.474616
0.485389
0.493125
0.496154
0.496295
0.494842
0.493773
0.493399
0.525307
0.534592
0.532566
0.524355
0.512858
0.500231
0.486429
0.473118
0.460082
0.44977
0.442691
0.432588
0.42224
0.421011
0.43254
0.485517
0.524934
0.5388
0.543399
0.545802
0.551194
0.560703
0.564849
0.560411
0.544818
0.52169
0.502322
0.567017
0.611067
0.530493
0.463457
0.464258
0.474619
0.485388
0.493128
0.49618
0.496345
0.494906
0.493841
0.493475
0.509057
0.495627
0.483054
0.477227
0.471386
0.464199
0.454686
0.444608
0.434861
0.427446
0.422534
0.414595
0.407047
0.407566
0.419217
0.4716
0.51162
0.5282
0.534726
0.538812
0.546495
0.558784
0.563119
0.559653
0.545185
0.522359
0.502526
0.567472
0.611158
0.530089
0.463284
0.464229
0.474605
0.485373
0.493127
0.496212
0.496388
0.494946
0.493882
0.493524
0.40106
0.396024
0.390523
0.389535
0.390276
0.389854
0.388773
0.387202
0.385253
0.383391
0.381718
0.377265
0.373011
0.37422
0.384789
0.434037
0.47576
0.498966
0.510198
0.519219
0.533417
0.552238
0.561107
0.560036
0.551883
0.531034
0.51007
0.573078
0.612658
0.528484
0.462466
0.463999
0.474421
0.485243
0.493135
0.496367
0.496631
0.495211
0.494072
0.493632
0.311614
0.311643
0.310646
0.310854
0.312485
0.31515
0.318864
0.322831
0.326321
0.330119
0.333923
0.333584
0.333431
0.335634
0.345899
0.390239
0.432094
0.461616
0.478638
0.493653
0.515925
0.544044
0.555359
0.552007
0.538301
0.517015
0.50136
0.56857
0.604934
0.520594
0.460935
0.463544
0.474001
0.484902
0.49303
0.496514
0.496927
0.495556
0.494264
0.493626
0.296361
0.296247
0.297808
0.299695
0.301339
0.302738
0.304207
0.305756
0.307724
0.310673
0.313311
0.314782
0.316034
0.318214
0.328441
0.372645
0.412808
0.443208
0.462253
0.480071
0.506949
0.540007
0.550295
0.545868
0.531152
0.510165
0.501339
0.569214
0.593602
0.508844
0.459196
0.463046
0.473459
0.48441
0.492743
0.496498
0.497072
0.495851
0.494462
0.493672
0.29469
0.294338
0.293287
0.29349
0.294043
0.294851
0.29584
0.296555
0.297748
0.2998
0.300403
0.301691
0.305845
0.311267
0.32684
0.367395
0.400296
0.427751
0.44788
0.469047
0.501842
0.535276
0.541847
0.536453
0.521776
0.502166
0.500995
0.56993
0.580236
0.496648
0.459854
0.464645
0.474474
0.484733
0.492711
0.496436
0.497086
0.496085
0.494685
0.49382
0.297157
0.297222
0.2974
0.29748
0.297386
0.297752
0.298116
0.297706
0.298158
0.298796
0.298826
0.301696
0.306916
0.313644
0.333354
0.368594
0.396534
0.423153
0.445534
0.470476
0.506586
0.533375
0.534436
0.526849
0.512457
0.495923
0.501942
0.575756
0.572753
0.490847
0.466476
0.470614
0.478742
0.488044
0.495072
0.497499
0.497356
0.496284
0.494928
0.494011
0.302057
0.302076
0.30209
0.301831
0.301255
0.301263
0.301134
0.300901
0.30095
0.299983
0.300709
0.305514
0.312205
0.322792
0.346483
0.372513
0.397906
0.424236
0.447484
0.477054
0.51487
0.529396
0.527051
0.517374
0.506721
0.496859
0.517945
0.609041
0.586155
0.511858
0.496328
0.49526
0.496604
0.499585
0.501858
0.501911
0.500156
0.49712
0.495202
0.494181
0.307951
0.30804
0.308091
0.307789
0.307305
0.306858
0.305911
0.305666
0.305553
0.30475
0.306375
0.311144
0.317821
0.331296
0.355196
0.37851
0.404107
0.428919
0.453158
0.489794
0.519993
0.524495
0.521985
0.516742
0.513791
0.519508
0.580049
0.653019
0.598917
0.538961
0.5297
0.525948
0.524569
0.524029
0.521113
0.514675
0.506777
0.500488
0.496184
0.494516
0.314563
0.314657
0.314669
0.314504
0.314208
0.313754
0.312822
0.312214
0.311647
0.31139
0.313759
0.318824
0.32851
0.346138
0.366552
0.388924
0.414009
0.437845
0.467231
0.5052
0.524485
0.528842
0.534902
0.54788
0.558865
0.572336
0.628468
0.65119
0.589003
0.551995
0.546306
0.543348
0.542578
0.543227
0.542342
0.53495
0.521488
0.508388
0.499573
0.495598
0.323072
0.323105
0.32306
0.322897
0.322635
0.32193
0.320968
0.320921
0.320861
0.321862
0.326289
0.333459
0.344546
0.360121
0.380195
0.405407
0.427527
0.45433
0.497284
0.52689
0.548322
0.570297
0.584436
0.591703
0.593445
0.599754
0.632544
0.618564
0.569132
0.555608
0.552837
0.551268
0.551006
0.55256
0.553998
0.550536
0.538034
0.520971
0.506314
0.498868
0.335546
0.335539
0.335373
0.334921
0.334015
0.332691
0.331471
0.33134
0.331791
0.334089
0.340007
0.349498
0.363609
0.38194
0.403188
0.429033
0.461794
0.509143
0.55621
0.586913
0.602684
0.609036
0.612762
0.608861
0.599544
0.598147
0.606166
0.579391
0.556634
0.555097
0.554204
0.55314
0.553422
0.55509
0.55707
0.557326
0.548564
0.532467
0.516176
0.504674
0.351525
0.351334
0.350571
0.349552
0.348484
0.34838
0.348981
0.351126
0.355101
0.360572
0.368671
0.38137
0.401094
0.427912
0.463542
0.510659
0.560647
0.595296
0.614076
0.621581
0.623453
0.620967
0.615273
0.607369
0.593052
0.577847
0.563606
0.550595
0.550571
0.553633
0.554229
0.553647
0.554147
0.555409
0.557215
0.558002
0.552597
0.539462
0.524703
0.512998
0.373853
0.373624
0.373895
0.375652
0.379617
0.385762
0.394455
0.406183
0.422737
0.44208
0.461881
0.481486
0.509732
0.545729
0.580777
0.603607
0.622407
0.625
0.625188
0.625126
0.624441
0.620712
0.61145
0.596974
0.574627
0.544482
0.529006
0.538409
0.549185
0.553488
0.554234
0.553836
0.554131
0.555079
0.5567
0.558021
0.554735
0.544351
0.53152
0.521449
0.410166
0.411559
0.417745
0.430489
0.447336
0.468181
0.491237
0.514614
0.537832
0.560427
0.580263
0.597086
0.61392
0.623894
0.625654
0.624769
0.622618
0.623826
0.626114
0.625984
0.622251
0.614507
0.601837
0.580723
0.545265
0.512597
0.513609
0.534985
0.549169
0.553589
0.554757
0.554177
0.553944
0.554262
0.555389
0.556855
0.555258
0.547556
0.536634
0.52836
0.465019
0.471609
0.488273
0.511686
0.534574
0.55509
0.573305
0.588945
0.601255
0.610231
0.617826
0.62502
0.627942
0.626951
0.624517
0.623409
0.624514
0.626368
0.627183
0.62361
0.616036
0.605483
0.586741
0.553829
0.515733
0.500249
0.511015
0.535081
0.550336
0.555054
0.556002
0.554826
0.553823
0.553431
0.553463
0.554194
0.554124
0.549564
0.541523
0.535169
0.523148
0.528548
0.543865
0.560683
0.571866
0.578176
0.583259
0.589764
0.597744
0.606825
0.614992
0.621159
0.623801
0.625519
0.626811
0.628094
0.628735
0.627651
0.624358
0.618611
0.608258
0.589778
0.55895
0.522969
0.504126
0.502689
0.510897
0.532935
0.550641
0.556949
0.557787
0.556525
0.554974
0.553316
0.551861
0.551047
0.550948
0.548765
0.543521
0.538844
0.537929
0.541479
0.551863
0.560798
0.566408
0.569051
0.573417
0.580116
0.588301
0.597637
0.60698
0.615226
0.62187
0.627209
0.630814
0.631992
0.630266
0.626708
0.620457
0.609132
0.589117
0.558302
0.525575
0.508903
0.504092
0.504649
0.509332
0.525421
0.544372
0.555008
0.558086
0.557772
0.556676
0.55431
0.551413
0.54836
0.546383
0.545289
0.542312
0.538854
0.53315
0.535583
0.541577
0.545744
0.549043
0.552974
0.559186
0.566731
0.575474
0.585614
0.59742
0.609765
0.620964
0.62792
0.630686
0.630606
0.627456
0.61959
0.605309
0.58238
0.551482
0.523196
0.510357
0.50543
0.503664
0.503823
0.506494
0.51529
0.530735
0.543947
0.550653
0.553157
0.554018
0.553543
0.551263
0.546903
0.542975
0.541188
0.540537
0.538635
0.526925
0.525259
0.526335
0.528153
0.53205
0.53803
0.545226
0.552695
0.560886
0.571254
0.584596
0.599148
0.612109
0.619997
0.622799
0.61992
0.610046
0.592813
0.568285
0.540459
0.518874
0.509411
0.505025
0.503215
0.502254
0.501519
0.502273
0.505959
0.515323
0.527417
0.536174
0.541546
0.545174
0.54783
0.548092
0.545345
0.541344
0.537653
0.538107
0.536401
0.521908
0.518585
0.515648
0.516272
0.520239
0.525066
0.530236
0.536148
0.543377
0.553075
0.565756
0.579653
0.592025
0.598183
0.597341
0.587849
0.570796
0.54962
0.528462
0.51447
0.508097
0.504567
0.502811
0.501581
0.500439
0.499283
0.498659
0.499791
0.503955
0.511938
0.521193
0.52839
0.533788
0.539075
0.541972
0.541561
0.540144
0.537757
0.538454
0.53541
0.516581
0.517695
0.515709
0.513128
0.514002
0.515326
0.516831
0.519721
0.525718
0.535749
0.548596
0.561765
0.570869
0.572864
0.564697
0.54906
0.531375
0.517442
0.510279
0.506555
0.504144
0.502706
0.501486
0.500165
0.498851
0.497683
0.496885
0.49689
0.498222
0.502418
0.509369
0.518272
0.525208
0.532345
0.536801
0.537783
0.537845
0.535787
0.535089
0.53512
0.516581
0.517695
0.515709
0.513128
0.514002
0.515326
0.516831
0.519721
0.525718
0.535749
0.548596
0.561765
0.570869
0.572864
0.564697
0.54906
0.531375
0.517442
0.510279
0.506555
0.504144
0.502706
0.501486
0.500165
0.498851
0.497683
0.496885
0.49689
0.498222
0.502418
0.509369
0.518272
0.525208
0.532345
0.536801
0.537783
0.537845
0.535787
0.535089
0.53512
0.521908
0.518585
0.515648
0.516272
0.520239
0.525066
0.530236
0.536148
0.543377
0.553075
0.565756
0.579653
0.592025
0.598183
0.597341
0.587849
0.570796
0.54962
0.528462
0.51447
0.508097
0.504567
0.502811
0.501581
0.500439
0.499283
0.498659
0.499791
0.503955
0.511938
0.521193
0.52839
0.533788
0.539075
0.541972
0.541561
0.540144
0.537757
0.538454
0.53541
0.526925
0.525259
0.526335
0.528153
0.53205
0.53803
0.545226
0.552695
0.560886
0.571254
0.584596
0.599148
0.612109
0.619997
0.622799
0.61992
0.610046
0.592813
0.568285
0.540459
0.518874
0.509411
0.505025
0.503215
0.502254
0.501519
0.502273
0.505959
0.515323
0.527417
0.536174
0.541546
0.545174
0.54783
0.548092
0.545345
0.541344
0.537653
0.538107
0.536401
0.53315
0.535583
0.541577
0.545744
0.549043
0.552974
0.559186
0.566731
0.575474
0.585614
0.59742
0.609765
0.620964
0.62792
0.630686
0.630606
0.627456
0.61959
0.605309
0.58238
0.551482
0.523196
0.510357
0.50543
0.503664
0.503823
0.506494
0.51529
0.530735
0.543947
0.550653
0.553157
0.554018
0.553543
0.551263
0.546903
0.542975
0.541188
0.540537
0.538635
0.537929
0.541479
0.551863
0.560798
0.566408
0.569051
0.573417
0.580116
0.588301
0.597637
0.60698
0.615226
0.62187
0.627209
0.630814
0.631992
0.630266
0.626708
0.620457
0.609132
0.589117
0.558302
0.525575
0.508903
0.504092
0.504649
0.509332
0.525421
0.544372
0.555008
0.558086
0.557772
0.556676
0.55431
0.551413
0.54836
0.546383
0.545289
0.542312
0.538854
0.523148
0.528548
0.543865
0.560683
0.571866
0.578176
0.583259
0.589764
0.597744
0.606825
0.614992
0.621159
0.623801
0.625519
0.626811
0.628094
0.628735
0.627651
0.624358
0.618611
0.608258
0.589778
0.55895
0.522969
0.504126
0.502689
0.510897
0.532935
0.550641
0.556949
0.557787
0.556525
0.554974
0.553316
0.551861
0.551047
0.550948
0.548765
0.543521
0.538844
0.465019
0.471609
0.488273
0.511686
0.534574
0.55509
0.573305
0.588945
0.601255
0.610231
0.617826
0.62502
0.627942
0.626951
0.624517
0.623409
0.624514
0.626368
0.627183
0.62361
0.616036
0.605483
0.586741
0.553829
0.515733
0.500249
0.511015
0.535081
0.550336
0.555054
0.556002
0.554826
0.553823
0.553431
0.553463
0.554194
0.554124
0.549564
0.541523
0.535169
0.410166
0.411559
0.417745
0.430489
0.447336
0.468181
0.491237
0.514614
0.537832
0.560427
0.580263
0.597086
0.61392
0.623894
0.625654
0.624769
0.622618
0.623826
0.626114
0.625984
0.622251
0.614507
0.601837
0.580723
0.545265
0.512597
0.513609
0.534985
0.549169
0.553589
0.554757
0.554177
0.553944
0.554262
0.555389
0.556855
0.555258
0.547556
0.536634
0.52836
0.373853
0.373624
0.373895
0.375652
0.379617
0.385762
0.394455
0.406183
0.422737
0.44208
0.461881
0.481486
0.509732
0.545729
0.580777
0.603607
0.622407
0.625
0.625188
0.625126
0.624441
0.620712
0.61145
0.596974
0.574627
0.544482
0.529006
0.538409
0.549185
0.553488
0.554234
0.553836
0.554131
0.555079
0.5567
0.558021
0.554735
0.544351
0.53152
0.521449
0.351525
0.351334
0.350571
0.349552
0.348484
0.34838
0.348981
0.351126
0.355101
0.360572
0.368671
0.38137
0.401094
0.427912
0.463542
0.510659
0.560647
0.595296
0.614076
0.621581
0.623453
0.620967
0.615273
0.607369
0.593052
0.577847
0.563606
0.550595
0.550571
0.553633
0.554229
0.553647
0.554147
0.555409
0.557215
0.558002
0.552597
0.539462
0.524703
0.512998
0.335546
0.335539
0.335373
0.334921
0.334015
0.332691
0.331471
0.33134
0.331791
0.334089
0.340007
0.349498
0.363609
0.38194
0.403188
0.429033
0.461794
0.509143
0.55621
0.586913
0.602684
0.609036
0.612762
0.608861
0.599544
0.598147
0.606166
0.579391
0.556634
0.555097
0.554204
0.55314
0.553422
0.55509
0.55707
0.557326
0.548564
0.532467
0.516176
0.504674
0.323072
0.323105
0.32306
0.322897
0.322635
0.32193
0.320968
0.320921
0.320861
0.321862
0.326289
0.333459
0.344546
0.360121
0.380195
0.405407
0.427527
0.45433
0.497284
0.52689
0.548322
0.570297
0.584436
0.591703
0.593445
0.599754
0.632544
0.618564
0.569132
0.555608
0.552837
0.551268
0.551006
0.55256
0.553998
0.550536
0.538034
0.520971
0.506314
0.498868
0.314563
0.314657
0.314669
0.314504
0.314208
0.313754
0.312822
0.312214
0.311647
0.31139
0.313759
0.318824
0.32851
0.346138
0.366552
0.388924
0.414009
0.437845
0.467231
0.5052
0.524485
0.528842
0.534902
0.54788
0.558865
0.572336
0.628468
0.65119
0.589003
0.551995
0.546306
0.543348
0.542578
0.543227
0.542342
0.53495
0.521488
0.508388
0.499573
0.495598
0.307951
0.30804
0.308091
0.307789
0.307305
0.306858
0.305911
0.305666
0.305553
0.30475
0.306375
0.311144
0.317821
0.331296
0.355196
0.37851
0.404107
0.428919
0.453158
0.489794
0.519993
0.524495
0.521985
0.516742
0.513791
0.519508
0.580049
0.653019
0.598917
0.538961
0.5297
0.525948
0.524569
0.524029
0.521113
0.514675
0.506777
0.500488
0.496184
0.494516
0.302057
0.302076
0.30209
0.301831
0.301255
0.301263
0.301134
0.300901
0.30095
0.299983
0.300709
0.305514
0.312205
0.322792
0.346483
0.372513
0.397906
0.424236
0.447484
0.477054
0.51487
0.529396
0.527051
0.517374
0.506721
0.496859
0.517945
0.609041
0.586155
0.511858
0.496328
0.49526
0.496604
0.499585
0.501858
0.501911
0.500156
0.49712
0.495202
0.494181
0.297157
0.297222
0.2974
0.29748
0.297386
0.297752
0.298116
0.297706
0.298158
0.298796
0.298826
0.301696
0.306916
0.313644
0.333354
0.368594
0.396534
0.423153
0.445534
0.470476
0.506586
0.533375
0.534436
0.526849
0.512457
0.495923
0.501942
0.575756
0.572753
0.490847
0.466476
0.470614
0.478742
0.488044
0.495072
0.497499
0.497356
0.496284
0.494928
0.494011
0.29469
0.294338
0.293287
0.29349
0.294043
0.294851
0.29584
0.296555
0.297748
0.2998
0.300403
0.301691
0.305845
0.311267
0.32684
0.367395
0.400296
0.427751
0.44788
0.469047
0.501842
0.535276
0.541847
0.536453
0.521776
0.502166
0.500995
0.56993
0.580236
0.496648
0.459854
0.464645
0.474474
0.484733
0.492711
0.496436
0.497086
0.496085
0.494685
0.49382
0.296361
0.296247
0.297808
0.299695
0.301339
0.302738
0.304207
0.305756
0.307724
0.310673
0.313311
0.314782
0.316034
0.318214
0.328441
0.372645
0.412808
0.443208
0.462253
0.480071
0.506949
0.540007
0.550295
0.545868
0.531152
0.510165
0.501339
0.569214
0.593602
0.508844
0.459196
0.463046
0.473459
0.48441
0.492743
0.496498
0.497072
0.495851
0.494462
0.493672
0.311614
0.311643
0.310646
0.310854
0.312485
0.31515
0.318864
0.322831
0.326321
0.330119
0.333923
0.333584
0.333431
0.335634
0.345899
0.390239
0.432094
0.461616
0.478638
0.493653
0.515925
0.544044
0.555359
0.552007
0.538301
0.517015
0.50136
0.56857
0.604934
0.520594
0.460935
0.463544
0.474001
0.484902
0.49303
0.496514
0.496927
0.495556
0.494264
0.493626
0.40106
0.396024
0.390523
0.389535
0.390276
0.389854
0.388773
0.387202
0.385253
0.383391
0.381718
0.377265
0.373011
0.37422
0.384789
0.434037
0.47576
0.498966
0.510198
0.519219
0.533417
0.552238
0.561107
0.560036
0.551883
0.531034
0.51007
0.573078
0.612658
0.528484
0.462466
0.463999
0.474421
0.485243
0.493135
0.496367
0.496631
0.495211
0.494072
0.493632
)
;

boundaryField
{
    inlet
    {
        type            fixedValue;
        value           uniform 1;
    }
    outlet
    {
        type            zeroGradient;
    }
    obstacle
    {
        type            zeroGradient;
    }
    empty
    {
        type            empty;
    }
}


// ************************************************************************* //
