/*--------------------------------*- C++ -*----------------------------------*\
| =========                 |                                                 |
| \\      /  F ield         | OpenFOAM: The Open Source CFD Toolbox           |
|  \\    /   O peration     | Version:  v1912                                 |
|   \\  /    A nd           | Website:  www.openfoam.com                      |
|    \\/     M anipulation  |                                                 |
\*---------------------------------------------------------------------------*/
FoamFile
{
    version     2.0;
    format      ascii;
    class       volScalarField;
    location    "6.4";
    object      p;
}
// * * * * * * * * * * * * * * * * * * * * * * * * * * * * * * * * * * * * * //

dimensions      [0 2 -2 0 0 0 0];


internalField   nonuniform List<scalar> 
10000
(
4.06021e-06
0.000102812
-0.000120457
-0.00071019
-0.00161632
-0.00278247
-0.00415141
-0.00566826
-0.00728324
-0.00895235
-0.0106369
-0.0123032
-0.0139219
-0.0154676
-0.0169182
-0.0182547
-0.0194609
-0.0205231
-0.0214295
-0.0221707
-0.0227386
-0.0231273
-0.0233318
-0.023349
-0.0231767
-0.0228138
-0.0222606
-0.021518
-0.020588
-0.0194734
-0.0181776
-0.0167051
-0.0150606
-0.0132497
-0.0112785
-0.00915361
-0.00688226
-0.00447201
-0.00193093
0.000732537
0.00350955
0.00639091
0.00936711
0.0124283
0.0155644
0.018765
0.0220196
0.0253173
0.0286471
0.031998
0.0353586
0.0387177
0.0420638
0.0453853
0.048671
0.0519093
0.0550888
0.0581984
0.061227
0.0641635
0.0669973
0.069718
0.0723155
0.0747801
0.0771025
0.0792738
0.0812859
0.0831311
0.0848021
0.0862928
0.0875976
0.0887117
0.0896313
0.0903536
0.0908766
0.0911996
0.0913231
0.0912488
0.0909798
0.0905205
0.089877
0.0890571
0.0880701
0.0869274
0.0856425
0.0842308
0.0827107
0.0811026
0.0794304
0.0777209
0.0760046
0.074316
0.0726942
0.0711829
0.069831
0.0686914
0.067818
0.0672625
0.0670672
0.0671784
-8.86717e-05
8.00286e-06
-0.000209448
-0.000736458
-0.00152193
-0.00252628
-0.0037076
-0.0050225
-0.00642973
-0.00789146
-0.00937351
-0.0108454
-0.0122799
-0.0136533
-0.0149446
-0.0161357
-0.0172108
-0.0181563
-0.0189608
-0.0196147
-0.0201101
-0.0204405
-0.020601
-0.020588
-0.020399
-0.0200327
-0.0194889
-0.018768
-0.0178717
-0.0168023
-0.0155628
-0.0141571
-0.0125895
-0.0108652
-0.00898981
-0.0069694
-0.00481064
-0.00252065
-0.000106991
0.00242239
0.00505917
0.00779466
0.0106199
0.0135255
0.0165021
0.0195396
0.0226281
0.0257574
0.028917
0.0320963
0.0352847
0.0384714
0.0416457
0.0447965
0.0479131
0.0509846
0.0540003
0.0569496
0.0598221
0.0626073
0.0652952
0.0678762
0.0703406
0.0726795
0.0748842
0.0769464
0.0788585
0.0806135
0.0822048
0.0836267
0.0848741
0.0859429
0.0868297
0.0875321
0.0880486
0.088379
0.0885241
0.0884858
0.0882674
0.0878737
0.0873107
0.0865863
0.0857097
0.0846922
0.0835468
0.0822886
0.080935
0.0795057
0.0780229
0.0765118
0.0750002
0.0735195
0.0721038
0.0707909
0.0696209
0.0686355
0.0678741
0.0673727
0.0671778
0.0672895
0.000135182
0.000226402
9.12881e-06
-0.000485626
-0.0012025
-0.00210852
-0.00316971
-0.00434995
-0.00561414
-0.00692939
-0.00826538
-0.00959454
-0.010892
-0.0121357
-0.0133059
-0.0143854
-0.0153591
-0.0162139
-0.0169388
-0.0175241
-0.0179621
-0.0182464
-0.0183719
-0.0183349
-0.0181327
-0.0177637
-0.0172275
-0.0165242
-0.0156553
-0.0146225
-0.0134287
-0.0120774
-0.0105725
-0.00891876
-0.00712143
-0.00518624
-0.00311944
-0.000927724
0.00138177
0.0038015
0.00632357
0.00893972
0.0116414
0.0144198
0.0172657
0.0201698
0.0231224
0.0261139
0.0291342
0.0321733
0.0352209
0.0382669
0.0413007
0.0443122
0.0472909
0.0502264
0.0531087
0.0559274
0.0586728
0.061335
0.0639045
0.0663719
0.0687284
0.0709654
0.0730747
0.0750486
0.0768799
0.0785621
0.080089
0.0814554
0.0826566
0.0836889
0.0845493
0.0852356
0.0857468
0.0860829
0.0862448
0.0862347
0.0860561
0.0857138
0.0852137
0.0845636
0.0837727
0.0828518
0.0818135
0.0806723
0.0794447
0.0781493
0.0768071
0.0754411
0.074077
0.072743
0.0714694
0.070289
0.069236
0.0683452
0.0676485
0.0671764
0.0669823
0.0670952
0.000723922
0.000754353
0.000504823
9.23985e-06
-0.000681202
-0.00153662
-0.00252741
-0.00362238
-0.00479107
-0.00600464
-0.00723613
-0.0084607
-0.00965576
-0.0108009
-0.0118779
-0.0128705
-0.0137645
-0.0145474
-0.0152086
-0.0157389
-0.0161307
-0.0163777
-0.0164748
-0.0164184
-0.0162056
-0.0158348
-0.0153052
-0.0146171
-0.0137713
-0.0127697
-0.0116148
-0.0103095
-0.00885786
-0.0072641
-0.00553316
-0.00367048
-0.00168196
0.000426056
0.00264679
0.00497307
0.00739735
0.00991174
0.0125081
0.0151779
0.0179124
0.0207027
0.0235396
0.0264136
0.0293153
0.0322349
0.0351627
0.0380888
0.0410033
0.0438963
0.0467578
0.049578
0.052347
0.0550551
0.0576929
0.060251
0.0627202
0.0650918
0.0673572
0.0695083
0.0715373
0.0734368
0.0752002
0.0768211
0.078294
0.0796138
0.0807762
0.0817778
0.0826158
0.0832885
0.0837948
0.0841351
0.0843103
0.0843227
0.0841759
0.0838746
0.0834247
0.0828336
0.0821103
0.0812652
0.0803104
0.0792596
0.0781284
0.0769343
0.0756965
0.0744366
0.0731779
0.0719456
0.0707671
0.0696709
0.068687
0.0678456
0.0671747
0.0667025
0.0664803
0.066542
0.00163033
0.00154258
0.00122392
0.000698861
5.90955e-06
-0.000828302
-0.00177774
-0.00281559
-0.00391555
-0.0050524
-0.00620236
-0.00734326
-0.00845472
-0.00951814
-0.0105168
-0.0114356
-0.0122613
-0.0129822
-0.0135881
-0.0140704
-0.0144217
-0.014636
-0.0147083
-0.0146349
-0.0144132
-0.0140413
-0.0135185
-0.0128447
-0.0120207
-0.0110482
-0.00992943
-0.00866718
-0.00726504
-0.00572708
-0.00405795
-0.00226277
-0.00034713
0.00168293
0.00382098
0.00606018
0.00839334
0.0108129
0.0133111
0.0158797
0.0185105
0.0211948
0.0239238
0.0266885
0.0294797
0.0322882
0.0351045
0.0379192
0.0407228
0.0435057
0.0462584
0.0489715
0.0516355
0.0542411
0.0567793
0.059241
0.0616176
0.0639006
0.0660819
0.0681536
0.0701085
0.0719396
0.0736403
0.0752049
0.0766279
0.0779048
0.0790314
0.0800046
0.0808218
0.0814815
0.0819829
0.0823261
0.0825126
0.0825445
0.0824252
0.0821595
0.081753
0.081213
0.0805479
0.0797678
0.0788839
0.0779094
0.0768587
0.075748
0.0745952
0.0734199
0.0722431
0.0710876
0.0699775
0.068938
0.0679951
0.0671749
0.0665025
0.0660032
0.0657174
0.0656713
0.00280123
0.00255407
0.00213565
0.00155543
0.000834253
-4.64141e-06
-0.000938367
-0.00194412
-0.00299936
-0.00408221
-0.00517182
-0.00624856
-0.00729422
-0.00829202
-0.0092267
-0.0100845
-0.0108531
-0.0115218
-0.0120808
-0.0125222
-0.0128389
-0.0130252
-0.0130764
-0.0129889
-0.0127599
-0.0123879
-0.0118718
-0.0112117
-0.0104083
-0.00946287
-0.00837759
-0.00715514
-0.0057988
-0.00431242
-0.00270039
-0.000967556
0.00088075
0.00283879
0.00490044
0.00705917
0.00930812
0.0116401
0.0140476
0.0165228
0.0190577
0.021644
0.0242734
0.0269372
0.0296265
0.0323324
0.035046
0.037758
0.0404594
0.043141
0.0457936
0.0484082
0.0509757
0.0534872
0.0559339
0.0583073
0.0605989
0.0628008
0.064905
0.0669043
0.0687914
0.0705599
0.0722034
0.0737165
0.0750941
0.0763316
0.0774255
0.0783725
0.0791705
0.0798178
0.0803139
0.0806591
0.0808547
0.0809028
0.0808068
0.0805712
0.0802014
0.0797045
0.0790883
0.0783624
0.0775373
0.0766253
0.0756398
0.0745957
0.0735094
0.0723985
0.0712822
0.0701807
0.0691152
0.0681076
0.0671806
0.0663566
0.0656578
0.0651066
0.0647272
0.0645319
0.00418356
0.00375023
0.00320888
0.00255186
0.00178015
0.000913786
-2.70841e-05
-0.00102331
-0.00205575
-0.00310557
-0.00415462
-0.00518567
-0.00618254
-0.00713024
-0.00801503
-0.00882441
-0.00954714
-0.0101732
-0.0106939
-0.0111016
-0.0113897
-0.0115529
-0.0115868
-0.0114878
-0.0112536
-0.0108824
-0.0103733
-0.00972627
-0.00894191
-0.00802153
-0.00696708
-0.0057811
-0.00446669
-0.00302748
-0.00146763
0.000208246
0.00199506
0.00388734
0.00587922
0.00796447
0.0101365
0.0123885
0.0147132
0.0171031
0.0195505
0.0220476
0.0245861
0.0271578
0.0297542
0.0323667
0.0349866
0.0376053
0.0402137
0.0428032
0.0453649
0.0478901
0.0503701
0.0527962
0.0551601
0.0574535
0.0596683
0.0617968
0.0638315
0.0657653
0.0675913
0.0693033
0.0708953
0.072362
0.0736985
0.0749006
0.0759647
0.076888
0.0776681
0.0783039
0.0787945
0.0791405
0.0793429
0.079404
0.0793269
0.0791159
0.0787762
0.0783144
0.0777378
0.0770554
0.0762771
0.0754142
0.074479
0.0734852
0.0724477
0.0713824
0.0703065
0.0692377
0.0681947
0.0671968
0.0662632
0.0654131
0.0646661
0.0640418
0.0635457
0.0631739
0.0057273
0.00509158
0.00441072
0.00365984
0.00281944
0.00190669
0.000939441
-6.64584e-05
-0.00109496
-0.00212999
-0.00315587
-0.00415757
-0.00512089
-0.00603251
-0.00688017
-0.00765263
-0.00833972
-0.00893237
-0.00942253
-0.00980322
-0.0100684
-0.0102132
-0.0102334
-0.0101258
-0.00988811
-0.00951872
-0.00901682
-0.00838232
-0.00761582
-0.00671857
-0.00569242
-0.00453979
-0.00326364
-0.00186742
-0.000355094
0.00126894
0.00299982
0.00483229
0.00676074
0.00877918
0.0108813
0.0130606
0.01531
0.0176224
0.0199904
0.0224063
0.0248624
0.0273505
0.0298627
0.0323905
0.0349257
0.0374597
0.0399841
0.0424903
0.0449698
0.0474143
0.0498152
0.0521644
0.0544537
0.0566751
0.0588208
0.0608835
0.0628557
0.0647307
0.066502
0.0681634
0.0697092
0.0711343
0.072434
0.0736042
0.0746416
0.0755432
0.076307
0.0769318
0.0774168
0.0777624
0.0779696
0.0780407
0.0779784
0.0777869
0.077471
0.0770368
0.0764913
0.0758427
0.0751001
0.074274
0.0733756
0.0724175
0.071413
0.0703765
0.069323
0.0682685
0.0672292
0.0662217
0.0652624
0.0643674
0.0635542
0.0628399
0.0622103
0.0616452
0.00738792
0.00654105
0.00570957
0.00485195
0.00392851
0.00295403
0.00194448
0.000912744
-0.000127893
-0.00116383
-0.00218165
-0.00316838
-0.00411162
-0.00499969
-0.00582171
-0.00656768
-0.00722851
-0.00779601
-0.00826293
-0.00862292
-0.00887053
-0.00900117
-0.00901112
-0.00889745
-0.00865802
-0.00829142
-0.00779693
-0.0071745
-0.00642473
-0.00554883
-0.00454861
-0.00342639
-0.00218502
-0.000827831
0.000641405
0.00221846
0.00389868
0.00567702
0.00754807
0.00950609
0.011545
0.0136585
0.0158398
0.0180822
0.0203784
0.0227211
0.0251027
0.0275156
0.0299517
0.0324032
0.034862
0.0373199
0.0397686
0.0422
0.0446058
0.0469778
0.0493079
0.0515882
0.0538107
0.0559678
0.0580518
0.0600557
0.0619723
0.063795
0.0655175
0.0671338
0.0686386
0.0700267
0.0712936
0.0724354
0.0734488
0.0743309
0.0750799
0.0756942
0.0761734
0.0765177
0.0767279
0.0768061
0.0767549
0.0765781
0.0762803
0.075867
0.0753447
0.0747209
0.0740041
0.0732037
0.0723301
0.0713945
0.0704089
0.0693862
0.0683398
0.0672835
0.0662316
0.0651982
0.0641972
0.063242
0.0623482
0.0615308
0.0607564
0.0599884
0.00912676
0.0080651
0.00707609
0.00610239
0.00508484
0.00403635
0.00297141
0.00190034
0.000833936
-0.000216393
-0.00123928
-0.00222363
-0.00315872
-0.00403438
-0.00484108
-0.00557
-0.00621307
-0.00676302
-0.00721337
-0.00755843
-0.0077933
-0.00791387
-0.00791678
-0.00779942
-0.00755989
-0.00719697
-0.00671007
-0.00609923
-0.00536509
-0.00450885
-0.00353228
-0.00243765
-0.00122773
9.42659e-05
0.00152468
0.00305944
0.00469409
0.00642376
0.00824324
0.010147
0.0121291
0.0141836
0.0163039
0.0184834
0.0207153
0.0229923
0.0253072
0.0276526
0.0300208
0.032404
0.0347946
0.0371844
0.0395657
0.0419304
0.0442705
0.0465782
0.0488454
0.0510645
0.0532278
0.0553279
0.0573575
0.0593094
0.0611769
0.0629534
0.064633
0.0662097
0.0676783
0.0690339
0.070272
0.0713888
0.0723809
0.0732457
0.0739811
0.0745858
0.0750591
0.0754012
0.0756127
0.0756956
0.0756521
0.0754857
0.0752007
0.074802
0.0742957
0.0736887
0.0729886
0.072204
0.0713442
0.0704194
0.0694404
0.0684185
0.0673656
0.0662937
0.0652152
0.0641421
0.0630862
0.0620582
0.0610726
0.0601425
0.0592159
0.0582409
0.0109104
0.00963376
0.00848342
0.00738712
0.00626713
0.00513498
0.00400406
0.00288246
0.00177884
0.000702613
-0.00033666
-0.00132957
-0.00226697
-0.0031401
-0.00394066
-0.00466098
-0.00529397
-0.00583324
-0.00627307
-0.00660845
-0.00683506
-0.00694924
-0.00694805
-0.0068292
-0.00659104
-0.00623258
-0.0057534
-0.00515365
-0.00443404
-0.00359579
-0.00264067
-0.00157089
-0.000389188
0.000901306
0.00229704
0.00379406
0.00538805
0.00707433
0.00884787
0.0107033
0.0126349
0.0146369
0.0167029
0.0188265
0.0210012
0.0232199
0.0254757
0.0277613
0.0300692
0.0323921
0.0347222
0.037052
0.0393738
0.0416797
0.043962
0.046213
0.048425
0.0505904
0.0527019
0.0547522
0.0567341
0.0586407
0.0604655
0.062202
0.0638442
0.0653866
0.0668239
0.0681513
0.0693644
0.0704594
0.071433
0.0722825
0.073006
0.0736018
0.0740693
0.0744084
0.0746199
0.0747051
0.0746663
0.0745065
0.0742295
0.0738399
0.0733432
0.0727456
0.0720541
0.0712763
0.0704208
0.0694965
0.068513
0.0674805
0.0664092
0.0653098
0.0641928
0.0630687
0.0619468
0.0608361
0.0597501
0.0587005
0.0576174
0.0564346
0.0127101
0.0112204
0.00990718
0.00868398
0.00745546
0.00623219
0.00502684
0.00384557
0.00269515
0.00158331
0.000517982
-0.000492964
-0.00144178
-0.00232101
-0.00312356
-0.00384277
-0.00447253
-0.00500728
-0.00544206
-0.00577251
-0.00599487
-0.00610599
-0.00610333
-0.00598494
-0.00574946
-0.00539612
-0.00492469
-0.00433547
-0.00362926
-0.00280734
-0.00187149
-0.000823909
0.000332718
0.00159531
0.00296038
0.00442408
0.00598222
0.00763024
0.00936328
0.0111761
0.0130633
0.0150191
0.0170374
0.0191119
0.0212364
0.0234039
0.0256078
0.027841
0.0300963
0.0323663
0.0346438
0.0369212
0.039191
0.0414458
0.0436779
0.0458798
0.048044
0.0501632
0.05223
0.0542373
0.0561783
0.0580461
0.0598343
0.0615366
0.0631471
0.0646603
0.066071
0.0673744
0.0685663
0.0696428
0.0706006
0.0714371
0.0721501
0.0727379
0.0731999
0.0735357
0.0737459
0.0738316
0.0737948
0.0736381
0.073365
0.0729796
0.0724867
0.071892
0.0712017
0.0704229
0.069563
0.06863
0.0676326
0.0665794
0.0654798
0.0643427
0.0631773
0.0619924
0.0607958
0.0595945
0.0584016
0.0572277
0.0559862
0.0545971
0.0145009
0.0128015
0.0113254
0.00997269
0.00863133
0.0073113
0.00602483
0.00477647
0.00357137
0.00241577
0.00131616
0.000279069
-0.000689048
-0.00158191
-0.00239353
-0.00311824
-0.00375084
-0.00428655
-0.00472113
-0.00505086
-0.00527255
-0.00538355
-0.00538174
-0.00526551
-0.00503382
-0.00468611
-0.00422236
-0.00364303
-0.00294904
-0.00214176
-0.00122301
-0.000194992
0.000939636
0.00217783
0.00351617
0.00495087
0.00647783
0.0080926
0.00979047
0.0115664
0.013415
0.0153307
0.0173076
0.0193397
0.0214207
0.0235441
0.0257032
0.0278912
0.030101
0.0323257
0.0345579
0.0367904
0.0390159
0.0412269
0.0434162
0.0455763
0.0477
0.0497799
0.051809
0.0537803
0.0556869
0.0575222
0.0592799
0.0609537
0.0625379
0.0640269
0.0654157
0.0666994
0.0678738
0.0689351
0.06988
0.0707056
0.0714097
0.0719907
0.0724475
0.0727798
0.0729878
0.0730725
0.0730354
0.0728789
0.072606
0.0722203
0.0717262
0.0711287
0.0704333
0.0696464
0.0687746
0.067825
0.0668052
0.0657229
0.0645861
0.0634027
0.0621805
0.060927
0.0596485
0.0583506
0.057046
0.0557449
0.0543445
0.0527518
0.0162613
0.0143563
0.0127183
0.0112347
0.00977761
0.00835662
0.00698384
0.00566244
0.0043962
0.00319006
0.00204926
0.000979123
-1.50487e-05
-0.000928055
-0.0017549
-0.00249088
-0.0031316
-0.00367307
-0.00411173
-0.00444446
-0.00466863
-0.00478208
-0.0047831
-0.00467047
-0.00444343
-0.00410169
-0.00364542
-0.00307525
-0.00239224
-0.00159788
-0.000694022
0.000317063
0.00143274
0.00265
0.00396545
0.00537537
0.00687573
0.00846217
0.0101301
0.0118745
0.0136903
0.0155719
0.0175138
0.0195098
0.021554
0.0236399
0.0257611
0.0279109
0.0300825
0.032269
0.0344632
0.0366581
0.0388465
0.0410211
0.0431748
0.0453003
0.0473905
0.0494382
0.0514364
0.0533782
0.0552569
0.0570659
0.058799
0.06045
0.0620131
0.063483
0.0648544
0.0661227
0.0672834
0.0683329
0.0692675
0.0700846
0.0707817
0.0713571
0.0718094
0.0721382
0.0723435
0.0724259
0.0723867
0.0722279
0.071952
0.0715622
0.0710625
0.0704571
0.0697512
0.0689501
0.0680598
0.0670867
0.0660374
0.0649186
0.0637372
0.0625002
0.0612143
0.0598857
0.0585196
0.0571204
0.0557006
0.0542705
0.0527117
0.0509191
0.0179725
0.0158662
0.014068
0.0124532
0.0108784
0.00935348
0.0078904
0.00649126
0.00515864
0.00389639
0.00270863
0.00159962
0.000573642
-0.000365076
-0.00121246
-0.00196467
-0.0026181
-0.00316949
-0.00361593
-0.00395489
-0.00418425
-0.00430233
-0.00430785
-0.00419996
-0.00397821
-0.00364258
-0.00319343
-0.00263159
-0.00195825
-0.00117501
-0.000283825
0.000712982
0.00181276
0.0030125
0.00430886
0.00569816
0.0071764
0.00873932
0.0103824
0.0121007
0.0138893
0.0157427
0.0176555
0.0196218
0.0216356
0.0236908
0.0257808
0.0278994
0.0300397
0.0321949
0.0343583
0.0365227
0.0386812
0.0408265
0.0429517
0.0450496
0.0471132
0.0491355
0.0511094
0.0530283
0.0548854
0.0566742
0.0583885
0.0600223
0.0615698
0.0630254
0.0643841
0.0656412
0.0667921
0.067833
0.0687605
0.0695715
0.0702635
0.0708346
0.0712833
0.071609
0.0718112
0.0718905
0.0718477
0.0716845
0.071403
0.071006
0.0704969
0.0698794
0.069158
0.0683375
0.0674231
0.0664205
0.0653354
0.0641738
0.0629417
0.061645
0.0602895
0.0588805
0.0574223
0.0559182
0.0543809
0.0528208
0.0511049
0.0491162
0.0196178
0.0173148
0.0153586
0.0136126
0.0119192
0.0102882
0.00873178
0.0072512
0.00584802
0.00452509
0.0032856
0.00213286
0.00107024
0.00010108
-0.00077137
-0.00154405
-0.00221411
-0.00277898
-0.00323635
-0.00358427
-0.00382111
-0.00394565
-0.00395702
-0.00385473
-0.00363866
-0.00330905
-0.00286651
-0.00231202
-0.00164693
-0.000872967
7.81788e-06
0.000993031
0.00207997
0.00326562
0.00454665
0.00591942
0.00737999
0.00892413
0.0105473
0.0122449
0.0140118
0.0158428
0.0177325
0.0196752
0.021665
0.0236958
0.0257614
0.0278554
0.0299712
0.0321022
0.0342416
0.0363826
0.0385181
0.0406411
0.0427448
0.044822
0.0468658
0.0488693
0.0508256
0.052728
0.0545697
0.0563444
0.0580459
0.0596679
0.0612049
0.0626514
0.064002
0.0652521
0.0663971
0.067433
0.0683563
0.0691638
0.0698528
0.0704213
0.0708676
0.0711906
0.0713899
0.0714656
0.0714182
0.071249
0.0709598
0.0705529
0.0700311
0.0693978
0.0686569
0.0678125
0.0668692
0.065832
0.0647059
0.0634962
0.062208
0.0608465
0.0594166
0.0579231
0.0563691
0.0547573
0.0531009
0.0514104
0.049539
0.0473582
0.0211827
0.0186873
0.0165753
0.0146989
0.0128863
0.0111478
0.00949592
0.00793106
0.00645396
0.00506668
0.00377156
0.00257108
0.00146778
0.000464231
-0.000437088
-0.00123383
-0.00192383
-0.00250516
-0.0029761
-0.00333523
-0.00358143
-0.00371388
-0.00373213
-0.00363603
-0.00342578
-0.00310191
-0.00266526
-0.002117
-0.00145864
-0.000692021
0.0001807
0.00115704
0.00223424
0.00340924
0.00467871
0.00603903
0.0074863
0.00901633
0.0106247
0.0123066
0.0140573
0.0158716
0.0177441
0.0196692
0.0216412
0.0236541
0.0257017
0.0277778
0.0298759
0.0319894
0.0341117
0.036236
0.0383554
0.0404631
0.0425521
0.0446154
0.0466462
0.0486376
0.0505827
0.0524749
0.0543075
0.056074
0.0577683
0.0593843
0.0609161
0.0623583
0.0637055
0.0649529
0.066096
0.0671305
0.0680528
0.0688596
0.0695479
0.0701156
0.0705608
0.0708822
0.0710789
0.0711508
0.0710982
0.0709219
0.0706233
0.0702043
0.0696673
0.0690153
0.0682514
0.0673793
0.066403
0.0653269
0.0641554
0.062893
0.0615443
0.0601137
0.0586057
0.057024
0.0553715
0.0536501
0.0518734
0.0500526
0.0480273
0.0456581
0.022654
0.0199703
0.0177049
0.0156989
0.0137672
0.0119203
0.0101714
0.00852008
0.00696646
0.00551188
0.00415798
0.00290648
0.0017592
0.000717991
-0.00021535
-0.00103913
-0.00175182
-0.00235206
-0.00283871
-0.00321088
-0.00346789
-0.00360935
-0.00363519
-0.00354559
-0.00334107
-0.00302244
-0.00259078
-0.00204746
-0.00139417
-0.000632856
0.000234204
0.00120445
0.00227503
0.00344285
0.00470454
0.00605649
0.00749481
0.00901536
0.0106137
0.0122853
0.0140252
0.0158283
0.0176894
0.0196029
0.0215632
0.0235645
0.0256005
0.0276652
0.0297521
0.0318549
0.0339668
0.0360812
0.0381914
0.0402905
0.0423715
0.0444277
0.0464521
0.0484379
0.0503783
0.0522666
0.0540962
0.0558607
0.0575536
0.059169
0.060701
0.0621439
0.0634925
0.0647417
0.0658869
0.0669237
0.0678484
0.0686573
0.0693476
0.0699166
0.0703623
0.0706831
0.070878
0.0709464
0.0708883
0.0707041
0.070395
0.0699623
0.0694081
0.0687348
0.0679451
0.0670422
0.0660296
0.064911
0.0636903
0.0623716
0.0609587
0.0594555
0.057866
0.0561935
0.0544401
0.0526075
0.05071
0.048759
0.0465815
0.0440274
0.0240199
0.0211517
0.0187351
0.0166007
0.0145501
0.0125944
0.0107473
0.00900794
0.00737579
0.00585161
0.0044364
0.00313125
0.00193732
0.000855804
-0.000112116
-0.000965352
-0.00170294
-0.00232407
-0.00282814
-0.00321472
-0.00348361
-0.00363483
-0.00366865
-0.00358559
-0.00338647
-0.00307236
-0.0026446
-0.00210477
-0.00145473
-0.000696573
0.000167317
0.00113429
0.00220143
0.00336556
0.00462329
0.00597095
0.00740469
0.00892038
0.0105137
0.0121799
0.0139143
0.0157118
0.0175672
0.0194751
0.0214298
0.0234256
0.0254564
0.0275161
0.0295985
0.031697
0.0338052
0.0359165
0.0380241
0.0401213
0.0422011
0.0442568
0.0462814
0.0482682
0.0502103
0.052101
0.0539338
0.0557021
0.0573995
0.0590199
0.0605574
0.0620062
0.0633609
0.0646164
0.065768
0.066811
0.0677415
0.0685559
0.0692507
0.0698234
0.0702715
0.0705933
0.0707874
0.0708528
0.0707894
0.0705972
0.0702768
0.0698293
0.0692563
0.0685598
0.0677421
0.0668059
0.0657542
0.0645902
0.0633173
0.061939
0.0604589
0.0588803
0.0572066
0.055441
0.053585
0.05164
0.0496211
0.0475404
0.0452121
0.042476
0.0252696
0.0222203
0.0196547
0.0173929
0.0152238
0.0131592
0.0112132
0.00938472
0.00767253
0.00607696
0.00459847
0.00323759
0.00199488
0.000870969
-0.000133551
-0.00101814
-0.00178236
-0.00242592
-0.00294868
-0.00335068
-0.00363215
-0.00379351
-0.00383538
-0.00375863
-0.00356433
-0.00325382
-0.00282868
-0.00229071
-0.00164196
-0.000884674
-2.13527e-05
0.000945263
0.00201218
0.00317617
0.00443375
0.00578126
0.00721479
0.00873023
0.0103232
0.0119893
0.0137235
0.0155209
0.0173763
0.0192844
0.0212395
0.0232359
0.0252678
0.0273289
0.0294132
0.0315141
0.0336252
0.03574
0.0378517
0.0399536
0.0420388
0.0441006
0.0461321
0.0481263
0.0500766
0.051976
0.0538181
0.0555962
0.0573039
0.058935
0.0604834
0.0619434
0.0633092
0.0645757
0.0657379
0.0667912
0.0677313
0.0685543
0.0692568
0.0698357
0.0702885
0.070613
0.0708076
0.0708712
0.070803
0.0706028
0.0702708
0.0698079
0.0692151
0.0684941
0.0676466
0.0666751
0.0655821
0.0643703
0.0630427
0.0616024
0.0600525
0.0583961
0.0566362
0.0547755
0.0528155
0.0507572
0.0486164
0.0464063
0.0439287
0.0410131
0.0263932
0.0231658
0.0204531
0.018065
0.0157781
0.0136045
0.0115593
0.00964079
0.00784748
0.00617918
0.00463592
0.00321769
0.00192458
0.000756656
-0.000286003
-0.00120338
-0.00199552
-0.0026626
-0.00320493
-0.00362297
-0.00391738
-0.00408895
-0.00413866
-0.00406769
-0.00387739
-0.00356935
-0.00314537
-0.00260747
-0.00195789
-0.00119905
-0.000333569
0.000635701
0.00170569
0.00287311
0.00413443
0.00548592
0.00692365
0.00844348
0.0100411
0.0117119
0.0134512
0.015254
0.0171151
0.0190292
0.0209907
0.0229939
0.025033
0.0271019
0.0291944
0.0313042
0.0334248
0.0355497
0.0376721
0.0397854
0.0418827
0.0439572
0.046002
0.0480103
0.049975
0.0518896
0.0537472
0.0555412
0.0572651
0.0589126
0.0604775
0.0619538
0.0633358
0.0646181
0.0657955
0.0668632
0.0678168
0.0686521
0.0693655
0.0699535
0.0704135
0.0707428
0.0709397
0.0710027
0.0709306
0.070723
0.0703797
0.0699011
0.0692879
0.0685414
0.0676631
0.0666548
0.0655187
0.0642573
0.062873
0.0613687
0.059747
0.0580109
0.0561629
0.0542056
0.0521404
0.049968
0.0477051
0.0453658
0.0427398
0.0396467
0.0273814
0.0239785
0.0211205
0.0186071
0.0162028
0.0139205
0.0117758
0.00976686
0.00789165
0.00614968
0.00454053
0.00306378
0.00171904
0.000505923
-0.000575987
-0.00152715
-0.00234807
-0.00303938
-0.00360179
-0.00403617
-0.00434355
-0.00452509
-0.00458213
-0.00451613
-0.00432876
-0.00402183
-0.00359736
-0.00305759
-0.00240491
-0.00164195
-0.000771456
0.000203593
0.00128005
0.00245455
0.00372351
0.00508316
0.00652952
0.00805841
0.00966549
0.0113462
0.0130959
0.0149095
0.0167819
0.0187077
0.0206816
0.0226976
0.0247501
0.0268331
0.0289403
0.0310654
0.033202
0.0353436
0.0374834
0.0396147
0.0417306
0.0438245
0.0458892
0.0479179
0.0499037
0.0518397
0.0537191
0.0555351
0.0572812
0.0589509
0.0605379
0.062036
0.0634394
0.0647425
0.0659398
0.0670265
0.0679977
0.0688491
0.0695767
0.0701771
0.070647
0.0709837
0.0711849
0.0712489
0.0711743
0.0709602
0.0706061
0.0701121
0.0694785
0.0687061
0.0677961
0.06675
0.0655697
0.0642572
0.0628147
0.0612448
0.0595497
0.0577322
0.0557947
0.0537396
0.0515681
0.0492809
0.0468956
0.0444271
0.0416534
0.0383842
0.0282254
0.0246492
0.0216473
0.0190096
0.0164885
0.0140977
0.0118535
0.00975381
0.00779622
0.00597992
0.00430414
0.00276805
0.00137085
0.000111726
-0.00101017
-0.00199574
-0.00284594
-0.0035618
-0.00414445
-0.00459512
-0.0049152
-0.00510619
-0.00516976
-0.00510769
-0.00492192
-0.00461451
-0.00418771
-0.00364392
-0.00298575
-0.00221596
-0.00133748
-0.000353407
0.000733007
0.00191832
0.00319891
0.00457093
0.00603037
0.00757301
0.00919447
0.0108902
0.0126555
0.0144853
0.0163746
0.0183181
0.0203101
0.0223452
0.0244173
0.0265205
0.0286488
0.0307957
0.0329548
0.0351196
0.0372834
0.0394393
0.0415806
0.0437004
0.0457916
0.0478474
0.0498607
0.0518245
0.053732
0.0555763
0.0573507
0.0590485
0.0606633
0.0621889
0.063619
0.064948
0.0661702
0.0672804
0.0682736
0.0691452
0.0698909
0.070507
0.0709899
0.0713367
0.0715447
0.0716119
0.0715365
0.0713172
0.0709533
0.0704445
0.0697907
0.0689924
0.0680505
0.0669661
0.0657407
0.0643762
0.0628744
0.0612375
0.0594679
0.0575677
0.0555394
0.0533855
0.0511067
0.048704
0.0461959
0.0435982
0.0406771
0.0372326
0.0289169
0.0251692
0.0220246
0.0192633
0.016626
0.014127
0.0117834
0.00959274
0.0075525
0.00566149
0.00391861
0.00232268
0.000872518
-0.000433082
-0.00159536
-0.00261563
-0.00349525
-0.00423565
-0.00483835
-0.00530494
-0.00563715
-0.00583679
-0.00590585
-0.0058464
-0.00566067
-0.00535097
-0.00491977
-0.00436967
-0.00370344
-0.00292399
-0.00203442
-0.00103796
6.20148e-05
0.00126198
0.00255824
0.00394691
0.00542393
0.00698504
0.00862581
0.0103417
0.0121279
0.0139794
0.0158913
0.0178581
0.0198743
0.0219343
0.0240322
0.026162
0.0283177
0.0304928
0.032681
0.0348756
0.0370699
0.0392572
0.0414305
0.0435828
0.0457072
0.0477966
0.049844
0.0518422
0.0537842
0.0556631
0.0574719
0.059204
0.0608525
0.0624112
0.0638737
0.065234
0.0664861
0.0676247
0.0686445
0.0695406
0.0703085
0.0709441
0.0714435
0.0718035
0.072021
0.0720938
0.0720196
0.0717969
0.0714246
0.070902
0.0702287
0.069405
0.0684313
0.0673084
0.0660377
0.0646205
0.0630586
0.0613539
0.0595086
0.0575248
0.0554048
0.0531509
0.050764
0.0482451
0.0456136
0.0428864
0.0398179
0.0361984
0.0294478
0.0255298
0.0222435
0.0193593
0.0166063
0.0139993
0.0115564
0.0092749
0.00715189
0.00518599
0.0033758
0.00171981
0.000216475
-0.00113576
-0.00233851
-0.00339345
-0.00430233
-0.00506695
-0.00568921
-0.00617105
-0.00651451
-0.00672174
-0.00679499
-0.00673663
-0.00654915
-0.00623514
-0.00579727
-0.00523835
-0.00456131
-0.00376924
-0.00286536
-0.00185304
-0.000735776
0.000482784
0.00179887
0.00320854
0.00470769
0.00629202
0.00795707
0.00969822
0.0115107
0.0133894
0.0153294
0.0173254
0.0193717
0.0214627
0.0235926
0.0257553
0.0279448
0.0301546
0.0323783
0.0346093
0.0368408
0.0390661
0.041278
0.0434697
0.045634
0.0477637
0.0498517
0.0518909
0.053874
0.0557938
0.0576435
0.059416
0.0611044
0.0627021
0.0642027
0.0655997
0.0668872
0.0680594
0.0691107
0.0700359
0.0708303
0.0714894
0.0720091
0.0723857
0.0726159
0.072697
0.0726265
0.0724025
0.0720236
0.0714887
0.0707971
0.0699487
0.0689437
0.0677826
0.0664664
0.0649963
0.0633739
0.0616008
0.0596791
0.0576108
0.0553982
0.0530435
0.0505477
0.0479118
0.0451563
0.0422989
0.0390827
0.0352879
0.0298102
0.0257229
0.0222955
0.019289
0.0164206
0.013706
0.0111639
0.00879159
0.00658583
0.00454504
0.00266754
0.000951497
-0.000604949
-0.0020037
-0.00324672
-0.00433603
-0.00527371
-0.00606195
-0.00670298
-0.0071991
-0.00755267
-0.00776614
-0.00784204
-0.00778301
-0.00759179
-0.00727121
-0.0068242
-0.00625376
-0.00556301
-0.00475518
-0.00383363
-0.00280185
-0.00166349
-0.00042229
0.000917872
0.00235299
0.0038789
0.00549127
0.0071856
0.00895722
0.0108013
0.0127128
0.0146867
0.0167175
0.0187998
0.020928
0.023096
0.025298
0.0275276
0.0297786
0.0320444
0.0343184
0.0365938
0.0388637
0.0411211
0.0433589
0.0455698
0.0477466
0.049882
0.0519688
0.0539996
0.055967
0.057864
0.0596833
0.0614178
0.0630607
0.0646053
0.0660449
0.0673734
0.0685844
0.0696724
0.0706318
0.0714573
0.0721443
0.0726883
0.0730853
0.0733317
0.0734243
0.0733604
0.0731376
0.0727542
0.0722088
0.0715004
0.0706286
0.0695931
0.0683944
0.0670331
0.0655103
0.0638271
0.0619853
0.0599867
0.0578333
0.0555273
0.0530711
0.0504655
0.0477117
0.0448313
0.041843
0.0384781
0.0345072
0.0299963
0.0257402
0.0221723
0.0190437
0.0160602
0.0132382
0.0105972
0.00813417
0.0058458
0.00373025
0.0017856
9.73042e-06
-0.00159954
-0.00304443
-0.00432725
-0.00545034
-0.00641612
-0.00722711
-0.00788587
-0.00839504
-0.0087573
-0.00897539
-0.00905214
-0.00899044
-0.00879326
-0.00846368
-0.00800486
-0.00742002
-0.00671245
-0.00588556
-0.00494283
-0.00388789
-0.0027245
-0.00145651
-8.79167e-05
0.00137719
0.00293457
0.00457987
0.00630853
0.00811585
0.00999696
0.0119468
0.0139602
0.0160318
0.0181562
0.0203275
0.0225399
0.0247874
0.0270636
0.0293623
0.0316768
0.0340005
0.0363265
0.0386479
0.0409575
0.0432482
0.0455126
0.0477433
0.049933
0.0520742
0.0541594
0.0561812
0.0581321
0.0600047
0.0617918
0.0634863
0.065081
0.0665693
0.0679445
0.0692002
0.0703303
0.071329
0.0721907
0.0729103
0.0734831
0.0739047
0.0741711
0.0742787
0.0742246
0.0740059
0.0736206
0.073067
0.0723437
0.0714499
0.0703853
0.0691499
0.0677442
0.0661689
0.0644252
0.0625145
0.0604387
0.0581997
0.0557996
0.053241
0.0505248
0.0476521
0.0446458
0.0415256
0.0380109
0.0338624
0.0299983
0.0255736
0.0218653
0.0186148
0.0155164
0.0125872
0.00984746
0.00729398
0.00492323
0.00273318
0.0007217
-0.0011136
-0.0027752
-0.00426564
-0.00558754
-0.00674357
-0.00773648
-0.00856909
-0.00924429
-0.00976502
-0.0101343
-0.0103552
-0.0104307
-0.0103641
-0.0101585
-0.00981731
-0.00934382
-0.00874149
-0.00801383
-0.00716439
-0.00619683
-0.00511487
-0.0039224
-0.00262338
-0.0012219
0.000277828
0.00187151
0.0035547
0.00532282
0.00717113
0.00909471
0.0110885
0.0131472
0.0152655
0.0174379
0.0196585
0.0219215
0.0242208
0.0265502
0.0289031
0.0312729
0.033653
0.0360364
0.0384161
0.0407848
0.0431353
0.0454602
0.0477518
0.0500027
0.0522053
0.0543519
0.0564348
0.0584464
0.0603792
0.0622256
0.0639781
0.0656295
0.0671727
0.0686008
0.0699071
0.0710851
0.0721286
0.0730318
0.0737892
0.0743956
0.0748462
0.0751368
0.0752635