/*--------------------------------*- C++ -*----------------------------------*\
| =========                 |                                                 |
| \\      /  F ield         | OpenFOAM: The Open Source CFD Toolbox           |
|  \\    /   O peration     | Version:  v1912                                 |
|   \\  /    A nd           | Website:  www.openfoam.com                      |
|    \\/     M anipulation  |                                                 |
\*---------------------------------------------------------------------------*/
FoamFile
{
    version     2.0;
    format      ascii;
    class       volVectorField;
    location    "2.16";
    object      grad(T);
}
// * * * * * * * * * * * * * * * * * * * * * * * * * * * * * * * * * * * * * //

dimensions      [0 -1 0 1 0 0 0];


internalField   nonuniform List<vector> 
1900
(
(0.43881 -6.43696e-06 0)
(-0.245339 -7.54509e-06 0)
(0.00841334 -2.29295e-05 0)
(0.00769102 -4.02342e-05 0)
(0.00838023 -4.50294e-05 0)
(0.0104666 -6.02075e-05 0)
(0.0132256 -0.000289551 0)
(0.0154345 -0.00142076 0)
(0.0212494 -0.00253803 0)
(0.00766212 -0.00227696 0)
(0.438796 -9.51728e-06 0)
(-0.245356 -1.21821e-05 0)
(0.00838065 -3.72692e-05 0)
(0.00766892 -6.75154e-05 0)
(0.00836026 -6.4077e-05 0)
(0.0102221 -6.00703e-05 0)
(0.0118651 -0.000265071 0)
(0.0131861 -0.00115899 0)
(0.0203932 -0.00134868 0)
(0.029538 -0.00318691 0)
(0.438788 -3.46945e-13 0)
(-0.245367 -4.11997e-14 0)
(0.008358 1.6263e-13 0)
(0.00766421 1.38778e-13 0)
(0.00838767 2.40693e-13 0)
(0.0102656 4.83554e-13 0)
(0.0121267 6.41848e-13 0)
(0.0143509 3.20924e-13 0)
(0.0192215 -1.9082e-13 0)
(0.0261411 -1.97325e-13 0)
(0.438796 9.51728e-06 0)
(-0.245356 1.21821e-05 0)
(0.00838065 3.72692e-05 0)
(0.00766892 6.75154e-05 0)
(0.00836026 6.4077e-05 0)
(0.0102221 6.00703e-05 0)
(0.0118651 0.000265071 0)
(0.0131861 0.00115899 0)
(0.0203932 0.00134868 0)
(0.029538 0.00318691 0)
(0.43881 6.43696e-06 0)
(-0.245339 7.54509e-06 0)
(0.00841334 2.29295e-05 0)
(0.00769102 4.02342e-05 0)
(0.00838023 4.50294e-05 0)
(0.0104666 6.02075e-05 0)
(0.0132256 0.000289551 0)
(0.0154345 0.00142076 0)
(0.0212494 0.00253803 0)
(0.00766212 0.00227696 0)
(0.0220022 0.0161162 1.00838e-15)
(0.0638194 0.0185706 -1.2293e-15)
(0.0397293 0.01894 -1.56299e-15)
(-0.195283 0.0487485 0)
(-0.139768 0.335764 -6.53487e-15)
(0.043976 0.0140111 1.0113e-15)
(0.0590641 0.0127163 1.2293e-15)
(0.0516464 0.00720761 1.56299e-15)
(-0.0653397 0.0162575 0)
(-0.107175 0.261926 0)
(0.0453873 -1.41418e-13 0)
(0.0587764 -7.13291e-14 0)
(0.0450529 1.20467e-13 0)
(-0.0644321 2.09448e-13 0)
(0.0392381 2.06515e-13 0)
(0.043976 -0.0140111 1.0113e-15)
(0.0590641 -0.0127163 1.2293e-15)
(0.0516464 -0.00720761 1.56299e-15)
(-0.0653397 -0.0162575 0)
(-0.107175 -0.261926 0)
(0.0220022 -0.0161162 -3.03098e-15)
(0.0638194 -0.0185706 -1.2293e-15)
(0.0397293 -0.01894 -1.56299e-15)
(-0.195283 -0.0487485 -4.26312e-15)
(-0.139768 -0.335764 6.53487e-15)
(0.201077 -0.126937 2.90479e-15)
(-0.132895 -0.0287986 -2.42698e-15)
(-0.198107 -0.0133557 0)
(-0.38148 0.125974 1.79874e-15)
(-0.779755 0.36291 -7.68048e-16)
(0.0804149 -0.152574 -1.45048e-15)
(-0.107411 -0.0347232 1.21306e-15)
(-0.140325 -0.0252093 0)
(-0.221458 0.136905 -1.12762e-15)
(-0.288538 0.426104 1.97953e-16)
(0.110913 2.57361e-13 0)
(-0.103653 1.15834e-13 0)
(-0.133399 3.25261e-13 0)
(-0.198414 9.84994e-13 4.52696e-16)
(-0.29095 1.18565e-12 -3.95905e-16)
(0.0804149 0.152574 -1.45048e-15)
(-0.107411 0.0347232 1.21306e-15)
(-0.140325 0.0252093 0)
(-0.221458 -0.136905 -1.12762e-15)
(-0.288538 -0.426104 1.97953e-16)
(0.201077 0.126937 1.45048e-15)
(-0.132895 0.0287986 8.67319e-19)
(-0.198107 0.0133557 0)
(-0.38148 -0.125974 3.79394e-18)
(-0.779755 -0.36291 7.68048e-16)
(-0.779423 2.52019 0)
(-0.0158415 0.846504 0)
(0.269051 0.264571 0)
(0.038479 0.0822437 0)
(-0.0169793 0.0359542 0)
(0.0184999 0.0145822 0)
(0.0468308 0.00672447 0)
(0.0637736 0.00636242 0)
(0.0792864 0.00559972 0)
(0.0922012 0.00473305 0)
(0.103421 0.00441083 0)
(0.110002 0.00418683 0)
(0.112951 0.00405294 0)
(0.112482 0.00398918 0)
(0.108052 0.00395817 0)
(0.0971298 0.00394814 0)
(0.075582 0.0038081 0)
(0.0441684 0.00355719 0)
(0.0159566 0.0032736 0)
(0.00255745 0.00313911 0)
(-0.00294317 0.00312744 0)
(-0.0173669 0.00311912 0)
(-0.0469159 0.00309241 0)
(-0.079202 0.00302519 0)
(-0.101224 0.00290533 0)
(-0.112728 0.00273301 0)
(-0.118257 0.00251533 0)
(-0.120808 0.00226313 0)
(-0.121669 0.00198904 0)
(-0.12131 0.00170613 0)
(-0.119808 0.00142693 0)
(-0.116955 0.00116243 0)
(-0.11245 0.000921537 0)
(-0.106072 0.00070971 0)
(-0.096877 0.000532521 0)
(-0.0807884 0.000387855 0)
(-0.069041 0.000292095 0)
(-0.292168 0.00019526 0)
(-0.653293 0.00010046 0)
(-0.395057 5.98416e-06 0)
(-0.647617 1.46019 0)
(-0.367001 0.93659 0)
(0.11228 0.323924 0)
(-0.0151573 0.0544553 0)
(-0.0238136 0.0154038 0)
(0.0153058 0.00722093 0)
(0.045748 0.00205876 0)
(0.063686 0.00207224 0)
(0.0790663 0.00144988 0)
(0.0920588 0.0010625 0)
(0.103285 0.000788625 0)
(0.109843 0.000433221 0)
(0.11282 8.06176e-05 0)
(0.112418 -8.88044e-05 0)
(0.108052 -0.000120349 0)
(0.0971443 -7.46016e-05 0)
(0.0755623 -0.000109799 0)
(0.0441292 -0.000207815 0)
(0.0159287 -0.000313711 0)
(0.00255026 -0.00034796 0)
(-0.00294357 -0.000350464 0)
(-0.0173665 -0.000349994 0)
(-0.0469155 -0.00034816 0)
(-0.0792024 -0.000346494 0)
(-0.101226 -0.000347162 0)
(-0.11273 -0.000350346 0)
(-0.11826 -0.000354543 0)
(-0.12081 -0.000357465 0)
(-0.121669 -0.000356672 0)
(-0.121308 -0.000350026 0)
(-0.119803 -0.000336062 0)
(-0.116947 -0.000314247 0)
(-0.112439 -0.000285131 0)
(-0.106059 -0.000250139 0)
(-0.0968631 -0.000212165 0)
(-0.0807755 -0.000173061 0)
(-0.0690285 -0.000141741 0)
(-0.292153 -0.000106229 0)
(-0.653274 -6.27876e-05 0)
(-0.395046 -4.75263e-06 0)
(-0.558023 1.45086e-12 0)
(-0.346391 6.46579e-13 0)
(0.0124298 -7.88511e-15 0)
(-0.0512724 -3.03577e-13 0)
(-0.0307202 -1.18277e-14 0)
(0.0146177 8.27936e-14 0)
(0.045333 -9.85638e-14 0)
(0.0635964 -1.41932e-13 0)
(0.0789926 1.14334e-13 0)
(0.0920089 1.10391e-13 0)
(0.103238 -1.02506e-13 0)
(0.109796 4.73106e-14 0)
(0.112799 1.14334e-13 0)
(0.112424 -2.55872e-12 0)
(0.108057 -1.65035e-11 0)
(0.0971328 -3.30307e-11 0)
(0.0755433 -1.63103e-11 0)
(0.0441091 3.03687e-10 0)
(0.0159158 4.00276e-10 0)
(0.00254676 -1.05156e-10 0)
(-0.00294376 7.19595e-11 0)
(-0.0173662 7.20541e-11 0)
(-0.0469149 -1.10295e-09 0)
(-0.0792017 4.85084e-10 0)
(-0.101225 9.93449e-10 0)
(-0.11273 4.39303e-10 0)
(-0.118259 9.49682e-11 0)
(-0.120808 -3.48561e-11 0)
(-0.121667 4.14678e-11 0)
(-0.121304 2.11632e-10 0)
(-0.119797 4.60486e-10 0)
(-0.11694 9.24024e-10 0)
(-0.112431 1.12456e-09 0)
(-0.106051 1.41947e-09 0)
(-0.0968546 1.31086e-09 0)
(-0.0807679 1.10145e-09 0)
(-0.0690215 -1.15099e-10 0)
(-0.292145 -2.28396e-10 0)
(-0.653263 -4.47149e-10 0)
(-0.39504 -8.20485e-11 0)
(-0.647617 -1.46019 0)
(-0.367001 -0.93659 0)
(0.11228 -0.323924 0)
(-0.0151573 -0.0544553 0)
(-0.0238136 -0.0154038 0)
(0.0153058 -0.00722093 0)
(0.045748 -0.00205876 0)
(0.063686 -0.00207224 0)
(0.0790663 -0.00144988 0)
(0.0920588 -0.0010625 0)
(0.103285 -0.000788625 0)
(0.109843 -0.000433221 0)
(0.11282 -8.06176e-05 0)
(0.112418 8.88044e-05 0)
(0.108052 0.000120349 0)
(0.0971443 7.46015e-05 0)
(0.0755623 0.000109799 0)
(0.0441292 0.000207815 0)
(0.0159287 0.000313711 0)
(0.00255026 0.00034796 0)
(-0.00294357 0.000350465 0)
(-0.0173665 0.000349994 0)
(-0.0469155 0.000348158 0)
(-0.0792024 0.000346494 0)
(-0.101226 0.000347164 0)
(-0.11273 0.000350347 0)
(-0.11826 0.000354543 0)
(-0.12081 0.000357465 0)
(-0.121669 0.000356672 0)
(-0.121308 0.000350026 0)
(-0.119803 0.000336063 0)
(-0.116947 0.000314248 0)
(-0.112439 0.000285132 0)
(-0.106059 0.000250141 0)
(-0.0968631 0.000212167 0)
(-0.0807755 0.000173063 0)
(-0.0690285 0.000141741 0)
(-0.292153 0.000106229 0)
(-0.653274 6.27868e-05 0)
(-0.395046 4.75248e-06 0)
(-0.779423 -2.52019 0)
(-0.0158415 -0.846504 0)
(0.269051 -0.264571 0)
(0.038479 -0.0822437 0)
(-0.0169793 -0.0359542 0)
(0.0184999 -0.0145822 0)
(0.0468308 -0.00672447 0)
(0.0637736 -0.00636242 0)
(0.0792864 -0.00559972 0)
(0.0922012 -0.00473305 0)
(0.103421 -0.00441083 0)
(0.110002 -0.00418683 0)
(0.112951 -0.00405294 0)
(0.112482 -0.00398918 0)
(0.108052 -0.00395817 0)
(0.0971298 -0.00394814 0)
(0.075582 -0.0038081 0)
(0.0441684 -0.00355719 0)
(0.0159566 -0.0032736 0)
(0.00255745 -0.00313911 0)
(-0.00294317 -0.00312744 0)
(-0.0173669 -0.00311912 0)
(-0.0469159 -0.00309241 0)
(-0.079202 -0.00302519 0)
(-0.101224 -0.00290533 0)
(-0.112728 -0.00273301 0)
(-0.118257 -0.00251533 0)
(-0.120808 -0.00226313 0)
(-0.121669 -0.00198904 0)
(-0.12131 -0.00170614 0)
(-0.119808 -0.00142693 0)
(-0.116955 -0.00116243 0)
(-0.11245 -0.00092154 0)
(-0.106072 -0.000709713 0)
(-0.096877 -0.000532524 0)
(-0.0807884 -0.000387857 0)
(-0.069041 -0.000292095 0)
(-0.292168 -0.00019526 0)
(-0.653293 -0.000100459 0)
(-0.395057 -5.98408e-06 0)
(0.294666 -1.38753 0)
(0.641858 -0.286745 0)
(0.410414 -0.107083 0)
(0.0662306 -0.105598 0)
(0.0107264 -0.0518258 0)
(0.0299477 -0.024337 0)
(0.049652 -0.0168691 0)
(0.0642903 -0.0141126 0)
(0.0798339 -0.0129683 0)
(0.0926399 -0.0113061 0)
(0.10347 -0.0109048 0)
(0.109883 -0.0109287 0)
(0.112794 -0.0112432 0)
(0.112402 -0.0115802 0)
(0.108077 -0.0118577 0)
(0.0972553 -0.0120174 0)
(0.0757847 -0.0120422 0)
(0.0444191 -0.011886 0)
(0.0161588 -0.0116491 0)
(0.00263364 -0.0115257 0)
(-0.0029315 -0.0115146 0)
(-0.0173441 -0.011492 0)
(-0.0468561 -0.0114049 0)
(-0.0790855 -0.0112016 0)
(-0.101044 -0.0108645 0)
(-0.112489 -0.0103977 0)
(-0.117969 -0.0098143 0)
(-0.120482 -0.00913327 0)
(-0.12132 -0.0083768 0)
(-0.120953 -0.00756886 0)
(-0.119455 -0.00673405 0)
(-0.11662 -0.00589637 0)
(-0.112142 -0.00507892 0)
(-0.1058 -0.00429983 0)
(-0.0966451 -0.00358793 0)
(-0.0806098 -0.00294196 0)
(-0.0688933 -0.00246986 0)
(-0.292016 -0.00188456 0)
(-0.653133 -0.00118914 0)
(-0.394975 -0.00013739 0)
(0.548377 -0.273558 0)
(0.865368 -0.00134407 0)
(0.367808 -0.0724003 0)
(0.0768453 -0.0890789 0)
(0.0464698 -0.0594164 0)
(0.0460468 -0.040003 0)
(0.0551706 -0.0348402 0)
(0.0672554 -0.0308228 0)
(0.0816972 -0.0299441 0)
(0.0939545 -0.0282793 0)
(0.103759 -0.0283172 0)
(0.10974 -0.0289236 0)
(0.112407 -0.0299076 0)
(0.111933 -0.0309965 0)
(0.107618 -0.0320477 0)
(0.0968847 -0.0329438 0)
(0.0756 -0.0335646 0)
(0.0444128 -0.0338025 0)
(0.0161953 -0.0337768 0)
(0.00264619 -0.0337362 0)
(-0.00291697 -0.0337298 0)
(-0.0172734 -0.0336726 0)
(-0.0466681 -0.0334416 0)
(-0.0787437 -0.0329544 0)
(-0.100546 -0.0322201 0)
(-0.111844 -0.0312644 0)
(-0.117193 -0.0301086 0)
(-0.119597 -0.0287739 0)
(-0.120348 -0.0272831 0)
(-0.119919 -0.0256601 0)
(-0.118385 -0.0239304 0)
(-0.11554 -0.0221212 0)
(-0.111077 -0.0202639 0)
(-0.104782 -0.0183885 0)
(-0.0956929 -0.0165656 0)
(-0.0798068 -0.0147855 0)
(-0.0681012 -0.0133098 0)
(-0.291016 -0.0112095 0)
(-0.651695 -0.00825211 0)
(-0.394088 -0.00188057 0)
(0.556981 0.0136954 0)
(0.835701 -0.0142157 0)
(0.325869 -0.0723038 0)
(0.0787424 -0.0777247 0)
(0.0580178 -0.0701437 0)
(0.0536302 -0.0635046 0)
(0.0584983 -0.0626658 0)
(0.0690084 -0.0592902 0)
(0.082285 -0.0582138 0)
(0.0942076 -0.0574986 0)
(0.102849 -0.0580707 0)
(0.108351 -0.0593451 0)
(0.110796 -0.0610004 0)
(0.11034 -0.0627644 0)
(0.106201 -0.0644514 0)
(0.0957936 -0.0659002 0)
(0.0749572 -0.0669532 0)
(0.0442146 -0.0675077 0)
(0.0162227 -0.0676392 0)
(0.00267888 -0.0676312 0)
(-0.00287026 -0.067622 0)
(-0.0170663 -0.0674991 0)
(-0.046164 -0.0670346 0)
(-0.0779085 -0.0661545 0)
(-0.0994159 -0.0649548 0)
(-0.110454 -0.0635062 0)
(-0.115569 -0.0618396 0)
(-0.117759 -0.0599736 0)
(-0.11832 -0.0579238 0)
(-0.117722 -0.0557046 0)
(-0.116045 -0.0533302 0)
(-0.113087 -0.050817 0)
(-0.108545 -0.0481925 0)
(-0.102237 -0.0454949 0)
(-0.0931731 -0.0428143 0)
(-0.0774725 -0.0401169 0)
(-0.0654473 -0.037385 0)
(-0.287142 -0.0336877 0)
(-0.644143 -0.027394 0)
(-0.388835 -0.0105693 0)
(0.521481 0.0198132 0)
(0.782496 -0.0586127 0)
(0.306608 -0.0833664 0)
(0.0789268 -0.0912779 0)
(0.0601729 -0.096945 0)
(0.0532528 -0.0941164 0)
(0.0592318 -0.0912141 0)
(0.0715455 -0.0876089 0)
(0.0834236 -0.0853124 0)
(0.0940924 -0.0845302 0)
(0.10198 -0.0847054 0)
(0.106917 -0.085704 0)
(0.109112 -0.0871707 0)
(0.108607 -0.088834 0)
(0.104596 -0.0904742 0)
(0.0944739 -0.0919318 0)
(0.074051 -0.093093 0)
(0.0437517 -0.093872 0)
(0.0160763 -0.0942423 0)
(0.00266279 -0.0943266 0)
(-0.00278974 -0.0943194 0)
(-0.0167074 -0.0941223 0)
(-0.0453724 -0.093422 0)
(-0.0767396 -0.0922273 0)
(-0.0979938 -0.0907682 0)
(-0.108842 -0.0891571 0)
(-0.113789 -0.0874225 0)
(-0.115824 -0.0855744 0)
(-0.116235 -0.0836189 0)
(-0.115492 -0.0815594 0)
(-0.113675 -0.0793973 0)
(-0.110589 -0.0771396 0)
(-0.105948 -0.0748114 0)
(-0.099599 -0.0724689 0)
(-0.0905104 -0.07015 0)
(-0.0745749 -0.0677773 0)
(-0.0619058 -0.0644325 0)
(-0.281388 -0.06114 0)
(-0.629417 -0.0530001 0)
(-0.377875 -0.0307018 0)
(0.481407 0.0147448 0)
(0.736273 -0.0956683 0)
(0.294392 -0.101587 0)
(0.0656576 -0.111127 0)
(0.0552826 -0.118378 0)
(0.0591527 -0.115609 0)
(0.0647692 -0.109686 0)
(0.0746954 -0.105642 0)
(0.0852517 -0.102836 0)
(0.0947925 -0.101336 0)
(0.101718 -0.100999 0)
(0.105975 -0.101539 0)
(0.10778 -0.102633 0)
(0.107157 -0.103973 0)
(0.103216 -0.105342 0)
(0.09327 -0.106619 0)
(0.0730875 -0.107765 0)
(0.0431071 -0.108731 0)
(0.0157846 -0.109336 0)
(0.00260459 -0.109513 0)
(-0.00267336 -0.109507 0)
(-0.0162016 -0.109237 0)
(-0.0443379 -0.108318 0)
(-0.0753512 -0.106869 0)
(-0.0964574 -0.105255 0)
(-0.10723 -0.103606 0)
(-0.112116 -0.101933 0)
(-0.114094 -0.100234 0)
(-0.114451 -0.0985101 0)
(-0.113654 -0.0967607 0)
(-0.111786 -0.0949878 0)
(-0.108668 -0.093202 0)
(-0.104044 -0.0914518 0)
(-0.0977447 -0.0898164 0)
(-0.0886521 -0.0882168 0)
(-0.0719629 -0.086504 0)
(-0.0590514 -0.0831738 0)
(-0.276125 -0.0818399 0)
(-0.614812 -0.0726723 0)
(-0.367348 -0.056321 0)
(0.415082 -0.0348608 0)
(0.670395 -0.116385 0)
(0.291712 -0.11894 0)
(0.0627467 -0.122213 0)
(0.0558532 -0.121916 0)
(0.0616291 -0.12201 0)
(0.0688366 -0.1181 0)
(0.078146 -0.114285 0)
(0.0875737 -0.111246 0)
(0.0958626 -0.109536 0)
(0.101784 -0.108989 0)
(0.105342 -0.109303 0)
(0.106767 -0.11013 0)
(0.105997 -0.111189 0)
(0.102046 -0.112314 0)
(0.0921389 -0.113452 0)
(0.072016 -0.114632 0)
(0.0422376 -0.11583 0)
(0.0153231 -0.116691 0)
(0.00249802 -0.116961 0)
(-0.00252447 -0.116958 0)
(-0.0155613 -0.116624 0)
(-0.0430901 -0.115505 0)
(-0.0737882 -0.113833 0)
(-0.0948496 -0.112097 0)
(-0.105641 -0.110428 0)
(-0.11054 -0.108807 0)
(-0.112525 -0.107215 0)
(-0.112888 -0.105645 0)
(-0.112098 -0.104098 0)
(-0.110246 -0.102568 0)
(-0.107182 -0.101095 0)
(-0.102686 -0.0997246 0)
(-0.0964816 -0.09858 0)
(-0.0873185 -0.0973768 0)
(-0.0697152 -0.0959656 0)
(-0.0574112 -0.0931321 0)
(-0.271269 -0.0937691 0)
(-0.604826 -0.0822599 0)
(-0.362118 -0.0761291 0)
(0.402847 -0.077179 0)
(0.655252 -0.111696 0)
(0.288776 -0.121296 0)
(0.0627893 -0.122107 0)
(0.0554781 -0.123286 0)
(0.0628296 -0.12414 0)
(0.0722128 -0.120973 0)
(0.0813007 -0.117647 0)
(0.0898279 -0.114795 0)
(0.0969672 -0.113202 0)
(0.101942 -0.11265 0)
(0.104876 -0.112864 0)
(0.105963 -0.113494 0)
(0.105052 -0.11433 0)
(0.101035 -0.11527 0)
(0.0910363 -0.116327 0)
(0.070796 -0.117601 0)
(0.0411236 -0.119063 0)
(0.014694 -0.120174 0)
(0.002347 -0.120526 0)
(-0.00234807 -0.120525 0)
(-0.0148015 -0.120138 0)
(-0.041649 -0.118842 0)
(-0.0720674 -0.116966 0)
(-0.0931759 -0.115118 0)
(-0.104059 -0.113427 0)
(-0.10902 -0.111838 0)
(-0.111047 -0.110312 0)
(-0.111447 -0.108837 0)
(-0.110688 -0.107395 0)
(-0.108892 -0.106013 0)
(-0.105928 -0.104684 0)
(-0.101621 -0.103555 0)
(-0.0954823 -0.102667 0)
(-0.0861328 -0.101537 0)
(-0.0678725 -0.100262 0)
(-0.0569348 -0.0982736 0)
(-0.265649 -0.1002 0)
(-0.597813 -0.0851695 0)
(-0.36144 -0.0865746 0)
(0.38182 -0.0683429 0)
(0.627882 -0.10308 0)
(0.28168 -0.119261 0)
(0.0608291 -0.120883 0)
(0.0538949 -0.123601 0)
(0.0638586 -0.124231 0)
(0.0750934 -0.121455 0)
(0.084099 -0.118427 0)
(0.0918567 -0.115946 0)
(0.0979292 -0.114479 0)
(0.10211 -0.114027 0)
(0.104529 -0.114139 0)
(0.105353 -0.114604 0)
(0.104286 -0.11526 0)
(0.100122 -0.116086 0)
(0.089892 -0.117145 0)
(0.0693792 -0.118578 0)
(0.0397582 -0.120323 0)
(0.0139137 -0.121658 0)
(0.00216039 -0.122071 0)
(-0.00215016 -0.122071 0)
(-0.01394 -0.121645 0)
(-0.0400336 -0.120197 0)
(-0.0701997 -0.11813 0)
(-0.0914395 -0.116177 0)
(-0.10248 -0.114464 0)
(-0.107538 -0.112899 0)
(-0.109633 -0.111424 0)
(-0.110076 -0.110005 0)
(-0.109377 -0.108658 0)
(-0.107633 -0.107317 0)
(-0.104813 -0.106183 0)
(-0.100742 -0.105061 0)
(-0.0945371 -0.104433 0)
(-0.0850005 -0.103204 0)
(-0.06657 -0.102161 0)
(-0.0573518 -0.101181 0)
(-0.258641 -0.10361 0)
(-0.591696 -0.0851629 0)
(-0.363472 -0.0889043 0)
(0.369373 -0.077476 0)
(0.606185 -0.0971328 0)
(0.27162 -0.11895 0)
(0.0586078 -0.121443 0)
(0.0522526 -0.123468 0)
(0.0648972 -0.123384 0)
(0.0778056 -0.120473 0)
(0.0866096 -0.117854 0)
(0.093632 -0.115409 0)
(0.0988163 -0.114311 0)
(0.10227 -0.113783 0)
(0.10432 -0.113858 0)
(0.104883 -0.114188 0)
(0.103624 -0.114757 0)
(0.0992182 -0.115562 0)
(0.0886353 -0.116703 0)
(0.0677338 -0.118339 0)
(0.0381549 -0.120365 0)
(0.0130099 -0.121883 0)
(0.00194952 -0.122334 0)
(-0.00193728 -0.122334 0)
(-0.0129958 -0.121883 0)
(-0.0382626 -0.12031 0)
(-0.0681938 -0.118067 0)
(-0.0896428 -0.116011 0)
(-0.1009 -0.114276 0)
(-0.106091 -0.112734 0)
(-0.108259 -0.111296 0)
(-0.108782 -0.109947 0)
(-0.108097 -0.108613 0)
(-0.106507 -0.107462 0)
(-0.103755 -0.106219 0)
(-0.0999344 -0.105432 0)
(-0.0936925 -0.104606 0)
(-0.0839432 -0.103614 0)
(-0.0659234 -0.10275 0)
(-0.0583312 -0.102985 0)
(-0.250212 -0.105188 0)
(-0.583643 -0.0845336 0)
(-0.365045 -0.0889724 0)
(0.362878 -0.081449 0)
(0.587916 -0.0929542 0)
(0.258254 -0.119432 0)
(0.0564756 -0.123201 0)
(0.052024 -0.122988 0)
(0.0667444 -0.121371 0)
(0.0804225 -0.118275 0)
(0.0889791 -0.115618 0)
(0.0952711 -0.113841 0)
(0.099496 -0.112622 0)
(0.102547 -0.112318 0)
(0.104139 -0.112263 0)
(0.104486 -0.112583 0)
(0.102962 -0.113143 0)
(0.0982468 -0.114009 0)
(0.0872158 -0.115284 0)
(0.0658508 -0.117143 0)
(0.0363429 -0.119424 0)
(0.0120161 -0.121079 0)
(0.00172593 -0.121545 0)
(-0.00171628 -0.121546 0)
(-0.0119895 -0.121085 0)
(-0.0363559 -0.119415 0)
(-0.0660569 -0.117009 0)
(-0.0877865 -0.114852 0)
(-0.0993222 -0.113097 0)
(-0.104666 -0.111578 0)
(-0.106946 -0.110195 0)
(-0.107491 -0.10887 0)
(-0.106983 -0.107701 0)
(-0.105326 -0.10642 0)
(-0.102857 -0.105613 0)
(-0.0991887 -0.104417 0)
(-0.0927854 -0.103882 0)
(-0.0832114 -0.102879 0)
(-0.0659635 -0.10235 0)
(-0.0597009 -0.103796 0)
(-0.240861 -0.105285 0)
(-0.57607 -0.0835372 0)
(-0.36775 -0.0856716 0)
(0.358287 -0.0860161 0)
(0.569583 -0.0911328 0)
(0.242473 -0.120615 0)
(0.0551814 -0.12421 0)
(0.0540163 -0.121202 0)
(0.0694387 -0.117469 0)
(0.0833492 -0.114427 0)
(0.0908822 -0.112387 0)
(0.0965189 -0.110656 0)
(0.100284 -0.110038 0)
(0.102616 -0.109526 0)
(0.104065 -0.109577 0)
(0.104034 -0.109853 0)
(0.10225 -0.110469 0)
(0.0971554 -0.111423 0)
(0.0856148 -0.112846 0)
(0.0637437 -0.114919 0)
(0.034362 -0.117418 0)
(0.0109663 -0.11916 0)
(0.00149995 -0.119622 0)
(-0.00149409 -0.119623 0)
(-0.0109424 -0.119167 0)
(-0.0343345 -0.11743 0)
(-0.0637963 -0.114876 0)
(-0.0858734 -0.112622 0)
(-0.097746 -0.110859 0)
(-0.103294 -0.109391 0)
(-0.105649 -0.108075 0)
(-0.106378 -0.106902 0)
(-0.105737 -0.105731 0)
(-0.104495 -0.104842 0)
(-0.101824 -0.103653 0)
(-0.0982669 -0.102944 0)
(-0.0922104 -0.102018 0)
(-0.0824661 -0.101131 0)
(-0.0668075 -0.101447 0)
(-0.0611602 -0.103579 0)
(-0.23069 -0.104586 0)
(-0.564742 -0.0828485 0)
(-0.367102 -0.0823833 0)
(0.357948 -0.087266 0)
(0.554575 -0.0881405 0)
(0.226379 -0.118533 0)
(0.0559098 -0.120472 0)
(0.0585201 -0.115839 0)
(0.0732729 -0.111042 0)
(0.0853192 -0.108774 0)
(0.0926129 -0.107299 0)
(0.097535 -0.106413 0)
(0.100585 -0.105773 0)
(0.102991 -0.105546 0)
(0.103825 -0.105555 0)
(0.103626 -0.105895 0)
(0.101448 -0.106533 0)
(0.0959562 -0.107549 0)
(0.0838472 -0.109081 0)
(0.0614456 -0.111326 0)
(0.0322563 -0.113992 0)
(0.00989182 -0.115775 0)
(0.00127997 -0.116218 0)
(-0.00127725 -0.116218 0)
(-0.00987631 -0.11578 0)
(-0.0322218 -0.114009 0)
(-0.0614243 -0.111332 0)
(-0.083915 -0.108999 0)
(-0.0962079 -0.10726 0)
(-0.101984 -0.10589 0)
(-0.104548 -0.104727 0)
(-0.105232 -0.10367 0)
(-0.104998 -0.10273 0)
(-0.103324 -0.101778 0)
(-0.101028 -0.100905 0)
(-0.0976133 -0.0998577 0)
(-0.0910382 -0.0987309 0)
(-0.0826617 -0.0979237 0)
(-0.0683221 -0.0983906 0)
(-0.0627258 -0.100942 0)
(-0.220885 -0.101339 0)
(-0.554675 -0.0794166 0)
(-0.367301 -0.0775892 0)
(0.357444 -0.0864948 0)
(0.539453 -0.0871288 0)
(0.211318 -0.114963 0)
(0.0577774 -0.113566 0)
(0.0631034 -0.109322 0)
(0.0762471 -0.103081 0)
(0.0869556 -0.102727 0)
(0.0931573 -0.10079 0)
(0.0979893 -0.100929 0)
(0.101119 -0.100262 0)
(0.102826 -0.10025 0)
(0.103729 -0.100254 0)
(0.103092 -0.100582 0)
(0.100656 -0.101197 0)
(0.0947003 -0.102194 0)
(0.0819753 -0.103747 0)
(0.0590108 -0.106096 0)
(0.0300745 -0.108877 0)
(0.00882133 -0.110662 0)
(0.00107257 -0.111075 0)
(-0.00107178 -0.111075 0)
(-0.00881384 -0.110664 0)
(-0.0300484 -0.108891 0)
(-0.058968 -0.106119 0)
(-0.0819498 -0.103745 0)
(-0.0947504 -0.102092 0)
(-0.100852 -0.100889 0)
(-0.103509 -0.0999314 0)
(-0.104455 -0.0991009 0)
(-0.103914 -0.0984124 0)
(-0.102737 -0.0975207 0)
(-0.0999735 -0.0970236 0)
(-0.0961714 -0.0954994 0)
(-0.0903467 -0.0953037 0)
(-0.0821382 -0.0936965 0)
(-0.0697162 -0.0955178 0)
(-0.0640013 -0.0980706 0)
(-0.209947 -0.0987034 0)
(-0.541856 -0.0782211 0)
(-0.365341 -0.0735777 0)
(0.357337 -0.0786727 0)
(0.527143 -0.0819971 0)
(0.200904 -0.106868 0)
(0.0613452 -0.103805 0)
(0.0686233 -0.0996276 0)
(0.0796286 -0.0938795 0)
(0.087527 -0.0932254 0)
(0.0943451 -0.0925645 0)
(0.0980434 -0.0921612 0)
(0.101239 -0.0923311 0)
(0.102999 -0.0923703 0)
(0.103505 -0.0929538 0)
(0.102717 -0.0936635 0)
(0.0998945 -0.0945449 0)
(0.0934992 -0.0956359 0)
(0.0800876 -0.0972077 0)
(0.0565022 -0.0995923 0)
(0.0278564 -0.102411 0)
(0.00777407 -0.104146 0)
(0.000881516 -0.104519 0)
(-0.000881594 -0.104519 0)
(-0.00777192 -0.104147 0)
(-0.0278421 -0.102419 0)
(-0.0564651 -0.0996152 0)
(-0.080034 -0.0972368 0)
(-0.0934561 -0.0956363 0)
(-0.099902 -0.0944529 0)
(-0.102825 -0.0933876 0)
(-0.103768 -0.0923786 0)
(-0.103475 -0.091342 0)
(-0.101985 -0.0907158 0)
(-0.0990799 -0.0896759 0)
(-0.095956 -0.0892557 0)
(-0.0893008 -0.0882534 0)
(-0.0828679 -0.0878114 0)
(-0.0725371 -0.0899853 0)
(-0.0657956 -0.0927867 0)
(-0.201757 -0.0933839 0)
(-0.530463 -0.0733778 0)
(-0.362827 -0.0661172 0)
(0.35424 -0.0704714 0)
(0.512283 -0.077092 0)
(0.190303 -0.0985323 0)
(0.0647546 -0.0963115 0)
(0.0726678 -0.0916115 0)
(0.0824165 -0.0865102 0)
(0.0882228 -0.0848147 0)
(0.0941828 -0.08314 0)
(0.0982141 -0.0828511 0)
(0.100917 -0.082434 0)
(0.102226 -0.082908 0)
(0.102483 -0.0836938 0)
(0.101559 -0.0848603 0)
(0.0987554 -0.086147 0)
(0.0921343 -0.0875236 0)
(0.0781628 -0.0892092 0)
(0.0539971 -0.0916396 0)
(0.0256868 -0.0944744 0)
(0.00678968 -0.0961416 0)
(0.000712813 -0.0964718 0)
(-0.000713111 -0.0964718 0)
(-0.00679008 -0.0961417 0)
(-0.0256817 -0.0944778 0)
(-0.0539745 -0.0916546 0)
(-0.0781156 -0.0892412 0)
(-0.0920678 -0.0875639 0)
(-0.0986853 -0.0861676 0)
(-0.10151 -0.0848133 0)
(-0.102483 -0.0835085 0)
(-0.102312 -0.0824921 0)
(-0.101131 -0.0816801 0)
(-0.0985665 -0.0816202 0)
(-0.0948006 -0.0813406 0)
(-0.088955 -0.0820439 0)
(-0.0838071 -0.0830898 0)
(-0.0745105 -0.0860057 0)
(-0.0672764 -0.0896186 0)
(-0.191244 -0.0896375 0)
(-0.515581 -0.0704423 0)
(-0.358344 -0.0602186 0)
(0.350957 -0.0509728 0)
(0.500102 -0.0670166 0)
(0.182383 -0.0856948 0)
(0.0680143 -0.0858015 0)
(0.0780682 -0.0822029 0)
(0.0861783 -0.0766376 0)
(0.0907747 -0.0744003 0)
(0.0962373 -0.0709717 0)
(0.0987237 -0.0695282 0)
(0.101184 -0.0680728 0)
(0.101785 -0.0674879 0)
(0.101624 -0.0676046 0)
(0.100353 -0.068402 0)
(0.097328 -0.0699346 0)
(0.0905483 -0.072085 0)
(0.0761213 -0.0747119 0)
(0.0514284 -0.0776918 0)
(0.0235181 -0.0804779 0)
(0.0058493 -0.0819234 0)
(0.00056324 -0.0821847 0)
(-0.00056348 -0.0821847 0)
(-0.00585037 -0.0819233 0)
(-0.0235181 -0.0804784 0)
(-0.0514189 -0.0776985 0)
(-0.0760921 -0.0747337 0)
(-0.0904943 -0.0721272 0)
(-0.0972514 -0.0699932 0)
(-0.100263 -0.0684615 0)
(-0.101531 -0.0676345 0)
(-0.101713 -0.0674439 0)
(-0.101145 -0.067896 0)
(-0.0987528 -0.0691276 0)
(-0.0963643 -0.0703 0)
(-0.0909864 -0.0732357 0)
(-0.0866857 -0.075111 0)
(-0.0788285 -0.0795993 0)
(-0.0692954 -0.0824875 0)
(-0.183278 -0.080966 0)
(-0.502114 -0.0633563 0)
(-0.352975 -0.0444509 0)
(0.33878 -0.0132669 0)
(0.478824 -0.048172 0)
(0.172201 -0.0658291 0)
(0.0681195 -0.0701232 0)
(0.0814984 -0.0707062 0)
(0.0899354 -0.0682219 0)
(0.0936827 -0.0670542 0)
(0.0988777 -0.0651983 0)
(0.101008 -0.0639248 0)
(0.102883 -0.0622526 0)
(0.102677 -0.0606122 0)
(0.101602 -0.0590227 0)
(0.099314 -0.0577969 0)
(0.0952063 -0.0573482 0)
(0.0875307 -0.0581343 0)
(0.0727599 -0.0603969 0)
(0.0484407 -0.0638443 0)
(0.0216091 -0.067144 0)
(0.00514499 -0.06867 0)
(0.000461101 -0.068904 0)
(-0.000461226 -0.068904 0)
(-0.00514582 -0.0686699 0)
(-0.0216105 -0.0671434 0)
(-0.0484387 -0.0638456 0)
(-0.0727469 -0.0604068 0)
(-0.0874996 -0.0581603 0)
(-0.0951529 -0.0573953 0)
(-0.0992372 -0.0578644 0)
(-0.101503 -0.0591023 0)
(-0.102564 -0.0606903 0)
(-0.102754 -0.0623006 0)
(-0.100883 -0.0639153 0)
(-0.0987593 -0.065082 0)
(-0.093591 -0.0667683 0)
(-0.0899393 -0.0677558 0)
(-0.0816188 -0.0698077 0)
(-0.0685934 -0.068854 0)
(-0.172809 -0.063828 0)
(-0.480394 -0.0463784 0)
(-0.340126 -0.0100608 0)
(0.317321 -0.0841087 0)
(0.449452 -0.151615 0)
(0.16123 -0.163863 0)
(0.0633145 -0.175284 0)
(0.0799003 -0.186428 0)
(0.0896975 -0.194637 0)
(0.0936883 -0.20593 0)
(0.0992528 -0.215216 0)
(0.101562 -0.226464 0)
(0.104376 -0.236928 0)
(0.104897 -0.247222 0)
(0.104337 -0.25675 0)
(0.101967 -0.265243 0)
(0.0970029 -0.272188 0)
(0.0876105 -0.277788 0)
(0.0706189 -0.282998 0)
(0.0449267 -0.288804 0)
(0.0188679 -0.293862 0)
(0.00415335 -0.295938 0)
(0.000337838 -0.296208 0)
(-0.000337898 -0.296208 0)
(-0.00415387 -0.295937 0)
(-0.0188693 -0.293861 0)
(-0.0449273 -0.288804 0)
(-0.0706135 -0.283001 0)
(-0.0875923 -0.277803 0)
(-0.0969663 -0.272223 0)
(-0.101908 -0.265304 0)
(-0.104255 -0.256837 0)
(-0.104796 -0.247335 0)
(-0.104253 -0.237056 0)
(-0.101433 -0.226604 0)
(-0.0991136 -0.215338 0)
(-0.093563 -0.20603 0)
(-0.0896147 -0.194672 0)
(-0.0798868 -0.186338 0)
(-0.0635331 -0.17503 0)
(-0.16162 -0.163251 0)
(-0.450301 -0.150867 0)
(-0.317978 -0.0825136 0)
(0.273729 -0.28685 0)
(0.40197 -0.417764 0)
(0.149393 -0.467475 0)
(0.0463747 -0.498853 0)
(0.0628491 -0.522676 0)
(0.0711426 -0.536564 0)
(0.073852 -0.552517 0)
(0.0790909 -0.564914 0)
(0.0800845 -0.578727 0)
(0.0828799 -0.589233 0)
(0.0835765 -0.601198 0)
(0.0842356 -0.609238 0)
(0.0844375 -0.617576 0)
(0.0831182 -0.624714 0)
(0.0771138 -0.633782 0)
(0.062144 -0.647132 0)
(0.0379717 -0.663434 0)
(0.0147352 -0.674936 0)
(0.00288422 -0.678411 0)
(0.000200749 -0.678744 0)
(-0.000200756 -0.678744 0)
(-0.00288438 -0.678411 0)
(-0.0147361 -0.674936 0)
(-0.0379741 -0.663433 0)
(-0.0621467 -0.647131 0)
(-0.0771131 -0.633786 0)
(-0.0831081 -0.624733 0)
(-0.0844111 -0.61762 0)
(-0.0841873 -0.60932 0)
(-0.0835016 -0.601328 0)
(-0.0827757 -0.58942 0)
(-0.0799552 -0.578984 0)
(-0.0789339 -0.56523 0)
(-0.0736761 -0.552907 0)
(-0.0709636 -0.536991 0)
(-0.0626918 -0.523127 0)
(-0.0463459 -0.499257 0)
(-0.149524 -0.467656 0)
(-0.402592 -0.417746 0)
(-0.274259 -0.286202 0)
(0.191168 -0.201178 0)
(0.275395 -0.286854 0)
(0.0830896 -0.332529 0)
(0.0101206 -0.35566 0)
(0.0435613 -0.370151 0)
(0.0609418 -0.375676 0)
(0.066369 -0.380737 0)
(0.0739955 -0.383441 0)
(0.0781274 -0.386024 0)
(0.0827229 -0.385472 0)
(0.0856198 -0.386187 0)
(0.0885539 -0.383352 0)
(0.0870533 -0.381706 0)
(0.0813866 -0.380637 0)
(0.0660076 -0.383503 0)
(0.0420445 -0.392162 0)
(0.0181336 -0.404361 0)
(0.00443549 -0.412749 0)
(0.000484393 -0.415049 0)
(1.72985e-05 -0.415239 0)
(-1.72971e-05 -0.415239 0)
(-0.000484383 -0.415049 0)
(-0.00443549 -0.412749 0)
(-0.0181338 -0.40436 0)
(-0.0420451 -0.39216 0)
(-0.0660087 -0.3835 0)
(-0.0813881 -0.380636 0)
(-0.0870549 -0.381715 0)
(-0.0885551 -0.38338 0)
(-0.0856197 -0.386247 0)
(-0.0827208 -0.385578 0)
(-0.0781218 -0.38619 0)
(-0.0739855 -0.383675 0)
(-0.0663512 -0.381055 0)
(-0.0609169 -0.376074 0)
(-0.043525 -0.370629 0)
(-0.0100796 -0.356184 0)
(-0.0830723 -0.332994 0)
(-0.275446 -0.287225 0)
(-0.191218 -0.20105 0)
(0.191168 0.201178 0)
(0.275395 0.286854 0)
(0.0830896 0.332529 0)
(0.0101206 0.35566 0)
(0.0435613 0.370151 0)
(0.0609418 0.375676 0)
(0.066369 0.380737 0)
(0.0739955 0.383441 0)
(0.0781274 0.386024 0)
(0.0827229 0.385472 0)
(0.0856198 0.386187 0)
(0.0885539 0.383352 0)
(0.0870533 0.381706 0)
(0.0813866 0.380637 0)
(0.0660076 0.383503 0)
(0.0420445 0.392162 0)
(0.0181336 0.404361 0)
(0.00443549 0.412749 0)
(0.000484393 0.415049 0)
(1.72985e-05 0.415239 0)
(-1.72971e-05 0.415239 0)
(-0.000484383 0.415049 0)
(-0.00443549 0.412749 0)
(-0.0181338 0.40436 0)
(-0.0420451 0.39216 0)
(-0.0660087 0.3835 0)
(-0.0813881 0.380636 0)
(-0.0870549 0.381715 0)
(-0.0885551 0.38338 0)
(-0.0856197 0.386247 0)
(-0.0827208 0.385578 0)
(-0.0781218 0.38619 0)
(-0.0739855 0.383675 0)
(-0.0663512 0.381055 0)
(-0.0609169 0.376074 0)
(-0.043525 0.370629 0)
(-0.0100796 0.356184 0)
(-0.0830723 0.332994 0)
(-0.275446 0.287225 0)
(-0.191218 0.20105 0)
(0.273729 0.28685 0)
(0.40197 0.417764 0)
(0.149393 0.467475 0)
(0.0463747 0.498853 0)
(0.0628491 0.522676 0)
(0.0711426 0.536564 0)
(0.073852 0.552517 0)
(0.0790909 0.564914 0)
(0.0800845 0.578727 0)
(0.0828799 0.589233 0)
(0.0835765 0.601198 0)
(0.0842356 0.609238 0)
(0.0844375 0.617576 0)
(0.0831182 0.624714 0)
(0.0771138 0.633782 0)
(0.062144 0.647132 0)
(0.0379717 0.663434 0)
(0.0147352 0.674936 0)
(0.00288422 0.678411 0)
(0.000200749 0.678744 0)
(-0.000200756 0.678744 0)
(-0.00288438 0.678411 0)
(-0.0147361 0.674936 0)
(-0.0379741 0.663433 0)
(-0.0621467 0.647131 0)
(-0.0771131 0.633786 0)