/*--------------------------------*- C++ -*----------------------------------*\
| =========                 |                                                 |
| \\      /  F ield         | OpenFOAM: The Open Source CFD Toolbox           |
|  \\    /   O peration     | Version:  v1912                                 |
|   \\  /    A nd           | Website:  www.openfoam.com                      |
|    \\/     M anipulation  |                                                 |
\*---------------------------------------------------------------------------*/
FoamFile
{
    version     2.0;
    format      ascii;
    class       volScalarField;
    location    "2.48";
    object      T;
}
// * * * * * * * * * * * * * * * * * * * * * * * * * * * * * * * * * * * * * //

dimensions      [0 0 0 1 0 0 0];


internalField   nonuniform List<scalar> 
1900
(
1.1012
1.01849
1.02103
1.0238
1.02553
1.02711
1.02878
1.0308
1.03294
1.03595
1.1012
1.01849
1.02104
1.0238
1.02553
1.0271
1.02872
1.03039
1.032
1.03498
1.1012
1.01849
1.02103
1.0238
1.02552
1.02709
1.02873
1.03043
1.03218
1.03476
1.1012
1.01849
1.02104
1.0238
1.02553
1.0271
1.02872
1.03039
1.032
1.03498
1.1012
1.01849
1.02103
1.0238
1.02553
1.02711
1.02878
1.0308
1.03294
1.03595
1.03479
1.03966
1.0441
1.04461
1.01068
1.03805
1.04286
1.04671
1.05007
1.03414
1.03774
1.04193
1.045
1.04628
1.02826
1.03805
1.04286
1.04671
1.05007
1.03414
1.03479
1.03966
1.0441
1.04461
1.01068
1.06131
1.04014
1.02462
0.993561
0.946366
1.05522
1.03846
1.0238
1.00329
0.97681
1.05383
1.03797
1.02305
1.004
0.981898
1.05522
1.03846
1.0238
1.00329
0.97681
1.06131
1.04014
1.02462
0.993561
0.946366
0.826713
0.767349
0.8304
0.847694
0.840147
0.838477
0.84173
0.847729
0.854798
0.863362
0.873548
0.885087
0.897686
0.910981
0.924676
0.93853
0.952273
0.965363
0.976369
0.983569
0.983362
0.975667
0.964284
0.950819
0.936653
0.922252
0.907778
0.893311
0.87892
0.864692
0.850749
0.837276
0.824492
0.812504
0.801109
0.79021
0.781401
0.775182
0.70813
0.595746
0.941151
0.809614
0.844987
0.850181
0.841615
0.839527
0.842578
0.848664
0.855746
0.864317
0.874519
0.886067
0.898675
0.911979
0.925685
0.939553
0.953311
0.966412
0.977427
0.984636
0.984429
0.976726
0.965333
0.951858
0.937682
0.923272
0.908792
0.894318
0.879923
0.865693
0.851749
0.838274
0.825487
0.813492
0.802085
0.791163
0.782327
0.77601
0.708767
0.595799
0.945984
0.836854
0.855246
0.852305
0.84211
0.839905
0.842885
0.849001
0.856088
0.86467
0.874878
0.886427
0.899035
0.91234
0.926048
0.939919
0.953681
0.966786
0.977804
0.985017
0.98481
0.977102
0.965707
0.952228
0.93805
0.923639
0.909159
0.894687
0.880296
0.86607
0.852133
0.838666
0.825887
0.813899
0.802497
0.791572
0.782725
0.776374
0.709047
0.59581
0.941151
0.809614
0.844987
0.850181
0.841615
0.839527
0.842578
0.848664
0.855746
0.864317
0.874519
0.886067
0.898675
0.911979
0.925685
0.939553
0.953311
0.966412
0.977427
0.984636
0.984429
0.976726
0.965333
0.951858
0.937682
0.923272
0.908792
0.894318
0.879923
0.865693
0.851749
0.838274
0.825487
0.813492
0.802085
0.791163
0.782327
0.77601
0.708767
0.595799
0.826713
0.767349
0.8304
0.847694
0.840147
0.838477
0.84173
0.847729
0.854798
0.863362
0.873548
0.885087
0.897686
0.910981
0.924676
0.93853
0.952273
0.965363
0.976369
0.983569
0.983362
0.975667
0.964284
0.950819
0.936653
0.922252
0.907778
0.893311
0.87892
0.864692
0.850749
0.837276
0.824492
0.812504
0.801109
0.79021
0.781401
0.775182
0.70813
0.595746
0.635612
0.7217
0.819121
0.835706
0.83388
0.834043
0.837959
0.843617
0.850665
0.859166
0.869267
0.880743
0.893272
0.906489
0.920096
0.933856
0.947508
0.960513
0.971449
0.978605
0.9784
0.970753
0.959427
0.946026
0.931927
0.917594
0.903191
0.8888
0.874492
0.860358
0.84652
0.833164
0.820512
0.808668
0.797424
0.786689
0.778076
0.772119
0.705583
0.594781
0.565336
0.721431
0.805048
0.815554
0.820783
0.824472
0.829471
0.835105
0.842046
0.850511
0.860511
0.871871
0.884249
0.897292
0.910714
0.924287
0.937758
0.950597
0.961395
0.968473
0.968282
0.96074
0.949548
0.936303
0.922368
0.908209
0.893991
0.879796
0.8657
0.851792
0.838198
0.825102
0.812722
0.801161
0.790204
0.779764
0.771573
0.765983
0.7003
0.592462
0.559245
0.718222
0.788426
0.798873
0.805876
0.811436
0.817154
0.823156
0.830188
0.838724
0.848734
0.860046
0.872322
0.885225
0.898481
0.911874
0.925158
0.937813
0.948456
0.955445
0.955278
0.947865
0.936835
0.923769
0.910021
0.896051
0.882025
0.868026
0.85413
0.840428
0.827042
0.814156
0.801985
0.790623
0.779869
0.769649
0.761902
0.756491
0.691875
0.58683
0.566613
0.708252
0.772914
0.782363
0.78992
0.797183
0.803373
0.809892
0.817201
0.825966
0.836134
0.847509
0.859763
0.87258
0.88571
0.89895
0.912065
0.924552
0.935055
0.941963
0.941822
0.934546
0.923678
0.910791
0.897222
0.883429
0.869578
0.855752
0.842027
0.828493
0.815272
0.802542
0.790513
0.779275
0.768669
0.758629
0.751227
0.745775
0.682316
0.578592
0.558702
0.693577
0.756997
0.76666
0.774641
0.78229
0.78891
0.79586
0.803584
0.812655
0.823038
0.834513
0.846768
0.859515
0.872527
0.88562
0.898572
0.910898
0.921267
0.928095
0.927985
0.920851
0.910146
0.897435
0.884042
0.870418
0.856729
0.84306
0.82949
0.816105
0.803027
0.790425
0.778507
0.767362
0.756913
0.747069
0.739867
0.734051
0.672324
0.568781
0.552819
0.67904
0.741734
0.751703
0.759804
0.767293
0.774214
0.781533
0.789689
0.799113
0.80974
0.821327
0.833592
0.846276
0.859177
0.87213
0.884928
0.897102
0.907344
0.91409
0.914009
0.907023
0.896482
0.883947
0.870724
0.857263
0.843728
0.830209
0.81678
0.803536
0.790583
0.778095
0.76627
0.755205
0.744938
0.735281
0.728111
0.721829
0.662257
0.55827
0.544209
0.665927
0.727093
0.736971
0.745126
0.75237
0.759484
0.767146
0.77572
0.785508
0.796359
0.808061
0.820329
0.832953
0.845749
0.858573
0.871227
0.88326
0.893383
0.900037
0.899984
0.893152
0.882778
0.870419
0.857366
0.844064
0.830679
0.817301
0.804015
0.790892
0.778072
0.765665
0.753941
0.742951
0.73288
0.723371
0.716104
0.709361
0.652252
0.547841
0.537847
0.653738
0.712786
0.722408
0.73055
0.737632
0.744899
0.752853
0.761837
0.771926
0.783018
0.794793
0.807073
0.819633
0.832336
0.845043
0.85757
0.869472
0.879477
0.886026
0.885996
0.879326
0.869123
0.856941
0.844057
0.830911
0.81767
0.804435
0.791269
0.778296
0.765548
0.753271
0.741604
0.730694
0.720823
0.711404
0.703958
0.696798
0.642276
0.537251
0.530453
0.642134
0.698703
0.708087
0.716168
0.723185
0.730587
0.738786
0.748086
0.758534
0.769743
0.781639
0.793892
0.806408
0.819027
0.831636
0.844049
0.855827
0.865709
0.872134
0.872121
0.865623
0.855595
0.843592
0.830876
0.817881
0.804785
0.791671
0.778659
0.765748
0.753192
0.740898
0.72939
0.718528
0.708818
0.699452
0.691807
0.684302
0.632442
0.527446
0.522226
0.630668
0.68479
0.694016
0.702004
0.709025
0.71656
0.724963
0.734662
0.745246
0.756738
0.768617
0.780913
0.793372
0.805934
0.818459
0.83077
0.842423
0.852172
0.85845
0.858448
0.852132
0.842286
0.830465
0.817912
0.805067
0.792097
0.779126
0.766181
0.753473
0.740875
0.728793
0.717289
0.706453
0.696936
0.68754
0.679656
0.671851
0.622484
0.517441
0.514488
0.620064
0.671529
0.680549
0.688243
0.695266
0.702996
0.711573
0.721543
0.73246
0.74393
0.755971
0.768219
0.780684
0.793194
0.805656
0.817871
0.829395
0.838993
0.845101
0.845104
0.838983
0.829327
0.817689
0.805295
0.792584
0.779744
0.766855
0.754078
0.741343
0.729025
0.716859
0.705524
0.694782
0.68528
0.675907
0.66786
0.659894
0.613172
0.508522
0.506132
0.609323
0.658243
0.666964
0.674523
0.681731
0.689722
0.698682
0.708897
0.719943
0.731677
0.743708
0.756053
0.768502
0.781002
0.793412
0.805539
0.816929
0.826357
0.832269
0.832275
0.826362
0.816906
0.805447
0.7932
0.780611
0.76786
0.755082
0.742317
0.729748
0.717354
0.705322
0.694102
0.683248
0.673914
0.664377
0.656071
0.647935
0.60334
0.499335
0.498654
0.600126
0.646033
0.6542
0.661809
0.669186
0.677695
0.686648
0.697299
0.708387
0.720194
0.732281
0.744611
0.757071
0.769548
0.781916
0.793959
0.80521
0.81445
0.820145
0.820151
0.81446
0.805211
0.793926
0.781812
0.769327
0.756676
0.743976
0.731337
0.718824
0.706567
0.694681
0.683434
0.672839
0.663365
0.653754
0.645272
0.637138
0.595149
0.491726
0.490705
0.590525
0.633375
0.641131
0.648996
0.657017
0.665997
0.675497
0.686189
0.697582
0.709427
0.721602
0.733949
0.746406
0.758867
0.771193
0.783157
0.794268
0.803307
0.808765
0.808769
0.803317
0.794279
0.783157
0.771158
0.758765
0.746198
0.733581
0.721025
0.708545
0.696397
0.684388
0.673373
0.662594
0.653071
0.643139
0.634346
0.626164
0.586062
0.483933
0.483695
0.58177
0.621443
0.628896
0.637317
0.646253
0.65571
0.665685
0.676577
0.688022
0.699908
0.712011
0.724259
0.736571
0.748871
0.761045
0.772867
0.783812
0.792638
0.797848
0.797851
0.792645
0.783825
0.77288
0.761048
0.748844
0.736488
0.724085
0.711709
0.69941
0.687333
0.675472
0.664402
0.653558
0.64375
0.633448
0.624253
0.616109
0.578471
0.47795
0.475855
0.572574
0.609184
0.616497
0.625391
0.635325
0.645184
0.655811
0.666819
0.678541
0.690517
0.702715
0.714977
0.727227
0.739389
0.751383
0.763026
0.773774
0.782362
0.7873
0.787301
0.782366
0.773783
0.763042
0.751401
0.7394
0.727216
0.714924
0.702596
0.690286
0.678197
0.66622
0.655097
0.643957
0.633839
0.623073
0.613534
0.605552
0.570008
0.471232
0.471144
0.564787
0.598673
0.60556
0.614801
0.625471
0.635789
0.646967
0.658203
0.670331
0.68259
0.695133
0.707694
0.720189
0.732477
0.744412
0.755785
0.766117
0.774273
0.778895
0.778895
0.774275
0.766122
0.755797
0.744432
0.732502
0.720214
0.707709
0.695127
0.682542
0.670237
0.657996
0.646707
0.635289
0.624834
0.613749
0.604072
0.596635
0.563338
0.468345
0.474486
0.560568
0.59218
0.598076
0.606893
0.617586
0.627906
0.639259
0.65054
0.662935
0.675415
0.688311
0.701271
0.714248
0.727053
0.739397
0.750829
0.761092
0.769053
0.773397
0.773396
0.769054
0.761096
0.750839
0.739414
0.727077
0.714278
0.701302
0.688334
0.675419
0.66291
0.650451
0.639126
0.627631
0.617214
0.606279
0.597167
0.590898
0.559563
0.472747
0.454059
0.529633
0.5605
0.564404
0.571069
0.579836
0.587658
0.597186
0.6058
0.615998
0.625764
0.636052
0.646259
0.656588
0.666932
0.677228
0.687275
0.696454
0.703412
0.706987
0.706987
0.703411
0.696455
0.687278
0.677238
0.666952
0.656622
0.64631
0.636118
0.625845
0.616085
0.605885
0.597261
0.587688
0.579823
0.57095
0.564109
0.559919
0.528943
0.452424
0.396233
0.451799
0.472514
0.468472
0.471228
0.478328
0.484578
0.492853
0.500793
0.510376
0.519701
0.530132
0.540359
0.551289
0.562028
0.57251
0.581765
0.588672
0.592419
0.593625
0.593625
0.592419
0.588671
0.581765
0.57251
0.562029
0.551291
0.540363
0.53014
0.519714
0.510395
0.500821
0.49289
0.484626
0.47839
0.4713
0.468555
0.472576
0.451862
0.396172
0.396233
0.451799
0.472514
0.468472
0.471228
0.478328
0.484578
0.492853
0.500793
0.510376
0.519701
0.530132
0.540359
0.551289
0.562028
0.57251
0.581765
0.588672
0.592419
0.593625
0.593625
0.592419
0.588671
0.581765
0.57251
0.562029
0.551291
0.540363
0.53014
0.519714
0.510395
0.500821
0.49289
0.484626
0.47839
0.4713
0.468555
0.472576
0.451862
0.396172
0.454059
0.529633
0.5605
0.564404
0.571069
0.579836
0.587658
0.597186
0.6058
0.615998
0.625764
0.636052
0.646259
0.656588
0.666932
0.677228
0.687275
0.696454
0.703412
0.706987
0.706987
0.703411
0.696455
0.687278
0.677238
0.666952
0.656622
0.64631
0.636118
0.625845
0.616085
0.605885
0.597261
0.587688
0.579823
0.57095
0.564109
0.559919
0.528943
0.452424
0.474486
0.560568
0.59218
0.598076
0.606893
0.617586
0.627906
0.639259
0.65054
0.662935
0.675415
0.688311
0.701271
0.714248
0.727053
0.739397
0.750829
0.761092
0.769053
0.773397
0.773396
0.769054
0.761096
0.750839
0.739414
0.727077
0.714278
0.701302
0.688334
0.675419
0.66291
0.650451
0.639126
0.627631
0.617214
0.606279
0.597167
0.590898
0.559563
0.472747
0.471144
0.564787
0.598673
0.60556
0.614801
0.625471
0.635789
0.646967
0.658203
0.670331
0.68259
0.695133
0.707694
0.720189
0.732477
0.744412
0.755785
0.766117
0.774273
0.778895
0.778895
0.774275
0.766122
0.755797
0.744432
0.732502
0.720214
0.707709
0.695127
0.682542
0.670237
0.657996
0.646707
0.635289
0.624834
0.613749
0.604072
0.596635
0.563338
0.468345
0.475855
0.572574
0.609184
0.616497
0.625391
0.635325
0.645184
0.655811
0.666819
0.678541
0.690517
0.702715
0.714977
0.727227
0.739389
0.751383
0.763026
0.773774
0.782362
0.7873
0.787301
0.782366
0.773783
0.763042
0.751401
0.7394
0.727216
0.714924
0.702596
0.690286
0.678197
0.66622
0.655097
0.643957
0.633839
0.623073
0.613534
0.605552
0.570008
0.471232
0.483695
0.58177
0.621443
0.628896
0.637317
0.646253
0.65571
0.665685
0.676577
0.688022
0.699908
0.712011
0.724259
0.736571
0.748871
0.761045
0.772867
0.783812
0.792638
0.797848
0.797851
0.792645
0.783825
0.77288
0.761048
0.748844
0.736488
0.724085
0.711709
0.69941
0.687333
0.675472
0.664402
0.653558
0.64375
0.633448
0.624253
0.616109
0.578471
0.47795
0.490705
0.590525
0.633375
0.641131
0.648996
0.657017
0.665997
0.675497
0.686189
0.697582
0.709427
0.721602
0.733949
0.746406
0.758867
0.771193
0.783157
0.794268
0.803307
0.808765
0.808769
0.803317
0.794279
0.783157
0.771158
0.758765
0.746198
0.733581
0.721025
0.708545
0.696397
0.684388
0.673373
0.662594
0.653071
0.643139
0.634346
0.626164
0.586062
0.483933
0.498654
0.600126
0.646033
0.6542
0.661809
0.669186
0.677695
0.686648
0.697299
0.708387
0.720194
0.732281
0.744611
0.757071
0.769548
0.781916
0.793959
0.80521
0.81445
0.820145
0.820151
0.81446
0.805211
0.793926
0.781812
0.769327
0.756676
0.743976
0.731337
0.718824
0.706567
0.694681
0.683434
0.672839
0.663365
0.653754
0.645272
0.637138
0.595149
0.491726
0.506132
0.609323
0.658243
0.666964
0.674523
0.681731
0.689722
0.698682
0.708897
0.719943
0.731677
0.743708
0.756053
0.768502
0.781002
0.793412
0.805539
0.816929
0.826357
0.832269
0.832275
0.826362
0.816906
0.805447
0.7932
0.780611
0.76786
0.755082
0.742317
0.729748
0.717354
0.705322
0.694102
0.683248
0.673914
0.664377
0.656071
0.647935
0.60334
0.499335
0.514488
0.620064
0.671529
0.680549
0.688243
0.695266
0.702996
0.711573
0.721543
0.73246
0.74393
0.755971
0.768219
0.780684
0.793194
0.805656
0.817871
0.829395
0.838993
0.845101
0.845104
0.838983
0.829327
0.817689
0.805295
0.792584
0.779744
0.766855
0.754078
0.741343
0.729025
0.716859
0.705524
0.694782
0.68528
0.675907
0.66786
0.659894
0.613172
0.508522
0.522226
0.630668
0.68479
0.694016
0.702004
0.709025
0.71656
0.724963
0.734662
0.745246
0.756738
0.768617
0.780913
0.793372
0.805934
0.818459
0.83077
0.842423
0.852172
0.85845
0.858448
0.852132
0.842286
0.830465
0.817912
0.805067
0.792097
0.779126
0.766181
0.753473
0.740875
0.728793
0.717289
0.706453
0.696936
0.68754
0.679656
0.671851
0.622484
0.517441
0.530453
0.642134
0.698703
0.708087
0.716168
0.723185
0.730587
0.738786
0.748086
0.758534
0.769743
0.781639
0.793892
0.806408
0.819027
0.831636
0.844049
0.855827
0.865709
0.872134
0.872121
0.865623
0.855595
0.843592
0.830876
0.817881
0.804785
0.791671
0.778659
0.765748
0.753192
0.740898
0.72939
0.718528
0.708818
0.699452
0.691807
0.684302
0.632442
0.527446
0.537847
0.653738
0.712786
0.722408
0.73055
0.737632
0.744899
0.752853
0.761837
0.771926
0.783018
0.794793
0.807073
0.819633
0.832336
0.845043
0.85757
0.869472
0.879477
0.886026
0.885996
0.879326
0.869123
0.856941
0.844057
0.830911
0.81767
0.804435
0.791269
0.778296
0.765548
0.753271
0.741604
0.730694
0.720823
0.711404
0.703958
0.696798
0.642276
0.537251
0.544209
0.665927
0.727093
0.736971
0.745126
0.75237
0.759484
0.767146
0.77572
0.785508
0.796359
0.808061
0.820329
0.832953
0.845749
0.858573
0.871227
0.88326
0.893383
0.900037
0.899984
0.893152
0.882778
0.870419
0.857366
0.844064
0.830679
0.817301
0.804015
0.790892
0.778072
0.765665
0.753941
0.742951
0.73288
0.723371
0.716104
0.709361
0.652252
0.547841
0.552819
0.67904
0.741734
0.751703
0.759804
0.767293
0.774214
0.781533
0.789689
0.799113
0.80974
0.821327
0.833592
0.846276
0.859177
0.87213
0.884928
0.897102
0.907344
0.91409
0.914009
0.907023
0.896482
0.883947
0.870724
0.857263
0.843728
0.830209
0.81678
0.803536
0.790583
0.778095
0.76627
0.755205
0.744938
0.735281
0.728111
0.721829
0.662257
0.55827
0.558702
0.693577
0.756997
0.76666
0.774641
0.78229
0.78891
0.79586
0.803584
0.812655
0.823038
0.834513
0.846768
0.859515
0.872527
0.88562
0.898572
0.910898
0.921267
0.928095
0.927985
0.920851
0.910146
0.897435
0.884042
0.870418
0.856729
0.84306
0.82949
0.816105
0.803027
0.790425
0.778507
0.767362
0.756913
0.747069
0.739867
0.734051
0.672324
0.568781
0.566613
0.708252
0.772914
0.782363
0.78992
0.797183
0.803373
0.809892
0.817201
0.825966
0.836134
0.847509
0.859763
0.87258
0.88571
0.89895
0.912065
0.924552
0.935055
0.941963
0.941822
0.934546
0.923678
0.910791
0.897222
0.883429
0.869578
0.855752
0.842027
0.828493
0.815272
0.802542
0.790513
0.779275
0.768669
0.758629
0.751227
0.745775
0.682316
0.578592
0.559245
0.718222
0.788426
0.798873
0.805876
0.811436
0.817154
0.823156
0.830188
0.838724
0.848734
0.860046
0.872322
0.885225
0.898481
0.911874
0.925158
0.937813
0.948456
0.955445
0.955278
0.947865
0.936835
0.923769
0.910021
0.896051
0.882025
0.868026
0.85413
0.840428
0.827042
0.814156
0.801985
0.790623
0.779869
0.769649
0.761902
0.756491
0.691875
0.58683
0.565336
0.721431
0.805048
0.815554
0.820783
0.824472
0.829471
0.835105
0.842046
0.850511
0.860511
0.871871
0.884249
0.897292
0.910714
0.924287
0.937758
0.950597
0.961395
0.968473
0.968282
0.96074
0.949548
0.936303
0.922368
0.908209
0.893991
0.879796
0.8657
0.851792
0.838198
0.825102
0.812722
0.801161
0.790204
0.779764
0.771573
0.765983
0.7003
0.592462
0.635612
0.7217
0.819121
0.835706
0.83388
0.834043
0.837959
0.843617
0.850665
0.859166
0.869267
0.880743
0.893272
0.906489
0.920096
0.933856
0.947508
0.960513
0.971449
0.978605
0.9784
0.970753
0.959427
0.946026
0.931927
0.917594
0.903191
0.8888
0.874492
0.860358
0.84652
0.833164
0.820512
0.808668
0.797424
0.786689
0.778076
0.772119
0.705583
0.594781
)
;

boundaryField
{
    inlet
    {
        type            fixedValue;
        value           uniform 1;
    }
    outlet
    {
        type            zeroGradient;
    }
    obstacle
    {
        type            zeroGradient;
    }
    empty
    {
        type            empty;
    }
}


// ************************************************************************* //
