/*--------------------------------*- C++ -*----------------------------------*\
| =========                 |                                                 |
| \\      /  F ield         | OpenFOAM: The Open Source CFD Toolbox           |
|  \\    /   O peration     | Version:  v1912                                 |
|   \\  /    A nd           | Website:  www.openfoam.com                      |
|    \\/     M anipulation  |                                                 |
\*---------------------------------------------------------------------------*/
FoamFile
{
    version     2.0;
    format      ascii;
    class       volTensorField;
    location    "0.64";
    object      grad(U);
}
// * * * * * * * * * * * * * * * * * * * * * * * * * * * * * * * * * * * * * //

dimensions      [0 0 -1 0 0 0 0];


internalField   nonuniform List<tensor> 
1900
(
(-2.39084e-16 3.81281e-16 0 0 0 0 0 0 0)
(3.9937e-16 -1.3957e-16 0 -1.14283e-17 1.27517e-16 0 0 0 0)
(3.68199e-13 3.73224e-15 0 4.7302e-17 -1.12037e-15 0 0 0 0)
(6.28009e-10 1.09563e-11 0 1.62912e-13 4.09119e-14 0 0 0 0)
(7.71535e-08 1.61519e-09 0 2.1302e-10 6.0068e-11 0 0 0 0)
(1.06623e-06 2.90441e-08 0 1.72141e-08 7.42975e-09 0 0 0 0)
(2.68818e-06 1.12685e-07 0 1.14185e-07 1.05315e-07 0 0 0 0)
(4.87318e-07 1.46895e-07 0 8.6488e-08 3.24007e-07 0 0 0 0)
(-0.00021166 -1.4083e-05 0 -1.1712e-06 1.50312e-07 0 0 0 0)
(-0.0030584 -0.000284575 0 -0.000127337 -5.85762e-05 0 0 0 0)
(-2.50513e-16 -2.53764e-16 0 0 0 0 0 0 0)
(4.46672e-16 -9.80799e-16 0 -1.13627e-16 -3.81281e-16 0 0 0 0)
(5.31123e-13 3.70521e-14 0 1.29033e-17 -2.06818e-16 0 0 0 0)
(8.41029e-10 4.91128e-11 0 3.70636e-13 -4.15603e-15 0 0 0 0)
(9.43675e-08 5.81452e-09 0 4.2311e-10 -1.09608e-11 0 0 0 0)
(1.18021e-06 7.6211e-08 0 3.15703e-08 -1.61519e-09 0 0 0 0)
(2.75745e-06 2.03892e-07 0 1.86905e-07 -2.90549e-08 0 0 0 0)
(-7.98067e-07 -1.01899e-07 0 1.3435e-07 -1.14301e-07 0 0 0 0)
(-0.000339084 -4.48172e-05 0 -2.2042e-06 -1.75951e-07 0 0 0 0)
(-0.00480822 -0.000772648 0 -0.000216202 1.39687e-05 0 0 0 0)
(-3.52712e-16 0 0 0 0 0 0 0 0)
(4.12273e-16 -3.46388e-16 0 2.50513e-16 2.2585e-16 0 0 0 0)
(7.38949e-13 -4.25055e-17 0 -4.73995e-16 2.60743e-16 0 0 0 0)
(1.05112e-09 -4.30067e-15 0 -1.88073e-16 -7.40986e-14 0 0 0 0)
(1.08723e-07 5.12604e-16 0 -4.14918e-14 -9.83042e-11 0 0 0 0)
(1.25271e-06 1.03463e-13 0 6.89761e-14 -1.16291e-08 0 0 0 0)
(2.79096e-06 -5.30742e-14 0 7.54714e-14 -1.5252e-07 0 0 0 0)
(-1.90379e-06 -2.15945e-13 0 -1.68216e-13 -4.19414e-07 0 0 0 0)
(-0.000427997 7.88192e-15 0 -6.9747e-14 5.12772e-08 0 0 0 0)
(-0.00592535 2.33436e-14 0 7.11386e-14 8.9215e-05 0 0 0 0)
(0 -2.79141e-17 0 0 0 0 0 0 0)
(-2.73236e-17 -7.20056e-16 0 3.52712e-16 -6.62325e-16 0 0 0 0)
(5.30685e-13 -3.72723e-14 0 -7.64371e-16 -1.32211e-15 0 0 0 0)
(8.40988e-10 -4.91916e-11 0 -3.71033e-13 -4.88623e-15 0 0 0 0)
(9.43676e-08 -5.81452e-09 0 -4.23256e-10 -1.09894e-11 0 0 0 0)
(1.18021e-06 -7.62108e-08 0 -3.15701e-08 -1.61519e-09 0 0 0 0)
(2.75745e-06 -2.03892e-07 0 -1.86905e-07 -2.90552e-08 0 0 0 0)
(-7.98067e-07 1.01898e-07 0 -1.34351e-07 -1.14301e-07 0 0 0 0)
(-0.000339084 4.48172e-05 0 2.2042e-06 -1.75951e-07 0 0 0 0)
(-0.00480822 0.000772648 0 0.000216202 1.39687e-05 0 0 0 0)
(0 -6.62325e-16 0 0 0 0 0 0 0)
(-3.52098e-16 -1.6685e-15 0 0 6.90239e-16 0 0 0 0)
(3.67563e-13 -4.26641e-15 0 -3.24774e-16 2.38856e-15 0 0 0 0)
(6.27864e-10 -1.09924e-11 0 -1.63121e-13 4.22289e-14 0 0 0 0)
(7.71537e-08 -1.61518e-09 0 -2.13124e-10 6.01864e-11 0 0 0 0)
(1.06623e-06 -2.90441e-08 0 -1.7214e-08 7.42974e-09 0 0 0 0)
(2.68818e-06 -1.12686e-07 0 -1.14185e-07 1.05315e-07 0 0 0 0)
(4.87318e-07 -1.46896e-07 0 -8.64881e-08 3.24008e-07 0 0 0 0)
(-0.00021166 1.4083e-05 0 1.1712e-06 1.50312e-07 0 0 0 0)
(-0.0030584 0.000284575 0 0.000127337 -5.85762e-05 0 0 0 0)
(-0.0265437 -0.00452105 2.5631e-19 -0.00295336 0.00170072 -3.84465e-19 -8.86742e-20 -3.90668e-19 6.9473e-35)
(-0.0930402 -0.029611 0 -0.0225736 0.0156689 0 5.3089e-18 7.63887e-19 0)
(-0.188788 -0.120136 0 -0.0844057 0.0707898 0 2.34482e-17 4.1522e-18 0)
(-0.335774 -0.265202 0 -0.211538 0.211874 0 0 0 0)
(-0.179984 -0.489506 -8.64019e-17 -0.546509 0.79544 1.29603e-16 3.67461e-16 2.44974e-16 2.34193e-32)
(-0.0390639 -0.00645898 0 -0.00251684 0.000247784 0 -6.22348e-19 -8.33471e-20 0)
(-0.130501 -0.0239489 0 -0.0147048 0.00280309 0 -5.3089e-18 -7.63887e-19 0)
(-0.26742 -0.0590009 0 -0.0426831 0.0196859 0 -2.34482e-17 -4.1522e-18 0)
(-0.425931 -0.10415 0 -0.0997491 0.106985 0 0 0 0)
(-0.451503 -0.0365017 0 -0.115553 0.319234 0 0 0 0)
(-0.0445576 -8.62745e-14 0 -5.76025e-14 0.00134941 0 0 0 0)
(-0.14235 2.46157e-13 0 4.47014e-14 0.0113033 0 0 0 0)
(-0.287654 -8.54606e-15 0 3.17731e-13 0.0525416 0 0 0 0)
(-0.467323 -1.3441e-13 0 -1.58113e-13 0.183234 0 0 0 0)
(-0.473541 3.54746e-13 0 -4.3965e-14 0.482038 0 0 0 0)
(-0.0390639 0.00645898 0 0.00251684 0.000247784 0 -6.22348e-19 8.33471e-20 0)
(-0.130501 0.0239489 0 0.0147048 0.00280309 0 -5.3089e-18 7.63887e-19 0)
(-0.26742 0.0590009 0 0.0426831 0.0196859 0 -2.34482e-17 4.1522e-18 0)
(-0.425931 0.10415 0 0.0997491 0.106985 0 0 0 0)
(-0.451503 0.0365017 0 0.115553 0.319234 0 0 0 0)
(-0.0265437 0.00452105 -2.5631e-19 0.00295336 0.00170072 -3.84465e-19 1.33337e-18 -5.57362e-19 6.9473e-35)
(-0.0930402 0.029611 0 0.0225736 0.0156689 0 5.3089e-18 -7.63887e-19 0)
(-0.188788 0.120136 0 0.0844057 0.0707898 0 2.34482e-17 -4.1522e-18 0)
(-0.335774 0.265202 -2.36724e-17 0.211538 0.211874 -3.55086e-17 1.1126e-16 -7.41732e-17 6.41642e-33)
(-0.179984 0.489506 8.64019e-17 0.546509 0.79544 1.29603e-16 -3.67461e-16 2.44974e-16 2.34193e-32)
(-0.181464 0.105633 1.24233e-18 -0.0877203 -0.377008 1.1181e-17 -2.79456e-16 1.94028e-17 -3.36735e-34)
(-0.00956353 0.0194594 -5.12472e-19 -0.109257 -0.191961 -4.61225e-18 2.33275e-16 -1.97726e-17 -1.38906e-34)
(-0.0917199 0.0965668 0 -0.0267283 -0.106923 0 0 0 0)
(-0.361811 0.296529 -1.23134e-18 0.347802 0.326044 -1.10821e-17 -1.96396e-16 3.28051e-17 3.33756e-34)
(-0.930825 0.172554 3.23327e-18 1.57744 1.13149 2.90995e-17 1.38012e-16 -1.53347e-17 8.76381e-34)
(-0.183023 0.107675 0 -0.0678497 -0.0696877 0 1.41049e-16 -4.0243e-18 0)
(-0.00268091 0.0131423 0 -0.12275 -0.135551 0 -1.18283e-16 6.99571e-18 0)
(0.0564519 0.0948577 0 -0.00108662 -0.169047 0 0 0 0)
(0.281418 0.343627 0 0.517995 -0.37479 0 1.12301e-16 -2.38184e-17 0)
(0.732926 0.13275 0 2.26166 -0.737699 0 -5.59782e-18 6.79858e-18 0)
(-0.174142 2.13506e-14 0 -6.84471e-14 -0.127872 0 0 0 0)
(0.0161011 -1.35151e-13 0 -1.29154e-13 -0.193471 0 0 0 0)
(0.149485 4.41849e-15 0 -7.83035e-14 -0.203017 0 0 0 0)
(0.599894 6.74729e-14 0 1.23124e-13 -0.665727 0 -3.86803e-17 2.87497e-30 0)
(1.10993 7.00081e-14 0 3.53673e-13 -1.80593 0 1.11956e-17 -1.69381e-30 0)
(-0.183023 -0.107675 0 0.0678497 -0.0696877 0 1.41049e-16 4.0243e-18 0)
(-0.00268091 -0.0131423 0 0.12275 -0.135551 0 -1.18283e-16 -6.99571e-18 0)
(0.0564519 -0.0948577 0 0.00108662 -0.169047 0 0 0 0)
(0.281418 -0.343627 0 -0.517995 -0.37479 0 1.12301e-16 2.38184e-17 0)
(0.732926 -0.13275 0 -2.26166 -0.737699 0 -5.59782e-18 -6.79858e-18 0)
(-0.181464 -0.105633 0 0.0877203 -0.377008 0 -1.41049e-16 -4.0243e-18 0)
(-0.00956353 -0.0194594 5.12472e-19 0.109257 -0.191961 -4.61225e-18 3.29047e-18 -5.78123e-18 -1.38906e-34)
(-0.0917199 -0.0965668 0 0.0267283 -0.106923 0 0 0 0)
(-0.361811 -0.296529 1.23134e-18 -0.347802 0.326044 -1.10821e-17 1.04746e-17 -9.81938e-18 3.33756e-34)
(-0.930825 -0.172554 -3.23327e-18 -1.57744 1.13149 2.90995e-17 -1.38012e-16 -1.53347e-17 8.76381e-34)
(-0.0636284 -0.655976 0 8.02308 0.0603872 0 0 0 0)
(0.557586 -0.403751 0 3.02237 0.4968 0 0 0 0)
(0.00106268 0.318791 0 1.17073 0.359929 0 0 0 0)
(0.295198 0.26991 0 0.237583 0.223993 0 0 0 0)
(0.39146 0.113833 0 0.0158022 0.0700651 0 0 0 0)
(0.320751 0.0173559 0 -0.00192904 0.0172661 0 0 0 0)
(0.157072 0.000574006 0 -0.000983489 0.00183056 0 0 0 0)
(0.0387091 -0.000195785 0 -0.000198566 7.0382e-05 0 0 0 0)
(0.00340554 -3.73883e-05 0 -7.83562e-06 7.0279e-07 0 0 0 0)
(6.90766e-05 -1.34048e-06 0 -3.96948e-08 2.23832e-09 0 0 0 0)
(2.13094e-07 -5.40992e-09 0 -1.92413e-11 8.62965e-13 0 0 0 0)
(7.07496e-11 -2.1269e-12 0 7.93026e-16 5.61378e-15 0 0 0 0)
(2.89232e-15 5.75479e-16 0 1.1422e-17 2.40007e-15 0 0 0 0)
(-1.59352e-16 -3.35556e-18 0 -1.18032e-15 8.05115e-16 0 0 0 0)
(8.11153e-16 4.94945e-17 0 -1.19122e-16 6.72901e-16 0 0 0 0)
(-6.11378e-17 -3.16262e-16 0 3.83073e-16 2.21914e-15 0 0 0 0)
(-7.72705e-16 8.13724e-17 0 3.3286e-16 1.03469e-15 0 0 0 0)
(-3.66713e-16 9.26135e-16 0 -2.3691e-16 2.42357e-15 0 0 0 0)
(3.44276e-16 9.89891e-17 0 -1.32263e-15 6.20463e-15 0 0 0 0)
(6.08671e-16 -5.68768e-16 0 4.57137e-17 3.83355e-15 0 0 0 0)
(5.98987e-17 -3.29684e-16 0 4.29202e-16 1.79157e-15 0 0 0 0)
(-1.04041e-16 2.13078e-16 0 1.16236e-15 4.92848e-15 0 0 0 0)
(-8.02149e-16 2.18615e-15 0 6.1273e-16 3.20059e-15 0 0 0 0)
(-3.00418e-16 -4.21123e-16 0 -1.70014e-15 6.42492e-15 0 0 0 0)
(1.21671e-15 -1.66604e-15 0 -1.70167e-15 5.27406e-15 0 0 0 0)
(6.24197e-16 -8.22113e-17 0 2.62477e-17 -7.58509e-16 0 0 0 0)
(-8.59487e-16 -5.3689e-17 0 9.67019e-16 -5.01897e-15 0 0 0 0)
(3.36686e-15 1.75412e-15 0 8.57533e-16 1.25604e-16 0 0 0 0)
(8.57343e-11 2.54704e-14 0 4.23342e-16 -2.95463e-16 0 0 0 0)
(2.584e-07 4.8805e-14 0 7.28545e-14 -5.2925e-14 0 0 0 0)
(8.40276e-05 -1.10818e-13 0 3.76518e-14 3.55649e-14 0 0 0 0)
(0.00417855 7.81404e-14 0 -2.90908e-13 -3.45801e-14 0 0 0 0)
(0.0482638 -2.89188e-13 0 3.3988e-13 -6.16373e-13 0 0 0 0)
(0.202475 2.83521e-13 0 -2.86205e-13 -5.22562e-14 0 0 0 0)
(0.442248 2.77685e-13 0 3.76021e-13 3.32754e-13 0 0 0 0)
(0.638165 -2.73412e-13 0 -2.45424e-13 -2.51032e-13 0 0 0 0)
(0.72576 1.32238e-13 0 1.01521e-13 -6.84147e-14 0 0 0 0)
(0.736181 -5.78826e-14 0 3.94255e-15 -2.71795e-13 0 0 0 0)
(2.70124 -1.55029e-14 0 3.74543e-14 -2.99718e-13 0 0 0 0)
(2.3366 -6.10269e-14 0 2.20783e-13 -1.68001e-13 0 0 0 0)
(0.306628 -0.582859 0 5.92477 -0.401095 0 0 0 0)
(-0.552172 -0.359654 0 2.74502 1.48899 0 0 0 0)
(-0.539605 0.252681 0 1.1093 0.986799 0 0 0 0)
(0.0648429 0.185145 0 0.131791 0.393147 0 0 0 0)
(0.355658 0.0632783 0 -0.0149727 0.0589832 0 0 0 0)
(0.324016 0.00845273 0 -0.00988418 0.0018446 0 0 0 0)
(0.159054 -0.000694682 0 -0.00181563 -0.000677619 0 0 0 0)
(0.0390402 -0.000269619 0 -0.000190671 -0.000128541 0 0 0 0)
(0.00344318 -3.05016e-05 0 -6.51076e-06 -4.60789e-06 0 0 0 0)
(7.04077e-05 -9.01516e-07 0 -3.48422e-08 -1.85964e-08 0 0 0 0)
(2.20225e-07 -3.74086e-09 0 -1.8018e-11 -7.3961e-12 0 0 0 0)
(7.43998e-11 -1.50599e-12 0 -6.44944e-16 8.93077e-15 0 0 0 0)
(2.37888e-15 -8.80835e-16 0 -5.65227e-16 4.72924e-16 0 0 0 0)
(-1.23426e-16 -6.77823e-16 0 -1.19336e-15 4.3313e-15 0 0 0 0)
(9.46383e-16 9.56335e-17 0 -9.24674e-17 -1.59468e-15 0 0 0 0)
(9.87017e-17 8.3889e-19 0 1.61659e-16 1.21403e-15 0 0 0 0)
(-6.51318e-16 1.15767e-16 0 3.4333e-16 4.03716e-16 0 0 0 0)
(-6.86579e-16 1.5855e-15 0 6.71865e-16 1.44473e-15 0 0 0 0)
(2.66829e-16 4.42095e-16 0 3.63863e-16 2.12816e-15 0 0 0 0)
(8.44351e-16 -1.18787e-15 0 -1.19496e-15 4.22172e-15 0 0 0 0)
(3.56962e-16 4.30351e-16 0 2.24445e-16 2.09932e-15 0 0 0 0)
(-2.40043e-18 7.7094e-16 0 1.12172e-15 8.61645e-15 0 0 0 0)
(-1.31783e-15 1.38165e-15 0 4.67167e-16 4.81576e-15 0 0 0 0)
(-8.34373e-16 1.45128e-16 0 -2.57598e-16 -1.38417e-16 0 0 0 0)
(1.31122e-15 -2.82454e-15 0 -2.21225e-15 7.27554e-15 0 0 0 0)
(1.11106e-15 -2.58127e-15 0 -2.7798e-15 2.87215e-15 0 0 0 0)
(-3.27226e-16 5.46118e-16 0 1.66405e-15 -1.31784e-15 0 0 0 0)
(3.49931e-15 2.27507e-15 0 1.87073e-15 2.5982e-15 0 0 0 0)
(8.5759e-11 -3.53928e-15 0 4.96043e-16 -5.36654e-15 0 0 0 0)
(2.584e-07 2.59444e-14 0 4.27685e-15 -3.01112e-13 0 0 0 0)
(8.40276e-05 -8.12753e-14 0 1.03473e-13 -1.56702e-13 0 0 0 0)
(0.00417855 2.57953e-14 0 -2.32116e-13 8.56705e-14 0 0 0 0)
(0.0482638 -2.49668e-13 0 1.49397e-13 -4.57218e-13 0 0 0 0)
(0.202475 3.61373e-13 0 -8.36561e-14 2.38356e-13 0 0 0 0)
(0.442248 1.93055e-13 0 3.62715e-13 -2.76355e-13 0 0 0 0)
(0.638165 -3.22212e-13 0 -1.35525e-13 -8.61688e-14 0 0 0 0)
(0.72576 1.26598e-13 0 1.22219e-13 -2.84339e-13 0 0 0 0)
(0.736181 -1.34462e-13 0 -6.50521e-14 -2.8003e-13 0 0 0 0)
(2.70124 -4.31428e-14 0 -6.11096e-14 -4.25649e-13 0 0 0 0)
(2.3366 -1.52312e-14 0 2.36553e-14 -4.633e-13 0 0 0 0)
(0.348526 2.68087e-14 0 6.25388e-13 -1.1435 0 0 0 0)
(-0.843276 -1.84409e-13 0 4.4403e-13 2.16723 0 0 0 0)
(-0.759148 -1.35721e-13 0 5.25838e-13 1.32912 0 0 0 0)
(-0.0318635 1.163e-13 0 4.51915e-13 0.430052 0 0 0 0)
(0.350245 2.63319e-13 0 4.85427e-13 0.0562527 0 0 0 0)
(0.324578 -1.13584e-13 0 -1.75197e-13 -0.00498566 0 0 0 0)
(0.159892 -2.77589e-13 0 -3.11339e-13 -0.00185983 0 0 0 0)
(0.0392354 1.6437e-13 0 3.29496e-13 -0.000209724 0 0 0 0)
(0.003461 1.94467e-13 0 -9.78425e-15 -6.19793e-06 0 0 0 0)
(7.09706e-05 -9.51366e-14 0 -1.7178e-13 -2.57181e-08 0 0 0 0)
(2.2323e-07 -6.69367e-14 0 4.92552e-14 -1.06181e-11 0 0 0 0)
(7.5991e-11 2.48286e-14 0 -1.80336e-15 2.1916e-16 0 0 0 0)
(2.73278e-15 -7.62551e-16 0 1.70426e-16 -1.2198e-15 0 0 0 0)
(-2.18216e-17 -6.0484e-16 0 1.05584e-15 5.07529e-15 0 0 0 0)
(1.20534e-15 -8.57346e-16 0 -4.57075e-16 9.19896e-16 0 0 0 0)
(6.56395e-17 2.65089e-16 0 -5.19957e-16 -3.2874e-16 0 0 0 0)
(-6.24282e-16 1.48484e-16 0 -2.5074e-16 0 0 0 0 0)
(-3.6074e-16 1.42779e-15 0 3.79937e-16 -7.26689e-16 0 0 0 0)
(-1.988e-16 9.06841e-16 0 2.18013e-15 -3.77186e-15 0 0 0 0)
(5.68113e-16 -5.77157e-16 0 -8.31381e-16 -9.37198e-16 0 0 0 0)
(7.3384e-16 9.48785e-16 0 -4.79554e-17 -2.88369e-16 0 0 0 0)
(-3.34309e-17 1.00331e-15 0 6.88892e-16 -1.81095e-15 0 0 0 0)
(-1.2034e-15 -3.60723e-16 0 -5.58643e-16 -3.84684e-15 0 0 0 0)
(-1.07988e-15 2.94451e-16 0 -3.9531e-17 -7.33033e-15 0 0 0 0)
(4.82983e-16 -7.90235e-16 0 -2.28254e-16 2.04742e-16 0 0 0 0)
(1.75185e-15 -2.5821e-15 0 -1.51955e-15 6.80838e-15 0 0 0 0)
(4.93394e-16 -1.33384e-16 0 1.42937e-15 5.36077e-15 0 0 0 0)
(3.02707e-15 5.76318e-16 0 1.01451e-15 -1.06696e-15 0 0 0 0)
(8.5735e-11 -6.28815e-14 0 -1.87706e-15 -3.46331e-15 0 0 0 0)
(2.584e-07 4.78e-15 0 -1.4467e-13 -1.41549e-13 0 0 0 0)
(8.40276e-05 1.70071e-15 0 1.58951e-13 -2.00321e-13 0 0 0 0)
(0.00417855 -9.2823e-15 0 -1.03711e-13 -1.4101e-13 0 0 0 0)
(0.0482638 -2.4477e-13 0 -3.40584e-14 -5.23657e-13 0 0 0 0)
(0.202475 3.36136e-13 0 -7.02267e-15 3.3236e-13 0 0 0 0)
(0.442248 1.83278e-13 0 2.04766e-13 -5.67498e-13 0 0 0 0)
(0.638165 -2.75735e-13 0 5.22388e-14 2.10852e-13 0 0 0 0)
(0.72576 7.58417e-14 0 2.36553e-14 -2.06972e-13 0 0 0 0)
(0.736181 -9.89909e-14 0 -7.39229e-14 -1.69608e-13 0 0 0 0)
(2.70124 -6.88177e-14 0 -1.04478e-13 4.47027e-14 0 0 0 0)
(2.3366 -7.19799e-14 0 -3.66657e-13 6.72574e-14 0 0 0 0)
(0.306628 0.582859 0 -5.92477 -0.401095 0 0 0 0)
(-0.552172 0.359654 0 -2.74502 1.48899 0 0 0 0)
(-0.539605 -0.252681 0 -1.1093 0.986799 0 0 0 0)
(0.0648429 -0.185145 0 -0.131791 0.393147 0 0 0 0)
(0.355658 -0.0632783 0 0.0149727 0.0589832 0 0 0 0)
(0.324016 -0.00845273 0 0.00988418 0.0018446 0 0 0 0)
(0.159054 0.000694682 0 0.00181563 -0.000677619 0 0 0 0)
(0.0390402 0.000269619 0 0.000190671 -0.000128541 0 0 0 0)
(0.00344318 3.05016e-05 0 6.51076e-06 -4.60789e-06 0 0 0 0)
(7.04077e-05 9.01515e-07 0 3.4842e-08 -1.85969e-08 0 0 0 0)
(2.20225e-07 3.74077e-09 0 1.81386e-11 -7.14489e-12 0 0 0 0)
(7.43855e-11 1.58255e-12 0 -2.12088e-16 -4.69464e-15 0 0 0 0)
(3.21065e-15 5.31857e-16 0 5.90365e-16 -1.29477e-15 0 0 0 0)
(-3.05971e-16 -5.53668e-17 0 2.19368e-15 -1.15347e-15 0 0 0 0)
(4.87968e-16 -1.47645e-15 0 -3.54567e-16 2.99327e-15 0 0 0 0)
(1.58726e-16 -2.66767e-16 0 -1.74938e-15 0 0 0 0 0)
(-3.89531e-16 0 0 -7.5993e-16 0 0 0 0 0)
(2.05823e-17 4.88234e-16 0 1.02939e-16 -5.10412e-16 0 0 0 0)
(-8.55541e-17 3.80856e-16 0 1.15302e-15 -5.85965e-15 0 0 0 0)
(1.96182e-16 -1.74489e-16 0 7.25126e-16 -4.60813e-15 0 0 0 0)
(7.99223e-16 1.76167e-16 0 -8.03739e-16 -2.92406e-15 0 0 0 0)
(-1.50964e-16 -2.6425e-16 0 -1.23313e-15 -7.34475e-15 0 0 0 0)
(-1.52973e-15 -2.23984e-16 0 -6.90208e-16 -1.11368e-14 0 0 0 0)
(-7.3826e-16 1.32377e-15 0 9.97091e-16 -7.512e-15 0 0 0 0)
(8.80671e-16 1.28854e-15 0 1.93641e-15 -6.03267e-15 0 0 0 0)
(1.59328e-15 -1.08133e-15 0 4.57403e-16 7.32456e-16 0 0 0 0)
(4.09955e-16 -1.74489e-15 0 -9.70801e-16 1.49087e-15 0 0 0 0)
(2.53744e-15 -2.91934e-16 0 -1.06594e-16 -7.39954e-15 0 0 0 0)
(8.57166e-11 -4.44067e-14 0 -5.85202e-16 -1.45915e-15 0 0 0 0)
(2.584e-07 -3.13233e-14 0 -9.56112e-14 2.3284e-13 0 0 0 0)
(8.40276e-05 -8.11186e-14 0 -2.70402e-14 -2.0471e-13 0 0 0 0)
(0.00417855 -6.8266e-14 0 -2.18359e-13 -2.19811e-13 0 0 0 0)
(0.0482638 -1.11961e-13 0 2.55265e-14 -8.11713e-13 0 0 0 0)
(0.202475 3.48619e-13 0 2.01625e-13 8.0546e-13 0 0 0 0)
(0.442248 1.57707e-13 0 1.50803e-13 -4.37449e-13 0 0 0 0)
(0.638165 -2.17331e-13 0 1.65587e-13 1.45264e-13 0 0 0 0)
(0.72576 1.59192e-14 0 -1.04478e-13 -4.56167e-13 0 0 0 0)
(0.736181 -6.12476e-14 0 -1.12363e-13 -6.9821e-14 0 0 0 0)
(2.70124 2.57635e-14 0 -9.06787e-14 -1.67081e-13 0 0 0 0)
(2.3366 -8.66986e-15 0 -2.44438e-13 2.43214e-13 0 0 0 0)
(-0.0636284 0.655976 0 -8.02308 0.0603872 0 0 0 0)
(0.557586 0.403751 0 -3.02237 0.4968 0 0 0 0)
(0.00106268 -0.318791 0 -1.17073 0.359929 0 0 0 0)
(0.295198 -0.26991 0 -0.237583 0.223993 0 0 0 0)
(0.39146 -0.113833 0 -0.0158022 0.0700651 0 0 0 0)
(0.320751 -0.0173559 0 0.00192904 0.0172661 0 0 0 0)
(0.157072 -0.000574006 0 0.000983489 0.00183056 0 0 0 0)
(0.0387091 0.000195785 0 0.000198566 7.0382e-05 0 0 0 0)
(0.00340554 3.73883e-05 0 7.83562e-06 7.0279e-07 0 0 0 0)
(6.90766e-05 1.34048e-06 0 3.96948e-08 2.23798e-09 0 0 0 0)
(2.13094e-07 5.40993e-09 0 1.92597e-11 1.20578e-12 0 0 0 0)
(7.07145e-11 2.10296e-12 0 4.60957e-16 -2.43048e-15 0 0 0 0)
(3.43264e-15 2.67606e-16 0 -3.37199e-16 -6.99778e-16 0 0 0 0)
(-2.96711e-16 6.4259e-16 0 5.80955e-16 -4.23944e-15 0 0 0 0)
(5.82681e-17 -5.2179e-16 0 3.82051e-16 6.29408e-16 0 0 0 0)
(-5.22843e-17 -6.05679e-16 0 -1.0782e-15 3.52458e-16 0 0 0 0)
(-8.54245e-17 0 0 -3.71013e-16 0 0 0 0 0)
(1.95755e-16 -2.76834e-16 0 2.11708e-16 -3.22985e-18 0 0 0 0)
(-1.77997e-17 -2.85223e-16 0 -2.34218e-17 -2.58344e-15 0 0 0 0)
(-1.12661e-18 2.76834e-16 0 5.30234e-16 -1.83817e-15 0 0 0 0)
(1.64165e-16 1.52678e-16 0 -6.80637e-16 -1.0785e-15 0 0 0 0)
(-4.03805e-19 -1.38585e-15 0 -1.91094e-15 -2.49257e-15 0 0 0 0)
(-5.54612e-16 -4.09379e-16 0 -1.74581e-16 -3.8539e-15 0 0 0 0)
(-3.15778e-16 1.77929e-15 0 2.08934e-15 -3.27864e-15 0 0 0 0)
(3.25983e-16 1.60815e-15 0 1.93089e-15 -4.2477e-15 0 0 0 0)
(9.06115e-16 -3.9344e-16 0 -2.09351e-16 -3.15903e-15 0 0 0 0)
(3.29322e-16 -2.49905e-15 0 -1.81489e-15 -1.46055e-15 0 0 0 0)
(3.13925e-15 -2.81867e-16 0 -9.03361e-16 -3.37795e-15 0 0 0 0)
(8.57072e-11 7.00641e-15 0 1.63765e-15 -1.7021e-15 0 0 0 0)
(2.584e-07 -5.43475e-14 0 2.37365e-14 2.33064e-13 0 0 0 0)
(8.40276e-05 -1.2998e-13 0 -1.609e-13 4.77466e-14 0 0 0 0)
(0.00417855 -1.85865e-13 0 -1.66506e-13 6.45668e-14 0 0 0 0)
(0.0482638 5.34907e-14 0 -1.63574e-13 -7.18839e-13 0 0 0 0)
(0.202475 4.45013e-13 0 3.71401e-13 1.10434e-12 0 0 0 0)
(0.442248 -8.77927e-15 0 1.0842e-14 -4.12715e-13 0 0 0 0)
(0.638165 -2.8118e-13 0 5.81527e-14 1.19467e-13 0 0 0 0)
(0.72576 1.32715e-14 0 -6.40665e-14 -4.13998e-13 0 0 0 0)
(0.736181 -1.48932e-14 0 -5.81527e-14 1.5225e-14 0 0 0 0)
(2.70124 2.2247e-14 0 -5.91383e-14 -6.92294e-14 0 0 0 0)
(2.3366 4.73787e-14 0 -1.57702e-14 1.08979e-14 0 0 0 0)
(2.15292 0.676361 0 -3.9953 0.174251 0 0 0 0)
(2.46296 0.496562 0 -1.35379 -0.104264 0 0 0 0)
(0.582066 -0.347365 0 -0.589544 -0.0651905 0 0 0 0)
(0.522948 -0.268959 0 -0.232243 0.0210275 0 0 0 0)
(0.464501 -0.134498 0 -0.0791236 0.0432099 0 0 0 0)
(0.338322 -0.0409601 0 -0.0221101 0.0180224 0 0 0 0)
(0.160259 -0.00862481 0 -0.0033511 0.00317555 0 0 0 0)
(0.038811 -0.000792829 0 -0.000160091 0.00022462 0 0 0 0)
(0.00336217 -2.16085e-05 0 -8.05315e-07 4.47642e-06 0 0 0 0)
(6.70318e-05 -4.68733e-08 0 3.91065e-09 1.38851e-08 0 0 0 0)
(2.03571e-07 4.06983e-10 0 3.19302e-12 4.65461e-12 0 0 0 0)
(6.65488e-11 2.24033e-13 0 5.23191e-16 -4.88995e-16 0 0 0 0)
(3.02924e-15 -2.97315e-16 0 -4.95791e-16 2.24854e-16 0 0 0 0)
(1.34487e-16 -2.86172e-17 0 -1.79658e-16 -7.34418e-16 0 0 0 0)
(-5.59371e-17 3.00101e-16 0 2.79437e-16 -4.55445e-16 0 0 0 0)
(-6.96698e-17 -2.69711e-16 0 -4.37514e-16 9.37728e-16 0 0 0 0)
(6.79729e-17 -2.23113e-16 0 1.49927e-16 2.79626e-16 0 0 0 0)
(3.60733e-17 -2.47678e-16 0 -2.97914e-16 -1.1274e-18 0 0 0 0)
(3.59081e-17 -8.68816e-30 0 -3.87701e-17 4.36485e-16 0 0 0 0)
(1.20666e-17 2.47678e-16 0 -8.19981e-18 1.05803e-15 0 0 0 0)
(2.22391e-18 -2.07158e-16 0 2.69234e-17 1.38236e-16 0 0 0 0)
(-7.61464e-18 -7.0834e-16 0 -2.61121e-16 9.48989e-17 0 0 0 0)
(-1.47952e-16 -5.02701e-16 0 4.15768e-18 1.6078e-15 0 0 0 0)
(9.39503e-17 5.50059e-16 0 3.03271e-16 2.47563e-16 0 0 0 0)
(8.01229e-17 9.94006e-16 0 6.79924e-16 -8.89542e-16 0 0 0 0)
(3.81893e-17 -1.28398e-16 0 -7.63736e-17 -1.5428e-15 0 0 0 0)
(6.7855e-17 -1.01021e-15 0 -6.4799e-16 -2.98289e-16 0 0 0 0)
(4.00728e-15 -4.5509e-16 0 -4.84076e-16 1.37841e-15 0 0 0 0)
(8.5743e-11 4.44603e-14 0 7.25034e-16 -6.41457e-16 0 0 0 0)
(2.584e-07 2.63162e-14 0 8.77278e-14 9.95587e-15 0 0 0 0)
(8.40276e-05 -1.30316e-13 0 -1.73606e-14 1.18995e-13 0 0 0 0)
(0.00417855 -4.1315e-13 0 -2.45782e-13 1.91797e-14 0 0 0 0)
(0.0482638 3.4896e-13 0 -3.19915e-13 -2.23984e-13 0 0 0 0)
(0.202475 4.29186e-13 0 5.74311e-13 7.14919e-13 0 0 0 0)
(0.442248 -2.6758e-13 0 -8.60667e-14 -5.91518e-13 0 0 0 0)
(0.638165 -1.4431e-13 0 1.7258e-14 3.40193e-13 0 0 0 0)
(0.72576 -4.64074e-14 0 -8.24217e-14 3.78766e-14 0 0 0 0)
(0.736181 1.01419e-13 0 -1.54727e-14 3.84996e-14 0 0 0 0)
(2.70124 2.71153e-14 0 -8.33143e-14 1.89976e-13 0 0 0 0)
(2.3366 -2.32144e-14 0 1.1902e-15 1.05232e-13 0 0 0 0)
(2.40385 0.213613 0 -0.588456 0.2462 0 0 0 0)
(2.81778 0.123248 0 -0.36543 -0.370714 0 0 0 0)
(0.770275 -0.182733 0 -0.284649 -0.210817 0 0 0 0)
(0.664931 -0.165962 0 -0.183212 -0.0792394 0 0 0 0)
(0.554785 -0.105648 0 -0.0915506 -0.0140908 0 0 0 0)
(0.384346 -0.0432771 0 -0.0334051 0.000421228 0 0 0 0)
(0.176515 -0.0134075 0 -0.00704212 0.00091169 0 0 0 0)
(0.0418829 -0.00232985 0 -0.00058427 0.000101366 0 0 0 0)
(0.00358307 -0.000147414 0 -1.18016e-05 2.07829e-06 0 0 0 0)
(7.09491e-05 -2.22922e-06 0 -3.71128e-08 6.11439e-09 0 0 0 0)
(2.14432e-07 -5.28747e-09 0 -1.27058e-11 1.89592e-12 0 0 0 0)
(6.98709e-11 -1.37462e-12 0 -4.4607e-16 -2.01573e-16 0 0 0 0)
(2.97166e-15 3.34037e-16 0 4.59548e-16 -1.84227e-16 0 0 0 0)
(2.19104e-16 3.46952e-16 0 3.99358e-16 6.48607e-16 0 0 0 0)
(-1.28971e-16 6.48826e-16 0 -3.79941e-16 -7.27974e-17 0 0 0 0)
(-1.67762e-16 -7.74945e-17 0 -1.9985e-16 -4.02094e-17 0 0 0 0)
(-3.31572e-17 -7.85075e-16 0 -1.15344e-16 4.79885e-16 0 0 0 0)
(9.95465e-17 -1.41313e-16 0 -4.79145e-16 1.929e-16 0 0 0 0)
(2.32579e-16 5.82475e-16 0 -1.45713e-16 2.57025e-16 0 0 0 0)
(5.51034e-17 5.065e-18 0 -1.04837e-17 1.48486e-16 0 0 0 0)
(7.27914e-18 -5.82475e-16 0 6.98646e-17 1.15622e-31 0 0 0 0)
(-1.8475e-17 -3.33024e-16 0 3.26096e-18 2.53346e-16 0 0 0 0)
(-2.28808e-16 -2.12223e-16 0 1.22273e-17 1.16423e-15 0 0 0 0)
(1.15705e-16 3.19095e-17 0 3.14461e-17 8.06816e-16 0 0 0 0)
(9.19821e-17 2.12223e-16 0 -9.97716e-17 3.38495e-16 0 0 0 0)
(9.18987e-17 3.41887e-17 0 4.44507e-17 -3.4927e-16 0 0 0 0)
(7.66509e-17 -4.82441e-16 0 -5.34841e-17 6.0209e-16 0 0 0 0)
(3.99687e-15 -5.19669e-16 0 -2.78199e-16 7.19301e-16 0 0 0 0)
(8.5773e-11 -4.812e-15 0 2.1106e-16 5.81328e-16 0 0 0 0)
(2.584e-07 1.76842e-14 0 -1.99179e-15 -6.49235e-14 0 0 0 0)
(8.40276e-05 -1.20911e-13 0 4.56875e-14 -6.12413e-14 0 0 0 0)
(0.00417855 -3.94495e-13 0 -3.62375e-13 -7.63392e-14 0 0 0 0)
(0.0482638 5.65491e-13 0 -1.27075e-13 3.16023e-13 0 0 0 0)
(0.202475 9.93305e-14 0 6.90151e-13 5.03844e-14 0 0 0 0)
(0.442248 -2.31102e-13 0 -2.00401e-13 -3.38226e-13 0 0 0 0)
(0.638165 2.51934e-13 0 1.71538e-13 3.48231e-13 0 0 0 0)
(0.72576 -2.45449e-13 0 -5.80225e-14 1.54732e-13 0 0 0 0)
(0.736181 6.93052e-14 0 -2.08286e-14 7.38253e-14 0 0 0 0)
(2.70124 8.39424e-14 0 7.67682e-14 7.16114e-14 0 0 0 0)
(2.3366 3.57059e-15 0 1.66629e-14 1.88081e-13 0 0 0 0)
(2.36784 0.08188 0 -0.0141832 -0.0591229 0 0 0 0)
(2.75572 0.056164 0 -0.0740618 -0.267536 0 0 0 0)
(0.757659 -0.0664897 0 -0.119749 -0.181614 0 0 0 0)
(0.709025 -0.079386 0 -0.104273 -0.0994815 0 0 0 0)
(0.60886 -0.0577345 0 -0.0602948 -0.0370477 0 0 0 0)
(0.419757 -0.0265031 0 -0.0248286 -0.010798 0 0 0 0)
(0.191886 -0.00893304 0 -0.00599096 -0.00183466 0 0 0 0)
(0.0455857 -0.00166936 0 -0.000561387 -0.000112612 0 0 0 0)
(0.00392516 -0.000119283 0 -1.24127e-05 -1.64517e-06 0 0 0 0)
(7.84043e-05 -2.04958e-06 0 -4.19852e-08 -3.75759e-09 0 0 0 0)
(2.39334e-07 -5.48506e-09 0 -1.52244e-11 -9.32579e-13 0 0 0 0)
(7.8793e-11 -1.60312e-12 0 -6.89996e-16 2.05252e-16 0 0 0 0)
(3.84392e-15 5.21948e-16 0 7.14049e-16 -2.93818e-16 0 0 0 0)
(-6.74475e-16 7.87607e-17 0 1.50123e-16 1.52428e-17 0 0 0 0)
(-6.33355e-16 -3.63667e-16 0 -3.55132e-16 -3.60045e-16 0 0 0 0)
(1.85305e-16 2.62873e-16 0 1.74021e-19 -1.15109e-15 0 0 0 0)
(-2.01166e-16 1.5195e-18 0 1.63447e-16 -8.4466e-16 0 0 0 0)
(6.80866e-18 -4.62434e-16 0 1.1158e-16 -1.90798e-16 0 0 0 0)
(4.87527e-16 -4.27992e-17 0 -2.23899e-17 -1.3298e-16 0 0 0 0)
(2.19805e-16 1.83343e-30 0 7.04427e-17 -6.04455e-16 0 0 0 0)
(1.54688e-17 -1.06112e-16 0 2.26982e-16 -1.38236e-16 0 0 0 0)
(-6.31561e-17 4.13557e-16 0 8.10848e-18 1.11493e-31 0 0 0 0)
(-1.20792e-16 3.06432e-17 0 2.92133e-17 3.75813e-16 0 0 0 0)
(-1.39759e-17 -2.45652e-16 0 8.06939e-18 2.20232e-16 0 0 0 0)
(9.26545e-17 -1.2004e-16 0 -1.41387e-16 2.00784e-16 0 0 0 0)
(8.27936e-17 1.25612e-16 0 8.47624e-17 3.90793e-16 0 0 0 0)
(-2.43062e-16 1.95002e-17 0 -3.9467e-17 1.68196e-16 0 0 0 0)
(4.26221e-15 -4.75097e-16 0 -1.1882e-16 5.00646e-16 0 0 0 0)
(8.57414e-11 -1.87955e-14 0 -2.85856e-16 6.78041e-16 0 0 0 0)
(2.584e-07 -3.32583e-14 0 -3.76837e-14 2.23556e-14 0 0 0 0)
(8.40276e-05 -1.41317e-13 0 -3.3704e-14 -3.31491e-14 0 0 0 0)
(0.00417855 -4.96048e-14 0 -1.99759e-13 1.62118e-13 0 0 0 0)
(0.0482638 4.71076e-13 0 1.86504e-13 4.32716e-13 0 0 0 0)
(0.202475 -2.01272e-13 0 4.10676e-13 -3.13893e-13 0 0 0 0)
(0.442248 1.94366e-14 0 -2.54332e-13 1.17928e-13 0 0 0 0)
(0.638165 3.30722e-13 0 1.27947e-13 8.29385e-14 0 0 0 0)
(0.72576 -3.10835e-13 0 -1.48776e-14 9.29536e-14 0 0 0 0)
(0.736181 2.13213e-14 0 -1.84482e-14 -2.48775e-14 0 0 0 0)
(2.70124 1.37216e-13 0 9.75968e-14 4.20769e-14 0 0 0 0)
(2.3366 8.902e-14 0 -1.1902e-15 4.14682e-14 0 0 0 0)
(2.34615 0.0127788 0 0.0125856 -0.0428487 0 0 0 0)
(2.71605 0.00521117 0 -0.0186702 -0.130244 0 0 0 0)
(0.741163 -0.0207898 0 -0.0421934 -0.105351 0 0 0 0)
(0.722224 -0.0266523 0 -0.0404743 -0.0652745 0 0 0 0)
(0.63134 -0.0201892 0 -0.025335 -0.0275946 0 0 0 0)
(0.436675 -0.00934452 0 -0.0109365 -0.00890925 0 0 0 0)
(0.1999 -0.00311072 0 -0.00271918 -0.00165692 0 0 0 0)
(0.0476441 -0.000563483 0 -0.000258161 -0.000119128 0 0 0 0)
(0.00412401 -3.89005e-05 0 -5.7582e-06 -2.06063e-06 0 0 0 0)
(8.29104e-05 -6.43874e-07 0 -1.96024e-08 -5.54558e-09 0 0 0 0)
(2.54891e-07 -1.66652e-09 0 -7.16638e-12 -1.6173e-12 0 0 0 0)
(8.45424e-11 -4.7624e-13 0 -4.18189e-16 -2.49666e-17 0 0 0 0)
(3.78123e-15 1.50937e-16 0 5.09186e-16 -1.88169e-16 0 0 0 0)
(-8.11197e-16 2.83133e-16 0 -2.04044e-16 -5.66611e-16 0 0 0 0)
(-2.73467e-16 -4.75097e-16 0 -2.26427e-16 -3.73448e-16 0 0 0 0)
(3.31959e-16 -5.44487e-16 0 9.38744e-17 -7.17199e-16 0 0 0 0)
(7.41977e-17 1.403e-16 0 2.07978e-16 -6.0682e-16 0 0 0 0)
(-7.95326e-17 5.44487e-16 0 6.46946e-16 -1.90798e-16 0 0 0 0)
(1.92938e-16 1.83859e-16 0 1.73118e-17 0 0 0 0 0)
(2.95408e-16 0 0 1.73148e-16 -1.46383e-16 0 0 0 0)
(-5.27884e-17 0 0 2.98359e-16 0 0 0 0 0)
(-2.09053e-16 1.62333e-16 0 1.12252e-17 -3.62673e-17 0 0 0 0)
(-2.28846e-16 4.16239e-30 0 4.06376e-17 -7.82901e-16 0 0 0 0)
(-4.86922e-17 -1.36755e-16 0 -1.86638e-16 -6.09711e-17 0 0 0 0)
(1.65886e-16 3.76583e-16 0 -3.50587e-17 -2.41782e-17 0 0 0 0)
(1.90113e-16 2.78575e-18 0 -1.30912e-16 5.68451e-16 0 0 0 0)
(-1.19528e-16 -3.76583e-16 0 7.74979e-17 -1.54005e-16 0 0 0 0)
(3.75944e-15 -2.8364e-17 0 1.12699e-16 3.62673e-17 0 0 0 0)
(8.57368e-11 1.62483e-14 0 -4.5649e-16 1.88432e-16 0 0 0 0)
(2.584e-07 -1.49129e-14 0 5.2427e-14 6.8818e-14 0 0 0 0)
(8.40276e-05 1.37691e-14 0 -9.34577e-14 6.34544e-14 0 0 0 0)
(0.00417855 5.44293e-14 0 1.73762e-13 3.60602e-13 0 0 0 0)
(0.0482638 1.06789e-13 0 -4.30787e-14 -1.06984e-13 0 0 0 0)
(0.202475 -2.0401e-13 0 1.88313e-13 -2.17498e-13 0 0 0 0)
(0.442248 1.51299e-13 0 -1.9683e-13 2.0988e-13 0 0 0 0)
(0.638165 2.27867e-13 0 1.05036e-13 -1.7121e-13 0 0 0 0)
(0.72576 -3.49345e-13 0 -2.55894e-14 1.45289e-14 0 0 0 0)
(0.736181 2.02785e-14 0 4.46327e-15 -2.03321e-13 0 0 0 0)
(2.70124 1.47876e-13 0 -1.21401e-13 4.36952e-14 0 0 0 0)
(2.3366 2.98407e-15 0 -1.42825e-14 -7.07084e-14 0 0 0 0)
(2.33772 -0.00233766 0 0.00524399 -0.0314711 0 0 0 0)
(2.70293 -0.00406555 0 -0.00459803 -0.0452924 0 0 0 0)
(0.736647 -0.0038824 0 -0.0100347 -0.0376056 0 0 0 0)
(0.725271 -0.00445705 0 -0.00976338 -0.0240009 0 0 0 0)
(0.637324 -0.00341886 0 -0.00639519 -0.0101987 0 0 0 0)
(0.44155 -0.00150862 0 -0.00271702 -0.00324634 0 0 0 0)
(0.202176 -0.000462556 0 -0.000642188 -0.000582422 0 0 0 0)
(0.0482004 -7.46821e-05 0 -5.64966e-05 -4.02275e-05 0 0 0 0)
(0.00417392 -4.49217e-06 0 -1.15855e-06 -6.66674e-07 0 0 0 0)
(8.39531e-05 -6.3891e-08 0 -3.64249e-09 -1.72703e-09 0 0 0 0)
(2.58224e-07 -1.41137e-10 0 -1.25701e-12 -4.98338e-13 0 0 0 0)
(8.56992e-11 -4.48073e-14 0 -6.31346e-17 -2.04989e-16 0 0 0 0)
(4.05028e-15 1.98209e-31 0 -1.04305e-16 4.82776e-16 0 0 0 0)
(-1.38334e-15 -9.97805e-17 0 1.46446e-16 -2.52031e-16 0 0 0 0)
(-3.4627e-16 -5.08779e-16 0 1.73311e-16 2.6596e-16 0 0 0 0)
(6.03913e-16 3.79875e-17 0 1.48866e-16 4.42566e-16 0 0 0 0)
(3.31793e-16 5.08779e-16 0 -2.2032e-16 5.65034e-16 0 0 0 0)
(-1.76924e-16 1.2232e-16 0 3.03967e-16 1.90798e-16 0 0 0 0)
(3.09582e-17 0 0 -1.37408e-16 0 0 0 0 0)
(4.90632e-16 0 0 1.20385e-16 -1.74241e-16 0 0 0 0)
(-1.40566e-16 0 0 -4.27614e-16 0 0 0 0 0)
(-3.11505e-16 -3.40874e-16 0 -1.60992e-16 -1.74241e-16 0 0 0 0)
(-3.1146e-16 6.83775e-18 0 1.75576e-16 -3.91582e-16 0 0 0 0)
(-8.69196e-17 4.8548e-16 0 2.25735e-16 -3.41386e-16 0 0 0 0)