/*--------------------------------*- C++ -*----------------------------------*\
| =========                 |                                                 |
| \\      /  F ield         | OpenFOAM: The Open Source CFD Toolbox           |
|  \\    /   O peration     | Version:  v1912                                 |
|   \\  /    A nd           | Website:  www.openfoam.com                      |
|    \\/     M anipulation  |                                                 |
\*---------------------------------------------------------------------------*/
FoamFile
{
    version     2.0;
    format      ascii;
    class       volVectorField;
    location    "5.46";
    object      grad(p);
}
// * * * * * * * * * * * * * * * * * * * * * * * * * * * * * * * * * * * * * //

dimensions      [1 -2 -2 0 0 0 0];


internalField   nonuniform List<vector> 
1900
(
(129367 0.535173 0)
(-128458 -0.760484 0)
(-7416.62 -0.155799 0)
(-1040.98 -1.28621 0)
(-778.338 -0.20087 0)
(-404.291 2.99296 0)
(-423.114 9.45989 0)
(-521.772 20.8124 0)
(-589.705 55.8711 0)
(191.277 -61.4054 0)
(129366 0.622308 0)
(-128458 -0.854781 0)
(-7417.14 -0.33024 0)
(-1041.03 -0.784225 0)
(-774.059 2.05581 0)
(-394.63 8.0265 0)
(-405.294 12.619 0)
(-475.361 6.47745 0)
(-671.923 -8.65246 0)
(-859.688 -127.535 0)
(129366 -5.79092e-08 0)
(-128459 7.68985e-08 0)
(-7416.55 -6.17639e-08 0)
(-1038.59 1.19016e-09 0)
(-769.527 -9.76996e-10 0)
(-393.728 4.26326e-09 0)
(-424.663 2.04281e-09 0)
(-543.044 4.44089e-10 0)
(-723.717 8.52651e-10 0)
(-952.065 -1.08358e-09 0)
(129366 -0.622308 0)
(-128458 0.854781 0)
(-7417.14 0.33024 0)
(-1041.03 0.784225 0)
(-774.059 -2.05581 0)
(-394.63 -8.0265 0)
(-405.294 -12.619 0)
(-475.361 -6.47745 0)
(-671.923 8.65246 0)
(-859.688 127.535 0)
(129367 -0.535173 0)
(-128458 0.760484 0)
(-7416.62 0.155799 0)
(-1040.98 1.28621 0)
(-778.338 0.20087 0)
(-404.291 -2.99296 0)
(-423.114 -9.45989 0)
(-521.772 -20.8124 0)
(-589.705 -55.8711 0)
(191.277 61.4054 0)
(-631.874 -869.823 8.93827e-12)
(-2224.33 -722.616 -1.04319e-11)
(-2149.25 -780.297 -1.30694e-11)
(483.768 -1113.5 0)
(-16959.7 -8480.08 -5.66922e-11)
(-1203.04 -1019.78 8.78109e-12)
(-1634.08 -850.308 1.04319e-11)
(-2013.57 -944.366 1.30694e-11)
(-2350.92 -959.167 0)
(-16039.5 -7242.68 0)
(-1562.52 8.04509e-11 0)
(-1835.32 4.67462e-10 0)
(-2053.33 -2.22045e-10 0)
(-2096.61 2.25409e-09 0)
(-18892.7 -1.58603e-10 0)
(-1203.04 1019.78 8.78109e-12)
(-1634.08 850.308 1.04319e-11)
(-2013.57 944.366 1.30694e-11)
(-2350.92 959.167 0)
(-16039.5 7242.68 0)
(-631.874 869.823 -2.65005e-11)
(-2224.33 722.616 -1.04319e-11)
(-2149.25 780.297 -1.30694e-11)
(483.768 1113.5 -3.50161e-11)
(-16959.7 8480.08 5.66922e-11)
(-33051.5 11315.9 1.16941e-11)
(-5699.38 3577.23 -7.2018e-12)
(-1245.64 1880.1 0)
(-2782.43 1163.2 5.03562e-12)
(-6490.56 1580.28 -1.99237e-12)
(-29087.2 13600.8 -6.01744e-12)
(-7794.73 2515.58 3.65477e-12)
(-1858.11 611.446 0)
(-2743.01 382.696 -3.17204e-12)
(-5987.81 872.924 5.16563e-13)
(-30523.6 3.14002e-10 0)
(-8999.99 3.79563e-10 0)
(-1988.97 2.41782e-09 0)
(-2718.83 -1.95922e-09 1.27342e-12)
(-5783.48 3.98641e-09 -1.03313e-12)
(-29087.2 -13600.8 -6.01744e-12)
(-7794.73 -2515.58 3.65477e-12)
(-1858.11 -611.446 0)
(-2743.01 -382.696 -3.17204e-12)
(-5987.81 -872.924 5.16563e-13)
(-33051.5 -11315.9 6.01744e-12)
(-5699.38 -3577.23 -1.07735e-13)
(-1245.64 -1880.1 0)
(-2782.43 -1163.2 3.50319e-14)
(-6490.56 -1580.28 1.99237e-12)
(-6382.98 4014.79 0)
(-831.938 -829.73 0)
(2550.06 -648.162 0)
(2430.62 1192.78 0)
(272.463 1426.43 0)
(-1211.52 981.7 0)
(-1635.63 491.022 0)
(-1395.7 210.541 0)
(-947.978 89.6695 0)
(-608.913 38.2458 0)
(-477.771 17.628 0)
(-440.642 16.2066 0)
(-398.286 18.6046 0)
(-316.293 8.86417 0)
(-209.95 1.71812 0)
(-125.627 -0.910697 0)
(-81.1289 -1.2946 0)
(-62.387 -1.13813 0)
(-53.3488 -1.02596 0)
(-46.0082 -1.05109 0)
(-38.2277 -1.1471 0)
(-30.7874 -1.24038 0)
(-24.1033 -1.30462 0)
(-18.2264 -1.34824 0)
(-13.0578 -1.38575 0)
(-8.51493 -1.43833 0)
(-3.74563 -1.48892 0)
(2.41942 -1.55095 0)
(11.5629 -1.58697 0)
(20.9599 -1.5355 0)
(33.2515 -1.48972 0)
(43.7119 -1.14903 0)
(56.8061 -1.2271 0)
(65.5422 -0.295878 0)
(92.0649 -2.012 0)
(125.618 0.798081 0)
(203.466 -0.123258 0)
(332.257 7.82991 0)
(2099.11 -9.35584 0)
(-915.162 -351.729 0)
(-7015.67 2543.39 0)
(-1545.99 -709.397 0)
(3033.78 -726.86 0)
(2684.14 273.714 0)
(154.237 336.272 0)
(-1368.74 407.338 0)
(-1731.41 280.662 0)
(-1443.68 113.643 0)
(-966.721 39.0361 0)
(-616.002 16.2503 0)
(-480.242 5.83426 0)
(-440.037 4.98267 0)
(-398.629 8.50224 0)
(-317.993 3.04096 0)
(-210.756 0.190416 0)
(-125.834 -0.598027 0)
(-81.1335 -0.688594 0)
(-62.3564 -0.601458 0)
(-53.3356 -0.537339 0)
(-46.0151 -0.536923 0)
(-38.2423 -0.571883 0)
(-30.8006 -0.610466 0)
(-24.113 -0.640782 0)
(-18.2346 -0.665722 0)
(-13.0676 -0.690706 0)
(-8.52621 -0.724079 0)
(-3.75878 -0.757534 0)
(2.40615 -0.798781 0)
(11.5595 -0.829711 0)
(20.9615 -0.821446 0)
(33.28 -0.81856 0)
(43.7262 -0.672016 0)
(56.8963 -0.718215 0)
(65.4567 -0.173303 0)
(92.1764 -0.977746 0)
(125.85 0.653503 0)
(203.884 1.00843 0)
(332.325 4.96768 0)
(2098.62 2.3149 0)
(-915.199 -4.48314 0)
(-6722.27 -5.97421e-08 0)
(-1783.28 2.34479e-08 0)
(2836.05 7.79901e-08 0)
(2739.89 4.08966e-08 0)
(311.336 1.7263e-08 0)
(-1227.69 -1.25395e-08 0)
(-1721.07 -6.17688e-09 0)
(-1465.99 -5.8862e-09 0)
(-976.31 -1.58298e-08 0)
(-618.572 -1.48407e-08 0)
(-481.049 -7.83212e-10 0)
(-439.866 -7.02468e-09 0)
(-398.851 1.67946e-09 0)
(-318.711 -4.84057e-09 0)
(-211.009 -3.7788e-09 0)
(-125.883 -2.93906e-09 0)
(-81.1299 -1.46146e-09 0)
(-62.343 -1.42512e-09 0)
(-53.3301 -8.84141e-10 0)
(-46.0183 6.41911e-10 0)
(-38.2491 2.49296e-09 0)
(-30.8075 4.80424e-09 0)
(-24.1193 6.09815e-09 0)
(-18.2409 4.88498e-09 0)
(-13.0748 2.20833e-09 0)
(-8.53437 -1.01939e-09 0)
(-3.76736 -3.6597e-09 0)
(2.39843 -5.27457e-09 0)
(11.5563 -5.98107e-09 0)
(20.9631 -3.81917e-09 0)
(33.295 3.36499e-09 0)
(43.741 7.57778e-09 0)
(56.9512 2.52727e-09 0)
(65.4667 5.14336e-09 0)
(92.3054 8.84545e-09 0)
(126.196 2.27091e-08 0)
(204.721 3.55271e-09 0)
(332.637 2.20026e-09 0)
(2096.36 -7.23542e-08 0)
(-914.531 -2.66793e-07 0)
(-7015.67 -2543.39 0)
(-1545.99 709.397 0)
(3033.78 726.86 0)
(2684.14 -273.714 0)
(154.237 -336.272 0)
(-1368.74 -407.338 0)
(-1731.41 -280.662 0)
(-1443.68 -113.643 0)
(-966.721 -39.0361 0)
(-616.002 -16.2503 0)
(-480.242 -5.83426 0)
(-440.037 -4.98267 0)
(-398.629 -8.50224 0)
(-317.993 -3.04096 0)
(-210.756 -0.190416 0)
(-125.834 0.598027 0)
(-81.1335 0.688594 0)
(-62.3564 0.601458 0)
(-53.3356 0.537339 0)
(-46.0151 0.536923 0)
(-38.2423 0.571883 0)
(-30.8006 0.610466 0)
(-24.113 0.640782 0)
(-18.2346 0.665722 0)
(-13.0676 0.690706 0)
(-8.52621 0.724079 0)
(-3.75878 0.757534 0)
(2.40615 0.798781 0)
(11.5595 0.829711 0)
(20.9615 0.821446 0)
(33.28 0.81856 0)
(43.7262 0.672016 0)
(56.8963 0.718215 0)
(65.4567 0.173303 0)
(92.1764 0.977746 0)
(125.85 -0.653503 0)
(203.884 -1.00843 0)
(332.325 -4.96768 0)
(2098.62 -2.3149 0)
(-915.199 4.48314 0)
(-6382.98 -4014.79 0)
(-831.938 829.73 0)
(2550.06 648.162 0)
(2430.62 -1192.78 0)
(272.463 -1426.43 0)
(-1211.52 -981.7 0)
(-1635.63 -491.022 0)
(-1395.7 -210.541 0)
(-947.978 -89.6695 0)
(-608.913 -38.2458 0)
(-477.771 -17.628 0)
(-440.642 -16.2066 0)
(-398.286 -18.6046 0)
(-316.293 -8.86417 0)
(-209.95 -1.71812 0)
(-125.627 0.910697 0)
(-81.1289 1.2946 0)
(-62.387 1.13813 0)
(-53.3488 1.02596 0)
(-46.0082 1.05109 0)
(-38.2277 1.1471 0)
(-30.7874 1.24038 0)
(-24.1033 1.30462 0)
(-18.2264 1.34824 0)
(-13.0578 1.38575 0)
(-8.51493 1.43833 0)
(-3.74563 1.48892 0)
(2.41942 1.55095 0)
(11.5629 1.58697 0)
(20.9599 1.5355 0)
(33.2515 1.48972 0)
(43.7119 1.14903 0)
(56.8061 1.2271 0)
(65.5422 0.295877 0)
(92.0649 2.012 0)
(125.618 -0.798081 0)
(203.466 0.123258 0)
(332.257 -7.82991 0)
(2099.11 9.35584 0)
(-915.162 351.729 0)
(476.733 -1841.93 0)
(553.339 -65.1469 0)
(2324.43 66.4718 0)
(1675.94 -1167.52 0)
(149.94 -1449.72 0)
(-963.783 -1230.43 0)
(-1358.43 -701.643 0)
(-1247.41 -360.259 0)
(-880.316 -165.172 0)
(-579.008 -70.742 0)
(-469.275 -39.7969 0)
(-439.949 -35.1508 0)
(-394.42 -31.2447 0)
(-309.365 -16.5149 0)
(-205.556 -4.03449 0)
(-124.183 1.13492 0)
(-80.9962 1.96593 0)
(-62.4896 1.71987 0)
(-53.3748 1.55975 0)
(-45.9471 1.63896 0)
(-38.1404 1.83434 0)
(-30.7169 2.01528 0)
(-24.0566 2.13907 0)
(-18.1932 2.22409 0)
(-13.0223 2.2964 0)
(-8.47455 2.39446 0)
(-3.70335 2.49276 0)
(2.45231 2.59896 0)
(11.5459 2.66011 0)
(20.9025 2.57638 0)
(33.0706 2.44313 0)
(43.578 1.88832 0)
(56.4654 1.852 0)
(65.8501 0.752193 0)
(91.6191 2.69122 0)
(124.934 -0.764862 0)
(199.956 -0.23283 0)
(338.195 -15.194 0)
(2323.6 12.1107 0)
(-1141.74 98.5068 0)
(295.523 -148.579 0)
(264.242 -27.8151 0)
(1608.75 -665.329 0)
(1374.25 -1165.16 0)
(277.545 -1446.06 0)
(-623.488 -1187.35 0)
(-945.749 -807.623 0)
(-958.255 -475.644 0)
(-705.271 -227.541 0)
(-504.134 -108.528 0)
(-448.03 -68.4555 0)
(-432.773 -55.9974 0)
(-382.401 -44.0722 0)
(-293.787 -23.4712 0)
(-195.299 -6.40199 0)
(-120.62 1.17 0)
(-80.6363 2.68879 0)
(-62.7234 2.49096 0)
(-53.4129 2.33966 0)
(-45.7764 2.49808 0)
(-37.9119 2.81084 0)
(-30.5316 3.09794 0)
(-23.927 3.30494 0)
(-18.0925 3.46158 0)
(-12.9127 3.60261 0)
(-8.34737 3.78953 0)
(-3.57123 3.98832 0)
(2.56305 4.19307 0)
(11.5502 4.33401 0)
(20.7816 4.25091 0)
(32.6856 4.0691 0)
(43.214 3.32313 0)
(55.894 3.19423 0)
(66.1859 2.08391 0)
(90.842 3.82155 0)
(123.168 0.0561491 0)
(191.444 -0.815134 0)
(340.968 -18.4944 0)
(2088.3 9.69646 0)
(-900.258 -301.943 0)
(306.753 183.85 0)
(55.3797 -26.0797 0)
(1228.45 -376.581 0)
(923.601 -764.789 0)
(128.557 -1131.86 0)
(-348.567 -984.999 0)
(-672.604 -770.172 0)
(-688.42 -475.103 0)
(-526.55 -248.499 0)
(-425.707 -137.066 0)
(-418.654 -96.5991 0)
(-416.452 -75.7871 0)
(-363.076 -55.3445 0)
(-273.065 -29.0994 0)
(-181.81 -8.77974 0)
(-115.423 0.599629 0)
(-79.7232 2.8931 0)
(-62.826 2.95937 0)
(-53.3679 2.93443 0)
(-45.4931 3.21249 0)
(-37.5624 3.65282 0)
(-30.2408 4.05563 0)
(-23.7062 4.36779 0)
(-17.9063 4.62976 0)
(-12.7063 4.8732 0)
(-8.10286 5.17302 0)
(-3.31449 5.53447 0)
(2.78543 5.90319 0)
(11.6016 6.13465 0)
(20.6472 6.06703 0)
(32.1765 5.87438 0)
(42.7349 4.967 0)
(55.2712 4.81436 0)
(66.4546 3.72122 0)
(89.6651 5.11135 0)
(120.466 1.23986 0)
(182.081 -1.49949 0)
(348.324 -14.9529 0)
(2050.46 20.8273 0)
(-860.122 -80.2153 0)
(447.556 184.603 0)
(-275.809 -159.059 0)
(896.907 -279.724 0)
(646.427 -679.018 0)
(65.3428 -827.425 0)
(-274.948 -822.176 0)
(-454.394 -660.081 0)
(-455.551 -413.162 0)
(-379.527 -242.25 0)
(-357.758 -153.383 0)
(-388.98 -117.752 0)
(-393.018 -91.512 0)
(-337.411 -62.2773 0)
(-248.916 -32.0793 0)
(-166.68 -10.2222 0)
(-109.371 -0.157018 0)
(-78.3624 2.59667 0)
(-62.6836 3.00735 0)
(-53.169 3.20237 0)
(-45.0841 3.63398 0)
(-37.0994 4.19761 0)
(-29.8426 4.70831 0)
(-23.3738 5.13156 0)
(-17.6055 5.52162 0)
(-12.3892 5.90167 0)
(-7.71014 6.31323 0)
(-2.86762 6.81342 0)
(3.1414 7.41223 0)
(11.7081 7.70589 0)
(20.5308 7.66598 0)
(31.6255 7.43413 0)
(42.1925 6.41187 0)
(54.6936 6.14574 0)
(66.472 5.07929 0)
(88.4509 5.83899 0)
(116.797 2.50509 0)
(175.84 -2.50808 0)
(362.483 -7.76508 0)
(2025.41 23.8715 0)
(-843.03 -80.6489 0)
(331.368 -49.1646 0)
(-392.063 -208.169 0)
(727.394 -210.735 0)
(395.817 -571.335 0)
(-9.39444 -691.544 0)
(-187.309 -653.556 0)
(-278.463 -512.615 0)
(-285.784 -337.086 0)
(-276.218 -217.472 0)
(-305.736 -158.683 0)
(-359.033 -129.299 0)
(-362.995 -100.122 0)
(-305.805 -64.1003 0)
(-222.903 -31.9744 0)
(-151.049 -10.335 0)
(-103.07 -0.56436 0)
(-76.6739 2.40094 0)
(-62.2423 3.14084 0)
(-52.7641 3.57391 0)
(-44.534 4.16111 0)
(-36.5271 4.83448 0)
(-29.3408 5.44238 0)
(-22.9225 5.97769 0)
(-17.1642 6.50834 0)
(-11.9435 7.05094 0)
(-7.22427 7.59683 0)
(-2.25546 8.21332 0)
(3.64545 9.07642 0)
(11.8461 9.45678 0)
(20.3853 9.46814 0)
(30.968 9.21705 0)
(41.4934 8.15123 0)
(53.9871 7.77953 0)
(66.159 6.76908 0)
(87.1845 7.11177 0)
(112.422 4.63147 0)
(172.184 -0.846811 0)
(373.745 0.129816 0)
(1980.22 22.7691 0)
(-805.409 -99.9327 0)
(199.58 -116.932 0)
(-431.504 -198.214 0)
(546.947 -206.395 0)
(183.102 -544.525 0)
(-13.8876 -526.877 0)
(-102.526 -481.945 0)
(-149.433 -374.105 0)
(-171.141 -268.663 0)
(-207.611 -192.426 0)
(-272.791 -159.86 0)
(-332.548 -135.986 0)
(-330.191 -102.662 0)
(-271.741 -62.7701 0)
(-197.106 -30.2591 0)
(-136.412 -9.94862 0)
(-97.0985 -0.867108 0)
(-74.7919 2.34806 0)
(-61.5533 3.475 0)
(-52.1858 4.19632 0)
(-43.8694 4.95232 0)
(-35.8647 5.72929 0)
(-28.741 6.42178 0)
(-22.3466 7.04807 0)
(-16.5713 7.68249 0)
(-11.3403 8.33141 0)
(-6.59002 8.97006 0)
(-1.44183 9.65884 0)
(4.33964 10.6317 0)
(12.0856 11.0024 0)
(20.2997 10.9193 0)
(30.3565 10.5008 0)
(40.8073 9.25107 0)
(53.3617 8.58897 0)
(65.8286 7.42883 0)
(86.391 7.34564 0)
(109.128 5.28878 0)
(171.502 0.101874 0)
(385.24 5.04219 0)
(1928.99 21.819 0)
(-768.672 -112.81 0)
(27.683 -112.492 0)
(-478.274 -199.808 0)
(393.676 -261.524 0)
(86.9895 -429.351 0)
(50.9101 -364.4 0)
(-40.0921 -335.071 0)
(-72.9368 -269.922 0)
(-110.711 -214.949 0)
(-171.371 -175.485 0)
(-251.349 -159.331 0)
(-303.915 -136.534 0)
(-292.441 -98.2581 0)
(-236.035 -57.0094 0)
(-172.002 -25.8768 0)
(-122.726 -7.68369 0)
(-91.2208 0.589237 0)
(-72.4897 3.94557 0)
(-60.4613 5.40021 0)
(-51.3405 6.398 0)
(-43.0568 7.28725 0)
(-35.1111 8.13298 0)
(-28.07 8.88186 0)
(-21.7076 9.56849 0)
(-15.9276 10.2661 0)
(-10.7027 10.9698 0)
(-5.94511 11.6501 0)
(-0.654226 12.372 0)
(4.94018 13.368 0)
(12.1233 13.6526 0)
(19.9019 13.3919 0)
(29.3604 12.7166 0)
(39.6511 11.1878 0)
(52.2311 10.1134 0)
(64.9609 8.59343 0)
(85.1222 8.07733 0)
(105.442 5.8496 0)
(171.946 1.64068 0)
(394.672 7.38476 0)
(1866.66 17.6342 0)
(-717.727 -135.29 0)
(-101.363 -63.0531 0)
(-575.117 -161.222 0)
(325.751 -245.135 0)
(83.9667 -255.923 0)
(76.9634 -237.571 0)
(-11.4833 -230.648 0)
(-33.6793 -201.713 0)
(-80.1372 -176.984 0)
(-154.015 -163.212 0)
(-235.257 -154.493 0)
(-273.696 -129.014 0)
(-253.558 -88.2607 0)
(-201.992 -48.7467 0)
(-149.574 -20.4666 0)
(-110.908 -4.6256 0)
(-85.8921 3.08611 0)
(-70.1559 6.65387 0)
(-59.19 8.49445 0)
(-50.3674 9.80154 0)
(-42.1975 10.849 0)
(-34.3281 11.7668 0)
(-27.3577 12.5495 0)
(-21.0127 13.2403 0)
(-15.2209 13.9132 0)
(-10.0065 14.5705 0)
(-5.23885 15.1841 0)
(0.213585 15.8198 0)
(5.57371 16.6887 0)
(12.1086 16.7236 0)
(19.3977 16.1597 0)
(28.2325 15.1129 0)
(38.2988 13.2275 0)
(50.8617 11.6764 0)
(63.8665 9.76787 0)
(83.747 8.79502 0)
(102.926 6.57096 0)
(172.981 3.57964 0)
(400.652 8.48089 0)
(1791.5 14.1209 0)
(-655.294 -155.622 0)
(-188.437 -25.1058 0)
(-653.735 -119.776 0)
(302.418 -193.615 0)
(94.2785 -167.866 0)
(75.2662 -166.219 0)
(-5.53857 -168.787 0)
(-21.2239 -159.524 0)
(-73.6099 -154.795 0)
(-149.698 -157.015 0)
(-218.394 -147.835 0)
(-240.092 -117.05 0)
(-215.092 -75.083 0)
(-170.706 -38.3068 0)
(-129.485 -13.0845 0)
(-100.029 1.37212 0)
(-80.3514 8.84765 0)
(-67.2781 12.6936 0)
(-57.4281 15.0799 0)
(-49.0716 16.7656 0)
(-41.163 18.0114 0)
(-33.4724 18.9824 0)
(-26.6501 19.7011 0)
(-20.3935 20.2251 0)
(-14.6457 20.6529 0)
(-9.47803 21.0112 0)
(-4.74126 21.3146 0)
(0.795645 21.5508 0)
(5.81117 21.929 0)
(11.6136 21.3837 0)
(18.3497 20.194 0)
(26.5348 18.4718 0)
(36.3396 15.9491 0)
(48.8973 13.7171 0)
(62.1843 11.2138 0)
(82.0416 9.74368 0)
(100.416 7.45033 0)
(173.787 5.30082 0)
(404.83 8.91362 0)
(1708.52 10.2368 0)
(-581.371 -174.749 0)
(-240.977 13.8832 0)
(-737.499 -86.1709 0)
(279.41 -150.008 0)
(110.366 -124.291 0)
(76.0763 -125.458 0)
(-5.03141 -131.78 0)
(-20.1962 -133.378 0)
(-77.7192 -140.584 0)
(-147.308 -146.759 0)
(-196.745 -132.009 0)
(-203.589 -97.7171 0)
(-177.678 -57.357 0)
(-142.248 -24.7672 0)
(-111.338 -3.71962 0)
(-89.7734 9.17239 0)
(-74.9823 16.0647 0)
(-64.1503 20.1222 0)
(-55.2661 22.8785 0)
(-47.5425 24.8252 0)
(-40.0613 26.1963 0)
(-32.6999 27.1873 0)
(-26.1602 27.8383 0)
(-20.0955 28.2289 0)
(-14.4634 28.4928 0)
(-9.36888 28.6675 0)
(-4.71883 28.7785 0)
(0.805622 28.6976 0)
(5.41268 28.7307 0)
(10.4368 27.7535 0)
(16.5917 26.0823 0)
(24.142 23.801 0)
(33.717 20.74 0)
(46.2985 17.9144 0)
(60.0376 14.897 0)
(80.1204 13.0197 0)
(98.6443 10.5529 0)
(174.391 8.92847 0)
(405.408 10.8307 0)
(1614.52 7.6298 0)
(-496.764 -185.709 0)
(-258.096 17.6177 0)
(-811.666 -48.8169 0)
(265.684 -95.8927 0)
(117.936 -82.575 0)
(68.049 -95.1134 0)
(-13.1704 -105.977 0)
(-29.7076 -116.367 0)
(-86.5049 -128.995 0)
(-141.434 -131.256 0)
(-171.135 -109.388 0)
(-168.155 -74.0801 0)
(-144.795 -37.7517 0)
(-119.019 -9.93855 0)
(-96.7797 8.14652 0)
(-80.9645 18.6822 0)
(-69.7998 25.3785 0)
(-60.7121 29.8458 0)
(-52.8961 33.0346 0)
(-45.8745 35.3081 0)
(-38.8867 36.8251 0)
(-31.8901 37.7754 0)
(-25.6464 38.2229 0)
(-19.7628 38.3099 0)
(-14.2231 38.2377 0)
(-9.2027 38.0682 0)
(-4.71225 37.9212 0)
(0.749633 37.4683 0)
(4.90138 37.0358 0)
(9.06139 35.6527 0)
(14.5409 33.5392 0)
(21.3869 30.7371 0)
(30.6671 27.1189 0)
(43.2667 23.6959 0)
(57.4676 20.1579 0)
(77.8554 17.8864 0)
(96.4736 15.2334 0)
(174.054 13.4078 0)
(403.579 14.3723 0)
(1519.13 9.47149 0)
(-409.768 -198.836 0)
(-271.041 23.8964 0)
(-846.882 -16.9738 0)
(246.879 -49.1008 0)
(111.117 -53.6252 0)
(53.5251 -77.7026 0)
(-25.5125 -89.5317 0)
(-42.3765 -103.278 0)
(-92.0668 -112.038 0)
(-128.415 -106.389 0)
(-141.648 -81.4373 0)
(-134.558 -48.327 0)
(-115.869 -18.3331 0)
(-98.019 4.96643 0)
(-83.7577 19.8504 0)
(-73.1681 28.9296 0)
(-64.2246 35.0477 0)
(-56.7725 39.2368 0)
(-50.0024 42.2869 0)
(-43.8898 44.4761 0)
(-37.6837 45.9557 0)
(-31.3529 46.9225 0)
(-25.6451 47.4329 0)
(-20.0813 47.6166 0)
(-14.6963 47.6553 0)
(-9.6738 47.5833 0)
(-5.29697 47.5954 0)
(-0.0475936 47.1531 0)
(3.66311 46.5595 0)
(7.06725 45.0905 0)
(11.8549 42.9056 0)
(17.9552 40.0103 0)
(26.9318 36.2961 0)
(39.5906 32.8036 0)
(54.4393 29.455 0)
(75.375 27.5669 0)
(94.3286 25.6841 0)
(173.561 24.7386 0)
(401.615 25.4086 0)
(1409.06 16.2938 0)
(-314.285 -192.023 0)
(-251.425 -10.832 0)
(-882.009 10.7802 0)
(230.365 -7.16778 0)
(90.3739 -22.5927 0)
(33.4483 -56.2495 0)
(-37.8157 -69.3146 0)
(-51.3952 -84.8533 0)
(-89.5029 -87.0887 0)
(-111.946 -74.4797 0)
(-115.185 -48.6811 0)
(-107.345 -19.1755 0)
(-93.4396 5.26588 0)
(-82.2239 22.5229 0)
(-73.6879 34.3505 0)
(-66.3199 42.6224 0)
(-59.8675 48.1251 0)
(-53.7361 52.0942 0)
(-47.8473 55.0538 0)
(-42.3391 57.264 0)
(-36.5292 58.7523 0)
(-30.4666 59.5404 0)
(-24.9775 59.7052 0)
(-19.5485 59.59 0)
(-14.2552 59.4981 0)
(-9.26039 59.4098 0)
(-5.12678 59.5181 0)
(-0.248619 59.0682 0)
(2.91376 58.406 0)
(5.5404 56.9732 0)
(9.64542 54.9304 0)
(15.0177 52.2259 0)
(23.7225 48.7783 0)
(36.6744 45.759 0)
(52.4213 43.1378 0)
(74.2217 42.4288 0)
(93.7482 41.815 0)
(173.789 41.6625 0)
(395.441 44.6135 0)
(1309.6 33.4523 0)
(-240.429 -168.586 0)
(-271.091 -56.5189 0)
(-843.351 37.483 0)
(214.72 24.0726 0)
(63.8205 1.09673 0)
(8.50217 -37.7087 0)
(-53.0762 -45.8291 0)
(-59.5042 -58.7001 0)
(-82.0703 -54.9465 0)
(-91.4041 -38.4417 0)
(-88.355 -12.827 0)
(-82.5726 9.69719 0)
(-75.6867 28.5804 0)
(-69.992 41.1795 0)
(-64.3892 50.9047 0)
(-59.8944 57.4371 0)
(-55.0972 61.9679 0)
(-50.0957 64.9077 0)
(-45.0206 66.635 0)
(-40.3258 67.5305 0)
(-35.4901 68.1205 0)
(-30.4347 69.0158 0)
(-25.5973 70.1506 0)
(-20.2809 71.1641 0)
(-14.87 71.8815 0)
(-9.65453 72.2305 0)
(-5.62618 72.5238 0)
(-1.11933 72.1439 0)
(1.64431 71.6803 0)
(3.71805 70.5065 0)
(7.28021 68.9003 0)
(12.0269 66.5792 0)
(20.7001 63.6641 0)
(34.1552 61.3474 0)
(51.2302 59.7706 0)
(74.1002 60.7589 0)
(93.5901 62.1484 0)
(176.258 64.1818 0)
(393.703 72.1226 0)
(1203.62 63.1233 0)
(-184.066 -114.226 0)
(-269.768 54.8869 0)
(-804.348 77.9964 0)
(195.302 61.9392 0)
(30.8392 32.7765 0)
(-11.7712 -3.76923 0)
(-58.0438 -4.44263 0)
(-60.181 -10.8893 0)
(-69.9811 -2.09503 0)
(-71.3586 13.4596 0)
(-68.7964 32.3457 0)
(-67.4436 48.0594 0)
(-63.1021 61.1633 0)
(-60.7115 71.1816 0)
(-58.0215 78.7848 0)
(-55.659 84.5462 0)
(-52.6685 89.069 0)
(-49.2387 92.4439 0)
(-45.32 94.8228 0)
(-40.9076 96.3026 0)
(-35.0979 97.1407 0)
(-28.5103 97.8246 0)
(-22.9074 98.2521 0)
(-17.8806 98.2444 0)
(-13.2276 97.9261 0)
(-8.64146 97.3181 0)
(-5.21022 96.9425 0)
(-1.06144 96.0135 0)
(1.33594 95.326 0)
(2.86148 93.975 0)
(5.86086 92.4701 0)
(9.97193 90.0678 0)
(18.681 87.3725 0)
(32.9225 85.4507 0)
(51.8541 84.5735 0)
(76.513 86.858 0)
(97.0466 90.0219 0)
(183.4 93.3444 0)
(394.421 106.583 0)
(1130.03 103.94 0)
(-191.184 55.7594 0)
(-143.04 231.974 0)
(-836.555 129.52 0)
(171.144 103.098 0)
(0.501468 74.588 0)
(-27.3635 43.1637 0)
(-59.9373 40.23 0)
(-57.242 38.6772 0)
(-58.6068 48.9294 0)
(-58.2158 61.7466 0)
(-55.0134 73.775 0)
(-54.8028 85.4215 0)
(-53.4052 95.3901 0)
(-53.0113 103.046 0)
(-51.5106 110.736 0)
(-49.9842 117.805 0)
(-47.4867 124.52 0)
(-44.5511 129.872 0)
(-41.3022 133.118 0)
(-38.0923 134.428 0)
(-34.0234 134.726 0)
(-29.3636 135.214 0)
(-25.1928 135.787 0)
(-20.595 135.341 0)
(-15.7626 133.186 0)
(-10.6024 129.581 0)
(-6.88335 126.705 0)
(-2.67709 123.096 0)
(-0.320003 120.802 0)
(0.966009 118.242 0)
(3.5151 116.72 0)
(7.11464 114.563 0)
(16.2508 112.553 0)
(31.458 111.236 0)
(52.5863 110.793 0)
(79.3505 114.039 0)
(99.8407 118.323 0)
(192.217 120.582 0)
(403.913 134.266 0)
(1154.64 144.947 0)
(-337.958 238.477 0)
(78.5808 518.46 0)
(-928.537 217.567 0)
(142.367 196.482 0)
(-26.9161 161.183 0)
(-44.8798 128.373 0)
(-62.3671 120.994 0)
(-51.7979 122.137 0)
(-47.7507 131.835 0)
(-47.4166 145.205 0)
(-45.9823 155.595 0)
(-46.6144 164.475 0)
(-46.1189 170.997 0)
(-45.9232 174.952 0)
(-43.7991 178.566 0)
(-42.377 181.66 0)
(-41.0397 186.251 0)
(-40.9527 192.786 0)
(-40.9298 201.213 0)
(-39.3581 209.856 0)
(-34.3404 215.374 0)
(-27.4879 216.03 0)
(-22.7854 211.92 0)
(-20.3874 204.707 0)
(-18.7779 199.192 0)
(-14.887 195.798 0)
(-11.4593 196.053 0)
(-6.74913 197.018 0)
(-3.34203 197.703 0)
(-1.07226 198.598 0)
(2.31593 199.601 0)
(5.95624 200.32 0)
(15.475 200.392 0)
(31.2268 200.454 0)
(54.5553 202.986 0)
(83.7691 209.913 0)
(103.352 222.345 0)
(198.763 230.213 0)
(417.899 241.257 0)
(1230.45 224.451 0)
(-560.665 487.203 0)
(566.222 9776.77 0)
(-1146.82 1194.13 0)
(116.811 702.703 0)
(-65.1311 601.622 0)
(-66.091 572.148 0)
(-65.9467 544.796 0)
(-46.7958 543.603 0)
(-36.3768 532.884 0)
(-35.3197 534.821 0)
(-36.4447 527.132 0)
(-39.9606 520.152 0)
(-43.3094 507.85 0)
(-45.7175 491.708 0)
(-45.0459 471.973 0)
(-42.5784 447.698 0)
(-36.7655 421.73 0)
(-30.1336 394.868 0)
(-24.8532 372.123 0)
(-24.446 358.81 0)
(-28.0737 352.684 0)
(-32.6922 352.497 0)
(-36.1038 359.78 0)
(-32.86 365.907 0)
(-24.3477 386.501 0)
(-13.627 401.973 0)
(-5.70756 419.522 0)
(-1.08751 433.334 0)
(1.20263 443.083 0)
(2.79507 451.699 0)
(5.1736 456.853 0)
(7.87685 459.098 0)
(16.3802 458.334 0)
(33.9578 454.378 0)
(61.7019 451.68 0)
(98.0058 451.484 0)
(119.402 463.951 0)
(210.441 485.617 0)
(398.361 463.836 0)
(1391.64 1026.04 0)
(-1023.73 8890.48 0)
(10650.5 156242 0)
(-9672.64 11028.1 0)
(-428.591 2645.01 0)
(-152.723 2347.63 0)
(-99.6396 2267.09 0)
(-89.8735 2253.16 0)
(-63.2761 2353.1 0)
(-56.2132 2400.93 0)
(-52.9593 2462.83 0)
(-60.1182 2506.24 0)
(-65.1957 2526.3 0)
(-73.5283 2531.08 0)
(-80.4955 2520.5 0)
(-86.2086 2494.63 0)
(-90.7933 2457.23 0)
(-91.9488 2412.64 0)
(-88.7556 2362.6 0)
(-75.6772 2310.63 0)
(-58.0898 2267.53 0)
(-40.4236 2228.95 0)
(-20.6501 2202.38 0)
(-9.86257 2178.17 0)
(5.36197 2143.13 0)
(15.9761 2110.67 0)
(16.9331 2058.91 0)
(18.7618 2006.5 0)
(15.9557 1943.27 0)
(14.3544 1867.02 0)
(12.1962 1783.84 0)
(9.44631 1688.87 0)
(7.38398 1589.2 0)
(10.9268 1469.48 0)
(24.8144 1361.11 0)
(51.7662 1226.16 0)
(95.5935 1131.09 0)
(136.244 1131.54 0)
(198.653 1191.06 0)
(938.669 1287.96 0)
(9350.67 9170.13 0)
(-10116.6 139037 0)
(161754 -167591 0)
(-149159 -11319.3 0)
(-8247.96 -2766.05 0)
(-429.316 -2315.33 0)
(-157.127 -2162.05 0)
(16.9346 -2048.88 0)
(95.5989 -2086.36 0)
(69.3657 -2082.42 0)
(66.1615 -2100.01 0)
(24.7199 -2096.12 0)
(-16.0193 -2063.27 0)
(-48.8979 -2011.84 0)
(-80.8474 -1936.23 0)
(-106.021 -1844.41 0)
(-121.587 -1736.74 0)
(-127.954 -1624.01 0)
(-128.431 -1508.54 0)
(-116.458 -1398.63 0)
(-103.152 -1309.15 0)
(-90.8545 -1231.31 0)
(-81.6251 -1172.92 0)
(-93.2028 -1125.17 0)
(-97.9061 -1065.97 0)
(-105.504 -1029.13 0)
(-114.012 -973.062 0)
(-117.148 -928.393 0)
(-135.497 -870.963 0)
(-152.426 -804.341 0)
(-168.876 -727.681 0)
(-182.389 -641.748 0)
(-203.535 -548.212 0)
(-203.417 -438.195 0)
(-200.513 -348.458 0)
(-159.949 -255.867 0)
(6.82487 -236.193 0)
(177.193 -362.15 0)
(361.169 -561.458 0)
(8087.28 -943.097 0)
(134131 -9928.01 0)
(-143841 -149839 0)
(161754 167591 0)
(-149159 11319.3 0)
(-8247.96 2766.05 0)
(-429.316 2315.33 0)
(-157.127 2162.05 0)
(16.9346 2048.88 0)
(95.5989 2086.36 0)
(69.3657 2082.42 0)
(66.1615 2100.01 0)
(24.7199 2096.12 0)
(-16.0193 2063.27 0)
(-48.8979 2011.84 0)
(-80.8474 1936.23 0)
(-106.021 1844.41 0)
(-121.587 1736.74 0)
(-127.954 1624.01 0)
(-128.431 1508.54 0)
(-116.458 1398.63 0)
(-103.152 1309.15 0)
(-90.8545 1231.31 0)
(-81.6251 1172.92 0)
(-93.2028 1125.17 0)
(-97.9061 1065.97 0)
(-105.504 1029.13 0)
(-114.012 973.062 0)
(-117.148 928.393 0)
(-135.497 870.963 0)
(-152.426 804.341 0)
(-168.876 727.681 0)
(-182.389 641.748 0)
(-203.535 548.212 0)
(-203.417 438.195 0)
(-200.513 348.458 0)
(-159.949 255.867 0)
(6.82487 236.193 0)
(177.193 362.15 0)
(361.169 561.458 0)
(8087.28 943.097 0)
(134131 9928.01 0)
(-143841 149839 0)
(10650.5 -156242 0)
(-9672.64 -11028.1 0)
(-428.591 -2645.01 0)
(-152.723 -2347.63 0)
(-99.6396 -2267.09 0)
(-89.8735 -2253.16 0)
(-63.2761 -2353.1 0)
(-56.2132 -2400.93 0)
(-52.9593 -2462.83 0)
(-60.1182 -2506.24 0)
(-65.1957 -2526.3 0)
(-73.5283 -2531.08 0)
(-80.4955 -2520.5 0)
(-86.2086 -2494.63 0)
(-90.7933 -2457.23 0)
(-91.9488 -2412.64 0)
(-88.7556 -2362.6 0)
(-75.6772 -2310.63 0)
(-58.0898 -2267.53 0)
(-40.4236 -2228.95 0)
(-20.6501 -2202.38 0)
(-9.86257 -2178.17 0)
(5.36197 -2143.13 0)
(15.9761 -2110.67 0)
(16.9331 -2058.91 0)
(18.7618 -2006.5 0)
(15.9557 -1943.27 0)
(14.3544 -1867.02 0)
(12.1962 -1783.84 0)
(9.44631 -1688.87 0)
(7.38398 -1589.2 0)
(10.9268 -1469.48 0)
(24.8144 -1361.11 0)
(51.7662 -1226.16 0)
(95.5935 -1131.09 0)
(136.244 -1131.54 0)
(198.653 -1191.06 0)
(938.669 -1287.96 0)
(9350.67 -9170.13 0)
(-10116.6 -139037 0)
(566.222 -9776.77 0)
(-1146.82 -1194.13 0)
(116.811 -702.703 0)
(-65.1311 -601.622 0)
(-66.091 -572.148 0)
(-65.9467 -544.796 0)
(-46.7958 -543.603 0)
(-36.3768 -532.884 0)
(-35.3197 -534.821 0)
(-36.4447 -527.132 0)
(-39.9606 -520.152 0)
(-43.3094 -507.85 0)
(-45.7175 -491.708 0)
(-45.0459 -471.973 0)
(-42.5784 -447.698 0)
(-36.7655 -421.73 0)
(-30.1336 -394.868 0)
(-24.8532 -372.123 0)
(-24.446 -358.81 0)
(-28.0737 -352.684 0)
(-32.6922 -352.497 0)
(-36.1038 -359.78 0)
(-32.86 -365.907 0)
(-24.3477 -386.501 0)
(-13.627 -401.973 0)
(-5.70756 -419.522 0)
(-1.08751 -433.334 0)
(1.20263 -443.083 0)
(2.79507 -451.699 0)
(5.1736 -456.853 0)
(7.87685 -459.098 0)
(16.3802 -458.334 0)
(33.9578 -454.378 0)
(61.7019 -451.68 0)
(98.0058 -451.484 0)
(119.402 -463.951 0)
(210.441 -485.617 0)
(398.361 -463.836 0)
(1391.64 -1026.04 0)
(-1023.73 -8890.48 0)
(78.5808 -518.46 0)
(-928.537 -217.567 0)
(142.367 -196.482 0)
(-26.9161 -161.183 0)
(-44.8798 -128.373 0)
(-62.3671 -120.994 0)
(-51.7979 -122.137 0)
(-47.7507 -131.835 0)
(-47.4166 -145.205 0)
(-45.9823 -155.595 0)
(-46.6144 -164.475 0)
(-46.1189 -170.997 0)
(-45.9232 -174.952 0)
(-43.7991 -178.566 0)
(-42.377 -181.66 0)
(-41.0397 -186.251 0)
(-40.9527 -192.786 0)
(-40.9298 -201.213 0)
(-39.3581 -209.856 0)
(-34.3404 -215.374 0)
(-27.4879 -216.03 0)
(-22.7854 -211.92 0)
(-20.3874 -204.707 0)
(-18.7779 -199.192 0)
(-14.887 -195.798 0)
(-11.4593 -196.053 0)
(-6.74913 -197.018 0)
(-3.34203 -197.703 0)
(-1.07226 -198.598 0)
(2.31593 -199.601 0)
(5.95624 -200.32 0)
(15.475 -200.392 0)
(31.2268 -200.454 0)
(54.5553 -202.986 0)
(83.7691 -209.913 0)
(103.352 -222.345 0)
(198.763 -230.213 0)
(417.899 -241.257 0)
(1230.45 -224.451 0)
(-560.665 -487.203 0)
(-143.04 -231.974 0)
(-836.555 -129.52 0)
(171.144 -103.098 0)
(0.501468 -74.588 0)
(-27.3635 -43.1637 0)
(-59.9373 -40.23 0)
(-57.242 -38.6772 0)
(-58.6068 -48.9294 0)
(-58.2158 -61.7466 0)
(-55.0134 -73.775 0)
(-54.8028 -85.4215 0)
(-53.4052 -95.3901 0)
(-53.0113 -103.046 0)
(-51.5106 -110.736 0)
(-49.9842 -117.805 0)
(-47.4867 -124.52 0)
(-44.5511 -129.872 0)
(-41.3022 -133.118 0)
(-38.0923 -134.428 0)
(-34.0234 -134.726 0)
(-29.3636 -135.214 0)
(-25.1928 -135.787 0)
(-20.595 -135.341 0)
(-15.7626 -133.186 0)
(-10.6024 -129.581 0)
(-6.88335 -126.705 0)
(-2.67709 -123.096 0)
(-0.320003 -120.802 0)
(0.966009 -118.242 0)
(3.5151 -116.72 0)
(7.11464 -114.563 0)
(16.2508 -112.553 0)
(31.458 -111.236 0)
(52.5863 -110.793 0)
(79.3505 -114.039 0)
(99.8407 -118.323 0)
(192.217 -120.582 0)
(403.913 -134.266 0)
(1154.64 -144.947 0)
(-337.958 -238.477 0)
(-269.768 -54.8869 0)
(-804.348 -77.9964 0)
(195.302 -61.9392 0)
(30.8392 -32.7765 0)
(-11.7712 3.76923 0)
(-58.0438 4.44263 0)
(-60.181 10.8893 0)
(-69.9811 2.09503 0)
(-71.3586 -13.4596 0)
(-68.7964 -32.3457 0)
(-67.4436 -48.0594 0)
(-63.1021 -61.1633 0)
(-60.7115 -71.1816 0)
(-58.0215 -78.7848 0)
(-55.659 -84.5462 0)
(-52.6685 -89.069 0)
(-49.2387 -92.4439 0)
(-45.32 -94.8228 0)
(-40.9076 -96.3026 0)
(-35.0979 -97.1407 0)
(-28.5103 -97.8246 0)
(-22.9074 -98.2521 0)
(-17.8806 -98.2444 0)
(-13.2276 -97.9261 0)
(-8.64146 -97.3181 0)
(-5.21022 -96.9425 0)
(-1.06144 -96.0135 0)
(1.33594 -95.326 0)
(2.86148 -93.975 0)
(5.86086 -92.4701 0)
(9.97193 -90.0678 0)
(18.681 -87.3725 0)
(32.9225 -85.4507 0)
(51.8541 -84.5735 0)
(76.513 -86.858 0)
(97.0466 -90.0219 0)
(183.4 -93.3444 0)
(394.421 -106.583 0)
(1130.03 -103.94 0)
(-191.184 -55.7594 0)
(-271.091 56.5189 0)
(-843.351 -37.483 0)
(214.72 -24.0726 0)
(63.8205 -1.09673 0)
(8.50217 37.7087 0)
(-53.0762 45.8291 0)
(-59.5042 58.7001 0)
(-82.0703 54.9465 0)
(-91.4041 38.4417 0)
(-88.355 12.827 0)
(-82.5726 -9.69719 0)
(-75.6867 -28.5804 0)
(-69.992 -41.1795 0)
(-64.3892 -50.9047 0)
(-59.8944 -57.4371 0)
(-55.0972 -61.9679 0)
(-50.0957 -64.9077 0)
(-45.0206 -66.635 0)
(-40.3258 -67.5305 0)
(-35.4901 -68.1205 0)
(-30.4347 -69.0158 0)
(-25.5973 -70.1506 0)
(-20.2809 -71.1641 0)