/*--------------------------------*- C++ -*----------------------------------*\
| =========                 |                                                 |
| \\      /  F ield         | OpenFOAM: The Open Source CFD Toolbox           |
|  \\    /   O peration     | Version:  v1912                                 |
|   \\  /    A nd           | Website:  www.openfoam.com                      |
|    \\/     M anipulation  |                                                 |
\*---------------------------------------------------------------------------*/
FoamFile
{
    version     2.0;
    format      ascii;
    class       volVectorField;
    location    "5.46";
    object      grad(T);
}
// * * * * * * * * * * * * * * * * * * * * * * * * * * * * * * * * * * * * * //

dimensions      [0 -1 0 1 0 0 0];


internalField   nonuniform List<vector> 
1900
(
(0.476421 1.13463e-05 0)
(-1.1643 -2.31084e-05 0)
(0.187694 -1.49926e-05 0)
(0.158842 -3.31671e-05 0)
(0.0723328 1.16054e-05 0)
(0.0281605 0.000137427 0)
(0.00478512 0.000310559 0)
(-0.00901406 0.000640346 0)
(-0.0187708 0.00229065 0)
(0.000615159 -0.000914165 0)
(0.476409 1.85075e-05 0)
(-1.16432 -2.34053e-05 0)
(0.187684 -2.38705e-05 0)
(0.158869 -1.63752e-05 0)
(0.0725034 9.04902e-05 0)
(0.0284594 0.000287996 0)
(0.00528804 0.000387509 0)
(-0.00703397 0.000260954 0)
(-0.0203253 0.000520776 0)
(-0.0327469 -0.00252852 0)
(0.476416 7.15573e-14 0)
(-1.16434 3.31224e-12 0)
(0.187701 -6.28837e-13 0)
(0.158956 -2.4503e-13 0)
(0.0726372 -7.69784e-14 0)
(0.0284575 5.74627e-13 0)
(0.00475808 1.043e-12 0)
(-0.00888079 2.66714e-13 0)
(-0.0215603 -4.10913e-13 0)
(-0.0359068 -6.35342e-13 0)
(0.476409 -1.85075e-05 0)
(-1.16432 2.34053e-05 0)
(0.187684 2.38705e-05 0)
(0.158869 1.63752e-05 0)
(0.0725034 -9.04902e-05 0)
(0.0284594 -0.000287996 0)
(0.00528804 -0.000387509 0)
(-0.00703397 -0.000260954 0)
(-0.0203253 -0.000520776 0)
(-0.0327469 0.00252852 0)
(0.476421 -1.13463e-05 0)
(-1.1643 2.31084e-05 0)
(0.187694 1.49926e-05 0)
(0.158842 3.31671e-05 0)
(0.0723328 -1.16054e-05 0)
(0.0281605 -0.000137427 0)
(0.00478512 -0.000310559 0)
(-0.00901406 -0.000640346 0)
(-0.0187708 -0.00229065 0)
(0.000615159 0.000914165 0)
(-0.0298589 -0.0269323 9.59327e-16)
(-0.0653744 -0.0239292 -1.14814e-15)
(0.00419938 -0.0328919 -1.45123e-15)
(0.259941 -0.0640529 0)
(-0.477239 -0.318363 -6.43596e-15)
(-0.0507212 -0.0315387 9.5446e-16)
(-0.0553228 -0.0291905 1.14814e-15)
(-0.0101793 -0.0424868 1.45123e-15)
(0.155084 -0.0686936 0)
(-0.411529 -0.316877 0)
(-0.0640035 -6.02989e-13 0)
(-0.0664933 -5.7301e-13 0)
(-0.019595 -3.04179e-13 0)
(0.14063 -1.23205e-14 0)
(-0.535088 5.16287e-14 0)
(-0.0507212 0.0315387 9.5446e-16)
(-0.0553228 0.0291905 1.14814e-15)
(-0.0101793 0.0424868 1.45123e-15)
(0.155084 0.0686936 0)
(-0.411529 0.316877 0)
(-0.0298589 0.0269323 -2.86825e-15)
(-0.0653744 0.0239292 -1.14814e-15)
(0.00419938 0.0328919 -1.45123e-15)
(0.259941 0.0640529 -3.97043e-15)
(-0.477239 0.318363 6.43596e-15)
(-1.42117 0.451766 2.24203e-15)
(-0.390131 0.216017 -1.7476e-15)
(-0.209282 0.126293 0)
(-0.33188 0.0906135 1.26573e-15)
(-0.646912 0.129881 -5.3744e-16)
(-1.24924 0.449676 -1.12782e-15)
(-0.459214 0.118683 8.77052e-16)
(-0.238987 0.0325823 0)
(-0.319244 0.0357732 -7.93056e-16)
(-0.620879 0.0773804 1.3592e-16)
(-1.30971 1.14991e-13 0)
(-0.505255 2.87267e-13 0)
(-0.241483 1.48576e-13 0)
(-0.317901 -1.41726e-13 3.17653e-16)
(-0.61681 2.82146e-13 -2.71841e-16)
(-1.24924 -0.449676 -1.12782e-15)
(-0.459214 -0.118683 8.77052e-16)
(-0.238987 -0.0325823 0)
(-0.319244 -0.0357732 -7.93056e-16)
(-0.620879 -0.0773804 1.3592e-16)
(-1.42117 -0.451766 1.12782e-15)
(-0.390131 -0.216017 -6.50572e-18)
(-0.209282 -0.126293 0)
(-0.33188 -0.0906135 2.72898e-18)
(-0.646912 -0.129881 5.3744e-16)
(-0.729784 0.320024 0)
(-0.192213 -0.255799 0)
(0.244242 -0.219384 0)
(0.30131 -0.056894 0)
(0.144048 0.0654503 0)
(-0.0600718 0.0720521 0)
(-0.161755 0.0632026 0)
(-0.178356 0.0310672 0)
(-0.129172 0.0119942 0)
(-0.0859257 0.00512092 0)
(-0.0709832 0.00256913 0)
(-0.0688612 0.00253211 0)
(-0.0651347 0.00306909 0)
(-0.0538042 0.0015777 0)
(-0.0368492 0.000376735 0)
(-0.0225354 -9.0929e-05 0)
(-0.0147569 -0.00016779 0)
(-0.011457 -0.000143493 0)
(-0.00987654 -0.000124996 0)
(-0.00857923 -0.000131026 0)
(-0.00717502 -0.000150364 0)
(-0.00581681 -0.000169415 0)
(-0.00458532 -0.000182888 0)
(-0.00349067 -0.000192214 0)
(-0.0025164 -0.000200123 0)
(-0.00164911 -0.000210577 0)
(-0.000726068 -0.000220361 0)
(0.00046129 -0.000232424 0)
(0.00221065 -0.000238931 0)
(0.00399774 -0.000228375 0)
(0.00631808 -0.000218933 0)
(0.00826761 -0.000153721 0)
(0.0106622 -0.000168438 0)
(0.0120498 1.90115e-06 0)
(0.0165489 -0.000340825 0)
(0.0253596 0.000131602 0)
(0.0438207 0.000272987 0)
(-0.0597611 0.00275307 0)
(-0.378533 0.00694301 0)
(-0.289447 -0.00610665 0)
(-0.821914 0.135248 0)
(-0.268549 -0.199252 0)
(0.297013 -0.232649 0)
(0.346894 -0.0970894 0)
(0.156671 -0.0121833 0)
(-0.0638418 0.0236268 0)
(-0.166253 0.0354077 0)
(-0.184444 0.0173832 0)
(-0.13212 0.00520848 0)
(-0.0868632 0.00209932 0)
(-0.0712807 0.000805167 0)
(-0.0687338 0.000746593 0)
(-0.0651672 0.00137926 0)
(-0.0540724 0.000542697 0)
(-0.0369865 6.65528e-05 0)
(-0.022574 -7.72641e-05 0)
(-0.0147594 -9.8495e-05 0)
(-0.0114522 -8.54562e-05 0)
(-0.00987446 -7.46858e-05 0)
(-0.00858071 -7.47394e-05 0)
(-0.00717798 -8.14539e-05 0)
(-0.00581956 -8.91923e-05 0)
(-0.00458746 -9.55622e-05 0)
(-0.0034925 -0.000100959 0)
(-0.00251849 -0.000106328 0)
(-0.00165146 -0.000113194 0)
(-0.000728761 -0.000120084 0)
(0.000458649 -0.000128415 0)
(0.00220994 -0.000134479 0)
(0.00399791 -0.000133234 0)
(0.00632274 -0.000133538 0)
(0.00826968 -0.000109737 0)
(0.0106803 -0.000119592 0)
(0.0120342 -1.09465e-05 0)
(0.016568 -0.000161916 0)
(0.0254344 0.000139971 0)
(0.0441114 0.000342988 0)
(-0.0581934 0.0019992 0)
(-0.375087 0.00869741 0)
(-0.287298 0.0178566 0)
(-0.805232 -5.63194e-12 0)
(-0.299237 1.70121e-12 0)
(0.273962 1.08972e-11 0)
(0.365445 7.34892e-12 0)
(0.179165 4.58519e-12 0)
(-0.0462272 -4.4748e-13 0)
(-0.163571 -1.38384e-12 0)
(-0.187141 -8.71304e-13 0)
(-0.133618 -1.86089e-12 0)
(-0.0872067 -1.94565e-12 0)
(-0.0713767 -2.89778e-13 0)
(-0.0686942 -1.31287e-12 0)
(-0.065194 -2.56266e-14 0)
(-0.0541861 -8.14137e-13 0)
(-0.0370296 -8.67362e-13 0)
(-0.0225834 -9.16644e-13 0)
(-0.0147593 -1.10983e-12 0)
(-0.01145 -1.10983e-12 0)
(-0.00987343 -5.91383e-13 0)
(-0.0085812 -3.64686e-13 0)
(-0.00717923 1.2419e-13 0)
(-0.00582091 6.44607e-13 0)
(-0.00458874 7.84568e-13 0)
(-0.0034938 6.99803e-13 0)
(-0.00251996 -6.70234e-14 0)
(-0.00165311 -1.22811e-12 0)
(-0.000730496 -2.19009e-12 0)
(0.000457103 -2.42861e-12 0)
(0.00220925 -2.7243e-12 0)
(0.00399802 -2.951e-12 0)
(0.00632491 -2.24134e-12 0)
(0.00827167 -3.13039e-12 0)
(0.010691 -5.06224e-12 0)
(0.0120375 -2.77162e-12 0)
(0.0165928 -1.55731e-12 0)
(0.0255065 -1.26359e-12 0)
(0.0443616 -6.29626e-12 0)
(-0.0573307 -3.62124e-12 0)
(-0.37392 4.67193e-12 0)
(-0.286783 8.71107e-12 0)
(-0.821914 -0.135248 0)
(-0.268549 0.199252 0)
(0.297013 0.232649 0)
(0.346894 0.0970894 0)
(0.156671 0.0121833 0)
(-0.0638418 -0.0236268 0)
(-0.166253 -0.0354077 0)
(-0.184444 -0.0173832 0)
(-0.13212 -0.00520848 0)
(-0.0868632 -0.00209932 0)
(-0.0712807 -0.000805167 0)
(-0.0687338 -0.000746593 0)
(-0.0651672 -0.00137926 0)
(-0.0540724 -0.000542697 0)
(-0.0369865 -6.65528e-05 0)
(-0.022574 7.72641e-05 0)
(-0.0147594 9.8495e-05 0)
(-0.0114522 8.54562e-05 0)
(-0.00987446 7.46858e-05 0)
(-0.00858071 7.47394e-05 0)
(-0.00717798 8.14539e-05 0)
(-0.00581956 8.91923e-05 0)
(-0.00458746 9.55622e-05 0)
(-0.0034925 0.000100959 0)
(-0.00251849 0.000106328 0)
(-0.00165146 0.000113194 0)
(-0.000728761 0.000120084 0)
(0.000458649 0.000128415 0)
(0.00220994 0.000134479 0)
(0.00399791 0.000133234 0)
(0.00632274 0.000133538 0)
(0.00826968 0.000109737 0)
(0.0106803 0.000119592 0)
(0.0120342 1.09465e-05 0)
(0.016568 0.000161916 0)
(0.0254344 -0.000139971 0)
(0.0441114 -0.000342988 0)
(-0.0581934 -0.0019992 0)
(-0.375087 -0.00869741 0)
(-0.287298 -0.0178566 0)
(-0.729784 -0.320024 0)
(-0.192213 0.255799 0)
(0.244242 0.219384 0)
(0.30131 0.056894 0)
(0.144048 -0.0654503 0)
(-0.0600718 -0.0720521 0)
(-0.161755 -0.0632026 0)
(-0.178356 -0.0310672 0)
(-0.129172 -0.0119942 0)
(-0.0859257 -0.00512092 0)
(-0.0709832 -0.00256913 0)
(-0.0688612 -0.00253211 0)
(-0.0651347 -0.00306909 0)
(-0.0538042 -0.0015777 0)
(-0.0368492 -0.000376735 0)
(-0.0225354 9.0929e-05 0)
(-0.0147569 0.00016779 0)
(-0.011457 0.000143493 0)
(-0.00987654 0.000124996 0)
(-0.00857923 0.000131026 0)
(-0.00717502 0.000150364 0)
(-0.00581681 0.000169415 0)
(-0.00458532 0.000182888 0)
(-0.00349067 0.000192214 0)
(-0.0025164 0.000200123 0)
(-0.00164911 0.000210577 0)
(-0.000726068 0.000220361 0)
(0.00046129 0.000232424 0)
(0.00221065 0.000238931 0)
(0.00399774 0.000228375 0)
(0.00631808 0.000218933 0)
(0.00826761 0.000153721 0)
(0.0106622 0.000168438 0)
(0.0120498 -1.90117e-06 0)
(0.0165489 0.000340825 0)
(0.0253596 -0.000131602 0)
(0.0438207 -0.000272987 0)
(-0.0597611 -0.00275307 0)
(-0.378533 -0.00694301 0)
(-0.289447 0.00610665 0)
(-0.129017 -0.306097 0)
(-0.0184571 0.0208802 0)
(0.233262 0.0549115 0)
(0.220933 0.00953204 0)
(0.0903825 -0.079302 0)
(-0.0667908 -0.107232 0)
(-0.145745 -0.0895223 0)
(-0.159362 -0.0500971 0)
(-0.119253 -0.0223569 0)
(-0.0820352 -0.00984569 0)
(-0.0700008 -0.005943 0)
(-0.0689002 -0.00555359 0)
(-0.064606 -0.0051868 0)
(-0.0526935 -0.00290535 0)
(-0.0360985 -0.000794253 0)
(-0.0222771 0.000122106 0)
(-0.0147294 0.00027902 0)
(-0.0114736 0.000238163 0)
(-0.00987987 0.000211338 0)
(-0.0085665 0.000228503 0)
(-0.00715731 0.000267617 0)
(-0.00580234 0.000304097 0)
(-0.00457563 0.000329399 0)
(-0.00348381 0.000346837 0)
(-0.00250938 0.000361382 0)
(-0.00164149 0.000380275 0)
(-0.00071817 0.00039857 0)
(0.000467245 0.0004186 0)
(0.00220657 0.000429306 0)
(0.00398556 0.000411185 0)
(0.00628131 0.000383165 0)
(0.0082404 0.000272153 0)
(0.0106035 0.000263837 0)
(0.0121242 7.10615e-05 0)
(0.0165087 0.000473013 0)
(0.0251358 -7.72335e-05 0)
(0.0428032 -0.000386697 0)
(-0.0605647 -0.00369058 0)
(-0.365546 0.00163966 0)
(-0.276627 0.00957442 0)
(-0.0402057 -0.267162 0)
(0.0624948 -0.03785 0)
(0.239194 -0.0316425 0)
(0.215077 -0.0437561 0)
(0.0603067 -0.119441 0)
(-0.0663175 -0.123346 0)
(-0.115281 -0.102743 0)
(-0.123818 -0.0640589 0)
(-0.0957026 -0.0312529 0)
(-0.0721949 -0.0155091 0)
(-0.067374 -0.0103252 0)
(-0.0681116 -0.00886579 0)
(-0.0628663 -0.0073183 0)
(-0.050167 -0.00408332 0)
(-0.0343344 -0.00118326 0)
(-0.0216396 0.00016404 0)
(-0.0146599 0.000444376 0)
(-0.0115132 0.000412472 0)
(-0.00988407 0.000387789 0)
(-0.00853183 0.000420312 0)
(-0.00711168 0.000482046 0)
(-0.00576504 0.000539064 0)
(-0.00454933 0.000580609 0)
(-0.00346352 0.000612095 0)
(-0.00248795 0.000640056 0)
(-0.00161737 0.000676059 0)
(-0.000693371 0.00071357 0)
(0.000487716 0.000752439 0)
(0.0022057 0.000778261 0)
(0.00395981 0.000759776 0)
(0.00620382 0.000722095 0)
(0.00816721 0.000575444 0)
(0.0105 0.000546794 0)
(0.0122115 0.000338949 0)
(0.0164276 0.000699702 0)
(0.0246512 7.70107e-05 0)
(0.0408843 -0.000471641 0)
(-0.0573774 -0.00395853 0)
(-0.372714 0.00700925 0)
(-0.288676 -0.00105646 0)
(0.0919563 -0.193867 0)
(0.208498 0.020289 0)
(0.22757 0.0192129 0)
(0.136327 -0.0520725 0)
(0.0136864 -0.123811 0)
(-0.0507 -0.118955 0)
(-0.0886137 -0.0994724 0)
(-0.090472 -0.0637315 0)
(-0.072469 -0.0347465 0)
(-0.0618685 -0.0199298 0)
(-0.0635991 -0.0146932 0)
(-0.0660026 -0.0120463 0)
(-0.0599975 -0.00920781 0)
(-0.0467816 -0.00503517 0)
(-0.0320055 -0.00157068 0)
(-0.0207087 9.91394e-05 0)
(-0.01449 0.000519985 0)
(-0.0115282 0.000537517 0)
(-0.00987232 0.000536954 0)
(-0.00847567 0.000592135 0)
(-0.00704288 0.000678076 0)
(-0.00570736 0.000757182 0)
(-0.00450526 0.000818925 0)
(-0.00342652 0.000870716 0)
(-0.00244774 0.00091838 0)
(-0.00157064 0.00097595 0)
(-0.000644569 0.00104463 0)
(0.000529583 0.00111504 0)
(0.00221364 0.00115785 0)
(0.00393143 0.00114195 0)
(0.00610368 0.00110218 0)
(0.00807148 0.000925568 0)
(0.0103756 0.000890187 0)
(0.0122716 0.00067393 0)
(0.0162563 0.000953454 0)
(0.024007 0.000289838 0)
(0.0389144 -0.000508636 0)
(-0.0533559 -0.0030121 0)
(-0.362749 0.0072132 0)
(-0.284399 0.0149118 0)
(0.166163 -0.0860595 0)
(0.267827 0.023856 0)
(0.169464 -0.00811116 0)
(0.0772544 -0.0830774 0)
(-0.00414406 -0.109433 0)
(-0.0428638 -0.107825 0)
(-0.0620657 -0.0871625 0)
(-0.0614455 -0.0563534 0)
(-0.0534937 -0.0345636 0)
(-0.0528708 -0.0226654 0)
(-0.059777 -0.0180832 0)
(-0.0628257 -0.0146565 0)
(-0.0561101 -0.0104063 0)
(-0.0428076 -0.00554475 0)
(-0.0293868 -0.00180331 0)
(-0.019625 -1.41882e-05 0)
(-0.0142374 0.000490311 0)
(-0.0114969 0.000571921 0)
(-0.00983143 0.000612958 0)
(-0.00839584 0.000697224 0)
(-0.00695263 0.000806555 0)
(-0.00562931 0.000906174 0)
(-0.00443992 0.000989055 0)
(-0.00336768 0.00106521 0)
(-0.00238654 0.00113873 0)
(-0.0014957 0.00121725 0)
(-0.000559335 0.00131259 0)
(0.000596812 0.00142689 0)
(0.00223163 0.00148085 0)
(0.00390617 0.00146964 0)
(0.0059953 0.00142185 0)
(0.00796292 0.0012224 0)
(0.0102575 0.00116446 0)
(0.0122725 0.000952945 0)
(0.0160575 0.00109579 0)
(0.0232423 0.000502452 0)
(0.0377025 -0.000563574 0)
(-0.0499364 -0.00135123 0)
(-0.355442 0.00621001 0)
(-0.281257 0.0107328 0)
(0.197875 -0.0562423 0)
(0.283612 -0.00925876 0)
(0.124525 -0.0341137 0)
(0.0386893 -0.0887392 0)
(-0.010161 -0.0981143 0)
(-0.0292391 -0.0894169 0)
(-0.039014 -0.0698857 0)
(-0.0397858 -0.0473794 0)
(-0.040006 -0.0316701 0)
(-0.0459875 -0.0238224 0)
(-0.0558814 -0.0200735 0)
(-0.0586048 -0.0161895 0)
(-0.0512171 -0.0107735 0)
(-0.0384914 -0.0055325 0)
(-0.0266761 -0.00181281 0)
(-0.0184985 -7.817e-05 0)
(-0.0139252 0.000462846 0)
(-0.01141 0.000605401 0)
(-0.00975157 0.000691431 0)
(-0.00828911 0.00080549 0)
(-0.00684152 0.000935997 0)
(-0.0055315 0.00105435 0)
(-0.00435201 0.0011587 0)
(-0.00328229 0.00126163 0)
(-0.00230122 0.00136593 0)
(-0.00140311 0.00146975 0)
(-0.000442553 0.00158739 0)
(0.00069173 0.00175174 0)
(0.00225483 0.00182196 0)
(0.00387458 0.00181981 0)
(0.00586543 0.00176739 0)
(0.00782345 0.00155815 0)
(0.0101159 0.00147939 0)
(0.0122054 0.00127963 0)
(0.0158222 0.00133174 0)
(0.022408 0.000865568 0)
(0.0371281 -0.000148038 0)
(-0.0468286 0.000280875 0)
(-0.351105 0.00570571 0)
(-0.280041 0.0075535 0)
(0.211438 -0.0558207 0)
(0.28915 -0.0370576 0)
(0.0928736 -0.0434738 0)
(0.0155811 -0.0866975 0)
(-0.00479712 -0.0770978 0)
(-0.0156618 -0.0680617 0)
(-0.0215568 -0.0527968 0)
(-0.0246196 -0.0389621 0)
(-0.0307933 -0.0286121 0)
(-0.0416959 -0.0243785 0)
(-0.0524217 -0.021392 0)
(-0.0538639 -0.0167825 0)
(-0.0458407 -0.0106257 0)
(-0.0341727 -0.00525256 0)
(-0.0241308 -0.001747 0)
(-0.0174321 -0.000135572 0)
(-0.0135787 0.000450797 0)
(-0.0112766 0.000664874 0)
(-0.00963862 0.000804768 0)
(-0.00816017 0.000951056 0)
(-0.00671282 0.00110174 0)
(-0.00541471 0.00123662 0)
(-0.00424018 0.00135856 0)
(-0.00316798 0.00148137 0)
(-0.00218599 0.00160577 0)
(-0.0012823 0.00172682 0)
(-0.000287594 0.00185777 0)
(0.000822858 0.00204246 0)
(0.00229722 0.00211068 0)
(0.00385358 0.00208978 0)
(0.00574316 0.00200463 0)
(0.00768539 0.00175979 0)
(0.00998909 0.00162627 0)
(0.0121302 0.00139939 0)
(0.0156585 0.00136646 0)
(0.0218163 0.000958105 0)
(0.037139 6.3292e-05 0)
(-0.0442955 0.00144233 0)
(-0.348434 0.00663532 0)
(-0.279476 0.00731568 0)
(0.215956 -0.0554367 0)
(0.29551 -0.0482821 0)
(0.0766906 -0.0467755 0)
(0.00628796 -0.0665809 0)
(0.00779719 -0.0538514 0)
(-0.00582175 -0.0487724 0)
(-0.0109726 -0.0394731 0)
(-0.0164804 -0.0320287 0)
(-0.0259528 -0.0265839 0)
(-0.0390299 -0.0246642 0)
(-0.0485616 -0.0217813 0)
(-0.04823 -0.0162367 0)
(-0.0401064 -0.00971388 0)
(-0.0299356 -0.00450447 0)
(-0.0217452 -0.0013492 0)
(-0.0163806 0.000120904 0)
(-0.0131539 0.000739026 0)
(-0.0110689 0.00101509 0)
(-0.00947579 0.00120768 0)
(-0.00800294 0.0013807 0)
(-0.00656635 0.00154618 0)
(-0.00528401 0.0016933 0)
(-0.00411616 0.00182801 0)
(-0.00304408 0.00196389 0)
(-0.0020647 0.00209937 0)
(-0.00116027 0.00222823 0)
(-0.000138391 0.00236507 0)
(0.000935447 0.00255386 0)
(0.00230043 0.00260563 0)
(0.00377239 0.00255046 0)
(0.00554744 0.00241577 0)
(0.00745884 0.00211724 0)
(0.00976864 0.00190527 0)
(0.0119551 0.00160981 0)
(0.0153969 0.00149342 0)
(0.0211522 0.0010435 0)
(0.0375948 0.000349236 0)
(-0.0404955 0.00204353 0)
(-0.345445 0.00701435 0)
(-0.279385 0.00784867 0)
(0.218332 -0.0438711 0)
(0.297497 -0.0391954 0)
(0.0752402 -0.0410423 0)
(0.00876255 -0.0388552 0)
(0.0123638 -0.0350171 0)
(-0.00180641 -0.034503 0)
(-0.00542199 -0.0304578 0)
(-0.012199 -0.0269417 0)
(-0.0236966 -0.025125 0)
(-0.037068 -0.0242727 0)
(-0.0443007 -0.0208694 0)
(-0.0422352 -0.0147327 0)
(-0.034535 -0.00835526 0)
(-0.0261122 -0.0035746 0)
(-0.0196737 -0.000812645 0)
(-0.0154198 0.000567248 0)
(-0.012717 0.00122588 0)
(-0.010825 0.00157507 0)
(-0.0092863 0.00182777 0)
(-0.00783397 0.0020333 0)
(-0.00641159 0.00221513 0)
(-0.00514312 0.00237111 0)
(-0.00397943 0.00250867 0)
(-0.00290648 0.00264161 0)
(-0.00193127 0.0027696 0)
(-0.00102627 0.00288617 0)
(2.62012e-05 0.00300628 0)
(0.00105467 0.00317073 0)
(0.00229393 0.00317533 0)
(0.00367062 0.00306275 0)
(0.00532569 0.00285786 0)
(0.00719346 0.00249213 0)
(0.00950011 0.00219027 0)
(0.0117333 0.00182142 0)
(0.0151128 0.00162205 0)
(0.0207138 0.00117509 0)
(0.0381027 0.000702264 0)
(-0.0378728 0.0022327 0)
(-0.34284 0.00718859 0)
(-0.278672 0.00877829 0)
(0.220461 -0.0278217 0)
(0.298236 -0.0281005 0)
(0.0770184 -0.0320509 0)
(0.0120941 -0.0250745 0)
(0.0119912 -0.0246823 0)
(-0.00142831 -0.0258369 0)
(-0.00368627 -0.0245718 0)
(-0.0113415 -0.0239078 0)
(-0.0233808 -0.0245314 0)
(-0.0349291 -0.023578 0)
(-0.0393685 -0.0191834 0)
(-0.036171 -0.0126444 0)
(-0.0293541 -0.00659793 0)
(-0.0226672 -0.00229256 0)
(-0.0177539 0.000249506 0)
(-0.0144162 0.00160311 0)
(-0.0121827 0.00231716 0)
(-0.0104889 0.00277371 0)
(-0.00903422 0.00310404 0)
(-0.00762966 0.00335351 0)
(-0.00624083 0.00355134 0)
(-0.00500114 0.00370029 0)
(-0.00385549 0.00381021 0)
(-0.00279264 0.00389915 0)
(-0.00182903 0.00397214 0)
(-0.000932196 0.00403153 0)
(0.000135816 0.00407632 0)
(0.00109835 0.00414646 0)
(0.00219639 0.00403988 0)
(0.00346646 0.00380771 0)
(0.00499756 0.003475 0)
(0.00681553 0.00298917 0)
(0.00912232 0.00255915 0)
(0.0114075 0.00207849 0)
(0.0147741 0.00179001 0)
(0.0202659 0.00133445 0)
(0.0386139 0.000996448 0)
(-0.0342451 0.00223298 0)
(-0.339137 0.00766517 0)
(-0.277853 0.00984714 0)
(0.218064 -0.0131045 0)
(0.293421 -0.0204254 0)
(0.0781562 -0.0250099 0)
(0.0158632 -0.0186563 0)
(0.0116291 -0.019094 0)
(-0.00169994 -0.0205702 0)
(-0.00356305 -0.0207792 0)
(-0.0121601 -0.021976 0)
(-0.0233787 -0.0232712 0)
(-0.0319144 -0.021361 0)
(-0.0337647 -0.0162003 0)
(-0.0301074 -0.00972986 0)
(-0.0245596 -0.00428354 0)
(-0.0195138 -0.000651666 0)
(-0.0159197 0.00163696 0)
(-0.0134273 0.00289484 0)
(-0.011589 0.00365628 0)
(-0.0100668 0.00418862 0)
(-0.00872759 0.00457479 0)
(-0.00740294 0.00485477 0)
(-0.00607741 0.00506283 0)
(-0.00489366 0.00520476 0)
(-0.0037878 0.00529389 0)
(-0.00275045 0.00535423 0)
(-0.0018037 0.00539418 0)
(-0.000925878 0.00542065 0)
(0.000136948 0.00540815 0)
(0.00101955 0.0054118 0)
(0.0019675 0.00522226 0)
(0.00312629 0.00489808 0)
(0.00453692 0.00446021 0)
(0.00631092 0.00387331 0)
(0.00862255 0.00333117 0)
(0.0109921 0.00275152 0)
(0.0143958 0.00238614 0)
(0.0199491 0.00189786 0)
(0.0389686 0.00162129 0)
(-0.0314465 0.00241004 0)
(-0.335502 0.00786232 0)
(-0.27657 0.0113125 0)
(0.213407 -0.00374152 0)
(0.286764 -0.0122673 0)
(0.0787232 -0.0163904 0)
(0.0177949 -0.0128519 0)
(0.0101468 -0.0149406 0)
(-0.00305231 -0.0168172 0)
(-0.00504088 -0.0183245 0)
(-0.0137428 -0.0204197 0)
(-0.0227883 -0.0211082 0)
(-0.0281153 -0.0179238 0)
(-0.0281603 -0.012391 0)
(-0.0246876 -0.00643661 0)
(-0.020606 -0.00172125 0)
(-0.016962 0.00143546 0)
(-0.0143364 0.00332366 0)
(-0.0124703 0.00455537 0)
(-0.010936 0.00540105 0)
(-0.00960375 0.00602135 0)
(-0.0083923 0.00647624 0)
(-0.00715936 0.00679163 0)
(-0.00590356 0.00699983 0)
(-0.00477849 0.00711061 0)
(-0.00371145 0.00714848 0)
(-0.002696 0.00714961 0)
(-0.00176503 0.00712769 0)
(-0.000918734 0.00710868 0)
(0.00012729 0.00702832 0)
(0.000919224 0.00694417 0)
(0.00170134 0.00667935 0)
(0.00273212 0.00627268 0)
(0.00401006 0.00573795 0)
(0.00572755 0.00504699 0)
(0.00804132 0.00439208 0)
(0.0104968 0.00371088 0)
(0.0139515 0.00326747 0)
(0.0195288 0.00273688 0)
(0.0391075 0.00238077 0)
(-0.028231 0.00292988 0)
(-0.330559 0.00910411 0)
(-0.274529 0.0128498 0)
(0.209848 0.00370659 0)
(0.281232 -0.00548196 0)
(0.0775929 -0.00900013 0)
(0.0172603 -0.0086392 0)
(0.00780797 -0.0124693 0)
(-0.00496075 -0.0143685 0)
(-0.00703456 -0.0164286 0)
(-0.0148426 -0.017943 0)
(-0.0209736 -0.0173107 0)
(-0.0235143 -0.0134787 0)
(-0.0226952 -0.00814119 0)
(-0.0198256 -0.00313247 0)
(-0.0169738 0.000870388 0)
(-0.0146523 0.00349186 0)
(-0.0129132 0.00513312 0)
(-0.0114254 0.006271 0)
(-0.0101763 0.00707475 0)
(-0.00903066 0.00767762 0)
(-0.00798532 0.00812457 0)
(-0.00689838 0.00844004 0)
(-0.00577003 0.00865691 0)
(-0.00475042 0.00878376 0)
(-0.00375022 0.00884355 0)
(-0.00277049 0.00886926 0)
(-0.00184314 0.00886842 0)
(-0.00102164 0.00887882 0)
(-2.15873e-05 0.00879926 0)
(0.000683278 0.00868556 0)
(0.00132043 0.00840825 0)
(0.00221912 0.00799078 0)
(0.00335581 0.00743971 0)
(0.00501399 0.0067306 0)
(0.00733502 0.00605996 0)
(0.00990841 0.0054058 0)
(0.0134572 0.00502017 0)
(0.0190946 0.00461056 0)
(0.0391546 0.00437934 0)
(-0.0249677 0.00473588 0)
(-0.325943 0.0106575 0)
(-0.27296 0.0157138 0)
(0.204552 0.00694566 0)
(0.274519 0.000955721 0)
(0.0756808 -0.00195946 0)
(0.0144518 -0.00375396 0)
(0.00462579 -0.00915092 0)
(-0.00686763 -0.0111905 0)
(-0.00848534 -0.0136184 0)
(-0.0145929 -0.0140915 0)
(-0.0184863 -0.0122309 0)
(-0.0192792 -0.00811117 0)
(-0.0181903 -0.0032342 0)
(-0.0160037 0.000917608 0)
(-0.0142225 0.00391995 0)
(-0.0128543 0.00602528 0)
(-0.0116583 0.00753616 0)
(-0.0105993 0.00857398 0)
(-0.00958048 0.00934709 0)
(-0.00859211 0.00994233 0)
(-0.00765762 0.0104019 0)
(-0.00664638 0.0107278 0)
(-0.00557234 0.010919 0)
(-0.00459863 0.0109882 0)
(-0.00362906 0.0109986 0)
(-0.00267203 0.0110062 0)
(-0.00175582 0.0110074 0)
(-0.000985377 0.0110369 0)
(-5.89382e-05 0.0109563 0)
(0.000542426 0.0108316 0)
(0.00103182 0.0105662 0)
(0.0017988 0.0101794 0)
(0.00279571 0.00966614 0)
(0.00439797 0.00900656 0)
(0.00676469 0.00841911 0)
(0.00949485 0.00788687 0)
(0.0131852 0.00769558 0)
(0.0189113 0.00748291 0)
(0.0392282 0.00735966 0)
(-0.0221811 0.00801466 0)
(-0.31998 0.0141844 0)
(-0.269656 0.0204778 0)
(0.204076 0.0113934 0)
(0.272651 0.00714095 0)
(0.0730544 0.00323342 0)
(0.0103303 -0.000112145 0)
(0.000641864 -0.00634569 0)
(-0.00926579 -0.00749306 0)
(-0.00983007 -0.00953753 0)
(-0.0135055 -0.00902808 0)
(-0.0152107 -0.00641706 0)
(-0.0148447 -0.00218287 0)
(-0.0139948 0.00160249 0)
(-0.0129316 0.00483907 0)
(-0.0120519 0.00705132 0)
(-0.0111676 0.00880027 0)
(-0.0104572 0.0100135 0)
(-0.00968036 0.0108845 0)
(-0.00885773 0.0114737 0)
(-0.00801417 0.0118396 0)
(-0.00722846 0.0120489 0)
(-0.0064001 0.0122039 0)
(-0.00551906 0.0124205 0)
(-0.00467374 0.012685 0)
(-0.00373291 0.0129223 0)
(-0.00276198 0.0130914 0)
(-0.00181349 0.0131778 0)
(-0.00107088 0.0132395 0)
(-0.000219442 0.0131698 0)
(0.000307335 0.013078 0)
(0.00069189 0.0128602 0)
(0.00135179 0.0125545 0)
(0.00222566 0.0121152 0)
(0.00381231 0.0115558 0)
(0.00625604 0.0110945 0)
(0.0092112 0.0107403 0)
(0.0130679 0.0108316 0)
(0.0187709 0.010934 0)
(0.039667 0.011162 0)
(-0.0183912 0.0126743 0)
(-0.313933 0.0196003 0)
(-0.266896 0.0273529 0)
(0.200454 0.0267667 0)
(0.266656 0.0143814 0)
(0.0686915 0.00897494 0)
(0.00522105 0.00480344 0)
(-0.00248672 -0.000911993 0)
(-0.0099434 -0.000811357 0)
(-0.00996454 -0.00181679 0)
(-0.0115859 -0.000419547 0)
(-0.01189 0.00213546 0)
(-0.0115512 0.00529465 0)
(-0.0114237 0.00796473 0)
(-0.010753 0.0102403 0)
(-0.0104054 0.0120264 0)
(-0.00999987 0.0134266 0)
(-0.00964988 0.014523 0)
(-0.00919214 0.015404 0)
(-0.00866008 0.0160688 0)
(-0.00803779 0.0165324 0)
(-0.00730655 0.0168174 0)
(-0.00628836 0.0170017 0)
(-0.0051088 0.0172044 0)
(-0.00411506 0.0174002 0)
(-0.00323742 0.0175124 0)
(-0.00242585 0.0175304 0)
(-0.00161308 0.0174562 0)
(-0.000993066 0.0173951 0)
(-0.000214583 0.0172201 0)
(0.00024405 0.0170826 0)
(0.000527326 0.0168233 0)
(0.00108095 0.0165308 0)
(0.00183335 0.0160729 0)
(0.00341435 0.0155506 0)
(0.00597887 0.0151501 0)
(0.00924155 0.0149 0)
(0.0133718 0.015176 0)
(0.0192297 0.0155297 0)
(0.0409052 0.0159759 0)
(-0.0140497 0.0183427 0)
(-0.305835 0.0251775 0)
(-0.262185 0.0400312 0)
(0.192141 0.0426082 0)
(0.255506 0.0234665 0)
(0.0638248 0.0169971 0)
(0.000802909 0.0131083 0)
(-0.00476875 0.00803953 0)
(-0.0101377 0.00787997 0)
(-0.00945251 0.00776253 0)
(-0.00969702 0.00960231 0)
(-0.00970431 0.0118881 0)
(-0.00922741 0.0140321 0)
(-0.009229 0.0161481 0)
(-0.00901769 0.0179817 0)
(-0.00898145 0.0194196 0)
(-0.00876172 0.0208691 0)
(-0.00855171 0.0222222 0)
(-0.00819079 0.0235526 0)
(-0.00777037 0.024709 0)
(-0.0072928 0.0255548 0)
(-0.00677621 0.026068 0)
(-0.00602714 0.0263314 0)
(-0.00513504 0.0265296 0)
(-0.00437695 0.0266469 0)
(-0.00360747 0.0265133 0)
(-0.00281615 0.0260858 0)
(-0.00194381 0.0254447 0)
(-0.00129842 0.0249805 0)
(-0.000520611 0.0243786 0)
(-7.49858e-05 0.0240303 0)
(0.000160162 0.0235936 0)
(0.000628664 0.0233297 0)
(0.00128109 0.0229321 0)
(0.00292308 0.0225471 0)
(0.00562912 0.0222436 0)
(0.00923609 0.0220524 0)
(0.0136748 0.0224576 0)
(0.0195417 0.0230198 0)
(0.0423777 0.0233372 0)
(-0.00952413 0.0257307 0)
(-0.293033 0.0319445 0)
(-0.252582 0.0520344 0)
(0.182009 0.0569692 0)
(0.241976 0.0417315 0)
(0.0587099 0.0390959 0)
(-0.00341076 0.032909 0)
(-0.0075249 0.0269888 0)
(-0.0102103 0.0260048 0)
(-0.00830484 0.0264328 0)
(-0.00761038 0.0281706 0)
(-0.00762126 0.0306781 0)
(-0.00744607 0.0326065 0)
(-0.00761775 0.0342932 0)
(-0.00760057 0.0354374 0)
(-0.00762299 0.0361141 0)
(-0.00729917 0.0366679 0)
(-0.00706393 0.0371622 0)
(-0.00679576 0.0380498 0)
(-0.00673071 0.0395216 0)
(-0.0067282 0.0416056 0)
(-0.00655824 0.0438979 0)
(-0.00584354 0.0455331 0)
(-0.00480473 0.0458075 0)
(-0.00413074 0.0447422 0)
(-0.00377816 0.0430576 0)
(-0.00345564 0.0419375 0)
(-0.00267815 0.0415329 0)
(-0.00202038 0.0419843 0)
(-0.00113019 0.0426218 0)
(-0.000512391 0.0429967 0)
(-0.000147808 0.0435878 0)
(0.000443474 0.0440696 0)
(0.00107918 0.0444738 0)
(0.00275092 0.0446672 0)
(0.00550221 0.0447661 0)
(0.00944777 0.0452332 0)
(0.014304 0.0464103 0)
(0.0200773 0.0485368 0)
(0.0435175 0.0500667 0)
(-0.0057553 0.0515576 0)
(-0.280488 0.050181 0)
(-0.242826 0.0661101 0)
(0.177457 -0.272717 0)
(0.238283 -0.0427344 0)
(0.0553232 0.00935455 0)
(-0.010864 -0.00672933 0)
(-0.0114219 -0.0135257 0)
(-0.0106735 -0.0219423 0)
(-0.00736549 -0.0256565 0)
(-0.00560605 -0.0311361 0)
(-0.00542965 -0.0337858 0)
(-0.00574382 -0.0370919 0)
(-0.00650101 -0.0394081 0)
(-0.00726301 -0.0424526 0)
(-0.00779571 -0.0450233 0)
(-0.00775173 -0.0480626 0)
(-0.00722011 -0.0510929 0)
(-0.00591717 -0.0540303 0)
(-0.00434388 -0.0564838 0)
(-0.00307566 -0.0581154 0)
(-0.00299148 -0.0583108 0)
(-0.00418694 -0.0571761 0)
(-0.00589724 -0.0571391 0)
(-0.00702684 -0.0578105 0)
(-0.00631011 -0.0570304 0)
(-0.00428542 -0.054265 0)
(-0.00189879 -0.0507962 0)
(-0.000249164 -0.0472226 0)
(0.00045499 -0.0425449 0)
(0.00085598 -0.0396151 0)
(0.00119411 -0.035241 0)
(0.00148236 -0.0317424 0)
(0.00185695 -0.0276915 0)
(0.00320479 -0.0240244 0)
(0.00617452 -0.0203419 0)
(0.0108205 -0.0161098 0)
(0.0168583 -0.0112824 0)
(0.0230652 -0.00550852 0)
(0.0452886 0.000112893 0)
(-0.00941398 -0.00343869 0)
(-0.27901 -0.0492136 0)
(-0.237232 -0.215059 0)
(0.403628 -0.383653 0)
(0.51379 -0.46335 0)
(0.0934057 -0.27733 0)
(-0.025459 -0.304885 0)
(-0.0221846 -0.323144 0)
(-0.0219 -0.336879 0)
(-0.0171644 -0.343679 0)
(-0.0154441 -0.352368 0)
(-0.0133605 -0.358323 0)
(-0.0128639 -0.363151 0)
(-0.0127835 -0.367524 0)
(-0.0130116 -0.371204 0)
(-0.013029 -0.374119 0)
(-0.0131481 -0.377245 0)
(-0.0128146 -0.380042 0)
(-0.0119906 -0.382848 0)
(-0.0106672 -0.385327 0)
(-0.00848876 -0.387509 0)
(-0.00565314 -0.388706 0)
(-0.00471449 -0.388388 0)
(-0.00541603 -0.387358 0)
(-0.00402591 -0.38618 0)
(-0.000361539 -0.383003 0)
(0.00255182 -0.379693 0)
(0.00410813 -0.375747 0)
(0.00593087 -0.371824 0)
(0.0062007 -0.367233 0)
(0.00652589 -0.363375 0)
(0.00743857 -0.358431 0)
(0.00771845 -0.353657 0)
(0.00851649 -0.34758 0)
(0.00983325 -0.341966 0)
(0.013129 -0.33443 0)
(0.0181779 -0.327865 0)
(0.0245198 -0.318638 0)
(0.0310581 -0.303146 0)
(0.0455121 -0.289039 0)
(-0.0532881 -0.289719 0)
(-0.484413 -0.499768 0)
(-0.402641 -0.345364 0)
(0.100659 -0.0784897 0)
(0.34074 -0.392892 0)
(0.208025 -0.25807 0)
(-0.055012 -0.273947 0)
(-0.042252 -0.288738 0)
(-0.0304617 -0.294771 0)
(-0.0222909 -0.297623 0)
(-0.0197174 -0.300092 0)
(-0.0158206 -0.302058 0)
(-0.01461 -0.302644 0)
(-0.0142616 -0.30387 0)
(-0.0136184 -0.304178 0)
(-0.0136168 -0.304499 0)
(-0.0134597 -0.304788 0)
(-0.0126194 -0.304823 0)
(-0.0110098 -0.304586 0)
(-0.0088354 -0.303805 0)
(-0.00633145 -0.302685 0)
(-0.00383849 -0.301566 0)
(-0.00288836 -0.300802 0)
(-0.00376941 -0.299671 0)
(-0.00283013 -0.299093 0)
(-5.89185e-05 -0.29843 0)
(0.00270679 -0.298779 0)
(0.00568391 -0.298269 0)
(0.00795506 -0.297144 0)
(0.00859676 -0.296169 0)
(0.00933792 -0.294657 0)
(0.0105583 -0.293251 0)
(0.0119387 -0.29142 0)
(0.0131235 -0.288871 0)
(0.0158771 -0.286639 0)
(0.0197628 -0.282599 0)
(0.0260379 -0.279755 0)
(0.0406779 -0.274443 0)
(0.0515881 -0.262987 0)
(0.0582273 -0.253138 0)
(-0.212481 -0.249792 0)
(-0.332631 -0.418338 0)
(-0.0884423 -0.0922823 0)
(0.100659 0.0784897 0)
(0.34074 0.392892 0)
(0.208025 0.25807 0)
(-0.055012 0.273947 0)
(-0.042252 0.288738 0)
(-0.0304617 0.294771 0)
(-0.0222909 0.297623 0)
(-0.0197174 0.300092 0)
(-0.0158206 0.302058 0)
(-0.01461 0.302644 0)
(-0.0142616 0.30387 0)
(-0.0136184 0.304178 0)
(-0.0136168 0.304499 0)
(-0.0134597 0.304788 0)