/*--------------------------------*- C++ -*----------------------------------*\
| =========                 |                                                 |
| \\      /  F ield         | OpenFOAM: The Open Source CFD Toolbox           |
|  \\    /   O peration     | Version:  v1912                                 |
|   \\  /    A nd           | Website:  www.openfoam.com                      |
|    \\/     M anipulation  |                                                 |
\*---------------------------------------------------------------------------*/
FoamFile
{
    version     2.0;
    format      ascii;
    class       volScalarField;
    location    "5.46";
    object      p;
}
// * * * * * * * * * * * * * * * * * * * * * * * * * * * * * * * * * * * * * //

dimensions      [1 -1 -2 0 0 0 0];


internalField   nonuniform List<scalar> 
1900
(
35088.9
10784.5
9397.34
9301.13
9189.14
9145.46
9108.28
9060.84
9003.93
8942.9
35089
10784.3
9397.31
9300.87
9189.1
9146.06
9110.18
9065
9015.1
8930.62
35089
10784.3
9397.27
9300.97
9189.55
9147.07
9110.81
9062.13
9002.2
8917.39
35089
10784.3
9397.31
9300.87
9189.1
9146.06
9110.18
9065
9015.1
8930.62
35088.9
10784.5
9397.34
9301.13
9189.14
9145.46
9108.28
9060.84
9003.93
8942.9
9021.46
8829.98
8725.98
8526.31
8784.6
8861.42
8720.14
8632.35
8428.32
8309.72
8833.82
8700.73
8612.66
8441.91
8379.01
8861.42
8720.14
8632.35
8428.32
8309.72
9021.46
8829.98
8725.98
8526.31
8784.6
4146.74
3062.18
3024.49
2822.68
2513.89
4644.64
3248.2
3137.3
2901.78
2633.99
4745.17
3192.99
3061.18
2848.71
2580.23
4644.64
3248.2
3137.3
2901.78
2633.99
4146.74
3062.18
3024.49
2822.68
2513.89
1434.61
993.027
1205.82
1694.29
1874.24
1769.22
1541.08
1319.42
1157.26
1058.73
989.809
927.34
868.632
817.812
781.652
760.075
747.104
737.765
729.948
723.094
717.295
712.581
708.829
705.953
703.817
702.362
701.475
701.332
702.14
704.512
707.904
713.656
719.925
729.278
737.949
754.596
772.494
810.549
863.865
1387.8
1619.95
924.967
1194.8
1759.26
1932.94
1801.67
1556.54
1325.53
1159.52
1059.69
990.124
927.62
869.114
817.997
781.666
760.039
747.061
737.727
729.913
723.06
717.259
712.543
708.789
705.912
703.775
702.319
701.43
701.285
702.092
704.464
707.856
713.616
719.881
729.262
737.881
754.611
772.49
810.679
863.88
1387.8
1638.08
936.275
1147.68
1716.19
1901.15
1801.81
1563.53
1328.51
1160.38
1060.03
990.276
927.739
869.312
818.055
781.667
760.028
747.049
737.717
729.905
723.051
717.25
712.533
708.778
705.9
703.761
702.304
701.414
701.268
702.074
704.446
707.839
713.602
719.868
729.264
737.871
754.648
772.575
810.946
864.05
1387.45
1619.95
924.967
1194.8
1759.26
1932.94
1801.67
1556.54
1325.53
1159.52
1059.69
990.124
927.62
869.114
817.997
781.666
760.039
747.061
737.727
729.913
723.06
717.259
712.543
708.789
705.912
703.775
702.319
701.43
701.285
702.092
704.464
707.856
713.616
719.881
729.262
737.881
754.611
772.49
810.679
863.88
1387.8
1434.61
993.027
1205.82
1694.29
1874.24
1769.22
1541.08
1319.42
1157.26
1058.73
989.809
927.34
868.632
817.812
781.652
760.075
747.104
737.765
729.948
723.094
717.295
712.581
708.829
705.953
703.817
702.362
701.475
701.332
702.14
704.512
707.904
713.656
719.925
729.278
737.949
754.596
772.494
810.549
863.865
1387.8
1141.7
989.4
1293.87
1628.62
1754.75
1669.85
1489.71
1296.28
1146.67
1054.2
987.447
925.147
866.461
816.682
781.386
760.154
747.236
737.88
730.051
723.202
717.415
712.713
708.968
706.098
703.965
702.516
701.635
701.498
702.309
704.673
708.057
713.767
720.041
729.295
738.15
754.491
772.507
809.479
865.51
1448.47
1103.56
977.708
1176.23
1420.12
1554.14
1496.44
1382.69
1236.36
1119.17
1042.41
980.529
919.201
861.516
814.041
780.725
760.334
747.555
738.159
730.306
723.471
717.717
713.045
709.321
706.465
704.345
702.914
702.05
701.932
702.755
705.108
708.47
714.097
720.354
729.468
738.555
754.449
772.426
807.096
866.192
1381.38
1102.33
982.029
1117.56
1319.85
1371.55
1355.2
1275.69
1170.24
1086.38
1025.44
969.307
910.308
854.782
810.462
779.689
760.464
747.948
738.54
730.671
723.864
718.16
713.534
709.844
707.015
704.92
703.521
702.692
702.609
703.458
705.8
709.136
714.648
720.888
729.848
739.163
754.506
772.291
804.578
868.08
1368.45
1152.28
970.797
1076.43
1217.45
1254.2
1235.42
1178.59
1110.46
1053.31
1006.09
954.93
899.118
846.85
806.33
778.398
760.493
748.321
738.943
731.083
724.322
718.685
714.12
710.478
707.692
705.637
704.285
703.517
703.496
704.38
706.716
710.026
715.413
721.629
730.454
739.909
754.778
772.028
803.134
871.711
1360.12
1151.25
939.878
1043.43
1139.91
1152.28
1137.33
1100.77
1060.75
1022.18
984.791
938.102
886.057
838.279
801.961
776.981
760.422
748.636
739.337
731.52
724.827
719.273
714.782
711.204
708.478
706.484
705.194
704.497
704.573
705.5
707.831
711.106
716.347
722.516
731.194
740.71
755.169
771.626
802.52
874.406
1347.08
1139.25
915.632
1020.59
1066.04
1070.94
1062.22
1042.75
1021.13
995.684
964.036
920.666
872.586
829.864
797.857
775.66
760.343
748.957
739.776
732.03
725.425
719.966
715.562
712.062
709.417
707.505
706.298
705.693
705.901
706.886
709.225
712.469
717.573
723.691
732.247
741.794
756.005
771.804
803.168
877.745
1333.64
1120.26
887.352
988.736
995.613
1012.66
1009.61
1001.63
989.555
971.187
942.428
902.066
858.852
821.645
793.942
774.344
760.192
749.258
740.258
732.632
726.139
720.791
716.484
713.072
710.514
708.692
707.571
707.057
707.391
708.415
710.725
713.888
718.799
724.792
733.162
742.657
756.571
771.653
803.856
880.188
1317.19
1109.44
862.683
951.285
952.265
974.376
973.429
971.218
964.168
949.18
921.814
884.484
846.547
814.756
790.999
773.623
760.5
750.003
741.207
733.726
727.356
722.121
717.916
714.598
712.137
710.412
709.385
708.972
709.444
710.504
712.774
715.839
720.538
726.371
734.525
743.934
757.555
772.239
805.125
882.418
1297.79
1103.55
844.628
923.775
927.793
949.701
948.491
948.178
942.655
927.936
901.488
867.877
835.462
808.727
788.518
773.118
761.01
751.022
742.509
735.229
729.014
723.909
719.809
716.58
714.201
712.553
711.594
711.249
711.813
712.847
715.007
717.893
722.304
727.887
735.751
744.987
758.312
772.602
806.104
883.93
1275.95
1102.79
830.942
899.977
907.78
930.328
928.701
928.944
923.147
907.571
882.637
853.466
826.65
804.605
787.532
773.987
762.844
753.367
745.203
738.169
732.129
727.152
723.136
719.958
717.61
715.98
715.034
714.683
715.255
716.171
718.125
720.734
724.764
730.006
737.496
746.516
759.529
773.644
807.487
885.131
1251.48
1107.23
821.793
884.023
894.856
916.455
913.569
912.833
905.4
889.044
866.505
841.982
820.263
802.163
787.533
775.549
765.267
756.354
748.572
741.808
735.956
731.114
727.186
724.061
721.752
720.15
719.221
718.854
719.427
720.202
721.919
724.2
727.8
732.634
739.699
748.437
761.109
774.968
808.974
885.952
1226.73
1107.46
818.006
874.565
885.898
905.123
900.617
898.107
888.964
872.788
853.649
833.835
816.646
801.971
789.691
778.938
769.57
761.276
753.957
747.525
741.887
737.162
733.265
730.11
727.743
726.068
725.083
724.612
725.07
725.619
727.013
728.879
731.951
736.285
742.838
751.256
763.566
777.197
811.296
887.641
1198.79
1113.56
817.295
871.011
880.645
895.864
889.843
885.465
875.71
860.851
844.925
829.175
815.405
803.48
792.793
783.215
774.555
766.752
759.778
753.594
748.134
743.548
739.756
736.679
734.38
732.759
731.834
731.349
731.765
732.151
733.289
734.803
737.419
741.327
747.504
755.743
767.915
781.523
815.707
890.27
1175.85
1104.59
820.863
872.666
879.911
890.216
882.249
875.62
865.885
853.051
840.749
828.754
818.041
807.94
798.794
790.233
782.323
775.081
768.546
762.7
757.457
752.94
749.087
745.901
743.51
741.812
740.855
740.265
740.547
740.717
741.57
742.719
744.877
748.412
754.27
762.5
774.647
788.237
823.118
896.506
1154.11
1098.59
827.228
877.39
880.936
885.871
877.699
869.909
861.149
850.664
841.525
831.745
822.978
814.392
806.283
798.436
790.976
783.952
777.436
771.489
766.186
761.837
758.346
755.538
753.429
751.9
751.052
750.468
750.76
750.835
751.547
752.447
754.29
757.584
763.343
771.844
784.384
798.532
834.819
906.997
1145.58
1119.13
841.532
889.08
888.596
889.218
881.071
872.735
865.33
856.618
849.321
841.489
834.25
826.803
819.672
812.637
805.926
799.579
793.674
788.22
783.199
778.864
775.124
771.936
769.46
767.601
766.545
765.708
765.809
765.62
766.074
766.587
768.031
771.056
776.682
785.517
798.503
812.973
851.363
924.05
1168.89
1160.06
861.551
904.711
900.702
897.309
888.36
880.158
874.115
867.027
861.076
854.382
848.257
841.699
835.628
829.654
823.974
818.369
812.712
807.113
801.889
797.669
794.33
791.403
788.723
786.239
784.629
783.088
782.773
782.169
782.478
782.806
784.116
787.061
792.704
802.064
815.74
830.486
870.4
945.408
1208.77
1256.52
899.187
941.147
931.31
923.236
913.135
905.101
900.266
895.097
890.553
885.075
879.564
873.165
866.992
860.777
855.283
850.667
846.996
843.832
840.273
836.112
831.283
826.183
822.246
819.488
818.499
817.918
818.2
818.249
818.969
819.672
821.135
824.176
830.473
841.144
857.425
873.98
915.296
983.529
1298
3750.9
1177.99
1090.93
1060.13
1048.93
1032.73
1024.21
1015.33
1008.75
1000.77
992.222
982.837
972.002
960.701
948.295
935.733
923.009
911.325
902.197
895.35
891.081
889.671
888.369
891.146
892.762
895.802
897.922
900.19
901.869
903.544
904.467
905.575
907.472
912.399
921.707
938.687
959.175
993.316
1217.31
3564.75
42660.7
3821.62
1642.08
1553.43
1524.01
1510.22
1528.67
1536.51
1547.75
1554.71
1554.54
1550.3
1541.1
1528.07
1511.94
1494.63
1476.75
1459.31
1444.73
1430.95
1419.74
1408.5
1394.11
1381.57
1365.1
1350.22
1332.88
1312.96
1290.97
1266.52
1240.81
1210.55
1184.87
1155.41
1140.88
1157.28
1189.61
1256.6
3413.61
38142.7
42660.7
3821.62
1642.08
1553.43
1524.01
1510.22
1528.67
1536.51
1547.75
1554.71
1554.54
1550.3
1541.1
1528.07
1511.94
1494.63
1476.75
1459.31
1444.73
1430.95
1419.74
1408.5
1394.11
1381.57
1365.1
1350.22
1332.88
1312.96
1290.97
1266.52
1240.81
1210.55
1184.87
1155.41
1140.88
1157.28
1189.61
1256.6
3413.61
38142.7
3750.9
1177.99
1090.93
1060.13
1048.93
1032.73
1024.21
1015.33
1008.75
1000.77
992.222
982.837
972.002
960.701
948.295
935.733
923.009
911.325
902.197
895.35
891.081
889.671
888.369
891.146
892.762
895.802
897.922
900.19
901.869
903.544
904.467
905.575
907.472
912.399
921.707
938.687
959.175
993.316
1217.31
3564.75
1256.52
899.187
941.147
931.31
923.236
913.135
905.101
900.266
895.097
890.553
885.075
879.564
873.165
866.992
860.777
855.283
850.667
846.996
843.832
840.273
836.112
831.283
826.183
822.246
819.488
818.499
817.918
818.2
818.249
818.969
819.672
821.135
824.176
830.473
841.144
857.425
873.98
915.296
983.529
1298
1160.06
861.551
904.711
900.702
897.309
888.36
880.158
874.115
867.027
861.076
854.382
848.257
841.699
835.628
829.654
823.974
818.369
812.712
807.113
801.889
797.669
794.33
791.403
788.723
786.239
784.629
783.088
782.773
782.169
782.478
782.806
784.116
787.061
792.704
802.064
815.74
830.486
870.4
945.408
1208.77
1119.13
841.532
889.08
888.596
889.218
881.071
872.735
865.33
856.618
849.321
841.489
834.25
826.803
819.672
812.637
805.926
799.579
793.674
788.22
783.199
778.864
775.124
771.936
769.46
767.601
766.545
765.708
765.809
765.62
766.074
766.587
768.031
771.056
776.682
785.517
798.503
812.973
851.363
924.05
1168.89
1098.59
827.228
877.39
880.936
885.871
877.699
869.909
861.149
850.664
841.525
831.745
822.978
814.392
806.283
798.436
790.976
783.952
777.436
771.489
766.186
761.837
758.346
755.538
753.429
751.9
751.052
750.468
750.76
750.835
751.547
752.447
754.29
757.584
763.343
771.844
784.384
798.532
834.819
906.997
1145.58
1104.59
820.863
872.666
879.911
890.216
882.249
875.62
865.885
853.051
840.749
828.754
818.041
807.94
798.794
790.233
782.323
775.081
768.546
762.7
757.457
752.94
749.087
745.901
743.51
741.812
740.855
740.265
740.547
740.717
741.57
742.719
744.877
748.412
754.27
762.5
774.647
788.237
823.118
896.506
1154.11
1113.56
817.295
871.011
880.645
895.864
889.843
885.465
875.71
860.851
844.925
829.175
815.405
803.48
792.793
783.215
774.555
766.752
759.778
753.594
748.134
743.548
739.756
736.679
734.38
732.759
731.834
731.349
731.765
732.151
733.289
734.803
737.419
741.327
747.504
755.743
767.915
781.523
815.707
890.27
1175.85
1107.46
818.006
874.565
885.898
905.123
900.617
898.107
888.964
872.788
853.649
833.835
816.646
801.971
789.691
778.938
769.57
761.276
753.957
747.525
741.887
737.162
733.265
730.11
727.743
726.068
725.083
724.612
725.07
725.619
727.013
728.879
731.951
736.285
742.838
751.256
763.566
777.197
811.296
887.641
1198.79
1107.23
821.793
884.023
894.856
916.455
913.569
912.833
905.4
889.044
866.505
841.982
820.263
802.163
787.533
775.549
765.267
756.354
748.572
741.808
735.956
731.114
727.186
724.061
721.752
720.15
719.221
718.854
719.427
720.202
721.919
724.2
727.8
732.634
739.699
748.437
761.109
774.968
808.974
885.952
1226.73
1102.79
830.942
899.977
907.78
930.328
928.701
928.944
923.147
907.571
882.637
853.466
826.65
804.605
787.532
773.987
762.844
753.367
745.203
738.169
732.129
727.152
723.136
719.958
717.61
715.98
715.034
714.683
715.255
716.171
718.125
720.734
724.764
730.006
737.496
746.516
759.529
773.644
807.487
885.131
1251.48
1103.55
844.628
923.775
927.793
949.701
948.491
948.178
942.655
927.936
901.488
867.877
835.462
808.727
788.518
773.118
761.01
751.022
742.509
735.229
729.014
723.909
719.809
716.58
714.201
712.553
711.594
711.249
711.813
712.847
715.007
717.893
722.304
727.887
735.751
744.987
758.312
772.602
806.104
883.93
1275.95
1109.44
862.683
951.285
952.265
974.376
973.429
971.218
964.168
949.18
921.814
884.484
846.547
814.756
790.999
773.623
760.5
750.003
741.207
733.726
727.356
722.121
717.916
714.598
712.137
710.412
709.385
708.972
709.444
710.504
712.774
715.839
720.538
726.371
734.525
743.934
757.555
772.239
805.125
882.418
1297.79
1120.26
887.352
988.736
995.613
1012.66
1009.61
1001.63
989.555
971.187
942.428
902.066
858.852
821.645
793.942
774.344
760.192
749.258
740.258
732.632
726.139
720.791
716.484
713.072
710.514
708.692
707.571
707.057
707.391
708.415
710.725
713.888
718.799
724.792
733.162
742.657
756.571
771.653
803.856
880.188
1317.19
1139.25
915.632
1020.59
1066.04
1070.94
1062.22
1042.75
1021.13
995.684
964.036
920.666
872.586
829.864
797.857
775.66
760.343
748.957
739.776
732.03
725.425
719.966
715.562
712.062
709.417
707.505
706.298
705.693
705.901
706.886
709.225
712.469
717.573
723.691
732.247
741.794
756.005
771.804
803.168
877.745
1333.64
1151.25
939.878
1043.43
1139.91
1152.28
1137.33
1100.77
1060.75
1022.18
984.791
938.102
886.057
838.279
801.961
776.981
760.422
748.636
739.337
731.52
724.827
719.273
714.782
711.204
708.478
706.484
705.194
704.497
704.573
705.5
707.831
711.106
716.347
722.516
731.194
740.71
755.169
771.626
802.52
874.406
1347.08
1152.28
970.797
1076.43
1217.45
1254.2
1235.42
1178.59
1110.46
1053.31
1006.09
954.93
899.118
846.85
806.33
778.398
760.493
748.321
738.943
731.083
724.322
718.685
714.12
710.478
707.692
705.637
704.285
703.517
703.496
704.38
706.716
710.026
715.413
721.629
730.454
739.909
754.778
772.028
803.134
871.711
1360.12
1102.33
982.029
1117.56
1319.85
1371.55
1355.2
1275.69
1170.24
1086.38
1025.44
969.307
910.308
854.782
810.462
779.689
760.464
747.948
738.54
730.671
723.864
718.16
713.534
709.844
707.015
704.92
703.521
702.692
702.609
703.458
705.8
709.136
714.648
720.888
729.848
739.163
754.506
772.291
804.578
868.08
1368.45
1103.56
977.708
1176.23
1420.12
1554.14
1496.44
1382.69
1236.36
1119.17
1042.41
980.529
919.201
861.516
814.041
780.725
760.334
747.555
738.159
730.306
723.471
717.717
713.045
709.321
706.465
704.345
702.914
702.05
701.932
702.755
705.108
708.47
714.097
720.354
729.468
738.555
754.449
772.426
807.096
866.192
1381.38
1141.7
989.4
1293.87
1628.62
1754.75
1669.85
1489.71
1296.28
1146.67
1054.2
987.447
925.147
866.461
816.682
781.386
760.154
747.236
737.88
730.051
723.202
717.415
712.713
708.968
706.098
703.965
702.516
701.635
701.498
702.309
704.673
708.057
713.767
720.041
729.295
738.15
754.491
772.507
809.479
865.51
1448.47
)
;

boundaryField
{
    inlet
    {
        type            fixedValue;
        value           uniform 10000;
    }
    outlet
    {
        type            fixedValue;
        value           uniform 1000;
    }
    obstacle
    {
        type            zeroGradient;
    }
    empty
    {
        type            empty;
    }
}


// ************************************************************************* //
