/*--------------------------------*- C++ -*----------------------------------*\
| =========                 |                                                 |
| \\      /  F ield         | OpenFOAM: The Open Source CFD Toolbox           |
|  \\    /   O peration     | Version:  v1912                                 |
|   \\  /    A nd           | Website:  www.openfoam.com                      |
|    \\/     M anipulation  |                                                 |
\*---------------------------------------------------------------------------*/
FoamFile
{
    version     2.0;
    format      ascii;
    class       volScalarField;
    location    "7.92";
    object      p;
}
// * * * * * * * * * * * * * * * * * * * * * * * * * * * * * * * * * * * * * //

dimensions      [1 -1 -2 0 0 0 0];


internalField   nonuniform List<scalar> 
1900
(
18082.2
8932.33
8418.7
8452.5
8479.47
8482.51
8460.49
8431
8391.59
8346.36
18082.2
8932.29
8418.77
8452.52
8479.65
8482.15
8459.76
8429.35
8399.29
8346.08
18082.1
8932.27
8418.82
8452.64
8480.07
8482.44
8460.04
8424.38
8390.05
8330.81
18082.2
8932.29
8418.77
8452.52
8479.65
8482.15
8459.76
8429.35
8399.29
8346.08
18082.2
8932.33
8418.7
8452.5
8479.47
8482.51
8460.49
8431
8391.59
8346.36
8454.26
8272.36
8188.21
8005.65
8216.17
8295.95
8171.94
8093.89
7912.34
7783.77
8261.56
8152.74
8081.74
7937.76
7820.77
8295.95
8171.94
8093.89
7912.34
7783.77
8454.26
8272.36
8188.21
8005.65
8216.17
3453.46
2011.92
1413.2
1099.1
839.896
3903.45
2219.24
1523.85
1184.71
893.553
4010.8
2180.58
1477
1151.3
850.036
3903.45
2219.24
1523.85
1184.71
893.553
3453.46
2011.92
1413.2
1099.1
839.896
865.493
880.987
858.828
822.143
784.515
741.999
659.763
580.015
586.494
757.7
1185.1
1302.42
1297.95
1285.78
1281.22
1257.95
1189.58
1074.85
937.88
787.944
620.163
439.496
314.314
273.93
263.481
256.823
251.041
246.608
243.86
243.403
251.52
311.925
479.162
608.761
678.183
733.577
793.199
856.93
918.681
963.758
810.147
846.932
871.852
845.394
797.546
740.09
646.787
570.756
577.271
756.341
1181.98
1302.37
1301.8
1291.16
1285.64
1261.97
1193.03
1075.1
937.725
790.322
623.532
441.479
314.76
273.934
263.463
256.816
251.024
246.577
243.824
243.365
251.488
311.899
479.15
608.701
678.07
733.449
793.21
856.881
918.679
963.84
798.521
819.676
853.467
847.852
815.411
753.78
651.125
574.759
581.137
748.621
1181.37
1305.5
1303.04
1291.98
1285.91
1263.99
1211.71
1100.45
951.896
793.026
623.317
441.096
314.754
273.941
263.458
256.815
251.02
246.566
243.811
243.352
251.477
311.897
479.153
608.67
678.017
733.398
793.218
856.883
918.612
963.692
810.147
846.932
871.852
845.394
797.546
740.09
646.787
570.756
577.271
756.341
1181.98
1302.37
1301.8
1291.16
1285.64
1261.97
1193.03
1075.1
937.725
790.322
623.532
441.479
314.76
273.934
263.463
256.816
251.024
246.577
243.824
243.365
251.488
311.899
479.15
608.701
678.07
733.449
793.21
856.881
918.679
963.84
865.493
880.987
858.828
822.143
784.515
741.999
659.763
580.015
586.494
757.7
1185.1
1302.42
1297.95
1285.78
1281.22
1257.95
1189.58
1074.85
937.88
787.944
620.163
439.496
314.314
273.93
263.481
256.823
251.041
246.608
243.86
243.403
251.52
311.925
479.162
608.761
678.183
733.577
793.199
856.93
918.681
963.758
959.697
880.506
825.251
775.47
742.354
706.131
646.302
586.407
595.803
799.175
1186.63
1300.1
1291.92
1275.87
1264.78
1239.38
1176.55
1072.22
937.58
785.095
615.227
434.477
312.48
273.841
263.549
256.878
251.122
246.747
244.024
243.57
251.668
311.95
479.092
608.878
678.463
733.904
793.088
856.899
918.762
964.067
962.499
872.555
794.516
730.382
685.867
646.412
606.426
586.449
622.131
879.771
1160.72
1253.64
1248.09
1246.93
1234.54
1201.73
1134.23
1029.68
900.059
756.564
593.856
420.715
308.277
273.626
263.719
257.021
251.316
247.068
244.416
243.969
252.023
312.007
478.908
609.086
679.125
734.756
793.517
856.999
918.783
964.139
970.85
939.785
893.822
836.662
770.005
706.853
661.68
637.617
695.662
946.548
1141.24
1214.54
1202.53
1203.67
1184.38
1144.04
1078
979.237
856.79
720.761
564.372
401.394
302.655
273.379
264.001
257.27
251.632
247.552
245.003
244.574
252.574
312.181
478.685
609.23
679.914
735.644
794.406
857.449
919.257
964.628
974.017
917.957
862.717
803.528
731.351
677.18
666.415
683.23
802.294
987.656
1133.09
1168.75
1158.78
1160.96
1129.89
1083.5
1014.08
918.216
804.658
678.03
528.497
378.678
296.748
273.242
264.353
257.618
252.079
248.199
245.774
245.372
253.32
312.62
478.837
609.774
681.141
736.681
795.713
858.107
919.782
965.209
974.11
916.954
856.34
800.403
735.91
710.756
727.995
777.97
869.635
1008.21
1094.61
1090.81
1115.88
1101.07
1062.29
1013.81
944.322
853.511
749.418
630.601
487.48
354.923
291.511
273.251
264.765
258.059
252.657
249.011
246.728
246.35
254.25
313.069
478.733
610.069
682.203
737.43
796.76
858.494
919.943
965.588
974.181
917.262
858.526
816.506
780.181
768.254
790.346
832.819
910.837
992.737
1006.37
1041.05
1053.78
1023.29
991.141
943.985
874.784
789.322
693.554
579.926
443.985
333.391
287.872
273.604
265.362
258.728
253.515
250.129
247.995
247.659
255.529
314.229
479.687
611.345
684.144
738.927
798.293
859.32
920.334
966.105
973.157
917.957
871.33
842.782
820.476
812.77
820.283
850.422
907.561
935.369
951.111
979.976
970.564
956.649
925.425
874.917
806.159
726.854
637.557
526.831
401.532
316.563
285.843
274.18
266.082
259.552
254.556
251.445
249.472
249.153
256.991
315.068
479.782
611.93
685.497
740.007
799.432
859.946
920.526
966.386
973.781
925.691
886.811
860.614
842.875
835.327
838.352
861.058
874.86
866.428
895.959
918.747
915.967
894.447
859.636
805.686
739.959
667.352
581.761
472.563
363.977
305.516
285.162
274.836
266.794
260.417
255.668
252.813
250.989
250.7
258.53
316.379
480.375
612.428
686.565
741.041
800.685
860.87
921.011
966.872
981.058
935.13
903.607
878.763
856.471
834.653
823.722
822.093
809.003
831.445
868.437
864.407
854.789
833.191
792.635
738.643
677.877
610.253
524.709
419.817
335.353
299.062
284.52
274.804
266.833
260.664
256.208
253.633
251.991
251.734
259.528
316.379
479.182
611.84
686.83
741.539
801.585
861.789
921.602
967.267
978.407
919.91
880.041
843.498
808.673
789.931
786.712
783.986
796.866
816.556
814.161
812.326
798.658
767.496
722.876
672.016
618.131
554.306
467.624
374.842
318.958
296.791
285.317
276.229
268.769
263.234
259.323
257.226
255.894
255.848
263.84
321.196
485.869
621.216
697.911
750.185
807.286
865.098
923.396
968.371
945.758
897.156
847.093
822.047
810.29
802.564
788.318
782.094
772.53
769.941
767.767
757.894
735.205
701.22
661.699
620.509
572.221
506.308
423.302
352.439
319.356
305.47
295.7
287.381
280.728
276.016
272.883
271.49
270.609
270.931
279.649
340.921
516.477
658.59
733.73
779.621
831.128
879.638
928.334
969.368
964.75
930.198
893.198
870.573
846.294
812.394
781.091
755.431
741.204
732.455
723.039
708.136
685.698
658.475
631.773
605.46
566.607
498.689
423.501
385.201
374.209
368.865
364.029
359.58
356.262
354.633
353.561
354.47
354.689
356.459
369.688
455.88
671.276
817.195
873.643
882.713
899.784
921.035
949.434
973.044
993.723
955.373
918.826
884.362
853.648
827.495
791.516
752.01
728.003
719.106
715.89
712.955
710.373
711.955
715.816
702.998
656.951
593.647
550.325
536.065
532.606
528.747
523.334
518.161
514.192
512.535
511.627
512.738
512.373
514.96
534.594
648.486
878.111
1008.7
1059.05
1048.89
1035.76
1017.03
1001.89
982.342
1006.76
981.378
962.78
947.24
937.352
935.187
903.282
866.361
847.608
850.622
863.863
879.105
892.407
899.161
886.269
839.695
763.337
699.761
674.952
666.356
659.064
650.044
640.459
632.494
626.525
623.593
621.983
621.852
620.586
623.635
645.683
758.607
969.991
1086.42
1144.25
1144.87
1138.49
1118.88
1078.81
1007.97
1030.34
1053.75
1100.02
1145.01
1207.04
1266.56
1273.22
1219.95
1135.54
1074.76
1042.96
1026.37
1010.63
981.739
924.696
847.148
783.366
753.266
742.263
734.855
725.771
715.316
705.54
698.134
693.013
690.857
689.84
689.933
689.082
692.289
715.277
809.218
1002.67
1126.64
1188.57
1192.16
1185.33
1164.14
1120.03
1026.89
1065.27
1130.92
1219.89
1299.3
1398.57
1465.96
1465.76
1379.2
1227.83
1115.68
1059.16
1027.55
994.244
945.4
881.344
827.571
802.574
795.002
791.171
785.336
776.84
767.496
759.399
753.546
749.578
748.068
747.207
747.304
746.657
748.753
768.957
835.042
997.289
1127.89
1195.15
1201.33
1194.65
1171.34
1123.86
1033.8
1069.18
1156.34
1258.46
1340.42
1435.77
1484.59
1465.11
1359.91
1196.74
1093.38
1042.61
1004.55
958.119
909.011
868.899
848.47
844.434
843.965
841.593
836.212
828.821
820.88
814.316
809.872
807.066
806.254
805.762
806.013
805.697
806.644
822.039
866.303
987.618
1115.12
1184.03
1194.36
1188.84
1161.11
1100.12
1019.44
1053.95
1127.34
1219.19
1284.38
1363.67
1396.41
1374.38
1275.21
1145.7
1065.78
1019.93
982.334
942.281
910.881
894.187
891.527
893.382
894.291
892.652
888.42
882.914
876.571
870.814
866.724
863.985
862.996
862.211
862.15
861.978
862.501
869.461
901.094
975.643
1087.56
1154.52
1166.69
1157.34
1142.87
1077.58
993.003
1094.03
969.642
1113.3
1173.5
1243.99
1271.47
1260.34
1186.52
1099.6
1045.15
1009.59
982.144
956.871
941.059
936.821
938.696
940.933
941.529
940.138
937.174
933.975
930.429
927.302
925.234
923.706
923.012
922.155
921.779
921.495
921.885
923.905
938.613
976.963
1051.21
1106.89
1119.58
1098.04
1077.55
942.695
923.703
5244.51
951.898
1007.68
1054.48
1081.48
1088
1075.49
1039.67
1004.85
980.601
966.924
959.862
957.004
959.866
963.75
966.613
968.331
969.05
968.815
968.09
967.392
966.789
966.599
966.811
967.109
967.574
967.7
968.102
968.326
969.037
969.58
972.546
979.258
998.761
1021.37
1033.19
1020.18
996.286
920.778
2700.74
5244.51
951.898
1007.68
1054.48
1081.48
1088
1075.49
1039.67
1004.85
980.601
966.924
959.862
957.004
959.866
963.75
966.613
968.331
969.05
968.815
968.09
967.392
966.789
966.599
966.811
967.109
967.574
967.7
968.102
968.326
969.037
969.58
972.546
979.258
998.761
1021.37
1033.19
1020.18
996.286
920.778
2700.74
1094.03
969.642
1113.3
1173.5
1243.99
1271.47
1260.34
1186.52
1099.6
1045.15
1009.59
982.144
956.871
941.059
936.821
938.696
940.933
941.529
940.138
937.174
933.975
930.429
927.302
925.234
923.706
923.012
922.155
921.779
921.495
921.885
923.905
938.613
976.963
1051.21
1106.89
1119.58
1098.04
1077.55
942.695
923.703
1053.95
1127.34
1219.19
1284.38
1363.67
1396.41
1374.38
1275.21
1145.7
1065.78
1019.93
982.334
942.281
910.881
894.187
891.527
893.382
894.291
892.652
888.42
882.914
876.571
870.814
866.724
863.985
862.996
862.211
862.15
861.978
862.501
869.461
901.094
975.643
1087.56
1154.52
1166.69
1157.34
1142.87
1077.58
993.003
1069.18
1156.34
1258.46
1340.42
1435.77
1484.59
1465.11
1359.91
1196.74
1093.38
1042.61
1004.55
958.119
909.011
868.899
848.47
844.434
843.965
841.593
836.212
828.821
820.88
814.316
809.872
807.066
806.254
805.762
806.013
805.697
806.644
822.039
866.303
987.618
1115.12
1184.03
1194.36
1188.84
1161.11
1100.12
1019.44
1065.27
1130.92
1219.89
1299.3
1398.57
1465.96
1465.76
1379.2
1227.83
1115.68
1059.16
1027.55
994.244
945.4
881.344
827.571
802.574
795.002
791.171
785.336
776.84
767.496
759.399
753.546
749.578
748.068
747.207
747.304
746.657
748.753
768.957
835.042
997.289
1127.89
1195.15
1201.33
1194.65
1171.34
1123.86
1033.8
1030.34
1053.75
1100.02
1145.01
1207.04
1266.56
1273.22
1219.95
1135.54
1074.76
1042.96
1026.37
1010.63
981.739
924.696
847.148
783.366
753.266
742.263
734.855
725.771
715.316
705.54
698.134
693.013
690.857
689.84
689.933
689.082
692.289
715.277
809.218
1002.67
1126.64
1188.57
1192.16
1185.33
1164.14
1120.03
1026.89
1006.76
981.378
962.78
947.24
937.352
935.187
903.282
866.361
847.608
850.622
863.863
879.105
892.407
899.161
886.269
839.695
763.337
699.761
674.952
666.356
659.064
650.044
640.459
632.494
626.525
623.593
621.983
621.852
620.586
623.635
645.683
758.607
969.991
1086.42
1144.25
1144.87
1138.49
1118.88
1078.81
1007.97
993.723
955.373
918.826
884.362
853.648
827.495
791.516
752.01
728.003
719.106
715.89
712.955
710.373
711.955
715.816
702.998
656.951
593.647
550.325
536.065
532.606
528.747
523.334
518.161
514.192
512.535
511.627
512.738
512.373
514.96
534.594
648.486
878.111
1008.7
1059.05
1048.89
1035.76
1017.03
1001.89
982.342
964.75
930.198
893.198
870.573
846.294
812.394
781.091
755.431
741.204
732.455
723.039
708.136
685.698
658.475
631.773
605.46
566.607
498.689
423.501
385.201
374.209
368.865
364.029
359.58
356.262
354.633
353.561
354.47
354.689
356.459
369.688
455.88
671.276
817.195
873.643
882.713
899.784
921.035
949.434
973.044
945.758
897.156
847.093
822.047
810.29
802.564
788.318
782.094
772.53
769.941
767.767
757.894
735.205
701.22
661.699
620.509
572.221
506.308
423.302
352.439
319.356
305.47
295.7
287.381
280.728
276.016
272.883
271.49
270.609
270.931
279.649
340.921
516.477
658.59
733.73
779.621
831.128
879.638
928.334
969.368
978.407
919.91
880.041
843.498
808.673
789.931
786.712
783.986
796.866
816.556
814.161
812.326
798.658
767.496
722.876
672.016
618.131
554.306
467.624
374.842
318.958
296.791
285.317
276.229
268.769
263.234
259.323
257.226
255.894
255.848
263.84
321.196
485.869
621.216
697.911
750.185
807.286
865.098
923.396
968.371
981.058
935.13
903.607
878.763
856.471
834.653
823.722
822.093
809.003
831.445
868.437
864.407
854.789
833.191
792.635
738.643
677.877
610.253
524.709
419.817
335.353
299.062
284.52
274.804
266.833
260.664
256.208
253.633
251.991
251.734
259.528
316.379
479.182
611.84
686.83
741.539
801.585
861.789
921.602
967.267
973.781
925.691
886.811
860.614
842.875
835.327
838.352
861.058
874.86
866.428
895.959
918.747
915.967
894.447
859.636
805.686
739.959
667.352
581.761
472.563
363.977
305.516
285.162
274.836
266.794
260.417
255.668
252.813
250.989
250.7
258.53
316.379
480.375
612.428
686.565
741.041
800.685
860.87
921.011
966.872
973.157
917.957
871.33
842.782
820.476
812.77
820.283
850.422
907.561
935.369
951.111
979.976
970.564
956.649
925.425
874.917
806.159
726.854
637.557
526.831
401.532
316.563
285.843
274.18
266.082
259.552
254.556
251.445
249.472
249.153
256.991
315.068
479.782
611.93
685.497
740.007
799.432
859.946
920.526
966.386
974.181
917.262
858.526
816.506
780.181
768.254
790.346
832.819
910.837
992.737
1006.37
1041.05
1053.78
1023.29
991.141
943.985
874.784
789.322
693.554
579.926
443.985
333.391
287.872
273.604
265.362
258.728
253.515
250.129
247.995
247.659
255.529
314.229
479.687
611.345
684.144
738.927
798.293
859.32
920.334
966.105
974.11
916.954
856.34
800.403
735.91
710.756
727.995
777.97
869.635
1008.21
1094.61
1090.81
1115.88
1101.07
1062.29
1013.81
944.322
853.511
749.418
630.601
487.48
354.923
291.511
273.251
264.765
258.059
252.657
249.011
246.728
246.35
254.25
313.069
478.733
610.069
682.203
737.43
796.76
858.494
919.943
965.588
974.017
917.957
862.717
803.528
731.351
677.18
666.415
683.23
802.294
987.656
1133.09
1168.75
1158.78
1160.96
1129.89
1083.5
1014.08
918.216
804.658
678.03
528.497
378.678
296.748
273.242
264.353
257.618
252.079
248.199
245.774
245.372
253.32
312.62
478.837
609.774
681.141
736.681
795.713
858.107
919.782
965.209
970.85
939.785
893.822
836.662
770.005
706.853
661.68
637.617
695.662
946.548
1141.24
1214.54
1202.53
1203.67
1184.38
1144.04
1078
979.237
856.79
720.761
564.372
401.394
302.655
273.379
264.001
257.27
251.632
247.552
245.003
244.574
252.574
312.181
478.685
609.23
679.914
735.644
794.406
857.449
919.257
964.628
962.499
872.555
794.516
730.382
685.867
646.412
606.426
586.449
622.131
879.771
1160.72
1253.64
1248.09
1246.93
1234.54
1201.73
1134.23
1029.68
900.059
756.564
593.856
420.715
308.277
273.626
263.719
257.021
251.316
247.068
244.416
243.969
252.023
312.007
478.908
609.086
679.125
734.756
793.517
856.999
918.783
964.139
959.697
880.506
825.251
775.47
742.354
706.131
646.302
586.407
595.803
799.175
1186.63
1300.1
1291.92
1275.87
1264.78
1239.38
1176.55
1072.22
937.58
785.095
615.227
434.477
312.48
273.841
263.549
256.878
251.122
246.747
244.024
243.57
251.668
311.95
479.092
608.878
678.463
733.904
793.088
856.899
918.762
964.067
)
;

boundaryField
{
    inlet
    {
        type            fixedValue;
        value           uniform 10000;
    }
    outlet
    {
        type            fixedValue;
        value           uniform 1000;
    }
    obstacle
    {
        type            zeroGradient;
    }
    empty
    {
        type            empty;
    }
}


// ************************************************************************* //
