/*--------------------------------*- C++ -*----------------------------------*\
| =========                 |                                                 |
| \\      /  F ield         | OpenFOAM: The Open Source CFD Toolbox           |
|  \\    /   O peration     | Version:  v1912                                 |
|   \\  /    A nd           | Website:  www.openfoam.com                      |
|    \\/     M anipulation  |                                                 |
\*---------------------------------------------------------------------------*/
FoamFile
{
    version     2.0;
    format      ascii;
    class       volScalarField;
    location    "4.28";
    object      p;
}
// * * * * * * * * * * * * * * * * * * * * * * * * * * * * * * * * * * * * * //

dimensions      [1 -1 -2 0 0 0 0];


internalField   nonuniform List<scalar> 
1900
(
32310.1
12833.6
11315.9
11211.6
11031.5
10830.4
10619.8
10409.4
10217.3
10049.1
32309.9
12833.8
11315.9
11212
11032.2
10831.4
10621.5
10411.7
10205.8
10022.5
32309.8
12833.9
11315.9
11212
11032
10830.3
10619.5
10407.6
10198.9
10010.5
32309.9
12833.8
11315.9
11212
11032.2
10831.4
10621.5
10411.7
10205.8
10022.5
32310.1
12833.6
11315.9
11211.6
11031.5
10830.4
10619.8
10409.4
10217.3
10049.1
9947.18
9814.43
9650.16
9424.19
9263.98
9865.51
9705.68
9519.43
9272.49
8956.48
9843.92
9701.43
9517.89
9257.45
8984.86
9865.51
9705.68
9519.43
9272.49
8956.48
9947.18
9814.43
9650.16
9424.19
9263.98
7815.49
7060.45
6356.78
5672.62
5057.16
7930.05
7096.58
6394.18
5716.74
5048.86
7928.94
7096.14
6394.67
5718.3
4981.59
7930.05
7096.58
6394.18
5716.74
5048.86
7815.49
7060.45
6356.78
5672.62
5057.16
3918.02
2186.65
2454.04
2706.42
2599.95
2457.45
2298.49
2104.26
1961.79
1844.73
1784.87
1744.55
1712.85
1686.64
1665.29
1648.03
1634.09
1622.76
1613.63
1605.99
1599.85
1594.89
1590.58
1587.06
1584.15
1581.91
1580.34
1579.36
1578.61
1577.81
1576.21
1575.5
1574.61
1578.15
1579.51
1584.73
1583.93
1581.56
1818.68
7617.13
3900.96
2287.41
2489.92
2744.05
2623.21
2466.84
2303.54
2105.89
1963.25
1844.75
1785.03
1744.66
1712.96
1686.72
1665.35
1648.07
1634.13
1622.79
1613.66
1606.02
1599.88
1594.91
1590.6
1587.07
1584.16
1581.92
1580.35
1579.37
1578.61
1577.8
1576.2
1575.48
1574.59
1578.2
1579.6
1584.95
1584.24
1581.98
1819.09
7621.36
3857.33
2474.75
2632.03
2798.74
2640.71
2471.36
2306.07
2106.27
1964.13
1844.75
1785.15
1744.73
1713.02
1686.77
1665.38
1648.1
1634.15
1622.81
1613.68
1606.03
1599.89
1594.92
1590.61
1587.08
1584.17
1581.93
1580.36
1579.38
1578.63
1577.83
1576.24
1575.56
1574.73
1578.46
1580.08
1585.76
1585.55
1583.79
1821.01
7719.56
3900.96
2287.41
2489.92
2744.05
2623.21
2466.84
2303.54
2105.89
1963.25
1844.75
1785.03
1744.66
1712.96
1686.72
1665.35
1648.07
1634.13
1622.79
1613.66
1606.02
1599.88
1594.91
1590.6
1587.07
1584.16
1581.92
1580.35
1579.37
1578.61
1577.8
1576.2
1575.48
1574.59
1578.2
1579.6
1584.95
1584.24
1581.98
1819.09
7621.36
3918.02
2186.65
2454.04
2706.42
2599.95
2457.45
2298.49
2104.26
1961.79
1844.73
1784.87
1744.55
1712.85
1686.64
1665.29
1648.03
1634.09
1622.76
1613.63
1605.99
1599.85
1594.89
1590.58
1587.06
1584.15
1581.91
1580.34
1579.36
1578.61
1577.81
1576.21
1575.5
1574.61
1578.15
1579.51
1584.73
1583.93
1581.56
1818.68
7617.13
3906.07
1920.99
2218.67
2544.54
2526.61
2421.63
2276.32
2094.37
1951.88
1842.77
1783.51
1743.4
1711.84
1685.83
1664.65
1647.51
1633.64
1622.36
1613.26
1605.65
1599.53
1594.59
1590.29
1586.77
1583.85
1581.6
1580.02
1579.02
1578.24
1577.45
1575.83
1575.16
1574.24
1577.58
1578.94
1583.72
1582.97
1580.11
1820.08
7956.63
4203.02
1689.71
2042.38
2316.97
2382.64
2329.42
2217.55
2062.65
1929.62
1836.65
1779.91
1740.63
1709.49
1683.99
1663.21
1646.33
1632.62
1621.44
1612.43
1604.88
1598.82
1593.92
1589.65
1586.15
1583.23
1580.97
1579.35
1578.33
1577.51
1576.76
1575.15
1574.55
1573.57
1576.5
1577.69
1581.5
1580.51
1576.72
1805.8
7516.64
4610.35
1631.02
1945.95
2170.25
2256.57
2230.7
2141.48
2015.36
1904.03
1825.1
1773.82
1736.17
1705.98
1681.26
1661.07
1644.56
1631.09
1620.07
1611.19
1603.74
1597.78
1592.95
1588.72
1585.24
1582.32
1580.03
1578.37
1577.29
1576.4
1575.7
1574.09
1573.56
1572.49
1574.75
1575.67
1578.15
1576.74
1571.77
1789.76
7401.77
4885.72
1624.72
1877.75
2065.11
2150.13
2133.34
2060.84
1965.2
1875.51
1811.25
1765.51
1730.27
1701.53
1677.88
1658.43
1642.39
1629.22
1618.43
1609.73
1602.43
1596.58
1591.85
1587.68
1584.22
1581.3
1578.96
1577.22
1576.06
1575.07
1574.44
1572.83
1572.36
1571.12
1572.56
1573.07
1574.23
1572.22
1566.67
1780.83
7276.14
5159.5
1617.49
1838.01
1975.59
2055.13
2042.36
1986.03
1915.91
1847.64
1795.71
1755.7
1723.29
1696.42
1674.05
1655.45
1639.95
1627.17
1616.67
1608.21
1601.09
1595.4
1590.79
1586.69
1583.25
1580.3
1577.9
1576.03
1574.78
1573.65
1573.08
1571.41
1570.93
1569.4
1569.82
1569.67
1569.44
1566.55
1560.74
1766.77
7154.26
5369.5
1604.11
1791.67
1899.2
1967.76
1962.11
1924.25
1872.8
1822.11
1780.31
1745.39
1715.95
1691.05
1670.02
1652.3
1637.41
1625.07
1614.92
1606.77
1599.88
1594.38
1589.9
1585.87
1582.46
1579.47
1576.98
1574.97
1573.63
1572.38
1571.96
1570.29
1569.85
1568.1
1567.6
1566.88
1565.69
1562.18
1556.48
1753.99
6977.14
5694.32
1588.56
1750.14
1836.41
1891.68
1893.99
1870.38
1834.92
1797.95
1764.51
1734.46
1708.15
1685.35
1665.72
1648.95
1634.74
1622.93
1613.21
1605.42
1598.81
1593.53
1589.21
1585.25
1581.84
1578.78
1576.17
1573.96
1572.49
1571.03
1570.72
1568.96
1568.36
1566.24
1564.64
1563.05
1560.86
1556.69
1551.78
1738.05
6824.55
5416.89
1564.45
1707.15
1777.86
1826.77
1838.27
1826.69
1805.17
1778.4
1751.26
1725.14
1701.39
1680.22
1661.67
1645.66
1632.07
1620.76
1611.49
1604.09
1597.78
1592.75
1588.61
1584.74
1581.38
1578.29
1575.63
1573.32
1571.91
1570.48
1570.61
1569.02
1568.41
1566.11
1563.54
1561
1558.06
1553.22
1548.37
1712.78
6598.39
5307.38
1543.3
1671.48
1730.94
1775.47
1792.29
1789.93
1778.66
1759.33
1737.51
1715.02
1693.79
1674.23
1656.83
1641.68
1628.79
1618.08
1609.34
1602.41
1596.44
1591.68
1587.73
1583.95
1580.6
1577.46
1574.71
1572.22
1570.83
1569.34
1569.74
1568.09
1567.15
1564.34
1560.47
1556.31
1552.51
1546.91
1543.06
1686.12
6371.28
5168.69
1522.73
1638.01
1688.82
1732.89
1754.28
1760.47
1756.92
1744.01
1726.78
1707.33
1688.11
1669.58
1652.85
1638.16
1625.68
1615.37
1607.02
1600.45
1594.79
1590.32
1586.64
1583.06
1579.89
1576.9
1574.33
1571.99
1571.02
1569.81
1570.67
1569.15
1567.91
1564.55
1559.15
1552.96
1547.9
1540.86
1536.29
1634.21
6077.2
5011.65
1505.46
1612.45
1656.64
1700.58
1723.3
1735.13
1736.73
1727.71
1714.39
1697.5
1680.2
1662.8
1647.03
1633.06
1621.24
1611.52
1603.69
1597.59
1592.28
1588.12
1584.7
1581.28
1578.22
1575.25
1572.71
1570.28
1569.43
1568.15
1569.13
1567.48
1565.78
1561.98
1555.32
1547.27
1540.99
1533.49
1529.09
1584.28
5767.22
4809.01
1484.14
1583.96
1624.23
1669.5
1694.16
1710.4
1716.5
1711.4
1702.63
1688.39
1673.27
1657.07
1642.42
1629.29
1618.23
1609.12
1601.82
1596.16
1591.19
1587.38
1584.28
1581.07
1578.15
1575.18
1572.62
1569.95
1568.96
1567.28
1567.99
1565.68
1562.67
1557.29
1548.3
1537.17
1528.2
1519.28
1513.66
1524.62
5410.13
4556.21
1462.26
1557.82
1598.24
1640.98
1668.12
1688.57
1697.58
1696.22
1690.86
1678.58
1665.37
1650.18
1636.74
1624.68
1614.67
1606.46
1599.89
1594.8
1590.19
1586.7
1583.86
1580.74
1577.81
1574.68
1571.95
1568.89
1567.73
1565.53
1565.79
1562.71
1558.19
1551.48
1540.32
1527.1
1515.34
1504.92
1498.41
1478.82
5015.15
4272.39
1439.06
1530.35
1574.75
1614.84
1641.95
1664.44
1675.5
1679.77
1677.53
1667.65
1656.88
1643.35
1632
1621.65
1613.44
1606.89
1601.73
1597.72
1593.79
1590.64
1587.79
1584.22
1580.62
1576.59
1572.99
1568.84
1566.84
1563.4
1562.37
1558.17
1551.66
1542.74
1527.86
1510.54
1493.26
1480.17
1473.8
1437.12
4584.39
3964.19
1407.07
1493.44
1537.1
1578.43
1615.67
1641.16
1655.04
1663.04
1664.46
1657.25
1648.93
1636.68
1626.97
1618
1611.25
1605.91
1601.65
1598.3
1594.81
1592.08
1589.55
1586.02
1582.26
1577.8
1573.79
1568.93
1566.24
1561.51
1558.7
1552.59
1542.69
1531.49
1512.66
1492.56
1467.92
1449.83
1441.49
1398.43
4144.61
3634.13
1381.12
1462.71
1505.05
1548.12
1594.2
1619.43
1636.18
1653.52
1652.93
1646.39
1639.88
1629.28
1621.51
1614.25
1609.48
1606.09
1603.77
1601.97
1599.3
1596.77
1593.77
1589.23
1584.34
1578.62
1573.71
1567.89
1564.58
1559.06
1555.14
1548.49
1536.38
1523.28
1499.32
1472.64
1443.31
1421.51
1413.55
1372.22
3715.75
3408.71
1366.2
1439.61
1476.16
1522.3
1571.99
1602.74
1626.68
1641.56
1641.37
1638.42
1631.44
1620.18
1613.36
1607.18
1604.25
1602.44
1601.5
1600.5
1598.49
1596.44
1593.37
1588.3
1582.69
1575.99
1570.29
1563.83
1559.84
1553.56
1547.89
1540.3
1525.85
1511.49
1485.77
1455.81
1423.79
1398
1392.25
1358.01
3430.61
3143.72
1375.96
1443.92
1472.24
1512.5
1559.83
1590.36
1617.39
1628.42
1629.74
1627.91
1620.6
1610.21
1604.3
1598.91
1597.27
1596.7
1597.12
1597.59
1596.4
1594.15
1590.43
1584.46
1578.2
1570.94
1565.14
1559.11
1554.81
1549.22
1542.78
1535.7
1520.47
1505.6
1479.47
1447.86
1416.5
1392.98
1388.72
1364.5
3094.6
5414.92
1544.34
1478.2
1478.51
1504.65
1546.67
1591.52
1653.38
1707.6
1758.51
1801.36
1822.45
1837.91
1845.84
1851.15
1853.34
1856.18
1852.31
1853.59
1847.15
1844.45
1846.57
1839.94
1838.6
1827.31
1817.22
1802.55
1780.87
1758.61
1714.57
1672.88
1600.95
1544.14
1483.37
1430.82
1391.71
1370.67
1375.93
1485.54
5211.21
46889.9
5685.92
3600.66
3964.53
4276.5
4717.16
5126.61
5524.88
5859.68
6170.73
6453.72
6694.85
6918.92
7108.35
7266.27
7403.56
7519.52
7630.03
7673.72
7708.93
7703
7648.44
7603.88
7457.35
7345.28
7150.97
6982.68
6738.09
6496.28
6180.06
5859.09
5497.48
5109.01
4683.96
4244.09
3794.66
3485.95
3115.77
5091.65
42778.5
46889.9
5685.92
3600.66
3964.53
4276.5
4717.16
5126.61
5524.88
5859.68
6170.73
6453.72
6694.85
6918.92
7108.35
7266.27
7403.56
7519.52
7630.03
7673.72
7708.93
7703
7648.44
7603.88
7457.35
7345.28
7150.97
6982.68
6738.09
6496.28
6180.06
5859.09
5497.48
5109.01
4683.96
4244.09
3794.66
3485.95
3115.77
5091.65
42778.5
5414.92
1544.34
1478.2
1478.51
1504.65
1546.67
1591.52
1653.38
1707.6
1758.51
1801.36
1822.45
1837.91
1845.84
1851.15
1853.34
1856.18
1852.31
1853.59
1847.15
1844.45
1846.57
1839.94
1838.6
1827.31
1817.22
1802.55
1780.87
1758.61
1714.57
1672.88
1600.95
1544.14
1483.37
1430.82
1391.71
1370.67
1375.93
1485.54
5211.21
3143.72
1375.96
1443.92
1472.24
1512.5
1559.83
1590.36
1617.39
1628.42
1629.74
1627.91
1620.6
1610.21
1604.3
1598.91
1597.27
1596.7
1597.12
1597.59
1596.4
1594.15
1590.43
1584.46
1578.2
1570.94
1565.14
1559.11
1554.81
1549.22
1542.78
1535.7
1520.47
1505.6
1479.47
1447.86
1416.5
1392.98
1388.72
1364.5
3094.6
3408.71
1366.2
1439.61
1476.16
1522.3
1571.99
1602.74
1626.68
1641.56
1641.37
1638.42
1631.44
1620.18
1613.36
1607.18
1604.25
1602.44
1601.5
1600.5
1598.49
1596.44
1593.37
1588.3
1582.69
1575.99
1570.29
1563.83
1559.84
1553.56
1547.89
1540.3
1525.85
1511.49
1485.77
1455.81
1423.79
1398
1392.25
1358.01
3430.61
3634.13
1381.12
1462.71
1505.05
1548.12
1594.2
1619.43
1636.18
1653.52
1652.93
1646.39
1639.88
1629.28
1621.51
1614.25
1609.48
1606.09
1603.77
1601.97
1599.3
1596.77
1593.77
1589.23
1584.34
1578.62
1573.71
1567.89
1564.58
1559.06
1555.14
1548.49
1536.38
1523.28
1499.32
1472.64
1443.31
1421.51
1413.55
1372.22
3715.75
3964.19
1407.07
1493.44
1537.1
1578.43
1615.67
1641.16
1655.04
1663.04
1664.46
1657.25
1648.93
1636.68
1626.97
1618
1611.25
1605.91
1601.65
1598.3
1594.81
1592.08
1589.55
1586.02
1582.26
1577.8
1573.79
1568.93
1566.24
1561.51
1558.7
1552.59
1542.69
1531.49
1512.66
1492.56
1467.92
1449.83
1441.49
1398.43
4144.61
4272.39
1439.06
1530.35
1574.75
1614.84
1641.95
1664.44
1675.5
1679.77
1677.53
1667.65
1656.88
1643.35
1632
1621.65
1613.44
1606.89
1601.73
1597.72
1593.79
1590.64
1587.79
1584.22
1580.62
1576.59
1572.99
1568.84
1566.84
1563.4
1562.37
1558.17
1551.66
1542.74
1527.86
1510.54
1493.26
1480.17
1473.8
1437.12
4584.39
4556.21
1462.26
1557.82
1598.24
1640.98
1668.12
1688.57
1697.58
1696.22
1690.86
1678.58
1665.37
1650.18
1636.74
1624.68
1614.67
1606.46
1599.89
1594.8
1590.19
1586.7
1583.86
1580.74
1577.81
1574.68
1571.95
1568.89
1567.73
1565.53
1565.79
1562.71
1558.19
1551.48
1540.32
1527.1
1515.34
1504.92
1498.41
1478.82
5015.15
4809.01
1484.14
1583.96
1624.23
1669.5
1694.16
1710.4
1716.5
1711.4
1702.63
1688.39
1673.27
1657.07
1642.42
1629.29
1618.23
1609.12
1601.82
1596.16
1591.19
1587.38
1584.28
1581.07
1578.15
1575.18
1572.62
1569.95
1568.96
1567.28
1567.99
1565.68
1562.67
1557.29
1548.3
1537.17
1528.2
1519.28
1513.66
1524.62
5410.13
5011.65
1505.46
1612.45
1656.64
1700.58
1723.3
1735.13
1736.73
1727.71
1714.39
1697.5
1680.2
1662.8
1647.03
1633.06
1621.24
1611.52
1603.69
1597.59
1592.28
1588.12
1584.7
1581.28
1578.22
1575.25
1572.71
1570.28
1569.43
1568.15
1569.13
1567.48
1565.78
1561.98
1555.32
1547.27
1540.99
1533.49
1529.09
1584.28
5767.22
5168.69
1522.73
1638.01
1688.82
1732.89
1754.28
1760.47
1756.92
1744.01
1726.78
1707.33
1688.11
1669.58
1652.85
1638.16
1625.68
1615.37
1607.02
1600.45
1594.79
1590.32
1586.64
1583.06
1579.89
1576.9
1574.33
1571.99
1571.02
1569.81
1570.67
1569.15
1567.91
1564.55
1559.15
1552.96
1547.9
1540.86
1536.29
1634.21
6077.2
5307.38
1543.3
1671.48
1730.94
1775.47
1792.29
1789.93
1778.66
1759.33
1737.51
1715.02
1693.79
1674.23
1656.83
1641.68
1628.79
1618.08
1609.34
1602.41
1596.44
1591.68
1587.73
1583.95
1580.6
1577.46
1574.71
1572.22
1570.83
1569.34
1569.74
1568.09
1567.15
1564.34
1560.47
1556.31
1552.51
1546.91
1543.06
1686.12
6371.28
5416.89
1564.45
1707.15
1777.86
1826.77
1838.27
1826.69
1805.17
1778.4
1751.26
1725.14
1701.39
1680.22
1661.67
1645.66
1632.07
1620.76
1611.49
1604.09
1597.78
1592.75
1588.61
1584.74
1581.38
1578.29
1575.63
1573.32
1571.91
1570.48
1570.61
1569.02
1568.41
1566.11
1563.54
1561
1558.06
1553.22
1548.37
1712.78
6598.39
5694.32
1588.56
1750.14
1836.41
1891.68
1893.99
1870.38
1834.92
1797.95
1764.51
1734.46
1708.15
1685.35
1665.72
1648.95
1634.74
1622.93
1613.21
1605.42
1598.81
1593.53
1589.21
1585.25
1581.84
1578.78
1576.17
1573.96
1572.49
1571.03
1570.72
1568.96
1568.36
1566.24
1564.64
1563.05
1560.86
1556.69
1551.78
1738.05
6824.55
5369.5
1604.11
1791.67
1899.2
1967.76
1962.11
1924.25
1872.8
1822.11
1780.31
1745.39
1715.95
1691.05
1670.02
1652.3
1637.41
1625.07
1614.92
1606.77
1599.88
1594.38
1589.9
1585.87
1582.46
1579.47
1576.98
1574.97
1573.63
1572.38
1571.96
1570.29
1569.85
1568.1
1567.6
1566.88
1565.69
1562.18
1556.48
1753.99
6977.14
5159.5
1617.49
1838.01
1975.59
2055.13
2042.36
1986.03
1915.91
1847.64
1795.71
1755.7
1723.29
1696.42
1674.05
1655.45
1639.95
1627.17
1616.67
1608.21
1601.09
1595.4
1590.79
1586.69
1583.25
1580.3
1577.9
1576.03
1574.78
1573.65
1573.08
1571.41
1570.93
1569.4
1569.82
1569.67
1569.44
1566.55
1560.74
1766.77
7154.26
4885.72
1624.72
1877.75
2065.11
2150.13
2133.34
2060.84
1965.2
1875.51
1811.25
1765.51
1730.27
1701.53
1677.88
1658.43
1642.39
1629.22
1618.43
1609.73
1602.43
1596.58
1591.85
1587.68
1584.22
1581.3
1578.96
1577.22
1576.06
1575.07
1574.44
1572.83
1572.36
1571.12
1572.56
1573.07
1574.23
1572.22
1566.67
1780.83
7276.14
4610.35
1631.02
1945.95
2170.25
2256.57
2230.7
2141.48
2015.36
1904.03
1825.1
1773.82
1736.17
1705.98
1681.26
1661.07
1644.56
1631.09
1620.07
1611.19
1603.74
1597.78
1592.95
1588.72
1585.24
1582.32
1580.03
1578.37
1577.29
1576.4
1575.7
1574.09
1573.56
1572.49
1574.75
1575.67
1578.15
1576.74
1571.77
1789.76
7401.77
4203.02
1689.71
2042.38
2316.97
2382.64
2329.42
2217.55
2062.65
1929.62
1836.65
1779.91
1740.63
1709.49
1683.99
1663.21
1646.33
1632.62
1621.44
1612.43
1604.88
1598.82
1593.92
1589.65
1586.15
1583.23
1580.97
1579.35
1578.33
1577.51
1576.76
1575.15
1574.55
1573.57
1576.5
1577.69
1581.5
1580.51
1576.72
1805.8
7516.64
3906.07
1920.99
2218.67
2544.54
2526.61
2421.63
2276.32
2094.37
1951.88
1842.77
1783.51
1743.4
1711.84
1685.83
1664.65
1647.51
1633.64
1622.36
1613.26
1605.65
1599.53
1594.59
1590.29
1586.77
1583.85
1581.6
1580.02
1579.02
1578.24
1577.45
1575.83
1575.16
1574.24
1577.58
1578.94
1583.72
1582.97
1580.11
1820.08
7956.63
)
;

boundaryField
{
    inlet
    {
        type            fixedValue;
        value           uniform 10000;
    }
    outlet
    {
        type            fixedValue;
        value           uniform 1000;
    }
    obstacle
    {
        type            zeroGradient;
    }
    empty
    {
        type            empty;
    }
}


// ************************************************************************* //
