/*--------------------------------*- C++ -*----------------------------------*\
| =========                 |                                                 |
| \\      /  F ield         | OpenFOAM: The Open Source CFD Toolbox           |
|  \\    /   O peration     | Version:  v1912                                 |
|   \\  /    A nd           | Website:  www.openfoam.com                      |
|    \\/     M anipulation  |                                                 |
\*---------------------------------------------------------------------------*/
FoamFile
{
    version     2.0;
    format      ascii;
    class       volVectorField;
    location    "8.32";
    object      grad(T);
}
// * * * * * * * * * * * * * * * * * * * * * * * * * * * * * * * * * * * * * //

dimensions      [0 -1 0 1 0 0 0];


internalField   nonuniform List<vector> 
1900
(
(1.48866 1.51829e-06 0)
(-1.4259 1.87645e-06 0)
(-0.590519 -3.72872e-06 0)
(-0.187459 2.12455e-05 0)
(-0.0330423 2.42218e-05 0)
(0.0262468 4.56084e-05 0)
(0.0667819 6.82253e-05 0)
(0.081396 0.000313988 0)
(0.0672311 0.00215651 0)
(0.071245 -0.00216158 0)
(1.48866 2.0416e-06 0)
(-1.42591 4.21913e-06 0)
(-0.590499 -9.65958e-07 0)
(-0.187431 4.67978e-05 0)
(-0.033018 5.03702e-05 0)
(0.0262908 4.53697e-05 0)
(0.0670503 7.0976e-06 0)
(0.0834843 0.000260283 0)
(0.0647555 0.000689611 0)
(0.0354953 -0.00527085 0)
(1.48866 -4.16334e-13 0)
(-1.4259 -5.0307e-13 0)
(-0.590476 -5.96311e-13 0)
(-0.187407 -4.36933e-13 0)
(-0.0330438 -4.31512e-13 0)
(0.0262035 -2.62377e-13 0)
(0.0669968 1.12757e-13 0)
(0.0820786 6.39679e-14 0)
(0.0616999 -1.0842e-15 0)
(0.0307438 -2.38524e-14 0)
(1.48866 -2.04161e-06 0)
(-1.42591 -4.21913e-06 0)
(-0.590499 9.65957e-07 0)
(-0.187431 -4.67978e-05 0)
(-0.033018 -5.03702e-05 0)
(0.0262908 -4.53697e-05 0)
(0.0670503 -7.0976e-06 0)
(0.0834843 -0.000260283 0)
(0.0647555 -0.000689611 0)
(0.0354953 0.00527085 0)
(1.48866 -1.51829e-06 0)
(-1.4259 -1.87645e-06 0)
(-0.590519 3.72872e-06 0)
(-0.187459 -2.12455e-05 0)
(-0.0330423 -2.42218e-05 0)
(0.0262468 -4.56084e-05 0)
(0.0667819 -6.82253e-05 0)
(0.081396 -0.000313988 0)
(0.0672311 -0.00215651 0)
(0.071245 0.00216158 0)
(0.0237005 -0.0293843 9.44429e-16)
(-0.00550919 -0.0223096 -1.13296e-15)
(0.103995 -0.0318697 -1.43933e-15)
(0.393885 -0.0602248 0)
(-0.515823 -0.31953 -6.49076e-15)
(0.00716259 -0.0354382 9.3912e-16)
(0.00966637 -0.0265599 1.13296e-15)
(0.0896196 -0.0376709 1.43933e-15)
(0.287368 -0.0596322 0)
(-0.448129 -0.349886 0)
(-0.00339135 -1.57131e-14 0)
(0.00509158 -6.65738e-14 0)
(0.0828816 2.40934e-14 0)
(0.257286 7.39229e-14 0)
(-0.580922 1.74247e-13 0)
(0.00716259 0.0354382 9.3912e-16)
(0.00966637 0.0265599 1.13296e-15)
(0.0896196 0.0376709 1.43933e-15)
(0.287368 0.0596322 0)
(-0.448129 0.349886 0)
(0.0237005 0.0293843 -2.82267e-15)
(-0.00550919 0.0223096 -1.13296e-15)
(0.103995 0.0318697 -1.43933e-15)
(0.393885 0.0602248 -3.9677e-15)
(-0.515823 0.31953 6.49076e-15)
(-1.8924 0.458136 2.19373e-15)
(-0.970049 0.319111 -1.5851e-15)
(-0.594998 0.218545 0)
(-0.415054 0.195952 1.0148e-15)
(-0.310803 0.0804452 -4.26044e-16)
(-1.68847 0.4575 -1.10377e-15)
(-1.01157 0.211024 7.97354e-16)
(-0.614571 0.114088 0)
(-0.457122 0.125264 -6.38881e-16)
(-0.290704 -0.0432273 1.06791e-16)
(-1.74208 9.30881e-14 0)
(-1.06851 1.29734e-13 0)
(-0.626423 4.01556e-15 0)
(-0.49047 5.66903e-14 2.57061e-16)
(-0.277205 1.807e-13 -2.13583e-16)
(-1.68847 -0.4575 -1.10377e-15)
(-1.01157 -0.211024 7.97354e-16)
(-0.614571 -0.114088 0)
(-0.457122 -0.125264 -6.38881e-16)
(-0.290704 0.0432273 1.06791e-16)
(-1.8924 -0.458136 1.10377e-15)
(-0.970049 -0.319111 -9.61057e-18)
(-0.594998 -0.218545 0)
(-0.415054 -0.195952 5.90144e-18)
(-0.310803 -0.0804452 4.26044e-16)
(-0.212933 0.833433 0)
(-0.109249 1.00205 0)
(-0.0600984 1.03537 0)
(-0.0409391 0.963291 0)
(-0.0378805 0.853869 0)
(-0.0450058 0.725539 0)
(-0.0559076 0.618356 0)
(-0.0843126 0.536573 0)
(-0.0663743 0.445903 0)
(0.00493493 0.377571 0)
(0.168288 0.367752 0)
(0.361802 0.386195 0)
(0.309519 0.387315 0)
(0.134327 0.305525 0)
(0.0659952 0.211904 0)
(0.0560672 0.092686 0)
(0.0228535 -0.00352023 0)
(-0.0419807 -0.0235339 0)
(-0.121017 -0.0271969 0)
(-0.175742 0.00205501 0)
(-0.164331 0.0108447 0)
(-0.144601 0.0113415 0)
(-0.195345 0.0122502 0)
(-0.322032 0.0140989 0)
(-0.355561 0.013902 0)
(-0.190577 0.00408967 0)
(-0.0429954 -2.65973e-05 0)
(-0.00967338 -0.000181595 0)
(0.0653204 -9.25772e-05 0)
(0.257607 0.000133245 0)
(0.306182 8.72845e-05 0)
(0.162076 -0.0003379 0)
(0.0837492 -0.00040558 0)
(0.0853027 -0.000372658 0)
(0.103551 -0.000369571 0)
(0.0960795 -0.000198053 0)
(0.0567673 -0.000554072 0)
(0.017643 -0.00141182 0)
(-0.00519892 -0.00170748 0)
(-0.00693593 -0.00177722 0)
(-0.0780072 0.253127 0)
(-0.0150037 0.556312 0)
(-0.0503182 0.69895 0)
(-0.0723331 0.721353 0)
(-0.0871236 0.655749 0)
(-0.0898344 0.543014 0)
(-0.0853037 0.446144 0)
(-0.107031 0.385278 0)
(-0.0915673 0.322867 0)
(-0.0106747 0.254089 0)
(0.174742 0.247259 0)
(0.367289 0.269913 0)
(0.293897 0.264667 0)
(0.110347 0.207756 0)
(0.0413416 0.150638 0)
(0.030496 0.0912381 0)
(0.00783762 0.0361238 0)
(-0.0479605 0.0220716 0)
(-0.121612 0.00174335 0)
(-0.174677 0.0261989 0)
(-0.166232 0.0493109 0)
(-0.144839 0.0371781 0)
(-0.194064 0.0154782 0)
(-0.321756 0.00960486 0)
(-0.357596 0.00421402 0)
(-0.192428 0.000983638 0)
(-0.0434151 -3.66059e-05 0)
(-0.00967694 -7.5246e-05 0)
(0.0653328 -3.46328e-05 0)
(0.257606 1.9903e-05 0)
(0.306143 -3.63491e-06 0)
(0.162033 -0.000232399 0)
(0.083728 -0.000291236 0)
(0.085276 -0.000352377 0)
(0.103559 -0.000413547 0)
(0.0960748 -0.000283519 0)
(0.0566545 -0.000368171 0)
(0.0175225 -0.000842479 0)
(-0.00522881 -0.00116089 0)
(-0.0069317 -0.00135813 0)
(-0.020558 1.14334e-13 0)
(0.0204454 2.54295e-13 0)
(-0.0120864 6.30809e-14 0)
(-0.0535067 -3.92284e-13 0)
(-0.0897608 -5.97297e-13 0)
(-0.105982 -6.26866e-13 0)
(-0.101794 -6.15038e-13 0)
(-0.120175 -4.61279e-13 0)
(-0.104539 -4.92819e-13 0)
(-0.0170602 -4.53394e-14 0)
(0.172892 -1.77415e-13 0)
(0.366866 -5.12532e-14 0)
(0.291437 9.65926e-14 0)
(0.101155 1.00535e-13 0)
(0.0320992 -3.46945e-13 0)
(0.0227539 -5.14503e-13 0)
(0.00273228 1.08814e-12 0)
(-0.0519823 1.91805e-12 0)
(-0.119817 1.87468e-12 0)
(-0.161904 6.24895e-13 0)
(-0.161137 -4.92819e-13 0)
(-0.154443 -7.47114e-13 0)
(-0.203367 -4.71135e-13 0)
(-0.325308 -1.77415e-13 0)
(-0.358069 -2.75979e-14 0)
(-0.191814 1.57702e-14 0)
(-0.0433034 3.63701e-13 0)
(-0.0096728 7.19516e-14 0)
(0.0653481 5.45058e-13 0)
(0.257616 2.04816e-12 0)
(0.306109 -1.77415e-13 0)
(0.161992 -1.36412e-12 0)
(0.0837143 -5.85469e-13 0)
(0.0852671 -2.6218e-13 0)
(0.103571 -1.45874e-13 0)
(0.0960927 2.95692e-14 0)
(0.0566047 -1.6953e-13 0)
(0.0174124 -4.96762e-13 0)
(-0.00534893 -4.23824e-13 0)
(-0.00699331 -3.21318e-13 0)
(-0.0780072 -0.253127 0)
(-0.0150037 -0.556312 0)
(-0.0503182 -0.69895 0)
(-0.0723331 -0.721353 0)
(-0.0871236 -0.655749 0)
(-0.0898344 -0.543014 0)
(-0.0853037 -0.446144 0)
(-0.107031 -0.385278 0)
(-0.0915673 -0.322867 0)
(-0.0106747 -0.254089 0)
(0.174742 -0.247259 0)
(0.367289 -0.269913 0)
(0.293897 -0.264667 0)
(0.110347 -0.207756 0)
(0.0413416 -0.150638 0)
(0.030496 -0.0912381 0)
(0.00783762 -0.0361238 0)
(-0.0479605 -0.0220716 0)
(-0.121612 -0.00174335 0)
(-0.174677 -0.0261989 0)
(-0.166232 -0.0493109 0)
(-0.144839 -0.0371781 0)
(-0.194064 -0.0154782 0)
(-0.321756 -0.00960486 0)
(-0.357596 -0.00421402 0)
(-0.192428 -0.000983638 0)
(-0.0434151 3.66059e-05 0)
(-0.00967694 7.5246e-05 0)
(0.0653328 3.46328e-05 0)
(0.257606 -1.9903e-05 0)
(0.306143 3.63491e-06 0)
(0.162033 0.000232399 0)
(0.083728 0.000291236 0)
(0.085276 0.000352377 0)
(0.103559 0.000413547 0)
(0.0960748 0.000283519 0)
(0.0566545 0.000368171 0)
(0.0175225 0.000842479 0)
(-0.00522881 0.00116089 0)
(-0.0069317 0.00135813 0)
(-0.212933 -0.833433 0)
(-0.109249 -1.00205 0)
(-0.0600984 -1.03537 0)
(-0.0409391 -0.963291 0)
(-0.0378805 -0.853869 0)
(-0.0450058 -0.725539 0)
(-0.0559076 -0.618356 0)
(-0.0843126 -0.536573 0)
(-0.0663743 -0.445903 0)
(0.00493493 -0.377571 0)
(0.168288 -0.367752 0)
(0.361802 -0.386195 0)
(0.309519 -0.387315 0)
(0.134327 -0.305525 0)
(0.0659952 -0.211904 0)
(0.0560672 -0.092686 0)
(0.0228535 0.00352023 0)
(-0.0419807 0.0235339 0)
(-0.121017 0.0271969 0)
(-0.175742 -0.00205501 0)
(-0.164331 -0.0108447 0)
(-0.144601 -0.0113415 0)
(-0.195345 -0.0122502 0)
(-0.322032 -0.0140989 0)
(-0.355561 -0.013902 0)
(-0.190577 -0.00408967 0)
(-0.0429954 2.65973e-05 0)
(-0.00967338 0.000181595 0)
(0.0653204 9.25772e-05 0)
(0.257607 -0.000133245 0)
(0.306182 -8.72845e-05 0)
(0.162076 0.0003379 0)
(0.0837492 0.00040558 0)
(0.0853027 0.000372658 0)
(0.103551 0.000369571 0)
(0.0960795 0.000198053 0)
(0.0567673 0.000554072 0)
(0.017643 0.00141182 0)
(-0.00519892 0.00170748 0)
(-0.00693593 0.00177722 0)
(-0.0157994 -0.83418 0)
(-0.0327036 -0.733508 0)
(-0.014699 -0.696309 0)
(0.0052192 -0.655611 0)
(0.00507432 -0.620165 0)
(0.00606324 -0.5758 0)
(-0.000760135 -0.516745 0)
(-0.0251238 -0.459321 0)
(-0.0209586 -0.379065 0)
(0.0202986 -0.342436 0)
(0.176794 -0.319011 0)
(0.361362 -0.290163 0)
(0.326435 -0.322953 0)
(0.192651 -0.2653 0)
(0.146344 -0.195817 0)
(0.136059 -0.100156 0)
(0.0633772 -0.0287351 0)
(-0.040023 -0.0199956 0)
(-0.138351 -0.0218768 0)
(-0.197307 -0.0282902 0)
(-0.174256 -0.025632 0)
(-0.145995 -0.021408 0)
(-0.194312 -0.0222231 0)
(-0.322474 -0.026094 0)
(-0.35367 -0.0262767 0)
(-0.185831 -0.00703703 0)
(-0.0412212 7.72651e-05 0)
(-0.00963968 0.000355875 0)
(0.0651497 0.000204437 0)
(0.257492 -0.000379512 0)
(0.306392 -0.000304217 0)
(0.162293 0.000596586 0)
(0.0837254 0.000774267 0)
(0.0852225 0.00062502 0)
(0.103458 0.000468814 0)
(0.0961851 0.000221335 0)
(0.0572854 0.000478927 0)
(0.0181067 0.00126179 0)
(-0.00503417 0.00150346 0)
(-0.00688306 0.00153663 0)
(-0.00624055 -0.265444 0)
(-0.0174371 -0.241595 0)
(-0.00937846 -0.217202 0)
(0.00768447 -0.217336 0)
(0.0159944 -0.21883 0)
(0.0272687 -0.219294 0)
(0.0267642 -0.223918 0)
(0.0166219 -0.218537 0)
(0.0219071 -0.192836 0)
(0.054567 -0.177745 0)
(0.2141 -0.147838 0)
(0.358239 -0.125573 0)
(0.324407 -0.172607 0)
(0.225565 -0.161224 0)
(0.182048 -0.138095 0)
(0.174179 -0.0989613 0)
(0.0783686 -0.0864469 0)
(-0.0364215 -0.093563 0)
(-0.119716 -0.0964653 0)
(-0.167797 -0.0750347 0)
(-0.152377 -0.0442199 0)
(-0.140569 -0.0310701 0)
(-0.200415 -0.0360519 0)
(-0.3257 -0.0498163 0)
(-0.338211 -0.0445719 0)
(-0.167727 -0.00949981 0)
(-0.0368227 0.000330812 0)
(-0.0095689 0.00070292 0)
(0.0647033 0.000496579 0)
(0.257179 -0.000456236 0)
(0.307011 -0.000466871 0)
(0.162999 0.000986688 0)
(0.0837894 0.00141689 0)
(0.0850514 0.0012988 0)
(0.103212 0.0010623 0)
(0.0960326 0.000756563 0)
(0.0574921 0.00060826 0)
(0.0183816 0.000796698 0)
(-0.00502242 0.000935853 0)
(-0.00693231 0.00118031 0)
(0.00718273 -0.0227261 0)
(0.0137839 -0.016079 0)
(0.00867764 -0.0015509 0)
(0.00365097 -0.00285465 0)
(0.00318747 -0.00962391 0)
(0.0011606 -0.022174 0)
(-3.02529e-05 -0.0510922 0)
(0.00482716 -0.0600865 0)
(0.0183492 -0.0468218 0)
(0.0636611 -0.0344117 0)
(0.227069 -0.00205504 0)
(0.337494 -0.0323192 0)
(0.29208 -0.0793022 0)
(0.225908 -0.0888491 0)
(0.206343 -0.0598071 0)
(0.185829 -0.0289659 0)
(0.0685792 -0.0577352 0)
(-0.0496771 -0.0773947 0)
(-0.120496 -0.0939644 0)
(-0.146961 -0.0783036 0)
(-0.13189 -0.0498476 0)
(-0.138124 -0.0409302 0)
(-0.212377 -0.050749 0)
(-0.330684 -0.0683099 0)
(-0.31482 -0.0550115 0)
(-0.142561 -0.00969006 0)
(-0.0313895 0.000877305 0)
(-0.00947994 0.0012967 0)
(0.0640327 0.00106064 0)
(0.256564 -5.62644e-05 0)
(0.307782 -0.000149343 0)
(0.164108 0.00163724 0)
(0.0840261 0.00225719 0)
(0.0848808 0.00211669 0)
(0.102936 0.00178829 0)
(0.0957475 0.00138435 0)
(0.0573241 0.00108398 0)
(0.0184224 0.000895239 0)
(-0.0046645 0.00105205 0)
(-0.00664749 0.00183003 0)
(0.000164865 0.0104166 0)
(0.0029681 0.00264845 0)
(0.00336502 -0.00435055 0)
(-9.4972e-05 -0.00800642 0)
(-0.00262246 -0.0110263 0)
(-0.0126916 -0.0151957 0)
(-0.00976975 -0.024941 0)
(0.0207369 -0.017007 0)
(0.0466483 0.000362737 0)
(0.0977059 0.0341276 0)
(0.216116 0.0823632 0)
(0.283801 0.0170116 0)
(0.269933 -0.00894802 0)
(0.244351 -0.016785 0)
(0.239754 0.00856576 0)
(0.176175 0.00546286 0)
(0.0317008 -0.0607563 0)
(-0.0713333 -0.0869723 0)
(-0.120591 -0.0981736 0)
(-0.125285 -0.0777681 0)
(-0.116363 -0.055981 0)
(-0.141438 -0.0547172 0)
(-0.226799 -0.06895 0)
(-0.329808 -0.0855312 0)
(-0.281723 -0.0580231 0)
(-0.113871 -0.00778857 0)
(-0.0262354 0.0015316 0)
(-0.00939223 0.00188261 0)
(0.0633995 0.00163828 0)
(0.256013 0.000209687 0)
(0.308643 -0.000430773 0)
(0.165318 0.00144186 0)
(0.0842514 0.00216648 0)
(0.0845996 0.00193842 0)
(0.102507 0.00155146 0)
(0.0953539 0.00111612 0)
(0.0570208 0.00107031 0)
(0.0183508 0.00104606 0)
(-0.00412162 0.00133345 0)
(-0.00618262 0.00228442 0)
(-0.000302933 0.0296953 0)
(-0.000446235 0.0292271 0)
(-0.00158978 0.0254574 0)
(-0.00278201 0.0229892 0)
(-0.00374042 0.0221897 0)
(-0.0122481 0.0206085 0)
(-0.00177565 0.0335893 0)
(0.0292108 0.0521805 0)
(0.0676244 0.0616963 0)
(0.14268 0.0878378 0)
(0.210576 0.110348 0)
(0.249503 0.0821021 0)
(0.259512 0.0735394 0)
(0.242785 0.0520227 0)
(0.227781 0.0698387 0)
(0.119028 -0.0036023 0)
(-0.0204947 -0.0726749 0)
(-0.0857337 -0.099057 0)
(-0.111627 -0.0958223 0)
(-0.106303 -0.0737806 0)
(-0.109677 -0.0625421 0)
(-0.150621 -0.0686108 0)
(-0.24207 -0.0861407 0)
(-0.320155 -0.0987867 0)
(-0.239904 -0.0540639 0)
(-0.0851717 -0.00535813 0)
(-0.02207 0.00160916 0)
(-0.00937714 0.00177455 0)
(0.0624206 0.00164377 0)
(0.25457 0.000269693 0)
(0.30897 -0.000840512 0)
(0.166611 0.000659778 0)
(0.0845046 0.00118472 0)
(0.0842881 0.000796072 0)
(0.102143 0.0005063 0)
(0.0952839 0.000229808 0)
(0.0572566 0.000597489 0)
(0.018676 0.000941924 0)
(-0.00347118 0.00136726 0)
(-0.0057311 0.00224105 0)
(-0.000286354 0.0418429 0)
(-0.0011157 0.0418171 0)
(-0.00264604 0.0409861 0)
(-0.00324389 0.040591 0)
(-0.00491654 0.0428238 0)
(-0.00170649 0.049418 0)
(0.0206542 0.0724202 0)
(0.0478218 0.0921331 0)
(0.0810089 0.116082 0)
(0.144589 0.128786 0)
(0.210589 0.12344 0)
(0.24833 0.127496 0)
(0.240948 0.0982723 0)
(0.240785 0.100442 0)
(0.186152 0.0680376 0)
(0.0388441 -0.0497657 0)
(-0.0602827 -0.0918118 0)
(-0.093639 -0.104353 0)
(-0.0962342 -0.0893538 0)
(-0.0932147 -0.072631 0)
(-0.111381 -0.0717709 0)
(-0.164178 -0.0829833 0)
(-0.255878 -0.102911 0)
(-0.298898 -0.105798 0)
(-0.191692 -0.0448064 0)
(-0.0602222 -0.0039846 0)
(-0.0193621 0.000280931 0)
(-0.00935889 0.000213511 0)
(0.0619494 0.000262788 0)
(0.253619 -0.00163224 0)
(0.309019 -0.00313941 0)
(0.16727 -0.00106842 0)
(0.0843827 -0.000152891 0)
(0.0839458 -0.000554841 0)
(0.101961 -0.000956166 0)
(0.0954418 -0.00104279 0)
(0.057707 -0.000252729 0)
(0.0190926 0.000674109 0)
(-0.00286973 0.00130729 0)
(-0.0053406 0.00206108 0)
(-0.000327799 0.0698008 0)
(-0.00127192 0.0702179 0)
(-0.00277134 0.0714621 0)
(-0.00101111 0.0753842 0)
(0.00476563 0.0830302 0)
(0.0162721 0.0965953 0)
(0.0393862 0.112846 0)
(0.0712848 0.125229 0)
(0.102944 0.14388 0)
(0.14977 0.159639 0)
(0.209333 0.168128 0)
(0.22525 0.1558 0)
(0.233441 0.135818 0)
(0.213649 0.115096 0)
(0.0830364 -0.00876811 0)
(-0.035009 -0.0881771 0)
(-0.0730969 -0.106966 0)
(-0.083365 -0.100191 0)
(-0.0810586 -0.0834159 0)
(-0.0893596 -0.0777734 0)
(-0.119653 -0.0845061 0)
(-0.180628 -0.0976004 0)
(-0.264055 -0.116291 0)
(-0.264163 -0.100562 0)
(-0.141793 -0.0303119 0)
(-0.041724 -0.00108983 0)
(-0.0180245 0.00130972 0)
(-0.00939462 0.00154021 0)
(0.060642 0.00217015 0)
(0.251291 0.000368075 0)
(0.309513 0.000550193 0)
(0.169489 0.00515974 0)
(0.0849995 0.00762609 0)
(0.083514 0.00716871 0)
(0.101673 0.00504484 0)
(0.0959617 0.00180992 0)
(0.0589111 0.000292818 0)
(0.0201793 0.000729937 0)
(-0.00213465 0.00148591 0)
(-0.00500472 0.00224805 0)
(0.000115553 0.123483 0)
(0.000485144 0.124693 0)
(0.00233236 0.126356 0)
(0.00790352 0.129437 0)
(0.0155232 0.132679 0)
(0.0270251 0.139465 0)
(0.0482469 0.150153 0)
(0.0777272 0.16135 0)
(0.114168 0.173063 0)
(0.167956 0.196395 0)
(0.206889 0.201112 0)
(0.217194 0.16845 0)
(0.201724 0.130485 0)
(0.101457 0.02535 0)
(-0.00972943 -0.0767012 0)
(-0.0557825 -0.102523 0)
(-0.0718599 -0.10427 0)
(-0.0709457 -0.0908579 0)
(-0.0746316 -0.0799488 0)
(-0.0942653 -0.0797492 0)
(-0.130487 -0.0850216 0)
(-0.194808 -0.0975876 0)
(-0.258731 -0.108105 0)
(-0.216045 -0.0706989 0)
(-0.0958376 -0.00284448 0)
(-0.0297504 0.0157679 0)
(-0.0168277 0.0174832 0)
(-0.00852975 0.0183703 0)
(0.0608198 0.0199907 0)
(0.252058 0.022175 0)
(0.313636 0.0321753 0)
(0.174088 0.0413164 0)
(0.0863186 0.0418909 0)
(0.0814584 0.0352387 0)
(0.0967969 0.0266856 0)
(0.0908626 0.0186321 0)
(0.0566663 0.0113953 0)
(0.0202423 0.00495013 0)
(-0.00140682 0.00288527 0)
(-0.00460617 0.0029273 0)
(0.000838247 0.192632 0)
(0.00149655 0.191606 0)
(0.00179999 0.186072 0)
(0.0050819 0.184214 0)
(0.0144294 0.185558 0)
(0.0331108 0.19384 0)
(0.0604748 0.20454 0)
(0.0933618 0.210955 0)
(0.136716 0.218146 0)
(0.1768 0.223731 0)
(0.182404 0.186058 0)
(0.157191 0.121627 0)
(0.0955451 0.0412404 0)
(0.0139973 -0.0603492 0)
(-0.0401866 -0.0997247 0)
(-0.061575 -0.10618 0)
(-0.0618561 -0.0883329 0)
(-0.0599285 -0.0666329 0)
(-0.0703539 -0.0551819 0)
(-0.094248 -0.0475359 0)
(-0.136843 -0.038303 0)
(-0.202872 -0.0428101 0)
(-0.238145 -0.0358384 0)
(-0.162731 0.0409126 0)
(-0.0584707 0.101594 0)
(-0.0221355 0.117151 0)
(-0.0155167 0.122323 0)
(-0.00697836 0.126979 0)
(0.0643083 0.132986 0)
(0.263033 0.159438 0)
(0.327959 0.186916 0)
(0.178851 0.179028 0)
(0.0791428 0.156903 0)
(0.0688617 0.126301 0)
(0.0856704 0.0949895 0)
(0.0812274 0.0643734 0)
(0.0457266 0.0389613 0)
(0.0119787 0.0230952 0)
(-0.00408392 0.010422 0)
(-0.00496422 0.00563538 0)
(-0.000872964 0.252824 0)
(-0.00583614 0.242428 0)
(-0.00479082 0.239642 0)
(0.00740775 0.241621 0)
(0.0247988 0.245167 0)
(0.045317 0.2443 0)
(0.06474 0.234697 0)
(0.0908384 0.227665 0)
(0.126479 0.227453 0)
(0.137034 0.186478 0)
(0.108498 0.100594 0)
(0.0776435 0.0282801 0)
(0.0263647 -0.0600699 0)
(-0.0343822 -0.102083 0)
(-0.0538937 -0.0914157 0)
(-0.0448049 -0.0537516 0)
(-0.0337508 -0.014029 0)
(-0.0390002 0.020436 0)
(-0.0562291 0.0540487 0)
(-0.0780002 0.0844825 0)
(-0.125933 0.096004 0)
(-0.192433 0.0964104 0)
(-0.178053 0.139995 0)
(-0.0836102 0.230454 0)
(-0.0223717 0.269607 0)
(-0.00977498 0.279115 0)
(-0.00735681 0.282862 0)
(0.00174551 0.286771 0)
(0.0920982 0.296112 0)
(0.304027 0.334277 0)
(0.332513 0.324393 0)
(0.145166 0.279011 0)
(0.035509 0.244559 0)
(0.0217965 0.208578 0)
(0.0371216 0.174273 0)
(0.0368718 0.135138 0)
(0.0168892 0.0955614 0)
(-0.00725926 0.0596463 0)
(-0.0182318 0.0284545 0)
(-0.00921874 0.0125583 0)
(-0.0091795 0.273762 0)
(-0.0112058 0.264194 0)
(0.00102214 0.263857 0)
(0.0104063 0.253736 0)
(0.0170113 0.229315 0)
(0.0230211 0.204278 0)
(0.0444443 0.187937 0)
(0.0863812 0.179071 0)
(0.0970262 0.141093 0)
(0.0545535 0.0696936 0)
(0.0299587 0.00445955 0)
(0.00236956 -0.0388257 0)
(-0.0300777 -0.0527875 0)
(-0.0162086 -0.0175907 0)
(0.00638748 0.0497785 0)
(0.0129976 0.117097 0)
(0.00963384 0.162914 0)
(0.0056737 0.184753 0)
(-0.00863643 0.195246 0)
(-0.0538183 0.189321 0)
(-0.125348 0.157289 0)
(-0.160481 0.146244 0)
(-0.108975 0.209899 0)
(-0.0378313 0.263988 0)
(-0.0115797 0.274176 0)
(-0.0093628 0.273155 0)
(-0.00813892 0.270656 0)
(0.0057896 0.269699 0)
(0.110087 0.276023 0)
(0.290286 0.282361 0)
(0.274703 0.220457 0)
(0.10192 0.178242 0)
(0.011271 0.169328 0)
(0.00113151 0.158369 0)
(0.0149004 0.152256 0)
(0.00537842 0.143665 0)
(-0.0270196 0.131188 0)
(-0.0526879 0.100755 0)
(-0.0494595 0.0597329 0)
(-0.0202823 0.0300068 0)
(-0.0100928 0.239494 0)
(-0.015381 0.243898 0)
(-0.0148688 0.227837 0)
(-0.0258779 0.212996 0)
(-0.0228611 0.208317 0)
(0.00544288 0.208546 0)
(0.0404495 0.193724 0)
(0.0456985 0.149005 0)
(0.0210789 0.0900375 0)
(0.00536885 0.0567735 0)
(0.00392508 0.0744985 0)
(0.0224781 0.101868 0)
(0.0468275 0.164709 0)
(0.0644541 0.224169 0)
(0.0758967 0.250027 0)
(0.0642169 0.247444 0)
(0.0314444 0.22913 0)
(-0.00784461 0.197199 0)
(-0.0518269 0.145274 0)
(-0.114577 0.0788143 0)
(-0.167444 0.0327781 0)
(-0.141735 0.0565185 0)
(-0.0645903 0.117783 0)
(-0.0216706 0.140481 0)
(-0.0135383 0.140697 0)
(-0.013167 0.138489 0)
(-0.0106875 0.136701 0)
(0.00691746 0.136613 0)
(0.1043 0.139328 0)
(0.250481 0.115895 0)
(0.232181 0.0614586 0)
(0.0958964 0.0510988 0)
(0.0163582 0.0631331 0)
(0.00534496 0.0676047 0)
(0.0229529 0.0736189 0)
(0.0165703 0.0795242 0)
(-0.0244605 0.0889148 0)
(-0.076116 0.0973065 0)
(-0.0864076 0.0822566 0)
(-0.0378639 0.0566043 0)
(-0.00493559 0.191049 0)
(-0.0224387 0.214005 0)
(-0.0287565 0.232592 0)
(-0.00840407 0.25731 0)
(0.0127238 0.292985 0)
(0.00895866 0.322633 0)
(-0.0129318 0.331857 0)
(-0.0135348 0.32032 0)
(0.00814862 0.3051 0)
(0.0395797 0.298808 0)
(0.0734134 0.297862 0)
(0.0892995 0.304293 0)
(0.0877759 0.291689 0)
(0.0660072 0.263267 0)
(0.0288159 0.208853 0)
(-0.00713967 0.139044 0)
(-0.0387839 0.0763931 0)
(-0.0751334 0.0274988 0)
(-0.122716 -0.0255112 0)
(-0.162223 -0.0675602 0)
(-0.146833 -0.0506464 0)
(-0.0785671 0.0220751 0)
(-0.0280653 0.066353 0)
(-0.0157505 0.0751273 0)
(-0.0134999 0.0762636 0)
(-0.0132142 0.0769876 0)
(-0.00994659 0.0779061 0)
(0.00832136 0.0790757 0)
(0.090122 0.0792644 0)
(0.215248 0.0437967 0)
(0.212263 0.00205506 0)
(0.103534 0.00215642 0)
(0.0271766 0.0127955 0)
(0.0112361 0.0179399 0)
(0.0263866 0.018363 0)
(0.0201181 0.0174819 0)
(-0.00988396 0.0203753 0)
(-0.059104 0.0432552 0)
(-0.0886817 0.0665974 0)
(-0.0450019 0.0701485 0)
(0.0120288 0.127671 0)
(0.0246516 0.1512 0)
(0.026861 0.200982 0)
(0.0323192 0.238244 0)
(0.0400863 0.263961 0)
(0.0429011 0.285783 0)
(0.0382213 0.320566 0)
(0.0199142 0.361659 0)
(0.000349254 0.368479 0)
(-0.00160567 0.344064 0)
(0.00921052 0.286032 0)
(0.0165297 0.212724 0)
(0.00729286 0.139652 0)
(-0.0153696 0.0713217 0)
(-0.0438085 0.0190032 0)
(-0.0634267 -0.0176669 0)
(-0.076045 -0.0490798 0)
(-0.106043 -0.0803641 0)
(-0.143429 -0.0971607 0)
(-0.138798 -0.0728333 0)
(-0.0810678 -0.00252154 0)
(-0.0289904 0.0537264 0)
(-0.0134672 0.0704846 0)
(-0.0121204 0.0749404 0)
(-0.0117458 0.0770494 0)
(-0.0115843 0.0790706 0)
(-0.00867525 0.0810432 0)
(0.00822637 0.0816803 0)
(0.0703042 0.0802368 0)
(0.176079 0.0411014 0)
(0.192055 0.000996976 0)
(0.106246 0.00092808 0)
(0.0315677 0.00730831 0)
(0.0107099 0.00746308 0)
(0.0225116 -0.000864151 0)
(0.0185095 -0.0109531 0)
(0.00037561 -0.0148275 0)
(-0.0315746 -0.0024437 0)
(-0.0604923 0.0267911 0)
(-0.0344419 0.0491233 0)
(0.0177377 0.0460848 0)
(0.048206 0.0420839 0)
(0.0551217 0.0604176 0)
(0.0522854 0.0715882 0)
(0.0585341 0.0850125 0)
(0.0635045 0.0985453 0)
(0.0601853 0.116746 0)
(0.0326367 0.131344 0)
(-0.00880668 0.137921 0)
(-0.0398693 0.126941 0)
(-0.05315 0.0944911 0)
(-0.0517584 0.0420141 0)
(-0.048485 -0.00752952 0)
(-0.0502541 -0.0421054 0)
(-0.0569367 -0.0580402 0)
(-0.0727469 -0.0621912 0)
(-0.0992012 -0.0734526 0)
(-0.121466 -0.0856173 0)
(-0.115459 -0.061504 0)
(-0.0710253 0.00410163 0)
(-0.0248759 0.0635399 0)
(-0.00821571 0.0849288 0)
(-0.0076227 0.0904023 0)
(-0.00942442 0.0926781 0)
(-0.00951995 0.0945705 0)
(-0.00936565 0.096589 0)
(-0.00743177 0.0987105 0)
(0.00754424 0.0987943 0)
(0.0510186 0.0954509 0)
(0.13889 0.0606731 0)
(0.173551 0.0175629 0)
(0.109616 0.0161219 0)
(0.0334739 0.0219634 0)
(0.0033608 0.0200976 0)
(0.00864008 0.00463211 0)
(0.00666251 -0.0101115 0)
(-0.00168399 -0.0191446 0)
(-0.0189988 -0.0193957 0)
(-0.0389898 -0.000922921 0)
(-0.0234817 0.0200785 0)
(0.00817335 -0.0110479 0)
(0.0384632 -0.0257441 0)
(0.0552923 -0.0293553 0)
(0.0560198 -0.0275933 0)
(0.0660633 -0.019169 0)
(0.0734809 -0.00868204 0)
(0.0698277 0.00457935 0)
(0.0403188 0.0127226 0)
(-0.00389396 0.0199408 0)
(-0.0434561 0.0170224 0)
(-0.0726283 -0.000717781 0)
(-0.081781 -0.0257768 0)
(-0.0737678 -0.0413768 0)
(-0.0640435 -0.0479874 0)
(-0.0631638 -0.0535691 0)
(-0.0782787 -0.0636325 0)
(-0.0986192 -0.0660093 0)
(-0.0945292 -0.0384502 0)
(-0.0569729 0.0159306 0)
(-0.0183009 0.0664995 0)
(-0.00317975 0.0876113 0)
(-0.00310483 0.0913532 0)
(-0.00599969 0.0916455 0)
(-0.00810382 0.0920228 0)
(-0.00797714 0.0930498 0)
(-0.00759476 0.0943637 0)
(-0.00655013 0.096287 0)
(0.00508533 0.0965694 0)
(0.0335692 0.0896568 0)
(0.101024 0.0645335 0)
(0.149123 0.01333 0)
(0.110487 0.00948916 0)
(0.0353988 0.0168261 0)
(-0.0059911 0.0184133 0)
(-0.00659906 0.00411216 0)
(-0.00440262 -0.00873241 0)
(-0.00857098 -0.0191223 0)
(-0.0140155 -0.0264817 0)
(-0.0224534 -0.0184622 0)
(-0.0142042 -0.00350407 0)
(0.00357595 -0.0377892 0)
(0.0305643 -0.0540934 0)
(0.0533397 -0.0633302 0)
(0.0621013 -0.0643171 0)
(0.0767577 -0.0546976 0)
(0.0863893 -0.045499 0)
(0.0808116 -0.0355412 0)
(0.0474395 -0.0330516 0)
(-0.00466328 -0.0290417 0)
(-0.0597766 -0.0328526 0)
(-0.0943928 -0.0512406 0)
(-0.0909389 -0.0597998 0)
(-0.0698879 -0.054327 0)
(-0.0620029 -0.0491194 0)
(-0.0720129 -0.0536142 0)
(-0.0847348 -0.0562593 0)
(-0.0749346 -0.0342782 0)
(-0.0425057 0.00910418 0)
(-0.0143258 0.048158 0)
(-0.00195119 0.0638532 0)
(-0.000926019 0.0647051 0)
(-0.00432813 0.0620707 0)
(-0.00697741 0.0599884 0)
(-0.00807124 0.0593099 0)
(-0.0072642 0.0598541 0)
(-0.00624618 0.0606301 0)
(-0.00530624 0.0623889 0)
(0.00115515 0.0634441 0)
(0.0201477 0.0559263 0)
(0.0653385 0.0400683 0)
(0.120508 -0.00953606 0)
(0.112984 -0.0298455 0)
(0.0420736 -0.0164374 0)
(-0.00889077 -0.000195618 0)
(-0.0175186 -0.00217459 0)
(-0.0157271 -0.0105668 0)
(-0.0187879 -0.0213511 0)
(-0.0183627 -0.0251927 0)
(-0.0168477 -0.0266171 0)
(-0.00906753 -0.0358877 0)
(-0.00753793 -0.20276 0)
(0.0138509 -0.113037 0)
(0.0454404 -0.074959 0)
(0.0643385 -0.0870172 0)
(0.084197 -0.0864979 0)
(0.0919406 -0.0846131 0)
(0.0818225 -0.0826168 0)
(0.0465819 -0.0881719 0)
(-0.0037022 -0.0897163 0)
(-0.0648477 -0.0940973 0)
(-0.0985956 -0.0960757 0)
(-0.0847552 -0.0824654 0)
(-0.0634757 -0.0717251 0)
(-0.0633567 -0.0698105 0)
(-0.0700441 -0.0644971 0)
(-0.0596458 -0.0421992 0)
(-0.0356326 -0.00782151 0)
(-0.0150908 0.0185814 0)
(-0.00421472 0.0289223 0)
(-0.00235552 0.0293359 0)
(-0.00489748 0.0257649 0)
(-0.00764995 0.0223629 0)
(-0.00866003 0.0204314 0)
(-0.0082333 0.0200398 0)
(-0.00670494 0.0208584 0)
(-0.00515209 0.0215818 0)
(-0.00383855 0.0230711 0)
(-0.00114231 0.0242331 0)
(0.0110435 0.020631 0)
(0.0379417 0.00706443 0)
(0.081752 -0.0300441 0)
(0.103836 -0.0730942 0)
(0.0639704 -0.0702909 0)
(0.00775306 -0.0399855 0)
(-0.0165931 -0.0215221 0)
(-0.0228818 -0.0157149 0)
(-0.0226651 -0.0200886 0)
(-0.01909 -0.0199132 0)
(-0.0327595 -0.0516485 0)
(-0.0231377 -0.16274 0)
(0.0900364 -0.640398 0)
(0.153718 -0.316198 0)
(0.0784133 -0.0770695 0)
(0.0509819 -0.0723921 0)
(0.0790744 -0.0846617 0)
(0.0901292 -0.0958484 0)
(0.0773821 -0.109913 0)
(0.0405983 -0.122468 0)
(-0.0103732 -0.13735 0)
(-0.0659047 -0.150502 0)
(-0.0831838 -0.13652 0)
(-0.0674739 -0.110145 0)
(-0.0576932 -0.094371 0)
(-0.0550378 -0.0815499 0)
(-0.0454057 -0.0590818 0)
(-0.0301201 -0.0306766 0)
(-0.0163642 -0.0102377 0)
(-0.00709798 -0.000748419 0)
(-0.00396235 0.000218002 0)
(-0.00499379 -0.00230974 0)
(-0.00764543 -0.00477057 0)
(-0.00946772 -0.00612672 0)
(-0.00921608 -0.00628227 0)
(-0.00765975 -0.00542333 0)
(-0.00577828 -0.00380435 0)
(-0.00411397 -0.00237812 0)
(-0.0027513 -0.000882697 0)
(-0.0011962 0.000298952 0)
(0.00360329 5.54888e-05 0)
(0.0165061 -0.00941082 0)
(0.0432641 -0.032602 0)
(0.0742011 -0.0735066 0)
(0.0739783 -0.0956564 0)
(0.0381046 -0.0719302 0)
(0.00586953 -0.0447638 0)
(-0.0143457 -0.0251268 0)
(-0.0228335 -0.0195343 0)
(-0.048775 -0.0340983 0)
(-0.154481 -0.15551 0)
(-0.116119 -0.428349 0)
(0.304873 -0.459493 0)
(0.556695 -0.236549 0)
(0.280381 -0.041309 0)
(0.0570225 -0.0269599 0)
(0.0615937 -0.0350404 0)
(0.0676071 -0.0451002 0)
(0.0561706 -0.0584124 0)
(0.0201433 -0.0671121 0)
(-0.0307168 -0.0796392 0)
(-0.064048 -0.0882234 0)
(-0.0597055 -0.0777125 0)
(-0.0441389 -0.0638591 0)
(-0.0359208 -0.053497 0)
(-0.0293508 -0.0412651 0)
(-0.0210207 -0.0268407 0)
(-0.0125778 -0.0159599 0)
(-0.00679274 -0.00863637 0)
(-0.0050153 -0.00602725 0)
(-0.00571926 -0.0064751 0)
(-0.00716269 -0.00785046 0)
(-0.00857566 -0.00872584 0)
(-0.00910668 -0.0088158 0)
(-0.00798222 -0.00835118 0)
(-0.00584549 -0.00753538 0)
(-0.00377046 -0.00646846 0)
(-0.00233668 -0.0054518 0)
(-0.00125882 -0.00462411 0)
(-0.000238239 -0.003903 0)
(0.0016868 -0.00362999 0)
(0.0064717 -0.00589181 0)
(0.019987 -0.0140431 0)
(0.0430749 -0.0300473 0)
(0.0654895 -0.0463439 0)
(0.056795 -0.0388564 0)
(0.0285084 -0.0269482 0)
(0.00143027 -0.0153632 0)
(-0.0313104 -0.0105769 0)
(-0.150121 -0.02416 0)
(-0.412674 -0.115748 0)
(-0.286056 -0.292097 0)
(0.304873 0.459493 0)
(0.556695 0.236549 0)
(0.280381 0.041309 0)
(0.0570225 0.0269599 0)
(0.0615937 0.0350404 0)
(0.0676071 0.0451002 0)
(0.0561706 0.0584124 0)
(0.0201433 0.0671121 0)
(-0.0307168 0.0796392 0)
(-0.064048 0.0882234 0)
(-0.0597055 0.0777125 0)
(-0.0441389 0.0638591 0)
(-0.0359208 0.053497 0)
(-0.0293508 0.0412651 0)
(-0.0210207 0.0268407 0)
(-0.0125778 0.0159599 0)
(-0.00679274 0.00863637 0)
(-0.0050153 0.00602725 0)
(-0.00571926 0.0064751 0)
(-0.00716269 0.00785046 0)
(-0.00857566 0.00872584 0)
(-0.00910668 0.0088158 0)
(-0.00798222 0.00835118 0)
(-0.00584549 0.00753538 0)
(-0.00377046 0.00646846 0)
(-0.00233668 0.0054518 0)
(-0.00125882 0.00462411 0)
(-0.000238239 0.003903 0)
(0.0016868 0.00362999 0)
(0.0064717 0.00589181 0)
(0.019987 0.0140431 0)
(0.0430749 0.0300473 0)
(0.0654895 0.0463439 0)
(0.056795 0.0388564 0)
(0.0285084 0.0269482 0)
(0.00143027 0.0153632 0)
(-0.0313104 0.0105769 0)
(-0.150121 0.02416 0)
(-0.412674 0.115748 0)
(-0.286056 0.292097 0)
(0.0900364 0.640398 0)
(0.153718 0.316198 0)
(0.0784133 0.0770695 0)
(0.0509819 0.0723921 0)
(0.0790744 0.0846617 0)
(0.0901292 0.0958484 0)
(0.0773821 0.109913 0)
(0.0405983 0.122468 0)
(-0.0103732 0.13735 0)
(-0.0659047 0.150502 0)
(-0.0831838 0.13652 0)
(-0.0674739 0.110145 0)
(-0.0576932 0.094371 0)
(-0.0550378 0.0815499 0)
(-0.0454057 0.0590818 0)
(-0.0301201 0.0306766 0)
(-0.0163642 0.0102377 0)
(-0.00709798 0.000748419 0)