/*--------------------------------*- C++ -*----------------------------------*\
| =========                 |                                                 |
| \\      /  F ield         | OpenFOAM: The Open Source CFD Toolbox           |
|  \\    /   O peration     | Version:  v1912                                 |
|   \\  /    A nd           | Website:  www.openfoam.com                      |
|    \\/     M anipulation  |                                                 |
\*---------------------------------------------------------------------------*/
FoamFile
{
    version     2.0;
    format      ascii;
    class       volVectorField;
    location    "8.32";
    object      U;
}
// * * * * * * * * * * * * * * * * * * * * * * * * * * * * * * * * * * * * * //

dimensions      [0 1 -1 0 0 0 0];


internalField   nonuniform List<vector> 
1900
(
(-0.265974 -8.01259e-08 0)
(0.102412 1.06276e-06 0)
(0.110683 -1.68018e-06 0)
(0.107161 -8.07472e-06 0)
(0.104399 -2.08215e-05 0)
(0.105887 -4.81975e-05 0)
(0.106251 -7.20429e-05 0)
(0.108169 0.000397036 0)
(0.109202 0.00366881 0)
(0.0988673 0.0122836 0)
(-0.265971 1.39389e-06 0)
(0.102416 1.9267e-06 0)
(0.110681 1.12583e-06 0)
(0.107143 -1.22565e-05 0)
(0.104356 -3.40368e-05 0)
(0.105792 -7.1971e-05 0)
(0.106169 -8.03149e-05 0)
(0.107787 0.000460243 0)
(0.11145 0.00269861 0)
(0.112544 0.0121948 0)
(-0.26597 -1.48774e-14 0)
(0.102418 -2.7744e-14 0)
(0.110677 1.63583e-14 0)
(0.107129 9.44184e-15 0)
(0.10433 -2.26404e-15 0)
(0.105753 -1.85892e-15 0)
(0.106154 1.96226e-14 0)
(0.107993 7.78493e-15 0)
(0.112497 4.04893e-15 0)
(0.120553 -2.91482e-15 0)
(-0.265971 -1.39389e-06 0)
(0.102416 -1.9267e-06 0)
(0.110681 -1.12583e-06 0)
(0.107143 1.22565e-05 0)
(0.104356 3.40368e-05 0)
(0.105792 7.1971e-05 0)
(0.106169 8.03149e-05 0)
(0.107787 -0.000460243 0)
(0.11145 -0.00269861 0)
(0.112544 -0.0121948 0)
(-0.265974 8.01259e-08 0)
(0.102412 -1.06276e-06 0)
(0.110683 1.68018e-06 0)
(0.107161 8.07472e-06 0)
(0.104399 2.08215e-05 0)
(0.105887 4.81975e-05 0)
(0.106251 7.20429e-05 0)
(0.108169 -0.000397036 0)
(0.109202 -0.00366881 0)
(0.0988673 -0.0122836 0)
(0.101281 0.0401761 0)
(0.138708 0.0544688 0)
(0.185545 0.0793189 0)
(0.260561 0.120503 0)
(0.4038 0.176187 0)
(0.126006 0.0287921 0)
(0.151176 0.0298597 0)
(0.179676 0.0400921 0)
(0.241108 0.0621255 0)
(0.382039 0.103504 0)
(0.137305 -4.36978e-16 0)
(0.160792 -1.85393e-14 0)
(0.190576 1.30465e-14 0)
(0.25298 -1.2604e-14 0)
(0.392288 -1.3584e-15 0)
(0.126006 -0.0287921 0)
(0.151176 -0.0298597 0)
(0.179676 -0.0400921 0)
(0.241108 -0.0621255 0)
(0.382039 -0.103504 0)
(0.101281 -0.0401761 0)
(0.138708 -0.0544688 0)
(0.185545 -0.0793189 0)
(0.260561 -0.120503 0)
(0.4038 -0.176187 0)
(0.852631 0.0322942 0)
(1.11155 -0.0520719 0)
(1.26443 -0.0834601 0)
(1.34778 -0.0956905 0)
(1.43777 -0.105973 0)
(0.82361 -0.0168475 0)
(1.12454 -0.0482662 0)
(1.2966 -0.0597112 0)
(1.38139 -0.0601186 0)
(1.46581 -0.0805529 0)
(0.819499 -7.15354e-16 0)
(1.12873 6.29362e-15 0)
(1.29223 -3.23279e-15 0)
(1.37302 2.35266e-15 0)
(1.45367 -8.75773e-15 0)
(0.82361 0.0168475 0)
(1.12454 0.0482662 0)
(1.2966 0.0597112 0)
(1.38139 0.0601186 0)
(1.46581 0.0805529 0)
(0.852631 -0.0322942 0)
(1.11155 0.0520719 0)
(1.26443 0.0834601 0)
(1.34778 0.0956905 0)
(1.43777 0.105973 0)
(1.46593 -0.00882938 0)
(1.49712 0.0451079 0)
(1.52234 0.0113017 0)
(1.52905 -0.00786416 0)
(1.54032 -0.0195387 0)
(1.55616 -0.024909 0)
(1.57402 -0.0212562 0)
(1.59668 -0.0133162 0)
(1.6393 -0.0224995 0)
(1.65334 -0.0112515 0)
(1.63237 -0.00562625 0)
(1.49552 0.00534541 0)
(1.27089 -0.00544864 0)
(1.22466 -0.00452601 0)
(1.21424 -0.00790169 0)
(1.20105 -0.0249042 0)
(1.15541 -0.0472955 0)
(1.07657 -0.062919 0)
(0.989928 -0.0634174 0)
(0.913712 -0.0530094 0)
(0.840767 -0.0419473 0)
(0.766629 -0.0339358 0)
(0.679395 -0.0271568 0)
(0.547384 -0.0197428 0)
(0.344341 -0.0138857 0)
(0.19643 -0.0104929 0)
(0.171989 -0.00971768 0)
(0.173036 -0.00963126 0)
(0.170352 -0.00951504 0)
(0.100293 -0.00951336 0)
(-0.10062 -0.00991701 0)
(-0.215893 -0.0099915 0)
(-0.253964 -0.00993185 0)
(-0.274175 -0.00989094 0)
(-0.292699 -0.0100368 0)
(-0.30885 -0.0105075 0)
(-0.322152 -0.0118962 0)
(-0.333505 -0.0128112 0)
(-0.343034 -0.0128577 0)
(-0.353507 -0.0101899 0)
(1.46938 -0.00963926 0)
(1.46092 0.0373742 0)
(1.47095 0.0352654 0)
(1.4897 0.0116145 0)
(1.50649 -0.00731373 0)
(1.52859 -0.0242122 0)
(1.55164 -0.0272149 0)
(1.5799 -0.0221296 0)
(1.62891 -0.028556 0)
(1.6438 -0.0186164 0)
(1.62374 -0.0145366 0)
(1.47882 0.000786327 0)
(1.27226 -0.00399077 0)
(1.22659 -0.00477453 0)
(1.22373 -0.00501764 0)
(1.21677 -0.0131851 0)
(1.16931 -0.0246193 0)
(1.08787 -0.0318211 0)
(1.00139 -0.0316375 0)
(0.924791 -0.0273273 0)
(0.854529 -0.0213183 0)
(0.779712 -0.0177129 0)
(0.687798 -0.0159989 0)
(0.552696 -0.0105907 0)
(0.347282 -0.00649188 0)
(0.197057 -0.00511498 0)
(0.172123 -0.00485854 0)
(0.173153 -0.00481882 0)
(0.170482 -0.00475901 0)
(0.100446 -0.00475451 0)
(-0.100381 -0.00494608 0)
(-0.215464 -0.00497749 0)
(-0.253302 -0.00494447 0)
(-0.273252 -0.0049331 0)
(-0.291586 -0.00502259 0)
(-0.30779 -0.00527861 0)
(-0.321729 -0.0059934 0)
(-0.33429 -0.0064542 0)
(-0.344676 -0.00646233 0)
(-0.355295 -0.00510781 0)
(1.4676 -4.21923e-15 0)
(1.45922 7.32756e-15 0)
(1.4487 -7.13237e-14 0)
(1.47829 -9.15692e-14 0)
(1.49194 -8.91238e-14 0)
(1.51741 -8.31543e-14 0)
(1.54292 -6.46267e-14 0)
(1.57375 -5.74957e-14 0)
(1.62432 -1.56392e-14 0)
(1.63889 -1.77626e-15 0)
(1.61946 -8.85891e-16 0)
(1.47168 1.77622e-13 0)
(1.27099 1.02052e-14 0)
(1.22628 -5.73821e-14 0)
(1.22664 -1.63967e-13 0)
(1.21924 -4.87528e-13 0)
(1.16962 -6.81198e-13 0)
(1.08608 -2.40079e-13 0)
(1.00098 7.82436e-13 0)
(0.93299 1.49805e-12 0)
(0.864066 1.12572e-12 0)
(0.789027 -6.5033e-14 0)
(0.694292 -4.82901e-13 0)
(0.551534 2.10739e-13 0)
(0.344983 8.19634e-13 0)
(0.196747 3.19958e-13 0)
(0.172122 -1.00868e-13 0)
(0.173141 -5.53314e-13 0)
(0.170458 -9.76461e-13 0)
(0.100387 -1.01042e-12 0)
(-0.10047 -8.87522e-13 0)
(-0.215477 -1.80649e-13 0)
(-0.253169 5.71188e-13 0)
(-0.272942 6.07865e-13 0)
(-0.291102 3.54592e-13 0)
(-0.307132 4.42312e-13 0)
(-0.320923 2.57326e-13 0)
(-0.333425 -3.49213e-13 0)
(-0.343904 -2.91499e-13 0)
(-0.354723 -4.11164e-15 0)
(1.46938 0.00963926 0)
(1.46092 -0.0373742 0)
(1.47095 -0.0352654 0)
(1.4897 -0.0116145 0)
(1.50649 0.00731373 0)
(1.52859 0.0242122 0)
(1.55164 0.0272149 0)
(1.5799 0.0221296 0)
(1.62891 0.028556 0)
(1.6438 0.0186164 0)
(1.62374 0.0145366 0)
(1.47882 -0.000786327 0)
(1.27226 0.00399077 0)
(1.22659 0.00477453 0)
(1.22373 0.00501764 0)
(1.21677 0.0131851 0)
(1.16931 0.0246193 0)
(1.08787 0.0318211 0)
(1.00139 0.0316375 0)
(0.924791 0.0273273 0)
(0.854529 0.0213183 0)
(0.779712 0.0177129 0)
(0.687798 0.0159989 0)
(0.552696 0.0105907 0)
(0.347282 0.00649188 0)
(0.197057 0.00511498 0)
(0.172123 0.00485854 0)
(0.173153 0.00481882 0)
(0.170482 0.00475901 0)
(0.100446 0.00475451 0)
(-0.100381 0.00494608 0)
(-0.215464 0.00497749 0)
(-0.253302 0.00494447 0)
(-0.273252 0.0049331 0)
(-0.291586 0.00502259 0)
(-0.30779 0.00527861 0)
(-0.321729 0.0059934 0)
(-0.33429 0.0064542 0)
(-0.344676 0.00646233 0)
(-0.355295 0.00510781 0)
(1.46593 0.00882938 0)
(1.49712 -0.0451079 0)
(1.52234 -0.0113017 0)
(1.52905 0.00786416 0)
(1.54032 0.0195387 0)
(1.55616 0.024909 0)
(1.57402 0.0212562 0)
(1.59668 0.0133162 0)
(1.6393 0.0224995 0)
(1.65334 0.0112515 0)
(1.63237 0.00562625 0)
(1.49552 -0.00534541 0)
(1.27089 0.00544864 0)
(1.22466 0.00452601 0)
(1.21424 0.00790169 0)
(1.20105 0.0249042 0)
(1.15541 0.0472955 0)
(1.07657 0.062919 0)
(0.989928 0.0634174 0)
(0.913712 0.0530094 0)
(0.840767 0.0419473 0)
(0.766629 0.0339358 0)
(0.679395 0.0271568 0)
(0.547384 0.0197428 0)
(0.344341 0.0138857 0)
(0.19643 0.0104929 0)
(0.171989 0.00971768 0)
(0.173036 0.00963126 0)
(0.170352 0.00951504 0)
(0.100293 0.00951336 0)
(-0.10062 0.00991701 0)
(-0.215893 0.0099915 0)
(-0.253964 0.00993185 0)
(-0.274175 0.00989094 0)
(-0.292699 0.0100368 0)
(-0.30885 0.0105075 0)
(-0.322152 0.0118962 0)
(-0.333505 0.0128112 0)
(-0.343034 0.0128577 0)
(-0.353507 0.0101899 0)
(1.57254 -0.0701487 0)
(1.58448 -0.0607203 0)
(1.59308 -0.0500337 0)
(1.5997 -0.0128615 0)
(1.59853 0.00598525 0)
(1.60154 0.0332841 0)
(1.60523 0.0558003 0)
(1.61531 0.0617283 0)
(1.63949 0.0860503 0)
(1.6498 0.0596345 0)
(1.62784 0.0360544 0)
(1.49327 0.00284858 0)
(1.25589 0.0146174 0)
(1.21225 0.0162463 0)
(1.19585 0.0280985 0)
(1.18674 0.0530594 0)
(1.15196 0.0885602 0)
(1.08455 0.11457 0)
(1.00872 0.118921 0)
(0.929302 0.10755 0)
(0.848814 0.0914642 0)
(0.771098 0.0748564 0)
(0.682492 0.0594616 0)
(0.54649 0.0450521 0)
(0.339648 0.0304065 0)
(0.19444 0.0217438 0)
(0.1717 0.0201645 0)
(0.172927 0.0200001 0)
(0.170305 0.0197877 0)
(0.100457 0.0198309 0)
(-0.100311 0.0207155 0)
(-0.215705 0.0208896 0)
(-0.253808 0.0208405 0)
(-0.274006 0.0208123 0)
(-0.292451 0.0210821 0)
(-0.308423 0.021671 0)
(-0.321079 0.023709 0)
(-0.330929 0.0250373 0)
(-0.338859 0.0255577 0)
(-0.348676 0.0206056 0)
(1.64333 0.0421252 0)
(1.64877 0.0365253 0)
(1.65034 0.0455268 0)
(1.64897 0.0324438 0)
(1.64433 0.03683 0)
(1.63759 0.0549745 0)
(1.63257 0.0423703 0)
(1.63414 0.0481669 0)
(1.64616 0.0861666 0)
(1.63786 0.0624362 0)
(1.61035 0.0345185 0)
(1.45709 0.0204681 0)
(1.23865 0.0324962 0)
(1.19883 0.0406364 0)
(1.17473 0.0501239 0)
(1.16091 0.0935799 0)
(1.1155 0.158285 0)
(1.03749 0.203013 0)
(0.959308 0.210459 0)
(0.889162 0.190824 0)
(0.821154 0.160602 0)
(0.749215 0.131454 0)
(0.660545 0.106172 0)
(0.522717 0.0802483 0)
(0.320359 0.0528562 0)
(0.189561 0.03854 0)
(0.171109 0.036145 0)
(0.172743 0.0359069 0)
(0.170322 0.0355584 0)
(0.101119 0.0356433 0)
(-0.0992326 0.0371835 0)
(-0.215009 0.0375279 0)
(-0.253252 0.0375031 0)
(-0.273403 0.0374591 0)
(-0.291649 0.037859 0)
(-0.307413 0.038592 0)
(-0.319741 0.0413026 0)
(-0.328882 0.0429141 0)
(-0.335629 0.0448609 0)
(-0.345455 0.0376089 0)
(1.65003 0.118251 0)
(1.64361 0.13498 0)
(1.63803 0.149041 0)
(1.63771 0.138934 0)
(1.63718 0.133728 0)
(1.63518 0.138514 0)
(1.63658 0.114218 0)
(1.6383 0.123229 0)
(1.63708 0.152357 0)
(1.6178 0.104787 0)
(1.57957 0.0705469 0)
(1.40358 0.0691587 0)
(1.24029 0.0718704 0)
(1.19493 0.0752427 0)
(1.1533 0.0833964 0)
(1.11043 0.150877 0)
(1.03926 0.243554 0)
(0.956491 0.290906 0)
(0.892447 0.287047 0)
(0.83799 0.256979 0)
(0.781285 0.217897 0)
(0.71607 0.179905 0)
(0.629534 0.144944 0)
(0.489409 0.108129 0)
(0.293903 0.0716275 0)
(0.183388 0.0546631 0)
(0.170326 0.051912 0)
(0.172471 0.0516182 0)
(0.170329 0.0511391 0)
(0.102097 0.0512366 0)
(-0.0974384 0.053208 0)
(-0.213634 0.0537386 0)
(-0.252046 0.0538083 0)
(-0.27217 0.0538704 0)
(-0.290307 0.0545726 0)
(-0.306128 0.055566 0)
(-0.31855 0.058817 0)
(-0.327808 0.059851 0)
(-0.333486 0.0631569 0)
(-0.343026 0.0544638 0)
(1.61249 0.195392 0)
(1.61163 0.191774 0)
(1.60816 0.1989 0)
(1.60881 0.18945 0)
(1.60842 0.187498 0)
(1.60925 0.18867 0)
(1.61692 0.162777 0)
(1.6351 0.176895 0)
(1.59628 0.19118 0)
(1.55101 0.151623 0)
(1.49547 0.118737 0)
(1.33665 0.101639 0)
(1.22583 0.103201 0)
(1.1716 0.116865 0)
(1.11227 0.14877 0)
(1.0426 0.247075 0)
(0.949985 0.341032 0)
(0.873713 0.367674 0)
(0.824654 0.349239 0)
(0.782557 0.311268 0)
(0.73553 0.265717 0)
(0.676167 0.22054 0)
(0.590534 0.176988 0)
(0.446999 0.130301 0)
(0.263652 0.087244 0)
(0.177219 0.0701193 0)
(0.169305 0.0674012 0)
(0.171949 0.067012 0)
(0.170104 0.0664236 0)
(0.10281 0.0665573 0)
(-0.0961031 0.069043 0)
(-0.213135 0.0698013 0)
(-0.252055 0.0700041 0)
(-0.272417 0.0702756 0)
(-0.290524 0.0715273 0)
(-0.306357 0.072869 0)
(-0.318658 0.076632 0)
(-0.328209 0.0767501 0)
(-0.333017 0.0810353 0)
(-0.342105 0.0715429 0)
(1.55733 0.250202 0)
(1.5589 0.252353 0)
(1.56025 0.257258 0)
(1.56464 0.25109 0)
(1.5682 0.252693 0)
(1.57289 0.248424 0)
(1.59156 0.234231 0)
(1.58336 0.240887 0)
(1.53285 0.207184 0)
(1.49969 0.184078 0)
(1.41592 0.158255 0)
(1.28577 0.145169 0)
(1.21092 0.159444 0)
(1.13469 0.17717 0)
(1.0473 0.24271 0)
(0.945538 0.365999 0)
(0.848716 0.431462 0)
(0.793109 0.429358 0)
(0.758869 0.397201 0)
(0.726421 0.350832 0)
(0.686008 0.299662 0)
(0.630292 0.249724 0)
(0.543435 0.200121 0)
(0.396641 0.145715 0)
(0.233009 0.100062 0)
(0.171855 0.0851206 0)
(0.168348 0.0826787 0)
(0.171527 0.0820654 0)
(0.170134 0.0814264 0)
(0.104326 0.0815754 0)
(-0.0929203 0.0843866 0)
(-0.210174 0.0854346 0)
(-0.249112 0.0859984 0)
(-0.269321 0.0865914 0)
(-0.286952 0.088487 0)
(-0.302475 0.089914 0)
(-0.314213 0.0941487 0)
(-0.324095 0.0931953 0)
(-0.328476 0.0979458 0)
(-0.337413 0.0879669 0)
(1.49591 0.299521 0)
(1.49636 0.302231 0)
(1.49812 0.306616 0)
(1.50378 0.30117 0)
(1.50733 0.299921 0)
(1.51111 0.290094 0)
(1.52475 0.282305 0)
(1.50769 0.281638 0)
(1.46469 0.254906 0)
(1.42087 0.209197 0)
(1.34047 0.193674 0)
(1.23316 0.199678 0)
(1.15289 0.221374 0)
(1.0495 0.260445 0)
(0.937086 0.385359 0)
(0.823155 0.486302 0)
(0.752307 0.500788 0)
(0.718359 0.475244 0)
(0.69594 0.431378 0)
(0.670614 0.37827 0)
(0.634227 0.323502 0)
(0.579914 0.270768 0)
(0.489536 0.21613 0)
(0.341436 0.155656 0)
(0.205799 0.111987 0)
(0.167433 0.100417 0)
(0.16702 0.0984406 0)
(0.170392 0.0975881 0)
(0.169392 0.0969582 0)
(0.104402 0.0972476 0)
(-0.0922255 0.100517 0)
(-0.210366 0.102105 0)
(-0.249896 0.103117 0)
(-0.270535 0.103832 0)
(-0.288047 0.10641 0)
(-0.303522 0.107467 0)
(-0.314622 0.112133 0)
(-0.32465 0.110183 0)
(-0.328662 0.115165 0)
(-0.337475 0.104825 0)
(1.42338 0.344131 0)
(1.42265 0.348256 0)
(1.42321 0.349712 0)
(1.42665 0.345817 0)
(1.42811 0.3445 0)
(1.43063 0.33529 0)
(1.42691 0.328243 0)
(1.40778 0.313585 0)
(1.37258 0.27703 0)
(1.31584 0.241538 0)
(1.23182 0.248812 0)
(1.13824 0.27088 0)
(1.02833 0.302072 0)
(0.907857 0.412712 0)
(0.784937 0.529685 0)
(0.699655 0.561346 0)
(0.663766 0.544188 0)
(0.649877 0.503539 0)
(0.63725 0.449668 0)
(0.615707 0.393316 0)
(0.581049 0.338663 0)
(0.526268 0.284163 0)
(0.430153 0.224442 0)
(0.285699 0.161697 0)
(0.184878 0.124859 0)
(0.164472 0.116688 0)
(0.166488 0.115161 0)
(0.17003 0.114097 0)
(0.169903 0.113558 0)
(0.107064 0.113922 0)
(-0.0870491 0.117422 0)
(-0.205686 0.119199 0)
(-0.245727 0.120448 0)
(-0.26677 0.121351 0)
(-0.284196 0.124736 0)
(-0.299896 0.125104 0)
(-0.310657 0.129784 0)
(-0.320889 0.126842 0)
(-0.324737 0.131709 0)
(-0.333601 0.121063 0)
(1.33125 0.388396 0)
(1.33016 0.392081 0)
(1.33038 0.393068 0)
(1.33218 0.387844 0)
(1.33065 0.379791 0)
(1.32526 0.368814 0)
(1.31167 0.358573 0)
(1.28889 0.337194 0)
(1.24829 0.308949 0)
(1.17437 0.303919 0)
(1.08284 0.328377 0)
(0.974323 0.359377 0)
(0.845582 0.447601 0)
(0.720141 0.565274 0)
(0.629941 0.616354 0)
(0.596244 0.607384 0)
(0.590933 0.570608 0)
(0.589896 0.515856 0)
(0.581196 0.459877 0)
(0.561677 0.403818 0)
(0.528003 0.348311 0)
(0.46927 0.292589 0)
(0.365494 0.228431 0)
(0.235121 0.162434 0)
(0.17049 0.136599 0)
(0.161385 0.13248 0)
(0.164614 0.131 0)
(0.168231 0.129436 0)
(0.168985 0.12883 0)
(0.107177 0.128905 0)
(-0.0861854 0.131202 0)
(-0.205427 0.131009 0)
(-0.245126 0.131103 0)
(-0.265591 0.132395 0)
(-0.282038 0.138489 0)
(-0.298019 0.140774 0)
(-0.308823 0.147422 0)
(-0.319619 0.143756 0)
(-0.323098 0.14842 0)
(-0.331886 0.137602 0)
(1.20808 0.425861 0)
(1.20674 0.428386 0)
(1.20925 0.423834 0)
(1.21126 0.415926 0)
(1.20555 0.41061 0)
(1.18987 0.406109 0)
(1.165 0.397424 0)
(1.13246 0.381654 0)
(1.07764 0.374568 0)
(0.994402 0.394715 0)
(0.887054 0.4272 0)
(0.749887 0.493535 0)
(0.62203 0.600589 0)
(0.541904 0.661889 0)
(0.517843 0.657819 0)
(0.521549 0.628147 0)
(0.532934 0.574548 0)
(0.536443 0.517974 0)
(0.52852 0.460228 0)
(0.507027 0.403353 0)
(0.469977 0.346517 0)
(0.406476 0.278943 0)
(0.29932 0.198835 0)
(0.195414 0.15628 0)
(0.16205 0.137697 0)
(0.160006 0.131559 0)
(0.164185 0.129068 0)
(0.168025 0.126113 0)
(0.169908 0.124708 0)
(0.107477 0.122209 0)
(-0.0872833 0.116574 0)
(-0.205308 0.110687 0)
(-0.242204 0.111658 0)
(-0.261196 0.118876 0)
(-0.275836 0.133062 0)
(-0.291567 0.142377 0)
(-0.301141 0.155495 0)
(-0.313561 0.157681 0)
(-0.318278 0.163927 0)
(-0.327415 0.15338 0)
(1.04184 0.456064 0)
(1.04457 0.455251 0)
(1.05078 0.453275 0)
(1.05057 0.455456 0)
(1.03906 0.460761 0)
(1.01851 0.462311 0)
(0.990808 0.454984 0)
(0.945167 0.443177 0)
(0.86656 0.452151 0)
(0.758429 0.488532 0)
(0.621684 0.552052 0)
(0.496572 0.64442 0)
(0.43821 0.705313 0)
(0.428797 0.701339 0)
(0.442935 0.672234 0)
(0.467402 0.618859 0)
(0.482883 0.558139 0)
(0.482266 0.496941 0)
(0.465898 0.436262 0)
(0.439945 0.368632 0)
(0.401163 0.290187 0)
(0.324571 0.212987 0)
(0.219845 0.13514 0)
(0.164709 0.0745885 0)
(0.15269 0.0532696 0)
(0.154142 0.0433141 0)
(0.159275 0.0365766 0)
(0.164093 0.0293269 0)
(0.166777 0.024773 0)
(0.0921822 0.00972773 0)
(-0.100708 -0.00960305 0)
(-0.200667 -0.00652895 0)
(-0.226936 0.0129354 0)
(-0.241247 0.0441007 0)
(-0.252576 0.081866 0)
(-0.273056 0.113079 0)
(-0.28559 0.144499 0)
(-0.304236 0.161204 0)
(-0.311926 0.175973 0)
(-0.324127 0.169544 0)
(0.82732 0.482287 0)
(0.840505 0.481874 0)
(0.846009 0.493417 0)
(0.841939 0.504844 0)
(0.830325 0.508656 0)
(0.809397 0.503438 0)
(0.766961 0.494201 0)
(0.687651 0.512574 0)
(0.580412 0.567731 0)
(0.460717 0.635823 0)
(0.362522 0.698307 0)
(0.33007 0.734321 0)
(0.341727 0.725949 0)
(0.36768 0.691953 0)
(0.394644 0.641173 0)
(0.408062 0.579363 0)
(0.403202 0.505611 0)
(0.38918 0.417709 0)
(0.376022 0.318316 0)
(0.352014 0.219383 0)
(0.30086 0.124566 0)
(0.228392 0.019578 0)
(0.165812 -0.0621965 0)
(0.142229 -0.0970798 0)
(0.14142 -0.112039 0)
(0.145773 -0.122251 0)
(0.153218 -0.128676 0)
(0.159764 -0.136269 0)
(0.160309 -0.141735 0)
(0.0747337 -0.153919 0)
(-0.0962982 -0.151356 0)
(-0.178108 -0.123455 0)
(-0.196667 -0.0857026 0)
(-0.206608 -0.0416495 0)
(-0.213137 0.00560821 0)
(-0.230626 0.0519378 0)
(-0.248431 0.103999 0)
(-0.274383 0.147805 0)
(-0.291626 0.17895 0)
(-0.313513 0.184538 0)
(0.575769 0.495334 0)
(0.588699 0.492904 0)
(0.589151 0.497476 0)
(0.580344 0.501933 0)
(0.55575 0.505896 0)
(0.508187 0.522579 0)
(0.447466 0.567981 0)
(0.375856 0.63394 0)
(0.302829 0.694019 0)
(0.251906 0.732285 0)
(0.236036 0.74387 0)
(0.247225 0.727655 0)
(0.26908 0.680866 0)
(0.292371 0.606752 0)
(0.305605 0.515586 0)
(0.310462 0.414723 0)
(0.316296 0.312748 0)
(0.31104 0.218064 0)
(0.297458 0.133736 0)
(0.268985 0.0521838 0)
(0.222212 -0.0443612 0)
(0.160746 -0.1283 0)
(0.129112 -0.170534 0)
(0.127581 -0.187031 0)
(0.132118 -0.196935 0)
(0.138569 -0.205523 0)
(0.147883 -0.209341 0)
(0.155427 -0.215394 0)
(0.153838 -0.21934 0)
(0.0737009 -0.219804 0)
(-0.0707532 -0.201899 0)
(-0.143473 -0.168877 0)
(-0.159574 -0.128081 0)
(-0.170528 -0.083797 0)
(-0.171415 -0.0382727 0)
(-0.186998 0.00779957 0)
(-0.198243 0.0625945 0)
(-0.228632 0.117763 0)
(-0.250633 0.17008 0)
(-0.286038 0.195923 0)
(0.296461 0.489324 0)
(0.287791 0.501446 0)
(0.279509 0.508955 0)
(0.262447 0.526394 0)
(0.243214 0.560317 0)
(0.214723 0.606758 0)
(0.176367 0.646014 0)
(0.142526 0.666793 0)
(0.131873 0.677464 0)
(0.132986 0.663781 0)
(0.14574 0.617372 0)
(0.168052 0.545267 0)
(0.192769 0.462733 0)
(0.217429 0.381116 0)
(0.240219 0.304095 0)
(0.239246 0.230965 0)
(0.241535 0.161185 0)
(0.238446 0.0900907 0)
(0.231504 0.0109048 0)
(0.196546 -0.0695086 0)
(0.143709 -0.140137 0)
(0.112892 -0.186877 0)
(0.111254 -0.208408 0)
(0.11752 -0.219514 0)
(0.124722 -0.228014 0)
(0.132441 -0.236188 0)
(0.142926 -0.238895 0)
(0.152155 -0.243785 0)
(0.15065 -0.245996 0)
(0.0856587 -0.239571 0)
(-0.0347972 -0.212666 0)
(-0.101763 -0.175352 0)
(-0.115601 -0.130938 0)
(-0.128097 -0.0849877 0)
(-0.123169 -0.03803 0)
(-0.140864 0.00557097 0)
(-0.142694 0.0576941 0)
(-0.173336 0.111394 0)
(-0.192105 0.16687 0)
(-0.232891 0.193809 0)
(0.051644 0.497979 0)
(0.0553056 0.485245 0)
(0.0557186 0.47068 0)
(0.0515456 0.464292 0)
(0.0522012 0.459188 0)
(0.0609587 0.449472 0)
(0.0739897 0.439071 0)
(0.0841532 0.4344 0)
(0.0898806 0.425481 0)
(0.0953181 0.407093 0)
(0.107332 0.376318 0)
(0.127054 0.339075 0)
(0.145648 0.298423 0)
(0.156381 0.247327 0)
(0.170951 0.187627 0)
(0.180552 0.12228 0)
(0.189421 0.0560061 0)
(0.180533 -0.00378654 0)
(0.153861 -0.0652627 0)
(0.116842 -0.136068 0)
(0.0915481 -0.188007 0)
(0.0912869 -0.215428 0)
(0.0991918 -0.229108 0)
(0.107937 -0.239458 0)
(0.117022 -0.246904 0)
(0.126217 -0.254934 0)
(0.138275 -0.257264 0)
(0.149494 -0.261521 0)
(0.150786 -0.262448 0)
(0.105415 -0.253297 0)
(0.00694372 -0.221836 0)
(-0.0571107 -0.183379 0)
(-0.0703332 -0.140367 0)
(-0.0857041 -0.0984885 0)
(-0.0781814 -0.0499646 0)
(-0.0958705 0.00252721 0)
(-0.0906431 0.0651886 0)
(-0.117376 0.129572 0)
(-0.126193 0.182121 0)
(-0.157914 0.203363 0)
(-0.0823354 0.460747 0)
(-0.0643864 0.426813 0)
(-0.0543729 0.39736 0)
(-0.0390487 0.374206 0)
(-0.0203394 0.353825 0)
(0.000431117 0.334292 0)
(0.0244631 0.322259 0)
(0.0527499 0.312085 0)
(0.0684885 0.298544 0)
(0.0794048 0.287031 0)
(0.0790204 0.274512 0)
(0.0846352 0.246926 0)
(0.0968032 0.201499 0)
(0.106234 0.151276 0)
(0.117595 0.0990246 0)
(0.123429 0.0451443 0)
(0.120942 -0.0096525 0)
(0.106896 -0.0744079 0)
(0.0824151 -0.143684 0)
(0.0659634 -0.192537 0)
(0.0687586 -0.220988 0)
(0.0785832 -0.235514 0)
(0.0892637 -0.247256 0)
(0.099587 -0.257236 0)
(0.110402 -0.26355 0)
(0.121602 -0.271175 0)
(0.135706 -0.272977 0)
(0.149614 -0.276448 0)
(0.155535 -0.275519 0)
(0.128255 -0.265867 0)
(0.0506432 -0.231762 0)
(-0.0123655 -0.190154 0)
(-0.0246435 -0.140504 0)
(-0.0377402 -0.0944851 0)
(-0.0274518 -0.042656 0)
(-0.0433319 0.0119937 0)
(-0.0340377 0.072892 0)
(-0.0507914 0.137142 0)
(-0.0516682 0.188126 0)
(-0.0757858 0.209193 0)
(-0.158663 0.454272 0)
(-0.123871 0.412494 0)
(-0.1082 0.374244 0)
(-0.0837512 0.347534 0)
(-0.0596141 0.325399 0)
(-0.0322305 0.304117 0)
(0.00421667 0.284653 0)
(0.0429376 0.26322 0)
(0.0641479 0.241311 0)
(0.0732638 0.219361 0)
(0.0655385 0.193921 0)
(0.0555073 0.159573 0)
(0.0556275 0.117097 0)
(0.0591354 0.0687857 0)
(0.0645761 0.0210072 0)
(0.0649128 -0.0305526 0)
(0.0581172 -0.0912671 0)
(0.0438336 -0.154123 0)
(0.0354537 -0.200173 0)
(0.0417191 -0.22604 0)
(0.0548165 -0.239578 0)
(0.0683283 -0.251029 0)
(0.0806316 -0.262339 0)
(0.0923617 -0.272025 0)
(0.104795 -0.277224 0)
(0.117431 -0.284266 0)
(0.13246 -0.285569 0)
(0.147501 -0.288819 0)
(0.157316 -0.287017 0)
(0.144723 -0.280586 0)
(0.0915366 -0.247971 0)
(0.0327717 -0.202321 0)
(0.0172549 -0.15443 0)
(0.0122835 -0.110958 0)
(0.024066 -0.0582561 0)
(0.0175188 0.00355021 0)
(0.0276845 0.0745716 0)
(0.0204932 0.152028 0)
(0.0237833 0.212295 0)
(0.00491585 0.235063 0)
(-0.193654 0.446102 0)
(-0.157708 0.403083 0)
(-0.141785 0.364337 0)
(-0.116093 0.338719 0)
(-0.0899676 0.311966 0)
(-0.0587296 0.280232 0)
(-0.0182225 0.25137 0)
(0.0193925 0.221287 0)
(0.0375415 0.19181 0)
(0.0383598 0.163873 0)
(0.0201596 0.130721 0)
(0.00267644 0.0863357 0)
(0.00174508 0.0396445 0)
(0.00684454 -0.00693378 0)
(0.0125868 -0.0559491 0)
(0.00983631 -0.110645 0)
(0.00218955 -0.165496 0)
(0.000469957 -0.205944 0)
(0.0100065 -0.229236 0)
(0.0260357 -0.243067 0)
(0.0431389 -0.253439 0)
(0.0595456 -0.263901 0)
(0.0738121 -0.274677 0)
(0.0873778 -0.283969 0)
(0.101729 -0.288092 0)
(0.116275 -0.294199 0)
(0.132496 -0.294596 0)
(0.148863 -0.297161 0)
(0.163195 -0.294731 0)
(0.161975 -0.288681 0)
(0.133153 -0.261611 0)
(0.0846522 -0.215302 0)
(0.0660001 -0.158866 0)
(0.0709298 -0.105438 0)
(0.081181 -0.0480146 0)
(0.0868523 0.0141489 0)
(0.0928664 0.0803113 0)
(0.0986615 0.151429 0)
(0.104251 0.211974 0)
(0.0785145 0.234885 0)
(-0.196866 0.458648 0)
(-0.176573 0.435126 0)
(-0.173058 0.394226 0)
(-0.148926 0.359829 0)
(-0.123487 0.323376 0)
(-0.0918271 0.286271 0)
(-0.0522421 0.252495 0)
(-0.0194118 0.209913 0)
(-0.000794563 0.161462 0)
(0.000787731 0.109879 0)
(-0.018114 0.0546101 0)
(-0.0332647 0.000606761 0)
(-0.0310736 -0.0457637 0)
(-0.0272333 -0.0908129 0)
(-0.0271063 -0.136903 0)
(-0.0318594 -0.179301 0)
(-0.0305671 -0.20919 0)
(-0.0205576 -0.230431 0)
(-0.00466996 -0.245098 0)
(0.0129445 -0.254881 0)
(0.0309239 -0.265148 0)
(0.0493781 -0.275405 0)
(0.0662322 -0.285449 0)
(0.081445 -0.294117 0)
(0.0965616 -0.297576 0)
(0.111234 -0.303324 0)
(0.127109 -0.303601 0)
(0.143228 -0.306088 0)
(0.159329 -0.304976 0)
(0.167623 -0.301776 0)
(0.162239 -0.282514 0)
(0.135214 -0.244187 0)
(0.116943 -0.189662 0)
(0.131593 -0.13287 0)
(0.141273 -0.066149 0)
(0.160296 0.00536848 0)
(0.160151 0.0852406 0)
(0.178764 0.168171 0)
(0.182963 0.254399 0)
(0.119993 0.291961 0)
(-0.300997 0.442522 0)
(-0.243423 0.460248 0)
(-0.229091 0.416966 0)
(-0.18716 0.382408 0)
(-0.159942 0.338874 0)
(-0.128769 0.300726 0)
(-0.0963445 0.260726 0)
(-0.0757062 0.207677 0)
(-0.0664838 0.14074 0)
(-0.0728638 0.0683991 0)
(-0.0883629 -0.00186145 0)
(-0.0929562 -0.0590418 0)
(-0.0847477 -0.1039 0)
(-0.0764356 -0.144957 0)
(-0.0687608 -0.180865 0)
(-0.0610464 -0.207375 0)
(-0.0491901 -0.228155 0)
(-0.0331674 -0.242062 0)
(-0.0157848 -0.253369 0)
(0.00319182 -0.264756 0)
(0.0226034 -0.277254 0)
(0.042919 -0.288181 0)
(0.0628532 -0.296418 0)
(0.0808303 -0.302605 0)
(0.097707 -0.303976 0)
(0.113627 -0.308423 0)
(0.129905 -0.308113 0)
(0.146178 -0.309924 0)
(0.162244 -0.308931 0)
(0.175932 -0.307963 0)
(0.183406 -0.295905 0)
(0.178782 -0.264629 0)
(0.172325 -0.211148 0)
(0.183459 -0.145433 0)
(0.19002 -0.070516 0)
(0.215814 0.00599899 0)
(0.215187 0.087827 0)
(0.259618 0.167707 0)
(0.290982 0.280592 0)
(0.230921 0.334 0)
(-0.598671 0.718518 0)
(-0.298052 0.499672 0)
(-0.265278 0.393957 0)
(-0.219132 0.392867 0)
(-0.187103 0.381762 0)
(-0.154514 0.350112 0)
(-0.132356 0.29384 0)
(-0.114128 0.210271 0)
(-0.109179 0.109869 0)
(-0.117353 0.00873732 0)
(-0.119166 -0.0699806 0)
(-0.113075 -0.125312 0)
(-0.103136 -0.167057 0)
(-0.093313 -0.199122 0)
(-0.0792614 -0.221125 0)
(-0.0631754 -0.236905 0)
(-0.0458998 -0.24737 0)
(-0.0285209 -0.257505 0)
(-0.0112506 -0.268696 0)
(0.00594249 -0.280244 0)
(0.0221609 -0.292337 0)
(0.0383203 -0.302164 0)
(0.0545059 -0.308347 0)
(0.0704416 -0.312507 0)
(0.0866469 -0.312725 0)
(0.102605 -0.316446 0)
(0.118886 -0.315975 0)
(0.135098 -0.317439 0)
(0.151224 -0.316318 0)
(0.167096 -0.316619 0)
(0.182543 -0.311081 0)
(0.197088 -0.293783 0)
(0.199409 -0.251353 0)
(0.204666 -0.180399 0)
(0.209471 -0.0973374 0)
(0.23716 -0.0137445 0)
(0.235465 0.0630034 0)
(0.293083 0.10651 0)
(0.336485 0.221111 0)
(0.410257 0.404151 0)
(-0.598671 -0.718518 0)
(-0.298052 -0.499672 0)
(-0.265278 -0.393957 0)
(-0.219132 -0.392867 0)
(-0.187103 -0.381762 0)
(-0.154514 -0.350112 0)
(-0.132356 -0.29384 0)
(-0.114128 -0.210271 0)
(-0.109179 -0.109869 0)
(-0.117353 -0.00873732 0)
(-0.119166 0.0699806 0)
(-0.113075 0.125312 0)
(-0.103136 0.167057 0)
(-0.093313 0.199122 0)
(-0.0792614 0.221125 0)
(-0.0631754 0.236905 0)
(-0.0458998 0.24737 0)
(-0.0285209 0.257505 0)
(-0.0112506 0.268696 0)
(0.00594249 0.280244 0)
(0.0221609 0.292337 0)
(0.0383203 0.302164 0)
(0.0545059 0.308347 0)
(0.0704416 0.312507 0)
(0.0866469 0.312725 0)
(0.102605 0.316446 0)
(0.118886 0.315975 0)
(0.135098 0.317439 0)
(0.151224 0.316318 0)
(0.167096 0.316619 0)
(0.182543 0.311081 0)
(0.197088 0.293783 0)
(0.199409 0.251353 0)
(0.204666 0.180399 0)
(0.209471 0.0973374 0)
(0.23716 0.0137445 0)
(0.235465 -0.0630034 0)
(0.293083 -0.10651 0)
(0.336485 -0.221111 0)
(0.410257 -0.404151 0)
(-0.300997 -0.442522 0)
(-0.243423 -0.460248 0)
(-0.229091 -0.416966 0)
(-0.18716 -0.382408 0)
(-0.159942 -0.338874 0)
(-0.128769 -0.300726 0)
(-0.0963445 -0.260726 0)
(-0.0757062 -0.207677 0)
(-0.0664838 -0.14074 0)
(-0.0728638 -0.0683991 0)
(-0.0883629 0.00186145 0)
(-0.0929562 0.0590418 0)
(-0.0847477 0.1039 0)
(-0.0764356 0.144957 0)
(-0.0687608 0.180865 0)
(-0.0610464 0.207375 0)
(-0.0491901 0.228155 0)
(-0.0331674 0.242062 0)
(-0.0157848 0.253369 0)
(0.00319182 0.264756 0)
(0.0226034 0.277254 0)
(0.042919 0.288181 0)
(0.0628532 0.296418 0)
(0.0808303 0.302605 0)
(0.097707 0.303976 0)
(0.113627 0.308423 0)
(0.129905 0.308113 0)
(0.146178 0.309924 0)
(0.162244 0.308931 0)
(0.175932 0.307963 0)
(0.183406 0.295905 0)
(0.178782 0.264629 0)
(0.172325 0.211148 0)
(0.183459 0.145433 0)
(0.19002 0.070516 0)
(0.215814 -0.00599899 0)
(0.215187 -0.087827 0)
(0.259618 -0.167707 0)
(0.290982 -0.280592 0)
(0.230921 -0.334 0)
(-0.196866 -0.458648 0)
(-0.176573 -0.435126 0)
(-0.173058 -0.394226 0)
(-0.148926 -0.359829 0)
(-0.123487 -0.323376 0)
(-0.0918271 -0.286271 0)
(-0.0522421 -0.252495 0)
(-0.0194118 -0.209913 0)
(-0.000794563 -0.161462 0)
(0.000787731 -0.109879 0)
(-0.018114 -0.0546101 0)
(-0.0332647 -0.000606761 0)
(-0.0310736 0.0457637 0)
(-0.0272333 0.0908129 0)
(-0.0271063 0.136903 0)
(-0.0318594 0.179301 0)
(-0.0305671 0.20919 0)
(-0.0205576 0.230431 0)
(-0.00466996 0.245098 0)
(0.0129445 0.254881 0)
(0.0309239 0.265148 0)
(0.0493781 0.275405 0)
(0.0662322 0.285449 0)
(0.081445 0.294117 0)
(0.0965616 0.297576 0)
(0.111234 0.303324 0)
(0.127109 0.303601 0)
(0.143228 0.306088 0)
(0.159329 0.304976 0)
(0.167623 0.301776 0)
(0.162239 0.282514 0)
(0.135214 0.244187 0)
(0.116943 0.189662 0)
(0.131593 0.13287 0)
(0.141273 0.066149 0)
(0.160296 -0.00536848 0)
(0.160151 -0.0852406 0)
(0.178764 -0.168171 0)
(0.182963 -0.254399 0)
(0.119993 -0.291961 0)
(-0.193654 -0.446102 0)
(-0.157708 -0.403083 0)
(-0.141785 -0.364337 0)
(-0.116093 -0.338719 0)
(-0.0899676 -0.311966 0)
(-0.0587296 -0.280232 0)
(-0.0182225 -0.25137 0)
(0.0193925 -0.221287 0)
(0.0375415 -0.19181 0)
(0.0383598 -0.163873 0)
(0.0201596 -0.130721 0)
(0.00267644 -0.0863357 0)
(0.00174508 -0.0396445 0)
(0.00684454 0.00693378 0)
(0.0125868 0.0559491 0)
(0.00983631 0.110645 0)
(0.00218955 0.165496 0)
(0.000469957 0.205944 0)
(0.0100065 0.229236 0)
(0.0260357 0.243067 0)
(0.0431389 0.253439 0)
(0.0595456 0.263901 0)
(0.0738121 0.274677 0)
(0.0873778 0.283969 0)
(0.101729 0.288092 0)
(0.116275 0.294199 0)
(0.132496 0.294596 0)
(0.148863 0.297161 0)
(0.163195 0.294731 0)
(0.161975 0.288681 0)
(0.133153 0.261611 0)
(0.0846522 0.215302 0)
(0.0660001 0.158866 0)
(0.0709298 0.105438 0)
(0.081181 0.0480146 0)
(0.0868523 -0.0141489 0)
(0.0928664 -0.0803113 0)
(0.0986615 -0.151429 0)
(0.104251 -0.211974 0)
(0.0785145 -0.234885 0)
(-0.158663 -0.454272 0)
(-0.123871 -0.412494 0)