/*--------------------------------*- C++ -*----------------------------------*\
| =========                 |                                                 |
| \\      /  F ield         | OpenFOAM: The Open Source CFD Toolbox           |
|  \\    /   O peration     | Version:  v1912                                 |
|   \\  /    A nd           | Website:  www.openfoam.com                      |
|    \\/     M anipulation  |                                                 |
\*---------------------------------------------------------------------------*/
FoamFile
{
    version     2.0;
    format      ascii;
    class       volScalarField;
    location    "8.38";
    object      T;
}
// * * * * * * * * * * * * * * * * * * * * * * * * * * * * * * * * * * * * * //

dimensions      [0 0 0 1 0 0 0];


internalField   nonuniform List<scalar> 
1900
(
1.23784
1.0555
0.967407
0.933772
0.925632
0.925536
0.92965
0.937597
0.94554
0.951653
1.23784
1.0555
0.967408
0.933777
0.925631
0.925524
0.92967
0.937755
0.945935
0.951352
1.23784
1.0555
0.967409
0.93378
0.925631
0.925523
0.92966
0.937786
0.945681
0.95075
1.23784
1.0555
0.967408
0.933777
0.925631
0.925524
0.92967
0.937755
0.945935
0.951352
1.23784
1.0555
0.967407
0.933772
0.925632
0.925536
0.92965
0.937597
0.94554
0.951653
0.958906
0.954982
0.958189
0.966829
1.00693
0.953661
0.951697
0.954486
0.961636
0.989094
0.952559
0.950953
0.953714
0.961635
0.98732
0.953661
0.951697
0.954486
0.961636
0.989094
0.958906
0.954982
0.958189
0.966829
1.00693
0.797156
0.680798
0.615777
0.570044
0.537951
0.817341
0.69741
0.628916
0.583371
0.544142
0.817304
0.691773
0.622635
0.578556
0.534701
0.817341
0.69741
0.628916
0.583371
0.544142
0.797156
0.680798
0.615777
0.570044
0.537951
0.506555
0.486366
0.475832
0.469142
0.464143
0.458544
0.451646
0.443872
0.430899
0.42288
0.425339
0.451177
0.515114
0.547133
0.561397
0.56879
0.577427
0.580091
0.574425
0.556768
0.531329
0.510099
0.492692
0.467594
0.42047
0.362874
0.3415
0.338562
0.339727
0.370814
0.421487
0.445334
0.455985
0.466318
0.479969
0.494579
0.504417
0.507669
0.507815
0.506092
0.525998
0.52747
0.522299
0.512983
0.501913
0.488939
0.476658
0.466025
0.450008
0.438186
0.4395
0.466502
0.530738
0.560269
0.571207
0.575142
0.580463
0.581148
0.574676
0.556786
0.531765
0.510418
0.49302
0.468268
0.421181
0.363141
0.341516
0.338559
0.339725
0.370816
0.421484
0.445321
0.45597
0.466299
0.479948
0.494562
0.504393
0.507621
0.507758
0.506037
0.526815
0.531736
0.532948
0.528048
0.517833
0.503451
0.48809
0.475819
0.458077
0.444356
0.445366
0.472231
0.536377
0.565576
0.574958
0.577623
0.581882
0.581907
0.575121
0.556852
0.534476
0.513452
0.4946
0.468674
0.421079
0.363035
0.341511
0.338557
0.339725
0.370822
0.421485
0.445313
0.455961
0.466289
0.479937
0.494555
0.504386
0.507597
0.507719
0.505982
0.525998
0.52747
0.522299
0.512983
0.501913
0.488939
0.476658
0.466025
0.450008
0.438186
0.4395
0.466502
0.530738
0.560269
0.571207
0.575142
0.580463
0.581148
0.574676
0.556786
0.531765
0.510418
0.49302
0.468268
0.421181
0.363141
0.341516
0.338559
0.339725
0.370816
0.421484
0.445321
0.45597
0.466299
0.479948
0.494562
0.504393
0.507621
0.507758
0.506037
0.506555
0.486366
0.475832
0.469142
0.464143
0.458544
0.451646
0.443872
0.430899
0.42288
0.425339
0.451177
0.515114
0.547133
0.561397
0.56879
0.577427
0.580091
0.574425
0.556768
0.531329
0.510099
0.492692
0.467594
0.42047
0.362874
0.3415
0.338562
0.339727
0.370814
0.421487
0.445334
0.455985
0.466318
0.479969
0.494579
0.504417
0.507669
0.507815
0.506092
0.403708
0.399195
0.393908
0.394154
0.39521
0.395551
0.396782
0.396228
0.391606
0.389268
0.391668
0.41815
0.480908
0.518174
0.539282
0.557543
0.579157
0.587621
0.582887
0.562639
0.533262
0.509622
0.49124
0.466183
0.419068
0.361933
0.341422
0.338577
0.339732
0.370769
0.421479
0.445374
0.456024
0.46634
0.479976
0.494577
0.504481
0.507828
0.507997
0.50627
0.336635
0.335186
0.331971
0.332228
0.333857
0.33657
0.341364
0.345014
0.346595
0.349781
0.356088
0.388577
0.445371
0.48635
0.513248
0.536234
0.563624
0.571933
0.566937
0.549531
0.525347
0.505295
0.487729
0.461596
0.413238
0.359039
0.341251
0.338625
0.339754
0.370653
0.421478
0.445514
0.456178
0.466459
0.480054
0.494616
0.504546
0.507966
0.508144
0.506371
0.330607
0.332339
0.334098
0.334819
0.335324
0.336102
0.33645
0.336336
0.337208
0.339604
0.347363
0.386086
0.433027
0.472728
0.499773
0.527298
0.557016
0.562888
0.556235
0.538664
0.517729
0.50056
0.483126
0.454884
0.404807
0.355367
0.341109
0.338741
0.339833
0.37051
0.421464
0.445721
0.45643
0.466674
0.480219
0.49474
0.504651
0.50808
0.508267
0.506545
0.329272
0.329271
0.330086
0.330701
0.330591
0.330474
0.328682
0.327366
0.330865
0.337506
0.350836
0.386455
0.424317
0.461723
0.491546
0.525404
0.553167
0.554127
0.544443
0.526791
0.509494
0.494557
0.4764
0.445456
0.394385
0.351765
0.341091
0.338953
0.340008
0.370464
0.421562
0.446048
0.456801
0.466989
0.48046
0.494931
0.504828
0.508232
0.508432
0.506823
0.332872
0.332748
0.332845
0.332688
0.332282
0.332035
0.329643
0.330201
0.334805
0.344212
0.365348
0.395957
0.429891
0.466321
0.496767
0.531901
0.548046
0.544003
0.531408
0.515544
0.501383
0.487235
0.467451
0.433426
0.382867
0.348738
0.341167
0.339194
0.340187
0.370264
0.421408
0.446131
0.456941
0.467068
0.480477
0.494941
0.504913
0.50838
0.50863
0.507136
0.337569
0.337465
0.337306
0.336904
0.336554
0.335871
0.335176
0.338541
0.345368
0.356459
0.377952
0.40792
0.442782
0.474331
0.507723
0.538002
0.540011
0.5321
0.518542
0.505158
0.492884
0.478246
0.456157
0.419021
0.371409
0.346447
0.341183
0.339286
0.340231
0.370058
0.421206
0.4461
0.456934
0.466995
0.480359
0.494839
0.504931
0.508496
0.508807
0.507413
0.343915
0.343811
0.343597
0.342989
0.342939
0.343336
0.345253
0.350798
0.361295
0.375779
0.397056
0.426966
0.458129
0.488868
0.524046
0.534079
0.528672
0.518128
0.506163
0.495189
0.483288
0.467197
0.442329
0.402903
0.36144
0.344807
0.340939
0.339077
0.339926
0.369247
0.420579
0.446081
0.457156
0.467096
0.480208
0.494562
0.504795
0.508572
0.508995
0.507682
0.354599
0.354588
0.354611
0.354815
0.355923
0.358001
0.361812
0.368933
0.380248
0.395921
0.41978
0.44915
0.478107
0.510794
0.525219
0.522536
0.5149
0.50447
0.494579
0.48456
0.471962
0.454466
0.427246
0.387374
0.355427
0.345287
0.342242
0.340473
0.341353
0.37075
0.422799
0.449072
0.460434
0.470145
0.482793
0.496202
0.505416
0.508815
0.509251
0.508021
0.373482
0.373644
0.373886
0.374218
0.37504
0.377054
0.381687
0.390307
0.403585
0.423144
0.449227
0.474768
0.498884
0.514254
0.51527
0.510112
0.500912
0.492283
0.484707
0.476016
0.463814
0.445618
0.416852
0.378981
0.357379
0.351959
0.349678
0.348361
0.349839
0.382569
0.439055
0.466051
0.475493
0.481625
0.490659
0.501453
0.509003
0.510711
0.509972
0.508495
0.401565
0.401526
0.400397
0.39976
0.400826
0.404539
0.411528
0.421394
0.434871
0.453807
0.475042
0.491532
0.505148
0.508592
0.503151
0.494825
0.489949
0.487322
0.483805
0.47807
0.470057
0.454423
0.42624
0.400926
0.392182
0.390285
0.389105
0.38873
0.392688
0.433997
0.488462
0.507972
0.511388
0.511148
0.514021
0.517926
0.51896
0.51674
0.51273
0.509685
0.437104
0.435496
0.43416
0.43473
0.436825
0.440298
0.4446
0.451323
0.464777
0.481252
0.488911
0.493948
0.49611
0.49258
0.492655
0.496075
0.500056
0.504874
0.508859
0.508512
0.50044
0.480738
0.453984
0.438508
0.434568
0.432965
0.431315
0.43077
0.436456
0.47678
0.521027
0.535288
0.537555
0.536049
0.537831
0.540081
0.538217
0.529337
0.519092
0.512474
0.47443
0.471323
0.470377
0.46922
0.466408
0.463492
0.464103
0.471484
0.481285
0.486915
0.489392
0.493109
0.498921
0.507712
0.520379
0.533095
0.541803
0.544071
0.54081
0.531644
0.512481
0.484854
0.463939
0.456838
0.454299
0.452372
0.450354
0.449795
0.45579
0.490523
0.528187
0.542322
0.546383
0.54533
0.548083
0.551803
0.552783
0.544752
0.530219
0.518803
0.505628
0.50444
0.501368
0.498688
0.499139
0.503806
0.507394
0.507094
0.507214
0.511033
0.519866
0.532709
0.54543
0.556631
0.564097
0.566454
0.563574
0.555979
0.543278
0.525171
0.500266
0.478186
0.468863
0.465883
0.463805
0.461948
0.459991
0.459731
0.465161
0.493968
0.528172
0.543457
0.549173
0.548901
0.551953
0.555684
0.557121
0.552743
0.540621
0.528526
0.531691
0.536808
0.54206
0.547571
0.554122
0.561549
0.56881
0.574348
0.577238
0.576532
0.575222
0.576259
0.577997
0.578157
0.574851
0.567378
0.55856
0.547943
0.531669
0.509217
0.488656
0.47887
0.476052
0.474456
0.472734
0.4711
0.469337
0.469234
0.473532
0.495675
0.526488
0.542508
0.549005
0.548885
0.551239
0.554166
0.555564
0.553628
0.546326
0.537167
0.545506
0.550833
0.559846
0.566818
0.574336
0.582791
0.591499
0.599661
0.603004
0.601126
0.594931
0.587669
0.581772
0.575891
0.568649
0.559885
0.548612
0.53431
0.516441
0.498901
0.490133
0.487609
0.486784
0.485746
0.484304
0.482941
0.481426
0.481159
0.484753
0.50053
0.527732
0.544306
0.551295
0.550733
0.551487
0.552416
0.552729
0.551589
0.54692
0.540629
0.545742
0.548271
0.556683
0.563467
0.571809
0.581169
0.591357
0.601404
0.606167
0.605101
0.599216
0.589051
0.578183
0.568483
0.5598
0.550764
0.538772
0.523507
0.509171
0.502199
0.500313
0.500116
0.499644
0.498728
0.49744
0.496292
0.495015
0.494505
0.497334
0.507265
0.529463
0.546771
0.554255
0.553191
0.551649
0.550857
0.549842
0.548433
0.54614
0.542205
0.540997
0.541371
0.548729
0.556049
0.565911
0.576895
0.588883
0.600248
0.606433
0.605242
0.597116
0.583934
0.571638
0.562154
0.553297
0.542482
0.529128
0.517783
0.5124
0.510733
0.510588
0.510328
0.509591
0.508542
0.507318
0.50633
0.505318
0.504713
0.506434
0.51213
0.528235
0.546888
0.555461
0.554662
0.55187
0.549327
0.546645
0.544041
0.542424
0.539795
0.535213
0.532659
0.538072
0.544668
0.555643
0.567234
0.580127
0.591347
0.597571
0.596842
0.587396
0.57323
0.561786
0.552833
0.543022
0.531975
0.523184
0.518341
0.516391
0.51585
0.515398
0.51454
0.513369
0.512177
0.511054
0.510208
0.509479
0.509042
0.509484
0.513359
0.522459
0.538081
0.549902
0.552662
0.550794
0.547962
0.544058
0.540923
0.53874
0.53309
0.491908
0.513727
0.528997
0.532357
0.541523
0.552773
0.565809
0.576575
0.58204
0.580039
0.569348
0.557205
0.548043
0.539476
0.531043
0.52457
0.520418
0.518382
0.517489
0.516922
0.516107
0.514877
0.513482
0.512265
0.511282
0.510568
0.510041
0.509744
0.509777
0.511193
0.515426
0.524733
0.536493
0.544013
0.545757
0.545401
0.542175
0.53871
0.530396
0.504864
0.373557
0.455601
0.518426
0.525121
0.531851
0.540695
0.55155
0.559095
0.561935
0.55608
0.545643
0.53721
0.530998
0.52589
0.521706
0.518906
0.517251
0.516408
0.515727
0.514918
0.513859
0.512573
0.511278
0.510242
0.509519
0.509076
0.508782
0.508677
0.508708
0.509218
0.510882
0.515674
0.524017
0.533971
0.538813
0.541326
0.539265
0.533027
0.50577
0.439149
0.373557
0.455601
0.518426
0.525121
0.531851
0.540695
0.55155
0.559095
0.561935
0.55608
0.545643
0.53721
0.530998
0.52589
0.521706
0.518906
0.517251
0.516408
0.515727
0.514918
0.513859
0.512573
0.511278
0.510242
0.509519
0.509076
0.508782
0.508677
0.508708
0.509218
0.510882
0.515674
0.524017
0.533971
0.538813
0.541326
0.539265
0.533027
0.50577
0.439149
0.491908
0.513727
0.528997
0.532357
0.541523
0.552773
0.565809
0.576575
0.58204
0.580039
0.569348
0.557205
0.548043
0.539476
0.531043
0.52457
0.520418
0.518382
0.517489
0.516922
0.516107
0.514877
0.513482
0.512265
0.511282
0.510568
0.510041
0.509744
0.509777
0.511193
0.515426
0.524733
0.536493
0.544013
0.545757
0.545401
0.542175
0.53871
0.530396
0.504864
0.535213
0.532659
0.538072
0.544668
0.555643
0.567234
0.580127
0.591347
0.597571
0.596842
0.587396
0.57323
0.561786
0.552833
0.543022
0.531975
0.523184
0.518341
0.516391
0.51585
0.515398
0.51454
0.513369
0.512177
0.511054
0.510208
0.509479
0.509042
0.509484
0.513359
0.522459
0.538081
0.549902
0.552662
0.550794
0.547962
0.544058
0.540923
0.53874
0.53309
0.540997
0.541371
0.548729
0.556049
0.565911
0.576895
0.588883
0.600248
0.606433
0.605242
0.597116
0.583934
0.571638
0.562154
0.553297
0.542482
0.529128
0.517783
0.5124
0.510733
0.510588
0.510328
0.509591
0.508542
0.507318
0.50633
0.505318
0.504713
0.506434
0.51213
0.528235
0.546888
0.555461
0.554662
0.55187
0.549327
0.546645
0.544041
0.542424
0.539795
0.545742
0.548271
0.556683
0.563467
0.571809
0.581169
0.591357
0.601404
0.606167
0.605101
0.599216
0.589051
0.578183
0.568483
0.5598
0.550764
0.538772
0.523507
0.509171
0.502199
0.500313
0.500116
0.499644
0.498728
0.49744
0.496292
0.495015
0.494505
0.497334
0.507265
0.529463
0.546771
0.554255
0.553191
0.551649
0.550857
0.549842
0.548433
0.54614
0.542205
0.545506
0.550833
0.559846
0.566818
0.574336
0.582791
0.591499
0.599661
0.603004
0.601126
0.594931
0.587669
0.581772
0.575891
0.568649
0.559885
0.548612
0.53431
0.516441
0.498901
0.490133
0.487609
0.486784
0.485746
0.484304
0.482941
0.481426
0.481159
0.484753
0.50053
0.527732
0.544306
0.551295
0.550733
0.551487
0.552416
0.552729
0.551589
0.54692
0.540629
0.531691
0.536808
0.54206
0.547571
0.554122
0.561549
0.56881
0.574348
0.577238
0.576532
0.575222
0.576259
0.577997
0.578157
0.574851
0.567378
0.55856
0.547943
0.531669
0.509217
0.488656
0.47887
0.476052
0.474456
0.472734
0.4711
0.469337
0.469234
0.473532
0.495675
0.526488
0.542508
0.549005
0.548885
0.551239
0.554166
0.555564
0.553628
0.546326
0.537167
0.505628
0.50444
0.501368
0.498688
0.499139
0.503806
0.507394
0.507094
0.507214
0.511033
0.519866
0.532709
0.54543
0.556631
0.564097
0.566454
0.563574
0.555979
0.543278
0.525171
0.500266
0.478186
0.468863
0.465883
0.463805
0.461948
0.459991
0.459731
0.465161
0.493968
0.528172
0.543457
0.549173
0.548901
0.551953
0.555684
0.557121
0.552743
0.540621
0.528526
0.47443
0.471323
0.470377
0.46922
0.466408
0.463492
0.464103
0.471484
0.481285
0.486915
0.489392
0.493109
0.498921
0.507712
0.520379
0.533095
0.541803
0.544071
0.54081
0.531644
0.512481
0.484854
0.463939
0.456838
0.454299
0.452372
0.450354
0.449795
0.45579
0.490523
0.528187
0.542322
0.546383
0.54533
0.548083
0.551803
0.552783
0.544752
0.530219
0.518803
0.437104
0.435496
0.43416
0.43473
0.436825
0.440298
0.4446
0.451323
0.464777
0.481252
0.488911
0.493948
0.49611
0.49258
0.492655
0.496075
0.500056
0.504874
0.508859
0.508512
0.50044
0.480738
0.453984
0.438508
0.434568
0.432965
0.431315
0.43077
0.436456
0.47678
0.521027
0.535288
0.537555
0.536049
0.537831
0.540081
0.538217
0.529337
0.519092
0.512474
0.401565
0.401526
0.400397
0.39976
0.400826
0.404539
0.411528
0.421394
0.434871
0.453807
0.475042
0.491532
0.505148
0.508592
0.503151
0.494825
0.489949
0.487322
0.483805
0.47807
0.470057
0.454423
0.42624
0.400926
0.392182
0.390285
0.389105
0.38873
0.392688
0.433997
0.488462
0.507972
0.511388
0.511148
0.514021
0.517926
0.51896
0.51674
0.51273
0.509685
0.373482
0.373644
0.373886
0.374218
0.37504
0.377054
0.381687
0.390307
0.403585
0.423144
0.449227
0.474768
0.498884
0.514254
0.51527
0.510112
0.500912
0.492283
0.484707
0.476016
0.463814
0.445618
0.416852
0.378981
0.357379
0.351959
0.349678
0.348361
0.349839
0.382569
0.439055
0.466051
0.475493
0.481625
0.490659
0.501453
0.509003
0.510711
0.509972
0.508495
0.354599
0.354588
0.354611
0.354815
0.355923
0.358001
0.361812
0.368933
0.380248
0.395921
0.41978
0.44915
0.478107
0.510794
0.525219
0.522536
0.5149
0.50447
0.494579
0.48456
0.471962
0.454466
0.427246
0.387374
0.355427
0.345287
0.342242
0.340473
0.341353
0.37075
0.422799
0.449072
0.460434
0.470145
0.482793
0.496202
0.505416
0.508815
0.509251
0.508021
0.343915
0.343811
0.343597
0.342989
0.342939
0.343336
0.345253
0.350798
0.361295
0.375779
0.397056
0.426966
0.458129
0.488868
0.524046
0.534079
0.528672
0.518128
0.506163
0.495189
0.483288
0.467197
0.442329
0.402903
0.36144
0.344807
0.340939
0.339077
0.339926
0.369247
0.420579
0.446081
0.457156
0.467096
0.480208
0.494562
0.504795
0.508572
0.508995
0.507682
0.337569
0.337465
0.337306
0.336904
0.336554
0.335871
0.335176
0.338541
0.345368
0.356459
0.377952
0.40792
0.442782
0.474331
0.507723
0.538002
0.540011
0.5321
0.518542
0.505158
0.492884
0.478246
0.456157
0.419021
0.371409
0.346447
0.341183
0.339286
0.340231
0.370058
0.421206
0.4461
0.456934
0.466995
0.480359
0.494839
0.504931
0.508496
0.508807
0.507413
0.332872
0.332748
0.332845
0.332688
0.332282
0.332035
0.329643
0.330201
0.334805
0.344212
0.365348
0.395957
0.429891
0.466321
0.496767
0.531901
0.548046
0.544003
0.531408
0.515544
0.501383
0.487235
0.467451
0.433426
0.382867
0.348738
0.341167
0.339194
0.340187
0.370264
0.421408
0.446131
0.456941
0.467068
0.480477
0.494941
0.504913
0.50838
0.50863
0.507136
0.329272
0.329271
0.330086
0.330701
0.330591
0.330474
0.328682
0.327366
0.330865
0.337506
0.350836
0.386455
0.424317
0.461723
0.491546
0.525404
0.553167
0.554127
0.544443
0.526791
0.509494
0.494557
0.4764
0.445456
0.394385
0.351765
0.341091
0.338953
0.340008
0.370464
0.421562
0.446048
0.456801
0.466989
0.48046
0.494931
0.504828
0.508232
0.508432
0.506823
0.330607
0.332339
0.334098
0.334819
0.335324
0.336102
0.33645
0.336336
0.337208
0.339604
0.347363
0.386086
0.433027
0.472728
0.499773
0.527298
0.557016
0.562888
0.556235
0.538664
0.517729
0.50056
0.483126
0.454884
0.404807
0.355367
0.341109
0.338741
0.339833
0.37051
0.421464
0.445721
0.45643
0.466674
0.480219
0.49474
0.504651
0.50808
0.508267
0.506545
0.336635
0.335186
0.331971
0.332228
0.333857
0.33657
0.341364
0.345014
0.346595
0.349781
0.356088
0.388577
0.445371
0.48635
0.513248
0.536234
0.563624
0.571933
0.566937
0.549531
0.525347
0.505295
0.487729
0.461596
0.413238
0.359039
0.341251
0.338625
0.339754
0.370653
0.421478
0.445514
0.456178
0.466459
0.480054
0.494616
0.504546
0.507966
0.508144
0.506371
0.403708
0.399195
0.393908
0.394154
0.39521
0.395551
0.396782
0.396228
0.391606
0.389268
0.391668
0.41815
0.480908
0.518174
0.539282
0.557543
0.579157
0.587621
0.582887
0.562639
0.533262
0.509622
0.49124
0.466183
0.419068
0.361933
0.341422
0.338577
0.339732
0.370769
0.421479
0.445374
0.456024
0.46634
0.479976
0.494577
0.504481
0.507828
0.507997
0.50627
)
;

boundaryField
{
    inlet
    {
        type            fixedValue;
        value           uniform 1;
    }
    outlet
    {
        type            zeroGradient;
    }
    obstacle
    {
        type            zeroGradient;
    }
    empty
    {
        type            empty;
    }
}


// ************************************************************************* //
