/*--------------------------------*- C++ -*----------------------------------*\
| =========                 |                                                 |
| \\      /  F ield         | OpenFOAM: The Open Source CFD Toolbox           |
|  \\    /   O peration     | Version:  v1912                                 |
|   \\  /    A nd           | Website:  www.openfoam.com                      |
|    \\/     M anipulation  |                                                 |
\*---------------------------------------------------------------------------*/
FoamFile
{
    version     2.0;
    format      ascii;
    class       volScalarField;
    location    "0.00022";
    object      internalEMean;
}
// * * * * * * * * * * * * * * * * * * * * * * * * * * * * * * * * * * * * * //

dimensions      [1 -1 -2 0 0 0 0];


internalField   nonuniform List<scalar> 
1300
(
1018.800927
1132.300436
3727.873763
8816.145245
9638.191839
5444.406472
6658.482683
8453.542326
7447.346337
6833.898074
1325.708848
1334.959079
5130.05884
13327.64896
12058.3403
5980.183434
10315.20808
12006.06384
9459.53301
8222.947717
595.3132425
701.9036349
3240.970079
9978.696912
8167.737434
4633.673426
7778.414696
9960.159813
9265.834224
8128.679997
422.0141942
326.0768354
2425.383047
8094.599498
6345.072736
3503.011559
6175.454177
9805.060175
7718.986478
7131.047915
180.0159577
302.1339586
2473.184533
7585.795563
5211.653473
2469.628572
4389.060557
7671.556458
7046.087739
6292.609624
206.064528
178.2549134
2082.259043
7964.436685
4929.793857
2086.711979
3989.473673
5811.123529
6192.973156
5296.259258
117.7153358
214.0595656
2174.316983
7815.999221
4438.594826
1842.564045
3448.644082
5457.500468
4980.6464
4638.918349
121.4604768
90.37450901
2237.891123
8013.572548
4571.047467
2199.754037
3669.892991
5633.187362
4671.044558
4140.309567
69.34260755
163.6727442
2180.694196
7462.902632
4592.638727
1809.851136
3676.459695
5256.908542
4933.709232
3897.150605
34.06100032
80.34457933
2058.246736
7553.568203
4376.583298
1851.971973
3217.894834
5509.802775
4946.831185
3604.468675
40.60230711
107.0219627
2104.652164
7555.992048
4536.140255
1996.905416
3607.151439
5304.255686
4702.321412
3914.676021
41.90094692
80.83112318
1970.939652
7079.897181
4164.115661
1724.092488
3449.931314
5170.808285
4462.199367
4117.390686
29.21506282
77.40638877
2013.973154
7733.717705
4459.880251
1742.085101
3336.186951
5399.450949
4566.487913
3925.569164
37.34273898
58.38798166
1992.730865
7774.464877
4575.13734
1789.409102
3416.118088
5242.70819
4608.480324
4023.853838
7.114572991
51.70945203
1881.372601
7592.447809
4264.756671
1781.163887
3310.84703
5416.548771
4611.282729
3803.066932
32.09894432
75.60712693
1929.590786
7841.185645
4130.806912
1897.540917
3481.425101
5069.737756
4408.065396
4146.955679
33.13800889
77.18197067
1920.310857
7228.297737
4151.030241
2023.583198
3510.285291
4999.933287
4772.738992
3877.057903
32.56030183
29.39996251
2062.767256
7707.065521
4230.345848
1855.143983
3344.793754
5190.82709
4665.57616
3613.99931
22.72343173
59.98219654
1920.331104
7667.767924
4419.180637
1657.083617
3211.682434
5013.382788
4538.37485
3607.648724
8.851761954
59.12359936
1739.015938
6921.764626
4304.907262
1918.344405
3301.059653
4822.574478
4419.149471
3646.611549
7155.444598
6528.629221
6969.366502
5699.828461
6065.208848
5321.371326
6297.38881
6900.234973
5966.733207
5660.245825
5463.551875
6576.361471
6341.87879
6043.768195
6674.746808
6149.920091
6399.173528
5873.087073
7090.284817
6190.538517
6786.126591
6707.648586
6670.87893
6468.873683
6382.713262
7007.449318
7579.107394
7131.889281
8501.166157
7804.765694
8181.941307
6859.329058
6320.088086
5927.622859
6556.904853
5875.301695
6044.094759
5967.75751
5895.729843
5593.305579
5618.028599
6315.526316
6838.938213
6461.166429
6593.847654
5891.082699
5931.211923
6424.793693
6296.256656
7225.191549
6750.36531
6190.591721
7196.353836
6782.160301
7099.589636
7365.662256
7001.740286
7419.858617
7218.533674
7250.554157
7932.343021
7551.473965
6784.408842
5850.632974
6249.964714
6019.977468
6189.80544
5684.204301
5628.987361
6382.736982
6272.838847
5830.853058
5766.840056
6559.845545
5828.076235
6683.082
6074.147582
6320.301048
7056.772515
6488.958705
6742.210577
7012.714109
6384.64777
6497.759927
6880.077995
6808.482421
6939.151583
7745.967078
7903.396651
6931.839929
7807.717664
8082.668961
7084.812733
6456.132601
6654.88566
5593.84659
6087.694032
6091.782987
5926.784424
5839.336546
6115.285498
5972.67411
6277.732055
6291.577469
6147.780477
5938.285907
5540.187319
6810.857345
6153.381512
6556.627929
6775.605087
6897.916752
6944.84282
7049.061536
7931.373473
6875.154322
7345.888243
6890.963456
6928.571706
6889.793663
7258.511009
7907.821256
7712.885199
6779.780263
6560.049915
6449.152752
6225.126475
5774.682553
6427.040102
5793.171849
5865.779659
5555.96446
5400.93809
6256.57877
6060.960936
6326.624743
6436.206003
5581.529912
6529.368577
6546.990039
6645.465424
6818.630604
6763.926057
7036.279419
6866.141754
7007.035315
7499.804854
7320.497406
6445.046061
6924.315035
5836.676253
7211.643163
7064.936064
6769.878158
6502.153287
6745.324731
6066.936442
5766.237225
5775.101437
6179.668863
5728.364323
5576.9956
5885.011699
5431.013052
5831.258438
5639.439562
6407.632087
5624.4154
6085.62599
6018.336644
6390.477912
6560.794158
6834.264135
6168.562102
7347.312523
7601.223985
7181.12212
7119.388074
7678.363342
7667.999949
4781.829492
6515.661317
6510.472386
6623.825454
6699.510641
6528.370071
6335.400623
6152.497425
6214.872717
6160.248848
5746.260783
5693.267669
5408.037494
5820.339818
5697.564135
5874.810531
5656.204537
6264.815028
6018.52228
5927.494036
5841.565263
6570.092001
7426.108077
7029.237451
6266.606873
6676.345456
7317.273505
7212.011657
7565.891192
6948.583119
4181.731089
5521.516738
5800.025372
5504.729268
6707.42036
7036.395689
6414.54662
6078.181718
6142.577155
6259.243616
6050.502198
5866.212593
5556.942028
6066.430258
5576.980258
5599.770855
5533.792395
5895.501384
5614.137635
6384.630082
5623.549335
6384.859224
6319.386768
6788.866515
6590.696715
7467.14042
6549.717237
7022.276611
7052.083664
7593.689516
4238.253558
5050.895023
4853.581173
4778.214951
5162.564651
6226.233494
6150.519149
6312.948745
6553.840897
6136.251766
5934.09719
6301.387739
5906.017696
6102.759251
5667.848544
5642.544954
5523.472526
5392.008016
5699.095231
5639.323394
5766.980996
5690.307007
6250.883744
6421.410674
6603.409561
6688.204919
7054.593245
6943.294062
7206.389892
7030.702284
3445.091249
4920.403669
4698.407308
4408.886583
5188.875518
5239.666307
5525.599872
5679.862133
6164.685049
6738.876041
5872.349994
6277.175157
6244.270023
6039.823682
5890.601727
5847.156959
5548.490545
5626.883799
5850.280779
6051.496762
6001.906165
5703.631547
6177.430888
6065.613342
6430.900662
6507.683772
6502.479727
6595.492901
6872.778265
6843.972521
3732.905825
4766.968471
4672.095252
4172.355299
4404.026102
5086.909638
5044.602502
5084.443804
5659.424877
5929.848813
5750.604583
6064.942017
6122.039523
6406.352447
5911.455696
6272.648039
6157.919932
5794.519686
5570.440447
5767.989207
5581.098206
5783.466085
5753.918806
5712.975338
6448.278865
6324.666106
6448.396883
6841.865277
6474.049607
7094.743448
3506.390662
4887.858924
4432.088016
4116.196077
4184.178321
4756.942961
4388.853614
4808.763111
5185.485495
5537.95486
5672.918799
5921.570902
6019.813612
5918.891357
5927.143788
6107.113017
5868.442274
5969.521708
5845.254116
5991.894107
5829.105138
5714.916283
5609.23371
6266.55673
5732.949486
6407.719556
6072.366677
6125.541832
6750.018857
6516.80292
3788.431881
4636.455441
4399.55895
3912.10916
4481.719036
4661.785681
4358.244688
4403.103465
5008.916413
5027.720278
5063.216556
5462.254218
5493.958356
5764.829286
6324.865117
6324.601615
6111.10822
6172.366527
5707.68655
6429.026237
5512.680657
5892.747534
6029.095068
5589.48653
5539.240166
5582.670147
6156.974535
5826.513027
6067.001114
6694.247893
3685.099065
4726.956064
4579.044753
3813.21895
4232.201113
4427.181807
4270.484987
3983.196474
4641.858767
4770.374725
4554.650812
4754.637614
5533.87182
5023.552166
5915.225502
5357.737651
5968.154732
6458.248993
6017.834286
5877.894985
6105.103308
5703.50896
5922.427064
5982.702467
5648.661041
5953.404954
5894.53363
5986.151274
6342.437275
6426.041083
3598.44675
4418.895979
4240.784079
3959.841779
3900.683144
4653.384738
4119.739005
4224.822114
4627.045616
4192.716973
4285.438362
4761.349234
4992.926122
4603.055085
5170.239299
5304.538775
5326.225347
6112.78862
5777.70299
6219.869518
6161.25435
5890.542311
6000.133361
6221.069962
5938.016859
5836.887542
5704.506981
5854.698431
5817.182601
5862.268348
3840.668782
4695.639366
4434.789688
3906.116788
4546.958847
4761.880311
3962.692085
4257.115595
4647.502856
4400.816361
4116.428947
4293.390411
4448.886406
4671.748586
4841.434661
4903.164404
5178.885891
5236.4499
5615.568389
5596.928773
5764.61998
5865.066308
6435.710944
5749.253631
6180.078086
6222.312596
5821.255402
5726.860285
5733.408686
5974.107012
3560.44683
4598.867085
4774.270084
3707.88373
4254.552642
4406.122842
4257.066227
4185.106021
4341.656448
4424.797288
4540.789024
4272.414249
4691.880232
4127.066883
4760.978945
4580.296711
4816.454438
4948.162902
4997.039827
5298.479383
5675.681879
5781.486222
6395.694787
5741.578718
6189.146214
5999.711518
6327.978472
6267.567077
5778.081421
6147.424027
3766.598961
4382.495544
4027.407651
4006.174013
4059.822166
4426.190986
4064.55654
4144.720025
4409.165726
4100.971896
4157.387442
4292.379342
4595.072635
4460.407674
4592.926082
4436.625939
4566.228195
4667.357702
4879.027727
4973.649181
5233.186396
5248.113174
5199.006131
5451.220675
5953.403384
5637.765174
6198.432488
6071.923044
6215.645351
5852.898332
3406.109024
4510.726096
4379.052662
3716.848228
4014.912912
4782.651346
3950.340466
4302.940125
4385.226204
4235.514344
4120.559747
4198.267683
4452.830013
4040.547669
4192.777456
4353.008522
4385.939139
4516.162395
4663.817186
4915.615632
4837.615601
5043.76614
5290.985593
4891.020041
5520.818486
5721.558668
5917.785383
5832.837829
5604.271511
6287.376412
3708.482329
4360.584843
4214.267633
4041.283146
4155.07875
4017.62897
4124.412224
3819.72774
4318.505674
3719.36368
3974.296029
4274.57454
4122.086618
4194.141655
4101.725136
4143.498933
4346.003633
4350.160155
4301.915566
4413.763503
4630.916651
4513.725941
4757.92207
5011.848162
5001.443628
4914.748082
5000.507167
5458.197793
5460.269845
5707.008131
6271.571511
5895.244611
5429.522183
5554.91589
5488.753016
5179.893523
5158.514418
4868.186267
4126.913514
3327.271985
8436.642794
7764.990852
6740.021886
7050.54606
6887.544632
7441.624415
6882.443181
6497.638375
5303.49952
4896.751324
7872.043539
6445.511038
7204.180638
6755.590704
6645.386194
6570.278899
6430.910806
6606.442797
5692.667061
4199.957123
6751.14351
7520.37101
7761.343817
7012.412634
7091.687041
6750.36975
6731.731685
6282.184433
5612.869639
4756.639346
5994.581126
7137.629843
6689.021784
6945.007831
7167.5732
6627.385915
6425.702374
5951.623633
5727.883417
5253.886379
7589.139511
7020.881642
6138.221443
7348.468308
6084.273499
6640.028469
6300.519926
5686.407371
5515.825891
5859.313769
7042.937934
6834.857432
6992.207305
6891.399328
6310.818649
6342.701825
5487.563779
6043.028729
4829.662228
5147.36593
6759.10428
6747.706421
6900.238974
6235.863083
7527.30698
6175.607524
5942.318983
6018.458878
5947.97019
5495.318999
7484.058559
7455.224315
6524.159362
6836.653569
6677.160433
6493.602696
6834.558851
5620.027402
6093.109978
5417.109026
6813.695919
6243.137903
6969.508648
6793.50867
6261.918345
6461.300276
6413.317342
5971.115851
5824.304648
5614.220343
6873.61801
7072.184526
7335.005666
6604.33025
6499.181678
6766.76352
6318.381972
6843.972642
5902.275862
6117.148927
6545.78368
6354.584389
6913.472403
6922.667511
7095.13746
7063.584094
6404.459353
6370.256608
6066.122095
6633.850575
6441.97238
7150.574014
6733.822248
6741.259305
7142.159535
6926.171491
6145.328353
7180.210529
6410.245792
6492.138143
6326.297181
6049.73251
6911.616453
6686.745857
6728.905041
6930.95006
6914.730297
6832.853769
7213.57648
6466.790233
5769.876366
6064.675309
5801.410075
6340.132075
6517.534175
6568.141314
6399.118447
6600.616036
6432.442588
7160.435609
6266.638938
6062.43882
6436.188764
6080.617097
6492.284045
6657.061008
6667.209715
6397.759943
6815.012665
6616.579201
6072.651795
6054.480186
6479.384411
6108.490735
5799.100667
6147.861629
6566.08585
6708.288078
6496.034129
6667.832088
6247.909907
5698.110695
5937.687662
6072.000346
6247.153328
5920.169074
6143.445696
6354.295438
6566.23113
6462.728674
5773.831401
5612.646248
5576.402136
6009.141107
5877.191423
6180.705991
6355.506269
5858.009203
6448.565004
6362.395567
5820.62121
5498.487316
6031.033081
5582.751724
5435.352327
6001.970159
5768.174036
5809.181991
5579.249552
6094.829537
3175.707231
4653.427688
4442.559702
4005.469777
4096.648869
4013.424199
4332.381654
3992.077593
4068.748494
4401.240843
4610.426292
4352.987171
4163.246727
4554.936553
4632.533605
4614.578955
4842.280902
4535.302535
4791.069285
4980.176017
5160.751358
5229.99371
5034.147716
5275.616852
5278.049147
5521.8328
5264.390248
5172.471299
5468.302156
4465.801173
4025.345085
5739.751437
5776.54324
5589.848511
5672.054658
5392.937091
5796.908187
5438.558729
5768.717522
6169.145494
6114.934642
5937.730315
6135.047671
6027.119811
5823.499779
6351.823879
6253.441738
6877.287848
7045.477696
6393.563255
7525.174934
7029.62163
6246.101559
6926.288042
6921.995814
7575.594139
7266.71876
7348.885254
8044.015613
6343.321391
3602.237452
5821.709214
5561.740817
5473.314614
6088.173382
5458.09917
5467.51756
5943.250678
5280.255314
6086.098561
6479.097659
5768.22968
6192.862256
5772.960972
5930.133102
5933.552774
6145.22681
6401.802186
6862.176535
6328.308447
6996.513304
6363.642075
6857.948139
6561.143572
6708.000539
7057.402104
7734.174631
7138.426746
7565.501613
5949.435579
3620.869574
5091.369193
6040.237051
5489.109892
5739.677523
5190.360922
5767.841793
5944.087874
5897.804613
5634.132649
5864.707858
5846.899292
6079.126616
5686.324022
6587.024835
6241.545836
5591.475449
6473.14379
6261.467854
6012.713004
6877.804824
6814.927241
6939.992506
6535.332693
6554.496732
6486.208329
7206.801527
8019.325311
8108.375162
6154.236224
3744.322771
5320.540857
5385.743566
6164.241204
5459.153625
5476.341498
5174.536819
6107.205219
5991.5758
6183.19691
5676.777381
5380.979165
5704.033733
5657.405499
5967.197626
5753.694496
6151.226612
5653.856917
6891.560651
6261.137001
6651.933656
6368.638868
6891.79092
6941.574683
7179.233388
7036.002341
7087.536347
7515.983361
8057.992242
6386.534944
3973.84512
5146.496049
5123.916284
5441.858056
5127.365114
5615.25759
5698.191105
5450.594443
5469.007544
5835.486643
5570.35535
5897.334917
5613.856839
5757.466095
6201.383355
6013.283913
6292.151231
6153.635833
6221.185366
6534.289287
6982.724492
6512.469908
6701.678601
6726.429665
7287.201479
6935.047104
6566.596838
7203.268633
8470.532054
7050.574844
3521.435079
5134.698605
5062.497992
5411.456557
5477.925696
5356.202089
5195.774032
5539.341046
5604.385234
5524.318268
5723.093079
6133.734892
5753.647744
5818.985906
6007.829053
5942.65409
6217.60599
6431.108416
6578.830507
6628.955737
7274.800072
7089.348908
6730.038731
7200.162039
6894.496281
7463.239506
6923.653745
7468.925283
7361.622044
6717.952979
3502.155802
5354.381658
5152.77267
5775.691484
5496.533645
5542.711005
5574.15688
5645.685692
6471.88176
5743.559795
5779.509291
5996.203459
6504.119608
5969.389832
6316.807343
6129.151264
6147.220292
6097.140793
5845.531183
6580.769027
5828.864454
6809.320068
6476.260608
6682.744842
6467.860381
6723.872612
7116.321236
7493.635144
8240.505344
7145.4452
3502.808717
5049.365009
4954.341748
5148.582988
5853.880193
5977.135852
5675.977534
6139.057869
5397.836655
6419.226397
5936.381406
5803.392978
6323.311244
6147.710558
6395.725527
6331.623613
6425.044517
5601.961034
6887.935832
6481.728395
6677.204485
6614.00394
6748.745135
6686.402133
6451.76355
7401.315859
6891.83445
7196.728075
8450.233851
7384.027121
3801.84954
5763.667128
5474.555091
5611.017194
5996.726985
5810.541914
5736.744897
5666.896219
6178.100365
5977.659188
6340.655424
5890.192109
6523.981531
6185.874529
5655.914165
6439.239262
6217.470077
5864.869218
6744.484301
6528.476983
6692.830674
6412.747838
6741.672167
6429.880965
6881.122335
6941.407877
7085.212049
7458.214894
8330.723918
7494.025064
)
;

boundaryField
{
    inlet
    {
        type            calculated;
        value           nonuniform List<scalar> 
20
(
1018.800927
1325.708848
595.3132425
422.0141942
180.0159577
206.064528
117.7153358
121.4604768
69.34260755
34.06100032
40.60230711
41.90094692
29.21506282
37.34273898
7.114572991
32.09894432
33.13800889
32.56030183
22.72343173
8.851761954
)
;
    }
    outlet
    {
        type            calculated;
        value           nonuniform List<scalar> 
70
(
3327.271985
4896.751324
4199.957123
4756.639346
5253.886379
5859.313769
5147.36593
5495.318999
5417.109026
5614.220343
6117.148927
6633.850575
6492.138143
6466.790233
7160.435609
6616.579201
6667.832088
6462.728674
6362.395567
6094.829537
8.851761954
59.12359936
1739.015938
6921.764626
4304.907262
1918.344405
3301.059653
4822.574478
4419.149471
3646.611549
3708.482329
4360.584843
4214.267633
4041.283146
4155.07875
4017.62897
4124.412224
3819.72774
4318.505674
3719.36368
3974.296029
4274.57454
4122.086618
4194.141655
4101.725136
4143.498933
4346.003633
4350.160155
4301.915566
4413.763503
4630.916651
4513.725941
4757.92207
5011.848162
5001.443628
4914.748082
5000.507167
5458.197793
5460.269845
5707.008131
5820.62121
5498.487316
6031.033081
5582.751724
5435.352327
6001.970159
5768.174036
5809.181991
5579.249552
6094.829537
)
;
    }
    wall
    {
        type            calculated;
        value           uniform 0;
    }
    frontAndBack
    {
        type            empty;
    }
}


// ************************************************************************* //
