/*--------------------------------*- C++ -*----------------------------------*\
| =========                 |                                                 |
| \\      /  F ield         | OpenFOAM: The Open Source CFD Toolbox           |
|  \\    /   O peration     | Version:  v1912                                 |
|   \\  /    A nd           | Website:  www.openfoam.com                      |
|    \\/     M anipulation  |                                                 |
\*---------------------------------------------------------------------------*/
FoamFile
{
    version     2.0;
    format      ascii;
    class       volScalarField;
    location    "0.00022";
    object      internalE;
}
// * * * * * * * * * * * * * * * * * * * * * * * * * * * * * * * * * * * * * //

dimensions      [1 -1 -2 0 0 0 0];


internalField   nonuniform List<scalar> 
1300
(
258.5485455
496.8693677
10.55270695
4639.048224
9983.751966
18650.00423
8064.46671
6515.083705
4343.477154
10064.43501
1288.21794
840.6509513
6376.876998
18007.96204
5850.209708
5255.896447
2750.882043
21738.68137
3736.843569
3788.656713
526.3148064
2807.437828
1078.841513
7662.988255
8713.382643
4005.538095
3194.825632
14307.35971
9369.010342
2256.616169
0
0
842.7413337
14295.61405
10443.39958
535.6141726
5052.089436
6682.540441
5140.006565
10996.31307
0
0
3000.162373
6316.03691
7621.288942
3772.274886
5702.052767
8179.613437
10115.31253
1103.475896
846.8695177
0
1294.470362
4512.221206
4543.860155
4035.290696
3595.061527
8080.895541
10980.82748
7331.540904
975.3187849
740.6489016
1453.70218
10127.33754
5202.579736
6970.882373
2325.796051
9563.383686
6005.24688
3867.007316
2247.739086
0
866.1207616
9009.5146
3664.663162
3034.389086
4435.021711
8262.410614
6089.979142
2363.110386
0
0
1473.151557
6391.178394
2532.829421
2732.066456
5974.079339
4823.574143
2427.720445
3115.575655
0
0
2079.938568
4952.732047
7007.176686
1392.902173
2737.902046
6727.865891
4239.740377
2632.740026
0
0
2194.865894
6903.369794
3766.003195
3257.616602
7881.396089
5438.0004
3183.529241
3046.640212
0
0
1353.618187
8840.5744
1162.921069
1090.478411
2274.036844
5150.50669
8339.817449
2227.985548
0
0
834.9451771
12107.31698
4845.415561
48.78272997
3502.816835
8172.630972
5163.980228
2020.014186
0
0
875.9487038
3413.289537
4410.356626
7276.284615
7113.80936
5790.100423
1123.946868
5987.682526
0
0
285.6407072
8403.604125
11834.72055
2289.476646
4048.128655
5438.518044
3351.437494
1758.564181
0
0
2361.608448
6672.575268
3199.388435
1780.8805
5016.37992
4709.091625
7427.848714
3229.951633
0
0
931.5578463
9125.764219
2894.454049
199.7307407
916.9027011
3519.823867
5266.13756
3959.400966
0
0
1767.426981
8035.772712
1419.770569
2546.505774
2917.594479
4453.781102
2536.060203
4364.600211
0
0
2944.300485
10714.64753
3728.149725
1011.413312
5005.161215
3669.557057
6247.792383
1729.940029
0
0
587.1583832
5085.645764
4837.111582
3840.828282
838.2939227
4685.308908
2711.926375
2691.207878
5334.533832
6145.549772
11226.07133
5094.951521
4008.446022
7441.821865
9026.736127
9094.518189
4602.916682
5731.504666
6356.99499
8478.644792
8713.425781
10980.46403
6453.420488
12423.34901
5477.259593
4553.596196
9234.270772
2530.430053
9644.878015
11099.25735
5533.46871
10713.38218
5254.313335
15554.62982
9201.211179
6590.511769
7430.971129
4257.501918
4706.963812
4965.463817
7582.624488
7854.777425
6490.344916
15038.60039
6056.105851
6276.251475
2269.656978
16482.28702
3775.068142
3538.038939
3462.659614
4522.635263
7336.679274
6902.217742
8006.144687
5230.140885
12186.66366
2602.853721
5829.426153
11305.19913
11265.3588
5480.969008
3821.992777
5742.309614
7103.350278
5695.636959
5517.738101
6140.903963
10244.13266
5438.826473
3747.396837
8757.190026
886.9511247
8238.509192
9860.23407
7351.414689
2089.415043
10404.15689
11294.95249
5190.791535
5058.983735
11055.71913
1600.719109
7437.697756
12031.31415
864.9809626
7352.792079
13439.80244
2288.038761
4520.954921
6151.419084
4966.101837
9740.529293
6334.230564
6197.719943
7641.61737
10386.56321
11305.67692
8887.219131
8209.193003
2079.198519
8818.884825
11898.5201
3361.191534
5557.297361
2262.930343
3032.651144
1124.060673
3921.544139
5996.556757
8066.173013
6227.299005
8667.289175
7371.609498
9111.950286
11190.55921
7551.766222
14845.408
6074.744539
3948.791302
9999.301357
8153.164134
4806.069878
8826.196754
3247.740379
9449.267531
7959.617924
15140.3135
8320.685633
8678.629251
7277.946299
9172.988439
7486.869378
3140.670042
10867.30206
2421.543328
8198.574944
5816.420799
8279.496066
6348.978153
4982.562141
9580.319842
4589.799746
7354.749118
4612.436722
6217.63771
7998.37744
15451.48242
9154.061138
2465.906425
4342.398178
6885.152154
9232.662012
9599.017591
7732.362197
4733.634053
5205.138114
4865.085659
8254.36263
2721.890316
6472.160764
10243.39169
4448.724045
3308.243346
8059.151024
4768.409532
8294.460143
4563.187974
5302.752718
7773.400182
6772.351358
7193.539433
5172.684265
6638.897179
10171.66227
3735.19514
2456.162389
15843.4685
9720.651474
4740.648465
13915.64078
6242.019387
8183.055787
9510.198566
18949.75519
8414.662355
5637.678269
13332.21515
7953.194669
6037.167253
6426.339633
5598.088048
6976.499614
6777.185927
8529.744718
10002.17854
7370.040622
9328.877036
13527.60994
5200.996948
6889.788589
8144.393353
1160.617773
6720.678657
11708.55705
11063.83421
6272.111743
3055.336076
4782.116123
5961.420536
3379.5237
9685.853181
10216.18289
13602.84168
7465.893585
10755.74857
1840.957008
6811.476599
4898.994148
5117.580012
8187.339768
10179.77433
10826.37071
3437.208454
5612.778822
6385.039565
5813.69419
4995.831301
8385.984824
5374.499057
6322.500593
3283.7786
1841.232768
8887.764789
2646.5163
3322.346099
2423.725944
8329.852536
8110.699018
5893.439517
13910.21202
1794.823061
6362.968976
15341.35153
8749.669618
4796.63559
2171.945571
8086.557583
5869.282916
3877.878367
5935.87275
7189.055626
8030.338327
7105.855471
14240.23403
6149.692665
6964.736266
5277.992674
4064.682158
7689.745793
5963.066546
13497.87703
4819.705882
15877.06958
3344.199457
4156.533485
2711.15446
12840.77891
9019.161762
6231.705362
4177.748643
12925.82885
10127.89623
1999.541863
5707.650138
8964.254521
3048.173301
9137.193857
3483.103196
4114.078865
3353.596351
6250.963491
7914.955748
4954.083323
7707.353399
3711.532382
6622.813259
7092.079696
4022.868637
7340.028871
11330.20328
3439.026732
5014.101926
8047.025129
4946.602044
6126.26474
5868.314976
9518.012193
6787.63769
5322.038097
6057.204105
5271.205066
8875.408042
8100.190896
4773.343064
8465.562357
11280.7063
8055.126811
3029.169573
2257.998497
2735.32665
2546.070245
2887.618727
7200.779584
4284.563888
5560.127767
6952.37912
11368.67382
7901.005896
6370.236863
1801.476156
3440.961136
3894.860295
5718.170336
10191.45319
7749.070058
4394.271074
5368.188523
2642.16322
8843.606487
3804.316698
10895.56329
5284.640707
12638.36983
11103.40177
7592.640782
8195.214958
8683.397658
3170.459265
3553.650321
4520.47362
6019.101655
2876.777133
6053.667224
3167.979911
4558.289806
4422.257845
5090.382777
7298.102801
5527.003893
6470.422546
5477.226843
5534.192625
6845.714105
5698.792191
4463.440441
5152.091832
6502.003229
6257.673502
7645.934103
8221.991375
12517.38823
7456.786236
12577.44132
9045.180443
6429.436095
11425.45515
8083.68907
3064.141623
4770.653449
4417.750052
5751.045832
4312.072449
4384.397154
5496.565699
4315.767351
6729.213128
1942.437404
3548.140278
1943.511115
7816.557888
2695.921717
5016.534577
6675.054921
10502.27851
4571.07844
9061.053403
7922.368299
7028.174133
4940.604681
6042.010025
3994.114996
5673.24658
7369.850793
5848.807054
4800.163618
9639.85273
5354.472024
3687.553236
1526.665226
4140.543348
5683.912089
3169.612511
3415.070804
4138.09844
2993.976994
558.8834107
5007.89251
2528.887517
5945.661291
4596.029227
4799.922978
6070.679029
4684.406181
5816.879285
7267.906696
3230.469834
4644.842076
2897.82523
7205.697523
3182.503314
4449.752122
6500.197418
7215.285061
5510.777066
7799.412487
8485.926032
8065.94094
3096.660418
4102.696272
5204.950825
2690.23332
1844.469027
5113.619925
2911.114635
5933.545337
3902.556658
5813.963287
3119.241466
9784.960714
6357.054121
3184.786876
1255.16794
3395.906234
5150.362936
4103.473343
9929.884972
3837.14836
4639.463526
10063.05825
5935.267609
6666.468415
2580.407924
5356.853406
6696.983484
8586.774322
2009.801397
6305.967013
2230.49095
4121.648626
2988.728467
1712.383956
5389.388842
5967.060879
3628.211576
3119.850618
7613.978118
3699.753577
5486.167491
1535.278201
2710.596247
3429.073653
3217.013057
4547.085473
6290.554815
6101.259262
2734.275925
7658.41207
4111.767614
4966.848345
2681.809133
1585.275425
6974.645405
10950.36881
8157.369051
9883.677426
2383.782736
5429.41538
6395.633712
5780.246142
4428.867653
2833.147284
3647.32529
6275.218422
5736.64097
1458.288473
2870.153752
3538.706778
3380.820139
1933.329846
2076.874984
4419.220925
5940.794533
2515.726065
9590.86845
4911.41792
3157.095761
5245.738254
2960.803609
5419.857346
4756.695811
4397.026739
5300.535612
8993.610067
8234.874663
5644.268458
6459.676756
6703.265871
2826.033534
6229.869936
7483.585348
1298.668193
5474.627565
2231.966258
7277.407467
3076.479643
4588.981445
6290.472142
4914.171516
2397.386737
3788.568752
3696.836344
5437.368831
4459.067778
4499.718086
6577.718311
6131.782824
4451.453903
6744.552673
5422.330836
3815.712482
3074.084928
7998.180719
2695.562999
5230.016012
6487.994052
5260.07066
3310.35412
4360.951672
6843.857273
4052.164359
4695.895915
2354.548855
2757.086331
2200.452683
4783.810087
5717.916915
1204.935648
2862.517413
6000.371256
4827.823084
3175.121488
3510.831746
3235.702456
2946.128983
8482.415988
7925.192323
3165.287054
3423.959482
4757.526048
5679.217168
3867.962778
3275.287062
7678.287181
8164.574023
7177.933086
3949.063729
3566.910382
1998.288993
1536.779815
2218.897451
4981.530717
5513.329298
4247.419102
3969.010885
4872.160993
2729.243832
3832.683482
2229.639442
4050.666672
2864.284301
3520.576723
2665.923867
4453.900808
4228.589489
4447.857338
5646.283701
4013.848847
7863.931632
5081.187766
8039.264795
5265.767984
2060.531513
4953.276895
2475.736661
5914.972011
2758.442798
9393.528743
6714.568211
1269.142414
9340.098915
3710.398643
10971.38536
2058.994063
519.9151287
9079.868156
12727.2196
0
7195.803402
2977.60526
4884.595356
10973.35938
10033.28371
7693.653068
11794.19086
5863.618124
2059.293748
4392.20645
11869.43446
14787.60208
7921.270543
14454.93464
2996.796657
3822.106699
5499.224728
4054.703294
6845.374999
5179.877901
7736.449287
11958.16778
5068.852819
15440.01824
4278.22265
18403.67881
9242.81498
954.094252
4501.519702
1446.840946
3236.894017
8440.321115
10691.52565
10248.16621
8824.016002
5219.276378
3233.894922
7355.803676
5237.646694
4649.760892
10661.51786
11193.80764
6333.377901
10338.92809
6555.519609
5226.62594
7785.992779
6444.029943
5328.953947
4762.622076
1625.842872
5278.980135
4612.421161
7392.657372
4159.840723
12811.26175
8778.590293
5756.992456
2711.490062
5511.877828
6364.141252
4156.668857
6198.799592
4766.126207
7753.097282
7784.897529
7785.526402
7611.265418
11117.66217
5857.629116
2501.481671
8763.639074
3962.044973
2173.148034
16836.43891
8951.768446
3753.654081
9427.601939
8563.065542
8422.44943
20256.7533
5536.449409
7851.62925
5755.835515
3401.501839
11460.33542
2160.181497
4859.524098
18152.43003
3382.775135
7213.013257
9868.900468
2245.897939
22628.90538
3393.732994
8820.117706
4715.915668
3984.667002
3434.755674
6294.493845
9563.36381
7708.317359
9315.603573
4837.599027
5463.082385
5616.029244
12330.74585
9904.508865
10129.71815
9137.992754
9188.836654
5185.02873
9964.756304
9313.835538
17904.7428
8118.754534
6024.921744
6022.578329
8208.603146
6464.029415
10085.77443
4584.49559
13801.95759
13522.58552
3609.587029
10697.97935
15840.99179
5500.132843
6606.314568
7683.937841
2773.350548
7403.924716
9156.137991
14248.37386
9042.583225
6739.602188
10131.85998
4869.108147
9890.977647
9397.045503
9006.547894
9897.239913
8902.864613
9560.274339
3103.243475
9478.543524
8029.493239
4178.479799
7484.939548
6011.79536
8192.180125
2149.63631
12281.51221
7087.360157
3577.336917
6731.693953
10534.84368
4469.639392
10490.94337
5365.555244
3454.351778
6731.689359
7716.628349
7186.97682
5579.313953
6006.736261
6339.000619
9473.602859
10842.89914
9251.772787
5233.736808
8008.490586
8423.176264
6790.899742
4102.04231
7359.056262
5563.816738
10698.6302
2702.865121
3716.923347
4883.474086
4228.566455
10695.58259
5034.851783
6992.50172
9022.468342
6677.805542
7760.928271
2646.465244
12920.28348
2050.655747
6885.42414
3564.806286
1918.941568
5867.156058
983.5407506
3408.133093
3734.137866
2498.527208
7018.588224
6495.832321
2216.355454
8003.987207
3579.090011
4939.168089
7445.68256
21316.21243
8618.55024
9796.39291
6141.193821
12202.22605
4758.543418
5352.717621
8347.185705
15014.17651
3601.789275
2560.171345
12325.55531
8888.811354
5036.326617
5597.846044
6725.777413
5851.042016
3499.128633
2477.467762
8833.378745
2953.163577
6937.382385
2412.322609
6996.897378
13464.48225
8312.022078
3924.100097
6218.009571
11314.81168
6441.880534
6810.370322
4758.903258
6053.335705
7435.109276
3769.836897
11184.8321
6697.949003
9833.056182
5884.938001
9540.610751
4717.518861
3393.218172
12289.87423
4554.115388
5964.147938
5654.959358
6421.354821
898.7940867
8004.039972
9908.567036
4444.784363
7065.210498
6787.019291
8774.025156
4792.562579
3299.699266
20913.76239
4130.087489
6650.635048
4399.307791
10073.85173
6391.33724
13980.11777
8952.182597
5987.021816
8988.670534
19484.60072
3653.96602
9620.322402
9633.626793
11154.59674
7990.308079
3135.063895
6433.186513
5741.740143
16358.65984
4140.620557
3686.265474
10812.22549
7612.593122
11697.3471
5036.433168
6488.693936
6624.567252
12349.0379
12632.75065
3947.652726
2726.648306
7146.241339
7074.725549
14585.69313
1575.026945
3134.762298
11291.61988
4241.99661
9730.410761
7043.368326
6725.745777
4801.449627
6775.886394
3116.753767
6339.736601
13424.52987
2663.312738
2128.641936
6299.564849
7125.235722
3050.335515
837.7604448
3210.824279
5015.895734
3805.062632
4585.103559
4102.825727
6952.372214
3884.952387
9234.519915
4180.902862
3661.87941
5618.245512
9964.214234
3626.349426
20386.73657
4593.833784
9089.92973
5080.801225
9660.621971
9073.320059
2934.966589
2604.260098
9097.1911
14010.81957
4103.682505
8057.126497
5101.414461
3745.268687
11433.06952
3094.239634
2807.379062
2477.634559
2226.711889
5878.370121
10093.04406
3906.392266
2722.817245
15741.53341
5400.344948
4384.071961
1091.14206
11069.42194
4160.858414
7391.611002
6727.835039
9786.613973
11255.95825
5015.918275
12346.90762
10259.66604
6293.409639
2346.908497
5483.893725
8378.98659
7932.612041
3769.989307
3004.789172
5843.037542
4814.310241
1163.214804
3044.418199
1179.425252
4744.778044
4615.322209
5394.580816
2114.350078
14245.90324
11687.10664
7315.021473
5328.906045
10999.11699
2387.122991
1420.340934
13726.69833
6928.149216
5112.963947
7013.86548
9811.722501
4506.705542
6223.516573
12653.60303
1082.648818
8069.441063
6503.393695
9965.654164
3221.809078
6685.372957
3677.668194
4200.895604
6414.150817
4599.349112
9863.882084
6014.025349
2179.579795
3973.002443
6496.346337
3740.649925
4991.573386
7611.455399
14564.71003
7347.512698
2537.34282
5478.221324
2593.796753
8324.285929
6666.613056
4200.834795
7285.592433
6211.82818
6520.73998
6759.653369
6685.355778
13010.75306
4657.362795
6188.922747
1941.155951
1365.020603
5277.077072
3015.412839
8963.842913
8964.497728
6282.351517
7167.599942
7453.631982
6864.331286
9586.862821
8311.213894
13192.10063
4593.897765
15718.76452
4770.289851
12691.61699
6839.881783
5572.951528
7333.951817
5736.681289
6867.020332
9385.269199
10810.24142
10950.70014
4933.444519
5639.924937
2431.855946
8598.304252
4633.849762
5414.369946
4843.637607
7225.485188
5935.29704
9693.636033
4970.626169
3206.976395
10504.24633
2736.312823
9690.743031
5171.543044
8320.257278
4147.694559
6080.701692
4095.209512
7779.646518
7871.029889
5836.39262
5068.081155
5867.074024
6061.283925
7551.15928
8233.601094
14744.00022
2859.654795
11874.7489
17800.14628
12498.11664
4861.437178
10085.54245
3919.641966
)
;

boundaryField
{
    inlet
    {
        type            zeroGradient;
    }
    outlet
    {
        type            zeroGradient;
    }
    wall
    {
        type            calculated;
        value           uniform 0;
    }
    frontAndBack
    {
        type            empty;
    }
}


// ************************************************************************* //
