/*--------------------------------*- C++ -*----------------------------------*\
| =========                 |                                                 |
| \\      /  F ield         | OpenFOAM: The Open Source CFD Toolbox           |
|  \\    /   O peration     | Version:  v1912                                 |
|   \\  /    A nd           | Website:  www.openfoam.com                      |
|    \\/     M anipulation  |                                                 |
\*---------------------------------------------------------------------------*/
FoamFile
{
    version     2.0;
    format      ascii;
    class       volVectorField;
    location    "3.28";
    object      grad(p);
}
// * * * * * * * * * * * * * * * * * * * * * * * * * * * * * * * * * * * * * //

dimensions      [1 -2 -2 0 0 0 0];


internalField   nonuniform List<vector> 
1900
(
(67733 0.0427604 0)
(-50385.6 0.158816 0)
(-3373.11 1.22143 0)
(849.092 2.30532 0)
(647.544 3.79392 0)
(533.279 -1.83429 0)
(401.429 -19.3098 0)
(290.106 -74.7235 0)
(106.169 -290.534 0)
(-1413.26 -567.911 0)
(67733.2 0.228868 0)
(-50384.4 0.354271 0)
(-3370.97 1.64467 0)
(851.664 1.18014 0)
(643.405 -0.900769 0)
(510.175 -10.7619 0)
(328.54 -24.9285 0)
(18.8814 -57.9264 0)
(-387.018 -265.382 0)
(-865.119 -563.799 0)
(67733.6 4.79616e-09 0)
(-50384.1 5.68434e-10 0)
(-3372.29 9.41469e-10 0)
(846.547 1.08358e-09 0)
(635.602 1.45661e-09 0)
(509.251 1.42109e-10 0)
(354.265 -5.15143e-10 0)
(49.6526 -1.06581e-10 0)
(-399.703 4.61853e-10 0)
(-878.712 -7.28306e-10 0)
(67733.2 -0.228868 0)
(-50384.4 -0.354271 0)
(-3370.97 -1.64467 0)
(851.664 -1.18014 0)
(643.405 0.900769 0)
(510.175 10.7619 0)
(328.54 24.9285 0)
(18.8814 57.9264 0)
(-387.018 265.382 0)
(-865.119 563.799 0)
(67733 -0.0427604 0)
(-50385.6 -0.158816 0)
(-3373.11 -1.22143 0)
(849.092 -2.30532 0)
(647.544 -3.79392 0)
(533.279 1.83429 0)
(401.429 19.3098 0)
(290.106 74.7235 0)
(106.169 290.534 0)
(-1413.26 567.911 0)
(-1795.76 92.7469 1.12435e-11)
(-1646.34 -65.5753 -1.35721e-11)
(-5283.95 -632.145 -1.68791e-11)
(-18452.6 1313.17 0)
(-11007.9 15620.1 -5.77595e-11)
(-1138.21 103.622 1.12603e-11)
(-2381.49 -191.161 1.35721e-11)
(-4395.59 -858.152 1.68791e-11)
(-10888.7 -126.899 0)
(-8230.61 12220.9 0)
(-1260.33 -1.19067e-09 0)
(-2641.26 -9.34925e-10 0)
(-5448.6 -3.57739e-09 0)
(-11568.7 -1.27844e-09 0)
(-1298.83 -6.81994e-09 0)
(-1138.21 -103.622 1.12603e-11)
(-2381.49 191.161 1.35721e-11)
(-4395.59 858.152 1.68791e-11)
(-10888.7 126.899 0)
(-8230.61 -12220.9 0)
(-1795.76 -92.7469 -3.37641e-11)
(-1646.34 65.5753 -1.35721e-11)
(-5283.95 632.145 -1.68791e-11)
(-18452.6 -1313.17 -4.40535e-11)
(-11007.9 -15620.1 5.77595e-11)
(11651.7 -3893.47 3.14671e-11)
(-2837.64 -181.205 -2.53919e-11)
(-254.456 785.9 0)
(-2328.95 727.782 1.93548e-11)
(-11793.8 -2583.78 -8.38382e-12)
(6413.31 -4269.46 -1.56749e-11)
(-1649.19 25.3132 1.26932e-11)
(48.9278 310.788 0)
(-3758.53 -294.751 -1.21082e-11)
(-11468.1 -6103.99 2.03054e-12)
(7852.71 -4.30632e-09 0)
(-1717.86 -6.83214e-10 0)
(-460.421 3.55271e-09 0)
(-5191.84 -2.90254e-09 4.83974e-12)
(-12595.4 -9.50507e-09 -4.06109e-12)
(6413.31 4269.46 -1.56749e-11)
(-1649.19 -25.3132 1.26932e-11)
(48.9278 -310.788 0)
(-3758.53 294.751 -1.21082e-11)
(-11468.1 6103.99 2.03054e-12)
(11651.7 3893.47 1.56749e-11)
(-2837.64 181.205 5.45731e-15)
(-254.456 -785.9 0)
(-2328.95 -727.782 2.19184e-14)
(-11793.8 2583.78 8.38382e-12)
(-26613.7 -2607.18 0)
(-16147.4 6529.12 0)
(1462.54 3674.71 0)
(-333.706 1804.27 0)
(-1610.26 893.733 0)
(-1192.51 330.863 0)
(-424.367 138.561 0)
(76.2146 102.816 0)
(259.96 90.8535 0)
(439.623 70.2103 0)
(576.008 62.1255 0)
(632.07 55.494 0)
(607.908 51.9734 0)
(516.112 48.7587 0)
(391.369 45.4554 0)
(265.605 42.3626 0)
(161.562 39.8961 0)
(82.8347 38.1237 0)
(22.1046 37.1276 0)
(-20.2578 36.5432 0)
(-54.9262 36.3134 0)
(-103.916 36.4262 0)
(-181.054 36.7636 0)
(-287.525 37.5346 0)
(-428.314 38.5824 0)
(-598.533 39.8637 0)
(-769.848 41.1618 0)
(-906.674 42.4005 0)
(-979.099 43.4277 0)
(-982.298 44.1767 0)
(-936.39 44.6673 0)
(-872.136 44.5551 0)
(-802.322 44.2124 0)
(-722.185 42.0949 0)
(-587.175 38.7071 0)
(-436.013 43.829 0)
(-312.093 41.1306 0)
(395.816 54.4733 0)
(49817.4 226.418 0)
(-62953.7 1146.68 0)
(-24638.5 -1532.94 0)
(-16170.9 8203.29 0)
(665.433 3675.17 0)
(-881.768 1007.26 0)
(-1750.86 447.479 0)
(-1263.68 142.79 0)
(-444.133 61.6508 0)
(71.6245 40.6659 0)
(258.814 36.5297 0)
(437.689 29.8005 0)
(574.815 25.6706 0)
(631.216 22.1913 0)
(607.368 20.0868 0)
(515.625 18.3878 0)
(390.897 16.7891 0)
(265.205 15.4012 0)
(161.27 14.3595 0)
(82.656 13.6646 0)
(22.007 13.3098 0)
(-20.3121 13.1007 0)
(-54.9433 13.0164 0)
(-103.909 13.0473 0)
(-181.011 13.1467 0)
(-287.431 13.4471 0)
(-428.178 13.9354 0)
(-598.368 14.6329 0)
(-769.673 15.5012 0)
(-906.51 16.5284 0)
(-978.967 17.6461 0)
(-982.21 18.8324 0)
(-936.372 20.0833 0)
(-872.159 21.3591 0)
(-802.475 22.8648 0)
(-722.603 24.1167 0)
(-586.795 25.0204 0)
(-435.675 30.8474 0)
(-310.688 32.9418 0)
(415.185 44.0778 0)
(50049.9 133.214 0)
(-63213.5 4042.94 0)
(-22270.7 4.87691e-09 0)
(-14632.3 2.13163e-09 0)
(-630.85 3.7788e-09 0)
(-1272.67 1.06097e-08 0)
(-1861.74 3.82724e-09 0)
(-1304.75 -2.95521e-09 0)
(-454.076 -1.5309e-08 0)
(68.9066 -3.53818e-08 0)
(256.799 1.10457e-08 0)
(436.464 5.3e-08 0)
(573.794 1.03255e-07 0)
(630.446 1.46469e-07 0)
(606.801 1.18935e-07 0)
(515.152 -6.94394e-08 0)
(390.5 -3.95482e-07 0)
(264.898 -6.72836e-07 0)
(161.057 -5.62088e-07 0)
(82.5293 -3.9419e-08 0)
(21.9406 2.51403e-07 0)
(-20.3431 5.81935e-07 0)
(-54.9417 3.42578e-07 0)
(-103.878 -5.11171e-07 0)
(-180.938 -9.06023e-07 0)
(-287.296 -5.81305e-07 0)
(-427.969 2.55795e-08 0)
(-598.077 1.52864e-07 0)
(-769.297 -2.01003e-07 0)
(-906.05 -8.5727e-07 0)
(-978.429 -1.57025e-06 0)
(-981.59 -1.92452e-06 0)
(-935.655 -1.8052e-06 0)
(-871.327 -1.19244e-06 0)
(-801.52 -5.37994e-07 0)
(-721.558 -8.03075e-08 0)
(-585.217 1.41705e-08 0)
(-433.709 2.88626e-07 0)
(-308.244 8.40427e-07 0)
(424.986 4.41158e-07 0)
(50980.7 1.39547e-06 0)
(-64168.6 1.11898e-05 0)
(-24638.5 1532.94 0)
(-16170.9 -8203.29 0)
(665.433 -3675.17 0)
(-881.768 -1007.26 0)
(-1750.86 -447.479 0)
(-1263.68 -142.79 0)
(-444.133 -61.6508 0)
(71.6245 -40.6659 0)
(258.814 -36.5297 0)
(437.689 -29.8005 0)
(574.815 -25.6706 0)
(631.216 -22.1913 0)
(607.368 -20.0868 0)
(515.625 -18.3878 0)
(390.897 -16.7891 0)
(265.205 -15.4012 0)
(161.27 -14.3595 0)
(82.656 -13.6646 0)
(22.007 -13.3098 0)
(-20.3121 -13.1007 0)
(-54.9433 -13.0164 0)
(-103.909 -13.0473 0)
(-181.011 -13.1467 0)
(-287.431 -13.4471 0)
(-428.178 -13.9354 0)
(-598.368 -14.6329 0)
(-769.673 -15.5012 0)
(-906.51 -16.5284 0)
(-978.967 -17.6462 0)
(-982.21 -18.8324 0)
(-936.372 -20.0833 0)
(-872.159 -21.3591 0)
(-802.475 -22.8648 0)
(-722.603 -24.1167 0)
(-586.795 -25.0204 0)
(-435.675 -30.8474 0)
(-310.688 -32.9418 0)
(415.185 -44.0778 0)
(50049.9 -133.214 0)
(-63213.5 -4042.94 0)
(-26613.7 2607.18 0)
(-16147.4 -6529.12 0)
(1462.54 -3674.71 0)
(-333.706 -1804.27 0)
(-1610.26 -893.733 0)
(-1192.51 -330.863 0)
(-424.367 -138.561 0)
(76.2146 -102.816 0)
(259.96 -90.8535 0)
(439.623 -70.2103 0)
(576.008 -62.1255 0)
(632.07 -55.494 0)
(607.908 -51.9734 0)
(516.112 -48.7587 0)
(391.369 -45.4554 0)
(265.605 -42.3626 0)
(161.562 -39.8961 0)
(82.8347 -38.1237 0)
(22.1046 -37.1276 0)
(-20.2578 -36.5432 0)
(-54.9262 -36.3134 0)
(-103.916 -36.4262 0)
(-181.054 -36.7636 0)
(-287.525 -37.5346 0)
(-428.314 -38.5824 0)
(-598.533 -39.8637 0)
(-769.848 -41.1618 0)
(-906.674 -42.4005 0)
(-979.099 -43.4277 0)
(-982.298 -44.1767 0)
(-936.39 -44.6673 0)
(-872.136 -44.5551 0)
(-802.322 -44.2124 0)
(-722.185 -42.0948 0)
(-587.175 -38.7071 0)
(-436.013 -43.829 0)
(-312.093 -41.1306 0)
(395.816 -54.4733 0)
(49817.4 -226.418 0)
(-62953.7 -1146.68 0)
(37963.9 7548.83 0)
(-20138.5 -4601.28 0)
(2707.54 -2607.12 0)
(228.967 -2495.32 0)
(-989.209 -1360.7 0)
(-872.269 -642.67 0)
(-323.939 -293.168 0)
(96.2426 -233.807 0)
(277.941 -183.298 0)
(453.473 -145.5 0)
(582.666 -126.846 0)
(636.596 -115.261 0)
(610.969 -108.337 0)
(519.151 -101.515 0)
(394.364 -94.6025 0)
(268.23 -88.273 0)
(163.591 -83.2326 0)
(84.186 -79.5688 0)
(22.8855 -77.4518 0)
(-19.8642 -76.1711 0)
(-54.8898 -75.6923 0)
(-104.184 -76.0056 0)
(-181.657 -76.8384 0)
(-288.463 -78.5808 0)
(-429.482 -80.9344 0)
(-599.796 -83.7869 0)
(-771.062 -86.8618 0)
(-907.741 -89.8191 0)
(-979.929 -92.4809 0)
(-982.885 -94.593 0)
(-936.587 -96.0285 0)
(-871.901 -96.5546 0)
(-801.108 -96.1006 0)
(-719.632 -93.5727 0)
(-587.443 -88.3023 0)
(-436.803 -94.7513 0)
(-315.741 -96.3966 0)
(321.354 -111.527 0)
(49633.6 -395.269 0)
(-62652.5 -2081.03 0)
(39224.6 4848.54 0)
(-23793.9 -1766.64 0)
(2824.31 -1969.08 0)
(565.667 -2145.01 0)
(-157.998 -1429.18 0)
(-335.522 -851.997 0)
(-84.2243 -475.124 0)
(171.349 -372.17 0)
(335.413 -292.771 0)
(486.595 -238.871 0)
(601.576 -213.107 0)
(647.479 -196.372 0)
(619.513 -185.308 0)
(527.717 -174.014 0)
(402.524 -163.043 0)
(275.153 -153.068 0)
(168.862 -145.293 0)
(87.6807 -139.633 0)
(24.96 -136.365 0)
(-18.7733 -134.385 0)
(-54.7862 -133.709 0)
(-104.876 -134.207 0)
(-183.212 -135.508 0)
(-290.969 -138.278 0)
(-432.704 -141.917 0)
(-603.567 -146.51 0)
(-775.01 -151.151 0)
(-911.517 -156.061 0)
(-983.255 -160.141 0)
(-985.403 -163.156 0)
(-938.175 -165.126 0)
(-872.331 -165.625 0)
(-800.1 -163.903 0)
(-716.04 -160.898 0)
(-588.167 -154.286 0)
(-443.39 -162.977 0)
(-326.302 -170.547 0)
(147.74 -183.652 0)
(48018 -590.418 0)
(-60728.9 -4233.66 0)
(40933.7 5539.93 0)
(-26708.2 -764.271 0)
(2342.93 -1611.45 0)
(749.228 -1592.55 0)
(256.785 -1303.26 0)
(47.0982 -913.699 0)
(138.44 -638.503 0)
(271.965 -504.704 0)
(406.393 -423.004 0)
(530.24 -361.71 0)
(623.619 -332.365 0)
(663.384 -310.813 0)
(632.514 -293.943 0)
(540.606 -277.42 0)
(414.548 -260.915 0)
(285.334 -246.892 0)
(176.537 -235.734 0)
(92.7893 -227.744 0)
(27.942 -223.056 0)
(-17.3041 -220.252 0)
(-54.7182 -219.439 0)
(-105.917 -220.238 0)
(-185.58 -222.239 0)
(-294.639 -226.283 0)
(-437.414 -231.788 0)
(-608.694 -237.822 0)
(-780.265 -245.398 0)
(-916.404 -250.991 0)
(-986.766 -257.376 0)
(-987.689 -261.039 0)
(-938.966 -262.295 0)
(-870.722 -262.708 0)
(-796.553 -258.868 0)
(-710.364 -255.901 0)
(-589.447 -249.63 0)
(-452.473 -264.561 0)
(-335.663 -278.145 0)
(-83.2488 -291.251 0)
(45730.9 -790.605 0)
(-58003.9 -5732.57 0)
(43826.6 667.851 0)
(-30685.2 -784.903 0)
(2026.15 -1410.32 0)
(862.654 -1337.73 0)
(496.169 -1214.47 0)
(305.061 -957.072 0)
(309.898 -777.23 0)
(379.012 -649.618 0)
(473.208 -571.086 0)
(573.939 -518.086 0)
(650.622 -485.915 0)
(684.504 -461.551 0)
(651.691 -439.927 0)
(559.543 -415.27 0)
(431.942 -394.587 0)
(299.419 -375.026 0)
(187.314 -360.629 0)
(99.8977 -349.988 0)
(32.1793 -343.772 0)
(-15.288 -339.985 0)
(-54.7725 -339.068 0)
(-107.574 -340.404 0)
(-189.038 -343.317 0)
(-300.171 -349.09 0)
(-443.823 -356.01 0)
(-616.683 -365.864 0)
(-787.701 -372.74 0)
(-923.059 -384.46 0)
(-992.938 -389.211 0)
(-990.143 -394.909 0)
(-939.783 -396.344 0)
(-869.029 -396.571 0)
(-793.54 -389.69 0)
(-707.138 -391.156 0)
(-596.512 -388.459 0)
(-470.868 -413.569 0)
(-352.022 -433.064 0)
(-346.085 -453.35 0)
(42774.6 -959.332 0)
(-54442.9 -6839.29 0)
(40820.9 -3839.77 0)
(-28710.8 -811.57 0)
(1810.2 -1267.57 0)
(937.951 -1244.79 0)
(623.604 -1183.05 0)
(468.44 -1034.36 0)
(434.713 -908.951 0)
(470.613 -810.271 0)
(533.142 -742.817 0)
(612.313 -701.668 0)
(678.099 -673.044 0)
(707.699 -649.991 0)
(677.112 -620.377 0)
(584.297 -595.198 0)
(453.329 -565.977 0)
(318.057 -544.299 0)
(200.664 -526.088 0)
(109.034 -513.363 0)
(37.5812 -505.794 0)
(-12.771 -501.093 0)
(-55.1218 -500.163 0)
(-110.012 -502.172 0)
(-193.95 -506.119 0)
(-306.87 -513.061 0)
(-453.578 -522.864 0)
(-624.816 -531.343 0)
(-798.186 -545.815 0)
(-932.277 -551.255 0)
(-996.835 -562.696 0)
(-994.563 -566.575 0)
(-940.568 -564.564 0)
(-864.309 -567.022 0)
(-791.335 -558.411 0)
(-709.177 -563.088 0)
(-611.045 -565.612 0)
(-495.457 -597.495 0)
(-373.998 -626.103 0)
(-590.379 -649.658 0)
(39577.2 -1037.95 0)
(-50488.8 -7480.27 0)
(39344.4 -2349.67 0)
(-28206.5 -827.274 0)
(1608.68 -1157.36 0)
(944.096 -1228.97 0)
(698.946 -1176.45 0)
(569.194 -1104.89 0)
(525.839 -1023.07 0)
(539.105 -957.735 0)
(577.862 -914.973 0)
(641.174 -891.158 0)
(700.42 -870.853 0)
(735.256 -849.122 0)
(704.491 -823.907 0)
(611.964 -790.59 0)
(480.991 -763.384 0)
(337.857 -736.839 0)
(217.124 -717.589 0)
(119.454 -703.269 0)
(44.0038 -694.909 0)
(-9.86142 -689.529 0)
(-55.8127 -688.663 0)
(-113.314 -691.274 0)
(-199.53 -695.898 0)
(-316.307 -704.034 0)
(-461.44 -713.421 0)
(-638.798 -726.393 0)
(-806.889 -734.176 0)
(-939.327 -747.533 0)
(-1007.7 -750.105 0)
(-991.943 -753.423 0)
(-940.213 -747.502 0)
(-863.099 -743.626 0)
(-789.749 -731.025 0)
(-714.078 -730.04 0)
(-629.669 -734.03 0)
(-529.159 -753.398 0)
(-402.288 -790.838 0)
(-742.954 -809.523 0)
(36192.3 -985.507 0)
(-46234.5 -7688.54 0)
(37759.5 -3285.62 0)
(-27561.9 -845.051 0)
(1423.12 -1103.19 0)
(919.56 -1213.44 0)
(743.167 -1191.02 0)
(616.242 -1155.71 0)
(576.518 -1105.59 0)
(574.777 -1072 0)
(597.298 -1053.89 0)
(654.829 -1045.35 0)
(718.607 -1035.25 0)
(752.938 -1021.05 0)
(733.515 -997.374 0)
(642.62 -969.068 0)
(505.125 -940.269 0)
(362.187 -915.361 0)
(233.014 -895.814 0)
(130.889 -881.487 0)
(50.8214 -873.104 0)
(-6.75289 -867.508 0)
(-56.8038 -866.688 0)
(-116.984 -869.498 0)
(-206.245 -874.19 0)
(-323.756 -882.043 0)
(-475.124 -891.434 0)
(-644.816 -901.596 0)
(-818.557 -909.762 0)
(-947.627 -916.499 0)
(-1002.51 -913.751 0)
(-992.054 -908.097 0)
(-931.127 -891.955 0)
(-848.432 -878.607 0)
(-778.243 -858.44 0)
(-712.073 -844.108 0)
(-633.553 -841.442 0)
(-550.2 -846.128 0)
(-428.082 -876.397 0)
(-777.969 -891.367 0)
(32948.3 -885.249 0)
(-42130.2 -7640.84 0)
(35363.9 -4214.6 0)
(-26103.5 -834.342 0)
(1253.69 -1032.39 0)
(859.46 -1140.73 0)
(754.58 -1154.26 0)
(651.51 -1136.25 0)
(606.501 -1108.62 0)
(588.932 -1105.59 0)
(603.537 -1108.98 0)
(659.132 -1116.11 0)
(723.837 -1116.12 0)
(771.755 -1113.14 0)
(754.587 -1095.32 0)
(666.992 -1077.79 0)
(532.744 -1051.31 0)
(380.697 -1032.12 0)
(249.766 -1014.45 0)
(141.338 -1001.95 0)
(57.4748 -994.35 0)
(-3.67854 -989.114 0)
(-57.7298 -988.172 0)
(-120.543 -990.429 0)
(-211.62 -994.243 0)
(-332.924 -999.849 0)
(-480.282 -1007.4 0)
(-656.46 -1010.49 0)
(-821.25 -1017.71 0)
(-943.17 -1009.49 0)
(-999.604 -1000.1 0)
(-970.94 -977.934 0)
(-911.796 -949.963 0)
(-830.803 -924.037 0)
(-756.504 -895.294 0)
(-697.698 -868.455 0)
(-631.615 -855.707 0)
(-562.843 -854.817 0)
(-445.882 -867.431 0)
(-751.484 -878.041 0)
(29688.3 -800.723 0)
(-38018.4 -7383.11 0)
(32894.1 -4482.52 0)
(-24495.4 -792.527 0)
(1127.88 -943.689 0)
(802.122 -1031.72 0)
(747.481 -1061.52 0)
(660.227 -1067.59 0)
(606.06 -1062.46 0)
(574.429 -1080.31 0)
(587.165 -1096.07 0)
(647.95 -1109.23 0)
(721.464 -1118.31 0)
(772.977 -1116.06 0)
(767.586 -1113.19 0)
(685.029 -1093.26 0)
(549.135 -1080.45 0)
(397.712 -1062.79 0)
(262.079 -1050.83 0)
(150.254 -1040.73 0)
(63.1939 -1034.72 0)
(-0.799307 -1030.25 0)
(-58.0716 -1028.97 0)
(-122.833 -1029.97 0)
(-215.322 -1031.69 0)
(-336.435 -1034.64 0)
(-485.381 -1035.51 0)
(-654.749 -1038.86 0)
(-817.588 -1029.63 0)
(-930.656 -1026.94 0)
(-972.105 -998.591 0)
(-943.743 -973.165 0)
(-879.191 -935.641 0)
(-795.75 -902.599 0)
(-724.681 -868.883 0)
(-673.926 -839.63 0)
(-620.412 -822.569 0)
(-561.497 -818.585 0)
(-450.462 -820.531 0)
(-713.687 -824.322 0)
(26679.8 -742.069 0)
(-34244 -6987.47 0)
(30280.7 -4624.34 0)
(-22693.3 -735.354 0)
(1023.19 -850.973 0)
(745.917 -914.901 0)
(720.02 -960.31 0)
(650.597 -978.399 0)
(594.242 -986.317 0)
(556.545 -1007.88 0)
(575.67 -1023.76 0)
(637.704 -1039.7 0)
(717.258 -1048.43 0)
(776.692 -1054.17 0)
(776.558 -1051.22 0)
(698.542 -1045.69 0)
(562.104 -1034.85 0)
(409.237 -1026.02 0)
(271.025 -1017.54 0)
(156.864 -1010.32 0)
(67.5733 -1005.79 0)
(1.86433 -1001.97 0)
(-57.467 -1000.23 0)
(-123.171 -999.904 0)
(-216.118 -999.581 0)
(-336.604 -999.158 0)
(-484.348 -997.327 0)
(-650.788 -991.216 0)
(-809.762 -983.947 0)
(-913.264 -965.9 0)
(-947.784 -940.945 0)
(-910.28 -907.875 0)
(-843.797 -868.951 0)
(-766.472 -835.287 0)
(-695.825 -804.329 0)
(-653.069 -777.023 0)
(-611.335 -760.778 0)
(-560.879 -758.392 0)
(-451.411 -759.349 0)
(-675.876 -761.612 0)
(23749.3 -686.535 0)
(-30570 -6585.36 0)
(27729.3 -4615.8 0)
(-20859.2 -662.251 0)
(954.858 -757.866 0)
(696.761 -801.591 0)
(686.292 -860.558 0)
(635.166 -881.113 0)
(577.646 -902.162 0)
(538.345 -923.738 0)
(556.505 -937.971 0)
(624.18 -955.205 0)
(707.526 -961.503 0)
(770.289 -971.376 0)
(775.75 -970.949 0)
(700.806 -970.267 0)
(568.092 -960.957 0)
(414.392 -955.291 0)
(277.204 -948.888 0)
(161.573 -943.833 0)
(71.24 -940.339 0)
(4.5608 -936.778 0)
(-56.0756 -934.591 0)
(-122.21 -933.399 0)
(-214.603 -931.664 0)
(-334.263 -929.193 0)
(-477.728 -925.937 0)
(-641.855 -919.031 0)
(-793.192 -911.205 0)
(-889.218 -893.018 0)
(-916.191 -866.141 0)
(-874.367 -832.25 0)
(-809.242 -797.326 0)
(-733.478 -762.047 0)
(-668.536 -734.231 0)
(-631.959 -709.522 0)
(-602.458 -695.244 0)
(-560.12 -694.302 0)
(-453.565 -695.305 0)
(-643.521 -696.436 0)
(21067.8 -628.241 0)
(-27236.5 -6130.91 0)
(25194.5 -4563.3 0)
(-18975.7 -605.179 0)
(888.919 -700.358 0)
(646.959 -737.178 0)
(643.39 -788.548 0)
(610.506 -808.484 0)
(553.166 -836.437 0)
(522.037 -852.871 0)
(545.347 -861.652 0)
(615.028 -869.741 0)
(701.675 -875.768 0)
(767.589 -881.033 0)
(777.626 -884.786 0)
(708.172 -882.235 0)
(576.536 -879.731 0)
(420.866 -876.915 0)
(282.067 -875.124 0)
(165.103 -872.378 0)
(74.372 -870.089 0)
(7.40272 -866.554 0)
(-54.2117 -863.999 0)
(-120.351 -862.317 0)
(-212.065 -859.174 0)
(-331.085 -855.023 0)
(-474.555 -848.108 0)
(-636.593 -841.554 0)
(-784.695 -828.158 0)
(-869.838 -816.967 0)
(-889.225 -786.88 0)
(-843.967 -761.137 0)
(-776.147 -727.066 0)
(-705.672 -698.589 0)
(-645.21 -676.108 0)
(-615.499 -657.885 0)
(-596.668 -648.207 0)
(-560.938 -648.429 0)
(-453.468 -649.922 0)
(-611.25 -650.385 0)
(18512.4 -587.605 0)
(-24056.6 -5690.12 0)
(22748.8 -4538.5 0)
(-17136.8 -562.345 0)
(827.658 -653.73 0)
(611.778 -696.841 0)
(617.579 -733.277 0)
(589.018 -748.179 0)
(534.874 -779.225 0)
(514.048 -787.171 0)
(540.248 -791.131 0)
(610.577 -795.935 0)
(696.645 -798.243 0)
(761.599 -806.599 0)
(774.591 -811.672 0)
(705.677 -811.836 0)
(573.219 -808.315 0)
(418.831 -802.704 0)
(281.577 -801.221 0)
(166.425 -798.994 0)
(76.8519 -797.797 0)
(10.4292 -794.253 0)
(-51.9925 -791.438 0)
(-117.561 -789.43 0)
(-207.575 -785.082 0)
(-323.6 -780.828 0)
(-464.749 -774.622 0)
(-622.63 -772.095 0)
(-769.499 -762.959 0)
(-849.441 -750.985 0)
(-862.391 -723.753 0)
(-816.728 -697.805 0)
(-748.968 -668.871 0)
(-684.373 -646.159 0)
(-629.313 -629.317 0)
(-605.073 -616.36 0)
(-593.345 -610.538 0)
(-561.772 -610.351 0)
(-455.45 -611.219 0)
(-583.47 -610.496 0)
(16211.3 -550.2 0)
(-21187.1 -5277.29 0)
(20279.2 -4406.35 0)
(-15232.2 -540.573 0)
(759.314 -633.353 0)
(570.305 -682.455 0)
(593.918 -715.737 0)
(566.229 -727.867 0)
(515.593 -750.408 0)
(510.565 -752.06 0)
(536.901 -751.921 0)
(608.174 -747.496 0)
(691.399 -745.633 0)
(754.648 -748.717 0)
(772.579 -746.179 0)
(711.407 -740.929 0)
(585.336 -726.023 0)
(427.703 -716.691 0)
(285.642 -711.577 0)
(168.402 -709.621 0)
(78.9406 -710.173 0)
(13.5301 -708.679 0)
(-49.5634 -705.614 0)
(-114.225 -701.306 0)
(-203.776 -695.159 0)
(-321.005 -691.029 0)
(-466.14 -689.332 0)
(-625.354 -691.995 0)
(-764.352 -695.774 0)
(-832.058 -691.282 0)
(-837.979 -675.484 0)
(-791.081 -656.591 0)
(-726.379 -635.638 0)
(-667.557 -620.115 0)
(-616.495 -609.025 0)
(-597.403 -601.206 0)
(-590.877 -598.247 0)
(-561.595 -596.493 0)
(-453.608 -595.279 0)
(-552.45 -590.686 0)
(14015.3 -528.823 0)
(-18441 -4835.65 0)
(17981.8 -4365.14 0)
(-13501 -519.642 0)
(690.936 -613.96 0)
(532.389 -664.732 0)
(573.818 -693.632 0)
(555.608 -710.211 0)
(511.56 -722.797 0)
(512.59 -719.358 0)
(544.646 -712.707 0)
(616.637 -697.203 0)
(695.469 -682.992 0)
(761.072 -674.256 0)
(782.096 -662.764 0)
(725.1 -651.25 0)
(596.576 -626.617 0)
(432.752 -605.921 0)
(288.389 -589.56 0)
(167.778 -578.909 0)
(77.7593 -573.174 0)
(14.8228 -568.589 0)
(-44.8874 -565.379 0)
(-107.486 -563.849 0)
(-197.671 -563.588 0)
(-317.984 -568.213 0)
(-465.68 -577.792 0)
(-628.839 -593.885 0)
(-768.812 -608.418 0)
(-829.889 -614.62 0)
(-828.962 -609.487 0)
(-778.33 -604.467 0)
(-713.818 -597.438 0)
(-658.727 -592.89 0)
(-611.091 -591.154 0)
(-594.687 -590.475 0)
(-588.803 -589.249 0)
(-558.912 -584.262 0)
(-449.854 -580.175 0)
(-519.431 -569.847 0)
(12120.7 -503.352 0)
(-16017.7 -4503.56 0)
(15572 -3874.01 0)
(-11617.4 -446.88 0)
(619.5 -556.668 0)
(493.53 -622.228 0)
(550.093 -648.504 0)
(538.124 -667.81 0)
(506.779 -673.237 0)
(520.288 -661.813 0)
(558.251 -647.458 0)
(636.808 -629.846 0)
(713.512 -606.474 0)
(774.14 -593.161 0)
(794.748 -567.918 0)
(746.239 -545.179 0)
(629.018 -511.688 0)
(463.412 -484.35 0)
(311.671 -458.284 0)
(184.192 -440.453 0)
(88.8851 -430.06 0)
(21.0414 -422.717 0)
(-44.9952 -419.453 0)
(-112.499 -420.679 0)
(-207.982 -424.872 0)
(-334.693 -437.32 0)
(-490.879 -456.337 0)
(-654.866 -482.285 0)
(-784.333 -503.759 0)
(-833.089 -525.187 0)
(-828.196 -532.57 0)
(-779.47 -536.97 0)
(-715.222 -537.685 0)
(-661.501 -539.749 0)
(-614.169 -543.294 0)
(-595.566 -546.063 0)
(-584.89 -545.174 0)
(-552.851 -539.186 0)
(-439.717 -532.288 0)
(-478.42 -502.257 0)
(10224.7 -419.188 0)
(-13616.2 -3813.93 0)
(13818 -3297.3 0)
(-10304.3 -249.866 0)
(521.964 -371.602 0)
(443.891 -482.928 0)
(529.894 -525.102 0)
(531.775 -548.048 0)
(517.339 -535.446 0)
(537.431 -518.086 0)
(575.451 -499.793 0)
(656.131 -482.643 0)
(730.819 -465.373 0)
(798.227 -452.333 0)
(828.333 -423.371 0)
(779.285 -404.524 0)
(655.193 -378.791 0)
(484.215 -360.99 0)
(330.69 -344.362 0)
(194.976 -332.302 0)
(94.8508 -322.821 0)
(25.0437 -311.387 0)
(-42.9234 -308.691 0)
(-112.707 -315.115 0)
(-213.707 -319.72 0)
(-348.306 -328.683 0)
(-509.011 -341.061 0)
(-674.537 -359.84 0)
(-810.153 -377.162 0)
(-857.652 -393.089 0)
(-840.316 -404.198 0)
(-783.26 -409.658 0)
(-716.496 -412.723 0)
(-664.132 -412.834 0)
(-617.176 -416.355 0)
(-596.498 -416.158 0)
(-582.176 -414.225 0)
(-546.495 -405.819 0)
(-414.268 -379.185 0)
(-410.443 -308.515 0)
(8929.48 -208.725 0)
(-11938.5 -2996.88 0)
(12153.9 1172.02 0)
(-8798.09 -25.0959 0)
(394.913 -282.116 0)
(345.612 -435.141 0)
(487.341 -526.956 0)
(528.156 -584.342 0)
(535.651 -612.172 0)
(554.644 -635.36 0)
(592.405 -655.725 0)
(669.977 -676.627 0)
(742.72 -707.408 0)
(814.615 -738.37 0)
(840.818 -747.555 0)
(789.199 -669.511 0)
(670.969 -465.712 0)
(496.589 -171.239 0)
(339.316 146.261 0)
(204.949 427.253 0)
(109.04 602.85 0)
(34.6574 690.899 0)
(-48.5886 693.301 0)
(-123.127 609.78 0)
(-221.056 439.026 0)
(-355.258 161.998 0)
(-520.902 -149.59 0)
(-689.654 -440.023 0)
(-816.373 -638.642 0)
(-859.141 -716.53 0)
(-844.162 -707.352 0)
(-787.685 -669.522 0)
(-718.283 -632.779 0)
(-665.001 -596.63 0)
(-617.372 -565.701 0)
(-593.513 -532.663 0)
(-574.927 -498.267 0)
(-519.086 -457.187 0)
(-345.951 -386.564 0)
(-314.158 -274.303 0)
(7634.05 -47.4985 0)
(-10527.1 1873.51 0)
(14923.2 142854 0)
(-11705.5 11748.6 0)
(126.829 8482.46 0)
(207.955 9837.16 0)
(386.119 11236.6 0)
(449.657 13299.6 0)
(468.176 15386.2 0)
(495.462 17846.7 0)
(535.685 20419.4 0)
(606.327 23320.6 0)
(671.322 26333.8 0)
(759.54 29638.8 0)
(894.688 32983.7 0)
(1050.88 36555.3 0)
(1135.34 40045.1 0)
(1073.93 43639.9 0)
(907.419 46889.2 0)
(634.961 49750.5 0)
(348.91 51509.6 0)
(112.205 53044.6 0)
(-121.093 53052.3 0)
(-357.736 51518.3 0)
(-645.206 49764.4 0)
(-915.517 46903.7 0)
(-1089.14 43656.1 0)
(-1145.8 40060.4 0)
(-1076.61 36568.5 0)
(-923.864 32992.3 0)
(-795.017 29644.8 0)
(-711.399 26333.6 0)
(-646.254 23309.6 0)
(-599.492 20416.7 0)
(-555.535 17821.8 0)
(-531.516 15346.3 0)
(-509.444 13207.6 0)
(-438.854 11075.1 0)
(-238.035 9612.19 0)
(-83.7074 8140.41 0)
(10999.2 11104.5 0)
(-13698.1 137894 0)
(161134 -167725 0)
(-138283 -14976.5 0)
(-1447.05 -12076.1 0)
(2999.64 -13606.5 0)
(3823.91 -15404.7 0)
(4526.85 -17975.4 0)
(4917.33 -20569 0)
(5404.77 -23564.1 0)
(5867.33 -26691.9 0)
(6369.37 -30208.8 0)
(6831.09 -33930.8 0)
(7222.7 -37994.3 0)
(7505.88 -42214.3 0)
(7593.78 -46711.9 0)
(7497.88 -51185.1 0)
(7091.78 -55670.9 0)
(6227.78 -59659 0)
(4657.38 -63075.3 0)
(3283.29 -65151.1 0)
(1521.21 -66844.6 0)
(-1519.33 -66846.1 0)
(-3291.47 -65142.3 0)
(-4667.83 -63059.2 0)
(-6241.43 -59628.7 0)
(-7115.37 -55632.2 0)
(-7519.49 -51114.6 0)
(-7627.5 -46639.9 0)
(-7531.06 -42082 0)
(-7260.72 -37865.9 0)
(-6892.5 -33722.3 0)
(-6420 -29975.1 0)
(-5953.28 -26389.4 0)
(-5503.44 -23175 0)
(-5039.92 -20101.8 0)
(-4690.79 -17393.3 0)
(-3983.74 -14705.3 0)
(-3173.9 -12803.9 0)
(1123.88 -11164.6 0)
(132669 -13883.3 0)
(-154108 -160255 0)
(161134 167725 0)
(-138283 14976.5 0)
(-1447.05 12076.1 0)
(2999.64 13606.5 0)
(3823.91 15404.7 0)
(4526.85 17975.4 0)
(4917.33 20569 0)
(5404.77 23564.1 0)
(5867.33 26691.9 0)
(6369.37 30208.8 0)
(6831.09 33930.8 0)
(7222.7 37994.3 0)
(7505.88 42214.3 0)
(7593.78 46711.9 0)
(7497.88 51185.1 0)
(7091.78 55670.9 0)
(6227.78 59659 0)
(4657.38 63075.3 0)
(3283.29 65151.1 0)
(1521.21 66844.6 0)
(-1519.33 66846.1 0)
(-3291.47 65142.3 0)
(-4667.83 63059.2 0)
(-6241.43 59628.7 0)
(-7115.37 55632.2 0)
(-7519.49 51114.6 0)
(-7627.5 46639.9 0)
(-7531.06 42082 0)
(-7260.72 37865.9 0)
(-6892.5 33722.3 0)
(-6420 29975.1 0)
(-5953.28 26389.4 0)
(-5503.44 23175 0)
(-5039.92 20101.8 0)
(-4690.79 17393.3 0)
(-3983.74 14705.3 0)
(-3173.9 12803.9 0)
(1123.88 11164.6 0)
(132669 13883.3 0)
(-154108 160255 0)
(14923.2 -142854 0)
(-11705.5 -11748.6 0)
(126.829 -8482.46 0)
(207.955 -9837.16 0)
(386.119 -11236.6 0)
(449.657 -13299.6 0)
(468.176 -15386.2 0)
(495.462 -17846.7 0)
(535.685 -20419.4 0)
(606.327 -23320.6 0)
(671.322 -26333.8 0)
(759.54 -29638.8 0)
(894.688 -32983.7 0)
(1050.88 -36555.3 0)
(1135.34 -40045.1 0)
(1073.93 -43639.9 0)
(907.419 -46889.2 0)
(634.961 -49750.5 0)
(348.91 -51509.6 0)
(112.205 -53044.6 0)
(-121.093 -53052.3 0)
(-357.736 -51518.3 0)
(-645.206 -49764.4 0)
(-915.517 -46903.7 0)
(-1089.14 -43656.1 0)
(-1145.8 -40060.4 0)
(-1076.61 -36568.5 0)
(-923.864 -32992.3 0)
(-795.017 -29644.8 0)
(-711.399 -26333.6 0)
(-646.254 -23309.6 0)
(-599.492 -20416.7 0)
(-555.535 -17821.8 0)
(-531.516 -15346.3 0)
(-509.444 -13207.6 0)
(-438.854 -11075.1 0)
(-238.035 -9612.19 0)
(-83.7074 -8140.41 0)
(10999.2 -11104.5 0)
(-13698.1 -137894 0)
(12153.9 -1172.02 0)
(-8798.09 25.0959 0)
(394.913 282.116 0)
(345.612 435.141 0)
(487.341 526.956 0)
(528.156 584.342 0)
(535.651 612.172 0)
(554.644 635.36 0)
(592.405 655.725 0)
(669.977 676.627 0)
(742.72 707.408 0)
(814.615 738.37 0)
(840.818 747.555 0)
(789.199 669.511 0)
(670.969 465.712 0)
(496.589 171.239 0)
(339.316 -146.261 0)
(204.949 -427.253 0)
(109.04 -602.85 0)
(34.6574 -690.899 0)
(-48.5886 -693.301 0)
(-123.127 -609.78 0)
(-221.056 -439.026 0)
(-355.258 -161.998 0)
(-520.902 149.59 0)
(-689.654 440.023 0)
(-816.373 638.642 0)
(-859.141 716.53 0)
(-844.162 707.352 0)
(-787.685 669.522 0)
(-718.283 632.779 0)
(-665.001 596.63 0)
(-617.372 565.701 0)
(-593.513 532.663 0)
(-574.927 498.267 0)
(-519.086 457.187 0)
(-345.951 386.564 0)
(-314.158 274.303 0)
(7634.05 47.4985 0)
(-10527.1 -1873.51 0)
(13818 3297.3 0)
(-10304.3 249.866 0)
(521.964 371.602 0)
(443.891 482.928 0)
(529.894 525.102 0)
(531.775 548.048 0)
(517.339 535.446 0)
(537.431 518.086 0)
(575.451 499.793 0)
(656.131 482.643 0)
(730.819 465.373 0)
(798.227 452.333 0)
(828.333 423.371 0)
(779.285 404.524 0)
(655.193 378.791 0)
(484.215 360.99 0)
(330.69 344.362 0)
(194.976 332.302 0)
(94.8508 322.821 0)
(25.0437 311.387 0)
(-42.9234 308.691 0)
(-112.707 315.115 0)
(-213.707 319.72 0)
(-348.306 328.683 0)
(-509.011 341.061 0)
(-674.537 359.84 0)
(-810.153 377.162 0)
(-857.652 393.089 0)
(-840.316 404.198 0)
(-783.26 409.658 0)
(-716.496 412.723 0)
(-664.132 412.834 0)
(-617.176 416.355 0)
(-596.498 416.158 0)
(-582.176 414.225 0)
(-546.495 405.819 0)
(-414.268 379.185 0)
(-410.443 308.515 0)
(8929.48 208.725 0)
(-11938.5 2996.88 0)
(15572 3874.01 0)
(-11617.4 446.88 0)
(619.5 556.668 0)
(493.53 622.228 0)
(550.093 648.504 0)
(538.124 667.81 0)
(506.779 673.237 0)
(520.288 661.813 0)
(558.251 647.458 0)
(636.808 629.846 0)
(713.512 606.474 0)
(774.14 593.161 0)
(794.748 567.918 0)
(746.239 545.179 0)
(629.018 511.688 0)
(463.412 484.35 0)
(311.671 458.284 0)
(184.192 440.453 0)
(88.8851 430.06 0)
(21.0414 422.717 0)
(-44.9952 419.453 0)
(-112.499 420.679 0)
(-207.982 424.872 0)
(-334.693 437.32 0)
(-490.879 456.337 0)
(-654.866 482.285 0)
(-784.333 503.759 0)
(-833.089 525.187 0)
(-828.196 532.57 0)
(-779.47 536.97 0)
(-715.222 537.685 0)
(-661.501 539.749 0)
(-614.169 543.294 0)
(-595.566 546.063 0)
(-584.89 545.174 0)
(-552.851 539.186 0)
(-439.717 532.288 0)
(-478.42 502.257 0)
(10224.7 419.188 0)
(-13616.2 3813.93 0)
(17981.8 4365.14 0)
(-13501 519.642 0)
(690.936 613.96 0)
(532.389 664.732 0)
(573.818 693.632 0)
(555.608 710.211 0)
(511.56 722.797 0)
(512.59 719.358 0)
(544.646 712.707 0)
(616.637 697.203 0)
(695.469 682.992 0)
(761.072 674.256 0)
(782.096 662.764 0)
(725.1 651.25 0)
(596.576 626.617 0)
(432.752 605.921 0)
(288.389 589.56 0)
(167.778 578.909 0)
(77.7593 573.174 0)
(14.8228 568.589 0)
(-44.8874 565.379 0)
(-107.486 563.849 0)
(-197.671 563.588 0)
(-317.984 568.213 0)
(-465.68 577.792 0)
(-628.839 593.885 0)
(-768.812 608.418 0)
(-829.889 614.62 0)
(-828.962 609.487 0)
(-778.33 604.467 0)
(-713.818 597.438 0)
(-658.727 592.89 0)
(-611.091 591.154 0)
(-594.687 590.475 0)
(-588.803 589.249 0)
(-558.912 584.262 0)
(-449.854 580.175 0)
(-519.431 569.847 0)
(12120.7 503.352 0)
(-16017.7 4503.56 0)
(20279.2 4406.35 0)
(-15232.2 540.573 0)
(759.314 633.353 0)
(570.305 682.455 0)
(593.918 715.737 0)
(566.229 727.867 0)
(515.593 750.408 0)
(510.565 752.06 0)
(536.901 751.921 0)
(608.174 747.496 0)
(691.399 745.633 0)
(754.648 748.717 0)
(772.579 746.179 0)
(711.407 740.929 0)
(585.336 726.023 0)
(427.703 716.691 0)
(285.642 711.577 0)
(168.402 709.621 0)
(78.9406 710.173 0)