/*--------------------------------*- C++ -*----------------------------------*\
| =========                 |                                                 |
| \\      /  F ield         | OpenFOAM: The Open Source CFD Toolbox           |
|  \\    /   O peration     | Version:  v1912                                 |
|   \\  /    A nd           | Website:  www.openfoam.com                      |
|    \\/     M anipulation  |                                                 |
\*---------------------------------------------------------------------------*/
FoamFile
{
    version     2.0;
    format      ascii;
    class       volScalarField;
    location    "0.46";
    object      p;
}
// * * * * * * * * * * * * * * * * * * * * * * * * * * * * * * * * * * * * * //

dimensions      [1 -1 -2 0 0 0 0];


internalField   nonuniform List<scalar> 
4800
(
197.037
4.61869
5.80461
7.45053
8.09607
8.26347
8.32912
8.3327
8.22806
7.93794
7.2137
6.26337
5.82441
5.87137
6.08471
6.39936
6.76575
7.11182
7.3766
7.55652
7.64302
7.64694
7.59837
7.55673
7.51438
7.46629
7.41
7.34272
7.26241
7.17451
7.09556
7.0584
7.07071
7.0875
7.11689
7.15501
7.19823
7.242
7.2884
7.31206
196.263
4.60231
5.76061
7.43225
8.10285
8.27323
8.33224
8.33505
8.22685
7.92751
7.18398
6.232
5.81499
5.86925
6.07947
6.39312
6.75862
7.10169
7.36216
7.54185
7.63056
7.63802
7.60037
7.56512
7.52813
7.48789
7.43925
7.37414
7.28844
7.18981
7.10125
7.06106
7.07333
7.08886
7.11642
7.15269
7.19499
7.23932
7.28509
7.31553
195.582
4.60172
5.68286
7.39177
8.11449
8.2964
8.34508
8.34582
8.2408
7.94129
7.15636
6.18056
5.7937
5.85294
6.06115
6.37167
6.74013
7.08317
7.34315
7.52587
7.62251
7.62976
7.60497
7.57579
7.54443
7.51039
7.4701
7.41051
7.32149
7.2107
7.10936
7.06381
7.07484
7.08823
7.11205
7.14527
7.1863
7.23264
7.27826
7.31533
194.708
4.63145
5.57262
7.32653
8.14715
8.35163
8.38303
8.37419
8.268
7.96951
7.14114
6.11847
5.75952
5.82146
6.02853
6.33728
6.70764
7.04986
7.31063
7.50111
7.60891
7.62091
7.61297
7.59405
7.57107
7.54351
7.50783
7.45231
7.36121
7.2374
7.12094
7.06846
7.07649
7.08761
7.10677
7.13692
7.1776
7.22617
7.27592
7.3202
194.046
4.71543
5.47326
7.23642
8.18039
8.44752
8.47742
8.45608
8.33805
8.03046
7.15716
6.06988
5.72199
5.77715
5.97725
6.28753
6.66134
7.00445
7.27004
7.47289
7.59123
7.61824
7.62763
7.62084
7.60679
7.58421
7.55042
7.49522
7.40232
7.26579
7.13337
7.07297
7.0764
7.08607
7.10254
7.13059
7.17192
7.22369
7.27895
7.32942
193.572
4.84506
5.4043
7.11157
8.16098
8.49866
8.57329
8.559
8.4574
8.15678
7.21307
6.04869
5.69112
5.7309
5.91905
6.22553
6.6012
6.949
7.22438
7.445
7.57188
7.62283
7.64904
7.65384
7.64648
7.62596
7.59199
7.53639
7.44013
7.29321
7.14749
7.07755
7.07404
7.08329
7.09982
7.12844
7.17145
7.22621
7.28536
7.3401
193.287
4.98265
5.36411
6.96715
8.08038
8.49348
8.6203
8.62581
8.56888
8.32764
7.34781
6.06432
5.67364
5.69293
5.86426
6.15902
6.53241
6.8871
7.17639
7.41786
7.55729
7.63259
7.67352
7.68668
7.68326
7.66392
7.62776
7.57039
7.46897
7.31601
7.16199
7.08047
7.07145
7.08262
7.10023
7.13011
7.17451
7.23054
7.29215
7.34762
193.198
5.10209
5.35074
6.83327
7.96061
8.45739
8.62234
8.65794
8.63977
8.48732
7.54625
6.1416
5.67193
5.66881
5.81648
6.09394
6.46114
6.82235
7.1272
7.38907
7.54741
7.64529
7.69666
7.71312
7.71081
7.69441
7.65714
7.59303
7.48615
7.33203
7.17583
7.08344
7.07154
7.08466
7.10427
7.13537
7.17914
7.23523
7.29601
7.34996
193.272
5.19035
5.34542
6.71908
7.83179
8.39637
8.60213
8.6679
8.67879
8.59555
7.76462
6.2965
5.6887
5.66298
5.78501
6.04394
6.39913
6.76087
7.0778
7.3554
7.5374
7.65461
7.71304
7.73183
7.72952
7.71137
7.67169
7.60275
7.4924
7.33951
7.1876
7.09044
7.07506
7.08812
7.10914
7.14069
7.18421
7.23711
7.29327
7.34402
193.504
5.24079
5.32076
6.61341
7.70766
8.31884
8.56719
8.65589
8.69308
8.64446
7.95232
6.51053
5.73269
5.67798
5.77362
6.01451
6.35271
6.70963
7.03321
7.32123
7.52663
7.65604
7.71784
7.7361
7.73131
7.71075
7.66912
7.59706
7.48506
7.33844
7.19945
7.10541
7.08418
7.0946
7.11836
7.14968
7.18882
7.23451
7.28318
7.3285
193.888
5.25596
5.26902
6.51196
7.6001
8.24646
8.5189
8.62371
8.68295
8.64295
8.08545
6.75225
5.82511
5.71641
5.7821
6.00366
6.32067
6.66913
6.99361
7.28459
7.51051
7.64549
7.70901
7.72769
7.72181
7.69967
7.65517
7.57897
7.46671
7.33139
7.21264
7.12938
7.10177
7.10699
7.12898
7.15818
7.19123
7.22905
7.26863
7.30717
194.404
5.27375
5.20472
6.40791
7.50357
8.18496
8.47553
8.58337
8.6506
8.606
8.16858
7.00426
5.9718
5.77312
5.80878
6.00992
6.30603
6.642
6.96023
7.24525
7.48129
7.62169
7.68624
7.70848
7.70277
7.67885
7.63125
7.55228
7.44285
7.32225
7.22776
7.16028
7.129
7.12797
7.14257
7.16843
7.19446
7.22344
7.25406
7.28575
195.25
5.31381
5.11827
6.28657
7.39317
8.11605
8.42609
8.53524
8.59631
8.54736
8.20779
7.24589
6.17753
5.84753
5.85663
6.03427
6.30875
6.62827
6.9326
7.20233
7.43383
7.58503
7.65233
7.67899
7.67496
7.64859
7.59793
7.51878
7.41648
7.31415
7.24452
7.19576
7.16219
7.15261
7.16023
7.17907
7.20088
7.22237
7.24535
7.27009
196.454
5.39594
5.04777
6.15385
7.25276
8.02805
8.35916
8.47384
8.52312
8.47195
8.20526
7.45635
6.43623
5.94874
5.93152
6.07663
6.32712
6.62515
6.90766
7.15405
7.37349
7.53452
7.60996
7.63999
7.63863
7.61145
7.55955
7.48238
7.38997
7.3108
7.26461
7.23193
7.19585
7.17714
7.1792
7.19211
7.21042
7.2269
7.24379
7.26221
197.519
5.53588
5.00375
6.01953
7.08301
7.91768
8.27364
8.39476
8.43174
8.38082
8.16928
7.61556
6.72248
6.1096
6.02562
6.13118
6.35805
6.6267
6.88244
7.10304
7.30742
7.47393
7.56223
7.5961
7.59632
7.56935
7.51761
7.44519
7.36959
7.31602
7.28947
7.26702
7.23011
7.20226
7.19678
7.20623
7.22332
7.23725
7.2499
7.26304
198.21
5.76664
4.98148
5.89415
6.89743
7.78809
8.1743
8.29961
8.3254
8.27357
8.10756
7.7172
6.99812
6.33536
6.13447
6.21387
6.39744
6.62877
6.85319
7.04995
7.24012
7.40654
7.50755
7.54704
7.54932
7.52268
7.47359
7.41156
7.35942
7.3311
7.31824
7.30093
7.26465
7.22754
7.21299
7.22182
7.23722
7.25199
7.26147
7.27124
198.575
6.13646
4.97088
5.78445
6.71504
7.65197
8.0733
8.20188
8.21665
8.16253
8.03224
7.76245
7.2265
6.59226
6.26617
6.30756
6.43658
6.6293
6.82121
6.99728
7.17517
7.33881
7.44782
7.49247
7.49706
7.47299
7.43145
7.38763
7.35812
7.35433
7.35001
7.33486
7.29897
7.25526
7.23173
7.23715
7.25119
7.26691
7.27578
7.28449
198.624
6.74117
4.95992
5.69383
6.55028
7.51981
7.98123
8.11615
8.11934
8.0645
7.95889
7.77619
7.4005
6.83752
6.42431
6.38347
6.47698
6.62621
6.78836
6.95022
7.11678
7.27448
7.38484
7.43283
7.44142
7.4254
7.39837
7.37458
7.37215
7.38084
7.38406
7.37067
7.33551
7.28973
7.25612
7.25231
7.26353
7.27798
7.28657
7.29439
198.365
7.64728
4.9481
5.62037
6.40707
7.39906
7.90702
8.05306
8.04848
7.99348
7.91016
7.79115
7.52957
7.04607
6.58283
6.44524
6.50865
6.61669
6.75427
6.90546
7.06131
7.21016
7.31636
7.36854
7.38562
7.38437
7.37754
7.37728
7.39426
7.40993
7.42076
7.41088
7.37769
7.33111
7.28501
7.26846
7.27368
7.28388
7.29105
7.29766
198.358
8.58678
4.95092
5.55938
6.28192
7.28647
7.84206
8.00211
8.00771
7.9526
7.89629
7.82143
7.63796
7.21815
6.7215
6.49225
6.52357
6.59578
6.71572
6.85809
7.00435
7.14255
7.24356
7.30261
7.3345
7.35295
7.36719
7.39228
7.41738
7.44167
7.46007
7.45643
7.42775
7.37912
7.31701
7.28464
7.28064
7.28433
7.28969
7.29598
198.237
9.37787
4.96635
5.50656
6.17035
7.17171
7.7735
7.96105
7.99349
7.95933
7.92735
7.89717
7.7617
7.36223
6.82308
6.52209
6.52365
6.56991
6.67387
6.80597
6.94346
7.07292
7.17336
7.24231
7.29271
7.33196
7.37025
7.40887
7.44324
7.47483
7.50042
7.50439
7.48224
7.43042
7.35398
7.30132
7.28354
7.27912
7.28087
7.28851
197.979
9.93074
4.99157
5.47369
6.08035
7.04702
7.68012
7.90442
7.97752
7.9985
7.99681
8.00734
7.88867
7.47707
6.89075
6.5371
6.5094
6.53938
6.63133
6.75229
6.88297
7.00962
7.11596
7.19518
7.26214
7.32013
7.3765
7.42456
7.46702
7.50697
7.53993
7.54977
7.53306
7.47921
7.39372
7.32156
7.28642
7.27355
7.26929
7.27361
197.549
10.0484
5.07952
5.48333
6.02333
6.91204
7.53215
7.79027
7.92484
8.02943
8.07507
8.10284
7.99237
7.56301
6.94509
6.55659
6.49263
6.5109
6.59873
6.7147
6.84062
6.96375
7.07403
7.16048
7.23889
7.31184
7.37877
7.43537
7.48622
7.53455
7.57416
7.58428
7.57236
7.51651
7.42731
7.34722
7.29731
7.27327
7.2627
7.26237
196.995
9.33761
5.29862
5.61891
6.06737
6.84881
7.36318
7.60306
7.77699
7.96272
8.08978
8.14858
8.0361
7.59714
6.9922
6.60247
6.50579
6.52337
6.60135
6.70809
6.8217
6.93394
7.04092
7.13049
7.21413
7.29566
7.36922
7.43578
7.4981
7.55573
7.59655
7.60784
7.59511
7.53625
7.44602
7.36797
7.31606
7.28152
7.26113
7.25433
197.321
7.11815
5.52129
5.88487
6.29689
6.91251
7.23681
7.39601
7.56578
7.79105
7.99979
8.09717
7.97799
7.54638
7.00032
6.69295
6.60404
6.60496
6.65246
6.72925
6.82066
6.91585
7.01162
7.09928
7.18372
7.26842
7.3483
7.42523
7.49689
7.55995
7.60431
7.61714
7.60105
7.53709
7.44652
7.37555
7.33083
7.29871
7.27301
7.25537
197.212
5.17342
5.60474
6.29149
6.74137
7.08096
7.19389
7.23909
7.35991
7.57727
7.81197
7.92729
7.79429
7.39727
6.96752
6.80763
6.76667
6.76762
6.77578
6.80099
6.85097
6.91317
6.98458
7.06395
7.14753
7.23489
7.32248
7.40783
7.48663
7.55302
7.59875
7.61059
7.58567
7.5181
7.43175
7.37014
7.33897
7.32138
7.30378
7.28126
194.393
5.3076
6.3045
6.96349
7.21273
7.27622
7.21311
7.14918
7.19298
7.35688
7.55334
7.64176
7.49802
7.18021
6.95609
6.91469
6.94191
6.97339
6.96705
6.93113
6.91378
6.92601
6.95969
7.02402
7.10602
7.19625
7.29063
7.38488
7.4697
7.53668
7.58011
7.58684
7.55139
7.48152
7.40751
7.35802
7.33979
7.34255
7.34514
7.33266
188.8
7.86064
7.21939
7.55768
7.611
7.5042
7.31689
7.15164
7.08374
7.13849
7.21863
7.22642
7.12297
6.99788
6.9739
7.01225
7.1017
7.1774
7.19186
7.13137
7.03078
6.95431
6.94657
6.98298
7.05732
7.15023
7.25241
7.35651
7.44584
7.51043
7.5485
7.54988
7.50686
7.43727
7.37826
7.34262
7.33815
7.36194
7.38481
7.39062
184.498
9.76139
7.77676
7.9286
7.89399
7.76416
7.51825
7.22518
7.0047
6.89011
6.81605
6.75929
6.77271
6.86699
6.98268
7.10825
7.2445
7.35698
7.40344
7.35403
7.20794
7.03365
6.93885
6.94363
7.00245
7.09673
7.20818
7.32168
7.41428
7.47505
7.50636
7.50043
7.45346
7.39199
7.34731
7.32785
7.3409
7.37968
7.41807
7.44144
181.601
10.5446
8.05377
8.15186
8.09688
7.99201
7.74498
7.37114
6.93158
6.59207
6.40502
6.39355
6.52784
6.75633
6.99748
7.1996
7.37486
7.51225
7.58111
7.55555
7.40824
7.16525
6.96229
6.90914
6.94552
7.03774
7.15741
7.27823
7.37342
7.43099
7.45527
7.44244
7.3969
7.34948
7.31922
7.31874
7.3471
7.39341
7.4442
7.48012
179.866
10.9804
8.21839
8.2988
8.24131
8.16581
7.92498
7.47069
6.79656
6.26806
6.09253
6.15718
6.36741
6.67981
7.01849
7.28615
7.49266
7.64778
7.72677
7.72195
7.59862
7.3311
7.02985
6.88329
6.89339
6.97648
7.09817
7.2222
7.31952
7.37705
7.39599
7.38032
7.34512
7.31394
7.29981
7.31362
7.3515
7.40194
7.46079
7.50434
179.293
11.3846
8.31702
8.38037
8.31861
8.26569
8.03142
7.49366
6.60915
6.00729
5.91066
6.01183
6.26597
6.63634
7.03984
7.36309
7.5984
7.76785
7.84964
7.85754
7.7637
7.50856
7.13968
6.88366
6.85142
6.91581
7.03003
7.15084
7.24821
7.30775
7.32589
7.31573
7.29846
7.28615
7.2898
7.31299
7.35411
7.40558
7.46407
7.51368
179.046
11.7174
8.35199
8.39723
8.32603
8.29479
8.05606
7.43911
6.43618
5.86017
5.81543
5.93226
6.21195
6.61759
7.05729
7.42173
7.68469
7.87007
7.95746
7.97492
7.90811
7.68498
7.28407
6.92147
6.81881
6.85756
6.95551
7.0659
7.15916
7.21895
7.24217
7.24911
7.25464
7.26502
7.28592
7.31636
7.35676
7.40455
7.45861
7.50973
179.085
11.8841
8.35575
8.3833
8.31089
8.30018
8.05446
7.37683
6.3335
5.79494
5.76898
5.89704
6.18965
6.61039
7.06834
7.45812
7.74311
7.94896
8.05241
8.08279
8.04199
7.8575
7.4557
6.99768
6.79427
6.8022
6.87569
6.9699
7.05303
7.11038
7.14635
7.17932
7.21167
7.24766
7.28402
7.32036
7.35868
7.40065
7.44853
7.49727
179.258
11.9265
8.36877
8.39158
8.32346
8.3194
8.0651
7.35232
6.2954
5.773
5.75145
5.8869
6.18395
6.60653
7.07096
7.47514
7.77407
7.999
8.13126
8.1801
8.1682
8.02587
7.64553
7.10951
6.78194
6.74763
6.79002
6.86473
6.93466
6.98989
7.0438
7.10525
7.16791
7.22905
7.28059
7.32322
7.35975
7.396
7.43607
7.47834
179.698
11.96
8.40213
8.43821
8.37718
8.36176
8.09226
7.35211
6.28616
5.77012
5.75246
5.89109
6.18572
6.60296
7.06741
7.48011
7.78824
8.0265
8.19186
8.25993
8.27867
8.18213
7.83909
7.24568
6.78685
6.68838
6.69753
6.75336
6.81252
6.87139
6.9466
7.03358
7.12375
7.20713
7.27352
7.32292
7.35956
7.39086
7.42216
7.45491
180.292
12.1084
8.44147
8.49136
8.43265
8.39753
8.11143
7.3589
6.29542
5.78119
5.76592
5.90493
6.19385
6.60114
7.05983
7.47778
7.79386
8.04
8.22629
8.31753
8.36452
8.31637
8.02243
7.39316
6.80669
6.62656
6.60432
6.64369
6.69984
6.77009
6.86394
6.97201
7.0833
7.18378
7.26295
7.31894
7.35732
7.38468
7.40633
7.43005
181.023
12.3446
8.46059
8.51496
8.4551
8.40974
8.11616
7.368
6.31871
5.80247
5.78753
5.92491
6.20689
6.60226
7.05157
7.4704
7.79312
8.04512
8.24525
8.36701
8.43238
8.42538
8.17863
7.52957
6.83151
6.56752
6.51876
6.54606
6.60654
6.69248
6.80118
6.92375
7.04905
7.16192
7.25032
7.3117
7.35216
7.37639
7.39118
7.40654
181.646
12.6049
8.46095
8.51827
8.45638
8.40603
8.11279
7.37785
6.34557
5.82578
5.81181
5.94671
6.22309
6.60908
7.04997
7.46529
7.79204
8.04972
8.26106
8.40241
8.47442
8.4922
8.28733
7.63493
6.8518
6.51797
6.4517
6.47457
6.54376
6.64417
6.76334
6.89389
7.02523
7.14483
7.23875
7.30424
7.34648
7.36895
7.37859
7.38755
182.09
12.7705
8.45058
8.50536
8.45115
8.39975
8.11237
7.39192
6.36988
5.84027
5.82236
5.95268
6.22531
6.60766
7.04392
7.45748
7.78633
8.04768
8.26895
8.43488
8.52471
8.54721
8.34753
7.6845
6.85529
6.48427
6.40804
6.42616
6.50197
6.61201
6.73862
6.87338
7.00886
7.13313
7.23076
7.2994
7.343
7.36475
7.37126
7.37609
7.34716
7.35326
7.37033
7.4022
7.4454
7.51177
7.57564
7.61508
7.62338
7.59098
7.52068
7.43461
7.34248
7.27443
7.23342
7.21809
7.21751
7.21591
7.21299
7.20331
7.21076
7.24289
7.2927
7.34634
7.39114
7.42015
7.43742
7.4495
7.45527
7.45724
7.45039
7.43343
7.41079
7.39284
7.3813
7.37375
7.36237
7.33621
7.30135
7.25813
7.22688
7.21327
7.21532
7.23183
7.25957
7.29048
7.31472
7.33143
7.34787
7.37182
7.4061
7.46046
7.51575
7.54782
7.55108
7.52055
7.46785
7.4281
7.41487
7.44558
7.51263
7.60454
7.69204
7.7477
7.75916
7.73135
7.67803
7.61279
7.5429
7.4922
7.48331
7.4965
7.51141
7.52957
7.53351
7.53315
7.52634
7.52142
7.50777
7.52611
7.34122
7.35164
7.37429
7.40886
7.45732
7.51808
7.57183
7.59975
7.60021
7.56311
7.49325
7.41183
7.33277
7.27744
7.24878
7.24282
7.24122
7.23744
7.23099
7.22638
7.2384
7.26953
7.31603
7.36468
7.40304
7.42753
7.443
7.45402
7.46001
7.46059
7.45332
7.43725
7.41941
7.4054
7.39534
7.38678
7.37262
7.34477
7.30873
7.2706
7.24289
7.23314
7.23633
7.25316
7.28139
7.30848
7.32859
7.34808
7.37016
7.39784
7.43789
7.48583
7.53036
7.55309
7.54227
7.5104
7.46984
7.44406
7.44014
7.47174
7.53507
7.61424
7.68125
7.72026
7.72738
7.70669
7.65247
7.57948
7.52451
7.48788
7.47224
7.49019
7.50648
7.51954
7.52263
7.51695
7.50648
7.4956
7.48821
7.50707
7.34654
7.36464
7.39037
7.42223
7.46296
7.5059
7.54673
7.56601
7.56452
7.53255
7.47665
7.41127
7.35361
7.30824
7.28062
7.26993
7.26541
7.25838
7.25413
7.25795
7.27176
7.29761
7.33382
7.37161
7.40385
7.42734
7.44389
7.45605
7.46362
7.46267
7.45708
7.44833
7.43977
7.43066
7.42074
7.40888
7.39159
7.36446
7.33045
7.30101
7.27613
7.26435
7.2619
7.27376
7.29618
7.31967
7.34571
7.37446
7.40443
7.44062
7.47755
7.50604
7.53334
7.53911
7.52629
7.50769
7.48916
7.47838
7.48152
7.5058
7.55372
7.60758
7.65268
7.68231
7.69193
7.67391
7.62862
7.57954
7.53002
7.4848
7.45768
7.4664
7.483
7.49502
7.49676
7.48828
7.47483
7.46734
7.46991
7.4922
7.35777
7.38105
7.40777
7.4328
7.45768
7.48381
7.50913
7.52506
7.52442
7.50225
7.46563
7.42561
7.38359
7.34172
7.31379
7.30305
7.29686
7.29326
7.29415
7.29787
7.31021
7.329
7.35363
7.37967
7.40561
7.42914
7.44679
7.45872
7.46525
7.46586
7.46525
7.4662
7.46682
7.46191
7.45045
7.43447
7.41369
7.38859
7.36171
7.34093
7.32199
7.30601
7.29776
7.30289
7.31587
7.33827
7.36813
7.40873
7.46042
7.50395
7.52666
7.53561
7.53468
7.5297
7.52309
7.51867
7.52201
7.52808
7.53374
7.54945
7.57284
7.59512
7.61531
7.62638
7.63329
7.63186
7.605
7.56022
7.51743
7.47737
7.45218
7.4469
7.44717
7.45446
7.45781
7.45346
7.4482
7.44812
7.4567
7.47963
7.37009
7.40142
7.42459
7.43793
7.44723
7.458
7.46993
7.48165
7.48801
7.48178
7.47126
7.45272
7.41637
7.37416
7.34396
7.32958
7.32472
7.33062
7.34352
7.35137
7.36045
7.36501
7.37154
7.38537
7.40668
7.42995
7.44748
7.4577
7.46264
7.46664
7.47302
7.48489
7.49455
7.49236
7.4812
7.46472
7.44474
7.42197
7.40076
7.38547
7.3708
7.35362
7.33905
7.33351
7.34122
7.36378
7.40829
7.47255
7.52939
7.56137
7.56915
7.55988
7.53753
7.52719
7.5296
7.53826
7.5541
7.57147
7.5815
7.58728
7.58403
7.57348
7.56861
7.57837
7.59591
7.59609
7.57059
7.53747
7.50914
7.48065
7.44596
7.41835
7.40191
7.40142
7.41173
7.42314
7.43115
7.43829
7.44904
7.4697
7.38232
7.41628
7.43361
7.43687
7.43306
7.43111
7.43197
7.44489
7.46111
7.47788
7.48912
7.48022
7.44159
7.39817
7.3651
7.34599
7.34568
7.36531
7.39032
7.40148
7.40258
7.39223
7.3854
7.39001
7.40734
7.42927
7.44569
7.45395
7.45792
7.46569
7.481
7.50289
7.51625
7.51662
7.50321
7.48646
7.47246
7.4614
7.45521
7.44881
7.43236
7.40694
7.37819
7.36482
7.37389
7.4065
7.4657
7.53108
7.57595
7.59539
7.59329
7.56991
7.54034
7.53172
7.54479
7.57427
7.61056
7.63185
7.63634
7.62324
7.5899
7.55855
7.53565
7.52865
7.52902
7.52449
7.52709
7.52589
7.51138
7.48106
7.43129
7.38728
7.3625
7.35763
7.37206
7.39758
7.42009
7.43464
7.4459
7.46292
7.39009
7.42138
7.43391
7.42998
7.41875
7.40715
7.40732
7.42212
7.44948
7.48794
7.50876
7.49862
7.45528
7.41233
7.37233
7.35532
7.36073
7.39064
7.42056
7.43278
7.42699
7.40715
7.39284
7.39361
7.40831
7.4272
7.44083
7.44666
7.45154
7.46313
7.48661
7.51397
7.53193
7.53196
7.51581
7.49629
7.48719
7.48703
7.49694
7.50114
7.48596
7.45837
7.42329
7.40547
7.4168
7.4563
7.51335
7.56262
7.59757
7.60978
7.59963
7.56787
7.54073
7.54071
7.56411
7.61287
7.65716
7.67542
7.6741
7.64314
7.59646
7.5477
7.50346
7.4714
7.46463
7.47827
7.50773
7.52088
7.51154
7.47395
7.41843
7.36825
7.3376
7.33127
7.34503
7.37323
7.40323
7.42602
7.44099
7.4561
7.38983
7.41513
7.42583
7.41899
7.40478
7.39374
7.39837
7.41435
7.44917
7.49587
7.51705
7.50142
7.45655
7.41412
7.37247
7.36083
7.37093
7.40158
7.43011
7.44272
7.43438
7.41251
7.39607
7.39671
7.40975
7.42525
7.43628
7.44139
7.44813
7.46336
7.49018
7.52057
7.53737
7.53346
7.51327
7.49239
7.48322
7.49031
7.51351
7.53065
7.52679
7.50457
7.47392
7.45685
7.46627
7.50003
7.54029
7.5767
7.60207
7.60422
7.58542
7.55554
7.53923
7.54825
7.58113
7.63711
7.68367
7.69932
7.68741
7.64114
7.58642
7.52432
7.46927
7.44018
7.44494
7.47014
7.50479
7.51842
7.5031
7.46612
7.41828
7.36895
7.33563
7.32417
7.33175
7.35277
7.38003
7.40545
7.4241
7.43846
7.37889
7.40053
7.40997
7.40519
7.3956
7.39025
7.39868
7.41612
7.45338
7.49753
7.51286
7.49011
7.44435
7.40449
7.36908
7.36254
7.37278
7.39523
7.41899
7.43118
7.42568
7.40954
7.39844
7.40143
7.41325
7.42638
7.43689
7.44276
7.44958
7.46748
7.49584
7.5194
7.5277
7.51811
7.49515
7.47408
7.4662
7.47374
7.50216
7.5335
7.54619
7.54064
7.52687
7.51722
7.51919
7.53246
7.55472
7.578
7.585
7.57087
7.55053
7.53746
7.53682
7.55414
7.59243
7.64239
7.67804
7.68811
7.66892
7.61794
7.55416
7.49401
7.45425
7.44333
7.4514
7.47263
7.49608
7.5035
7.48912
7.4619
7.42788
7.39003
7.35642
7.33743
7.33503
7.34252
7.35772
7.37824
7.39819
7.41323
7.35962
7.38091
7.39023
7.39211
7.39179
7.39458
7.40609
7.42676
7.46015
7.49058
7.49568
7.47101
7.42802
7.39623
7.36684
7.35889
7.3648
7.37329
7.39022
7.40338
7.40515
7.40198
7.40187
7.40902
7.42111
7.43375
7.44353
7.45037
7.46052
7.47722
7.49546
7.50414
7.50018
7.48562
7.46292
7.44378
7.43801
7.44751
7.47495
7.51793
7.55029
7.56911
7.5771
7.57786
7.56585
7.55646
7.55863
7.55946
7.54196
7.52222
7.5141
7.51797
7.52817
7.55528
7.59017
7.62212
7.64431
7.64384
7.62236
7.57424
7.51635
7.47639
7.45831
7.45824
7.46646
7.47352
7.479
7.47782
7.47104
7.45873
7.44104
7.41858
7.39154
7.3665
7.35119
7.34462
7.34566
7.35619
7.36824
7.37742
7.33698
7.35722
7.37209
7.38363
7.39455
7.40512
7.42056
7.44026
7.46101
7.47356
7.46926
7.44664
7.41375
7.38748
7.36565
7.35275
7.34583
7.34445
7.35096
7.36442
7.37952
7.39391
7.40642
7.41946
7.43433
7.44575
7.45451
7.46777
7.47925
7.48368
7.48196
7.47034
7.45298
7.43613
7.41996
7.40851
7.40737
7.41897
7.44657
7.49097
7.5432
7.58604
7.6149
7.62074
7.60199
7.57265
7.54913
7.51655
7.48441
7.46991
7.47274
7.48698
7.51478
7.54675
7.57196
7.58201
7.58698
7.58355
7.56094
7.52602
7.49802
7.47979
7.47483
7.47779
7.4743
7.46429
7.45298
7.45016
7.45479
7.46027
7.45881
7.44897
7.43225
7.41062
7.38706
7.36571
7.3522
7.34559
7.34707
7.35082
7.31337
7.33702
7.35948
7.3817
7.4025
7.42016
7.43479
7.44589
7.45096
7.4482
7.43776
7.42135
7.40288
7.38636
7.37112
7.35059
7.32941
7.31069
7.30704
7.324
7.35523
7.38727
7.41337
7.43407
7.44967
7.45932
7.47622
7.4906
7.49176
7.4777
7.45208
7.4201
7.39532
7.38254
7.37945
7.38103
7.38686
7.39811
7.42321
7.46706
7.52953
7.59111
7.63244
7.64409
7.62427
7.57821
7.51871
7.46386
7.43322
7.42436
7.4301
7.45513
7.49575
7.52349
7.53404
7.52966
7.52131
7.51848
7.5102
7.50371
7.50118
7.49822
7.49563
7.48161
7.46543
7.44503
7.42994
7.43172
7.44829
7.47029
7.48353
7.48568
7.47904
7.46034
7.4323
7.40351
7.3784
7.35682
7.33705
7.33133
7.29523
7.32185
7.35196
7.3844
7.41299
7.431
7.44308
7.44319
7.43529
7.4198
7.40692
7.4009
7.40207
7.39899
7.38434
7.35553
7.31597
7.28503
7.27684
7.29767
7.3395
7.38531
7.42255
7.44883
7.46284
7.48064
7.49784
7.50424
7.49064
7.45722
7.40824
7.36685
7.34436
7.34027
7.34988
7.36262
7.37446
7.38739
7.41189
7.45601
7.51595
7.58528
7.63178
7.64735
7.62682
7.56625
7.48274
7.42184
7.3966
7.38808
7.3985
7.43315
7.46845
7.48566
7.48506
7.47189
7.46247
7.46726
7.48096
7.50308
7.51252
7.51524
7.49872
7.47574
7.45116
7.42946
7.41895
7.42869
7.45442
7.4873
7.51569
7.53507
7.54372
7.53794
7.51487
7.47794
7.43161
7.3834
7.34929
7.32843
7.28454
7.31288
7.34833
7.38785
7.42015
7.43862
7.44537
7.43502
7.41293
7.39315
7.38213
7.39229
7.40988
7.41594
7.40509
7.36711
7.31446
7.27664
7.26574
7.28754
7.33322
7.38513
7.4273
7.45827
7.48139
7.49873
7.50734
7.50126
7.47215
7.4223
7.36493
7.32584
7.30821
7.31155
7.33219
7.35445
7.37155
7.38608
7.41089
7.45276
7.50837
7.57261
7.61925
7.63448
7.60904
7.53879
7.45649
7.39745
7.37171
7.36887
7.38711
7.41945
7.4432
7.45109
7.44533
7.4327
7.42805
7.43956
7.47184
7.5052
7.52085
7.51901
7.49544
7.463
7.43793
7.4239
7.4261
7.44345
7.47636
7.51611
7.55249
7.57688
7.58573
7.58243
7.56602
7.53427
7.4868
7.42653
7.36506
7.33271
7.282
7.31099
7.3491
7.39122
7.42096
7.44091
7.44085
7.42141
7.39269
7.37227
7.36941
7.39227
7.41895
7.43196
7.42442
7.38583
7.32973
7.28971
7.27568
7.29085
7.33236
7.38651
7.4349
7.46764
7.49272
7.5039
7.49965
7.47845
7.43816
7.38649
7.33404
7.30164
7.28995
7.29937
7.32632
7.355
7.37676
7.39354
7.41763
7.4566
7.5104
7.56091
7.59956
7.60917
7.576
7.51112
7.44196
7.38899
7.36468
7.36564
7.38874
7.41443
7.42752
7.42952
7.42392
7.41644
7.41695
7.43327
7.46563
7.49807
7.51815
7.51043
7.48107
7.44957
7.43412
7.43585
7.45206
7.47846
7.51411
7.55243
7.58105
7.59345
7.59306
7.58264
7.56487
7.53955
7.50178
7.44934
7.38852
7.34243
7.28779
7.31546
7.35154
7.39035
7.41731
7.4352
7.43122
7.40967
7.38125
7.36369
7.36703
7.39389
7.42691
7.44535
7.44012
7.40885
7.36006
7.32032
7.29895
7.30596
7.3395
7.38738
7.4355
7.47013
7.48945
7.48984
7.47211
7.44003
7.3998
7.35813
7.32014
7.29585
7.29193
7.30697
7.33409
7.36429
7.38857
7.40871
7.43241
7.46671
7.51227
7.54974
7.57458
7.57515
7.54369
7.49381
7.44007
7.39427
7.37101
7.37773
7.40087
7.41683
7.42199
7.42066
7.4169
7.41381
7.41888
7.43431
7.45591
7.48151
7.49608
7.48765
7.46484
7.44658
7.44573
7.46466
7.49477
7.52709
7.55763
7.58235
7.59274
7.59418
7.58221
7.55976
7.53212
7.50658
7.48063
7.45387
7.43616
7.41053
7.29865
7.32187
7.35222
7.38527
7.4104
7.42707
7.42349
7.40424
7.38061
7.36843
7.3755
7.40127
7.43168
7.45145
7.45151
7.43229
7.39769
7.36595
7.34413
7.33846
7.35317
7.38564
7.42745
7.45673
7.466
7.45555
7.42988
7.39778
7.36755
7.34315
7.32335
7.31159
7.31329
7.32743
7.35002
7.37647
7.40331
7.42838
7.45305
7.48303
7.51537
7.53944
7.54768
7.54369
7.52238
7.48951
7.44771
7.41827
7.39917
7.40568
7.42015
7.42357
7.42156
7.41763
7.41595
7.41965
7.42654
7.43279
7.44265
7.45174
7.46117
7.46033
7.45521
7.45767
7.47652
7.50846
7.544
7.57293
7.58996
7.59575
7.59369
7.58546
7.56307
7.53203
7.50084
7.47663
7.46721
7.50522
7.59836
7.64795
7.30611
7.32476
7.34999
7.37785
7.4012
7.41781
7.41829
7.40744
7.39246
7.38566
7.39188
7.41035
7.43364
7.44911
7.45727
7.45285
7.43667
7.4205
7.40322
7.38728
7.37947
7.38693
7.40928
7.42649
7.42618
7.40974
7.38541
7.36043
7.34454
7.33931
7.34213
7.34347
7.34752
7.35611
7.3692
7.39058
7.41953
7.44947
7.47659
7.49991
7.51711
7.52563
7.5199
7.51791
7.51065
7.4912
7.47157
7.45628
7.44477
7.44044
7.44092
7.4349
7.42623
7.42079
7.42191
7.43012
7.4336
7.42669
7.41938
7.41591
7.42403
7.43884
7.45959
7.48599
7.51902
7.55399
7.58479
7.60169
7.6017
7.59178
7.57116
7.5495
7.52927
7.50912
7.48885
7.47998
7.54103
7.66688
7.78028
7.8402
7.30802
7.32428
7.34672
7.36874
7.38757
7.40306
7.41254
7.41413
7.41178
7.40908
7.4099
7.4171
7.42741
7.44158
7.45749
7.46912
7.47293
7.469
7.45631
7.43467
7.41158
7.39481
7.39144
7.39202
7.38357
7.36579
7.34655
7.33243
7.33361
7.34897
7.37036
7.38291
7.38557
7.38323
7.38667
7.40371
7.43426
7.47075
7.49971
7.51409
7.51609
7.50771
7.49771
7.50186
7.50212
7.50652
7.50742
7.50449
7.49171
7.47244
7.45953
7.44679
7.43597
7.43121
7.43288
7.43869
7.43622
7.41489
7.39256
7.38194
7.39417
7.42929
7.47657
7.52542
7.5656
7.59395
7.60886
7.6097
7.59402
7.56583
7.53502
7.51938
7.5134
7.50324
7.51934
7.60154
7.72138
7.80563
7.85033
7.88605
7.30671
7.32181
7.33942
7.35569
7.37273
7.39022
7.40816
7.42031
7.4268
7.42669
7.4214
7.41829
7.42032
7.43237
7.45399
7.47927
7.50042
7.50545
7.49121
7.46509
7.43203
7.40299
7.38081
7.36484
7.35014
7.33363
7.31941
7.31812
7.33315
7.36687
7.40034
7.41913
7.41865
7.40631
7.40317
7.4164
7.44644
7.48431
7.51315
7.52047
7.51239
7.49239
7.48505
7.49019
7.50868
7.53286
7.55052
7.54754
7.52493
7.49623
7.47428
7.45915
7.44931
7.44423
7.44301
7.44209
7.42955
7.39857
7.36782
7.35937
7.38015
7.43197
7.50153
7.56716
7.60526
7.61769
7.61082
7.59176
7.56196
7.53498
7.51576
7.5123
7.51236
7.55354
7.65378
7.76324
7.83052
7.85971
7.86887
7.8969
7.3003
7.31293
7.32636
7.33999
7.35495
7.37444
7.39874
7.41979
7.43178
7.43394
7.42634
7.41667
7.41261
7.42486
7.44757
7.48683
7.51627
7.52325
7.50761
7.47593
7.43905
7.40336
7.3742
7.34948
7.33074
7.31472
7.3074
7.31583
7.34334
7.38681
7.42414
7.44402
7.44287
7.42728
7.41974
7.43034
7.4557
7.49078
7.51879
7.5239
7.5088
7.48172
7.4717
7.48669
7.51735
7.55937
7.58207
7.57527
7.54499
7.51063
7.48686
7.47485
7.46586
7.45992
7.45025
7.43845
7.41136
7.37691
7.35542
7.35419
7.38163
7.44018
7.51717
7.58445
7.61357
7.61086
7.58735
7.55397
7.53474
7.52629
7.52399
7.52733
7.5855
7.69096
7.78079
7.8319
7.85627
7.85375
7.84577
7.87101
7.28596
7.29768
7.31011
7.32072
7.33356
7.35318
7.37983
7.40584
7.42265
7.4277
7.41887
7.40949
7.40515
7.415
7.44033
7.48651
7.52064
7.52768
7.51315
7.48034
7.44076
7.40062
7.36953
7.34439
7.32371
7.31107
7.311
7.32721
7.36229
7.40417
7.4385
7.45955
7.4575
7.44366
7.43512
7.44114
7.46178
7.494
7.52015
7.52411
7.50545
7.47488
7.46741
7.48507
7.52314
7.57049
7.59243
7.58658
7.55746
7.52141
7.49911
7.48969
7.48363
7.47396
7.45423
7.42233
7.38507
7.363
7.3574
7.36698
7.39612
7.45024
7.51648
7.57172
7.58787
7.57635
7.5553
7.53218
7.52546
7.53145
7.55359
7.62968
7.7227
7.78404
7.81592
7.81986
7.81917
7.80694
7.77645
7.78153
7.26979
7.28044
7.29179
7.30008
7.3105
7.32675
7.35032
7.37676
7.39993
7.40292
7.39832
7.39571
7.39852
7.40799
7.43479
7.47733
7.51022
7.51939
7.51218
7.48139
7.44009
7.40135
7.36985
7.34746
7.33119
7.32426
7.33146
7.35343
7.3855
7.41743
7.44385
7.45893
7.46047
7.45309
7.44592
7.44917
7.46407
7.48769
7.50877
7.51233
7.49534
7.47191
7.46623
7.48594
7.52418
7.56622
7.58735
7.58965
7.5667
7.53211
7.51015
7.49978
7.4947
7.47943
7.44697
7.40156
7.36845
7.36044
7.3714
7.39189
7.41698
7.45443
7.49812
7.5312
7.54629
7.54664
7.54253
7.53737
7.536
7.57344
7.66224
7.74911
7.79175
7.80104
7.79074
7.77987
7.74489
7.7001
7.66904
7.67147
7.25701
7.26541
7.27452
7.28103
7.28771
7.29773
7.31411
7.3363
7.35602
7.36485
7.37289
7.38378
7.39571
7.40602
7.42786
7.4585
7.48642
7.4974
7.49856
7.47873
7.44097
7.40176
7.37374
7.35769
7.35021
7.35362
7.36824
7.38859
7.40816
7.42673
7.44213
7.45256
7.45982
7.45913
7.45562
7.45541
7.46624
7.48191
7.49414
7.49474
7.48363
7.46889
7.46718
7.48682
7.51911
7.55378
7.58313
7.59303
7.57658
7.54629
7.51899
7.50328
7.49073
7.4698
7.43274
7.39313
7.36884
7.37181
7.39544
7.42028
7.43741
7.45076
7.46523
7.47876
7.5029
7.52186
7.53621
7.54744
7.5947
7.68004
7.75589
7.79604
7.80055
7.78411
7.75219
7.68938
7.63087
7.60305
7.59154
7.59847
7.25261
7.25685
7.26325
7.2664
7.26792
7.27044
7.27757
7.28761
7.30001
7.31741
7.34433
7.37338
7.39354
7.40879
7.42001
7.43394
7.45268
7.46568
7.47457
7.46744
7.44629
7.41148
7.38782
7.37851
7.37953
7.39453
7.41404
7.42587
7.42838
7.42994
7.43428
7.44125
7.44873
7.45789
7.46339
7.46689
7.46912
7.47078
7.47127
7.47045
7.46897
7.46629
7.47194
7.4888
7.51402
7.54169
7.57097
7.5889
7.58044
7.55532
7.52457
7.49622
7.47169
7.4472
7.41903
7.39436
7.38174
7.39226
7.42193
7.44787
7.45437
7.44704
7.43617
7.43806
7.463
7.50264
7.55046
7.6155
7.6974
7.75572
7.78236
7.78204
7.7731
7.73147
7.66192
7.59879
7.56341
7.55699
7.55828
7.56597
7.26723
7.25913
7.25808
7.2557
7.25186
7.24557
7.23783
7.23578
7.24666
7.27544
7.32059
7.36115
7.39531
7.41175
7.41217
7.40989
7.4171
7.43324
7.4511
7.45718
7.4528
7.43314
7.41219
7.41026
7.41775
7.43764
7.45736
7.45862
7.44589
7.43094
7.42362
7.42753
7.44361
7.46401
7.47631
7.47601
7.46512
7.45182
7.44266
7.44477
7.45682
7.47207
7.48376
7.49255
7.50523
7.52444
7.54528
7.56969
7.57412
7.55677
7.52244
7.4821
7.44109
7.41896
7.40768
7.40365
7.40543
7.41927
7.44677
7.46787
7.47025
7.45209
7.4264
7.42042
7.44267
7.49686
7.5896
7.6961
7.75994
7.77583
7.76084
7.74798
7.70201
7.64185
7.59108
7.56056
7.54485
7.54258
7.54837
7.5586
7.30854
7.28129
7.2619
7.25079
7.24017
7.22214
7.2033
7.19508
7.20941
7.24821
7.30103