/*--------------------------------*- C++ -*----------------------------------*\
| =========                 |                                                 |
| \\      /  F ield         | OpenFOAM: The Open Source CFD Toolbox           |
|  \\    /   O peration     | Version:  v1912                                 |
|   \\  /    A nd           | Website:  www.openfoam.com                      |
|    \\/     M anipulation  |                                                 |
\*---------------------------------------------------------------------------*/
FoamFile
{
    version     2.0;
    format      ascii;
    class       volScalarField;
    location    "0.46";
    object      T;
}
// * * * * * * * * * * * * * * * * * * * * * * * * * * * * * * * * * * * * * //

dimensions      [0 0 0 1 0 0 0];


internalField   nonuniform List<scalar> 
4800
(
15.1144
8.90917
9.70077
10.8599
11.3734
11.6268
11.8574
12.0759
12.2406
12.3411
12.2539
11.9877
11.9171
12.1522
12.5243
12.9544
13.438
13.9493
14.4402
14.9114
15.3772
15.8292
16.2705
16.7257
17.1753
17.5949
17.9586
18.2424
18.4316
18.533
18.5768
18.6078
18.6489
18.6747
18.6941
18.7107
18.7265
18.7412
18.7567
18.7549
15.1023
8.91102
9.68102
10.8518
11.3767
11.631
11.8579
12.0761
12.2395
12.3376
12.2415
11.9696
11.9109
12.1523
12.5221
12.9512
13.4343
13.9434
14.4312
14.9023
15.3695
15.8238
16.2721
16.7318
17.1855
17.6111
17.9806
18.2665
18.4522
18.5459
18.5822
18.6103
18.6512
18.6758
18.6939
18.7092
18.7243
18.7389
18.7537
18.7583
15.0989
8.93293
9.64702
10.8343
11.3836
11.6417
11.8618
12.079
12.2452
12.3466
12.2323
11.9397
11.8979
12.1459
12.5133
12.9403
13.4254
13.933
14.4189
14.8916
15.3636
15.8183
16.2755
16.7406
17.2001
17.6317
18.0082
18.2982
18.4816
18.566
18.591
18.6136
18.6532
18.6758
18.6908
18.7041
18.7185
18.7345
18.7496
18.7598
15.0973
8.98325
9.59988
10.8063
11.4005
11.6662
11.8745
12.0877
12.2565
12.363
12.2306
11.9041
11.878
12.1321
12.497
12.9229
13.4094
13.9142
14.3986
14.8753
15.3537
15.8122
16.2818
16.7569
17.2258
17.6651
18.0465
18.3393
18.5201
18.5932
18.6038
18.6188
18.6559
18.6762
18.6873
18.6982
18.7128
18.7313
18.7499
18.7657
15.1034
9.06284
9.55823
10.7659
11.4178
11.7064
11.9072
12.1161
12.2849
12.3944
12.2452
11.8783
11.8581
12.1113
12.4703
12.8974
13.3856
13.8882
14.3733
14.8566
15.3407
15.8098
16.2934
16.7818
17.2625
17.7097
18.0943
18.3863
18.5628
18.6236
18.6187
18.6246
18.6573
18.6761
18.6846
18.6939
18.7094
18.7309
18.7542
18.775
15.114
9.15639
9.53008
10.7084
11.4124
11.7265
11.9386
12.1505
12.3328
12.4539
12.2799
11.87
11.8446
12.0892
12.4397
12.8653
13.3538
13.8558
14.3447
14.8377
15.326
15.8117
16.3102
16.8128
17.3055
17.7596
18.1456
18.4349
18.6034
18.6529
18.6371
18.6326
18.6574
18.6755
18.6834
18.6928
18.7099
18.7342
18.7613
18.7854
15.1274
9.24071
9.51464
10.6411
11.3809
11.7232
11.9502
12.1686
12.3775
12.5309
12.3502
11.8855
11.8411
12.0712
12.4112
12.8309
13.3166
13.8192
14.3145
14.8193
15.3139
15.8164
16.3289
16.8442
17.3472
17.808
18.1942
18.479
18.637
18.6782
18.6567
18.6405
18.658
18.6771
18.6853
18.6953
18.7136
18.7394
18.7686
18.7933
15.1417
9.30655
9.51214
10.5788
11.3327
11.708
11.9466
12.173
12.4057
12.601
12.4457
11.9378
11.8466
12.0608
12.3868
12.7974
13.2779
13.7809
14.2841
14.8005
15.3049
15.8231
16.3466
16.8701
17.3799
17.8473
18.2343
18.5123
18.6617
18.6986
18.6753
18.6485
18.661
18.6812
18.6908
18.7015
18.7193
18.7451
18.7731
18.7966
15.1553
9.35518
9.51488
10.527
11.2802
11.6839
11.9376
12.172
12.4212
12.6462
12.5435
12.034
11.8636
12.0602
12.3727
12.773
13.2449
13.7456
14.2545
14.7796
15.2967
15.8274
16.3588
16.8883
17.4014
17.8691
18.255
18.5293
18.676
18.7126
18.6912
18.6601
18.6674
18.6866
18.6977
18.7088
18.7259
18.7486
18.7727
18.7936
15.1696
9.39013
9.50986
10.4802
11.2297
11.6543
11.9235
12.1646
12.4267
12.6619
12.6211
12.1587
11.8978
12.0722
12.3703
12.7611
13.2215
13.7174
14.2287
14.7589
15.2888
15.8268
16.3622
16.8938
17.4076
17.875
18.26
18.5324
18.679
18.7197
18.7059
18.6781
18.6791
18.6945
18.7085
18.7193
18.7328
18.7494
18.7679
18.7843
15.1847
9.41134
9.4916
10.4348
11.1851
11.6267
11.9053
12.1506
12.422
12.6538
12.6699
12.2906
11.9599
12.0998
12.3795
12.76
13.2071
13.6964
14.2068
14.7378
15.2778
15.818
16.3556
16.8892
17.4052
17.8744
18.2587
18.528
18.6748
18.7219
18.721
18.7031
18.6977
18.7069
18.7202
18.7295
18.7383
18.7491
18.76
18.7706
15.2008
9.44237
9.46636
10.3844
11.1424
11.6024
11.8899
12.1354
12.4068
12.6297
12.6953
12.4172
12.0533
12.14
12.3997
12.7683
13.2036
13.6841
14.1899
14.7161
15.2592
15.7994
16.3377
16.8748
17.3931
17.8633
18.2466
18.5147
18.6646
18.7233
18.7385
18.7312
18.7231
18.726
18.734
18.7411
18.7445
18.7486
18.7525
18.757
15.2232
9.49599
9.42992
10.3205
11.0899
11.5729
11.8718
12.1176
12.3809
12.5966
12.7015
12.5269
12.1802
12.1928
12.4303
12.7871
13.2105
13.681
14.1778
14.6927
15.2292
15.7718
16.3095
16.8485
17.368
17.8379
18.2214
18.4922
18.6501
18.7235
18.7555
18.7613
18.7529
18.7485
18.7509
18.7536
18.7539
18.7514
18.749
18.7479
15.2533
9.57245
9.40065
10.2478
11.0206
11.5333
11.8461
12.0942
12.3466
12.5586
12.6903
12.6142
12.3343
12.2624
12.4742
12.8158
13.2275
13.6852
14.168
14.6654
15.1902
15.7343
16.2727
16.811
17.3307
17.8008
18.1864
18.4627
18.6316
18.724
18.7738
18.7918
18.7824
18.7714
18.7697
18.7687
18.7662
18.7594
18.7507
18.7439
15.2804
9.67235
9.38365
10.1722
10.9352
11.4831
11.8127
12.0636
12.3054
12.517
12.6653
12.6759
12.4942
12.3636
12.5319
12.8515
13.252
13.6937
14.1576
14.6345
15.1469
15.6887
16.2292
16.7658
17.2842
17.7546
18.1435
18.4283
18.6141
18.7289
18.7948
18.8212
18.8127
18.7956
18.7882
18.7854
18.7813
18.7716
18.7585
18.7461
15.2997
9.80458
9.37643
10.0993
10.8411
11.4246
11.7737
12.026
12.2588
12.4676
12.6314
12.7138
12.6345
12.5006
12.6017
12.9022
13.2802
13.703
14.1445
14.6009
15.1007
15.6367
16.1787
16.7138
17.2304
17.7011
18.0951
18.393
18.6023
18.7398
18.8187
18.8501
18.8439
18.8208
18.8062
18.8037
18.7973
18.7867
18.7702
18.7544
15.3131
9.98149
9.37434
10.0344
10.7484
11.3639
11.7333
11.986
12.2101
12.415
12.5956
12.7274
12.7389
12.6522
12.6856
12.9576
13.308
13.7092
14.1285
14.5673
15.0546
15.5829
16.1232
16.6558
17.1707
17.643
18.0458
18.3626
18.5957
18.7565
18.8453
18.8799
18.8758
18.8487
18.8264
18.8215
18.8135
18.8023
18.7843
18.7671
15.3234
10.2229
9.37326
9.98149
10.6653
11.3056
11.6953
11.9491
12.1638
12.3656
12.5569
12.728
12.8171
12.7883
12.7828
13.002
13.3358
13.7113
14.1108
14.5379
15.0127
15.5309
16.0652
16.594
17.108
17.5856
18.002
18.3404
18.5995
18.7757
18.8739
18.9115
18.9098
18.8827
18.851
18.8381
18.8285
18.8155
18.7965
18.7781
15.3331
10.5151
9.3767
9.9409
10.5947
11.2531
11.6641
11.9206
12.1271
12.3253
12.5249
12.7297
12.8744
12.8954
12.8766
13.0389
13.357
13.7093
14.0921
14.5104
14.9736
15.48
16.0048
16.5302
17.046
17.5335
17.9677
18.3297
18.6096
18.7969
18.9043
18.9463
18.9482
18.9225
18.8789
18.8543
18.8417
18.825
18.8038
18.7841
15.3513
10.7607
9.39138
9.90962
10.5346
11.2052
11.6372
11.8978
12.1036
12.2996
12.5099
12.7357
12.9202
12.9799
12.9561
13.0683
13.367
13.6996
14.0703
14.4812
14.9345
15.4285
15.9438
16.4676
16.9895
17.4903
17.9432
18.3284
18.6215
18.82
18.9364
18.9851
18.9922
18.967
18.9104
18.8715
18.8519
18.8306
18.8076
18.7872
15.3658
10.9337
9.41258
9.88443
10.4821
11.1559
11.6085
11.8795
12.0913
12.2948
12.5163
12.7624
12.9712
13.0473
13.0134
13.0879
13.3681
13.686
14.0457
14.4486
14.8935
15.3777
15.8873
16.4124
16.9432
17.4578
17.9306
18.331
18.6367
18.8445
18.9692
19.0258
19.0393
19.0135
18.9471
18.8907
18.8592
18.8331
18.8073
18.7869
15.3704
11.0352
9.4374
9.87084
10.4415
11.1017
11.5677
11.8524
12.0765
12.3011
12.5383
12.8051
13.0222
13.098
13.0508
13.0992
13.3609
13.6688
14.0204
14.4155
14.8541
15.3334
15.8427
16.3705
16.9098
17.437
17.9239
18.3362
18.6523
18.8695
19.0021
19.065
19.0836
19.0575
18.9857
18.9144
18.8678
18.8348
18.8047
18.7805
15.3594
11.0463
9.48911
9.87888
10.4182
11.0434
11.501
11.7981
12.0469
12.3063
12.5643
12.8409
13.0604
13.1304
13.0781
13.1119
13.3514
13.6518
14.0019
14.3951
14.8295
15.3038
15.8126
16.3421
16.8869
17.4238
17.9201
18.3409
18.6666
18.893
19.0325
19.0971
19.12
19.0929
19.0194
18.9423
18.8835
18.8398
18.8047
18.7766
15.3213
10.8918
9.60211
9.95704
10.4493
11.0186
11.4241
11.7089
11.9741
12.2679
12.5638
12.8563
13.0728
13.1373
13.0957
13.1377
13.3592
13.6582
14.0048
14.3945
14.8224
15.2885
15.7927
16.3218
16.8678
17.409
17.9108
18.34
18.6763
18.9136
19.0566
19.1225
19.1445
19.1162
19.0428
18.9667
18.9053
18.8512
18.8067
18.7743
15.2734
10.3022
9.72852
10.1249
10.5786
11.0494
11.3634
11.6064
11.8676
12.1812
12.5186
12.826
13.0372
13.1026
13.0895
13.1866
13.4183
13.7066
14.0371
14.411
14.8269
15.2829
15.7785
16.3043
16.8486
17.3902
17.8951
18.3328
18.6775
18.9213
19.0696
19.1358
19.1542
19.1233
19.0512
18.9813
18.9238
18.8701
18.8185
18.777
15.2272
9.49135
9.81751
10.4018
10.8099
11.1222
11.3317
11.5228
11.7658
12.0815
12.4307
12.7376
12.9388
13.0184
13.0669
13.2516
13.5119
13.8023
14.1139
14.4604
14.8525
15.2888
15.7688
16.2874
16.8292
17.3707
17.8794
18.3228
18.6742
18.9219
19.0723
19.1364
19.1473
19.1145
19.0468
18.9853
18.9376
18.8933
18.846
18.7985
15.1379
9.27858
10.2362
10.7919
11.0308
11.1943
11.3268
11.4771
11.69
11.9844
12.3141
12.6011
12.7926
12.9029
13.0547
13.3075
13.6063
13.9196
14.2298
14.5462
14.9016
15.3082
15.7644
16.2716
16.8104
17.3516
17.8627
18.311
18.6674
18.9177
19.0669
19.1262
19.1285
19.094
19.036
18.9833
18.9454
18.9161
18.8825
18.8409
15.0209
10.208
10.7843
11.0733
11.1924
11.2782
11.3671
11.4805
11.6482
11.8914
12.1609
12.4045
12.605
12.8013
13.0554
13.3516
13.6873
14.0316
14.3616
14.6727
14.9858
15.3411
15.7718
16.2599
16.791
17.3309
17.8443
18.2971
18.6558
18.9052
19.051
19.1068
19.1029
19.0671
19.0204
18.9783
18.9515
18.9381
18.9185
18.8889
14.928
10.6957
11.0604
11.2246
11.3
11.3834
11.4557
11.5252
11.6267
11.7814
11.966
12.1687
12.4185
12.7229
13.0484
13.3914
13.7561
14.1262
14.4812
14.8075
15.1046
15.4081
15.7855
16.2525
16.7705
17.3074
17.8236
18.2799
18.6387
18.8844
19.0253
19.077
19.0707
19.0396
19.002
18.9734
18.9621
18.9592
18.9497
18.9323
14.8574
10.8215
11.1544
11.3028
11.3768
11.4827
11.5653
11.6125
11.6126
11.6397
11.7501
11.9694
12.2813
12.6553
13.0454
13.4287
13.8157
14.2038
14.5775
14.9251
15.232
15.506
15.8198
16.2488
16.7496
17.2811
17.7992
18.2571
18.6146
18.8562
18.9922
19.0403
19.0356
19.0131
18.9853
18.9734
18.9753
18.9775
18.9765
18.9664
14.8101
10.856
11.1825
11.3422
11.4363
11.5699
11.6619
11.678
11.5705
11.4816
11.5779
11.8384
12.1901
12.6028
13.0449
13.4654
13.8689
14.2679
14.6528
15.019
15.348
15.6198
15.8814
16.2501
16.731
17.253
17.7685
18.225
18.5804
18.8197
18.953
19.0012
19.0036
18.9903
18.9762
18.9776
18.9859
18.9919
18.997
18.9902
14.789
10.8919
11.1887
11.3569
11.4764
11.6345
11.7339
11.7125
11.4954
11.3495
11.4799
11.7587
12.1291
12.5684
13.0439
13.496
13.916
14.3217
14.7127
15.0921
15.4449
15.7346
15.967
16.2665
16.7171
17.2239
17.7302
18.1805
18.5324
18.7707
18.9044
18.9611
18.9762
18.974
18.9745
18.9834
18.9946
19.0023
19.0078
19.005
14.7743
10.9235
11.1781
11.3504
11.4898
11.6692
11.77
11.7126
11.4232
11.2766
11.4319
11.7152
12.0945
12.5499
13.0426
13.5164
13.9515
14.365
14.7613
15.1511
15.5254
15.8425
16.0692
16.3056
16.7065
17.1939
17.6852
18.1242
18.4699
18.7063
18.8438
18.9157
18.9493
18.9658
18.9797
18.9921
19.0023
19.008
19.011
19.0094
14.7657
10.9336
11.1571
11.3337
11.4906
11.6883
11.789
11.7043
11.3826
11.2484
11.4117
11.6972
12.0796
12.5406
13.0406
13.5258
13.972
14.3955
14.8005
15.2007
15.5947
15.9413
16.1814
16.3678
16.6984
17.1625
17.6335
18.0575
18.3932
18.6255
18.7712
18.865
18.9236
18.9615
18.9864
19.0017
19.0093
19.0106
19.01
19.0066
14.7607
10.9239
11.1419
11.3255
11.4976
11.7083
11.8099
11.7077
11.3729
11.2429
11.4061
11.6931
12.0757
12.5357
13.0372
13.527
13.9792
14.4121
14.8307
15.2421
15.6549
16.0308
16.2958
16.4479
16.6961
17.1277
17.5747
17.9814
18.3048
18.5321
18.6929
18.8126
18.8954
18.9539
18.991
19.0105
19.0152
19.0118
19.0062
18.9986
14.7606
10.9124
11.1367
11.3311
11.5167
11.7331
11.8363
11.7224
11.3782
11.2476
11.4106
11.6975
12.0771
12.5329
13.0326
13.5244
13.98
14.4196
14.8538
15.2752
15.705
16.1085
16.403
16.5368
16.7033
17.0864
17.5082
17.8974
18.2095
18.4395
18.6193
18.7602
18.865
18.942
18.9917
19.0159
19.0194
19.0116
18.9997
18.9856
14.7645
10.9287
11.1396
11.3403
11.5356
11.7531
11.8563
11.7397
11.3948
11.2617
11.4231
11.7083
12.0829
12.5319
13.0268
13.5195
13.9783
14.4218
14.8665
15.3001
15.745
16.1746
16.4986
16.6255
16.7178
17.0409
17.4394
17.8125
18.1182
18.3589
18.5569
18.7142
18.8362
18.9277
18.9883
19.0171
19.0207
19.0094
18.9902
18.9696
14.7741
10.9668
11.1393
11.3383
11.5419
11.7619
11.8667
11.7538
11.4167
11.2801
11.439
11.722
12.0914
12.5328
13.0214
13.5127
13.9741
14.4204
14.8721
15.3226
15.7792
16.2321
16.5802
16.7039
16.7332
16.996
17.3757
17.7363
18.0412
18.2957
18.5091
18.6779
18.8113
18.9132
18.982
19.0146
19.0186
19.0044
18.9798
18.9534
14.7841
11.0115
11.1327
11.3287
11.5404
11.7632
11.8702
11.7631
11.4356
11.2966
11.4543
11.7354
12.1012
12.5366
13.0198
13.5077
13.9702
14.4198
14.8764
15.3374
15.7998
16.2689
16.6399
16.7668
16.746
16.9575
17.3256
17.6808
17.9894
18.256
18.48
18.6553
18.7937
18.9014
18.9751
19.0107
19.0152
18.9991
18.9705
18.9398
14.7928
11.0411
11.1256
11.3186
11.5379
11.7623
11.8716
11.7706
11.4496
11.3058
11.4606
11.7389
12.1029
12.5361
13.0166
13.503
13.9661
14.4179
14.8794
15.3526
15.8245
16.2974
16.6721
16.797
16.7498
16.9324
17.2924
17.6427
17.956
18.2306
18.4604
18.6396
18.7814
18.8929
18.9697
19.0076
19.0127
18.9959
18.9651
18.9314
18.7672
18.7645
18.769
18.7831
18.805
18.8424
18.8726
18.8798
18.8669
18.8221
18.7411
18.6458
18.5432
18.4513
18.3765
18.3274
18.2942
18.2605
18.2278
18.1934
18.177
18.181
18.1983
18.2207
18.2354
18.2402
18.239
18.2333
18.2211
18.205
18.1822
18.1505
18.1136
18.0799
18.0524
18.0318
18.0124
17.9859
17.9555
17.9198
17.893
17.8802
17.8805
17.8919
17.9115
17.9336
17.9509
17.9631
17.975
17.9921
18.0163
18.0542
18.0925
18.1147
18.117
18.0961
18.0598
18.0323
18.0231
18.0444
18.0908
18.1538
18.2133
18.2507
18.2583
18.2397
18.2038
18.1595
18.1115
18.0765
18.0703
18.0794
18.0894
18.1017
18.1041
18.1035
18.0985
18.0948
18.0851
18.0977
18.764
18.7631
18.7714
18.7878
18.8137
18.8471
18.8693
18.8696
18.8524
18.8029
18.7222
18.6305
18.5368
18.4534
18.3891
18.3479
18.3127
18.2774
18.2418
18.2108
18.1976
18.2006
18.2153
18.234
18.2443
18.2461
18.2436
18.2366
18.2244
18.2075
18.1842
18.1532
18.1196
18.0887
18.0625
18.0411
18.0197
17.9919
17.9606
17.9285
17.9042
17.8943
17.8954
17.9069
17.9267
17.946
17.9605
17.9746
17.9905
18.0101
18.0382
18.0716
18.1024
18.1182
18.111
18.0891
18.0611
18.0433
18.0406
18.0624
18.1061
18.1604
18.2059
18.2321
18.2368
18.2228
18.1862
18.1365
18.0988
18.0735
18.0626
18.0749
18.0859
18.0947
18.0965
18.0922
18.0847
18.0769
18.0716
18.0845
18.7691
18.7724
18.7825
18.7973
18.8179
18.8383
18.8515
18.8474
18.8298
18.7835
18.7126
18.6323
18.5538
18.4785
18.417
18.3729
18.3345
18.296
18.2616
18.2364
18.2239
18.2225
18.2294
18.2397
18.2463
18.2476
18.2454
18.2385
18.2275
18.2095
18.1871
18.161
18.1339
18.1066
18.0807
18.057
18.0335
18.0061
17.9758
17.9497
17.9276
17.9163
17.9133
17.9213
17.9368
17.9535
17.9722
17.9928
18.0141
18.0395
18.0654
18.0852
18.1041
18.1083
18.0997
18.087
18.0742
18.0668
18.0689
18.0856
18.1186
18.1555
18.1861
18.2061
18.2125
18.2003
18.1695
18.1361
18.1023
18.0711
18.0522
18.0581
18.0694
18.0774
18.0783
18.0721
18.0625
18.0571
18.0587
18.0739
18.7792
18.7851
18.7955
18.8053
18.8143
18.822
18.8258
18.8217
18.8044
18.7646
18.7078
18.6459
18.5796
18.509
18.4492
18.4047
18.3637
18.3265
18.2956
18.2708
18.2561
18.2483
18.2463
18.247
18.2494
18.251
18.2491
18.242
18.2302
18.2132
18.1936
18.1738
18.1531
18.129
18.102
18.0757
18.0499
18.0235
17.9979
17.9779
17.9602
17.9457
17.9384
17.9414
17.9502
17.9661
17.9874
18.0161
18.0524
18.0827
18.0986
18.105
18.1044
18.1011
18.0968
18.094
18.0963
18.1005
18.1043
18.1151
18.1311
18.1463
18.1601
18.1675
18.1722
18.1712
18.1528
18.1222
18.093
18.0653
18.0477
18.0439
18.0439
18.0487
18.0508
18.0475
18.0435
18.0433
18.0491
18.0648
18.7906
18.8021
18.8091
18.8095
18.8064
18.8034
18.8005
18.7946
18.7805
18.7524
18.7158
18.67
18.6084
18.5405
18.4807
18.4329
18.3918
18.3605
18.3383
18.3167
18.2987
18.2789
18.2625
18.2542
18.253
18.2544
18.2522
18.2438
18.2306
18.2157
18.2004
18.1876
18.1733
18.1513
18.1245
18.098
18.0728
18.0473
18.0255
18.0098
17.9949
17.9793
17.967
17.9624
17.9676
17.9834
18.0147
18.0596
18.0991
18.1214
18.1268
18.1206
18.1056
18.0987
18.1006
18.1067
18.1176
18.1294
18.1363
18.1402
18.138
18.1308
18.1274
18.134
18.1458
18.1459
18.1285
18.1059
18.0864
18.0666
18.0426
18.0233
18.0116
18.0111
18.0181
18.0258
18.0311
18.0359
18.0432
18.0574
18.8023
18.815
18.8167
18.8092
18.7965
18.7851
18.7755
18.7708
18.7632
18.7513
18.7316
18.6941
18.6323
18.5659
18.5059
18.4544
18.4159
18.3936
18.38
18.3605
18.336
18.3044
18.277
18.2614
18.2573
18.2573
18.2536
18.2435
18.2293
18.2163
18.2072
18.2013
18.1895
18.1696
18.1416
18.1149
18.0932
18.075
18.0639
18.0548
18.0383
18.0165
17.9941
17.9839
17.9899
18.0125
18.0537
18.0991
18.1301
18.1435
18.1423
18.1265
18.1065
18.1012
18.1102
18.1304
18.1552
18.1696
18.1727
18.1637
18.1411
18.1197
18.1038
18.0989
18.099
18.096
18.0979
18.0972
18.087
18.066
18.0316
18.0008
17.9833
17.9798
17.9897
18.0074
18.0228
18.0327
18.0403
18.0521
18.8102
18.8199
18.8176
18.8049
18.7872
18.7693
18.7591
18.7555
18.7558
18.7596
18.7475
18.7108
18.6469
18.5827
18.5192
18.4702
18.4363
18.4212
18.411
18.392
18.362
18.3222
18.2882
18.2688
18.262
18.259
18.2524
18.2403
18.2266
18.216
18.2125
18.2103
18.2017
18.1819
18.152
18.1233
18.1039
18.0937
18.0939
18.0912
18.0759
18.0523
18.0253
18.0118
18.0192
18.0463
18.0857
18.1197
18.1438
18.1525
18.1459
18.1245
18.1061
18.1063
18.1225
18.1557
18.1857
18.198
18.1971
18.1764
18.1446
18.1111
18.0807
18.0585
18.054
18.0635
18.0838
18.0929
18.0864
18.0605
18.0218
17.9867
17.9651
17.9605
17.97
17.9896
18.0104
18.026
18.0362
18.0466
18.8113
18.816
18.8122
18.7976
18.7784
18.7618
18.7538
18.7502
18.7559
18.765
18.7539
18.7146
18.6499
18.5871
18.5238
18.4814
18.4534
18.4389
18.4264
18.4071
18.3756
18.3339
18.2974
18.2767
18.267
18.2603
18.2514
18.2387
18.2263
18.2183
18.2167
18.2159
18.2065
18.184
18.1514
18.1216
18.1022
18.0973
18.1059
18.1111
18.1036
18.0843
18.0601
18.047
18.0529
18.0757
18.1033
18.1284
18.1461
18.1481
18.1355
18.1154
18.1045
18.1106
18.133
18.1711
18.2028
18.2134
18.2054
18.1741
18.1367
18.0941
18.0563
18.0363
18.0397
18.0572
18.081
18.0904
18.0799
18.0543
18.021
17.9866
17.9632
17.955
17.96
17.9743
17.9933
18.0109
18.0236
18.0335
18.8044
18.8063
18.8012
18.7881
18.773
18.7607
18.7549
18.7515
18.7584
18.7653
18.7514
18.7077
18.6426
18.5823
18.5253
18.4889
18.4627
18.4429
18.4267
18.4064
18.3765
18.3392
18.3061
18.2856
18.2735
18.2641
18.2545
18.242
18.2293
18.2233
18.2226
18.2164
18.2013
18.1746
18.1402
18.1101
18.0915
18.087
18.0985
18.1125
18.1163
18.109
18.0963
18.0882
18.0887
18.0972
18.1124
18.1287
18.1339
18.1245
18.1108
18.1022
18.1019
18.1137
18.1399
18.1739
18.1983
18.2052
18.1922
18.1574
18.1138
18.0726
18.0453
18.0378
18.0434
18.0579
18.0741
18.0793
18.0693
18.0504
18.0269
18.0007
17.9771
17.9636
17.9617
17.9665
17.9767
17.991
18.0048
18.0151
18.7917
18.7933
18.7876
18.779
18.7712
18.7648
18.7605
18.7588
18.762
18.7598
18.7394
18.695
18.6335
18.5799
18.5283
18.4919
18.4635
18.4355
18.4157
18.3961
18.37
18.3408
18.3149
18.2963
18.2836
18.2733
18.2623
18.2498
18.2391
18.232
18.2238
18.2082
18.1844
18.1541
18.1201
18.0909
18.0738
18.0705
18.0801
18.1018
18.1188
18.1277
18.1306
18.1296
18.1201
18.1131
18.1146
18.1155
18.1037
18.0905
18.0851
18.0879
18.0951
18.1138
18.1378
18.1597
18.1747
18.1743
18.1598
18.127
18.0874
18.0599
18.0474
18.0473
18.0528
18.0577
18.0615
18.0607
18.056
18.0474
18.0351
18.0195
18.0006
17.9829
17.972
17.9672
17.9676
17.9747
17.9832
17.9895
18.7765
18.7772
18.7759
18.7743
18.774
18.7728
18.7702
18.7667
18.7608
18.7469
18.7197
18.6773
18.6247
18.5759
18.5306
18.4915
18.4557
18.4231
18.3973
18.3778
18.36
18.3422
18.3245
18.3093
18.2981
18.2863
18.2736
18.2647
18.2544
18.238
18.2166
18.1873
18.1532
18.1217
18.093
18.0695
18.055
18.0516
18.0608
18.0833
18.1136
18.1391
18.1561
18.1585
18.1447
18.1238
18.1077
18.0855
18.0635
18.0538
18.0559
18.0659
18.0852
18.1074
18.1247
18.1316
18.135
18.1326
18.1172
18.0933
18.0742
18.0616
18.058
18.06
18.0575
18.0507
18.0428
18.0409
18.044
18.0478
18.0466
18.0397
18.0279
18.0126
17.9961
17.9811
17.9716
17.9667
17.9676
17.9704
18.7604
18.7637
18.7688
18.7749
18.7802
18.7818
18.7776
18.7677
18.7517
18.7272
18.6948
18.6565
18.6156
18.5757
18.5363
18.493
18.4487
18.4054
18.3741
18.3582
18.3516
18.345
18.336
18.3257
18.3146
18.301
18.2931
18.284
18.2665
18.2368
18.198
18.1542
18.1145
18.0861
18.0683
18.0539
18.0428
18.038
18.045
18.067
18.1042
18.1424
18.1679
18.1744
18.1599
18.1275
18.0864
18.0486
18.0277
18.0218
18.0259
18.0435
18.0716
18.0908
18.0982
18.0952
18.0894
18.0875
18.0819
18.0774
18.0757
18.0736
18.0717
18.062
18.0509
18.0367
18.0262
18.0274
18.039
18.0541
18.063
18.0643
18.0594
18.0463
18.0267
18.0066
17.9891
17.974
17.96
17.9561
18.7486
18.7541
18.7656
18.7785
18.7872
18.7865
18.78
18.7634
18.7377
18.7035
18.6686
18.638
18.6126
18.5843
18.5476
18.4995
18.4431
18.3921
18.3587
18.3485
18.3498
18.3515
18.3495
18.3434
18.3306
18.3218
18.3136
18.2982
18.2692
18.225
18.1695
18.1182
18.0799
18.0588
18.0508
18.0439
18.0361
18.0312
18.0373
18.0596
18.0953
18.1385
18.1674
18.1766
18.1617
18.1192
18.0613
18.0192
18.0019
17.9962
18.0036
18.0279
18.0525
18.0644
18.0641
18.055
18.0485
18.0518
18.0612
18.0765
18.0829
18.0848
18.0734
18.0575
18.0405
18.0254
18.0181
18.0248
18.0427
18.0652
18.0845
18.0976
18.1032
18.099
18.083
18.0574
18.0253
17.9918
17.968
17.9533
18.7423
18.7491
18.7648
18.7822
18.7912
18.7891
18.7798
18.7553
18.7181
18.6798
18.646
18.6283
18.6152
18.5949
18.5638
18.5107
18.4455
18.3894
18.355
18.3477
18.3538
18.36
18.361
18.3577
18.3509
18.3411
18.3253
18.3004
18.259
18.2026
18.1408
18.0903
18.0554
18.0411
18.0408
18.0396
18.0354
18.031
18.0366
18.0575
18.0906
18.1303
18.1589
18.1678
18.1496
18.1003
18.043
18.0021
17.9844
17.9826
17.9955
18.0181
18.0348
18.0403
18.0363
18.0276
18.0243
18.0323
18.0546
18.0776
18.0884
18.0871
18.0708
18.0483
18.0309
18.0211
18.0227
18.0346
18.0572
18.0845
18.1093
18.1257
18.1315
18.129
18.1175
18.0957
18.0629
18.0212
17.9785
17.9558
18.7418
18.7495
18.767
18.7848
18.79
18.789
18.7747
18.7423
18.6999
18.66
18.6328
18.6248
18.6173
18.6036
18.578
18.5269
18.4604
18.4028
18.3663
18.3549
18.3598
18.3696
18.375
18.3714
18.3644
18.3499
18.3248
18.2885
18.2378
18.1793
18.1208
18.074
18.0434
18.034
18.0375
18.0407
18.0398
18.0368
18.0415
18.0604
18.0924
18.1229
18.1458
18.1506
18.127
18.0812
18.0328
17.9961
17.9794
17.9802
17.9965
18.0145
18.0238
18.0252
18.0213
18.0161
18.0165
18.0278
18.0501
18.0725
18.0863
18.081
18.0607
18.0388
18.028
18.0292
18.0403
18.0584
18.0829
18.1091
18.1284
18.1366
18.1361
18.1288
18.1164
18.099
18.0729
18.0367
17.9945
17.9624
18.7482
18.7552
18.77
18.7837
18.7854
18.7829
18.7649
18.7303
18.6873
18.6508
18.6287
18.6223
18.6193
18.6101
18.5884
18.5451
18.4856
18.4307
18.3893
18.3714
18.371
18.378
18.3827
18.3793
18.3676
18.345
18.3106
18.2644
18.2131
18.1613
18.112
18.0709
18.0462
18.0402
18.0432
18.0474
18.0483
18.0477
18.0522
18.0677
18.094
18.1158
18.1293
18.1275
18.1046
18.0691
18.0315
17.9997
17.9837
17.9886
18.0049
18.0162
18.0199
18.019
18.0164
18.0142
18.0177
18.0283
18.0432
18.0609
18.0709
18.0651
18.0493
18.0366
18.0359
18.0489
18.0696
18.0917
18.1126
18.1293
18.1361
18.1369
18.1285
18.1129
18.0938
18.0761
18.0581
18.0396
18.0274
18.0098
18.7589
18.7623
18.7711
18.7793
18.7791
18.7749
18.7568
18.7238
18.6836
18.6512
18.6324
18.6245
18.6198
18.6121
18.5946
18.562
18.5148
18.4688
18.4284
18.4002
18.3863
18.3828
18.3839
18.3763
18.3574
18.326
18.2838
18.2373
18.1928
18.153
18.1151
18.0835
18.0637
18.0557
18.0547
18.0556
18.0582
18.0615
18.0668
18.0791
18.0963
18.1091
18.1117
18.1064
18.0896
18.066
18.0368
18.0164
18.0033
18.008
18.0182
18.0208
18.0195
18.0169
18.0157
18.0182
18.0229
18.0272
18.034
18.0402
18.0467
18.0461
18.0425
18.0442
18.0571
18.079
18.1034
18.1231
18.1345
18.1383
18.1366
18.1308
18.1152
18.0937
18.072
18.0552
18.0487
18.0749
18.1388
18.1727
18.7673
18.7661
18.7698
18.7729
18.7714
18.7664
18.7507
18.7235
18.6898
18.6599
18.639
18.6266
18.6193
18.6091
18.5968
18.5756
18.5437
18.5111
18.4762
18.4406
18.4093
18.3879
18.3766
18.3613
18.3348
18.2978
18.2555
18.2137
18.1791
18.1521
18.1305
18.1085
18.0898
18.0761
18.0676
18.0653
18.0691
18.0761
18.0833
18.0907
18.0975
18.1004
18.0932
18.0885
18.0816
18.0673
18.0534
18.0427
18.0349
18.0321
18.0326
18.0286
18.0228
18.0191
18.0198
18.0255
18.0278
18.023
18.0178
18.0154
18.021
18.0312
18.0455
18.0637
18.0863
18.1103
18.1312
18.1427
18.1425
18.1355
18.1211
18.106
18.0919
18.0778
18.0636
18.0574
18.0995
18.185
18.2614
18.3016
18.7716
18.7672
18.7675
18.7653
18.7603
18.7543
18.7441
18.7252
18.6998
18.6715
18.6455
18.6259
18.6119
18.6026
18.5957
18.5855
18.5695
18.5472
18.5174
18.4794
18.4374
18.3978
18.3696
18.3439
18.3112
18.2719
18.2323
18.1977
18.1746
18.1605
18.1521
18.1381
18.118
18.0952
18.0788
18.0739
18.0794
18.091
18.0992
18.1004
18.0974
18.0883
18.0776
18.0773
18.0759
18.078
18.0781
18.076
18.0673
18.0542
18.0455
18.0369
18.0295
18.0263
18.0274
18.0314
18.0297
18.0148
17.9992
17.9918
18.0003
18.0246
18.0572
18.0908
18.1183
18.1375
18.1476
18.1481
18.1372
18.1177
18.0963
18.0852
18.0809
18.0736
18.0846
18.1408
18.2218
18.2782
18.3081
18.332
18.774
18.767
18.762
18.7549
18.7482
18.7431
18.7382
18.7263
18.7058
18.6786
18.6481
18.6223
18.6038
18.5944
18.5919
18.5916
18.588
18.574
18.5453
18.5055
18.459
18.4116
18.3685
18.3319
18.2955
18.2568
18.22
18.1923
18.1766
18.1753
18.1743
18.1638
18.1413
18.1114
18.0893
18.0819
18.0879
18.1005
18.1084
18.1053
18.0952
18.0773
18.0685
18.0692
18.0805
18.0962
18.1078
18.1057
18.0902
18.0707
18.0558
18.0455
18.0388
18.0353
18.0345
18.0338
18.0251
18.0035
17.982
17.9761
17.9905
18.0265
18.0745
18.1195
18.1454
18.1537
18.1489
18.1358
18.1152
18.0965
18.083
18.0803
18.0801
18.1082
18.1764
18.2501
18.2949
18.3143
18.3205
18.3392
18.7727
18.7617
18.7524
18.7429
18.7343
18.7299
18.7287
18.7226
18.7062
18.6806
18.6489
18.6189
18.5963
18.5872
18.586
18.5964
18.5991
18.588
18.5603
18.5181
18.4709
18.4208
18.3721
18.328
18.2894
18.2517
18.2179
18.1948
18.1865
18.1911
18.1913
18.1803
18.1575
18.126
18.1
18.0904
18.0936
18.1046
18.1123
18.1079
18.0928
18.0694
18.059
18.0669
18.0864
18.1143
18.1295
18.1247
18.1041
18.0807
18.0645
18.0564
18.0503
18.0462
18.0396
18.0313
18.0125
17.9885
17.9734
17.9725
17.9916
18.0322
18.0853
18.1313
18.1511
18.1491
18.1329
18.11
18.0966
18.0905
18.0887
18.0907
18.1304
18.2017
18.262
18.296
18.3121
18.3103
18.3051
18.322
18.7651
18.7518
18.7409
18.729
18.7184
18.7131
18.7123
18.7087
18.696
18.6729
18.6413
18.6121
18.5889
18.5779
18.5798
18.5963
18.6029
18.5924
18.5677
18.5266
18.4785
18.4266
18.3779
18.3318
18.2902
18.2544
18.2253
18.2069
18.2033
18.2044
18.2011
18.1907
18.1674
18.1372
18.11
18.0958
18.0958
18.1057
18.1127
18.108
18.0903
18.064
18.0555
18.0657
18.0903
18.1219
18.1365
18.1325
18.1127
18.0882
18.073
18.0667
18.0626
18.056
18.0424
18.0202
17.9942
17.9788
17.9748
17.9815
18.0017
18.0392
18.0848
18.1226
18.1336
18.1256
18.111
18.095
18.0902
18.0941
18.109
18.1607
18.2234
18.2644
18.2855
18.2879
18.2873
18.279
18.2587
18.2622
18.7561
18.7409
18.7286
18.7146
18.7016
18.6923
18.6876
18.6827
18.6739
18.65
18.6225
18.5992
18.5808
18.57
18.5751
18.5908
18.5977
18.5885
18.5698
18.5326
18.4843
18.4343
18.3868
18.343
18.302
18.2689
18.2457
18.2306
18.2223
18.2144
18.205
18.1905
18.1691
18.1426
18.1164
18.099
18.0946
18.0997
18.1039
18.0994
18.0826
18.0612
18.0544
18.0662
18.0909
18.1188
18.133
18.1347
18.1191
18.0956
18.0807
18.0737
18.0703
18.0598
18.0374
18.0058
17.9827
17.9771
17.9847
17.9989
18.0163
18.0421
18.0722
18.0949
18.1052
18.1053
18.1023
18.0986
18.0975
18.1229
18.1832
18.2415
18.2699
18.2758
18.2687
18.2612
18.2375
18.2072
18.1862
18.1879
18.7505
18.7329
18.7178
18.7015
18.6843
18.6685
18.6565
18.6476
18.6362
18.6174
18.5998
18.5863
18.5748
18.5662
18.5695
18.5788
18.5842
18.5759
18.5624
18.5347
18.491
18.4423
18.3979
18.3592
18.3244
18.2974
18.2779
18.2603
18.2409
18.2224
18.2045
18.1863
18.1678
18.1449
18.1209
18.101
18.0936
18.0934
18.0928
18.0865
18.0734
18.0584
18.0547
18.0666
18.0872
18.1102
18.1302
18.137
18.1259
18.1054
18.0869
18.0762
18.0677
18.0533
18.0276
18.0001
17.9831
17.9851
18.0015
18.0187
18.0305
18.0396
18.0496
18.0589
18.0754
18.0883
18.098
18.1056
18.1377
18.1955
18.2464
18.2731
18.2758
18.2646
18.2429
18.2002
18.1603
18.1413
18.1335
18.1382
18.7503
18.7295
18.7117
18.691
18.6679
18.6445
18.6239
18.6057
18.5898
18.5785
18.5748
18.5742
18.5701
18.5665
18.563
18.562
18.5626
18.5569
18.5482
18.5293
18.4998
18.4564
18.4157
18.3821
18.354
18.334
18.3161
18.2909
18.2581
18.2263
18.1999
18.1784
18.1586
18.1414
18.1235
18.1071
18.0935
18.0833
18.0757
18.0687
18.0622
18.0564
18.0576
18.0673
18.0835
18.102
18.1219
18.1342
18.1286
18.1117
18.0908
18.0715
18.0546
18.0378
18.0182
18.001
17.9922
17.9994
18.0199
18.0378
18.0423
18.0371
18.0295
18.0308
18.0479
18.0751
18.1078
18.1521
18.2075
18.2466
18.2642
18.2637
18.2575
18.2292
18.1819
18.1387
18.1143
18.1098
18.1107
18.116
18.763
18.7337
18.7092
18.6822
18.653
18.621
18.5884
18.5617
18.5466
18.5448
18.5538
18.5612
18.5681
18.5676
18.5575
18.5444
18.5384
18.5368
18.5346
18.5242
18.5073
18.4773
18.4402
18.4127
18.3897
18.3724
18.3524
18.3183
18.2737
18.2288
18.193
18.1676
18.1526
18.1426
18.1299
18.1119
18.0892
18.0679
18.0544
18.0505
18.0531
18.0599
18.0653
18.0696
18.0774
18.0902
18.1044
18.1212
18.1244
18.1128
18.0894
18.0618
18.0336
18.0183
18.0104
18.0075
18.0087
18.0182
18.0372
18.0517
18.0533
18.0407
18.0228
18.0186
18.0339
18.0712
18.1346
18.2068
18.2496
18.2601
18.2498
18.2409
18.2096
18.1686
18.1337
18.1125
18.1015
18.0999
18.1039
18.1109
18.7964
18.7525
18.7128
18.6773
18.6407
18.5986
18.5574
18.5275
18.5169
18.5222
18.5357