/*--------------------------------*- C++ -*----------------------------------*\
| =========                 |                                                 |
| \\      /  F ield         | OpenFOAM: The Open Source CFD Toolbox           |
|  \\    /   O peration     | Version:  v1912                                 |
|   \\  /    A nd           | Website:  www.openfoam.com                      |
|    \\/     M anipulation  |                                                 |
\*---------------------------------------------------------------------------*/
FoamFile
{
    version     2.0;
    format      ascii;
    class       volScalarField;
    location    "0.00024";
    object      iDofMean;
}
// * * * * * * * * * * * * * * * * * * * * * * * * * * * * * * * * * * * * * //

dimensions      [0 -3 0 0 0 0 0];


internalField   nonuniform List<scalar> 
1300
(
3.65e+23
4.05e+23
9.55e+23
2.503333333e+24
1.476666667e+24
1.035e+24
1.465e+24
1.538333333e+24
1.303333333e+24
1.228333333e+24
4.5e+23
4.4e+23
1.418333333e+24
4.418333333e+24
2.146666667e+24
1.295e+24
2.171666667e+24
2.263333333e+24
1.631666667e+24
1.555e+24
2.25e+23
2.516666667e+23
1.268333333e+24
4.601666667e+24
2.09e+24
1.278333333e+24
2.418333333e+24
2.773333333e+24
1.921666667e+24
1.873333333e+24
1.533333333e+23
1.45e+23
1.128333333e+24
4.333333333e+24
1.983333333e+24
1.193333333e+24
2.468333333e+24
3.281666667e+24
2.103333333e+24
2.021666667e+24
9.5e+22
1.216666667e+23
1.19e+24
4.255e+24
1.931666667e+24
1.03e+24
2.303333333e+24
2.976666667e+24
2.321666667e+24
2.085e+24
7e+22
8e+22
1.115e+24
4.291666667e+24
1.863333333e+24
1.001666667e+24
2.201666667e+24
2.768333333e+24
2.183333333e+24
2.016666667e+24
4.666666667e+22
1.016666667e+23
1.158333333e+24
4.251666667e+24
1.828333333e+24
9.1e+23
2.133333333e+24
2.673333333e+24
2.061666667e+24
1.906666667e+24
5.333333333e+22
5.5e+22
1.161666667e+24
4.216666667e+24
1.848333333e+24
9.8e+23
2.138333333e+24
2.771666667e+24
1.891666667e+24
1.856666667e+24
3.166666667e+22
6.333333333e+22
1.175e+24
4.325e+24
1.805e+24
9.516666667e+23
2.221666667e+24
2.61e+24
1.908333333e+24
1.766666667e+24
2.333333333e+22
5e+22
1.123333333e+24
4.223333333e+24
1.896666667e+24
1.03e+24
2.013333333e+24
2.761666667e+24
1.993333333e+24
1.638333333e+24
2.666666667e+22
4.5e+22
1.155e+24
4.278333333e+24
1.863333333e+24
9.816666667e+23
2.13e+24
2.813333333e+24
1.933333333e+24
1.811666667e+24
1.833333333e+22
4.166666667e+22
1.128333333e+24
4.148333333e+24
1.773333333e+24
9.316666667e+23
2.12e+24
2.683333333e+24
1.88e+24
1.816666667e+24
1e+22
4.166666667e+22
1.043333333e+24
4.32e+24
1.825e+24
9.266666667e+23
2.065e+24
2.745e+24
1.901666667e+24
1.805e+24
1.333333333e+22
2.833333333e+22
1.148333333e+24
4.318333333e+24
1.845e+24
9.466666667e+23
2.073333333e+24
2.711666667e+24
1.905e+24
1.776666667e+24
5e+21
3.5e+22
1.111666667e+24
4.163333333e+24
1.835e+24
9.283333333e+23
2.028333333e+24
2.771666667e+24
1.973333333e+24
1.696666667e+24
1e+22
4.666666667e+22
1.166666667e+24
4.306666667e+24
1.756666667e+24
1.013333333e+24
2.18e+24
2.683333333e+24
1.908333333e+24
1.773333333e+24
1e+22
4e+22
1.113333333e+24
4.196666667e+24
1.783333333e+24
1.018333333e+24
2.176666667e+24
2.561666667e+24
1.976666667e+24
1.796666667e+24
8.333333333e+21
1.5e+22
1.16e+24
4.228333333e+24
1.77e+24
1.026666667e+24
2.06e+24
2.738333333e+24
1.971666667e+24
1.731666667e+24
6.666666667e+21
3.5e+22
1.096666667e+24
4.288333333e+24
1.813333333e+24
9.55e+23
1.98e+24
2.66e+24
1.938333333e+24
1.678333333e+24
5e+21
2.666666667e+22
1.006666667e+24
3.956666667e+24
1.761666667e+24
1.018333333e+24
1.971666667e+24
2.511666667e+24
1.913333333e+24
1.775e+24
1.252027512e+24
1.129844994e+24
1.128472166e+24
1.080422864e+24
1.101015413e+24
1.037864912e+24
1.106506771e+24
1.168284434e+24
1.046101935e+24
1.11199812e+24
1.046101926e+24
1.187504165e+24
1.144946212e+24
1.09277839e+24
1.179267141e+24
1.190249839e+24
1.162793086e+24
1.133963515e+24
1.250654675e+24
1.16553876e+24
1.18475849e+24
1.245163327e+24
1.199859689e+24
1.18475849e+24
1.245163326e+24
1.320669361e+24
1.386565556e+24
1.40441244e+24
1.562288703e+24
1.567780065e+24
1.51149374e+24
1.323415035e+24
1.171030119e+24
1.179267142e+24
1.171030109e+24
1.151810398e+24
1.113370957e+24
1.1559289e+24
1.135336352e+24
1.076304353e+24
1.114743785e+24
1.072185841e+24
1.221825094e+24
1.142200528e+24
1.155928909e+24
1.114743794e+24
1.143573365e+24
1.090032725e+24
1.182012816e+24
1.253400339e+24
1.188877002e+24
1.217706583e+24
1.29183978e+24
1.298703977e+24
1.195741188e+24
1.338516244e+24
1.230062117e+24
1.29733114e+24
1.349498941e+24
1.440106207e+24
1.895888152e+24
1.684471212e+24
1.466190113e+24
1.368718673e+24
1.33577057e+24
1.276738582e+24
1.212215234e+24
1.173775783e+24
1.182012816e+24
1.192995513e+24
1.129844994e+24
1.103761096e+24
1.114743794e+24
1.143573365e+24
1.18475849e+24
1.180639979e+24
1.125726482e+24
1.186131327e+24
1.21907942e+24
1.195741178e+24
1.234180629e+24
1.291839791e+24
1.183385643e+24
1.225943606e+24
1.180639979e+24
1.265755874e+24
1.264383047e+24
1.341261929e+24
1.433242009e+24
1.333024906e+24
2.223996239e+24
2.121033433e+24
1.812145084e+24
1.692708249e+24
1.640540422e+24
1.441479044e+24
1.442851881e+24
1.411276614e+24
1.324787883e+24
1.304195325e+24
1.278111408e+24
1.241044815e+24
1.280857093e+24
1.192995504e+24
1.208096722e+24
1.210842397e+24
1.127099319e+24
1.224570769e+24
1.169657281e+24
1.201232527e+24
1.267128721e+24
1.254773187e+24
1.290466943e+24
1.294585465e+24
1.342634767e+24
1.227316433e+24
1.353617464e+24
1.352244627e+24
1.327533547e+24
1.258891698e+24
2.649575766e+24
2.414820588e+24
2.110050753e+24
2.070238474e+24
1.953547298e+24
1.78468834e+24
1.711927969e+24
1.592491121e+24
1.591118297e+24
1.390684068e+24
1.396175405e+24
1.386565556e+24
1.293212628e+24
1.367345825e+24
1.257518861e+24
1.337143418e+24
1.286348431e+24
1.236926303e+24
1.302822488e+24
1.250654665e+24
1.249281838e+24
1.291839791e+24
1.236926293e+24
1.289094116e+24
1.242417652e+24
1.320669361e+24
1.387938394e+24
1.352244627e+24
1.253400339e+24
1.235553466e+24
2.354415772e+24
2.545240119e+24
2.343433074e+24
2.304993633e+24
2.180065431e+24
2.112796427e+24
1.939818942e+24
1.887651113e+24
1.707809458e+24
1.716046481e+24
1.585626935e+24
1.552678856e+24
1.497765368e+24
1.496392519e+24
1.419513649e+24
1.379701371e+24
1.464817264e+24
1.315178023e+24
1.338516255e+24
1.381074196e+24
1.35087179e+24
1.308313837e+24
1.348126104e+24
1.268501559e+24
1.387938394e+24
1.360481639e+24
1.324787883e+24
1.365972999e+24
1.29183978e+24
1.368718673e+24
2.162218566e+24
2.504055004e+24
2.418939119e+24
2.454632886e+24
2.416193425e+24
2.361279957e+24
2.228114751e+24
2.096322364e+24
2.08671252e+24
2.005715127e+24
1.854703021e+24
1.788806852e+24
1.607592343e+24
1.624066376e+24
1.59935532e+24
1.584254111e+24
1.479918473e+24
1.569152902e+24
1.452461741e+24
1.441479032e+24
1.422259323e+24
1.460698764e+24
1.485409821e+24
1.387938394e+24
1.382447045e+24
1.390684056e+24
1.353617464e+24
1.387938394e+24
1.426377823e+24
1.353617464e+24
2.147117357e+24
2.329704683e+24
2.361279957e+24
2.283028238e+24
2.537003096e+24
2.619373348e+24
2.416193445e+24
2.283028219e+24
2.302247958e+24
2.21850489e+24
2.053764411e+24
2.016697824e+24
2.011206475e+24
1.851957347e+24
1.754485922e+24
1.768214294e+24
1.648777445e+24
1.703690946e+24
1.595236808e+24
1.600728144e+24
1.51149374e+24
1.615829366e+24
1.547187494e+24
1.54581467e+24
1.462071602e+24
1.497765356e+24
1.416767974e+24
1.477172811e+24
1.396175405e+24
1.425004998e+24
2.116914939e+24
2.180065431e+24
2.062001451e+24
2.206149356e+24
2.24870729e+24
2.479343955e+24
2.443650189e+24
2.475225423e+24
2.575442558e+24
2.325586191e+24
2.30224794e+24
2.322840516e+24
2.119660613e+24
2.055137249e+24
2.059255777e+24
1.938446105e+24
1.883532602e+24
1.758604434e+24
1.846466013e+24
1.721537815e+24
1.739384713e+24
1.659760156e+24
1.68996256e+24
1.663878668e+24
1.735266201e+24
1.613083679e+24
1.64328611e+24
1.576017088e+24
1.567780052e+24
1.497765368e+24
2.03317187e+24
2.207522175e+24
2.001596615e+24
2.048273079e+24
2.233606081e+24
2.247334471e+24
2.339314562e+24
2.347551566e+24
2.405210747e+24
2.634474557e+24
2.358534264e+24
2.460124235e+24
2.41344777e+24
2.287146731e+24
2.203403681e+24
2.185556798e+24
2.064747109e+24
1.990613918e+24
2.044154568e+24
1.975512692e+24
1.917853547e+24
1.910989361e+24
1.86019437e+24
1.78468834e+24
1.802535223e+24
1.76272293e+24
1.754485922e+24
1.725656341e+24
1.716046467e+24
1.637794761e+24
2.052391591e+24
2.2047765e+24
2.099068055e+24
2.060628614e+24
2.066119946e+24
2.259690006e+24
2.173201263e+24
2.265181336e+24
2.401092236e+24
2.420311957e+24
2.36539845e+24
2.49169949e+24
2.486208141e+24
2.432667471e+24
2.377754004e+24
2.318722005e+24
2.358534264e+24
2.230860425e+24
2.083966846e+24
2.097695201e+24
1.893142477e+24
2.034544708e+24
1.959038646e+24
1.875295594e+24
1.906870849e+24
1.924717717e+24
1.867058571e+24
1.858821548e+24
1.775078465e+24
1.836856153e+24
2.026307685e+24
2.142998827e+24
2.018070661e+24
2.03317187e+24
1.993359576e+24
2.20889503e+24
2.049645917e+24
2.181438268e+24
2.331077539e+24
2.321467679e+24
2.405210728e+24
2.464242746e+24
2.523274745e+24
2.372262635e+24
2.451887212e+24
2.505427862e+24
2.380499658e+24
2.30636647e+24
2.385991027e+24
2.291265242e+24
2.211640704e+24
2.116914939e+24
2.12240627e+24
2.132016148e+24
2.053764428e+24
2.052391574e+24
1.996105266e+24
1.941191779e+24
2.051018737e+24
1.941191779e+24
2.055137265e+24
2.12240627e+24
2.027680522e+24
1.949428802e+24
2.126524781e+24
2.160845728e+24
2.072984149e+24
2.026307668e+24
2.313230656e+24
2.206149356e+24
2.226741895e+24
2.43815884e+24
2.377754004e+24
2.541121608e+24
2.634474557e+24
2.637220232e+24
2.468361237e+24
2.494445164e+24
2.40383791e+24
2.495817981e+24
2.317349168e+24
2.354415772e+24
2.361279938e+24
2.13064331e+24
2.148490194e+24
2.153981525e+24
2.182811123e+24
2.083966846e+24
2.105932224e+24
2.094949544e+24
1.985122569e+24
2.191048128e+24
2.018070661e+24
2.00434229e+24
2.016697808e+24
2.031799033e+24
2.059255777e+24
1.983749715e+24
2.090831032e+24
2.210267867e+24
2.06886562e+24
2.20889503e+24
2.395600887e+24
2.218504872e+24
2.510919211e+24
2.395600887e+24
2.524647562e+24
2.64271158e+24
2.487580979e+24
2.482089609e+24
2.513664885e+24
2.390109538e+24
2.44776868e+24
2.451887212e+24
2.213013542e+24
2.38461817e+24
2.28714675e+24
2.225369076e+24
2.359907101e+24
2.254198657e+24
2.026307684e+24
2.085339666e+24
1.975512709e+24
1.989241081e+24
1.974139855e+24
2.074356986e+24
2.045527405e+24
2.016697807e+24
2.097695218e+24
2.034544707e+24
2.011206459e+24
2.178692612e+24
2.278909726e+24
2.077102643e+24
2.325586191e+24
2.35990712e+24
2.355788589e+24
2.53563028e+24
2.527393257e+24
2.523274725e+24
2.593289442e+24
2.460124235e+24
2.446395843e+24
2.451887212e+24
2.488953816e+24
2.353042915e+24
2.283028238e+24
2.357161446e+24
2.270672685e+24
2.343433074e+24
2.070238474e+24
2.206149337e+24
2.02356201e+24
2.000223778e+24
2.097695201e+24
2.237724611e+24
1.913735035e+24
2.019443482e+24
2.171828426e+24
2.119660613e+24
1.97688553e+24
2.03317187e+24
2.062001451e+24
2.070238457e+24
2.211640704e+24
2.229487588e+24
2.307739288e+24
2.317349168e+24
2.416193445e+24
2.464242726e+24
2.531511768e+24
2.516410559e+24
2.615254815e+24
2.442277351e+24
2.483462467e+24
2.52052905e+24
2.396973724e+24
2.377754004e+24
2.412074913e+24
2.362652795e+24
2.019443498e+24
2.115542084e+24
2.12103345e+24
1.938446105e+24
2.048273063e+24
2.045527405e+24
2.029053359e+24
2.016697808e+24
2.053764428e+24
2.099068055e+24
2.075729806e+24
2.081221172e+24
2.178692612e+24
2.042781714e+24
2.148490194e+24
2.152608705e+24
2.2047765e+24
2.170455589e+24
2.300875121e+24
2.409329239e+24
2.436786003e+24
2.479343955e+24
2.616627652e+24
2.512292048e+24
2.575442558e+24
2.576815374e+24
2.62349186e+24
2.510919211e+24
2.504055004e+24
2.52602042e+24
2.004342289e+24
2.101813712e+24
1.997478104e+24
1.994732429e+24
1.982376878e+24
2.141626008e+24
1.996105266e+24
1.950801623e+24
2.078475497e+24
2.005715127e+24
2.081221155e+24
2.059255777e+24
2.147117357e+24
2.111423572e+24
2.141626008e+24
2.147117357e+24
2.232233244e+24
2.196539495e+24
2.189675309e+24
2.265181336e+24
2.325586191e+24
2.326959028e+24
2.409329239e+24
2.453260049e+24
2.583679582e+24
2.421684774e+24
2.682523859e+24
2.571324047e+24
2.587798072e+24
2.497190839e+24
1.987868243e+24
2.171828408e+24
1.91648071e+24
1.897260989e+24
1.949428786e+24
2.125151962e+24
1.989241081e+24
2.000223761e+24
2.005715127e+24
2.027680522e+24
2.046900225e+24
1.982376895e+24
2.11142359e+24
2.020816319e+24
1.985122569e+24
2.156727217e+24
2.0496459e+24
2.193793821e+24
2.169082752e+24
2.234978918e+24
2.255571494e+24
2.228114751e+24
2.361279938e+24
2.314603493e+24
2.431294654e+24
2.490326632e+24
2.469734095e+24
2.531511768e+24
2.477971098e+24
2.712726277e+24
1.997478104e+24
2.064747109e+24
1.927463407e+24
2.038663219e+24
2.019443482e+24
1.975512709e+24
1.946683128e+24
1.946683112e+24
2.056510103e+24
1.879414106e+24
1.964529995e+24
1.990613918e+24
2.000223778e+24
1.990613901e+24
1.974139871e+24
2.005715127e+24
2.063374271e+24
2.008460801e+24
2.060628614e+24
2.11279641e+24
2.180065449e+24
2.137507496e+24
2.171828408e+24
2.280282564e+24
2.281655401e+24
2.343433055e+24
2.311857819e+24
2.446395863e+24
2.456005703e+24
2.531511768e+24
1.335e+24
1.28e+24
1.303333333e+24
1.266666667e+24
1.253333333e+24
1.176666667e+24
1.171666667e+24
1.081666667e+24
1.003333333e+24
8.5e+23
1.593333333e+24
1.586666667e+24
1.406666667e+24
1.455e+24
1.483333333e+24
1.546666667e+24
1.443333333e+24
1.355e+24
1.211666667e+24
1.076666667e+24
1.411666667e+24
1.348333333e+24
1.436666667e+24
1.435e+24
1.418333333e+24
1.403333333e+24
1.366666667e+24
1.348333333e+24
1.153333333e+24
1.03e+24
1.323333333e+24
1.308333333e+24
1.401666667e+24
1.426666667e+24
1.381666667e+24
1.375e+24
1.253333333e+24
1.316666667e+24
1.163333333e+24
1.061666667e+24
1.208333333e+24
1.316666667e+24
1.273333333e+24
1.301666667e+24
1.355e+24
1.295e+24
1.366666667e+24
1.263333333e+24
1.155e+24
1.133333333e+24
1.351666667e+24
1.371666667e+24
1.255e+24
1.31e+24
1.251666667e+24
1.266666667e+24
1.276666667e+24
1.203333333e+24
1.19e+24
1.223333333e+24
1.34e+24
1.301666667e+24
1.391666667e+24
1.325e+24
1.236666667e+24
1.318333333e+24
1.215e+24
1.268333333e+24
1.16e+24
1.175e+24
1.438333333e+24
1.338333333e+24
1.373333333e+24
1.283333333e+24
1.421666667e+24
1.286666667e+24
1.218333333e+24
1.241666667e+24
1.233333333e+24
1.175e+24
1.523333333e+24
1.501666667e+24
1.461666667e+24
1.386666667e+24
1.411666667e+24
1.335e+24
1.373333333e+24
1.225e+24
1.246666667e+24
1.23e+24
1.641666667e+24
1.515e+24
1.601666667e+24
1.536666667e+24
1.44e+24
1.508333333e+24
1.34e+24
1.298333333e+24
1.401666667e+24
1.298333333e+24
1.743333333e+24
1.678333333e+24
1.776666667e+24
1.638333333e+24
1.596666667e+24
1.515e+24
1.538333333e+24
1.583333333e+24
1.463333333e+24
1.441666667e+24
1.83e+24
1.915e+24
1.878333333e+24
1.778333333e+24
1.776666667e+24
1.846666667e+24
1.681666667e+24
1.675e+24
1.46e+24
1.543333333e+24
2.065e+24
2.16e+24
1.97e+24
1.961666667e+24
2.048333333e+24
1.88e+24
1.795e+24
1.926666667e+24
1.746666667e+24
1.748333333e+24
2.166666667e+24
2.205e+24
2.24e+24
2.101666667e+24
2.153333333e+24
2.13e+24
2.038333333e+24
2.025e+24
2.016666667e+24
1.948333333e+24
2.216666667e+24
2.176666667e+24
2.191666667e+24
2.271666667e+24
2.225e+24
2.208333333e+24
2.113333333e+24
2.151666667e+24
2.125e+24
2.081666667e+24
2.406666667e+24
2.446666667e+24
2.383333333e+24
2.323333333e+24
2.345e+24
2.298333333e+24
2.353333333e+24
2.24e+24
2.186666667e+24
2.245e+24
2.445e+24
2.506666667e+24
2.525e+24
2.495e+24
2.296666667e+24
2.44e+24
2.383333333e+24
2.451666667e+24
2.358333333e+24
2.351666667e+24
2.511666667e+24
2.35e+24
2.455e+24
2.556666667e+24
2.611666667e+24
2.515e+24
2.498333333e+24
2.473333333e+24
2.483333333e+24
2.451666667e+24
2.505e+24
2.503333333e+24
2.563333333e+24
2.47e+24
2.525e+24
2.471666667e+24
2.546666667e+24
2.483333333e+24
2.603333333e+24
2.656666667e+24
2.483333333e+24
2.476666667e+24
2.568333333e+24
2.566666667e+24
2.458333333e+24
2.508333333e+24
2.51e+24
2.528333333e+24
2.531666667e+24
2.575e+24
1.093300077e+24
1.332407923e+24
1.259851069e+24
1.205433418e+24
1.223572623e+24
1.216976556e+24
1.200486359e+24
1.157611834e+24
1.213678516e+24
1.329109897e+24
1.302725569e+24
1.259851069e+24
1.284586364e+24
1.271394194e+24
1.268096167e+24
1.302725581e+24
1.334056943e+24
1.306023621e+24
1.325811858e+24
1.347249101e+24
1.362090291e+24
1.37363343e+24
1.383527534e+24
1.49236285e+24
1.43134912e+24
1.4643295e+24
1.498958929e+24
1.497309909e+24
1.477521657e+24
1.347249114e+24
1.193354538e+24
1.57929733e+24
1.526008171e+24
1.556689817e+24
1.52277851e+24
1.45980041e+24
1.488867232e+24
1.559919449e+24
1.577682522e+24
1.609978992e+24
1.580912154e+24
1.532467465e+24
1.619667932e+24
1.566378743e+24
1.547000877e+24
1.645505108e+24
1.505015452e+24
1.635816167e+24
1.666497813e+24
1.62612721e+24
1.71655734e+24
1.640660637e+24
1.642275445e+24
1.737550045e+24
1.681031224e+24
1.787609555e+24
1.869965569e+24
1.905491685e+24
1.886113785e+24
1.62774205e+24
1.082099399e+24
1.509243884e+24
1.517153982e+24
1.517153982e+24
1.594672783e+24
1.496587765e+24
1.513989948e+24
1.523482034e+24
1.469693482e+24
1.593090781e+24
1.540884217e+24
1.434889115e+24
1.553540365e+24
1.5298101e+24
1.532974148e+24
1.570942548e+24
1.509243884e+24
1.634223215e+24
1.650043381e+24
1.485513634e+24
1.575688598e+24
1.645297331e+24
1.659535466e+24
1.495005748e+24
1.591508765e+24
1.681683699e+24
1.794006898e+24
1.748128414e+24
1.877853763e+24
1.493423732e+24
1.121023309e+24
1.477642052e+24
1.590829758e+24
1.524157555e+24
1.508652378e+24
1.389262634e+24
1.466788451e+24
1.431126562e+24
1.511753425e+24
1.451283288e+24
1.480743084e+24
1.463687418e+24
1.491596712e+24
1.392363654e+24
1.51795549e+24
1.524157555e+24
1.448182242e+24
1.527258588e+24
1.486945163e+24
1.438879144e+24
1.48849568e+24
1.576875111e+24
1.6342442e+24
1.662153509e+24
1.607885437e+24
1.579976129e+24
1.759836038e+24
1.81410411e+24
1.818755642e+24
1.561369947e+24
1.170589381e+24
1.463996836e+24
1.479199309e+24
1.459436111e+24
1.384944047e+24
1.442713406e+24
1.308931762e+24
1.41382872e+24
1.438152668e+24
1.467037341e+24
1.429031179e+24
1.340856927e+24
1.419909717e+24
1.30893175e+24
1.403187011e+24
1.394065535e+24
1.468557573e+24
1.366701108e+24
1.474638571e+24
1.375822571e+24
1.532407917e+24
1.462476603e+24
1.521766181e+24
1.559772344e+24
1.559772344e+24
1.587136756e+24
1.711796939e+24
1.734600628e+24
1.783248482e+24
1.520245949e+24
1.101948659e+24
1.440436259e+24
1.383773147e+24
1.422542653e+24
1.380790865e+24
1.368861798e+24
1.315180944e+24
1.352459303e+24
1.349477045e+24
1.374826338e+24
1.382282e+24
1.434471732e+24
1.35096818e+24
1.289831639e+24
1.377808608e+24
1.370352933e+24
1.406140157e+24
1.435962867e+24
1.416578114e+24
1.364388382e+24
1.425524923e+24
1.4031579e+24
1.413595831e+24
1.462803294e+24
1.541833442e+24
1.565691585e+24
1.574638409e+24
1.710331681e+24
1.787870677e+24
1.619372454e+24
1.030034867e+24
1.309490338e+24
1.299248526e+24
1.359236352e+24
1.344605163e+24
1.305100997e+24
1.24511317e+24
1.239260689e+24
1.250965641e+24
1.201219639e+24
1.226092629e+24
1.30949035e+24
1.294859173e+24
1.293396043e+24
1.357773234e+24
1.375330646e+24
1.347531398e+24
1.373867529e+24
1.410445472e+24
1.403129871e+24
1.425076649e+24
1.489453828e+24
1.417761048e+24
1.479212004e+24
1.452875885e+24
1.505548109e+24
1.615281951e+24
1.662101718e+24
1.745499411e+24
1.602113891e+24
9.205618817e+23
1.243692017e+24
1.213533214e+24
1.293956717e+24
1.220713873e+24
1.265234037e+24
1.173321462e+24
1.124492897e+24
1.270978573e+24
1.232202956e+24
1.181938256e+24
1.249436563e+24
1.282467645e+24
1.268106294e+24
1.319807128e+24
1.223586152e+24
1.296828974e+24
1.227894554e+24
1.262361769e+24
1.319807117e+24
1.289648315e+24
1.347093674e+24
1.301137376e+24
1.362891148e+24
1.378688622e+24
1.416028093e+24
1.480654134e+24
1.566822173e+24
1.710435557e+24
1.588364183e+24
9.151727673e+23
1.271935022e+24
1.106950111e+24
1.097079219e+24
1.13656278e+24
1.205659039e+24
1.139383045e+24
1.183096988e+24
1.13092228e+24
1.198608401e+24
1.15348431e+24
1.16476534e+24
1.271935033e+24
1.242322344e+24
1.274755288e+24
1.280395798e+24
1.28462617e+24
1.232451462e+24
1.302957838e+24
1.221170431e+24
1.270524905e+24
1.266294522e+24
1.28462617e+24
1.338211026e+24
1.310008476e+24
1.449611089e+24
1.445380719e+24
1.51306684e+24
1.696383405e+24
1.592033982e+24
8.185623106e+23
1.193909824e+24
1.044324843e+24
1.088646322e+24
1.081721082e+24
1.090031368e+24
1.073410813e+24
1.095571544e+24
1.098341645e+24
1.094186507e+24
1.142663115e+24
1.150973401e+24
1.15512854e+24
1.210530378e+24
1.1149622e+24
1.160668725e+24
1.191139731e+24
1.157898632e+24
1.22438085e+24
1.256236903e+24
1.247926636e+24
1.18421451e+24
1.207760286e+24
1.220225712e+24
1.319949039e+24
1.299173335e+24
1.364270518e+24
1.494464862e+24
1.531861097e+24
1.527705971e+24
)
;

boundaryField
{
    inlet
    {
        type            calculated;
        value           nonuniform List<scalar> 
20
(
3.65e+23
4.5e+23
2.25e+23
1.533333333e+23
9.5e+22
7e+22
4.666666667e+22
5.333333333e+22
3.166666667e+22
2.333333333e+22
2.666666667e+22
1.833333333e+22
1e+22
1.333333333e+22
5e+21
1e+22
1e+22
8.333333333e+21
6.666666667e+21
5e+21
)
;
    }
    outlet
    {
        type            calculated;
        value           nonuniform List<scalar> 
70
(
8.5e+23
1.076666667e+24
1.03e+24
1.061666667e+24
1.133333333e+24
1.223333333e+24
1.175e+24
1.175e+24
1.23e+24
1.298333333e+24
1.441666667e+24
1.543333333e+24
1.748333333e+24
1.948333333e+24
2.081666667e+24
2.245e+24
2.351666667e+24
2.451666667e+24
2.656666667e+24
2.575e+24
5e+21
2.666666667e+22
1.006666667e+24
3.956666667e+24
1.761666667e+24
1.018333333e+24
1.971666667e+24
2.511666667e+24
1.913333333e+24
1.775e+24
1.997478104e+24
2.064747109e+24
1.927463407e+24
2.038663219e+24
2.019443482e+24
1.975512709e+24
1.946683128e+24
1.946683112e+24
2.056510103e+24
1.879414106e+24
1.964529995e+24
1.990613918e+24
2.000223778e+24
1.990613901e+24
1.974139871e+24
2.005715127e+24
2.063374271e+24
2.008460801e+24
2.060628614e+24
2.11279641e+24
2.180065449e+24
2.137507496e+24
2.171828408e+24
2.280282564e+24
2.281655401e+24
2.343433055e+24
2.311857819e+24
2.446395863e+24
2.456005703e+24
2.531511768e+24
2.483333333e+24
2.476666667e+24
2.568333333e+24
2.566666667e+24
2.458333333e+24
2.508333333e+24
2.51e+24
2.528333333e+24
2.531666667e+24
2.575e+24
)
;
    }
    wall
    {
        type            calculated;
        value           uniform 7.916666667e-301;
    }
    frontAndBack
    {
        type            empty;
    }
}


// ************************************************************************* //
