/*--------------------------------*- C++ -*----------------------------------*\
| =========                 |                                                 |
| \\      /  F ield         | OpenFOAM: The Open Source CFD Toolbox           |
|  \\    /   O peration     | Version:  v1912                                 |
|   \\  /    A nd           | Website:  www.openfoam.com                      |
|    \\/     M anipulation  |                                                 |
\*---------------------------------------------------------------------------*/
FoamFile
{
    version     2.0;
    format      ascii;
    class       volVectorField;
    location    "8.16";
    object      grad(T);
}
// * * * * * * * * * * * * * * * * * * * * * * * * * * * * * * * * * * * * * //

dimensions      [0 -1 0 1 0 0 0];


internalField   nonuniform List<vector> 
1900
(
(1.49987 4.60735e-06 0)
(-1.57111 4.35551e-06 0)
(-0.535447 -1.05889e-05 0)
(-0.133451 -2.96776e-05 0)
(-0.00893361 -2.70036e-05 0)
(0.0463582 9.11884e-05 0)
(0.0823535 0.000361913 0)
(0.0793022 0.000146749 0)
(0.0493234 0.00155411 0)
(0.0503324 -0.00279117 0)
(1.49988 9.19901e-06 0)
(-1.57112 8.37568e-06 0)
(-0.535481 -2.01277e-05 0)
(-0.133468 -3.6143e-05 0)
(-0.00881275 -1.48024e-05 0)
(0.0467472 0.000171119 0)
(0.0824091 0.000399542 0)
(0.0804944 -0.000500533 0)
(0.0463855 -0.000186664 0)
(0.0142866 -0.0059556 0)
(1.49989 -6.83047e-13 0)
(-1.57114 -5.18249e-13 0)
(-0.535491 -5.43185e-13 0)
(-0.133446 -4.06576e-13 0)
(-0.00872635 -3.91397e-13 0)
(0.0467726 -2.1684e-13 0)
(0.0816819 1.13841e-13 0)
(0.078716 3.46945e-14 0)
(0.0438684 -2.49366e-14 0)
(0.00986921 -4.33681e-15 0)
(1.49988 -9.19901e-06 0)
(-1.57112 -8.37569e-06 0)
(-0.535481 2.01277e-05 0)
(-0.133468 3.6143e-05 0)
(-0.00881275 1.48024e-05 0)
(0.0467472 -0.000171119 0)
(0.0824091 -0.000399542 0)
(0.0804944 0.000500533 0)
(0.0463855 0.000186664 0)
(0.0142866 0.0059556 0)
(1.49987 -4.60735e-06 0)
(-1.57111 -4.35551e-06 0)
(-0.535447 1.05889e-05 0)
(-0.133451 2.96776e-05 0)
(-0.00893361 2.70036e-05 0)
(0.0463582 -9.11884e-05 0)
(0.0823535 -0.000361913 0)
(0.0793022 -0.000146749 0)
(0.0493234 -0.00155411 0)
(0.0503324 0.00279117 0)
(0.0093314 -0.0303 9.43369e-16)
(-0.0132226 -0.0226653 -1.13085e-15)
(0.0972791 -0.0339216 -1.436e-15)
(0.381949 -0.0628919 0)
(-0.519714 -0.321522 -6.46687e-15)
(-0.00659723 -0.0363145 9.37893e-16)
(0.00131914 -0.0256875 1.13085e-15)
(0.0812145 -0.0394636 1.436e-15)
(0.276436 -0.0622282 0)
(-0.451318 -0.350073 0)
(-0.0159916 -2.16055e-14 0)
(-0.00316843 -3.56645e-14 0)
(0.0720215 -4.81868e-14 0)
(0.245743 4.51751e-14 0)
(-0.584702 2.58143e-14 0)
(-0.00659723 0.0363145 9.37893e-16)
(0.00131914 0.0256875 1.13085e-15)
(0.0812145 0.0394636 1.436e-15)
(0.276436 0.0622282 0)
(-0.451318 0.350073 0)
(0.0093314 0.0303 -2.81916e-15)
(-0.0132226 0.0226653 -1.13085e-15)
(0.0972791 0.0339216 -1.436e-15)
(0.381949 0.0628919 -3.95672e-15)
(-0.519714 0.321522 6.46687e-15)
(-1.88154 0.454344 2.18652e-15)
(-0.963536 0.316848 -1.58082e-15)
(-0.591542 0.216531 0)
(-0.411183 0.196772 1.01277e-15)
(-0.309637 0.0760789 -4.2549e-16)
(-1.67764 0.453754 -1.1001e-15)
(-1.0048 0.209446 7.95181e-16)
(-0.610095 0.112666 0)
(-0.454528 0.126871 -6.37638e-16)
(-0.291158 -0.0466391 1.06594e-16)
(-1.73139 2.73788e-14 0)
(-1.0614 1.34367e-13 0)
(-0.621695 1.36529e-13 0)
(-0.487707 2.12589e-14 2.56583e-16)
(-0.27972 1.72775e-13 -2.13188e-16)
(-1.67764 -0.453754 -1.1001e-15)
(-1.0048 -0.209446 7.95181e-16)
(-0.610095 -0.112666 0)
(-0.454528 -0.126871 -6.37638e-16)
(-0.291158 0.0466391 1.06594e-16)
(-1.88154 -0.454344 1.1001e-15)
(-0.963536 -0.316848 -9.54241e-18)
(-0.591542 -0.216531 0)
(-0.411183 -0.196772 5.92612e-18)
(-0.309637 -0.0760789 4.2549e-16)
(-0.208244 0.808517 0)
(-0.103238 0.944262 0)
(-0.0560619 0.975419 0)
(-0.0388412 0.908034 0)
(-0.0387086 0.804269 0)
(-0.0453928 0.679187 0)
(-0.0740973 0.583657 0)
(-0.083251 0.480582 0)
(-0.0262299 0.388921 0)
(0.113607 0.372276 0)
(0.344103 0.367616 0)
(0.361251 0.378253 0)
(0.171931 0.299805 0)
(0.0850666 0.200093 0)
(0.0564736 0.0851481 0)
(0.0132241 0.0256629 0)
(-0.056 0.0209207 0)
(-0.146868 0.0313524 0)
(-0.19873 0.0288128 0)
(-0.176008 0.0138324 0)
(-0.159256 0.00336746 0)
(-0.213965 0.00613841 0)
(-0.316694 0.0129982 0)
(-0.311427 0.0134543 0)
(-0.154544 0.00322555 0)
(-0.0379031 -0.000116982 0)
(-0.0171631 -0.0001777 0)
(-0.0140755 -0.000211859 0)
(0.00113041 -0.000279032 0)
(0.115129 -0.000387392 0)
(0.292242 4.65991e-05 0)
(0.277833 -2.28804e-05 0)
(0.136475 -0.000300231 0)
(0.0864544 -0.0003931 0)
(0.100161 -0.000568257 0)
(0.109507 -0.000474249 0)
(0.0824877 -0.000455287 0)
(0.0360368 -0.00114053 0)
(-0.00198577 -0.00158677 0)
(-0.00865359 -0.00195228 0)
(-0.0841277 0.244318 0)
(-0.0177455 0.514122 0)
(-0.044322 0.655984 0)
(-0.0696536 0.672276 0)
(-0.085505 0.61509 0)
(-0.0875276 0.501761 0)
(-0.105414 0.414785 0)
(-0.111447 0.335646 0)
(-0.0432819 0.265424 0)
(0.115548 0.25059 0)
(0.349907 0.254795 0)
(0.349095 0.258305 0)
(0.146262 0.210639 0)
(0.05694 0.145492 0)
(0.0324565 0.0795315 0)
(0.0024781 0.0330221 0)
(-0.0577648 0.020452 0)
(-0.148656 0.023728 0)
(-0.202578 0.0574739 0)
(-0.179328 0.046945 0)
(-0.159334 0.0277132 0)
(-0.212035 0.0113606 0)
(-0.31652 0.0074014 0)
(-0.313437 0.00394161 0)
(-0.156192 0.000926613 0)
(-0.0382241 -8.86474e-05 0)
(-0.0171614 -7.31395e-05 0)
(-0.0140848 -7.92874e-05 0)
(0.00111228 -0.000119314 0)
(0.115136 -0.000167677 0)
(0.292257 -4.22112e-05 0)
(0.277808 -7.71678e-05 0)
(0.136439 -0.000240676 0)
(0.0864025 -0.000318529 0)
(0.100125 -0.00049229 0)
(0.109496 -0.000482456 0)
(0.0824249 -0.000493641 0)
(0.0359428 -0.000721078 0)
(-0.00203885 -0.00107175 0)
(-0.00866357 -0.00136326 0)
(-0.0275516 3.35117e-14 0)
(0.0165189 1.853e-13 0)
(-0.0100534 -4.73106e-14 0)
(-0.0507375 -5.559e-13 0)
(-0.0883132 -7.13602e-13 0)
(-0.103663 -6.26866e-13 0)
(-0.122422 -4.51422e-13 0)
(-0.126701 -3.19347e-13 0)
(-0.0509734 -3.13433e-13 0)
(0.110515 -1.51788e-13 0)
(0.346348 -2.14869e-13 0)
(0.348406 1.853e-13 0)
(0.139113 2.06984e-13 0)
(0.0469263 1.57702e-13 0)
(0.0237549 1.10983e-12 0)
(-0.00396265 1.57702e-12 0)
(-0.0587038 4.41566e-13 0)
(-0.136098 -1.03689e-12 0)
(-0.191976 -8.23994e-13 0)
(-0.184666 -1.6539e-12 0)
(-0.169607 -1.88257e-12 0)
(-0.219873 -5.51957e-14 0)
(-0.318852 4.37623e-13 0)
(-0.313311 8.87075e-14 0)
(-0.155716 -2.75979e-13 0)
(-0.038194 4.9479e-13 0)
(-0.0171604 -2.38524e-13 0)
(-0.014089 4.03126e-13 0)
(0.0011047 5.7167e-13 0)
(0.115151 1.48831e-13 0)
(0.292268 1.31287e-12 0)
(0.277775 -8.92988e-13 0)
(0.136405 -1.03886e-12 0)
(0.0863812 -3.27232e-13 0)
(0.100114 -2.10927e-13 0)
(0.109506 -7.0966e-14 0)
(0.0824183 -8.87075e-14 0)
(0.0358686 -4.77049e-13 0)
(-0.00217259 -4.59307e-13 0)
(-0.0087384 -4.35652e-13 0)
(-0.0841277 -0.244318 0)
(-0.0177455 -0.514122 0)
(-0.044322 -0.655984 0)
(-0.0696536 -0.672276 0)
(-0.085505 -0.61509 0)
(-0.0875276 -0.501761 0)
(-0.105414 -0.414785 0)
(-0.111447 -0.335646 0)
(-0.0432819 -0.265424 0)
(0.115548 -0.25059 0)
(0.349907 -0.254795 0)
(0.349095 -0.258305 0)
(0.146262 -0.210639 0)
(0.05694 -0.145492 0)
(0.0324565 -0.0795315 0)
(0.0024781 -0.0330221 0)
(-0.0577648 -0.020452 0)
(-0.148656 -0.023728 0)
(-0.202578 -0.0574739 0)
(-0.179328 -0.046945 0)
(-0.159334 -0.0277132 0)
(-0.212035 -0.0113606 0)
(-0.31652 -0.0074014 0)
(-0.313437 -0.00394161 0)
(-0.156192 -0.000926613 0)
(-0.0382241 8.86474e-05 0)
(-0.0171614 7.31395e-05 0)
(-0.0140848 7.92874e-05 0)
(0.00111228 0.000119314 0)
(0.115136 0.000167677 0)
(0.292257 4.22112e-05 0)
(0.277808 7.71678e-05 0)
(0.136439 0.000240676 0)
(0.0864025 0.000318529 0)
(0.100125 0.00049229 0)
(0.109496 0.000482456 0)
(0.0824249 0.000493641 0)
(0.0359428 0.000721078 0)
(-0.00203885 0.00107175 0)
(-0.00866357 0.00136326 0)
(-0.208244 -0.808517 0)
(-0.103238 -0.944262 0)
(-0.0560619 -0.975419 0)
(-0.0388412 -0.908034 0)
(-0.0387086 -0.804269 0)
(-0.0453928 -0.679187 0)
(-0.0740973 -0.583657 0)
(-0.083251 -0.480582 0)
(-0.0262299 -0.388921 0)
(0.113607 -0.372276 0)
(0.344103 -0.367616 0)
(0.361251 -0.378253 0)
(0.171931 -0.299805 0)
(0.0850666 -0.200093 0)
(0.0564736 -0.0851481 0)
(0.0132241 -0.0256629 0)
(-0.056 -0.0209207 0)
(-0.146868 -0.0313524 0)
(-0.19873 -0.0288128 0)
(-0.176008 -0.0138324 0)
(-0.159256 -0.00336746 0)
(-0.213965 -0.00613841 0)
(-0.316694 -0.0129982 0)
(-0.311427 -0.0134543 0)
(-0.154544 -0.00322555 0)
(-0.0379031 0.000116982 0)
(-0.0171631 0.0001777 0)
(-0.0140755 0.000211859 0)
(0.00113041 0.000279032 0)
(0.115129 0.000387392 0)
(0.292242 -4.65991e-05 0)
(0.277833 2.28804e-05 0)
(0.136475 0.000300231 0)
(0.0864544 0.0003931 0)
(0.100161 0.000568257 0)
(0.109507 0.000474249 0)
(0.0824877 0.000455287 0)
(0.0360368 0.00114053 0)
(-0.00198577 0.00158677 0)
(-0.00865359 0.00195228 0)
(-0.0137218 -0.79467 0)
(-0.023587 -0.703154 0)
(-0.0080228 -0.658745 0)
(0.00207727 -0.624213 0)
(0.00393613 -0.589111 0)
(0.00213787 -0.544337 0)
(-0.0170436 -0.494297 0)
(-0.0218968 -0.417545 0)
(0.00493884 -0.348907 0)
(0.131156 -0.319485 0)
(0.352869 -0.26145 0)
(0.377577 -0.304623 0)
(0.228336 -0.256011 0)
(0.159067 -0.187605 0)
(0.114102 -0.097488 0)
(0.0303411 -0.0479074 0)
(-0.0633743 -0.0468671 0)
(-0.155674 -0.0549882 0)
(-0.196036 -0.0474421 0)
(-0.167205 -0.0283569 0)
(-0.154598 -0.0187599 0)
(-0.215846 -0.0189706 0)
(-0.320908 -0.0248892 0)
(-0.309631 -0.0226269 0)
(-0.149584 -0.00509566 0)
(-0.0364605 0.000154902 0)
(-0.0171 0.000317693 0)
(-0.014032 0.000420414 0)
(0.00120142 0.000512106 0)
(0.11494 0.00070931 0)
(0.292046 -0.000305762 0)
(0.277997 -0.000147772 0)
(0.136629 0.000455556 0)
(0.0865107 0.000648228 0)
(0.100133 0.000768349 0)
(0.109413 0.000628894 0)
(0.0827703 0.000356212 0)
(0.0365439 0.000910761 0)
(-0.00159103 0.00132891 0)
(-0.00844582 0.00186726 0)
(-0.00745637 -0.23906 0)
(-0.014968 -0.216377 0)
(-0.00575159 -0.200049 0)
(0.00631894 -0.201869 0)
(0.0153954 -0.202611 0)
(0.0204862 -0.208942 0)
(0.0174903 -0.208722 0)
(0.0239521 -0.186512 0)
(0.0515507 -0.165217 0)
(0.188474 -0.134277 0)
(0.353725 -0.0940463 0)
(0.357738 -0.163534 0)
(0.254447 -0.159271 0)
(0.198144 -0.135632 0)
(0.16019 -0.0971599 0)
(0.0528255 -0.0839946 0)
(-0.058869 -0.0899954 0)
(-0.1427 -0.0919521 0)
(-0.174512 -0.069456 0)
(-0.153089 -0.0428429 0)
(-0.152708 -0.0359349 0)
(-0.218862 -0.0413086 0)
(-0.317957 -0.0482741 0)
(-0.293317 -0.0350678 0)
(-0.13525 -0.00650131 0)
(-0.0334602 0.000390084 0)
(-0.016941 0.000569751 0)
(-0.0139116 0.000734654 0)
(0.00137073 0.000844031 0)
(0.114442 0.00117412 0)
(0.291521 -0.000410255 0)
(0.278479 -0.000249696 0)
(0.13716 0.000694155 0)
(0.0867256 0.00108308 0)
(0.100158 0.00130593 0)
(0.10916 0.00122416 0)
(0.0826078 0.000810385 0)
(0.0367022 0.00063181 0)
(-0.00127573 0.000898436 0)
(-0.00824623 0.00154347 0)
(0.00813624 -0.0100094 0)
(0.014005 -0.00251709 0)
(0.0059576 0.00565489 0)
(-0.000391443 0.00227256 0)
(-0.0028796 -0.0060832 0)
(-0.00375125 -0.0293779 0)
(0.00457058 -0.0413901 0)
(0.0200264 -0.0314677 0)
(0.0552746 -0.0184761 0)
(0.199738 0.00970398 0)
(0.324676 -0.00452268 0)
(0.314724 -0.0583128 0)
(0.255224 -0.0661172 0)
(0.21892 -0.0418624 0)
(0.163861 -0.0308467 0)
(0.0372451 -0.07082 0)
(-0.0710424 -0.0931166 0)
(-0.135881 -0.102251 0)
(-0.148713 -0.0777383 0)
(-0.134903 -0.0514175 0)
(-0.15312 -0.0467345 0)
(-0.227736 -0.0555906 0)
(-0.314894 -0.0642524 0)
(-0.269377 -0.0429632 0)
(-0.115415 -0.00689299 0)
(-0.0296465 0.000837025 0)
(-0.016768 0.000992508 0)
(-0.0137676 0.00117466 0)
(0.0016249 0.00133291 0)
(0.113732 0.00181566 0)
(0.290674 -4.18031e-05 0)
(0.279061 0.000137005 0)
(0.137914 0.0012555 0)
(0.0871002 0.00170213 0)
(0.100269 0.00200328 0)
(0.108935 0.00174277 0)
(0.0821995 0.00131461 0)
(0.0366287 0.000829701 0)
(-0.000712529 0.00112596 0)
(-0.00782425 0.00208164 0)
(-0.000236467 0.0111695 0)
(0.000126701 0.00194464 0)
(-0.0011361 -0.00611645 0)
(-0.00499231 -0.00826094 0)
(-0.0151042 -0.0106058 0)
(-0.0135368 -0.0186276 0)
(0.0154766 -0.0117132 0)
(0.0460329 0.00483622 0)
(0.0912252 0.0390584 0)
(0.20192 0.0909007 0)
(0.288181 0.0480541 0)
(0.298383 0.0258794 0)
(0.270299 0.00563496 0)
(0.232132 0.0211415 0)
(0.132285 -0.0118182 0)
(-0.00718005 -0.0738141 0)
(-0.0891575 -0.103069 0)
(-0.127881 -0.104541 0)
(-0.125527 -0.0786382 0)
(-0.123213 -0.0610534 0)
(-0.156729 -0.061772 0)
(-0.235743 -0.0714879 0)
(-0.305789 -0.0774816 0)
(-0.238043 -0.0449442 0)
(-0.0930427 -0.00568171 0)
(-0.0258615 0.00144191 0)
(-0.0166157 0.00154071 0)
(-0.0135835 0.00172211 0)
(0.00198842 0.00194008 0)
(0.113117 0.00253288 0)
(0.289904 0.00027333 0)
(0.279729 0.000216862 0)
(0.138668 0.00151589 0)
(0.0874462 0.00195156 0)
(0.100197 0.00224579 0)
(0.108497 0.00165099 0)
(0.0817279 0.00127174 0)
(0.0365204 0.000897367 0)
(-6.93158e-05 0.00129994 0)
(-0.0073253 0.00234418 0)
(-0.000753154 0.0252864 0)
(-0.00265236 0.0251386 0)
(-0.00387686 0.0226767 0)
(-0.00471751 0.021831 0)
(-0.0128693 0.0250901 0)
(-0.00481841 0.0400392 0)
(0.0271812 0.0617058 0)
(0.0689518 0.0753961 0)
(0.138209 0.100448 0)
(0.208407 0.129952 0)
(0.262019 0.114248 0)
(0.273847 0.0965369 0)
(0.250658 0.0613368 0)
(0.202101 0.0555675 0)
(0.0723588 -0.0410396 0)
(-0.0506875 -0.0924822 0)
(-0.100652 -0.113344 0)
(-0.112339 -0.100011 0)
(-0.106806 -0.0768483 0)
(-0.11865 -0.0691223 0)
(-0.163175 -0.0739296 0)
(-0.242875 -0.0850336 0)
(-0.289316 -0.0866891 0)
(-0.200188 -0.0411199 0)
(-0.070716 -0.00341016 0)
(-0.0226867 0.00207759 0)
(-0.016498 0.00211732 0)
(-0.0133828 0.00232496 0)
(0.00240619 0.00262021 0)
(0.112125 0.00329375 0)
(0.288442 0.00106981 0)
(0.280258 0.000711197 0)
(0.139585 0.00170708 0)
(0.0878036 0.00186484 0)
(0.0999794 0.00213806 0)
(0.107997 0.00139745 0)
(0.0814733 0.00106573 0)
(0.0366559 0.000791639 0)
(0.000681677 0.00121678 0)
(-0.00681798 0.00223484 0)
(-0.000378847 0.0469353 0)
(-0.00238811 0.0473215 0)
(-0.00432346 0.0484199 0)
(-0.00266667 0.0521456 0)
(0.00244199 0.062472 0)
(0.0217475 0.0882168 0)
(0.0495477 0.111675 0)
(0.0833661 0.133826 0)
(0.143798 0.145299 0)
(0.215219 0.145049 0)
(0.255981 0.148249 0)
(0.247396 0.11504 0)
(0.230819 0.102827 0)
(0.133478 0.022364 0)
(-0.010381 -0.0828687 0)
(-0.076855 -0.112567 0)
(-0.096413 -0.110943 0)
(-0.0927127 -0.0899557 0)
(-0.0957607 -0.076374 0)
(-0.1204 -0.0769187 0)
(-0.172062 -0.0844332 0)
(-0.248039 -0.0972654 0)
(-0.263472 -0.0899082 0)
(-0.157793 -0.0328914 0)
(-0.0514161 -0.0016286 0)
(-0.020535 0.00189424 0)
(-0.0163773 0.00186312 0)
(-0.0130989 0.0021213 0)
(0.00292197 0.00249591 0)
(0.111623 0.00316739 0)
(0.287415 0.000288109 0)
(0.280343 -0.000450819 0)
(0.13978 0.000552362 0)
(0.0878615 0.000574133 0)
(0.0997465 0.000897156 0)
(0.107463 0.00041764 0)
(0.0811441 0.000448648 0)
(0.0366659 0.000577958 0)
(0.00132141 0.00111376 0)
(-0.00634426 0.00206577 0)
(-0.00038098 0.0922113 0)
(-0.00122172 0.093194 0)
(0.000771803 0.0974396 0)
(0.00882355 0.106151 0)
(0.0218902 0.116923 0)
(0.0425952 0.130978 0)
(0.0711315 0.142436 0)
(0.101353 0.159713 0)
(0.149025 0.17841 0)
(0.21125 0.1917 0)
(0.233101 0.172046 0)
(0.230077 0.131963 0)
(0.161352 0.0659183 0)
(0.0231578 -0.0601497 0)
(-0.0576654 -0.106126 0)
(-0.0777413 -0.113961 0)
(-0.0788634 -0.097672 0)
(-0.0790264 -0.0821324 0)
(-0.0942433 -0.0800367 0)
(-0.126416 -0.085495 0)
(-0.182782 -0.0956867 0)
(-0.24815 -0.108329 0)
(-0.227282 -0.0842797 0)
(-0.115118 -0.0230626 0)
(-0.0371953 -0.00142621 0)
(-0.019322 0.000390098 0)
(-0.0162792 0.000345708 0)
(-0.012773 0.000705027 0)
(0.00341424 0.00120398 0)
(0.109998 0.00187893 0)
(0.284955 -0.00151179 0)
(0.280513 -0.00257185 0)
(0.140573 -0.000877751 0)
(0.0881358 -0.000364275 0)
(0.0998286 -0.000236678 0)
(0.107564 -0.000745408 0)
(0.0816278 -0.000408776 0)
(0.0372969 0.000347911 0)
(0.00211539 0.00118077 0)
(-0.00590058 0.00220849 0)
(0.000568154 0.1612 0)
(0.00265008 0.162314 0)
(0.00816202 0.163203 0)
(0.0161081 0.16516 0)
(0.0263664 0.170025 0)
(0.0463328 0.17926 0)
(0.077238 0.187824 0)
(0.118032 0.196579 0)
(0.174622 0.216083 0)
(0.209086 0.211753 0)
(0.198415 0.151249 0)
(0.145128 0.0793997 0)
(0.0456931 -0.0327116 0)
(-0.0323095 -0.100166 0)
(-0.0622354 -0.108803 0)
(-0.0687088 -0.0994203 0)
(-0.065742 -0.086216 0)
(-0.0757187 -0.0832033 0)
(-0.099001 -0.0880885 0)
(-0.135481 -0.09359 0)
(-0.194066 -0.105062 0)
(-0.237046 -0.111431 0)
(-0.181306 -0.0648976 0)
(-0.077952 -0.0108017 0)
(-0.0288162 0.00253586 0)
(-0.0188275 0.00381112 0)
(-0.0160738 0.0042123 0)
(-0.0122719 0.00503726 0)
(0.00405319 0.00582907 0)
(0.109006 0.00676554 0)
(0.283126 0.00442192 0)
(0.280954 0.00603953 0)
(0.141907 0.00970254 0)
(0.0884793 0.0105341 0)
(0.0993792 0.00964973 0)
(0.107297 0.00611199 0)
(0.0821977 0.00246668 0)
(0.0381977 0.00137391 0)
(0.00311432 0.00176193 0)
(-0.00535391 0.00269255 0)
(0.000692771 0.23353 0)
(0.000708423 0.226569 0)
(0.00351473 0.224263 0)
(0.0153975 0.224118 0)
(0.0354777 0.227119 0)
(0.0597477 0.230605 0)
(0.0878203 0.228536 0)
(0.128584 0.22905 0)
(0.163648 0.220952 0)
(0.148773 0.149836 0)
(0.10556 0.0638944 0)
(0.052806 -0.0151285 0)
(-0.0116839 -0.0903232 0)
(-0.0501662 -0.10745 0)
(-0.056947 -0.102932 0)
(-0.0559761 -0.0878038 0)
(-0.0632361 -0.0807406 0)
(-0.0808308 -0.081831 0)
(-0.104252 -0.0832431 0)
(-0.142773 -0.0868511 0)
(-0.199975 -0.0957251 0)
(-0.209447 -0.0862657 0)
(-0.130312 -0.0246998 0)
(-0.0501371 0.0154999 0)
(-0.0231139 0.0242137 0)
(-0.0177065 0.0266744 0)
(-0.0150976 0.0286863 0)
(-0.011215 0.0310749 0)
(0.00507967 0.0327134 0)
(0.108642 0.0351919 0)
(0.284256 0.0406902 0)
(0.285602 0.0528353 0)
(0.144904 0.056616 0)
(0.0880849 0.0502019 0)
(0.0955673 0.0395062 0)
(0.100643 0.0273485 0)
(0.077062 0.0182108 0)
(0.0366177 0.0101332 0)
(0.00338607 0.00532954 0)
(-0.00500381 0.00448535 0)
(-0.00613933 0.269206 0)
(-0.00627922 0.257709 0)
(0.00579969 0.25787 0)
(0.0188598 0.253557 0)
(0.0326176 0.240061 0)
(0.0476982 0.222153 0)
(0.0757395 0.210567 0)
(0.110723 0.195264 0)
(0.0982887 0.128483 0)
(0.0577403 0.0452357 0)
(0.0394493 -0.0176435 0)
(-0.003482 -0.083072 0)
(-0.0432716 -0.110601 0)
(-0.04446 -0.101233 0)
(-0.0433033 -0.0800338 0)
(-0.0473242 -0.0631335 0)
(-0.0599865 -0.0541365 0)
(-0.0781302 -0.0430031 0)
(-0.103839 -0.0264161 0)
(-0.147509 -0.0219014 0)
(-0.193502 -0.0216336 0)
(-0.168604 0.0298473 0)
(-0.0832408 0.103898 0)
(-0.0308172 0.135223 0)
(-0.018048 0.145669 0)
(-0.0145176 0.152553 0)
(-0.0118333 0.157877 0)
(-0.00839117 0.1632 0)
(0.00802042 0.166844 0)
(0.116693 0.174641 0)
(0.300128 0.202929 0)
(0.296301 0.209597 0)
(0.139369 0.18783 0)
(0.0719917 0.157239 0)
(0.0773569 0.124642 0)
(0.0867764 0.0885346 0)
(0.0656083 0.0561847 0)
(0.0257848 0.0318351 0)
(-0.00232811 0.0160082 0)
(-0.0061674 0.00848426 0)
(-0.0103863 0.248837 0)
(-0.0102151 0.249516 0)
(-0.000486172 0.228296 0)
(-0.00176457 0.203043 0)
(0.00521553 0.184429 0)
(0.031327 0.174469 0)
(0.0619093 0.15444 0)
(0.0494853 0.0904961 0)
(0.0190749 0.0121634 0)
(0.00795998 -0.0468456 0)
(-0.018082 -0.0803384 0)
(-0.0367708 -0.0981098 0)
(-0.0291845 -0.066873 0)
(-0.0207109 -0.0304828 0)
(-0.0202328 0.00227598 0)
(-0.0310206 0.032393 0)
(-0.0438377 0.0645471 0)
(-0.0541185 0.0966374 0)
(-0.0839179 0.11383 0)
(-0.138164 0.114608 0)
(-0.150108 0.135671 0)
(-0.08848 0.210579 0)
(-0.0287678 0.265936 0)
(-0.00988465 0.282137 0)
(-0.00641437 0.287768 0)
(-0.0059423 0.292002 0)
(-0.00483763 0.294823 0)
(-0.00257444 0.297446 0)
(0.0161045 0.301562 0)
(0.143415 0.310938 0)
(0.317941 0.331066 0)
(0.271051 0.293954 0)
(0.0944493 0.251318 0)
(0.0271948 0.217389 0)
(0.0293615 0.189402 0)
(0.0346749 0.155154 0)
(0.0224243 0.113938 0)
(-0.0020979 0.0757979 0)
(-0.0191157 0.0418209 0)
(-0.0122541 0.0198373 0)
(-0.00548525 0.188477 0)
(-0.0260733 0.194428 0)
(-0.0389839 0.173965 0)
(-0.0234128 0.157189 0)
(0.00508312 0.145308 0)
(0.0188 0.119612 0)
(-0.00518 0.0664666 0)
(-0.0263796 0.00713327 0)
(-0.0340588 -0.0186393 0)
(-0.0313978 -0.0239874 0)
(-0.00995069 -0.00584385 0)
(0.00949376 0.0492012 0)
(0.0218962 0.1066 0)
(0.0221744 0.150272 0)
(0.0172861 0.173995 0)
(0.0126825 0.187254 0)
(0.00192183 0.197047 0)
(-0.030639 0.192255 0)
(-0.0865212 0.161829 0)
(-0.126462 0.140547 0)
(-0.101021 0.179063 0)
(-0.0430756 0.231511 0)
(-0.0142848 0.246622 0)
(-0.00977979 0.245906 0)
(-0.00854161 0.242548 0)
(-0.00771843 0.240391 0)
(-0.00658719 0.238753 0)
(-0.00189726 0.237107 0)
(0.0210222 0.240072 0)
(0.145124 0.243461 0)
(0.283761 0.224201 0)
(0.219453 0.166631 0)
(0.0655893 0.147319 0)
(0.0123265 0.140774 0)
(0.0173845 0.140747 0)
(0.0140569 0.137442 0)
(-0.0108622 0.125385 0)
(-0.04371 0.108363 0)
(-0.0562537 0.0764363 0)
(-0.0273516 0.0428458 0)
(-0.00465178 0.125876 0)
(-0.0241989 0.123632 0)
(-0.0363702 0.136905 0)
(-0.0293795 0.153524 0)
(-0.030996 0.163265 0)
(-0.0446477 0.160875 0)
(-0.0464789 0.162008 0)
(-0.0325259 0.17894 0)
(-0.0109141 0.18691 0)
(0.0202902 0.215425 0)
(0.0524452 0.242037 0)
(0.0715846 0.256284 0)
(0.068211 0.251262 0)
(0.0442333 0.232104 0)
(0.0154045 0.206278 0)
(-0.00880765 0.174183 0)
(-0.0390186 0.130274 0)
(-0.0880549 0.0733882 0)
(-0.133746 0.0309496 0)
(-0.121557 0.0414881 0)
(-0.0624512 0.0928093 0)
(-0.0233778 0.119855 0)
(-0.0148968 0.122611 0)
(-0.0138106 0.120926 0)
(-0.0117284 0.119473 0)
(-0.00959912 0.119012 0)
(-0.00800248 0.118844 0)
(-0.00130301 0.118384 0)
(0.0222277 0.12021 0)
(0.12812 0.117725 0)
(0.243905 0.078054 0)
(0.196965 0.0364468 0)
(0.0695324 0.0376818 0)
(0.0208623 0.0426055 0)
(0.0261506 0.0493364 0)
(0.019871 0.0551028 0)
(-0.0055968 0.0600198 0)
(-0.0492664 0.0747939 0)
(-0.0822507 0.079788 0)
(-0.0446231 0.0682271 0)
(-0.00764795 0.0706166 0)
(-0.0154459 0.0857798 0)
(-0.0101786 0.127366 0)
(0.0019886 0.166245 0)
(0.0121665 0.209009 0)
(0.017589 0.26248 0)
(0.0122285 0.325076 0)
(-0.00238293 0.358178 0)
(0.00109915 0.358387 0)
(0.0217243 0.327506 0)
(0.0294223 0.276875 0)
(0.0183839 0.214026 0)
(-0.00140385 0.146005 0)
(-0.0211739 0.0885049 0)
(-0.0385293 0.04983 0)
(-0.0605582 0.016176 0)
(-0.0952075 -0.0235672 0)
(-0.126352 -0.0553527 0)
(-0.117261 -0.04022 0)
(-0.0668522 0.0194803 0)
(-0.0255044 0.0626053 0)
(-0.0143576 0.0743405 0)
(-0.0132524 0.0773043 0)
(-0.012804 0.0792712 0)
(-0.0103857 0.0815311 0)
(-0.0083238 0.0837533 0)
(-0.00719242 0.0855893 0)
(-0.000581463 0.0868215 0)
(0.0203872 0.0865433 0)
(0.104501 0.0820846 0)
(0.205438 0.0362614 0)
(0.180549 0.00487959 0)
(0.0715241 0.00973748 0)
(0.0235573 0.013337 0)
(0.0294273 0.00961921 0)
(0.0243518 0.00216438 0)
(0.00811295 -0.000503638 0)
(-0.0246606 0.0117932 0)
(-0.0625818 0.0399989 0)
(-0.0384921 0.0602205 0)
(0.00996006 0.0343437 0)
(0.0304864 0.0522754 0)
(0.0411687 0.089987 0)
(0.049295 0.118123 0)
(0.0617397 0.148096 0)
(0.0671989 0.181129 0)
(0.0457398 0.20693 0)
(-0.000426709 0.21552 0)
(-0.0404709 0.203069 0)
(-0.0582573 0.150311 0)
(-0.0569085 0.081494 0)
(-0.0545263 0.0267706 0)
(-0.0527457 -0.00712243 0)
(-0.0484447 -0.0260321 0)
(-0.0542944 -0.0418247 0)
(-0.0795359 -0.0584479 0)
(-0.107946 -0.0682092 0)
(-0.104102 -0.0418775 0)
(-0.0616337 0.0152102 0)
(-0.0224712 0.0641096 0)
(-0.00958591 0.0814691 0)
(-0.00921326 0.0868029 0)
(-0.0101455 0.0897907 0)
(-0.00973751 0.0927729 0)
(-0.00740927 0.095627 0)
(-0.00568848 0.0980469 0)
(-0.00504587 0.100119 0)
(-0.000383731 0.101637 0)
(0.017663 0.0994216 0)
(0.0796666 0.0943692 0)
(0.169507 0.0476708 0)
(0.171406 0.0164517 0)
(0.0776823 0.0222487 0)
(0.0207483 0.0279448 0)
(0.0153843 0.0133639 0)
(0.0101162 -0.00250102 0)
(0.0036819 -0.0124635 0)
(-0.0102367 -0.0164525 0)
(-0.0355844 0.00132254 0)
(-0.0251369 0.0267316 0)
(0.00963175 0.00657674 0)
(0.038174 0.00399953 0)
(0.0532745 0.0101606 0)
(0.0579849 0.0166092 0)
(0.0728816 0.0261051 0)
(0.0742827 0.037075 0)
(0.0453685 0.0408151 0)
(-0.00610311 0.0420408 0)
(-0.0617382 0.0312293 0)
(-0.0954297 0.00177967 0)
(-0.0896259 -0.0289534 0)
(-0.0670101 -0.0387151 0)
(-0.0522865 -0.0345188 0)
(-0.0546143 -0.033167 0)
(-0.0697663 -0.0432049 0)
(-0.0859832 -0.0485177 0)
(-0.0792397 -0.0232146 0)
(-0.0459656 0.0296486 0)
(-0.0151284 0.076024 0)
(-0.00300278 0.0947662 0)
(-0.00363625 0.0999266 0)
(-0.00633852 0.101685 0)
(-0.0074995 0.103191 0)
(-0.00717994 0.104986 0)
(-0.00530359 0.106579 0)
(-0.00399522 0.10771 0)
(-0.00373281 0.108954 0)
(-0.00125342 0.109761 0)
(0.0133837 0.107148 0)
(0.0546317 0.100062 0)
(0.130354 0.0596852 0)
(0.156051 0.0162045 0)
(0.0825993 0.0171024 0)
(0.0149956 0.0246648 0)
(8.86115e-05 0.00984603 0)
(-0.000536497 -0.000567191 0)
(-0.00533123 -0.00908559 0)
(-0.0113759 -0.0210096 0)
(-0.020968 -0.0226361 0)
(-0.014007 -0.00418847 0)
(0.00747656 -0.0256433 0)
(0.03394 -0.037392 0)
(0.0533198 -0.0415644 0)
(0.0646597 -0.0419426 0)
(0.0814613 -0.0329462 0)
(0.081374 -0.0296541 0)
(0.050525 -0.0297977 0)
(-0.00966391 -0.0276708 0)
(-0.0792679 -0.0320231 0)
(-0.116252 -0.0419469 0)
(-0.0959308 -0.042016 0)
(-0.0598893 -0.0327469 0)
(-0.0473994 -0.0282597 0)
(-0.0568149 -0.0293932 0)
(-0.0690868 -0.0256781 0)
(-0.0602726 -0.00336439 0)
(-0.0326224 0.0371621 0)
(-0.00847218 0.0701681 0)
(0.00111601 0.084467 0)
(0.000562213 0.0861289 0)
(-0.00291873 0.0852667 0)
(-0.0060676 0.0842057 0)
(-0.00696401 0.0835868 0)
(-0.0064728 0.0834708 0)
(-0.00478482 0.0836605 0)
(-0.00339973 0.0835525 0)
(-0.00306909 0.0840801 0)
(-0.00212442 0.0846261 0)
(0.0083166 0.0834721 0)
(0.0339301 0.0736742 0)
(0.088699 0.0463737 0)
(0.130372 -0.00492466 0)
(0.0858349 -0.0137939 0)
(0.0137558 0.00395868 0)
(-0.00893023 0.00143219 0)
(-0.00812697 -0.00662993 0)
(-0.0160171 -0.0175588 0)
(-0.0232944 -0.0184974 0)
(-0.0193749 -0.0236634 0)
(-0.00736015 -0.0401868 0)
(-0.00168978 -0.24433 0)
(0.0228319 -0.12624 0)
(0.0488894 -0.068635 0)
(0.0662897 -0.0753635 0)
(0.0847233 -0.0692199 0)
(0.0773167 -0.0723459 0)
(0.0472796 -0.0805742 0)
(-0.00824758 -0.0828457 0)
(-0.0754952 -0.0802609 0)
(-0.105059 -0.0658267 0)
(-0.0807605 -0.0394597 0)
(-0.053754 -0.0273083 0)
(-0.0490546 -0.0272047 0)
(-0.0521266 -0.0240419 0)
(-0.0446841 -0.00653439 0)
(-0.0254281 0.0217934 0)
(-0.00838114 0.0432112 0)
(-0.000380857 0.050993 0)
(0.000252103 0.0494568 0)
(-0.00223216 0.0460458 0)
(-0.00548954 0.0429816 0)
(-0.0079573 0.0410743 0)
(-0.0082077 0.040132 0)
(-0.00710887 0.0398403 0)
(-0.00522481 0.040155 0)
(-0.00359096 0.0400014 0)
(-0.00269831 0.0403669 0)
(-0.00183925 0.0409536 0)
(0.00282999 0.0413135 0)
(0.0188824 0.0332378 0)
(0.0546129 0.0145571 0)
(0.0980715 -0.0298674 0)
(0.0911596 -0.0579286 0)
(0.0296681 -0.0356824 0)
(-0.010115 -0.0158521 0)
(-0.0188369 -0.0151715 0)
(-0.0167671 -0.0256221 0)
(-0.0172585 -0.0187147 0)
(-0.0418687 -0.0753404 0)
(-0.0299296 -0.241784 0)
(0.121273 -0.701383 0)
(0.203246 -0.378487 0)
(0.102346 -0.0853455 0)
(0.0640962 -0.0679727 0)
(0.0843692 -0.0791841 0)
(0.0704326 -0.0929328 0)
(0.040407 -0.108657 0)
(-0.00936199 -0.121124 0)
(-0.0628678 -0.123791 0)
(-0.076934 -0.100137 0)
(-0.058813 -0.0696275 0)
(-0.0480799 -0.0544404 0)
(-0.0442518 -0.0448523 0)
(-0.0368963 -0.0298039 0)
(-0.0249182 -0.0100524 0)
(-0.0123359 0.00513245 0)
(-0.00448462 0.0109297 0)
(-0.00245375 0.00970872 0)
(-0.00365125 0.00585872 0)
(-0.0056775 0.00242622 0)
(-0.00770949 0.000174935 0)
(-0.00881363 -0.000470634 0)
(-0.00815309 8.89061e-05 0)
(-0.00645064 0.00129869 0)
(-0.00462956 0.00289524 0)
(-0.00319549 0.00396419 0)
(-0.00215153 0.00498302 0)
(-0.00121229 0.00595577 0)
(0.000881342 0.00684267 0)
(0.00814669 0.00421393 0)
(0.0278885 -0.0084739 0)
(0.0605218 -0.0393273 0)
(0.0802314 -0.0778264 0)
(0.0543023 -0.0733661 0)
(0.0108349 -0.0436251 0)
(-0.0175417 -0.0247474 0)
(-0.0194315 -0.0217959 0)
(-0.0712047 -0.0437064 0)
(-0.234333 -0.238192 0)
(-0.167751 -0.580875 0)
(0.309465 -0.475315 0)
(0.616468 -0.280021 0)
(0.348112 -0.0465 0)
(0.072227 -0.0249814 0)
(0.0606708 -0.0380623 0)
(0.0489154 -0.049574 0)
(0.0201131 -0.0603915 0)
(-0.0228313 -0.0706336 0)
(-0.0552705 -0.0743691 0)
(-0.052865 -0.0627496 0)
(-0.036726 -0.0493919 0)
(-0.0298797 -0.0398291 0)
(-0.0253141 -0.0305049 0)
(-0.0185921 -0.0201767 0)
(-0.0110181 -0.01151 0)
(-0.00520899 -0.00575209 0)
(-0.00397128 -0.00411419 0)
(-0.00526745 -0.00521938 0)
(-0.00676558 -0.00703407 0)
(-0.00770927 -0.00845123 0)
(-0.00828105 -0.0091425 0)
(-0.0080402 -0.00904437 0)
(-0.00650272 -0.0083399 0)
(-0.00440458 -0.00733172 0)
(-0.00265623 -0.00621663 0)
(-0.0015791 -0.00528393 0)
(-0.00077915 -0.00453925 0)
(-4.7223e-05 -0.00385976 0)
(0.00115149 -0.00333022 0)
(0.00412278 -0.00357942 0)
(0.012655 -0.00750598 0)
(0.031241 -0.0193878 0)
(0.0583586 -0.0378917 0)
(0.0626256 -0.042086 0)
(0.0367358 -0.0292542 0)
(0.00219855 -0.0152077 0)
(-0.0350368 -0.00876905 0)
(-0.225786 -0.0314018 0)
(-0.559504 -0.169183 0)
(-0.360152 -0.368844 0)
(0.309465 0.475315 0)
(0.616468 0.280021 0)
(0.348112 0.0465 0)
(0.072227 0.0249814 0)
(0.0606708 0.0380623 0)
(0.0489154 0.049574 0)
(0.0201131 0.0603915 0)
(-0.0228313 0.0706336 0)
(-0.0552705 0.0743691 0)
(-0.052865 0.0627496 0)
(-0.036726 0.0493919 0)
(-0.0298797 0.0398291 0)
(-0.0253141 0.0305049 0)
(-0.0185921 0.0201767 0)
(-0.0110181 0.01151 0)
(-0.00520899 0.00575209 0)
(-0.00397128 0.00411419 0)
(-0.00526745 0.00521938 0)
(-0.00676558 0.00703407 0)
(-0.00770927 0.00845123 0)
(-0.00828105 0.0091425 0)
(-0.0080402 0.00904437 0)
(-0.00650272 0.0083399 0)
(-0.00440458 0.00733172 0)
(-0.00265623 0.00621663 0)
(-0.0015791 0.00528393 0)
(-0.00077915 0.00453925 0)
(-4.7223e-05 0.00385976 0)
(0.00115149 0.00333022 0)
(0.00412278 0.00357942 0)
(0.012655 0.00750598 0)
(0.031241 0.0193878 0)
(0.0583586 0.0378917 0)
(0.0626256 0.042086 0)
(0.0367358 0.0292542 0)
(0.00219855 0.0152077 0)
(-0.0350368 0.00876905 0)
(-0.225786 0.0314018 0)
(-0.559504 0.169183 0)
(-0.360152 0.368844 0)
(0.121273 0.701383 0)
(0.203246 0.378487 0)
(0.102346 0.0853455 0)
(0.0640962 0.0679727 0)
(0.0843692 0.0791841 0)
(0.0704326 0.0929328 0)
(0.040407 0.108657 0)
(-0.00936199 0.121124 0)
(-0.0628678 0.123791 0)
(-0.076934 0.100137 0)
(-0.058813 0.0696275 0)
(-0.0480799 0.0544404 0)
(-0.0442518 0.0448523 0)
(-0.0368963 0.0298039 0)
(-0.0249182 0.0100524 0)
(-0.0123359 -0.00513245 0)
(-0.00448462 -0.0109297 0)
(-0.00245375 -0.00970872 0)
(-0.00365125 -0.00585872 0)