/*--------------------------------*- C++ -*----------------------------------*\
| =========                 |                                                 |
| \\      /  F ield         | OpenFOAM: The Open Source CFD Toolbox           |
|  \\    /   O peration     | Version:  v1912                                 |
|   \\  /    A nd           | Website:  www.openfoam.com                      |
|    \\/     M anipulation  |                                                 |
\*---------------------------------------------------------------------------*/
FoamFile
{
    version     2.0;
    format      ascii;
    class       volVectorField;
    location    "8.16";
    object      grad(p);
}
// * * * * * * * * * * * * * * * * * * * * * * * * * * * * * * * * * * * * * //

dimensions      [1 -2 -2 0 0 0 0];


internalField   nonuniform List<vector> 
1900
(
(22907.6 0.152617 0)
(-35963 0.0225258 0)
(-2667.32 -0.37674 0)
(-386.877 -0.888654 0)
(-142.534 -0.855262 0)
(78.6954 2.36 0)
(168.801 9.5155 0)
(78.8882 -2.64727 0)
(-18.2264 34.8458 0)
(846.682 -58.9415 0)
(22907.8 0.26806 0)
(-35963.6 0.0589451 0)
(-2668.23 -0.713807 0)
(-387.355 -1.08952 0)
(-139.286 -0.497094 0)
(89.0661 4.30272 0)
(163.794 8.99474 0)
(104.218 -24.2184 0)
(-74.5206 -13.1613 0)
(-256.435 -140.194 0)
(22908 -2.98428e-09 0)
(-35964 -4.61853e-10 0)
(-2668.46 -5.15143e-10 0)
(-386.66 3.55271e-11 0)
(-137.142 3.55271e-11 0)
(88.1872 1.77636e-10 0)
(140.28 -1.24345e-10 0)
(56.7322 7.10543e-11 0)
(-134.202 -7.10543e-11 0)
(-398.284 -1.77636e-11 0)
(22907.8 -0.26806 0)
(-35963.6 -0.0589451 0)
(-2668.23 0.713807 0)
(-387.355 1.08952 0)
(-139.286 0.497094 0)
(89.0661 -4.30272 0)
(163.794 -8.99474 0)
(104.218 24.2184 0)
(-74.5206 13.1613 0)
(-256.435 140.194 0)
(22907.6 -0.152617 0)
(-35963 -0.0225258 0)
(-2667.32 0.37674 0)
(-386.877 0.888654 0)
(-142.534 0.855262 0)
(78.6954 -2.36 0)
(168.801 -9.5155 0)
(78.8882 2.64727 0)
(-18.2264 -34.8458 0)
(846.682 58.9415 0)
(-128.64 -932.204 8.4709e-12)
(-1908.21 -724.93 -9.875e-12)
(-1748.6 -840.597 -1.23969e-11)
(338.004 -1154.57 0)
(-18670.8 -7833.12 -5.36577e-11)
(-688.021 -1113.93 8.30245e-12)
(-1272.14 -852.741 9.875e-12)
(-1660.64 -908.383 1.23969e-11)
(-2194.08 -817.384 0)
(-17655.8 -7174.53 0)
(-1041.27 -8.3669e-10 0)
(-1332.6 -4.0903e-10 0)
(-1597.93 -1.57898e-09 0)
(-2295.2 4.03717e-10 0)
(-20443.6 -1.42743e-09 0)
(-688.021 1113.93 8.30245e-12)
(-1272.14 852.741 9.875e-12)
(-1660.64 908.383 1.23969e-11)
(-2194.08 817.384 0)
(-17655.8 7174.53 0)
(-128.64 932.204 -2.50758e-11)
(-1908.21 724.93 -9.875e-12)
(-1748.6 840.597 -1.23969e-11)
(338.004 1154.57 -3.32761e-11)
(-18670.8 7833.12 5.36577e-11)
(-36498 10411.5 9.82864e-12)
(-10944.2 4045.22 -4.79651e-12)
(-4906.55 1863.39 0)
(-3120.05 1259.51 1.98568e-12)
(-1189.19 644.129 -6.61545e-13)
(-32600.5 12916.3 -5.0711e-12)
(-12842.2 3307.3 2.45917e-12)
(-5598.97 1079.47 0)
(-3482.52 763.909 -1.27051e-12)
(-1862.28 68.284 1.7075e-13)
(-33680.7 -3.5886e-10 0)
(-13962.2 -1.23358e-10 0)
(-5709.25 8.22387e-10 0)
(-3564.41 -8.70763e-11 5.17405e-13)
(-1854.54 9.08955e-10 -3.415e-13)
(-32600.5 -12916.3 -5.0711e-12)
(-12842.2 -3307.3 2.45917e-12)
(-5598.97 -1079.47 0)
(-3482.52 -763.909 -1.27051e-12)
(-1862.28 -68.284 1.7075e-13)
(-36498 -10411.5 5.0711e-12)
(-10944.2 -4045.22 -1.21829e-13)
(-4906.55 -1863.39 0)
(-3120.05 -1259.51 3.79322e-14)
(-1189.19 -644.129 6.61545e-13)
(258.517 -1196.95 0)
(-6.62664 -375.05 0)
(-169.085 500.182 0)
(-211.773 559.522 0)
(-280.684 433.54 0)
(-332.481 148.574 0)
(-476.009 -13.7715 0)
(-564.984 -160.791 0)
(-246.718 -140.267 0)
(511.897 -132.881 0)
(1996.62 -144.227 0)
(2030.07 -6.63975 0)
(548.659 20.6177 0)
(-89.9033 -79.0723 0)
(-154.696 -186.544 0)
(-82.8088 -164.888 0)
(-138.304 -55.3224 0)
(-331.465 89.0076 0)
(-620.387 116.38 0)
(-863.455 75.01 0)
(-1039.18 27.3918 0)
(-1252.97 40.713 0)
(-1383.57 58.6992 0)
(-1025.95 39.2281 0)
(-404.173 7.25413 0)
(-91.2781 -0.39736 0)
(-41.8195 -0.508924 0)
(-33.8556 -0.592518 0)
(0.756157 -0.748623 0)
(267.506 -1.03695 0)
(854.96 -0.184866 0)
(1026.08 -0.617343 0)
(651.197 -2.46975 0)
(424.827 -2.98193 0)
(404.065 -2.94585 0)
(406.091 -1.06164 0)
(401.073 1.19956 0)
(403.703 1.06615 0)
(359.658 2.54066 0)
(382.248 2.04435 0)
(-115.789 -880.38 0)
(264.804 -812.941 0)
(29.7778 59.7334 0)
(-249.336 306.475 0)
(-378.28 346.51 0)
(-412.692 132.435 0)
(-505.039 -7.33974 0)
(-549.456 -102.782 0)
(-227.807 -26.9253 0)
(530.272 -32.8829 0)
(2021.01 -31.8126 0)
(2033.1 -54.3456 0)
(541.267 27.61 0)
(-99.6771 -31.5705 0)
(-150.049 -16.3998 0)
(-60.8207 -11.4849 0)
(-107.694 26.6605 0)
(-328.04 133.309 0)
(-642.898 339.657 0)
(-879.131 290.484 0)
(-1036.13 163.918 0)
(-1242.96 58.1361 0)
(-1386.35 33.4933 0)
(-1035.56 12.9039 0)
(-409.107 2.20519 0)
(-92.0193 -0.257103 0)
(-41.8117 -0.205474 0)
(-33.8777 -0.22028 0)
(0.712142 -0.315024 0)
(267.509 -0.436163 0)
(854.945 -0.18681 0)
(1025.85 -0.408839 0)
(650.948 -1.51872 0)
(424.713 -1.87342 0)
(404.197 -2.05757 0)
(406.513 -1.09033 0)
(401.351 0.174313 0)
(404.082 0.0397978 0)
(360.23 0.297474 0)
(381.232 0.147402 0)
(-56.5834 -4.64275e-10 0)
(266.861 5.93465e-10 0)
(156.564 4.68312e-10 0)
(-128.347 -1.41301e-10 0)
(-331.314 -3.31048e-10 0)
(-435.419 -6.49985e-10 0)
(-544.436 -3.06825e-10 0)
(-570.681 1.27171e-10 0)
(-226.384 -4.8648e-10 0)
(510.475 -5.26851e-10 0)
(1990.38 -1.05976e-09 0)
(2047.36 4.92535e-10 0)
(555.284 3.46793e-09 0)
(-102.706 2.82199e-09 0)
(-148.853 1.32662e-08 0)
(-70.2822 1.47236e-08 0)
(-96.1827 5.78527e-09 0)
(-240.411 -3.8878e-09 0)
(-574.664 -4.66697e-09 0)
(-914.579 -8.28832e-09 0)
(-1106.77 -9.64481e-09 0)
(-1290.91 -2.31734e-09 0)
(-1396.73 -5.24833e-10 0)
(-1035.05 -1.15665e-09 0)
(-408.002 -1.46045e-09 0)
(-91.9794 1.01434e-09 0)
(-41.8088 -3.80504e-10 0)
(-33.8875 7.21645e-10 0)
(0.693354 9.19467e-10 0)
(267.543 3.1389e-10 0)
(854.968 3.149e-09 0)
(1025.7 -3.44573e-09 0)
(650.77 -4.62256e-09 0)
(424.67 -1.39686e-09 0)
(404.293 -1.16271e-09 0)
(406.74 -1.09004e-09 0)
(401.402 -1.09004e-09 0)
(403.739 -2.01859e-09 0)
(359.689 -1.49779e-09 0)
(382.118 -5.69242e-10 0)
(-115.789 880.38 0)
(264.804 812.941 0)
(29.7778 -59.7334 0)
(-249.336 -306.475 0)
(-378.28 -346.51 0)
(-412.692 -132.435 0)
(-505.039 7.33974 0)
(-549.456 102.782 0)
(-227.807 26.9253 0)
(530.272 32.8829 0)
(2021.01 31.8126 0)
(2033.1 54.3456 0)
(541.267 -27.61 0)
(-99.6771 31.5705 0)
(-150.049 16.3998 0)
(-60.8207 11.4849 0)
(-107.694 -26.6605 0)
(-328.04 -133.309 0)
(-642.898 -339.657 0)
(-879.131 -290.484 0)
(-1036.13 -163.918 0)
(-1242.96 -58.1361 0)
(-1386.35 -33.4933 0)
(-1035.56 -12.9039 0)
(-409.107 -2.20519 0)
(-92.0193 0.257103 0)
(-41.8117 0.205474 0)
(-33.8777 0.22028 0)
(0.712142 0.315024 0)
(267.509 0.436163 0)
(854.945 0.18681 0)
(1025.85 0.408839 0)
(650.948 1.51872 0)
(424.713 1.87342 0)
(404.197 2.05757 0)
(406.513 1.09033 0)
(401.351 -0.174313 0)
(404.082 -0.0397978 0)
(360.23 -0.297474 0)
(381.232 -0.147402 0)
(258.517 1196.95 0)
(-6.62664 375.05 0)
(-169.085 -500.182 0)
(-211.773 -559.522 0)
(-280.684 -433.54 0)
(-332.481 -148.574 0)
(-476.009 13.7715 0)
(-564.984 160.791 0)
(-246.718 140.267 0)
(511.897 132.881 0)
(1996.62 144.227 0)
(2030.07 6.63975 0)
(548.659 -20.6177 0)
(-89.9033 79.0723 0)
(-154.696 186.544 0)
(-82.8088 164.888 0)
(-138.304 55.3224 0)
(-331.465 -89.0076 0)
(-620.387 -116.38 0)
(-863.455 -75.01 0)
(-1039.18 -27.3918 0)
(-1252.97 -40.713 0)
(-1383.57 -58.6992 0)
(-1025.95 -39.2281 0)
(-404.173 -7.25413 0)
(-91.2781 0.39736 0)
(-41.8195 0.508924 0)
(-33.8556 0.592518 0)
(0.756157 0.748623 0)
(267.506 1.03695 0)
(854.96 0.184866 0)
(1026.08 0.617343 0)
(651.197 2.46975 0)
(424.827 2.98193 0)
(404.065 2.94585 0)
(406.091 1.06164 0)
(401.073 -1.19956 0)
(403.703 -1.06615 0)
(359.658 -2.54066 0)
(382.248 -2.04435 0)
(-502.154 533.697 0)
(-485.921 -82.7105 0)
(-326.519 -361.294 0)
(-250.966 -497.338 0)
(-233.348 -531.878 0)
(-224.849 -441.607 0)
(-344.548 -331.361 0)
(-452.154 -125.132 0)
(-223.447 54.2279 0)
(554.003 105.502 0)
(1970.02 375.895 0)
(1933.2 -50.7288 0)
(578.155 -139.894 0)
(18.9686 -148.237 0)
(-90.8465 -88.8557 0)
(-117.708 -39.7836 0)
(-231.563 -77.1266 0)
(-431.784 -154.259 0)
(-660.146 -199.748 0)
(-841.436 -183.986 0)
(-1011.08 -143.693 0)
(-1251.02 -116.055 0)
(-1388.63 -104.89 0)
(-1014.41 -63.6534 0)
(-389.956 -11.4102 0)
(-88.0067 0.538066 0)
(-41.6803 0.884657 0)
(-33.753 1.13079 0)
(0.940032 1.33853 0)
(267.158 1.88154 0)
(854.664 -0.180046 0)
(1027.02 0.500959 0)
(652.144 3.72787 0)
(424.88 4.94289 0)
(403.145 4.8748 0)
(404.4 2.66329 0)
(400.339 -1.17873 0)
(403.679 -2.85448 0)
(360.279 -4.0576 0)
(382.934 -1.54263 0)
(-566.977 -1.45061 0)
(-612.06 169.053 0)
(-484.214 230.77 0)
(-355.137 159.239 0)
(-252.364 97.5859 0)
(-196.972 0.239414 0)
(-241.536 -68.7922 0)
(-253.919 14.9933 0)
(-36.9492 138.582 0)
(799.288 250.706 0)
(1860.33 541.497 0)
(1584.98 -50.8899 0)
(438.879 -218.423 0)
(-99.1015 -344.329 0)
(-84.4243 -361.706 0)
(-52.7919 -314.528 0)
(-198.609 -331.666 0)
(-395.834 -334.687 0)
(-627.713 -305.391 0)
(-821.245 -270.224 0)
(-988.785 -247.904 0)
(-1216.61 -228.122 0)
(-1330.35 -193.646 0)
(-942.057 -96.6389 0)
(-349.94 -14.6783 0)
(-81.1846 1.11459 0)
(-41.323 1.49162 0)
(-33.4732 1.87869 0)
(1.38101 2.11969 0)
(266.229 3.01971 0)
(853.789 -0.208486 0)
(1029.35 0.311754 0)
(654.969 4.97823 0)
(425.904 7.37851 0)
(402.362 8.18046 0)
(401.164 6.45652 0)
(396.15 1.81488 0)
(400.941 -3.04188 0)
(360.589 -4.28789 0)
(387.276 -1.19927 0)
(-340.646 17.001 0)
(-262.145 148.487 0)
(-335.976 261.666 0)
(-379.308 275.232 0)
(-386.565 244.703 0)
(-385.177 101.553 0)
(-330.331 -5.38703 0)
(-252.321 110.292 0)
(3.69391 265.833 0)
(942.266 419.587 0)
(1679.39 415.532 0)
(1200.92 -135.066 0)
(295.386 -272.205 0)
(-119.104 -306.126 0)
(-62.1291 -190.951 0)
(-88.7615 -248.116 0)
(-250.989 -325.866 0)
(-406.464 -362.719 0)
(-598.027 -358.439 0)
(-786.04 -332.342 0)
(-970.511 -305.719 0)
(-1198.74 -288.824 0)
(-1261.93 -246.414 0)
(-841.949 -115.77 0)
(-295.757 -15.6932 0)
(-72.4247 2.18613 0)
(-40.944 2.49443 0)
(-33.1478 2.9097 0)
(2.03957 3.25497 0)
(264.915 4.5522 0)
(852.054 0.94122 0)
(1032.02 1.71887 0)
(658.954 7.4832 0)
(427.966 10.4834 0)
(402.256 12.0208 0)
(398.266 9.89407 0)
(391.186 5.6739 0)
(397.798 -0.645318 0)
(362.055 -1.4468 0)
(388.221 2.03995 0)
(-407.506 28.1781 0)
(-376.292 -40.1075 0)
(-362.078 -83.1589 0)
(-371.483 -80.9721 0)
(-419.728 -68.6194 0)
(-437.968 -119.94 0)
(-233.114 -86.2563 0)
(7.43934 88.6313 0)
(261.099 362.497 0)
(943.543 649.409 0)
(1325.85 339.93 0)
(922.248 -108.873 0)
(274.04 -342.547 0)
(-20.8016 -336.7 0)
(-28.5238 -195.942 0)
(-182.801 -308.218 0)
(-309.045 -365.578 0)
(-427.222 -395.563 0)
(-598.441 -411.534 0)
(-770.443 -403.628 0)
(-946.85 -375.895 0)
(-1159.47 -347.546 0)
(-1163.59 -281.4 0)
(-719.726 -118.01 0)
(-236.273 -12.9954 0)
(-63.6583 3.63661 0)
(-40.6257 3.8018 0)
(-32.7403 4.19615 0)
(2.96378 4.66908 0)
(263.999 6.26911 0)
(851.059 2.04564 0)
(1035.65 2.28046 0)
(663.415 8.58763 0)
(430.276 11.6161 0)
(401.795 13.5467 0)
(395.048 10.6329 0)
(385.994 6.96707 0)
(394.08 -0.155633 0)
(363.176 -1.06283 0)
(386.705 2.45113 0)
(-352.142 22.5561 0)
(-369.433 55.2663 0)
(-375.355 47.1574 0)
(-365.297 40.9337 0)
(-424.116 51.7758 0)
(-402.173 115.007 0)
(-129.343 279.715 0)
(180.114 354.876 0)
(544.08 458.209 0)
(920.52 542.723 0)
(948.683 245.083 0)
(543.26 -133.302 0)
(75.8435 -478.38 0)
(22.1703 -285.131 0)
(-34.6824 -319.823 0)
(-252.229 -409.863 0)
(-335.158 -420.29 0)
(-450.749 -442.289 0)
(-605.798 -458.783 0)
(-751.697 -445.7 0)
(-916.469 -412.561 0)
(-1107.68 -384.287 0)
(-1040.74 -295.054 0)
(-583.304 -105.298 0)
(-178.535 -7.75133 0)
(-56.2383 5.17127 0)
(-40.4048 5.18907 0)
(-32.312 5.62433 0)
(4.03714 6.2662 0)
(262.387 8.08517 0)
(848.211 4.35507 0)
(1038.32 4.40678 0)
(667.95 9.56162 0)
(432.744 11.2827 0)
(401.309 13.2575 0)
(391.926 10.1695 0)
(380.789 6.9946 0)
(390.061 -0.353663 0)
(364.566 -1.82725 0)
(386.883 1.79743 0)
(-332.514 1.77818 0)
(-352.585 12.4759 0)
(-375.889 20.4414 0)
(-367.032 39.6515 0)
(-348.348 95.9389 0)
(-218.318 250.673 0)
(-1.96767 400.036 0)
(179.443 431.158 0)
(442.115 385.923 0)
(738.167 213.097 0)
(674.406 -85.8381 0)
(225.093 -472.568 0)
(127.732 -447.031 0)
(131.99 -315.814 0)
(-148.72 -486.989 0)
(-279.614 -471.937 0)
(-340.292 -457.227 0)
(-464.315 -477.25 0)
(-601.728 -485.17 0)
(-725.901 -461.322 0)
(-887.67 -431.048 0)
(-1046.23 -407.491 0)
(-894.749 -285.075 0)
(-442.871 -82.755 0)
(-129.821 -3.71432 0)
(-51.1884 4.66746 0)
(-40.1891 4.54033 0)
(-31.7024 5.10478 0)
(5.33513 5.9436 0)
(262.157 7.78434 0)
(847.514 2.38059 0)
(1040.67 0.119297 0)
(670.041 4.44646 0)
(433.838 5.05316 0)
(400.722 7.20735 0)
(389.013 5.77146 0)
(375.853 4.60918 0)
(385.579 -0.838299 0)
(365.249 -2.26385 0)
(386.734 1.103 0)
(-338.406 -2.71039 0)
(-351.449 -0.716585 0)
(-349.168 21.8565 0)
(-292.545 79.1857 0)
(-220.768 148.069 0)
(-109.134 235.246 0)
(44.5778 258.201 0)
(166.515 244.508 0)
(333.949 217.365 0)
(465.913 82.3517 0)
(287.951 -292.559 0)
(195.201 -486.16 0)
(226.897 -343.876 0)
(-16.3351 -494.824 0)
(-185.128 -512.628 0)
(-223.549 -470.501 0)
(-340.278 -476.392 0)
(-477.675 -497.858 0)
(-590.449 -494.137 0)
(-699.543 -466.314 0)
(-864.595 -449.499 0)
(-967.014 -418.173 0)
(-727.813 -249.132 0)
(-312.175 -57.7553 0)
(-94.2911 -3.56218 0)
(-48.2838 0.851627 0)
(-39.9834 0.76433 0)
(-30.9598 1.62461 0)
(6.61927 2.79926 0)
(258.953 4.62363 0)
(840.824 -2.60058 0)
(1040.31 -7.74392 0)
(672.704 -1.97166 0)
(435.405 0.175569 0)
(402.001 1.26773 0)
(389.422 -0.178837 0)
(374.42 0.0614325 0)
(383.437 -1.9562 0)
(366.437 -2.20345 0)
(388.002 1.16168 0)
(-335.816 3.79819 0)
(-328.911 16.978 0)
(-298.892 28.9022 0)
(-245.41 56.6892 0)
(-197.963 92.0197 0)
(-112.191 145.94 0)
(6.95808 145.378 0)
(140.092 94.277 0)
(285.855 48.5002 0)
(246.786 -148.232 0)
(126.568 -420.156 0)
(175.642 -348.655 0)
(119.383 -392.732 0)
(-30.6256 -485.186 0)
(-125.281 -442.54 0)
(-244.696 -457.709 0)
(-366.654 -498.651 0)
(-481.414 -515.913 0)
(-571.331 -497.931 0)
(-682.887 -465.741 0)
(-841.279 -455.248 0)
(-853.151 -393.376 0)
(-547.437 -180.758 0)
(-206.231 -26.8859 0)
(-73.3453 6.37702 0)
(-47.0192 9.39597 0)
(-39.4443 10.2499 0)
(-29.7414 12.0979 0)
(8.2251 13.8835 0)
(256.954 16.5322 0)
(835.596 14.0216 0)
(1041.28 24.9988 0)
(677.672 46.2256 0)
(436.959 54.3207 0)
(400.38 53.632 0)
(387.851 38.2466 0)
(374.14 16.7863 0)
(383.396 3.78656 0)
(368.254 0.198815 0)
(387.737 1.89449 0)
(-318.385 19.1376 0)
(-327.258 2.82758 0)
(-310.901 10.078 0)
(-231.722 36.0935 0)
(-134.763 67.9818 0)
(-57.7162 89.3384 0)
(-5.20622 35.4557 0)
(73.1599 -33.6396 0)
(100.258 -131.298 0)
(14.299 -337.905 0)
(94.8167 -328.903 0)
(221.628 -250.444 0)
(95.3311 -385.057 0)
(-64.3319 -412.529 0)
(-158.65 -449.48 0)
(-277.619 -481.461 0)
(-396.366 -498.398 0)
(-476.982 -475.822 0)
(-542.102 -430.462 0)
(-658.412 -403.113 0)
(-794.861 -386.065 0)
(-702.506 -280.904 0)
(-374.65 -66.8826 0)
(-131.845 39.0684 0)
(-59.3286 59.5509 0)
(-44.5518 64.3329 0)
(-37.3797 68.0827 0)
(-27.4583 72.7916 0)
(10.8923 76.0676 0)
(259.086 83.3718 0)
(848.983 112.712 0)
(1071.34 199.825 0)
(700.96 258.919 0)
(442.542 252.173 0)
(386.511 212.995 0)
(353.916 158.344 0)
(341.213 110.225 0)
(367.453 56.7722 0)
(364.614 18.7551 0)
(385.985 5.63236 0)
(-314.65 17.9966 0)
(-337.642 -67.3365 0)
(-266.836 -59.3882 0)
(-189.611 -50.5982 0)
(-146.654 -94.3827 0)
(-143.535 -164.325 0)
(-111.548 -191.055 0)
(-20.5978 -160.682 0)
(-7.34675 -211.86 0)
(56.3667 -215.305 0)
(210.848 -148.605 0)
(121.529 -282.049 0)
(-36.8073 -398.246 0)
(-92.7058 -413.645 0)
(-191.707 -412.94 0)
(-291.835 -393.078 0)
(-361.22 -336.911 0)
(-415.949 -245.559 0)
(-501.266 -144.574 0)
(-640.104 -121.018 0)
(-723.514 -112.566 0)
(-545.575 79.7111 0)
(-239.1 289.71 0)
(-84.3956 365.739 0)
(-48.9995 388.052 0)
(-38.7977 401.756 0)
(-31.2932 411.657 0)
(-22.0469 422.262 0)
(18.4206 429.917 0)
(292.266 459.928 0)
(947.815 634.022 0)
(1182.17 889.208 0)
(728.116 944.291 0)
(392.705 850.75 0)
(309.963 704.705 0)
(288.818 521.931 0)
(276.262 342.212 0)
(295.252 190.031 0)
(318.973 78.8211 0)
(364.237 11.9989 0)
(-365.931 -73.6706 0)
(-401.828 -133.345 0)
(-294.771 -195.948 0)
(-265.444 -228.746 0)
(-244.354 -220.607 0)
(-150.873 -137.779 0)
(-1.69579 -47.0877 0)
(53.1113 -70.4945 0)
(47.6212 -124.02 0)
(75.2543 -148.97 0)
(30.5 -217.86 0)
(-18.9359 -309.708 0)
(-31.4795 -228.393 0)
(-78.4912 -138.178 0)
(-138.831 -31.8837 0)
(-204.355 114.973 0)
(-254.211 299.957 0)
(-291.639 464.721 0)
(-422.09 513.786 0)
(-627.567 470.213 0)
(-601.431 517.155 0)
(-314.858 742.364 0)
(-99.023 890.012 0)
(-37.0786 925.879 0)
(-24.6218 933.544 0)
(-21.8056 938.83 0)
(-17.6189 940.053 0)
(-9.86206 942.826 0)
(47.1887 954.735 0)
(455.77 1009.59 0)
(1262.65 1280.89 0)
(1370.33 1478.39 0)
(663.901 1434.14 0)
(211.669 1298.01 0)
(69.6494 1169.72 0)
(4.6047 993.367 0)
(21.3825 735.207 0)
(113.64 472.647 0)
(193.056 238.019 0)
(298.467 37.2497 0)
(-514.138 -67.464 0)
(-455.473 55.433 0)
(-358.768 87.4458 0)
(-213.373 149.195 0)
(-58.9952 231.071 0)
(23.6751 261.337 0)
(-46.7099 185.558 0)
(-94.7327 73.2462 0)
(-82.9687 31.3334 0)
(-34.0608 44.0579 0)
(55.955 152.395 0)
(111.379 381.484 0)
(128.485 619.728 0)
(96.6576 823.919 0)
(52.2393 966.546 0)
(27.9382 1060.45 0)
(-24.1902 1107.52 0)
(-209.895 1037.16 0)
(-495.975 817.727 0)
(-636.858 665.105 0)
(-461.26 797.461 0)
(-186.277 967.268 0)
(-62.2576 1006.47 0)
(-42.4462 996.369 0)
(-36.5194 977.71 0)
(-32.5251 965.245 0)
(-27.4428 954.098 0)
(-7.89951 945.156 0)
(82.7586 958.632 0)
(606.565 1002.01 0)
(1399.57 1127.31 0)
(1329.84 1080.88 0)
(554.296 1018.1 0)
(137.9 971.585 0)
(16.3993 985.887 0)
(-129.892 995.312 0)
(-225.523 905.059 0)
(-183.856 714.164 0)
(-100.591 440.069 0)
(98.9779 102.274 0)
(-377.524 205.02 0)
(-252.552 411.349 0)
(-204.418 648.394 0)
(-127.041 841.518 0)
(-136.29 987.651 0)
(-194.731 1068.01 0)
(-182.947 1169.64 0)
(-95.5055 1292.04 0)
(19.4943 1337.48 0)
(191.913 1441.21 0)
(355.656 1550.49 0)
(431.403 1598.62 0)
(394.867 1555.49 0)
(255.715 1442.13 0)
(89.104 1289.92 0)
(-68.5062 1096.86 0)
(-276.664 820.263 0)
(-570.895 465.062 0)
(-780.61 221.101 0)
(-647.096 280.732 0)
(-310.257 510.226 0)
(-113.447 619.219 0)
(-70.9793 625.081 0)
(-64.7953 612.413 0)
(-54.6149 600.881 0)
(-44.5593 595.228 0)
(-36.9766 590.77 0)
(-5.49276 586.152 0)
(101.972 596.093 0)
(618.313 605.641 0)
(1338.66 528.222 0)
(1265.09 377.581 0)
(558.576 371.226 0)
(180.631 380.069 0)
(92.5128 431.588 0)
(-73.2848 512.188 0)
(-249.542 565.316 0)
(-334.442 557.487 0)
(-396.583 439.521 0)
(-224.154 158.537 0)
(79.8174 354.488 0)
(-28.2215 668.035 0)
(55.7583 1077.81 0)
(113.547 1414.42 0)
(159.265 1750.59 0)
(199.05 2117.46 0)
(169.171 2528.13 0)
(67.004 2707.91 0)
(60.772 2625.54 0)
(171.204 2323.78 0)
(207.644 1916.1 0)
(116.191 1477.17 0)
(-22.3118 1028.21 0)
(-159.253 653.622 0)
(-280.481 390.403 0)
(-424.639 151.56 0)
(-633.011 -120.296 0)
(-787.27 -298.377 0)
(-673.602 -179.799 0)
(-358.246 145.989 0)
(-135.082 353.166 0)
(-75.5988 402.978 0)
(-68.8155 409.293 0)
(-65.766 410.906 0)
(-53.08 415.088 0)
(-42.2686 420.934 0)
(-36.1882 426.141 0)
(-2.77071 429.25 0)
(101.538 428.341 0)
(541.163 419.725 0)
(1179.8 235.67 0)
(1178.55 75.3366 0)
(556.693 103.287 0)
(196.066 126.286 0)
(143.714 133.076 0)
(-1.0259 144.451 0)
(-181.871 172.711 0)
(-305.078 195.44 0)
(-485.034 186.381 0)
(-477.332 89.3334 0)
(607.816 281.407 0)
(444.47 579.82 0)
(514.828 927.754 0)
(521.276 1181.44 0)
(541.182 1414.94 0)
(554.528 1639.48 0)
(386.034 1820.2 0)
(-1.63396 1854.98 0)
(-350.673 1693.22 0)
(-491.734 1227.48 0)
(-460.164 652.333 0)
(-424.2 227.786 0)
(-398.734 -28.946 0)
(-358.895 -174.919 0)
(-394.701 -295.802 0)
(-560.634 -421.52 0)
(-710.239 -477.864 0)
(-628.235 -302.809 0)
(-352.403 27.9805 0)
(-133.512 276.362 0)
(-62.6128 357.327 0)
(-59.3606 374.576 0)
(-63.3398 378.867 0)
(-59.2114 384.424 0)
(-44.9521 391.988 0)
(-33.9078 399.611 0)
(-28.9631 407.201 0)
(-3.37308 412.615 0)
(92.7936 401.2 0)
(432.648 383.738 0)
(1006.8 161.566 0)
(1137.52 -9.88845 0)
(607.674 46.4624 0)
(209.337 120.613 0)
(110.016 88.364 0)
(-35.0906 57.4761 0)
(-200.407 52.4464 0)
(-321.269 21.3662 0)
(-498.831 -15.498 0)
(-489.842 -6.60532 0)
(909.727 53.8482 0)
(594.622 133.88 0)
(635.499 208.767 0)
(583.014 246.148 0)
(600.648 295.484 0)
(589.581 370.171 0)
(376.839 402.478 0)
(-55.3616 400.997 0)
(-543.908 284.7 0)
(-831.835 5.95155 0)
(-755.7 -263.189 0)
(-540.314 -364.857 0)
(-410.372 -362.91 0)
(-416.405 -383.139 0)
(-518.115 -470.453 0)
(-600.081 -498.945 0)
(-518.617 -325.314 0)
(-299.82 -12.4943 0)
(-115.492 234.064 0)
(-40.8765 330.846 0)
(-40.4387 355.429 0)
(-54.8419 360.414 0)
(-59.3252 364.24 0)
(-53.1222 370.744 0)
(-38.445 377.901 0)
(-27.6081 383.976 0)
(-23.6572 390.69 0)
(-8.55332 394.857 0)
(73.7109 380.92 0)
(310.242 348.933 0)
(800.486 139.067 0)
(1067.63 -118.948 0)
(682.449 -115.629 0)
(236.444 -12.9512 0)
(82.8731 -43.9849 0)
(-35.6375 -45.1963 0)
(-216.668 -18.5402 0)
(-370.551 -48.5539 0)
(-511.988 -124.407 0)
(-456.032 -62.2493 0)
(788.718 -176.708 0)
(593.755 -272.257 0)
(623.014 -296.776 0)
(604.84 -332.405 0)
(660.694 -301.823 0)
(657.631 -294.198 0)
(415.739 -322.226 0)
(-115.129 -350.827 0)
(-731.352 -448.327 0)
(-1019.7 -557.558 0)
(-817.489 -542.797 0)
(-520.294 -475.909 0)
(-416.351 -454.505 0)
(-462.527 -473.25 0)
(-506.296 -442.754 0)
(-420.774 -277.38 0)
(-241.478 -13.6549 0)
(-89.1972 195.802 0)
(-21.5471 296.323 0)
(-16.5599 322.688 0)
(-34.1204 330.85 0)
(-50.8701 335.972 0)
(-53.3857 342.052 0)
(-46.047 349.038 0)
(-32.201 355.296 0)
(-21.5841 359.407 0)
(-18.4779 364.361 0)
(-12.7876 368.558 0)
(48.5398 361.836 0)
(199.59 308.958 0)
(555.929 160.433 0)
(892.085 -170.599 0)
(709.816 -290.554 0)
(278.376 -207.567 0)
(78.9439 -220.331 0)
(-10.5711 -236.618 0)
(-203.642 -223.779 0)
(-423.286 -150.723 0)
(-512.028 -152.512 0)
(-309.973 -129.936 0)
(477.088 -130.843 0)
(478.921 -682.048 0)
(577.538 -562.921 0)
(578.15 -639.455 0)
(637.466 -647.768 0)
(569.92 -742.36 0)
(322.269 -885.848 0)
(-176.877 -981.766 0)
(-743.123 -1002.98 0)
(-922.869 -855.566 0)
(-677.019 -607.017 0)
(-455.233 -461.429 0)
(-407.81 -402.262 0)
(-405.081 -326.078 0)
(-329.367 -175.615 0)
(-186.586 30.3719 0)
(-62.6413 197.307 0)
(-1.1137 283.077 0)
(6.7796 307.922 0)
(-7.60562 314.39 0)
(-27.6383 320.923 0)
(-44.0469 332.033 0)
(-46.7343 344.888 0)
(-40.3596 356.901 0)
(-28.4529 366.993 0)
(-18.8725 371.874 0)
(-14.8383 376.149 0)
(-10.987 380.568 0)
(16.2776 382.186 0)
(116.163 333.44 0)
(338.367 219.687 0)
(633.043 -79.211 0)
(646.825 -335.551 0)
(304.114 -342.72 0)
(54.8779 -345.84 0)
(-38.9597 -390.72 0)
(-133.896 -442.371 0)
(-301.876 -316.724 0)
(-491.956 -340.786 0)
(-183.856 -489.888 0)
(5.38665 8013.96 0)
(177.389 -617.199 0)
(664.058 -619.994 0)
(523.078 -745.236 0)
(561.532 -901.527 0)
(428.209 -1120.66 0)
(185.038 -1358.92 0)
(-227.999 -1504.8 0)
(-609.742 -1409.62 0)
(-638.138 -1040.65 0)
(-437.684 -688.506 0)
(-322.985 -488.027 0)
(-285.922 -330.435 0)
(-244.122 -143.095 0)
(-162.808 54.9627 0)
(-61.4128 197.04 0)
(2.03754 262.517 0)
(17.3961 274.852 0)
(8.62737 269.752 0)
(-4.03213 269.111 0)
(-17.1187 276.7 0)
(-27.7768 294.237 0)
(-29.4221 316.627 0)
(-24.7457 337.801 0)
(-17.7722 355.906 0)
(-12.7608 367.013 0)
(-10.0998 375.502 0)
(-6.96967 382.323 0)
(3.12501 387.639 0)
(42.9995 368.471 0)
(158.284 274.791 0)
(357.037 44.0815 0)
(455.889 -310.067 0)
(268.461 -484.349 0)
(32.6897 -510.62 0)
(-103.593 -520.269 0)
(-132.337 -519.883 0)
(-325.395 -499.542 0)
(-678.896 -694.871 0)
(490.495 1300.56 0)
(7604.87 -8324.97 0)
(-7841.07 427.527 0)
(454.156 -372.09 0)
(306.855 -732.884 0)
(275.696 -1233.34 0)
(129.162 -1601.71 0)
(-47.9037 -1811.74 0)
(-225.739 -1744.02 0)
(-295.851 -1340.88 0)
(-227.975 -804.25 0)
(-144.492 -442.088 0)
(-110.182 -200.105 0)
(-75.4209 7.4254 0)
(-33.6974 174.874 0)
(-1.60131 295.728 0)
(13.4213 345.487 0)
(12.3409 345.531 0)
(5.85801 330.566 0)
(1.24768 321.399 0)
(-0.910212 320.318 0)
(-3.42582 326.528 0)
(-5.57144 341.638 0)
(-4.75441 361.135 0)
(-2.50884 377.104 0)
(-0.303686 389.418 0)
(0.0102626 395.862 0)
(-0.0850858 402.649 0)
(0.708761 406.431 0)
(2.92982 409.147 0)
(7.41826 400.148 0)
(25.7735 356.826 0)
(69.4528 209.145 0)
(137.61 -85.758 0)
(110.854 -406.75 0)
(20.2647 -479.386 0)
(-47.8858 -461.702 0)
(-113.923 -322.192 0)
(-470.5 -206.149 0)
(1242.68 503.737 0)
(-767.516 -791.212 0)
(7604.87 8324.97 0)
(-7841.07 -427.527 0)
(454.156 372.09 0)
(306.855 732.884 0)
(275.696 1233.34 0)
(129.162 1601.71 0)
(-47.9037 1811.74 0)
(-225.739 1744.02 0)
(-295.851 1340.88 0)
(-227.975 804.25 0)
(-144.492 442.088 0)
(-110.182 200.105 0)
(-75.4209 -7.4254 0)
(-33.6974 -174.874 0)
(-1.60131 -295.728 0)
(13.4213 -345.487 0)
(12.3409 -345.531 0)
(5.85801 -330.566 0)
(1.24768 -321.399 0)
(-0.910212 -320.318 0)
(-3.42582 -326.528 0)
(-5.57144 -341.638 0)
(-4.75441 -361.135 0)
(-2.50884 -377.104 0)
(-0.303686 -389.418 0)
(0.0102626 -395.862 0)
(-0.0850858 -402.649 0)
(0.708761 -406.431 0)
(2.92982 -409.147 0)
(7.41826 -400.148 0)
(25.7735 -356.826 0)
(69.4528 -209.145 0)
(137.61 85.758 0)
(110.854 406.75 0)
(20.2647 479.386 0)
(-47.8858 461.702 0)
(-113.923 322.192 0)
(-470.5 206.149 0)
(1242.68 -503.737 0)
(-767.516 791.212 0)
(5.38665 -8013.96 0)
(177.389 617.199 0)
(664.058 619.994 0)
(523.078 745.236 0)
(561.532 901.527 0)
(428.209 1120.66 0)
(185.038 1358.92 0)
(-227.999 1504.8 0)
(-609.742 1409.62 0)
(-638.138 1040.65 0)
(-437.684 688.506 0)
(-322.985 488.027 0)
(-285.922 330.435 0)
(-244.122 143.095 0)
(-162.808 -54.9627 0)
(-61.4128 -197.04 0)
(2.03754 -262.517 0)
(17.3961 -274.852 0)
(8.62737 -269.752 0)
(-4.03213 -269.111 0)
(-17.1187 -276.7 0)
(-27.7768 -294.237 0)
(-29.4221 -316.627 0)
(-24.7457 -337.801 0)
(-17.7722 -355.906 0)
(-12.7608 -367.013 0)
(-10.0998 -375.502 0)
(-6.96967 -382.323 0)
(3.12501 -387.639 0)
(42.9995 -368.471 0)
(158.284 -274.791 0)
(357.037 -44.0815 0)
(455.889 310.067 0)
(268.461 484.349 0)
(32.6897 510.62 0)
(-103.593 520.269 0)
(-132.337 519.883 0)
(-325.395 499.542 0)
(-678.896 694.871 0)
(490.495 -1300.56 0)
(477.088 130.843 0)
(478.921 682.048 0)
(577.538 562.921 0)
(578.15 639.455 0)
(637.466 647.768 0)
(569.92 742.36 0)
(322.269 885.848 0)
(-176.877 981.766 0)
(-743.123 1002.98 0)
(-922.869 855.566 0)
(-677.019 607.017 0)
(-455.233 461.429 0)
(-407.81 402.262 0)
(-405.081 326.078 0)
(-329.367 175.615 0)
(-186.586 -30.3719 0)
(-62.6413 -197.307 0)
(-1.1137 -283.077 0)
(6.7796 -307.922 0)
(-7.60562 -314.39 0)
(-27.6383 -320.923 0)
(-44.0469 -332.033 0)
(-46.7343 -344.888 0)
(-40.3596 -356.901 0)
(-28.4529 -366.993 0)
(-18.8725 -371.874 0)
(-14.8383 -376.149 0)
(-10.987 -380.568 0)
(16.2776 -382.186 0)
(116.163 -333.44 0)
(338.367 -219.687 0)
(633.043 79.211 0)
(646.825 335.551 0)
(304.114 342.72 0)
(54.8779 345.84 0)
(-38.9597 390.72 0)
(-133.896 442.371 0)
(-301.876 316.724 0)
(-491.956 340.786 0)
(-183.856 489.888 0)
(788.718 176.708 0)
(593.755 272.257 0)
(623.014 296.776 0)
(604.84 332.405 0)
(660.694 301.823 0)
(657.631 294.198 0)
(415.739 322.226 0)
(-115.129 350.827 0)
(-731.352 448.327 0)
(-1019.7 557.558 0)
(-817.489 542.797 0)
(-520.294 475.909 0)
(-416.351 454.505 0)
(-462.527 473.25 0)
(-506.296 442.754 0)
(-420.774 277.38 0)
(-241.478 13.6549 0)
(-89.1972 -195.802 0)
(-21.5471 -296.323 0)
(-16.5599 -322.688 0)
(-34.1204 -330.85 0)
(-50.8701 -335.972 0)
(-53.3857 -342.052 0)
(-46.047 -349.038 0)
(-32.201 -355.296 0)
(-21.5841 -359.407 0)
(-18.4779 -364.361 0)
(-12.7876 -368.558 0)
(48.5398 -361.836 0)
(199.59 -308.958 0)
(555.929 -160.433 0)
(892.085 170.599 0)
(709.816 290.554 0)
(278.376 207.567 0)
(78.9439 220.331 0)
(-10.5711 236.618 0)
(-203.642 223.779 0)
(-423.286 150.723 0)
(-512.028 152.512 0)
(-309.973 129.936 0)
(909.727 -53.8482 0)
(594.622 -133.88 0)
(635.499 -208.767 0)
(583.014 -246.148 0)
(600.648 -295.484 0)
(589.581 -370.171 0)
(376.839 -402.478 0)
(-55.3616 -400.997 0)
(-543.908 -284.7 0)
(-831.835 -5.95155 0)
(-755.7 263.189 0)
(-540.314 364.857 0)
(-410.372 362.91 0)
(-416.405 383.139 0)
(-518.115 470.453 0)
(-600.081 498.945 0)
(-518.617 325.314 0)
(-299.82 12.4943 0)
(-115.492 -234.064 0)
(-40.8765 -330.846 0)
(-40.4387 -355.429 0)
(-54.8419 -360.414 0)
(-59.3252 -364.24 0)
(-53.1222 -370.744 0)
(-38.445 -377.901 0)
(-27.6081 -383.976 0)
(-23.6572 -390.69 0)
(-8.55332 -394.857 0)
(73.7109 -380.92 0)
(310.242 -348.933 0)
(800.486 -139.067 0)
(1067.63 118.948 0)
(682.449 115.629 0)
(236.444 12.9512 0)
(82.8731 43.9849 0)
(-35.6375 45.1963 0)
(-216.668 18.5402 0)
(-370.551 48.5539 0)
(-511.988 124.407 0)
(-456.032 62.2493 0)
(607.816 -281.407 0)
(444.47 -579.82 0)
(514.828 -927.754 0)
(521.276 -1181.44 0)
(541.182 -1414.94 0)
(554.528 -1639.48 0)
(386.034 -1820.2 0)
(-1.63396 -1854.98 0)
(-350.673 -1693.22 0)
(-491.734 -1227.48 0)
(-460.164 -652.333 0)
(-424.2 -227.786 0)
(-398.734 28.946 0)
(-358.895 174.919 0)
(-394.701 295.802 0)
(-560.634 421.52 0)
(-710.239 477.864 0)
(-628.235 302.809 0)
(-352.403 -27.9805 0)
(-133.512 -276.362 0)
(-62.6128 -357.327 0)
(-59.3606 -374.576 0)
(-63.3398 -378.867 0)
(-59.2114 -384.424 0)
(-44.9521 -391.988 0)
(-33.9078 -399.611 0)
(-28.9631 -407.201 0)
(-3.37308 -412.615 0)
(92.7936 -401.2 0)
(432.648 -383.738 0)
(1006.8 -161.566 0)
(1137.52 9.88845 0)
(607.674 -46.4624 0)
(209.337 -120.613 0)
(110.016 -88.364 0)
(-35.0906 -57.4761 0)
(-200.407 -52.4464 0)
(-321.269 -21.3662 0)
(-498.831 15.498 0)
(-489.842 6.60532 0)
(79.8174 -354.488 0)
(-28.2215 -668.035 0)
(55.7583 -1077.81 0)
(113.547 -1414.42 0)
(159.265 -1750.59 0)
(199.05 -2117.46 0)
(169.171 -2528.13 0)
(67.004 -2707.91 0)
(60.772 -2625.54 0)
(171.204 -2323.78 0)
(207.644 -1916.1 0)
(116.191 -1477.17 0)
(-22.3118 -1028.21 0)
(-159.253 -653.622 0)
(-280.481 -390.403 0)
(-424.639 -151.56 0)
(-633.011 120.296 0)
(-787.27 298.377 0)
(-673.602 179.799 0)
(-358.246 -145.989 0)
(-135.082 -353.166 0)
(-75.5988 -402.978 0)
(-68.8155 -409.293 0)
(-65.766 -410.906 0)
(-53.08 -415.088 0)
(-42.2686 -420.934 0)
(-36.1882 -426.141 0)