/*--------------------------------*- C++ -*----------------------------------*\
| =========                 |                                                 |
| \\      /  F ield         | OpenFOAM: The Open Source CFD Toolbox           |
|  \\    /   O peration     | Version:  v1912                                 |
|   \\  /    A nd           | Website:  www.openfoam.com                      |
|    \\/     M anipulation  |                                                 |
\*---------------------------------------------------------------------------*/
FoamFile
{
    version     2.0;
    format      ascii;
    class       volVectorField;
    location    "8.16";
    object      grad(rho);
}
// * * * * * * * * * * * * * * * * * * * * * * * * * * * * * * * * * * * * * //

dimensions      [1 -4 0 0 0 0 0];


internalField   nonuniform List<vector> 
1900
(
(7016.45 0.105847 0)
(-24344.7 -0.0203986 0)
(2950.85 -0.416165 0)
(1211.41 -0.935227 0)
(-93.1624 -0.925037 0)
(-512.224 2.32087 0)
(-855.296 9.39271 0)
(-935.235 -5.87566 0)
(-673.476 31.0863 0)
(586.337 -50.4605 0)
(7016.53 0.170764 0)
(-24345.2 -0.0180888 0)
(2949.94 -0.787659 0)
(1210.9 -1.14994 0)
(-89.9063 -0.549904 0)
(-501.906 4.1648 0)
(-863.492 8.1041 0)
(-913.541 -29.3404 0)
(-718.061 -16.9755 0)
(-563.116 -128.975 0)
(7016.6 6.07514e-09 0)
(-24345.7 5.45342e-09 0)
(2949.72 6.35936e-09 0)
(1211.64 5.61329e-09 0)
(-87.8476 5.43565e-09 0)
(-503.57 3.25073e-09 0)
(-888.801 -1.7053e-09 0)
(-960.314 -3.90799e-10 0)
(-773.111 2.4869e-10 0)
(-714.893 3.55271e-11 0)
(7016.53 -0.170764 0)
(-24345.2 0.0180889 0)
(2949.94 0.787659 0)
(1210.9 1.14994 0)
(-89.9063 0.549904 0)
(-501.906 -4.1648 0)
(-863.492 -8.1041 0)
(-913.541 29.3404 0)
(-718.061 16.9755 0)
(-563.116 128.975 0)
(7016.45 -0.105847 0)
(-24344.7 0.0203986 0)
(2950.85 0.416165 0)
(1211.41 0.935227 0)
(-93.1624 0.925037 0)
(-512.224 -2.32087 0)
(-855.296 -9.39271 0)
(-935.235 5.87566 0)
(-673.476 -31.0863 0)
(586.337 50.4605 0)
(-310.519 -973.369 1.23466e-11)
(-2619.53 -775.637 -1.45336e-11)
(-3776.95 -804.157 -1.81996e-11)
(-4155.08 -914.397 0)
(-25702 -7348.7 -7.49667e-11)
(-931.709 -1163.06 1.21707e-11)
(-1888.04 -925.436 1.45336e-11)
(-3457.07 -833.799 1.81996e-11)
(-6506.39 -429.721 0)
(-23956 -6084.58 0)
(-1328.52 -9.49321e-10 0)
(-1921.18 -1.75298e-10 0)
(-3249.17 -1.80103e-09 0)
(-6298.71 0 0)
(-26198.5 -2.48478e-09 0)
(-931.709 1163.06 1.21707e-11)
(-1888.04 925.436 1.45336e-11)
(-3457.07 833.799 1.81996e-11)
(-6506.39 429.721 0)
(-23956 6084.58 0)
(-310.519 973.369 -3.66879e-11)
(-2619.53 775.637 -1.45336e-11)
(-3776.95 804.157 -1.81996e-11)
(-4155.08 914.397 -4.8354e-11)
(-25702 7348.7 7.49667e-11)
(-43040.9 14491.9 1.72218e-11)
(-15443.1 6252.29 -9.83754e-12)
(-7785.42 3048.47 0)
(-5679.52 2115.12 4.8617e-12)
(-1611.38 1356.65 -1.72514e-12)
(-38583.7 18807 -8.82912e-12)
(-17939 5453 5.01292e-12)
(-8793.85 1850.08 0)
(-6142.28 1258.1 -3.08785e-12)
(-3372.5 369.604 4.44282e-13)
(-40113.3 -8.07435e-10 0)
(-19770.8 -1.06278e-09 0)
(-9105.75 1.0691e-09 0)
(-6326.22 -3.04767e-10 1.25029e-12)
(-3456.94 1.61015e-09 -8.88563e-13)
(-38583.7 -18807 -8.82912e-12)
(-17939 -5453 5.01292e-12)
(-8793.85 -1850.08 0)
(-6142.28 -1258.1 -3.08785e-12)
(-3372.5 -369.604 4.44282e-13)
(-43040.9 -14491.9 8.82912e-12)
(-15443.1 -6252.29 -1.88299e-13)
(-7785.42 -3048.47 0)
(-5679.52 -2115.12 6.37006e-14)
(-1611.38 -1356.65 1.72514e-12)
(1668.06 -8112.49 0)
(506.401 -6346.5 0)
(-195.342 -3940.13 0)
(-422.382 -3299.09 0)
(-640.948 -2984.04 0)
(-781.263 -3070.69 0)
(-1118.45 -2979.9 0)
(-1404.93 -2804.56 0)
(-674.116 -2187.02 0)
(1096.99 -2079.96 0)
(4087.05 -2203.67 0)
(3680.27 -2190.33 0)
(444.407 -1657.54 0)
(-675.705 -1281.69 0)
(-663.843 -882.333 0)
(-264.066 -517.684 0)
(-52.213 -235.187 0)
(-68.3476 57.5703 0)
(-558.929 145.883 0)
(-1403.62 128.952 0)
(-2133.07 59.9849 0)
(-2767.87 91.6794 0)
(-3212.16 135.24 0)
(-2521.63 96.8357 0)
(-1059.37 19.1294 0)
(-255.977 -1.26911 0)
(-121.339 -1.56553 0)
(-98.8795 -1.83058 0)
(-0.0739236 -2.3008 0)
(712.992 -3.15412 0)
(2168.04 -0.838528 0)
(2493.65 -1.9599 0)
(1519.33 -6.4826 0)
(924.172 -7.38337 0)
(754.411 -6.22355 0)
(677.279 -0.926988 0)
(747.463 5.39855 0)
(943.316 8.25194 0)
(996.492 14.7722 0)
(1092.12 15.7912 0)
(56.8104 -3480.63 0)
(788.868 -4671.66 0)
(282.04 -3024.56 0)
(-361.492 -2419.38 0)
(-666.623 -1984.57 0)
(-787.658 -1986 0)
(-1033.91 -1926.97 0)
(-1201.45 -1776.98 0)
(-527.396 -1170.08 0)
(1127.14 -1129.62 0)
(4063.99 -1229.16 0)
(3698.95 -1543.93 0)
(573 -1085.96 0)
(-536.266 -845.51 0)
(-521.99 -439.622 0)
(-156.8 -189.821 0)
(30.0171 -37.4439 0)
(-49.8151 203.966 0)
(-593.379 560.62 0)
(-1425.98 529.396 0)
(-2121.47 319.411 0)
(-2743.19 118.927 0)
(-3215.88 77.1292 0)
(-2543.38 33.3751 0)
(-1071.7 5.96914 0)
(-257.962 -0.784107 0)
(-121.316 -0.628158 0)
(-98.9477 -0.679126 0)
(-0.202944 -0.962996 0)
(713.012 -1.3136 0)
(2168.04 -0.572915 0)
(2493.09 -1.06987 0)
(1518.77 -3.75798 0)
(924.124 -4.33239 0)
(755.025 -3.92663 0)
(678.586 -0.972668 0)
(748.568 2.71573 0)
(944.86 3.47896 0)
(998.426 6.104 0)
(1089.52 7.51568 0)
(-35.2689 -1.38879e-09 0)
(639.076 7.83212e-10 0)
(459.865 1.48568e-09 0)
(-119.84 2.2043e-09 0)
(-514.873 2.37386e-09 0)
(-764.508 9.76996e-10 0)
(-1057.64 1.09004e-09 0)
(-1184.74 1.72791e-09 0)
(-485.793 -2.82602e-10 0)
(1079.8 -1.04159e-09 0)
(3966.52 -2.18815e-09 0)
(3721.93 2.58379e-10 0)
(647.583 7.36381e-09 0)
(-487.678 5.92657e-09 0)
(-473.097 2.59833e-08 0)
(-147.068 2.70571e-08 0)
(62.3432 1.15625e-08 0)
(105.635 -4.18251e-09 0)
(-464.259 -7.55759e-09 0)
(-1473.79 -1.35326e-08 0)
(-2252.48 -1.76344e-08 0)
(-2838.35 -6.5483e-09 0)
(-3237.05 -3.39123e-09 0)
(-2542.33 -4.44493e-09 0)
(-1069.31 -4.9415e-09 0)
(-257.896 2.68472e-09 0)
(-121.309 -8.7203e-10 0)
(-98.9769 1.82884e-09 0)
(-0.258498 2.18815e-09 0)
(713.106 8.67993e-10 0)
(2168.11 7.81597e-09 0)
(2492.72 -8.11472e-09 0)
(1518.38 -1.01818e-08 0)
(924.123 -2.85025e-09 0)
(755.389 -2.51112e-09 0)
(679.211 -2.80987e-09 0)
(748.758 -2.63224e-09 0)
(944.302 -3.29433e-09 0)
(997.666 -1.80058e-09 0)
(1092.43 7.02468e-10 0)
(56.8104 3480.63 0)
(788.868 4671.66 0)
(282.04 3024.56 0)
(-361.492 2419.38 0)
(-666.623 1984.57 0)
(-787.658 1986 0)
(-1033.91 1926.97 0)
(-1201.45 1776.98 0)
(-527.396 1170.08 0)
(1127.14 1129.62 0)
(4063.99 1229.16 0)
(3698.95 1543.93 0)
(573 1085.96 0)
(-536.266 845.51 0)
(-521.99 439.622 0)
(-156.8 189.821 0)
(30.0171 37.4439 0)
(-49.8151 -203.966 0)
(-593.379 -560.62 0)
(-1425.98 -529.396 0)
(-2121.47 -319.411 0)
(-2743.19 -118.927 0)
(-3215.88 -77.1292 0)
(-2543.38 -33.3751 0)
(-1071.7 -5.96914 0)
(-257.962 0.784107 0)
(-121.316 0.628158 0)
(-98.9477 0.679126 0)
(-0.202944 0.962996 0)
(713.012 1.3136 0)
(2168.04 0.572915 0)
(2493.09 1.06987 0)
(1518.77 3.75798 0)
(924.124 4.33239 0)
(755.025 3.92663 0)
(678.586 0.972668 0)
(748.568 -2.71573 0)
(944.86 -3.47896 0)
(998.426 -6.104 0)
(1089.52 -7.51568 0)
(1668.06 8112.49 0)
(506.401 6346.5 0)
(-195.342 3940.13 0)
(-422.382 3299.09 0)
(-640.948 2984.04 0)
(-781.263 3070.69 0)
(-1118.45 2979.9 0)
(-1404.93 2804.56 0)
(-674.116 2187.02 0)
(1096.99 2079.96 0)
(4087.05 2203.67 0)
(3680.27 2190.33 0)
(444.407 1657.54 0)
(-675.705 1281.69 0)
(-663.843 882.333 0)
(-264.066 517.684 0)
(-52.213 235.187 0)
(-68.3476 -57.5703 0)
(-558.929 -145.883 0)
(-1403.62 -128.952 0)
(-2133.07 -59.9849 0)
(-2767.87 -91.6794 0)
(-3212.16 -135.24 0)
(-2521.63 -96.8357 0)
(-1059.37 -19.1294 0)
(-255.977 1.26911 0)
(-121.339 1.56553 0)
(-98.8795 1.83058 0)
(-0.0739236 2.3008 0)
(712.992 3.15412 0)
(2168.04 0.838528 0)
(2493.65 1.9599 0)
(1519.33 6.4826 0)
(924.172 7.38337 0)
(754.411 6.22355 0)
(677.279 0.926988 0)
(747.463 -5.39855 0)
(943.316 -8.25194 0)
(996.492 -14.7722 0)
(1092.12 -15.7912 0)
(-1622.3 7397.74 0)
(-1501.74 4749.84 0)
(-1077.55 3337.03 0)
(-890.817 2473.83 0)
(-839.579 1954.7 0)
(-797.653 1833.57 0)
(-1103.11 1765.95 0)
(-1463.52 1866.45 0)
(-812.268 1976.81 0)
(1172.44 1989.65 0)
(4106.56 2639.02 0)
(3377.97 1778.82 0)
(151.718 1194.99 0)
(-861.308 691.775 0)
(-837.21 289.578 0)
(-438.711 143.104 0)
(-235.746 47.1358 0)
(-267.422 -100.429 0)
(-677.988 -265.572 0)
(-1397.95 -349.125 0)
(-2084.68 -311.738 0)
(-2761.86 -257.257 0)
(-3223.42 -238.205 0)
(-2495.69 -156.196 0)
(-1024.42 -30.0929 0)
(-247.276 1.72837 0)
(-120.938 2.69603 0)
(-98.5653 3.44774 0)
(0.478101 4.07605 0)
(712.118 5.70323 0)
(2167.29 0.262451 0)
(2495.98 2.20229 0)
(1521.53 9.77335 0)
(923.906 12.25 0)
(751.684 11.0538 0)
(672.807 4.83012 0)
(744.088 -4.89233 0)
(940.765 -12.0784 0)
(995.933 -17.6367 0)
(1092.5 -13.9625 0)
(-2212.03 2311.64 0)
(-2329.82 2621.35 0)
(-1915.52 2609.58 0)
(-1503.25 2268.13 0)
(-1151.41 1952.57 0)
(-954.368 1549.63 0)
(-1094.98 1201.2 0)
(-1170.32 1275.2 0)
(-481.312 1514.79 0)
(1694.66 1721.54 0)
(3873.41 2411.93 0)
(2450.86 989.236 0)
(-446.157 446.84 0)
(-1448.67 -87.9142 0)
(-1099.6 -376.279 0)
(-404.041 -333.898 0)
(-188.475 -353.096 0)
(-262.934 -364.817 0)
(-734.739 -432.943 0)
(-1451.15 -514.728 0)
(-2070.49 -526.34 0)
(-2700.24 -494.543 0)
(-3108.74 -439.55 0)
(-2334.99 -239.261 0)
(-925.936 -39.0291 0)
(-229.046 3.38143 0)
(-119.898 4.44761 0)
(-97.7182 5.62403 0)
(1.80353 6.35935 0)
(709.786 9.0464 0)
(2165.07 0.476747 0)
(2501.56 1.95097 0)
(1527.83 12.6973 0)
(925.549 17.7828 0)
(748.724 18.4662 0)
(664.311 13.0463 0)
(732.98 1.3959 0)
(932.403 -11.2857 0)
(994.976 -16.135 0)
(1103.02 -11.3241 0)
(-1476.96 182.645 0)
(-1214.64 630.161 0)
(-1417.92 1010.66 0)
(-1523.93 1100.71 0)
(-1531.95 1049.78 0)
(-1521.7 653.751 0)
(-1367.56 293.376 0)
(-1161.33 670.208 0)
(-382.162 1176.87 0)
(2036.96 1531.86 0)
(3400.89 1458.58 0)
(1484.34 14.0229 0)
(-886.263 -318.818 0)
(-1654.5 -561.549 0)
(-1074.25 -315.645 0)
(-416.372 -250.795 0)
(-265.54 -338.656 0)
(-344.365 -400.377 0)
(-822.447 -547.251 0)
(-1487.95 -655.939 0)
(-2065.23 -652.79 0)
(-2678.23 -629.341 0)
(-2977.42 -567.858 0)
(-2109.74 -291.076 0)
(-790.599 -42.093 0)
(-205.381 6.42315 0)
(-118.777 7.32065 0)
(-96.723 8.60063 0)
(3.77602 9.65423 0)
(706.449 13.4933 0)
(2160.45 3.66936 0)
(2507.76 5.18709 0)
(1536.78 18.208 0)
(929.465 24.5434 0)
(747.12 26.7369 0)
(656.357 20.5714 0)
(720.64 9.86293 0)
(923.871 -5.63753 0)
(995.896 -9.49141 0)
(1102.98 -5.23419 0)
(-1655.02 -13.3212 0)
(-1531.91 -183.314 0)
(-1462.09 -272.624 0)
(-1465.55 -246.759 0)
(-1582.11 -180.464 0)
(-1683.27 -328.641 0)
(-1079.13 -257.043 0)
(-318.953 319.058 0)
(349.006 1135.96 0)
(1966.14 1760.04 0)
(2410.77 788.795 0)
(738.089 -525.245 0)
(-1000.8 -1007.83 0)
(-1445.61 -1019.79 0)
(-800.143 -434.548 0)
(-426.216 -397.034 0)
(-332.618 -405.716 0)
(-463.944 -496.727 0)
(-981.008 -710.288 0)
(-1552.85 -827.473 0)
(-2044.86 -805.588 0)
(-2618.39 -765.004 0)
(-2782.78 -662.024 0)
(-1828.35 -302.059 0)
(-639.255 -35.0899 0)
(-181.429 10.5336 0)
(-117.799 11.067 0)
(-95.4694 12.3102 0)
(6.51828 13.7524 0)
(704.019 18.4603 0)
(2157.07 6.85496 0)
(2515.57 6.75293 0)
(1546.48 20.575 0)
(933.768 26.8896 0)
(744.896 30.1518 0)
(648.05 23.0828 0)
(707.724 13.6506 0)
(913.752 -4.6085 0)
(995.364 -9.29278 0)
(1095.67 -5.46515 0)
(-1413.64 -194.722 0)
(-1464.51 -46.6809 0)
(-1479.06 -40.0285 0)
(-1435.12 -43.845 0)
(-1610.85 -17.0521 0)
(-1595.5 129.087 0)
(-743.416 639.252 0)
(181.018 827.595 0)
(1006.43 1011.48 0)
(1702.42 1016.47 0)
(1198.7 -29.6084 0)
(-246.952 -1077.26 0)
(-1362.83 -1727.29 0)
(-1102.06 -1061.38 0)
(-474.136 -604.495 0)
(-388.588 -578.924 0)
(-361.608 -518.991 0)
(-637.862 -674.149 0)
(-1141.17 -880.691 0)
(-1579.79 -937.153 0)
(-2005.03 -888.977 0)
(-2539.88 -859.877 0)
(-2531.31 -711.065 0)
(-1505.6 -274.443 0)
(-489.374 -20.9365 0)
(-160.902 14.881 0)
(-117.065 15.0435 0)
(-94.1353 16.4272 0)
(9.70249 18.3777 0)
(699.802 23.678 0)
(2149.17 13.0826 0)
(2520.98 11.9667 0)
(1556.19 22.8042 0)
(938.694 26.2191 0)
(743.452 29.7342 0)
(640.456 22.87 0)
(693.956 14.6482 0)
(901.762 -4.65674 0)
(995.07 -10.9639 0)
(1092.97 -6.6814 0)
(-1322.7 -508.161 0)
(-1382.84 -444.799 0)
(-1459.36 -397.792 0)
(-1443.41 -329.887 0)
(-1415.47 -171.971 0)
(-1050.83 261.671 0)
(-406.02 691.398 0)
(39.7406 632.96 0)
(531.008 349.037 0)
(962.903 -309.989 0)
(393.185 -1303.13 0)
(-897.86 -2124.32 0)
(-985.496 -1819.78 0)
(-363.647 -949.749 0)
(-335.234 -842.578 0)
(-343.821 -668.297 0)
(-424.38 -661.419 0)
(-812.491 -857.499 0)
(-1234.45 -994.721 0)
(-1560.84 -983.135 0)
(-1970.39 -938.755 0)
(-2446.95 -933.914 0)
(-2218.63 -705.55 0)
(-1163.32 -219.683 0)
(-360.452 -10.0711 0)
(-146.757 13.3602 0)
(-116.309 13.1169 0)
(-92.2565 14.8576 0)
(13.5053 17.3731 0)
(698.916 22.7589 0)
(2145.78 8.06645 0)
(2524.94 2.05628 0)
(1560.22 11.5918 0)
(940.446 12.8631 0)
(741.669 17.3318 0)
(633.513 14.659 0)
(681.198 10.7966 0)
(889.072 -4.98695 0)
(993.413 -11.6417 0)
(1089.61 -7.69627 0)
(-1315.15 -968.114 0)
(-1358.16 -925.206 0)
(-1368.33 -830.453 0)
(-1217.51 -638.266 0)
(-1040.8 -414.592 0)
(-763.523 -140.098 0)
(-385.628 -106.939 0)
(-148.893 -263.952 0)
(97.765 -477.091 0)
(110.324 -995.671 0)
(-549.652 -1954.65 0)
(-744.815 -2133.64 0)
(-230.972 -1281.01 0)
(-160.392 -1005.96 0)
(-202.919 -825.695 0)
(-214.017 -694.845 0)
(-543.93 -820.555 0)
(-959.044 -996.308 0)
(-1262.23 -1045.75 0)
(-1525.86 -1003.46 0)
(-1957.6 -998.391 0)
(-2315.16 -987.406 0)
(-1843.05 -633.541 0)
(-835.411 -156.159 0)
(-264.805 -10.0675 0)
(-138.557 2.30842 0)
(-115.622 2.11552 0)
(-90.0339 4.63983 0)
(17.3165 8.09187 0)
(690.834 13.4998 0)
(2129.22 -5.12005 0)
(2524.38 -16.1696 0)
(1566.6 -2.54382 0)
(944.225 2.10331 0)
(745.182 4.79743 0)
(634.159 2.83284 0)
(675.024 2.01974 0)
(880.14 -6.97605 0)
(992.459 -11.7991 0)
(1090.31 -8.26735 0)
(-1257.91 -1513.81 0)
(-1250.19 -1404.76 0)
(-1182.85 -1293.05 0)
(-1042.67 -1134.88 0)
(-935.416 -979.656 0)
(-754.366 -792.11 0)
(-525.37 -802.076 0)
(-316.952 -983.615 0)
(-174.103 -1195.11 0)
(-460.924 -1697.99 0)
(-703.407 -2051.08 0)
(-248.719 -1379.97 0)
(101.178 -900.323 0)
(75.1116 -810.986 0)
(-35.4289 -667.25 0)
(-338.868 -773.945 0)
(-714.881 -983.721 0)
(-1029.5 -1089.46 0)
(-1241.34 -1068.71 0)
(-1515.2 -1017.45 0)
(-1954.92 -1038.29 0)
(-2095.37 -958.248 0)
(-1417.61 -470.601 0)
(-562.514 -73.3485 0)
(-207.747 18.0348 0)
(-135.017 26.7848 0)
(-114.063 29.4563 0)
(-86.4975 34.9897 0)
(22.0431 40.3238 0)
(686.185 47.8583 0)
(2117.19 38.9753 0)
(2527.42 60.3068 0)
(1577.82 103.643 0)
(947.52 118.707 0)
(742.372 115.089 0)
(630.836 81.8397 0)
(671.746 35.4985 0)
(875.755 3.97173 0)
(992.169 -8.09182 0)
(1086.2 -8.7589 0)
(-1114.67 -1884.46 0)
(-1145.42 -1796.99 0)
(-1108.26 -1666.49 0)
(-915.518 -1497.63 0)
(-710.495 -1336.51 0)
(-592.401 -1213.19 0)
(-570.17 -1303.15 0)
(-527.633 -1447.31 0)
(-590.629 -1619.62 0)
(-714.523 -1775.82 0)
(-243.196 -1251.74 0)
(364.097 -619.57 0)
(317.317 -623.554 0)
(64.206 -619.949 0)
(-167.224 -754.755 0)
(-518.981 -941.112 0)
(-847.971 -1054.95 0)
(-1040.94 -1024.6 0)
(-1192.84 -933.369 0)
(-1496.54 -899.444 0)
(-1900.55 -905.559 0)
(-1768.12 -701.665 0)
(-990.331 -176.86 0)
(-364.544 106.517 0)
(-168.313 164.398 0)
(-127.551 178.721 0)
(-107.715 190.197 0)
(-79.5616 204.326 0)
(29.7171 214.265 0)
(689.535 233.056 0)
(2141.22 290.294 0)
(2586.69 452.745 0)
(1622.88 556.116 0)
(955.254 533.325 0)
(709.656 444.397 0)
(557.463 326.008 0)
(599.988 222.2 0)
(838.135 107.743 0)
(980.192 24.9365 0)
(1078.86 -7.80639 0)
(-965.5 -1884.32 0)
(-1040.15 -1983.25 0)
(-894.383 -1871.13 0)
(-724.69 -1740.92 0)
(-661.313 -1731.56 0)
(-722.224 -1784.79 0)
(-750.983 -1736.53 0)
(-621.916 -1498.01 0)
(-490.666 -1263.45 0)
(-106.413 -833.199 0)
(410.798 -337.509 0)
(356.62 -405.248 0)
(100.813 -595.222 0)
(-51.3179 -687.286 0)
(-344.913 -797.868 0)
(-628.15 -837.633 0)
(-795.33 -737.463 0)
(-912.334 -540.006 0)
(-1120.74 -327.253 0)
(-1488.4 -292.897 0)
(-1764.33 -294.18 0)
(-1393.17 180.554 0)
(-638.819 734.748 0)
(-233.665 945.211 0)
(-138.169 1009.68 0)
(-110.157 1050.28 0)
(-89.3891 1081.02 0)
(-63.3048 1112.71 0)
(49.7286 1135.43 0)
(759.449 1202.41 0)
(2328.89 1527.61 0)
(2783.58 1906.81 0)
(1655.47 1934.97 0)
(839.863 1726.66 0)
(542.593 1415.55 0)
(416.718 1040.21 0)
(461.417 676.016 0)
(685.665 365.844 0)
(880.822 135.229 0)
(1023.66 -11.0439 0)
(-1022.65 -1759.57 0)
(-1132.71 -1862.11 0)
(-874.744 -1868.32 0)
(-781.024 -1789.54 0)
(-752.768 -1632.29 0)
(-597.192 -1301.75 0)
(-293.815 -901.044 0)
(-71.7543 -636.326 0)
(50.0046 -413.298 0)
(177.748 -216.542 0)
(169.193 -257.95 0)
(115.755 -426.277 0)
(45.536 -336.745 0)
(-131.07 -250.202 0)
(-312.104 -102.497 0)
(-460.773 178.454 0)
(-561.168 569.946 0)
(-645.65 922.649 0)
(-954.719 1037.76 0)
(-1464.67 982.833 0)
(-1444.32 1159.28 0)
(-776.604 1765.03 0)
(-253.479 2170.59 0)
(-99.6078 2278.76 0)
(-67.0666 2310.62 0)
(-58.8047 2334.01 0)
(-47.5542 2346.46 0)
(-27.1288 2360.58 0)
(116.155 2393.06 0)
(1067.45 2502.23 0)
(2820 2949.93 0)
(2979.24 3066.91 0)
(1449.27 2840.18 0)
(454.72 2543.67 0)
(48.1686 2277.96 0)
(-155.178 1930.73 0)
(-49.8549 1418.3 0)
(317.013 897.345 0)
(617.009 432.771 0)
(872.428 -0.784816 0)
(-1403.31 -1227.66 0)
(-1144.94 -867.791 0)
(-824.453 -637.049 0)
(-497.241 -355.966 0)
(-191.258 -44.0584 0)
(-17.573 184.815 0)
(-109.761 226.684 0)
(-151.905 177.026 0)
(-86.1471 174.061 0)
(43.2855 235.415 0)
(208.691 459.553 0)
(280.691 842.301 0)
(270.485 1219.25 0)
(174.412 1559.02 0)
(68.1563 1835.86 0)
(19.8404 2047.68 0)
(-78.1971 2171.18 0)
(-461.53 2063.39 0)
(-1062.74 1669.32 0)
(-1371.31 1428.93 0)
(-1010.58 1811.76 0)
(-418.624 2251.12 0)
(-143.771 2364.59 0)
(-98.7301 2354.88 0)
(-84.9246 2322.19 0)
(-75.6258 2301.11 0)
(-63.7824 2281.99 0)
(-18.3933 2266.2 0)
(186.226 2298.1 0)
(1296.07 2375.37 0)
(2873.04 2523.16 0)
(2677.82 2226.62 0)
(1151.26 1986.73 0)
(298.084 1862.19 0)
(-48.0521 1879.8 0)
(-411.682 1909.91 0)
(-534.394 1735.66 0)
(-264.026 1332.72 0)
(15.3514 781.977 0)
(406.336 56.5714 0)
(-987.997 -93.1029 0)
(-563.571 498.802 0)
(-381.531 1097.89 0)
(-209.596 1559.09 0)
(-231.652 1913.23 0)
(-336.295 2126.65 0)
(-301.321 2376.58 0)
(-122.464 2631.45 0)
(106.27 2728.63 0)
(452.859 2878.65 0)
(754.011 3021.32 0)
(847.827 3050.16 0)
(736.19 2933.93 0)
(463.117 2718.22 0)
(158.787 2449.63 0)
(-137.646 2112.32 0)
(-546.023 1609.7 0)
(-1129.26 946.843 0)
(-1566.11 492.318 0)
(-1327.41 649.114 0)
(-652.026 1155.05 0)
(-243.878 1403.08 0)
(-153.491 1422.55 0)
(-140.461 1399.9 0)
(-118.88 1378.92 0)
(-97.5415 1369.6 0)
(-81.1958 1362.76 0)
(-11.6044 1354.71 0)
(221.349 1375.78 0)
(1284.32 1386.26 0)
(2676.67 1186.76 0)
(2462.31 835.872 0)
(1098.09 769.848 0)
(351.684 759.023 0)
(94.1536 849.353 0)
(-294.076 1020.95 0)
(-606.049 1134.81 0)
(-601.993 1051.93 0)
(-612.739 739.735 0)
(-362.429 76.779 0)
(245.834 579.425 0)
(2.74006 1323.65 0)
(197.28 2180.48 0)
(288.455 2845.95 0)
(355.667 3468.57 0)
(428.928 4106.62 0)
(376.677 4807.3 0)
(187.339 5100.06 0)
(152.066 4933.01 0)
(325.335 4365.93 0)
(373.961 3580.32 0)
(196.48 2749.85 0)
(-49.379 1922.8 0)
(-292.279 1244.55 0)
(-515.716 763.465 0)
(-789.548 317.446 0)
(-1201.29 -203.533 0)
(-1538.28 -550.286 0)
(-1349.64 -320.137 0)
(-732.675 336.712 0)
(-284.036 765.457 0)
(-160.85 870.228 0)
(-146.836 882.65 0)
(-140.773 885.233 0)
(-114.121 893.984 0)
(-91.196 906.152 0)
(-78.1274 918.064 0)
(-5.85338 925.198 0)
(216.626 921.559 0)
(1113.92 896.044 0)
(2342.66 501.822 0)
(2276.08 175.989 0)
(1077.21 213.999 0)
(374.698 250.929 0)
(204.352 286.663 0)
(-136.606 355.326 0)
(-504.546 440.832 0)
(-644.734 435.286 0)
(-924.336 274.249 0)
(-1041.9 -65.0198 0)
(1517.91 555.124 0)
(979.266 1229.44 0)
(1085.42 1906.32 0)
(1031.65 2374.2 0)
(983.178 2755.45 0)
(953.752 3071.64 0)
(655.99 3305.55 0)
(-1.32707 3315.56 0)
(-601.158 3014.95 0)
(-850.642 2209.06 0)
(-803.31 1185.87 0)
(-749.42 429.156 0)
(-714.367 -34.4857 0)
(-654.056 -308.194 0)
(-734.604 -546.236 0)
(-1069.48 -810.89 0)
(-1382.2 -948.99 0)
(-1241.62 -636.379 0)
(-711.364 7.70063 0)
(-281.297 500.326 0)
(-137.911 662.485 0)
(-130.946 693.651 0)
(-139.032 698.264 0)
(-129.539 706.743 0)
(-98.7219 721.343 0)
(-74.3373 736.37 0)
(-62.8419 752.9 0)
(-8.237 764.74 0)
(193.255 739.447 0)
(879.85 695.115 0)
(1982.8 229.411 0)
(2184.96 -110.606 0)
(1170.3 -0.910697 0)
(421.706 153.997 0)
(194.754 150.595 0)
(-145.514 159.938 0)
(-528.996 201.47 0)
(-762.518 141.966 0)
(-1094.85 -46.4657 0)
(-1133.7 -148.24 0)
(2282.08 105.584 0)
(1304.81 322.584 0)
(1300.41 473.341 0)
(1106.7 521.666 0)
(1027.74 574.4 0)
(959.025 671.805 0)
(611.73 705.678 0)
(-92.6949 687.331 0)
(-914.202 487.263 0)
(-1437.23 3.86518 0)
(-1341.22 -487.825 0)
(-979.497 -704.543 0)
(-759.916 -739.285 0)
(-785.421 -814.949 0)
(-1000.13 -1010.68 0)
(-1177.66 -1088.19 0)
(-1033.13 -773.272 0)
(-616.379 -176.664 0)
(-254.273 301.975 0)
(-101.701 494.452 0)
(-97.7412 543.768 0)
(-126.371 553.945 0)
(-134.221 562.979 0)
(-118.533 578.243 0)
(-85.5707 595.773 0)
(-60.7866 610.643 0)
(-50.7896 626.755 0)
(-18.8171 637.022 0)
(149.533 608.393 0)
(622.433 537.004 0)
(1566.24 104.594 0)
(2054.13 -397.555 0)
(1332.19 -388.035 0)
(520.694 -168.226 0)
(210.077 -166.622 0)
(-87.5813 -111.708 0)
(-521.864 3.05359 0)
(-883.653 -11.1317 0)
(-1203.99 -202.694 0)
(-1101.43 -140.611 0)
(1990.74 -325.911 0)
(1333.65 -502.43 0)
(1277.26 -521.409 0)
(1129.04 -591.203 0)
(1127.86 -547.599 0)
(1080.26 -530.556 0)
(670.951 -581.75 0)
(-211.8 -657.862 0)
(-1259.77 -874.352 0)
(-1790.27 -1115.85 0)
(-1485.96 -1122.16 0)
(-991.736 -1033.13 0)
(-820.758 -1022.03 0)
(-915.586 -1083.76 0)
(-997.909 -1044.12 0)
(-840.702 -730.482 0)
(-503.821 -216.293 0)
(-205.473 207.173 0)
(-64.6532 422.082 0)
(-48.2968 488.857 0)
(-80.5813 517.166 0)
(-112.433 539.364 0)
(-115.618 563.01 0)
(-97.9381 586.641 0)
(-67.4995 606.336 0)
(-44.4818 620.128 0)
(-37.4225 633.239 0)
(-25.9307 643.737 0)
(96.8739 630.426 0)
(394.371 521.106 0)
(1082.22 221.244 0)
(1710.24 -428.189 0)
(1391.29 -674.15 0)
(635.068 -548.265 0)
(249.217 -567.571 0)
(17.9916 -565.653 0)
(-432.078 -475.146 0)
(-960.784 -286.865 0)
(-1219.62 -271.066 0)
(-764.35 -142.949 0)
(1248.5 1027.13 0)
(1116.42 -1140.78 0)
(1214.87 -1071.97 0)
(1081.46 -1198.35 0)
(1086.18 -1210.58 0)
(926.116 -1382.42 0)
(489.053 -1642.33 0)
(-374.657 -1846.59 0)
(-1355.54 -1948.11 0)
(-1676.03 -1743.25 0)
(-1261.5 -1321.17 0)
(-883.006 -1040.88 0)
(-808.704 -904.755 0)
(-806.709 -735.604 0)
(-659.702 -435.43 0)
(-379.929 -23.9761 0)
(-129.568 328.382 0)
(-1.2185 527.042 0)
(17.1678 602.469 0)
(-10.0739 636.652 0)
(-49.0709 670.067 0)
(-82.1953 711.457 0)
(-88.6633 753.576 0)
(-76.7819 790.145 0)
(-53.3009 818.277 0)
(-34.8625 833.574 0)
(-28.0388 844.626 0)
(-21.5272 854.789 0)
(31.3608 857.982 0)
(228.13 758.621 0)
(651.464 528.669 0)
(1191.29 -63.105 0)
(1216.48 -570.737 0)
(623.398 -685.994 0)
(193.322 -796.445 0)
(1.48321 -915.568 0)
(-253.214 -997.653 0)
(-686.994 -717.318 0)
(-1065.31 -511.978 0)
(-328.426 -116.071 0)
(-650.907 37180.3 0)
(-689.118 469.928 0)
(1221.78 -1167.99 0)
(995.47 -1552.1 0)
(950.483 -1842.86 0)
(664.209 -2266.12 0)
(223.662 -2724.69 0)
(-506.463 -3006.13 0)
(-1160.19 -2809.83 0)
(-1186.14 -2097.54 0)
(-809.135 -1410.27 0)
(-590.458 -992.576 0)
(-526.582 -642.755 0)
(-463.328 -231.59 0)
(-312.159 196.529 0)
(-104.665 505.426 0)
(27.1606 655.251 0)
(58.6475 695.046 0)
(40.9703 700.453 0)
(16.843 716.249 0)
(-8.49566 748.986 0)
(-31.9605 801.354 0)
(-39.7917 861.279 0)
(-35.5903 914.579 0)
(-25.6494 957.383 0)
(-19.0901 983.24 0)
(-16.9787 1002.05 0)
(-13.0609 1016.27 0)
(4.20274 1026.65 0)
(77.0324 985.854 0)
(290.377 788.828 0)
(650.813 314.94 0)
(791.056 -418.643 0)
(417.569 -873.473 0)
(27.9909 -1087.01 0)
(-175.9 -1207.42 0)
(-241.036 -1228.49 0)
(-492.77 -1075.42 0)
(-640.239 -664.489 0)
(2369.25 8773.03 0)
(27578.1 -28934.8 0)
(-35837.4 3049.28 0)
(-733.632 -743.784 0)
(431.131 -1783.3 0)
(398.126 -2964.87 0)
(76.353 -3782.78 0)
(-224.053 -4204.92 0)
(-456.703 -3973.33 0)
(-479.985 -2988.19 0)
(-327.364 -1737.14 0)
(-196.716 -895.044 0)
(-143.399 -321.506 0)
(-75.3895 174.602 0)
(2.05592 567.822 0)
(50.5139 849.886 0)
(62.1116 956.736 0)
(53.157 949.822 0)
(42.3394 916.037 0)
(37.5996 901.74 0)
(36.6951 907.575 0)
(32.9391 929.763 0)
(26.0134 972.368 0)
(20.4442 1023.84 0)
(15.8278 1063.8 0)
(12.8637 1092.82 0)
(8.17637 1106.36 0)
(3.79117 1121.58 0)
(2.17901 1128.66 0)
(2.0499 1133.4 0)
(-1.04127 1109.45 0)
(4.94698 1009.08 0)
(27.732 664.226 0)
(71.279 -33.1451 0)
(-20.6605 -847.049 0)
(-128.483 -1090.32 0)
(-134.86 -1112.08 0)
(-126.013 -789.735 0)
(-143.499 -379.254 0)
(8425.01 2409.49 0)
(-388.997 -414.653 0)
(27578.1 28934.8 0)
(-35837.4 -3049.28 0)
(-733.632 743.784 0)
(431.131 1783.3 0)
(398.126 2964.87 0)
(76.353 3782.78 0)
(-224.053 4204.92 0)
(-456.703 3973.33 0)
(-479.985 2988.19 0)
(-327.364 1737.14 0)
(-196.716 895.044 0)
(-143.399 321.506 0)
(-75.3895 -174.602 0)
(2.05592 -567.822 0)
(50.5139 -849.886 0)
(62.1116 -956.736 0)
(53.157 -949.822 0)
(42.3394 -916.037 0)
(37.5996 -901.74 0)
(36.6951 -907.575 0)
(32.9391 -929.763 0)
(26.0134 -972.368 0)
(20.4442 -1023.84 0)
(15.8278 -1063.8 0)
(12.8637 -1092.82 0)
(8.17637 -1106.36 0)
(3.79117 -1121.58 0)
(2.17901 -1128.66 0)
(2.0499 -1133.4 0)
(-1.04127 -1109.45 0)
(4.94698 -1009.08 0)
(27.732 -664.226 0)
(71.279 33.1451 0)
(-20.6605 847.049 0)
(-128.483 1090.32 0)
(-134.86 1112.08 0)
(-126.013 789.735 0)
(-143.499 379.254 0)
(8425.01 -2409.49 0)
(-388.997 414.653 0)
(-650.907 -37180.3 0)
(-689.118 -469.928 0)
(1221.78 1167.99 0)
(995.47 1552.1 0)
(950.483 1842.86 0)
(664.209 2266.12 0)
(223.662 2724.69 0)
(-506.463 3006.13 0)
(-1160.19 2809.83 0)
(-1186.14 2097.54 0)
(-809.135 1410.27 0)
(-590.458 992.576 0)
(-526.582 642.755 0)
(-463.328 231.59 0)
(-312.159 -196.529 0)
(-104.665 -505.426 0)
(27.1606 -655.251 0)
(58.6475 -695.046 0)
(40.9703 -700.453 0)
(16.843 -716.249 0)
(-8.49566 -748.986 0)
(-31.9605 -801.354 0)
(-39.7917 -861.279 0)
(-35.5903 -914.579 0)
(-25.6494 -957.383 0)
(-19.0901 -983.24 0)
(-16.9787 -1002.05 0)
(-13.0609 -1016.27 0)
(4.20274 -1026.65 0)
(77.0324 -985.854 0)
(290.377 -788.828 0)
(650.813 -314.94 0)
(791.056 418.643 0)
(417.569 873.473 0)
(27.9909 1087.01 0)
(-175.9 1207.42 0)
(-241.036 1228.49 0)
(-492.77 1075.42 0)
(-640.239 664.489 0)
(2369.25 -8773.03 0)
(1248.5 -1027.13 0)
(1116.42 1140.78 0)
(1214.87 1071.97 0)
(1081.46 1198.35 0)
(1086.18 1210.58 0)
(926.116 1382.42 0)
(489.053 1642.33 0)
(-374.657 1846.59 0)
(-1355.54 1948.11 0)
(-1676.03 1743.25 0)
(-1261.5 1321.17 0)
(-883.006 1040.88 0)
(-808.704 904.755 0)
(-806.709 735.604 0)
(-659.702 435.43 0)
(-379.929 23.9761 0)
(-129.568 -328.382 0)
(-1.2185 -527.042 0)
(17.1678 -602.469 0)
(-10.0739 -636.652 0)
(-49.0709 -670.067 0)
(-82.1953 -711.457 0)
(-88.6633 -753.576 0)
(-76.7819 -790.145 0)
(-53.3009 -818.277 0)
(-34.8625 -833.574 0)
(-28.0388 -844.626 0)
(-21.5272 -854.789 0)
(31.3608 -857.982 0)
(228.13 -758.621 0)
(651.464 -528.669 0)
(1191.29 63.105 0)
(1216.48 570.737 0)
(623.398 685.994 0)
(193.322 796.445 0)
(1.48321 915.568 0)
(-253.214 997.653 0)
(-686.994 717.318 0)
(-1065.31 511.978 0)
(-328.426 116.071 0)
(1990.74 325.911 0)
(1333.65 502.43 0)
(1277.26 521.409 0)
(1129.04 591.203 0)
(1127.86 547.599 0)
(1080.26 530.556 0)
(670.951 581.75 0)
(-211.8 657.862 0)
(-1259.77 874.352 0)
(-1790.27 1115.85 0)
(-1485.96 1122.16 0)
(-991.736 1033.13 0)
(-820.758 1022.03 0)
(-915.586 1083.76 0)
(-997.909 1044.12 0)
(-840.702 730.482 0)
(-503.821 216.293 0)
(-205.473 -207.173 0)
(-64.6532 -422.082 0)
(-48.2968 -488.857 0)
(-80.5813 -517.166 0)
(-112.433 -539.364 0)
(-115.618 -563.01 0)
(-97.9381 -586.641 0)
(-67.4995 -606.336 0)
(-44.4818 -620.128 0)
(-37.4225 -633.239 0)
(-25.9307 -643.737 0)
(96.8739 -630.426 0)
(394.371 -521.106 0)
(1082.22 -221.244 0)
(1710.24 428.189 0)
(1391.29 674.15 0)
(635.068 548.265 0)
(249.217 567.571 0)
(17.9916 565.653 0)
(-432.078 475.146 0)
(-960.784 286.865 0)
(-1219.62 271.066 0)
(-764.35 142.949 0)
(2282.08 -105.584 0)
(1304.81 -322.584 0)
(1300.41 -473.341 0)
(1106.7 -521.666 0)
(1027.74 -574.4 0)
(959.025 -671.805 0)
(611.73 -705.678 0)
(-92.6949 -687.331 0)
(-914.202 -487.263 0)
(-1437.23 -3.86518 0)
(-1341.22 487.825 0)
(-979.497 704.543 0)
(-759.916 739.285 0)
(-785.421 814.949 0)
(-1000.13 1010.68 0)
(-1177.66 1088.19 0)
(-1033.13 773.272 0)
(-616.379 176.664 0)
(-254.273 -301.975 0)
(-101.701 -494.452 0)
(-97.7412 -543.768 0)
(-126.371 -553.945 0)
(-134.221 -562.979 0)
(-118.533 -578.243 0)
(-85.5707 -595.773 0)
(-60.7866 -610.643 0)
(-50.7896 -626.755 0)
(-18.8171 -637.022 0)
(149.533 -608.393 0)
(622.433 -537.004 0)
(1566.24 -104.594 0)
(2054.13 397.555 0)
(1332.19 388.035 0)
(520.694 168.226 0)
(210.077 166.622 0)
(-87.5813 111.708 0)
(-521.864 -3.05359 0)
(-883.653 11.1317 0)
(-1203.99 202.694 0)
(-1101.43 140.611 0)
(1517.91 -555.124 0)
(979.266 -1229.44 0)
(1085.42 -1906.32 0)
(1031.65 -2374.2 0)
(983.178 -2755.45 0)
(953.752 -3071.64 0)
(655.99 -3305.55 0)
(-1.32707 -3315.56 0)
(-601.158 -3014.95 0)
(-850.642 -2209.06 0)
(-803.31 -1185.87 0)
(-749.42 -429.156 0)
(-714.367 34.4857 0)
(-654.056 308.194 0)
(-734.604 546.236 0)
(-1069.48 810.89 0)
(-1382.2 948.99 0)
(-1241.62 636.379 0)
(-711.364 -7.70063 0)
(-281.297 -500.326 0)
(-137.911 -662.485 0)
(-130.946 -693.651 0)
(-139.032 -698.264 0)
(-129.539 -706.743 0)
(-98.7219 -721.343 0)
(-74.3373 -736.37 0)
(-62.8419 -752.9 0)
(-8.237 -764.74 0)
(193.255 -739.447 0)
(879.85 -695.115 0)
(1982.8 -229.411 0)
(2184.96 110.606 0)
(1170.3 0.910697 0)
(421.706 -153.997 0)
(194.754 -150.595 0)
(-145.514 -159.938 0)
(-528.996 -201.47 0)
(-762.518 -141.966 0)
(-1094.85 46.4657 0)
(-1133.7 148.24 0)
(245.834 -579.425 0)
(2.74006 -1323.65 0)
(197.28 -2180.48 0)
(288.455 -2845.95 0)
(355.667 -3468.57 0)
(428.928 -4106.62 0)
(376.677 -4807.3 0)
(187.339 -5100.06 0)
(152.066 -4933.01 0)
(325.335 -4365.93 0)
(373.961 -3580.32 0)
(196.48 -2749.85 0)
(-49.379 -1922.8 0)
(-292.279 -1244.55 0)
(-515.716 -763.465 0)
(-789.548 -317.446 0)
(-1201.29 203.533 0)
(-1538.28 550.286 0)
(-1349.64 320.137 0)
(-732.675 -336.712 0)
(-284.036 -765.457 0)
(-160.85 -870.228 0)
(-146.836 -882.65 0)
(-140.773 -885.233 0)
(-114.121 -893.984 0)
(-91.196 -906.152 0)
(-78.1274 -918.064 0)