/*--------------------------------*- C++ -*----------------------------------*\
| =========                 |                                                 |
| \\      /  F ield         | OpenFOAM: The Open Source CFD Toolbox           |
|  \\    /   O peration     | Version:  v1912                                 |
|   \\  /    A nd           | Website:  www.openfoam.com                      |
|    \\/     M anipulation  |                                                 |
\*---------------------------------------------------------------------------*/
FoamFile
{
    version     2.0;
    format      ascii;
    class       volScalarField;
    location    "8.16";
    object      rho;
}
// * * * * * * * * * * * * * * * * * * * * * * * * * * * * * * * * * * * * * //

dimensions      [1 -3 0 0 0 0 0];


internalField   nonuniform List<scalar> 
1900
(
17315.2
12088.2
12446.3
12678.3
12688.6
12659.7
12586.1
12488.6
12399.1
12353.9
17315.3
12088.1
12446.2
12678.1
12688.4
12660.2
12588
12487.5
12405.3
12343.8
17315.3
12088.2
12446.1
12678.1
12688.5
12660.5
12587.8
12482.8
12395.7
12328.1
17315.3
12088.1
12446.2
12678.1
12688.4
12660.2
12588
12487.5
12405.3
12343.8
17315.2
12088.2
12446.3
12678.3
12688.6
12659.7
12586.1
12488.6
12399.1
12353.9
12482.5
12284.2
12134.3
11774.1
11616.3
12303.4
12166.3
12037.8
11693.6
11204.8
12268.5
12143.5
12034.2
11736.3
11275.6
12303.4
12166.3
12037.8
11693.6
11204.8
12482.5
12284.2
12134.3
11774.1
11616.3
6130.77
4165.13
3223.75
2708.33
2176.7
6768.41
4490.25
3406.66
2852.16
2279.81
6958.28
4448.69
3334.76
2793.88
2204.79
6768.41
4490.25
3406.66
2852.16
2279.81
6130.77
4165.13
3223.75
2708.33
2176.7
2427.54
2580.93
2566.8
2527.21
2450.65
2350.95
2235.8
2043.38
1849.44
1857.99
2151.12
2981.93
3163.19
3104.14
2977.37
2921.59
2904.76
2907.23
2885.96
2753.52
2499.96
2166.93
1738.8
1283.58
1045.35
992.256
974.956
958.887
947.764
958.867
1143.84
1555.08
1829.59
1972.89
2083.74
2180.36
2269.99
2385.91
2529.4
2659.94
2198.4
2313.12
2415.34
2390.68
2315.93
2207.36
2099.33
1923.03
1768.93
1778
2078.89
2895.59
3096.1
3053.17
2948.63
2909.62
2905.51
2917.88
2891.81
2754.7
2499.66
2171.29
1745.29
1286.92
1045.86
992.207
974.918
958.845
947.707
958.789
1143.79
1555
1829.38
1972.66
2083.52
2180.29
2270.13
2386.15
2529.97
2660.72
2149.09
2207.2
2324.84
2333.66
2291.88
2192.07
2081.64
1901.22
1755.84
1767.62
2052.78
2858.42
3076.32
3036.5
2942.2
2906.4
2901.76
2923.54
2930.81
2795.87
2525.52
2176.44
1744.97
1286.25
1045.83
992.193
974.906
958.833
947.687
958.762
1143.79
1554.99
1829.29
1972.55
2083.42
2180.28
2270.21
2386.19
2529.89
2660.55
2198.4
2313.12
2415.34
2390.68
2315.93
2207.36
2099.33
1923.03
1768.93
1778
2078.89
2895.59
3096.1
3053.17
2948.63
2909.62
2905.51
2917.88
2891.81
2754.7
2499.66
2171.29
1745.29
1286.92
1045.86
992.207
974.918
958.845
947.707
958.789
1143.79
1555
1829.38
1972.66
2083.52
2180.29
2270.13
2386.15
2529.97
2660.72
2427.54
2580.93
2566.8
2527.21
2450.65
2350.95
2235.8
2043.38
1849.44
1857.99
2151.12
2981.93
3163.19
3104.14
2977.37
2921.59
2904.76
2907.23
2885.96
2753.52
2499.96
2166.93
1738.8
1283.58
1045.35
992.256
974.956
958.887
947.764
958.867
1143.84
1555.08
1829.59
1972.89
2083.74
2180.36
2269.99
2385.91
2529.4
2659.94
3332.87
3098.23
2919.89
2801.91
2674.91
2571.02
2455.56
2267.67
2053.09
2044.29
2375.51
3173.6
3304.45
3215.32
3067.6
2985.09
2946.95
2920.26
2873.41
2733.81
2488.97
2160.52
1729.46
1274.08
1043.14
992.369
975.143
959.111
948.038
959.243
1143.87
1555.25
1830.27
1973.67
2084.34
2180.38
2269.36
2385
2528.07
2658.89
3902.48
3562.24
3261.78
3035.47
2848.39
2718.83
2585.94
2417.71
2264.1
2285.35
2730.13
3350.54
3404.12
3227.85
3005.73
2925.46
2894.62
2873.63
2822.31
2671.57
2423.25
2102.19
1680.68
1247.29
1038.56
992.653
975.57
959.681
948.698
960.177
1143.89
1555.57
1831.82
1975.72
2086.34
2181.62
2269.03
2383.19
2525.44
2656.81
3945.45
3792.89
3611.43
3402.96
3192.35
2981.68
2773.88
2605.6
2454.51
2500.5
3014.67
3435.75
3422.87
3192.02
2967.88
2896.61
2853.38
2823.58
2758.68
2597.41
2349.49
2029.47
1612.98
1210.68
1032.8
993.265
976.322
960.601
949.723
961.64
1144
1555.76
1833.63
1978.38
2089.23
2183.84
2269.73
2382.01
2523.8
2655.88
3950.88
3729.23
3529.61
3327.16
3126.58
2892.08
2663.68
2595.32
2575.97
2691.29
3116.66
3354.26
3319.63
3079.04
2922.09
2859
2804.88
2767.53
2677.29
2497.75
2250.26
1935.41
1530.2
1170.15
1027.4
994.355
977.51
961.96
951.256
963.753
1144.86
1556.95
1836.64
1982.23
2093.43
2187.08
2271.64
2381.7
2522.93
2655.42
3941.92
3744.31
3539.18
3337.57
3144.52
2894.59
2705.76
2690.15
2755.54
2966.91
3223.71
3296.56
3155.79
2921.78
2852.73
2791.39
2745.86
2691.95
2570.45
2378.13
2136.01
1826.74
1437.54
1130.63
1023.5
996.056
979.255
963.864
953.368
966.532
1145.81
1557.55
1839.08
1985.5
2097.22
2189.95
2273.35
2380.79
2521.33
2654.44
3899.28
3716.86
3519
3315.54
3122.06
2926.28
2833.08
2814.63
2844.01
2960.66
3108.81
3068.78
2861.9
2797.77
2761.89
2705.58
2667.34
2588.88
2443.91
2249.4
2014.68
1707.55
1341.77
1097.42
1021.86
998.298
981.497
966.313
956.126
970.027
1148.33
1560.12
1842.69
1989.18
2101.31
2193.14
2275.53
2380.47
2520.02
2653.65
3807.26
3626.44
3433.77
3250.15
3098.95
2963.93
2888.98
2857.88
2848.04
2884.77
2878.37
2733.61
2673.55
2670.1
2629.44
2614.29
2570.59
2464.71
2306.85
2117.6
1887.24
1579.26
1250.57
1072.42
1020.83
999.597
982.731
967.801
957.971
972.563
1147.95
1558.1
1842.15
1988.91
2101.82
2193.84
2276.21
2379.47
2518.25
2652.4
3642.73
3471.68
3298.93
3146.4
3012.19
2889.16
2804.74
2744.68
2717.58
2696.8
2590.83
2503.37
2522.43
2531.19
2543.09
2521.45
2449.9
2324.86
2166.79
1983.49
1750.1
1445.88
1173.88
1056.04
1019.19
998.91
982.058
967.543
958.271
973.605
1146.97
1555.83
1842.01
1989.73
2102.58
2193.89
2276.06
2378.62
2516.89
2651.46
3406.1
3254.18
3091.11
2949.41
2839.34
2754.02
2676.43
2597.22
2531.33
2434.8
2334.84
2367.92
2434.97
2455.18
2452.62
2409.2
2309.9
2176.01
2023.64
1847.97
1612.09
1325.32
1125.86
1052.98
1025.61
1006.69
990.537
977.073
968.657
985.245
1158.28
1574.08
1869.62
2020.37
2132.31
2215.53
2285.62
2380.52
2516.1
2650.08
3143.35
2995.48
2857.31
2749.53
2658.02
2567.66
2459.41
2361.14
2288.38
2226.21
2259.12
2339.18
2357.19
2366.9
2343.08
2272.05
2170.33
2053.34
1919.44
1745.13
1510.13
1259.94
1127.01
1084.27
1062.75
1046.27
1032.46
1021.69
1015.05
1035.36
1223.9
1675.81
1989.38
2131.07
2220.35
2280.28
2334.94
2407.17
2523.5
2649.39
2906.75
2728.62
2595.26
2488.06
2380.48
2281.05
2216.25
2200.25
2196.52
2214
2245.4
2260.53
2277.23
2273.05
2241.19
2187.22
2114.47
2032.9
1936.92
1770.36
1534.14
1373.17
1320.57
1303.46
1293.18
1285.02
1277.01
1271.94
1269.55
1303.88
1563.09
2079.38
2382.39
2477.93
2507.44
2491.18
2464.76
2477.47
2551.94
2647.15
2677.06
2502.02
2362.2
2275.3
2225.46
2222.7
2220.63
2192.52
2178.86
2168.83
2190.76
2226.22
2267.95
2300.6
2315.91
2319.34
2321.37
2297.84
2194.45
2005.59
1817.34
1727.67
1702.22
1688.14
1675.07
1664.78
1654.27
1647.24
1649.21
1698.46
2005.63
2488.54
2742.03
2805.14
2824.01
2791.92
2710.79
2644.96
2638.19
2649.19
2581.42
2498.65
2426.44
2393.73
2368.8
2330.03
2276.32
2247.16
2242.64
2276.39
2367.18
2483.74
2600.33
2686.19
2727.69
2729.86
2689.84
2579.7
2379.29
2149.02
2014.25
1969.72
1947.19
1927.51
1908.56
1894.81
1881.74
1872.48
1878.54
1933.36
2231.73
2669.44
2908.87
2971.41
3005.58
2997.31
2924.71
2830.64
2759.16
2662.14
2652.39
2634.21
2653.15
2688.46
2732.47
2786.27
2850.43
2889.85
2901.94
2931.67
2991.41
3034.51
3045.44
3020.93
2965.07
2879.11
2747.94
2548.75
2324.91
2177.6
2123.43
2099.49
2079.19
2059.11
2040.48
2027.73
2015.4
2006.24
2013.79
2065.81
2320.12
2710.05
2946.04
3006.28
3049.08
3062.48
3011.52
2923.73
2834.22
2669.53
2734.97
2849.42
3004.27
3147.91
3287.97
3418.28
3550.26
3598.68
3549.89
3433.36
3315.96
3212.45
3109.87
3016
2930.01
2813.98
2635.9
2433.88
2294.46
2238.25
2217.1
2200.33
2181.09
2162.09
2145.47
2134.94
2125.02
2117.66
2122.76
2170.81
2364.72
2716.08
2965.58
3037.91
3081.55
3091.47
3041.53
2945.99
2831.84
2644.91
2799.5
2960.01
3158.32
3317.62
3462.66
3600.25
3726.4
3768.48
3700.9
3517.07
3305.67
3148.24
3036.3
2939.26
2820.31
2664.22
2496.46
2380.11
2326.95
2310.19
2298.99
2283.31
2264.23
2246.4
2231.64
2222.87
2214.92
2208.9
2209.75
2250.02
2380.92
2680.74
2945.8
3047.09
3088.99
3104.86
3064.91
2961.35
2821.9
2630.25
2762.95
2934.9
3129.7
3286.15
3440.19
3596.31
3737.26
3780.82
3679.01
3434.38
3186.69
3025.75
2913.96
2800.04
2662.18
2525.61
2430.98
2387.06
2374.48
2369.28
2361.2
2347.12
2330.28
2315.33
2303.34
2296.76
2291.11
2286.47
2283.98
2313.11
2392.43
2610.72
2862.75
2993.33
3037.39
3061.87
3042.34
2943.04
2778.13
2607.65
2713.13
2826.86
3020.15
3160.95
3317.55
3459.65
3572.23
3594.14
3469.2
3221.37
3008.29
2874.46
2765.47
2652.06
2543.62
2470.64
2439.14
2435.01
2438.81
2439.73
2436.04
2426.24
2413.43
2401.86
2392.32
2387.2
2382.73
2379.49
2376.81
2388.11
2439.54
2567.27
2767.15
2901.8
2938.59
2954.96
2938.99
2885.33
2750.07
2592.37
3035.14
2632.6
2845.63
2968.59
3119.39
3229.97
3302.04
3291.48
3162.77
2972.42
2836.58
2749.91
2674.2
2605.1
2546.79
2519.26
2518
2526.73
2534.13
2537.99
2538.76
2535.66
2529.98
2524.72
2520.19
2517.66
2514.94
2512.99
2511.35
2514.15
2532.53
2594
2711.5
2811.54
2826.34
2819.24
2777.96
2752.95
2642.45
2576.89
12565.9
2951.39
2710.63
2749.65
2829.19
2859.13
2850.19
2797.52
2724.6
2665.52
2634.57
2611.42
2595.14
2590.69
2595.7
2604.58
2612.78
2619.2
2624.43
2629.54
2634.52
2638.6
2641.67
2644.22
2646.02
2647.76
2648.27
2648.8
2648.87
2649.36
2648.58
2650.73
2656.21
2670.33
2650.53
2634.99
2613.44
2600.34
2573.98
4917.22
12565.9
2951.39
2710.63
2749.65
2829.19
2859.13
2850.19
2797.52
2724.6
2665.52
2634.57
2611.42
2595.14
2590.69
2595.7
2604.58
2612.78
2619.2
2624.43
2629.54
2634.52
2638.6
2641.67
2644.22
2646.02
2647.76
2648.27
2648.8
2648.87
2649.36
2648.58
2650.73
2656.21
2670.33
2650.53
2634.99
2613.44
2600.34
2573.98
4917.22
3035.14
2632.6
2845.63
2968.59
3119.39
3229.97
3302.04
3291.48
3162.77
2972.42
2836.58
2749.91
2674.2
2605.1
2546.79
2519.26
2518
2526.73
2534.13
2537.99
2538.76
2535.66
2529.98
2524.72
2520.19
2517.66
2514.94
2512.99
2511.35
2514.15
2532.53
2594
2711.5
2811.54
2826.34
2819.24
2777.96
2752.95
2642.45
2576.89
2713.13
2826.86
3020.15
3160.95
3317.55
3459.65
3572.23
3594.14
3469.2
3221.37
3008.29
2874.46
2765.47
2652.06
2543.62
2470.64
2439.14
2435.01
2438.81
2439.73
2436.04
2426.24
2413.43
2401.86
2392.32
2387.2
2382.73
2379.49
2376.81
2388.11
2439.54
2567.27
2767.15
2901.8
2938.59
2954.96
2938.99
2885.33
2750.07
2592.37
2762.95
2934.9
3129.7
3286.15
3440.19
3596.31
3737.26
3780.82
3679.01
3434.38
3186.69
3025.75
2913.96
2800.04
2662.18
2525.61
2430.98
2387.06
2374.48
2369.28
2361.2
2347.12
2330.28
2315.33
2303.34
2296.76
2291.11
2286.47
2283.98
2313.11
2392.43
2610.72
2862.75
2993.33
3037.39
3061.87
3042.34
2943.04
2778.13
2607.65
2799.5
2960.01
3158.32
3317.62
3462.66
3600.25
3726.4
3768.48
3700.9
3517.07
3305.67
3148.24
3036.3
2939.26
2820.31
2664.22
2496.46
2380.11
2326.95
2310.19
2298.99
2283.31
2264.23
2246.4
2231.64
2222.87
2214.92
2208.9
2209.75
2250.02
2380.92
2680.74
2945.8
3047.09
3088.99
3104.86
3064.91
2961.35
2821.9
2630.25
2734.97
2849.42
3004.27
3147.91
3287.97
3418.28
3550.26
3598.68
3549.89
3433.36
3315.96
3212.45
3109.87
3016
2930.01
2813.98
2635.9
2433.88
2294.46
2238.25
2217.1
2200.33
2181.09
2162.09
2145.47
2134.94
2125.02
2117.66
2122.76
2170.81
2364.72
2716.08
2965.58
3037.91
3081.55
3091.47
3041.53
2945.99
2831.84
2644.91
2652.39
2634.21
2653.15
2688.46
2732.47
2786.27
2850.43
2889.85
2901.94
2931.67
2991.41
3034.51
3045.44
3020.93
2965.07
2879.11
2747.94
2548.75
2324.91
2177.6
2123.43
2099.49
2079.19
2059.11
2040.48
2027.73
2015.4
2006.24
2013.79
2065.81
2320.12
2710.05
2946.04
3006.28
3049.08
3062.48
3011.52
2923.73
2834.22
2669.53
2581.42
2498.65
2426.44
2393.73
2368.8
2330.03
2276.32
2247.16
2242.64
2276.39
2367.18
2483.74
2600.33
2686.19
2727.69
2729.86
2689.84
2579.7
2379.29
2149.02
2014.25
1969.72
1947.19
1927.51
1908.56
1894.81
1881.74
1872.48
1878.54
1933.36
2231.73
2669.44
2908.87
2971.41
3005.58
2997.31
2924.71
2830.64
2759.16
2662.14
2677.06
2502.02
2362.2
2275.3
2225.46
2222.7
2220.63
2192.52
2178.86
2168.83
2190.76
2226.22
2267.95
2300.6
2315.91
2319.34
2321.37
2297.84
2194.45
2005.59
1817.34
1727.67
1702.22
1688.14
1675.07
1664.78
1654.27
1647.24
1649.21
1698.46
2005.63
2488.54
2742.03
2805.14
2824.01
2791.92
2710.79
2644.96
2638.19
2649.19
2906.75
2728.62
2595.26
2488.06
2380.48
2281.05
2216.25
2200.25
2196.52
2214
2245.4
2260.53
2277.23
2273.05
2241.19
2187.22
2114.47
2032.9
1936.92
1770.36
1534.14
1373.17
1320.57
1303.46
1293.18
1285.02
1277.01
1271.94
1269.55
1303.88
1563.09
2079.38
2382.39
2477.93
2507.44
2491.18
2464.76
2477.47
2551.94
2647.15
3143.35
2995.48
2857.31
2749.53
2658.02
2567.66
2459.41
2361.14
2288.38
2226.21
2259.12
2339.18
2357.19
2366.9
2343.08
2272.05
2170.33
2053.34
1919.44
1745.13
1510.13
1259.94
1127.01
1084.27
1062.75
1046.27
1032.46
1021.69
1015.05
1035.36
1223.9
1675.81
1989.38
2131.07
2220.35
2280.28
2334.94
2407.17
2523.5
2649.39
3406.1
3254.18
3091.11
2949.41
2839.34
2754.02
2676.43
2597.22
2531.33
2434.8
2334.84
2367.92
2434.97
2455.18
2452.62
2409.2
2309.9
2176.01
2023.64
1847.97
1612.09
1325.32
1125.86
1052.98
1025.61
1006.69
990.537
977.073
968.657
985.245
1158.28
1574.08
1869.62
2020.37
2132.31
2215.53
2285.62
2380.52
2516.1
2650.08
3642.73
3471.68
3298.93
3146.4
3012.19
2889.16
2804.74
2744.68
2717.58
2696.8
2590.83
2503.37
2522.43
2531.19
2543.09
2521.45
2449.9
2324.86
2166.79
1983.49
1750.1
1445.88
1173.88
1056.04
1019.19
998.91
982.058
967.543
958.271
973.605
1146.97
1555.83
1842.01
1989.73
2102.58
2193.89
2276.06
2378.62
2516.89
2651.46
3807.26
3626.44
3433.77
3250.15
3098.95
2963.93
2888.98
2857.88
2848.04
2884.77
2878.37
2733.61
2673.55
2670.1
2629.44
2614.29
2570.59
2464.71
2306.85
2117.6
1887.24
1579.26
1250.57
1072.42
1020.83
999.597
982.731
967.801
957.971
972.563
1147.95
1558.1
1842.15
1988.91
2101.82
2193.84
2276.21
2379.47
2518.25
2652.4
3899.28
3716.86
3519
3315.54
3122.06
2926.28
2833.08
2814.63
2844.01
2960.66
3108.81
3068.78
2861.9
2797.77
2761.89
2705.58
2667.34
2588.88
2443.91
2249.4
2014.68
1707.55
1341.77
1097.42
1021.86
998.298
981.497
966.313
956.126
970.027
1148.33
1560.12
1842.69
1989.18
2101.31
2193.14
2275.53
2380.47
2520.02
2653.65
3941.92
3744.31
3539.18
3337.57
3144.52
2894.59
2705.76
2690.15
2755.54
2966.91
3223.71
3296.56
3155.79
2921.78
2852.73
2791.39
2745.86
2691.95
2570.45
2378.13
2136.01
1826.74
1437.54
1130.63
1023.5
996.056
979.255
963.864
953.368
966.532
1145.81
1557.55
1839.08
1985.5
2097.22
2189.95
2273.35
2380.79
2521.33
2654.44
3950.88
3729.23
3529.61
3327.16
3126.58
2892.08
2663.68
2595.32
2575.97
2691.29
3116.66
3354.26
3319.63
3079.04
2922.09
2859
2804.88
2767.53
2677.29
2497.75
2250.26
1935.41
1530.2
1170.15
1027.4
994.355
977.51
961.96
951.256
963.753
1144.86
1556.95
1836.64
1982.23
2093.43
2187.08
2271.64
2381.7
2522.93
2655.42
3945.45
3792.89
3611.43
3402.96
3192.35
2981.68
2773.88
2605.6
2454.51
2500.5
3014.67
3435.75
3422.87
3192.02
2967.88
2896.61
2853.38
2823.58
2758.68
2597.41
2349.49
2029.47
1612.98
1210.68
1032.8
993.265
976.322
960.601
949.723
961.64
1144
1555.76
1833.63
1978.38
2089.23
2183.84
2269.73
2382.01
2523.8
2655.88
3902.48
3562.24
3261.78
3035.47
2848.39
2718.83
2585.94
2417.71
2264.1
2285.35
2730.13
3350.54
3404.12
3227.85
3005.73
2925.46
2894.62
2873.63
2822.31
2671.57
2423.25
2102.19
1680.68
1247.29
1038.56
992.653
975.57
959.681
948.698
960.177
1143.89
1555.57
1831.82
1975.72
2086.34
2181.62
2269.03
2383.19
2525.44
2656.81
3332.87
3098.23
2919.89
2801.91
2674.91
2571.02
2455.56
2267.67
2053.09
2044.29
2375.51
3173.6
3304.45
3215.32
3067.6
2985.09
2946.95
2920.26
2873.41
2733.81
2488.97
2160.52
1729.46
1274.08
1043.14
992.369
975.143
959.111
948.038
959.243
1143.87
1555.25
1830.27
1973.67
2084.34
2180.38
2269.36
2385
2528.07
2658.89
)
;

boundaryField
{
    inlet
    {
        type            calculated;
        value           uniform 14000.1;
    }
    outlet
    {
        type            calculated;
        value           nonuniform List<scalar> 
165
(
3438.62
4036.51
4072.25
4067.62
4037.49
3989.94
3897.68
3730.17
3483.41
3202.17
2958.3
2782.5
2675.89
2609.5
2583.48
2565.97
2575.2
2598.33
2923.37
3966.66
3966.66
3196.02
2679.58
2622.83
2581.44
2543.33
2518.96
2518.03
2547.75
2588.8
2616.98
2638.07
2657.8
2673.13
2683.85
2688.69
2691.24
2694.34
2698.76
2704.02
2709.83
2715.97
2721.48
2725.42
2727.9
2729.3
2730.21
2730.44
2730.28
2728.76
2724.26
2710.37
2679.47
2628.7
2593.97
2579.77
2591.06
2626.4
2927.47
3692.11
2743.7
2742.79
2741.5
2739.83
2738.17
2736.66
2735.24
2733.53
2731.43
2727.2
2719.5
2699.56
2660.82
2608.61
2582.49
2574.63
2587.79
2626.06
2935.44
3692.11
2744.84
2745.15
2745.43
2745.15
2744.84
3692.11
2935.44
2626.06
2587.79
2574.63
2582.49
2608.61
2660.82
2699.56
2719.5
2727.2
2731.43
2733.53
2735.24
2736.66
2738.17
2739.83
2741.5
2742.79
2743.7
3966.66
3196.02
2679.58
2622.83
2581.44
2543.33
2518.96
2518.03
2547.75
2588.8
2616.98
2638.07
2657.8
2673.13
2683.85
2688.69
2691.24
2694.34
2698.76
2704.02
2709.83
2715.97
2721.48
2725.42
2727.9
2729.3
2730.21
2730.44
2730.28
2728.76
2724.26
2710.37
2679.47
2628.7
2593.97
2579.77
2591.06
2626.4
2927.47
3692.11
3966.66
2923.37
2598.33
2575.2
2565.97
2583.48
2609.5
2675.89
2782.5
2958.3
3202.17
3483.41
3730.17
3897.68
3989.94
4037.49
4067.62
4072.25
4036.51
3438.62
)
;
    }
    obstacle
    {
        type            calculated;
        value           nonuniform List<scalar> 
40
(
17315.2
12088.2
12446.3
12678.3
12688.6
12659.7
12586.1
12488.6
12399.1
12353.9
17315.2
12088.2
12446.3
12678.3
12688.6
12659.7
12586.1
12488.6
12399.1
12353.9
12482.5
12284.2
12134.3
11774.1
11616.3
12482.5
12284.2
12134.3
11774.1
11616.3
6130.77
4165.13
3223.75
2708.33
2176.7
6130.77
4165.13
3223.75
2708.33
2176.7
)
;
    }
    empty
    {
        type            empty;
    }
}


// ************************************************************************* //
