/*--------------------------------*- C++ -*----------------------------------*\
| =========                 |                                                 |
| \\      /  F ield         | OpenFOAM: The Open Source CFD Toolbox           |
|  \\    /   O peration     | Version:  v1912                                 |
|   \\  /    A nd           | Website:  www.openfoam.com                      |
|    \\/     M anipulation  |                                                 |
\*---------------------------------------------------------------------------*/
FoamFile
{
    version     2.0;
    format      ascii;
    class       volVectorField;
    location    "4.74";
    object      grad(rho);
}
// * * * * * * * * * * * * * * * * * * * * * * * * * * * * * * * * * * * * * //

dimensions      [1 -4 0 0 0 0 0];


internalField   nonuniform List<vector> 
1900
(
(159735 -0.799053 0)
(-135235 -0.11746 0)
(-17290.6 0.990883 0)
(-3854.2 0.363067 0)
(-2298.05 1.55781 0)
(-1640.25 6.47255 0)
(-1523.84 19.438 0)
(-1388.17 38.746 0)
(-1444.96 -118.77 0)
(-695.423 -171.323 0)
(159734 -1.33221 0)
(-135234 0.0114529 0)
(-17290.2 1.76065 0)
(-3853.64 1.36194 0)
(-2291.94 2.72319 0)
(-1622.37 7.6968 0)
(-1491.56 19.0298 0)
(-1526.38 28.6856 0)
(-1655.03 -161.656 0)
(-1550.53 -218.63 0)
(159733 1.53477e-08 0)
(-135232 8.88178e-10 0)
(-17289.3 -1.22569e-09 0)
(-3853.24 -4.44089e-10 0)
(-2291.71 -7.31859e-09 0)
(-1623.94 -5.24025e-09 0)
(-1502.85 1.68754e-09 0)
(-1568.86 3.19744e-09 0)
(-1692.28 5.82645e-09 0)
(-1583.89 2.80664e-09 0)
(159734 1.33221 0)
(-135234 -0.0114529 0)
(-17290.2 -1.76065 0)
(-3853.64 -1.36194 0)
(-2291.94 -2.72319 0)
(-1622.37 -7.6968 0)
(-1491.56 -19.0298 0)
(-1526.38 -28.6856 0)
(-1655.03 161.656 0)
(-1550.53 218.63 0)
(159735 0.799053 0)
(-135235 0.11746 0)
(-17290.6 -0.990883 0)
(-3854.2 -0.363067 0)
(-2298.05 -1.55781 0)
(-1640.25 -6.47255 0)
(-1523.84 -19.438 0)
(-1388.17 -38.746 0)
(-1444.96 118.77 0)
(-695.423 171.323 0)
(-612.758 -876.506 1.32821e-11)
(-1138.67 -917.71 -1.57329e-11)
(-1041.19 -1443.13 -1.98533e-11)
(-863.129 -1575.37 0)
(-11409 -8325.29 -8.46343e-11)
(-1278.55 -952.819 1.31238e-11)
(-1189.47 -1039.04 1.57329e-11)
(-1068.08 -1561.91 1.98533e-11)
(-2951.45 -1576.32 0)
(-10417.2 -6743.61 0)
(-1684.08 9.33231e-10 0)
(-1547.13 5.45373e-10 0)
(-1483.76 -1.35694e-09 0)
(-2796.89 -1.04294e-09 0)
(-13217.9 -1.37456e-09 0)
(-1278.55 952.819 1.31238e-11)
(-1189.47 1039.04 1.57329e-11)
(-1068.08 1561.91 1.98533e-11)
(-2951.45 1576.32 0)
(-10417.2 6743.61 0)
(-612.758 876.506 -3.95296e-11)
(-1138.67 917.71 -1.57329e-11)
(-1041.19 1443.13 -1.98533e-11)
(-863.129 1575.37 -5.37885e-11)
(-11409 8325.29 8.46343e-11)
(-19162.4 9814.61 2.79353e-11)
(-3857.41 2702.73 -2.26943e-11)
(-5279.46 1401.92 0)
(-7411.07 1029.34 1.5624e-11)
(-11915.3 1480.98 -6.36639e-12)
(-15538.4 11209.6 -1.41154e-11)
(-5743.16 1779.72 1.13878e-11)
(-5679.45 570.854 0)
(-7253.8 442.282 -9.78773e-12)
(-10968.9 661.877 1.60773e-12)
(-16966.8 -1.61487e-09 0)
(-6531.39 -9.86865e-10 0)
(-5743.6 1.25003e-09 0)
(-7411.31 -2.55424e-09 3.92042e-12)
(-10171.1 2.12955e-09 -3.21546e-12)
(-15538.4 -11209.6 -1.41154e-11)
(-5743.16 -1779.72 1.13878e-11)
(-5679.45 -570.854 0)
(-7253.8 -442.282 -9.78773e-12)
(-10968.9 -661.877 1.60773e-12)
(-19162.4 -9814.61 1.41154e-11)
(-3857.41 -2702.73 -8.13973e-14)
(-5279.46 -1401.92 0)
(-7411.07 -1029.34 3.10004e-14)
(-11915.3 -1480.98 6.36639e-12)
(-14549.3 5653.55 0)
(-5863.9 4058.67 0)
(1708.63 3221.39 0)
(-163.841 2620.36 0)
(-1911.89 1418.85 0)
(-1961.99 570.311 0)
(-1599.76 224.496 0)
(-1484.14 145.625 0)
(-1472.76 102.205 0)
(-1358.62 117.843 0)
(-1053.47 37.0266 0)
(-658.647 8.82121 0)
(-402.212 1.86496 0)
(-284.584 1.92457 0)
(-233.555 1.89447 0)
(-199.493 1.23731 0)
(-168.737 0.312579 0)
(-140.252 -0.43146 0)
(-116.054 -0.96338 0)
(-95.1843 -1.32292 0)
(-75.9375 -1.57969 0)
(-59.5877 -1.7553 0)
(-44.6817 -1.85483 0)
(-30.4768 -1.89423 0)
(-18.1136 -1.8647 0)
(-8.33869 -1.80076 0)
(-1.26228 -1.72302 0)
(4.1235 -1.75804 0)
(12.3963 -1.69189 0)
(22.8369 -1.92745 0)
(49.38 -1.81326 0)
(79.837 -1.06393 0)
(123.6 -0.408275 0)
(157.771 2.37631 0)
(198.549 2.11419 0)
(222.543 7.65368 0)
(272.488 -0.54522 0)
(2852.43 14.3957 0)
(46379.8 -80.0091 0)
(-47438 -3325.78 0)
(-14214.6 5464.57 0)
(-6531.16 5806.27 0)
(1373.06 4734.12 0)
(-314.348 2462.33 0)
(-2124.92 1087.61 0)
(-2116.58 331.433 0)
(-1656.41 105.939 0)
(-1498.87 59.2319 0)
(-1471.76 32.3054 0)
(-1363.74 58.8308 0)
(-1065.82 9.95062 0)
(-660.905 1.53872 0)
(-402.511 -0.623885 0)
(-284.474 -0.233874 0)
(-233.552 -0.0586956 0)
(-199.579 -0.161315 0)
(-168.843 -0.438356 0)
(-140.337 -0.649417 0)
(-116.125 -0.791983 0)
(-95.2452 -0.93575 0)
(-75.9856 -1.07318 0)
(-59.6224 -1.1868 0)
(-44.7066 -1.27054 0)
(-30.4942 -1.33604 0)
(-18.1243 -1.37732 0)
(-8.34458 -1.39583 0)
(-1.2827 -1.3986 0)
(4.09976 -1.47079 0)
(12.3496 -1.46783 0)
(22.7883 -1.61271 0)
(49.4434 -1.55201 0)
(79.9844 -0.999885 0)
(123.906 -0.197737 0)
(158.003 1.63416 0)
(199.274 3.32148 0)
(222.667 9.62045 0)
(272.832 12.1431 0)
(2840.98 24.16 0)
(46303.3 -39.2747 0)
(-47397.8 1262.93 0)
(-12737.5 -9.30165e-09 0)
(-6076.39 4.01941e-08 0)
(735.845 5.08523e-08 0)
(-1224.64 2.8131e-08 0)
(-2531.79 -1.14494e-08 0)
(-2247.57 1.28705e-08 0)
(-1678.94 -6.28184e-09 0)
(-1505.56 -2.54342e-08 0)
(-1472.87 -3.00366e-08 0)
(-1365.13 -1.09327e-08 0)
(-1070.14 -2.48367e-08 0)
(-661.724 -1.03675e-08 0)
(-402.728 -2.4223e-09 0)
(-284.419 5.49056e-09 0)
(-233.534 3.40738e-09 0)
(-199.603 -3.58501e-09 0)
(-168.879 -1.16271e-09 0)
(-140.355 -1.195e-08 0)
(-116.137 -2.6823e-08 0)
(-95.2661 -8.0582e-09 0)
(-76.0105 4.82846e-09 0)
(-59.6451 1.46307e-08 0)
(-44.7251 1.92815e-08 0)
(-30.5078 1.85549e-08 0)
(-18.131 2.61932e-08 0)
(-8.34487 4.04686e-08 0)
(-1.28408 5.11591e-08 0)
(4.10336 4.70089e-08 0)
(12.3551 3.52203e-08 0)
(22.8124 1.71984e-08 0)
(49.5583 9.64077e-09 0)
(80.2309 4.70089e-08 0)
(124.367 9.47767e-08 0)
(158.795 1.42819e-07 0)
(200.872 1.3812e-07 0)
(225.109 1.94963e-07 0)
(276.717 1.39525e-07 0)
(2837.47 7.68517e-08 0)
(46740.2 -1.84693e-07 0)
(-47943.3 -2.2718e-07 0)
(-14214.6 -5464.57 0)
(-6531.16 -5806.27 0)
(1373.06 -4734.12 0)
(-314.348 -2462.33 0)
(-2124.92 -1087.61 0)
(-2116.58 -331.433 0)
(-1656.41 -105.939 0)
(-1498.87 -59.2319 0)
(-1471.76 -32.3054 0)
(-1363.74 -58.8308 0)
(-1065.82 -9.95062 0)
(-660.905 -1.53872 0)
(-402.511 0.623885 0)
(-284.474 0.233874 0)
(-233.552 0.0586956 0)
(-199.579 0.161315 0)
(-168.843 0.438356 0)
(-140.337 0.649417 0)
(-116.125 0.791983 0)
(-95.2452 0.93575 0)
(-75.9856 1.07318 0)
(-59.6224 1.1868 0)
(-44.7066 1.27054 0)
(-30.4942 1.33604 0)
(-18.1243 1.37732 0)
(-8.34458 1.39583 0)
(-1.2827 1.3986 0)
(4.09976 1.47079 0)
(12.3496 1.46783 0)
(22.7883 1.61271 0)
(49.4434 1.55201 0)
(79.9844 0.999884 0)
(123.906 0.197737 0)
(158.003 -1.63416 0)
(199.274 -3.32148 0)
(222.667 -9.62045 0)
(272.832 -12.1431 0)
(2840.98 -24.16 0)
(46303.3 39.2747 0)
(-47397.8 -1262.93 0)
(-14549.3 -5653.55 0)
(-5863.9 -4058.67 0)
(1708.63 -3221.39 0)
(-163.841 -2620.36 0)
(-1911.89 -1418.85 0)
(-1961.99 -570.311 0)
(-1599.76 -224.496 0)
(-1484.14 -145.625 0)
(-1472.76 -102.205 0)
(-1358.62 -117.843 0)
(-1053.47 -37.0266 0)
(-658.647 -8.82121 0)
(-402.212 -1.86496 0)
(-284.584 -1.92457 0)
(-233.555 -1.89447 0)
(-199.493 -1.23731 0)
(-168.737 -0.312579 0)
(-140.252 0.431461 0)
(-116.054 0.96338 0)
(-95.1843 1.32292 0)
(-75.9375 1.57969 0)
(-59.5877 1.7553 0)
(-44.6817 1.85483 0)
(-30.4768 1.89423 0)
(-18.1136 1.8647 0)
(-8.33869 1.80075 0)
(-1.26228 1.72302 0)
(4.1235 1.75804 0)
(12.3963 1.69189 0)
(22.8369 1.92745 0)
(49.38 1.81326 0)
(79.837 1.06393 0)
(123.6 0.408275 0)
(157.771 -2.37631 0)
(198.549 -2.11419 0)
(222.543 -7.65368 0)
(272.488 0.54522 0)
(2852.43 -14.3957 0)
(46379.8 80.0091 0)
(-47438 3325.78 0)
(18860.4 2595.5 0)
(-5777.06 -3525.16 0)
(1887.27 -3786.16 0)
(642.314 -3073.82 0)
(-1085.3 -1823.32 0)
(-1546.14 -894.463 0)
(-1455.53 -450.125 0)
(-1439.19 -295.984 0)
(-1453.18 -208.441 0)
(-1328.77 -171.956 0)
(-1011.72 -76.3535 0)
(-641.459 -22.6659 0)
(-398.531 -7.24233 0)
(-284.365 -5.87985 0)
(-233.117 -5.37586 0)
(-198.686 -3.8858 0)
(-167.919 -2.07589 0)
(-139.634 -0.617807 0)
(-115.649 0.364885 0)
(-94.929 0.967914 0)
(-75.7701 1.38306 0)
(-59.4899 1.66663 0)
(-44.6482 1.82149 0)
(-30.5082 1.86654 0)
(-18.1953 1.78197 0)
(-8.44026 1.64139 0)
(-1.33311 1.48997 0)
(4.05277 1.48186 0)
(12.4018 1.38091 0)
(22.8082 1.69239 0)
(48.975 1.46291 0)
(79.2736 0.377654 0)
(122.101 -0.651046 0)
(156.689 -5.17052 0)
(196.803 -5.27892 0)
(224.479 -11.5124 0)
(269.001 -1.22514 0)
(2877.59 -25.8806 0)
(48310.1 -40.1407 0)
(-49646.4 510.296 0)
(18483 9252.15 0)
(-12060.1 -2512.68 0)
(2047.76 -2449.13 0)
(1295.33 -2414.45 0)
(-255.035 -1790.67 0)
(-861.724 -1109.61 0)
(-1100.38 -680.77 0)
(-1275.34 -441.539 0)
(-1363.73 -322.357 0)
(-1247.35 -224.015 0)
(-931.993 -110.054 0)
(-601.266 -39.2864 0)
(-388.011 -14.7806 0)
(-282.903 -10.1993 0)
(-231.868 -8.34144 0)
(-196.746 -5.7622 0)
(-166.026 -2.99772 0)
(-138.231 -0.819551 0)
(-114.742 0.64349 0)
(-94.34 1.55491 0)
(-75.3539 2.20746 0)
(-59.2177 2.66554 0)
(-44.5071 2.92701 0)
(-30.498 3.02749 0)
(-18.2867 2.9402 0)
(-8.56559 2.78387 0)
(-1.37802 2.61966 0)
(4.05634 2.69864 0)
(12.5963 2.67045 0)
(22.9313 3.26923 0)
(48.3303 3.10705 0)
(78.1019 1.65091 0)
(119.058 0.116243 0)
(153.891 -5.92905 0)
(193.373 -7.07968 0)
(225.411 -14.6224 0)
(260.512 -7.87143 0)
(2801.44 -34.7416 0)
(45861.4 -179.419 0)
(-46850.4 -3519.06 0)
(19933 7543.39 0)
(-17052.8 -1250.53 0)
(1981.93 -1238.85 0)
(1276.83 -1713.4 0)
(172.09 -1372.35 0)
(-476.604 -1028.39 0)
(-811.748 -746.002 0)
(-1093.81 -536.56 0)
(-1243.57 -415.208 0)
(-1124.19 -267.24 0)
(-833.713 -138.07 0)
(-549.65 -56.2561 0)
(-370.502 -24.7983 0)
(-278.16 -15.7741 0)
(-228.841 -11.4566 0)
(-193.537 -7.30946 0)
(-163.156 -3.43813 0)
(-136.126 -0.472416 0)
(-113.361 1.51002 0)
(-93.4219 2.78971 0)
(-74.6999 3.72324 0)
(-58.7965 4.37851 0)
(-44.2994 4.7405 0)
(-30.4955 4.86363 0)
(-18.43 4.72594 0)
(-8.74915 4.51811 0)
(-1.41524 4.31174 0)
(4.10171 4.50057 0)
(12.9517 4.5209 0)
(23.229 5.45858 0)
(47.4155 5.36749 0)
(76.3916 3.43835 0)
(114.797 1.44059 0)
(149.755 -5.64733 0)
(188.426 -7.42731 0)
(223.716 -15.9454 0)
(249.614 -13.7755 0)
(2712.28 -33.0116 0)
(44952.5 -123.33 0)
(-45906.8 -1872.75 0)
(22324.7 5634.6 0)
(-20522.9 -386.383 0)
(1601.72 -706.877 0)
(1166.69 -1189.73 0)
(405.071 -1019.07 0)
(-258.151 -892.773 0)
(-626.435 -720.855 0)
(-956.576 -591.548 0)
(-1104.21 -457.445 0)
(-980.285 -289.308 0)
(-728.681 -150.155 0)
(-492.113 -67.9705 0)
(-349.001 -33.5267 0)
(-270.046 -20.8696 0)
(-223.711 -13.9077 0)
(-189.019 -8.13531 0)
(-159.438 -3.30472 0)
(-133.463 0.268811 0)
(-111.599 2.67787 0)
(-92.2073 4.30438 0)
(-73.8229 5.52845 0)
(-58.2374 6.39477 0)
(-44.0396 6.86618 0)
(-30.5121 7.02064 0)
(-18.6197 6.85581 0)
(-8.96473 6.64595 0)
(-1.39492 6.44503 0)
(4.25789 6.82778 0)
(13.5194 6.97487 0)
(23.7471 8.24085 0)
(46.3835 8.21546 0)
(74.3178 5.86871 0)
(110.303 3.38501 0)
(145.346 -3.92485 0)
(183.45 -6.43621 0)
(219.294 -14.9318 0)
(244.066 -18.816 0)
(2695.87 -24.3305 0)
(44088.5 -79.7105 0)
(-45025 -1843.6 0)
(24689 4573.01 0)
(-23163.7 -68.2363 0)
(1207.79 -416.069 0)
(975.989 -762.81 0)
(458.253 -745.897 0)
(-189.233 -765.953 0)
(-521.477 -684.336 0)
(-839.983 -600.173 0)
(-952.32 -450.426 0)
(-828.074 -285.723 0)
(-620.424 -146.937 0)
(-437.263 -72.8316 0)
(-325.113 -38.8574 0)
(-259.254 -24.1557 0)
(-216.57 -15.228 0)
(-183.319 -8.28755 0)
(-155.057 -2.86673 0)
(-130.361 1.07631 0)
(-109.472 3.84396 0)
(-90.675 5.79094 0)
(-72.6855 7.31613 0)
(-57.5074 8.42769 0)
(-43.6963 9.06554 0)
(-30.5055 9.34485 0)
(-18.7911 9.3114 0)
(-9.14499 9.3228 0)
(-1.24003 9.32851 0)
(4.61229 10.1888 0)
(14.3133 10.7942 0)
(24.4244 12.68 0)
(45.1296 13.1097 0)
(71.7368 10.8244 0)
(105.359 8.40849 0)
(140.291 1.55336 0)
(177.819 -0.77677 0)
(211.786 -7.87285 0)
(240.557 -14.0633 0)
(2653.6 -9.0898 0)
(43199.4 -64.886 0)
(-44090.8 -2060.61 0)
(26576.1 5020.11 0)
(-25330.6 -3.98198 0)
(932.405 -335.462 0)
(848.851 -506.4 0)
(402.042 -602.814 0)
(-198.828 -671.581 0)
(-466.684 -649.88 0)
(-731.172 -573.343 0)
(-801.19 -418.763 0)
(-687.832 -262.257 0)
(-523.531 -140.187 0)
(-387.964 -74.54 0)
(-302.095 -42.7722 0)
(-247.276 -26.8087 0)
(-208.42 -16.5313 0)
(-177.107 -8.83746 0)
(-150.414 -3.05428 0)
(-126.996 1.18131 0)
(-107.056 4.25537 0)
(-88.8614 6.46639 0)
(-71.2821 8.27513 0)
(-56.5516 9.65518 0)
(-43.1558 10.509 0)
(-30.2752 10.987 0)
(-18.6409 11.1942 0)
(-8.94824 11.5694 0)
(-0.560428 11.8586 0)
(5.6703 13.2095 0)
(15.92 14.25 0)
(25.9783 16.5077 0)
(44.5954 17.0633 0)
(69.7876 14.4417 0)
(101.369 11.3221 0)
(136.495 3.79015 0)
(174.366 0.837994 0)
(206.49 -4.92699 0)
(242.893 -12.0425 0)
(2646.9 -0.131232 0)
(42111.6 -66.1705 0)
(-42984.7 -2269.67 0)
(29513.3 2739.78 0)
(-28324.5 -35.8844 0)
(723.642 -286.858 0)
(718.359 -414.736 0)
(299.078 -549.428 0)
(-234.587 -611.989 0)
(-426.812 -607.788 0)
(-617.27 -518.689 0)
(-652.546 -368.9 0)
(-559.628 -225.927 0)
(-439.533 -124.776 0)
(-343.39 -69.6196 0)
(-279.118 -41.3316 0)
(-233.967 -25.6843 0)
(-199.252 -15.4103 0)
(-170.332 -7.8642 0)
(-145.403 -2.38206 0)
(-123.317 1.60179 0)
(-104.38 4.52996 0)
(-86.8014 6.80948 0)
(-69.6126 8.88698 0)
(-55.3548 10.6342 0)
(-42.4129 11.8926 0)
(-29.8451 12.8717 0)
(-18.2298 13.7571 0)
(-8.50479 14.991 0)
(0.34041 16.0473 0)
(6.91673 18.5082 0)
(17.4916 20.5177 0)
(27.1355 23.6517 0)
(43.1388 25.0007 0)
(66.2043 22.7285 0)
(95.0949 19.7418 0)
(130.188 11.9059 0)
(169.419 7.72115 0)
(199.374 1.49542 0)
(245.178 -6.32011 0)
(2601.44 5.30188 0)
(41012.4 -94.5603 0)
(-41850 -2514.05 0)
(29130.7 -103.324 0)
(-28247.2 -103.955 0)
(567.33 -255.206 0)
(595.829 -375.174 0)
(211.962 -521.942 0)
(-255.066 -554.774 0)
(-376.777 -541.539 0)
(-500.97 -445.472 0)
(-519.074 -312.831 0)
(-452.585 -192.267 0)
(-372.908 -111.501 0)
(-307.554 -65.7178 0)
(-259.757 -40.2792 0)
(-222.297 -24.6207 0)
(-191.248 -14.1391 0)
(-164.552 -7.03731 0)
(-141.293 -2.18509 0)
(-120.335 1.32355 0)
(-102.037 4.20268 0)
(-84.6628 6.72084 0)
(-67.5964 9.12814 0)
(-53.6553 11.2224 0)
(-40.9996 12.8178 0)
(-28.4784 14.2042 0)
(-16.5988 15.6108 0)
(-6.74132 17.4039 0)
(2.82888 18.8055 0)
(9.97819 21.8113 0)
(20.8765 23.9606 0)
(30.2983 26.9908 0)
(43.7058 28.335 0)
(64.7199 25.852 0)
(90.9396 22.0574 0)
(124.911 14.4626 0)
(164.334 9.51668 0)
(192.96 4.57201 0)
(246.561 -2.44035 0)
(2561.86 9.16252 0)
(39683.9 -108.294 0)
(-40508 -2682.63 0)
(29237.5 -329.112 0)
(-28470.9 -123.193 0)
(462.286 -238.613 0)
(461.322 -356.879 0)
(126.009 -507.941 0)
(-253.472 -506.454 0)
(-321.485 -473.458 0)
(-396.878 -377.315 0)
(-408.548 -263.942 0)
(-365.62 -164.771 0)
(-317.586 -99.117 0)
(-274.758 -58.876 0)
(-239.515 -34.1229 0)
(-208.778 -17.7084 0)
(-182.308 -7.13763 0)
(-158.813 -0.763676 0)
(-137.346 3.41619 0)
(-117.161 6.57782 0)
(-99.1785 9.45736 0)
(-82.0551 12.0801 0)
(-65.2748 14.6854 0)
(-51.7993 17.07 0)
(-39.5396 19.0247 0)
(-27.1537 20.87 0)
(-15.1465 22.7381 0)
(-5.4262 24.8724 0)
(4.58762 26.2936 0)
(11.8843 29.2414 0)
(22.4827 30.4562 0)
(31.3508 31.8715 0)
(42.0414 31.5302 0)
(60.155 27.3014 0)
(84.1196 20.4343 0)
(118.104 10.8519 0)
(159.888 3.99652 0)
(187.852 0.769525 0)
(249.602 -3.87825 0)
(2499.44 9.77247 0)
(38418.5 -154.031 0)
(-39237.7 -2939.88 0)
(28742.2 -1086.8 0)
(-28160 -121.143 0)
(342.142 -235.585 0)
(336.295 -348.25 0)
(67.8262 -479.779 0)
(-221.837 -447.516 0)
(-252.334 -397.84 0)
(-299.073 -309.439 0)
(-314.258 -215.773 0)
(-293.754 -135.979 0)
(-270.863 -82.3693 0)
(-244.923 -46.1382 0)
(-220.087 -22.4559 0)
(-196.293 -7.64808 0)
(-174.92 1.55671 0)
(-154.382 7.62032 0)
(-134.218 11.8161 0)
(-114.514 15.2127 0)
(-96.735 18.2538 0)
(-79.6249 21.0247 0)
(-62.7879 23.8841 0)
(-49.4738 26.557 0)
(-37.3378 28.7316 0)
(-24.9001 30.7545 0)
(-12.742 32.6162 0)
(-3.31504 34.5598 0)
(7.0391 35.6955 0)
(13.9893 38.6054 0)
(23.411 38.9342 0)
(31.3333 38.9934 0)
(39.3018 37.0463 0)
(54.0274 31.2941 0)
(75.0883 21.7532 0)
(109.071 9.33972 0)
(154.619 -1.90344 0)
(185.371 -7.90182 0)
(255.237 -13.4088 0)
(2417.17 -0.242157 0)
(36841.5 -216.178 0)
(-37647 -3229.38 0)
(28089.5 -1642.28 0)
(-27650.6 -138.711 0)
(243.437 -231.609 0)
(226.008 -326.632 0)
(30.3528 -433.101 0)
(-174.512 -379.451 0)
(-188.429 -321.286 0)
(-221.431 -248.284 0)
(-241.396 -173.313 0)
(-237.068 -109.324 0)
(-231.012 -64.4828 0)
(-217.023 -30.9271 0)
(-202.425 -8.8355 0)
(-185.639 7.16697 0)
(-167.595 18.2925 0)
(-148.927 26.9411 0)
(-130.03 33.6508 0)
(-110.958 39.2261 0)
(-93.5779 43.8856 0)
(-76.6295 47.6141 0)
(-59.9437 50.8494 0)
(-47.1281 53.2917 0)
(-35.4948 54.6 0)
(-23.4104 55.2313 0)
(-11.4796 55.1107 0)
(-2.45891 54.8528 0)
(8.4861 53.7404 0)
(15.0054 54.5098 0)
(22.8566 52.384 0)
(29.5315 49.8202 0)
(34.6221 44.9655 0)
(45.418 37.1614 0)
(62.9636 24.6196 0)
(95.3072 9.50758 0)
(143.273 -5.13574 0)
(176.765 -11.8933 0)
(256.983 -18.0954 0)
(2304.04 -11.9063 0)
(35306.8 -322.246 0)
(-36089.5 -3593.93 0)
(27046.9 -2279.28 0)
(-26800.6 -147.856 0)
(161.055 -223.085 0)
(142.13 -295.262 0)
(16.9282 -369.751 0)
(-114.088 -310.885 0)
(-125.938 -252.275 0)
(-156.481 -192.652 0)
(-180.351 -129.866 0)
(-188.882 -75.405 0)
(-195.317 -36.8442 0)
(-191.299 -6.23151 0)
(-183.378 15.2721 0)
(-170.152 31.958 0)
(-155.865 43.6553 0)
(-139.583 53.0733 0)
(-122.38 60.9764 0)
(-104.651 67.831 0)
(-88.6521 73.6211 0)
(-72.9142 78.025 0)
(-57.3168 81.5695 0)
(-45.8596 83.996 0)
(-35.4687 84.8942 0)
(-24.408 84.7633 0)
(-13.1066 83.4768 0)
(-4.63549 82.1168 0)
(6.70854 79.56 0)
(12.6823 78.6254 0)
(18.8919 74.3942 0)
(24.1845 69.2767 0)
(27.1034 61.3846 0)
(34.4214 50.3693 0)
(48.4401 33.2379 0)
(80.3977 13.5328 0)
(133.996 -6.36682 0)
(172.883 -14.3534 0)
(255.224 -21.3595 0)
(2124.08 -25.2682 0)
(33389.7 -455.318 0)
(-34079.1 -4059.63 0)
(25748.2 -2708.28 0)
(-25669.2 -159.745 0)
(101.392 -214.581 0)
(84.6756 -259.422 0)
(15.2978 -296.232 0)
(-61.3086 -240.245 0)
(-74.4952 -181.655 0)
(-103.473 -134.065 0)
(-128.412 -82.3804 0)
(-147.429 -39.7543 0)
(-164.354 -5.88968 0)
(-166.802 25.8576 0)
(-165.624 47.7188 0)
(-158.287 64.722 0)
(-147.247 76.8126 0)
(-132.235 87.3027 0)
(-115.809 96.8673 0)
(-98.7726 105.708 0)
(-83.7545 113.376 0)
(-68.9701 118.949 0)
(-54.1898 122.634 0)
(-43.9243 124.204 0)
(-34.7553 123.501 0)
(-24.7762 121.395 0)
(-14.0298 117.876 0)
(-6.23332 114.846 0)
(5.12168 110.496 0)
(10.0274 107.42 0)
(13.8479 101.323 0)
(16.995 93.1069 0)
(16.4021 82.0948 0)
(18.2948 67.8945 0)
(27.4667 46.8197 0)
(57.1427 25.0316 0)
(116.401 -0.35073 0)
(162.318 -8.81327 0)
(246.465 -16.4752 0)
(1885.86 -32.3995 0)
(31419.1 -587.508 0)
(-31961.3 -4472.01 0)
(24317.7 -3055.62 0)
(-24397.6 -138.081 0)
(65.0021 -170.036 0)
(63.448 -193.109 0)
(35.4077 -193.97 0)
(-3.67721 -154.529 0)
(-23.6189 -98.6508 0)
(-60.816 -67.9344 0)
(-89.4698 -24.3193 0)
(-115.172 11.1239 0)
(-132.091 40.5616 0)
(-139.64 68.9662 0)
(-145.927 86.6107 0)
(-142.116 101.586 0)
(-134.105 112.02 0)
(-120.257 121.671 0)
(-104.644 130.714 0)
(-88.7427 139.29 0)
(-75.8926 146.911 0)
(-63.9931 152.622 0)
(-52.253 156.774 0)
(-45.0245 158.972 0)
(-38.1751 158.723 0)
(-29.8283 156.885 0)
(-19.4175 153.434 0)
(-11.7472 150.903 0)
(-0.447049 146.787 0)
(3.84338 143.94 0)
(5.09895 138.97 0)
(5.65537 131.065 0)
(2.80774 119.611 0)
(0.429 107.549 0)
(7.13584 86.2823 0)
(34.9425 65.7461 0)
(101.382 35.4726 0)
(157.345 22.8368 0)
(232.496 20.8094 0)
(1573.81 -2.70853 0)
(29111.5 -625.792 0)
(-29448.7 -4775.62 0)
(22772.6 -3615.02 0)
(-22888.5 -35.1849 0)
(48.3656 -57.1673 0)
(61.6113 -72.6137 0)
(52.4741 -53.1878 0)
(30.5447 -42.3868 0)
(8.95089 4.58973 0)
(-31.8447 28.1507 0)
(-52.229 55.4827 0)
(-84.9069 80.6543 0)
(-108.615 100.52 0)
(-122.427 122.416 0)
(-134.19 134.017 0)
(-133.802 145.565 0)
(-127.892 154.432 0)
(-114.222 164.24 0)
(-98.8311 173.781 0)
(-83.1648 183.058 0)
(-70.907 191.37 0)
(-59.4651 197.237 0)
(-48.071 200.673 0)
(-42.0462 201.488 0)
(-36.7662 199.833 0)
(-29.8735 197.149 0)
(-19.7939 193.094 0)
(-12.6388 190.262 0)
(-1.58893 186.109 0)
(2.49536 183.835 0)
(1.44101 181.165 0)
(-1.66066 176.497 0)
(-6.25815 167.41 0)
(-13.8217 162.372 0)
(-12.8162 146.29 0)
(8.18055 132.377 0)
(75.0522 110.662 0)
(148.188 98.9856 0)
(221.849 111.26 0)
(1262.77 89.2307 0)
(26819.7 -512.583 0)
(-27041.6 -4972.54 0)
(20981 -2970.03 0)
(-20969.1 138.457 0)
(28.9344 90.0025 0)
(67.2828 64.6102 0)
(64.5355 70.2361 0)
(51.9993 63.3489 0)
(44.3536 102.25 0)
(-11.7738 120.51 0)
(-38.8754 133.911 0)
(-71.7729 150.92 0)
(-91.8484 162.919 0)
(-107.361 176.369 0)
(-123.62 181.871 0)
(-122.443 191.683 0)
(-116.109 199.884 0)
(-101.612 209.58 0)
(-86.5099 218.061 0)
(-71.7932 224.41 0)
(-62.2293 228.779 0)
(-55.0285 232.043 0)
(-48.1568 236.59 0)
(-45.8336 241.315 0)
(-42.3566 242.931 0)
(-36.3224 241.056 0)
(-26.0534 234.899 0)
(-18.4783 229.12 0)
(-6.64061 220.693 0)
(-0.920588 215.67 0)
(-1.97261 210.529 0)
(-7.59973 206.409 0)
(-10.8034 197.056 0)
(-19.9234 195.997 0)
(-21.7688 183.884 0)
(0.610456 174.728 0)
(69.2049 165.165 0)
(157.921 164.878 0)
(223.096 196.942 0)
(972.656 204.563 0)
(24233.8 -213.505 0)
(-24548.5 -4212.9 0)
(20436.6 -2502.03 0)
(-19939.8 362.212 0)
(-22.7958 297.283 0)
(42.5636 260.391 0)
(51.2587 217.104 0)
(61.395 214.143 0)
(64.0335 234.798 0)
(-1.33533 233.904 0)
(-22.9248 256.943 0)
(-56.9541 259.918 0)
(-84.0913 264.175 0)
(-104.164 255.969 0)
(-119.434 248.971 0)
(-116.444 246.87 0)
(-110.646 244.835 0)
(-96.7058 248.823 0)
(-84.5396 257.013 0)
(-72.8362 267.99 0)
(-63.5522 279.494 0)
(-51.9383 285.229 0)
(-39.1356 287.673 0)
(-35.9358 288.216 0)
(-37.016 284.63 0)
(-37.6135 282.659 0)
(-31.2964 279.464 0)
(-26.3285 281.458 0)
(-14.5491 282.531 0)
(-7.29821 285.33 0)
(-7.48369 288.268 0)
(-14.6445 292.341 0)
(-16.2911 292.019 0)
(-26.5144 294.141 0)
(-33.3119 288.427 0)
(-9.85751 274.121 0)
(65.5605 263.873 0)
(178.809 258.927 0)
(260.091 287.969 0)
(867.253 317.156 0)
(22562.9 84.3891 0)
(-23347.1 -4280.59 0)
(19722.8 35912.6 0)
(-18271.6 3208.08 0)
(-69.1837 1531.69 0)
(-9.98012 1508.99 0)
(19.9684 1654.89 0)
(69.0498 1975.02 0)
(63.3965 2272.19 0)
(9.56594 2527.47 0)
(-13.8076 2754.88 0)
(-64.8037 2884.7 0)
(-95.6542 2978.23 0)
(-122.012 3020.6 0)
(-132.387 3051.65 0)
(-126.429 3062.27 0)
(-114.227 3067.64 0)
(-89.8766 3061.94 0)
(-68.0399 3057.02 0)
(-50.1294 3019.16 0)
(-45.6175 3014.36 0)
(-47.1473 2959.55 0)
(-45.2782 2963.46 0)
(-48.7659 3028.56 0)
(-47.7113 3030.19 0)
(-41.3005 3083.12 0)
(-27.2109 3062.35 0)
(-15.5226 3080.09 0)
(-2.90983 3044.38 0)
(4.60821 3015.35 0)
(4.78337 2959.08 0)
(-3.98602 2884.88 0)
(-9.06795 2785.79 0)
(-23.3843 2626.75 0)
(-41.0613 2430.15 0)
(-23.0506 2136.11 0)
(54.564 1810.44 0)
(181.141 1447.12 0)
(279.207 1249.76 0)
(776.479 1095.71 0)
(19803.3 2613.75 0)
(-21437.1 31040.7 0)
(56411.2 668026 0)
(-53070.5 59253 0)
(-1660.1 25585.9 0)
(161.29 28370.6 0)
(500.34 30114.7 0)
(656.244 32795.4 0)
(596.395 34885.9 0)
(463.797 37180.4 0)
(321.314 39107.2 0)
(158.278 40660 0)
(46.8634 42108.6 0)
(-33.4086 43282.2 0)
(-79.2697 44365.7 0)
(-101.041 45316.6 0)
(-110.97 46215.4 0)
(-106.934 46965.7 0)
(-125.762 47627.7 0)
(-113.95 48121.7 0)
(-120.99 48310.4 0)
(-100.99 48324.1 0)
(27.359 48285.4 0)
(28.3741 48096.3 0)
(15.5649 47906 0)
(-6.63056 47003.9 0)
(-34.2238 46159.8 0)
(-43.638 44957.5 0)
(-76.9298 43771.1 0)
(-89.4975 42287.2 0)
(-133.211 40870.8 0)
(-181.636 39070.7 0)
(-265.03 37341.1 0)
(-369.218 35138.7 0)
(-506.111 32956.4 0)
(-607.033 30362.2 0)
(-598.38 27839.8 0)
(-361.482 24984.5 0)
(-78.5351 23194.9 0)
(2181.64 20304.7 0)
(51419 51772.3 0)
(-54294.9 605069 0)
(714599 -738658 0)
(-637351 -61979.3 0)
(-29828.7 -28836.2 0)
(4354.11 -31063.5 0)
(4283.94 -32695.8 0)
(4666.78 -35531.4 0)
(4288.87 -37841.8 0)
(4077.37 -40260.5 0)
(3339.27 -42260.8 0)
(2827.47 -43735.5 0)
(2431.18 -45041.8 0)
(2052.95 -46021.3 0)
(1828.05 -46882.6 0)
(1656.05 -47624.9 0)
(1474.97 -48328.2 0)
(1271.08 -48902.2 0)
(1045.93 -49431.4 0)
(607.73 -49807.3 0)
(149.417 -49916.5 0)
(-71.2598 -49825.5 0)
(-264.792 -49735.9 0)
(-414.335 -49539.7 0)
(-1100.4 -49329 0)
(-1724.06 -48386.7 0)
(-1999.26 -47517.3 0)
(-2317.33 -46306.1 0)
(-2576.06 -45098.6 0)
(-2790.22 -43615.4 0)
(-3094.73 -42203.1 0)
(-3405.35 -40389.7 0)
(-3798.1 -38647.8 0)
(-4248.65 -36367.7 0)
(-4643.95 -34070.9 0)
(-4953.6 -31259.8 0)
(-5127.5 -28568 0)
(-4294.8 -25688.9 0)
(-4230.43 -24317.7 0)
(28314.7 -22198.8 0)
(583303 -54436.7 0)
(-648181 -674488 0)
(714599 738658 0)
(-637351 61979.3 0)
(-29828.7 28836.2 0)
(4354.11 31063.5 0)
(4283.94 32695.8 0)
(4666.78 35531.4 0)
(4288.87 37841.8 0)
(4077.37 40260.5 0)
(3339.27 42260.8 0)
(2827.47 43735.5 0)
(2431.18 45041.8 0)
(2052.95 46021.3 0)
(1828.05 46882.6 0)
(1656.05 47624.9 0)
(1474.97 48328.2 0)
(1271.08 48902.2 0)
(1045.93 49431.4 0)
(607.73 49807.3 0)
(149.417 49916.5 0)
(-71.2597 49825.5 0)
(-264.792 49735.9 0)
(-414.335 49539.7 0)
(-1100.4 49329 0)
(-1724.06 48386.7 0)
(-1999.26 47517.3 0)
(-2317.33 46306.1 0)
(-2576.06 45098.6 0)
(-2790.22 43615.4 0)
(-3094.73 42203.1 0)
(-3405.35 40389.7 0)
(-3798.1 38647.8 0)
(-4248.65 36367.7 0)
(-4643.95 34070.9 0)
(-4953.6 31259.8 0)
(-5127.5 28568 0)
(-4294.8 25688.9 0)
(-4230.43 24317.7 0)
(28314.7 22198.8 0)
(583303 54436.7 0)
(-648181 674488 0)
(56411.2 -668026 0)
(-53070.5 -59253 0)
(-1660.1 -25585.9 0)
(161.29 -28370.6 0)
(500.34 -30114.7 0)
(656.244 -32795.4 0)
(596.395 -34885.9 0)
(463.797 -37180.4 0)
(321.314 -39107.2 0)
(158.278 -40660 0)
(46.8634 -42108.6 0)
(-33.4086 -43282.2 0)
(-79.2697 -44365.7 0)
(-101.041 -45316.6 0)
(-110.97 -46215.4 0)
(-106.934 -46965.7 0)
(-125.762 -47627.7 0)
(-113.95 -48121.7 0)
(-120.99 -48310.4 0)
(-100.99 -48324.1 0)
(27.359 -48285.4 0)
(28.3741 -48096.3 0)
(15.5649 -47906 0)
(-6.63056 -47003.9 0)
(-34.2238 -46159.8 0)
(-43.638 -44957.5 0)
(-76.9298 -43771.1 0)
(-89.4975 -42287.2 0)
(-133.211 -40870.8 0)
(-181.636 -39070.7 0)
(-265.03 -37341.1 0)
(-369.218 -35138.7 0)
(-506.111 -32956.4 0)
(-607.033 -30362.2 0)
(-598.38 -27839.8 0)
(-361.482 -24984.5 0)
(-78.5351 -23194.9 0)
(2181.64 -20304.7 0)
(51419 -51772.3 0)
(-54294.9 -605069 0)
(19722.8 -35912.6 0)
(-18271.6 -3208.08 0)
(-69.1837 -1531.69 0)
(-9.98012 -1508.99 0)
(19.9684 -1654.89 0)
(69.0498 -1975.02 0)
(63.3965 -2272.19 0)
(9.56594 -2527.47 0)
(-13.8076 -2754.88 0)
(-64.8037 -2884.7 0)
(-95.6542 -2978.23 0)
(-122.012 -3020.6 0)
(-132.387 -3051.65 0)
(-126.429 -3062.27 0)
(-114.227 -3067.64 0)
(-89.8766 -3061.94 0)
(-68.0399 -3057.02 0)
(-50.1294 -3019.16 0)
(-45.6175 -3014.36 0)
(-47.1473 -2959.55 0)
(-45.2782 -2963.46 0)
(-48.7659 -3028.56 0)
(-47.7113 -3030.19 0)
(-41.3005 -3083.12 0)
(-27.2109 -3062.35 0)
(-15.5226 -3080.09 0)
(-2.90983 -3044.38 0)
(4.60821 -3015.35 0)
(4.78337 -2959.08 0)
(-3.98602 -2884.88 0)
(-9.06795 -2785.79 0)
(-23.3843 -2626.75 0)
(-41.0613 -2430.15 0)
(-23.0506 -2136.11 0)
(54.564 -1810.44 0)
(181.141 -1447.12 0)
(279.207 -1249.76 0)
(776.479 -1095.71 0)
(19803.3 -2613.75 0)
(-21437.1 -31040.7 0)
(20436.6 2502.03 0)
(-19939.8 -362.212 0)
(-22.7958 -297.283 0)
(42.5636 -260.391 0)
(51.2587 -217.104 0)
(61.395 -214.143 0)
(64.0335 -234.798 0)
(-1.33533 -233.904 0)
(-22.9248 -256.943 0)
(-56.9541 -259.918 0)
(-84.0913 -264.175 0)
(-104.164 -255.969 0)
(-119.434 -248.971 0)
(-116.444 -246.87 0)
(-110.646 -244.835 0)
(-96.7058 -248.823 0)
(-84.5396 -257.013 0)
(-72.8362 -267.99 0)
(-63.5522 -279.494 0)
(-51.9383 -285.229 0)
(-39.1356 -287.673 0)
(-35.9358 -288.216 0)
(-37.016 -284.63 0)
(-37.6135 -282.659 0)
(-31.2964 -279.464 0)
(-26.3285 -281.458 0)
(-14.5491 -282.531 0)
(-7.29822 -285.33 0)
(-7.48369 -288.268 0)
(-14.6445 -292.341 0)
(-16.2911 -292.019 0)
(-26.5144 -294.141 0)
(-33.3119 -288.427 0)
(-9.85751 -274.121 0)
(65.5605 -263.873 0)
(178.809 -258.927 0)
(260.091 -287.969 0)
(867.253 -317.156 0)
(22562.9 -84.3891 0)
(-23347.1 4280.59 0)
(20981 2970.03 0)
(-20969.1 -138.457 0)
(28.9344 -90.0025 0)
(67.2828 -64.6102 0)
(64.5355 -70.2361 0)
(51.9993 -63.3489 0)
(44.3536 -102.25 0)
(-11.7738 -120.51 0)
(-38.8754 -133.911 0)
(-71.7729 -150.92 0)
(-91.8484 -162.919 0)
(-107.361 -176.369 0)
(-123.62 -181.871 0)
(-122.443 -191.683 0)
(-116.109 -199.884 0)
(-101.612 -209.58 0)
(-86.5099 -218.061 0)
(-71.7932 -224.41 0)
(-62.2293 -228.779 0)
(-55.0285 -232.043 0)
(-48.1568 -236.59 0)
(-45.8336 -241.315 0)
(-42.3566 -242.931 0)
(-36.3224 -241.056 0)
(-26.0534 -234.899 0)
(-18.4783 -229.12 0)
(-6.64061 -220.693 0)
(-0.920588 -215.67 0)
(-1.97261 -210.529 0)
(-7.59973 -206.409 0)
(-10.8034 -197.056 0)
(-19.9234 -195.997 0)
(-21.7688 -183.884 0)
(0.610456 -174.728 0)
(69.2049 -165.165 0)
(157.921 -164.878 0)
(223.096 -196.942 0)
(972.656 -204.563 0)
(24233.8 213.505 0)
(-24548.5 4212.9 0)
(22772.6 3615.02 0)
(-22888.5 35.1849 0)
(48.3656 57.1673 0)
(61.6113 72.6137 0)
(52.4741 53.1878 0)
(30.5447 42.3868 0)
(8.95089 -4.58973 0)
(-31.8447 -28.1507 0)
(-52.229 -55.4827 0)
(-84.9069 -80.6543 0)
(-108.615 -100.52 0)
(-122.427 -122.416 0)
(-134.19 -134.017 0)
(-133.802 -145.565 0)
(-127.892 -154.432 0)
(-114.222 -164.24 0)
(-98.8311 -173.781 0)
(-83.1648 -183.058 0)
(-70.907 -191.37 0)
(-59.4651 -197.237 0)
(-48.071 -200.673 0)
(-42.0462 -201.488 0)
(-36.7662 -199.833 0)
(-29.8735 -197.149 0)
(-19.7939 -193.094 0)
(-12.6388 -190.262 0)
(-1.58893 -186.109 0)
(2.49536 -183.835 0)
(1.44101 -181.165 0)
(-1.66066 -176.497 0)
(-6.25815 -167.41 0)
(-13.8217 -162.372 0)
(-12.8162 -146.29 0)
(8.18055 -132.377 0)
(75.0522 -110.662 0)
(148.188 -98.9856 0)
(221.849 -111.26 0)
(1262.77 -89.2307 0)
(26819.7 512.583 0)
(-27041.6 4972.54 0)
(24317.7 3055.62 0)
(-24397.6 138.081 0)
(65.0021 170.036 0)
(63.448 193.109 0)
(35.4077 193.97 0)
(-3.67721 154.529 0)
(-23.6189 98.6508 0)
(-60.816 67.9344 0)
(-89.4698 24.3193 0)
(-115.172 -11.1239 0)
(-132.091 -40.5616 0)
(-139.64 -68.9662 0)
(-145.927 -86.6107 0)
(-142.116 -101.586 0)
(-134.105 -112.02 0)
(-120.257 -121.671 0)
(-104.644 -130.714 0)
(-88.7427 -139.29 0)
(-75.8926 -146.911 0)
(-63.9931 -152.622 0)
(-52.253 -156.774 0)
(-45.0245 -158.972 0)
(-38.1751 -158.723 0)