/*--------------------------------*- C++ -*----------------------------------*\
| =========                 |                                                 |
| \\      /  F ield         | OpenFOAM: The Open Source CFD Toolbox           |
|  \\    /   O peration     | Version:  v1912                                 |
|   \\  /    A nd           | Website:  www.openfoam.com                      |
|    \\/     M anipulation  |                                                 |
\*---------------------------------------------------------------------------*/
FoamFile
{
    version     2.0;
    format      ascii;
    class       volVectorField;
    location    "2.34";
    object      grad(T);
}
// * * * * * * * * * * * * * * * * * * * * * * * * * * * * * * * * * * * * * //

dimensions      [0 -1 0 1 0 0 0];


internalField   nonuniform List<vector> 
1900
(
(0.53448 -6.38462e-06 0)
(-0.341414 -1.14421e-06 0)
(0.0167058 2.21362e-05 0)
(0.0162252 3.24866e-05 0)
(0.0142499 1.00935e-06 0)
(0.0147215 -6.09922e-05 0)
(0.0174742 -0.000300855 0)
(0.0192872 -0.00174452 0)
(0.024333 -0.00334457 0)
(0.00721572 -0.00387017 0)
(0.534472 -8.21679e-06 0)
(-0.341386 9.20441e-07 0)
(0.0167395 3.77887e-05 0)
(0.0162041 3.65868e-05 0)
(0.0141564 -6.91605e-05 0)
(0.0144196 -0.000163309 0)
(0.0157907 -0.00029421 0)
(0.0162434 -0.00147179 0)
(0.0222073 -0.00225978 0)
(0.0306875 -0.00529905 0)
(0.534473 -8.0231e-14 0)
(-0.341368 1.95156e-14 0)
(0.0167415 2.51535e-13 0)
(0.0161182 2.40693e-13 0)
(0.01405 2.47198e-13 0)
(0.0144965 4.66207e-13 0)
(0.0161657 5.29091e-13 0)
(0.0173216 1.66967e-13 0)
(0.0205057 -4.70544e-13 0)
(0.0273691 -3.23092e-13 0)
(0.534472 8.21679e-06 0)
(-0.341386 -9.20441e-07 0)
(0.0167395 -3.77887e-05 0)
(0.0162041 -3.65868e-05 0)
(0.0141564 6.91605e-05 0)
(0.0144196 0.000163309 0)
(0.0157907 0.00029421 0)
(0.0162434 0.00147179 0)
(0.0222073 0.00225978 0)
(0.0306875 0.00529905 0)
(0.53448 6.38462e-06 0)
(-0.341414 1.14421e-06 0)
(0.0167058 -2.21362e-05 0)
(0.0162252 -3.24866e-05 0)
(0.0142499 -1.00935e-06 0)
(0.0147215 6.09922e-05 0)
(0.0174742 0.000300855 0)
(0.0192872 0.00174452 0)
(0.024333 0.00334457 0)
(0.00721572 0.00387017 0)
(0.0203877 0.0164337 1.0119e-15)
(0.0653836 0.0191335 -1.23374e-15)
(0.0400098 0.0194929 -1.5688e-15)
(-0.228376 0.0549724 0)
(-0.193284 0.378992 -6.53292e-15)
(0.0451079 0.0141884 1.01487e-15)
(0.0607491 0.0130703 1.23374e-15)
(0.0555625 0.00664111 1.5688e-15)
(-0.0794756 0.0173549 0)
(-0.153504 0.288971 0)
(0.0471384 -1.15884e-13 0)
(0.0598658 -4.04198e-14 0)
(0.0460001 8.13152e-14 0)
(-0.0816993 1.39632e-13 0)
(0.0117159 1.09711e-13 0)
(0.0451079 -0.0141884 1.01487e-15)
(0.0607491 -0.0130703 1.23374e-15)
(0.0555625 -0.00664111 1.5688e-15)
(-0.0794756 -0.0173549 0)
(-0.153504 -0.288971 0)
(0.0203877 -0.0164337 -3.04164e-15)
(0.0653836 -0.0191335 -1.23374e-15)
(0.0400098 -0.0194929 -1.5688e-15)
(-0.228376 -0.0549724 -4.27845e-15)
(-0.193284 -0.378992 6.53292e-15)
(0.185346 -0.133826 2.90574e-15)
(-0.170145 -0.0313922 -2.42019e-15)
(-0.237347 -0.0142067 0)
(-0.415498 0.137902 1.7815e-15)
(-0.785317 0.393204 -7.58094e-16)
(0.0495086 -0.162346 -1.45085e-15)
(-0.143327 -0.0391944 1.20962e-15)
(-0.174128 -0.0264931 0)
(-0.242248 0.149585 -1.11716e-15)
(-0.285172 0.460428 1.95951e-16)
(0.0851817 2.51885e-13 0)
(-0.138866 1.946e-13 0)
(-0.166327 5.18008e-13 0)
(-0.218097 1.3712e-12 4.48666e-16)
(-0.287051 1.5312e-12 -3.91902e-16)
(0.0495086 0.162346 -1.45085e-15)
(-0.143327 0.0391944 1.20962e-15)
(-0.174128 0.0264931 0)
(-0.242248 -0.149585 -1.11716e-15)
(-0.285172 -0.460428 1.95951e-16)
(0.185346 0.133826 1.45085e-15)
(-0.170145 0.0313922 9.4543e-19)
(-0.237347 0.0142067 0)
(-0.415498 -0.137902 4.15315e-18)
(-0.785317 -0.393204 7.58094e-16)
(-0.761568 2.54564 0)
(0.00556048 0.816864 0)
(0.283731 0.253905 0)
(0.0373285 0.0903909 0)
(-0.0250034 0.0449132 0)
(0.012762 0.0250112 0)
(0.0409352 0.0181104 0)
(0.0555378 0.0214534 0)
(0.0665924 0.0223312 0)
(0.0786432 0.0226757 0)
(0.0901387 0.0236906 0)
(0.0983415 0.0247668 0)
(0.103571 0.0261272 0)
(0.106002 0.0275528 0)
(0.105976 0.0289551 0)
(0.10309 0.0301708 0)
(0.095456 0.0312447 0)
(0.0787403 0.0321187 0)
(0.0502487 0.0327224 0)
(0.0162432 0.0329032 0)
(-0.0181341 0.0328653 0)
(-0.0529096 0.0325775 0)
(-0.0815877 0.0320647 0)
(-0.0985074 0.0313502 0)
(-0.106612 0.0304452 0)
(-0.110481 0.0293537 0)
(-0.112291 0.0280786 0)
(-0.112895 0.0266231 0)
(-0.112606 0.0249924 0)
(-0.111464 0.023197 0)
(-0.109247 0.0212567 0)
(-0.105549 0.0192034 0)
(-0.100297 0.0170875 0)
(-0.0944094 0.0149589 0)
(-0.0884535 0.0129136 0)
(-0.0769842 0.0109403 0)
(-0.0627595 0.00960047 0)
(-0.278363 0.00764525 0)
(-0.655684 0.00514567 0)
(-0.405802 0.000783622 0)
(-0.64356 1.49809 0)
(-0.356843 0.902193 0)
(0.132495 0.318781 0)
(-0.0134564 0.0539836 0)
(-0.030922 0.0185772 0)
(0.00998894 0.0112349 0)
(0.04044 0.00687221 0)
(0.0560629 0.00869434 0)
(0.0667157 0.00911317 0)
(0.0788219 0.00935775 0)
(0.0904355 0.0100026 0)
(0.0987118 0.0107537 0)
(0.103996 0.0117484 0)
(0.106415 0.0127506 0)
(0.106323 0.0136099 0)
(0.103363 0.0142186 0)
(0.0956765 0.0147083 0)
(0.0789039 0.0150867 0)
(0.0503329 0.0153364 0)
(0.0162561 0.0153769 0)
(-0.01817 0.0153399 0)
(-0.0530003 0.0151897 0)
(-0.0817344 0.0149022 0)
(-0.0987101 0.0144799 0)
(-0.106872 0.0139146 0)
(-0.1108 0.0132021 0)
(-0.112672 0.0123398 0)
(-0.113337 0.011329 0)
(-0.113109 0.0101792 0)
(-0.112019 0.00891248 0)
(-0.109843 0.00756744 0)
(-0.106165 0.00619932 0)
(-0.100904 0.00487736 0)
(-0.0949738 0.00366825 0)
(-0.0889496 0.00269437 0)
(-0.0773323 0.00189484 0)
(-0.0630051 0.00143694 0)
(-0.278613 0.000810242 0)
(-0.655877 0.000164874 0)
(-0.405872 -0.000218905 0)
(-0.559326 1.73472e-12 0)
(-0.337512 6.11096e-13 0)
(0.0369795 3.15404e-14 0)
(-0.0500034 -2.08955e-13 0)
(-0.0374394 -3.94255e-15 0)
(0.00935693 1.57702e-14 0)
(0.0401961 -8.67362e-14 0)
(0.0561897 -3.94255e-15 0)
(0.0667854 5.08589e-13 0)
(0.078902 3.82428e-13 0)
(0.0905448 -3.48522e-12 0)
(0.0988493 -1.28251e-11 0)
(0.104152 -1.7915e-11 0)
(0.106544 1.38857e-11 0)
(0.106403 1.50862e-10 0)
(0.103409 3.45131e-10 0)
(0.0957085 7.08205e-10 0)
(0.078923 -2.74488e-10 0)
(0.0503331 1.13507e-09 0)
(0.0162443 7.33686e-10 0)
(-0.0181886 3.11718e-10 0)
(-0.0530369 -7.54017e-10 0)
(-0.0817942 2.05392e-09 0)
(-0.0987947 3.17438e-09 0)
(-0.106983 1.94301e-09 0)
(-0.110939 3.66127e-09 0)
(-0.112836 3.419e-09 0)
(-0.113523 2.59082e-09 0)
(-0.113309 9.88028e-10 0)
(-0.112224 -7.86855e-10 0)
(-0.110036 -1.98747e-09 0)
(-0.106331 -3.34106e-09 0)
(-0.101034 -3.56476e-09 0)
(-0.0950445 -3.52311e-09 0)
(-0.0889694 -2.93481e-09 0)
(-0.07735 -3.08195e-09 0)
(-0.063075 -1.44527e-09 0)
(-0.278733 -5.70704e-10 0)
(-0.655984 3.6758e-10 0)
(-0.405913 -5.05554e-11 0)
(-0.64356 -1.49809 0)
(-0.356843 -0.902193 0)
(0.132495 -0.318781 0)
(-0.0134564 -0.0539836 0)
(-0.030922 -0.0185772 0)
(0.00998894 -0.0112349 0)
(0.04044 -0.00687221 0)
(0.0560629 -0.00869434 0)
(0.0667157 -0.00911317 0)
(0.0788219 -0.00935775 0)
(0.0904355 -0.0100026 0)
(0.0987118 -0.0107537 0)
(0.103996 -0.0117484 0)
(0.106415 -0.0127506 0)
(0.106323 -0.0136099 0)
(0.103363 -0.0142186 0)
(0.0956765 -0.0147083 0)
(0.0789039 -0.0150867 0)
(0.0503329 -0.0153364 0)
(0.0162561 -0.0153769 0)
(-0.01817 -0.0153399 0)
(-0.0530003 -0.0151897 0)
(-0.0817344 -0.0149022 0)
(-0.0987101 -0.0144799 0)
(-0.106872 -0.0139146 0)
(-0.1108 -0.0132021 0)
(-0.112672 -0.0123398 0)
(-0.113337 -0.011329 0)
(-0.113109 -0.0101792 0)
(-0.112019 -0.00891248 0)
(-0.109843 -0.00756744 0)
(-0.106165 -0.00619932 0)
(-0.100904 -0.00487737 0)
(-0.0949738 -0.00366826 0)
(-0.0889496 -0.00269438 0)
(-0.0773323 -0.00189484 0)
(-0.0630051 -0.00143694 0)
(-0.278613 -0.000810243 0)
(-0.655877 -0.000164873 0)
(-0.405872 0.000218905 0)
(-0.761568 -2.54564 0)
(0.00556048 -0.816864 0)
(0.283731 -0.253905 0)
(0.0373285 -0.0903909 0)
(-0.0250034 -0.0449132 0)
(0.012762 -0.0250112 0)
(0.0409352 -0.0181104 0)
(0.0555378 -0.0214534 0)
(0.0665924 -0.0223312 0)
(0.0786432 -0.0226757 0)
(0.0901387 -0.0236906 0)
(0.0983415 -0.0247668 0)
(0.103571 -0.0261272 0)
(0.106002 -0.0275528 0)
(0.105976 -0.0289551 0)
(0.10309 -0.0301708 0)
(0.095456 -0.0312447 0)
(0.0787403 -0.0321187 0)
(0.0502487 -0.0327224 0)
(0.0162432 -0.0329032 0)
(-0.0181341 -0.0328653 0)
(-0.0529096 -0.0325775 0)
(-0.0815877 -0.0320647 0)
(-0.0985074 -0.0313502 0)
(-0.106612 -0.0304452 0)
(-0.110481 -0.0293537 0)
(-0.112291 -0.0280786 0)
(-0.112895 -0.0266231 0)
(-0.112606 -0.0249924 0)
(-0.111464 -0.023197 0)
(-0.109247 -0.0212567 0)
(-0.105549 -0.0192034 0)
(-0.100297 -0.0170875 0)
(-0.0944094 -0.0149589 0)
(-0.0884535 -0.0129136 0)
(-0.0769842 -0.0109403 0)
(-0.0627595 -0.00960047 0)
(-0.278363 -0.00764525 0)
(-0.655684 -0.00514567 0)
(-0.405802 -0.000783621 0)
(0.309301 -1.37605 0)
(0.661671 -0.270675 0)
(0.413324 -0.11165 0)
(0.0589185 -0.126231 0)
(0.00324558 -0.0683911 0)
(0.0235953 -0.0418484 0)
(0.0420991 -0.0351886 0)
(0.0540224 -0.0369137 0)
(0.0660916 -0.0378801 0)
(0.0781757 -0.0379059 0)
(0.089467 -0.0388015 0)
(0.0976116 -0.0398158 0)
(0.10274 -0.0411112 0)
(0.105118 -0.0425198 0)
(0.105083 -0.0439681 0)
(0.102243 -0.045376 0)
(0.0947096 -0.0466598 0)
(0.0781663 -0.0477066 0)
(0.0499381 -0.0484019 0)
(0.0161812 -0.048623 0)
(-0.0180071 -0.0485606 0)
(-0.0526029 -0.0481386 0)
(-0.0811343 -0.0474321 0)
(-0.0979285 -0.0464942 0)
(-0.10592 -0.04536 0)
(-0.109685 -0.0440443 0)
(-0.111399 -0.0425603 0)
(-0.111912 -0.0409203 0)
(-0.11154 -0.0391366 0)
(-0.110319 -0.0372208 0)
(-0.108028 -0.0351854 0)
(-0.104261 -0.0330433 0)
(-0.0989433 -0.0308138 0)
(-0.0930081 -0.0285038 0)
(-0.0870025 -0.0261895 0)
(-0.0756567 -0.023801 0)
(-0.0612221 -0.0217651 0)
(-0.276106 -0.0186432 0)
(-0.651796 -0.0141613 0)
(-0.403217 -0.00338147 0)
(0.562749 -0.276756 0)
(0.87215 -0.00647399 0)
(0.353431 -0.0970573 0)
(0.0674373 -0.117752 0)
(0.0411626 -0.0826559 0)
(0.0389481 -0.0657325 0)
(0.0450663 -0.0617303 0)
(0.0537567 -0.0605805 0)
(0.0659049 -0.0608584 0)
(0.0780061 -0.0605241 0)
(0.0886585 -0.0611531 0)
(0.0965071 -0.0621865 0)
(0.101411 -0.0635886 0)
(0.103724 -0.0651424 0)
(0.103703 -0.066719 0)
(0.10095 -0.0682432 0)
(0.0936103 -0.0696316 0)
(0.0773692 -0.0707907 0)
(0.0495321 -0.0715783 0)
(0.0161236 -0.0718589 0)
(-0.0177354 -0.0717591 0)
(-0.0519865 -0.0711473 0)
(-0.0802462 -0.0701772 0)
(-0.096821 -0.0689715 0)
(-0.104621 -0.0675906 0)
(-0.10821 -0.066052 0)
(-0.109759 -0.0643659 0)
(-0.110122 -0.0625416 0)
(-0.109613 -0.0605872 0)
(-0.10827 -0.0585106 0)
(-0.105875 -0.0563213 0)
(-0.102026 -0.0540323 0)
(-0.0966491 -0.0516688 0)
(-0.0907047 -0.0492569 0)
(-0.0846998 -0.0468601 0)
(-0.0734325 -0.0444101 0)
(-0.0586137 -0.041673 0)
(-0.272246 -0.0382165 0)
(-0.643062 -0.0319819 0)
(-0.3968 -0.0132029 0)
(0.569755 0.00883937 0)
(0.834835 -0.0334624 0)
(0.306093 -0.101043 0)
(0.0727962 -0.104853 0)
(0.0533732 -0.101654 0)
(0.04376 -0.0924671 0)
(0.0470637 -0.0894549 0)
(0.0548625 -0.08649 0)
(0.066146 -0.0854467 0)
(0.0778918 -0.0845729 0)
(0.087865 -0.0844813 0)
(0.0952646 -0.0850899 0)
(0.0998911 -0.0862038 0)
(0.102101 -0.0875975 0)
(0.102095 -0.08911 0)
(0.099436 -0.0906273 0)
(0.0922548 -0.0920786 0)
(0.0762903 -0.0933787 0)
(0.0489088 -0.0943638 0)
(0.016007 -0.0948069 0)
(-0.0173213 -0.0946939 0)
(-0.0510786 -0.0938658 0)
(-0.0790377 -0.0926422 0)
(-0.095436 -0.0912466 0)
(-0.103107 -0.0897656 0)
(-0.106578 -0.0882102 0)
(-0.108016 -0.0865827 0)
(-0.108271 -0.0848849 0)
(-0.107656 -0.0831184 0)
(-0.106208 -0.0812833 0)
(-0.103712 -0.0793822 0)
(-0.0997782 -0.0774259 0)
(-0.0943414 -0.0754444 0)
(-0.0883742 -0.0734797 0)
(-0.0823319 -0.0715095 0)
(-0.0706582 -0.0694437 0)
(-0.0552538 -0.0661549 0)
(-0.266768 -0.0635673 0)
(-0.627692 -0.0557716 0)
(-0.385121 -0.0336229 0)
(0.521985 0.0057447 0)
(0.766264 -0.0806376 0)
(0.284637 -0.107196 0)
(0.0668483 -0.112519 0)
(0.0530979 -0.115992 0)
(0.0507035 -0.109111 0)
(0.0508261 -0.105348 0)
(0.0576191 -0.101609 0)
(0.0677524 -0.0989167 0)
(0.0789364 -0.0970849 0)
(0.0881602 -0.0961119 0)
(0.0948473 -0.096044 0)
(0.0989947 -0.0966445 0)
(0.100923 -0.0976666 0)
(0.100783 -0.098921 0)
(0.0980897 -0.100275 0)
(0.090959 -0.101636 0)
(0.0751671 -0.102924 0)
(0.0481559 -0.104002 0)
(0.0158056 -0.104602 0)
(-0.0168286 -0.104496 0)
(-0.0500094 -0.103499 0)
(-0.0777222 -0.102112 0)
(-0.0940489 -0.100643 0)
(-0.101696 -0.0991855 0)
(-0.105142 -0.0977333 0)
(-0.106555 -0.0962775 0)
(-0.106784 -0.0948153 0)
(-0.106143 -0.0933458 0)
(-0.10467 -0.0918699 0)
(-0.102158 -0.0903911 0)
(-0.0982316 -0.088937 0)
(-0.0928464 -0.0875477 0)
(-0.0869129 -0.0862805 0)
(-0.0808105 -0.0849336 0)
(-0.0682726 -0.0834056 0)
(-0.052951 -0.0803416 0)
(-0.26224 -0.0800388 0)
(-0.614207 -0.0710386 0)
(-0.375457 -0.0564711 0)
(0.486514 -0.0230876 0)
(0.726002 -0.110652 0)
(0.27537 -0.115456 0)
(0.0643195 -0.119474 0)
(0.056657 -0.11738 0)
(0.0540172 -0.11631 0)
(0.0542933 -0.11295 0)
(0.06106 -0.109271 0)
(0.0705055 -0.105742 0)
(0.0805946 -0.103373 0)
(0.0888681 -0.102077 0)
(0.0947515 -0.101755 0)
(0.0983275 -0.102162 0)
(0.0999076 -0.103035 0)
(0.0995815 -0.104171 0)
(0.0968199 -0.105421 0)
(0.0897018 -0.106698 0)
(0.0740105 -0.107963 0)
(0.0472914 -0.109132 0)
(0.0155309 -0.109897 0)
(-0.0162587 -0.109801 0)
(-0.0487817 -0.108649 0)
(-0.0762852 -0.107105 0)
(-0.0926156 -0.105554 0)
(-0.100303 -0.104087 0)
(-0.103776 -0.102675 0)
(-0.105204 -0.101296 0)
(-0.105446 -0.0999419 0)
(-0.104817 -0.0986102 0)
(-0.103361 -0.0972979 0)
(-0.100886 -0.0960267 0)
(-0.0970382 -0.0948239 0)
(-0.0917815 -0.0937566 0)
(-0.0858552 -0.0928583 0)
(-0.0795616 -0.0916824 0)
(-0.0662331 -0.0902555 0)
(-0.0520094 -0.0879654 0)
(-0.257803 -0.0896058 0)
(-0.604982 -0.0777996 0)
(-0.371083 -0.0731133 0)
(0.437605 -0.0491133 0)
(0.677254 -0.112378 0)
(0.276136 -0.117128 0)
(0.0649946 -0.116758 0)
(0.0561472 -0.117191 0)
(0.0549715 -0.118489 0)
(0.0576082 -0.115569 0)
(0.0645659 -0.112065 0)
(0.0734361 -0.108636 0)
(0.082468 -0.106161 0)
(0.08972 -0.104827 0)
(0.0947655 -0.104454 0)
(0.0977606 -0.104802 0)
(0.0989871 -0.105587 0)
(0.0984837 -0.106606 0)
(0.0956545 -0.107722 0)
(0.0885092 -0.108886 0)
(0.0728212 -0.110127 0)
(0.0462925 -0.111408 0)
(0.0151612 -0.112362 0)
(-0.0156263 -0.112285 0)
(-0.0474114 -0.110993 0)
(-0.0747393 -0.109303 0)
(-0.0911407 -0.107677 0)
(-0.0989214 -0.106199 0)
(-0.102453 -0.104815 0)
(-0.103921 -0.103487 0)
(-0.104195 -0.102202 0)
(-0.103595 -0.100947 0)
(-0.10218 -0.0997406 0)
(-0.0997736 -0.0985676 0)
(-0.096044 -0.0975473 0)
(-0.0909523 -0.0966355 0)
(-0.0849141 -0.0959319 0)
(-0.0783024 -0.0946885 0)
(-0.0646908 -0.0932999 0)
(-0.0523249 -0.0921012 0)
(-0.252444 -0.0948598 0)
(-0.598314 -0.0796223 0)
(-0.370941 -0.0809886 0)
(0.42555 -0.068369 0)
(0.660461 -0.101609 0)
(0.27115 -0.114681 0)
(0.0642586 -0.115838 0)
(0.0549894 -0.116634 0)
(0.0555804 -0.117919 0)
(0.0604833 -0.11564 0)
(0.0677407 -0.112638 0)
(0.0761951 -0.109445 0)
(0.0842656 -0.107206 0)
(0.0905129 -0.105945 0)
(0.0947753 -0.105659 0)
(0.0972352 -0.105977 0)
(0.0981686 -0.106673 0)
(0.0975241 -0.107546 0)
(0.0946232 -0.108508 0)
(0.0873851 -0.109564 0)
(0.0715804 -0.11081 0)
(0.0451374 -0.112238 0)
(0.0146854 -0.113395 0)
(-0.0149396 -0.113341 0)
(-0.0459074 -0.111918 0)
(-0.0730894 -0.110088 0)
(-0.0896249 -0.10839 0)
(-0.0975454 -0.106902 0)
(-0.101162 -0.10554 0)
(-0.102686 -0.104253 0)
(-0.102998 -0.103013 0)
(-0.102445 -0.101827 0)
(-0.101067 -0.100653 0)
(-0.0987726 -0.0996195 0)
(-0.0951764 -0.098628 0)
(-0.0902249 -0.0978963 0)
(-0.083979 -0.0972494 0)
(-0.0770253 -0.0958993 0)
(-0.06374 -0.0946973 0)
(-0.0535126 -0.0945238 0)
(-0.245778 -0.0976542 0)
(-0.591615 -0.0796132 0)
(-0.3724 -0.0838266 0)
(0.405574 -0.060027 0)
(0.632627 -0.0953341 0)
(0.262425 -0.112949 0)
(0.0631129 -0.114386 0)
(0.0541419 -0.115197 0)
(0.0559293 -0.116185 0)
(0.0626973 -0.114499 0)
(0.0705356 -0.111931 0)
(0.0786699 -0.109183 0)
(0.08584 -0.107044 0)
(0.0912107 -0.106086 0)
(0.0947346 -0.105804 0)
(0.0967837 -0.106113 0)
(0.0974761 -0.106679 0)
(0.096716 -0.107402 0)
(0.0937094 -0.108229 0)
(0.0862908 -0.109222 0)
(0.0702441 -0.110525 0)
(0.0438014 -0.112141 0)
(0.0140986 -0.113496 0)
(-0.0142037 -0.113464 0)
(-0.0442764 -0.111923 0)
(-0.0713391 -0.109955 0)
(-0.0880708 -0.108187 0)
(-0.0961751 -0.10669 0)
(-0.0999009 -0.10535 0)
(-0.101486 -0.104095 0)
(-0.101858 -0.102909 0)
(-0.101321 -0.101737 0)
(-0.100053 -0.100697 0)
(-0.0978221 -0.0995764 0)
(-0.0943835 -0.0988874 0)
(-0.0896239 -0.0979845 0)
(-0.0829898 -0.0975647 0)
(-0.0758432 -0.0961259 0)
(-0.0633653 -0.0952627 0)
(-0.0551743 -0.0958194 0)
(-0.238076 -0.0988184 0)
(-0.584989 -0.079012 0)
(-0.375001 -0.0823644 0)
(0.391526 -0.0664954 0)
(0.609463 -0.0919013 0)
(0.25279 -0.111595 0)
(0.0620925 -0.112749 0)
(0.0532564 -0.113814 0)
(0.0562529 -0.114297 0)
(0.0645819 -0.112711 0)
(0.0728641 -0.110619 0)
(0.0809051 -0.107821 0)
(0.0872491 -0.106277 0)
(0.0917068 -0.105228 0)
(0.0947499 -0.105116 0)
(0.0963926 -0.105289 0)
(0.0969266 -0.105748 0)
(0.0960301 -0.106337 0)
(0.092869 -0.107079 0)
(0.0851725 -0.108065 0)
(0.068768 -0.109476 0)
(0.0422751 -0.111304 0)
(0.01341 -0.112838 0)
(-0.0134246 -0.112825 0)
(-0.0425255 -0.111179 0)
(-0.0694885 -0.109072 0)
(-0.0864788 -0.107235 0)
(-0.0948121 -0.105732 0)
(-0.0986624 -0.104414 0)
(-0.100334 -0.103203 0)
(-0.100725 -0.102039 0)
(-0.100314 -0.100988 0)
(-0.0989858 -0.0998565 0)
(-0.0970292 -0.0990734 0)
(-0.0936423 -0.0980772 0)
(-0.0889503 -0.0975332 0)
(-0.082188 -0.0970402 0)
(-0.074807 -0.0957281 0)
(-0.0634446 -0.0953379 0)
(-0.056939 -0.0963814 0)
(-0.229582 -0.0989604 0)
(-0.575759 -0.0786845 0)
(-0.37563 -0.0807318 0)
(0.381092 -0.0676189 0)
(0.589167 -0.0875353 0)
(0.242335 -0.109354 0)
(0.0609748 -0.111294 0)
(0.0526506 -0.112454 0)
(0.0569926 -0.11231 0)
(0.0662418 -0.110256 0)
(0.0752475 -0.108203 0)
(0.0828535 -0.105908 0)
(0.0883388 -0.104273 0)
(0.0923294 -0.103683 0)
(0.0946755 -0.103368 0)
(0.0961746 -0.103523 0)
(0.0964666 -0.103825 0)
(0.0954333 -0.104329 0)
(0.092044 -0.105034 0)
(0.083981 -0.106063 0)
(0.0671228 -0.107617 0)
(0.0405616 -0.109662 0)
(0.0126332 -0.111347 0)
(-0.0126043 -0.111346 0)
(-0.0406605 -0.109606 0)
(-0.0675391 -0.107367 0)
(-0.0848517 -0.105463 0)
(-0.0934567 -0.103959 0)
(-0.0974645 -0.102678 0)
(-0.0991973 -0.101512 0)
(-0.0997228 -0.100452 0)
(-0.0992172 -0.0993861 0)
(-0.0982079 -0.0985488 0)
(-0.0961075 -0.0974462 0)
(-0.0928993 -0.0969169 0)
(-0.0886246 -0.0959998 0)
(-0.0812503 -0.0955484 0)
(-0.0742028 -0.0947319 0)
(-0.0639949 -0.0944709 0)
(-0.0586651 -0.0958517 0)
(-0.221022 -0.0976696 0)
(-0.567423 -0.0772666 0)
(-0.376974 -0.077407 0)
(0.372334 -0.0697016 0)
(0.569245 -0.0846114 0)
(0.229895 -0.10827 0)
(0.0591052 -0.111438 0)
(0.0522778 -0.111436 0)
(0.0583707 -0.10975 0)
(0.0685392 -0.107082 0)
(0.077054 -0.104803 0)
(0.084693 -0.102803 0)
(0.0893935 -0.101675 0)
(0.0925789 -0.100866 0)
(0.0949041 -0.100602 0)
(0.0959514 -0.100529 0)
(0.0961494 -0.100734 0)
(0.0948653 -0.101153 0)
(0.0911983 -0.10185 0)
(0.0826838 -0.102944 0)
(0.0653003 -0.10465 0)
(0.0386801 -0.106897 0)
(0.0117872 -0.108698 0)
(-0.0117468 -0.108702 0)
(-0.0386914 -0.106887 0)
(-0.0654961 -0.104522 0)
(-0.0831946 -0.102561 0)
(-0.092128 -0.101074 0)
(-0.0963044 -0.0998587 0)
(-0.0981888 -0.0988023 0)
(-0.0986768 -0.0978395 0)
(-0.0984793 -0.0970088 0)
(-0.0971164 -0.0961647 0)
(-0.0954566 -0.0954621 0)
(-0.0922485 -0.0946963 0)
(-0.0876315 -0.0938311 0)
(-0.0809662 -0.0936035 0)
(-0.0737688 -0.0927798 0)
(-0.0645237 -0.0933125 0)
(-0.0600213 -0.095057 0)
(-0.211672 -0.0962493 0)
(-0.556233 -0.0768429 0)
(-0.375765 -0.0741398 0)
(0.366724 -0.070207 0)
(0.552001 -0.0797926 0)
(0.216483 -0.10526 0)
(0.0579235 -0.109416 0)
(0.0542773 -0.107526 0)
(0.0611884 -0.104717 0)
(0.0710089 -0.101286 0)
(0.0793715 -0.0998027 0)
(0.0858682 -0.0977942 0)
(0.0902053 -0.0971557 0)
(0.093363 -0.0963629 0)
(0.0950002 -0.0961292 0)
(0.0960473 -0.096009 0)
(0.0958651 -0.096143 0)
(0.0943586 -0.0965132 0)
(0.090318 -0.0972001 0)
(0.0812827 -0.0983463 0)
(0.0633138 -0.100183 0)
(0.0366604 -0.102599 0)
(0.0108931 -0.104475 0)
(-0.0108585 -0.104481 0)
(-0.0366325 -0.102611 0)
(-0.0633707 -0.10014 0)
(-0.0815288 -0.0981399 0)
(-0.0908528 -0.0967057 0)
(-0.0952753 -0.0955995 0)
(-0.0972515 -0.0946751 0)
(-0.0979945 -0.0938485 0)
(-0.0976033 -0.0931258 0)
(-0.0967174 -0.0923317 0)
(-0.0946926 -0.0917846 0)
(-0.0913277 -0.0907692 0)
(-0.0875714 -0.0902858 0)
(-0.0802372 -0.0892345 0)
(-0.0739223 -0.0890762 0)
(-0.0661893 -0.089786 0)
(-0.0614952 -0.0916645 0)
(-0.203471 -0.0920092 0)
(-0.546118 -0.0725783 0)
(-0.374369 -0.0689385 0)
(0.363097 -0.0704645 0)
(0.535467 -0.077475 0)
(0.201349 -0.103413 0)
(0.0569223 -0.106038 0)
(0.056806 -0.103006 0)
(0.0643829 -0.0979103 0)
(0.0732749 -0.09535 0)
(0.0804192 -0.0927445 0)
(0.0872437 -0.0922686 0)
(0.0907728 -0.0908312 0)
(0.093568 -0.090638 0)
(0.0952451 -0.0901537 0)
(0.0959381 -0.0901577 0)
(0.0956636 -0.0902719 0)
(0.0938466 -0.0906341 0)
(0.0894319 -0.0912942 0)
(0.079809 -0.0924495 0)
(0.0612022 -0.0943709 0)
(0.0345446 -0.096916 0)
(0.00997376 -0.0988325 0)
(-0.00995101 -0.0988376 0)
(-0.0345082 -0.0969349 0)
(-0.0611872 -0.0943747 0)
(-0.0798853 -0.0923678 0)
(-0.08968 -0.0910285 0)
(-0.0943476 -0.0900675 0)
(-0.0965014 -0.0892736 0)
(-0.0971838 -0.0885896 0)
(-0.0970177 -0.0878552 0)
(-0.095824 -0.0874608 0)
(-0.0939509 -0.0865141 0)
(-0.0908043 -0.0865734 0)
(-0.0861527 -0.0851105 0)
(-0.0798005 -0.0850598 0)
(-0.0743002 -0.0848774 0)
(-0.0670179 -0.0863328 0)
(-0.0621637 -0.0886367 0)
(-0.19328 -0.0887349 0)
(-0.534002 -0.070572 0)
(-0.372258 -0.0643441 0)
(0.359968 -0.0677961 0)
(0.520251 -0.0752697 0)
(0.188959 -0.10011 0)
(0.0583155 -0.100265 0)
(0.0621092 -0.0964275 0)
(0.0685663 -0.0890617 0)
(0.0759868 -0.0870077 0)
(0.0823408 -0.0839857 0)
(0.0877119 -0.0833638 0)
(0.0917767 -0.0827121 0)
(0.0940159 -0.082408 0)
(0.095463 -0.0826783 0)
(0.0959335 -0.0831266 0)
(0.095406 -0.0838067 0)
(0.0933733 -0.0845593 0)
(0.0885686 -0.085441 0)
(0.0783179 -0.086677 0)
(0.0590097 -0.0886515 0)
(0.0323611 -0.0912575 0)
(0.00904142 -0.09316 0)
(-0.00902993 -0.0931634 0)
(-0.0323319 -0.0912738 0)
(-0.0589696 -0.0886744 0)
(-0.0783042 -0.0866691 0)
(-0.0886362 -0.0853361 0)
(-0.0935842 -0.084267 0)
(-0.0958274 -0.0832176 0)
(-0.0966276 -0.0821104 0)
(-0.0965155 -0.0810998 0)
(-0.0954251 -0.0800775 0)
(-0.0938374 -0.0795495 0)
(-0.0899751 -0.0789091 0)
(-0.0861129 -0.078443 0)
(-0.0800125 -0.0788358 0)
(-0.075149 -0.0791744 0)
(-0.0698119 -0.0819479 0)
(-0.0638099 -0.0849038 0)
(-0.186063 -0.0849707 0)
(-0.522614 -0.0672389 0)
(-0.368368 -0.0579453 0)
(0.355895 -0.0646461 0)
(0.504328 -0.0725325 0)
(0.177263 -0.0952254 0)
(0.0604704 -0.0946367 0)
(0.0676016 -0.090436 0)
(0.0734602 -0.0831926 0)
(0.0781663 -0.080343 0)
(0.0839307 -0.0774307 0)
(0.088471 -0.0763443 0)
(0.0916938 -0.0755242 0)
(0.0936006 -0.0754235 0)
(0.0945527 -0.0757623 0)
(0.0948507 -0.0765658 0)
(0.094283 -0.0776702 0)
(0.0922718 -0.078945 0)
(0.0873912 -0.080245 0)
(0.0767153 -0.0816921 0)
(0.0567883 -0.0837429 0)
(0.0302 -0.0864015 0)
(0.00813717 -0.0882845 0)
(-0.00813343 -0.0882862 0)
(-0.0301825 -0.086412 0)
(-0.0567499 -0.0837673 0)
(-0.0766684 -0.0817173 0)
(-0.0873653 -0.0802349 0)
(-0.0923062 -0.0788412 0)
(-0.0944232 -0.0773939 0)
(-0.095143 -0.076017 0)
(-0.0950588 -0.0748316 0)
(-0.0943301 -0.0739596 0)
(-0.092825 -0.0734433 0)
(-0.0897381 -0.0732811 0)
(-0.0860821 -0.0736552 0)
(-0.0805053 -0.0745011 0)
(-0.0772991 -0.076541 0)
(-0.072539 -0.0798923 0)
(-0.0650766 -0.0830341 0)
(-0.176258 -0.0823966 0)
(-0.507959 -0.064444 0)
(-0.363302 -0.0528925 0)
(0.352369 -0.0506969 0)
(0.490783 -0.066309 0)
(0.167659 -0.0864019 0)
(0.0629307 -0.0871031 0)
(0.0731371 -0.0835528 0)
(0.0782922 -0.0773882 0)
(0.0815392 -0.0744001 0)
(0.0861941 -0.0704177 0)
(0.0895491 -0.0693 0)
(0.0926639 -0.0671931 0)
(0.0937863 -0.0661574 0)
(0.0943622 -0.0652117 0)
(0.094095 -0.0648396 0)
(0.0931134 -0.0651267 0)
(0.0908922 -0.0662001 0)
(0.0859214 -0.0680331 0)
(0.0749471 -0.0704325 0)
(0.0544716 -0.0732283 0)
(0.0279847 -0.0759795 0)
(0.00722523 -0.0776416 0)
(-0.00722553 -0.0776421 0)
(-0.0279773 -0.0759845 0)
(-0.0544457 -0.0732457 0)
(-0.0749003 -0.0704639 0)
(-0.0858646 -0.0680658 0)
(-0.0908465 -0.0662045 0)
(-0.093106 -0.0650553 0)
(-0.0941585 -0.0646259 0)
(-0.0945329 -0.0647774 0)
(-0.0940874 -0.0653853 0)
(-0.0931835 -0.0660162 0)
(-0.0901792 -0.067442 0)
(-0.0872886 -0.0680707 0)
(-0.0827934 -0.0706488 0)
(-0.0803442 -0.0730376 0)
(-0.0760689 -0.0766185 0)
(-0.0662232 -0.0789955 0)
(-0.168149 -0.0766687 0)
(-0.494183 -0.060003 0)
(-0.357236 -0.0397936 0)
(0.340851 -0.00963465 0)
(0.469922 -0.0469721 0)
(0.157225 -0.0650658 0)
(0.063216 -0.0695562 0)
(0.0769632 -0.0698928 0)
(0.08228 -0.0674652 0)
(0.0848833 -0.0662015 0)
(0.0888453 -0.0638562 0)
(0.0915783 -0.062935 0)
(0.0947222 -0.0608528 0)
(0.09551 -0.058966 0)
(0.0958225 -0.0566779 0)
(0.0949327 -0.0544084 0)
(0.092972 -0.0524029 0)
(0.089471 -0.051134 0)
(0.0833126 -0.0511507 0)
(0.071709 -0.0528793 0)
(0.051443 -0.0559377 0)
(0.0259473 -0.0592928 0)
(0.00653506 -0.0611395 0)
(-0.00653658 -0.0611395 0)
(-0.0259459 -0.0592939 0)
(-0.0514301 -0.055946 0)
(-0.0716769 -0.0529008 0)
(-0.0832608 -0.0511859 0)
(-0.0894052 -0.0511727 0)
(-0.092902 -0.0524234 0)
(-0.0948752 -0.0543772 0)
(-0.0957905 -0.0565502 0)
(-0.0955239 -0.058679 0)
(-0.0948069 -0.0603592 0)
(-0.0917179 -0.0620894 0)
(-0.0891723 -0.0627368 0)
(-0.0852916 -0.0643522 0)
(-0.0830517 -0.0652397 0)
(-0.0782802 -0.0663188 0)
(-0.065125 -0.0650348 0)
(-0.157956 -0.0592695 0)
(-0.472425 -0.0426467 0)
(-0.343828 -0.00144058 0)
(0.316389 -0.0718374 0)
(0.437368 -0.139896 0)
(0.145896 -0.151513 0)
(0.0582792 -0.162764 0)
(0.0751521 -0.173085 0)
(0.0818493 -0.180825 0)
(0.085017 -0.191247 0)
(0.0893419 -0.198597 0)
(0.0924433 -0.209017 0)
(0.0964885 -0.217642 0)
(0.0978094 -0.227286 0)
(0.0987541 -0.236374 0)
(0.0982146 -0.245252 0)
(0.0962688 -0.253134 0)
(0.0920988 -0.259738 0)
(0.0842395 -0.264974 0)
(0.0703342 -0.269595 0)
(0.0482914 -0.274799 0)
(0.022972 -0.279973 0)
(0.00544568 -0.282592 0)
(-0.00544703 -0.282592 0)
(-0.0229727 -0.279972 0)
(-0.048285 -0.274803 0)
(-0.0703134 -0.26961 0)
(-0.0841993 -0.265006 0)
(-0.0920389 -0.259786 0)
(-0.0961939 -0.253191 0)
(-0.0981354 -0.245299 0)
(-0.0986784 -0.236385 0)
(-0.0977578 -0.227229 0)
(-0.0964699 -0.217483 0)
(-0.0924704 -0.208698 0)
(-0.0894692 -0.198126 0)
(-0.0852053 -0.19045 0)
(-0.0822392 -0.179819 0)
(-0.0758715 -0.17148 0)
(-0.0594302 -0.160555 0)
(-0.146575 -0.148468 0)
(-0.438457 -0.137664 0)
(-0.317529 -0.0686015 0)
(0.275267 -0.289479 0)
(0.393144 -0.411521 0)
(0.135189 -0.458152 0)
(0.042428 -0.492292 0)
(0.0595584 -0.515406 0)
(0.0647783 -0.52944 0)
(0.0677581 -0.545036 0)
(0.0717219 -0.556937 0)
(0.0732259 -0.570017 0)
(0.0771173 -0.580841 0)
(0.0774583 -0.592911 0)
(0.0785103 -0.60174 0)
(0.0787822 -0.611374 0)
(0.0790128 -0.618639 0)
(0.0780619 -0.626106 0)
(0.0738133 -0.634726 0)
(0.0622408 -0.647105 0)
(0.0414432 -0.663066 0)
(0.0184378 -0.675986 0)
(0.00401088 -0.680841 0)
(-0.00401181 -0.680841 0)
(-0.01844 -0.675985 0)
(-0.041445 -0.663065 0)
(-0.0622362 -0.647111 0)
(-0.0737941 -0.634748 0)
(-0.07802 -0.626155 0)
(-0.0789418 -0.618723 0)
(-0.0786805 -0.611498 0)
(-0.0783774 -0.6019 0)
(-0.0773086 -0.593102 0)
(-0.0769492 -0.581035 0)
(-0.0730648 -0.570199 0)
(-0.0715881 -0.557064 0)
(-0.0676508 -0.545034 0)
(-0.0647713 -0.529303 0)
(-0.0597167 -0.51492 0)
(-0.0429497 -0.491304 0)
(-0.135897 -0.456405 0)
(-0.395463 -0.409833 0)
(-0.277276 -0.286865 0)
(0.198785 -0.210156 0)
(0.274829 -0.289524 0)
(0.0680624 -0.332936 0)
(0.0031069 -0.359184 0)
(0.0393546 -0.373741 0)
(0.0532972 -0.38015 0)
(0.0585198 -0.385655 0)
(0.065269 -0.389737 0)
(0.0694092 -0.392351 0)
(0.074427 -0.393698 0)
(0.0776703 -0.395143 0)
(0.0809629 -0.393478 0)
(0.0819296 -0.392598 0)
(0.0820719 -0.390212 0)
(0.0765971 -0.389423 0)
(0.0640045 -0.391732 0)
(0.0430248 -0.399602 0)
(0.0204602 -0.411673 0)
(0.00584334 -0.421377 0)
(0.000767822 -0.424743 0)
(-0.000767849 -0.424743 0)
(-0.00584354 -0.421376 0)
(-0.0204607 -0.411671 0)
(-0.0430257 -0.3996 0)
(-0.0640054 -0.391735 0)
(-0.0765971 -0.389442 0)
(-0.0820698 -0.390259 0)
(-0.0819237 -0.392688 0)
(-0.0809518 -0.393624 0)
(-0.0776522 -0.39536 0)
(-0.0743999 -0.393981 0)
(-0.069371 -0.392714 0)
(-0.0652188 -0.390147 0)
(-0.0584533 -0.386104 0)
(-0.0532206 -0.380603 0)
(-0.0392545 -0.374118 0)
(-0.00304311 -0.359368 0)
(-0.068066 -0.332705 0)
(-0.275081 -0.288978 0)
(-0.199032 -0.207781 0)
(0.198785 0.210156 0)
(0.274829 0.289524 0)
(0.0680624 0.332936 0)
(0.0031069 0.359184 0)
(0.0393546 0.373741 0)
(0.0532972 0.38015 0)
(0.0585198 0.385655 0)
(0.065269 0.389737 0)
(0.0694092 0.392351 0)
(0.074427 0.393698 0)
(0.0776703 0.395143 0)
(0.0809629 0.393478 0)
(0.0819296 0.392598 0)
(0.0820719 0.390212 0)
(0.0765971 0.389423 0)
(0.0640045 0.391732 0)
(0.0430248 0.399602 0)
(0.0204602 0.411673 0)
(0.00584334 0.421377 0)
(0.000767822 0.424743 0)
(-0.000767849 0.424743 0)
(-0.00584354 0.421376 0)
(-0.0204607 0.411671 0)
(-0.0430257 0.3996 0)
(-0.0640054 0.391735 0)
(-0.0765971 0.389442 0)
(-0.0820698 0.390259 0)
(-0.0819237 0.392688 0)
(-0.0809518 0.393624 0)
(-0.0776522 0.39536 0)
(-0.0743999 0.393981 0)
(-0.069371 0.392714 0)
(-0.0652188 0.390147 0)
(-0.0584533 0.386104 0)
(-0.0532206 0.380603 0)
(-0.0392545 0.374118 0)
(-0.00304311 0.359368 0)
(-0.068066 0.332705 0)
(-0.275081 0.288978 0)
(-0.199032 0.207781 0)
(0.275267 0.289479 0)
(0.393144 0.411521 0)
(0.135189 0.458152 0)
(0.042428 0.492292 0)
(0.0595584 0.515406 0)
(0.0647783 0.52944 0)
(0.0677581 0.545036 0)
(0.0717219 0.556937 0)
(0.0732259 0.570017 0)
(0.0771173 0.580841 0)
(0.0774583 0.592911 0)
(0.0785103 0.60174 0)
(0.0787822 0.611374 0)
(0.0790128 0.618639 0)
(0.0780619 0.626106 0)
(0.0738133 0.634726 0)
(0.0622408 0.647105 0)
(0.0414432 0.663066 0)
(0.0184378 0.675986 0)
(0.00401088 0.680841 0)
(-0.00401181 0.680841 0)
(-0.01844 0.675985 0)
(-0.041445 0.663065 0)
(-0.0622362 0.647111 0)
(-0.0737941 0.634748 0)
(-0.07802 0.626155 0)
(-0.0789418 0.618723 0)