/*--------------------------------*- C++ -*----------------------------------*\
| =========                 |                                                 |
| \\      /  F ield         | OpenFOAM: The Open Source CFD Toolbox           |
|  \\    /   O peration     | Version:  v1912                                 |
|   \\  /    A nd           | Website:  www.openfoam.com                      |
|    \\/     M anipulation  |                                                 |
\*---------------------------------------------------------------------------*/
FoamFile
{
    version     2.0;
    format      ascii;
    class       volVectorField;
    location    "2.34";
    object      grad(p);
}
// * * * * * * * * * * * * * * * * * * * * * * * * * * * * * * * * * * * * * //

dimensions      [1 -2 -2 0 0 0 0];


internalField   nonuniform List<vector> 
1900
(
(25128.4 -0.401994 0)
(-16992.4 -0.000821442 0)
(-415.376 0.753919 0)
(402.68 1.09789 0)
(501.383 -0.111668 0)
(574.4 -3.18692 0)
(651.399 -11.8208 0)
(633.656 -53.4305 0)
(714.916 -75.171 0)
(-75.5392 -123.905 0)
(25128 -0.549239 0)
(-16991.2 0.0894439 0)
(-414.277 1.24627 0)
(401.815 1.19737 0)
(497.098 -2.81844 0)
(562.691 -7.62318 0)
(601.155 -11.1174 0)
(570.306 -35.8382 0)
(644.442 -19.7816 0)
(635.446 -173.808 0)
(25127.9 2.94875e-09 0)
(-16990.6 0 0)
(-414.268 1.45661e-09 0)
(398.616 8.88178e-10 0)
(492.563 -6.21725e-10 0)
(566.101 -1.79412e-09 0)
(623.184 -2.77112e-09 0)
(624.992 -1.38556e-09 0)
(576.946 -9.05942e-10 0)
(461.496 1.42109e-10 0)
(25128 0.549239 0)
(-16991.2 -0.0894439 0)
(-414.277 -1.24627 0)
(401.815 -1.19737 0)
(497.098 2.81844 0)
(562.691 7.62318 0)
(601.155 11.1174 0)
(570.306 35.8382 0)
(644.442 19.7816 0)
(635.446 173.808 0)
(25128.4 0.401994 0)
(-16992.4 0.00082144 0)
(-415.376 -0.753919 0)
(402.68 -1.09789 0)
(501.383 0.111668 0)
(574.4 3.18692 0)
(651.399 11.8208 0)
(633.656 53.4305 0)
(714.916 75.171 0)
(-75.5392 123.905 0)
(-193.759 518.765 1.08374e-11)
(403.332 617.659 -1.3314e-11)
(-1383.67 565.98 -1.6851e-11)
(-10458.5 2093.37 0)
(-4282.63 14087.8 -6.3833e-11)
(610.875 405.469 1.09311e-11)
(222.793 356.736 1.3314e-11)
(-671.003 88.2706 1.6851e-11)
(-4747.6 771.271 0)
(-2740.33 11343.9 0)
(613.273 3.21804e-10 0)
(199.956 5.06418e-10 0)
(-989.911 -2.41782e-09 0)
(-4559.04 1.51394e-09 0)
(3606.77 -1.21596e-09 0)
(610.875 -405.469 1.09311e-11)
(222.793 -356.736 1.3314e-11)
(-671.003 -88.2706 1.6851e-11)
(-4747.6 -771.271 0)
(-2740.33 -11343.9 0)
(-193.759 -518.765 -3.26997e-11)
(403.332 -617.659 -1.3314e-11)
(-1383.67 -565.98 -1.6851e-11)
(-10458.5 -2093.37 -4.51729e-11)
(-4282.63 -14087.8 6.3833e-11)
(15300.7 -4112.34 3.37696e-11)
(2790.4 -701.327 -2.8998e-11)
(2420.3 -139.852 0)
(1364.44 2399.68 2.30584e-11)
(-10842.5 -660.843 -1.03787e-11)
(10413.8 -4317.04 -1.68229e-11)
(3719.43 -547.837 1.44885e-11)
(3559.95 -357.93 0)
(1007.08 542.422 -1.44608e-11)
(-10300.3 -7681.82 2.53186e-12)
(11638.6 -1.43544e-09 0)
(3736.15 -1.97373e-09 0)
(2795.76 3.48692e-09 0)
(-2149.84 -3.94746e-09 5.79083e-12)
(-12830.6 -1.5686e-08 -5.06372e-12)
(10413.8 4317.04 -1.68229e-11)
(3719.43 547.837 1.44885e-11)
(3559.95 357.93 0)
(1007.08 -542.422 -1.44608e-11)
(-10300.3 7681.82 2.53186e-12)
(15300.7 4112.34 1.68229e-11)
(2790.4 701.327 2.11217e-14)
(2420.3 139.852 0)
(1364.44 -2399.68 7.22706e-14)
(-10842.5 660.843 1.03787e-11)
(-31539 -5462.38 0)
(-19051 7869.59 0)
(2235.19 4025.42 0)
(598.044 1569.89 0)
(-109.762 801.323 0)
(485.04 531.896 0)
(924.704 436.55 0)
(1271.91 511.035 0)
(1620.67 537.868 0)
(1983.05 565.481 0)
(2341.45 612.353 0)
(2644.11 663.573 0)
(2891.77 727.157 0)
(3077.02 797.582 0)
(3197.77 871.741 0)
(3229.91 943.691 0)
(3097.62 1013.08 0)
(2633.56 1075 0)
(1718.5 1121.27 0)
(562.261 1140.51 0)
(-627.567 1138.94 0)
(-1807.49 1115.08 0)
(-2723.11 1070.97 0)
(-3186.46 1013.32 0)
(-3325.31 948.164 0)
(-3313.35 878.661 0)
(-3232.46 806.575 0)
(-3115.86 733.094 0)
(-2977.69 659.177 0)
(-2823.14 585.738 0)
(-2650.58 513.777 0)
(-2453.27 444.438 0)
(-2228.27 379.107 0)
(-1990.88 318.836 0)
(-1782.43 265.201 0)
(-1615.29 216.938 0)
(-1400.68 183.116 0)
(-2014.24 139.455 0)
(55109.7 100.322 0)
(-76504.8 89.8549 0)
(-29791.3 -2908.22 0)
(-19587.8 9670.79 0)
(1116.22 4154.34 0)
(-63.5707 873.522 0)
(-187.072 406.66 0)
(437.194 237.251 0)
(920.463 156.056 0)
(1286.28 208.516 0)
(1625.73 220.968 0)
(1991.15 234.207 0)
(2353.26 259.383 0)
(2658.83 289.074 0)
(2909.22 328.089 0)
(3095.36 370.39 0)
(3215.21 411.243 0)
(3245.76 446.406 0)
(3111.94 478.754 0)
(2645.23 506.961 0)
(1725.46 527.651 0)
(564.045 535.182 0)
(-630.3 533.772 0)
(-1814.86 522.029 0)
(-2734.39 499.742 0)
(-3200.38 469.894 0)
(-3340.94 435.053 0)
(-3330.19 396.713 0)
(-3250.19 355.802 0)
(-3134.23 313.093 0)
(-2996.42 269.418 0)
(-2841.89 225.796 0)
(-2668.91 183.481 0)
(-2470.61 143.895 0)
(-2244.03 108.498 0)
(-2004.5 78.3698 0)
(-1793.65 55.4497 0)
(-1622.93 37.6261 0)
(-1405.84 27.3098 0)
(-2018.37 14.724 0)
(55103.5 6.15591 0)
(-76503.1 -27.657 0)
(-26325.3 6.07191e-09 0)
(-16996.5 8.55881e-10 0)
(-324.015 -1.77636e-10 0)
(-492.19 3.39123e-10 0)
(-294.859 -6.94394e-10 0)
(412.137 -8.88178e-10 0)
(916.345 -2.90677e-10 0)
(1290.79 2.06703e-09 0)
(1628.15 8.78489e-09 0)
(1994.23 3.97258e-09 0)
(2357.41 -8.75582e-08 0)
(2664.1 -3.42449e-07 0)
(2915.43 -4.93084e-07 0)
(3101.21 4.07367e-07 0)
(3219.88 4.56944e-06 0)
(3249.55 1.08308e-05 0)
(3115.23 2.29127e-05 0)
(2647.79 -8.97189e-06 0)
(1726.71 3.8675e-05 0)
(564.042 2.54652e-05 0)
(-631.393 1.0762e-05 0)
(-1817.39 -2.53116e-05 0)
(-2738.28 6.89589e-05 0)
(-3205.28 0.000102362 0)
(-3346.6 6.07868e-05 0)
(-3336.41 0.000109658 0)
(-3256.78 9.84065e-05 0)
(-3140.99 7.14833e-05 0)
(-3003.09 2.61199e-05 0)
(-2848.14 -1.98841e-05 0)
(-2674.41 -4.81658e-05 0)
(-2475.08 -7.74788e-05 0)
(-2247.33 -7.92551e-05 0)
(-2006.31 -7.5213e-05 0)
(-1794.28 -6.02893e-05 0)
(-1623.48 -6.10336e-05 0)
(-1407.34 -2.75986e-05 0)
(-2020.39 -9.19111e-06 0)
(55097.4 1.14352e-06 0)
(-76498.6 -6.9586e-06 0)
(-29791.3 2908.22 0)
(-19587.8 -9670.79 0)
(1116.22 -4154.34 0)
(-63.5707 -873.522 0)
(-187.072 -406.66 0)
(437.194 -237.251 0)
(920.463 -156.056 0)
(1286.28 -208.516 0)
(1625.73 -220.968 0)
(1991.15 -234.207 0)
(2353.26 -259.383 0)
(2658.83 -289.074 0)
(2909.22 -328.089 0)
(3095.36 -370.39 0)
(3215.21 -411.243 0)
(3245.76 -446.406 0)
(3111.94 -478.754 0)
(2645.23 -506.961 0)
(1725.46 -527.651 0)
(564.045 -535.182 0)
(-630.3 -533.772 0)
(-1814.86 -522.029 0)
(-2734.39 -499.742 0)
(-3200.38 -469.894 0)
(-3340.94 -435.053 0)
(-3330.19 -396.713 0)
(-3250.19 -355.802 0)
(-3134.23 -313.092 0)
(-2996.42 -269.418 0)
(-2841.89 -225.796 0)
(-2668.91 -183.481 0)
(-2470.61 -143.895 0)
(-2244.03 -108.498 0)
(-2004.5 -78.37 0)
(-1793.65 -55.4499 0)
(-1622.93 -37.6262 0)
(-1405.84 -27.3098 0)
(-2018.37 -14.724 0)
(55103.5 -6.15591 0)
(-76503.1 27.657 0)
(-31539 5462.38 0)
(-19051 -7869.59 0)
(2235.19 -4025.42 0)
(598.044 -1569.89 0)
(-109.762 -801.323 0)
(485.04 -531.896 0)
(924.704 -436.55 0)
(1271.91 -511.035 0)
(1620.67 -537.868 0)
(1983.05 -565.481 0)
(2341.45 -612.353 0)
(2644.11 -663.573 0)
(2891.77 -727.157 0)
(3077.02 -797.582 0)
(3197.77 -871.741 0)
(3229.91 -943.691 0)
(3097.62 -1013.08 0)
(2633.56 -1075 0)
(1718.5 -1121.27 0)
(562.261 -1140.51 0)
(-627.567 -1138.94 0)
(-1807.49 -1115.08 0)
(-2723.11 -1070.97 0)
(-3186.46 -1013.32 0)
(-3325.31 -948.164 0)
(-3313.35 -878.661 0)
(-3232.46 -806.575 0)
(-3115.86 -733.094 0)
(-2977.69 -659.177 0)
(-2823.14 -585.738 0)
(-2650.58 -513.777 0)
(-2453.27 -444.438 0)
(-2228.27 -379.107 0)
(-1990.88 -318.836 0)
(-1782.43 -265.201 0)
(-1615.29 -216.938 0)
(-1400.68 -183.116 0)
(-2014.24 -139.455 0)
(55109.7 -100.322 0)
(-76504.8 -89.8548 0)
(53252.4 15028.5 0)
(-26159.8 -5067.24 0)
(3774.03 -2691.99 0)
(1193.83 -2413.06 0)
(374.642 -1310.18 0)
(610.683 -933.315 0)
(928.646 -840.894 0)
(1239.36 -867.676 0)
(1597.42 -906.284 0)
(1953.79 -939.006 0)
(2305.39 -995.808 0)
(2603.84 -1059.29 0)
(2845.34 -1136.12 0)
(3025.87 -1221.98 0)
(3143.72 -1313.96 0)
(3175.44 -1408.56 0)
(3046.13 -1501.25 0)
(2590.86 -1584.26 0)
(1692.41 -1645.5 0)
(555.02 -1672.13 0)
(-617.507 -1669.63 0)
(-1780.74 -1634.83 0)
(-2683.6 -1571.94 0)
(-3139.44 -1491.26 0)
(-3274.55 -1401.96 0)
(-3260.86 -1308.63 0)
(-3179.39 -1213.76 0)
(-3063.01 -1118.95 0)
(-2925.65 -1025.37 0)
(-2772.37 -933.943 0)
(-2601.47 -845.44 0)
(-2406.2 -760.603 0)
(-2183.47 -680.279 0)
(-1948.81 -604.853 0)
(-1742.71 -535.717 0)
(-1580.27 -470.355 0)
(-1363.21 -414.426 0)
(-1971.21 -339.475 0)
(55127.4 -263.783 0)
(-76381.9 -401.951 0)
(56797.1 10733.3 0)
(-32315.2 -2030.55 0)
(3967.68 -2319.32 0)
(1610.13 -2366.83 0)
(1056.42 -1747.32 0)
(869.891 -1474.35 0)
(985.842 -1410.26 0)
(1226.35 -1392.35 0)
(1564.41 -1432.04 0)
(1912.48 -1470.31 0)
(2244.88 -1537.33 0)
(2530.49 -1620.9 0)
(2759.9 -1721.74 0)
(2933.08 -1833.87 0)
(3046.95 -1952.63 0)
(3078.64 -2074.2 0)
(2955.91 -2193.28 0)
(2517.46 -2301.2 0)
(1647.82 -2381.88 0)
(542.892 -2418.87 0)
(-597.02 -2415.07 0)
(-1727.7 -2365.31 0)
(-2605.95 -2276.92 0)
(-3047.87 -2165.95 0)
(-3176.53 -2045.59 0)
(-3160.14 -1921.94 0)
(-3078.13 -1798 0)
(-2962.67 -1675.52 0)
(-2827.32 -1555.65 0)
(-2676.97 -1439.3 0)
(-2509.88 -1327.24 0)
(-2319.35 -1220.36 0)
(-2102.2 -1119.85 0)
(-1874.13 -1026.75 0)
(-1674.12 -942.118 0)
(-1517.19 -863.122 0)
(-1294.65 -782.011 0)
(-1892.14 -688.198 0)
(55040 -579.449 0)
(-75929.2 -1582.41 0)
(61638.7 10055.7 0)
(-38737.8 -1004.71 0)
(3449.97 -2071.94 0)
(1745.03 -2118.62 0)
(1234.67 -2139.6 0)
(935.484 -2000.05 0)
(1007.66 -1965.6 0)
(1218.37 -1934.53 0)
(1522.3 -1959.32 0)
(1852.33 -1998.68 0)
(2160.27 -2065.41 0)
(2426.14 -2157.8 0)
(2640.11 -2271.28 0)
(2803.37 -2399.55 0)
(2912.14 -2537.29 0)
(2943.53 -2679.57 0)
(2827.39 -2821.09 0)
(2409.13 -2952.32 0)
(1579.02 -3053.95 0)
(523.035 -3103.75 0)
(-565.9 -3099.59 0)
(-1647.62 -3035.4 0)
(-2491.48 -2924.07 0)
(-2916.51 -2787.79 0)
(-3039.42 -2643.29 0)
(-3022.28 -2497.62 0)
(-2941.92 -2353.86 0)
(-2829.47 -2213.64 0)
(-2698.02 -2077.9 0)
(-2552.26 -1947.29 0)
(-2390.49 -1822.44 0)
(-2206.35 -1704.25 0)
(-1996.9 -1594.23 0)
(-1777.53 -1494 0)
(-1585.04 -1402.87 0)
(-1425.99 -1317.49 0)
(-1194.65 -1213.64 0)
(-1776.01 -1122.44 0)
(54265.7 -997.844 0)
(-74298.7 -4032.14 0)
(65518.9 3652.05 0)
(-44001.8 -1181.02 0)
(2894.27 -1974.53 0)
(1544.93 -2199.76 0)
(1170.68 -2346.4 0)
(1037.57 -2260.03 0)
(1048.98 -2226.15 0)
(1232.4 -2193.76 0)
(1502.59 -2190.11 0)
(1810.25 -2215.24 0)
(2091.54 -2269.62 0)
(2332.11 -2353.76 0)
(2526.94 -2461.54 0)
(2676.74 -2586.51 0)
(2777.11 -2723.11 0)
(2805.16 -2866.31 0)
(2693.09 -3010.39 0)
(2293.07 -3145.84 0)
(1501.89 -3253.73 0)
(498.912 -3310.24 0)
(-531.154 -3306.5 0)
(-1558.56 -3235.93 0)
(-2367.35 -3116.49 0)
(-2777.31 -2973.51 0)
(-2896.91 -2824.47 0)
(-2881.23 -2676.15 0)
(-2804.47 -2531.3 0)
(-2696.74 -2391.31 0)
(-2570.66 -2256.97 0)
(-2430.8 -2128.82 0)
(-2275.68 -2007.4 0)
(-2099.45 -1893.93 0)
(-1899.6 -1790.08 0)
(-1689.73 -1697.72 0)
(-1504.03 -1612.72 0)
(-1334.85 -1531.75 0)
(-1106.69 -1427.65 0)
(-1684.19 -1373.65 0)
(52236.1 -1268.09 0)
(-71082.1 -6749.09 0)
(64019.9 -1407.2 0)
(-44159.8 -1557.27 0)
(2468.28 -2007.6 0)
(1386.68 -2234.65 0)
(1176.6 -2262.97 0)
(1051.36 -2299.94 0)
(1071.52 -2285.52 0)
(1253.1 -2263.19 0)
(1501.61 -2248.25 0)
(1775.72 -2267.59 0)
(2026.78 -2319.5 0)
(2241.19 -2401.12 0)
(2415.82 -2506.43 0)
(2551.32 -2629.01 0)
(2642.51 -2763.25 0)
(2666.7 -2904 0)
(2558.03 -3045.74 0)
(2174.64 -3180.26 0)
(1420.59 -3290.28 0)
(472.188 -3351.29 0)
(-494.291 -3348.09 0)
(-1464.53 -3274.13 0)
(-2238.6 -3151.2 0)
(-2635.11 -3006.54 0)
(-2752.87 -2857.51 0)
(-2739.76 -2710.26 0)
(-2667.44 -2567.19 0)
(-2565.12 -2429.47 0)
(-2445.07 -2297.84 0)
(-2311.76 -2172.69 0)
(-2164.14 -2054.9 0)
(-1996.93 -1945.59 0)
(-1807.83 -1846.89 0)
(-1606.63 -1760.11 0)
(-1425.09 -1676.9 0)
(-1247.64 -1596.34 0)
(-1042.3 -1505.17 0)
(-1622.26 -1488.68 0)
(49085.7 -1395.28 0)
(-66573 -8677.65 0)
(62662.2 -4835.53 0)
(-44580.3 -1650.45 0)
(2241.53 -1968.16 0)
(1298.85 -2080.33 0)
(1107.76 -2150.63 0)
(1015.83 -2231.28 0)
(1084.39 -2230 0)
(1268.31 -2217.46 0)
(1498.35 -2211.27 0)
(1741.59 -2233.13 0)
(1962.87 -2286.7 0)
(2151.97 -2367.83 0)
(2307.34 -2471.12 0)
(2429.27 -2590.02 0)
(2512.12 -2719.17 0)
(2532.94 -2853.8 0)
(2426.87 -2989.56 0)
(2057.42 -3120.24 0)
(1337.08 -3230.5 0)
(443.21 -3295.05 0)
(-456.8 -3292.64 0)
(-1368.83 -3217.38 0)
(-2109.49 -3094.05 0)
(-2494.3 -2951.06 0)
(-2611.4 -2805.2 0)
(-2601.47 -2661.85 0)
(-2533.9 -2522.97 0)
(-2437.18 -2389.58 0)
(-2323.21 -2262.14 0)
(-2196.7 -2141.49 0)
(-2056.84 -2027.71 0)
(-1899.01 -1923.66 0)
(-1720.87 -1829.2 0)
(-1525.92 -1746.86 0)
(-1346.21 -1663.66 0)
(-1169.36 -1584.74 0)
(-1002.94 -1512.85 0)
(-1578.29 -1522.22 0)
(45308.6 -1426 0)
(-61375.5 -9541.38 0)
(57769.8 -7889.29 0)
(-41396.7 -1576.96 0)
(2054.03 -1861.77 0)
(1210.85 -1961.55 0)
(1031.14 -2035.22 0)
(974.877 -2111.1 0)
(1084.83 -2123.4 0)
(1271.14 -2125.16 0)
(1486.52 -2129.14 0)
(1703.03 -2159.12 0)
(1896.97 -2215.31 0)
(2063.48 -2297.53 0)
(2201.71 -2398.16 0)
(2312.29 -2512.13 0)
(2388.32 -2634.3 0)
(2406.14 -2761.19 0)
(2301.28 -2889.94 0)
(1942.46 -3016.31 0)
(1252.14 -3126.38 0)
(412.309 -3193.72 0)
(-419.449 -3192.12 0)
(-1273.16 -3116.82 0)
(-1981.96 -2994.69 0)
(-2356.77 -2854.99 0)
(-2474.19 -2713.79 0)
(-2467.79 -2575.6 0)
(-2405.07 -2442.02 0)
(-2313.78 -2313.71 0)
(-2206.01 -2191.57 0)
(-2085.86 -2075.12 0)
(-1954.23 -1967.32 0)
(-1805.63 -1866.63 0)
(-1637.46 -1777.82 0)
(-1447.11 -1698.39 0)
(-1268.87 -1616.01 0)
(-1102.31 -1542.34 0)
(-982.055 -1488.2 0)
(-1538.57 -1509.06 0)
(41358.2 -1402.52 0)
(-56004.5 -9780.12 0)
(53540.2 -7726.64 0)
(-38772 -1494.58 0)
(1870.91 -1756.6 0)
(1131.71 -1838.53 0)
(963.655 -1909.39 0)
(930.864 -1976.28 0)
(1070.85 -1999.54 0)
(1262.78 -2012.09 0)
(1465.62 -2028.1 0)
(1658.55 -2062.06 0)
(1829.49 -2124.11 0)
(1975.77 -2204.77 0)
(2100.54 -2302.35 0)
(2201.72 -2409.84 0)
(2272.13 -2524.38 0)
(2286.59 -2643.47 0)
(2181.02 -2765.72 0)
(1829.57 -2888.35 0)
(1166.12 -2998.28 0)
(379.86 -3067.41 0)
(-382.696 -3066.53 0)
(-1178.58 -2992.14 0)
(-1857.18 -2872.21 0)
(-2223.61 -2736.75 0)
(-2342.17 -2601.03 0)
(-2339.58 -2468.75 0)
(-2281.53 -2340.98 0)
(-2195.84 -2218.63 0)
(-2093.3 -2101.29 0)
(-1980.6 -1991.71 0)
(-1855.92 -1886.16 0)
(-1716.4 -1794.38 0)
(-1558.75 -1705.49 0)
(-1369.99 -1632.44 0)
(-1195.84 -1552.06 0)
(-1046.21 -1486.47 0)
(-970.863 -1444.6 0)
(-1495.72 -1464.39 0)
(37338.3 -1347.69 0)
(-50599.5 -9539.07 0)
(48883.9 -8448.22 0)
(-35643.8 -1419.05 0)
(1722.58 -1652.47 0)
(1063.61 -1718.77 0)
(898.405 -1791.71 0)
(888.005 -1847.26 0)
(1050.32 -1871.78 0)
(1243.63 -1894.1 0)
(1438.37 -1911.67 0)
(1610.51 -1957.02 0)
(1759.45 -2016.43 0)
(1891.72 -2097.9 0)
(2004.1 -2189.33 0)
(2098.33 -2290.41 0)
(2163.2 -2397.35 0)
(2173.58 -2509.46 0)
(2065.3 -2626.15 0)
(1718.36 -2745.66 0)
(1079.59 -2855.23 0)
(346.534 -2924.94 0)
(-346.917 -2924.59 0)
(-1085.9 -2851.9 0)
(-1735.85 -2734.86 0)
(-2095.45 -2604.27 0)
(-2215.94 -2474.59 0)
(-2217.2 -2348.66 0)
(-2164.05 -2227.39 0)
(-2082.81 -2110.78 0)
(-1987.34 -2000.76 0)
(-1878.55 -1894.12 0)
(-1764.07 -1798.94 0)
(-1631.54 -1705.53 0)
(-1481.41 -1626.11 0)
(-1299.26 -1554.44 0)
(-1128.2 -1480.13 0)
(-998.762 -1424.47 0)
(-960.779 -1390.2 0)
(-1445.18 -1400.73 0)
(33577.1 -1277.3 0)
(-45513.6 -9227.19 0)
(44031.7 -8567.41 0)
(-32223.4 -1319.04 0)
(1582.09 -1536.58 0)
(997.534 -1609.06 0)
(839.841 -1681.66 0)
(853.705 -1724.79 0)
(1025.7 -1741.73 0)
(1224.34 -1765.02 0)
(1404.99 -1792.27 0)
(1557.6 -1835.6 0)
(1693.74 -1901.13 0)
(1809.16 -1975.79 0)
(1915.03 -2062.84 0)
(2001.26 -2156.18 0)
(2061.04 -2256.27 0)
(2066.11 -2362.1 0)
(1953.42 -2473.9 0)
(1608.83 -2590.4 0)
(993.351 -2698.9 0)
(313.016 -2767.94 0)
(-312.307 -2767.91 0)
(-995.749 -2697.54 0)
(-1618.56 -2584.09 0)
(-1972.81 -2458.97 0)
(-2095.86 -2335.9 0)
(-2101.37 -2217.03 0)
(-2052.3 -2102.64 0)
(-1977.45 -1993.71 0)
(-1884.52 -1888.76 0)
(-1786.11 -1792.35 0)
(-1674.18 -1696.27 0)
(-1549.85 -1614.76 0)
(-1413.16 -1532.98 0)
(-1229.33 -1465.31 0)
(-1070.6 -1402.21 0)
(-959.539 -1351.24 0)
(-947.979 -1321.73 0)
(-1386.93 -1317.51 0)
(29796.4 -1192.37 0)
(-40477 -8747.51 0)
(39356.9 -8638.34 0)
(-28868.6 -1241.73 0)
(1443.1 -1443.92 0)
(923.804 -1527.32 0)
(786.884 -1582.29 0)
(830.127 -1601.88 0)
(1011.55 -1609.54 0)
(1194.92 -1629.79 0)
(1370.36 -1661.5 0)
(1505.61 -1711.43 0)
(1624.36 -1770.7 0)
(1735.89 -1842.34 0)
(1830.27 -1920.71 0)
(1911.92 -2007.01 0)
(1964.76 -2099.77 0)
(1963.87 -2199.35 0)
(1845.3 -2306.03 0)
(1501.54 -2418.89 0)
(908.506 -2525.14 0)
(280.037 -2592.2 0)
(-279.081 -2592.32 0)
(-908.775 -2524.94 0)
(-1505.95 -2415.88 0)
(-1856.28 -2297.03 0)
(-1982.8 -2181.54 0)
(-1992.42 -2070.83 0)
(-1948.85 -1965.05 0)
(-1876.71 -1864.07 0)
(-1793.3 -1769 0)
(-1693.06 -1677.87 0)
(-1592.94 -1593.13 0)
(-1474.18 -1512.27 0)
(-1337.39 -1435.5 0)
(-1173.25 -1374.14 0)
(-1018.29 -1314.77 0)
(-921.208 -1276.82 0)
(-928.271 -1252.52 0)
(-1320.52 -1236.48 0)
(26417.3 -1111.97 0)
(-35935.2 -8235.12 0)
(34511 -8474.83 0)
(-25290.6 -1149.64 0)
(1306.88 -1336.75 0)
(864.202 -1421.63 0)
(767.997 -1449.63 0)
(827.444 -1453.17 0)
(998.802 -1450.7 0)
(1174.27 -1480.83 0)
(1326.32 -1510.75 0)
(1452.37 -1565.45 0)
(1567.59 -1620.53 0)
(1664.61 -1688.12 0)
(1756.35 -1760.12 0)
(1828.71 -1839.18 0)
(1875.69 -1924.54 0)
(1867.34 -2016.99 0)
(1741.86 -2117.31 0)
(1397.68 -2225.1 0)
(826.349 -2327.52 0)
(248.287 -2391.35 0)
(-247.499 -2391.5 0)
(-825.73 -2327.85 0)
(-1398.93 -2224.16 0)
(-1746.99 -2112.75 0)
(-1877.89 -2006.28 0)
(-1892.76 -1905.28 0)
(-1853.05 -1809.18 0)
(-1788.53 -1717.38 0)
(-1705.09 -1630.7 0)
(-1616.64 -1546.06 0)
(-1514.6 -1469.93 0)
(-1397.95 -1389.98 0)
(-1280.05 -1324.07 0)
(-1112.99 -1255.68 0)
(-976.813 -1208.88 0)
(-899.552 -1175.81 0)
(-909.11 -1154.22 0)
(-1251.49 -1127.34 0)
(23052.3 -1006.42 0)
(-31469.8 -7607.6 0)
(30082.4 -8154.11 0)
(-21990.1 -1081.36 0)
(1181 -1250.44 0)
(815.03 -1304.68 0)
(756.494 -1315.51 0)
(829.091 -1290.65 0)
(984.893 -1299.78 0)
(1137.06 -1312.19 0)
(1288.82 -1361.15 0)
(1399.81 -1398.69 0)
(1506.14 -1458.64 0)
(1601.39 -1515.91 0)
(1684.7 -1583.8 0)
(1753.48 -1655.6 0)
(1793.42 -1733.55 0)
(1778.1 -1817.73 0)
(1644.77 -1909.97 0)
(1298.98 -2010.86 0)
(748.302 -2108.02 0)
(218.392 -2167.77 0)
(-217.894 -2167.89 0)
(-747.526 -2108.47 0)
(-1298.68 -2011 0)
(-1646.32 -1908.31 0)
(-1782.87 -1812.31 0)
(-1802.49 -1722.28 0)
(-1767.79 -1636.37 0)
(-1704.72 -1554.59 0)
(-1628.21 -1474.6 0)
(-1538.13 -1403.54 0)
(-1442.53 -1326.71 0)
(-1333.63 -1269.42 0)
(-1207.98 -1194.5 0)
(-1062.24 -1144.81 0)
(-941.319 -1101.56 0)
(-868.537 -1079.39 0)
(-881.566 -1064.58 0)
(-1178.09 -1035.22 0)
(20172.7 -921.195 0)
(-27634.4 -7012.04 0)
(25611.3 -7535.63 0)
(-18637.9 -998.616 0)
(1091.68 -1147.03 0)
(801.506 -1165.63 0)
(781.519 -1163.49 0)
(842.602 -1111.25 0)
(978.048 -1124.65 0)
(1115.13 -1128.05 0)
(1242.97 -1167.76 0)
(1358.42 -1210.59 0)
(1454.63 -1260.43 0)
(1543.99 -1322.04 0)
(1621.74 -1389.09 0)
(1684.42 -1462.74 0)
(1719.46 -1539.74 0)
(1697.33 -1620.05 0)
(1555.75 -1705.54 0)
(1206.84 -1798.83 0)
(675.147 -1889.31 0)
(190.596 -1944.06 0)
(-190.354 -1944.13 0)
(-674.544 -1889.67 0)
(-1206.05 -1799.35 0)
(-1555.52 -1705.44 0)
(-1698.63 -1618.07 0)
(-1723.22 -1534.28 0)
(-1691.46 -1452.05 0)
(-1632.64 -1371.27 0)
(-1559.53 -1295.34 0)
(-1474.13 -1222.48 0)
(-1385.37 -1161.08 0)
(-1270.56 -1100.62 0)
(-1159.97 -1047.84 0)
(-1023.42 -1009.78 0)
(-913.768 -977.386 0)
(-863.912 -973.928 0)
(-866.548 -968.646 0)
(-1113.32 -941.155 0)
(17292.8 -833.243 0)
(-23825 -6346.57 0)
(21858.5 -6720.61 0)
(-15833.8 -891.632 0)
(1020.06 -1021.52 0)
(799.172 -1034.7 0)
(808.904 -1028.46 0)
(866.512 -981.363 0)
(968.696 -983.447 0)
(1095.52 -986.792 0)
(1209.29 -1015.76 0)
(1310.51 -1050.62 0)
(1398.74 -1097.85 0)
(1477.41 -1154.13 0)
(1549.12 -1220.44 0)
(1608.31 -1294.31 0)
(1641.83 -1373.41 0)
(1618.33 -1454.15 0)
(1472.48 -1536.26 0)
(1121.89 -1623.4 0)
(608.352 -1707.89 0)
(165.559 -1758.14 0)
(-165.483 -1758.17 0)
(-608.002 -1708.11 0)
(-1121.15 -1623.91 0)
(-1471.64 -1536.8 0)
(-1617.93 -1454.04 0)
(-1642.51 -1371.63 0)
(-1610.7 -1289.6 0)
(-1553.71 -1211.35 0)
(-1484.83 -1139.27 0)
(-1408.75 -1075.34 0)
(-1325.1 -1019.89 0)
(-1224.51 -972.287 0)
(-1120.44 -935.313 0)
(-994.352 -906.385 0)
(-906.771 -896.802 0)
(-860.115 -899.372 0)
(-849.985 -895.267 0)
(-1047.61 -860.069 0)
(14963.8 -752.285 0)
(-20715.7 -5667.41 0)
(18275.9 -5618.42 0)
(-13146.1 -777.255 0)
(953.808 -905.541 0)
(794.816 -937.494 0)
(832.921 -941.508 0)
(885.976 -912.168 0)
(972.816 -916.248 0)
(1083.98 -908.853 0)
(1181.46 -939.139 0)
(1279.33 -957.322 0)
(1354.88 -990.942 0)
(1425.86 -1026.69 0)
(1486.66 -1072.03 0)
(1537.01 -1129.01 0)
(1565.42 -1200.04 0)
(1540.4 -1284.59 0)
(1392.66 -1377.84 0)
(1041.45 -1473.23 0)
(545.306 -1554.61 0)
(142.141 -1597.73 0)
(-142.147 -1597.74 0)
(-545.163 -1554.71 0)
(-1040.97 -1473.58 0)
(-1391.83 -1378.46 0)
(-1539.46 -1285.25 0)
(-1564.75 -1200.2 0)
(-1537.02 -1127.9 0)
(-1487.77 -1068.67 0)
(-1428.46 -1020.05 0)
(-1359.09 -979.57 0)
(-1286.06 -940.683 0)
(-1189.05 -913.944 0)
(-1096.46 -878.364 0)
(-986.315 -869.245 0)
(-907.009 -859.816 0)
(-862.433 -861.178 0)
(-828.675 -845.977 0)
(-975.535 -792.542 0)
(12660.3 -673.824 0)
(-17638.8 -4868.14 0)
(15695.4 -4456.92 0)
(-11292.3 -613.803 0)
(865.648 -756.834 0)
(764.513 -825.76 0)
(833.309 -863.795 0)
(890.854 -872.955 0)
(971.891 -892.252 0)
(1073.46 -901.477 0)
(1162.58 -928.313 0)
(1260.59 -940.401 0)
(1331.89 -952.546 0)
(1399.27 -956.138 0)
(1450.52 -958.026 0)
(1484.96 -964.409 0)
(1491.91 -985.775 0)
(1447 -1032.72 0)
(1290.71 -1110.39 0)
(951.539 -1208.07 0)
(488.374 -1297.87 0)
(123.997 -1342.51 0)
(-124.026 -1342.5 0)
(-488.351 -1297.89 0)
(-951.308 -1208.24 0)
(-1290.15 -1110.81 0)
(-1446.15 -1033.41 0)
(-1490.89 -986.535 0)
(-1483.96 -964.887 0)
(-1449.78 -957.712 0)
(-1398.97 -954.408 0)
(-1332.26 -948.599 0)
(-1261.86 -933.74 0)
(-1164.46 -917.241 0)
(-1077.37 -887.323 0)
(-976.478 -869.625 0)
(-898.997 -846.706 0)
(-846.778 -823.072 0)
(-783.845 -775.575 0)
(-881.723 -691.365 0)
(11036.4 -550.179 0)
(-15375.2 -3957.62 0)
(13389.6 -2723.44 0)
(-9580.56 -639.573 0)
(749.559 -772.775 0)
(691.745 -891.411 0)
(787.442 -985.037 0)
(858.554 -1054.16 0)
(945.331 -1123.69 0)
(1049.23 -1188.01 0)
(1143.95 -1261.13 0)
(1255.98 -1327.99 0)
(1339.72 -1391.37 0)
(1420.58 -1446.57 0)
(1478.69 -1494.33 0)
(1510.27 -1534.73 0)
(1499.59 -1574.21 0)
(1420.32 -1624.39 0)
(1223.69 -1700.4 0)
(860.793 -1808.94 0)
(415.762 -1913.89 0)
(99.1263 -1964.29 0)
(-99.1507 -1964.28 0)
(-415.777 -1913.88 0)
(-860.694 -1808.99 0)
(-1223.36 -1700.61 0)
(-1419.7 -1624.83 0)
(-1498.73 -1574.89 0)
(-1509.24 -1535.57 0)
(-1477.68 -1495.15 0)
(-1419.68 -1447.12 0)
(-1339.18 -1391.37 0)
(-1255.84 -1327.14 0)
(-1144.33 -1258.88 0)
(-1050.58 -1184.56 0)
(-947.175 -1117.2 0)
(-862.149 -1046 0)
(-793.888 -971.12 0)
(-701.757 -871.832 0)
(-758.335 -744.496 0)
(9512.79 -610.006 0)
(-13294.9 -2490.4 0)
(12454.7 107175 0)
(-9412.56 9893.16 0)
(622.968 10100 0)
(559.97 11911.1 0)
(676.482 13747.2 0)
(757.24 16363.6 0)
(842.902 18984.2 0)
(941.025 22260.5 0)
(1027.7 25526.8 0)
(1135.08 29320.7 0)
(1217.62 33126.4 0)
(1300.06 37367.9 0)
(1365.56 41584.4 0)
(1407.98 46006.6 0)
(1405.51 50271.2 0)
(1325.41 54099.6 0)
(1112.86 56911.2 0)
(745.806 58309.5 0)
(338.682 58625.1 0)
(75.44 58618.3 0)
(-75.4578 58618.3 0)
(-338.71 58625.1 0)
(-745.791 58309.5 0)
(-1112.69 56911 0)
(-1325 54099.1 0)
(-1404.86 50270.3 0)
(-1407.11 46005.2 0)
(-1364.56 41582.7 0)
(-1298.97 37366.2 0)
(-1216.64 33125 0)
(-1134.19 29320.1 0)
(-1027.07 25527.3 0)
(-940.836 22262.6 0)
(-842.958 18988.6 0)
(-758.228 16370.5 0)
(-678.941 13758.1 0)
(-565.462 11927.2 0)
(-629.418 10122.6 0)
(9354.03 9916.77 0)
(-12387.6 107248 0)
(126201 -130844 0)
(-103126 -13043.6 0)
(2694.09 -14059.3 0)
(4206.34 -16485.8 0)
(5078.03 -19005.5 0)
(5905.04 -22457.5 0)
(6627.81 -25919.1 0)
(7353.97 -30210.1 0)
(7947.48 -34527.1 0)
(8579.23 -39524 0)
(9094.25 -44608 0)
(9570.95 -50225 0)
(9803.22 -55889.3 0)
(9881.26 -61815.2 0)
(9298.29 -67604.5 0)
(7818.79 -72922.9 0)
(5280.57 -77093.8 0)
(2512.39 -79557.6 0)
(713.318 -80474.9 0)
(92.6209 -80649.3 0)
(-92.6241 -80649.3 0)
(-713.348 -80474.9 0)
(-2512.48 -79557.6 0)
(-5280.72 -77093.7 0)
(-7818.92 -72922.9 0)
(-9298.26 -67604.7 0)
(-9880.95 -61815.9 0)
(-9802.52 -55890.7 0)
(-9569.82 -50227.4 0)
(-9092.7 -44611.7 0)
(-8577.26 -39529 0)
(-7945.18 -34533.8 0)
(-7351.46 -30218.2 0)
(-6625.05 -25928.6 0)
(-5902.43 -22468.4 0)
(-5075.61 -19016.6 0)
(-4205.14 -16496.7 0)
(-2695.62 -14066 0)
(103106 -13046.2 0)
(-126199 -130770 0)
(126201 130844 0)
(-103126 13043.6 0)
(2694.09 14059.3 0)
(4206.34 16485.8 0)
(5078.03 19005.5 0)
(5905.04 22457.5 0)
(6627.81 25919.1 0)
(7353.97 30210.1 0)
(7947.48 34527.1 0)
(8579.23 39524 0)
(9094.25 44608 0)
(9570.95 50225 0)
(9803.22 55889.3 0)
(9881.26 61815.2 0)
(9298.29 67604.5 0)
(7818.79 72922.9 0)
(5280.57 77093.8 0)
(2512.39 79557.6 0)
(713.318 80474.9 0)
(92.6209 80649.3 0)
(-92.6241 80649.3 0)
(-713.348 80474.9 0)
(-2512.48 79557.6 0)
(-5280.72 77093.7 0)
(-7818.92 72922.9 0)
(-9298.26 67604.7 0)
(-9880.95 61815.9 0)
(-9802.52 55890.7 0)
(-9569.82 50227.4 0)
(-9092.7 44611.7 0)
(-8577.26 39529 0)
(-7945.18 34533.8 0)
(-7351.46 30218.2 0)
(-6625.05 25928.6 0)
(-5902.43 22468.4 0)
(-5075.61 19016.6 0)
(-4205.14 16496.7 0)
(-2695.62 14066 0)
(103106 13046.2 0)
(-126199 130770 0)
(12454.7 -107175 0)
(-9412.56 -9893.16 0)
(622.968 -10100 0)
(559.97 -11911.1 0)
(676.482 -13747.2 0)
(757.24 -16363.6 0)
(842.902 -18984.2 0)
(941.025 -22260.5 0)
(1027.7 -25526.8 0)
(1135.08 -29320.7 0)
(1217.62 -33126.4 0)
(1300.06 -37367.9 0)
(1365.56 -41584.4 0)
(1407.98 -46006.6 0)
(1405.51 -50271.2 0)
(1325.41 -54099.6 0)
(1112.86 -56911.2 0)
(745.806 -58309.5 0)
(338.682 -58625.1 0)
(75.44 -58618.3 0)
(-75.4578 -58618.3 0)
(-338.71 -58625.1 0)
(-745.791 -58309.5 0)
(-1112.69 -56911 0)
(-1325 -54099.1 0)
(-1404.86 -50270.3 0)
(-1407.11 -46005.2 0)
(-1364.56 -41582.7 0)
(-1298.97 -37366.2 0)
(-1216.64 -33125 0)
(-1134.19 -29320.1 0)
(-1027.07 -25527.3 0)
(-940.836 -22262.6 0)
(-842.958 -18988.6 0)
(-758.228 -16370.5 0)
(-678.941 -13758.1 0)
(-565.462 -11927.2 0)
(-629.418 -10122.6 0)
(9354.03 -9916.77 0)
(-12387.6 -107248 0)
(13389.6 2723.44 0)
(-9580.56 639.573 0)
(749.559 772.775 0)
(691.745 891.411 0)
(787.442 985.037 0)
(858.554 1054.16 0)
(945.331 1123.69 0)
(1049.23 1188.01 0)
(1143.95 1261.13 0)
(1255.98 1327.99 0)
(1339.72 1391.37 0)
(1420.58 1446.57 0)
(1478.69 1494.33 0)
(1510.27 1534.73 0)
(1499.59 1574.21 0)
(1420.32 1624.39 0)
(1223.69 1700.4 0)
(860.793 1808.94 0)
(415.762 1913.89 0)
(99.1263 1964.29 0)
(-99.1507 1964.28 0)
(-415.777 1913.88 0)
(-860.694 1808.99 0)
(-1223.36 1700.61 0)
(-1419.7 1624.83 0)
(-1498.73 1574.89 0)
(-1509.24 1535.57 0)
(-1477.68 1495.15 0)
(-1419.68 1447.12 0)
(-1339.18 1391.37 0)
(-1255.84 1327.14 0)
(-1144.33 1258.88 0)
(-1050.58 1184.56 0)
(-947.175 1117.2 0)
(-862.149 1046 0)
(-793.888 971.12 0)
(-701.757 871.832 0)
(-758.335 744.496 0)
(9512.79 610.006 0)
(-13294.9 2490.4 0)
(15695.4 4456.92 0)
(-11292.3 613.803 0)
(865.648 756.834 0)
(764.513 825.76 0)
(833.309 863.795 0)
(890.854 872.955 0)
(971.891 892.252 0)
(1073.46 901.477 0)
(1162.58 928.313 0)
(1260.59 940.401 0)
(1331.89 952.546 0)
(1399.27 956.138 0)
(1450.52 958.026 0)
(1484.96 964.409 0)
(1491.91 985.775 0)
(1447 1032.72 0)
(1290.71 1110.39 0)
(951.539 1208.07 0)
(488.374 1297.87 0)
(123.997 1342.51 0)
(-124.026 1342.5 0)
(-488.351 1297.89 0)
(-951.308 1208.24 0)
(-1290.15 1110.81 0)
(-1446.15 1033.41 0)
(-1490.89 986.535 0)
(-1483.96 964.887 0)
(-1449.78 957.712 0)
(-1398.97 954.408 0)
(-1332.26 948.599 0)
(-1261.86 933.74 0)
(-1164.46 917.241 0)
(-1077.37 887.323 0)
(-976.478 869.625 0)
(-898.997 846.706 0)
(-846.778 823.072 0)
(-783.845 775.575 0)
(-881.723 691.365 0)
(11036.4 550.179 0)
(-15375.2 3957.62 0)
(18275.9 5618.42 0)
(-13146.1 777.255 0)
(953.808 905.541 0)
(794.816 937.494 0)
(832.921 941.508 0)
(885.976 912.168 0)
(972.816 916.248 0)
(1083.98 908.853 0)
(1181.46 939.139 0)
(1279.33 957.322 0)
(1354.88 990.942 0)
(1425.86 1026.69 0)
(1486.66 1072.03 0)
(1537.01 1129.01 0)
(1565.42 1200.04 0)
(1540.4 1284.59 0)
(1392.66 1377.84 0)
(1041.45 1473.23 0)
(545.306 1554.61 0)
(142.141 1597.73 0)
(-142.147 1597.74 0)
(-545.163 1554.71 0)
(-1040.97 1473.58 0)
(-1391.83 1378.46 0)
(-1539.46 1285.25 0)
(-1564.75 1200.2 0)
(-1537.02 1127.9 0)
(-1487.77 1068.67 0)
(-1428.46 1020.05 0)
(-1359.09 979.57 0)
(-1286.06 940.683 0)
(-1189.05 913.944 0)
(-1096.46 878.364 0)
(-986.315 869.245 0)
(-907.009 859.816 0)
(-862.433 861.178 0)
(-828.675 845.977 0)
(-975.535 792.542 0)
(12660.3 673.824 0)
(-17638.8 4868.14 0)
(21858.5 6720.61 0)
(-15833.8 891.632 0)
(1020.06 1021.52 0)
(799.172 1034.7 0)
(808.904 1028.46 0)
(866.512 981.363 0)
(968.696 983.447 0)
(1095.52 986.792 0)
(1209.29 1015.76 0)
(1310.51 1050.62 0)
(1398.74 1097.85 0)
(1477.41 1154.13 0)
(1549.12 1220.44 0)
(1608.31 1294.31 0)
(1641.83 1373.41 0)
(1618.33 1454.15 0)
(1472.48 1536.26 0)
(1121.89 1623.4 0)
(608.352 1707.89 0)
(165.559 1758.14 0)
(-165.483 1758.17 0)
(-608.002 1708.11 0)
(-1121.15 1623.91 0)
(-1471.64 1536.8 0)
(-1617.93 1454.04 0)
(-1642.51 1371.63 0)
(-1610.7 1289.6 0)
(-1553.71 1211.35 0)
(-1484.83 1139.27 0)
(-1408.75 1075.34 0)
(-1325.1 1019.89 0)
(-1224.51 972.287 0)
(-1120.44 935.313 0)
(-994.352 906.385 0)
(-906.771 896.802 0)
(-860.115 899.372 0)
(-849.985 895.267 0)
(-1047.61 860.069 0)
(14963.8 752.285 0)
(-20715.7 5667.41 0)
(25611.3 7535.63 0)
(-18637.9 998.616 0)
(1091.68 1147.03 0)
(801.506 1165.63 0)
(781.519 1163.49 0)
(842.602 1111.25 0)
(978.048 1124.65 0)
(1115.13 1128.05 0)
(1242.97 1167.76 0)
(1358.42 1210.59 0)
(1454.63 1260.43 0)
(1543.99 1322.04 0)
(1621.74 1389.09 0)
(1684.42 1462.74 0)
(1719.46 1539.74 0)
(1697.33 1620.05 0)
(1555.75 1705.54 0)
(1206.84 1798.83 0)
(675.147 1889.31 0)
(190.596 1944.06 0)
(-190.354 1944.13 0)
(-674.544 1889.67 0)
(-1206.05 1799.35 0)