/*--------------------------------*- C++ -*----------------------------------*\
| =========                 |                                                 |
| \\      /  F ield         | OpenFOAM: The Open Source CFD Toolbox           |
|  \\    /   O peration     | Version:  v1912                                 |
|   \\  /    A nd           | Website:  www.openfoam.com                      |
|    \\/     M anipulation  |                                                 |
\*---------------------------------------------------------------------------*/
FoamFile
{
    version     2.0;
    format      ascii;
    class       volTensorField;
    location    "2.34";
    object      grad(U);
}
// * * * * * * * * * * * * * * * * * * * * * * * * * * * * * * * * * * * * * //

dimensions      [0 0 -1 0 0 0 0];


internalField   nonuniform List<tensor> 
1900
(
(-1.5017 1.736e-06 0 7.30965e-06 1.23446e-05 0 0 0 0)
(0.982952 1.60786e-05 0 -2.53873e-05 1.44964e-05 0 0 0 0)
(-0.0192236 7.47481e-05 0 -3.79185e-05 2.04842e-05 0 0 0 0)
(-0.0265103 0.00026072 0 -2.47671e-05 0.000127485 0 0 0 0)
(-0.0319649 0.00102683 0 0.000251226 0.000550392 0 0 0 0)
(-0.0375761 0.00184463 0 0.00119236 0.00224738 0 0 0 0)
(-0.0421704 -0.00389394 0 0.00368118 0.00422323 0 0 0 0)
(-0.0404221 -0.0186152 0 0.00537699 -0.0031068 0 0 0 0)
(0.0109919 -0.0604568 0 -0.00276552 -0.0264087 0 0 0 0)
(0.00625283 -0.18733 0 -0.0562382 -0.115522 0 0 0 0)
(-1.50171 2.5105e-05 0 1.1596e-05 1.04399e-06 0 0 0 0)
(0.982907 -7.93897e-06 0 -4.34784e-05 -2.77999e-06 0 0 0 0)
(-0.019223 3.82403e-05 0 -6.14959e-05 -1.50346e-05 0 0 0 0)
(-0.0262211 0.000269188 0 1.68228e-05 -7.75281e-05 0 0 0 0)
(-0.0307478 0.00109307 0 0.000532963 -0.000275755 0 0 0 0)
(-0.0341462 0.00182822 0 0.00195777 -0.00110436 0 0 0 0)
(-0.0379858 -0.00146024 0 0.00500684 -0.00212038 0 0 0 0)
(-0.0468688 -0.0120167 0 0.00609248 0.00278958 0 0 0 0)
(-0.0506232 -0.0519585 0 -0.00398138 0.0164948 0 0 0 0)
(-0.11767 -0.130074 0 -0.0814409 0.0632463 0 0 0 0)
(-1.50173 -3.77588e-13 0 -6.72205e-14 -2.67771e-05 0 0 0 0)
(0.982879 3.16287e-14 0 5.40068e-14 -2.34329e-05 0 0 0 0)
(-0.0191633 3.67363e-13 0 -1.13028e-13 -1.08992e-05 0 0 0 0)
(-0.0259158 1.62861e-13 0 -5.38713e-14 -9.99134e-05 0 0 0 0)
(-0.030024 -3.22677e-13 0 -3.2255e-14 -0.000549275 0 0 0 0)
(-0.0331022 -1.22218e-13 0 -4.50622e-14 -0.00228606 0 0 0 0)
(-0.0380357 5.9997e-14 0 -5.42101e-16 -0.00420571 0 0 0 0)
(-0.0494103 5.62326e-14 0 9.35124e-14 0.000634428 0 0 0 0)
(-0.0765414 1.34102e-14 0 1.25767e-13 0.0198278 0 0 0 0)
(-0.157084 1.03959e-14 0 1.29698e-13 0.104552 0 0 0 0)
(-1.50171 -2.5105e-05 0 -1.1596e-05 1.044e-06 0 0 0 0)
(0.982907 7.93897e-06 0 4.34784e-05 -2.77999e-06 0 0 0 0)
(-0.019223 -3.82403e-05 0 6.14959e-05 -1.50346e-05 0 0 0 0)
(-0.0262211 -0.000269188 0 -1.68228e-05 -7.75281e-05 0 0 0 0)
(-0.0307478 -0.00109307 0 -0.000532963 -0.000275755 0 0 0 0)
(-0.0341462 -0.00182822 0 -0.00195777 -0.00110436 0 0 0 0)
(-0.0379858 0.00146024 0 -0.00500684 -0.00212038 0 0 0 0)
(-0.0468688 0.0120167 0 -0.00609248 0.00278958 0 0 0 0)
(-0.0506232 0.0519585 0 0.00398138 0.0164948 0 0 0 0)
(-0.11767 0.130074 0 0.0814409 0.0632463 0 0 0 0)
(-1.5017 -1.736e-06 0 -7.30965e-06 1.23446e-05 0 0 0 0)
(0.982952 -1.60786e-05 0 2.53873e-05 1.44964e-05 0 0 0 0)
(-0.0192236 -7.47481e-05 0 3.79185e-05 2.04842e-05 0 0 0 0)
(-0.0265103 -0.00026072 0 2.47671e-05 0.000127485 0 0 0 0)
(-0.0319649 -0.00102683 0 -0.000251226 0.000550392 0 0 0 0)
(-0.0375761 -0.00184463 0 -0.00119236 0.00224738 0 0 0 0)
(-0.0421704 0.00389394 0 -0.00368118 0.00422323 0 0 0 0)
(-0.0404221 0.0186152 0 -0.00537699 -0.0031068 0 0 0 0)
(0.0109919 0.0604568 0 0.00276552 -0.0264087 0 0 0 0)
(0.00625283 0.18733 0 0.0562382 -0.115522 0 0 0 0)
(-0.121705 -0.322981 1.1459e-17 -0.185138 0.152517 -1.71884e-17 -4.75714e-17 -5.66457e-17 3.10596e-33)
(-0.24832 -0.398399 0 -0.256585 0.256819 0 1.26869e-16 4.59208e-17 0)
(-0.322732 -0.491933 0 -0.376639 0.291626 0 2.01406e-16 8.52357e-17 0)
(-0.977563 -0.371069 0 -0.872126 0.531846 0 0 0 0)
(0.0976653 -1.5206 -3.67447e-16 -2.94639 3.24517 5.51171e-16 1.52229e-15 1.01486e-15 9.95968e-32)
(-0.237526 -0.186454 0 -0.162387 0.189659 0 -8.10259e-17 -2.90858e-17 0)
(-0.40555 -0.252705 0 -0.194832 0.303506 0 -1.26869e-16 -4.59208e-17 0)
(-0.67221 -0.390488 0 -0.389603 0.54926 0 -2.01406e-16 -8.52357e-17 0)
(-1.24589 -0.333933 0 -0.911579 0.987407 0 0 0 0)
(-0.951617 0.18682 0 -1.15753 1.28304 0 0 0 0)
(-0.290387 -3.48174e-14 0 1.068e-14 0.264527 0 0 0 0)
(-0.49795 3.11391e-13 0 -9.24306e-14 0.409495 0 0 0 0)
(-0.879823 1.18732e-13 0 5.94805e-14 0.788264 0 0 0 0)
(-1.51473 -1.53076e-13 0 -3.43947e-13 1.46113 0 0 0 0)
(-1.19935 1.27441e-13 0 -3.93669e-13 2.17612 0 0 0 0)
(-0.237526 0.186454 0 0.162387 0.189659 0 -8.10259e-17 2.90858e-17 0)
(-0.40555 0.252705 0 0.194832 0.303506 0 -1.26869e-16 4.59208e-17 0)
(-0.67221 0.390488 0 0.389603 0.54926 0 -2.01406e-16 8.52357e-17 0)
(-1.24589 0.333933 0 0.911579 0.987407 0 0 0 0)
(-0.951617 -0.18682 0 1.15753 1.28304 0 0 0 0)
(-0.121705 0.322981 -1.1459e-17 0.185138 0.152517 -1.71884e-17 2.09623e-16 -1.14817e-16 3.10596e-33)
(-0.24832 0.398399 0 0.256585 0.256819 0 1.26869e-16 -4.59208e-17 0)
(-0.322732 0.491933 0 0.376639 0.291626 0 2.01406e-16 -8.52357e-17 0)
(-0.977563 0.371069 -3.31288e-17 0.872126 0.531846 -4.96932e-17 6.09814e-16 -4.06543e-16 8.97958e-33)
(0.0976653 1.5206 3.67447e-16 2.94639 3.24517 5.51171e-16 -1.52229e-15 1.01486e-15 9.95968e-32)
(-0.0289841 0.468089 3.16258e-18 -0.43777 -0.999426 2.84632e-17 -9.63235e-16 7.54618e-17 -8.57218e-34)
(0.433104 0.00154471 -8.49933e-19 -0.201563 -0.441574 -7.64939e-18 6.8036e-16 -6.16223e-17 -2.30375e-34)
(0.194565 0.0943414 0 0.127185 -0.272791 0 0 0 0)
(-0.361541 0.50571 -1.70182e-18 0.681367 0.38162 -1.53164e-17 -4.39081e-16 6.25599e-17 4.61279e-34)
(-1.33523 0.58623 6.012e-18 2.34597 1.85489 5.4108e-17 2.73299e-16 -3.03665e-17 1.62956e-33)
(0.227302 0.443279 0 -0.521886 -0.403719 0 4.8821e-16 -2.26812e-17 0)
(0.566729 -0.00958497 0 -0.234861 -0.494927 0 -3.43215e-16 2.41618e-17 0)
(0.488911 0.10823 0 0.256701 -0.429623 0 0 0 0)
(0.519843 0.512586 0 1.06287 -0.678191 0 2.53598e-16 -4.1177e-17 0)
(1.15715 0.433446 0 3.4534 -1.40245 0 -2.46602e-17 1.09981e-17 0)
(0.307239 2.20889e-13 0 -4.24372e-13 -0.698779 0 0 0 0)
(0.662992 3.11196e-13 0 7.29751e-13 -0.614688 0 0 0 0)
(0.66843 4.62841e-13 0 2.89422e-12 -0.570068 0 0 0 0)
(1.01151 1.598e-13 0 4.39173e-12 -1.10249 0 -8.8635e-17 4.39189e-29 0)
(1.80826 -3.60297e-13 0 5.81847e-12 -2.92146 0 4.93204e-17 -3.05532e-29 0)
(0.227302 -0.443279 0 0.521886 -0.403719 0 4.8821e-16 2.26812e-17 0)
(0.566729 0.00958497 0 0.234861 -0.494927 0 -3.43215e-16 -2.41618e-17 0)
(0.488911 -0.10823 0 -0.256701 -0.429623 0 0 0 0)
(0.519843 -0.512586 0 -1.06287 -0.678191 0 2.53598e-16 4.1177e-17 0)
(1.15715 -0.433446 0 -3.4534 -1.40245 0 -2.46602e-17 -1.09981e-17 0)
(-0.0289841 -0.468089 0 0.43777 -0.999426 0 -4.8821e-16 -2.26812e-17 0)
(0.433104 -0.00154471 8.49933e-19 0.201563 -0.441574 -7.64939e-18 6.07041e-18 -1.32988e-17 -2.30375e-34)
(0.194565 -0.0943414 0 -0.127185 -0.272791 0 0 0 0)
(-0.361541 -0.50571 1.70182e-18 -0.681367 0.38162 -1.53164e-17 2.05205e-17 -1.14931e-17 4.61279e-34)
(-1.33523 -0.58623 -6.012e-18 -2.34597 1.85489 5.4108e-17 -2.73299e-16 -3.03665e-17 1.62956e-33)
(0.589058 -0.857959 0 10.3398 -0.242846 0 0 0 0)
(1.42458 -1.05759 0 5.62171 0.536381 0 0 0 0)
(-0.637048 0.151763 0 2.83413 0.83181 0 0 0 0)
(-0.631453 0.51133 0 0.743707 0.682749 0 0 0 0)
(-0.266892 0.276252 0 0.14048 0.333995 0 0 0 0)
(-0.0701601 0.0783461 0 0.0499058 0.184705 0 0 0 0)
(0.0407114 0.0286736 0 0.0170407 0.131345 0 0 0 0)
(0.108987 0.0160298 0 0.00100538 0.103068 0 0 0 0)
(0.159886 0.00731807 0 0.00342531 0.0862018 0 0 0 0)
(0.199839 0.00256304 0 0.00308747 0.0801587 0 0 0 0)
(0.231519 0.0016978 0 0.0011646 0.0766893 0 0 0 0)
(0.254899 0.000420947 0 -0.00010194 0.0755066 0 0 0 0)
(0.268301 -0.000192016 0 -0.000902388 0.0759807 0 0 0 0)
(0.273604 -0.00022402 0 -0.000989681 0.0773146 0 0 0 0)
(0.271743 -8.04218e-05 0 -0.00069885 0.079148 0 0 0 0)
(0.261877 1.47435e-05 0 -0.000309107 0.0807612 0 0 0 0)
(0.239819 0.000102855 0 0.000112422 0.0819535 0 0 0 0)
(0.197846 0.000228697 0 0.000413593 0.0826248 0 0 0 0)
(0.135919 0.000356536 0 0.000494721 0.082813 0 0 0 0)
(0.0684582 0.000310677 0 0.000209009 0.08276 0 0 0 0)
(0.0712882 0.000230365 0 0.000253307 0.0825885 0 0 0 0)
(0.142559 0.000393766 0 0.000468092 0.0821353 0 0 0 0)
(0.20614 0.000731089 0 0.000857664 0.0812261 0 0 0 0)
(0.249427 0.00112598 0 0.00132081 0.0797434 0 0 0 0)
(0.273261 0.00153578 0 0.00178029 0.0776535 0 0 0 0)
(0.286336 0.00191275 0 0.00220147 0.0749774 0 0 0 0)
(0.293863 0.00223577 0 0.0025703 0.0717457 0 0 0 0)
(0.298193 0.0024916 0 0.0028773 0.0679905 0 0 0 0)
(0.300196 0.00266913 0 0.00311367 0.0637464 0 0 0 0)
(0.299934 0.00275797 0 0.0032711 0.0590548 0 0 0 0)
(0.296722 0.00274985 0 0.00334362 0.0539741 0 0 0 0)
(0.289176 0.00263921 0 0.00332829 0.0485866 0 0 0 0)
(0.276059 0.00243847 0 0.00323509 0.0430231 0 0 0 0)
(0.258725 0.0021421 0 0.00304744 0.0373708 0 0 0 0)
(0.241894 0.00177988 0 0.00282328 0.0320679 0 0 0 0)
(0.22962 0.00127148 0 0.0023962 0.0270255 0 0 0 0)
(0.203903 0.000882063 0 0.00212046 0.0241556 0 0 0 0)
(0.358493 0.0005402 0 0.00318109 0.0180653 0 0 0 0)
(2.39599 -0.000237606 0 0.00241503 0.0129249 0 0 0 0)
(2.12895 -0.000369801 0 0.000349567 0.00233714 0 0 0 0)
(1.40557 -0.74086 0 9.3732 -1.49219 0 0 0 0)
(-0.101064 -0.902161 0 5.0537 1.65163 0 0 0 0)
(-1.60478 0.156276 0 2.65201 2.14326 0 0 0 0)
(-1.14582 0.387387 0 0.644076 1.12995 0 0 0 0)
(-0.387557 0.166735 0 0.060174 0.385565 0 0 0 0)
(-0.0846397 0.0410004 0 0.0182304 0.180332 0 0 0 0)
(0.0356329 0.0150417 0 -0.00344133 0.11625 0 0 0 0)
(0.10934 0.00840335 0 -0.00385099 0.0817671 0 0 0 0)
(0.161058 0.0036639 0 -0.000331265 0.061148 0 0 0 0)
(0.200179 0.00135699 0 5.9383e-05 0.0566112 0 0 0 0)
(0.231585 0.000989984 0 -0.000199343 0.0523375 0 0 0 0)
(0.254849 0.000318757 0 -0.000305049 0.0507751 0 0 0 0)
(0.268225 6.15841e-05 0 -0.000511793 0.0508905 0 0 0 0)
(0.273574 0.000164626 0 -0.000517564 0.0514351 0 0 0 0)
(0.271699 0.000294586 0 -0.000539576 0.0516606 0 0 0 0)
(0.261848 0.000303212 0 -0.000556409 0.0517116 0 0 0 0)
(0.239848 0.000291525 0 -0.000386441 0.0516099 0 0 0 0)
(0.197898 0.000292935 0 -9.70177e-05 0.051358 0 0 0 0)
(0.135914 0.000294684 0 0.000162409 0.0508237 0 0 0 0)
(0.0684392 0.000208378 0 7.13357e-05 0.0501324 0 0 0 0)
(0.0713069 0.000122666 0 0.00015333 0.0497558 0 0 0 0)
(0.142596 0.000188997 0 0.000242342 0.0493405 0 0 0 0)
(0.206206 0.00035729 0 0.000497134 0.0484022 0 0 0 0)
(0.249499 0.000554905 0 0.000809586 0.0468274 0 0 0 0)
(0.273329 0.000756451 0 0.00110594 0.0445317 0 0 0 0)
(0.286394 0.000930437 0 0.00134236 0.0415481 0 0 0 0)
(0.293911 0.00106058 0 0.00149694 0.0379566 0 0 0 0)
(0.298226 0.00113616 0 0.00155771 0.0338627 0 0 0 0)
(0.300212 0.00115014 0 0.00152066 0.0293917 0 0 0 0)
(0.299929 0.00110035 0 0.00139108 0.0246875 0 0 0 0)
(0.296697 0.000992203 0 0.00118473 0.0199112 0 0 0 0)
(0.289132 0.000839563 0 0.000927517 0.0152349 0 0 0 0)
(0.275998 0.000664894 0 0.000659935 0.010839 0 0 0 0)
(0.258658 0.000513576 0 0.000441776 0.0068527 0 0 0 0)
(0.241827 0.000437841 0 0.000271848 0.0034755 0 0 0 0)
(0.22955 0.000382776 0 0.000186992 0.000734373 0 0 0 0)
(0.203879 0.000255875 0 4.64399e-05 -0.0008952 0 0 0 0)
(0.358439 6.78029e-05 0 6.70479e-05 -0.00229772 0 0 0 0)
(2.39592 -0.000337193 0 -0.000223141 -0.00275214 0 0 0 0)
(2.12895 -0.000319908 0 -7.65955e-05 -0.00148095 0 0 0 0)
(1.48986 -4.18048e-13 0 5.62676e-12 -3.14578 0 0 0 0)
(-0.530676 -2.26668e-13 0 2.08857e-12 2.39849 0 0 0 0)
(-1.91985 9.51105e-14 0 7.20255e-13 3.05657 0 0 0 0)
(-1.38544 2.09753e-13 0 4.82963e-14 1.32409 0 0 0 0)
(-0.448956 1.09735e-13 0 -3.74543e-14 0.393284 0 0 0 0)
(-0.0886663 -4.91256e-14 0 -1.28133e-13 0.17779 0 0 0 0)
(0.0342877 -8.81939e-14 0 -1.75444e-13 0.111407 0 0 0 0)
(0.109892 9.94603e-14 0 1.45874e-13 0.0743785 0 0 0 0)
(0.161024 4.34395e-14 0 1.34047e-13 0.0536335 0 0 0 0)
(0.199878 2.08031e-13 0 -1.93185e-13 0.0491891 0 0 0 0)
(0.231413 4.50623e-12 0 6.17502e-12 0.0443042 0 0 0 0)
(0.254808 1.27721e-11 0 2.54797e-11 0.042383 0 0 0 0)
(0.26824 1.37807e-11 0 3.82645e-11 0.0421127 0 0 0 0)
(0.273596 -2.78133e-11 0 -3.86144e-11 0.0419596 0 0 0 0)
(0.271732 -1.27896e-10 0 -1.9733e-10 0.0409809 0 0 0 0)
(0.261922 -3.7287e-10 0 -4.05831e-10 0.0399343 0 0 0 0)
(0.239952 -1.90854e-10 0 1.52807e-10 0.0388963 0 0 0 0)
(0.198006 -4.83371e-10 0 -2.44956e-09 0.0379301 0 0 0 0)
(0.135968 -2.95493e-10 0 -1.56418e-10 0.0368824 0 0 0 0)
(0.0684556 8.52792e-10 0 5.36547e-10 0.0359041 0 0 0 0)
(0.071338 1.28612e-09 0 1.98418e-09 0.0354498 0 0 0 0)
(0.142659 -1.39724e-10 0 2.13176e-09 0.0350608 0 0 0 0)
(0.206305 -1.98765e-09 0 -5.40031e-09 0.0341505 0 0 0 0)
(0.249604 -1.83531e-09 0 -2.45043e-09 0.0326044 0 0 0 0)
(0.273416 -8.65316e-10 0 1.71606e-09 0.0303355 0 0 0 0)
(0.286449 2.7083e-10 0 6.20204e-10 0.0274038 0 0 0 0)
(0.293926 1.11926e-09 0 1.86392e-09 0.0239387 0 0 0 0)
(0.2982 1.30366e-09 0 1.90884e-09 0.0201124 0 0 0 0)
(0.300148 1.04094e-09 0 1.73153e-09 0.0161276 0 0 0 0)
(0.299836 7.81559e-10 0 7.46145e-10 0.0122052 0 0 0 0)
(0.296587 3.59441e-10 0 -1.44701e-10 0.00856274 0 0 0 0)
(0.289023 1.01373e-10 0 -8.54298e-10 0.00538379 0 0 0 0)
(0.275918 -2.37347e-12 0 -1.90576e-09 0.00279075 0 0 0 0)
(0.258612 2.1515e-11 0 -2.4888e-09 0.000812643 0 0 0 0)
(0.241819 -5.37674e-10 0 -2.60492e-09 -0.000740089 0 0 0 0)
(0.229555 -8.40235e-11 0 -1.7516e-09 -0.00219752 0 0 0 0)
(0.203868 5.87745e-10 0 -5.08682e-10 -0.00337168 0 0 0 0)
(0.358414 -1.23327e-10 0 5.21219e-10 -0.00395666 0 0 0 0)
(2.39594 -3.18338e-12 0 1.11158e-09 -0.00383783 0 0 0 0)
(2.12899 1.22983e-10 0 2.73219e-12 -0.00163846 0 0 0 0)
(1.40557 0.74086 0 -9.3732 -1.49219 0 0 0 0)
(-0.101064 0.902161 0 -5.0537 1.65163 0 0 0 0)
(-1.60478 -0.156276 0 -2.65201 2.14326 0 0 0 0)
(-1.14582 -0.387387 0 -0.644076 1.12995 0 0 0 0)
(-0.387557 -0.166735 0 -0.060174 0.385565 0 0 0 0)
(-0.0846397 -0.0410004 0 -0.0182304 0.180332 0 0 0 0)
(0.0356329 -0.0150417 0 0.00344133 0.11625 0 0 0 0)
(0.10934 -0.00840335 0 0.00385099 0.0817671 0 0 0 0)
(0.161058 -0.0036639 0 0.000331265 0.061148 0 0 0 0)
(0.200179 -0.00135699 0 -5.9383e-05 0.0566112 0 0 0 0)
(0.231585 -0.000989984 0 0.000199343 0.0523375 0 0 0 0)
(0.254849 -0.000318757 0 0.000305049 0.0507751 0 0 0 0)
(0.268225 -6.15841e-05 0 0.000511793 0.0508905 0 0 0 0)
(0.273574 -0.000164627 0 0.000517564 0.0514351 0 0 0 0)
(0.271699 -0.000294587 0 0.000539576 0.0516606 0 0 0 0)
(0.261848 -0.000303213 0 0.000556409 0.0517116 0 0 0 0)
(0.239848 -0.000291525 0 0.000386442 0.0516099 0 0 0 0)
(0.197898 -0.000292936 0 9.70153e-05 0.051358 0 0 0 0)
(0.135914 -0.000294685 0 -0.000162409 0.0508237 0 0 0 0)
(0.0684392 -0.000208376 0 -7.13353e-05 0.0501324 0 0 0 0)
(0.0713069 -0.000122662 0 -0.000153329 0.0497558 0 0 0 0)
(0.142596 -0.000188998 0 -0.00024234 0.0493405 0 0 0 0)
(0.206206 -0.000357296 0 -0.000497139 0.0484022 0 0 0 0)
(0.249499 -0.000554908 0 -0.000809587 0.0468274 0 0 0 0)
(0.273329 -0.000756453 0 -0.00110594 0.0445317 0 0 0 0)
(0.286394 -0.000930437 0 -0.00134236 0.0415481 0 0 0 0)
(0.293911 -0.00106057 0 -0.00149694 0.0379566 0 0 0 0)
(0.298226 -0.00113616 0 -0.00155771 0.0338627 0 0 0 0)
(0.300212 -0.00115013 0 -0.00152066 0.0293917 0 0 0 0)
(0.299929 -0.00110034 0 -0.00139108 0.0246875 0 0 0 0)
(0.296697 -0.000992201 0 -0.00118473 0.0199112 0 0 0 0)
(0.289132 -0.000839562 0 -0.000927517 0.0152349 0 0 0 0)
(0.275998 -0.000664894 0 -0.000659936 0.010839 0 0 0 0)
(0.258658 -0.000513577 0 -0.000441778 0.00685271 0 0 0 0)
(0.241827 -0.000437842 0 -0.00027185 0.0034755 0 0 0 0)
(0.22955 -0.000382777 0 -0.000186995 0.000734381 0 0 0 0)
(0.203879 -0.000255875 0 -4.6441e-05 -0.000895198 0 0 0 0)
(0.358439 -6.78035e-05 0 -6.70471e-05 -0.00229772 0 0 0 0)
(2.39592 0.000337193 0 0.000223143 -0.00275214 0 0 0 0)
(2.12895 0.000319908 0 7.65954e-05 -0.00148095 0 0 0 0)
(0.589058 0.857959 0 -10.3398 -0.242846 0 0 0 0)
(1.42458 1.05759 0 -5.62171 0.536381 0 0 0 0)
(-0.637048 -0.151763 0 -2.83413 0.83181 0 0 0 0)
(-0.631453 -0.51133 0 -0.743707 0.682749 0 0 0 0)
(-0.266892 -0.276252 0 -0.14048 0.333995 0 0 0 0)
(-0.0701601 -0.0783461 0 -0.0499058 0.184705 0 0 0 0)
(0.0407114 -0.0286736 0 -0.0170407 0.131345 0 0 0 0)
(0.108987 -0.0160298 0 -0.00100538 0.103068 0 0 0 0)
(0.159886 -0.00731807 0 -0.00342531 0.0862018 0 0 0 0)
(0.199839 -0.00256304 0 -0.00308747 0.0801587 0 0 0 0)
(0.231519 -0.0016978 0 -0.0011646 0.0766893 0 0 0 0)
(0.254899 -0.000420947 0 0.00010194 0.0755066 0 0 0 0)
(0.268301 0.000192016 0 0.000902388 0.0759807 0 0 0 0)
(0.273604 0.00022402 0 0.000989681 0.0773145 0 0 0 0)
(0.271743 8.04215e-05 0 0.00069885 0.079148 0 0 0 0)
(0.261877 -1.47438e-05 0 0.000309106 0.0807612 0 0 0 0)
(0.239819 -0.000102854 0 -0.000112422 0.0819535 0 0 0 0)
(0.197846 -0.000228697 0 -0.000413593 0.0826248 0 0 0 0)
(0.135919 -0.000356538 0 -0.00049472 0.0828131 0 0 0 0)
(0.0684582 -0.000310677 0 -0.000209008 0.08276 0 0 0 0)
(0.0712882 -0.000230364 0 -0.000253306 0.0825885 0 0 0 0)
(0.142559 -0.000393768 0 -0.000468092 0.0821353 0 0 0 0)
(0.20614 -0.000731091 0 -0.000857667 0.0812261 0 0 0 0)
(0.249427 -0.00112597 0 -0.00132081 0.0797434 0 0 0 0)
(0.273261 -0.00153578 0 -0.00178029 0.0776535 0 0 0 0)
(0.286336 -0.00191275 0 -0.00220147 0.0749774 0 0 0 0)
(0.293863 -0.00223577 0 -0.00257029 0.0717457 0 0 0 0)
(0.298193 -0.0024916 0 -0.0028773 0.0679905 0 0 0 0)
(0.300196 -0.00266913 0 -0.00311366 0.0637464 0 0 0 0)
(0.299934 -0.00275797 0 -0.00327109 0.0590548 0 0 0 0)
(0.296722 -0.00274984 0 -0.00334361 0.0539741 0 0 0 0)
(0.289176 -0.0026392 0 -0.00332829 0.0485866 0 0 0 0)
(0.276059 -0.00243847 0 -0.00323508 0.0430231 0 0 0 0)
(0.258725 -0.0021421 0 -0.00304744 0.0373708 0 0 0 0)
(0.241894 -0.00177988 0 -0.00282327 0.0320679 0 0 0 0)
(0.22962 -0.00127148 0 -0.0023962 0.0270255 0 0 0 0)
(0.203903 -0.000882065 0 -0.00212047 0.0241556 0 0 0 0)
(0.358493 -0.000540201 0 -0.0031811 0.0180653 0 0 0 0)
(2.39599 0.000237605 0 -0.00241503 0.0129249 0 0 0 0)
(2.12895 0.000369801 0 -0.000349567 0.00233713 0 0 0 0)
(2.51283 1.1702 0 -3.71858 -0.157385 0 0 0 0)
(2.84303 1.39655 0 -2.49952 0.154567 0 0 0 0)
(0.336113 -0.0696804 0 -1.51965 0.219806 0 0 0 0)
(-0.0509018 -0.556344 0 -0.569547 0.264307 0 0 0 0)
(-0.091874 -0.352516 0 -0.217312 0.239788 0 0 0 0)
(-0.0239519 -0.124937 0 -0.0913641 0.184359 0 0 0 0)
(0.0604348 -0.0504883 0 -0.048266 0.14917 0 0 0 0)
(0.118289 -0.027902 0 -0.0227368 0.129189 0 0 0 0)
(0.161107 -0.0138092 0 -0.0152626 0.119002 0 0 0 0)
(0.20199 -0.00592943 0 -0.00973518 0.111552 0 0 0 0)
(0.233661 -0.00308968 0 -0.00420189 0.109179 0 0 0 0)
(0.256088 -0.000645114 0 -0.0010059 0.108752 0 0 0 0)
(0.268693 0.000779269 0 0.000668296 0.109702 0 0 0 0)
(0.273412 0.00137276 0 0.00121916 0.111354 0 0 0 0)
(0.27122 0.0014338 0 0.00111947 0.113428 0 0 0 0)
(0.261305 0.00112307 0 0.000710366 0.115355 0 0 0 0)
(0.239428 0.000659296 0 0.000256534 0.116826 0 0 0 0)
(0.197718 0.00017196 0 -8.55261e-05 0.117711 0 0 0 0)
(0.136037 -0.000138372 0 -0.000253073 0.118173 0 0 0 0)
(0.0685687 -0.000230976 0 -0.000164149 0.118544 0 0 0 0)
(0.0711661 -0.000389967 0 -0.000331707 0.11851 0 0 0 0)
(0.14226 -0.000806779 0 -0.000894457 0.118001 0 0 0 0)
(0.205747 -0.00142544 0 -0.00166122 0.11709 0 0 0 0)
(0.249004 -0.00213563 0 -0.00251139 0.115628 0 0 0 0)
(0.272855 -0.00284496 0 -0.00335123 0.113632 0 0 0 0)
(0.285967 -0.00350046 0 -0.00413813 0.111145 0 0 0 0)
(0.293541 -0.00408441 0 -0.00484945 0.1082 0 0 0 0)
(0.297923 -0.00458665 0 -0.0054709 0.104823 0 0 0 0)
(0.299982 -0.00499897 0 -0.00599226 0.101034 0 0 0 0)
(0.29978 -0.00531365 0 -0.00640558 0.0968552 0 0 0 0)
(0.296632 -0.00552634 0 -0.0067048 0.092305 0 0 0 0)
(0.28915 -0.00562796 0 -0.00688358 0.0873997 0 0 0 0)
(0.276104 -0.0056495 0 -0.00694267 0.0821841 0 0 0 0)
(0.25884 -0.00550248 0 -0.00685246 0.0766019 0 0 0 0)
(0.24216 -0.00537547 0 -0.00660085 0.0710169 0 0 0 0)
(0.229909 -0.0043184 0 -0.00600256 0.0646544 0 0 0 0)
(0.203358 -0.00515233 0 -0.00549019 0.0614617 0 0 0 0)
(0.358193 -0.0065663 0 -0.00864669 0.0499522 0 0 0 0)
(2.39761 -0.00941351 0 -0.00755988 0.0383816 0 0 0 0)
(2.13024 -0.00637921 0 -0.00154851 0.0117792 0 0 0 0)
(2.32613 1.0781 0 -0.473675 0.416688 0 0 0 0)
(2.78293 1.2393 0 -0.772463 -0.0176248 0 0 0 0)
(0.700906 -0.0900298 0 -0.668439 -0.0752247 0 0 0 0)
(0.312223 -0.467936 0 -0.408088 0.0311935 0 0 0 0)
(0.100053 -0.312397 0 -0.230444 0.170641 0 0 0 0)
(0.0679603 -0.140685 0 -0.108367 0.198741 0 0 0 0)
(0.0962669 -0.0701391 0 -0.0582611 0.186848 0 0 0 0)
(0.135803 -0.0387348 0 -0.0359428 0.175821 0 0 0 0)
(0.17176 -0.0208331 0 -0.0197098 0.171625 0 0 0 0)
(0.209344 -0.0102238 0 -0.0105445 0.166657 0 0 0 0)
(0.238782 -0.00364972 0 -0.00373071 0.166371 0 0 0 0)
(0.258955 0.000203087 0 -1.86948e-05 0.167566 0 0 0 0)
(0.270236 0.00238414 0 0.0018974 0.169498 0 0 0 0)
(0.274142 0.00319877 0 0.00261388 0.171661 0 0 0 0)
(0.271534 0.00321057 0 0.0026646 0.173718 0 0 0 0)
(0.261352 0.0026498 0 0.00234542 0.175546 0 0 0 0)
(0.239261 0.00175903 0 0.00178152 0.177038 0 0 0 0)
(0.197423 0.000854122 0 0.00106426 0.178153 0 0 0 0)
(0.13578 0.000328845 0 0.000377032 0.178907 0 0 0 0)
(0.0683232 -2.84005e-05 0 -9.74561e-06 0.179476 0 0 0 0)
(0.07065 -0.000667965 0 -0.000461815 0.179443 0 0 0 0)
(0.141438 -0.00154077 0 -0.00146711 0.178775 0 0 0 0)
(0.204793 -0.00264584 0 -0.00265234 0.177708 0 0 0 0)
(0.248025 -0.00391676 0 -0.00384398 0.176085 0 0 0 0)
(0.271911 -0.00515366 0 -0.00498221 0.173955 0 0 0 0)
(0.28509 -0.00629575 0 -0.00605652 0.171376 0 0 0 0)
(0.292752 -0.00733689 0 -0.00705542 0.168382 0 0 0 0)
(0.297237 -0.0082731 0 -0.00796701 0.164986 0 0 0 0)
(0.29941 -0.00909745 0 -0.00878159 0.161195 0 0 0 0)
(0.299329 -0.00979954 0 -0.00949129 0.157012 0 0 0 0)
(0.29631 -0.0103726 0 -0.0100878 0.15244 0 0 0 0)
(0.288961 -0.0107894 0 -0.0105591 0.147483 0 0 0 0)
(0.276065 -0.0111218 0 -0.0108818 0.142195 0 0 0 0)
(0.258992 -0.0111012 0 -0.0110103 0.136485 0 0 0 0)
(0.24257 -0.0113649 0 -0.0108146 0.130858 0 0 0 0)
(0.230536 -0.0088454 0 -0.010576 0.123919 0 0 0 0)
(0.201647 -0.0127598 0 -0.00978001 0.121399 0 0 0 0)
(0.356659 -0.0195496 0 -0.0162791 0.106461 0 0 0 0)
(2.40195 -0.031372 0 -0.0156049 0.0872542 0 0 0 0)
(2.13405 -0.0216462 0 -0.00533917 0.0457608 0 0 0 0)
(2.2249 0.751684 0 -0.0426508 0.442537 0 0 0 0)
(2.65535 0.922526 0 -0.160823 -0.104529 0 0 0 0)
(0.687238 -0.0226373 0 -0.22814 -0.0993123 0 0 0 0)
(0.371165 -0.319419 0 -0.237278 0.0253117 0 0 0 0)
(0.196948 -0.191061 0 -0.168242 0.181736 0 0 0 0)
(0.14197 -0.109318 0 -0.103733 0.226022 0 0 0 0)
(0.130225 -0.0725745 0 -0.0589319 0.232973 0 0 0 0)
(0.155438 -0.0425713 0 -0.0388345 0.228689 0 0 0 0)
(0.185582 -0.0226401 0 -0.019843 0.228175 0 0 0 0)
(0.217388 -0.0109929 0 -0.00837212 0.227077 0 0 0 0)
(0.243804 -0.00221393 0 -0.000948771 0.227563 0 0 0 0)
(0.261511 0.00236865 0 0.00321088 0.229011 0 0 0 0)
(0.27123 0.00472537 0 0.00516026 0.230695 0 0 0 0)
(0.274151 0.00543856 0 0.00572634 0.232471 0 0 0 0)
(0.270961 0.00517732 0 0.00544769 0.234143 0 0 0 0)
(0.260454 0.00432253 0 0.00463976 0.235684 0 0 0 0)
(0.238193 0.0031716 0 0.00351293 0.237122 0 0 0 0)
(0.196365 0.00197317 0 0.00224371 0.238416 0 0 0 0)
(0.135002 0.0011361 0 0.00102881 0.23942 0 0 0 0)
(0.0677603 0.000285137 0 0.000102019 0.24019 0 0 0 0)
(0.0697617 -0.00106484 0 -0.000668383 0.240179 0 0 0 0)
(0.140149 -0.00247828 0 -0.00232922 0.239382 0 0 0 0)
(0.203457 -0.00401766 0 -0.00407361 0.238255 0 0 0 0)
(0.246759 -0.00575259 0 -0.00567147 0.236665 0 0 0 0)
(0.270722 -0.007383 0 -0.00712383 0.234713 0 0 0 0)
(0.283969 -0.00887081 0 -0.00847979 0.232482 0 0 0 0)
(0.2917 -0.010242 0 -0.00975489 0.230005 0 0 0 0)
(0.29626 -0.0115114 0 -0.0109475 0.227293 0 0 0 0)
(0.298513 -0.012683 0 -0.0120527 0.224341 0 0 0 0)
(0.298521 -0.0137505 0 -0.0130651 0.221136 0 0 0 0)
(0.295603 -0.0147085 0 -0.0139763 0.217663 0 0 0 0)
(0.288385 -0.015501 0 -0.0147583 0.21391 0 0 0 0)
(0.275669 -0.0162481 0 -0.0153422 0.209935 0 0 0 0)
(0.258905 -0.0164268 0 -0.0156883 0.205583 0 0 0 0)
(0.242578 -0.0174839 0 -0.0154943 0.201543 0 0 0 0)
(0.230906 -0.0134333 0 -0.0163561 0.195231 0 0 0 0)
(0.197863 -0.0219756 0 -0.0154566 0.194328 0 0 0 0)
(0.35258 -0.0394697 0 -0.0239632 0.180599 0 0 0 0)
(2.40816 -0.0679068 0 -0.0239596 0.155678 0 0 0 0)
(2.14013 -0.0463638 0 -0.0139394 0.116837 0 0 0 0)
(2.21226 0.550924 0 0.044395 0.355166 0 0 0 0)
(2.60419 0.717153 0 -0.0133889 0.0292176 0 0 0 0)
(0.627232 0.0350897 0 -0.0770728 0.0132981 0 0 0 0)
(0.369943 -0.197108 0 -0.134822 0.116745 0 0 0 0)
(0.228742 -0.118985 0 -0.111469 0.221965 0 0 0 0)
(0.173295 -0.0913121 0 -0.0938898 0.240587 0 0 0 0)
(0.158805 -0.0675693 0 -0.0597848 0.254609 0 0 0 0)
(0.173471 -0.0433579 0 -0.0395698 0.256039 0 0 0 0)
(0.201115 -0.0223864 0 -0.0218931 0.256915 0 0 0 0)
(0.227552 -0.0108135 0 -0.00901289 0.258057 0 0 0 0)
(0.249944 -0.0017854 0 -0.000821365 0.258525 0 0 0 0)
(0.264842 0.00322119 0 0.00394111 0.259346 0 0 0 0)
(0.27266 0.0057177 0 0.00625731 0.260203 0 0 0 0)
(0.274419 0.00652129 0 0.00700439 0.261167 0 0 0 0)
(0.270487 0.00630735 0 0.00677357 0.262209 0 0 0 0)
(0.259488 0.0055201 0 0.00593309 0.263361 0 0 0 0)
(0.236953 0.00439106 0 0.00475146 0.264616 0 0 0 0)
(0.19503 0.00306839 0 0.00339567 0.265858 0 0 0 0)
(0.133716 0.00203859 0 0.00187235 0.266894 0 0 0 0)
(0.0666877 0.000703645 0 0.000293374 0.267756 0 0 0 0)
(0.0683072 -0.00144692 0 -0.000826974 0.26779 0 0 0 0)
(0.138157 -0.00339508 0 -0.00322872 0.266986 0 0 0 0)
(0.201572 -0.00526377 0 -0.00554487 0.265926 0 0 0 0)
(0.245086 -0.00732962 0 -0.00750816 0.264482 0 0 0 0)
(0.269205 -0.00918438 0 -0.00920361 0.262795 0 0 0 0)
(0.282554 -0.0108325 0 -0.0107516 0.260966 0 0 0 0)
(0.290374 -0.0123373 0 -0.0121983 0.259038 0 0 0 0)
(0.295023 -0.0137318 0 -0.0135553 0.257027 0 0 0 0)
(0.29737 -0.0150304 0 -0.0148226 0.25494 0 0 0 0)
(0.297476 -0.0162339 0 -0.0160028 0.25277 0 0 0 0)
(0.294678 -0.0173355 0 -0.0170705 0.250524 0 0 0 0)
(0.287645 -0.0182372 0 -0.0179967 0.248182 0 0 0 0)
(0.275169 -0.0191461 0 -0.0186131 0.245891 0 0 0 0)
(0.258846 -0.0191881 0 -0.019029 0.243321 0 0 0 0)
(0.241926 -0.0213404 0 -0.0187056 0.241585 0 0 0 0)
(0.230572 -0.0157979 0 -0.0213539 0.236196 0 0 0 0)
(0.194316 -0.0268598 0 -0.0207549 0.237618 0 0 0 0)
(0.348465 -0.0567942 0 -0.0258265 0.230964 0 0 0 0)
(2.41161 -0.0928152 0 -0.0256247 0.207629 0 0 0 0)
(2.14371 -0.0590741 0 -0.0268011 0.199201 0 0 0 0)
(2.16922 0.437589 0 0.0391022 0.374871 0 0 0 0)
(2.53829 0.59309 0 0.0215675 0.135475 0 0 0 0)
(0.570221 0.0617077 0 -0.0195124 0.106309 0 0 0 0)
(0.33802 -0.11834 0 -0.0830904 0.168266 0 0 0 0)
(0.236392 -0.0717225 0 -0.0878891 0.233528 0 0 0 0)
(0.191775 -0.0778612 0 -0.076579 0.244701 0 0 0 0)
(0.18257 -0.0576852 0 -0.055863 0.261343 0 0 0 0)
(0.191952 -0.0403489 0 -0.0357529 0.267964 0 0 0 0)
(0.215028 -0.0206948 0 -0.0202489 0.270595 0 0 0 0)
(0.237694 -0.0094416 0 -0.00788546 0.273041 0 0 0 0)
(0.256287 -0.000971709 0 0.000236226 0.274304 0 0 0 0)
(0.268332 0.00398569 0 0.00497652 0.2753 0 0 0 0)
(0.274182 0.00647969 0 0.00729197 0.276151 0 0 0 0)
(0.274649 0.00737192 0 0.00800356 0.277023 0 0 0 0)
(0.269929 0.0072916 0 0.00773715 0.27801 0 0 0 0)
(0.258505 0.00664186 0 0.00694137 0.279154 0 0 0 0)
(0.235748 0.00557807 0 0.00588618 0.280432 0 0 0 0)
(0.19359 0.00416765 0 0.00456601 0.281726 0 0 0 0)
(0.132012 0.00296516 0 0.00274571 0.282819 0 0 0 0)
(0.0651592 0.00114871 0 0.000492592 0.283704 0 0 0 0)
(0.0663677 -0.00180753 0 -0.000950724 0.283764 0 0 0 0)
(0.135603 -0.00427419 0 -0.00403335 0.283 0 0 0 0)
(0.199333 -0.00643052 0 -0.00683337 0.282006 0 0 0 0)
(0.243233 -0.00876994 0 -0.00904424 0.280657 0 0 0 0)
(0.267597 -0.0107704 0 -0.0108493 0.279119 0 0 0 0)
(0.281083 -0.0124907 0 -0.0124477 0.277508 0 0 0 0)
(0.288998 -0.0140379 0 -0.0139213 0.275868 0 0 0 0)
(0.293731 -0.0154606 0 -0.0152981 0.274219 0 0 0 0)
(0.296155 -0.0167858 0 -0.0165976 0.272562 0 0 0 0)
(0.296355 -0.0180058 0 -0.0178037 0.270917 0 0 0 0)
(0.293681 -0.019129 0 -0.0189305 0.26925 0 0 0 0)
(0.286898 -0.0199661 0 -0.0198199 0.26765 0 0 0 0)
(0.274674 -0.0209326 0 -0.020341 0.266211 0 0 0 0)
(0.258816 -0.0205757 0 -0.0208315 0.264392 0 0 0 0)
(0.240338 -0.0243501 0 -0.0203808 0.264016 0 0 0 0)
(0.228931 -0.0172565 0 -0.0248881 0.258496 0 0 0 0)
(0.193553 -0.0270173 0 -0.0246916 0.261376 0 0 0 0)
(0.347887 -0.0683682 0 -0.0227125 0.261676 0 0 0 0)
(2.40722 -0.0985142 0 -0.0215049 0.242838 0 0 0 0)
(2.139 -0.0544846 0 -0.0430012 0.262712 0 0 0 0)
(2.19536 0.320233 0 0.0459134 0.45888 0 0 0 0)
(2.5477 0.458357 0 0.0235565 0.197619 0 0 0 0)
(0.526379 0.0666883 0 -0.00661049 0.160475 0 0 0 0)
(0.304052 -0.0745146 0 -0.0524631 0.204477 0 0 0 0)
(0.235017 -0.0453294 0 -0.0670395 0.236135 0 0 0 0)
(0.204157 -0.0645093 0 -0.058122 0.245972 0 0 0 0)
(0.198147 -0.0451515 0 -0.0474909 0.263337 0 0 0 0)
(0.20779 -0.0344416 0 -0.0311695 0.272166 0 0 0 0)
(0.227969 -0.0174943 0 -0.0171085 0.276474 0 0 0 0)
(0.247292 -0.0072399 0 -0.00591817 0.279862 0 0 0 0)
(0.262338 0.000391589 0 0.00167038 0.281798 0 0 0 0)
(0.271641 0.00500161 0 0.00600283 0.283234 0 0 0 0)
(0.275577 0.00737743 0 0.00812341 0.28432 0 0 0 0)
(0.274848 0.00831226 0 0.00878735 0.285358 0 0 0 0)
(0.269463 0.00836115 0 0.00864087 0.286479 0 0 0 0)
(0.257704 0.00785453 0 0.00807765 0.287757 0 0 0 0)
(0.234664 0.00686993 0 0.00723604 0.289177 0 0 0 0)
(0.192003 0.00536851 0 0.00591114 0.290602 0 0 0 0)
(0.129791 0.00394453 0 0.00369629 0.291768 0 0 0 0)
(0.0631257 0.0016141 0 0.000700567 0.292632 0 0 0 0)
(0.0639458 -0.00212548 0 -0.00104061 0.292708 0 0 0 0)
(0.132488 -0.00508954 0 -0.0047808 0.292021 0 0 0 0)
(0.196744 -0.00752161 0 -0.00805137 0.2911 0 0 0 0)
(0.241216 -0.0101108 0 -0.010494 0.289834 0 0 0 0)
(0.265925 -0.012219 0 -0.0123864 0.288401 0 0 0 0)
(0.279594 -0.0139659 0 -0.0140077 0.286926 0 0 0 0)
(0.287627 -0.0155069 0 -0.0154698 0.285461 0 0 0 0)