/*--------------------------------*- C++ -*----------------------------------*\
| =========                 |                                                 |
| \\      /  F ield         | OpenFOAM: The Open Source CFD Toolbox           |
|  \\    /   O peration     | Version:  v1912                                 |
|   \\  /    A nd           | Website:  www.openfoam.com                      |
|    \\/     M anipulation  |                                                 |
\*---------------------------------------------------------------------------*/
FoamFile
{
    version     2.0;
    format      ascii;
    class       volScalarField;
    location    "7e-05";
    object      internalE;
}
// * * * * * * * * * * * * * * * * * * * * * * * * * * * * * * * * * * * * * //

dimensions      [1 -1 -2 0 0 0 0];


internalField   nonuniform List<scalar> 
1300
(
0
1635.539237
375.9771398
21632.44918
5130.584955
2995.457396
7832.959423
2800.026552
1856.685009
4979.020966
360.4060403
0
11718.37017
11805.43893
1451.046141
8706.005201
6973.182091
23498.0913
4589.670889
9759.9155
665.4775934
1112.394307
4058.952317
7331.79444
13744.25621
1797.646694
9205.958061
14790.65357
1598.105393
12386.51505
0
632.1209107
1464.705366
3266.414068
1922.453705
4926.563049
5772.281879
10741.32503
5707.288667
2282.881003
332.2333731
0
514.8270666
10553.41869
4848.754969
2650.791692
8117.696708
8534.544777
3221.321823
4671.388922
0
0
1702.477139
9942.863391
7215.771439
3030.87196
7570.334259
2610.543986
4251.225176
8481.762541
0
1031.452117
1708.414964
7233.127843
4240.967634
5125.585392
2924.176186
6331.420906
6730.453236
8999.055489
279.547194
0
3159.792205
6920.017477
1638.087591
2197.91618
3197.341404
7150.17806
3423.278291
4198.69515
0
0
2808.452012
6132.124378
7006.597821
2058.068828
3462.217344
3586.173546
7964.30284
2577.205692
83.11733539
0
2788.445798
3782.86099
2963.422993
1648.536201
2383.035995
7310.963542
6834.010138
1256.298083
0
216.2443416
3192.589561
7982.170746
1071.884772
3869.343075
2423.206896
2980.919905
5720.200595
3080.122727
0
647.2584984
688.2777684
8965.008999
4336.893806
4179.580797
2928.248816
4219.347606
2971.219719
6165.526259
0
0
1118.089472
6172.209123
1881.604452
1186.754779
5945.333752
3532.932594
4471.151337
2656.762968
0
52.65090514
1556.91362
8296.41019
6719.646754
924.8747766
5484.896029
2938.015035
4874.217132
3160.485102
0
0
354.0835769
8298.096205
6266.398768
1751.425323
4100.639635
7864.034164
6776.419022
1727.552754
0
0
1988.802952
4806.336693
2887.871287
1999.188311
3190.012964
3850.991987
3533.677596
4026.61315
173.3616818
0
2642.747345
5679.245036
1367.749342
746.9958077
5980.256917
8630.264932
7580.16865
1141.69802
0
0
2517.965513
6355.871151
4982.753914
1018.159287
2544.995164
2153.372974
4150.895274
3717.088047
0
0
1587.81627
4079.661354
10632.07187
2320.675974
4461.641523
1875.984093
3983.105839
5658.794235
0
15.40089046
1215.039464
4696.178751
5986.713749
26.89330794
4058.868966
7099.961733
4021.266075
1658.643081
2450.733218
17363.86089
4870.344234
9015.688694
8469.113986
4602.939511
2583.935997
8695.405928
4053.786224
4973.950104
2895.371286
7358.535274
5208.838185
6124.261576
13529.31672
7290.262924
13469.55374
582.5608057
5807.591895
3315.55606
15556.09693
5477.00073
2783.410772
12628.63186
12763.49408
11660.14759
24048.63181
5467.888555
12213.46596
10721.91624
5136.210404
1199.287059
1861.673308
2799.4924
12434.88543
6431.167538
13074.36529
4101.840636
7823.152639
5274.576634
6944.397196
4103.625858
6760.395108
6976.717238
4837.082757
5352.277026
7618.700609
8918.277945
6221.19554
2890.800594
10022.9379
5439.588095
4121.982007
8573.07233
5554.694252
6139.315264
8699.072445
5797.997768
7669.740463
5335.947304
9074.026736
4239.542399
4218.976206
2155.991611
5559.928121
4674.193602
6043.793323
8946.049327
1975.095837
3823.614212
9899.755944
3519.592265
4344.022441
4621.14024
4056.144477
7281.043967
11879.78774
9542.022426
3607.159221
7077.033986
2506.26488
7504.102257
4606.122185
2375.812253
3259.479892
5601.718055
12271.45437
12613.18563
7331.300232
8470.908188
7590.906673
6675.035223
13791.18422
4399.119586
6509.300629
6789.186938
2876.400464
6103.737404
4227.55193
6347.059178
11096.82751
8117.967448
7700.998803
5081.571544
4873.59603
8117.198803
3529.310346
5875.260352
15443.02206
10544.15017
5571.806401
13841.85396
11212.9992
8448.724368
17970.73303
5091.854371
11225.65393
11510.76047
4386.968399
4938.501842
14547.20592
5866.863685
8506.990731
3935.355502
3558.424233
15429.13676
6799.114441
9255.290989
5869.480103
7003.477114
8943.514721
3834.105504
6039.933844
7857.301831
3754.612607
3906.26504
8311.169883
7746.05092
4261.550669
4818.9675
7782.704858
1970.508935
8572.213337
9928.014653
18478.5789
2424.989713
4014.041365
807.72428
8778.394423
6012.852027
4917.436189
7716.614946
4579.025868
7707.530725
4957.272558
4727.904118
4066.071279
2203.650439
4690.599709
3754.199424
2908.485377
6119.044556
8128.884555
7933.491858
10142.83787
9221.651298
8147.468346
7227.524726
4019.784964
2339.303826
6421.803161
2425.156145
6197.1951
13920.15159
4716.37989
10150.9482
7722.518371
3285.098211
10189.8397
9915.268151
6391.899333
4229.5934
10998.22145
5982.592694
7137.778055
5924.983426
5881.363225
6417.657173
5557.151382
10529.60279
8204.052286
3226.066955
6719.624552
10634.53655
6970.818799
2932.617949
5862.02408
5001.95026
3001.846771
9962.532363
9220.702505
5246.829793
7498.567026
3045.080929
4399.834447
2892.152143
11777.37987
4892.197485
8060.138025
4862.567122
6998.450455
8324.630314
3651.461137
6329.728039
7472.096493
5944.018127
3535.105484
3564.814847
4477.227621
2910.654808
8147.506414
4296.575701
5777.386606
5470.604702
5753.417083
13239.49055
5616.033744
8183.691241
3635.473742
6848.297647
6825.205563
5765.279427
7613.47741
6853.723114
9582.88158
8605.991826
8366.840428
12387.11022
4089.917833
5245.582424
2899.762977
3985.042638
3112.759235
5515.026463
3467.537362
7704.020151
5818.469813
3424.921401
6071.143704
3965.110437
6173.602573
2176.968982
5734.112829
4942.516611
3460.160091
4746.402684
7050.871317
4455.013993
4807.590136
5223.31159
6798.236457
8835.489852
9636.454052
8184.09663
3851.650169
14437.18874
7477.697053
7585.782039
9822.025211
14332.61656
5290.728642
4609.409099
4854.938756
5030.090171
2903.316065
7254.504614
2431.755096
3095.217057
1479.922616
6433.76995
6025.934529
4726.264682
6219.390611
3746.51627
7691.965194
9083.566957
4061.204978
2670.378316
4620.451271
5897.380053
3748.11449
4047.872908
4621.664832
7886.461513
4171.853204
4734.526562
2339.603631
3236.47743
5357.741189
11020.51536
3000.635555
4914.300899
4606.929108
3726.366392
5702.102867
5007.806993
2881.014373
1157.318083
4613.911901
5771.779275
2809.080116
5801.283381
4836.82125
6316.283992
9041.65991
3466.251971
6410.340547
3970.143976
7806.063547
2312.628624
8751.037249
2449.432998
3319.308725
4486.336256
7119.748791
5581.70315
5962.072921
4803.622574
9209.907392
7371.288995
6180.044172
2219.602542
3772.87014
4797.800839
3866.958216
4261.756173
2937.430529
6637.568394
8925.198872
4776.74888
5301.50547
4769.59266
5235.727024
10327.5939
7028.317708
7856.472012
7653.253029
7142.355632
4120.590894
8517.757233
6266.954912
4287.512218
6347.052291
10049.03396
3750.521807
2754.488579
3932.520585
5755.945865
6124.703819
6218.440216
3534.061568
4020.99452
6058.232278
2763.979336
6678.961873
2916.758497
2852.533555
2578.98348
6999.069343
4206.297848
3352.617499
5047.64466
1917.809961
5683.037804
5955.050696
4099.46921
2937.06472
6288.149868
5682.832789
5938.526353
6317.400308
4821.513009
5441.944054
8404.498968
6620.658053
8125.250859
4336.422644
5152.026377
6723.893957
8313.730815
2797.069408
5616.853065
3340.275855
4552.253674
4498.824644
4852.557079
3751.942831
4354.402145
7505.966246
5426.860318
4039.67592
5111.2996
4824.818842
3987.518259
5456.732825
3555.98892
7190.433752
8719.105852
3952.957842
5141.901668
8854.490901
6344.723462
4236.179036
5335.953864
7584.218459
7600.632551
3252.180779
3424.997789
5204.9182
7007.895825
3553.661941
5034.330798
3318.809343
3249.45547
3206.748985
2791.706123
4560.673668
5038.809096
2522.021317
994.5451064
3069.785902
2389.916877
3137.004351
3053.694384
8206.513445
3355.041033
7119.67957
5107.789412
3796.266958
5090.607832
6554.954137
4866.104055
6136.154049
6715.109495
4733.563461
7880.619552
3904.942158
7460.774575
7679.158506
3605.811665
1949.500748
3767.681484
4438.010443
4822.385998
6228.805297
6073.146983
3435.834
4295.794021
6762.970607
3943.150419
5244.163035
7447.083656
5551.077317
4219.300296
1241.493704
5161.215077
4699.883315
2630.188295
2996.656183
4497.213063
6269.922391
4925.332099
10755.3123
5230.296326
6517.184908
5776.966732
3188.768501
5284.001735
5966.499286
1626.969209
3350.3116
2432.580321
3410.154384
1787.945029
5897.705535
3727.497806
3643.548999
3642.006185
3898.744555
1504.987491
3127.849933
2587.918475
2707.489728
7222.021368
4862.789399
3752.383478
5308.233016
3105.811426
7918.079592
7379.291357
4130.306986
9694.532975
3929.517385
6024.605104
12070.17761
4867.594635
4269.250108
5748.902798
8659.004339
5042.034115
3875.54252
4713.735699
5444.349863
1896.813661
3862.263564
5091.790765
3341.765551
2133.676714
1867.645947
1780.640663
5785.506261
4995.535093
2747.901051
6057.981565
4563.896086
3986.255036
2206.561483
7318.108901
3811.443206
8391.920918
3691.369904
4178.14114
4778.851216
5106.637402
9377.132983
2892.719575
8891.144353
7532.425586
7027.801094
5259.454781
2088.865724
8136.033196
4345.157642
2582.16723
2156.928358
4449.861047
1337.457159
4946.878697
4118.544304
5887.872687
6584.809588
3226.263921
2678.606517
2185.864011
2454.955227
3706.925385
2292.914783
1290.295709
5667.681976
5752.589297
8142.784549
5480.515406
4095.495904
3252.411887
3848.682359
6163.043435
8314.211635
7050.557078
6892.61137
4751.819445
2006.101853
3150.158754
3396.024697
4444.026671
1748.477611
5660.42379
4497.566114
4023.70256
2598.981908
1255.546252
5245.314738
4307.346089
3694.383121
4917.457454
2369.390257
3043.01443
4082.912347
5365.89111
2834.800413
1112.837163
2884.853142
5741.685577
4506.24383
1192.984005
6847.246059
5154.207109
4953.188618
4192.031192
6255.042753
5053.589906
7705.170103
4611.853056
5601.162852
2431.615645
5228.149604
4996.018009
10058.7984
4865.42672
2234.47928
1410.641982
3332.496813
6888.522347
3780.728085
2249.422017
2496.564254
6923.56557
4132.886465
11300.33414
3738.419815
3438.334047
13369.14365
17619.58133
16388.86356
1973.842903
7540.578101
9208.881862
6054.7214
7377.340078
6226.312739
2726.995256
8934.716778
1480.507769
4488.686361
6207.799234
5714.268043
4181.151349
3325.980767
7638.601738
4253.772524
931.3435996
5855.815493
4174.235351
17713.04487
5663.009147
9520.721238
3413.069977
12234.94562
10443.97257
8764.372236
5024.588641
16224.03772
7868.204199
5648.113964
6559.111755
2200.95856
4505.2548
3885.164302
4722.229259
4255.74438
6499.763918
9356.47135
6091.307167
9220.690055
930.4826089
12041.61875
1655.303699
7047.104798
2693.485381
2430.740335
4481.166522
6053.311754
5626.429574
4083.511895
2766.559737
8614.315616
6233.534131
3682.178518
6538.993207
9473.021254
685.1144281
23290.45541
6576.896753
13433.66363
10708.27423
7160.114705
4995.763849
5621.937246
9916.616097
1204.656165
2130.819187
9282.628548
4661.846874
5244.537092
5855.521857
7533.402041
7083.160041
9737.239274
5839.455132
5232.267327
9437.524298
6285.652819
11293.01947
9017.040353
5451.636207
6804.727918
2444.55852
6798.884368
6732.337841
1550.598748
9871.045873
6434.877384
8397.812349
6216.41084
10067.97841
1137.76517
11413.8102
11304.56247
10896.32824
3891.001749
1576.683362
3690.305625
6055.712363
6003.294196
12454.13592
8110.765342
3245.334052
3147.50786
8367.511382
11444.13985
2787.510817
2884.524295
8633.169974
10830.58813
10244.83848
606.6067302
10836.42931
11055.24819
6776.902205
8900.236808
6478.125075
5311.984661
8221.182112
6699.749495
10512.42414
9024.023338
6001.871204
4997.801031
5085.738022
5251.593379
16339.97715
8063.615983
1348.159988
7397.432795
7489.579327
10532.06383
6039.512683
8221.441862
5156.36441
5619.814195
7737.222758
3173.812494
6122.952715
10503.35614
6142.360959
5576.343014
11021.43252
4789.707354
7071.089544
2456.036286
6761.501225
7576.729342
5670.575196
3728.736779
6760.256627
10013.99248
2673.015832
4433.512143
5136.365009
2632.813307
8228.846886
4695.4776
4121.882843
4461.019499
7592.384764
6062.874602
4915.725608
3696.130945
5395.123586
6830.948756
4600.198774
3583.453003
5710.421839
6138.450252
4760.156427
5908.029669
3377.348327
3380.647661
3874.876183
7766.485378
7650.939031
6561.348683
4122.811828
3378.499247
4133.579616
2756.115858
6591.143401
7190.695762
1270.301903
2253.475833
1002.272364
2781.728974
774.7006091
5387.263937
6547.245662
7066.008136
10479.29019
3855.72486
5987.317615
1243.059932
4605.34948
4115.07603
7672.306827
4190.959328
4437.361921
2157.905226
4915.782947
3584.53159
7548.143449
12717.85617
9598.352894
4740.540569
6863.798259
12166.88811
10644.23582
2920.427113
4181.442992
8937.954601
8358.566712
4973.529132
4630.848379
6228.890925
11438.19831
6064.67524
13956.41249
8017.535044
7565.551266
4891.009363
5507.291215
4805.732363
3210.776478
5306.305668
10488.94161
7648.19375
3102.512567
6463.005961
6690.841358
7497.994222
8085.78365
12659.78504
9032.711401
2855.941832
3912.761019
2625.333922
6932.244233
10884.58036
3259.93236
6943.801831
7549.341691
4421.675872
7396.495784
6046.067662
3347.267179
1439.946345
1964.229712
7927.998071
5317.679293
7450.75993
1785.87984
6274.289115
3746.667689
10833.63163
1475.721496
6290.574681
6043.16745
10402.29829
3954.151598
11348.92612
4165.328177
11843.147
2619.694351
652.8028052
5469.353405
8648.203276
8208.345958
4629.939234
5664.230481
2213.598938
10854.34412
8888.499104
3934.824214
2668.701398
6627.076442
6123.021787
4528.448318
6621.761324
10409.50523
12159.8206
6524.172617
5252.417626
6141.308141
4134.705997
10802.23981
5140.738967
15107.87415
4967.495935
12951.58484
4227.056063
8199.894768
6271.36776
6549.62366
3220.055623
1285.213787
5171.515325
6076.041467
2717.251831
5099.545986
3179.236002
10577.84204
2558.823058
4509.561672
10472.81652
4087.210465
7768.245053
11310.87573
4175.855179
3301.598617
5268.465818
2243.991395
8463.415602
2877.772938
6326.531299
7197.297281
12704.82645
4019.831225
9245.660762
11627.59875
4251.608613
7759.164865
5183.864471
938.8915965
1300.010498
5902.395194
2274.456333
9013.035334
5698.2964
8619.236405
11332.70526
5369.811975
1929.032374
11964.11178
1338.034394
10876.23319
8615.875015
8983.078834
10736.50207
10491.69085
10274.38981
5575.264991
8927.349553
4688.45289
4826.087905
2600.06525
4915.805111
3361.748267
3782.177446
5891.835534
5815.296885
7019.931353
7391.108077
8639.520794
3280.34191
8819.818972
2843.102683
7897.125845
6882.97523
3177.860263
7756.960279
11322.13967
1970.239647
10705.51594
5692.167569
6169.139733
7753.16129
7139.791072
6062.578478
12905.71152
7267.729937
13590.585
13055.09162
6152.829943
12371.60233
11172.07787
8418.171554
12896.23266
10230.40209
3868.970339
6675.959778
4032.961309
11922.78943
6690.691422
4988.376013
5078.184812
6388.820961
853.9578527
1881.228533
3319.405595
1324.738062
4339.874512
7467.517517
6729.144099
2101.024423
10066.45673
3444.643863
11177.89341
7527.482259
3468.190552
4388.145904
7716.91317
5784.761807
7536.193248
2618.613123
9079.455792
15870.66044
14212.76314
9080.044668
2878.149465
8470.652329
6723.61757
8935.816891
2742.871691
2978.475027
8696.185604
6016.045929
3770.110479
1526.720722
4747.809788
4523.322249
2790.996039
5849.049115
9112.571272
6734.559464
2608.361027
5366.97769
2798.164902
5211.247078
6888.826145
7142.250637
9798.918304
8140.575579
7920.912793
7064.631406
16780.70674
6299.426717
3944.078023
9012.342689
8531.503606
9658.930114
1740.335735
13601.08203
4863.06399
834.5099545
8495.06042
13690.69001
7601.059494
6085.516569
5614.71065
5483.384593
4817.954347
10321.01342
4083.536477
6799.936804
7012.230069
8198.500414
3810.236112
4796.810477
4587.762086
6455.908556
7757.06765
2273.891322
2809.528341
4747.148761
7645.551009
11943.75455
6569.163771
6096.867775
6989.797218
9249.488894
8523.148537
9511.291353
2596.853343
)
;

boundaryField
{
    inlet
    {
        type            zeroGradient;
    }
    outlet
    {
        type            zeroGradient;
    }
    wall
    {
        type            calculated;
        value           uniform 0;
    }
    frontAndBack
    {
        type            empty;
    }
}


// ************************************************************************* //
