/*--------------------------------*- C++ -*----------------------------------*\
| =========                 |                                                 |
| \\      /  F ield         | OpenFOAM: The Open Source CFD Toolbox           |
|  \\    /   O peration     | Version:  v1912                                 |
|   \\  /    A nd           | Website:  www.openfoam.com                      |
|    \\/     M anipulation  |                                                 |
\*---------------------------------------------------------------------------*/
FoamFile
{
    version     2.0;
    format      ascii;
    class       volScalarField;
    location    "7e-05";
    object      rhoNMean;
}
// * * * * * * * * * * * * * * * * * * * * * * * * * * * * * * * * * * * * * //

dimensions      [0 -3 0 0 0 0 0];


internalField   nonuniform List<scalar> 
1300
(
1.714285714e+23
1.714285714e+23
4.742857143e+23
1.291428571e+24
7.228571429e+23
5.171428571e+23
7.914285714e+23
7.914285714e+23
6.4e+23
6.457142857e+23
2.085714286e+23
2.114285714e+23
6.828571429e+23
2.26e+24
1.077142857e+24
6.742857143e+23
1.12e+24
1.148571429e+24
8.114285714e+23
7.542857143e+23
8.857142857e+22
1.114285714e+23
6.914285714e+23
2.334285714e+24
1.022857143e+24
5.4e+23
1.165714286e+24
1.457142857e+24
9.2e+23
8.857142857e+23
7.714285714e+22
7.428571429e+22
5.885714286e+23
2.088571429e+24
1e+24
5.8e+23
1.245714286e+24
1.608571429e+24
1.051428571e+24
1.002857143e+24
4.571428571e+22
5.428571429e+22
5.485714286e+23
2.182857143e+24
1.054285714e+24
5.857142857e+23
1.102857143e+24
1.477142857e+24
1.088571429e+24
1.037142857e+24
4e+22
2.571428571e+22
5.314285714e+23
2.162857143e+24
9.885714286e+23
4.8e+23
1.154285714e+24
1.36e+24
1.242857143e+24
1.051428571e+24
2.857142857e+22
4.285714286e+22
5.171428571e+23
2.068571429e+24
9.285714286e+23
3.742857143e+23
1.111428571e+24
1.245714286e+24
1.031428571e+24
9.342857143e+23
2.285714286e+22
2.857142857e+22
6.457142857e+23
2.162857143e+24
9.085714286e+23
5.057142857e+23
1.042857143e+24
1.362857143e+24
9.6e+23
8.828571429e+23
1.428571429e+22
2.857142857e+22
5.742857143e+23
2.185714286e+24
9.314285714e+23
5.6e+23
1.091428571e+24
1.308571429e+24
1.028571429e+24
9.114285714e+23
5.714285714e+21
1.714285714e+22
5.342857143e+23
2.108571429e+24
9.428571429e+23
5.028571429e+23
1.008571429e+24
1.428571429e+24
9.914285714e+23
7.828571429e+23
8.571428571e+21
2.571428571e+22
5.685714286e+23
2.177142857e+24
9.457142857e+23
5.114285714e+23
1.077142857e+24
1.345714286e+24
9.371428571e+23
9.485714286e+23
5.714285714e+21
2.571428571e+22
5.857142857e+23
2.051428571e+24
9.428571429e+23
4.371428571e+23
1.108571429e+24
1.328571429e+24
9.942857143e+23
9.971428571e+23
2.857142857e+21
2.571428571e+22
4.914285714e+23
2.191428571e+24
9.714285714e+23
4.714285714e+23
1.057142857e+24
1.405714286e+24
9.714285714e+23
8.914285714e+23
5.714285714e+21
8.571428571e+21
5.657142857e+23
2.182857143e+24
8.571428571e+23
4.657142857e+23
1.088571429e+24
1.362857143e+24
9.057142857e+23
8.8e+23
2.857142857e+21
1.428571429e+22
5.342857143e+23
2.037142857e+24
9.657142857e+23
4.771428571e+23
1.057142857e+24
1.36e+24
1.002857143e+24
8.2e+23
5.714285714e+21
2e+22
5.742857143e+23
2.28e+24
9.257142857e+23
4.857142857e+23
1.137142857e+24
1.308571429e+24
1e+24
9.428571429e+23
5.714285714e+21
1.142857143e+22
5.971428571e+23
2.02e+24
9.085714286e+23
5.228571429e+23
1.068571429e+24
1.274285714e+24
9.742857143e+23
9.2e+23
2.857142857e+21
1e-277
5.742857143e+23
2.088571429e+24
8.971428571e+23
5.685714286e+23
1.06e+24
1.282857143e+24
1.005714286e+24
8.828571429e+23
1e-277
2e+22
6.057142857e+23
2.165714286e+24
9.514285714e+23
5.371428571e+23
9.514285714e+23
1.317142857e+24
9.914285714e+23
8.971428571e+23
2.857142857e+21
8.571428571e+21
5.285714286e+23
2.054285714e+24
8.685714286e+23
5.428571429e+23
1.071428571e+24
1.342857143e+24
1.002857143e+24
9.685714286e+23
6.024794044e+23
5.154022988e+23
5.177557382e+23
4.824542106e+23
4.612732902e+23
4.07144285e+23
4.942213864e+23
5.601175667e+23
4.659801644e+23
4.706870347e+23
4.683335957e+23
5.483503955e+23
5.036351272e+23
4.989282527e+23
5.459969603e+23
5.624710065e+23
5.530572612e+23
5.083419975e+23
5.907122286e+23
5.03635123e+23
5.577641361e+23
5.648244417e+23
5.78945048e+23
5.436435251e+23
6.0953971e+23
5.836519183e+23
6.095397099e+23
6.707290245e+23
7.295648978e+23
8.307626163e+23
6.989702466e+23
6.307206214e+23
5.436435251e+23
5.459969603e+23
5.130488636e+23
5.530572658e+23
5.106954327e+23
4.918679472e+23
5.648244417e+23
4.918679513e+23
5.083419933e+23
4.683335995e+23
5.69531312e+23
4.989282527e+23
5.577641361e+23
5.459969603e+23
5.17755734e+23
5.177557382e+23
5.648244417e+23
5.695313074e+23
5.671778769e+23
5.812984879e+23
5.718847425e+23
5.671778768e+23
5.248160437e+23
6.048328346e+23
6.23660321e+23
5.954190989e+23
5.883587886e+23
7.177977279e+23
8.895984956e+23
8.590038313e+23
6.989702465e+23
6.824962004e+23
6.683755838e+23
6.071862748e+23
5.671778768e+23
5.718847425e+23
5.930656637e+23
5.860053582e+23
5.860053534e+23
5.483503954e+23
5.177557382e+23
5.271694746e+23
5.365832196e+23
5.15402303e+23
5.459969558e+23
5.812984879e+23
6.118931451e+23
6.071862698e+23
6.024794044e+23
6.001259692e+23
6.048328346e+23
5.577641361e+23
5.671778768e+23
5.554106964e+23
5.860053583e+23
5.789450527e+23
6.519015377e+23
6.448412376e+23
1.141416059e+24
1.040218338e+24
8.872450605e+23
8.307626163e+23
8.590038313e+23
7.107374224e+23
7.036771169e+23
7.013236759e+23
6.213068858e+23
5.954190989e+23
5.977725292e+23
5.742381823e+23
5.765916175e+23
6.213068807e+23
5.55410701e+23
5.69531312e+23
5.64824437e+23
5.507038306e+23
6.048328396e+23
5.789450479e+23
6.754358948e+23
5.860053582e+23
6.542549729e+23
6.754358948e+23
6.91909941e+23
6.024793995e+23
6.213068858e+23
6.872030707e+23
6.636687135e+23
6.448412375e+23
1.350871789e+24
1.148476355e+24
1.028451171e+24
1.115528272e+24
9.084259695e+23
8.895984956e+23
8.919519308e+23
8.307626094e+23
7.578061259e+23
7.013236817e+23
6.848496299e+23
6.801427652e+23
6.354274968e+23
5.930656588e+23
5.883587934e+23
6.071862748e+23
6.824961947e+23
5.69531312e+23
6.660221541e+23
5.742381776e+23
6.37780932e+23
6.613152838e+23
6.495481025e+23
6.495481079e+23
6.283671914e+23
7.060305463e+23
7.036771169e+23
6.589618486e+23
5.883587886e+23
6.542549783e+23
1.132002318e+24
1.355578649e+24
1.160243541e+24
1.113174837e+24
1.063752689e+24
1.054338957e+24
9.390206343e+23
8.966587937e+23
8.519435329e+23
8.684175791e+23
7.78987036e+23
8.119351349e+23
6.989702466e+23
7.907542118e+23
6.824962003e+23
6.872030707e+23
6.942633705e+23
6.424878024e+23
6.754358948e+23
6.683755838e+23
6.848496355e+23
6.307206265e+23
6.87203065e+23
6.895565059e+23
6.91909941e+23
6.519015377e+23
7.107374224e+23
6.966168114e+23
6.754358892e+23
7.201511631e+23
1.049632088e+24
1.174364142e+24
1.167303846e+24
1.162596976e+24
1.117881698e+24
1.127295448e+24
1.049632087e+24
9.884427648e+23
1.042571782e+24
9.649084212e+23
9.15486275e+23
8.307626163e+23
7.695733017e+23
7.954610821e+23
7.507458204e+23
7.578061259e+23
7.201511572e+23
7.789870424e+23
6.7778933e+23
6.895565002e+23
7.483923852e+23
6.895565058e+23
7.201511572e+23
6.848496355e+23
7.225045983e+23
6.730824541e+23
6.872030707e+23
7.060305521e+23
7.436855087e+23
6.118931452e+23
1.075519874e+24
1.139062614e+24
1.195545068e+24
1.113174837e+24
1.200251928e+24
1.35557866e+24
1.164950411e+24
1.153183225e+24
1.127295448e+24
1.044925217e+24
1.037864903e+24
1.044925217e+24
9.696152915e+23
8.754778773e+23
9.013656715e+23
8.566504032e+23
7.530992494e+23
8.307626163e+23
7.60159561e+23
7.083839814e+23
7.483923852e+23
8.684175791e+23
7.248580275e+23
7.813404776e+23
7.554526908e+23
8.048748227e+23
7.013236817e+23
7.884007832e+23
7.648664251e+23
7.813404777e+23
1.07787331e+24
1.091993912e+24
1.009623689e+24
1.188484763e+24
1.129648874e+24
1.160243541e+24
1.268501558e+24
1.172010707e+24
1.190838198e+24
1.120235143e+24
1.033158033e+24
1.084933615e+24
9.76675597e+23
1.004916811e+24
9.978565136e+23
9.602015508e+23
9.107794047e+23
9.013656715e+23
8.54296968e+23
8.072282579e+23
8.40176357e+23
8.307626163e+23
7.860473415e+23
8.354694866e+23
8.189954404e+23
8.401763501e+23
7.954610887e+23
7.483923852e+23
9.15486275e+23
7.601595611e+23
9.649084212e+23
1.15082979e+24
1.016683995e+24
9.813824673e+23
1.07316643e+24
1.134355754e+24
1.188484763e+24
1.148476355e+24
1.181424457e+24
1.249674077e+24
1.15082979e+24
1.221432855e+24
1.160243541e+24
1.035511468e+24
1.049632087e+24
9.907962081e+23
9.837358947e+23
9.154862826e+23
9.884427732e+23
9.366671914e+23
8.072282645e+23
8.54296968e+23
8.872450531e+23
8.095816997e+23
9.249000232e+23
8.095816931e+23
8.40176357e+23
8.307626162e+23
8.919519235e+23
8.213488756e+23
1.01903743e+24
1.101407652e+24
1.037864912e+24
1.063752698e+24
1.087287041e+24
1.044925217e+24
1.1508298e+24
1.096700782e+24
1.153183235e+24
1.299096216e+24
1.237906891e+24
1.21907942e+24
1.179071022e+24
1.202605364e+24
1.120235142e+24
1.056692393e+24
1.209665669e+24
1.028451171e+24
9.907962081e+23
1.014330551e+24
9.201931529e+23
9.837359023e+23
8.895984883e+23
8.425297921e+23
8.872450604e+23
8.990122289e+23
9.507878101e+23
8.213488756e+23
8.895984883e+23
9.296068936e+23
9.79029032e+23
1.099054217e+24
1.068459569e+24
9.696152915e+23
1.047278643e+24
1.143769495e+24
1.002563384e+24
1.037864903e+24
1.172010717e+24
1.14612293e+24
1.216725975e+24
1.176717587e+24
1.284975604e+24
1.197898494e+24
1.15553667e+24
1.181424457e+24
1.108467957e+24
1.063752699e+24
1.115528272e+24
1.051985514e+24
1.051985522e+24
9.484343749e+23
1.042571773e+24
9.62554986e+23
9.037191066e+23
9.484343671e+23
8.54296968e+23
8.966588011e+23
9.531412374e+23
8.566504032e+23
1.023744301e+24
1.056692384e+24
1.000209949e+24
9.978565136e+23
9.978565052e+23
1.099054226e+24
1.037864911e+24
9.62554978e+23
1.186131328e+24
1.051985523e+24
1.06845956e+24
1.193191633e+24
1.164950411e+24
1.22378628e+24
1.15553667e+24
1.284975605e+24
1.162596966e+24
1.084933615e+24
1.08728705e+24
1.122588568e+24
1.011977125e+24
1.049632088e+24
9.978565054e+23
9.860893378e+23
9.62554986e+23
9.296068859e+23
9.249000232e+23
9.272534584e+23
9.813824593e+23
9.343137639e+23
1.030804606e+24
1.136709179e+24
9.507878101e+23
9.249000232e+23
1.033158033e+24
1.016683995e+24
1.009623689e+24
9.296068859e+23
1.035511476e+24
1.120235143e+24
9.672618484e+23
1.061399263e+24
1.129648883e+24
1.077873301e+24
1.230846596e+24
1.129648883e+24
1.249674067e+24
1.263794688e+24
1.186131328e+24
1.136709179e+24
1.099054226e+24
1.127295448e+24
1.096700782e+24
1.040218347e+24
9.955030784e+23
1.026097727e+24
1.004916819e+24
9.719687267e+23
9.76675589e+23
8.895984956e+23
9.507878101e+23
1.054338949e+24
1.044925217e+24
9.696152913e+23
1.059045819e+24
1.01903743e+24
1.026097736e+24
1.075519866e+24
1.056692393e+24
9.696152915e+23
1.06845956e+24
1.049632088e+24
1.141416059e+24
1.019037422e+24
1.15553667e+24
1.162596976e+24
1.066106125e+24
1.28262217e+24
1.176717587e+24
1.188484753e+24
1.174364151e+24
1.106114532e+24
1.148476355e+24
1.117881707e+24
1.169657281e+24
1.000209941e+24
9.79029032e+23
1.089640485e+24
9.131328399e+23
1.056692393e+24
1.09199392e+24
1.108467958e+24
9.931496434e+23
1.011977125e+24
1.009623681e+24
1.099054226e+24
9.343137639e+23
1.040218338e+24
1.089640486e+24
1.01433056e+24
9.978565054e+23
9.931496435e+23
1.01433056e+24
1.033158033e+24
1.094347356e+24
1.108467967e+24
1.108467957e+24
1.183777892e+24
1.132002319e+24
1.212019104e+24
1.233200031e+24
1.254380947e+24
1.176717577e+24
1.0237443e+24
1.153183235e+24
1.06845956e+24
1.000209949e+24
1.061399263e+24
1.0778733e+24
9.90796208e+23
9.366671991e+23
1.054338949e+24
1.143769494e+24
9.531412453e+23
1.044925209e+24
1.021390865e+24
1.099054226e+24
1.002563375e+24
1.023744301e+24
1.075519874e+24
1.051985514e+24
1.070813004e+24
1.080226744e+24
9.719687187e+23
1.084933615e+24
1.07787331e+24
1.035511468e+24
1.077873309e+24
1.148476364e+24
1.14141605e+24
1.1508298e+24
1.172010717e+24
1.313216816e+24
1.207312244e+24
1.29203591e+24
1.223786281e+24
1.195545068e+24
1.134355754e+24
1.110821393e+24
1.101407662e+24
1.004916819e+24
9.743221538e+23
9.76675597e+23
1.00962369e+24
1.011977117e+24
1.059045828e+24
1.011977124e+24
9.46080932e+23
1.056692393e+24
1.004916819e+24
1.14141605e+24
9.907962081e+23
1.091993921e+24
1.066106125e+24
1.094347355e+24
1.08258018e+24
1.117881698e+24
1.1508298e+24
1.00962369e+24
1.106114522e+24
1.16024354e+24
1.141416059e+24
1.124942004e+24
1.164950411e+24
1.230846596e+24
1.124942003e+24
1.240260336e+24
1.190838198e+24
1.202605364e+24
1.106114532e+24
9.390206343e+23
1.134355744e+24
9.76675597e+23
8.307626162e+23
9.413740617e+23
1.035511477e+24
9.649084213e+23
9.907961998e+23
9.507878101e+23
1.011977125e+24
9.602015428e+23
1.01433056e+24
1.051985523e+24
9.978565055e+23
9.743221621e+23
1.110821402e+24
1.00020994e+24
1.129648883e+24
1.117881707e+24
1.051985514e+24
1.164950411e+24
1.136709189e+24
1.124942004e+24
1.115528272e+24
1.077873309e+24
1.221432845e+24
1.167303846e+24
1.209665679e+24
1.181424447e+24
1.197898503e+24
1.089640485e+24
1.066106125e+24
1.094347355e+24
1.089640485e+24
1.047278644e+24
9.813824674e+23
1.051985523e+24
9.649084133e+23
9.602015508e+23
9.62554986e+23
1.00020994e+24
9.766755971e+23
9.696152915e+23
1.033158033e+24
9.602015508e+23
1.042571782e+24
9.884427648e+23
9.743221619e+23
1.091993921e+24
1.00020994e+24
1.068459569e+24
1.044925217e+24
1.035511468e+24
1.089640485e+24
1.1508298e+24
1.113174828e+24
1.127295448e+24
1.059045828e+24
1.094347347e+24
1.172010716e+24
6.771428571e+23
7.371428571e+23
6.657142857e+23
5.085714286e+23
6.228571429e+23
5.742857143e+23
5.571428571e+23
5.342857143e+23
5.457142857e+23
4.314285714e+23
8.114285714e+23
8.228571429e+23
7.8e+23
7.028571429e+23
8.171428571e+23
7.742857143e+23
7.028571429e+23
6.971428571e+23
5.828571429e+23
6.428571429e+23
7e+23
6.942857143e+23
7.228571429e+23
7.628571429e+23
7.485714286e+23
7.4e+23
7.085714286e+23
6.771428571e+23
6.085714286e+23
5.714285714e+23
6.428571429e+23
6.342857143e+23
7.8e+23
7.4e+23
7.542857143e+23
7.542857143e+23
7.028571429e+23
7.057142857e+23
6.457142857e+23
6.4e+23
6.2e+23
6.2e+23
6.6e+23
7.514285714e+23
7.371428571e+23
7.142857143e+23
7.514285714e+23
7.171428571e+23
6.714285714e+23
7.257142857e+23
6.628571429e+23
7.171428571e+23
6.028571429e+23
7.371428571e+23
7.314285714e+23
7.171428571e+23
7.942857143e+23
7.085714286e+23
8.057142857e+23
7.657142857e+23
6.685714286e+23
6.4e+23
7.342857143e+23
6.628571429e+23
7.371428571e+23
7.342857143e+23
7.4e+23
7.942857143e+23
7.257142857e+23
7.971428571e+23
7.8e+23
7.228571429e+23
7.142857143e+23
6.714285714e+23
7.342857143e+23
7.571428571e+23
6.6e+23
7.371428571e+23
7.371428571e+23
7.371428571e+23
7.371428571e+23
8.171428571e+23
8.114285714e+23
7.2e+23
7.457142857e+23
7.628571429e+23
7.714285714e+23
6.714285714e+23
7.228571429e+23
7.485714286e+23
7.828571429e+23
8.657142857e+23
8.514285714e+23
7.857142857e+23
7.485714286e+23
8.771428571e+23
7.285714286e+23
7.428571429e+23
8.171428571e+23
7.371428571e+23
8.285714286e+23
8.314285714e+23
9.228571429e+23
8.571428571e+23
8.314285714e+23
8.685714286e+23
8.142857143e+23
8.542857143e+23
9e+23
8.6e+23
8.771428571e+23
9.428571429e+23
9.285714286e+23
9.057142857e+23
9.028571429e+23
8.828571429e+23
8.685714286e+23
9.771428571e+23
7.542857143e+23
8.714285714e+23
8.714285714e+23
9.8e+23
8.714285714e+23
8.142857143e+23
8.685714286e+23
8.628571429e+23
8.714285714e+23
8.571428571e+23
8.4e+23
8.628571429e+23
9.228571429e+23
1.02e+24
9.771428571e+23
9.514285714e+23
9.085714286e+23
9.142857143e+23
9.971428571e+23
8.885714286e+23
8.857142857e+23
9.628571429e+23
9.8e+23
8.8e+23
9.542857143e+23
9.571428571e+23
1.022857143e+24
9.314285714e+23
1.008571429e+24
8.8e+23
9.942857143e+23
1.005714286e+24
1.031428571e+24
9.771428571e+23
1.054285714e+24
1.011428571e+24
1.02e+24
9.914285714e+23
1.002857143e+24
1.034285714e+24
9.571428571e+23
9.171428571e+23
1.131428571e+24
1.088571429e+24
1.028571429e+24
1.068571429e+24
9.885714286e+23
1.065714286e+24
9.8e+23
1.02e+24
1.048571429e+24
1.042857143e+24
1.157142857e+24
1.022857143e+24
1.117142857e+24
1.148571429e+24
1.045714286e+24
1.145714286e+24
1.054285714e+24
1.068571429e+24
1.094285714e+24
1e+24
1.148571429e+24
1.077142857e+24
1.08e+24
1.1e+24
1.028571429e+24
1.051428571e+24
1.054285714e+24
9.771428571e+23
1.114285714e+24
1.034285714e+24
1.177142857e+24
1.162857143e+24
1.094285714e+24
1.165714286e+24
1.037142857e+24
1.085714286e+24
1.08e+24
9.942857143e+23
1.071428571e+24
1.042857143e+24
4.720907894e+23
5.964739854e+23
4.494756617e+23
4.862252441e+23
4.155529662e+23
5.371092813e+23
5.060134808e+23
3.731496023e+23
4.551294436e+23
4.494756617e+23
4.777445666e+23
4.240336432e+23
4.35341207e+23
4.325143117e+23
4.805714622e+23
4.805714622e+23
5.512437306e+23
5.088403718e+23
4.32514316e+23
4.60783221e+23
5.258017175e+23
4.720907893e+23
4.97532803e+23
5.795126456e+23
4.833983532e+23
5.795126399e+23
5.625512999e+23
5.738588637e+23
6.614924768e+23
6.417042466e+23
5.564220271e+23
6.11787397e+23
6.145556717e+23
5.951777902e+23
6.505431598e+23
4.982883825e+23
5.287393393e+23
5.702633656e+23
5.896412527e+23
6.200922094e+23
6.11787397e+23
6.422383597e+23
5.951777902e+23
5.342758716e+23
6.173239405e+23
5.813364463e+23
5.53653753e+23
6.200922094e+23
6.200922093e+23
5.757999031e+23
6.671527788e+23
6.726893164e+23
6.394700847e+23
7.44664305e+23
6.699210476e+23
7.280546852e+23
6.948354667e+23
7.751152617e+23
7.834200605e+23
7.612739177e+23
4.393486281e+23
6.346146789e+23
5.803741136e+23
6.264785993e+23
6.671590215e+23
5.071493422e+23
5.34269628e+23
5.451177371e+23
5.505417993e+23
5.668139708e+23
5.369816514e+23
5.505417994e+23
5.044373137e+23
5.179974516e+23
6.047823707e+23
6.34614685e+23
5.776620795e+23
5.505417994e+23
6.183425135e+23
5.261335372e+23
6.210545421e+23
6.102064279e+23
6.617349643e+23
6.400387421e+23
6.183425135e+23
6.807191641e+23
7.295356848e+23
7.430958277e+23
7.132635067e+23
7.403837991e+23
4.545227879e+23
5.794500985e+23
6.246365799e+23
6.326106639e+23
5.076833432e+23
4.624968719e+23
4.890771519e+23
5.900822104e+23
6.060303839e+23
5.528698239e+23
6.193205181e+23
5.448957399e+23
5.927402439e+23
5.023672872e+23
5.794501039e+23
6.326106639e+23
6.007143223e+23
5.927402439e+23
5.714760199e+23
5.422377068e+23
6.140044679e+23
6.246365799e+23
6.2995263e+23
6.352686919e+23
6.219785519e+23
6.432427699e+23
7.628540359e+23
7.655120639e+23
7.761441686e+23
7.655120638e+23
4.300124256e+23
5.603192162e+23
6.020173959e+23
5.525008135e+23
5.472885367e+23
5.68137629e+23
4.560737847e+23
5.212271778e+23
4.977719593e+23
5.759560368e+23
5.759560315e+23
5.603192213e+23
5.577130854e+23
4.899535471e+23
5.577130853e+23
6.098358036e+23
6.124419339e+23
5.342578621e+23
5.394701339e+23
5.16014906e+23
4.925596875e+23
5.394701339e+23
5.863805751e+23
5.733499008e+23
6.489278423e+23
6.671707876e+23
7.505671429e+23
6.906260169e+23
7.740223591e+23
8.000837252e+23
4.115532204e+23
5.291398501e+23
4.780152312e+23
6.16051715e+23
5.904893979e+23
5.240273925e+23
5.521459354e+23
5.674833175e+23
5.547021667e+23
5.138024677e+23
4.907963827e+23
4.575653817e+23
4.959088494e+23
4.396717595e+23
5.853769408e+23
5.904894032e+23
6.134954784e+23
6.186079462e+23
5.444772419e+23
5.44477237e+23
5.981580968e+23
5.495897043e+23
5.649270863e+23
5.802644785e+23
6.186079463e+23
7.157447247e+23
6.595076451e+23
7.310821182e+23
7.183009559e+23
7.847629731e+23
4.263943038e+23
5.894274148e+23
4.991321556e+23
5.217059717e+23
5.618371954e+23
5.894274199e+23
4.94115752e+23
5.367551777e+23
4.765583395e+23
5.191977699e+23
5.492961865e+23
5.191977699e+23
5.242141734e+23
5.618371953e+23
5.593289985e+23
5.894274199e+23
5.768864059e+23
5.467879895e+23
4.94115752e+23
5.844110112e+23
5.793946128e+23
6.069848325e+23
6.044766253e+23
6.496242628e+23
6.82230886e+23
6.797226783e+23
6.671816753e+23
6.596570699e+23
7.775425471e+23
7.875753611e+23
4.283782503e+23
5.490135e+23
4.5299769e+23
4.874649055e+23
4.677693498e+23
4.948507374e+23
4.948507374e+23
4.382260224e+23
5.26856009e+23
4.751551857e+23
4.603835179e+23
4.899268495e+23
5.613232245e+23
4.603835179e+23
5.490135047e+23
4.136065865e+23
4.948507331e+23
4.800790736e+23
4.776171296e+23
5.145462847e+23
4.726932417e+23
5.908665522e+23
5.810187713e+23
6.00714328e+23
6.105621038e+23
6.40105426e+23
6.302576556e+23
7.090398625e+23
8.149034461e+23
7.730504057e+23
3.456826918e+23
5.439063286e+23
4.907243806e+23
4.351250666e+23
4.278729785e+23
5.07645911e+23
4.883070191e+23
5.003938223e+23
4.858896577e+23
4.568813199e+23
4.931417379e+23
4.544639584e+23
5.07645911e+23
4.738028463e+23
5.77749394e+23
5.535757791e+23
5.173153525e+23
5.003938265e+23
4.810549347e+23
5.342368828e+23
5.970882858e+23
5.487410562e+23
6.115924495e+23
6.526875999e+23
5.898362014e+23
6.285139797e+23
6.091750932e+23
6.236792621e+23
7.97729282e+23
8.219029035e+23
3.300367257e+23
5.366064704e+23
3.988933088e+23
4.202625931e+23
4.345087791e+23
4.677498918e+23
4.22636958e+23
4.250113195e+23
4.653755269e+23
4.440062425e+23
4.986166318e+23
5.31857745e+23
5.057397307e+23
5.508526599e+23
4.511293372e+23
4.653755269e+23
4.677498879e+23
5.009910009e+23
4.511293373e+23
5.48478295e+23
5.009910008e+23
5.033653658e+23
5.342321055e+23
5.793450437e+23
6.695709111e+23
5.983399581e+23
5.959655982e+23
6.315810722e+23
7.764173267e+23
7.170582098e+23
)
;

boundaryField
{
    inlet
    {
        type            calculated;
        value           nonuniform List<scalar> 
20
(
1.714285714e+23
2.085714286e+23
8.857142857e+22
7.714285714e+22
4.571428571e+22
4e+22
2.857142857e+22
2.285714286e+22
1.428571429e+22
5.714285714e+21
8.571428571e+21
5.714285714e+21
2.857142857e+21
5.714285714e+21
2.857142857e+21
5.714285714e+21
5.714285714e+21
2.857142857e+21
1e-277
2.857142857e+21
)
;
    }
    outlet
    {
        type            calculated;
        value           nonuniform List<scalar> 
70
(
4.314285714e+23
6.428571429e+23
5.714285714e+23
6.4e+23
7.257142857e+23
7.657142857e+23
7.971428571e+23
7.371428571e+23
7.485714286e+23
7.371428571e+23
8.6e+23
8.714285714e+23
8.628571429e+23
9.628571429e+23
1.005714286e+24
9.171428571e+23
1.042857143e+24
1e+24
1.034285714e+24
1.042857143e+24
2.857142857e+21
8.571428571e+21
5.285714286e+23
2.054285714e+24
8.685714286e+23
5.428571429e+23
1.071428571e+24
1.342857143e+24
1.002857143e+24
9.685714286e+23
1.089640485e+24
1.066106125e+24
1.094347355e+24
1.089640485e+24
1.047278644e+24
9.813824674e+23
1.051985523e+24
9.649084133e+23
9.602015508e+23
9.62554986e+23
1.00020994e+24
9.766755971e+23
9.696152915e+23
1.033158033e+24
9.602015508e+23
1.042571782e+24
9.884427648e+23
9.743221619e+23
1.091993921e+24
1.00020994e+24
1.068459569e+24
1.044925217e+24
1.035511468e+24
1.089640485e+24
1.1508298e+24
1.113174828e+24
1.127295448e+24
1.059045828e+24
1.094347347e+24
1.172010716e+24
1.177142857e+24
1.162857143e+24
1.094285714e+24
1.165714286e+24
1.037142857e+24
1.085714286e+24
1.08e+24
9.942857143e+23
1.071428571e+24
1.042857143e+24
)
;
    }
    wall
    {
        type            calculated;
        value           uniform 2.857142857e-301;
    }
    frontAndBack
    {
        type            empty;
    }
}


// ************************************************************************* //
