/*--------------------------------*- C++ -*----------------------------------*\
| =========                 |                                                 |
| \\      /  F ield         | OpenFOAM: The Open Source CFD Toolbox           |
|  \\    /   O peration     | Version:  v1912                                 |
|   \\  /    A nd           | Website:  www.openfoam.com                      |
|    \\/     M anipulation  |                                                 |
\*---------------------------------------------------------------------------*/
FoamFile
{
    version     2.0;
    format      ascii;
    class       volScalarField;
    location    "0.00032";
    object      iDofMean;
}
// * * * * * * * * * * * * * * * * * * * * * * * * * * * * * * * * * * * * * //

dimensions      [0 -3 0 0 0 0 0];


internalField   nonuniform List<scalar> 
1300
(
3.775e+23
4.325e+23
9.4375e+23
2.49375e+24
1.45625e+24
1.03625e+24
1.45e+24
1.53375e+24
1.2725e+24
1.22375e+24
4.4375e+23
4.3375e+23
1.42125e+24
4.43e+24
2.14875e+24
1.30125e+24
2.2175e+24
2.2025e+24
1.6675e+24
1.57625e+24
2.2625e+23
2.575e+23
1.28375e+24
4.5375e+24
2.11e+24
1.2525e+24
2.44375e+24
2.7625e+24
1.94875e+24
1.85125e+24
1.4625e+23
1.425e+23
1.11375e+24
4.35125e+24
1.9675e+24
1.20625e+24
2.48625e+24
3.25375e+24
2.1175e+24
2.055e+24
9.5e+22
1.2625e+23
1.1975e+24
4.28375e+24
1.90125e+24
1.01125e+24
2.3275e+24
2.9675e+24
2.3175e+24
2.1025e+24
6.25e+22
8.125e+22
1.09125e+24
4.28625e+24
1.84125e+24
9.9e+23
2.2e+24
2.8025e+24
2.16e+24
2.025e+24
4.875e+22
8.875e+22
1.16875e+24
4.2775e+24
1.79625e+24
9.3625e+23
2.09375e+24
2.6725e+24
2.01625e+24
1.94e+24
5e+22
5.875e+22
1.1575e+24
4.2625e+24
1.85125e+24
1e+24
2.14125e+24
2.78e+24
1.89625e+24
1.86e+24
3e+22
5.375e+22
1.13625e+24
4.37875e+24
1.78625e+24
9.4875e+23
2.22125e+24
2.6825e+24
1.89625e+24
1.795e+24
2.25e+22
4.75e+22
1.12875e+24
4.21e+24
1.86875e+24
1.005e+24
2.035e+24
2.7525e+24
1.9425e+24
1.68e+24
2.5e+22
4e+22
1.16125e+24
4.275e+24
1.865e+24
9.8625e+23
2.11e+24
2.79375e+24
1.95e+24
1.81125e+24
1.5e+22
4.25e+22
1.13125e+24
4.16625e+24
1.75875e+24
9.2875e+23
2.14625e+24
2.70625e+24
1.85875e+24
1.815e+24
1e+22
4.375e+22
1.04625e+24
4.24625e+24
1.83e+24
9.35e+23
2.03375e+24
2.71875e+24
1.87375e+24
1.79875e+24
1.125e+22
2.875e+22
1.1525e+24
4.26625e+24
1.85125e+24
9.3375e+23
2.0525e+24
2.67125e+24
1.92625e+24
1.75e+24
5e+21
3e+22
1.12125e+24
4.18e+24
1.82875e+24
9.625e+23
2.0625e+24
2.78e+24
1.95875e+24
1.72875e+24
8.75e+21
3.875e+22
1.19625e+24
4.2575e+24
1.775e+24
1.0425e+24
2.1375e+24
2.66625e+24
1.93e+24
1.785e+24
8.75e+21
3.375e+22
1.12125e+24
4.18875e+24
1.77875e+24
1.0475e+24
2.12125e+24
2.575e+24
1.965e+24
1.75875e+24
7.5e+21
1.75e+22
1.1675e+24
4.27125e+24
1.7475e+24
1.0025e+24
2.0675e+24
2.71875e+24
1.99875e+24
1.73875e+24
6.25e+21
3.75e+22
1.08875e+24
4.25375e+24
1.76875e+24
9.625e+23
2.05375e+24
2.615e+24
1.89625e+24
1.7025e+24
3.75e+21
2.875e+22
9.925e+23
4.01375e+24
1.77875e+24
1.00625e+24
2.04875e+24
2.53125e+24
1.90625e+24
1.775e+24
1.283945977e+24
1.168627644e+24
1.159361002e+24
1.099642585e+24
1.089346297e+24
1.051250074e+24
1.10684998e+24
1.148035086e+24
1.074931516e+24
1.095524073e+24
1.073901879e+24
1.170686909e+24
1.156272119e+24
1.164509132e+24
1.202605374e+24
1.224227559e+24
1.174805411e+24
1.159361002e+24
1.221138676e+24
1.215990526e+24
1.188190583e+24
1.290123744e+24
1.240701595e+24
1.231434955e+24
1.28703486e+24
1.317923686e+24
1.396175417e+24
1.380730998e+24
1.551649215e+24
1.569152902e+24
1.49193081e+24
1.328219965e+24
1.191279467e+24
1.207753513e+24
1.192309085e+24
1.163479514e+24
1.109938864e+24
1.139798063e+24
1.12641291e+24
1.139798073e+24
1.144946203e+24
1.062575981e+24
1.202605374e+24
1.17995355e+24
1.182012816e+24
1.131561049e+24
1.140827691e+24
1.11199812e+24
1.193338723e+24
1.273649687e+24
1.184072072e+24
1.223197931e+24
1.305568152e+24
1.297331139e+24
1.226286815e+24
1.337486616e+24
1.256146024e+24
1.303508907e+24
1.376612475e+24
1.453834579e+24
1.875982013e+24
1.691678607e+24
1.464130857e+24
1.386908766e+24
1.325131082e+24
1.307627418e+24
1.226286815e+24
1.19951648e+24
1.207753513e+24
1.162449886e+24
1.150094342e+24
1.134649933e+24
1.151123979e+24
1.175835039e+24
1.174805421e+24
1.184072072e+24
1.137738807e+24
1.188190583e+24
1.241731233e+24
1.207753503e+24
1.244820117e+24
1.299390395e+24
1.203634992e+24
1.215990536e+24
1.189220211e+24
1.284975594e+24
1.25305714e+24
1.330279232e+24
1.383819871e+24
1.351901418e+24
2.198255542e+24
2.113826038e+24
1.801848805e+24
1.699915644e+24
1.643286096e+24
1.447656811e+24
1.463101229e+24
1.406471684e+24
1.325131092e+24
1.30659779e+24
1.286005222e+24
1.206723885e+24
1.280857093e+24
1.19951648e+24
1.227316443e+24
1.225257187e+24
1.163479504e+24
1.215990536e+24
1.194368351e+24
1.235553456e+24
1.273649698e+24
1.286005233e+24
1.266442292e+24
1.298360767e+24
1.363227324e+24
1.263353409e+24
1.324101464e+24
1.389997649e+24
1.318953314e+24
1.25305714e+24
2.595691907e+24
2.447425471e+24
2.117944567e+24
2.042781731e+24
1.967618879e+24
1.751397038e+24
1.7019749e+24
1.586656563e+24
1.591804715e+24
1.416767974e+24
1.383819871e+24
1.393086533e+24
1.32616072e+24
1.347782895e+24
1.293212628e+24
1.334397743e+24
1.304538524e+24
1.257175652e+24
1.293212628e+24
1.226286805e+24
1.23864235e+24
1.259234908e+24
1.243790479e+24
1.310716302e+24
1.234523838e+24
1.341605128e+24
1.34572365e+24
1.334397743e+24
1.266442292e+24
1.247909001e+24
2.351670097e+24
2.556566026e+24
2.340344191e+24
2.287833168e+24
2.172514827e+24
2.10661866e+24
1.928493035e+24
1.88936716e+24
1.705063783e+24
1.711241551e+24
1.589745447e+24
1.541352949e+24
1.53105667e+24
1.470308613e+24
1.467219741e+24
1.396175417e+24
1.444567916e+24
1.333368116e+24
1.324101465e+24
1.394116149e+24
1.362197696e+24
1.324101465e+24
1.336456988e+24
1.249968257e+24
1.352931045e+24
1.332338477e+24
1.317923697e+24
1.312775558e+24
1.307627408e+24
1.368375464e+24
2.195166658e+24
2.516410539e+24
2.451544002e+24
2.45772177e+24
2.443306959e+24
2.380499678e+24
2.263122099e+24
2.067492783e+24
2.077789079e+24
2.02836694e+24
1.818322836e+24
1.783315503e+24
1.599012111e+24
1.637108329e+24
1.607249134e+24
1.569152902e+24
1.537234425e+24
1.575330669e+24
1.470308625e+24
1.434271637e+24
1.435301276e+24
1.447656811e+24
1.449716055e+24
1.403382812e+24
1.354990301e+24
1.394116149e+24
1.363227324e+24
1.38484951e+24
1.433242009e+24
1.37970137e+24
2.148833403e+24
2.318721986e+24
2.35990712e+24
2.308425726e+24
2.527736445e+24
2.624521488e+24
2.47213656e+24
2.311514591e+24
2.296070191e+24
2.234292518e+24
2.080877945e+24
2.012922522e+24
2.00880401e+24
1.870833858e+24
1.774048852e+24
1.784345131e+24
1.692708235e+24
1.708152667e+24
1.588715832e+24
1.623723167e+24
1.568123274e+24
1.601071366e+24
1.540323308e+24
1.523849275e+24
1.489871555e+24
1.457953078e+24
1.426034625e+24
1.468249369e+24
1.416767963e+24
1.403382812e+24
2.111766799e+24
2.199285152e+24
2.088085358e+24
2.181781496e+24
2.280625754e+24
2.528766094e+24
2.429921817e+24
2.512292027e+24
2.601869674e+24
2.35990712e+24
2.308425707e+24
2.350640469e+24
2.116914939e+24
2.090144596e+24
2.037633591e+24
1.927463407e+24
1.898633811e+24
1.782285875e+24
1.846122804e+24
1.712271164e+24
1.757574806e+24
1.652552761e+24
1.69476749e+24
1.688589737e+24
1.664908296e+24
1.638137957e+24
1.616515785e+24
1.561945507e+24
1.537234425e+24
1.489871555e+24
2.08705573e+24
2.200314779e+24
2.031455824e+24
2.061315033e+24
2.253855429e+24
2.313573865e+24
2.312544237e+24
2.405210728e+24
2.49169949e+24
2.576128977e+24
2.424773657e+24
2.50611428e+24
2.398003352e+24
2.322840497e+24
2.207522193e+24
2.223996239e+24
2.075729806e+24
2.02836694e+24
2.035574335e+24
1.963500367e+24
1.962470755e+24
1.922315268e+24
1.857448695e+24
1.827589502e+24
1.826559874e+24
1.790522883e+24
1.726685969e+24
1.734922992e+24
1.686530467e+24
1.625782436e+24
2.035574335e+24
2.201344407e+24
2.074700195e+24
2.065433544e+24
2.064403899e+24
2.255914704e+24
2.182811124e+24
2.269299847e+24
2.431981072e+24
2.475225444e+24
2.419625518e+24
2.521558699e+24
2.518469815e+24
2.4669884e+24
2.420655166e+24
2.34034419e+24
2.407269983e+24
2.246648053e+24
2.152951915e+24
2.117944549e+24
1.9604115e+24
2.041752103e+24
2.004685482e+24
1.926433779e+24
1.950115221e+24
1.933641159e+24
1.890396803e+24
1.86774499e+24
1.788463628e+24
1.816263595e+24
1.991300336e+24
2.164277804e+24
2.001596615e+24
2.021159545e+24
2.042781714e+24
2.177662984e+24
2.097352009e+24
2.162218548e+24
2.327988656e+24
2.344462702e+24
2.401092216e+24
2.505084653e+24
2.521558699e+24
2.429921797e+24
2.482432839e+24
2.546269768e+24
2.371233007e+24
2.316662749e+24
2.412418143e+24
2.313573846e+24
2.247677681e+24
2.188988891e+24
2.177662966e+24
2.123092706e+24
2.10147052e+24
2.096322364e+24
2.031455824e+24
2.006744755e+24
2.075729806e+24
1.978944802e+24
2.048959498e+24
2.098381619e+24
2.036603963e+24
1.933641174e+24
2.071611294e+24
2.142655636e+24
2.075729823e+24
2.022189156e+24
2.270329494e+24
2.245618425e+24
2.227085104e+24
2.4772847e+24
2.435069956e+24
2.508173516e+24
2.622462232e+24
2.628639999e+24
2.445366215e+24
2.51126242e+24
2.47213656e+24
2.45772175e+24
2.327988656e+24
2.356818237e+24
2.346521938e+24
2.200314798e+24
2.206492565e+24
2.155011153e+24
2.19928517e+24
2.136477869e+24
2.113826038e+24
2.143685264e+24
1.956292988e+24
2.174574082e+24
2.01395215e+24
1.991300336e+24
2.011892877e+24
2.086026102e+24
2.018070661e+24
1.97173739e+24
2.098381637e+24
2.163248194e+24
2.086026085e+24
2.210611076e+24
2.371233027e+24
2.270329475e+24
2.553477163e+24
2.430951445e+24
2.544210491e+24
2.596721535e+24
2.524647583e+24
2.495817981e+24
2.52567721e+24
2.426832933e+24
2.479343935e+24
2.443306979e+24
2.259003587e+24
2.393884821e+24
2.31151461e+24
2.236351774e+24
2.352699706e+24
2.254885076e+24
2.048959498e+24
2.11279641e+24
1.971737406e+24
1.985122569e+24
1.985122553e+24
2.04792987e+24
2.059255777e+24
1.994389203e+24
2.057196521e+24
2.042781731e+24
2.000566971e+24
2.151922287e+24
2.257973959e+24
2.102500131e+24
2.341373818e+24
2.351670097e+24
2.369173752e+24
2.543180884e+24
2.503025397e+24
2.547299375e+24
2.56480307e+24
2.495818002e+24
2.47213654e+24
2.43815884e+24
2.546269768e+24
2.378440403e+24
2.347551586e+24
2.37947005e+24
2.287833149e+24
2.374321911e+24
2.035574335e+24
2.174574082e+24
2.002626243e+24
1.983063313e+24
2.056166876e+24
2.193107402e+24
1.945996709e+24
2.000566971e+24
2.116914939e+24
2.122063078e+24
1.95217446e+24
2.037633591e+24
2.056166893e+24
2.079848317e+24
2.19413703e+24
2.227085123e+24
2.330047892e+24
2.377410794e+24
2.422714422e+24
2.479343935e+24
2.541121629e+24
2.57921786e+24
2.592603002e+24
2.47213656e+24
2.521558699e+24
2.535973468e+24
2.410358887e+24
2.43815884e+24
2.468018028e+24
2.403151492e+24
2.040722475e+24
2.069552039e+24
2.116914939e+24
1.936730058e+24
2.033515063e+24
2.03351508e+24
2.009833638e+24
2.019100273e+24
2.034544708e+24
2.112796427e+24
2.051018737e+24
2.090144613e+24
2.156040798e+24
2.03969283e+24
2.136477869e+24
2.137507496e+24
2.164277804e+24
2.192077775e+24
2.299159075e+24
2.425803285e+24
2.481403211e+24
2.461840281e+24
2.614225187e+24
2.572010465e+24
2.586425256e+24
2.546269747e+24
2.627610371e+24
2.495818002e+24
2.503025376e+24
2.590543767e+24
2.022189173e+24
2.087055713e+24
2.010863266e+24
1.998507731e+24
1.996448459e+24
2.164277822e+24
2.022189173e+24
1.977915157e+24
2.113826055e+24
1.99438922e+24
2.098381619e+24
2.035574335e+24
2.14574452e+24
2.111766782e+24
2.137507496e+24
2.137507496e+24
2.213699942e+24
2.214729588e+24
2.191048147e+24
2.257973941e+24
2.348581214e+24
2.314603493e+24
2.41859589e+24
2.454632886e+24
2.600840046e+24
2.473166168e+24
2.661588092e+24
2.60392893e+24
2.573040072e+24
2.541121629e+24
1.989241081e+24
2.147803758e+24
1.964530011e+24
1.925404151e+24
1.965559623e+24
2.102500148e+24
1.99438922e+24
1.97173739e+24
2.032485452e+24
2.031455824e+24
2.048959481e+24
2.002626243e+24
2.095292753e+24
2.019100273e+24
2.000566987e+24
2.162218566e+24
2.049989109e+24
2.21369996e+24
2.1745741e+24
2.244588778e+24
2.257973959e+24
2.261062843e+24
2.388736682e+24
2.334166423e+24
2.50611428e+24
2.50096612e+24
2.519499443e+24
2.549358652e+24
2.532884585e+24
2.732632416e+24
2.001596615e+24
2.030426179e+24
1.947026337e+24
1.989241081e+24
1.951144833e+24
1.973796662e+24
1.975855918e+24
1.939818926e+24
2.052048382e+24
1.905841222e+24
1.948055949e+24
1.998507731e+24
2.001596615e+24
1.992329948e+24
1.973796662e+24
1.993359592e+24
2.020129901e+24
2.036603963e+24
2.032485452e+24
2.088085341e+24
2.165307449e+24
2.185900007e+24
2.181781478e+24
2.300188703e+24
2.324899772e+24
2.357847845e+24
2.346521958e+24
2.500966141e+24
2.515380911e+24
2.500966141e+24
1.31375e+24
1.2675e+24
1.285e+24
1.2875e+24
1.24875e+24
1.16625e+24
1.15e+24
1.11375e+24
1.03375e+24
8.5125e+23
1.60875e+24
1.60625e+24
1.45125e+24
1.465e+24
1.45625e+24
1.51e+24
1.42375e+24
1.3875e+24
1.2125e+24
1.0475e+24
1.3775e+24
1.3775e+24
1.4375e+24
1.4175e+24
1.365e+24
1.4175e+24
1.34375e+24
1.3225e+24
1.155e+24
1.02375e+24
1.3225e+24
1.35625e+24
1.39625e+24
1.3875e+24
1.33125e+24
1.32625e+24
1.23875e+24
1.285e+24
1.155e+24
1.0525e+24
1.23375e+24
1.31375e+24
1.3025e+24
1.2875e+24
1.30375e+24
1.23625e+24
1.35625e+24
1.22125e+24
1.11625e+24
1.1025e+24
1.37875e+24
1.3425e+24
1.245e+24
1.26375e+24
1.2375e+24
1.2325e+24
1.24375e+24
1.15375e+24
1.17625e+24
1.17875e+24
1.3425e+24
1.3275e+24
1.38625e+24
1.30375e+24
1.23e+24
1.3025e+24
1.21125e+24
1.20375e+24
1.16875e+24
1.1225e+24
1.4075e+24
1.3675e+24
1.4075e+24
1.31625e+24
1.42125e+24
1.285e+24
1.24e+24
1.2375e+24
1.20375e+24
1.14375e+24
1.49625e+24
1.465e+24
1.40875e+24
1.3725e+24
1.4025e+24
1.335e+24
1.3575e+24
1.2425e+24
1.20625e+24
1.22375e+24
1.64125e+24
1.54375e+24
1.5975e+24
1.53875e+24
1.47e+24
1.4925e+24
1.37875e+24
1.30875e+24
1.37e+24
1.28625e+24
1.73e+24
1.675e+24
1.74625e+24
1.595e+24
1.6e+24
1.49625e+24
1.55125e+24
1.53375e+24
1.46e+24
1.41375e+24
1.8675e+24
1.93625e+24
1.88625e+24
1.83875e+24
1.77625e+24
1.81625e+24
1.68125e+24
1.6675e+24
1.48875e+24
1.5575e+24
2.095e+24
2.145e+24
1.9825e+24
2.00625e+24
2.0225e+24
1.89375e+24
1.7825e+24
1.9025e+24
1.73875e+24
1.71e+24
2.2075e+24
2.23e+24
2.26375e+24
2.165e+24
2.14625e+24
2.13125e+24
2.0275e+24
2.0075e+24
1.97625e+24
1.89375e+24
2.25375e+24
2.22375e+24
2.24125e+24
2.23875e+24
2.22875e+24
2.21875e+24
2.11875e+24
2.2e+24
2.135e+24
2.045e+24
2.39125e+24
2.41e+24
2.4075e+24
2.35375e+24
2.41e+24
2.33375e+24
2.39375e+24
2.2125e+24
2.28125e+24
2.27125e+24
2.445e+24
2.5675e+24
2.5875e+24
2.5275e+24
2.35875e+24
2.4975e+24
2.4075e+24
2.49125e+24
2.4075e+24
2.37375e+24
2.585e+24
2.37875e+24
2.4725e+24
2.62625e+24
2.585e+24
2.56625e+24
2.51875e+24
2.535e+24
2.53e+24
2.47625e+24
2.56125e+24
2.555e+24
2.59875e+24
2.54125e+24
2.59375e+24
2.545e+24
2.5775e+24
2.6175e+24
2.61375e+24
2.68125e+24
2.495e+24
2.51e+24
2.6125e+24
2.565e+24
2.525e+24
2.57375e+24
2.57125e+24
2.5725e+24
2.61375e+24
2.6425e+24
1.090826547e+24
1.325811844e+24
1.275104501e+24
1.265210383e+24
1.242948604e+24
1.250369205e+24
1.273867736e+24
1.21079272e+24
1.219450085e+24
1.299839797e+24
1.259026546e+24
1.302313326e+24
1.294892738e+24
1.284998607e+24
1.320864798e+24
1.328285387e+24
1.40496479e+24
1.349310389e+24
1.378992744e+24
1.377755965e+24
1.395070686e+24
1.393833921e+24
1.428463321e+24
1.474223633e+24
1.433410395e+24
1.506379502e+24
1.544719226e+24
1.553376579e+24
1.497722149e+24
1.302313327e+24
1.18931748e+24
1.630164269e+24
1.57203064e+24
1.555074994e+24
1.564763919e+24
1.45091888e+24
1.510263643e+24
1.595041859e+24
1.56718617e+24
1.644697696e+24
1.601097447e+24
1.564763935e+24
1.656808872e+24
1.578086213e+24
1.552652759e+24
1.664075577e+24
1.61441974e+24
1.683453459e+24
1.681031224e+24
1.67982009e+24
1.773076161e+24
1.700409105e+24
1.688297913e+24
1.730687045e+24
1.72342034e+24
1.837265376e+24
1.934154801e+24
1.926888096e+24
1.943843723e+24
1.633797638e+24
1.148544099e+24
1.557890896e+24
1.560263936e+24
1.570942548e+24
1.600605345e+24
1.547212298e+24
1.505684361e+24
1.536533671e+24
1.519922511e+24
1.543652761e+24
1.537720184e+24
1.443985711e+24
1.570942548e+24
1.537720184e+24
1.586367211e+24
1.600605361e+24
1.556704383e+24
1.632641198e+24
1.636200736e+24
1.561450433e+24
1.624335611e+24
1.652811911e+24
1.686034244e+24
1.562636961e+24
1.636200736e+24
1.758411506e+24
1.80943156e+24
1.85689206e+24
1.91740418e+24
1.484327136e+24
1.18381922e+24
1.522219396e+24
1.554780253e+24
1.516404974e+24
1.566409111e+24
1.464075047e+24
1.482681243e+24
1.414070883e+24
1.52221941e+24
1.439654415e+24
1.483844117e+24
1.47570392e+24
1.525708072e+24
1.396627574e+24
1.561757576e+24
1.550128704e+24
1.546640028e+24
1.587341096e+24
1.541988493e+24
1.515242072e+24
1.526870959e+24
1.586178209e+24
1.664091639e+24
1.660602993e+24
1.653625669e+24
1.630367909e+24
1.737353551e+24
1.874574247e+24
1.833873176e+24
1.50942765e+24
1.174389996e+24
1.498202369e+24
1.482239801e+24
1.45145482e+24
1.402426875e+24
1.454875373e+24
1.355679325e+24
1.432071671e+24
1.449174451e+24
1.484520169e+24
1.456015545e+24
1.341997112e+24
1.469697771e+24
1.357959682e+24
1.432071684e+24
1.465137034e+24
1.522146243e+24
1.417249286e+24
1.523286441e+24
1.443473516e+24
1.557491975e+24
1.554071422e+24
1.503903291e+24
1.58941714e+24
1.608800276e+24
1.601959154e+24
1.696594479e+24
1.742201858e+24
1.852799734e+24
1.598538616e+24
1.089274013e+24
1.44155461e+24
1.384518714e+24
1.412477493e+24
1.418069236e+24
1.415832546e+24
1.337547966e+24
1.355441573e+24
1.404649035e+24
1.421424302e+24
1.399057267e+24
1.431489462e+24
1.367743447e+24
1.308470825e+24
1.432607813e+24
1.423661004e+24
1.478460197e+24
1.446028027e+24
1.441554623e+24
1.413595831e+24
1.479578561e+24
1.467276699e+24
1.457211526e+24
1.520957554e+24
1.538851172e+24
1.63950276e+24
1.639502775e+24
1.683118469e+24
1.824030697e+24
1.620490805e+24
1.005161866e+24
1.320097941e+24
1.3157086e+24
1.34753141e+24
1.381548885e+24
1.373867529e+24
1.254257656e+24
1.230116203e+24
1.280593775e+24
1.196098727e+24
1.227921526e+24
1.308027232e+24
1.317903276e+24
1.356310104e+24
1.374964867e+24
1.440805164e+24
1.361796796e+24
1.428734443e+24
1.374964867e+24
1.407885003e+24
1.425442428e+24
1.470433298e+24
1.471530623e+24
1.524202873e+24
1.509937476e+24
1.565901714e+24
1.598821877e+24
1.671246203e+24
1.735989146e+24
1.579069788e+24
9.316919201e+23
1.24405105e+24
1.238665558e+24
1.305445789e+24
1.293597672e+24
1.305445789e+24
1.218200649e+24
1.169731117e+24
1.295751884e+24
1.283903779e+24
1.211738036e+24
1.249436563e+24
1.305445789e+24
1.297906074e+24
1.348529808e+24
1.26451597e+24
1.321602285e+24
1.280672477e+24
1.289289281e+24
1.344221395e+24
1.319448095e+24
1.338835904e+24
1.3560695e+24
1.39699933e+24
1.458394058e+24
1.499323863e+24
1.540253695e+24
1.584414814e+24
1.722283662e+24
1.585491915e+24
8.883803443e+23
1.270172362e+24
1.140088108e+24
1.095669091e+24
1.169700777e+24
1.217292591e+24
1.151721661e+24
1.212004602e+24
1.180276743e+24
1.208831826e+24
1.182391924e+24
1.194025487e+24
1.254308438e+24
1.250078045e+24
1.265941991e+24
1.325167347e+24
1.276517936e+24
1.219407782e+24
1.318821773e+24
1.225753346e+24
1.307188221e+24
1.263826799e+24
1.297669849e+24
1.390738277e+24
1.331512921e+24
1.449963621e+24
1.478518716e+24
1.521880137e+24
1.685807449e+24
1.585335876e+24
8.372604345e+23
1.191485993e+24
1.039823443e+24
1.075142121e+24
1.049172496e+24
1.104228092e+24
1.103189307e+24
1.101111729e+24
1.118771077e+24
1.123965e+24
1.153050961e+24
1.143701909e+24
1.167593956e+24
1.23095981e+24
1.236153743e+24
1.206028988e+24
1.192524778e+24
1.18629208e+24
1.23095982e+24
1.311985012e+24
1.274588776e+24
1.274588776e+24
1.238231302e+24
1.271472422e+24
1.342109778e+24
1.302635951e+24
1.394049011e+24
1.51870317e+24
1.530129789e+24
1.524935878e+24
)
;

boundaryField
{
    inlet
    {
        type            calculated;
        value           nonuniform List<scalar> 
20
(
3.775e+23
4.4375e+23
2.2625e+23
1.4625e+23
9.5e+22
6.25e+22
4.875e+22
5e+22
3e+22
2.25e+22
2.5e+22
1.5e+22
1e+22
1.125e+22
5e+21
8.75e+21
8.75e+21
7.5e+21
6.25e+21
3.75e+21
)
;
    }
    outlet
    {
        type            calculated;
        value           nonuniform List<scalar> 
70
(
8.5125e+23
1.0475e+24
1.02375e+24
1.0525e+24
1.1025e+24
1.17875e+24
1.1225e+24
1.14375e+24
1.22375e+24
1.28625e+24
1.41375e+24
1.5575e+24
1.71e+24
1.89375e+24
2.045e+24
2.27125e+24
2.37375e+24
2.47625e+24
2.68125e+24
2.6425e+24
3.75e+21
2.875e+22
9.925e+23
4.01375e+24
1.77875e+24
1.00625e+24
2.04875e+24
2.53125e+24
1.90625e+24
1.775e+24
2.001596615e+24
2.030426179e+24
1.947026337e+24
1.989241081e+24
1.951144833e+24
1.973796662e+24
1.975855918e+24
1.939818926e+24
2.052048382e+24
1.905841222e+24
1.948055949e+24
1.998507731e+24
2.001596615e+24
1.992329948e+24
1.973796662e+24
1.993359592e+24
2.020129901e+24
2.036603963e+24
2.032485452e+24
2.088085341e+24
2.165307449e+24
2.185900007e+24
2.181781478e+24
2.300188703e+24
2.324899772e+24
2.357847845e+24
2.346521958e+24
2.500966141e+24
2.515380911e+24
2.500966141e+24
2.495e+24
2.51e+24
2.6125e+24
2.565e+24
2.525e+24
2.57375e+24
2.57125e+24
2.5725e+24
2.61375e+24
2.6425e+24
)
;
    }
    wall
    {
        type            calculated;
        value           uniform 8.4375e-301;
    }
    frontAndBack
    {
        type            empty;
    }
}


// ************************************************************************* //
