/*--------------------------------*- C++ -*----------------------------------*\
| =========                 |                                                 |
| \\      /  F ield         | OpenFOAM: The Open Source CFD Toolbox           |
|  \\    /   O peration     | Version:  v1912                                 |
|   \\  /    A nd           | Website:  www.openfoam.com                      |
|    \\/     M anipulation  |                                                 |
\*---------------------------------------------------------------------------*/
FoamFile
{
    version     2.0;
    format      ascii;
    class       volScalarField;
    location    "3.9";
    object      T;
}
// * * * * * * * * * * * * * * * * * * * * * * * * * * * * * * * * * * * * * //

dimensions      [0 0 0 1 0 0 0];


internalField   nonuniform List<scalar> 
1900
(
1.17118
1.01362
1.03269
1.04167
1.04044
1.03712
1.03349
1.03032
1.02808
1.02777
1.17118
1.01362
1.0327
1.04169
1.04048
1.03716
1.03358
1.03042
1.02727
1.02521
1.17118
1.01362
1.0327
1.04169
1.04045
1.03708
1.03348
1.03047
1.02738
1.02535
1.17118
1.01362
1.0327
1.04169
1.04048
1.03716
1.03358
1.03042
1.02727
1.02521
1.17118
1.01362
1.03269
1.04167
1.04044
1.03712
1.03349
1.03032
1.02808
1.02777
1.02159
1.01014
0.989315
0.958708
0.919229
1.01875
1.0065
0.984612
0.955218
0.920945
1.01881
1.00622
0.984268
0.954932
0.920117
1.01875
1.0065
0.984612
0.955218
0.920945
1.02159
1.01014
0.989315
0.958708
0.919229
0.902352
0.848452
0.81184
0.788277
0.776658
0.899509
0.848638
0.813028
0.788921
0.772639
0.89875
0.848223
0.812818
0.787464
0.769949
0.899509
0.848638
0.813028
0.788921
0.772639
0.902352
0.848452
0.81184
0.788277
0.776658
0.741216
0.639216
0.689825
0.726833
0.716951
0.702752
0.688385
0.675794
0.670814
0.666508
0.663548
0.660814
0.6585
0.65654
0.654932
0.653635
0.652612
0.651805
0.651186
0.650648
0.65019
0.649752
0.649269
0.648781
0.648264
0.647731
0.647162
0.646513
0.645693
0.64456
0.642905
0.640652
0.637692
0.634647
0.631346
0.628744
0.62635
0.623919
0.574736
0.474406
0.764912
0.668718
0.700407
0.730452
0.718931
0.703506
0.688709
0.67587
0.670886
0.666548
0.663581
0.660835
0.658517
0.656554
0.654945
0.653647
0.652624
0.651817
0.651197
0.650659
0.650201
0.649763
0.649279
0.648791
0.648273
0.64774
0.64717
0.646521
0.6457
0.644567
0.642912
0.640657
0.637697
0.634657
0.631349
0.628774
0.626391
0.623988
0.575161
0.474403
0.759443
0.689717
0.711596
0.73397
0.720094
0.703882
0.688868
0.675943
0.670918
0.666576
0.663602
0.660848
0.658527
0.656561
0.654951
0.653653
0.65263
0.651822
0.651202
0.650664
0.650205
0.649767
0.649284
0.648795
0.648277
0.647744
0.647175
0.646526
0.645707
0.644577
0.642926
0.640677
0.637727
0.634704
0.63142
0.628887
0.626563
0.624214
0.575688
0.476049
0.764912
0.668718
0.700407
0.730452
0.718931
0.703506
0.688709
0.67587
0.670886
0.666548
0.663581
0.660835
0.658517
0.656554
0.654945
0.653647
0.652624
0.651817
0.651197
0.650659
0.650201
0.649763
0.649279
0.648791
0.648273
0.64774
0.64717
0.646521
0.6457
0.644567
0.642912
0.640657
0.637697
0.634657
0.631349
0.628774
0.626391
0.623988
0.575161
0.474403
0.741216
0.639216
0.689825
0.726833
0.716951
0.702752
0.688385
0.675794
0.670814
0.666508
0.663548
0.660814
0.6585
0.65654
0.654932
0.653635
0.652612
0.651805
0.651186
0.650648
0.65019
0.649752
0.649269
0.648781
0.648264
0.647731
0.647162
0.646513
0.645693
0.64456
0.642905
0.640652
0.637692
0.634647
0.631346
0.628744
0.62635
0.623919
0.574736
0.474406
0.593046
0.588421
0.673999
0.714196
0.710242
0.699469
0.686533
0.675216
0.67029
0.666211
0.663307
0.660632
0.658354
0.656417
0.654822
0.653534
0.652518
0.651717
0.651102
0.650567
0.650112
0.649676
0.649193
0.648705
0.648186
0.647651
0.647079
0.646425
0.645599
0.644462
0.642803
0.640551
0.637599
0.634532
0.631253
0.628575
0.626191
0.623714
0.574671
0.480912
0.487318
0.590694
0.672115
0.69506
0.696986
0.691034
0.682021
0.673645
0.669013
0.665544
0.662756
0.660222
0.658032
0.656148
0.654582
0.653312
0.652311
0.651522
0.650918
0.650392
0.649943
0.649512
0.649031
0.648543
0.648023
0.647485
0.646908
0.646246
0.645409
0.644261
0.642593
0.640337
0.637401
0.63428
0.630996
0.628179
0.62574
0.623242
0.574505
0.474563
0.467366
0.604434
0.666025
0.681538
0.684612
0.681754
0.676368
0.671077
0.667314
0.664462
0.661924
0.659605
0.65754
0.655729
0.654205
0.652964
0.651988
0.65122
0.650633
0.650119
0.64968
0.649255
0.648777
0.648289
0.647768
0.647225
0.646639
0.645964
0.645108
0.643943
0.64226
0.639997
0.637086
0.633886
0.630567
0.627585
0.625063
0.622572
0.575139
0.474869
0.473477
0.605869
0.657237
0.66881
0.673807
0.673341
0.670765
0.667885
0.665231
0.663046
0.660872
0.658809
0.656894
0.655171
0.653704
0.652504
0.651562
0.650823
0.65026
0.649763
0.649338
0.648922
0.648445
0.647958
0.647433
0.646884
0.646285
0.645593
0.64471
0.643527
0.641827
0.639546
0.636658
0.633359
0.629959
0.626801
0.624161
0.62171
0.575103
0.474434
0.470358
0.602906
0.649604
0.658686
0.664412
0.665948
0.665456
0.664423
0.662933
0.661354
0.659631
0.657838
0.656089
0.654471
0.653075
0.65193
0.651034
0.650333
0.649801
0.649326
0.648917
0.648511
0.648036
0.647548
0.647018
0.646458
0.645842
0.645126
0.644202
0.642991
0.64127
0.638965
0.636071
0.632638
0.629104
0.625755
0.623001
0.620668
0.575529
0.474799
0.469606
0.598372
0.642069
0.650208
0.656316
0.659515
0.660693
0.661015
0.660488
0.659542
0.65824
0.656717
0.655137
0.653638
0.652326
0.651249
0.650411
0.649759
0.649265
0.648815
0.648426
0.648031
0.647557
0.647066
0.646527
0.645954
0.645311
0.644565
0.643597
0.642354
0.640607
0.638249
0.635342
0.631752
0.628044
0.624499
0.621629
0.619449
0.575592
0.474115
0.471255
0.594922
0.635972
0.643338
0.64967
0.653891
0.656274
0.65767
0.657931
0.65757
0.656667
0.655417
0.654023
0.65266
0.651449
0.650457
0.649691
0.649099
0.648651
0.648231
0.647864
0.64748
0.647004
0.646508
0.645955
0.645359
0.64468
0.643889
0.642853
0.641567
0.639802
0.637363
0.634406
0.630633
0.626728
0.623004
0.620037
0.618151
0.577439
0.473498
0.466913
0.590634
0.630027
0.636806
0.643752
0.648808
0.652249
0.654545
0.655493
0.655608
0.655016
0.654008
0.652775
0.651535
0.650427
0.64953
0.648847
0.648324
0.64793
0.647543
0.647199
0.646826
0.646346
0.645841
0.645273
0.644651
0.643936
0.643106
0.642024
0.640679
0.638911
0.636369
0.633345
0.629325
0.62516
0.621138
0.618022
0.616257
0.576986
0.471955
0.465237
0.587708
0.625478
0.631627
0.638927
0.644439
0.648522
0.651443
0.652917
0.653418
0.653071
0.652277
0.651208
0.650122
0.649147
0.648367
0.647785
0.647345
0.647012
0.646661
0.646343
0.645979
0.645489
0.644969
0.644374
0.643716
0.642941
0.642057
0.640896
0.63954
0.637811
0.635188
0.632132
0.62799
0.623576
0.619367
0.616167
0.614607
0.577984
0.470116
0.462668
0.583972
0.620423
0.625985
0.633286
0.639367
0.644241
0.647864
0.649998
0.650932
0.650863
0.650292
0.649375
0.648415
0.647553
0.646876
0.646388
0.646027
0.645755
0.645441
0.645147
0.644792
0.644294
0.643767
0.643152
0.642468
0.641652
0.640719
0.639519
0.638009
0.636252
0.633374
0.630059
0.62555
0.620723
0.616104
0.612615
0.611161
0.576073
0.467642
0.460041
0.580165
0.615983
0.621472
0.628646
0.634868
0.640299
0.644419
0.64704
0.648246
0.648317
0.647866
0.647006
0.646151
0.645395
0.644821
0.644427
0.644143
0.643934
0.643658
0.643384
0.643038
0.642535
0.642007
0.641383
0.640694
0.639864
0.63893
0.637778
0.636237
0.634542
0.631487
0.62795
0.623113
0.617878
0.612817
0.608943
0.607598
0.573368
0.464715
0.457509
0.575787
0.610575
0.61605
0.622598
0.629079
0.635049
0.639598
0.642811
0.644235
0.644614
0.644381
0.643779
0.643163
0.642583
0.642153
0.641862
0.641654
0.641513
0.641274
0.641009
0.640671
0.640161
0.639619
0.638966
0.638212
0.637309
0.636256
0.634972
0.633165
0.63133
0.627969
0.624082
0.618818
0.613153
0.607613
0.603339
0.602029
0.568957
0.461604
0.454968
0.570693
0.604156
0.609411
0.615884
0.622708
0.628996
0.634113
0.638023
0.639701
0.640391
0.64042
0.640001
0.639578
0.639175
0.638873
0.638665
0.638502
0.638393
0.638167
0.637912
0.637608
0.637129
0.636619
0.635968
0.635188
0.634198
0.63304
0.631673
0.629578
0.627493
0.623728
0.619351
0.613645
0.607563
0.601613
0.59695
0.595634
0.564147
0.458636
0.452477
0.565497
0.597384
0.602158
0.608606
0.615745
0.622075
0.627612
0.631852
0.633889
0.63506
0.635317
0.635293
0.635264
0.635181
0.635157
0.635163
0.635149
0.635169
0.635013
0.634753
0.634422
0.633868
0.633256
0.632466
0.631514
0.630345
0.628951
0.62741
0.624923
0.622561
0.618427
0.613634
0.607566
0.601145
0.594918
0.589958
0.588705
0.559013
0.45575
0.450403
0.559658
0.590128
0.594735
0.601173
0.608488
0.614985
0.620865
0.62531
0.627799
0.629561
0.630169
0.630523
0.630907
0.631133
0.631373
0.631566
0.631663
0.631743
0.631609
0.631372
0.631069
0.6305
0.629837
0.628933
0.627828
0.626462
0.624807
0.623074
0.620279
0.617579
0.613051
0.607827
0.601404
0.594667
0.588125
0.582893
0.581643
0.553864
0.453668
0.448166
0.555076
0.583744
0.587776
0.594251
0.601712
0.608482
0.61484
0.619253
0.622183
0.624355
0.625366
0.626165
0.626893
0.627429
0.627933
0.62835
0.628636
0.628895
0.628867
0.628634
0.628257
0.627553
0.626751
0.625699
0.624448
0.622949
0.621128
0.619297
0.616155
0.613133
0.608184
0.602534
0.595808
0.588757
0.58204
0.576467
0.575513
0.549984
0.451966
0.449373
0.55142
0.578112
0.581594
0.588205
0.595743
0.602747
0.609476
0.61439
0.618094
0.620612
0.621797
0.622816
0.623754
0.624495
0.625178
0.625754
0.626159
0.626504
0.626494
0.626269
0.625913
0.625157
0.624268
0.623127
0.621788
0.620234
0.618315
0.616409
0.613096
0.609925
0.604739
0.598717
0.591683
0.584331
0.577274
0.571395
0.570772
0.547606
0.453945
0.45551
0.551965
0.578677
0.581437
0.587429
0.59464
0.601543
0.608116
0.612923
0.616441
0.618763
0.619844
0.620812
0.621533
0.622134
0.622721
0.623246
0.623651
0.624092
0.624249
0.624004
0.623479
0.622652
0.62179
0.620743
0.619532
0.618239
0.616471
0.614896
0.611699
0.608619
0.603518
0.597542
0.590604
0.583308
0.576507
0.570968
0.570441
0.548389
0.461356
0.432533
0.53147
0.560806
0.56171
0.564626
0.56907
0.573364
0.577637
0.580493
0.582498
0.582814
0.581284
0.580482
0.578102
0.577112
0.575928
0.575253
0.574789
0.574723
0.576271
0.575988
0.574031
0.5737
0.573693
0.574075
0.57404
0.5754
0.574921
0.576447
0.57516
0.573882
0.57022
0.565682
0.56046
0.555159
0.550718
0.547727
0.548385
0.523941
0.429952
0.375555
0.435046
0.470686
0.462968
0.460576
0.461137
0.462049
0.463928
0.465672
0.467689
0.469358
0.470867
0.472123
0.473014
0.47357
0.47394
0.473654
0.474288
0.474195
0.474975
0.474932
0.474001
0.474081
0.473158
0.473546
0.472685
0.472141
0.470663
0.469117
0.467056
0.464635
0.461887
0.459095
0.456222
0.454119
0.452079
0.453913
0.461292
0.430724
0.371723
0.375555
0.435046
0.470686
0.462968
0.460576
0.461137
0.462049
0.463928
0.465672
0.467689
0.469358
0.470867
0.472123
0.473014
0.47357
0.47394
0.473654
0.474288
0.474195
0.474975
0.474932
0.474001
0.474081
0.473158
0.473546
0.472685
0.472141
0.470663
0.469117
0.467056
0.464635
0.461887
0.459095
0.456222
0.454119
0.452079
0.453913
0.461292
0.430724
0.371723
0.432533
0.53147
0.560806
0.56171
0.564626
0.56907
0.573364
0.577637
0.580493
0.582498
0.582814
0.581284
0.580482
0.578102
0.577112
0.575928
0.575253
0.574789
0.574723
0.576271
0.575988
0.574031
0.5737
0.573693
0.574075
0.57404
0.5754
0.574921
0.576447
0.57516
0.573882
0.57022
0.565682
0.56046
0.555159
0.550718
0.547727
0.548385
0.523941
0.429952
0.45551
0.551965
0.578677
0.581437
0.587429
0.59464
0.601543
0.608116
0.612923
0.616441
0.618763
0.619844
0.620812
0.621533
0.622134
0.622721
0.623246
0.623651
0.624092
0.624249
0.624004
0.623479
0.622652
0.62179
0.620743
0.619532
0.618239
0.616471
0.614896
0.611699
0.608619
0.603518
0.597542
0.590604
0.583308
0.576507
0.570968
0.570441
0.548389
0.461356
0.449373
0.55142
0.578112
0.581594
0.588205
0.595743
0.602747
0.609476
0.61439
0.618094
0.620612
0.621797
0.622816
0.623754
0.624495
0.625178
0.625754
0.626159
0.626504
0.626494
0.626269
0.625913
0.625157
0.624268
0.623127
0.621788
0.620234
0.618315
0.616409
0.613096
0.609925
0.604739
0.598717
0.591683
0.584331
0.577274
0.571395
0.570772
0.547606
0.453945
0.448166
0.555076
0.583744
0.587776
0.594251
0.601712
0.608482
0.61484
0.619253
0.622183
0.624355
0.625366
0.626165
0.626893
0.627429
0.627933
0.62835
0.628636
0.628895
0.628867
0.628634
0.628257
0.627553
0.626751
0.625699
0.624448
0.622949
0.621128
0.619297
0.616155
0.613133
0.608184
0.602534
0.595808
0.588757
0.58204
0.576467
0.575513
0.549984
0.451966
0.450403
0.559658
0.590128
0.594735
0.601173
0.608488
0.614985
0.620865
0.62531
0.627799
0.629561
0.630169
0.630523
0.630907
0.631133
0.631373
0.631566
0.631663
0.631743
0.631609
0.631372
0.631069
0.6305
0.629837
0.628933
0.627828
0.626462
0.624807
0.623074
0.620279
0.617579
0.613051
0.607827
0.601404
0.594667
0.588125
0.582893
0.581643
0.553864
0.453668
0.452477
0.565497
0.597384
0.602158
0.608606
0.615745
0.622075
0.627612
0.631852
0.633889
0.63506
0.635317
0.635293
0.635264
0.635181
0.635157
0.635163
0.635149
0.635169
0.635013
0.634753
0.634422
0.633868
0.633256
0.632466
0.631514
0.630345
0.628951
0.62741
0.624923
0.622561
0.618427
0.613634
0.607566
0.601145
0.594918
0.589958
0.588705
0.559013
0.45575
0.454968
0.570693
0.604156
0.609411
0.615884
0.622708
0.628996
0.634113
0.638023
0.639701
0.640391
0.64042
0.640001
0.639578
0.639175
0.638873
0.638665
0.638502
0.638393
0.638167
0.637912
0.637608
0.637129
0.636619
0.635968
0.635188
0.634198
0.63304
0.631673
0.629578
0.627493
0.623728
0.619351
0.613645
0.607563
0.601613
0.59695
0.595634
0.564147
0.458636
0.457509
0.575787
0.610575
0.61605
0.622598
0.629079
0.635049
0.639598
0.642811
0.644235
0.644614
0.644381
0.643779
0.643163
0.642583
0.642153
0.641862
0.641654
0.641513
0.641274
0.641009
0.640671
0.640161
0.639619
0.638966
0.638212
0.637309
0.636256
0.634972
0.633165
0.63133
0.627969
0.624082
0.618818
0.613153
0.607613
0.603339
0.602029
0.568957
0.461604
0.460041
0.580165
0.615983
0.621472
0.628646
0.634868
0.640299
0.644419
0.64704
0.648246
0.648317
0.647866
0.647006
0.646151
0.645395
0.644821
0.644427
0.644143
0.643934
0.643658
0.643384
0.643038
0.642535
0.642007
0.641383
0.640694
0.639864
0.63893
0.637778
0.636237
0.634542
0.631487
0.62795
0.623113
0.617878
0.612817
0.608943
0.607598
0.573368
0.464715
0.462668
0.583972
0.620423
0.625985
0.633286
0.639367
0.644241
0.647864
0.649998
0.650932
0.650863
0.650292
0.649375
0.648415
0.647553
0.646876
0.646388
0.646027
0.645755
0.645441
0.645147
0.644792
0.644294
0.643767
0.643152
0.642468
0.641652
0.640719
0.639519
0.638009
0.636252
0.633374
0.630059
0.62555
0.620723
0.616104
0.612615
0.611161
0.576073
0.467642
0.465237
0.587708
0.625478
0.631627
0.638927
0.644439
0.648522
0.651443
0.652917
0.653418
0.653071
0.652277
0.651208
0.650122
0.649147
0.648367
0.647785
0.647345
0.647012
0.646661
0.646343
0.645979
0.645489
0.644969
0.644374
0.643716
0.642941
0.642057
0.640896
0.63954
0.637811
0.635188
0.632132
0.62799
0.623576
0.619367
0.616167
0.614607
0.577984
0.470116
0.466913
0.590634
0.630027
0.636806
0.643752
0.648808
0.652249
0.654545
0.655493
0.655608
0.655016
0.654008
0.652775
0.651535
0.650427
0.64953
0.648847
0.648324
0.64793
0.647543
0.647199
0.646826
0.646346
0.645841
0.645273
0.644651
0.643936
0.643106
0.642024
0.640679
0.638911
0.636369
0.633345
0.629325
0.62516
0.621138
0.618022
0.616257
0.576986
0.471955
0.471255
0.594922
0.635972
0.643338
0.64967
0.653891
0.656274
0.65767
0.657931
0.65757
0.656667
0.655417
0.654023
0.65266
0.651449
0.650457
0.649691
0.649099
0.648651
0.648231
0.647864
0.64748
0.647004
0.646508
0.645955
0.645359
0.64468
0.643889
0.642853
0.641567
0.639802
0.637363
0.634406
0.630633
0.626728
0.623004
0.620037
0.618151
0.577439
0.473498
0.469606
0.598372
0.642069
0.650208
0.656316
0.659515
0.660693
0.661015
0.660488
0.659542
0.65824
0.656717
0.655137
0.653638
0.652326
0.651249
0.650411
0.649759
0.649265
0.648815
0.648426
0.648031
0.647557
0.647066
0.646527
0.645954
0.645311
0.644565
0.643597
0.642354
0.640607
0.638249
0.635342
0.631752
0.628044
0.624499
0.621629
0.619449
0.575592
0.474115
0.470358
0.602906
0.649604
0.658686
0.664412
0.665948
0.665456
0.664423
0.662933
0.661354
0.659631
0.657838
0.656089
0.654471
0.653075
0.65193
0.651034
0.650333
0.649801
0.649326
0.648917
0.648511
0.648036
0.647548
0.647018
0.646458
0.645842
0.645126
0.644202
0.642991
0.64127
0.638965
0.636071
0.632638
0.629104
0.625755
0.623001
0.620668
0.575529
0.474799
0.473477
0.605869
0.657237
0.66881
0.673807
0.673341
0.670765
0.667885
0.665231
0.663046
0.660872
0.658809
0.656894
0.655171
0.653704
0.652504
0.651562
0.650823
0.65026
0.649763
0.649338
0.648922
0.648445
0.647958
0.647433
0.646884
0.646285
0.645593
0.64471
0.643527
0.641827
0.639546
0.636658
0.633359
0.629959
0.626801
0.624161
0.62171
0.575103
0.474434
0.467366
0.604434
0.666025
0.681538
0.684612
0.681754
0.676368
0.671077
0.667314
0.664462
0.661924
0.659605
0.65754
0.655729
0.654205
0.652964
0.651988
0.65122
0.650633
0.650119
0.64968
0.649255
0.648777
0.648289
0.647768
0.647225
0.646639
0.645964
0.645108
0.643943
0.64226
0.639997
0.637086
0.633886
0.630567
0.627585
0.625063
0.622572
0.575139
0.474869
0.487318
0.590694
0.672115
0.69506
0.696986
0.691034
0.682021
0.673645
0.669013
0.665544
0.662756
0.660222
0.658032
0.656148
0.654582
0.653312
0.652311
0.651522
0.650918
0.650392
0.649943
0.649512
0.649031
0.648543
0.648023
0.647485
0.646908
0.646246
0.645409
0.644261
0.642593
0.640337
0.637401
0.63428
0.630996
0.628179
0.62574
0.623242
0.574505
0.474563
0.593046
0.588421
0.673999
0.714196
0.710242
0.699469
0.686533
0.675216
0.67029
0.666211
0.663307
0.660632
0.658354
0.656417
0.654822
0.653534
0.652518
0.651717
0.651102
0.650567
0.650112
0.649676
0.649193
0.648705
0.648186
0.647651
0.647079
0.646425
0.645599
0.644462
0.642803
0.640551
0.637599
0.634532
0.631253
0.628575
0.626191
0.623714
0.574671
0.480912
)
;

boundaryField
{
    inlet
    {
        type            fixedValue;
        value           uniform 1;
    }
    outlet
    {
        type            zeroGradient;
    }
    obstacle
    {
        type            zeroGradient;
    }
    empty
    {
        type            empty;
    }
}


// ************************************************************************* //
