/*--------------------------------*- C++ -*----------------------------------*\
| =========                 |                                                 |
| \\      /  F ield         | OpenFOAM: The Open Source CFD Toolbox           |
|  \\    /   O peration     | Version:  v1912                                 |
|   \\  /    A nd           | Website:  www.openfoam.com                      |
|    \\/     M anipulation  |                                                 |
\*---------------------------------------------------------------------------*/
FoamFile
{
    version     2.0;
    format      ascii;
    class       surfaceScalarField;
    location    "1.3";
    object      phi;
}
// * * * * * * * * * * * * * * * * * * * * * * * * * * * * * * * * * * * * * //

dimensions      [0 3 -1 0 0 0 0];
oriented        oriented;


internalField   nonuniform List<scalar> 
19800
(
7.03741e-11
-7.34494e-11
2.4702e-10
-1.76645e-10
4.4149e-10
-1.94471e-10
5.94572e-10
-1.53082e-10
6.72235e-10
-7.7662e-11
6.55657e-10
1.65786e-11
5.3539e-10
1.20267e-10
3.07921e-10
2.2747e-10
-2.64875e-11
3.34408e-10
-4.65129e-10
4.38641e-10
-1.0037e-09
5.38573e-10
-1.63683e-09
6.33133e-10
-2.35845e-09
7.21612e-10
-3.16199e-09
8.03549e-10
-4.04064e-09
8.78652e-10
-4.9874e-09
9.46756e-10
-5.99519e-09
1.00779e-09
-7.05693e-09
1.06174e-09
-8.16558e-09
1.10866e-09
-9.3142e-09
1.14862e-09
-1.0496e-08
1.18175e-09
-1.17041e-08
1.20819e-09
-1.29322e-08
1.22809e-09
-1.41738e-08
1.24162e-09
-1.54228e-08
1.24897e-09
-1.66732e-08
1.25034e-09
-1.79191e-08
1.24591e-09
-1.9155e-08
1.23591e-09
-2.03755e-08
1.22053e-09
-2.15755e-08
1.19998e-09
-2.275e-08
1.17449e-09
-2.38942e-08
1.14427e-09
-2.50038e-08
1.10954e-09
-2.60743e-08
1.07052e-09
-2.71017e-08
1.02743e-09
-2.80822e-08
9.80479e-10
-2.90121e-08
9.29901e-10
-2.9888e-08
8.75915e-10
-3.07068e-08
8.18748e-10
-3.14654e-08
7.58624e-10
-3.21612e-08
6.9577e-10
-3.27916e-08
6.30412e-10
-3.33544e-08
5.62779e-10
-3.38475e-08
4.93104e-10
-3.42691e-08
4.21621e-10
-3.46177e-08
3.48571e-10
-3.48919e-08
2.74194e-10
-3.50906e-08
1.98734e-10
-3.5213e-08
1.22437e-10
-3.52586e-08
4.5553e-11
-3.52269e-08
-3.16656e-11
-3.51179e-08
-1.08959e-10
-3.49319e-08
-1.86065e-10
-3.46692e-08
-2.62716e-10
-3.43305e-08
-3.38642e-10
-3.3917e-08
-4.1357e-10
-3.34297e-08
-4.87227e-10
-3.28704e-08
-5.59332e-10
-3.22408e-08
-6.29606e-10
-3.1543e-08
-6.97763e-10
-3.07795e-08
-7.63515e-10
-2.99529e-08
-8.26575e-10
-2.90663e-08
-8.86656e-10
-2.81228e-08
-9.43472e-10
-2.71261e-08
-9.96739e-10
-2.60799e-08
-1.04617e-09
-2.49884e-08
-1.0915e-09
-2.3856e-08
-1.13243e-09
-2.26873e-08
-1.1687e-09
-2.14872e-08
-1.20004e-09
-2.0261e-08
-1.2262e-09
-1.90141e-08
-1.24693e-09
-1.77521e-08
-1.26199e-09
-1.6481e-08
-1.27115e-09
-1.52067e-08
-1.27421e-09
-1.39358e-08
-1.27096e-09
-1.26746e-08
-1.26123e-09
-1.14297e-08
-1.24484e-09
-1.02081e-08
-1.22165e-09
-9.01651e-09
-1.19156e-09
-7.86205e-09
-1.15446e-09
-6.75176e-09
-1.11029e-09
-5.69273e-09
-1.05903e-09
-4.69204e-09
-1.00069e-09
-3.75672e-09
-9.35324e-10
-2.89366e-09
-8.63063e-10
-2.10955e-09
-7.84104e-10
-1.41081e-09
-6.98742e-10
-8.03407e-10
-6.07402e-10
-2.92722e-10
-5.10683e-10
1.1671e-10
-4.09432e-10
4.21557e-10
-3.04849e-10
6.20221e-10
-1.98665e-10
7.1366e-10
-9.34401e-11
7.06706e-10
6.9531e-12
6.1018e-10
9.65279e-11
4.4419e-10
1.65991e-10
2.43751e-10
2.0044e-10
6.8213e-11
1.75539e-10
6.82128e-11
1.75079e-10
-2.48528e-10
4.83318e-10
-4.84884e-10
7.80162e-10
-4.91315e-10
9.60952e-10
-3.33873e-10
9.53035e-10
-6.97444e-11
7.09811e-10
2.59802e-10
2.04073e-10
6.26006e-10
-5.77478e-10
1.00902e-09
-1.63826e-09
1.39519e-09
-2.97469e-09
1.77507e-09
-4.57819e-09
2.14207e-09
-6.43666e-09
2.49161e-09
-8.53552e-09
2.82046e-09
-1.08584e-08
3.12642e-09
-1.33877e-08
3.40798e-09
-1.61052e-08
3.66419e-09
-1.89919e-08
3.89449e-09
-2.20287e-08
4.09861e-09
-2.51966e-08
4.27654e-09
-2.84764e-08
4.42843e-09
-3.18493e-08
4.5546e-09
-3.52965e-08
4.65546e-09
-3.87999e-08
4.7315e-09
-4.23417e-08
4.78333e-09
-4.59042e-08
4.81156e-09
-4.94708e-08
4.81689e-09
-5.30249e-08
4.80003e-09
-5.65507e-08
4.76172e-09
-6.00329e-08
4.70275e-09
-6.34569e-08
4.6239e-09
-6.68083e-08
4.52596e-09
-7.00738e-08
4.40978e-09
-7.32405e-08
4.27616e-09
-7.62959e-08
4.12595e-09
-7.92284e-08
3.95999e-09
-8.20271e-08
3.77911e-09
-8.46814e-08
3.58419e-09
-8.71815e-08
3.37608e-09
-8.95184e-08
3.15564e-09
-9.16835e-08
2.92374e-09
-9.3669e-08
2.68128e-09
-9.54678e-08
2.42913e-09
-9.70732e-08
2.1682e-09
-9.84794e-08
1.89937e-09
-9.96814e-08
1.62357e-09
-1.00675e-07
1.34172e-09
-1.01455e-07
1.05476e-09
-1.0202e-07
7.63641e-10
-1.02367e-07
4.69325e-10
-1.02494e-07
1.72784e-10
-1.02401e-07
-1.24995e-10
-1.02087e-07
-4.23008e-10
-1.01553e-07
-7.20239e-10
-1.008e-07
-1.01566e-09
-9.98301e-08
-1.30821e-09
-9.86468e-08
-1.59685e-09
-9.72535e-08
-1.88052e-09
-9.56547e-08
-2.15812e-09
-9.38557e-08
-2.42858e-09
-9.18627e-08
-2.6908e-09
-8.96825e-08
-2.94369e-09
-8.7323e-08
-3.18614e-09
-8.47926e-08
-3.41705e-09
-8.21007e-08
-3.63532e-09
-7.92576e-08
-3.83987e-09
-7.62741e-08
-4.02962e-09
-7.31621e-08
-4.2035e-09
-6.99341e-08
-4.36046e-09
-6.66033e-08
-4.49948e-09
-6.31838e-08
-4.61955e-09
-5.96903e-08
-4.71971e-09
-5.61382e-08
-4.79903e-09
-5.25436e-08
-4.85664e-09
-4.8923e-08
-4.89168e-09
-4.52939e-08
-4.90338e-09
-4.16738e-08
-4.89103e-09
-3.8081e-08
-4.85397e-09
-3.45342e-08
-4.79164e-09
-3.10524e-08
-4.70354e-09
-2.76546e-08
-4.58932e-09
-2.43604e-08
-4.44869e-09
-2.11891e-08
-4.28152e-09
-1.81603e-08
-4.08784e-09
-1.52932e-08
-3.86784e-09
-1.26066e-08
-3.62193e-09
-1.01188e-08
-3.35079e-09
-7.84752e-09
-3.05542e-09
-5.80902e-09
-2.73725e-09
-4.01818e-09
-2.39824e-09
-2.48777e-09
-2.04108e-09
-1.22775e-09
-1.66945e-09
-2.44205e-10
-1.28839e-09
4.61998e-10
-9.04869e-10
8.9721e-10
-5.28653e-10
1.07775e-09
-1.73589e-10
1.03375e-09
1.4053e-10
8.14283e-10
3.85456e-10
4.93486e-10
5.21238e-10
1.7544e-10
4.93585e-10
2.43653e-10
1.9451e-10
-4.43039e-10
4.92488e-10
-7.82861e-10
7.16746e-10
-7.15572e-10
7.41351e-10
-3.58478e-10
4.75013e-10
1.96594e-10
-1.44599e-10
8.79413e-10
-1.15654e-09
1.63795e-09
-2.58188e-09
2.43437e-09
-4.428e-09
3.24131e-09
-6.69196e-09
4.03902e-09
-9.36307e-09
4.81319e-09
-1.24249e-08
5.55348e-09
-1.58569e-08
6.25243e-09
-1.96352e-08
6.90473e-09
-2.37339e-08
7.50663e-09
-2.81253e-08
8.05563e-09
-3.27809e-08
8.5501e-09
-3.76715e-08
8.98915e-09
-4.27674e-08
9.37245e-09
-4.8039e-08
9.70008e-09
-5.34569e-08
9.9725e-09
-5.89919e-08
1.01904e-08
-6.46152e-08
1.03548e-08
-7.02986e-08
1.04668e-08
-7.60146e-08
1.05276e-08
-8.17364e-08
1.05386e-08
-8.74377e-08
1.05014e-08
-9.30934e-08
1.04174e-08
-9.86791e-08
1.02884e-08
-1.04171e-07
1.0116e-08
-1.09547e-07
9.90182e-09
-1.14785e-07
9.64775e-09
-1.19864e-07
9.35552e-09
-1.24765e-07
9.02695e-09
-1.29469e-07
8.66387e-09
-1.33958e-07
8.26812e-09
-1.38216e-07
7.84156e-09
-1.42226e-07
7.38607e-09
-1.45974e-07
6.90356e-09
-1.49446e-07
6.39594e-09
-1.5263e-07
5.86514e-09
-1.55514e-07
5.3131e-09
-1.58087e-07
4.74181e-09
-1.60341e-07
4.15325e-09
-1.62267e-07
3.54942e-09
-1.63858e-07
2.93238e-09
-1.65107e-07
2.30417e-09
-1.6601e-07
1.6669e-09
-1.66564e-07
1.02267e-09
-1.66764e-07
3.73644e-10
-1.66611e-07
-2.78019e-10
-1.66104e-07
-9.30111e-10
-1.65244e-07
-1.5804e-09
-1.64033e-07
-2.22663e-09
-1.62475e-07
-2.8665e-09
-1.60574e-07
-3.4977e-09
-1.58337e-07
-4.1179e-09
-1.5577e-07
-4.72473e-09
-1.52883e-07
-5.31583e-09
-1.49685e-07
-5.8888e-09
-1.46187e-07
-6.44126e-09
-1.42403e-07
-6.97081e-09
-1.38345e-07
-7.47504e-09
-1.34028e-07
-7.95158e-09
-1.2947e-07
-8.39806e-09
-1.24688e-07
-8.81214e-09
-1.197e-07
-9.19151e-09
-1.14526e-07
-9.53391e-09
-1.09188e-07
-9.83714e-09
-1.03709e-07
-1.0099e-08
-9.81111e-08
-1.03175e-08
-9.24195e-08
-1.04906e-08
-8.66597e-08
-1.06165e-08
-8.08581e-08
-1.06933e-08
-7.5042e-08
-1.07194e-08
-6.92396e-08
-1.06934e-08
-6.34797e-08
-1.06139e-08
-5.77916e-08
-1.04797e-08
-5.22052e-08
-1.02899e-08
-4.67506e-08
-1.00439e-08
-4.14582e-08
-9.74111e-09
-3.63583e-08
-9.38148e-09
-3.14809e-08
-8.96522e-09
-2.68557e-08
-8.493e-09
-2.25117e-08
-7.96596e-09
-1.84766e-08
-7.38588e-09
-1.47768e-08
-6.75528e-09
-1.14364e-08
-6.07762e-09
-8.47701e-09
-5.35761e-09
-5.91658e-09
-4.60152e-09
-3.76832e-09
-3.81771e-09
-2.03933e-09
-3.01738e-09
-7.28641e-10
-2.21555e-09
1.75239e-10
-1.43253e-09
6.9754e-10
-6.95891e-10
8.81249e-10
-4.31803e-11
7.91986e-10
4.74718e-10
5.23158e-10
7.90067e-10
2.00901e-10
8.15842e-10
4.44555e-10
1.55125e-10
-5.98163e-10
3.40392e-10
-9.68128e-10
3.6869e-10
-7.43869e-10
1.05801e-10
-9.5589e-11
-5.46921e-10
8.49316e-10
-1.65886e-09
1.99135e-09
-3.27517e-09
3.25426e-09
-5.42142e-09
4.58062e-09
-8.10753e-09
5.92743e-09
-1.13311e-08
7.26258e-09
-1.50801e-08
8.56215e-09
-1.93349e-08
9.80835e-09
-2.40705e-08
1.0988e-08
-2.92573e-08
1.20915e-08
-3.48625e-08
1.31119e-08
-4.08512e-08
1.40442e-08
-4.71864e-08
1.48853e-08
-5.38304e-08
1.56332e-08
-6.07448e-08
1.62868e-08
-6.78906e-08
1.68459e-08
-7.52292e-08
1.73111e-08
-8.2722e-08
1.76832e-08
-9.03309e-08
1.79638e-08
-9.80185e-08
1.81544e-08
-1.05748e-07
1.82572e-08
-1.13484e-07
1.82744e-08
-1.21191e-07
1.82084e-08
-1.28835e-07
1.80618e-08
-1.36384e-07
1.78373e-08
-1.43806e-07
1.75378e-08
-1.5107e-07
1.71662e-08
-1.58148e-07
1.67255e-08
-1.65011e-07
1.62186e-08
-1.71633e-07
1.56488e-08
-1.77988e-07
1.50191e-08
-1.84053e-07
1.43328e-08
-1.89804e-07
1.3593e-08
-1.95221e-07
1.2803e-08
-2.00284e-07
1.19662e-08
-2.04974e-07
1.10857e-08
-2.09274e-07
1.0165e-08
-2.13168e-07
9.20753e-09
-2.16643e-07
8.21662e-09
-2.19685e-07
7.19577e-09
-2.22284e-07
6.14849e-09
-2.2443e-07
5.07832e-09
-2.26115e-07
3.98885e-09
-2.27332e-07
2.88372e-09
-2.28076e-07
1.76662e-09
-2.28344e-07
6.41282e-10
-2.28133e-07
-4.88513e-10
-2.27444e-07
-1.61893e-09
-2.26279e-07
-2.7461e-09
-2.24639e-07
-3.86608e-09
-2.22531e-07
-4.97492e-09
-2.1996e-07
-6.06858e-09
-2.16935e-07
-7.14303e-09
-2.13465e-07
-8.19418e-09
-2.09563e-07
-9.21791e-09
-2.05242e-07
-1.02101e-08
-2.00516e-07
-1.11667e-08
-1.95404e-07
-1.20834e-08
-1.89923e-07
-1.29562e-08
-1.84093e-07
-1.37809e-08
-1.77938e-07
-1.45536e-08
-1.7148e-07
-1.52701e-08
-1.64745e-07
-1.59266e-08
-1.5776e-07
-1.6519e-08
-1.50553e-07
-1.70438e-08
-1.43155e-07
-1.74971e-08
-1.35597e-07
-1.78756e-08
-1.27912e-07
-1.81757e-08
-1.20134e-07
-1.83944e-08
-1.12299e-07
-1.85287e-08
-1.04442e-07
-1.85758e-08
-9.66024e-08
-1.85332e-08
-8.88174e-08
-1.83989e-08
-8.11262e-08
-1.81709e-08
-7.35684e-08
-1.78478e-08
-6.61838e-08
-1.74285e-08
-5.90123e-08
-1.69126e-08
-5.20938e-08
-1.63e-08
-4.54676e-08
-1.55914e-08
-3.91723e-08
-1.47883e-08
-3.32453e-08
-1.3893e-08
-2.77223e-08
-1.29089e-08
-2.26368e-08
-1.18408e-08
-1.80193e-08
-1.06951e-08
-1.38965e-08
-9.48041e-09
-1.02902e-08
-8.20781e-09
-7.21601e-09
-6.89194e-09
-4.68148e-09
-5.55191e-09
-2.68429e-09
-4.21274e-09
-1.20952e-09
-2.9073e-09
-2.26589e-10
-1.67882e-09
3.1441e-10
-5.8418e-10
4.87e-10
3.02126e-10
3.92932e-10
8.84134e-10
1.68145e-10
1.04063e-09
6.12701e-10
8.23203e-11
-6.80484e-10
8.35881e-11
-9.69396e-10
-1.73874e-10
-4.86407e-10
-8.21542e-10
5.5208e-10
-1.95746e-09
1.98524e-09
-3.65182e-09
3.68571e-09
-5.95121e-09
5.55365e-09
-8.88254e-09
7.51194e-09
-1.24564e-08
9.50127e-09
-1.667e-08
1.14762e-08
-2.15099e-08
1.3402e-08
-2.69539e-08
1.52523e-08
-3.2973e-08
1.70072e-08
-3.95332e-08
1.86517e-08
-4.65961e-08
2.01747e-08
-5.41202e-08
2.15684e-08
-6.20621e-08
2.28272e-08
-7.03764e-08
2.39476e-08
-7.90171e-08
2.49275e-08
-8.79374e-08
2.57662e-08
-9.70903e-08
2.6464e-08
-1.06429e-07
2.70221e-08
-1.15908e-07
2.74421e-08
-1.2548e-07
2.77265e-08
-1.35101e-07
2.78782e-08
-1.44726e-07
2.79002e-08
-1.54314e-07
2.77961e-08
-1.63822e-07
2.75698e-08
-1.7321e-07
2.72252e-08
-1.82439e-07
2.67666e-08
-1.91471e-07
2.61982e-08
-2.0027e-07
2.55245e-08
-2.08801e-07
2.47501e-08
-2.17032e-07
2.38798e-08
-2.24931e-07
2.29181e-08
-2.32469e-07
2.18701e-08
-2.39616e-07
2.07405e-08
-2.46348e-07
1.95344e-08
-2.52638e-07
1.82567e-08
-2.58465e-07
1.69124e-08
-2.63807e-07
1.55068e-08
-2.68644e-07
1.4045e-08
-2.7296e-07
1.25323e-08
-2.76738e-07
1.09739e-08
-2.79965e-07
9.37521e-09
-2.82628e-07
7.74167e-09
-2.84718e-07
6.07876e-09
-2.86226e-07
4.39207e-09
-2.87147e-07
2.68721e-09
-2.87475e-07
9.69921e-10
-2.8721e-07
-7.54023e-10
-2.8635e-07
-2.47876e-09
-2.84898e-07
-4.19837e-09
-2.82857e-07
-5.90684e-09
-2.80234e-07
-7.59813e-09
-2.77036e-07
-9.26611e-09
-2.73275e-07
-1.09046e-08
-2.68962e-07
-1.25074e-08
-2.64111e-07
-1.40682e-08
-2.58741e-07
-1.55808e-08
-2.52868e-07
-1.70389e-08
-2.46516e-07
-1.84362e-08
-2.39705e-07
-1.97664e-08
-2.32463e-07
-2.10233e-08
-2.24816e-07
-2.22008e-08
-2.16793e-07
-2.32928e-08
-2.08426e-07
-2.42933e-08
-1.99749e-07
-2.51965e-08
-1.90796e-07
-2.59967e-08
-1.81605e-07
-2.66884e-08
-1.72214e-07
-2.72663e-08
-1.62664e-07
-2.77254e-08
-1.52998e-07
-2.80609e-08
-1.43258e-07
-2.82686e-08
-1.33489e-07
-2.83443e-08
-1.23738e-07
-2.82844e-08
-1.14051e-07
-2.80859e-08
-1.04476e-07
-2.77461e-08
-9.50608e-08
-2.7263e-08
-8.5854e-08
-2.66353e-08
-7.69041e-08
-2.58625e-08
-6.82592e-08
-2.49449e-08
-5.99667e-08
-2.38839e-08
-5.2073e-08
-2.26821e-08
-4.46225e-08
-2.13434e-08
-3.76579e-08
-1.98735e-08
-3.12185e-08
-1.82802e-08
-2.53401e-08
-1.65735e-08
-2.00537e-08
-1.47668e-08
-1.53843e-08
-1.28772e-08
-1.13494e-08
-1.09268e-08
-7.95765e-09
-8.94369e-09
-5.20624e-09
-6.96415e-09
-3.0789e-09
-5.03464e-09
-1.543e-09
-3.21472e-09
-5.46387e-10
-1.58079e-09
-1.37969e-11
-2.30464e-10
1.57202e-10
7.13134e-10
1.01587e-10
1.09624e-09
7.14288e-10
-8.9647e-12
-6.71519e-10
-2.37929e-10
-7.40431e-10
-8.43567e-10
1.19231e-10
-1.94621e-09
1.65472e-09
-3.63714e-09
3.67617e-09
-5.98251e-09
6.03108e-09
-9.02658e-09
8.59772e-09
-1.27947e-08
1.12801e-08
-1.72962e-08
1.40028e-08
-2.25269e-08
1.67068e-08
-2.8471e-08
1.93462e-08
-3.51039e-08
2.18852e-08
-4.23931e-08
2.42964e-08
-5.03003e-08
2.65589e-08
-5.87824e-08
2.86568e-08
-6.77926e-08
3.05786e-08
-7.72814e-08
3.2316e-08
-8.71972e-08
3.38634e-08
-9.74873e-08
3.52175e-08
-1.08098e-07
3.63767e-08
-1.18975e-07
3.73408e-08
-1.30064e-07
3.81111e-08
-1.41311e-07
3.86897e-08
-1.52664e-07
3.90794e-08
-1.6407e-07
3.9284e-08
-1.75477e-07
3.93077e-08
-1.86837e-07
3.91552e-08
-1.98098e-07
3.88316e-08
-2.09216e-07
3.83424e-08
-2.20142e-07
3.76933e-08
-2.30834e-07
3.68902e-08
-2.41249e-07
3.59394e-08
-2.51346e-07
3.48472e-08
-2.61087e-07
3.36202e-08
-2.70433e-07
3.22648e-08
-2.79351e-07
3.0788e-08
-2.87807e-07
2.91964e-08
-2.9577e-07
2.74972e-08
-3.03211e-07
2.56973e-08
-3.10102e-07
2.38039e-08
-3.16419e-07
2.18241e-08
-3.2214e-07
1.97652e-08
-3.27242e-07
1.76348e-08
-3.31708e-07
1.54401e-08
-3.35522e-07
1.31888e-08
-3.38669e-07
1.08886e-08
-3.41137e-07
8.5472e-09
-3.42918e-07
6.17244e-09
-3.44003e-07
3.77229e-09
-3.44388e-07
1.3548e-09
-3.4407e-07
-1.07187e-09
-3.43049e-07
-3.49946e-09
-3.41328e-07
-5.91963e-09
-3.38911e-07
-8.32393e-09
-3.35805e-07
-1.07038e-08
-3.3202e-07
-1.30508e-08
-3.27569e-07
-1.5356e-08
-3.22465e-07
-1.76108e-08
-3.16727e-07
-1.98065e-08
-3.10374e-07
-2.19341e-08
-3.03428e-07
-2.3985e-08
-2.95914e-07
-2.59502e-08
-2.87859e-07
-2.78212e-08
-2.79293e-07
-2.95891e-08
-2.70249e-07
-3.12454e-08
-2.6076e-07
-3.27815e-08
-2.50864e-07
-3.41892e-08
-2.406e-07
-3.54604e-08
-2.3001e-07
-3.65872e-08
-2.19136e-07
-3.75618e-08
-2.08025e-07
-3.83772e-08
-1.96724e-07
-3.90263e-08
-1.85283e-07
-3.95026e-08
-1.73751e-07
-3.98002e-08
-1.62182e-07
-3.99135e-08
-1.50628e-07
-3.98378e-08
-1.39146e-07
-3.95688e-08
-1.27788e-07
-3.91031e-08
-1.16613e-07
-3.84383e-08
-1.05676e-07
-3.75728e-08
-9.50318e-08
-3.65062e-08
-8.47372e-08
-3.52394e-08
-7.48465e-08
-3.37747e-08
-6.54124e-08
-3.21161e-08
-5.64861e-08
-3.02697e-08
-4.81158e-08
-2.82439e-08
-4.03461e-08
-2.60499e-08
-3.32173e-08
-2.37023e-08
-2.67643e-08
-2.12199e-08
-2.1015e-08
-1.86265e-08
-1.59893e-08
-1.59525e-08
-1.16973e-08
-1.32357e-08
-8.13713e-09
-1.05243e-08
-5.29329e-09
-7.87847e-09
-3.13391e-09
-5.3741e-09
-1.60835e-09
-3.10636e-09
-6.44317e-10
-1.19449e-09
-1.44798e-10
2.13614e-10
1.59392e-11
9.35507e-10
7.30227e-10
-1.09809e-10
-5.6171e-10
-5.97085e-10
-2.53156e-10
-1.59196e-09
1.1141e-09
-3.19809e-09
3.26085e-09
-5.49547e-09
5.97356e-09
-8.54247e-09
9.07808e-09
-1.23779e-08
1.24331e-08
-1.70232e-08
1.59254e-08
-2.24844e-08
1.9464e-08
-2.87545e-08
2.29769e-08
-3.5815e-08
2.64067e-08
-4.36381e-08
2.97083e-08
-5.21879e-08
3.28462e-08
-6.14221e-08
3.57931e-08
-7.12932e-08
3.8528e-08
-8.17497e-08
4.10351e-08
-9.27367e-08
4.3303e-08
-1.04197e-07
4.53238e-08
-1.16072e-07
4.70924e-08
-1.28302e-07
4.86063e-08
-1.40826e-07
4.98647e-08
-1.53583e-07
5.08686e-08
-1.66514e-07
5.16203e-08
-1.79558e-07
5.21235e-08
-1.92656e-07
5.23825e-08
-2.05751e-07
5.24027e-08
-2.18786e-07
5.21899e-08
-2.31705e-07
5.17508e-08
-2.44455e-07
5.10924e-08
-2.56984e-07
5.0222e-08
-2.69241e-07
4.91476e-08
-2.81179e-07
4.78771e-08
-2.9275e-07
4.64188e-08
-3.03912e-07
4.47814e-08
-3.1462e-07
4.29736e-08
-3.24837e-07
4.10043e-08
-3.34523e-07
3.88825e-08
-3.43643e-07
3.66175e-08
-3.52164e-07
3.42187e-08
-3.60056e-07
3.16954e-08
-3.67289e-07
2.90574e-08
-3.73838e-07
2.63142e-08
-3.79679e-07
2.34758e-08
-3.84791e-07
2.0552e-08
-3.89155e-07
1.75531e-08
-3.92756e-07
1.44892e-08
-3.95579e-07
1.13706e-08
-3.97615e-07
8.20777e-09
-3.98854e-07
5.01138e-09
-3.99291e-07
1.79211e-09
-3.98924e-07
-1.43916e-09
-3.97752e-07
-4.67143e-09
-3.95778e-07
-7.8936e-09
-3.93007e-07
-1.10944e-08
-3.89449e-07
-1.42626e-08
-3.85113e-07
-1.73866e-08
-3.80014e-07
-2.04549e-08
-3.74169e-07
-2.3456e-08
-3.67597e-07
-2.63783e-08
-3.60321e-07
-2.92099e-08
-3.52367e-07
-3.19394e-08
-3.43762e-07
-3.45549e-08
-3.34538e-07
-3.7045e-08
-3.24729e-07
-3.93981e-08
-3.14372e-07
-4.16029e-08
-3.03505e-07
-4.36483e-08
-2.92171e-07
-4.55232e-08
-2.80414e-07
-4.72169e-08
-2.68282e-07
-4.87192e-08
-2.55824e-07
-5.00199e-08
-2.43092e-07
-5.11097e-08
-2.30139e-07
-5.19794e-08
-2.17021e-07
-5.26206e-08
-2.03796e-07
-5.30255e-08
-1.90522e-07
-5.31871e-08
-1.7726e-07
-5.30993e-08
-1.64073e-07
-5.27566e-08
-1.51021e-07
-5.2155e-08
-1.38168e-07
-5.12914e-08
-1.25576e-07
-5.01642e-08
-1.13309e-07
-4.87731e-08
-1.01429e-07
-4.71199e-08
-8.99957e-08
-4.5208e-08
-7.90687e-08
-4.30432e-08
-6.87044e-08
-4.0634e-08
-5.89563e-08
-3.7992e-08
-4.98738e-08
-3.51323e-08
-4.15014e-08
-3.20746e-08
-3.38776e-08
-2.88437e-08
-2.70336e-08
-2.54706e-08
-2.09919e-08
-2.19941e-08
-1.57651e-08
-1.84626e-08
-1.13537e-08
-1.49357e-08
-7.74463e-09
-1.14875e-08
-4.90939e-09
-8.20933e-09
-2.80189e-09
-5.21385e-09
-1.35652e-09
-2.63986e-09
-4.86132e-10
-6.56776e-10
-7.98682e-11
5.29242e-10
6.50358e-10
-2.14807e-10
-3.46902e-10
-9.75941e-10
5.07978e-10
-2.38522e-09
2.52338e-09
-4.52654e-09
5.40217e-09
-7.46552e-09
8.91253e-09
-1.12499e-08
1.28625e-08
-1.59107e-08
1.70939e-08
-2.14631e-08
2.14778e-08
-2.79086e-08
2.59095e-08
-3.52358e-08
3.03041e-08
-4.34227e-08
3.45935e-08
-5.24375e-08
3.87231e-08
-6.22409e-08
4.26495e-08
-7.27864e-08
4.63386e-08
-8.40224e-08
4.9764e-08
-9.58929e-08
5.29055e-08
-1.08338e-07
5.57482e-08
-1.21296e-07
5.82816e-08
-1.34702e-07
6.04986e-08
-1.48491e-07
6.23954e-08
-1.62597e-07
6.39705e-08
-1.76953e-07
6.52246e-08
-1.91493e-07
6.61604e-08
-2.06151e-07
6.67816e-08
-2.20862e-07
6.70938e-08
-2.35563e-07
6.71031e-08
-2.5019e-07
6.68169e-08
-2.64682e-07
6.62432e-08
-2.7898e-07
6.53906e-08
-2.93027e-07
6.42686e-08
-3.06766e-07
6.28866e-08
-3.20144e-07
6.12551e-08
-3.33109e-07
5.93843e-08
-3.45613e-07
5.72851e-08
-3.57608e-07
5.49687e-08
-3.6905e-07
5.24462e-08
-3.79897e-07
4.97293e-08
-3.90109e-07
4.68296e-08
-3.99649e-07
4.3759e-08
-4.08484e-07
4.05297e-08
-4.1658e-07
3.71539e-08
-4.2391e-07
3.3644e-08
-4.30447e-07
3.00125e-08
-4.36167e-07
2.62722e-08
-4.4105e-07
2.2436e-08
-4.45077e-07
1.85169e-08
-4.48235e-07
1.45282e-08
-4.5051e-07
1.04832e-08
-4.51895e-07
6.39556e-09
-4.52381e-07
2.27893e-09
-4.51968e-07
-1.85278e-09
-4.50654e-07
-5.98554e-09
-4.48442e-07
-1.01051e-08
-4.45339e-07
-1.41972e-08
-4.41355e-07
-1.82473e-08
-4.365e-07
-2.22408e-08
-4.30792e-07
-2.61631e-08
-4.24249e-07
-2.99993e-08
-4.16893e-07
-3.37346e-08
-4.08748e-07
-3.73542e-08
-3.99844e-07
-4.08432e-08
-3.90213e-07
-4.41868e-08
-3.79887e-07
-4.73703e-08
-3.68906e-07
-5.03791e-08
-3.5731e-07
-5.31988e-08
-3.45144e-07
-5.58152e-08
-3.32452e-07
-5.82146e-08
-3.19286e-07
-6.03833e-08
-3.05697e-07
-6.23082e-08
-2.9174e-07
-6.39769e-08
-2.77472e-07
-6.53774e-08
-2.62953e-07
-6.64982e-08
-2.48245e-07
-6.73288e-08
-2.33411e-07
-6.78597e-08
-2.18516e-07
-6.8082e-08
-2.03627e-07
-6.79881e-08
-1.88812e-07
-6.75716e-08
-1.74139e-07
-6.68276e-08
-1.59678e-07
-6.57525e-08
-1.45498e-07
-6.43446e-08
-1.31667e-07
-6.26042e-08
-1.18253e-07
-6.05337e-08
-1.05323e-07
-5.8138e-08
-9.2941e-08
-5.54251e-08
-8.11689e-08
-5.24061e-08
-7.0065e-08
-4.9096e-08
-5.96829e-08
-4.55143e-08
-5.00715e-08
-4.16861e-08
-4.12729e-08
-3.76423e-08
-3.33218e-08
-3.34217e-08
-2.62441e-08
-2.90717e-08
-2.00558e-08
-2.46509e-08
-1.4761e-08
-2.02305e-08
-1.03509e-08
-1.58976e-08
-6.80239e-09
-1.17579e-08
-4.07628e-09
-7.93997e-09
-2.11645e-09
-4.59969e-09
-8.48715e-10
-1.92451e-09
-1.80333e-10
-1.39139e-10
4.70024e-10
-3.20733e-10
-2.61688e-11
-1.36284e-09
1.55008e-09
-3.2002e-09
4.36075e-09
-5.89561e-09
8.09758e-09
-9.49846e-09
1.25154e-08
-1.4044e-08
1.7408e-08
-1.95534e-08
2.26033e-08
-2.60342e-08
2.79587e-08
-3.34815e-08
3.33568e-08
-4.18788e-08
3.87014e-08
-5.11991e-08
4.39139e-08
-6.14067e-08
4.89307e-08
-7.24578e-08
5.37006e-08
-8.43019e-08
5.81828e-08
-9.68833e-08
6.23453e-08
-1.10141e-07
6.61635e-08
-1.24012e-07
6.96186e-08
-1.38428e-07
7.26975e-08
-1.5332e-07
7.53909e-08
-1.68618e-07
7.76936e-08
-1.84251e-07
7.96032e-08
-2.00146e-07
8.112e-08
-2.16233e-07
8.22467e-08
-2.32439e-07
8.29877e-08
-2.48694e-07
8.33491e-08
-2.64929e-07
8.33382e-08
-2.81076e-07
8.29638e-08
-2.97068e-07
8.22353e-08
-3.12841e-07
8.11634e-08
-3.28331e-07
7.9759e-08
-3.43479e-07
7.80342e-08
-3.58225e-07
7.60011e-08
-3.72513e-07
7.36727e-08
-3.8629e-07
7.10622e-08
-3.99505e-07
6.81831e-08
-4.12108e-07
6.50494e-08
-4.24054e-07
6.16753e-08
-4.353e-07
5.80751e-08
-4.45804e-07
5.42637e-08
-4.55531e-07
5.0256e-08
-4.64444e-07
4.6067e-08
-4.72512e-07
4.17122e-08
-4.79706e-07
3.7207e-08
-4.86002e-07
3.25674e-08
-4.91375e-07
2.78092e-08
-4.95807e-07
2.29486e-08
-4.9928e-07
1.8002e-08
-5.01783e-07
1.2986e-08
-5.03305e-07
7.91742e-09
-5.03839e-07
2.81321e-09
-5.03383e-07
-2.30942e-09
-5.01935e-07
-7.43307e-09
-4.995e-07
-1.25402e-08
-4.96084e-07
-1.7613e-08
-4.91698e-07
-2.26336e-08
-4.86355e-07
-2.75839e-08
-4.80072e-07
-3.24459e-08
-4.7287e-07
-3.72011e-08
-4.64774e-07
-4.18314e-08
-4.55809e-07
-4.63184e-08
-4.46009e-07
-5.06438e-08
-4.35406e-07
-5.47893e-08
-4.2404e-07
-5.87369e-08
-4.1195e-07
-6.24685e-08
-3.99182e-07
-6.59665e-08
-3.85784e-07
-6.92135e-08
-3.71806e-07
-7.21924e-08
-3.57303e-07
-7.48867e-08
-3.42331e-07
-7.72803e-08
-3.2695e-07
-7.9358e-08
-3.11222e-07
-8.1105e-08
-2.95212e-07
-8.25077e-08
-2.78988e-07
-8.35531e-08
-2.62618e-07
-8.42296e-08
-2.46174e-07
-8.45267e-08
-2.29726e-07
-8.44352e-08
-2.1335e-07
-8.39477e-08
-1.9712e-07
-8.30583e-08
-1.81109e-07
-8.1763e-08
-1.65394e-07
-8.00602e-08
-1.50047e-07
-7.79505e-08
-1.35143e-07
-7.54375e-08
-1.20754e-07
-7.25276e-08
-1.06948e-07
-6.9231e-08
-9.37924e-08
-6.55617e-08
-8.13498e-08
-6.15385e-08
-6.96785e-08
-5.71856e-08
-5.88314e-08
-5.25333e-08
-4.88545e-08
-4.76191e-08
-3.97868e-08
-4.24894e-08
-3.1658e-08
-3.72005e-08
-2.44885e-08
-3.18205e-08
-1.82871e-08
-2.64318e-08
-1.3051e-08
-2.11337e-08
-8.76374e-09
-1.60451e-08
-5.39521e-09
-1.13085e-08
-2.90062e-09
-7.09428e-09
-1.22065e-09
-3.60447e-09
-2.82127e-10
-1.07767e-09
1.87897e-10
-4.25692e-10
3.99524e-10
-1.7503e-09
2.87469e-09
-4.02129e-09
6.63174e-09
-7.28018e-09
1.13565e-08
-1.15593e-08
1.67945e-08
-1.68801e-08
2.27288e-08
-2.32526e-08
2.89758e-08
-3.06755e-08
3.53815e-08
-3.91362e-08
4.18175e-08
-4.86118e-08
4.81771e-08
-5.90701e-08
5.43722e-08
-7.04702e-08
6.03308e-08
-8.27637e-08
6.59941e-08
-9.58957e-08
7.13148e-08
-1.09806e-07
7.62556e-08
-1.2443e-07
8.07871e-08
-1.39698e-07
8.4887e-08
-1.55539e-07
8.8539e-08
-1.7188e-07
9.17319e-08
-1.88645e-07
9.44587e-08
-2.05759e-07
9.67163e-08
-2.23143e-07
9.85044e-08
-2.40722e-07
9.98257e-08
-2.58419e-07
1.00685e-07
-2.76159e-07
1.01089e-07
-2.93868e-07
1.01047e-07
-3.11472e-07
1.00568e-07
-3.28901e-07
9.96637e-08
-3.46084e-07
9.83464e-08
-3.62954e-07
9.66291e-08
-3.79446e-07
9.45261e-08
-3.95497e-07
9.20519e-08
-4.11046e-07
8.92219e-08
-4.26035e-07
8.60518e-08
-4.4041e-07
8.25581e-08
-4.54118e-07
7.87572e-08
-4.67109e-07
7.46664e-08
-4.79337e-07
7.03029e-08
-4.90758e-07
6.56846e-08
-5.01331e-07
6.08293e-08
-5.1102e-07
5.57555e-08
-5.19789e-07
5.04815e-08
-5.27608e-07
4.50262e-08
-5.34449e-07
3.94086e-08
-5.40288e-07
3.3648e-08
-5.45104e-07
2.77641e-08
-5.48878e-07
2.17765e-08
-5.51597e-07
1.57053e-08
-5.53251e-07
9.57086e-09
-5.53831e-07
3.39366e-09
-5.53335e-07
-2.80552e-09
-5.51763e-07
-9.00567e-09
-5.49117e-07
-1.51856e-08
-5.45406e-07
-2.13238e-08
-5.40641e-07
-2.73988e-08
-5.34836e-07
-3.33888e-08
-5.2801e-07
-3.92718e-08
-5.20185e-07
-4.50259e-08
-5.11388e-07
-5.0629e-08
-5.01647e-07
-5.60591e-08
-4.90997e-07
-6.12942e-08
-4.79474e-07
-6.63122e-08
-4.67119e-07
-7.10914e-08
-4.53978e-07
-7.56102e-08
-4.40097e-07
-7.98475e-08
-4.25528e-07
-8.37823e-08
-4.10326e-07
-8.73942e-08
-3.94549e-07
-9.06634e-08
-3.78259e-07
-9.35707e-08
-3.61519e-07
-9.60979e-08
-3.44397e-07
-9.82274e-08
-3.26962e-07
-9.99429e-08
-3.09285e-07
-1.01229e-07
-2.91443e-07
-1.02072e-07
-2.73509e-07
-1.0246e-07
-2.55562e-07
-1.02382e-07
-2.37681e-07
-1.01829e-07
-2.19945e-07
-1.00794e-07
-2.02434e-07
-9.92739e-08
-1.85228e-07
-9.72659e-08
-1.68407e-07
-9.47717e-08
-1.52049e-07
-9.17957e-08
-1.3623e-07
-8.83463e-08
-1.21025e-07
-8.44358e-08
-1.06505e-07
-8.00815e-08
-9.27379e-08
-7.5306e-08
-7.97855e-08
-7.0138e-08
-6.77054e-08
-6.46134e-08
-5.65481e-08
-5.87764e-08
-4.63568e-08
-5.26807e-08
-3.71663e-08
-4.6391e-08
-2.90018e-08
-3.9985e-08
-2.18783e-08
-3.35553e-08
-1.57997e-08
-2.72123e-08
-1.0758e-08
-2.10868e-08
-6.73319e-09
-1.53333e-08
-3.69311e-09
-1.01344e-08
-1.59427e-09
-5.70331e-09
-3.83269e-10
-2.28866e-09
-1.95372e-10
-5.28611e-10
9.28134e-10
-2.13368e-09
4.47977e-09
-4.83823e-09
9.33628e-09
-8.66312e-09
1.51814e-08
-1.36234e-08
2.17547e-08
-1.9726e-08
2.88315e-08
-2.69693e-08
3.6219e-08
-3.53416e-08
4.37538e-08
-4.4822e-08
5.1298e-08
-5.53806e-08
5.87356e-08
-6.69786e-08
6.59702e-08
-7.95697e-08
7.29218e-08
-9.31002e-08
7.95246e-08
-1.07511e-07
8.57252e-08
-1.22736e-07
9.14809e-08
-1.38707e-07
9.67578e-08
-1.5535e-07
1.0153e-07
-1.7259e-07
1.05779e-07
-1.90348e-07
1.0949e-07
-2.08544e-07
1.12655e-07
-2.27098e-07
1.1527e-07
-2.45929e-07
1.17335e-07
-2.64955e-07
1.18852e-07
-2.84095e-07
1.19825e-07
-3.03269e-07
1.20264e-07
-3.22399e-07
1.20177e-07
-3.41407e-07
1.19576e-07
-3.60216e-07
1.18473e-07
-3.78754e-07
1.16884e-07
-3.96948e-07
1.14823e-07
-4.14728e-07
1.12307e-07
-4.32029e-07
1.09352e-07
-4.48784e-07
1.05977e-07
-4.64933e-07
1.02201e-07
-4.80417e-07
9.80419e-08
-4.9518e-07
9.35199e-08
-5.09169e-07
8.86551e-08
-5.22333e-07
8.34679e-08
-5.34628e-07
7.79793e-08
-5.46009e-07
7.22105e-08
-5.56437e-07
6.61831e-08
-5.65875e-07
5.99192e-08
-5.74289e-07
5.34407e-08
-5.81651e-07
4.67705e-08
-5.87934e-07
3.99312e-08
-5.93116e-07
3.2946e-08
-5.97178e-07
2.58384e-08
-6.00105e-07
1.86321e-08
-6.01885e-07
1.13511e-08
-6.02511e-07
4.01977e-09
-6.01979e-07
-3.33731e-09
-6.0029e-07
-1.06953e-08
-5.97446e-07
-1.80291e-08
-5.93457e-07
-2.53133e-08
-5.88333e-07
-3.25225e-08
-5.82091e-07
-3.96309e-08
-5.7475e-07
-4.66125e-08
-5.66335e-07
-5.34416e-08
-5.56872e-07
-6.00918e-08
-5.46394e-07
-6.65374e-08
-5.34935e-07
-7.27522e-08
-5.22537e-07
-7.87104e-08
-5.09242e-07
-8.43863e-08
-4.95098e-07
-8.97544e-08
-4.80156e-07
-9.47899e-08
-4.6447e-07
-9.94681e-08
-4.48099e-07
-1.03765e-07
-4.31105e-07
-1.07658e-07
-4.13553e-07
-1.11123e-07
-3.95511e-07
-1.1414e-07
-3.7705e-07
-1.16688e-07
-3.58245e-07
-1.18748e-07
-3.39172e-07
-1.20302e-07
-3.1991e-07
-1.21335e-07
-3.00539e-07
-1.21831e-07
-2.81142e-07
-1.21779e-07
-2.61803e-07
-1.21168e-07
-2.42605e-07
-1.19992e-07
-2.23635e-07
-1.18244e-07
-2.04976e-07
-1.15925e-07
-1.86713e-07
-1.13034e-07
-1.6893e-07
-1.09579e-07
-1.51706e-07
-1.05569e-07
-1.35123e-07
-1.0102e-07
-1.19254e-07
-9.595e-08
-1.04173e-07
-9.03872e-08
-8.99463e-08
-8.43648e-08
-7.66357e-08
-7.7924e-08
-6.42968e-08
-7.11154e-08
-5.29776e-08
-6.39999e-08
-4.27184e-08
-5.66502e-08
-3.35504e-08
-4.9153e-08
-2.54953e-08
-4.16104e-08
-1.85648e-08
-3.41428e-08
-1.27603e-08
-2.68913e-08
-8.07276e-09
-2.00209e-08
-4.48338e-09
-1.37237e-08
-1.96471e-09
-8.22199e-09
-4.82612e-10
-3.77075e-09
-6.77982e-10
-6.28906e-10
1.55704e-09
-2.51017e-09
6.36103e-09
-5.64447e-09
1.24706e-08
-1.0033e-08
1.95699e-08
-1.56739e-08
2.73955e-08
-2.25595e-08
3.57171e-08
-3.06754e-08
4.4335e-08
-3.99996e-08
5.3078e-08
-5.0502e-08
6.18003e-08
-6.21445e-08
7.03782e-08
-7.48816e-08
7.87074e-08
-8.86607e-08
8.67008e-08
-1.03423e-07
9.42865e-08
-1.19102e-07
1.01405e-07
-1.35631e-07
1.08009e-07
-1.52933e-07
1.1406e-07
-1.70932e-07
1.19529e-07
-1.89547e-07
1.24394e-07
-2.08695e-07
1.28638e-07
-2.28293e-07
1.32253e-07
-2.48255e-07
1.35233e-07
-2.68496e-07
1.37576e-07
-2.8893e-07
1.39286e-07
-3.09472e-07
1.40367e-07
-3.30037e-07
1.40829e-07
-3.50543e-07
1.40683e-07
-3.70908e-07
1.3994e-07
-3.91051e-07
1.38617e-07
-4.10895e-07
1.36728e-07
-4.30365e-07
1.34292e-07
-4.49385e-07
1.31327e-07
-4.67887e-07
1.27854e-07
-4.85802e-07
1.23892e-07
-5.03064e-07
1.19463e-07
-5.19612e-07
1.1459e-07
-5.35386e-07
1.09294e-07
-5.50331e-07
1.036e-07
-5.64393e-07
9.75307e-08
-5.77525e-07
9.11109e-08
-5.8968e-07
8.43651e-08
-6.00815e-07
7.73186e-08
-6.10893e-07
6.99968e-08
-6.19877e-07
6.24255e-08
-6.27738e-07
5.46311e-08
-6.34447e-07
4.66401e-08
-6.3998e-07
3.84794e-08
-6.44318e-07
3.01765e-08
-6.47445e-07
2.17588e-08
-6.49349e-07
1.32545e-08
-6.50021e-07
4.69174e-09
-6.49457e-07
-3.90076e-09
-6.47658e-07
-1.24941e-08
-6.44628e-07
-2.10591e-08
-6.40376e-07
-2.95662e-08
-6.34912e-07
-3.79857e-08
-6.28255e-07
-4.62878e-08
-6.20426e-07
-5.44423e-08
-6.11448e-07
-6.24191e-08
-6.01352e-07
-7.01878e-08
-5.90171e-07
-7.77183e-08