/*--------------------------------*- C++ -*----------------------------------*\
| =========                 |                                                 |
| \\      /  F ield         | OpenFOAM: The Open Source CFD Toolbox           |
|  \\    /   O peration     | Version:  v1912                                 |
|   \\  /    A nd           | Website:  www.openfoam.com                      |
|    \\/     M anipulation  |                                                 |
\*---------------------------------------------------------------------------*/
FoamFile
{
    version     2.0;
    format      ascii;
    class       volScalarField;
    location    "2.36";
    object      p;
}
// * * * * * * * * * * * * * * * * * * * * * * * * * * * * * * * * * * * * * //

dimensions      [1 -1 -2 0 0 0 0];


internalField   nonuniform List<scalar> 
1900
(
14283.2
10885.2
10761
10798.1
10845.6
10901.1
10963.6
11034
11091.6
11176.2
14283.1
10885.2
10761.2
10798.2
10845.6
10900.4
10961.3
11023.2
11075.6
11149.9
14283.1
10885.2
10761.3
10798.2
10844.9
10899.6
10961.5
11026.7
11086.6
11140.1
14283.1
10885.2
10761.2
10798.2
10845.6
10900.4
10961.3
11023.2
11075.6
11149.9
14283.2
10885.2
10761
10798.1
10845.6
10901.1
10963.6
11034
11091.6
11176.2
11094.7
11164.3
11167.9
11007.1
9881.69
11190.4
11258.8
11236.5
11194.8
10683
11169.7
11219.1
11178.5
11076.5
10526.3
11190.4
11258.8
11236.5
11194.8
10683
11094.7
11164.3
11167.9
11007.1
9881.69
12397.6
12550.4
12909.4
13005.7
13124
12215.9
12513.8
12901
13170.8
13076.7
12206.8
12521.7
12887.7
13042.6
12539
12215.9
12513.8
12901
13170.8
13076.7
12397.6
12550.4
12909.4
13005.7
13124
10607.4
4955.82
5344.9
5568.35
5505.66
5532.4
5633.24
5780.51
5975.29
6215.46
6508.29
6845.55
7221.43
7627.22
8054.88
8495.72
8936.53
9350.18
9678.5
9853.34
9849.76
9661.97
9321.22
8895.62
8442.68
7987.85
7542.16
7111.09
6697.87
6304.72
5933.74
5587.77
5270.75
4986.02
4732.83
4503.3
4294.57
4125.51
3748.95
19369
10963.4
5299.95
5550.69
5604.15
5529.15
5547.54
5644.21
5795.07
5990.61
6231.66
6526.11
6865.15
7243.25
7651.58
8082.08
8525.61
8968.96
9384.87
9714.96
9890.65
9887.07
9698.44
9356.21
8928.73
8473.68
8016.61
7568.56
7135.05
6719.3
6323.56
5949.94
5601.33
5281.74
4994.55
4739.15
4507.66
4297.71
4127.25
3749.79
19368.1
10378.7
5730.22
5679.49
5639.1
5539.19
5552.94
5647.69
5799.57
5995.51
6236.98
6532.03
6871.72
7250.67
7659.96
8091.48
8535.9
8980.06
9396.69
9727.34
9903.28
9899.66
9710.73
9367.95
8939.78
8483.95
8026.02
7577.04
7142.54
6725.75
6328.93
5954.23
5604.6
5284.1
4996.17
4740.23
4508.42
4298.44
4127.83
3750.12
19366.5
10963.4
5299.95
5550.69
5604.15
5529.15
5547.54
5644.21
5795.07
5990.61
6231.66
6526.11
6865.15
7243.25
7651.58
8082.08
8525.61
8968.96
9384.87
9714.96
9890.65
9887.07
9698.44
9356.21
8928.73
8473.68
8016.61
7568.56
7135.05
6719.3
6323.56
5949.94
5601.33
5281.74
4994.55
4739.15
4507.66
4297.71
4127.25
3749.79
19368.1
10607.4
4955.82
5344.9
5568.35
5505.66
5532.4
5633.24
5780.51
5975.29
6215.46
6508.29
6845.55
7221.43
7627.22
8054.88
8495.72
8936.53
9350.18
9678.5
9853.34
9849.76
9661.97
9321.22
8895.62
8442.68
7987.85
7542.16
7111.09
6697.87
6304.72
5933.74
5587.77
5270.75
4986.02
4732.83
4503.3
4294.57
4125.51
3748.95
19369
12300.7
4335.8
5090.45
5369.99
5412.53
5465.87
5573.34
5714
5905.49
6142.05
6429.65
6761.54
7131.03
7529.69
7949.68
8382.57
8815.49
9221.93
9544.68
9716.89
9713.49
9528.81
9193.39
8774.44
8328.77
7881.5
7443.46
7020.04
6614.37
6228.6
5864.76
5525.63
5215.1
4936.5
4688.96
4464.92
4260.73
4098.23
3728.26
19344.3
13650.1
3940.08
4761.59
5022.29
5194.21
5304.05
5425.65
5567.29
5753.01
5985.06
6264.57
6586.84
6944.67
7330.34
7736.61
8155.4
8574.45
8968.27
9281.41
9449.01
9446.11
9267.57
8942.55
8536.5
8104.8
7671.96
7248.48
6839.52
6448.07
6076.15
5725.68
5399.31
5100.8
4833.38
4596.01
4381.44
4186.12
4034.81
3676.8
19243.8
15082.8
3788.33
4462.09
4728.69
4932.01
5057.47
5183.49
5328.54
5509.14
5734.79
6004.35
6313.84
6656.33
7024.9
7412.95
7813
8213.42
8589.78
8889.13
9049.76
9047.53
8877.92
8567.73
8179.59
7766.81
7353.06
6948.47
6558
6184.52
5829.94
5496.11
5185.58
4901.91
4648.15
4423.22
4220.3
4038.45
3900.92
3560.44
18855.8
16305.9
3663.41
4198.2
4444.4
4614.4
4764.32
4896.56
5046.69
5226.11
5448.03
5710.53
6009.12
6337.66
6690.01
7060.29
7441.64
7823.09
8181.4
8466.11
8618.85
8617.22
8457.48
8163.24
7793.9
7400.61
7006.22
6620.53
6248.35
5892.43
5554.64
5236.73
4941.13
4671.17
4429.67
4215.92
4023.56
3855.81
3727.18
3401.37
18077.7
15999.7
3466.76
3930.98
4138.8
4309.34
4459.72
4594.42
4747.89
4929.73
5149.36
5405.39
5693.59
6008.5
6344.88
6697.53
7060.25
7422.76
7762.97
8032.71
8176.98
8175.92
8026.59
7748.89
7398.72
7025.08
6650.06
6283.18
5929.11
5590.5
5269.16
4966.78
4685.56
4428.65
4198.62
3995.7
3813.89
3658.99
3533.79
3220.25
16989.3
15800.7
3246.73
3665.66
3858.37
4021.1
4160.53
4295.98
4451.82
4635.44
4852.87
5102.53
5380.47
5682.07
6002.87
6338.41
6683.12
7027.38
7349.96
7604.8
7740.15
7739.55
7600.85
7339.75
7008.59
6654.25
6298.16
5949.6
5613.11
5291.28
4985.89
4698.43
4431.04
4186.51
3967.36
3775.32
3604.04
3459.39
3333.46
3031.98
15738.9
14709.6
3034.2
3415.02
3594.09
3746.63
3875.45
4009.99
4166.6
4350.42
4564.99
4807.72
5075.39
5363.87
5669.62
5988.83
6316.5
6643.44
6949.08
7189.16
7315.24
7314.96
7186.91
6942.28
6629.72
6294.11
5956.31
5625.42
5305.86
5000.23
4710.09
4437.12
4182.72
3950.17
3741.4
3560.24
3398.98
3261.96
3133.15
2845.14
14451.7
13765.9
2835.13
3178.46
3345
3488.62
3608.09
3740.01
3895.41
4078.43
4288.65
4524.33
4781.4
5057.22
5348.6
5652.46
5964.13
6274.72
6564.04
6789.48
6905.99
6905.92
6788.43
6559.96
6265.46
5947.89
5627.64
5313.66
5010.37
4720.12
4444.85
4185.2
3943.8
3722.15
3523.55
3353.03
3200.79
3069.45
2937.38
2664.23
13152.8
12693.5
2643.51
2955.28
3112.79
3247.04
3358.5
3486.86
3640.21
3820.25
4026.6
4253.72
4500.88
4764.26
5042.23
5331.71
5628.41
5923.47
6196.99
6407.88
6514.66
6514.7
6407.57
6194.89
5917.81
5617.5
5313.99
5016.17
4728.25
4452.98
4191.11
3945.44
3714.63
3505.07
3315.2
3154.93
3010.58
2883.84
2749.5
2492.36
11935.6
11554.7
2464.07
2746.08
2895.25
3020.13
3125.22
3250.53
3400.16
3578.96
3777.86
3998.64
4234.82
4487.11
4752.33
5028.48
5311.07
5591.34
5849.49
6045.93
6142.96
6143.04
6046
5848.66
5588.31
5304.42
5016.8
4734.19
4461.05
4199.21
3951.53
3716.39
3499.09
3297.99
3117.79
2966.65
2828.67
2705.82
2570.78
2330.1
10722.6
10452.9
2299.07
2553.89
2692.85
2807.84
2907.87
3031.53
3178.75
3352.19
3547.65
3758.11
3986.15
4227.08
4480.94
4744.56
5013.9
5280.04
5523.27
5705.49
5792.92
5792.99
5705.68
5523.14
5278.73
5010.36
4737.61
4469.35
4209.56
3961.4
3724.39
3503.56
3293.8
3105.28
2932.92
2788.96
2657.68
2538.51
2405.12
2180.71
9632.67
9298.19
2140.45
2369.75
2497.42
2606.93
2706.34
2829.48
2974.11
3144.96
3331.41
3537.03
3754.88
3987.01
4230.02
4482.3
4739.26
4992.03
5220.93
5389.29
5467.45
5467.5
5389.49
5221.11
4991.71
4737.74
4478.73
4223.41
3976.31
3738.99
3514.76
3301.58
3104.94
2923.85
2759.27
2623.47
2495.29
2378.77
2247.8
2039.49
8554.66
8238.23
2000.03
2206.21
2322.48
2429.01
2527.42
2652.09
2791.65
2958.01
3139.38
3335.97
3546.55
3769.03
4002.57
4244.3
4489.93
4730.29
4945.66
5100.78
5170.14
5170.17
5100.92
4945.9
4730.44
4489.57
4242.88
3999.4
3763.3
3537.47
3322.41
3121.07
2932.11
2760.44
2605.63
2473.66
2350.79
2237.35
2110.9
1917.79
7630.35
7164.7
1859.28
2044.41
2156.46
2262.43
2367.66
2489.55
2631.08
2789.91
2966.91
3157.11
3360.33
3574.95
3799.53
4031.81
4267.2
4496.33
4699.2
4841.84
4902.97
4902.98
4841.92
4699.4
4496.61
4267.38
4031.58
3798.45
3572.48
3355.91
3149.98
2956.76
2774.82
2612.92
2461.29
2336.05
2213.59
2101.09
1977.85
1799.05
6710.9
6257.02
1739.15
1906.19
2016.12
2123.09
2235.23
2357.25
2496.95
2653.1
2823.85
3007.6
3202.42
3407.63
3622.14
3843.95
4068.82
4287.18
4478.47
4609.58
4663.22
4663.22
4609.61
4478.59
4287.42
4069.16
3844.23
3622.16
3407.07
3200.93
3004.7
2819.3
2645.74
2487.87
2342.41
2218.37
2096.29
1984.14
1864.97
1699.86
5960.03
5387.02
1625.03
1775.75
1883.55
1991.14
2109.38
2231.04
2372.57
2524.1
2692.25
2870.46
3059.29
3256.94
3462.47
3674.19
3888.52
4096.31
4276.61
4396.77
4443.34
4443.34
4396.77
4276.66
4096.47
3888.81
3674.59
3462.89
3257.24
3059.26
2869.84
2690.84
2521.32
2368.81
2224.39
2101.41
1978.1
1866.67
1752.77
1602.05
5216.93
4766.06
1534.16
1667.2
1768.43
1874.23
1994.49
2115.73
2257.69
2406.03
2572.42
2747.67
2933.67
3127.61
3327.9
3531.79
3735.05
3929.34
4095.47
4204.42
4245.37
4245.36
4204.41
4095.48
3929.41
3735.23
3532.11
3328.36
3128.18
2934.27
2748.22
2572.8
2406.07
2257.4
2114.45
1992.66
1870.35
1762.36
1657.42
1523.38
4677.04
4206.75
1463.62
1576.45
1666.05
1763.67
1879.71
1996.55
2135.91
2280.46
2445.82
2621.05
2809.36
3007.03
3211.72
3419.01
3622.4
3810.8
3966.1
4061.97
4095.19
4095.19
4061.96
3966.1
3810.84
3622.5
3419.23
3212.07
3007.53
2809.97
2621.75
2446.51
2281.09
2136.4
1996.66
1879.51
1762.58
1663.76
1572.24
1458.75
4181.48
4052.46
1367.32
1464.95
1534.92
1616.27
1718.6
1821.9
1947.36
2076.77
2225.96
2384.7
2556.29
2737.72
2927.53
3121.44
3312.43
3488.46
3626.9
3707.22
3732.91
3732.91
3707.21
3626.89
3488.47
3312.49
3121.58
2927.78
2738.11
2556.82
2385.37
2226.73
2077.64
1948.24
1822.74
1719.38
1616.72
1534.84
1463.61
1365.23
4032.01
32820.9
4079.1
4241.39
4805.86
5387.79
6193.88
7002.59
8004.88
9009.66
10175.2
11353.9
12661
13971.2
15347.3
16690.1
17929
18903.6
19477.7
19683.3
19718.1
19718.1
19683.3
19477.7
18903.5
17929
16690
15347.2
13971.2
12661.2
11354.3
10175.9
9010.7
8006.27
7004.36
6196.08
5390.29
4808.7
4244.09
4081.39
32815.7
32820.9
4079.1
4241.39
4805.86
5387.79
6193.88
7002.59
8004.88
9009.66
10175.2
11353.9
12661
13971.2
15347.3
16690.1
17929
18903.6
19477.7
19683.3
19718.1
19718.1
19683.3
19477.7
18903.5
17929
16690
15347.2
13971.2
12661.2
11354.3
10175.9
9010.7
8006.27
7004.36
6196.08
5390.29
4808.7
4244.09
4081.39
32815.7
4052.46
1367.32
1464.95
1534.92
1616.27
1718.6
1821.9
1947.36
2076.77
2225.96
2384.7
2556.29
2737.72
2927.53
3121.44
3312.43
3488.46
3626.9
3707.22
3732.91
3732.91
3707.21
3626.89
3488.47
3312.49
3121.58
2927.78
2738.11
2556.82
2385.37
2226.73
2077.64
1948.24
1822.74
1719.38
1616.72
1534.84
1463.61
1365.23
4032.01
4206.75
1463.62
1576.45
1666.05
1763.67
1879.71
1996.55
2135.91
2280.46
2445.82
2621.05
2809.36
3007.03
3211.72
3419.01
3622.4
3810.8
3966.1
4061.97
4095.19
4095.19
4061.96
3966.1
3810.84
3622.5
3419.23
3212.07
3007.53
2809.97
2621.75
2446.51
2281.09
2136.4
1996.66
1879.51
1762.58
1663.76
1572.24
1458.75
4181.48
4766.06
1534.16
1667.2
1768.43
1874.23
1994.49
2115.73
2257.69
2406.03
2572.42
2747.67
2933.67
3127.61
3327.9
3531.79
3735.05
3929.34
4095.47
4204.42
4245.37
4245.36
4204.41
4095.48
3929.41
3735.23
3532.11
3328.36
3128.18
2934.27
2748.22
2572.8
2406.07
2257.4
2114.45
1992.66
1870.35
1762.36
1657.42
1523.38
4677.04
5387.02
1625.03
1775.75
1883.55
1991.14
2109.38
2231.04
2372.57
2524.1
2692.25
2870.46
3059.29
3256.94
3462.47
3674.19
3888.52
4096.31
4276.61
4396.77
4443.34
4443.34
4396.77
4276.66
4096.47
3888.81
3674.59
3462.89
3257.24
3059.26
2869.84
2690.84
2521.32
2368.81
2224.39
2101.41
1978.1
1866.67
1752.77
1602.05
5216.93
6257.02
1739.15
1906.19
2016.12
2123.09
2235.23
2357.25
2496.95
2653.1
2823.85
3007.6
3202.42
3407.63
3622.14
3843.95
4068.82
4287.18
4478.47
4609.58
4663.22
4663.22
4609.61
4478.59
4287.42
4069.16
3844.23
3622.16
3407.07
3200.93
3004.7
2819.3
2645.74
2487.87
2342.41
2218.37
2096.29
1984.14
1864.97
1699.86
5960.03
7164.7
1859.28
2044.41
2156.46
2262.43
2367.66
2489.55
2631.08
2789.91
2966.91
3157.11
3360.33
3574.95
3799.53
4031.81
4267.2
4496.33
4699.2
4841.84
4902.97
4902.98
4841.92
4699.4
4496.61
4267.38
4031.58
3798.45
3572.48
3355.91
3149.98
2956.76
2774.82
2612.92
2461.29
2336.05
2213.59
2101.09
1977.85
1799.05
6710.9
8238.23
2000.03
2206.21
2322.48
2429.01
2527.42
2652.09
2791.65
2958.01
3139.38
3335.97
3546.55
3769.03
4002.57
4244.3
4489.93
4730.29
4945.66
5100.78
5170.14
5170.17
5100.92
4945.9
4730.44
4489.57
4242.88
3999.4
3763.3
3537.47
3322.41
3121.07
2932.11
2760.44
2605.63
2473.66
2350.79
2237.35
2110.9
1917.79
7630.35
9298.19
2140.45
2369.75
2497.42
2606.93
2706.34
2829.48
2974.11
3144.96
3331.41
3537.03
3754.88
3987.01
4230.02
4482.3
4739.26
4992.03
5220.93
5389.29
5467.45
5467.5
5389.49
5221.11
4991.71
4737.74
4478.73
4223.41
3976.31
3738.99
3514.76
3301.58
3104.94
2923.85
2759.27
2623.47
2495.29
2378.77
2247.8
2039.49
8554.66
10452.9
2299.07
2553.89
2692.85
2807.84
2907.87
3031.53
3178.75
3352.19
3547.65
3758.11
3986.15
4227.08
4480.94
4744.56
5013.9
5280.04
5523.27
5705.49
5792.92
5792.99
5705.68
5523.14
5278.73
5010.36
4737.61
4469.35
4209.56
3961.4
3724.39
3503.56
3293.8
3105.28
2932.92
2788.96
2657.68
2538.51
2405.12
2180.71
9632.67
11554.7
2464.07
2746.08
2895.25
3020.13
3125.22
3250.53
3400.16
3578.96
3777.86
3998.64
4234.82
4487.11
4752.33
5028.48
5311.07
5591.34
5849.49
6045.93
6142.96
6143.04
6046
5848.66
5588.31
5304.42
5016.8
4734.19
4461.05
4199.21
3951.53
3716.39
3499.09
3297.99
3117.79
2966.65
2828.67
2705.82
2570.78
2330.1
10722.6
12693.5
2643.51
2955.28
3112.79
3247.04
3358.5
3486.86
3640.21
3820.25
4026.6
4253.72
4500.88
4764.26
5042.23
5331.71
5628.41
5923.47
6196.99
6407.88
6514.66
6514.7
6407.57
6194.89
5917.81
5617.5
5313.99
5016.17
4728.25
4452.98
4191.11
3945.44
3714.63
3505.07
3315.2
3154.93
3010.58
2883.84
2749.5
2492.36
11935.6
13765.9
2835.13
3178.46
3345
3488.62
3608.09
3740.01
3895.41
4078.43
4288.65
4524.33
4781.4
5057.22
5348.6
5652.46
5964.13
6274.72
6564.04
6789.48
6905.99
6905.92
6788.43
6559.96
6265.46
5947.89
5627.64
5313.66
5010.37
4720.12
4444.85
4185.2
3943.8
3722.15
3523.55
3353.03
3200.79
3069.45
2937.38
2664.23
13152.8
14709.6
3034.2
3415.02
3594.09
3746.63
3875.45
4009.99
4166.6
4350.42
4564.99
4807.72
5075.39
5363.87
5669.62
5988.83
6316.5
6643.44
6949.08
7189.16
7315.24
7314.96
7186.91
6942.28
6629.72
6294.11
5956.31
5625.42
5305.86
5000.23
4710.09
4437.12
4182.72
3950.17
3741.4
3560.24
3398.98
3261.96
3133.15
2845.14
14451.7
15800.7
3246.73
3665.66
3858.37
4021.1
4160.53
4295.98
4451.82
4635.44
4852.87
5102.53
5380.47
5682.07
6002.87
6338.41
6683.12
7027.38
7349.96
7604.8
7740.15
7739.55
7600.85
7339.75
7008.59
6654.25
6298.16
5949.6
5613.11
5291.28
4985.89
4698.43
4431.04
4186.51
3967.36
3775.32
3604.04
3459.39
3333.46
3031.98
15738.9
15999.7
3466.76
3930.98
4138.8
4309.34
4459.72
4594.42
4747.89
4929.73
5149.36
5405.39
5693.59
6008.5
6344.88
6697.53
7060.25
7422.76
7762.97
8032.71
8176.98
8175.92
8026.59
7748.89
7398.72
7025.08
6650.06
6283.18
5929.11
5590.5
5269.16
4966.78
4685.56
4428.65
4198.62
3995.7
3813.89
3658.99
3533.79
3220.25
16989.3
16305.9
3663.41
4198.2
4444.4
4614.4
4764.32
4896.56
5046.69
5226.11
5448.03
5710.53
6009.12
6337.66
6690.01
7060.29
7441.64
7823.09
8181.4
8466.11
8618.85
8617.22
8457.48
8163.24
7793.9
7400.61
7006.22
6620.53
6248.35
5892.43
5554.64
5236.73
4941.13
4671.17
4429.67
4215.92
4023.56
3855.81
3727.18
3401.37
18077.7
15082.8
3788.33
4462.09
4728.69
4932.01
5057.47
5183.49
5328.54
5509.14
5734.79
6004.35
6313.84
6656.33
7024.9
7412.95
7813
8213.42
8589.78
8889.13
9049.76
9047.53
8877.92
8567.73
8179.59
7766.81
7353.06
6948.47
6558
6184.52
5829.94
5496.11
5185.58
4901.91
4648.15
4423.22
4220.3
4038.45
3900.92
3560.44
18855.8
13650.1
3940.08
4761.59
5022.29
5194.21
5304.05
5425.65
5567.29
5753.01
5985.06
6264.57
6586.84
6944.67
7330.34
7736.61
8155.4
8574.45
8968.27
9281.41
9449.01
9446.11
9267.57
8942.55
8536.5
8104.8
7671.96
7248.48
6839.52
6448.07
6076.15
5725.68
5399.31
5100.8
4833.38
4596.01
4381.44
4186.12
4034.81
3676.8
19243.8
12300.7
4335.8
5090.45
5369.99
5412.53
5465.87
5573.34
5714
5905.49
6142.05
6429.65
6761.54
7131.03
7529.69
7949.68
8382.57
8815.49
9221.93
9544.68
9716.89
9713.49
9528.81
9193.39
8774.44
8328.77
7881.5
7443.46
7020.04
6614.37
6228.6
5864.76
5525.63
5215.1
4936.5
4688.96
4464.92
4260.73
4098.23
3728.26
19344.3
)
;

boundaryField
{
    inlet
    {
        type            fixedValue;
        value           uniform 10000;
    }
    outlet
    {
        type            fixedValue;
        value           uniform 1000;
    }
    obstacle
    {
        type            zeroGradient;
    }
    empty
    {
        type            empty;
    }
}


// ************************************************************************* //
