/*--------------------------------*- C++ -*----------------------------------*\
| =========                 |                                                 |
| \\      /  F ield         | OpenFOAM: The Open Source CFD Toolbox           |
|  \\    /   O peration     | Version:  v1912                                 |
|   \\  /    A nd           | Website:  www.openfoam.com                      |
|    \\/     M anipulation  |                                                 |
\*---------------------------------------------------------------------------*/
FoamFile
{
    version     2.0;
    format      ascii;
    class       volScalarField;
    location    "0.00027";
    object      internalEMean;
}
// * * * * * * * * * * * * * * * * * * * * * * * * * * * * * * * * * * * * * //

dimensions      [1 -1 -2 0 0 0 0];


internalField   nonuniform List<scalar> 
1300
(
1067.810196
1191.535585
3758.589728
8754.902898
9677.854336
5341.067047
6896.879434
8659.715385
7341.331492
6671.599444
1248.672843
1321.460663
5273.357175
13614.25649
11635.18349
5960.427432
10264.41002
12223.48628
9578.194371
8518.23467
543.5121089
752.5599176
3346.378353
9781.836249
8305.622188
4618.061361
7620.808805
9875.088358
9260.730415
7884.369411
425.9241644
353.7706139
2466.676422
8273.976132
6268.401267
3470.968022
6246.346464
9949.90224
7691.711539
7302.728881
187.4890364
361.2758355
2398.181849
7805.840945
5126.647511
2384.827195
4533.60072
7802.803496
7061.193455
6257.786492
177.7754865
171.4629314
2103.768952
8005.370291
4954.710671
2071.651104
4021.318137
6016.941912
6110.436678
5580.480998
102.5068518
219.1822867
2148.331026
7859.081664
4473.891316
1917.907167
3429.337703
5563.84626
4938.720065
4623.796219
144.9420135
116.3209895
2221.569628
7972.869744
4618.167612
2103.110894
3642.581454
5668.197761
4672.429502
4321.814642
82.64064701
138.0985085
2168.74016
7511.861964
4443.309976
1836.987728
3681.687489
5351.122667
4784.800705
3942.521965
27.75340767
73.87164498
2100.326779
7741.859977
4394.770075
1850.752812
3281.7251
5306.485004
4888.885768
3586.215418
46.2544448
90.85198656
2078.004156
7558.946141
4613.057228
2010.615174
3610.66985
5392.748471
4746.64687
3934.382491
34.14151231
74.60591423
1885.169013
7140.522037
4143.788897
1711.144004
3421.657184
5050.629341
4433.757409
4053.916158
28.93118045
90.42511693
1954.103436
7607.733651
4245.640899
1714.08589
3338.468501
5361.896525
4476.42127
3854.898639
30.42741694
72.62119177
2019.832634
7708.790057
4596.188664
1708.947375
3419.006574
5107.521254
4644.079923
3964.941449
10.92337392
42.13362758
1881.428515
7504.249666
4350.740156
1795.732271
3386.324328
5295.99073
4741.125989
3836.363584
26.15469537
70.31674069
1940.940479
7729.196655
4210.12039
1926.776562
3455.37924
5217.50578
4348.67435
4090.906338
32.12765502
78.8730122
1892.416368
7344.401674
4214.721158
2101.353966
3390.937804
4944.21541
4674.558817
3810.410594
26.53061631
28.50262324
2042.704005
7637.096946
4212.714023
1876.282976
3358.252204
5334.164626
4645.553699
3613.310986
18.51538881
67.29813364
1896.414797
7632.519772
4272.888506
1678.049005
3246.900351
5002.106358
4501.549386
3731.08023
7.212546778
53.44601905
1718.34229
6953.291615
4321.325226
1868.71189
3340.564516
4801.876758
4330.669868
3704.912598
7291.046167
6644.262934
7156.760642
6121.139114
6249.780514
5616.549399
6322.639737
6782.007532
6171.180446
5842.172378
6018.332196
6774.27601
6357.281969
6267.762486
6915.12819
6304.92282
6776.41168
6287.649604
7181.935542
6449.929126
6773.295017
6769.868286
7046.336948
6486.201988
6803.923519
7189.259075
7572.606721
7020.892549
8529.509794
8005.323954
8171.447084
6953.074304
6576.469242
6212.685327
6782.944599
6138.083422
6088.053324
6208.115779
5929.99775
5888.972145
5897.600863
6273.643345
6921.28386
6457.548613
6601.300908
6161.86994
6150.987264
6310.508018
6427.402074
7359.132075
6904.876025
6398.716263
7139.346697
6825.33784
7076.245274
7638.562477
7096.741907
7312.147987
7289.133239
7520.728939
7915.171612
7543.261151
6701.86254
6148.544393
6362.676537
6229.921846
6198.496887
5768.665415
5980.462667
6282.191018
6278.488512
5880.662403
5950.336915
6617.036624
6234.621413
6729.858233
6243.998731
6457.096613
7119.723063
6770.117556
6937.381376
7018.973289
6481.838847
6693.80929
6832.969324
7183.225374
6826.030971
7799.742154
7955.774783
7177.633862
7900.096162
8088.050404
6983.041907
6603.019378
6746.279381
5784.585276
6453.632167
6090.617372
5924.788298
5905.359021
6288.648549
5971.349608
6299.916412
6364.875946
6141.667522
6209.954723
5732.43257
6762.870704
6354.698801
6893.666737
7002.63022
7150.186928
7118.966274
7223.31066
7829.718755
7062.730109
7418.953808
7383.089099
6973.992105
6857.746854
7303.138852
7950.815677
7612.099328
6824.722803
6586.702656
6627.331106
6221.246291
5953.660374
6530.743918
5837.486335
5782.39155
5734.123546
5485.267392
6176.844461
6050.1443
6596.911397
6845.138758
5847.444457
6550.883553
6587.372116
6574.852486
6796.138747
6679.63994
7138.483932
6859.241318
7181.118227
7625.225618
7717.134383
6777.181636
6944.583418
5867.656253
7278.420988
7194.748857
6701.300078
6516.338895
6931.540309
6172.131485
5873.82936
5877.351348
6364.997789
5670.120874
5660.120514
5881.209244
5360.696323
6051.353735
5771.088191
6365.021913
5892.895501
6295.45974
6167.379283
6565.717583
6769.988966
7089.117035
6264.939293
7409.682633
7596.362089
7370.345452
7389.785348
7793.611205
7736.271959
4929.789428
6622.015343
6624.005251
6722.300545
6780.787339
6769.136997
6576.353239
6087.70878
6250.20102
6234.717771
5835.029529
5851.429657
5451.368111
5787.711731
5970.98645
5921.901713
5911.323452
6520.000233
6057.212408
6219.879204
6073.763195
6550.086377
7281.097018
7048.301843
6285.934034
6885.505214
7373.013417
7313.103894
7797.216913
7115.985273
4211.910696
5567.293663
5768.210237
5557.010277
6720.457291
7100.273461
6477.69396
6238.425291
6280.70682
6300.67714
6013.745682
5885.806376
5844.271896
6086.989019
5801.965928
5719.988658
5633.851538
6068.33471
5745.388213
6502.620069
6060.619668
6476.754952
6615.055637
6769.726632
6585.224441
7544.144526
6956.050541
7197.746104
7182.178461
7652.723666
4195.559559
5123.32807
4951.210104
4731.195241
5309.844346
6280.055082
6243.028968
6405.777106
6665.437696
6318.12156
5995.39298
6392.364906
5981.872331
6186.849764
5788.553793
5767.416771
5658.366774
5573.215371
5873.760098
5689.728914
5931.644207
5915.660158
6573.502504
6512.012062
6838.04224
6821.960925
6963.730496
6995.671529
7559.439958
7452.162306
3561.416761
4993.698995
4654.627544
4380.477813
5269.15879
5496.508757
5607.671322
5818.063457
6300.133874
6788.495052
5923.712593
6352.772245
6361.095148
6185.537815
5973.747352
6186.739477
5777.807484
5898.7193
5819.134476
6204.985173
6391.20103
5814.494096
6394.849873
6482.630949
6618.044982
6709.039341
6657.047753
7006.203483
7069.870897
7010.600712
3756.322514
4822.447893
4655.786152
4171.496946
4458.927802
5142.872614
5106.373012
5032.433655
5783.361635
6162.253099
5828.067736
6030.074187
6279.85735
6288.049756
6012.445875
6459.297721
6314.478305
5786.612598
5762.81518
5785.459708
5631.344773
5950.373179
5807.113606
6029.299602
6767.890272
6437.837741
6505.938398
7084.001981
6519.743769
7257.160547
3492.152045
4836.028851
4357.154427
4117.593362
4211.766099
4729.979925
4495.834924
4866.767649
5400.501499
5504.302627
5715.240231
6024.85328
6285.628239
6106.504374
5872.356595
6282.81643
5941.525449
5955.903604
6134.69123
6028.655362
6111.964556
5842.178201
5839.28905
6248.068167
5845.152868
6445.760826
6345.925724
6345.184845
7061.099018
6836.092828
3777.880693
4691.644939
4383.174711
3852.183337
4547.666888
4622.426887
4272.684033
4428.549621
4956.298918
5035.346967
5126.826577
5467.618534
5552.312483
5688.428755
6406.71365
6392.343553
6103.239169
6267.022309
5958.891627
6342.826128
5617.522078
5773.086644
6013.456839
5710.590889
5603.106032
5774.046291
6522.013222
6339.794983
6400.684546
6827.376478
3559.620132
4703.573239
4533.335482
3798.939241
4236.704438
4491.008929
4273.000547
3963.777014
4630.342479
4659.888559
4651.246095
4835.5221
5471.116897
5062.936847
5866.900981
5459.273842
6001.319572
6460.554146
5964.956777
5986.615298
6247.051972
5805.416171
5982.030667
6058.50623
5580.023255
6101.672908
5880.08181
6023.142252
6570.672939
6559.213657
3489.555044
4474.990499
4220.502964
3975.793208
3979.723732
4555.00082
4172.752498
4167.538045
4567.080784
4294.91699
4196.074087
4729.026692
5015.689342
4681.76171
5259.766533
5399.787267
5421.30709
6043.46346
5781.935802
6225.113899
6113.508458
6081.455611
6007.179975
6213.068224
6184.532389
5773.211399
5936.285021
5955.810787
5819.594845
5945.80211
3701.118199
4700.102615
4407.780535
3878.391795
4390.660778
4729.870195
3965.887361
4155.947704
4645.393334
4498.78456
4138.016994
4397.774093
4500.514532
4615.235544
4851.745364
5008.553773
5361.18194
5341.793206
5710.376731
5663.674263
5856.31024
5987.014024
6287.900666
5853.058246
6243.952021
6323.862931
5984.682009
5968.520512
5881.10184
6032.145949
3583.36171
4565.882092
4770.259532
3717.655438
4353.281686
4352.567825
4169.690566
4225.979071
4361.801943
4396.100125
4390.907678
4316.635405
4759.01505
4128.317376
4761.820166
4579.992711
4795.704854
4883.9425
5130.659867
5334.55158
5819.092639
5791.166533
6278.406434
5897.227974
6254.877029
6044.327563
6221.445782
6263.395259
5922.924047
6307.558253
3771.44553
4400.764823
4182.118474
3931.710922
4085.433124
4506.949701
4084.205968
4142.26669
4414.323115
4145.172956
4264.319398
4259.57154
4556.382492
4457.029623
4479.671866
4549.21983
4647.781647
4724.359842
4890.355721
5106.591071
5326.927836
5297.243364
5289.771692
5769.692551
5984.89994
5725.527584
6184.588639
6136.694706
6196.512421
5898.682322
3438.450956
4530.712928
4411.942437
3759.382924
4088.633561
4814.611137
3984.564422
4359.244041
4478.262072
4158.190507
4213.039028
4163.934907
4452.369948
4045.471081
4176.748927
4441.548485
4453.18977
4566.09415
4789.517772
4939.213359
4860.305146
5148.046557
5393.307671
5011.699766
5534.370394
5757.314431
6141.046219
5823.772134
5719.906894
6337.071702
3651.142508
4312.132042
4162.736487
3984.737135
4124.906234
3961.812443
4096.983949
3854.915988
4225.282103
3750.034397
3952.940639
4201.255455
4113.791995
4054.588551
4093.94332
4132.996734
4293.418357
4255.184713
4277.298055
4426.953268
4636.939168
4592.557665
4839.323402
5162.001296
5080.96254
5140.95175
5095.941951
5538.204821
5591.919541
5696.110438
6421.231573
5790.028787
5208.07217
5824.489065
5483.251938
5102.129346
4931.552673
4818.579605
4029.236351
3323.230554
8355.122211
7811.191905
6631.425962
6922.085235
6644.41652
7188.953102
6850.332704
6479.00953
5288.033741
4787.739472
7703.043084
6539.706993
7152.557607
6506.069925
6771.67157
6936.281694
6401.183394
6448.422962
5469.427331
4160.314877
6819.432437
7719.105804
7460.451025
7048.148083
6871.168126
6645.086021
6814.871189
6392.927096
5614.688593
4962.468371
6393.655693
7305.859447
6966.708711
6972.050208
7165.454839
6512.369046
6692.507455
6011.238891
5667.519808
5082.744589
7553.176659
7170.955494
6350.040097
7280.904846
6263.913953
6487.44763
6306.235489
5740.411674
5596.831983
5758.644213
7075.475704
7003.910248
7054.243357
7113.649996
6387.003563
6483.609932
5800.684714
5892.151265
5183.756211
5116.648965
7016.280082
6777.924012
7248.678655
6373.76407
7598.977203
6338.475973
6168.824124
6171.777465
6195.791717
5416.071291
7380.819286
7493.099362
6557.47108
7003.092771
6687.644918
6661.862865
6853.190567
5997.032473
6069.533701
5481.79706
7104.617347
6376.430764
7092.757157
7196.062761
6520.222517
6642.858175
6657.004742
6093.362863
5939.440916
5773.338544
7131.291103
6929.533289
7313.647299
6737.611745
6787.800448
6599.34745
7072.520046
6818.429666
6026.109022
6015.400797
6917.118026
6746.277105
7177.120306
6950.241859
7114.038785
7046.860219
6778.895316
6419.769202
6238.288799
6602.828841
6739.997539
7178.861832
6958.014735
7073.530396
7387.188342
7043.581958
6047.985692
7312.700289
6472.284251
6622.807346
6672.523008
6417.863984
7182.299222
6872.152341
6885.153792
7160.123761
7198.220488
6949.022242
7412.767189
6730.261424
5826.73957
6170.645553
6164.609542
6485.304275
6652.218653
6904.215818
6398.864673
6866.471087
6733.532372
7160.918043
6314.045172
6155.238297
6417.979672
6101.603803
6814.680012
6842.473699
6692.733745
6478.55929
7004.591129
6958.693719
6218.829006
6323.755707
6504.688321
6532.087345
5931.158738
6470.256971
6685.386457
6921.798023
6724.205048
6813.264207
6375.123885
5748.779139
6116.989347
6439.36809
6458.941607
6374.141649
6430.652655
6722.079755
6853.644995
6752.820364
5929.06305
5792.293934
5845.589138
6117.644468
6036.408641
6392.193485
6499.894625
6356.244971
6634.720452
6782.464552
5837.068164
5482.035213
5987.083129
5672.281531
5592.992486
6119.285836
5935.372719
6015.626519
5848.065089
6252.511632
3366.079269
4736.745685
4457.136573
4227.942361
4263.544228
4051.467111
4151.966184
4135.019456
4194.951417
4313.792486
4682.489883
4577.429001
4462.127674
4665.037437
4775.543537
4938.573302
5020.930144
4537.928069
4934.900138
4982.872729
5295.518021
5220.227218
4995.262996
5282.64829
5510.284309
5541.648505
5311.222745
5554.410326
5582.190553
4460.845907
4137.898993
5884.030762
5868.789417
5497.039582
5772.762733
5395.742866
5857.533834
5649.934697
5850.836204
6338.184049
6245.444341
6166.270982
6351.829979
6062.320244
6187.021889
6399.597573
6452.570329
7053.806842
7039.557591
6521.127845
7509.208277
7013.41372
6475.132712
6968.091704
7102.239759
7501.409666
7439.626494
7741.28354
8261.530153
6237.830158
3734.794706
5892.393684
5532.174865
5541.574189
6254.862087
5793.73203
5588.230839
5997.867159
5637.51153
6048.484707
6475.738697
5897.245932
6189.754958
6037.91553
6177.764653
6092.830594
6428.438931
6625.801048
6571.81574
6392.797438
7193.401355
6667.884872
7065.213835
6629.386796
6675.097255
7305.748943
7798.510982
7243.062863
7821.593359
5868.537902
3758.596945
5418.706624
6153.982838
5625.730949
6059.808077
5440.693273
5837.99188
5905.845452
6042.638183
5547.31517
6056.828321
6001.744013
6334.454455
5898.990862
6488.1578
6279.159355
6026.592871
6654.254114
6675.903667
6287.414466
6813.527568
6887.408376
7080.785827
6833.256356
6790.485519
6832.709242
7380.451369
8072.016242
7775.420471
5969.961833
3870.230887
5472.750929
5499.602973
5952.042477
5551.885127
5585.484287
5301.824632
6273.545884
6139.282211
6346.75632
5931.501083
5375.849474
5964.422905
5647.94387
6076.551218
5997.181141
6533.203077
6079.865502
7143.763863
6361.246125
6613.052482
6705.265628
6951.073308
6829.662166
7203.036611
7044.929173
7154.725659
7595.214693
7990.406504
6441.42219
4124.497553
5191.860752
5302.861536
5648.383398
5427.92213
5905.981402
5721.240572
5526.107596
5615.072269
5973.552825
5927.062677
6313.731945
5773.52406
5881.295005
6418.697199
6154.101895
6537.916155
6375.489774
6532.213857
6721.302806
7016.210698
6584.34482
6837.167671
6824.995414
7045.885659
7057.989308
6601.56028
7402.027032
8702.800436
6874.928551
3683.49227
5268.292926
5195.024359
5521.015286
5528.592602
5635.075381
5287.80789
5758.589807
5809.538006
5530.899882
5623.988023
6522.422721
5931.41523
5969.959999
6028.745978
6369.327044
6370.867537
6588.149745
6598.645764
6724.937788
7095.34305
7112.656116
6692.328135
7290.566601
6857.7744
7502.000953
6867.532508
7354.619943
7455.874928
6383.663352
3425.602804
5387.879307
5268.197891
5873.206591
5848.695871
5924.071331
5757.242448
5819.47106
6426.087577
5826.230476
5853.6202
6166.895564
6510.926972
6192.008636
6282.595582
6289.238783
6507.56899
6123.378711
6031.803062
6547.99938
6210.739048
6718.075743
6635.865614
6875.129697
6800.121782
6825.610364
7138.892688
7410.66045
8215.287854
6857.634394
3433.14347
5208.543301
5035.000933
5351.409449
6113.949676
6265.029871
5584.340838
6188.649689
5442.015113
6392.737205
6207.972824
5893.48939
6389.12025
5989.699015
6341.361135
6582.742646
6413.118584
6069.677837
6844.665202
6659.879015
6967.896508
6847.871463
6892.309158
6914.973632
6665.010336
7689.481422
7113.832584
7246.172725
8318.020148
7243.805658
3777.89973
5867.552517
5603.665211
5750.218916
5799.595408
6029.723037
6145.862935
5673.397999
6204.235141
6097.712401
6457.829577
5923.645095
6621.980629
6319.216366
6179.584234
6572.578632
6359.31679
6171.199325
6837.780171
6954.394821
6832.199669
6698.467565
6852.497531
6715.033138
7035.516779
7000.81715
7201.53435
7708.796883
8193.469642
7527.630259
)
;

boundaryField
{
    inlet
    {
        type            calculated;
        value           nonuniform List<scalar> 
20
(
1067.810196
1248.672843
543.5121089
425.9241644
187.4890364
177.7754865
102.5068518
144.9420135
82.64064701
27.75340767
46.2544448
34.14151231
28.93118045
30.42741694
10.92337392
26.15469537
32.12765502
26.53061631
18.51538881
7.212546778
)
;
    }
    outlet
    {
        type            calculated;
        value           nonuniform List<scalar> 
70
(
3323.230554
4787.739472
4160.314877
4962.468371
5082.744589
5758.644213
5116.648965
5416.071291
5481.79706
5773.338544
6015.400797
6602.828841
6622.807346
6730.261424
7160.918043
6958.693719
6813.264207
6752.820364
6782.464552
6252.511632
7.212546778
53.44601905
1718.34229
6953.291615
4321.325226
1868.71189
3340.564516
4801.876758
4330.669868
3704.912598
3651.142508
4312.132042
4162.736487
3984.737135
4124.906234
3961.812443
4096.983949
3854.915988
4225.282103
3750.034397
3952.940639
4201.255455
4113.791995
4054.588551
4093.94332
4132.996734
4293.418357
4255.184713
4277.298055
4426.953268
4636.939168
4592.557665
4839.323402
5162.001296
5080.96254
5140.95175
5095.941951
5538.204821
5591.919541
5696.110438
5837.068164
5482.035213
5987.083129
5672.281531
5592.992486
6119.285836
5935.372719
6015.626519
5848.065089
6252.511632
)
;
    }
    wall
    {
        type            calculated;
        value           uniform 0;
    }
    frontAndBack
    {
        type            empty;
    }
}


// ************************************************************************* //
