/*--------------------------------*- C++ -*----------------------------------*\
| =========                 |                                                 |
| \\      /  F ield         | OpenFOAM: The Open Source CFD Toolbox           |
|  \\    /   O peration     | Version:  v1912                                 |
|   \\  /    A nd           | Website:  www.openfoam.com                      |
|    \\/     M anipulation  |                                                 |
\*---------------------------------------------------------------------------*/
FoamFile
{
    version     2.0;
    format      ascii;
    class       volVectorField;
    location    "6.02";
    object      grad(rho);
}
// * * * * * * * * * * * * * * * * * * * * * * * * * * * * * * * * * * * * * //

dimensions      [1 -4 0 0 0 0 0];


internalField   nonuniform List<vector> 
1900
(
(127590 -0.14166 0)
(-124747 0.437643 0)
(-9207.74 -0.734702 0)
(-2874.57 -1.7802 0)
(-2160.87 -3.81516 0)
(-1113.66 -3.5456 0)
(-536.643 -13.7055 0)
(-274.44 8.27804 0)
(-35.8349 58.6163 0)
(1057.62 29.9471 0)
(127591 -0.227467 0)
(-124747 0.594171 0)
(-9209.96 -1.20344 0)
(-2877.66 -2.88841 0)
(-2162.63 -4.50943 0)
(-1123.55 -0.768043 0)
(-524.819 -13.0659 0)
(-202.118 4.99535 0)
(-14.1659 31.3144 0)
(158.709 -16.8736 0)
(127591 -4.27036e-08 0)
(-124747 -1.5703e-08 0)
(-9211.22 9.66338e-09 0)
(-2877.88 1.21858e-08 0)
(-2158.75 1.38023e-08 0)
(-1122.21 1.00009e-08 0)
(-530.879 2.78888e-09 0)
(-230.06 5.71987e-09 0)
(-57.7038 9.87654e-09 0)
(3.56209 2.41585e-09 0)
(127591 0.227467 0)
(-124747 -0.594171 0)
(-9209.96 1.20344 0)
(-2877.66 2.88841 0)
(-2162.63 4.50943 0)
(-1123.55 0.768043 0)
(-524.819 13.0659 0)
(-202.118 -4.99535 0)
(-14.1659 -31.3144 0)
(158.709 16.8736 0)
(127590 0.14166 0)
(-124747 -0.437643 0)
(-9207.74 0.734702 0)
(-2874.57 1.7802 0)
(-2160.87 3.81516 0)
(-1113.66 3.5456 0)
(-536.643 13.7055 0)
(-274.44 -8.27804 0)
(-35.8349 -58.6163 0)
(1057.62 -29.9471 0)
(109.775 -715.956 1.26632e-11)
(-1990.65 -485.6 -1.50191e-11)
(-3110.13 -466.709 -1.88869e-11)
(-2906.63 -326.34 0)
(-25723.9 -7516.51 -7.90031e-11)
(-331.489 -883.504 1.25338e-11)
(-1321.01 -599.55 1.50191e-11)
(-2736.77 -499.716 1.88869e-11)
(-5595.99 106.221 0)
(-24449.5 -6425.39 0)
(-632.597 1.73774e-09 0)
(-1276.05 3.50597e-09 0)
(-2478.32 3.28133e-09 0)
(-5222.69 5.31561e-09 0)
(-26724 2.22045e-09 0)
(-331.489 883.504 1.25338e-11)
(-1321.01 599.55 1.50191e-11)
(-2736.77 499.716 1.88869e-11)
(-5595.99 -106.221 0)
(-24449.5 6425.39 0)
(109.775 715.956 -3.77309e-11)
(-1990.65 485.6 -1.50191e-11)
(-3110.13 466.709 -1.88869e-11)
(-2906.63 326.34 -5.03345e-11)
(-25723.9 7516.51 7.90031e-11)
(-46549.5 14777.9 1.811e-11)
(-15599.7 6832.29 -9.91913e-12)
(-3371.11 3159.96 0)
(543.014 1828.27 6.28254e-12)
(-3145.01 1817.2 -2.82023e-12)
(-41857.3 19160.1 -9.27756e-12)
(-18140.7 6001.91 5.06245e-12)
(-4659.52 1809.71 0)
(247.942 649.589 -3.96589e-12)
(-2517.96 910.381 7.25593e-13)
(-43356.7 -8.9715e-11 0)
(-20079.7 -1.55621e-09 0)
(-5096.06 -1.00331e-09 0)
(169.326 1.84312e-09 1.59418e-12)
(-2317.6 -1.28552e-09 -1.45119e-12)
(-41857.3 -19160.1 -9.27756e-12)
(-18140.7 -6001.91 5.06245e-12)
(-4659.52 -1809.71 0)
(247.942 -649.589 -3.96589e-12)
(-2517.96 -910.381 7.25593e-13)
(-46549.5 -14777.9 9.27756e-12)
(-15599.7 -6832.29 -2.05766e-13)
(-3371.11 -3159.96 0)
(543.014 -1828.27 5.50614e-14)
(-3145.01 -1817.2 2.82023e-12)
(-6544.48 4453.16 0)
(-3666.33 -474.995 0)
(1191.64 -2374.53 0)
(5581.72 -2187.57 0)
(5428.75 365.468 0)
(1846.79 1225.73 0)
(-322.426 1443.93 0)
(-1904.88 1161.77 0)
(-2816.47 680.795 0)
(-2921.18 358.522 0)
(-2233.08 168.581 0)
(-1309.86 66.4475 0)
(-796.59 26.1723 0)
(-641.761 16.0519 0)
(-584.155 17.5974 0)
(-514.944 17.3698 0)
(-398.228 6.00902 0)
(-257.27 -0.12474 0)
(-151.21 -1.79919 0)
(-96.3135 -1.76201 0)
(-73.8087 -1.44216 0)
(-63.9928 -1.26716 0)
(-56.2965 -1.31702 0)
(-47.0612 -1.52755 0)
(-35.5441 -1.8024 0)
(-22.9222 -2.08128 0)
(-8.65993 -2.2913 0)
(8.69442 -2.44837 0)
(28.8376 -2.54666 0)
(45.2653 -2.40451 0)
(63.8584 -2.43615 0)
(78.1046 -2.07708 0)
(104.766 -2.98447 0)
(141.233 -1.17449 0)
(229.92 -2.40544 0)
(290.67 5.14877 0)
(260.686 0.903222 0)
(416.052 -1.3916 0)
(-415.794 -9.46236 0)
(9391.42 14.8407 0)
(-6571.94 3198.93 0)
(-4668.39 529.847 0)
(648.182 -296.826 0)
(5769.08 -580.904 0)
(5838.95 330.292 0)
(1945.11 637.195 0)
(-404.507 621.713 0)
(-2064.32 434.114 0)
(-2938.78 269.14 0)
(-2987.54 170.365 0)
(-2265.77 80.8849 0)
(-1323.17 27.8649 0)
(-800.567 10.2824 0)
(-642.577 7.70617 0)
(-584.145 6.7554 0)
(-515.937 6.54929 0)
(-399.848 1.81304 0)
(-257.82 -0.430235 0)
(-151.29 -0.896408 0)
(-96.2681 -0.808334 0)
(-73.7611 -0.657272 0)
(-63.98 -0.579051 0)
(-56.3204 -0.608447 0)
(-47.1064 -0.711956 0)
(-35.5962 -0.845263 0)
(-22.969 -0.983253 0)
(-8.69695 -1.09374 0)
(8.66521 -1.18608 0)
(28.8352 -1.25902 0)
(45.2665 -1.22689 0)
(63.8831 -1.27282 0)
(78.0341 -1.12801 0)
(104.864 -1.58486 0)
(141.228 -0.653183 0)
(230.464 -1.54101 0)
(291.107 1.95238 0)
(260.416 0.852542 0)
(414.318 1.95053 0)
(-415.85 -6.3893 0)
(9363.51 -1.97201 0)
(-6494.44 1.75536e-07 0)
(-4683.28 -4.73278e-07 0)
(868.512 -4.29555e-09 0)
(5764.16 2.03981e-06 0)
(5783.1 9.85668e-07 0)
(1931.57 5.50089e-07 0)
(-381.504 1.42706e-07 0)
(-2007.44 -5.37106e-08 0)
(-2893.2 -7.40256e-08 0)
(-2975.95 -5.8975e-08 0)
(-2274.53 -4.52971e-08 0)
(-1330.4 -3.09571e-08 0)
(-802.454 -2.52e-08 0)
(-642.787 -5.19988e-09 0)
(-584.492 4.20674e-09 0)
(-516.382 -1.5527e-08 0)
(-400.258 -7.85634e-09 0)
(-258.059 1.59872e-09 0)
(-151.32 3.31048e-09 0)
(-96.244 7.99361e-09 0)
(-73.742 1.18289e-08 0)
(-63.9786 1.41382e-08 0)
(-56.3352 1.32823e-08 0)
(-47.1301 8.14702e-09 0)
(-35.623 3.78687e-09 0)
(-22.9945 1.5422e-09 0)
(-8.71893 6.21725e-10 0)
(8.64634 -2.18007e-10 0)
(28.8257 6.66941e-09 0)
(45.2612 1.31935e-08 0)
(63.8872 1.4114e-08 0)
(78.0138 5.92657e-09 0)
(104.904 -8.50229e-09 0)
(141.246 2.12032e-08 0)
(230.678 3.47359e-08 0)
(291.367 1.63102e-09 0)
(260.686 -6.79376e-08 0)
(413.945 1.29674e-08 0)
(-416.935 1.45282e-07 0)
(9347.88 1.35205e-07 0)
(-6571.94 -3198.93 0)
(-4668.39 -529.847 0)
(648.182 296.826 0)
(5769.08 580.904 0)
(5838.95 -330.292 0)
(1945.11 -637.195 0)
(-404.507 -621.713 0)
(-2064.32 -434.114 0)
(-2938.78 -269.14 0)
(-2987.54 -170.365 0)
(-2265.77 -80.8849 0)
(-1323.17 -27.8649 0)
(-800.567 -10.2824 0)
(-642.577 -7.70617 0)
(-584.145 -6.7554 0)
(-515.937 -6.54929 0)
(-399.848 -1.81304 0)
(-257.82 0.430235 0)
(-151.29 0.896408 0)
(-96.2681 0.808334 0)
(-73.7611 0.657272 0)
(-63.98 0.579051 0)
(-56.3204 0.608447 0)
(-47.1064 0.711956 0)
(-35.5962 0.845263 0)
(-22.969 0.983253 0)
(-8.69695 1.09374 0)
(8.66521 1.18608 0)
(28.8352 1.25902 0)
(45.2665 1.22689 0)
(63.8831 1.27282 0)
(78.0341 1.12801 0)
(104.864 1.58486 0)
(141.228 0.653183 0)
(230.464 1.54101 0)
(291.107 -1.95238 0)
(260.416 -0.852543 0)
(414.318 -1.95053 0)
(-415.85 6.3893 0)
(9363.51 1.97201 0)
(-6544.48 -4453.16 0)
(-3666.33 474.995 0)
(1191.64 2374.53 0)
(5581.72 2187.57 0)
(5428.75 -365.468 0)
(1846.79 -1225.73 0)
(-322.426 -1443.93 0)
(-1904.88 -1161.77 0)
(-2816.47 -680.795 0)
(-2921.18 -358.522 0)
(-2233.08 -168.581 0)
(-1309.86 -66.4475 0)
(-796.59 -26.1723 0)
(-641.761 -16.0519 0)
(-584.155 -17.5974 0)
(-514.944 -17.3698 0)
(-398.228 -6.00902 0)
(-257.27 0.12474 0)
(-151.21 1.79919 0)
(-96.3135 1.76201 0)
(-73.8087 1.44216 0)
(-63.9928 1.26716 0)
(-56.2965 1.31702 0)
(-47.0612 1.52755 0)
(-35.5441 1.8024 0)
(-22.9222 2.08128 0)
(-8.65993 2.2913 0)
(8.69442 2.44837 0)
(28.8376 2.54666 0)
(45.2653 2.40451 0)
(63.8584 2.43615 0)
(78.1046 2.07708 0)
(104.766 2.98447 0)
(141.233 1.17449 0)
(229.92 2.40544 0)
(290.67 -5.14877 0)
(260.686 -0.903222 0)
(416.052 1.3916 0)
(-415.794 9.46236 0)
(9391.42 -14.8407 0)
(-2154.95 -962.812 0)
(-1544.19 2381.56 0)
(1094.06 3750.53 0)
(4266.99 2964.59 0)
(4172.18 -270.817 0)
(1382.31 -1458.48 0)
(-459.289 -1608.31 0)
(-1769.98 -1385.01 0)
(-2576.34 -953.022 0)
(-2742.96 -620.006 0)
(-2120.36 -323.309 0)
(-1249.22 -125.607 0)
(-773.554 -48.9241 0)
(-638.142 -31.9715 0)
(-584.959 -34.6907 0)
(-509.817 -29.8489 0)
(-390.748 -12.7871 0)
(-253.557 -1.07136 0)
(-150.355 2.82106 0)
(-96.4396 2.97746 0)
(-74.0165 2.41714 0)
(-64.0436 2.1148 0)
(-56.1847 2.21643 0)
(-46.8543 2.60099 0)
(-35.3092 3.09335 0)
(-22.7164 3.58556 0)
(-8.5095 3.95066 0)
(8.7916 4.21253 0)
(28.805 4.35412 0)
(45.1986 4.10664 0)
(63.7061 4.05792 0)
(78.2966 3.53393 0)
(104.41 4.61794 0)
(140.86 2.48284 0)
(227.128 2.47733 0)
(289.537 -8.17477 0)
(264.207 -2.24304 0)
(418.815 7.39598 0)
(-426.096 26.6881 0)
(9423.52 10.4716 0)
(-1000.39 -6.78 0)
(-262.34 541.553 0)
(1805.79 1464.3 0)
(2411.6 862.584 0)
(1840.33 -1142.21 0)
(807.004 -1857.05 0)
(-178.234 -1914.32 0)
(-1345.75 -1604.98 0)
(-2208.05 -1254.92 0)
(-2409.94 -888.786 0)
(-1817.1 -458.317 0)
(-1077.96 -175.894 0)
(-718.712 -77.9084 0)
(-629.986 -57.0356 0)
(-581.679 -53.8021 0)
(-496.587 -41.4995 0)
(-374.508 -19.4201 0)
(-244.221 -2.67776 0)
(-147.767 3.82637 0)
(-96.6352 4.5228 0)
(-74.5286 3.83857 0)
(-64.159 3.44577 0)
(-55.888 3.6432 0)
(-46.3271 4.25921 0)
(-34.7213 5.02916 0)
(-22.2064 5.79422 0)
(-8.13642 6.31962 0)
(9.0311 6.72003 0)
(28.753 6.94988 0)
(45.0156 6.57454 0)
(63.3882 6.45528 0)
(78.5413 5.7871 0)
(103.944 7.01061 0)
(139.37 4.74688 0)
(221.146 3.23892 0)
(286.729 -9.43966 0)
(273.803 -4.10676 0)
(442.45 13.1202 0)
(-407.306 47.9421 0)
(9307.37 41.0679 0)
(-1841.19 -628.895 0)
(-126.603 117.994 0)
(1403.42 -398.463 0)
(1755.27 -881.472 0)
(1551.43 -1515.2 0)
(638.273 -1598.53 0)
(-216.378 -1744.02 0)
(-1134.55 -1655.83 0)
(-1886.19 -1425.18 0)
(-1975.33 -986.999 0)
(-1433.39 -490.72 0)
(-882.649 -203.943 0)
(-659.017 -109.854 0)
(-614.912 -84.5083 0)
(-569.988 -72.4474 0)
(-476.685 -51.6182 0)
(-353.338 -24.5332 0)
(-231.155 -4.01269 0)
(-143.416 4.71714 0)
(-96.4278 6.16724 0)
(-75.0543 5.59974 0)
(-64.2319 5.24908 0)
(-55.4009 5.59707 0)
(-45.5187 6.46552 0)
(-33.83 7.52144 0)
(-21.4729 8.53891 0)
(-7.61736 9.16553 0)
(9.39895 9.68904 0)
(28.6648 9.96447 0)
(44.7219 9.41007 0)
(62.9473 9.20246 0)
(78.8317 8.37658 0)
(103.408 9.62549 0)
(137.225 7.22458 0)
(213.458 4.74343 0)
(282.459 -8.92712 0)
(285.946 -4.36246 0)
(468.971 16.0809 0)
(-399.165 53.1529 0)
(9178.99 31.5096 0)
(-2662.41 -1081.87 0)
(-40.2868 55.1017 0)
(842.669 -729.53 0)
(1335.48 -981.628 0)
(1149.34 -1251.27 0)
(586.505 -1462.88 0)
(-233.45 -1593.6 0)
(-1038.51 -1600.59 0)
(-1563.54 -1381.91 0)
(-1509.46 -915.024 0)
(-1062.52 -456.851 0)
(-710.945 -218.699 0)
(-603.62 -137.59 0)
(-593.94 -109.168 0)
(-549.984 -87.2504 0)
(-450.415 -57.9392 0)
(-328.633 -26.4432 0)
(-216.035 -3.79296 0)
(-137.958 6.12706 0)
(-95.7847 8.20864 0)
(-75.4133 7.94544 0)
(-64.1616 7.79056 0)
(-54.7158 8.32907 0)
(-44.4727 9.40566 0)
(-32.7233 10.6473 0)
(-20.6221 11.7713 0)
(-7.02811 12.4967 0)
(9.80099 13.0552 0)
(28.4842 13.1238 0)
(44.2813 12.3217 0)
(62.3923 11.8916 0)
(78.9489 10.8655 0)
(102.834 11.6815 0)
(134.666 9.37119 0)
(205.582 6.18779 0)
(277.954 -6.10521 0)
(297.901 -3.98553 0)
(497.874 16.8731 0)
(-392.439 56.5099 0)
(9071.97 34.2406 0)
(-3637.9 -1205.75 0)
(212.926 -383.934 0)
(404.389 -670.572 0)
(1252.5 -940.491 0)
(1087.68 -879.84 0)
(308.384 -1270.52 0)
(-349.081 -1454.35 0)
(-930.557 -1448.51 0)
(-1225.55 -1200.45 0)
(-1083.91 -757.172 0)
(-762.387 -398.335 0)
(-574.997 -219.908 0)
(-553.469 -154.334 0)
(-566.404 -125.654 0)
(-520.622 -94.7817 0)
(-418.089 -58.5424 0)
(-301.161 -24.4258 0)
(-199.77 -0.950009 0)
(-131.851 9.30124 0)
(-94.6756 11.8397 0)
(-75.4572 11.978 0)
(-63.8622 12.1176 0)
(-53.8445 12.856 0)
(-43.2848 14.0662 0)
(-31.5504 15.3757 0)
(-19.6907 16.511 0)
(-6.38012 17.3681 0)
(10.0032 17.8574 0)
(27.9579 17.5643 0)
(43.5346 16.4883 0)
(61.5441 15.7689 0)
(78.6293 14.5317 0)
(101.968 14.7962 0)
(131.931 12.6425 0)
(198.544 9.40664 0)
(272.655 -0.186634 0)
(308.089 -0.880964 0)
(527.266 20.9261 0)
(-382.429 58.5415 0)
(8979.06 44.9571 0)
(-4487.82 -781.89 0)
(475.43 -422.01 0)
(306.35 -447.393 0)
(1133.82 -595.594 0)
(831.308 -802.963 0)
(32.8855 -1164.35 0)
(-404.966 -1280.08 0)
(-793.84 -1227.88 0)
(-897.338 -958.125 0)
(-736.513 -588.119 0)
(-544.791 -335.291 0)
(-475.817 -213.711 0)
(-512.794 -165.764 0)
(-536.553 -136.057 0)
(-485.313 -96.8852 0)
(-382.618 -54.89 0)
(-273.135 -18.9049 0)
(-183.534 3.99792 0)
(-125.633 14.1536 0)
(-93.2053 17.0886 0)
(-75.1455 17.7141 0)
(-63.3154 18.208 0)
(-52.8381 19.1137 0)
(-42.0447 20.3381 0)
(-30.3675 21.5649 0)
(-18.7021 22.5906 0)
(-5.73069 23.3891 0)
(9.99006 23.546 0)
(27.165 22.7391 0)
(42.5512 21.2228 0)
(60.5068 19.953 0)
(78.0115 18.2558 0)
(101.014 17.7424 0)
(129.472 15.5202 0)
(193.219 12.4523 0)
(268.041 4.54364 0)
(318.246 2.54443 0)
(555.135 25.0772 0)
(-369.281 56.842 0)
(8885.68 44.2727 0)
(-4865.49 -361.149 0)
(535.26 -323.88 0)
(237.117 -329.411 0)
(909.86 -431.826 0)
(539.609 -836.255 0)
(-151.38 -1029.98 0)
(-410.307 -1100 0)
(-620.312 -985.096 0)
(-609.056 -719.371 0)
(-483.72 -449.613 0)
(-401.594 -278.657 0)
(-411.635 -202.215 0)
(-478.639 -169.46 0)
(-500.029 -136.574 0)
(-442.407 -90.5639 0)
(-342.944 -45.2027 0)
(-244.414 -8.10604 0)
(-167.913 13.266 0)
(-119.237 22.9598 0)
(-91.2445 26.1672 0)
(-74.3786 27.2486 0)
(-62.5136 28.0498 0)
(-51.7918 29.0258 0)
(-40.9227 30.1224 0)
(-29.3798 31.098 0)
(-17.9329 31.8384 0)
(-5.45947 32.3425 0)
(9.37686 32.0034 0)
(25.7191 30.5196 0)
(40.8498 28.3941 0)
(58.6851 26.3606 0)
(76.4991 23.9433 0)
(99.3317 22.4626 0)
(126.834 19.8561 0)
(187.966 17.0653 0)
(263.108 9.84046 0)
(327.876 7.88995 0)
(579.589 29.1233 0)
(-363.931 54.5046 0)
(8788.42 42.5279 0)
(-5141.83 -236.512 0)
(506.014 -306.468 0)
(202.329 -340.91 0)
(645.404 -392.026 0)
(254.909 -860.599 0)
(-221.266 -904.717 0)
(-361.717 -897.026 0)
(-427.056 -730.346 0)
(-381.327 -510.525 0)
(-311.824 -338.339 0)
(-306.389 -232.094 0)
(-370.591 -189.357 0)
(-449.54 -165.952 0)
(-460.526 -128.313 0)
(-397.264 -77.7062 0)
(-303.158 -31.0848 0)
(-216.792 3.87399 0)
(-153.598 23.7685 0)
(-113.201 32.8764 0)
(-89.0725 36.3305 0)
(-73.3314 37.8493 0)
(-61.6028 38.94 0)
(-50.8408 39.9717 0)
(-40.0479 40.9291 0)
(-28.7139 41.6449 0)
(-17.5028 42.0852 0)
(-5.57166 42.2277 0)
(8.23344 41.3962 0)
(23.6869 39.2692 0)
(38.5434 36.5778 0)
(56.2179 33.8445 0)
(74.2554 30.8006 0)
(97.0751 28.4741 0)
(124.271 25.5965 0)
(183.568 23.0046 0)
(259.199 16.7018 0)
(336.828 15.3194 0)
(600.055 34.6439 0)
(-356.364 54.7055 0)
(8679.65 42.4278 0)
(-5449.58 -246.033 0)
(434.658 -330.355 0)
(154.671 -377.308 0)
(409.068 -480.572 0)
(45.5617 -785.523 0)
(-186.482 -752.029 0)
(-242.278 -659.664 0)
(-247.865 -503.137 0)
(-231.304 -355.485 0)
(-215.414 -253.78 0)
(-258.03 -197.337 0)
(-347.899 -179.136 0)
(-419.814 -157.858 0)
(-414.992 -113.78 0)
(-348.714 -60.3561 0)
(-264.331 -12.6947 0)
(-191.556 18.6765 0)
(-139.965 37.1445 0)
(-107.131 45.8289 0)
(-86.4524 49.6177 0)
(-71.864 51.5465 0)
(-60.4683 52.8018 0)
(-49.875 53.7057 0)
(-39.3104 54.324 0)
(-28.2657 54.6097 0)
(-17.3713 54.6565 0)
(-6.12336 54.0331 0)
(6.52591 52.4413 0)
(21.0759 49.7692 0)
(35.6223 46.3769 0)
(53.118 42.9061 0)
(71.324 39.1888 0)
(94.3169 36.1505 0)
(121.563 32.9599 0)
(179.395 30.4962 0)
(255.702 24.6229 0)
(345.166 24.349 0)
(617.543 41.3654 0)
(-356.43 56.8247 0)
(8561.26 42.4657 0)
(-5833.18 -283.813 0)
(379.513 -336.462 0)
(57.5749 -393.27 0)
(252.034 -562.081 0)
(-6.67676 -579.478 0)
(-99.9834 -529.638 0)
(-121.876 -431.091 0)
(-133.938 -336.53 0)
(-141.038 -250.827 0)
(-159.428 -195.378 0)
(-234.459 -173.02 0)
(-332.547 -166.763 0)
(-386.561 -140.432 0)
(-366.569 -91.1017 0)
(-299.855 -37.9979 0)
(-226.999 5.67613 0)
(-168.766 33.5457 0)
(-127.433 49.6483 0)
(-101.181 57.6099 0)
(-83.5628 61.5358 0)
(-70.2631 63.8102 0)
(-59.5221 65.3128 0)
(-49.3739 66.3274 0)
(-39.1768 66.9846 0)
(-28.3935 67.3122 0)
(-18.0584 67.3694 0)
(-7.70637 66.3422 0)
(4.12458 64.5716 0)
(17.843 61.8411 0)
(31.9298 58.239 0)
(49.2913 54.5154 0)
(67.7454 50.6412 0)
(91.0727 47.4964 0)
(118.822 44.5311 0)
(175.534 42.6409 0)
(253.275 37.6825 0)
(352.962 39.3351 0)
(631.35 54.3204 0)
(-355.304 65.3413 0)
(8423.51 53.1113 0)
(-6213.47 -245.439 0)
(329.181 -266.904 0)
(-62.7433 -356.584 0)
(229.631 -458.204 0)
(76.8251 -353.954 0)
(-43.4908 -329.104 0)
(-56.1924 -274.459 0)
(-74.1565 -222.808 0)
(-95.2844 -172.764 0)
(-140.437 -149.651 0)
(-230.454 -150.645 0)
(-316.495 -146.688 0)
(-346.905 -115.777 0)
(-316.283 -62.6366 0)
(-255.456 -10.2817 0)
(-195.388 26.4516 0)
(-149.183 50.8132 0)
(-116.776 64.5104 0)
(-95.6761 71.8096 0)
(-80.4775 75.8305 0)
(-68.2243 78.3098 0)
(-58.0426 79.8431 0)
(-48.264 80.7735 0)
(-38.3614 81.3689 0)
(-27.8949 81.6837 0)
(-18.306 81.6462 0)
(-8.81948 80.5057 0)
(2.1885 78.8673 0)
(14.9736 76.0637 0)
(28.563 72.563 0)
(45.7964 68.9542 0)
(64.5602 65.2383 0)
(88.429 62.4765 0)
(116.884 60.1025 0)
(172.796 59.172 0)
(252.516 55.5398 0)
(361.198 59.0041 0)
(642.604 72.4838 0)
(-357.596 80.1046 0)
(8259.63 68.3953 0)
(-6461.03 -149.227 0)
(272.409 -165.975 0)
(-126.769 -237.432 0)
(254.568 -257.692 0)
(117.728 -200.898 0)
(-23.3799 -196.331 0)
(-19.4445 -167.327 0)
(-35.9405 -142.232 0)
(-70.5408 -119.419 0)
(-138.112 -118.527 0)
(-231.604 -127.294 0)
(-298.948 -117.979 0)
(-305.566 -80.6696 0)
(-264.91 -29.7474 0)
(-214.006 16.139 0)
(-168.126 47.3326 0)
(-132.091 67.2749 0)
(-107.2 78.0731 0)
(-90.2727 83.884 0)
(-77.299 87.3893 0)
(-66.3964 90.092 0)
(-57.148 92.384 0)
(-47.9035 94.3239 0)
(-38.2996 95.8719 0)
(-28.1263 96.8689 0)
(-19.1936 97.2 0)
(-10.3843 96.3371 0)
(-0.155858 94.9901 0)
(11.7679 92.2188 0)
(25.0788 88.955 0)
(42.2329 85.6758 0)
(61.5032 82.437 0)
(86.1236 80.4872 0)
(115.638 79.2622 0)
(171.137 79.9758 0)
(253.114 78.6342 0)
(369.289 85.0256 0)
(651.683 99.1561 0)
(-359.244 105.505 0)
(8063.59 102.059 0)
(-6600.14 -54.3602 0)
(244.184 -89.1776 0)
(-151.126 -126.465 0)
(264.836 -136.268 0)
(135.955 -95.7207 0)
(-11.1398 -91.8556 0)
(-4.06048 -74.0577 0)
(-27.9909 -69.1853 0)
(-72.4423 -71.3471 0)
(-148.026 -90.5694 0)
(-229.926 -100.242 0)
(-271.567 -78.7843 0)
(-261.882 -32.3509 0)
(-222.994 14.3238 0)
(-181.179 51.1037 0)
(-146.112 78.4357 0)
(-119.56 95.5083 0)
(-100.771 105.478 0)
(-86.6986 111.474 0)
(-74.4953 115.346 0)
(-63.4113 118.026 0)
(-53.9646 119.729 0)
(-44.9029 120.74 0)
(-35.9089 121.308 0)
(-26.6151 121.413 0)
(-18.8186 121.134 0)
(-10.949 119.992 0)
(-1.77996 118.568 0)
(9.15788 115.678 0)
(22.2579 112.914 0)
(39.5155 110.088 0)
(59.5604 107.423 0)
(85.3696 106.466 0)
(116.391 106.418 0)
(172.191 108.661 0)
(257.382 110.227 0)
(380.974 118.769 0)
(662.338 133.671 0)
(-354.798 139.917 0)
(7809.9 152.276 0)
(-6655.08 56.735 0)
(202.927 -4.12387 0)
(-172.147 -30.7047 0)
(284.194 -32.8007 0)
(160.526 -3.49491 0)
(-2.50473 -6.26043 0)
(2.40145 -1.42419 0)
(-33.3285 -11.6326 0)
(-91.1472 -30.7664 0)
(-165.957 -53.6849 0)
(-220.247 -53.6657 0)
(-233.525 -21.1566 0)
(-215.844 22.4369 0)
(-184.49 63.7833 0)
(-152.226 96.0501 0)
(-125.336 120.136 0)
(-106.032 136.253 0)
(-91.8153 146.809 0)
(-80.7635 153.211 0)
(-70.9846 156.753 0)
(-62.1725 159.132 0)
(-54.5327 160.664 0)
(-46.3823 160.744 0)
(-37.6509 159.443 0)
(-28.2936 157.443 0)
(-20.563 155.49 0)
(-12.8568 153.129 0)
(-4.31323 150.903 0)
(6.31918 147.987 0)
(19.6915 145.793 0)
(36.9412 143.439 0)
(58.0129 141.713 0)
(85.1552 142.108 0)
(117.754 143.632 0)
(174.809 147.571 0)
(262.854 151.737 0)
(391.88 161.656 0)
(672.062 177.374 0)
(-341.315 182.644 0)
(7512.69 208.517 0)
(-6562.22 216.176 0)
(159.924 115.663 0)
(-178.76 106.518 0)
(291.056 107.252 0)
(161.531 108.151 0)
(-9.14442 94.8589 0)
(-9.23732 83.4324 0)
(-56.2661 57.9891 0)
(-112.965 31.975 0)
(-170.092 23.1466 0)
(-198.58 37.7918 0)
(-198.232 72.2837 0)
(-180.03 111.614 0)
(-152.058 148.521 0)
(-126.875 179.004 0)
(-107.371 202.455 0)
(-93.8578 220.848 0)
(-84.4301 235.351 0)
(-77.1157 245.915 0)
(-68.7898 252.234 0)
(-59.6424 254.726 0)
(-52.4113 253.459 0)
(-46.0799 248.954 0)
(-39.0896 242.804 0)
(-30.4246 236.578 0)
(-22.9757 231.787 0)
(-15.369 227.144 0)
(-6.73502 223.51 0)
(4.23414 219.596 0)
(17.8756 215.914 0)
(35.5838 212.444 0)
(58.2773 210.567 0)
(87.2188 211.76 0)
(121.656 214.897 0)
(180.001 220.653 0)
(270.956 228.645 0)
(405.679 240.913 0)
(682.562 254.144 0)
(-324.787 245.911 0)
(7169.4 275.483 0)
(-6285.05 431.845 0)
(97.2573 274.912 0)
(-180.251 274.354 0)
(285.767 265.88 0)
(148.583 237.501 0)
(-26.3241 212.46 0)
(-33.1276 184.164 0)
(-82.9147 151.67 0)
(-124.723 127.583 0)
(-160.351 129.013 0)
(-172.897 149.101 0)
(-162.388 181.252 0)
(-142.379 216.851 0)
(-119.55 247.719 0)
(-100.253 270.824 0)
(-85.0139 286.952 0)
(-74.3317 297.967 0)
(-67.6596 305.809 0)
(-64.4944 311.839 0)
(-62.4937 316.324 0)
(-60.9915 318.366 0)
(-60.0947 317.981 0)
(-56.6505 316.89 0)
(-49.5774 316.12 0)
(-38.9098 314.706 0)
(-29.6543 313.289 0)
(-20.8324 310.312 0)
(-11.586 308.685 0)
(-1.00071 306.139 0)
(12.7988 303.855 0)
(31.7878 303.885 0)
(57.3545 306.029 0)
(89.3282 312.261 0)
(126.323 319.899 0)
(188.057 330.834 0)
(282.377 343.71 0)
(416.452 357.081 0)
(676.879 361.065 0)
(-320.752 327.545 0)
(6756.3 376.922 0)
(-5729.55 1042.5 0)
(8.16015 376.108 0)
(-187.464 545.941 0)
(255.543 522.334 0)
(110.053 436.078 0)
(-60.5423 391.851 0)
(-67.8162 335.331 0)
(-110.789 289.547 0)
(-134.799 257.504 0)
(-149.357 251.922 0)
(-148.241 261.618 0)
(-132.946 277.484 0)
(-115.98 290.184 0)
(-100.047 297.419 0)
(-89.0681 297.97 0)
(-81.2151 293.63 0)
(-75.6866 285.586 0)
(-71.0628 276.125 0)
(-66.9833 268.311 0)
(-62.4996 265.144 0)
(-58.0461 267.805 0)
(-53.8339 276.751 0)
(-47.8728 290.376 0)
(-41.1948 306.733 0)
(-33.1525 322.628 0)
(-27.2092 337.778 0)
(-19.8059 350.934 0)
(-10.756 364.764 0)
(-0.420528 377.493 0)
(15.7032 389.284 0)
(37.6795 402.239 0)
(66.3488 414.67 0)
(100.584 430.462 0)
(139.553 445.558 0)
(202.946 464.374 0)
(296.249 477.58 0)
(422.403 483.692 0)
(654.1 474.837 0)
(-309.507 406.591 0)
(6206.45 715.229 0)
(-5164.18 25718.9 0)
(-381.242 1599.8 0)
(-39.3428 1137.06 0)
(179.898 924.155 0)
(22.8452 752.829 0)
(-123.408 678.501 0)
(-131.711 601.577 0)
(-157.912 550.162 0)
(-160.98 517.144 0)
(-156.387 505.428 0)
(-148.265 504.094 0)
(-134.86 500.912 0)
(-123.168 492.665 0)
(-112.047 477.948 0)
(-103.904 458.079 0)
(-96.9482 436.608 0)
(-91.1997 416.862 0)
(-84.3057 401.705 0)
(-75.0769 391.964 0)
(-62.9817 389.642 0)
(-49.8061 397.865 0)
(-38.3445 417.961 0)
(-27.7584 445.458 0)
(-18.4981 477.331 0)
(-8.99388 511.908 0)
(-2.378 545.428 0)
(5.17186 576.955 0)
(14.008 605.488 0)
(22.6276 630.988 0)
(36.6442 652.069 0)
(56.2505 668.987 0)
(84.5512 682.322 0)
(119.093 695.756 0)
(159.003 709.083 0)
(218.914 724.1 0)
(300.992 723.322 0)
(413.809 701.173 0)
(602.582 632.144 0)
(-89.1018 1207.46 0)
(5951.52 21915.9 0)
(11088 514955 0)
(-23679.8 22872.1 0)
(-838.538 568.723 0)
(-114.719 -47.633 0)
(-126.668 -336.902 0)
(-206.295 -430.596 0)
(-191.488 -516.809 0)
(-192.151 -531.024 0)
(-177.906 -536.858 0)
(-161.932 -516.783 0)
(-152.593 -494.913 0)
(-143.959 -477.123 0)
(-138.109 -465.801 0)
(-133.376 -459.6 0)
(-128.905 -458.359 0)
(-120.933 -458.567 0)
(-109.32 -457.955 0)
(-95.0559 -456.217 0)
(-78.6082 -458.253 0)
(-56.8126 -462.45 0)
(-30.7565 -457.053 0)
(-7.97214 -440.231 0)
(9.33866 -420.785 0)
(22.8394 -404.8 0)
(32.4681 -388.653 0)
(35.4725 -373.403 0)
(38.0694 -365.736 0)
(41.3123 -354.272 0)
(44.4674 -350.517 0)
(52.3201 -346.191 0)
(66.8319 -348.437 0)
(92.1446 -348.429 0)
(126.372 -345.67 0)
(166.866 -330.702 0)
(216.668 -310.442 0)
(274.155 -298.681 0)
(334.54 -300.054 0)
(1141.97 -199.529 0)
(20200.3 19382.1 0)
(-6785.75 445250 0)
(503518 -524859 0)
(-496063 -8694.77 0)
(-22125.6 5997.22 0)
(-692.795 6159.91 0)
(-346.192 6437.51 0)
(-296.773 6842.76 0)
(-228.487 7194.59 0)
(-177.231 7507.25 0)
(-147.257 7791.08 0)
(-115.967 8007.59 0)
(-110.046 8198.84 0)
(-106.807 8352.71 0)
(-106.283 8484.24 0)
(-104.876 8595.58 0)
(-102.91 8692.53 0)
(-96.5587 8771.44 0)
(-88.935 8833.81 0)
(-84.5926 8881.07 0)
(-81.0832 8918.19 0)
(-61.8254 8945.83 0)
(-28.3953 8963.9 0)
(-3.39531 8968.26 0)
(6.38465 8949.5 0)
(12.465 8914.96 0)
(21.2618 8863.52 0)
(19.7058 8796.01 0)
(23.6071 8715.54 0)
(28.6735 8618.65 0)
(30.4149 8514.99 0)
(38.6486 8392.41 0)
(54.0931 8247.36 0)
(87.2178 8061.7 0)
(136.176 7815.73 0)
(192.949 7509.52 0)
(249.771 7157.29 0)
(311.003 6760.21 0)
(509.355 6287.66 0)
(19569 6155.4 0)
(429162 -5755.4 0)
(-432659 -450557 0)
(503518 524859 0)
(-496063 8694.77 0)
(-22125.6 -5997.22 0)
(-692.795 -6159.91 0)
(-346.192 -6437.51 0)
(-296.773 -6842.76 0)
(-228.487 -7194.59 0)
(-177.231 -7507.25 0)
(-147.257 -7791.08 0)
(-115.967 -8007.59 0)
(-110.046 -8198.84 0)
(-106.807 -8352.71 0)
(-106.283 -8484.24 0)
(-104.876 -8595.58 0)
(-102.91 -8692.53 0)
(-96.5587 -8771.44 0)
(-88.935 -8833.81 0)
(-84.5926 -8881.07 0)
(-81.0832 -8918.19 0)
(-61.8254 -8945.83 0)
(-28.3953 -8963.9 0)
(-3.39531 -8968.26 0)
(6.38465 -8949.5 0)
(12.465 -8914.96 0)
(21.2618 -8863.52 0)
(19.7058 -8796.01 0)
(23.6071 -8715.54 0)
(28.6735 -8618.65 0)
(30.4149 -8514.99 0)
(38.6486 -8392.41 0)
(54.0931 -8247.36 0)
(87.2178 -8061.7 0)
(136.176 -7815.73 0)
(192.949 -7509.52 0)
(249.771 -7157.29 0)
(311.003 -6760.21 0)
(509.355 -6287.66 0)
(19569 -6155.4 0)
(429162 5755.4 0)
(-432659 450557 0)
(11088 -514955 0)
(-23679.8 -22872.1 0)
(-838.538 -568.723 0)
(-114.719 47.633 0)
(-126.668 336.902 0)
(-206.295 430.596 0)
(-191.488 516.809 0)
(-192.151 531.024 0)
(-177.906 536.858 0)
(-161.932 516.783 0)
(-152.593 494.913 0)
(-143.959 477.123 0)
(-138.109 465.801 0)
(-133.376 459.6 0)
(-128.905 458.359 0)
(-120.933 458.567 0)
(-109.32 457.955 0)
(-95.0559 456.217 0)
(-78.6082 458.253 0)
(-56.8126 462.45 0)
(-30.7565 457.053 0)
(-7.97214 440.231 0)
(9.33866 420.785 0)
(22.8394 404.8 0)
(32.4681 388.653 0)
(35.4725 373.403 0)
(38.0694 365.736 0)
(41.3123 354.272 0)
(44.4674 350.517 0)
(52.3201 346.191 0)
(66.8319 348.437 0)
(92.1446 348.429 0)
(126.372 345.67 0)
(166.866 330.702 0)
(216.668 310.442 0)
(274.155 298.681 0)
(334.54 300.054 0)
(1141.97 199.529 0)
(20200.3 -19382.1 0)
(-6785.75 -445250 0)
(-5164.18 -25718.9 0)
(-381.242 -1599.8 0)
(-39.3428 -1137.06 0)
(179.898 -924.155 0)
(22.8452 -752.829 0)
(-123.408 -678.501 0)
(-131.711 -601.577 0)
(-157.912 -550.162 0)
(-160.98 -517.144 0)
(-156.387 -505.428 0)
(-148.265 -504.094 0)
(-134.86 -500.912 0)
(-123.168 -492.665 0)
(-112.047 -477.948 0)
(-103.904 -458.079 0)
(-96.9482 -436.608 0)
(-91.1997 -416.862 0)
(-84.3057 -401.705 0)
(-75.0769 -391.964 0)
(-62.9817 -389.642 0)
(-49.8061 -397.865 0)
(-38.3445 -417.961 0)
(-27.7584 -445.458 0)
(-18.4981 -477.331 0)
(-8.99388 -511.908 0)
(-2.378 -545.428 0)
(5.17186 -576.955 0)
(14.008 -605.488 0)
(22.6276 -630.988 0)
(36.6442 -652.069 0)
(56.2505 -668.987 0)
(84.5512 -682.322 0)
(119.093 -695.756 0)
(159.003 -709.083 0)
(218.914 -724.1 0)
(300.992 -723.322 0)
(413.809 -701.173 0)
(602.582 -632.144 0)
(-89.1018 -1207.46 0)
(5951.52 -21915.9 0)
(-5729.55 -1042.5 0)
(8.16015 -376.108 0)
(-187.464 -545.941 0)
(255.543 -522.334 0)
(110.053 -436.078 0)
(-60.5423 -391.851 0)
(-67.8162 -335.331 0)
(-110.789 -289.547 0)
(-134.799 -257.504 0)
(-149.357 -251.922 0)
(-148.241 -261.618 0)
(-132.946 -277.484 0)
(-115.98 -290.184 0)
(-100.047 -297.419 0)
(-89.0681 -297.97 0)
(-81.2151 -293.63 0)
(-75.6866 -285.586 0)
(-71.0628 -276.125 0)
(-66.9833 -268.311 0)
(-62.4996 -265.144 0)
(-58.0461 -267.805 0)
(-53.8339 -276.751 0)
(-47.8728 -290.376 0)
(-41.1948 -306.733 0)
(-33.1525 -322.628 0)
(-27.2092 -337.778 0)
(-19.8059 -350.934 0)
(-10.756 -364.764 0)
(-0.420528 -377.493 0)
(15.7032 -389.284 0)
(37.6795 -402.239 0)
(66.3488 -414.67 0)
(100.584 -430.462 0)
(139.553 -445.558 0)
(202.946 -464.374 0)
(296.249 -477.58 0)
(422.403 -483.692 0)
(654.1 -474.837 0)
(-309.507 -406.591 0)
(6206.45 -715.229 0)
(-6285.05 -431.845 0)
(97.2573 -274.912 0)
(-180.251 -274.354 0)
(285.767 -265.88 0)
(148.583 -237.501 0)
(-26.3241 -212.46 0)
(-33.1276 -184.164 0)
(-82.9147 -151.67 0)
(-124.723 -127.583 0)
(-160.351 -129.013 0)
(-172.897 -149.101 0)
(-162.388 -181.252 0)
(-142.379 -216.851 0)
(-119.55 -247.719 0)
(-100.253 -270.824 0)
(-85.0139 -286.952 0)
(-74.3317 -297.967 0)
(-67.6596 -305.809 0)
(-64.4944 -311.839 0)
(-62.4937 -316.324 0)
(-60.9915 -318.366 0)
(-60.0947 -317.981 0)
(-56.6505 -316.89 0)
(-49.5774 -316.12 0)
(-38.9098 -314.706 0)
(-29.6543 -313.289 0)
(-20.8324 -310.312 0)
(-11.586 -308.685 0)
(-1.00071 -306.139 0)
(12.7988 -303.855 0)
(31.7878 -303.885 0)
(57.3545 -306.029 0)
(89.3282 -312.261 0)
(126.323 -319.899 0)
(188.057 -330.834 0)
(282.377 -343.71 0)
(416.452 -357.081 0)
(676.879 -361.065 0)
(-320.752 -327.545 0)
(6756.3 -376.922 0)
(-6562.22 -216.176 0)
(159.924 -115.663 0)
(-178.76 -106.518 0)
(291.056 -107.252 0)
(161.531 -108.151 0)
(-9.14442 -94.8589 0)
(-9.23732 -83.4324 0)
(-56.2661 -57.9891 0)
(-112.965 -31.975 0)
(-170.092 -23.1466 0)
(-198.58 -37.7918 0)
(-198.232 -72.2837 0)
(-180.03 -111.614 0)
(-152.058 -148.521 0)
(-126.875 -179.004 0)
(-107.371 -202.455 0)
(-93.8578 -220.848 0)
(-84.4301 -235.351 0)
(-77.1157 -245.915 0)
(-68.7898 -252.234 0)
(-59.6424 -254.726 0)
(-52.4113 -253.459 0)
(-46.0799 -248.954 0)
(-39.0896 -242.804 0)
(-30.4246 -236.578 0)
(-22.9757 -231.787 0)
(-15.369 -227.144 0)
(-6.73502 -223.51 0)
(4.23414 -219.596 0)
(17.8756 -215.914 0)
(35.5838 -212.444 0)
(58.2773 -210.567 0)
(87.2188 -211.76 0)
(121.656 -214.897 0)
(180.001 -220.653 0)
(270.956 -228.645 0)
(405.679 -240.913 0)
(682.562 -254.144 0)
(-324.787 -245.911 0)
(7169.4 -275.483 0)
(-6655.08 -56.735 0)
(202.927 4.12387 0)
(-172.147 30.7047 0)
(284.194 32.8007 0)
(160.526 3.49491 0)
(-2.50473 6.26043 0)
(2.40145 1.42419 0)
(-33.3285 11.6326 0)
(-91.1472 30.7664 0)
(-165.957 53.6849 0)
(-220.247 53.6657 0)
(-233.525 21.1566 0)
(-215.844 -22.4369 0)
(-184.49 -63.7833 0)
(-152.226 -96.0501 0)
(-125.336 -120.136 0)
(-106.032 -136.253 0)
(-91.8153 -146.809 0)
(-80.7635 -153.211 0)
(-70.9846 -156.753 0)
(-62.1725 -159.132 0)
(-54.5327 -160.664 0)
(-46.3823 -160.744 0)
(-37.6509 -159.443 0)
(-28.2936 -157.443 0)
(-20.563 -155.49 0)
(-12.8568 -153.129 0)