/*--------------------------------*- C++ -*----------------------------------*\
| =========                 |                                                 |
| \\      /  F ield         | OpenFOAM: The Open Source CFD Toolbox           |
|  \\    /   O peration     | Version:  v1912                                 |
|   \\  /    A nd           | Website:  www.openfoam.com                      |
|    \\/     M anipulation  |                                                 |
\*---------------------------------------------------------------------------*/
FoamFile
{
    version     2.0;
    format      ascii;
    class       volTensorField;
    location    "3.06";
    object      grad(U);
}
// * * * * * * * * * * * * * * * * * * * * * * * * * * * * * * * * * * * * * //

dimensions      [0 0 -1 0 0 0 0];


internalField   nonuniform List<tensor> 
1900
(
(-2.73939 -2.18588e-05 0 -1.69299e-05 -1.82008e-05 0 0 0 0)
(1.9664 -4.16048e-06 0 -3.21879e-05 -2.11697e-05 0 0 0 0)
(-0.0459685 5.76342e-05 0 -4.97421e-05 -2.19952e-05 0 0 0 0)
(-0.0435462 0.000649336 0 -5.45817e-05 0.000122313 0 0 0 0)
(-0.0479419 0.0019241 0 0.000318785 0.00122739 0 0 0 0)
(-0.0522583 0.00226278 0 0.00186577 0.00387727 0 0 0 0)
(-0.0513627 -0.00656445 0 0.00567016 0.0060571 0 0 0 0)
(-0.0418016 -0.0303022 0 0.00912271 -0.00605575 0 0 0 0)
(0.0405843 -0.0905719 0 -0.00176887 -0.0431624 0 0 0 0)
(0.0428694 -0.265047 0 -0.0770066 -0.171972 0 0 0 0)
(-2.73944 -1.75117e-05 0 -1.8984e-05 1.03489e-05 0 0 0 0)
(1.96637 3.66142e-07 0 -4.39204e-05 1.15099e-05 0 0 0 0)
(-0.0459909 8.5849e-05 0 -6.12028e-05 1.45094e-05 0 0 0 0)
(-0.0431777 0.000600045 0 3.82387e-05 -4.61243e-05 0 0 0 0)
(-0.0460216 0.00183086 0 0.000783343 -0.000634827 0 0 0 0)
(-0.0469069 0.00256693 0 0.00318213 -0.00197022 0 0 0 0)
(-0.0441057 -0.00336857 0 0.00794166 -0.00289761 0 0 0 0)
(-0.0492406 -0.0189172 0 0.011225 0.00459423 0 0 0 0)
(-0.045545 -0.0753446 0 -0.00139649 0.0274046 0 0 0 0)
(-0.127741 -0.183563 0 -0.117493 0.0951661 0 0 0 0)
(-2.73945 -1.77297e-13 0 -1.64257e-13 1.57038e-05 0 0 0 0)
(1.96636 -5.17362e-14 0 -9.63585e-14 1.93196e-05 0 0 0 0)
(-0.0458864 1.05718e-13 0 -2.79182e-14 1.49715e-05 0 0 0 0)
(-0.0427017 2.15465e-13 0 1.45283e-13 -0.000152378 0 0 0 0)
(-0.044798 7.78846e-15 0 -3.11708e-15 -0.00118512 0 0 0 0)
(-0.0451 -1.97572e-13 0 -2.3988e-14 -0.0038141 0 0 0 0)
(-0.0433198 -5.32609e-14 0 -1.57616e-13 -0.00631899 0 0 0 0)
(-0.0511398 -1.0588e-13 0 -1.11131e-13 0.00292303 0 0 0 0)
(-0.0881335 -9.23296e-14 0 -2.72406e-14 0.0315155 0 0 0 0)
(-0.188423 8.35759e-14 0 1.17636e-13 0.153612 0 0 0 0)
(-2.73944 1.75117e-05 0 1.8984e-05 1.03489e-05 0 0 0 0)
(1.96637 -3.66142e-07 0 4.39204e-05 1.15099e-05 0 0 0 0)
(-0.0459909 -8.5849e-05 0 6.12028e-05 1.45094e-05 0 0 0 0)
(-0.0431777 -0.000600045 0 -3.82387e-05 -4.61243e-05 0 0 0 0)
(-0.0460216 -0.00183086 0 -0.000783343 -0.000634827 0 0 0 0)
(-0.0469069 -0.00256693 0 -0.00318213 -0.00197022 0 0 0 0)
(-0.0441057 0.00336857 0 -0.00794166 -0.00289761 0 0 0 0)
(-0.0492406 0.0189172 0 -0.011225 0.00459423 0 0 0 0)
(-0.045545 0.0753446 0 0.00139649 0.0274046 0 0 0 0)
(-0.127741 0.183563 0 0.117493 0.0951661 0 0 0 0)
(-2.73939 2.18588e-05 0 1.69299e-05 -1.82008e-05 0 0 0 0)
(1.9664 4.16048e-06 0 3.21879e-05 -2.11697e-05 0 0 0 0)
(-0.0459685 -5.76342e-05 0 4.97421e-05 -2.19952e-05 0 0 0 0)
(-0.0435462 -0.000649336 0 5.45817e-05 0.000122313 0 0 0 0)
(-0.0479419 -0.0019241 0 -0.000318785 0.00122739 0 0 0 0)
(-0.0522583 -0.00226278 0 -0.00186577 0.00387727 0 0 0 0)
(-0.0513627 0.00656445 0 -0.00567016 0.0060571 0 0 0 0)
(-0.0418016 0.0303022 0 -0.00912271 -0.00605575 0 0 0 0)
(0.0405843 0.0905719 0 0.00176887 -0.0431624 0 0 0 0)
(0.0428694 0.265047 0 0.0770066 -0.171972 0 0 0 0)
(-0.119025 -0.431824 1.3733e-17 -0.241733 0.198266 -2.05995e-17 -6.76408e-17 -7.75677e-17 3.72233e-33)
(-0.267977 -0.481047 0 -0.330731 0.310799 0 1.69247e-16 6.48295e-17 0)
(-0.332553 -0.558889 0 -0.496372 0.324528 0 2.61955e-16 1.15417e-16 0)
(-1.31738 -0.306364 0 -1.20771 0.577586 0 0 0 0)
(0.292704 -2.1309 -5.28924e-16 -4.17902 4.49086 7.93386e-16 1.98115e-15 1.32077e-15 1.43365e-31)
(-0.277259 -0.263245 0 -0.226791 0.273129 0 -1.11322e-16 -4.1741e-17 0)
(-0.480222 -0.34038 0 -0.288875 0.426043 0 -1.69247e-16 -6.48295e-17 0)
(-0.8285 -0.494433 0 -0.592388 0.733578 0 -2.61955e-16 -1.15417e-16 0)
(-1.63034 -0.369211 0 -1.39044 1.27249 0 0 0 0)
(-1.15228 0.349232 0 -1.64676 1.45927 0 0 0 0)
(-0.358402 7.15605e-14 0 2.8971e-14 0.377723 0 0 0 0)
(-0.641595 4.26089e-13 0 7.31123e-14 0.582985 0 0 0 0)
(-1.14182 1.39902e-13 0 3.09449e-13 1.08774 0 0 0 0)
(-2.00816 -1.42295e-13 0 3.02878e-13 1.94953 0 0 0 0)
(-1.43555 1.94824e-13 0 5.29194e-13 2.71804 0 0 0 0)
(-0.277259 0.263245 0 0.226791 0.273129 0 -1.11322e-16 4.1741e-17 0)
(-0.480222 0.34038 0 0.288875 0.426043 0 -1.69247e-16 6.48295e-17 0)
(-0.8285 0.494433 0 0.592388 0.733578 0 -2.61955e-16 1.15417e-16 0)
(-1.63034 0.369211 0 1.39044 1.27249 0 0 0 0)
(-1.15228 -0.349232 0 1.64676 1.45927 0 0 0 0)
(-0.119025 0.431824 -1.3733e-17 0.241733 0.198266 -2.05995e-17 2.90285e-16 -1.6105e-16 3.72233e-33)
(-0.267977 0.481047 0 0.330731 0.310799 0 1.69247e-16 -6.48295e-17 0)
(-0.332553 0.558889 0 0.496372 0.324528 0 2.61955e-16 -1.15417e-16 0)
(-1.31738 0.306364 -3.37146e-17 1.20771 0.577586 -5.05719e-17 7.65674e-16 -5.10449e-16 9.13835e-33)
(0.292704 2.1309 5.28924e-16 4.17902 4.49086 7.93386e-16 -1.98115e-15 1.32077e-15 1.43365e-31)
(0.242454 0.538356 3.22787e-18 -0.508745 -1.12551 2.90508e-17 -1.20838e-15 9.86658e-17 -8.74916e-34)
(0.832297 -0.0416027 -1.09236e-18 -0.27144 -0.544962 -9.83127e-18 7.96074e-16 -7.11319e-17 -2.96086e-34)
(0.505618 0.0556195 0 0.00458331 -0.299982 0 0 0 0)
(0.00225622 0.358934 -1.4839e-18 0.645449 0.335757 -1.33551e-17 -4.24535e-16 5.94423e-17 4.02212e-34)
(-0.982395 0.348536 4.60615e-18 2.14645 1.5647 4.14553e-17 2.32601e-16 -2.58445e-17 1.2485e-33)
(0.591625 0.535103 0 -0.616937 -0.618102 0 6.11853e-16 -3.23846e-17 0)
(0.940534 -0.0462122 0 -0.262736 -0.56349 0 -4.02125e-16 2.73597e-17 0)
(0.809419 0.083023 0 0.151826 -0.483046 0 0 0 0)
(0.858118 0.454169 0 0.985094 -0.631216 0 2.45768e-16 -3.87189e-17 0)
(1.38011 0.349147 0 3.15893 -1.11732 0 -1.8205e-17 9.82959e-18 0)
(0.735672 3.62335e-13 0 1.28407e-12 -0.914402 0 0 0 0)
(1.05484 5.88424e-13 0 2.54371e-12 -0.689932 0 0 0 0)
(0.968555 4.20595e-13 0 4.45728e-12 -0.526631 0 0 0 0)
(1.28254 2.44446e-13 0 6.1819e-12 -1.04706 0 -8.64402e-17 5.70653e-29 0)
(1.9698 -5.97009e-13 0 9.04889e-12 -2.61106 0 3.64101e-17 -5.94181e-29 0)
(0.591625 -0.535103 0 0.616937 -0.618102 0 6.11853e-16 3.23846e-17 0)
(0.940534 0.0462122 0 0.262736 -0.56349 0 -4.02125e-16 -2.73597e-17 0)
(0.809419 -0.083023 0 -0.151826 -0.483046 0 0 0 0)
(0.858118 -0.454169 0 -0.985094 -0.631216 0 2.45768e-16 3.87189e-17 0)
(1.38011 -0.349147 0 -3.15893 -1.11732 0 -1.8205e-17 -9.82959e-18 0)
(0.242454 -0.538356 0 0.508745 -1.12551 0 -6.11853e-16 -3.23846e-17 0)
(0.832297 0.0416027 1.09236e-18 0.27144 -0.544962 -9.83127e-18 8.17489e-18 -1.64125e-17 -2.96086e-34)
(0.505618 -0.0556195 0 -0.00458331 -0.299982 0 0 0 0)
(0.00225622 -0.358934 1.4839e-18 -0.645449 0.335757 -1.33551e-17 1.94388e-17 -1.01119e-17 4.02212e-34)
(-0.982395 -0.348536 -4.60615e-18 -2.14645 1.5647 4.14553e-17 -2.32601e-16 -2.58445e-17 1.2485e-33)
(0.668683 -0.901913 0 10.2313 0.0352618 0 0 0 0)
(1.34358 -1.01814 0 5.91188 0.716229 0 0 0 0)
(-0.74918 0.127455 0 3.14534 1.1245 0 0 0 0)
(-0.784392 0.529106 0 0.890281 1.02578 0 0 0 0)
(-0.427741 0.306236 0 0.126471 0.673352 0 0 0 0)
(-0.220832 0.0774501 0 0.0415063 0.517309 0 0 0 0)
(-0.0474081 0.0234325 0 0.0168113 0.464428 0 0 0 0)
(0.0296336 0.0140248 0 0.00926555 0.438459 0 0 0 0)
(0.0746942 0.00678126 0 0.00505639 0.419695 0 0 0 0)
(0.105389 0.00143324 0 0.00298916 0.417155 0 0 0 0)
(0.131688 0.00157167 0 0.00078452 0.413373 0 0 0 0)
(0.153482 0.00059717 0 0.000344259 0.412097 0 0 0 0)
(0.177217 0.000280398 0 -0.000159776 0.411362 0 0 0 0)
(0.207634 -1.78979e-05 0 -0.000481112 0.411208 0 0 0 0)
(0.246219 -0.000231768 0 -0.000543133 0.411549 0 0 0 0)
(0.289732 -0.000248067 0 -0.000423086 0.412062 0 0 0 0)
(0.332617 -0.000204365 0 -0.000231532 0.412388 0 0 0 0)
(0.365776 0.000255091 0 -8.42503e-05 0.412713 0 0 0 0)
(0.391022 -0.000484167 0 5.58034e-05 0.411466 0 0 0 0)
(0.401191 -0.000668878 0 8.63143e-05 0.414347 0 0 0 0)
(0.402811 0.00104211 0 0.000194339 0.413759 0 0 0 0)
(0.394726 0.000655484 0 0.000311003 0.410789 0 0 0 0)
(0.371776 6.62043e-05 0 0.000513082 0.411513 0 0 0 0)
(0.343248 0.000612883 0 0.000710664 0.410556 0 0 0 0)
(0.307425 0.000803332 0 0.000936662 0.4094 0 0 0 0)
(0.273913 0.00101838 0 0.00113017 0.407762 0 0 0 0)
(0.24801 0.00113707 0 0.00123845 0.405839 0 0 0 0)
(0.232053 0.00119101 0 0.00120328 0.403776 0 0 0 0)
(0.223551 0.0012172 0 0.000989917 0.401657 0 0 0 0)
(0.218161 0.00123031 0 0.000617891 0.399496 0 0 0 0)
(0.212736 0.00122887 0 0.000125089 0.397337 0 0 0 0)
(0.206751 0.00111092 0 -0.000491079 0.395134 0 0 0 0)
(0.201497 0.00123785 0 -0.00117552 0.393409 0 0 0 0)
(0.195294 0.000713243 0 -0.00158172 0.390397 0 0 0 0)
(0.180901 0.00293934 0 -0.00274716 0.390571 0 0 0 0)
(0.153153 4.76779e-06 0 -0.000500824 0.380369 0 0 0 0)
(0.112384 0.00203469 0 -0.00586396 0.388352 0 0 0 0)
(0.192134 0.000933812 0 -0.00845412 0.373632 0 0 0 0)
(2.40336 0.00486239 0 -0.0290849 0.379757 0 0 0 0)
(2.2557 0.0089245 0 -0.0325448 0.370325 0 0 0 0)
(1.55592 -0.764521 0 8.79651 -0.946534 0 0 0 0)
(-0.0200416 -0.887059 0 5.14955 2.01391 0 0 0 0)
(-1.73724 0.146783 0 2.91955 2.55333 0 0 0 0)
(-1.37206 0.399263 0 0.726369 1.57578 0 0 0 0)
(-0.578703 0.185831 0 -0.037232 0.734526 0 0 0 0)
(-0.221922 0.0394954 0 -0.0423367 0.523099 0 0 0 0)
(-0.0479716 0.010979 0 -0.0375931 0.468292 0 0 0 0)
(0.0295012 0.00702517 0 -0.0388098 0.442549 0 0 0 0)
(0.0754321 0.00339869 0 -0.0345099 0.420081 0 0 0 0)
(0.105766 0.00062582 0 -0.0319862 0.419239 0 0 0 0)
(0.13207 0.000815892 0 -0.0301001 0.415155 0 0 0 0)
(0.154099 0.000320408 0 -0.0271008 0.413836 0 0 0 0)
(0.177876 0.000159663 0 -0.0241739 0.413102 0 0 0 0)
(0.208391 1.62706e-05 0 -0.0212023 0.412872 0 0 0 0)
(0.247091 -9.09292e-05 0 -0.0180482 0.413163 0 0 0 0)
(0.290693 -0.000104148 0 -0.0147235 0.413669 0 0 0 0)
(0.333626 -9.01506e-05 0 -0.0113122 0.414016 0 0 0 0)
(0.366806 0.000133002 0 -0.00792824 0.414371 0 0 0 0)
(0.392051 -0.000242393 0 -0.00460186 0.413139 0 0 0 0)
(0.40221 -0.000336466 0 -0.00139808 0.416036 0 0 0 0)
(0.403835 0.000522023 0 0.00175753 0.415439 0 0 0 0)
(0.395758 0.000325601 0 0.00498745 0.412454 0 0 0 0)
(0.372795 2.45009e-05 0 0.00831454 0.413185 0 0 0 0)
(0.34424 0.000291233 0 0.0116919 0.412226 0 0 0 0)
(0.308379 0.000378051 0 0.0151196 0.411079 0 0 0 0)
(0.274814 0.000478683 0 0.0185445 0.409465 0 0 0 0)
(0.248848 0.00053386 0 0.0219256 0.407578 0 0 0 0)
(0.232826 0.000559411 0 0.0252359 0.405556 0 0 0 0)
(0.224266 0.000572594 0 0.0284871 0.403484 0 0 0 0)
(0.21883 0.000579931 0 0.0317168 0.401372 0 0 0 0)
(0.213358 0.000578337 0 0.0349605 0.399255 0 0 0 0)
(0.207317 0.000519852 0 0.0382072 0.397147 0 0 0 0)
(0.202021 0.000569948 0 0.0414268 0.395436 0 0 0 0)
(0.195668 0.000322185 0 0.0446923 0.392892 0 0 0 0)
(0.181517 0.00143961 0 0.0474032 0.392984 0 0 0 0)
(0.153122 -3.53448e-05 0 0.0518927 0.382788 0 0 0 0)
(0.111644 0.0010395 0 0.0523478 0.392968 0 0 0 0)
(0.187846 -7.36249e-05 0 0.0527369 0.375794 0 0 0 0)
(2.3867 0.00426903 0 0.0293646 0.389758 0 0 0 0)
(2.24312 0.00687276 0 -0.0120804 0.35908 0 0 0 0)
(1.65998 -9.44998e-13 0 8.18228e-12 -2.61453 0 0 0 0)
(-0.366085 -1.75128e-13 0 3.29992e-12 2.80469 0 0 0 0)
(-2.03592 5.57974e-13 0 2.52644e-12 3.484 0 0 0 0)
(-1.64455 3.96419e-13 0 1.49226e-12 1.79556 0 0 0 0)
(-0.651364 -9.02088e-13 0 -5.559e-13 0.739067 0 0 0 0)
(-0.220937 -2.56296e-12 0 -2.7795e-12 0.517975 0 0 0 0)
(-0.0463821 -2.70257e-12 0 -1.09406e-12 0.467536 0 0 0 0)
(0.0305306 -1.55274e-12 0 2.04224e-12 0.442494 0 0 0 0)
(0.0766792 1.17518e-12 0 3.73557e-12 0.419238 0 0 0 0)
(0.106672 7.03793e-12 0 -5.32048e-12 0.419128 0 0 0 0)
(0.133109 1.25876e-11 0 -2.67857e-11 0.414936 0 0 0 0)
(0.155206 1.04613e-11 0 -4.99295e-11 0.413519 0 0 0 0)
(0.178933 -6.73737e-12 0 -6.18094e-11 0.412733 0 0 0 0)
(0.209416 -4.13624e-11 0 -7.26544e-11 0.412421 0 0 0 0)
(0.248104 -7.03704e-11 0 -1.31384e-10 0.412621 0 0 0 0)
(0.291692 -2.74277e-12 0 -2.83784e-10 0.413046 0 0 0 0)
(0.334593 1.09807e-10 0 -4.15213e-10 0.413337 0 0 0 0)
(0.367728 -2.97812e-11 0 -3.01319e-10 0.413666 0 0 0 0)
(0.392922 -1.06858e-10 0 -8.43933e-11 0.412423 0 0 0 0)
(0.403041 1.46293e-10 0 5.17798e-11 0.415333 0 0 0 0)
(0.404669 1.47615e-10 0 -1.97834e-11 0.414736 0 0 0 0)
(0.396634 -2.38685e-10 0 3.98412e-11 0.411744 0 0 0 0)
(0.373726 -2.1229e-10 0 -2.50973e-11 0.412498 0 0 0 0)
(0.345228 2.43159e-10 0 -1.95352e-10 0.411575 0 0 0 0)
(0.309418 2.16556e-10 0 -9.6906e-11 0.410495 0 0 0 0)
(0.275893 -1.24588e-10 0 6.28147e-12 0.408976 0 0 0 0)
(0.249957 -1.9563e-10 0 -1.91549e-10 0.407204 0 0 0 0)
(0.233962 -7.58638e-11 0 -4.06163e-10 0.405306 0 0 0 0)
(0.225436 3.58831e-11 0 -3.36722e-10 0.403358 0 0 0 0)
(0.220044 4.90577e-11 0 7.42974e-12 0.401369 0 0 0 0)
(0.214625 4.11933e-11 0 4.08267e-10 0.399371 0 0 0 0)
(0.208632 -7.97232e-12 0 7.69086e-10 0.397393 0 0 0 0)
(0.203384 -7.14343e-11 0 1.06205e-09 0.395797 0 0 0 0)
(0.197033 -1.59267e-10 0 1.36039e-09 0.393475 0 0 0 0)
(0.182995 -9.70317e-11 0 1.67934e-09 0.393582 0 0 0 0)
(0.154592 1.15449e-10 0 1.98552e-09 0.383578 0 0 0 0)
(0.11263 -9.72679e-11 0 2.08438e-09 0.393825 0 0 0 0)
(0.185448 4.91724e-11 0 1.89083e-09 0.376431 0 0 0 0)
(2.38451 6.10745e-10 0 1.24145e-09 0.394332 0 0 0 0)
(2.24365 3.78161e-10 0 3.03774e-11 0.347081 0 0 0 0)
(1.55592 0.764521 0 -8.79651 -0.946534 0 0 0 0)
(-0.0200416 0.887059 0 -5.14955 2.01391 0 0 0 0)
(-1.73724 -0.146783 0 -2.91955 2.55333 0 0 0 0)
(-1.37206 -0.399263 0 -0.726369 1.57578 0 0 0 0)
(-0.578703 -0.185831 0 0.037232 0.734526 0 0 0 0)
(-0.221922 -0.0394954 0 0.0423367 0.523099 0 0 0 0)
(-0.0479716 -0.010979 0 0.0375931 0.468292 0 0 0 0)
(0.0295012 -0.00702517 0 0.0388098 0.442549 0 0 0 0)
(0.0754321 -0.00339869 0 0.0345099 0.420081 0 0 0 0)
(0.105766 -0.00062582 0 0.0319862 0.419239 0 0 0 0)
(0.13207 -0.000815892 0 0.0301001 0.415155 0 0 0 0)
(0.154099 -0.000320408 0 0.0271008 0.413836 0 0 0 0)
(0.177876 -0.000159663 0 0.0241739 0.413102 0 0 0 0)
(0.208391 -1.62707e-05 0 0.0212023 0.412872 0 0 0 0)
(0.247091 9.09291e-05 0 0.0180482 0.413163 0 0 0 0)
(0.290693 0.000104148 0 0.0147235 0.413669 0 0 0 0)
(0.333626 9.01508e-05 0 0.0113122 0.414016 0 0 0 0)
(0.366806 -0.000133002 0 0.00792824 0.414371 0 0 0 0)
(0.392051 0.000242393 0 0.00460186 0.413139 0 0 0 0)
(0.40221 0.000336466 0 0.00139808 0.416036 0 0 0 0)
(0.403835 -0.000522023 0 -0.00175753 0.415439 0 0 0 0)
(0.395758 -0.000325601 0 -0.00498745 0.412454 0 0 0 0)
(0.372795 -2.45014e-05 0 -0.00831454 0.413185 0 0 0 0)
(0.34424 -0.000291232 0 -0.0116919 0.412226 0 0 0 0)
(0.308379 -0.000378051 0 -0.0151196 0.411079 0 0 0 0)
(0.274814 -0.000478683 0 -0.0185445 0.409465 0 0 0 0)
(0.248848 -0.00053386 0 -0.0219256 0.407578 0 0 0 0)
(0.232826 -0.000559412 0 -0.0252359 0.405556 0 0 0 0)
(0.224266 -0.000572594 0 -0.0284871 0.403484 0 0 0 0)
(0.21883 -0.000579931 0 -0.0317168 0.401372 0 0 0 0)
(0.213358 -0.000578337 0 -0.0349605 0.399255 0 0 0 0)
(0.207317 -0.000519852 0 -0.0382072 0.397147 0 0 0 0)
(0.202021 -0.000569948 0 -0.0414268 0.395436 0 0 0 0)
(0.195668 -0.000322185 0 -0.0446923 0.392892 0 0 0 0)
(0.181517 -0.00143962 0 -0.0474032 0.392984 0 0 0 0)
(0.153122 3.5345e-05 0 -0.0518927 0.382788 0 0 0 0)
(0.111644 -0.0010395 0 -0.0523478 0.392968 0 0 0 0)
(0.187846 7.3625e-05 0 -0.0527369 0.375794 0 0 0 0)
(2.3867 -0.00426903 0 -0.0293646 0.389758 0 0 0 0)
(2.24312 -0.00687276 0 0.0120804 0.35908 0 0 0 0)
(0.668683 0.901913 0 -10.2313 0.0352618 0 0 0 0)
(1.34358 1.01814 0 -5.91188 0.716229 0 0 0 0)
(-0.74918 -0.127455 0 -3.14534 1.1245 0 0 0 0)
(-0.784392 -0.529106 0 -0.890281 1.02578 0 0 0 0)
(-0.427741 -0.306236 0 -0.126471 0.673352 0 0 0 0)
(-0.220832 -0.0774501 0 -0.0415063 0.517309 0 0 0 0)
(-0.0474081 -0.0234325 0 -0.0168113 0.464428 0 0 0 0)
(0.0296336 -0.0140248 0 -0.00926555 0.438459 0 0 0 0)
(0.0746942 -0.00678126 0 -0.00505639 0.419695 0 0 0 0)
(0.105389 -0.00143324 0 -0.00298916 0.417155 0 0 0 0)
(0.131688 -0.00157167 0 -0.00078452 0.413373 0 0 0 0)
(0.153482 -0.00059717 0 -0.000344259 0.412097 0 0 0 0)
(0.177217 -0.000280398 0 0.000159776 0.411362 0 0 0 0)
(0.207634 1.78978e-05 0 0.000481112 0.411208 0 0 0 0)
(0.246219 0.000231768 0 0.000543133 0.411549 0 0 0 0)
(0.289732 0.000248067 0 0.000423086 0.412062 0 0 0 0)
(0.332617 0.000204365 0 0.000231532 0.412388 0 0 0 0)
(0.365776 -0.000255091 0 8.42508e-05 0.412713 0 0 0 0)
(0.391022 0.000484167 0 -5.58029e-05 0.411466 0 0 0 0)
(0.401191 0.000668879 0 -8.63142e-05 0.414347 0 0 0 0)
(0.402811 -0.00104211 0 -0.00019434 0.413759 0 0 0 0)
(0.394726 -0.000655484 0 -0.000311004 0.410789 0 0 0 0)
(0.371776 -6.62047e-05 0 -0.000513083 0.411513 0 0 0 0)
(0.343248 -0.000612882 0 -0.000710666 0.410556 0 0 0 0)
(0.307425 -0.000803331 0 -0.000936664 0.4094 0 0 0 0)
(0.273913 -0.00101838 0 -0.00113017 0.407762 0 0 0 0)
(0.24801 -0.00113707 0 -0.00123845 0.405839 0 0 0 0)
(0.232053 -0.00119101 0 -0.00120328 0.403776 0 0 0 0)
(0.223551 -0.0012172 0 -0.000989916 0.401657 0 0 0 0)
(0.218161 -0.00123031 0 -0.00061789 0.399496 0 0 0 0)
(0.212736 -0.00122887 0 -0.000125088 0.397337 0 0 0 0)
(0.206751 -0.00111092 0 0.000491079 0.395134 0 0 0 0)
(0.201497 -0.00123785 0 0.00117553 0.393409 0 0 0 0)
(0.195294 -0.000713243 0 0.00158172 0.390397 0 0 0 0)
(0.180901 -0.00293934 0 0.00274715 0.390571 0 0 0 0)
(0.153153 -4.76739e-06 0 0.000500823 0.380369 0 0 0 0)
(0.112384 -0.00203469 0 0.00586396 0.388352 0 0 0 0)
(0.192134 -0.000933812 0 0.00845412 0.373632 0 0 0 0)
(2.40336 -0.00486239 0 0.0290849 0.379757 0 0 0 0)
(2.2557 -0.0089245 0 0.0325448 0.370325 0 0 0 0)
(2.5184 1.13103 0 -4.03236 0.00393408 0 0 0 0)
(2.84813 1.41875 0 -2.70191 0.371259 0 0 0 0)
(0.270238 0.0250463 0 -1.69436 0.48613 0 0 0 0)
(-0.157907 -0.532125 0 -0.654422 0.557133 0 0 0 0)
(-0.22084 -0.365565 0 -0.301264 0.547267 0 0 0 0)
(-0.154395 -0.126663 0 -0.115378 0.483925 0 0 0 0)
(-0.0283995 -0.0460405 0 -0.0638918 0.447748 0 0 0 0)
(0.0367216 -0.0269918 0 -0.0348601 0.425671 0 0 0 0)
(0.0802224 -0.0128509 0 -0.0250999 0.413119 0 0 0 0)
(0.108882 -0.00365756 0 -0.017836 0.409141 0 0 0 0)
(0.13417 -0.00311458 0 -0.0140811 0.405975 0 0 0 0)
(0.155405 -0.00126212 0 -0.0121042 0.404722 0 0 0 0)
(0.179156 -0.000577902 0 -0.0101932 0.404073 0 0 0 0)
(0.209507 6.13979e-05 0 -0.0085479 0.404075 0 0 0 0)
(0.248063 0.000464048 0 -0.00718524 0.404503 0 0 0 0)
(0.291609 0.000464309 0 -0.00598892 0.405031 0 0 0 0)
(0.334581 0.000366426 0 -0.00483191 0.405339 0 0 0 0)
(0.367817 -0.000570311 0 -0.00358563 0.405653 0 0 0 0)
(0.393134 0.000987999 0 -0.00231166 0.404415 0 0 0 0)
(0.403301 0.00139081 0 -0.000857716 0.407343 0 0 0 0)
(0.404878 -0.00215287 0 0.000356943 0.406774 0 0 0 0)
(0.396751 -0.00135353 0 0.00163302 0.403772 0 0 0 0)
(0.373723 -0.00012256 0 0.00268958 0.404474 0 0 0 0)
(0.345121 -0.0012448 0 0.00361304 0.403513 0 0 0 0)
(0.309218 -0.00163901 0 0.00435186 0.402355 0 0 0 0)
(0.275666 -0.00208814 0 0.00498354 0.400709 0 0 0 0)
(0.24977 -0.00233675 0 0.00559857 0.398768 0 0 0 0)
(0.233875 -0.0024522 0 0.00633262 0.396683 0 0 0 0)
(0.225461 -0.0025114 0 0.00724297 0.39453 0 0 0 0)
(0.220145 -0.0025376 0 0.00831981 0.392327 0 0 0 0)
(0.214773 -0.00256239 0 0.00948061 0.390134 0 0 0 0)
(0.208786 -0.00230096 0 0.0106183 0.387809 0 0 0 0)
(0.20331 -0.00276903 0 0.0118459 0.386131 0 0 0 0)
(0.197086 -0.00165023 0 0.0119412 0.382507 0 0 0 0)
(0.181551 -0.00599601 0 0.0136523 0.382956 0 0 0 0)
(0.15504 -0.00130998 0 0.0101006 0.372751 0 0 0 0)
(0.115778 -0.00411505 0 0.0153741 0.378211 0 0 0 0)
(0.197453 -0.00415255 0 0.0169371 0.367381 0 0 0 0)
(2.38254 -0.00565747 0 0.0410392 0.361406 0 0 0 0)
(2.23073 -0.0104175 0 -0.0373746 0.336647 0 0 0 0)
(2.33236 1.07051 0 -0.520659 0.572117 0 0 0 0)
(2.78977 1.26799 0 -0.864702 0.297742 0 0 0 0)
(0.677206 -0.0301169 0 -0.77055 0.212465 0 0 0 0)
(0.222102 -0.468573 0 -0.458768 0.292895 0 0 0 0)
(-0.0192447 -0.344966 0 -0.278908 0.414962 0 0 0 0)
(-0.0277177 -0.146961 0 -0.117632 0.427387 0 0 0 0)
(0.0199887 -0.0674457 0 -0.060297 0.410145 0 0 0 0)
(0.0632142 -0.0404415 0 -0.0239204 0.397973 0 0 0 0)
(0.0881348 -0.0194547 0 -0.0112205 0.395791 0 0 0 0)
(0.114134 -0.00712464 0 -0.00337828 0.38997 0 0 0 0)
(0.13588 -0.00500328 0 -0.000189103 0.388086 0 0 0 0)
(0.156198 -0.00207344 0 0.00126814 0.387176 0 0 0 0)
(0.179604 -0.000744537 0 0.00230003 0.387089 0 0 0 0)
(0.209528 0.000408805 0 0.00279759 0.387686 0 0 0 0)
(0.247697 0.00102933 0 0.00276929 0.388626 0 0 0 0)
(0.290993 0.000938089 0 0.00232258 0.389576 0 0 0 0)
(0.333879 0.000716248 0 0.00166724 0.390216 0 0 0 0)
(0.36711 -0.000976989 0 0.00100417 0.390775 0 0 0 0)
(0.392518 0.00184316 0 0.00033589 0.38973 0 0 0 0)
(0.402631 0.00255533 0 -5.90101e-05 0.392797 0 0 0 0)
(0.404103 -0.00388763 0 -0.000780292 0.392243 0 0 0 0)
(0.395889 -0.00249723 0 -0.00136912 0.389114 0 0 0 0)
(0.37264 -0.000286164 0 -0.00224987 0.389628 0 0 0 0)
(0.343846 -0.00231639 0 -0.00330777 0.388463 0 0 0 0)
(0.307784 -0.00305722 0 -0.00456834 0.38702 0 0 0 0)
(0.274175 -0.00390123 0 -0.00594149 0.385013 0 0 0 0)
(0.248366 -0.00437274 0 -0.00724303 0.382656 0 0 0 0)
(0.232661 -0.00459844 0 -0.00834579 0.380076 0 0 0 0)
(0.224442 -0.00472104 0 -0.00904331 0.377408 0 0 0 0)
(0.219253 -0.00476536 0 -0.00956836 0.374594 0 0 0 0)
(0.213859 -0.00486792 0 -0.00992957 0.371794 0 0 0 0)
(0.207939 -0.00433044 0 -0.010442 0.368647 0 0 0 0)
(0.2018 -0.00552569 0 -0.0105068 0.366434 0 0 0 0)
(0.196074 -0.00327068 0 -0.0130391 0.361113 0 0 0 0)
(0.178779 -0.0107012 0 -0.0116919 0.360836 0 0 0 0)
(0.153801 -0.00387646 0 -0.0175756 0.350635 0 0 0 0)
(0.117152 -0.00609416 0 -0.0141062 0.352964 0 0 0 0)
(0.214014 -0.0154024 0 -0.0151477 0.346939 0 0 0 0)
(2.36219 -0.0340521 0 0.0221716 0.330938 0 0 0 0)
(2.19353 -0.0319819 0 -0.0625227 0.301967 0 0 0 0)
(2.18687 0.866634 0 -0.00454525 0.510661 0 0 0 0)
(2.60733 1.07217 0 -0.232023 0.0899896 0 0 0 0)
(0.66141 0.0203762 0 -0.305375 0.0832299 0 0 0 0)
(0.315858 -0.336992 0 -0.295861 0.170078 0 0 0 0)
(0.107891 -0.235964 0 -0.196652 0.320304 0 0 0 0)
(0.0562666 -0.131304 0 -0.114121 0.359584 0 0 0 0)
(0.0619043 -0.0743851 0 -0.0573171 0.360903 0 0 0 0)
(0.0840135 -0.0408244 0 -0.0332455 0.358871 0 0 0 0)
(0.100017 -0.020563 0 -0.0162198 0.362611 0 0 0 0)
(0.119512 -0.0110823 0 -0.00745733 0.35739 0 0 0 0)
(0.138648 -0.00580632 0 -0.00289143 0.356841 0 0 0 0)
(0.157803 -0.00222331 0 9.33549e-05 0.356473 0 0 0 0)
(0.18063 -8.67358e-05 0 0.00202313 0.357255 0 0 0 0)
(0.209959 0.00154313 0 0.00316748 0.35862 0 0 0 0)
(0.247605 0.00228569 0 0.00329409 0.360352 0 0 0 0)
(0.290547 0.00199674 0 0.002803 0.361962 0 0 0 0)
(0.33331 0.00152153 0 0.00196164 0.36316 0 0 0 0)
(0.366534 -0.00103877 0 0.00109254 0.364111 0 0 0 0)
(0.392109 0.00293627 0 0.000242847 0.363364 0 0 0 0)
(0.402225 0.0038124 0 -0.000205176 0.366591 0 0 0 0)
(0.403616 -0.00570158 0 -0.00103115 0.366028 0 0 0 0)
(0.395334 -0.0038735 0 -0.00167783 0.362674 0 0 0 0)
(0.371854 -0.000750475 0 -0.00267415 0.362848 0 0 0 0)
(0.342887 -0.0037581 0 -0.00388456 0.361335 0 0 0 0)
(0.30668 -0.00496339 0 -0.00532054 0.359416 0 0 0 0)
(0.273088 -0.00629389 0 -0.0068254 0.356875 0 0 0 0)
(0.247454 -0.007094 0 -0.00829354 0.35382 0 0 0 0)
(0.23214 -0.00750866 0 -0.00917864 0.350611 0 0 0 0)
(0.224283 -0.00779362 0 -0.00982675 0.346987 0 0 0 0)
(0.219291 -0.00794824 0 -0.00984699 0.343352 0 0 0 0)
(0.213931 -0.00829368 0 -0.00975535 0.339564 0 0 0 0)
(0.20823 -0.00746603 0 -0.0102718 0.334927 0 0 0 0)
(0.200808 -0.0100289 0 -0.00937237 0.331915 0 0 0 0)
(0.195944 -0.00704394 0 -0.0128832 0.324109 0 0 0 0)
(0.177179 -0.0160934 0 -0.0104952 0.322008 0 0 0 0)
(0.152713 -0.00889587 0 -0.0158964 0.312362 0 0 0 0)
(0.118117 -0.0076766 0 -0.0120614 0.31073 0 0 0 0)
(0.232411 -0.0253776 0 -0.0134121 0.3108 0 0 0 0)
(2.33689 -0.0489935 0 0.027677 0.285714 0 0 0 0)
(2.14912 -0.0383348 0 -0.0713059 0.284348 0 0 0 0)
(2.11316 0.665132 0 0.0663597 0.486837 0 0 0 0)
(2.49988 0.856099 0 -0.0806594 0.133247 0 0 0 0)
(0.615689 0.0470593 0 -0.146329 0.0908329 0 0 0 0)
(0.326871 -0.24012 0 -0.182368 0.163571 0 0 0 0)
(0.155887 -0.162352 0 -0.14394 0.268903 0 0 0 0)
(0.106551 -0.107838 0 -0.100237 0.299207 0 0 0 0)
(0.0979231 -0.0681324 0 -0.056591 0.312971 0 0 0 0)
(0.102817 -0.038796 0 -0.0351508 0.316372 0 0 0 0)
(0.112985 -0.020882 0 -0.019693 0.318883 0 0 0 0)
(0.126977 -0.0126842 0 -0.00972016 0.316572 0 0 0 0)
(0.143156 -0.00588716 0 -0.00393475 0.316655 0 0 0 0)
(0.160934 -0.00167535 0 0.000488675 0.317015 0 0 0 0)
(0.182566 0.00132396 0 0.00378578 0.31821 0 0 0 0)
(0.210753 0.00339349 0 0.00525554 0.320375 0 0 0 0)
(0.247346 0.00425026 0 0.00550753 0.322601 0 0 0 0)
(0.289709 0.00364367 0 0.00458607 0.324831 0 0 0 0)
(0.332231 0.00278672 0 0.00324743 0.326477 0 0 0 0)
(0.365454 -0.000780279 0 0.00183891 0.327755 0 0 0 0)
(0.391268 0.00423307 0 0.000511002 0.327234 0 0 0 0)
(0.401403 0.00512242 0 -0.000322599 0.330577 0 0 0 0)
(0.402684 -0.00766214 0 -0.00156615 0.329997 0 0 0 0)
(0.394305 -0.00556144 0 -0.0026452 0.326402 0 0 0 0)
(0.370513 -0.0015765 0 -0.00413219 0.326259 0 0 0 0)
(0.341296 -0.00562337 0 -0.00593399 0.324424 0 0 0 0)
(0.30495 -0.00735515 0 -0.0079582 0.322138 0 0 0 0)
(0.27131 -0.00929358 0 -0.0101809 0.319067 0 0 0 0)
(0.246099 -0.0104087 0 -0.0119328 0.315761 0 0 0 0)
(0.231183 -0.0111831 0 -0.013636 0.311632 0 0 0 0)
(0.223798 -0.0117157 0 -0.0138082 0.308064 0 0 0 0)
(0.219322 -0.0119186 0 -0.0145552 0.303174 0 0 0 0)
(0.21345 -0.0129869 0 -0.0141494 0.299206 0 0 0 0)
(0.208308 -0.011701 0 -0.0149468 0.293758 0 0 0 0)
(0.199283 -0.0159501 0 -0.0138768 0.290209 0 0 0 0)
(0.194992 -0.012818 0 -0.0183359 0.281524 0 0 0 0)
(0.175875 -0.0220215 0 -0.0162054 0.278608 0 0 0 0)
(0.152292 -0.0147437 0 -0.0195423 0.271456 0 0 0 0)
(0.119546 -0.00759953 0 -0.0157482 0.267781 0 0 0 0)
(0.252308 -0.039509 0 -0.0138288 0.275545 0 0 0 0)
(2.30641 -0.0595413 0 0.023408 0.239509 0 0 0 0)
(2.09815 -0.0332978 0 -0.0816469 0.282272 0 0 0 0)
(2.0452 0.525901 0 0.0429106 0.434803 0 0 0 0)
(2.40237 0.690568 0 -0.0272454 0.144876 0 0 0 0)
(0.5634 0.0495978 0 -0.0830069 0.0965975 0 0 0 0)
(0.31816 -0.165397 0 -0.134008 0.150502 0 0 0 0)
(0.187035 -0.10526 0 -0.11222 0.232201 0 0 0 0)
(0.14044 -0.0888388 0 -0.0783614 0.252732 0 0 0 0)
(0.124624 -0.0578447 0 -0.0509639 0.270407 0 0 0 0)
(0.11957 -0.0351272 0 -0.0328636 0.275445 0 0 0 0)
(0.124523 -0.0203695 0 -0.0202628 0.277741 0 0 0 0)
(0.134697 -0.0132293 0 -0.0111446 0.276906 0 0 0 0)
(0.148485 -0.00537979 0 -0.0046909 0.27728 0 0 0 0)
(0.165243 -0.000724717 0 0.00141906 0.277199 0 0 0 0)
(0.185224 0.00315091 0 0.00489789 0.279296 0 0 0 0)
(0.211618 0.00577432 0 0.00748 0.280919 0 0 0 0)
(0.24696 0.00657956 0 0.00737729 0.283577 0 0 0 0)
(0.288369 0.00573207 0 0.00625575 0.285766 0 0 0 0)
(0.330663 0.00433912 0 0.00440382 0.287588 0 0 0 0)
(0.363897 -0.000309692 0 0.00250746 0.28894 0 0 0 0)
(0.390026 0.00565586 0 0.000740277 0.288486 0 0 0 0)
(0.400224 0.00647529 0 -0.000461946 0.291862 0 0 0 0)
(0.401378 -0.00972442 0 -0.00205424 0.291305 0 0 0 0)
(0.392862 -0.00747622 0 -0.00352404 0.287558 0 0 0 0)
(0.368685 -0.00265654 0 -0.00543593 0.28727 0 0 0 0)
(0.3392 -0.00772866 0 -0.00773007 0.285362 0 0 0 0)
(0.302588 -0.0101256 0 -0.0103287 0.282905 0 0 0 0)
(0.269258 -0.012439 0 -0.0127987 0.280068 0 0 0 0)
(0.244124 -0.0142593 0 -0.0154523 0.276244 0 0 0 0)
(0.230333 -0.0149261 0 -0.016154 0.273403 0 0 0 0)
(0.223397 -0.0159434 0 -0.0177646 0.268486 0 0 0 0)
(0.218962 -0.0164844 0 -0.0168856 0.265666 0 0 0 0)
(0.213554 -0.0173679 0 -0.0168989 0.261368 0 0 0 0)
(0.208493 -0.0161352 0 -0.0180635 0.256232 0 0 0 0)
(0.197542 -0.0218175 0 -0.0161936 0.254454 0 0 0 0)
(0.1937 -0.0182231 0 -0.0208048 0.247239 0 0 0 0)
(0.176016 -0.0257957 0 -0.0198806 0.244766 0 0 0 0)
(0.153154 -0.0193295 0 -0.020355 0.242181 0 0 0 0)
(0.123623 -0.00373636 0 -0.0171205 0.237471 0 0 0 0)
(0.270144 -0.0526211 0 -0.00723049 0.250142 0 0 0 0)
(2.27154 -0.0425109 0 0.0133343 0.218279 0 0 0 0)
(2.04789 0.00287274 0 -0.0924159 0.276774 0 0 0 0)
(2.04555 0.385748 0 0.0447113 0.408506 0 0 0 0)
(2.37854 0.530192 0 -5.52462e-05 0.150066 0 0 0 0)
(0.512809 0.0524802 0 -0.0466982 0.114618 0 0 0 0)
(0.29872 -0.109447 0 -0.0949822 0.15886 0 0 0 0)
(0.20951 -0.0638381 0 -0.0876785 0.207244 0 0 0 0)
(0.165579 -0.0710217 0 -0.0601518 0.224377 0 0 0 0)
(0.141766 -0.0462461 0 -0.0446728 0.242977 0 0 0 0)
(0.132402 -0.0317289 0 -0.0308289 0.246343 0 0 0 0)
(0.133914 -0.0194736 0 -0.0212655 0.248675 0 0 0 0)
(0.141983 -0.013129 0 -0.0127867 0.248287 0 0 0 0)
(0.155263 -0.0056048 0 -0.00495164 0.24729 0 0 0 0)
(0.170174 0.000268068 0 0.000438902 0.248893 0 0 0 0)
(0.188406 0.00490882 0 0.00634487 0.248734 0 0 0 0)
(0.213142 0.00751871 0 0.00812489 0.251104 0 0 0 0)
(0.246166 0.00892086 0 0.00882333 0.252384 0 0 0 0)
(0.286844 0.0075089 0 0.00723024 0.254372 0 0 0 0)
(0.328619 0.00584537 0 0.0051478 0.255688 0 0 0 0)
(0.361924 8.50094e-05 0 0.00288699 0.256813 0 0 0 0)
(0.388406 0.00704802 0 0.000799834 0.256187 0 0 0 0)
(0.39871 0.00783838 0 -0.000664406 0.259499 0 0 0 0)
(0.399733 -0.0118091 0 -0.00249637 0.259028 0 0 0 0)
(0.391047 -0.00944921 0 -0.00422238 0.255278 0 0 0 0)
(0.36646 -0.00369233 0 -0.00641041 0.25517 0 0 0 0)
(0.336581 -0.0098296 0 -0.0090566 0.253518 0 0 0 0)
(0.300065 -0.0124569 0 -0.0118699 0.25168 0 0 0 0)
(0.266372 -0.0157126 0 -0.0150457 0.249027 0 0 0 0)
(0.242866 -0.0168316 0 -0.0167485 0.247247 0 0 0 0)
(0.228955 -0.0186589 0 -0.0193695 0.243418 0 0 0 0)
(0.223093 -0.0191714 0 -0.0178703 0.242935 0 0 0 0)
(0.220156 -0.0187779 0 -0.0198759 0.238148 0 0 0 0)
(0.212315 -0.0220776 0 -0.0175063 0.238125 0 0 0 0)
(0.208987 -0.0183635 0 -0.0191243 0.234416 0 0 0 0)
(0.196642 -0.0246159 0 -0.01778 0.234012 0 0 0 0)