/*--------------------------------*- C++ -*----------------------------------*\
| =========                 |                                                 |
| \\      /  F ield         | OpenFOAM: The Open Source CFD Toolbox           |
|  \\    /   O peration     | Version:  v1912                                 |
|   \\  /    A nd           | Website:  www.openfoam.com                      |
|    \\/     M anipulation  |                                                 |
\*---------------------------------------------------------------------------*/
FoamFile
{
    version     2.0;
    format      ascii;
    class       scalarField;
    location    "0.00025/lagrangian/dsmc";
    object      Ei;
}
// * * * * * * * * * * * * * * * * * * * * * * * * * * * * * * * * * * * * * //


13080
(
9.324484227e-21
3.269966591e-20
2.629490235e-20
9.600757356e-21
5.262184295e-21
2.524389751e-21
5.520767684e-21
4.587964902e-21
2.595840364e-20
5.662725888e-21
4.28835075e-21
6.707064231e-21
5.05236858e-21
1.018146752e-20
2.049220599e-20
1.937202817e-20
7.402603285e-21
1.432030212e-20
8.893358229e-21
7.290414637e-21
6.86610877e-21
4.736783149e-21
2.491416179e-21
4.257593243e-21
2.392162871e-20
3.417972987e-22
7.518778237e-21
1.753302472e-20
1.480910833e-20
7.264201035e-23
3.869276707e-21
2.83405986e-20
4.733536592e-21
5.422427459e-23
2.04989422e-20
8.425256781e-22
2.886566728e-22
2.093695525e-20
5.636810283e-21
8.803396296e-22
1.183638043e-20
3.451670188e-20
1.520572536e-20
5.490374125e-21
2.631183749e-20
1.165441757e-20
1.413855258e-20
4.930488784e-21
3.498729679e-20
4.649966096e-21
6.752416105e-22
3.762977834e-21
1.672791865e-21
1.07362696e-20
3.260995987e-20
5.386810006e-21
1.338708291e-21
8.330004479e-21
2.601380443e-21
7.49760683e-22
2.029051201e-21
1.990384582e-20
2.981961323e-21
1.094497344e-21
1.438550602e-20
2.241199541e-20
9.271553238e-21
1.661500616e-21
1.137284707e-20
1.820914216e-20
5.40466481e-22
2.658937234e-20
5.209058383e-21
3.084598736e-21
2.749462752e-21
8.716781347e-21
1.026444427e-20
4.449687002e-21
6.904076785e-21
4.230973549e-20
9.53352445e-22
3.193111431e-20
2.353787823e-21
1.155937513e-20
4.688852306e-21
3.013423525e-21
2.048019033e-20
4.244964781e-21
7.080201234e-21
1.483241217e-20
7.653540101e-21
4.368479514e-21
4.704834428e-21
2.599673101e-20
1.692900378e-20
9.857978102e-21
8.878307207e-21
4.653028485e-21
1.406592067e-20
1.541337041e-20
1.890504425e-20
1.944178379e-21
4.164585271e-20
5.727739778e-21
1.439639739e-21
5.224769082e-21
1.509576342e-22
2.977251554e-21
1.837604449e-21
1.576449645e-20
6.725995949e-21
5.696430376e-21
1.112106322e-20
1.830044334e-22
1.398088879e-20
4.000346804e-20
2.253337587e-21
9.080641773e-21
6.016879711e-20
2.965058503e-20
4.420834867e-20
4.752076783e-22
1.377302353e-20
1.307570478e-20
1.415760018e-20
1.880867546e-21
3.007284001e-20
2.383218504e-20
6.800279038e-21
2.575248909e-21
5.939571643e-21
4.568471385e-21
9.810177519e-21
2.793575898e-20
1.315492326e-20
1.117658293e-20
9.438890687e-21
1.62690857e-20
3.978222932e-21
7.809322546e-21
2.938216666e-20
1.243685973e-21
2.977161666e-20
9.599053591e-21
7.287034006e-21
1.141580574e-20
1.394196348e-20
6.785947402e-21
1.299543112e-20
1.633653492e-20
2.683083996e-20
3.475637567e-20
1.464872127e-20
2.670437688e-21
1.425357361e-21
8.426368767e-21
2.202489715e-20
3.8049206e-21
2.229876895e-20
2.20778332e-20
8.969598262e-21
2.454615127e-22
1.333988139e-23
1.024579009e-20
1.552473897e-21
1.585121044e-20
2.594317563e-21
8.094432738e-22
2.77284729e-21
1.314045126e-20
4.779570043e-21
4.009197041e-22
6.81805846e-21
1.330980973e-20
1.908402264e-21
4.686411025e-21
1.198150024e-20
7.694855253e-23
1.193368807e-21
1.342383249e-20
4.587865119e-20
2.813104933e-21
2.206631041e-21
2.314812198e-20
9.008467719e-21
8.669199665e-21
3.054807386e-20
2.341165946e-20
1.778180837e-20
1.925855406e-20
3.316068506e-21
8.600236587e-21
2.017931796e-20
4.063169992e-21
3.790646042e-21
2.860704971e-21
7.543492246e-21
1.934020823e-20
2.508762137e-20
2.648895713e-20
6.542176827e-21
1.372797032e-20
6.352385885e-21
6.073260804e-22
1.349746184e-21
8.723021827e-21
9.404084569e-21
2.627083841e-21
4.16353488e-21
1.474179933e-20
2.065764031e-20
3.535143765e-20
3.837700552e-21
2.636054057e-20
7.561584859e-21
2.970392571e-21
9.384601079e-21
4.755551121e-21
2.640162797e-21
1.99604385e-21
1.955283008e-20
3.80288527e-21
8.197946146e-21
9.623787783e-22
7.33460658e-21
4.337596659e-21
3.271381906e-20
5.961063552e-21
1.606396875e-20
5.227689419e-21
3.679831117e-21
1.489030614e-20
1.339148836e-20
2.558701958e-20
1.049290317e-20
7.216563976e-21
1.00207708e-20
2.115117836e-20
1.674054636e-20
9.79430285e-21
2.516490335e-20
3.979486848e-21
9.383769877e-21
9.299435232e-21
1.48329731e-21
2.461996576e-20
4.269178491e-21
3.200114271e-21
2.506852563e-21
3.290361899e-21
1.058505925e-20
3.923917307e-21
7.175906769e-22
1.009453109e-20
3.882957883e-20
1.362479711e-20
8.303743607e-21
6.491204096e-21
2.439278844e-21
1.687035896e-21
1.379191057e-20
2.341669415e-21
2.575045557e-20
5.640046752e-21
1.36746425e-20
5.719884817e-21
5.29324319e-21
5.146174209e-21
1.231604041e-21
3.501302254e-21
1.459372078e-21
6.632265072e-21
2.333240107e-20
3.550904017e-23
2.255723038e-20
2.370946444e-21
1.996632909e-20
5.393012857e-21
1.855460281e-20
1.878742754e-21
9.509116496e-21
1.988389912e-20
6.238304244e-22
2.025110799e-22
1.466669566e-20
6.357416956e-21
3.375987888e-20
2.559554569e-21
8.469631841e-21
1.478858312e-21
3.608432729e-21
1.344673276e-20
7.76715897e-21
1.315019663e-20
1.373732339e-20
5.431517035e-20
1.364122223e-21
2.312196773e-20
3.694510251e-21
1.452481748e-21
1.290033542e-20
1.175279656e-20
5.200442492e-21
7.788414037e-22
1.71933975e-21
9.519744446e-22
2.464872053e-20
8.671977827e-21
8.355886409e-22
8.656339012e-21
6.885075024e-21
6.843436059e-21
4.149056937e-23
2.773531526e-21
1.364593757e-20
4.661617313e-21
6.471552414e-21
6.429201259e-22
1.176920277e-20
2.401437142e-20
1.419592001e-20
1.239613878e-20
6.612105533e-21
1.538152187e-21
2.590092364e-21
3.507876997e-21
5.902218422e-22
3.630284922e-21
3.774616717e-21
1.773919356e-20
6.301621762e-21
5.867450004e-21
5.688069408e-22
3.165261638e-21
2.872331828e-20
7.166632234e-21
2.817812323e-20
8.753454997e-21
4.943556637e-21
5.239098048e-21
5.576992995e-21
9.945383356e-22
4.972966267e-21
1.713261484e-20
1.110857654e-20
1.503012757e-20
4.147220387e-21
3.548209793e-21
1.126601535e-20
4.803537765e-21
5.929038072e-21
3.379005918e-21
1.206563956e-20
2.294906635e-20
6.828947061e-21
1.193177902e-20
2.790397934e-21
3.956184268e-21
4.575399202e-21
3.572050208e-21
2.338967889e-21
6.710809711e-21
7.363425974e-21
3.424166439e-21
6.611174761e-22
1.593871135e-22
7.77455757e-21
2.000687782e-21
9.532597899e-21
1.291164767e-20
6.836491519e-21
1.415479421e-20
1.235895722e-20
7.246165721e-21
2.172745364e-20
1.025628203e-20
9.878642548e-21
3.173188203e-20
2.825821986e-20
4.925186222e-21
2.802651022e-21
9.394927006e-21
4.174493058e-21
1.307163063e-21
1.327798316e-20
1.050221302e-20
1.794892935e-20
3.286411065e-21
1.238638674e-21
3.781485549e-21
2.498219493e-21
1.803775648e-20
1.639136341e-20
3.724107665e-21
8.687762779e-21
2.037202563e-21
1.514037991e-20
1.625031334e-20
1.710150834e-20
9.818848068e-21
1.864684819e-20
9.128405597e-21
3.966448749e-21
6.674592861e-21
2.126017049e-21
1.651772412e-20
6.963660651e-21
4.062864507e-21
5.053621412e-21
7.636951859e-21
5.137338924e-20
3.257057095e-21
3.896315689e-21
5.966976966e-21
7.87923716e-22
3.44342905e-21
1.797818206e-20
4.10973144e-21
1.219252491e-20
5.934944434e-23
3.225083809e-21
1.84365005e-20
5.974284553e-21
1.735949966e-24
1.669986449e-20
1.297355682e-20
7.228072657e-21
1.573893804e-20
8.219914272e-22
1.862034346e-21
1.507505499e-20
5.007112157e-20
4.774112116e-22
1.447071063e-20
1.676693662e-20
3.716122398e-21
8.265108403e-22
1.579586242e-21
2.022761831e-21
5.941312364e-21
3.532757392e-21
1.155503768e-20
2.331494832e-21
2.557781139e-21
5.379495334e-21
1.794892794e-21
2.945347438e-20
8.936646191e-21
1.995517006e-20
1.373595702e-20
1.137026234e-20
3.78120584e-21
5.644255325e-22
8.254264582e-21
5.349483374e-21
1.483880079e-20
3.74020621e-21
5.763507219e-22
2.164246301e-20
5.798244798e-21
2.016205002e-20
6.39117442e-21
1.721630593e-20
5.902303668e-21
1.400474094e-20
1.702210067e-20
7.370047134e-20
3.791202455e-22
7.467959695e-24
7.351824683e-21
1.32324308e-21
5.73295338e-22
1.328766904e-21
7.04407058e-21
1.27386427e-20
5.519361543e-21
9.08288061e-21
1.686414283e-21
1.651671869e-20
3.473180623e-21
1.247842806e-20
7.388177338e-21
9.238296169e-21
5.49920821e-21
6.700347516e-21
1.311217608e-20
1.306044377e-20
1.119048597e-21
3.674781051e-21
2.923095668e-21
2.75706591e-21
2.587961805e-20
2.021922934e-21
9.772420114e-21
1.38315166e-20
2.420664693e-20
2.278624578e-21
2.863614494e-20
3.600584258e-20
2.280475392e-21
1.216136603e-20
8.537122434e-21
6.589297037e-21
6.563190324e-22
1.480675891e-20
1.168578191e-20
1.202059396e-20
6.933526338e-21
7.705764489e-22
4.46324707e-21
1.616587173e-20
2.590685833e-20
1.686764168e-21
1.03547692e-20
5.509674471e-21
2.94127102e-21
1.572617388e-20
1.490082043e-20
1.79477491e-22
1.628947482e-20
5.686079183e-20
3.903503398e-21
2.068320417e-21
2.753523884e-20
1.510672172e-20
8.676214578e-21
3.375351692e-21
1.430025308e-20
1.599995958e-20
1.316217395e-20
1.806751728e-21
1.140471036e-20
2.14150581e-21
7.64616058e-22
5.297122786e-21
1.309230136e-20
1.818701332e-21
3.314336847e-20
1.806900369e-20
4.256537525e-21
1.498185833e-21
3.482687429e-22
1.573374443e-20
4.991404951e-21
9.83770933e-21
2.121484451e-20
6.618988078e-21
4.971296902e-21
8.519428226e-22
2.434852305e-21
7.568003488e-21
8.678148209e-21
1.639505917e-21
5.286344011e-21
1.487384692e-20
2.139908847e-20
7.675658838e-21
1.985088677e-20
4.126162435e-21
5.059063961e-21
2.992986537e-21
3.172553236e-22
3.478827138e-21
1.468047191e-20
3.592064087e-20
4.051226198e-21
9.566237772e-21
1.235659874e-20
6.912771173e-21
8.354394647e-21
5.768556448e-21
6.787677497e-20
2.102464153e-20
9.991532656e-22
2.117471478e-20
3.616317424e-20
5.635647326e-21
6.383990784e-21
3.157782745e-20
1.00601065e-20
2.174012645e-20
9.756511845e-21
1.427462948e-20
1.091203509e-21
5.927474618e-21
2.987826207e-21
3.517182768e-21
1.206688601e-21
4.122382987e-21
2.861528431e-20
1.054294134e-20
1.011527245e-21
7.863446153e-22
1.161052143e-20
1.049087562e-21
1.190266733e-20
5.590533735e-21
2.070375775e-21
1.131180118e-20
1.687560236e-20
9.775015303e-21
8.766237058e-21
1.539166833e-20
5.232069384e-22
9.345612081e-22
2.919369443e-21
1.115828519e-20
2.810813726e-21
1.386343691e-20
4.843595754e-20
2.057814092e-20
8.625930277e-21
5.051206016e-21
4.429780154e-20
1.067188131e-20
6.813961367e-21
7.780299545e-21
9.635113527e-21
1.509584946e-20
5.330881903e-21
1.013585091e-20
6.767450468e-21
5.55408063e-21
2.61886022e-20
2.229974144e-20
1.188971101e-20
1.77722448e-21
7.879553436e-21
1.433207697e-21
1.25968336e-20
5.47236774e-21
1.826822038e-20
2.946556962e-21
1.644896283e-22
1.066343395e-21
1.966679575e-21
1.045722305e-21
3.331925049e-21
1.400330539e-20
2.317597399e-21
1.638309378e-20
1.321218024e-20
1.031019884e-20
1.687957586e-20
1.050318049e-20
1.717193853e-21
4.815198909e-21
7.212226044e-21
2.169252178e-22
5.311354917e-21
6.233998407e-21
4.564689476e-21
3.234062353e-21
8.557708979e-21
3.407017298e-21
1.207840342e-20
7.512291409e-21
1.798272058e-20
1.204341086e-22
6.823571417e-20
5.949187749e-22
1.090042121e-20
4.896611226e-21
3.526998361e-21
8.537274683e-21
1.000402567e-20
8.560517223e-21
6.85414167e-21
3.129584123e-21
8.857972477e-21
5.213809488e-20
5.669337484e-21
5.813311595e-21
1.229403429e-20
6.41642237e-22
1.540958317e-20
4.637448593e-21
2.69350563e-21
1.098551007e-20
2.774061738e-21
1.509856234e-20
3.590695421e-21
3.324363549e-20
3.925326657e-21
4.976568402e-20
2.112943157e-20
7.423575819e-22
4.718359704e-21
2.403369944e-20
1.565336059e-22
6.669491183e-23
3.75072771e-21
6.111479908e-21
4.02686363e-21
1.622144541e-20
2.616446298e-20
3.200620818e-20
3.04011677e-21
1.680028933e-20
2.578639646e-22
3.536189431e-21
8.32556083e-21
2.280092726e-21
1.390979708e-21
2.217878187e-20
9.428380259e-21
1.158023297e-20
3.128301105e-21
6.169322814e-21
2.109408129e-21
1.259370888e-20
4.995843504e-21
4.488511717e-21
8.019931777e-21
1.572955446e-21
6.725158187e-21
3.675719305e-21
5.050496077e-21
1.585962466e-20
1.553774294e-21
2.816379607e-20
2.604597383e-20
4.590941688e-22
1.873990345e-20
1.557711076e-20
5.971885499e-22
1.288143107e-20
3.103039805e-21
4.046979744e-21
1.245014633e-20
4.892891628e-22
3.566819126e-21
1.675486675e-21
8.046059474e-22
6.156388555e-21
1.111977256e-20
6.053808883e-21
8.475410327e-22
1.094401579e-20
9.390199619e-22
3.746069247e-21
1.059771019e-20
1.373779859e-20
2.670423337e-20
4.575462656e-21
1.650099898e-21
1.069019292e-20
4.4308317e-21
5.966653512e-21
1.935926093e-21
1.234112537e-20
3.993610521e-21
1.345415535e-21
3.350410579e-21
1.340198094e-20
1.427053098e-20
1.309996584e-20
4.153787183e-22
8.58523179e-21
1.720210426e-20
8.663051863e-21
2.156520906e-20
5.750578589e-21
5.087048063e-21
3.155242827e-21
2.658691195e-20
1.171970212e-20
2.244605669e-21
1.384605998e-20
2.268111875e-21
8.304013689e-21
1.272792042e-20
2.630004051e-21
4.023890401e-21
1.141459938e-20
4.045431189e-20
3.219230881e-20
7.580294612e-21
1.393164331e-20
4.549994974e-21
6.968648367e-21
7.051436514e-21
6.512525242e-21
5.77322129e-21
6.927587342e-21
2.316477094e-20
7.370928894e-21
2.248173958e-21
1.462305293e-20
2.740222461e-21
1.756985824e-21
7.364986717e-21
1.176681814e-20
9.101950476e-22
3.026384706e-21
4.889664698e-22
8.355512975e-21
7.8411401e-22
5.577201817e-21
8.207620754e-21
1.66897743e-20
5.793517403e-21
5.608402265e-21
7.477857929e-21
1.870527272e-22
4.798677461e-20
2.691243859e-21
3.8434571e-22
4.86055006e-21
5.842447575e-21
1.849541925e-20
1.521205553e-21
2.069422156e-21
5.789432889e-21
1.189872747e-20
2.409095312e-20
5.907907873e-21
8.819132717e-22
1.602946425e-21
1.375636064e-20
3.885447916e-21
2.307156333e-21
1.266912277e-20
1.56576326e-20
3.811076934e-21
1.089414469e-21
8.095409294e-21
8.630768139e-21
8.461387838e-22
1.175193866e-20
4.466961568e-21
5.522543562e-21
2.107232856e-22
6.604411575e-21
5.604654374e-22
3.607836377e-21
4.95551083e-20
1.31569583e-23
1.725065198e-21
1.549862307e-21
3.216928373e-23
1.104914678e-20
2.767679082e-21
1.416469008e-21
1.841662491e-20
1.420144445e-20
4.416800727e-21
1.108428347e-20
2.398738151e-20
5.464816578e-21
3.914040987e-20
6.822671528e-21
1.277436936e-21
2.851824017e-20
2.068717865e-21
1.268070701e-20
3.664180192e-21
1.982657866e-20
1.012795799e-20
3.587989772e-21
1.0833268e-20
5.826958485e-21
2.144693328e-20
3.073503196e-21
7.385243888e-21
4.479902784e-22
7.258817756e-21
2.311641165e-20
1.452502806e-20
1.225139877e-20
5.259528848e-21
1.278687557e-20
2.469878622e-20
2.206180111e-21
2.027692774e-20
5.022669409e-20
1.019636329e-20
1.570578885e-20
1.716655389e-21
1.081804101e-20
9.258025425e-22
1.027747088e-20
1.403117318e-20
1.15505217e-20
9.681907917e-21
1.27802292e-21
1.296655967e-20
6.39120585e-21
8.642759037e-21
1.18122755e-20
1.158329489e-20
5.248870374e-20
2.616933937e-20
3.615100592e-21
7.520072435e-21
4.396789309e-21
4.904789676e-21
5.463545606e-21
1.406240959e-21
9.550968455e-21
6.591411449e-21
1.757585335e-21
8.72352615e-21
3.105041752e-21
1.211470766e-20
1.954532324e-20
2.36548536e-20
1.473554142e-20
9.932602535e-22
3.604171465e-21
2.140580621e-21
3.834410263e-20
1.259047425e-20
1.38017601e-20
1.718483593e-20
1.046472788e-20
2.047001841e-20
1.057802203e-20
3.28945597e-20
2.049847239e-20
2.66309264e-21
1.252092438e-20
1.230524112e-20
1.532678103e-20
2.389370442e-20
1.29187371e-20
2.386799119e-21
1.547419125e-21
2.939557337e-21
1.077841825e-20
2.700906637e-23
1.08907275e-20
1.433604619e-20
1.174173727e-21
8.027587822e-22
1.84524361e-20
1.14724618e-20
3.567235254e-21
4.685235338e-21
5.573311265e-21
5.962098533e-21
8.144537237e-21
6.375886404e-21
4.128743796e-21
7.596757214e-21
4.597525823e-21
5.493718305e-21
4.345880189e-21
9.357052142e-21
5.637873724e-21
2.923801516e-20
2.246959563e-20
1.047582273e-20
2.444964692e-20
4.899727469e-21
2.663370691e-21
2.553772751e-20
3.374631108e-20
2.274304194e-20
1.607573265e-21
1.516165624e-21
1.023685046e-20
1.20856271e-20
1.636079018e-20
4.657085412e-22
6.51658972e-21
2.533017897e-20
1.776862922e-20
2.997291054e-22
4.318700096e-21
6.951772628e-21
2.317877221e-20
8.693961536e-21
8.916972849e-22
8.260502586e-21
2.9351218e-21
2.826087207e-20
1.583514209e-21
1.199752437e-20
6.719629936e-21
5.844261554e-21
6.771496481e-21
1.374461572e-21
1.316740195e-20
7.040711421e-22
2.189133218e-20
7.493086871e-21
3.935889574e-21
7.123621125e-21
9.317783119e-22
7.229721736e-21
1.336290147e-20
8.309748366e-22
2.914872304e-21
1.360661132e-21
3.631828219e-21
2.91257594e-21
1.59501849e-20
1.653119169e-20
5.051310438e-20
8.575225158e-21
9.108858042e-21
3.226669178e-20
7.718852014e-22
4.04358928e-20
2.75743496e-22
5.243916307e-20
1.008137336e-20
5.492883035e-21
3.119356955e-21
1.012254353e-21
2.206744711e-21
7.819741515e-22
5.043850545e-21
9.728916209e-21
3.566065781e-21
9.789969032e-21
1.730720039e-20
7.545614741e-22
1.003118131e-20
2.811810622e-21
2.823341141e-21
1.317211134e-20
1.233725758e-20
3.116219233e-21
1.571658302e-21
3.603437292e-21
5.39320222e-21
9.685761152e-21
2.077878462e-21
1.199851853e-20
1.359173967e-20
1.183977287e-20
2.232621896e-20
5.485034636e-21
7.431777545e-21
1.636294439e-20
3.287410897e-20
1.867290952e-20
5.569354927e-22
3.255897078e-21
2.079048462e-20
5.460290586e-21
2.679656698e-20
2.486205502e-20
5.609778422e-21
6.620066523e-21
1.002389809e-20
5.995926189e-21
3.48813329e-21
5.809660128e-21
2.589136567e-20
7.751815209e-21
4.68935198e-21
5.808715529e-21
8.429657171e-21
1.404643171e-20
1.566151768e-20
1.412994848e-20
5.997577486e-22
1.293282407e-20
4.437657562e-21
5.550478883e-21
1.665512108e-21
3.735103131e-21
1.019775309e-20
1.353807044e-20
1.475263397e-20
9.861424508e-21
7.077963032e-21
7.558419206e-21
2.208723539e-20
6.586991882e-22
1.445407263e-20
2.111756033e-20
4.966928635e-21
1.751483486e-20
9.67596875e-21
5.997280665e-21
2.12154577e-20
1.648333501e-20
8.542538557e-21
4.998865475e-21
3.877742869e-21
7.749162759e-21
2.702941889e-21
7.228353704e-21
2.004090245e-20
1.770432112e-21
2.716861298e-21
2.635028241e-21
2.124403091e-21
6.636628261e-21
3.332515961e-22
8.447589329e-21
4.799092133e-21
2.667271876e-20
1.301787432e-20
2.406087192e-20
1.134777464e-20
7.075244376e-21
1.101438733e-21
2.112045182e-20
1.75172294e-20
1.81898495e-20
2.328540915e-21
1.173748653e-20
1.845651843e-20
2.239257355e-21
7.064973064e-21
2.193593814e-21
4.859351841e-21
2.530328797e-20
3.240455778e-20
4.696215671e-21
8.420094232e-21
6.650582458e-21
5.858990346e-21
1.721194732e-20
1.971792363e-20
9.670768726e-21
2.866567071e-22
1.487987211e-20
1.949057919e-20
6.446341062e-21
6.045511745e-21
1.319021366e-20
3.783042201e-21
3.327181663e-21
4.142266101e-21
7.431581121e-22
8.013150252e-21
2.83152861e-20
1.061438501e-20
1.661450705e-20
7.764631661e-22
1.218258578e-21
5.147141578e-21
2.082903515e-20
2.001002503e-20
3.389389666e-21
2.132558217e-20
2.344300871e-20
5.329333929e-21
1.109920406e-21
5.055587137e-21
1.92151166e-21
5.067893357e-21
1.466959457e-20
5.645046707e-21
1.579719687e-21
1.340653162e-20
3.770481873e-21
5.229814378e-21
1.127782105e-20
5.75679369e-21
2.813492743e-21
1.502402556e-20
1.663037443e-20
2.158951113e-21
8.093225506e-21
8.51164639e-21
3.676389834e-21
2.457554028e-21
1.494209221e-23
1.322204036e-21
4.06929322e-21
3.118740554e-21
6.724622911e-22
1.988443256e-21
5.339750074e-21
2.180041399e-21
1.127911253e-20
2.055000616e-20
8.950781126e-22
1.712687213e-21
6.294239956e-21
3.092675191e-21
6.851983836e-21
9.056446917e-21
5.802925866e-21
5.907183551e-20
1.942830004e-20
1.765997197e-20
9.209866853e-21
2.278115417e-20
3.108691011e-21
1.717545383e-20
1.03186194e-20
1.901678041e-20
2.537705928e-20
1.544176411e-20
5.470961163e-21
1.098151591e-20
5.443795876e-21
7.652024318e-22
8.489327363e-24
9.502492553e-21
1.355555741e-21
9.235964814e-21
1.424692829e-20
1.266336045e-20
8.195124147e-22
1.911483471e-20
2.820231267e-21
7.997411981e-21
3.234859851e-20
1.81288864e-21
2.396268989e-20
3.511760013e-21
8.332875144e-21
1.051945572e-20
8.781331546e-21
9.266749278e-22
4.875818025e-21
8.064757992e-22
8.69438369e-21
9.94816956e-22
8.654994111e-21
2.22611802e-20
1.576146542e-20
1.010594092e-21
2.128287551e-22
2.169837307e-20
4.993698986e-22
8.084700651e-21
2.657565689e-21
4.124431623e-21
5.008372259e-21
3.440752068e-20
1.904590993e-21
1.276956171e-20
1.020496865e-20
3.147774527e-21
3.291816646e-21
1.481568511e-20
2.711823472e-21
4.05536199e-20
2.617603033e-22
1.425616811e-21
7.072851781e-22
3.675615315e-21
1.580953145e-20
2.693584063e-20
2.725960421e-20
3.13430186e-20
8.202871691e-21
7.005357531e-21
1.944068215e-20
2.35253902e-21
6.297356591e-21
2.441904432e-21
7.882226152e-21
1.749477355e-21
3.24276351e-21
3.89728206e-21
1.712823282e-20
3.12600878e-22
8.859867873e-21
2.005964073e-20
2.165391304e-20
6.65277971e-21
1.587008064e-22
4.133129935e-20
1.529805104e-20
7.626035036e-21
4.443149791e-20
1.353780279e-21
2.930293836e-20
5.289603554e-21
2.579945121e-20
2.188587728e-22
1.412157397e-20
1.760895914e-20
2.655431942e-20
6.229210605e-21
1.714279041e-21
1.380522983e-20
1.152541222e-20
1.011583574e-20
1.844656087e-21
2.20972367e-20
8.525353123e-21
4.523896044e-21
1.382167297e-21
2.266234575e-21
2.342501934e-20
2.355354206e-20
4.723279162e-22
2.316733319e-20
9.409516885e-21
8.258453155e-21
4.641576495e-21
1.472855016e-21
1.841881807e-21
2.42122969e-20
5.397737299e-21
7.546784378e-21
1.408062052e-20
2.013813818e-21
2.506286185e-20
6.385253512e-21
1.548460461e-21
7.179733925e-21
6.971518977e-21
4.580033938e-23
6.221136907e-21
2.809752225e-21
3.499101497e-21
2.1176667e-20
1.09939891e-20
7.723801925e-22
1.499956719e-20
7.55614393e-21
8.504207904e-21
1.906195391e-20
7.164779002e-21
1.463949094e-20
6.301022201e-21
1.180201951e-21
2.027612045e-20
2.304946186e-21
2.070755738e-21
3.322963653e-20
3.952681922e-22
4.050312186e-21
7.517345285e-21
8.66423586e-22
7.693236782e-21
5.464061915e-21
9.443016538e-21
2.522110804e-20
1.751677681e-21
1.412561898e-20
5.360053454e-22
4.741208982e-20
1.135714452e-20
7.466263146e-21
8.964955831e-21
8.900722727e-22
3.907929951e-21
2.273205404e-20
4.63640481e-21
1.377256234e-20
2.539706385e-21
1.036239578e-21
1.754038822e-20
3.731561896e-21
4.020058684e-21
2.34986784e-20
6.496481651e-21
2.730606896e-20
2.710782349e-20
4.968953262e-21
7.118466837e-21
1.257639552e-20
1.44963186e-20
3.897852894e-21
3.862722108e-21
2.134006119e-20
1.184887194e-20
3.912457466e-20
9.086789575e-22
2.664377102e-20
2.952626997e-20
1.889948545e-20
1.770306634e-20
2.343682047e-21
1.342946167e-20
4.660102053e-21
2.568542449e-20
5.049142787e-21
2.565489206e-20
5.768785109e-22
3.549636152e-20
5.401751861e-21
8.237052663e-22
2.242703796e-21
7.186822721e-21
6.334732652e-21
5.833763155e-21
9.83779353e-21
4.069781182e-21
2.540650101e-20
1.393128072e-20
4.423321368e-23
2.11819701e-20
2.417226509e-21
1.70166917e-20
3.162695117e-20
2.490286794e-23
6.044887847e-21
1.084318189e-20
1.307218094e-20
2.413850706e-20
1.96396635e-20
6.29515877e-21
3.187816148e-21
1.280412486e-21
1.884240623e-20
4.407424186e-21
7.923106865e-21
6.982677269e-21
2.617736367e-20
5.210286195e-23
6.123513118e-22
1.075847672e-20
1.277473753e-20
5.351835483e-20
8.558842937e-21
9.988631779e-21
3.214553048e-20
1.234114905e-20
2.375155562e-20
1.340734199e-20
4.242629748e-21
6.55577847e-21
1.659212456e-20
2.65598114e-21
1.311595672e-20
2.5869121e-20
1.119292238e-20
3.577224644e-22
1.262688532e-20
7.714859214e-21
2.658764059e-20
2.379356575e-20
1.635186219e-20
1.628230039e-20
2.064087635e-20
9.348720661e-21
2.871612062e-20
6.005804349e-22
8.097174067e-21
5.578901865e-21
5.559130388e-21
1.64011828e-20
1.590836235e-20
7.173160057e-22
1.487421233e-20
1.075219502e-20
1.974928187e-20
4.389150318e-21
6.990515265e-22
2.163212834e-22
1.060782109e-20
1.902935892e-21
4.670809378e-21
4.434256268e-21
2.423536335e-22
3.70985911e-21
4.807989577e-21
8.060257685e-21
3.42869383e-21
4.604052318e-21
3.64294142e-21
2.806063933e-21
2.441623692e-21
2.211715758e-20
3.874780191e-20
1.011393327e-20
5.232805088e-21
7.488192502e-21
1.344127985e-21
4.262310696e-22
3.346412353e-20
3.862728759e-21
5.886665302e-21
6.446196596e-22
2.666382583e-20
1.45131911e-21
4.123891875e-21
6.872690919e-21
6.363848403e-21
1.025504982e-20
7.352214021e-21
6.321728978e-21
2.977659411e-20
9.442902723e-21
8.110006823e-21
1.20455307e-20
2.732648103e-20
9.879924124e-21
5.694427878e-21
9.807547824e-21
8.737063296e-21
7.010218099e-21
2.306605211e-20
1.489262006e-20
6.976678364e-21
1.182081696e-20
1.110484159e-20
7.02207088e-21
2.52774995e-21
4.239215089e-21
1.100671959e-20
2.281651819e-20
1.256087189e-20
5.247865079e-21
1.675930598e-21
4.068992092e-21
1.540744869e-20
9.826988438e-21
2.978961151e-20
5.174529537e-21
5.007858644e-22
1.923116684e-20
1.342786275e-20
1.031525383e-20
7.602085548e-23
5.976951682e-21
7.472505438e-21
3.849550276e-21
2.410686187e-20
1.341305986e-20
8.757064597e-21
7.088171819e-21
1.6553835e-20
5.844589228e-21
4.141563062e-21
9.563970204e-21
1.439514233e-20
3.801671408e-21
1.167411311e-20
1.017036725e-20
3.857248139e-21
5.710777544e-22
1.387523771e-20
3.954286408e-21
1.420165383e-20
5.241178642e-21
1.884776283e-21
1.773840751e-20
3.031159749e-21
7.932842164e-21
2.557901027e-20
1.775361141e-21
2.047141025e-21
1.116937734e-21
2.385528312e-21
7.56888285e-21
2.915347735e-22
2.833565199e-22
9.95447664e-21
2.910083902e-20
1.44667212e-20
2.176367369e-21
1.368029912e-20
4.118434624e-21
2.27834505e-20
4.08023529e-21
7.344288347e-21
1.819038122e-20
2.675711366e-20
2.553520057e-20
2.455888021e-22
7.222923023e-21
4.875755848e-21
1.700538584e-20
1.681476521e-20
2.45574957e-20
1.594329618e-20
7.833045103e-21
6.91183079e-21
6.378262245e-22
3.216615358e-21
3.740964741e-20
6.191863473e-21
4.470323399e-21
5.658303459e-22
3.902285463e-20
1.527481888e-21
4.546617131e-21
2.457203962e-21
4.87258035e-21
5.893703937e-21
3.798524803e-21
3.925669938e-21
1.152440717e-20
6.321136665e-21
1.265628341e-20
2.080977139e-20
3.896622358e-21
8.195927623e-21
4.687363315e-21
1.956815704e-20
2.139133911e-20
2.20095268e-20
1.545094974e-21
3.111067431e-21
2.568067652e-21
3.31932143e-20
1.960379308e-20
1.257505379e-20
9.152260163e-21
1.455413434e-20
8.161557077e-23
3.561296686e-20
4.447799712e-21
1.404592433e-20
2.866512288e-21
3.025064301e-20
1.714809807e-20
1.429440434e-20
1.649186712e-20
2.103058915e-20
3.827420487e-21
1.047385912e-21
9.581642635e-23
5.499231846e-21
6.231494068e-21
8.685980601e-21
1.81848986e-20
1.893544778e-21
6.611308043e-20
2.284205752e-20
2.799830511e-21
5.709753917e-21
1.277406846e-21
9.116953401e-21
9.056263125e-21
7.490108086e-21
1.148321525e-21
2.444394507e-21
1.427323224e-20
2.169419878e-21
4.196237484e-22
4.079311119e-21
6.049252307e-21
2.3208906e-20
2.367005026e-20
1.075238882e-20
1.869041186e-21
2.210444124e-22
4.22743695e-21
2.361402884e-20
1.312099133e-20
2.600681147e-21
8.37678698e-21
7.33004989e-22
2.150168003e-21
3.644871558e-21
6.045387222e-21
1.597096476e-20
5.551950718e-22
2.775700885e-20
4.486276215e-20
4.745618298e-22
1.148953889e-20
7.229653049e-21
1.225660447e-20
3.252573069e-21
9.947525661e-21
7.306835719e-22
3.521131997e-20
4.387803976e-21
4.341970894e-21
5.307915936e-21
6.633792459e-21
1.998623026e-21
1.640752977e-20
4.243994944e-21
2.665001102e-20
1.488957136e-20
2.581793432e-21
5.932911097e-21
1.401525413e-20
3.665367924e-23
6.394129275e-21
8.643067184e-22
2.541140619e-22
2.365293783e-20
9.979482579e-22
2.642044766e-20
1.149943487e-21
3.505228431e-22
5.299883769e-21
2.703089057e-21
8.066659506e-21
1.733872975e-20
7.633635698e-21
8.420682447e-22
3.020457538e-21
3.552832848e-20
7.574059558e-21
6.753105146e-21
3.297916755e-21
4.647667301e-21
2.48120131e-22
8.881197681e-21
3.084562138e-21
5.730307419e-21
8.286510438e-21
6.604712061e-21
1.123041621e-20
6.60640783e-21
3.564015791e-21
2.341678002e-21
5.190753392e-21
1.42366441e-20
2.3742648e-22
8.058693627e-21
1.377018464e-20
1.552071632e-20
6.30481199e-21
1.050826854e-20
4.110306624e-21
6.046481792e-21
1.385270013e-21
4.079270122e-20
2.939082321e-21
4.145192022e-20
9.230580903e-21
2.061138918e-20
1.602466137e-20
2.994811886e-22
1.463604961e-20
8.636117432e-21
1.18784408e-20
1.065065688e-20
1.457445774e-21
2.238282437e-22
4.653595003e-22
5.095402809e-21
1.158724833e-20
9.629649944e-21
1.371718615e-20
2.293709005e-20
8.892378396e-21
3.457060266e-20
3.740253565e-21
8.904601678e-21
3.142047114e-20
1.73868139e-21
3.823602514e-20
1.574717013e-20
7.66243688e-21
6.88822865e-21
9.008494781e-21
2.730665981e-21
5.711305782e-21
7.368455901e-21
5.145340331e-21
7.633957385e-21
3.888010053e-21
5.735241968e-22
4.329111396e-21
4.528465311e-21
4.504470033e-21
1.041917631e-21
2.518782355e-20
5.525631411e-21
4.772806977e-21
9.829208107e-21
1.968781298e-21
4.849697799e-20
6.250213308e-21
4.267155363e-21
1.742296985e-21
4.352579339e-21
7.503132816e-21
9.803287629e-21
1.155103919e-20
9.93584778e-21
9.911500408e-21
2.314817858e-23
5.92655871e-21
3.273188701e-22
1.32882056e-21
1.357412561e-20
7.73157497e-22
2.292191568e-21
4.187980564e-21
9.310889004e-21
1.01163618e-20
3.852547946e-21
1.279005077e-20
1.487603661e-20
3.601147972e-21
1.401327689e-20
4.942579602e-21
5.549605544e-21
2.282389993e-21
6.685551311e-21
1.490600543e-20
8.28433817e-21
8.904701719e-21
3.054201093e-22
4.307978161e-21
8.756436254e-21
1.454737522e-20
3.334594182e-21
2.261115501e-20
1.275454486e-21
7.232889332e-21
3.062523511e-21
2.301159752e-21
4.041260736e-21
8.647286881e-21
1.176030577e-20
8.819653194e-21
1.028258595e-20
2.447462767e-20
6.115007942e-21
6.212224098e-21
1.644905514e-21
1.539662351e-20
2.108282258e-20
2.585005007e-21
1.16816494e-21
1.074955195e-20
3.222914545e-21
2.008825784e-20
1.092798666e-20
3.329551694e-20
2.11160601e-21
5.679047017e-21
2.07682732e-21
8.2585452e-21
2.593153864e-20
3.339080806e-20
6.665343055e-22
3.315108505e-21
1.730532288e-20
1.555860479e-20
1.008647902e-20
1.245806341e-20
1.681128531e-21
1.173306052e-20
1.28973315e-20
4.288508539e-20
1.15372251e-20
3.591125002e-21
2.040889478e-20
4.940246043e-21
1.937781637e-21