/*--------------------------------*- C++ -*----------------------------------*\
| =========                 |                                                 |
| \\      /  F ield         | OpenFOAM: The Open Source CFD Toolbox           |
|  \\    /   O peration     | Version:  v1912                                 |
|   \\  /    A nd           | Website:  www.openfoam.com                      |
|    \\/     M anipulation  |                                                 |
\*---------------------------------------------------------------------------*/
FoamFile
{
    version     2.0;
    format      ascii;
    class       volScalarField;
    location    "1e-05";
    object      linearKE;
}
// * * * * * * * * * * * * * * * * * * * * * * * * * * * * * * * * * * * * * //

dimensions      [1 -1 -2 0 0 0 0];


internalField   nonuniform List<scalar> 
1300
(
940.6660555
600.6079064
20324.69181
59867.12371
33770.23379
10925.93342
66826.43433
22367.58692
37967.60378
36362.95165
2533.188818
3900.759879
23632.58526
193700.1252
88902.80317
11484.84899
42022.65163
48724.31794
54520.91167
43403.21431
0
1812.422994
21390.64284
204571.1373
98566.80044
19864.89073
45060.11287
49438.50589
84124.07152
51346.65614
0
2202.84968
44317.00758
170641.0606
32785.11737
9617.645914
80997.8647
151544.592
59586.4571
59106.95802
0
1338.083385
26187.08662
137893.9204
198209.3582
34698.89456
104323.7971
96061.40703
86459.17707
114603.8775
0
0
11189.26469
156094.8709
105828.9326
6982.501621
118518.4194
118783.0169
68451.99348
61762.08632
0
0
17330.96382
175859.7579
85090.29344
24344.95034
99385.83846
108740.9787
52056.45897
59382.04811
0
0
30525.25954
209614.7929
82229.51936
32560.60934
81771.1707
86062.26616
46208.42829
36660.94547
0
0
32929.55083
149321.0138
37915.4524
47469.00337
49458.99429
112152.5597
78727.57361
84751.23284
0
0
20396.63889
230040.7145
29246.20305
37270.75421
73610.36431
58758.97341
73430.24204
55950.70434
0
0
36183.70727
207381.1598
108754.3639
15559.24755
49924.7024
101597.1305
100886.9679
72980.41458
0
2360.519917
32764.77552
124758.1372
113701.8667
21542.08523
71655.42245
93058.95862
128232.2492
97135.1446
0
0
21752.24236
270571.8182
88271.79081
28378.13261
95996.00143
97529.06807
49878.59924
60381.02575
0
0
41070.41216
123462.286
74474.65081
36632.20559
76449.56119
119247.4419
62578.45373
70484.60632
0
0
28084.34276
132579.2164
111299.3493
17766.01208
70827.11661
115419.2994
107141.8958
72966.99571
0
0
34726.588
235288.9777
62347.53591
15328.59255
38039.08345
138738.2421
88129.28326
63291.19491
0
0
33287.24456
165765.6187
42756.12108
22212.81114
41675.03823
142635.6013
53178.44025
85847.73219
0
0
45780.3067
149186.0475
70146.74948
22195.89055
108353.4131
72114.93893
117780.1086
47763.68887
0
0
15615.02233
189769.7322
81120.2285
18830.24977
78352.80376
104094.259
94917.59593
93539.29205
0
0
16952.69948
224329.9404
51176.92481
19865.67425
58825.43832
124706.6685
113541.799
70468.7992
17436.83065
8382.51817
16794.95081
5399.195636
20698.68666
3309.834435
10370.318
4168.551709
11027.17325
21693.94144
26319.57291
11224.41669
26205.86872
30292.82351
32967.86008
33807.42014
43720.90076
44385.40863
69305.14656
96714.53005
85600.4721
64264.17736
78713.35827
108072.5397
74958.55136
95783.36101
51549.51803
129784.6343
65813.34101
72226.07102
17238.57047
26529.96769
27216.64902
19972.29791
20513.06127
6834.309652
8675.681728
41135.55792
40699.86891
8141.789117
24670.32268
27111.31413
61422.24723
18036.1319
16557.94909
54873.67046
51415.5819
36887.33778
62499.94877
54591.43586
46512.50059
68899.35675
104711.2289
94352.87516
49330.55454
26154.49929
143942.7547
46766.6167
56654.49864
48871.10857
31406.15284
48182.7784
33121.50732
26608.85508
17588.97031
29999.01307
61401.11878
35504.44037
47024.41956
23398.58938
57170.59647
25978.48257
19691.59643
52735.64722
51163.78026
51406.25178
72873.66915
70481.32773
98315.93148
88506.24197
49107.90001
95741.64723
48453.74122
83644.87131
125447.8152
69243.59528
107338.9188
22369.68203
103235.8818
92181.21822
80687.8507
68462.60443
68223.797
53851.12647
41654.18636
37622.80945
52521.25345
79292.89285
52510.77409
40828.99597
52389.98432
57165.63877
61052.59765
63247.7897
54719.0154
75235.39559
81952.38582
21834.41611
77637.78953
84820.43668
97395.86499
51771.81848
85339.25754
55899.20049
100805.7359
80837.63781
85011.78329
74989.96345
82942.27409
81457.5237
135854.1394
96330.81852
62966.76342
72376.48403
62364.26367
101587.8025
104872.6961
124970.8682
13918.51244
68210.35263
71891.83324
57359.57737
49946.5622
28241.18185
18165.99247
82834.38255
50145.38771
72411.38678
119955.282
68986.21105
51517.56946
74474.0782
58755.80954
112729.4831
84868.50676
105377.4949
105014.8663
66099.33158
72121.91841
102852.8263
45027.98063
94043.93277
84578.70857
97516.97035
62147.37135
94335.69164
61292.82627
67003.41398
103982.2077
76681.19252
113237.4659
86516.02943
112542.0692
52589.11328
84056.98534
75116.07433
87909.12988
104070.2961
31841.94475
98103.47657
82000.56078
95115.101
53312.2504
72894.76789
69660.59162
75164.26174
107729.9625
60842.8962
80107.85098
137534.0384
129173.0969
125752.7397
80782.86359
130306.8351
56502.81637
78139.75677
103077.6549
63230.56903
97105.45623
119843.8027
99268.28201
78160.68267
80685.42132
82367.5718
79356.48316
46135.14529
71239.00662
46834.98238
119417.0611
43559.66557
93043.66716
54792.31658
58006.72996
64392.71225
34119.51599
190760.2088
80562.74279
70031.93507
131358.2262
116365.6389
61924.17331
101465.0471
98817.97631
84686.81564
93069.38409
111692.1888
92107.06742
106646.4692
113881.5258
123024.8509
106746.6152
81775.89898
95521.88809
74241.6057
71977.61635
63047.04142
89207.19717
79494.44662
122089.2135
107947.4507
106255.4416
85604.37858
52537.41194
37404.88779
116506.7824
154591.729
115724.9468
112112.1818
66395.33544
70954.82539
79574.49377
92263.0103
63052.98661
75571.8694
48432.39464
75044.10783
163203.3405
99752.35218
95937.93687
96808.33632
83430.28827
114413.089
50862.00684
112623.0361
81368.61845
57956.86649
104317.1555
94080.7157
114880.5357
93906.0261
99745.28327
63355.03116
73479.65524
67376.14318
122474.223
94398.45623
97039.228
58686.69511
95520.52247
85624.27453
77781.50138
125950.2422
53729.25757
79164.32854
119230.7772
120289.5679
140374.5101
110858.9517
94331.03847
102432.3101
123873.9109
104116.7767
80202.74594
53160.52882
57637.52372
70990.77853
56830.82123
84607.52097
88203.40888
77937.72289
99225.59946
73812.65732
58041.42105
114661.1462
89241.56379
51759.74377
54356.3736
79055.21845
95108.07789
81372.35736
44753.55263
102408.921
66514.87082
56628.59446
126188.1839
90688.48176
67049.13174
51296.83162
87200.81547
159062.3005
138127.4677
64543.63588
44447.48385
57605.91124
78612.11108
57037.39326
67524.33743
112497.0832
74466.18525
98702.41961
64308.18726
97883.79526
81661.57144
19789.01281
79943.56199
51442.96037
74494.47437
125230.9245
112812.466
76095.12536
37954.45944
123561.1869
95223.4043
66909.16339
112991.8355
129980.9558
91584.17517
86656.82116
116851.805
88856.14876
61503.52994
82496.05173
116825.7105
47111.68003
104164.8661
131344.4387
66352.44576
77888.80363
122818.0115
46093.25319
136737.8052
79411.89733
60875.51541
75541.59104
76565.4505
87019.74734
81272.68311
97749.8574
81585.71013
67753.53573
73147.88743
107192.2168
68749.96914
69436.89509
70266.78875
127605.8321
91591.05786
106477.0732
61874.55476
113647.3283
67878.15784
66250.44857
66842.36002
76721.39951
71008.96616
92037.5
39006.99947
67174.57515
73755.12734
110011.3042
71600.95962
73571.99929
122086.4738
53164.47654
58126.70577
54915.46944
49341.97825
65894.13274
75930.26501
91471.07559
68696.45326
59551.96195
59202.11805
73379.17409
91991.23966
113089.6688
137628.7032
28031.6795
147081.2448
73536.17563
84161.68737
69918.51332
124849.787
93450.39964
70277.03393
40644.83153
104524.8532
80942.96207
86165.42385
54234.16089
44484.04687
86442.09183
87564.22897
128069.9885
94702.33601
61967.6233
88826.04258
118900.6493
62607.54151
89655.72038
62854.90555
111895.1888
91021.41901
44496.62616
53836.37048
76083.01539
136676.2376
72271.31157
130433.2618
79049.54259
130919.1218
88733.39473
39614.66986
76977.20884
90351.6707
84926.12231
70547.43972
89716.8034
48841.30079
101501.4603
78381.65821
81643.83698
84010.62886
97723.47836
88181.2025
53379.97678
55100.7669
94667.55137
71851.5871
83303.28497
107696.3403
111156.7058
65023.88974
95797.98928
82336.4898
97389.27777
48730.68544
110804.9098
151492.6258
112164.4219
145903.3319
68122.29745
100211.355
71956.45349
140575.0345
33334.66247
80472.60854
76201.08979
92186.69266
104735.5303
70430.80806
63237.92531
113345.3368
79027.88692
96918.75462
108670.3743
70952.73287
46895.92996
68311.06563
41418.13728
64472.64912
122962.8042
69626.75333
88866.46338
86163.04394
101878.843
156088.7116
124070.6283
66483.51161
76968.37906
135856.42
80744.64164
88033.14795
54179.17986
89393.47269
66843.00851
79292.72376
76539.40325
75780.89243
57191.21362
81066.16609
121415.5334
77491.19586
86279.04119
58093.82295
97338.19442
85916.34154
57816.70339
79535.19123
95884.70062
87598.32235
53535.07467
29283.4286
104684.8141
75600.28296
136392.106
66634.8579
95346.33493
108990.7062
122679.7257
102532.7136
67444.4752
98117.80252
49670.71211
54120.78396
58327.43831
121169.1293
80357.65794
97521.78966
41979.93757
97634.35354
105453.7195
84493.48694
52431.11978
82996.87551
52435.73844
120992.3912
117206.4757
42689.65345
44287.18775
74061.23823
103908.8581
98635.7551
49733.38596
56920.96131
70305.00755
95373.3143
103250.9504
128197.9065
87632.79184
140755.316
69342.65417
100014.0436
112126.852
151456.2302
73407.15841
83779.41303
122190.8489
84714.67378
104747.6311
93773.59516
69260.96853
85756.62014
56546.53415
59078.31082
61471.21667
73639.65063
77666.77042
57597.73759
104699.6613
137737.776
81347.08019
72479.91298
86796.05651
110243.6488
74829.74522
144786.8418
67825.40453
93633.70682
87304.76306
51106.00326
70041.09883
82498.81467
76017.63895
83404.14883
81225.8275
96039.38044
54897.69795
120876.5273
53301.37909
51195.25352
100413.4917
97682.57399
89495.39976
125067.4345
148805.4956
65427.58721
79704.41359
100662.4508
112366.4223
78616.77468
90271.7402
98620.72656
8696.314257
13499.8798
7696.2536
29516.24785
24321.61463
26696.76344
11645.53334
103246.6832
57556.45706
89291.90143
41121.03572
44255.34623
64741.96476
36602.28345
53860.81234
24129.42895
31934.54525
67417.18114
67445.03568
90287.52166
51369.78998
115417.811
30863.84441
92053.97101
42173.37779
29666.73254
37640.79172
35065.35847
135096.3071
61542.33435
98298.16068
118679.3627
116582.6873
114890.0773
70612.39079
44936.65624
60046.76808
66884.80398
102528.1821
57685.9661
121724.8316
75565.02572
61163.21407
157958.745
71740.8151
75333.64868
84280.94555
116103.4586
91830.60838
88506.14161
109249.7299
81045.6362
88573.77811
86418.36467
89199.15248
102049.9942
129482.2484
64223.20579
72775.24408
115585.4172
83744.36884
125655.034
79795.28206
115252.1882
120559.8394
40915.17482
82835.63884
48175.35151
87756.8888
64198.1088
55898.77338
67232.08865
101936.5802
80554.73855
94794.67381
91843.2232
103867.0053
67681.356
127504.9473
73533.7579
84280.55136
122250.6858
127566.9311
180392.4576
69918.71823
65478.37637
126347.6845
79901.14803
107203.5453
61213.57664
37884.50238
55381.28871
83180.13599
85376.53004
119030.7438
62749.6137
93128.86656
57366.48651
102450.9055
130685.7421
104890.6421
132246.9066
137006.425
100548.2424
78544.27879
67833.35857
77059.71511
118739.0331
95802.22345
44740.90514
30549.98048
130920.9193
108901.8981
68145.33089
100011.8603
86156.77074
53509.28162
74756.54085
90927.77305
85011.4082
49634.08488
59980.12085
91459.04428
71334.30551
84466.58332
74553.85757
59008.31923
44232.22602
45543.51129
78635.02603
70553.26632
90858.67899
75068.87474
104177.2914
132886.1396
91199.20447
66109.02279
95507.18611
83116.31677
80160.50903
37250.56651
98476.76161
59104.34292
68256.19489
66882.7734
121402.7294
37767.45433
66219.84161
20142.62791
39670.13782
83851.29335
76984.75227
60398.03973
85240.74801
100973.5579
150361.3659
73081.2028
101389.9477
55590.96047
81729.28215
106689.5158
73846.85044
97322.15129
96456.33377
79372.63039
55848.09508
77109.54643
138013.2537
82261.44421
95986.60271
110017.4333
50422.61906
116189.9968
92892.51091
60005.34937
21794.06399
81990.04568
100080.2103
112812.6405
56493.3211
93618.34094
82431.90074
45297.72901
72725.03679
83636.71309
52708.34885
113711.7762
68836.93449
52367.94672
67779.61988
102830.9251
67092.19407
80265.39687
64322.8362
68246.97983
113340.4698
30829.40351
2822.699324
8772.32902
1603.040896
1721.327466
9124.13258
3090.872032
3758.64422
126.0310337
2683.044839
1608.343422
4239.30311
3796.673816
2447.662967
4024.672151
9870.33601
2872.275829
8738.378148
11755.02289
11968.81865
15509.28723
10416.18788
10935.8207
12606.90393
9070.30545
10594.21
9142.2241
4068.874245
1490.344723
7699.426014
23836.26319
3279.410922
1586.027121
3925.31083
0
11987.69202
0
0
5417.330241
12361.68
3959.95409
10391.10862
6535.934658
9304.143024
10966.48276
17023.85461
9310.222104
42555.97204
8478.40042
22984.75772
18554.99988
24047.06144
12009.99923
13651.37246
8361.310944
14617.22115
32219.24595
21828.98455
13894.3817
5978.618282
16932.47673
6957.351116
6962.857686
3352.888086
3598.732924
2550.259695
1318.110881
4273.248388
6594.427625
2830.506411
2289.691094
3331.63155
6866.549534
3240.709068
3992.441733
8294.703844
14299.02327
21450.65438
6737.635908
19381.43847
16361.93121
30119.98141
10421.08302
56475.10847
6890.735722
18952.32882
15931.01482
33315.79282
20937.66046
13714.43532
20687.46765
3420.950889
4450.556268
2674.797891
4230.759735
544.2356793
0
738.758887
2960.007245
3050.121273
9279.62573
1708.747883
4544.184117
7909.260297
7276.125534
2889.661608
21867.77472
12292.72467
19120.78463
11677.62708
34751.42316
49330.53355
43711.84983
35804.468
53786.45654
48114.17676
26846.8004
23439.08937
37126.58112
40704.21244
32582.46541
1428.198181
5334.850822
6251.654259
5268.701328
7141.999023
7657.240613
647.4546252
6583.913767
3112.894424
2028.354497
0
6619.081057
0
6967.059763
10350.76091
46829.91178
7923.484903
19632.03927
47972.15759
46443.38661
28930.58506
57548.56825
38409.98413
43780.20259
90250.69328
33131.51739
51446.73846
44764.40966
38276.57679
28631.70594
4138.780164
3757.940155
1798.73421
1124.961333
5050.623445
3189.331872
4911.857599
2891.536091
4833.960008
0
0
0
3540.771756
0
21624.39732
13373.47606
40587.36005
40301.019
66589.4743
53883.61722
68555.53187
83539.94273
49779.56315
75158.98261
85234.25114
95755.3703
34041.23929
93539.47005
77806.56841
58262.89513
7101.2997
7120.39235
1164.529436
2151.926611
1560.633643
0
2843.600536
1597.515591
674.4991682
1644.636966
6148.484375
11928.83748
0
4536.001822
8731.898924
40904.00202
34600.16875
37133.64304
32900.71172
62874.46888
77909.95185
91148.49826
125764.5676
67214.11973
103001.2728
32535.45666
73752.34849
145650.1461
72910.40656
112056.0911
8097.202117
11468.85007
727.7627314
1384.942697
4317.203942
3720.307332
2306.386589
3547.458564
2363.293998
5261.92859
0
4710.626485
20112.50046
10607.40076
11388.4861
7158.92808
21368.58689
38089.55848
22233.07361
110266.605
76190.20878
83786.81453
73308.6088
141995.3092
84791.1296
46278.98888
101000.9533
76834.98049
74984.59128
60427.98907
4955.337677
3029.41334
418.2224987
5708.843599
7532.520376
2697.860012
9259.682102
5265.385675
14620.89794
4244.337125
614.0415284
0
8538.370765
15880.61548
18607.70486
9764.737655
19847.6848
31761.20454
66163.43351
80914.34363
52947.62021
68020.22351
61592.44408
118603.8562
58413.03934
116624.2012
105873.1216
49633.23632
75936.91656
71951.11925
3849.967493
1754.112923
1558.945872
16382.16494
10076.69612
15790.31923
11509.49584
7240.181314
8870.125361
0
9026.29938
7898.094758
11569.71067
24458.74533
24205.13529
28142.6283
4142.968583
21877.04197
29680.15917
70490.31433
108786.2677
70255.64853
60445.65192
105252.643
68985.2718
61716.68321
83598.92899
71003.04739
80761.10802
54130.21251
)
;

boundaryField
{
    inlet
    {
        type            zeroGradient;
    }
    outlet
    {
        type            zeroGradient;
    }
    wall
    {
        type            calculated;
        value           uniform 0;
    }
    frontAndBack
    {
        type            empty;
    }
}


// ************************************************************************* //
