/*--------------------------------*- C++ -*----------------------------------*\
| =========                 |                                                 |
| \\      /  F ield         | OpenFOAM: The Open Source CFD Toolbox           |
|  \\    /   O peration     | Version:  v1912                                 |
|   \\  /    A nd           | Website:  www.openfoam.com                      |
|    \\/     M anipulation  |                                                 |
\*---------------------------------------------------------------------------*/
FoamFile
{
    version     2.0;
    format      ascii;
    class       volScalarField;
    location    "1e-05";
    object      rhoM;
}
// * * * * * * * * * * * * * * * * * * * * * * * * * * * * * * * * * * * * * //

dimensions      [1 -3 0 0 0 0 0];


internalField   nonuniform List<scalar> 
1300
(
0.00465
0.00465
0.039186
0.037862
0.038524
0.019924
0.066424
0.039186
0.024574
0.0186
0.009962
0.010624
0.037862
0.120222
0.052474
0.023912
0.057786
0.048486
0.04185
0.058448
1e-277
0.00465
0.023912
0.137498
0.056462
0.02325
0.033212
0.039186
0.052474
0.048486
1e-277
0.0093
0.048486
0.102284
0.024574
0.01395
0.058448
0.080374
0.034536
0.037862
1e-277
0.005312
0.024574
0.100298
0.090336
0.03255
0.06841
0.053136
0.051812
0.072398
1e-277
1e-277
0.009962
0.090998
0.043174
0.005312
0.084362
0.072398
0.038524
0.048486
1e-277
1e-277
0.015274
0.11026
0.038524
0.023912
0.073722
0.061774
0.023912
0.038524
1e-277
1e-277
0.0279
0.134172
0.043174
0.028562
0.058448
0.047824
0.023912
0.024574
1e-277
1e-277
0.028562
0.092984
0.019262
0.043836
0.038524
0.067086
0.044498
0.051812
1e-277
1e-277
0.019262
0.134172
0.01395
0.028562
0.048486
0.043836
0.047824
0.043836
1e-277
1e-277
0.03255
0.130846
0.047162
0.01395
0.03255
0.057124
0.044498
0.038524
1e-277
0.00465
0.028562
0.075724
0.052474
0.01395
0.053136
0.048486
0.058448
0.063098
1e-277
1e-277
0.023912
0.159408
0.043174
0.023912
0.062436
0.067086
0.0372
0.024574
1e-277
1e-277
0.034536
0.077048
0.034536
0.033212
0.051812
0.071074
0.033212
0.043836
1e-277
1e-277
0.028562
0.075724
0.047162
0.0186
0.048486
0.064422
0.062436
0.05115
1e-277
1e-277
0.038524
0.144796
0.02325
0.0186
0.029224
0.086348
0.047162
0.039186
1e-277
1e-277
0.03255
0.100298
0.0186
0.0186
0.029886
0.081036
0.033874
0.057786
1e-277
1e-277
0.042512
0.08701
0.028562
0.02325
0.076386
0.043836
0.067748
0.029224
1e-277
1e-277
0.014612
0.111584
0.038524
0.019262
0.057786
0.056462
0.047162
0.052474
1e-277
1e-277
0.01395
0.13351
0.030548
0.023912
0.043836
0.05911
0.052474
0.053798
0.02461716726
0.01586615378
0.02407187633
0.003830215745
0.02024166042
0.00820572242
0.01203593816
0.007660431427
0.01641144484
0.01203593816
0.0164114447
0.00766043149
0.01586615391
0.02681150999
0.02407187633
0.02790209207
0.03282288941
0.03447194171
0.04759846173
0.05854381755
0.0470531708
0.0421323732
0.05908910848
0.06346461564
0.04376824598
0.06346461512
0.03501723263
0.06838541324
0.04705317041
0.06346461564
0.03118701689
0.02024166042
0.02024166058
0.01641144484
0.02024166042
0.00766043149
0.003830215745
0.02461716706
0.02407187633
0.003830215745
0.01532086285
0.01969636965
0.04267766412
0.01203593807
0.01149064724
0.03993803024
0.03939273899
0.02298129447
0.03665310542
0.03556252327
0.03118701689
0.04376824598
0.05854381755
0.05471360229
0.03227759875
0.02078695134
0.07769489676
0.0235265854
0.03118701663
0.02407187633
0.02516245819
0.03282288941
0.02790209207
0.02681151022
0.01586615378
0.02735680114
0.0421323732
0.02790209184
0.03227759875
0.01915107873
0.02790209184
0.01586615391
0.01586615391
0.03282288941
0.03665310542
0.0410286121
0.0432229547
0.04322295505
0.05745323618
0.05854381755
0.028447383
0.06237403378
0.03556252327
0.04814375266
0.07987606048
0.05471360184
0.06620424952
0.01915107873
0.05854381755
0.05471360229
0.05854381803
0.03993802991
0.04759846173
0.03501723263
0.02844738277
0.02681151022
0.03282288968
0.05142867705
0.03227759875
0.02298129447
0.03118701663
0.03501723263
0.03447194171
0.04376824562
0.03447194171
0.05088338654
0.05580418369
0.01258122909
0.04596258894
0.05142867705
0.06619107029
0.02461716726
0.05088338613
0.03556252356
0.06072498175
0.05142867705
0.05689476601
0.04322295505
0.0503380952
0.0519739684
0.09628750532
0.05799852663
0.05142867747
0.05580418415
0.04759846134
0.07112504713
0.06784012231
0.07878547797
0.01149064724
0.03884744838
0.03993802991
0.03227759875
0.03227759875
0.02352658521
0.01203593816
0.05142867747
0.0289926737
0.04759846173
0.0705797562
0.03884744806
0.03556252356
0.04322295505
0.03118701663
0.06400990657
0.05908910896
0.06729483083
0.06838541324
0.04267766412
0.04376824562
0.05963439989
0.03118701689
0.06729483083
0.05416831136
0.05525889322
0.03884744806
0.06017969082
0.03884744838
0.04705317041
0.05471360229
0.04322295505
0.04868904319
0.04814375266
0.06346461564
0.03064172571
0.05306455026
0.04650787987
0.06400990604
0.05963439989
0.01969636965
0.05471360184
0.04979280469
0.05963439989
0.03556252327
0.03939273931
0.04376824598
0.0432229547
0.06291932471
0.03556252356
0.05142867705
0.08316098529
0.08753649197
0.0667495399
0.04759846173
0.07824018769
0.03447194142
0.04431353691
0.06182874285
0.03993802991
0.05634947508
0.06237403378
0.05525889276
0.0519739684
0.0519739684
0.04977962504
0.05088338654
0.03227759875
0.0503380952
0.03227759875
0.07769489676
0.03118701663
0.06346461564
0.02899267393
0.03556252327
0.04048332117
0.01915107873
0.1017667723
0.05142867747
0.0421323732
0.07221562839
0.06729483138
0.04322295505
0.05908910848
0.06400990657
0.04267766412
0.05525889276
0.06346461564
0.05634947508
0.05416831091
0.06346461564
0.06729483138
0.06400990604
0.0470531708
0.05963439989
0.0432229547
0.0410286121
0.0410286121
0.05799852663
0.05142867747
0.07386468101
0.0596343994
0.05854381803
0.0470531708
0.03501723235
0.02298129447
0.06620424952
0.09027612511
0.07112504713
0.06729483138
0.0382889779
0.03830215745
0.05142867747
0.04596258856
0.03993803024
0.0519739684
0.02790209184
0.0470531708
0.09301575974
0.06400990604
0.05362302043
0.0579985271
0.05142867705
0.06784012231
0.02681151022
0.07003446469
0.0519739684
0.03939273931
0.06510048789
0.05689476601
0.06784012231
0.0596343994
0.05908910896
0.03556252356
0.04705317041
0.0421323732
0.06237403378
0.05471360184
0.06400990657
0.03884744838
0.04431353655
0.04814375266
0.04759846173
0.06948917377
0.03610781449
0.05689476601
0.07057975562
0.06237403378
0.0880817829
0.06017969033
0.0579985271
0.0579985271
0.06017969033
0.06400990657
0.05251925933
0.03501723235
0.03993803024
0.03993803024
0.03665310512
0.04759846173
0.05471360229
0.04376824562
0.05525889322
0.0470531708
0.03118701663
0.06291932471
0.05088338654
0.02790209184
0.028447383
0.04431353691
0.0596343994
0.04322295505
0.02407187633
0.05525889276
0.04322295505
0.03501723263
0.0793307689
0.05744005694
0.0470531708
0.03064172571
0.04759846173
0.08042135141
0.06400990604
0.0470531708
0.02407187633
0.0361078142
0.05033809561
0.03501723263
0.03884744806
0.0645551975
0.05306455026
0.06017969033
0.04048332117
0.05471360229
0.04759846134
0.01586615391
0.04759846173
0.03556252327
0.05142867747
0.07604584473
0.07057975562
0.04814375266
0.02407187633
0.06784012176
0.06620424952
0.03884744838
0.06620424898
0.08699120104
0.0519739684
0.05088338613
0.06784012231
0.05580418415
0.03939273899
0.05033809561
0.06729483138
0.03064172571
0.06291932471
0.07331939009
0.03993802991
0.05088338654
0.07112504713
0.02790209184
0.0755005538
0.04814375266
0.03884744806
0.05088338654
0.05142867747
0.04650787949
0.03993803024
0.05416831136
0.04431353655
0.0470531708
0.04431353691
0.05854381755
0.04650787987
0.04650787987
0.03993802991
0.06838541324
0.06400990657
0.06510048789
0.03884744838
0.05634947508
0.0361078142
0.03556252356
0.03884744838
0.04596258856
0.03993803024
0.05854381803
0.02735680092
0.04267766412
0.04759846173
0.06346461512
0.03993803024
0.04650787987
0.07167033747
0.02735680114
0.03939273931
0.03173230756
0.03118701689
0.03939273931
0.0503380952
0.05634947508
0.03884744838
0.03336818033
0.03610781449
0.04267766412
0.06346461512
0.06674954045
0.08207040343
0.02024166042
0.08207040343
0.0421323732
0.05088338613
0.04157390303
0.06346461564
0.05854381755
0.03939273931
0.02298129447
0.0596343994
0.04431353691
0.05142867747
0.03118701663
0.02953796486
0.04814375266
0.05306454983
0.08316098529
0.0470531708
0.04157390269
0.05471360229
0.0755005538
0.03884744806
0.0519739684
0.04322295505
0.06182874234
0.05088338654
0.02899267393
0.03993802991
0.04759846173
0.08973083492
0.04705317041
0.06893070417
0.04267766412
0.07386468041
0.05689476601
0.02298129447
0.04650787949
0.05416831136
0.05142867747
0.03884744806
0.05362302043
0.03282288968
0.06291932419
0.0470531708
0.04979280469
0.05142867705
0.05525889322
0.05142867747
0.03501723235
0.04322295505
0.05854381803
0.04431353655
0.05471360229
0.06510048843
0.06620424898
0.04048332117
0.06291932471
0.05088338613
0.05963439989
0.03064172596
0.06346461512
0.08699120104
0.05963439989
0.07386468041
0.04322295505
0.06017969082
0.04376824562
0.08699120104
0.01915107873
0.05416831091
0.04759846173
0.05525889322
0.06729483083
0.04048332117
0.04048332117
0.06237403327
0.04322295505
0.05854381803
0.06128345142
0.03884744838
0.02790209207
0.03173230756
0.02078695151
0.04431353691
0.06291932419
0.03993803024
0.04650787987
0.05088338613
0.06838541324
0.08261569436
0.07057975562
0.04322295505
0.04322295505
0.06400990604
0.04376824598
0.05525889322
0.03501723235
0.0519739684
0.03993803024
0.03884744806
0.04048332117
0.03993803024
0.03118701663
0.05088338654
0.06893070417
0.04431353655
0.05362302043
0.04431353691
0.0596343994
0.05360984119
0.03610781449
0.04267766377
0.05854381803
0.05033809561
0.03173230756
0.02298129447
0.05634947508
0.05471360184
0.08261569436
0.03884744838
0.05634947461
0.06565895859
0.06017969082
0.05471360184
0.04596258894
0.06017969082
0.03665310512
0.03447194171
0.03665310542
0.07112504654
0.0470531708
0.05525889322
0.02735680092
0.06017969082
0.06017969082
0.04705317041
0.03227759875
0.05416831136
0.03227759848
0.06182874285
0.06291932471
0.02352658521
0.03064172596
0.05471360229
0.0596343994
0.05525889322
0.03173230782
0.03939273899
0.03939273931
0.06674954045
0.06346461512
0.06948917434
0.04322295505
0.07495526226
0.04322295505
0.05471360229
0.06400990604
0.08261569436
0.04540411877
0.04814375226
0.07933076955
0.05142867747
0.0596343994
0.07824018769
0.03556252356
0.05088338613
0.03939273931
0.03173230782
0.03993802991
0.04322295505
0.04485882784
0.0361078142
0.06346461564
0.08261569436
0.04814375226
0.05033809561
0.04759846173
0.07167033747
0.05088338654
0.0941063416
0.03884744806
0.05142867747
0.05142867747
0.03501723235
0.03939273931
0.05525889322
0.04868904319
0.05088338654
0.05142867747
0.06182874234
0.03447194171
0.08261569436
0.03665310512
0.03173230782
0.05251925933
0.05854381755
0.0470531708
0.0755005538
0.08370627553
0.04376824598
0.04868904359
0.05689476554
0.06400990657
0.05446
0.07306
0.061774
0.01395
0.0186
0.01395
0.056462
0.03255
0.030548
0.019262
0.071736
0.047162
0.053798
0.043174
0.047824
0.067086
0.038524
0.059772
0.028562
0.038524
0.034536
0.047162
0.06841
0.039186
0.084362
0.033874
0.057786
0.044498
0.028562
0.03255
0.020586
0.075062
0.043836
0.062436
0.065762
0.067086
0.076386
0.057124
0.04185
0.037862
0.042512
0.062436
0.033212
0.07306
0.047162
0.033874
0.102284
0.042512
0.048486
0.062436
0.071058
0.057786
0.057786
0.07306
0.0465
0.053798
0.057786
0.052474
0.056462
0.07771
0.047162
0.047824
0.06841
0.047824
0.075724
0.047162
0.066424
0.07771
0.023912
0.049148
0.029224
0.057124
0.034536
0.034536
0.04185
0.056462
0.042512
0.048486
0.05911
0.066424
0.0372
0.079712
0.043174
0.049148
0.072398
0.067086
0.115572
0.038524
0.039848
0.07306
0.051812
0.067748
0.042512
0.028562
0.037862
0.044498
0.052474
0.077048
0.035198
0.053798
0.029224
0.057124
0.067748
0.062436
0.074384
0.09166
0.052474
0.048486
0.037862
0.048486
0.081036
0.052474
0.033874
0.019262
0.081698
0.066424
0.04185
0.063098
0.053136
0.038524
0.047824
0.051812
0.038524
0.029224
0.037862
0.049148
0.0465
0.053136
0.044498
0.033212
0.02325
0.033212
0.047162
0.049148
0.064422
0.047162
0.051812
0.080374
0.052474
0.037862
0.052474
0.043174
0.044498
0.019262
0.058448
0.033874
0.0372
0.0372
0.067748
0.023912
0.047824
0.01395
0.02325
0.047162
0.047824
0.039186
0.05446
0.058448
0.079712
0.043174
0.072398
0.03255
0.043174
0.071074
0.049148
0.058448
0.047824
0.048486
0.038524
0.043836
0.073722
0.034536
0.057124
0.066424
0.037862
0.06841
0.047824
0.039848
0.01395
0.051812
0.058448
0.061774
0.039848
0.056462
0.043174
0.033212
0.047162
0.053798
0.033212
0.067748
0.043174
0.028562
0.03255
0.052474
0.037862
0.048486
0.038524
0.042512
0.076386
0.023912
0.02496879704
0.03746111049
0.00985652069
0.01445728572
0.0249687968
0.01380229508
0.02365881577
0.004600764983
0.01051151132
0.01511227635
0.02300382491
0.01445728572
0.009201530056
0.01380229495
0.0282595808
0.004600765028
0.03286034551
0.02496879704
0.02431380641
0.0249687968
0.01905805075
0.01840306011
0.02825958052
0.01840306011
0.03286034583
0.02431380617
0.00985652069
0.00985652069
0.0276045899
0.03746111086
0.01351607238
0.00901071483
0.01930424559
9.688940771e-278
0.03668426719
9.688940771e-278
9.688940771e-278
0.02252678707
0.02767355263
0.01415748025
0.02767355236
0.02831496051
0.01866283771
0.02316819495
0.03217891009
0.01351607238
0.05212456306
0.01866283771
0.03668426755
0.03668426719
0.04633639034
0.02316819517
0.02380960282
0.02380960305
0.01930424559
0.0315375019
0.02703214475
0.03860849119
0.00901071483
0.05148315568
0.02711133599
0.02711133573
0.0138698565
0.0138698565
0.01324147936
0.008827652989
0.0138698565
0.01324147936
0.008827652989
0.005042203514
0.01324147936
0.018283683
0.008827652989
0.008827652906
0.018283683
0.02269750949
0.02648295872
0.01765530598
0.02206913247
0.01386985637
0.03152516248
0.0138698565
0.05485104847
0.008827652989
0.02711133599
0.01765530581
0.04413826495
0.0321535395
0.02711133573
0.04980884548
0.0265715085
0.0179196272
0.01297782171
0.009267746226
0.008651881058
9.303097998e-278
0.004325940569
0.004325940529
0.008651881138
0.01791962736
0.004325940529
0.009883611313
0.009267746226
0.008651881058
0.008651881138
0.02595564341
0.01297782159
0.01730376228
0.01853549245
0.02409316297
0.0370709849
0.0370709849
0.02657150826
0.04387527078
0.03460752455
0.03089744878
0.02595564341
0.03522338964
0.04387527037
0.04449113587
0.01393214198
0.02665660033
0.02241511437
0.01817362817
0.01272445848
0.01453598367
0.004241486198
0.01332830016
0.004241486198
0.004241486198
9.121475612e-278
0.008482972396
9.121475695e-278
0.01272445848
0.01272445859
0.04786403156
0.008482972319
0.01696594479
0.03393188959
0.03089808649
0.03150192846
0.04179642593
0.03089808649
0.03029424508
0.05574316227
0.02665660033
0.03089808677
0.03513957297
0.03513957265
0.04241486198
0.02614615503
0.01782562237
0.0083205325
0.00416026625
0.01248079864
0.0083205325
0.008912811265
0.004752544972
0.0083205325
8.94680914e-278
8.946809059e-278
8.94680914e-278
0.00416026625
8.946809059e-278
0.02139361001
0.01248079875
0.03387440846
0.03505896629
0.04753976504
0.03862695343
0.04872432257
0.04694748628
0.03030642101
0.04694748628
0.06179740009
0.06774881692
0.02912186375
0.04694748628
0.0564525758
0.05170003129
0.02565489116
0.01632839349
0.008164196816
0.01224629522
0.004082098372
8.778706254e-278
0.004082098408
0.004082098372
0.004082098408
0.004082098408
0.008745347094
0.008164196816
8.778706254e-278
0.004082098372
0.01224629522
0.03440023833
0.02915583896
0.0209916424
0.02915583921
0.04548423245
0.06005512949
0.05831167842
0.07754582315
0.04140213444
0.06763817595
0.02099164221
0.05014748161
0.08512887029
0.05773052756
0.07988447117
0.02404088284
0.02060450127
0.004006813807
0.004006813807
0.008584059956
0.01202044142
0.004006813807
0.004006813772
0.004006813807
0.004006813807
8.616803811e-278
0.00858406003
0.01316130625
0.008013627544
0.01202044142
0.008013627613
0.02003406886
0.02461131526
0.02060450145
0.06639075
0.04922263051
0.04979306293
0.04521581632
0.08012248925
0.05322944432
0.033195375
0.06067263952
0.05437030915
0.05265901145
0.05609539329
0.02472574017
0.01180276733
0.00393425581
0.0162971259
0.01180276733
0.007868511621
0.0162971259
0.003934255777
0.01573702324
0.00393425581
0.003934255777
8.460765183e-278
0.007868511621
0.01180276733
0.0162971259
0.008428614276
0.01573702311
0.01967127905
0.04889137769
0.05731999148
0.0365285076
0.04046276341
0.04102286572
0.06518850359
0.0365285076
0.06181434991
0.06518850359
0.03203414914
0.05619978618
0.05619978665
0.01214297714
0.01159283669
0.004414419283
0.02428595428
0.01159283669
0.01600725607
0.01159283679
0.008278698143
0.003864278928
8.310277265e-278
0.007728557793
0.007728557857
0.01159283679
0.02042167518
0.02483609464
0.02097181571
0.004414419247
0.01600725607
0.02042167535
0.04415748891
0.05961460499
0.03974306999
0.03587879077
0.06016474535
0.04305720857
0.03311479257
0.05243618749
0.03974306999
0.04747162746
0.04857190856
)
;

boundaryField
{
    inlet
    {
        type            zeroGradient;
    }
    outlet
    {
        type            zeroGradient;
    }
    wall
    {
        type            calculated;
        value           uniform 1e-300;
    }
    frontAndBack
    {
        type            empty;
    }
}


// ************************************************************************* //
