/*--------------------------------*- C++ -*----------------------------------*\
| =========                 |                                                 |
| \\      /  F ield         | OpenFOAM: The Open Source CFD Toolbox           |
|  \\    /   O peration     | Version:  v1912                                 |
|   \\  /    A nd           | Website:  www.openfoam.com                      |
|    \\/     M anipulation  |                                                 |
\*---------------------------------------------------------------------------*/
FoamFile
{
    version     2.0;
    format      ascii;
    class       volVectorField;
    location    "0.24";
    object      grad(T);
}
// * * * * * * * * * * * * * * * * * * * * * * * * * * * * * * * * * * * * * //

dimensions      [0 -1 0 1 0 0 0];


internalField   nonuniform List<vector> 
1900
(
(0 0 0)
(0 0 0)
(0 0 0)
(0 0 0)
(0 -2.1684e-15 0)
(0 0 0)
(0 -2.1684e-15 0)
(0 0 0)
(-8.30499e-13 0 0)
(-2.07126e-11 -4.25007e-13 0)
(0 0 0)
(0 0 0)
(0 0 0)
(0 0 0)
(0 0 0)
(2.1684e-15 0 0)
(0 2.1684e-15 0)
(-2.1684e-15 0 0)
(-1.25334e-12 0 0)
(-3.18712e-11 -6.04985e-13 0)
(0 0 0)
(0 0 0)
(0 0 0)
(0 0 0)
(0 0 0)
(2.1684e-15 0 0)
(0 0 0)
(-2.1684e-15 0 0)
(-1.43332e-12 0 0)
(-3.81032e-11 4.33681e-15 0)
(0 0 0)
(0 0 0)
(0 2.1684e-15 0)
(0 0 0)
(0 0 0)
(0 0 0)
(0 -2.1684e-15 0)
(0 0 0)
(-1.24683e-12 0 0)
(-3.18734e-11 6.70037e-13 0)
(0 0 0)
(2.1684e-15 0 0)
(-2.1684e-15 0 0)
(2.1684e-15 0 0)
(-2.1684e-15 2.1684e-15 0)
(0 0 0)
(0 0 0)
(0 0 0)
(-7.63278e-13 0 0)
(-2.0743e-11 4.83554e-13 0)
(-1.17898e-09 -9.69497e-12 9.82067e-16)
(-3.318e-08 -5.59905e-10 -1.18882e-15)
(-5.43999e-07 -2.03721e-08 -1.50584e-15)
(-2.70442e-06 -3.682e-07 0)
(9.07923e-05 -2.60014e-06 -6.45358e-15)
(-1.84395e-09 -1.50944e-11 9.82067e-16)
(-5.21733e-08 -9.01281e-10 1.18882e-15)
(-7.91369e-07 -3.41474e-08 1.50584e-15)
(-3.78718e-06 -5.91098e-07 0)
(0.000100311 -3.74573e-06 0)
(-2.25318e-09 0 0)
(-6.52208e-08 -2.37764e-15 0)
(-9.48794e-07 3.01167e-15 0)
(-4.40001e-06 2.66944e-13 0)
(0.000111309 2.25875e-13 0)
(-1.84396e-09 1.50846e-11 9.82067e-16)
(-5.21732e-08 9.01269e-10 1.18882e-15)
(-7.91369e-07 3.41474e-08 1.50584e-15)
(-3.78718e-06 5.91098e-07 0)
(0.000100311 3.74573e-06 0)
(-1.17909e-09 9.68122e-12 -2.9462e-15)
(-3.318e-08 5.59895e-10 -1.18882e-15)
(-5.43999e-07 2.0372e-08 -1.50584e-15)
(-2.70442e-06 3.682e-07 -4.10683e-15)
(9.07923e-05 2.60014e-06 6.45358e-15)
(0.00398399 4.49428e-05 2.73794e-15)
(0.0285947 0.000434268 -2.31825e-15)
(0.0786731 -0.00103524 0)
(0.12784 -0.021031 1.79683e-15)
(-0.0848642 -0.0752476 -8.14806e-16)
(0.00411914 0.000100212 -1.36897e-15)
(0.0282345 0.0015944 1.15913e-15)
(0.0703216 0.000540782 0)
(0.0957697 -0.021442 -1.12246e-15)
(-0.0345715 -0.105322 2.02342e-16)
(0.00447317 4.6544e-13 0)
(0.0287365 3.89201e-13 0)
(0.0698966 4.41712e-14 0)
(0.083475 -7.79492e-14 4.48725e-16)
(-0.040092 -1.10956e-13 -4.04684e-16)
(0.00411914 -0.000100212 -1.36897e-15)
(0.0282345 -0.0015944 1.15913e-15)
(0.0703216 -0.000540782 0)
(0.0957697 0.021442 -1.12246e-15)
(-0.0345715 0.105322 2.02342e-16)
(0.00398399 -4.49428e-05 1.36897e-15)
(0.0285947 -0.000434268 -1.30787e-20)
(0.0786731 0.00103524 0)
(0.12784 0.021031 -6.33386e-19)
(-0.0848642 0.0752476 8.14806e-16)
(-0.271182 0.447003 0)
(-0.0396173 0.308586 0)
(0.131443 0.0772473 0)
(0.0577186 0.00726503 0)
(0.0113518 0.000154803 0)
(0.000580926 -1.20174e-07 0)
(4.78582e-06 -1.00285e-09 0)
(4.13516e-09 -8.67362e-14 0)
(2.76964e-13 0 0)
(0 -3.94255e-15 0)
(0 0 0)
(0 3.94255e-15 0)
(0 -3.94255e-15 0)
(0 0 0)
(1.97128e-15 -3.94255e-15 0)
(-1.97128e-15 0 0)
(0 0 0)
(1.97128e-15 0 0)
(9.85638e-16 -1.18277e-14 0)
(-2.95692e-15 7.88511e-15 0)
(0 -3.94255e-15 0)
(0 3.94255e-15 0)
(1.97128e-15 0 0)
(9.85638e-16 -1.18277e-14 0)
(-2.95692e-15 7.88511e-15 0)
(0 -3.94255e-15 0)
(0 0 0)
(0 0 0)
(0 -3.94255e-15 0)
(0 -3.94255e-15 0)
(0 -3.94255e-15 0)
(-5.05632e-13 0 0)
(-7.54926e-09 6.70234e-14 0)
(-8.62991e-06 2.75979e-14 0)
(-0.00103083 1.57702e-14 0)
(-0.0205574 -4.73106e-14 0)
(-0.117677 1.65587e-13 0)
(-0.320466 2.64151e-13 0)
(-0.177908 2.44438e-13 0)
(0.0444167 2.99634e-13 0)
(-0.200571 0.107992 0)
(-0.0687433 0.1837 0)
(0.0948403 0.0409365 0)
(0.0488669 0.00159425 0)
(0.0109008 -0.00025963 0)
(0.000606654 -5.10344e-06 0)
(5.3882e-06 -6.07374e-09 0)
(4.90854e-09 -3.94255e-13 0)
(3.27232e-13 0 0)
(0 3.94255e-15 0)
(1.97128e-15 0 0)
(0 0 0)
(-1.97128e-15 0 0)
(0 0 0)
(0 3.94255e-15 0)
(0 0 0)
(0 0 0)
(0 0 0)
(1.97128e-15 -3.94255e-15 0)
(0 -7.88511e-15 0)
(0 0 0)
(0 0 0)
(-1.97128e-15 0 0)
(1.97128e-15 -3.94255e-15 0)
(0 -7.88511e-15 0)
(-1.97128e-15 3.94255e-15 0)
(0 0 0)
(0 0 0)
(0 0 0)
(0 0 0)
(0 0 0)
(-5.02676e-13 0 0)
(-7.54926e-09 -4.73106e-14 0)
(-8.62991e-06 -3.15404e-14 0)
(-0.00103083 1.06449e-13 0)
(-0.0205574 3.15404e-14 0)
(-0.117677 2.28668e-13 0)
(-0.320466 1.93185e-13 0)
(-0.177908 5.12532e-14 0)
(0.0444167 2.75979e-14 0)
(-0.175487 1.41932e-13 0)
(-0.0591243 3.66657e-13 0)
(0.0784672 -2.36553e-14 0)
(0.0457342 -3.31174e-13 0)
(0.0108865 -4.73106e-14 0)
(0.000656453 -1.97128e-14 0)
(6.27046e-06 5.12532e-14 0)
(5.90207e-09 -1.97128e-14 0)
(3.92284e-13 0 0)
(1.97128e-15 0 0)
(-1.97128e-15 0 0)
(0 -3.94255e-15 0)
(0 0 0)
(0 0 0)
(1.97128e-15 0 0)
(-1.97128e-15 0 0)
(0 0 0)
(0 0 0)
(0 0 0)
(0 -3.94255e-15 0)
(0 0 0)
(0 -3.94255e-15 0)
(0 -3.94255e-15 0)
(0 0 0)
(1.97128e-15 -3.94255e-15 0)
(0 0 0)
(-1.97128e-15 0 0)
(0 -3.94255e-15 0)
(0 0 0)
(0 0 0)
(0 0 0)
(-5.19431e-13 0 0)
(-7.54927e-09 -3.5483e-14 0)
(-8.62991e-06 -5.12532e-14 0)
(-0.00103083 -2.05013e-13 0)
(-0.0205574 -1.97128e-14 0)
(-0.117677 1.37989e-13 0)
(-0.320466 1.57702e-14 0)
(-0.177908 -1.97128e-13 0)
(0.0444167 -3.5483e-13 0)
(-0.200571 -0.107992 0)
(-0.0687433 -0.1837 0)
(0.0948403 -0.0409365 0)
(0.0488669 -0.00159425 0)
(0.0109008 0.00025963 0)
(0.000606654 5.10344e-06 0)
(5.3882e-06 6.07375e-09 0)
(4.90852e-09 3.66657e-13 0)
(3.33146e-13 0 0)
(0 -3.94255e-15 0)
(0 0 0)
(0 0 0)
(0 0 0)
(0 0 0)
(0 -3.94255e-15 0)
(0 0 0)
(0 0 0)
(0 0 0)
(0 0 0)
(0 0 0)
(0 0 0)
(-1.97128e-15 0 0)
(0 -3.94255e-15 0)
(1.97128e-15 0 0)
(0 0 0)
(0 -3.94255e-15 0)
(-1.97128e-15 0 0)
(0 -3.94255e-15 0)
(1.97128e-15 0 0)
(0 0 0)
(0 0 0)
(-5.12532e-13 0 0)
(-7.54928e-09 1.97128e-14 0)
(-8.62991e-06 -5.12532e-14 0)
(-0.00103083 -4.17911e-13 0)
(-0.0205574 -3.15404e-14 0)
(-0.117677 0 0)
(-0.320466 -1.93185e-13 0)
(-0.177908 -2.64151e-13 0)
(0.0444167 -2.1684e-13 0)
(-0.271182 -0.447003 0)
(-0.0396173 -0.308586 0)
(0.131443 -0.0772473 0)
(0.0577186 -0.00726503 0)
(0.0113518 -0.000154803 0)
(0.000580926 1.20174e-07 0)
(4.78582e-06 1.00281e-09 0)
(4.13516e-09 7.88511e-14 0)
(2.84849e-13 0 0)
(0 3.94255e-15 0)
(0 0 0)
(0 0 0)
(0 3.94255e-15 0)
(0 0 0)
(0 0 0)
(0 0 0)
(0 0 0)
(0 0 0)
(0 0 0)
(1.97128e-15 3.94255e-15 0)
(-1.97128e-15 0 0)
(0 0 0)
(0 7.88511e-15 0)
(0 0 0)
(1.97128e-15 3.94255e-15 0)
(-1.97128e-15 0 0)
(0 0 0)
(0 7.88511e-15 0)
(0 0 0)
(0 3.94255e-15 0)
(0 0 0)
(-5.13518e-13 0 0)
(-7.54929e-09 -3.94255e-14 0)
(-8.62991e-06 0 0)
(-0.00103083 -9.06787e-14 0)
(-0.0205574 1.57702e-14 0)
(-0.117677 -1.41932e-13 0)
(-0.320466 -2.68094e-13 0)
(-0.177908 -1.77415e-13 0)
(0.0444167 -1.57702e-14 0)
(-0.0392304 -0.394603 0)
(0.129517 -0.256456 0)
(0.241529 -0.0741051 0)
(0.0869901 -0.0104855 0)
(0.0149366 -0.000489895 0)
(0.000733508 -4.0911e-06 0)
(6.00931e-06 -3.57409e-09 0)
(5.17369e-09 -2.57084e-13 0)
(3.39208e-13 0 0)
(0 -1.1902e-15 0)
(0 0 0)
(0 0 0)
(0 -1.1902e-15 0)
(0 0 0)
(0 0 0)
(0 1.1902e-15 0)
(0 0 0)
(0 0 0)
(0 0 0)
(0 -1.1902e-15 0)
(0 0 0)
(0 0 0)
(0 0 0)
(0 0 0)
(0 -1.1902e-15 0)
(0 0 0)
(0 1.1902e-15 0)
(0 0 0)
(0 0 0)
(0 -1.1902e-15 0)
(0 0 0)
(-5.35592e-13 0 0)
(-7.54926e-09 8.33143e-15 0)
(-8.62991e-06 7.26025e-14 0)
(-0.00103083 1.20211e-13 0)
(-0.0205574 1.07118e-13 0)
(-0.117677 -6.66515e-14 0)
(-0.320466 -1.27352e-13 0)
(-0.177908 -1.1902e-14 0)
(0.0444167 4.76082e-15 0)
(-0.0365136 -0.0823103 0)
(0.178531 -0.0872565 0)
(0.309439 -0.0319361 0)
(0.11296 -0.00578386 0)
(0.0195297 -0.000305468 0)
(0.000971183 -2.6906e-06 0)
(8.07208e-06 -2.4379e-09 0)
(7.02239e-09 -1.69009e-13 0)
(5.03457e-13 0 0)
(0 0 0)
(0 0 0)
(0 0 0)
(0 0 0)
(0 0 0)
(0 0 0)
(0 -1.1902e-15 0)
(0 0 0)
(0 0 0)
(0 0 0)
(0 0 0)
(0 0 0)
(0 0 0)
(0 0 0)
(0 0 0)
(0 1.1902e-15 0)
(1.1902e-15 0 0)
(-1.1902e-15 0 0)
(0 0 0)
(0 0 0)
(0 0 0)
(0 0 0)
(-4.92745e-13 0 0)
(-7.54923e-09 5.59396e-14 0)
(-8.62991e-06 9.52164e-15 0)
(-0.00103083 3.21355e-14 0)
(-0.0205574 1.78531e-14 0)
(-0.117677 6.90319e-14 0)
(-0.320466 3.33257e-14 0)
(-0.177908 9.52164e-15 0)
(0.0444167 1.42825e-14 0)
(-0.0439968 -0.00430368 0)
(0.17806 -0.0125073 0)
(0.320039 -0.00495435 0)
(0.117471 -0.00106665 0)
(0.0205075 -6.18758e-05 0)
(0.00102787 -5.78664e-07 0)
(8.60207e-06 -5.46558e-10 0)
(7.52294e-09 -3.57061e-14 0)
(5.01076e-13 0 0)
(0 0 0)
(0 0 0)
(0 0 0)
(0 0 0)
(0 0 0)
(0 0 0)
(0 0 0)
(0 0 0)
(0 0 0)
(0 0 0)
(0 0 0)
(0 0 0)
(0 0 0)
(0 0 0)
(0 0 0)
(0 -1.1902e-15 0)
(1.1902e-15 1.1902e-15 0)
(0 -1.1902e-15 0)
(0 1.1902e-15 0)
(-1.1902e-15 0 0)
(0 0 0)
(0 0 0)
(-4.82033e-13 1.1902e-15 0)
(-7.54925e-09 2.38041e-15 0)
(-8.62991e-06 -8.33143e-15 0)
(-0.00103083 5.35592e-14 0)
(-0.0205574 -8.09339e-14 0)
(-0.117677 7.37927e-14 0)
(-0.320466 9.40262e-14 0)
(-0.177908 2.38041e-15 0)
(0.0444167 1.90433e-14 0)
(-0.044419 -5.95617e-05 0)
(0.177904 -0.000495411 0)
(0.320463 -0.000216873 0)
(0.117675 -5.182e-05 0)
(0.020557 -3.07709e-06 0)
(0.00103081 -2.8886e-08 0)
(8.6297e-06 -2.73283e-11 0)
(7.54908e-09 -4.76082e-15 0)
(5.37973e-13 0 0)
(0 0 0)
(0 1.1902e-15 0)
(0 0 0)
(0 0 0)
(0 0 0)
(0 0 0)
(0 0 0)
(0 -1.1902e-15 0)
(0 0 0)
(0 0 0)
(0 -1.1902e-15 0)
(0 0 0)
(0 0 0)
(0 0 0)
(0 0 0)
(0 0 0)
(0 -1.1902e-15 0)
(0 0 0)
(0 -1.1902e-15 0)
(0 0 0)
(0 0 0)
(1.1902e-15 0 0)
(-4.89174e-13 -1.1902e-15 0)
(-7.54924e-09 -1.07118e-14 0)
(-8.62991e-06 8.33143e-15 0)
(-0.00103083 4.87984e-14 0)
(-0.0205574 -9.64066e-14 0)
(-0.117677 5.2369e-14 0)
(-0.320466 4.76082e-14 0)
(-0.177908 -3.92768e-14 0)
(0.0444167 -2.14237e-14 0)
(-0.0444168 -5.98182e-06 0)
(0.177908 -3.57601e-06 0)
(0.320466 -1.65846e-06 0)
(0.117677 -4.08185e-07 0)
(0.0205574 -2.36689e-08 0)
(0.00103083 -2.14039e-10 0)
(8.62991e-06 -2.27329e-13 0)
(7.54928e-09 -5.95102e-15 0)
(5.07027e-13 1.1902e-15 0)
(-1.1902e-15 0 0)
(1.1902e-15 -1.1902e-15 0)
(-1.1902e-15 0 0)
(0 0 0)
(0 0 0)
(0 0 0)
(-1.1902e-15 0 0)
(0 0 0)
(1.1902e-15 0 0)
(-1.1902e-15 0 0)
(0 0 0)
(1.1902e-15 0 0)
(0 0 0)
(0 0 0)
(0 0 0)
(0 0 0)
(0 0 0)
(0 0 0)
(0 0 0)
(0 0 0)
(0 0 0)
(0 0 0)
(-4.93935e-13 0 0)
(-7.54924e-09 -2.38041e-14 0)
(-8.62991e-06 -1.07118e-14 0)
(-0.00103083 -4.16572e-14 0)
(-0.0205574 -3.92768e-14 0)
(-0.117677 3.57061e-14 0)
(-0.320466 0 0)
(-0.177908 -9.64066e-14 0)
(0.0444167 -3.45159e-14 0)
(-0.0444167 -1.26344e-07 0)
(0.177908 -5.8089e-09 0)
(0.320466 -1.6201e-09 0)
(0.117677 -3.45826e-10 0)
(0.0205574 -1.79661e-11 0)
(0.00103083 -2.02335e-13 0)
(8.62991e-06 2.85649e-14 0)
(7.54929e-09 4.76082e-15 0)
(5.43924e-13 -1.1902e-15 0)
(0 0 0)
(0 -1.1902e-15 0)
(0 1.1902e-15 0)
(0 0 0)
(0 0 0)
(0 0 0)
(0 0 0)
(0 1.1902e-15 0)
(0 0 0)
(0 0 0)
(0 1.1902e-15 0)
(0 0 0)
(0 0 0)
(0 0 0)
(0 0 0)
(0 0 0)
(0 0 0)
(0 0 0)
(0 0 0)
(0 0 0)
(0 0 0)
(0 0 0)
(-5.11788e-13 0 0)
(-7.54925e-09 5.95102e-15 0)
(-8.62991e-06 -7.14123e-15 0)
(-0.00103083 -2.14237e-14 0)
(-0.0205574 3.57061e-14 0)
(-0.117677 -2.49943e-14 0)
(-0.320466 0 0)
(-0.177908 -1.78531e-14 0)
(0.0444167 4.76082e-15 0)
(-0.0444167 -2.78955e-10 0)
(0.177908 -5.70346e-12 0)
(0.320466 -3.33257e-13 0)
(0.117677 -1.07118e-14 0)
(0.0205574 3.80866e-14 0)
(0.00103083 -3.92768e-14 0)
(8.62991e-06 4.16572e-14 0)
(7.54925e-09 4.52278e-14 0)
(5.02266e-13 1.1902e-15 0)
(-1.1902e-15 0 0)
(1.1902e-15 0 0)
(1.1902e-15 0 0)
(-1.1902e-15 0 0)
(0 0 0)
(0 0 0)
(0 0 0)
(0 0 0)
(0 1.1902e-15 0)
(0 0 0)
(0 0 0)
(0 0 0)
(0 0 0)
(0 0 0)
(0 0 0)
(0 0 0)
(0 0 0)
(-1.1902e-15 0 0)
(1.1902e-15 0 0)
(0 0 0)
(0 0 0)
(0 0 0)
(-4.87984e-13 0 0)
(-7.54925e-09 2.85649e-14 0)
(-8.62991e-06 -1.42825e-14 0)
(-0.00103083 4.28474e-14 0)
(-0.0205574 2.26139e-14 0)
(-0.117677 -3.80866e-14 0)
(-0.320466 0 0)
(-0.177908 8.45045e-14 0)
(0.0444167 3.80866e-14 0)
(-0.0444167 -7.26025e-14 0)
(0.177908 -4.52278e-14 0)
(0.320466 -2.38041e-15 0)
(0.117677 -4.40376e-14 0)
(0.0205574 -7.14123e-15 0)
(0.00103083 -5.2369e-14 0)
(8.62991e-06 -1.1902e-14 0)
(7.54925e-09 -5.71298e-14 0)
(5.01076e-13 -1.1902e-15 0)
(-1.1902e-15 0 0)
(1.1902e-15 1.1902e-15 0)
(0 0 0)
(-1.1902e-15 0 0)
(0 0 0)
(0 0 0)
(0 0 0)
(1.1902e-15 0 0)
(-1.1902e-15 0 0)
(0 0 0)
(0 0 0)
(0 0 0)
(0 0 0)
(0 0 0)
(0 0 0)
(0 0 0)
(0 0 0)
(0 0 0)
(0 0 0)
(0 0 0)
(0 0 0)
(0 0 0)
(-4.85604e-13 0 0)
(-7.54927e-09 -3.68963e-14 0)
(-8.62991e-06 -2.49943e-14 0)
(-0.00103083 3.09453e-14 0)
(-0.0205574 5.95102e-15 0)
(-0.117677 -5.35592e-14 0)
(-0.320466 -4.28474e-14 0)
(-0.177908 4.40376e-14 0)
(0.0444167 1.1902e-15 0)
(-0.0444167 1.66629e-14 0)
(0.177908 1.07118e-14 0)
(0.320466 5.95102e-15 0)
(0.117677 2.14237e-14 0)
(0.0205574 -7.85535e-14 0)
(0.00103083 -4.76082e-15 0)
(8.62991e-06 2.38041e-15 0)
(7.54926e-09 9.52164e-15 0)
(5.55826e-13 0 0)
(1.1902e-15 0 0)
(0 0 0)
(0 -1.1902e-15 0)
(0 -1.1902e-15 0)
(0 0 0)
(0 0 0)
(0 -1.1902e-15 0)
(0 -1.1902e-15 0)
(0 -1.1902e-15 0)
(0 0 0)
(0 0 0)
(0 0 0)
(0 0 0)
(0 0 0)
(0 0 0)
(0 0 0)
(0 0 0)
(0 0 0)
(0 1.1902e-15 0)
(0 0 0)
(0 0 0)
(0 0 0)
(-5.2369e-13 0 0)
(-7.54927e-09 -5.11788e-14 0)
(-8.62991e-06 -4.76082e-15 0)
(-0.00103083 -3.21355e-14 0)
(-0.0205574 1.90433e-14 0)
(-0.117677 -4.28474e-14 0)
(-0.320466 -7.61731e-14 0)
(-0.177908 -5.95102e-15 0)
(0.0444167 -1.78531e-14 0)
(-0.0444167 2.61845e-14 0)
(0.177908 1.78531e-14 0)
(0.320466 2.38041e-15 0)
(0.117677 8.92654e-14 0)
(0.0205574 -1.1902e-14 0)
(0.00103083 7.37927e-14 0)
(8.62991e-06 3.57061e-15 0)
(7.54925e-09 7.85535e-14 0)
(4.92745e-13 0 0)
(0 0 0)
(0 0 0)
(-1.1902e-15 0 0)
(0 0 0)
(1.1902e-15 0 0)
(-1.1902e-15 0 0)
(-1.1902e-15 0 0)
(1.1902e-15 0 0)
(1.1902e-15 0 0)
(0 0 0)
(0 0 0)
(0 0 0)
(0 0 0)
(0 0 0)
(0 0 0)
(0 0 0)
(0 0 0)
(1.1902e-15 0 0)
(0 -1.1902e-15 0)
(-1.1902e-15 0 0)
(0 0 0)
(1.1902e-15 0 0)
(-5.34402e-13 0 0)
(-7.54927e-09 -2.38041e-15 0)
(-8.62991e-06 9.52164e-15 0)
(-0.00103083 -4.6418e-14 0)
(-0.0205574 3.45159e-14 0)
(-0.117677 1.1902e-13 0)
(-0.320466 -1.90433e-14 0)
(-0.177908 3.68963e-14 0)
(0.0444167 2.97551e-14 0)
(-0.0444167 -8.33143e-15 0)
(0.177908 1.1902e-15 0)
(0.320466 5.95102e-15 0)
(0.117677 -1.1902e-14 0)
(0.0205574 7.97437e-14 0)
(0.00103083 3.09453e-14 0)
(8.62991e-06 1.07118e-14 0)
(7.54925e-09 5.95102e-15 0)
(4.80843e-13 0 0)
(0 0 0)
(0 0 0)
(0 0 0)
(0 1.1902e-15 0)
(0 0 0)
(0 0 0)
(0 1.1902e-15 0)
(0 1.1902e-15 0)
(0 0 0)
(0 0 0)
(0 0 0)
(0 0 0)
(0 0 0)
(0 0 0)
(0 0 0)
(0 0 0)
(0 0 0)
(0 0 0)
(0 0 0)
(0 0 0)
(0 0 0)
(0 0 0)
(-5.26071e-13 0 0)
(-7.54926e-09 -1.66629e-14 0)
(-8.62991e-06 -9.52164e-15 0)
(-0.00103083 -1.1902e-15 0)
(-0.0205574 3.09453e-14 0)
(-0.117677 1.03548e-13 0)
(-0.320466 5.59396e-14 0)
(-0.177908 2.02335e-14 0)
(0.0444167 1.90433e-14 0)
(-0.0444167 -8.24812e-13 0)
(0.177908 -8.141e-13 0)
(0.320466 -1.1176e-12 0)
(0.117677 -1.43063e-12 0)
(0.0205574 -1.18425e-12 0)
(0.00103083 -1.30327e-12 0)
(8.62991e-06 -1.27828e-12 0)
(7.54924e-09 -1.29375e-12 0)
(4.87984e-13 -1.27828e-12 0)
(0 -1.29256e-12 0)
(0 -1.29732e-12 0)
(0 -1.28304e-12 0)
(0 -1.29732e-12 0)
(0 -1.29494e-12 0)
(0 -1.32827e-12 0)
(0 -1.30565e-12 0)
(0 -1.30208e-12 0)
(0 -1.28185e-12 0)
(0 -1.29732e-12 0)
(0 -1.32827e-12 0)
(0 -1.30089e-12 0)
(0 -1.33065e-12 0)
(-1.1902e-15 -1.3247e-12 0)
(1.1902e-15 -1.30089e-12 0)
(0 -1.32946e-12 0)
(0 -1.29494e-12 0)
(0 -1.28066e-12 0)
(0 -1.28304e-12 0)
(0 -1.28542e-12 0)
(0 -1.29375e-12 0)
(0 -1.29732e-12 0)
(-5.51065e-13 -1.34136e-12 0)
(-7.54928e-09 -1.29851e-12 0)
(-8.62991e-06 -1.33303e-12 0)
(-0.00103083 -1.24852e-12 0)
(-0.0205574 -1.23186e-12 0)
(-0.117677 -1.25091e-12 0)
(-0.320466 -1.12236e-12 0)
(-0.177908 -8.1529e-13 0)
(0.0444167 -7.95057e-13 0)
(-0.0444167 -1.06563e-08 0)
(0.177908 -1.04862e-08 0)
(0.320466 -1.38958e-08 0)
(0.117677 -1.51458e-08 0)
(0.0205574 -1.54245e-08 0)
(0.00103083 -1.54382e-08 0)
(8.62991e-06 -1.54384e-08 0)
(7.54925e-09 -1.54384e-08 0)
(4.82033e-13 -1.54384e-08 0)
(-2.02335e-14 -1.54384e-08 0)
(1.07118e-14 -1.54384e-08 0)
(0 -1.54384e-08 0)
(-1.1902e-14 -1.54384e-08 0)
(-2.85649e-14 -1.54384e-08 0)
(-1.07118e-14 -1.54383e-08 0)
(2.49943e-14 -1.54384e-08 0)
(2.26139e-14 -1.54384e-08 0)
(3.57061e-15 -1.54384e-08 0)
(-4.52278e-14 -1.54384e-08 0)
(-2.38041e-15 -1.54384e-08 0)
(-2.38041e-15 -1.54384e-08 0)
(-2.14237e-14 -1.54384e-08 0)
(2.73747e-14 -1.54384e-08 0)
(-3.57061e-15 -1.54383e-08 0)
(4.76082e-15 -1.54383e-08 0)
(4.76082e-14 -1.54383e-08 0)
(1.1902e-14 -1.54383e-08 0)
(-4.76082e-15 -1.54384e-08 0)
(-1.07118e-14 -1.54383e-08 0)
(-1.1902e-14 -1.54383e-08 0)
(-4.6418e-14 -1.54383e-08 0)
(-5.26071e-13 -1.54384e-08 0)
(-7.54925e-09 -1.54383e-08 0)
(-8.62991e-06 -1.54383e-08 0)
(-0.00103083 -1.54382e-08 0)
(-0.0205574 -1.54244e-08 0)
(-0.117677 -1.51458e-08 0)
(-0.320466 -1.38959e-08 0)
(-0.177908 -1.04862e-08 0)
(0.0444167 -1.06562e-08 0)
(-0.0444167 -1.08403e-05 0)
(0.177908 -1.06299e-05 0)
(0.320466 -1.3083e-05 0)
(0.117677 -1.39143e-05 0)
(0.0205574 -1.41142e-05 0)
(0.00103083 -1.4125e-05 0)
(8.62991e-06 -1.41251e-05 0)
(7.54926e-09 -1.41251e-05 0)
(4.77272e-13 -1.41251e-05 0)
(-8.33143e-15 -1.41251e-05 0)
(5.95102e-15 -1.41251e-05 0)
(0 -1.41251e-05 0)
(2.38041e-15 -1.41251e-05 0)
(3.33257e-14 -1.41251e-05 0)
(2.38041e-15 -1.41251e-05 0)
(-4.16572e-14 -1.41251e-05 0)
(-1.90433e-14 -1.41251e-05 0)
(2.49943e-14 -1.41251e-05 0)
(2.49943e-14 -1.41251e-05 0)
(3.57061e-15 -1.41251e-05 0)
(-3.57061e-15 -1.41251e-05 0)
(-1.07118e-14 -1.41251e-05 0)
(2.14237e-14 -1.41251e-05 0)
(3.33257e-14 -1.41251e-05 0)
(1.1902e-15 -1.41251e-05 0)
(-7.14123e-15 -1.41251e-05 0)
(-2.14237e-14 -1.41251e-05 0)
(2.38041e-15 -1.41251e-05 0)
(1.1902e-14 -1.41251e-05 0)
(-1.1902e-14 -1.41251e-05 0)
(-4.99886e-14 -1.41251e-05 0)
(-5.47494e-13 -1.41251e-05 0)
(-7.54919e-09 -1.41251e-05 0)
(-8.62991e-06 -1.41251e-05 0)
(-0.00103083 -1.4125e-05 0)
(-0.0205574 -1.41142e-05 0)
(-0.117677 -1.39143e-05 0)
(-0.320466 -1.3083e-05 0)
(-0.177908 -1.06299e-05 0)
(0.0444167 -1.08403e-05 0)
(-0.0444165 -0.00118041 0)
(0.177906 -0.00114715 0)
(0.320463 -0.00133621 0)
(0.117676 -0.0013964 0)
(0.0205572 -0.00141206 0)
(0.00103082 -0.00141299 0)
(8.62982e-06 -0.001413 0)
(7.54918e-09 -0.001413 0)
(5.8082e-13 -0.001413 0)
(-1.78531e-14 -0.001413 0)
(2.14237e-14 -0.001413 0)
(5.95102e-15 -0.001413 0)
(3.57061e-15 -0.001413 0)
(-4.87984e-14 -0.001413 0)
(-2.85649e-14 -0.001413 0)
(6.66515e-14 -0.001413 0)
(2.26139e-14 -0.001413 0)
(-3.33257e-14 -0.001413 0)
(-1.1902e-14 -0.001413 0)
(2.02335e-14 -0.001413 0)
(1.1902e-15 -0.001413 0)
(0 -0.001413 0)
(-9.52164e-15 -0.001413 0)
(-1.90433e-14 -0.001413 0)
(-1.90433e-14 -0.001413 0)
(-2.26139e-14 -0.001413 0)
(1.78531e-14 -0.001413 0)
(-3.33257e-14 -0.001413 0)
(-3.09453e-14 -0.001413 0)
(3.68963e-14 -0.001413 0)
(5.71298e-14 -0.001413 0)
(-4.79653e-13 -0.001413 0)
(-7.54915e-09 -0.001413 0)
(-8.62982e-06 -0.001413 0)
(-0.00103082 -0.00141299 0)
(-0.0205572 -0.00141206 0)
(-0.117676 -0.0013964 0)
(-0.320463 -0.00133621 0)
(-0.177906 -0.00114715 0)
(0.0444165 -0.00118041 0)
(-0.0443846 -0.0221337 0)
(0.177758 -0.0211412 0)
(0.320226 -0.0237704 0)
(0.117604 -0.0246081 0)
(0.0205414 -0.0248323 0)
(0.00102992 -0.0248468 0)
(8.62108e-06 -0.0248469 0)
(7.54004e-09 -0.0248469 0)
(5.2488e-13 -0.0248469 0)
(-2.26139e-14 -0.0248469 0)
(-6.66515e-14 -0.0248469 0)
(9.16458e-14 -0.0248469 0)
(8.92654e-14 -0.0248469 0)
(-5.2369e-14 -0.0248469 0)
(-6.30809e-14 -0.0248469 0)
(-1.78531e-14 -0.0248469 0)
(-1.54727e-14 -0.0248469 0)
(-3.68963e-14 -0.0248469 0)
(-4.0467e-14 -0.0248469 0)
(-5.832e-14 -0.0248469 0)
(1.66629e-14 -0.0248469 0)
(9.2836e-14 -0.0248469 0)
(3.45159e-14 -0.0248469 0)
(-5.47494e-14 -0.0248469 0)
(-5.35592e-14 -0.0248469 0)
(3.80866e-14 -0.0248469 0)
(5.95102e-14 -0.0248469 0)
(4.28474e-14 -0.0248469 0)
(7.73633e-14 -0.0248469 0)
(-1.42825e-14 -0.0248469 0)
(-9.8787e-14 -0.0248469 0)
(-4.96315e-13 -0.0248469 0)
(-7.54029e-09 -0.0248469 0)
(-8.62108e-06 -0.0248469 0)
(-0.00102992 -0.0248468 0)
(-0.0205414 -0.0248323 0)
(-0.117604 -0.0246081 0)
(-0.320226 -0.0237704 0)
(-0.177758 -0.0211412 0)
(0.0443846 -0.0221337 0)
(-0.0434601 -0.121056 0)
(0.176329 -0.115383 0)
(0.317122 -0.12713 0)
(0.116652 -0.130983 0)
(0.0203272 -0.13191 0)
(0.00101669 -0.131972 0)
(8.47956e-06 -0.131973 0)
(7.38259e-09 -0.131973 0)
(5.37973e-13 -0.131973 0)
(-4.76082e-14 -0.131973 0)
(-8.56947e-14 -0.131973 0)
(-8.80752e-14 -0.131973 0)
(-3.57061e-15 -0.131973 0)
(1.55917e-13 -0.131973 0)
(8.45045e-14 -0.131973 0)
(-3.92768e-14 -0.131973 0)
(6.07004e-14 -0.131973 0)
(1.39254e-13 -0.131973 0)
(5.832e-14 -0.131973 0)
(-3.21355e-14 -0.131973 0)
(-7.14123e-15 -0.131973 0)
(3.68963e-14 -0.131973 0)
(4.6418e-14 -0.131973 0)
(2.38041e-14 -0.131973 0)
(-4.40376e-14 -0.131973 0)
(-8.09339e-14 -0.131973 0)
(-9.75968e-14 -0.131973 0)
(-9.52164e-15 -0.131973 0)
(7.02221e-14 -0.131973 0)
(4.0467e-14 -0.131973 0)
(-6.54613e-14 -0.131973 0)
(-7.10552e-13 -0.131973 0)
(-7.38247e-09 -0.131973 0)
(-8.47956e-06 -0.131973 0)
(-0.00101669 -0.131972 0)
(-0.0203272 -0.13191 0)
(-0.116652 -0.130983 0)
(-0.317122 -0.12713 0)
(-0.176329 -0.115383 0)
(0.0434601 -0.121056 0)
(-0.0389177 -0.288815 0)
(0.171905 -0.296549 0)
(0.305193 -0.330851 0)
(0.112997 -0.343019 0)
(0.0195887 -0.345929 0)
(0.000969854 -0.346123 0)
(7.93888e-06 -0.346125 0)
(6.73378e-09 -0.346125 0)
(5.37973e-13 -0.346125 0)
(9.52164e-15 -0.346125 0)
(7.14123e-15 -0.346125 0)
(-3.09453e-14 -0.346125 0)
(-1.54727e-14 -0.346125 0)
(4.76082e-15 -0.346125 0)
(-7.61731e-14 -0.346125 0)
(-7.85535e-14 -0.346125 0)
(-1.42825e-14 -0.346125 0)
(-1.30923e-14 -0.346125 0)
(-1.54727e-14 -0.346125 0)
(2.38041e-15 -0.346125 0)
(2.14237e-14 -0.346125 0)
(4.6418e-14 -0.346125 0)
(3.21355e-14 -0.346125 0)
(3.33257e-14 -0.346125 0)
(3.09453e-14 -0.346125 0)
(-2.97551e-14 -0.346125 0)
(-3.92768e-14 -0.346125 0)
(9.52164e-15 -0.346125 0)
(1.54727e-14 -0.346125 0)
(-3.33257e-14 -0.346125 0)
(-1.78531e-14 -0.346125 0)
(-3.85626e-13 -0.346125 0)
(-6.73353e-09 -0.346125 0)
(-7.93888e-06 -0.346125 0)
(-0.000969854 -0.346123 0)
(-0.0195887 -0.345929 0)
(-0.112997 -0.343019 0)
(-0.305193 -0.330851 0)
(-0.171905 -0.296549 0)
(0.0389177 -0.288815 0)
(-0.0509128 -0.166716 0)
(0.135821 -0.146711 0)
(0.272342 -0.183416 0)
(0.102123 -0.187786 0)
(0.0173357 -0.189117 0)
(0.000827217 -0.189238 0)
(6.39448e-06 -0.18924 0)
(5.023e-09 -0.18924 0)
(2.67796e-13 -0.18924 0)
(1.90433e-14 -0.18924 0)
(2.49943e-14 -0.18924 0)
(1.90433e-14 -0.18924 0)
(2.14237e-14 -0.18924 0)
(-2.26139e-14 -0.18924 0)
(-5.95102e-15 -0.18924 0)
(-2.38041e-15 -0.18924 0)
(-5.95102e-14 -0.18924 0)
(-2.14237e-14 -0.18924 0)
(3.33257e-14 -0.18924 0)
(1.07118e-14 -0.18924 0)
(2.85649e-14 -0.18924 0)
(3.09453e-14 -0.18924 0)
(-2.61845e-14 -0.18924 0)
(-4.0467e-14 -0.18924 0)
(-3.57061e-14 -0.18924 0)
(7.14123e-15 -0.18924 0)
(6.54613e-14 -0.18924 0)
(9.52164e-15 -0.18924 0)
(-5.95102e-14 -0.18924 0)
(-2.38041e-14 -0.18924 0)
(1.66629e-14 -0.18924 0)
(-2.39231e-13 -0.18924 0)
(-5.02296e-09 -0.18924 0)
(-6.39448e-06 -0.18924 0)
(-0.000827217 -0.189238 0)
(-0.0173357 -0.189117 0)
(-0.102123 -0.187786 0)
(-0.272342 -0.183416 0)
(-0.135821 -0.146711 0)
(0.0509128 -0.166716 0)
(-0.0196404 0.0220072 0)
(0.155812 0.0544597 0)
(0.265612 0.0427519 0)
(0.107504 0.0474756 0)
(0.0181892 0.048336 0)
(0.000851579 0.0483612 0)
(6.51642e-06 0.0483613 0)
(5.09931e-09 0.0483613 0)
(3.02312e-13 0.0483613 0)
(2.97551e-14 0.0483613 0)
(2.38041e-15 0.0483613 0)
(-5.95102e-15 0.0483613 0)
(-8.33143e-15 0.0483613 0)
(2.38041e-15 0.0483613 0)
(2.38041e-14 0.0483613 0)
(1.30923e-14 0.0483613 0)
(-3.68963e-14 0.0483613 0)
(-8.33143e-15 0.0483613 0)
(0 0.0483613 0)
(-9.52164e-15 0.0483613 0)
(2.73747e-14 0.0483613 0)
(3.09453e-14 0.0483613 0)
(2.02335e-14 0.0483613 0)
(-5.95102e-15 0.0483613 0)
(-3.33257e-14 0.0483613 0)
(2.38041e-15 0.0483613 0)
(9.52164e-15 0.0483613 0)
(-2.14237e-14 0.0483613 0)
(0 0.0483613 0)
(1.54727e-14 0.0483613 0)
(-2.02335e-14 0.0483613 0)
(-3.40399e-13 0.0483613 0)
(-5.09935e-09 0.0483613 0)
(-6.51642e-06 0.0483613 0)
(-0.000851579 0.0483612 0)
(-0.0181892 0.048336 0)
(-0.107504 0.0474756 0)
(-0.265612 0.0427519 0)
(-0.155812 0.0544597 0)
(0.0196404 0.0220072 0)
(-0.0196404 -0.0220072 0)
(0.155812 -0.0544597 0)
(0.265612 -0.0427519 0)
(0.107504 -0.0474756 0)
(0.0181892 -0.048336 0)
(0.000851579 -0.0483612 0)
(6.51642e-06 -0.0483613 0)
(5.0994e-09 -0.0483613 0)
(2.85649e-13 -0.0483613 0)
(4.52278e-14 -0.0483613 0)
(2.02335e-14 -0.0483613 0)
(-8.33143e-15 -0.0483613 0)
(-1.42825e-14 -0.0483613 0)
(-1.1902e-14 -0.0483613 0)
(2.38041e-15 -0.0483613 0)
(5.95102e-15 -0.0483613 0)
(-8.33143e-15 -0.0483613 0)
(0 -0.0483613 0)
(-8.33143e-15 -0.0483613 0)
(-3.33257e-14 -0.0483613 0)
(-9.52164e-15 -0.0483613 0)
(4.28474e-14 -0.0483613 0)
(2.26139e-14 -0.0483613 0)
(-1.78531e-14 -0.0483613 0)
(-1.07118e-14 -0.0483613 0)
(1.42825e-14 -0.0483613 0)
(1.90433e-14 -0.0483613 0)
(-1.78531e-14 -0.0483613 0)
(-2.73747e-14 -0.0483613 0)
(8.33143e-15 -0.0483613 0)
(2.02335e-14 -0.0483613 0)
(-3.09453e-13 -0.0483613 0)
(-5.09942e-09 -0.0483613 0)
(-6.51642e-06 -0.0483613 0)
(-0.000851579 -0.0483612 0)
(-0.0181892 -0.048336 0)
(-0.107504 -0.0474756 0)
(-0.265612 -0.0427519 0)
(-0.155812 -0.0544597 0)
(0.0196404 -0.0220072 0)
(-0.0509128 0.166716 0)
(0.135821 0.146711 0)
(0.272342 0.183416 0)
(0.102123 0.187786 0)
(0.0173357 0.189117 0)
(0.000827217 0.189238 0)
(6.39448e-06 0.18924 0)
(5.02298e-09 0.18924 0)
(2.60655e-13 0.18924 0)
(6.66515e-14 0.18924 0)
(3.09453e-14 0.18924 0)
(0 0.18924 0)
(1.78531e-14 0.18924 0)
(-1.90433e-14 0.18924 0)
(1.1902e-15 0.18924 0)
(2.02335e-14 0.18924 0)
(-4.16572e-14 0.18924 0)
(-4.52278e-14 0.18924 0)
(-1.54727e-14 0.18924 0)
(-8.33143e-15 0.18924 0)
(2.61845e-14 0.18924 0)
(3.33257e-14 0.18924 0)
(0 0.18924 0)
(3.57061e-15 0.18924 0)
(1.90433e-14 0.18924 0)
(3.57061e-15 0.18924 0)
(2.38041e-15 0.18924 0)
(-1.78531e-14 0.18924 0)
(-4.6418e-14 0.18924 0)
(-1.30923e-14 0.18924 0)
(2.26139e-14 0.18924 0)
(-2.40421e-13 0.18924 0)
(-5.02294e-09 0.18924 0)
(-6.39448e-06 0.18924 0)
(-0.000827217 0.189238 0)
(-0.0173357 0.189117 0)
(-0.102123 0.187786 0)
(-0.272342 0.183416 0)
(-0.135821 0.146711 0)
(0.0509128 0.166716 0)
(-0.0389177 0.288815 0)
(0.171905 0.296549 0)
(0.305193 0.330851 0)
(0.112997 0.343019 0)
(0.0195887 0.345929 0)
(0.000969854 0.346123 0)
(7.93888e-06 0.346125 0)
(6.73358e-09 0.346125 0)
(4.77272e-13 0.346125 0)
(7.37927e-14 0.346125 0)
(2.02335e-14 0.346125 0)
(-4.99886e-14 0.346125 0)
(-3.33257e-14 0.346125 0)
(-3.57061e-15 0.346125 0)
(-4.76082e-14 0.346125 0)
(-3.33257e-14 0.346125 0)
(0 0.346125 0)
(-2.38041e-14 0.346125 0)
(5.95102e-15 0.346125 0)
(3.92768e-14 0.346125 0)
(4.87984e-14 0.346125 0)
(5.59396e-14 0.346125 0)
(0 0.346125 0)
(-2.02335e-14 0.346125 0)
(-4.52278e-14 0.346125 0)
(-5.47494e-14 0.346125 0)
(1.30923e-14 0.346125 0)
(2.38041e-15 0.346125 0)
(-3.45159e-14 0.346125 0)
(-3.21355e-14 0.346125 0)
(-1.1902e-14 0.346125 0)
(-3.74915e-13 0.346125 0)
(-6.73356e-09 0.346125 0)
(-7.93888e-06 0.346125 0)
(-0.000969854 0.346123 0)
(-0.0195887 0.345929 0)
(-0.112997 0.343019 0)
(-0.305193 0.330851 0)
(-0.171905 0.296549 0)
(0.0389177 0.288815 0)
(-0.0434601 0.121056 0)
(0.176329 0.115383 0)
(0.317122 0.12713 0)
(0.116652 0.130983 0)
(0.0203272 0.13191 0)
(0.00101669 0.131972 0)
(8.47956e-06 0.131973 0)
(7.38241e-09 0.131973 0)
(4.6775e-13 0.131973 0)
(-5.95102e-15 0.131973 0)
(-1.11879e-13 0.131973 0)
(-4.0467e-14 0.131973 0)
(7.02221e-14 0.131973 0)
(1.41634e-13 0.131973 0)
(6.78417e-14 0.131973 0)
(-1.30923e-14 0.131973 0)
(9.04556e-14 0.131973 0)
(1.29732e-13 0.131973 0)
(1.1902e-14 0.131973 0)
(-8.09339e-14 0.131973 0)
(-7.85535e-14 0.131973 0)
(-6.54613e-14 0.131973 0)
(1.78531e-14 0.131973 0)
(1.42825e-14 0.131973 0)
(-1.03548e-13 0.131973 0)
(-6.78417e-14 0.131973 0)
(1.07118e-14 0.131973 0)
(5.59396e-14 0.131973 0)
(7.73633e-14 0.131973 0)
(5.95102e-14 0.131973 0)
(3.33257e-14 0.131973 0)
(-6.03434e-13 0.131973 0)
(-7.38268e-09 0.131973 0)
(-8.47956e-06 0.131973 0)
(-0.00101669 0.131972 0)
(-0.0203272 0.13191 0)
(-0.116652 0.130983 0)
(-0.317122 0.12713 0)
(-0.176329 0.115383 0)
(0.0434601 0.121056 0)
(-0.0443846 0.0221337 0)
(0.177758 0.0211412 0)
(0.320226 0.0237704 0)
(0.117604 0.0246081 0)
(0.0205414 0.0248323 0)
(0.00102992 0.0248468 0)
(8.62108e-06 0.0248469 0)
(7.54025e-09 0.0248469 0)
(6.24858e-13 0.0248469 0)
(-3.92768e-14 0.0248469 0)
(7.02221e-14 0.0248469 0)
(-3.57061e-15 0.0248469 0)
(-1.1664e-13 0.0248469 0)
(-8.68849e-14 0.0248469 0)
(-9.04556e-14 0.0248469 0)
(-3.45159e-14 0.0248469 0)
(4.87984e-14 0.0248469 0)
(6.07004e-14 0.0248469 0)
(8.33143e-15 0.0248469 0)
(-1.30923e-14 0.0248469 0)
(3.92768e-14 0.0248469 0)
(3.80866e-14 0.0248469 0)
(1.78531e-14 0.0248469 0)
(3.45159e-14 0.0248469 0)
(8.92654e-14 0.0248469 0)
(1.1902e-14 0.0248469 0)
(-5.59396e-14 0.0248469 0)
(-2.38041e-14 0.0248469 0)
(1.42825e-14 0.0248469 0)
(1.66629e-14 0.0248469 0)
(-3.45159e-14 0.0248469 0)
(-5.07027e-13 0.0248469 0)
(-7.54013e-09 0.0248469 0)
(-8.62108e-06 0.0248469 0)
(-0.00102992 0.0248468 0)
(-0.0205414 0.0248323 0)
(-0.117604 0.0246081 0)
(-0.320226 0.0237704 0)
(-0.177758 0.0211412 0)
(0.0443846 0.0221337 0)
(-0.0444165 0.00118041 0)
(0.177906 0.00114715 0)
(0.320463 0.00133621 0)
(0.117676 0.0013964 0)
(0.0205572 0.00141206 0)
(0.00103082 0.00141299 0)
(8.62982e-06 0.001413 0)
(7.54922e-09 0.001413 0)
(4.47517e-13 0.001413 0)
(2.14237e-14 0.001413 0)
(4.76082e-14 0.001413 0)
(4.0467e-14 0.001413 0)
(-1.42825e-14 0.001413 0)
(-1.1902e-15 0.001413 0)
(6.42711e-14 0.001413 0)
(4.99886e-14 0.001413 0)
(-1.90433e-14 0.001413 0)
(-7.02221e-14 0.001413 0)
(-5.2369e-14 0.001413 0)
(-4.76082e-15 0.001413 0)
(4.76082e-15 0.001413 0)
(1.1902e-15 0.001413 0)
(-1.90433e-14 0.001413 0)
(-4.28474e-14 0.001413 0)
(-3.80866e-14 0.001413 0)
(2.14237e-14 0.001413 0)
(4.76082e-14 0.001413 0)