/*--------------------------------*- C++ -*----------------------------------*\
| =========                 |                                                 |
| \\      /  F ield         | OpenFOAM: The Open Source CFD Toolbox           |
|  \\    /   O peration     | Version:  v1912                                 |
|   \\  /    A nd           | Website:  www.openfoam.com                      |
|    \\/     M anipulation  |                                                 |
\*---------------------------------------------------------------------------*/
FoamFile
{
    version     2.0;
    format      ascii;
    class       volVectorField;
    location    "0.24";
    object      grad(p);
}
// * * * * * * * * * * * * * * * * * * * * * * * * * * * * * * * * * * * * * //

dimensions      [1 -2 -2 0 0 0 0];


internalField   nonuniform List<vector> 
1900
(
(0 0 0)
(0 0 0)
(0 0 0)
(0 0 0)
(0 -1.77636e-11 0)
(0 0 0)
(0 -1.77636e-11 0)
(0 0 0)
(-2.67519e-08 0 0)
(-7.24256e-07 -1.29496e-08 0)
(0 0 0)
(0 0 0)
(0 0 0)
(0 0 0)
(0 0 0)
(1.77636e-11 0 0)
(0 1.77636e-11 0)
(-1.77636e-11 0 0)
(-3.9666e-08 0 0)
(-1.11548e-06 -2.10676e-08 0)
(0 0 0)
(0 0 0)
(0 0 0)
(0 0 0)
(0 0 0)
(1.77636e-11 0 0)
(0 0 0)
(-1.77636e-11 0 0)
(-4.78195e-08 0 0)
(-1.33378e-06 1.59872e-10 0)
(0 0 0)
(0 0 0)
(0 1.77636e-11 0)
(0 0 0)
(0 0 0)
(0 0 0)
(0 -1.77636e-11 0)
(0 0 0)
(-3.95062e-08 0 0)
(-1.11553e-06 2.25064e-08 0)
(0 0 0)
(1.77636e-11 0 0)
(-1.77636e-11 0 0)
(1.77636e-11 0 0)
(-1.77636e-11 1.77636e-11 0)
(0 0 0)
(0 0 0)
(0 0 0)
(-2.52953e-08 0 0)
(-7.25375e-07 1.42109e-08 0)
(-4.12738e-05 -3.39423e-07 9.82067e-12)
(-0.00116147 -1.95947e-05 -1.18882e-11)
(-0.0190432 -0.000713017 -1.50584e-11)
(-0.0946356 -0.012887 0)
(3.17681 -0.0910253 -6.45358e-11)
(-6.45473e-05 -5.29045e-07 9.82067e-12)
(-0.00182623 -3.15427e-05 1.18882e-11)
(-0.0277012 -0.00119516 1.50584e-11)
(-0.13254 -0.0206886 0)
(3.51022 -0.131144 0)
(-7.88678e-05 0 0)
(-0.00228289 3.13589e-09 0)
(-0.0332111 -6.85871e-09 0)
(-0.153999 5.08011e-09 0)
(3.89523 -1.16309e-09 0)
(-6.4544e-05 5.28418e-07 9.82067e-12)
(-0.00182623 3.15457e-05 1.18882e-11)
(-0.0277012 0.00119515 1.50584e-11)
(-0.13254 0.0206886 0)
(3.51022 0.131144 0)
(-4.12723e-05 3.38779e-07 -2.9462e-11)
(-0.00116147 1.95945e-05 -1.18882e-11)
(-0.0190432 0.00071302 -1.50584e-11)
(-0.0946355 0.012887 -4.10683e-11)
(3.17681 0.0910253 6.45358e-11)
(138.574 1.57414 2.73807e-11)
(998.463 16.3977 -2.32216e-11)
(2825.4 -29.2521 0)
(4925.78 -829.47 1.86183e-11)
(-911.439 -3378.45 -8.7678e-12)
(143.672 3.5091 -1.36904e-11)
(988.288 57.9362 1.16111e-11)
(2495.85 31.6743 0)
(3476.3 -878.065 -1.16142e-11)
(-1249.4 -4711.72 2.13104e-12)
(156.349 1.43544e-09 0)
(1007.79 1.74599e-09 0)
(2466.71 2.30268e-09 0)
(2927.48 -2.32204e-10 4.6351e-12)
(-1624.93 2.85671e-09 -4.26208e-12)
(143.672 -3.5091 -1.36904e-11)
(988.288 -57.9362 1.16111e-11)
(2495.85 -31.6743 0)
(3476.3 878.065 -1.16142e-11)
(-1249.4 4711.72 2.13104e-12)
(138.574 -1.57414 1.36904e-11)
(998.463 -16.3977 -4.93844e-16)
(2825.4 29.2521 0)
(4925.78 829.47 -2.49809e-14)
(-911.439 3378.45 8.7678e-12)
(-8873.16 -4052.38 0)
(-2971.48 7210.19 0)
(3990.15 2258.01 0)
(1927.67 269.955 0)
(400.642 7.03459 0)
(20.7382 0.00306215 0)
(0.169364 -3.44795e-05 0)
(0.000144874 -4.81231e-09 0)
(8.26006e-09 0 0)
(0 -3.22974e-11 0)
(-1.61487e-11 0 0)
(0 9.68922e-11 0)
(0 -3.22974e-11 0)
(1.61487e-11 0 0)
(0 -3.22974e-11 0)
(-1.61487e-11 0 0)
(0 0 0)
(1.61487e-11 0 0)
(0 -9.68922e-11 0)
(-1.61487e-11 3.22974e-11 0)
(0 -3.22974e-11 0)
(0 6.45948e-11 0)
(1.61487e-11 0 0)
(0 -9.68922e-11 0)
(-1.61487e-11 3.22974e-11 0)
(0 -3.22974e-11 0)
(0 3.22974e-11 0)
(0 0 0)
(0 -3.22974e-11 0)
(0 -3.22974e-11 0)
(0 -3.22974e-11 0)
(-1.73195e-08 3.22974e-11 0)
(-0.00026451 6.45948e-10 0)
(-0.30803 4.36015e-09 0)
(-37.4168 -1.87325e-09 0)
(-731.79 -5.81353e-10 0)
(-3757.01 -4.03717e-09 0)
(-8428.42 3.22974e-10 0)
(7099.95 -1.09811e-09 0)
(-59599.6 -2.58379e-10 0)
(-6966.73 -2509.56 0)
(-2397.33 4477.46 0)
(3167.79 1173.06 0)
(1678.21 67.1802 0)
(382.381 -7.82511 0)
(21.3839 -0.172651 0)
(0.189294 -0.000211785 0)
(0.000171817 -1.7053e-08 0)
(1.09407e-08 0 0)
(0 3.22974e-11 0)
(2.4223e-11 0 0)
(-1.61487e-11 -6.45948e-11 0)
(-8.07435e-12 0 0)
(0 0 0)
(0 0 0)
(0 0 0)
(0 0 0)
(0 0 0)
(2.4223e-11 -3.22974e-11 0)
(0 -3.22974e-11 0)
(0 0 0)
(-1.61487e-11 -3.22974e-11 0)
(-8.07435e-12 0 0)
(2.4223e-11 -3.22974e-11 0)
(0 -3.22974e-11 0)
(-2.4223e-11 6.45948e-11 0)
(0 0 0)
(0 0 0)
(0 0 0)
(0 0 0)
(0 0 0)
(-1.72226e-08 0 0)
(-0.000264509 1.80865e-09 0)
(-0.30803 2.77758e-09 0)
(-37.4168 -2.64839e-09 0)
(-731.79 4.19866e-10 0)
(-3757.01 -2.26082e-10 0)
(-8428.42 1.13041e-09 0)
(7099.95 1.84095e-09 0)
(-59599.6 2.39001e-09 0)
(-6144.2 -9.68922e-10 0)
(-1900.17 1.93784e-10 0)
(2707.15 -1.13041e-09 0)
(1584.13 -5.49056e-10 0)
(381.048 -4.84461e-10 0)
(23.0146 -1.80865e-09 0)
(0.219589 9.36625e-10 0)
(0.000206484 2.4223e-09 0)
(1.32177e-08 0 0)
(1.61487e-11 0 0)
(-3.22974e-11 0 0)
(0 -3.22974e-11 0)
(0 0 0)
(0 0 0)
(1.61487e-11 3.22974e-11 0)
(-1.61487e-11 0 0)
(0 0 0)
(0 0 0)
(0 0 0)
(0 -3.22974e-11 0)
(0 0 0)
(0 -3.22974e-11 0)
(0 -6.45948e-11 0)
(0 0 0)
(3.22974e-11 -3.22974e-11 0)
(0 0 0)
(-3.22974e-11 0 0)
(0 -6.45948e-11 0)
(0 0 0)
(0 0 0)
(0 0 0)
(-1.67704e-08 0 0)
(-0.000264509 -2.19622e-09 0)
(-0.30803 3.45582e-09 0)
(-37.4168 -4.84461e-10 0)
(-731.79 9.68922e-11 0)
(-3757.01 1.2919e-10 0)
(-8428.42 6.45948e-11 0)
(7099.95 -8.07435e-10 0)
(-59599.6 2.00244e-09 0)
(-6966.73 2509.56 0)
(-2397.33 -4477.46 0)
(3167.79 -1173.06 0)
(1678.21 -67.1802 0)
(382.381 7.82511 0)
(21.3839 0.172651 0)
(0.189294 0.000211786 0)
(0.000171817 1.74406e-08 0)
(1.02221e-08 0 0)
(0 -3.22974e-11 0)
(0 0 0)
(8.07435e-12 3.22974e-11 0)
(-8.07435e-12 0 0)
(8.07435e-12 0 0)
(0 0 0)
(-8.07435e-12 0 0)
(0 0 0)
(0 0 0)
(0 0 0)
(0 0 0)
(0 0 0)
(-2.4223e-11 0 0)
(0 0 0)
(2.4223e-11 0 0)
(0 0 0)
(0 -6.45948e-11 0)
(-2.4223e-11 0 0)
(0 0 0)
(2.4223e-11 0 0)
(0 0 0)
(0 0 0)
(-1.78605e-08 0 0)
(-0.000264508 -2.71298e-09 0)
(-0.30803 6.49178e-09 0)
(-37.4168 -7.4284e-10 0)
(-731.79 -4.52164e-10 0)
(-3757.01 -3.10055e-09 0)
(-8428.42 8.07435e-10 0)
(7099.95 -4.52164e-10 0)
(-59599.6 -1.16271e-09 0)
(-8873.16 4052.38 0)
(-2971.48 -7210.19 0)
(3990.15 -2258.01 0)
(1927.67 -269.955 0)
(400.642 -7.03459 0)
(20.7382 -0.00306215 0)
(0.169364 3.448e-05 0)
(0.000144874 2.35771e-09 0)
(8.13894e-09 0 0)
(0 3.22974e-11 0)
(-1.61487e-11 0 0)
(0 -3.22974e-11 0)
(0 3.22974e-11 0)
(0 0 0)
(0 -6.45948e-11 0)
(0 0 0)
(0 0 0)
(0 0 0)
(0 0 0)
(1.61487e-11 3.22974e-11 0)
(-1.61487e-11 0 0)
(0 0 0)
(0 6.45948e-11 0)
(0 0 0)
(1.61487e-11 3.22974e-11 0)
(-1.61487e-11 0 0)
(0 0 0)
(0 6.45948e-11 0)
(0 0 0)
(0 3.22974e-11 0)
(0 0 0)
(-1.75859e-08 0 0)
(-0.000264507 9.36625e-10 0)
(-0.30803 2.77758e-09 0)
(-37.4168 -4.84461e-10 0)
(-731.79 3.22974e-11 0)
(-3757.01 2.87447e-09 0)
(-8428.42 1.03352e-09 0)
(7099.95 2.55149e-09 0)
(-59599.6 1.61487e-10 0)
(61216.9 3422.44 0)
(-5691.81 -6129.46 0)
(6570.35 -2246.32 0)
(2801.75 -378.241 0)
(530.601 -18.3046 0)
(26.543 -0.148321 0)
(0.214259 -0.000125318 0)
(0.000181341 -1.00719e-08 0)
(1.11932e-08 0 0)
(0 -1.95003e-11 0)
(0 0 0)
(0 0 0)
(0 -9.75016e-12 0)
(0 0 0)
(0 0 0)
(0 9.75016e-12 0)
(0 0 0)
(0 0 0)
(0 0 0)
(0 -9.75016e-12 0)
(0 0 0)
(0 0 0)
(0 0 0)
(0 0 0)
(0 -9.75016e-12 0)
(0 0 0)
(0 9.75016e-12 0)
(0 0 0)
(0 0 0)
(0 -9.75016e-12 0)
(0 0 0)
(-1.75698e-08 0 0)
(-0.000264506 1.17002e-09 0)
(-0.30803 5.75259e-10 0)
(-37.4168 -3.3833e-09 0)
(-731.79 2.04753e-10 0)
(-3757.01 3.83181e-09 0)
(-8428.42 0 0)
(7099.95 7.02011e-10 0)
(-59599.6 1.91103e-09 0)
(59944.5 460.813 0)
(-6975.38 -2123.12 0)
(8148.64 -995.469 0)
(3605.95 -207.054 0)
(695.297 -11.1743 0)
(35.2644 -0.0962883 0)
(0.288217 -8.53522e-05 0)
(0.00024608 -5.18708e-09 0)
(1.6195e-08 0 0)
(0 0 0)
(0 0 0)
(0 0 0)
(0 0 0)
(0 0 0)
(0 0 0)
(0 -9.75016e-12 0)
(0 0 0)
(0 0 0)
(0 0 0)
(0 0 0)
(0 0 0)
(0 0 0)
(0 0 0)
(0 0 0)
(0 9.75016e-12 0)
(9.75016e-12 0 0)
(-9.75016e-12 0 0)
(0 0 0)
(0 0 0)
(0 0 0)
(0 0 0)
(-1.64583e-08 0 0)
(-0.000264507 1.70628e-09 0)
(-0.30803 -3.99756e-10 0)
(-37.4168 -8.77514e-11 0)
(-731.79 -1.57953e-09 0)
(-3757.01 4.19257e-10 0)
(-8428.42 5.26509e-10 0)
(7099.95 0 0)
(-59599.6 -2.92505e-11 0)
(59615 -29.3863 0)
(-7095.13 -328.119 0)
(8416.75 -158.936 0)
(3750.25 -37.8766 0)
(730.033 -2.23277 0)
(37.3109 -0.0205529 0)
(0.307046 -1.9117e-05 0)
(0.000263589 -1.24802e-09 0)
(1.6195e-08 0 0)
(0 0 0)
(0 0 0)
(0 0 0)
(0 0 0)
(0 0 0)
(0 0 0)
(0 0 0)
(0 0 0)
(0 0 0)
(0 0 0)
(0 0 0)
(0 0 0)
(0 0 0)
(0 0 0)
(0 0 0)
(0 -9.75016e-12 0)
(9.75016e-12 9.75016e-12 0)
(0 -9.75016e-12 0)
(0 1.95003e-11 0)
(-9.75016e-12 0 0)
(0 0 0)
(0 0 0)
(-1.59318e-08 9.75016e-12 0)
(-0.000264507 7.80013e-11 0)
(-0.30803 -2.16453e-09 0)
(-37.4168 2.27179e-09 0)
(-731.79 -2.7983e-09 0)
(-3757.01 -1.83303e-09 0)
(-8428.42 -6.92261e-10 0)
(7099.95 -7.99513e-10 0)
(-59599.6 -3.15905e-09 0)
(59600 -2.11404 0)
(-7100.22 -13.9346 0)
(8428.33 -7.11918 0)
(3756.95 -1.82452 0)
(731.776 -0.109895 0)
(37.416 -0.00102084 0)
(0.308023 -9.55954e-07 0)
(0.000264501 1.95003e-11 0)
(1.73943e-08 0 0)
(0 0 0)
(0 0 0)
(0 0 0)
(0 0 0)
(0 0 0)
(0 0 0)
(0 0 0)
(0 0 0)
(0 0 0)
(0 0 0)
(0 0 0)
(0 0 0)
(0 0 0)
(0 0 0)
(0 0 0)
(0 0 0)
(0 -9.75016e-12 0)
(0 0 0)
(0 -1.95003e-11 0)
(0 0 0)
(0 0 0)
(9.75016e-12 0 0)
(-1.639e-08 -9.75016e-12 0)
(-0.000264509 -8.19013e-10 0)
(-0.30803 -1.66728e-09 0)
(-37.4168 3.0128e-09 0)
(-731.79 -2.32054e-09 0)
(-3757.01 -1.66728e-09 0)
(-8428.42 2.92505e-10 0)
(7099.95 -7.89763e-10 0)
(-59599.6 -1.07252e-10 0)
(59599.6 -0.336883 0)
(-7099.96 -0.110936 0)
(8428.42 -0.0553787 0)
(3757.01 -0.0142392 0)
(731.79 -0.000838013 0)
(37.4168 -7.54219e-06 0)
(0.30803 -9.72091e-09 0)
(0.000264511 -8.77514e-11 0)
(1.61658e-08 9.75016e-12 0)
(-9.75016e-12 0 0)
(0 0 0)
(0 0 0)
(0 0 0)
(0 0 0)
(0 0 0)
(0 0 0)
(0 0 0)
(0 0 0)
(0 0 0)
(0 0 0)
(0 0 0)
(0 0 0)
(0 0 0)
(0 0 0)
(0 0 0)
(0 0 0)
(0 0 0)
(0 0 0)
(0 0 0)
(0 0 0)
(0 0 0)
(-1.67215e-08 0 0)
(-0.000264508 5.46009e-10 0)
(-0.30803 2.46679e-09 0)
(-37.4168 1.52102e-09 0)
(-731.79 -1.24802e-09 0)
(-3757.01 5.85009e-11 0)
(-8428.42 2.02803e-09 0)
(7099.95 -5.55759e-10 0)
(-59599.6 1.54052e-09 0)
(59599.6 -0.00720463 0)
(-7099.95 -0.000306852 0)
(8428.42 -6.10802e-05 0)
(3757.01 -1.12984e-05 0)
(731.79 -6.16268e-07 0)
(37.4168 -9.32115e-09 0)
(0.30803 1.49177e-09 0)
(0.000264511 -7.70262e-10 0)
(1.74918e-08 -9.75016e-12 0)
(0 0 0)
(0 0 0)
(0 0 0)
(0 0 0)
(0 0 0)
(0 0 0)
(0 0 0)
(0 0 0)
(0 0 0)
(0 0 0)
(0 0 0)
(0 0 0)
(0 0 0)
(0 0 0)
(0 0 0)
(0 0 0)
(0 0 0)
(0 0 0)
(0 0 0)
(0 0 0)
(0 0 0)
(0 0 0)
(-1.58538e-08 0 0)
(-0.000264507 1.65753e-10 0)
(-0.30803 5.07008e-10 0)
(-37.4168 -2.33029e-09 0)
(-731.79 4.48507e-10 0)
(-3757.01 -8.09263e-10 0)
(-8428.42 3.99756e-10 0)
(7099.95 -1.05302e-09 0)
(-59599.6 -2.41804e-09 0)
(59599.6 -1.34989e-05 0)
(-7099.95 -3.247e-07 0)
(8428.42 -1.85643e-08 0)
(3757.01 -1.24802e-09 0)
(731.79 -8.28763e-10 0)
(37.4168 -1.04327e-09 0)
(0.30803 4.05607e-09 0)
(0.000264509 1.05302e-09 0)
(1.69068e-08 9.75016e-12 0)
(0 0 0)
(0 0 0)
(0 9.75016e-12 0)
(0 0 0)
(0 0 0)
(0 0 0)
(0 0 0)
(0 0 0)
(0 1.95003e-11 0)
(0 0 0)
(0 0 0)
(0 0 0)
(0 0 0)
(0 0 0)
(0 0 0)
(0 0 0)
(0 0 0)
(-1.95003e-11 0 0)
(1.95003e-11 0 0)
(0 0 0)
(0 0 0)
(0 0 0)
(-1.65753e-08 0 0)
(-0.000264508 -7.70262e-10 0)
(-0.30803 -3.41256e-09 0)
(-37.4168 -1.47227e-09 0)
(-731.79 1.46252e-10 0)
(-3757.01 -8.67764e-10 0)
(-8428.42 -1.81353e-09 0)
(7099.95 -1.51127e-09 0)
(-59599.6 -3.52956e-09 0)
(59599.6 1.97928e-09 0)
(-7099.95 6.82511e-10 0)
(8428.42 2.63254e-10 0)
(3757.01 -6.53261e-10 0)
(731.79 2.73004e-09 0)
(37.4168 -1.26752e-10 0)
(0.30803 3.27605e-09 0)
(0.000264507 -7.50762e-10 0)
(1.6468e-08 -9.75016e-12 0)
(-1.95003e-11 0 0)
(1.95003e-11 0 0)
(0 0 0)
(-1.95003e-11 0 0)
(0 0 0)
(0 0 0)
(0 0 0)
(1.95003e-11 0 0)
(-1.95003e-11 0 0)
(0 0 0)
(0 0 0)
(0 0 0)
(0 0 0)
(0 0 0)
(0 0 0)
(0 0 0)
(0 0 0)
(0 0 0)
(0 0 0)
(0 0 0)
(0 0 0)
(0 0 0)
(-1.65753e-08 0 0)
(-0.00026451 6.3376e-10 0)
(-0.30803 -1.95003e-09 0)
(-37.4168 -1.95003e-10 0)
(-731.79 8.97015e-10 0)
(-3757.01 1.78428e-09 0)
(-8428.42 2.34004e-10 0)
(7099.95 1.02377e-09 0)
(-59599.6 -5.07008e-10 0)
(59599.6 0 0)
(-7099.95 -5.9476e-10 0)
(8428.42 9.16515e-10 0)
(3757.01 3.90006e-10 0)
(731.79 -1.55028e-09 0)
(37.4168 2.11578e-09 0)
(0.30803 1.85253e-10 0)
(0.000264506 -1.36502e-10 0)
(1.76283e-08 0 0)
(1.95003e-11 0 0)
(0 0 0)
(0 -9.75016e-12 0)
(0 0 0)
(0 0 0)
(0 0 0)
(0 0 0)
(0 0 0)
(0 -1.95003e-11 0)
(0 0 0)
(0 0 0)
(0 0 0)
(0 0 0)
(0 0 0)
(0 0 0)
(0 0 0)
(0 0 0)
(0 0 0)
(0 1.95003e-11 0)
(0 0 0)
(0 0 0)
(0 0 0)
(-1.59708e-08 0 0)
(-0.00026451 -8.28763e-10 0)
(-0.30803 2.18404e-09 0)
(-37.4168 -2.34004e-10 0)
(-731.79 1.76478e-09 0)
(-3757.01 2.72029e-09 0)
(-8428.42 -8.87264e-10 0)
(7099.95 1.32602e-09 0)
(-59599.6 1.08227e-09 0)
(59599.6 -2.42779e-09 0)
(-7099.95 -6.92261e-10 0)
(8428.42 3.41256e-10 0)
(3757.01 1.84278e-09 0)
(731.79 -3.04205e-09 0)
(37.4168 1.61853e-09 0)
(0.30803 -3.49056e-09 0)
(0.000264507 1.15052e-09 0)
(1.65948e-08 0 0)
(0 0 0)
(0 0 0)
(0 0 0)
(0 0 0)
(0 0 0)
(0 0 0)
(0 0 0)
(0 0 0)
(0 0 0)
(0 0 0)
(0 0 0)
(0 0 0)
(0 0 0)
(0 0 0)
(0 0 0)
(0 0 0)
(0 0 0)
(9.75016e-12 0 0)
(0 -1.95003e-11 0)
(-9.75016e-12 0 0)
(0 0 0)
(0 0 0)
(-1.73845e-08 0 0)
(-0.000264508 5.85009e-11 0)
(-0.30803 2.10603e-09 0)
(-37.4168 -4.87508e-10 0)
(-731.79 -2.50579e-09 0)
(-3757.01 2.74954e-09 0)
(-8428.42 -1.17002e-09 0)
(7099.95 -1.04327e-09 0)
(-59599.6 -2.43754e-10 0)
(59599.6 -1.02377e-09 0)
(-7099.95 4.09507e-10 0)
(8428.42 -5.26509e-10 0)
(3757.01 -6.0451e-10 0)
(731.79 1.66728e-09 0)
(37.4168 -1.62828e-09 0)
(0.30803 -7.80013e-10 0)
(0.000264509 2.82755e-10 0)
(1.65363e-08 0 0)
(0 0 0)
(0 0 0)
(0 0 0)
(0 0 0)
(0 0 0)
(0 0 0)
(0 0 0)
(0 0 0)
(0 0 0)
(0 0 0)
(0 0 0)
(0 0 0)
(0 0 0)
(0 0 0)
(0 0 0)
(0 0 0)
(0 0 0)
(0 0 0)
(0 0 0)
(0 0 0)
(0 0 0)
(0 0 0)
(-1.5922e-08 0 0)
(-0.000264508 -1.95003e-10 0)
(-0.30803 -2.47654e-09 0)
(-37.4168 -2.03778e-09 0)
(-731.79 -2.30104e-09 0)
(-3757.01 -1.41377e-09 0)
(-8428.42 -7.11762e-10 0)
(7099.95 -1.87203e-09 0)
(-59599.6 -2.35954e-09 0)
(59599.6 -3.36283e-08 0)
(-7099.95 -2.13821e-08 0)
(8428.42 -3.43498e-08 0)
(3757.01 -4.65473e-08 0)
(731.79 -3.80744e-08 0)
(37.4168 -4.62547e-08 0)
(0.30803 -4.20914e-08 0)
(0.000264508 -4.48897e-08 0)
(1.62925e-08 -4.35052e-08 0)
(0 -4.42657e-08 0)
(0 -4.35735e-08 0)
(0 -4.43145e-08 0)
(0 -4.36612e-08 0)
(0 -4.36612e-08 0)
(0 -4.5114e-08 0)
(0 -4.37392e-08 0)
(0 -4.37197e-08 0)
(0 -4.4334e-08 0)
(0 -4.44412e-08 0)
(0 -4.51725e-08 0)
(0 -4.4529e-08 0)
(0 -4.51335e-08 0)
(-9.75016e-12 -4.34857e-08 0)
(9.75016e-12 -4.43632e-08 0)
(0 -4.51822e-08 0)
(0 -4.4412e-08 0)
(0 -4.38075e-08 0)
(0 -4.43535e-08 0)
(0 -4.37392e-08 0)
(0 -4.4607e-08 0)
(0 -4.44412e-08 0)
(-1.756e-08 -4.54455e-08 0)
(-0.000264511 -4.4685e-08 0)
(-0.30803 -4.83315e-08 0)
(-37.4168 -4.69373e-08 0)
(-731.79 -4.32419e-08 0)
(-3757.01 -4.40025e-08 0)
(-8428.42 -3.45546e-08 0)
(7099.95 -2.31566e-08 0)
(-59599.6 -3.51201e-08 0)
(59599.6 -0.000447302 0)
(-7099.95 -0.000303545 0)
(8428.42 -0.000450077 0)
(3757.01 -0.000522931 0)
(731.79 -0.000540081 0)
(37.4168 -0.000540963 0)
(0.30803 -0.000540977 0)
(0.000264508 -0.000540975 0)
(1.717e-08 -0.000540976 0)
(-6.82511e-11 -0.000540975 0)
(-6.82511e-11 -0.000540976 0)
(-7.80013e-11 -0.000540976 0)
(6.3376e-10 -0.000540976 0)
(-1.39427e-09 -0.000540975 0)
(-6.82511e-11 -0.000540973 0)
(1.34552e-09 -0.000540974 0)
(-5.9476e-10 -0.000540976 0)
(-7.11762e-10 -0.000540975 0)
(-7.89763e-10 -0.000540972 0)
(-8.77514e-11 -0.000540973 0)
(3.90006e-11 -0.000540975 0)
(9.94516e-10 -0.000540974 0)
(7.60512e-10 -0.000540975 0)
(-1.62828e-09 -0.000540972 0)
(-5.85009e-11 -0.000540972 0)
(1.32602e-09 -0.000540972 0)
(3.90006e-11 -0.000540972 0)
(7.80013e-11 -0.000540974 0)
(-2.24254e-10 -0.000540972 0)
(-6.92261e-10 -0.000540973 0)
(-7.99513e-10 -0.000540973 0)
(-1.6156e-08 -0.000540975 0)
(-0.000264511 -0.000540976 0)
(-0.30803 -0.00054097 0)
(-37.4168 -0.000540964 0)
(-731.79 -0.000540075 0)
(-3757.01 -0.000522928 0)
(-8428.42 -0.000450077 0)
(7099.95 -0.000303542 0)
(-59599.6 -0.000447296 0)
(59599.6 -0.464848 0)
(-7099.95 -0.313962 0)
(8428.42 -0.431904 0)
(3757.01 -0.489629 0)
(731.79 -0.503676 0)
(37.4168 -0.50444 0)
(0.30803 -0.504446 0)
(0.000264508 -0.504446 0)
(1.67215e-08 -0.504446 0)
(-2.73004e-10 -0.504446 0)
(-8.77514e-10 -0.504446 0)
(0 -0.504446 0)
(5.26509e-10 -0.504446 0)
(2.52529e-09 -0.504446 0)
(8.09263e-10 -0.504446 0)
(-2.38879e-09 -0.504446 0)
(-9.65266e-10 -0.504446 0)
(3.27605e-09 -0.504446 0)
(2.19379e-09 -0.504446 0)
(-2.37904e-09 -0.504446 0)
(-6.4351e-10 -0.504446 0)
(-2.24254e-10 -0.504446 0)
(1.47227e-09 -0.504446 0)
(2.75929e-09 -0.504446 0)
(5.26509e-10 -0.504446 0)
(2.92505e-10 -0.504446 0)
(-2.59354e-09 -0.504446 0)
(-2.92505e-11 -0.504446 0)
(1.61853e-09 -0.504446 0)
(-5.75259e-10 -0.504446 0)
(-2.67154e-09 -0.504446 0)
(-2.06996e-08 -0.504446 0)
(-0.000264505 -0.504446 0)
(-0.30803 -0.504446 0)
(-37.4168 -0.50444 0)
(-731.79 -0.503676 0)
(-3757.01 -0.489629 0)
(-8428.42 -0.431904 0)
(7099.95 -0.313962 0)
(-59599.6 -0.464848 0)
(59598.8 -51.6785 0)
(-7099.92 -34.6018 0)
(8428.25 -44.9069 0)
(3756.94 -49.983 0)
(731.776 -51.2551 0)
(37.416 -51.3271 0)
(0.308024 -51.3278 0)
(0.000264509 -51.3278 0)
(2.23961e-08 -51.3278 0)
(8.77514e-11 -51.3278 0)
(1.08227e-09 -51.3278 0)
(-3.3053e-09 -51.3278 0)
(-2.77879e-09 -51.3278 0)
(1.82328e-09 -51.3278 0)
(2.27179e-09 -51.3278 0)
(2.04753e-10 -51.3278 0)
(5.75259e-10 -51.3278 0)
(1.41377e-09 -51.3278 0)
(7.89763e-10 -51.3278 0)
(5.07008e-10 -51.3278 0)
(-5.07008e-10 -51.3278 0)
(-2.54479e-09 -51.3278 0)
(-7.31262e-10 -51.3278 0)
(1.65753e-09 -51.3278 0)
(5.85009e-10 -51.3278 0)
(-3.31505e-10 -51.3278 0)
(-1.91103e-09 -51.3278 0)
(-1.15052e-09 -51.3278 0)
(-1.79403e-09 -51.3278 0)
(7.11762e-10 -51.3278 0)
(4.49482e-09 -51.3278 0)
(-1.95588e-08 -51.3278 0)
(-0.000264503 -51.3278 0)
(-0.308024 -51.3278 0)
(-37.416 -51.3271 0)
(-731.776 -51.2551 0)
(-3756.94 -49.983 0)
(-8428.25 -44.9069 0)
(7099.92 -34.6018 0)
(-59598.8 -51.6785 0)
(59516.4 -955.515 0)
(-7093.42 -629.032 0)
(8413.6 -783.825 0)
(3750.89 -862.507 0)
(730.495 -882.515 0)
(37.3467 -883.688 0)
(0.307409 -883.699 0)
(0.00026393 -883.699 0)
(1.80183e-08 -883.699 0)
(-9.75016e-12 -883.699 0)
(2.78855e-09 -883.699 0)
(2.40829e-09 -883.699 0)
(3.31505e-10 -883.699 0)
(-4.78733e-09 -883.699 0)
(-3.04205e-09 -883.699 0)
(4.58257e-10 -883.699 0)
(-1.94028e-09 -883.699 0)
(-3.69531e-09 -883.699 0)
(-1.91103e-09 -883.699 0)
(-1.95003e-11 -883.699 0)
(-3.80256e-10 -883.699 0)
(-3.99756e-10 -883.699 0)
(-1.95003e-10 -883.699 0)
(-1.17002e-10 -883.699 0)
(1.29677e-09 -883.699 0)
(2.19379e-09 -883.699 0)
(3.17855e-09 -883.699 0)
(1.31627e-09 -883.699 0)
(-1.07252e-09 -883.699 0)
(-2.34004e-10 -883.699 0)
(5.55759e-10 -883.699 0)
(-1.41572e-08 -883.699 0)
(-0.000263933 -883.699 0)
(-0.307409 -883.699 0)
(-37.3467 -883.688 0)
(-730.495 -882.515 0)
(-3750.89 -862.507 0)
(-8413.6 -783.825 0)
(7093.42 -629.032 0)
(-59516.4 -955.515 0)
(58071.9 -4724.55 0)
(-6934.47 -3080.1 0)
(8203.27 -3751.07 0)
(3661.84 -4098.07 0)
(711.364 -4184.18 0)
(36.2748 -4189.3 0)
(0.297494 -4189.34 0)
(0.000254245 -4189.34 0)
(1.47812e-08 -4189.34 0)
(6.82511e-11 -4189.34 0)
(-9.16515e-10 -4189.34 0)
(-2.29129e-09 -4189.34 0)
(-7.80013e-11 -4189.34 0)
(1.32602e-09 -4189.34 0)
(3.74406e-09 -4189.34 0)
(3.0323e-09 -4189.34 0)
(8.38514e-10 -4189.34 0)
(2.62279e-09 -4189.34 0)
(2.06703e-09 -4189.34 0)
(1.95003e-11 -4189.34 0)
(-6.92261e-10 -4189.34 0)
(-2.24254e-09 -4189.34 0)
(-5.75259e-10 -4189.34 0)
(-1.28702e-09 -4189.34 0)
(-1.84278e-09 -4189.34 0)
(1.65753e-09 -4189.34 0)
(-4.19257e-10 -4189.34 0)
(-2.43754e-10 -4189.34 0)
(-1.46252e-10 -4189.34 0)
(9.55515e-10 -4189.34 0)
(2.10603e-09 -4189.34 0)
(-2.28641e-08 -4189.34 0)
(-0.000254247 -4189.34 0)
(-0.297494 -4189.34 0)
(-36.2748 -4189.3 0)
(-711.364 -4184.18 0)
(-3661.84 -4098.07 0)
(-8203.27 -3751.07 0)
(6934.47 -3080.1 0)
(-58071.9 -4724.55 0)
(51995.6 -9433.84 0)
(-6155.34 -6423.34 0)
(7432.65 -7992.56 0)
(3333.54 -8770.8 0)
(642.585 -8964.99 0)
(32.3653 -8976.84 0)
(0.260274 -8976.95 0)
(0.000216691 -8976.95 0)
(1.58343e-08 -8976.95 0)
(-1.44302e-09 -8976.95 0)
(1.26752e-10 -8976.95 0)
(5.85009e-11 -8976.95 0)
(-1.50152e-09 -8976.95 0)
(-1.34552e-09 -8976.95 0)
(5.85009e-10 -8976.95 0)
(1.45277e-09 -8976.95 0)
(7.80013e-11 -8976.95 0)
(-1.07252e-10 -8976.95 0)
(-1.77453e-09 -8976.95 0)
(-2.24254e-10 -8976.95 0)
(-5.75259e-10 -8976.95 0)
(-1.46252e-09 -8976.95 0)
(8.77514e-10 -8976.95 0)
(1.56003e-10 -8976.95 0)
(1.56003e-09 -8976.95 0)
(2.21329e-09 -8976.95 0)
(-8.19013e-10 -8976.95 0)
(8.77514e-11 -8976.95 0)
(2.04753e-10 -8976.95 0)
(4.87508e-11 -8976.95 0)
(1.32602e-09 -8976.95 0)
(-1.5688e-08 -8976.95 0)
(-0.000216688 -8976.95 0)
(-0.260274 -8976.95 0)
(-32.3653 -8976.84 0)
(-642.585 -8964.99 0)
(-3333.54 -8770.8 0)
(-7432.65 -7992.56 0)
(6155.34 -6423.34 0)
(-51995.6 -9433.84 0)
(42791.3 8096.73 0)
(-5545.6 6149.18 0)
(5941.17 6854.87 0)
(2724.76 7665.98 0)
(512.818 7816.41 0)
(24.751 7821.78 0)
(0.187327 7821.8 0)
(0.000144275 7821.8 0)
(8.80439e-09 7821.8 0)
(-5.75259e-10 7821.8 0)
(-4.87508e-11 7821.8 0)
(-9.84766e-10 7821.8 0)
(-2.92505e-10 7821.8 0)
(3.12005e-10 7821.8 0)
(-1.13102e-09 7821.8 0)
(2.92505e-11 7821.8 0)
(1.44302e-09 7821.8 0)
(9.94516e-10 7821.8 0)
(7.41012e-10 7821.8 0)
(7.21512e-10 7821.8 0)
(-3.99756e-10 7821.8 0)
(-1.18952e-09 7821.8 0)
(-1.01402e-09 7821.8 0)
(-3.90006e-11 7821.8 0)
(-9.75016e-11 7821.8 0)
(5.26509e-10 7821.8 0)
(-4.97258e-10 7821.8 0)
(9.75016e-12 7821.8 0)
(8.67764e-10 7821.8 0)
(2.24254e-10 7821.8 0)
(6.82511e-11 7821.8 0)
(-1.07544e-08 7821.8 0)
(-0.000144273 7821.8 0)
(-0.187327 7821.8 0)
(-24.751 7821.78 0)
(-512.818 7816.41 0)
(-2724.76 7665.98 0)
(-5941.17 6854.87 0)
(5545.6 6149.18 0)
(-42791.3 8096.73 0)
(65723.4 -67715.7 0)
(-7352.04 -44893.9 0)
(8894.29 -54331.4 0)
(4260.11 -60289.2 0)
(792.719 -61579.8 0)
(37.5677 -61644 0)
(0.281648 -61644.5 0)
(0.000215838 -61644.5 0)
(1.72968e-08 -61644.5 0)
(2.24254e-09 -61644.5 0)
(-2.88605e-09 -61644.5 0)
(-2.21329e-09 -61644.5 0)
(-7.70262e-10 -61644.5 0)
(-2.41804e-09 -61644.5 0)
(-9.65266e-10 -61644.5 0)
(3.85131e-09 -61644.5 0)
(3.70506e-09 -61644.5 0)
(1.81353e-09 -61644.5 0)
(1.08227e-09 -61644.5 0)
(0 -61644.5 0)
(-4.09507e-10 -61644.5 0)
(-2.82755e-09 -61644.5 0)
(-1.65753e-10 -61644.5 0)
(1.88178e-09 -61644.5 0)
(-2.30104e-09 -61644.5 0)
(2.92505e-11 -61644.5 0)
(-2.24254e-10 -61644.5 0)
(-3.90006e-10 -61644.5 0)
(3.41256e-10 -61644.5 0)
(8.87264e-10 -61644.5 0)
(2.22304e-09 -61644.5 0)
(-1.71798e-08 -61644.5 0)
(-0.000215843 -61644.5 0)
(-0.281648 -61644.5 0)
(-37.5677 -61644 0)
(-792.719 -61579.8 0)
(-4260.11 -60289.2 0)
(-8894.29 -54331.4 0)
(7352.04 -44893.9 0)
(-65723.4 -67715.7 0)
(65723.4 67715.7 0)
(-7352.04 44893.9 0)
(8894.29 54331.4 0)
(4260.11 60289.2 0)
(792.719 61579.8 0)
(37.5677 61644 0)
(0.281648 61644.5 0)
(0.000215843 61644.5 0)
(1.4713e-08 61644.5 0)
(-7.99513e-10 61644.5 0)
(-2.63254e-09 61644.5 0)
(1.27727e-09 61644.5 0)
(2.12553e-09 61644.5 0)
(-7.80013e-11 61644.5 0)
(9.16515e-10 61644.5 0)
(1.68678e-09 61644.5 0)
(-2.03778e-09 61644.5 0)
(-1.95978e-09 61644.5 0)
(-2.27179e-09 61644.5 0)
(-8.28763e-10 61644.5 0)
(-3.90006e-10 61644.5 0)
(-6.63011e-10 61644.5 0)
(7.60512e-10 61644.5 0)
(-2.82755e-10 61644.5 0)
(4.77758e-10 61644.5 0)
(1.89153e-09 61644.5 0)
(6.1426e-10 61644.5 0)
(4.97258e-10 61644.5 0)
(4.87508e-10 61644.5 0)
(-1.17002e-10 61644.5 0)
(-5.55759e-10 61644.5 0)
(-1.43912e-08 61644.5 0)
(-0.000215842 61644.5 0)
(-0.281648 61644.5 0)
(-37.5677 61644 0)
(-792.719 61579.8 0)
(-4260.11 60289.2 0)
(-8894.29 54331.4 0)
(7352.04 44893.9 0)
(-65723.4 67715.7 0)
(42791.3 -8096.73 0)
(-5545.6 -6149.18 0)
(5941.17 -6854.87 0)
(2724.76 -7665.98 0)
(512.818 -7816.41 0)
(24.751 -7821.78 0)
(0.187327 -7821.8 0)
(0.000144276 -7821.8 0)
(9.1164e-09 -7821.8 0)
(-1.75503e-09 -7821.8 0)
(-2.63254e-10 -7821.8 0)
(6.0451e-10 -7821.8 0)
(1.01402e-09 -7821.8 0)
(1.07252e-09 -7821.8 0)
(-1.41377e-09 -7821.8 0)
(-8.48264e-10 -7821.8 0)
(4.38757e-10 -7821.8 0)
(6.3376e-10 -7821.8 0)
(-4.29007e-10 -7821.8 0)
(2.63254e-10 -7821.8 0)
(-4.09507e-10 -7821.8 0)
(-1.28702e-09 -7821.8 0)
(2.92505e-11 -7821.8 0)
(3.99756e-10 -7821.8 0)
(1.15052e-09 -7821.8 0)
(1.29677e-09 -7821.8 0)
(-1.18952e-09 -7821.8 0)
(1.07252e-10 -7821.8 0)
(1.02377e-09 -7821.8 0)
(-3.12005e-10 -7821.8 0)
(-5.36259e-10 -7821.8 0)
(-1.04034e-08 -7821.8 0)
(-0.000144272 -7821.8 0)
(-0.187327 -7821.8 0)
(-24.751 -7821.78 0)
(-512.818 -7816.41 0)
(-2724.76 -7665.98 0)
(-5941.17 -6854.87 0)
(5545.6 -6149.18 0)
(-42791.3 -8096.73 0)
(51995.6 9433.84 0)
(-6155.34 6423.34 0)
(7432.65 7992.56 0)
(3333.54 8770.8 0)
(642.585 8964.99 0)
(32.3653 8976.84 0)
(0.260274 8976.95 0)
(0.000216692 8976.95 0)
(1.71603e-08 8976.95 0)
(-8.77514e-10 8976.95 0)
(-4.48507e-10 8976.95 0)
(1.07252e-09 8976.95 0)
(4.09507e-10 8976.95 0)
(-1.65753e-09 8976.95 0)
(-1.21877e-09 8976.95 0)
(-7.89763e-10 8976.95 0)
(-1.07252e-09 8976.95 0)
(1.36502e-09 8976.95 0)
(-6.63011e-10 8976.95 0)
(5.65509e-10 8976.95 0)
(4.68008e-10 8976.95 0)
(-3.21755e-10 8976.95 0)
(1.61853e-09 8976.95 0)
(-1.17977e-09 8976.95 0)
(-1.12127e-09 8976.95 0)
(2.18404e-09 8976.95 0)
(9.84766e-10 8976.95 0)
(1.07252e-10 8976.95 0)
(-3.02255e-10 8976.95 0)
(-3.02255e-10 8976.95 0)
(5.65509e-10 8976.95 0)
(-1.54735e-08 8976.95 0)
(-0.000216689 8976.95 0)
(-0.260274 8976.95 0)
(-32.3653 8976.84 0)
(-642.585 8964.99 0)
(-3333.54 8770.8 0)
(-7432.65 7992.56 0)
(6155.34 6423.34 0)
(-51995.6 9433.84 0)
(58071.9 4724.55 0)
(-6934.47 3080.1 0)
(8203.27 3751.07 0)
(3661.84 4098.07 0)
(711.364 4184.18 0)
(36.2748 4189.3 0)
(0.297494 4189.34 0)
(0.000254246 4189.34 0)
(1.64388e-08 4189.34 0)
(-1.67703e-09 4189.34 0)
(-2.8958e-09 4189.34 0)
(9.75016e-10 4189.34 0)
(4.10482e-09 4189.34 0)
(2.12553e-09 4189.34 0)
(1.67703e-09 4189.34 0)
(1.81353e-09 4189.34 0)
(-1.95003e-10 4189.34 0)
(1.90128e-09 4189.34 0)
(-9.84766e-10 4189.34 0)
(-1.55028e-09 4189.34 0)
(-2.51554e-09 4189.34 0)
(-4.10482e-09 4189.34 0)
(1.09202e-09 4189.34 0)
(3.90006e-10 4189.34 0)
(1.26752e-10 4189.34 0)
(2.54479e-09 4189.34 0)
(-1.95003e-10 4189.34 0)
(8.09263e-10 4189.34 0)
(1.12127e-09 4189.34 0)
(1.40402e-09 4189.34 0)
(2.45704e-09 4189.34 0)
(-2.18794e-08 4189.34 0)
(-0.00025425 4189.34 0)
(-0.297494 4189.34 0)
(-36.2748 4189.3 0)
(-711.364 4184.18 0)
(-3661.84 4098.07 0)
(-8203.27 3751.07 0)
(6934.47 3080.1 0)
(-58071.9 4724.55 0)
(59516.4 955.515 0)
(-7093.42 629.032 0)
(8413.6 783.825 0)
(3750.89 862.507 0)
(730.495 882.515 0)
(37.3467 883.688 0)
(0.307409 883.699 0)
(0.000263935 883.699 0)
(2.16161e-08 883.699 0)
(-6.4351e-10 883.699 0)
(4.19257e-09 883.699 0)
(4.09507e-10 883.699 0)
(-2.71054e-09 883.699 0)
(-5.44059e-09 883.699 0)
(-4.29007e-09 883.699 0)
(-8.19013e-10 883.699 0)
(-2.61304e-09 883.699 0)
(-1.85253e-09 883.699 0)
(4.97258e-10 883.699 0)
(2.02803e-09 883.699 0)
(2.80805e-09 883.699 0)
(3.2078e-09 883.699 0)
(-2.63254e-10 883.699 0)
(1.17002e-10 883.699 0)
(3.1493e-09 883.699 0)
(9.55515e-10 883.699 0)
(5.65509e-10 883.699 0)
(-1.78428e-09 883.699 0)
(-3.0128e-09 883.699 0)
(-7.60512e-10 883.699 0)
(-1.09202e-09 883.699 0)
(-1.51615e-08 883.699 0)
(-0.000263923 883.699 0)
(-0.307409 883.699 0)
(-37.3467 883.688 0)
(-730.495 882.515 0)
(-3750.89 862.507 0)
(-8413.6 783.825 0)
(7093.42 629.032 0)
(-59516.4 955.515 0)
(59598.8 51.6785 0)
(-7099.92 34.6018 0)
(8428.25 44.9069 0)
(3756.94 49.983 0)
(731.776 51.2551 0)
(37.416 51.3271 0)
(0.308024 51.3278 0)
(0.000264503 51.3278 0)
(1.522e-08 51.3278 0)
(1.70628e-09 51.3278 0)
(-1.81353e-09 51.3278 0)
(2.73004e-10 51.3278 0)
(3.90981e-09 51.3278 0)
(2.02803e-09 51.3278 0)
(1.72578e-09 51.3278 0)
(6.3376e-10 51.3278 0)
(-1.47227e-09 51.3278 0)
(-1.37477e-09 51.3278 0)
(-1.07252e-10 51.3278 0)
(-3.51006e-10 51.3278 0)
(-1.37477e-09 51.3278 0)
(-1.56003e-09 51.3278 0)
(-7.02011e-10 51.3278 0)
(-2.14503e-10 51.3278 0)
(-3.25655e-09 51.3278 0)
(1.95003e-11 51.3278 0)
(1.61853e-09 51.3278 0)
(-9.75016e-12 51.3278 0)
(-9.26265e-10 51.3278 0)
(5.46009e-10 51.3278 0)
(2.75929e-09 51.3278 0)
(-1.75113e-08 51.3278 0)
(-0.000264507 51.3278 0)
(-0.308024 51.3278 0)
(-37.416 51.3271 0)
(-731.776 51.2551 0)
(-3756.94 49.983 0)
(-8428.25 44.9069 0)
(7099.92 34.6018 0)
(-59598.8 51.6785 0)
(59599.6 0.464848 0)
(-7099.95 0.313962 0)
(8428.42 0.431904 0)
(3757.01 0.489629 0)
(731.79 0.503676 0)
(37.4168 0.50444 0)
(0.30803 0.504446 0)
(0.000264508 0.504446 0)
(1.80963e-08 0.504446 0)
(-2.36929e-09 0.504446 0)
(-2.73004e-09 0.504446 0)
(-1.68678e-09 0.504446 0)
(1.90128e-09 0.504446 0)
(1.11152e-09 0.504446 0)
(-3.33455e-09 0.504446 0)
(-1.63803e-09 0.504446 0)
(2.10603e-09 0.504446 0)
(4.13407e-09 0.504446 0)
(2.54479e-09 0.504446 0)
(1.85253e-10 0.504446 0)
(-7.70262e-10 0.504446 0)
(-2.75929e-09 0.504446 0)
(0 0.504446 0)
(2.56429e-09 0.504446 0)
(0 0.504446 0)
(-2.58379e-09 0.504446 0)
(-2.73004e-10 0.504446 0)
(6.82511e-10 0.504446 0)
(-2.37904e-09 0.504446 0)
(1.58928e-09 0.504446 0)
(2.48629e-09 0.504446 0)
(-2.15868e-08 0.504446 0)
(-0.000264506 0.504446 0)
(-0.30803 0.504446 0)
(-37.4168 0.50444 0)
(-731.79 0.503676 0)
(-3757.01 0.489629 0)
(-8428.42 0.431904 0)
(7099.95 0.313962 0)
(-59599.6 0.464848 0)
(59599.6 0.000447294 0)
(-7099.95 0.00030354 0)
(8428.42 0.000450075 0)
(3757.01 0.000522931 0)
(731.79 0.000540074 0)
(37.4168 0.000540964 0)
(0.30803 0.000540972 0)
(0.00026451 0.000540973 0)
(1.71505e-08 0.000540971 0)
(5.36259e-10 0.000540972 0)
(-3.70506e-10 0.000540974 0)
(-4.87508e-11 0.000540974 0)
(-1.95003e-11 0.000540975 0)
(-3.70506e-10 0.000540972 0)
(3.31505e-10 0.000540974 0)
(4.38757e-10 0.000540976 0)
(7.80013e-11 0.000540976 0)
(-4.19257e-10 0.000540974 0)
(-8.38514e-10 0.000540972 0)
(4.58257e-10 0.000540971 0)
(-1.95003e-11 0.000540971 0)
(2.82755e-10 0.000540972 0)
(0 0.000540974 0)
(-7.60512e-10 0.000540972 0)
(-4.87508e-11 0.000540972 0)
(4.87508e-11 0.000540972 0)
(8.77514e-10 0.000540974 0)
(9.75016e-12 0.000540972 0)