/*--------------------------------*- C++ -*----------------------------------*\
| =========                 |                                                 |
| \\      /  F ield         | OpenFOAM: The Open Source CFD Toolbox           |
|  \\    /   O peration     | Version:  v1912                                 |
|   \\  /    A nd           | Website:  www.openfoam.com                      |
|    \\/     M anipulation  |                                                 |
\*---------------------------------------------------------------------------*/
FoamFile
{
    version     2.0;
    format      ascii;
    class       volVectorField;
    location    "7.76";
    object      grad(p);
}
// * * * * * * * * * * * * * * * * * * * * * * * * * * * * * * * * * * * * * //

dimensions      [1 -2 -2 0 0 0 0];


internalField   nonuniform List<vector> 
1900
(
(42597.6 -0.0399484 0)
(-55464.1 0.0297029 0)
(-1895.1 0.0416841 0)
(-52.6875 -0.241587 0)
(-181.145 -0.191922 0)
(-298.609 2.50768 0)
(-444.15 2.94096 0)
(-437.965 -8.02966 0)
(-398.454 42.0069 0)
(463.639 18.4655 0)
(42597.6 -0.0628949 0)
(-55464 -0.0285068 0)
(-1895.37 0.0555397 0)
(-52.9211 -0.163733 0)
(-178.396 0.548016 0)
(-295.476 6.38267 0)
(-454.687 8.25194 0)
(-398.899 -26.2145 0)
(-371.958 0.181135 0)
(-484.509 -56.6184 0)
(42597.5 1.20792e-09 0)
(-55464 2.11386e-09 0)
(-1895.23 -9.9476e-10 0)
(-52.195 -1.06581e-09 0)
(-174.599 -4.61853e-10 0)
(-290.905 -6.75016e-10 0)
(-476.747 -1.13687e-09 0)
(-446.036 -7.99361e-10 0)
(-428.857 -1.42109e-10 0)
(-629.636 8.88178e-11 0)
(42597.6 0.0628949 0)
(-55464 0.0285069 0)
(-1895.37 -0.0555397 0)
(-52.9211 0.163733 0)
(-178.396 -0.548016 0)
(-295.476 -6.38267 0)
(-454.687 -8.25194 0)
(-398.899 26.2145 0)
(-371.958 -0.181135 0)
(-484.509 56.6184 0)
(42597.6 0.0399484 0)
(-55464.1 -0.0297029 0)
(-1895.1 -0.0416841 0)
(-52.6875 0.241587 0)
(-181.145 0.191922 0)
(-298.609 -2.50768 0)
(-444.15 -2.94096 0)
(-437.965 8.02966 0)
(-398.454 -42.0069 0)
(463.639 -18.4655 0)
(-300.925 -775.196 8.34644e-12)
(-1826.3 -589.642 -9.76708e-12)
(-1718.23 -705.113 -1.22639e-11)
(408.544 -946.384 0)
(-18247.5 -7657.69 -5.31607e-11)
(-836.79 -953.029 8.20637e-12)
(-1298.15 -715.071 9.76708e-12)
(-1647.89 -815.909 1.22639e-11)
(-2155.68 -692.766 0)
(-17398.6 -7040.79 0)
(-1133.99 -2.73533e-10 0)
(-1350.81 8.18059e-10 0)
(-1592.02 -7.40149e-11 0)
(-2145.9 7.06506e-10 0)
(-20067 -1.37456e-09 0)
(-836.79 953.029 8.20637e-12)
(-1298.15 715.071 9.76708e-12)
(-1647.89 815.909 1.22639e-11)
(-2155.68 692.766 0)
(-17398.6 7040.79 0)
(-300.925 775.196 -2.47592e-11)
(-1826.3 589.642 -9.76708e-12)
(-1718.23 705.113 -1.22639e-11)
(408.544 946.384 -3.29031e-11)
(-18247.5 7657.69 5.31607e-11)
(-36024.4 10229.8 9.81044e-12)
(-10875 3993.12 -4.80697e-12)
(-4903.58 1849.13 0)
(-3100.16 1266.69 1.99682e-12)
(-1261.17 748.76 -6.70992e-13)
(-32202.9 12655.3 -5.05926e-12)
(-12734.6 3239.43 2.46361e-12)
(-5578.4 1063.36 0)
(-3412.32 773.449 -1.27768e-12)
(-1939.35 177.772 1.74724e-13)
(-33263.8 2.69145e-10 0)
(-13833.3 -8.54018e-11 0)
(-5682.43 5.51e-10 0)
(-3491.98 -1.37871e-10 5.2039e-13)
(-1899.85 1.75298e-10 -3.49448e-13)
(-32202.9 -12655.3 -5.05926e-12)
(-12734.6 -3239.43 2.46361e-12)
(-5578.4 -1063.36 0)
(-3412.32 -773.449 -1.27768e-12)
(-1939.35 -177.772 1.74724e-13)
(-36024.4 -10229.8 5.05926e-12)
(-10875 -3993.12 -1.2026e-13)
(-4903.58 -1849.13 0)
(-3100.16 -1266.69 3.81485e-14)
(-1261.17 -748.76 6.70992e-13)
(122.322 -1222.51 0)
(-75.3069 -468.681 0)
(-272.129 312.368 0)
(-281.912 509.021 0)
(-362.096 388.445 0)
(-591.127 138.96 0)
(-425.265 -118.589 0)
(236.382 -148.694 0)
(1898.08 -246.399 0)
(2391.35 -160.811 0)
(824.742 108.833 0)
(-42.3616 126.778 0)
(-109.487 150.837 0)
(-135.666 158.918 0)
(-376.348 147.495 0)
(-727.162 89.5163 0)
(-971.872 12.5526 0)
(-1072.45 42.9672 0)
(-1140.61 78.0446 0)
(-1207.88 78.4296 0)
(-1045.71 49.4083 0)
(-572.865 14.4887 0)
(-189.088 0.409756 0)
(-72.0553 -0.467522 0)
(-54.2169 -0.232401 0)
(-45.1084 -0.679783 0)
(-30.1092 -1.1765 0)
(-12.5201 -1.50668 0)
(-0.617672 -1.48973 0)
(11.9665 -1.3341 0)
(64.0284 -1.25536 0)
(404.556 -1.02801 0)
(989.374 -0.405946 0)
(1041.51 0.738054 0)
(628.638 -0.479405 0)
(449.176 -2.7586 0)
(460.156 0.886976 0)
(463.947 -1.99918 0)
(406.723 -2.87966 0)
(488.346 -2.08255 0)
(-305.329 -797.397 0)
(156.704 -776.056 0)
(-61.8683 -90.5435 0)
(-272.683 303.859 0)
(-445.869 361.331 0)
(-667.65 106.396 0)
(-454.144 -75.2044 0)
(252.191 -77.3421 0)
(1907.96 -130.217 0)
(2392.95 -166.105 0)
(846.686 17.4157 0)
(-16.6465 -1.06329 0)
(-92.8254 45.3982 0)
(-132.766 48.892 0)
(-379.132 75.1953 0)
(-740.18 262.917 0)
(-977.027 318.141 0)
(-1060.09 132.345 0)
(-1133.06 61.7881 0)
(-1214.33 37.2535 0)
(-1057.11 18.2566 0)
(-579.245 5.41243 0)
(-190.513 0.0831409 0)
(-72.0674 -0.152092 0)
(-54.2436 -0.0560399 0)
(-45.2005 -0.280881 0)
(-30.1847 -0.515934 0)
(-12.5466 -0.656819 0)
(-0.601211 -0.640141 0)
(11.9804 -0.574502 0)
(64.0459 -0.570741 0)
(404.578 -0.484928 0)
(989.468 -0.3856 0)
(1041.46 -0.0517734 0)
(628.229 -0.816489 0)
(449.358 -1.97108 0)
(460.191 0.174729 0)
(463.508 -1.4916 0)
(407.17 -2.13348 0)
(488.686 -1.27744 0)
(-213.635 1.21115e-09 0)
(130.323 8.63955e-10 0)
(42.0284 1.10619e-09 0)
(-150.458 5.93465e-10 0)
(-419.54 -1.93784e-10 0)
(-718.119 -9.34606e-10 0)
(-478.716 -4.11792e-10 0)
(220.379 4.54182e-10 0)
(1872.26 -2.53333e-09 0)
(2434.3 -5.84583e-09 0)
(872.754 2.53535e-09 0)
(-34.2212 4.81635e-09 0)
(-94.9545 2.8018e-09 0)
(-126.998 2.12759e-09 0)
(-314.086 2.4869e-09 0)
(-656.487 -1.04159e-09 0)
(-1009.86 -7.91286e-09 0)
(-1147.03 -1.39807e-08 0)
(-1168.27 3.81917e-09 0)
(-1220.54 1.5858e-08 0)
(-1054.98 8.2318e-09 0)
(-578.152 1.2273e-09 0)
(-190.707 -3.93423e-09 0)
(-72.0958 9.12401e-10 0)
(-54.2544 -5.74288e-10 0)
(-45.2422 9.79015e-11 0)
(-30.2185 1.90958e-09 0)
(-12.5562 2.89364e-09 0)
(-0.593725 2.52222e-09 0)
(11.9867 1.6502e-09 0)
(64.0544 6.15669e-10 0)
(404.61 -3.61327e-10 0)
(989.5 -2.06703e-09 0)
(1041.38 -2.52323e-09 0)
(628.08 -1.33429e-09 0)
(449.464 -1.03957e-09 0)
(460.295 -7.711e-10 0)
(463.275 -1.80058e-09 0)
(406.786 -2.35367e-09 0)
(489.339 -1.86114e-09 0)
(-305.329 797.397 0)
(156.704 776.056 0)
(-61.8683 90.5435 0)
(-272.683 -303.859 0)
(-445.869 -361.331 0)
(-667.65 -106.396 0)
(-454.144 75.2044 0)
(252.191 77.3421 0)
(1907.96 130.217 0)
(2392.95 166.105 0)
(846.686 -17.4157 0)
(-16.6465 1.06329 0)
(-92.8254 -45.3982 0)
(-132.766 -48.892 0)
(-379.132 -75.1953 0)
(-740.18 -262.917 0)
(-977.027 -318.141 0)
(-1060.09 -132.345 0)
(-1133.06 -61.7881 0)
(-1214.33 -37.2535 0)
(-1057.11 -18.2566 0)
(-579.245 -5.41243 0)
(-190.513 -0.0831409 0)
(-72.0674 0.152092 0)
(-54.2436 0.0560399 0)
(-45.2005 0.280881 0)
(-30.1847 0.515934 0)
(-12.5466 0.656819 0)
(-0.601211 0.640141 0)
(11.9804 0.574502 0)
(64.0459 0.570741 0)
(404.578 0.484928 0)
(989.468 0.3856 0)
(1041.46 0.0517734 0)
(628.229 0.816489 0)
(449.358 1.97108 0)
(460.191 -0.174729 0)
(463.508 1.4916 0)
(407.17 2.13348 0)
(488.686 1.27744 0)
(122.322 1222.51 0)
(-75.3069 468.681 0)
(-272.129 -312.368 0)
(-281.912 -509.021 0)
(-362.096 -388.445 0)
(-591.127 -138.96 0)
(-425.265 118.589 0)
(236.382 148.694 0)
(1898.08 246.399 0)
(2391.35 160.811 0)
(824.742 -108.833 0)
(-42.3616 -126.778 0)
(-109.487 -150.837 0)
(-135.666 -158.918 0)
(-376.348 -147.495 0)
(-727.162 -89.5163 0)
(-971.872 -12.5526 0)
(-1072.45 -42.9672 0)
(-1140.61 -78.0446 0)
(-1207.88 -78.4296 0)
(-1045.71 -49.4083 0)
(-572.865 -14.4887 0)
(-189.088 -0.409756 0)
(-72.0553 0.467522 0)
(-54.2169 0.232401 0)
(-45.1084 0.679783 0)
(-30.1092 1.1765 0)
(-12.5201 1.50668 0)
(-0.617672 1.48973 0)
(11.9665 1.3341 0)
(64.0284 1.25536 0)
(404.556 1.02801 0)
(989.374 0.405946 0)
(1041.51 -0.738054 0)
(628.638 0.479405 0)
(449.176 2.7586 0)
(460.156 -0.886976 0)
(463.947 1.99918 0)
(406.723 2.87966 0)
(488.346 2.08255 0)
(-596.105 560.66 0)
(-537.818 -15.0408 0)
(-432.041 -278.291 0)
(-309.732 -400.216 0)
(-310.603 -448.436 0)
(-438.081 -348.707 0)
(-307.099 -24.16 0)
(350.643 99.4423 0)
(1926.99 532.049 0)
(2171.97 79.2241 0)
(691.661 -304.735 0)
(-13.2615 -282.477 0)
(-93.7212 -221.581 0)
(-127.317 -230.208 0)
(-338.817 -260.873 0)
(-670.586 -243.331 0)
(-953.788 -192.296 0)
(-1086.87 -168.567 0)
(-1146.58 -134.534 0)
(-1203.84 -108.264 0)
(-1030.19 -76.5378 0)
(-555.887 -25.4287 0)
(-182.778 -1.35914 0)
(-71.6787 0.913888 0)
(-54.1414 0.505498 0)
(-44.7148 1.1223 0)
(-29.7533 1.96698 0)
(-12.3807 2.60696 0)
(-0.690432 2.61231 0)
(11.8494 2.33403 0)
(63.8742 2.07623 0)
(404.071 1.73285 0)
(988.469 0.131536 0)
(1041.46 -1.8899 0)
(629.95 0.188117 0)
(448.711 2.57546 0)
(459.756 0.865909 0)
(465.362 2.12028 0)
(407.738 2.47226 0)
(485.965 2.79445 0)
(-606.329 58.0257 0)
(-635.738 222.198 0)
(-557.547 290.341 0)
(-430.952 232.524 0)
(-340.073 81.4433 0)
(-264.347 54.4656 0)
(-56.7757 176.885 0)
(711.095 374.172 0)
(1863.09 775.029 0)
(1702.64 11.027 0)
(547.557 -292.614 0)
(22.1646 -357.34 0)
(-67.5728 -313.188 0)
(-178.007 -352.609 0)
(-409.119 -420.128 0)
(-691.416 -439.351 0)
(-909.524 -398.233 0)
(-1009.06 -314.106 0)
(-1079.3 -229.828 0)
(-1154.16 -178.711 0)
(-974.216 -119.339 0)
(-509.524 -36.664 0)
(-167.087 -2.02986 0)
(-70.4604 1.48508 0)
(-54.0566 1.07572 0)
(-43.9112 1.8054 0)
(-28.8693 2.97849 0)
(-11.973 3.96327 0)
(-0.841654 4.04413 0)
(11.5127 3.6468 0)
(63.5318 3.21311 0)
(402.942 2.81562 0)
(986.368 0.518699 0)
(1041.58 -2.27323 0)
(632.238 0.480908 0)
(450.079 1.742 0)
(459.931 4.41966 0)
(464.736 3.7589 0)
(406.829 3.87999 0)
(484.548 2.62996 0)
(-326.071 42.6046 0)
(-313.951 156.737 0)
(-422.09 246.359 0)
(-511.033 252.592 0)
(-482.186 168.302 0)
(-346.11 229.902 0)
(0.982209 465.124 0)
(927.036 734.415 0)
(1577.05 604.515 0)
(1143.15 -69.6673 0)
(336.689 -416.356 0)
(-33.0881 -452.501 0)
(-89.1615 -407.668 0)
(-230.369 -481.232 0)
(-422.405 -529.149 0)
(-649.486 -521.308 0)
(-833.097 -457.316 0)
(-924.593 -361.504 0)
(-1016.11 -282.462 0)
(-1097.36 -235.976 0)
(-893.304 -153.278 0)
(-442.844 -42.6002 0)
(-146.016 -1.80222 0)
(-68.6861 2.01345 0)
(-53.8328 1.80722 0)
(-42.8812 2.74923 0)
(-27.6739 4.22188 0)
(-11.3538 5.48133 0)
(-0.9954 5.65813 0)
(11.0486 5.17615 0)
(63.0732 4.64705 0)
(401.475 4.23703 0)
(983.565 1.91949 0)
(1041.43 -0.734123 0)
(633.819 2.40239 0)
(452.507 1.75148 0)
(461.7 6.87443 0)
(464.842 5.37108 0)
(406.651 6.30295 0)
(479.692 4.79291 0)
(-414.236 -9.87545 0)
(-439.392 -124.011 0)
(-465.178 -162.457 0)
(-506.171 -122.013 0)
(-361.937 -5.5885 0)
(21.6812 245.949 0)
(429.391 526.585 0)
(845.418 658.588 0)
(1088.25 295.917 0)
(718.891 -226.288 0)
(178.644 -573.227 0)
(30.5368 -430.566 0)
(-95.2587 -469.791 0)
(-295.071 -537.127 0)
(-447.738 -555.454 0)
(-622.194 -543.732 0)
(-755.531 -481.785 0)
(-840.56 -392.083 0)
(-958.334 -327.377 0)
(-1029.67 -282.32 0)
(-787.872 -168.616 0)
(-363.557 -40.6949 0)
(-124.096 -1.09825 0)
(-66.9822 2.21246 0)
(-53.3475 2.32935 0)
(-41.5843 3.58376 0)
(-26.2366 5.35901 0)
(-10.589 6.828 0)
(-1.13573 7.09015 0)
(10.5384 6.56862 0)
(62.6268 5.96543 0)
(400.314 5.54061 0)
(981.577 2.55429 0)
(1042.05 -0.276649 0)
(634.633 3.36898 0)
(454.388 1.54315 0)
(463.419 6.94947 0)
(464.185 5.73412 0)
(406.272 6.0054 0)
(473.856 4.99639 0)
(-455.089 -10.718 0)
(-460.984 -20.8793 0)
(-420.165 21.9841 0)
(-359.869 149.101 0)
(-127.604 348.672 0)
(166.712 499.236 0)
(398.616 482.139 0)
(704.755 371.616 0)
(724.352 64.1359 0)
(305.61 -450.55 0)
(139.839 -488.294 0)
(66.5866 -465.672 0)
(-191.848 -574.064 0)
(-312.917 -561.216 0)
(-428.77 -554.354 0)
(-578.497 -536.966 0)
(-686.963 -479.975 0)
(-775.8 -406.723 0)
(-910.339 -362.031 0)
(-944.377 -310.515 0)
(-660.465 -162.032 0)
(-281.417 -32.4784 0)
(-104.669 0.11268 0)
(-65.3831 2.58758 0)
(-52.5113 3.10944 0)
(-39.9617 4.77716 0)
(-24.5477 6.85989 0)
(-9.6856 8.48805 0)
(-1.24535 8.81768 0)
(9.96481 8.28502 0)
(62.0826 7.76376 0)
(398.188 7.52239 0)
(977.959 5.11142 0)
(1042.21 2.29177 0)
(635.573 5.86041 0)
(455.957 3.68764 0)
(465.738 8.04852 0)
(463.932 7.73916 0)
(405.94 6.73839 0)
(469.09 5.36666 0)
(-444.684 -0.882795 0)
(-407.879 42.6021 0)
(-301.379 140.874 0)
(-191.363 263.225 0)
(-24.5343 378.819 0)
(150.295 341.108 0)
(306.412 272.824 0)
(442.615 148.665 0)
(295.981 -257.253 0)
(186.55 -520.684 0)
(164.072 -431.225 0)
(-52.1146 -547.175 0)
(-187.329 -544.807 0)
(-276.077 -524.951 0)
(-424.37 -535.97 0)
(-550.52 -525.497 0)
(-630.024 -470.115 0)
(-726.905 -412.224 0)
(-865.624 -384.704 0)
(-836.943 -312.321 0)
(-519.946 -134.835 0)
(-207.308 -21.385 0)
(-90.305 1.50029 0)
(-64.0944 3.27109 0)
(-51.2376 4.27851 0)
(-37.9702 6.36474 0)
(-22.6606 8.71976 0)
(-8.7024 10.4415 0)
(-1.33138 10.8239 0)
(9.5228 10.3083 0)
(61.8919 9.79401 0)
(397.758 9.5852 0)
(976.537 6.43571 0)
(1042.77 3.78201 0)
(635.978 7.90471 0)
(456.497 5.81741 0)
(467.323 8.88228 0)
(462.923 9.3342 0)
(403.986 7.33735 0)
(462.191 4.92727 0)
(-414.887 18.6503 0)
(-324.382 94.2316 0)
(-207.565 189.341 0)
(-130.576 243.724 0)
(-52.5535 246.647 0)
(64.5709 145.714 0)
(213.171 40.5444 0)
(193.954 -184.389 0)
(79.3425 -463.961 0)
(137.964 -377.145 0)
(114.312 -421.118 0)
(-42.8652 -497.814 0)
(-170.432 -484.228 0)
(-304.401 -514.642 0)
(-429.296 -536.011 0)
(-515.036 -507.718 0)
(-577.809 -448.557 0)
(-693.496 -412.002 0)
(-814.069 -396.523 0)
(-703.594 -283.782 0)
(-380.109 -94.79 0)
(-150.04 -10.1883 0)
(-80.9098 3.45332 0)
(-62.7059 4.78577 0)
(-49.5302 6.29963 0)
(-35.682 8.71335 0)
(-20.6192 11.1813 0)
(-7.658 12.8171 0)
(-1.37368 13.1781 0)
(8.97238 12.6393 0)
(61.3858 12.2018 0)
(394.952 12.1657 0)
(972.367 8.69711 0)
(1043.63 5.04482 0)
(637.534 8.50364 0)
(456.899 6.37623 0)
(469.127 9.19148 0)
(462.444 10.3195 0)
(401.693 7.66958 0)
(457.271 4.58154 0)
(-335.907 40.4721 0)
(-243.396 84.1552 0)
(-157.323 100.248 0)
(-136.14 50.1659 0)
(-118.98 -25.5674 0)
(-48.3135 -97.7187 0)
(-11.6875 -205.323 0)
(-43.5447 -374.719 0)
(110.234 -314.594 0)
(227.836 -268.393 0)
(47.7913 -408.865 0)
(-112.93 -452.822 0)
(-203.545 -492.136 0)
(-325.977 -524.642 0)
(-417.698 -520.648 0)
(-466.246 -469.267 0)
(-537.789 -420.7 0)
(-676.764 -414.252 0)
(-742.066 -389.63 0)
(-546.182 -224.334 0)
(-256.301 -55.469 0)
(-112.638 -2.87183 0)
(-75.8754 4.08842 0)
(-61.3516 5.25714 0)
(-47.4528 7.18096 0)
(-33.2661 9.80966 0)
(-18.7061 12.2954 0)
(-6.77823 13.7565 0)
(-1.50267 14.1155 0)
(8.58206 13.6654 0)
(61.4355 13.4457 0)
(394.381 13.4564 0)
(969.675 8.94647 0)
(1042.58 3.98222 0)
(637.261 7.28084 0)
(457.159 6.31206 0)
(471.123 10.6477 0)
(461.456 12.3798 0)
(398.456 9.27421 0)
(450.385 4.85447 0)
(-294.791 -84.5621 0)
(-266.78 -92.9226 0)
(-240.318 -189.539 0)
(-251.816 -238.149 0)
(-195.06 -239.875 0)
(-108.648 -226.584 0)
(-53.7563 -244.403 0)
(88.6574 -199.083 0)
(181.802 -177.952 0)
(47.1215 -323.783 0)
(-63.4101 -433.189 0)
(-123.109 -454.577 0)
(-239.64 -500.78 0)
(-331.876 -519.028 0)
(-375.934 -481.989 0)
(-418.723 -428.211 0)
(-524.795 -411.027 0)
(-663.556 -423.932 0)
(-631.057 -346.945 0)
(-381.584 -146.281 0)
(-166.7 -27.7059 0)
(-92.648 -1.54455 0)
(-73.0764 1.70419 0)
(-59.7258 3.44065 0)
(-45.1432 5.96101 0)
(-30.7535 8.85909 0)
(-16.8159 11.3542 0)
(-5.90415 12.6835 0)
(-1.4614 13.0899 0)
(8.32701 12.897 0)
(61.1843 13.0299 0)
(390.616 13.2485 0)
(963.237 7.77179 0)
(1042.02 2.69293 0)
(639.779 7.65522 0)
(460.143 7.64037 0)
(474.974 13.5261 0)
(461.12 15.861 0)
(394.441 12.4849 0)
(443.656 6.67776 0)
(-506.938 -102.013 0)
(-344.555 -52.1677 0)
(-297.268 -92.5849 0)
(-184.645 -28.9164 0)
(-107.836 -1.13301 0)
(-52.6769 -44.2652 0)
(14.8137 -94.773 0)
(20.4894 -141.704 0)
(-9.93136 -275.898 0)
(-18.1191 -385.948 0)
(-78.2466 -411.661 0)
(-178.064 -474.62 0)
(-265.652 -509.527 0)
(-307.869 -483.611 0)
(-330.183 -426.328 0)
(-397.865 -394.264 0)
(-533.666 -413.903 0)
(-615.012 -407.105 0)
(-474.511 -250.435 0)
(-238.551 -71.2612 0)
(-116.828 -4.00541 0)
(-84.297 9.29357 0)
(-71.0715 13.1115 0)
(-57.2495 17.1338 0)
(-42.2314 21.4111 0)
(-28.069 25.5686 0)
(-15.0208 28.8188 0)
(-5.1056 30.7647 0)
(-1.29686 31.6965 0)
(8.52419 32.3082 0)
(61.7742 33.0489 0)
(389.314 35.0513 0)
(959.503 37.5406 0)
(1042.47 48.0192 0)
(642.028 62.318 0)
(462.817 56.9335 0)
(479.045 45.9645 0)
(460.453 30.3275 0)
(389.607 18.4222 0)
(431.92 7.94567 0)
(-443.365 135.035 0)
(-257.694 148.462 0)
(-217.912 196.939 0)
(-163.69 184.223 0)
(-209.851 115.177 0)
(-198.883 30.2093 0)
(-147.652 -97.3706 0)
(-85.8813 -235.594 0)
(-53.5607 -299.85 0)
(-83.7048 -365.799 0)
(-148.857 -433.034 0)
(-217.415 -471.721 0)
(-248.304 -452.355 0)
(-251.703 -392.293 0)
(-289.836 -347.64 0)
(-406.75 -346.199 0)
(-537.169 -362.31 0)
(-506.032 -286.175 0)
(-307.426 -97.414 0)
(-144.115 20.9185 0)
(-89.0743 56.5844 0)
(-76.1535 69.0773 0)
(-65.5213 78.7879 0)
(-51.728 88.4612 0)
(-37.0152 97.4426 0)
(-23.6151 105.765 0)
(-11.8087 111.952 0)
(-3.13113 117.203 0)
(0.025981 120.549 0)
(9.63024 123.806 0)
(63.8277 126.62 0)
(394.944 136.697 0)
(975.734 179.932 0)
(1065.9 245.478 0)
(648.37 259.011 0)
(444.385 206.613 0)
(449.336 162.835 0)
(434.579 115.57 0)
(372.873 52.6004 0)
(418.247 12.4583 0)
(-233.75 143.235 0)
(-284.903 106.625 0)
(-262.807 136.065 0)
(-263.434 84.5853 0)
(-256.25 91.2541 0)
(-257.495 64.3012 0)
(-241.324 -62.7684 0)
(-174.627 -183.242 0)
(-135.402 -285.655 0)
(-146.46 -345.961 0)
(-180.317 -370.305 0)
(-196.682 -336.687 0)
(-189.112 -246.072 0)
(-206.962 -151.217 0)
(-285.765 -114.866 0)
(-412.001 -135.867 0)
(-475.825 -103.51 0)
(-359.749 82.8803 0)
(-178.585 271.842 0)
(-90.1526 358.742 0)
(-70.4208 396.958 0)
(-62.901 423.174 0)
(-52.3925 445.969 0)
(-39.2732 466.349 0)
(-25.5569 483.968 0)
(-14.0868 500.41 0)
(-3.99894 511.447 0)
(3.17833 523.577 0)
(5.06635 530.376 0)
(14.3746 536.576 0)
(74.1964 545.563 0)
(440.687 584.294 0)
(1064.33 743.796 0)
(1118.67 876.107 0)
(604.577 842.594 0)
(370.138 665.283 0)
(391.312 496.783 0)
(354.227 320.351 0)
(290.245 157.125 0)
(369.227 29.0377 0)
(-202.591 48.0142 0)
(-264.604 98.072 0)
(-239.151 155.06 0)
(-206.871 206.827 0)
(-229.398 304.107 0)
(-347.305 252.679 0)
(-386.194 142.451 0)
(-300.663 4.25184 0)
(-210.363 -58.4261 0)
(-165.277 -32.5697 0)
(-139.921 60.0473 0)
(-97.6999 212.774 0)
(-69.5784 363.3 0)
(-125.268 445.066 0)
(-275.044 449.302 0)
(-395.807 448.631 0)
(-326.377 571.743 0)
(-144.33 774.64 0)
(-41.5953 901.708 0)
(-23.5483 949.99 0)
(-26.9853 970.64 0)
(-28.9249 981.318 0)
(-23.9162 988.665 0)
(-15.1114 995.671 0)
(-4.19306 1002.42 0)
(2.86536 1011 0)
(10.5158 1016.4 0)
(15.1095 1022.43 0)
(12.553 1023.43 0)
(24.2646 1023.52 0)
(109.81 1038.97 0)
(585.969 1094.37 0)
(1256.94 1266.65 0)
(1161.1 1311.94 0)
(445.212 1252.62 0)
(111.149 1083.3 0)
(116.947 891.59 0)
(107.273 651.598 0)
(92.153 379.168 0)
(238.854 84.6218 0)
(-92.976 111.864 0)
(-181.749 249.489 0)
(-158.007 473.373 0)
(-119.807 691.148 0)
(-212.065 938.918 0)
(-413.273 1057.48 0)
(-480.718 1065.1 0)
(-368.2 858.423 0)
(-170.884 763.23 0)
(-32.2948 808.843 0)
(56.1059 909.738 0)
(95.5441 1005.2 0)
(34.7325 1005.75 0)
(-124.088 904.205 0)
(-282.33 785.367 0)
(-294.013 804.626 0)
(-161.671 956.521 0)
(-41.7828 1052.72 0)
(-9.61102 1066.14 0)
(-23.7267 1050.93 0)
(-40.2327 1026.96 0)
(-45.5311 1004.96 0)
(-38.5614 988.048 0)
(-26.0178 976.703 0)
(-10.7881 968.832 0)
(-0.617694 964.198 0)
(7.02026 962.005 0)
(9.95081 957.33 0)
(6.11481 952.964 0)
(29.3485 948.085 0)
(142.472 961.559 0)
(660.088 987.198 0)
(1273.98 987.901 0)
(1105.16 916.511 0)
(384.257 917.62 0)
(22.2375 912.186 0)
(-24.6963 860.479 0)
(-139.561 754.551 0)
(-256.113 530.388 0)
(-77.6984 170.257 0)
(145.621 185.117 0)
(83.7597 491.195 0)
(186.449 879.439 0)
(241.744 1218.05 0)
(123.613 1537.19 0)
(-225.709 1808.9 0)
(-578.011 1774.14 0)
(-591.558 1422.84 0)
(-258.141 1167.52 0)
(-24.0962 1065.93 0)
(49.2969 985.034 0)
(-5.17896 848.013 0)
(-166.901 633.34 0)
(-337.637 451.153 0)
(-371.001 417.951 0)
(-230.877 532.987 0)
(-87.3013 645.811 0)
(-38.698 678.29 0)
(-43.3223 664.764 0)
(-61.305 641.207 0)
(-71.2806 621.12 0)
(-66.4194 610.634 0)
(-51.1496 607.525 0)
(-33.6282 606.834 0)
(-16.2433 605.157 0)
(-3.71353 602.27 0)
(3.89701 600.431 0)
(6.39699 595.925 0)
(3.64466 593.54 0)
(32.5473 591.047 0)
(147.5 586.857 0)
(611.353 571.21 0)
(1188.82 389.676 0)
(1093.38 264.117 0)
(441.044 317.69 0)
(56.0855 386.301 0)
(-34.9561 395.076 0)
(-210.815 413.199 0)
(-470.894 365.935 0)
(-436.312 174.533 0)
(558.742 138.236 0)
(487.325 485.405 0)
(542.418 787.87 0)
(514.025 985.225 0)
(357.295 1052.61 0)
(-184.936 1092.74 0)
(-852.731 928.067 0)
(-952.764 703.802 0)
(-514.821 542.136 0)
(-208.145 410.955 0)
(-153.885 270.259 0)
(-243.361 111.396 0)
(-347.696 1.16673 0)
(-331.645 23.271 0)
(-203.471 183.392 0)
(-74.4387 346.52 0)
(-21.652 416.074 0)
(-23.5188 432.203 0)
(-45.3456 429.611 0)
(-65.7843 425.009 0)
(-69.694 428.28 0)
(-58.6319 437.759 0)
(-42.2226 450.037 0)
(-28.2994 460.14 0)
(-15.1861 467.112 0)
(-5.17172 470.451 0)
(0.905562 471.102 0)
(3.31024 470.211 0)
(1.41419 470.752 0)
(22.9092 472.327 0)
(123.357 454.151 0)
(470.076 425.91 0)
(978.057 173.417 0)
(1035.79 -16.975 0)
(501.998 4.22701 0)
(96.809 62.3575 0)
(1.22316 55.9109 0)
(-167.641 61.5242 0)
(-486.1 31.2126 0)
(-598.514 28.2038 0)
(746.584 -6.22503 0)
(709.771 116.793 0)
(668.094 147.963 0)
(496.86 88.4413 0)
(227.219 -14.9658 0)
(-345.726 -133.316 0)
(-952.807 -168.869 0)
(-963.455 -51.3973 0)
(-540.339 28.4737 0)
(-286.086 3.86583 0)
(-239.368 -51.3041 0)
(-264.486 -68.4689 0)
(-251.822 14.1785 0)
(-162.038 173.981 0)
(-59.5074 320.267 0)
(-6.65615 392.561 0)
(-4.73388 412.392 0)
(-25.653 414.936 0)
(-50.2547 414.234 0)
(-62.5881 419.878 0)
(-58.9939 433.847 0)
(-45.4539 447.477 0)
(-29.5824 458.29 0)
(-17.1742 466.305 0)
(-6.30699 473.064 0)
(0.131496 477.442 0)
(3.66567 479.294 0)
(6.05994 480.366 0)
(5.68391 482.794 0)
(16.55 487.178 0)
(102.77 472.126 0)
(340.828 432.179 0)
(762.039 211.042 0)
(930.34 -32.6084 0)
(517.492 -80.5397 0)
(105.89 -18.2966 0)
(-35.7591 -53.8975 0)
(-234.616 -58.0863 0)
(-503.002 -151.729 0)
(-493.568 -153.797 0)
(665.29 243.54 0)
(635.906 -674.19 0)
(515.097 -505.064 0)
(357.022 -620.997 0)
(143.602 -664.224 0)
(-333.242 -672.225 0)
(-773.791 -512.548 0)
(-762.597 -231.627 0)
(-461.568 -61.5049 0)
(-285.022 -6.55272 0)
(-223.59 24.4362 0)
(-180.26 90.063 0)
(-114.063 196.707 0)
(-36.6866 306.816 0)
(7.16024 369.101 0)
(14.3362 387.955 0)
(-0.0902593 390.337 0)
(-21.7434 391.841 0)
(-40.5835 399.752 0)
(-46.8852 414.925 0)
(-43.0987 435.954 0)
(-35.0777 453.542 0)
(-24.0785 465.889 0)
(-14.0622 474.388 0)
(-4.45413 478.997 0)
(0.831179 480.089 0)
(3.7227 479.717 0)
(6.68327 477.934 0)
(7.97834 476.765 0)
(12.6293 477.216 0)
(70.3582 467.55 0)
(218.486 401.115 0)
(530.17 224.14 0)
(754.812 -84.9177 0)
(515.79 -231.649 0)
(122.482 -185.987 0)
(-37.1196 -247.348 0)
(-261.916 -273.319 0)
(-578.331 -647.96 0)
(-304.097 -284.225 0)
(331.594 21949.6 0)
(-11.6114 -653.557 0)
(719.352 -831.019 0)
(343.488 -857.327 0)
(177.854 -967.591 0)
(-199.566 -960.12 0)
(-528.231 -742.506 0)
(-528.814 -427.097 0)
(-323.45 -221.858 0)
(-203.27 -98.245 0)
(-146.266 5.7384 0)
(-98.4799 111.252 0)
(-42.9504 208.503 0)
(4.08787 264.288 0)
(18.6812 282.15 0)
(13.8075 283.652 0)
(-0.990117 285.017 0)
(-16.5811 292.784 0)
(-28.0098 308.56 0)
(-27.7021 330.349 0)
(-21.7814 352.112 0)
(-16.6071 372.058 0)
(-9.49364 388.619 0)
(-4.54267 400.466 0)
(-0.813461 407.984 0)
(0.825297 410.695 0)
(1.58844 412.017 0)
(3.2151 411.276 0)
(4.99269 409.633 0)
(7.67 408.23 0)
(29.4363 402.096 0)
(106.269 344.553 0)
(293.68 197.78 0)
(491.126 -143.989 0)
(420.098 -438.975 0)
(90.7623 -491.549 0)
(-119.916 -510.573 0)
(-620.661 -580.94 0)
(-513.512 -538.165 0)
(404.72 11317.2 0)
(21186.9 -22595.1 0)
(-21316.3 264.597 0)
(318.737 -462.375 0)
(225.416 -812.666 0)
(44.5467 -1052.75 0)
(-116.342 -1043.46 0)
(-260.15 -724.918 0)
(-260.883 -225.327 0)
(-144.674 94.5778 0)
(-65.7012 260.462 0)
(-21.711 373.699 0)
(15.1311 434.777 0)
(33.4088 460.193 0)
(34.2831 444.679 0)
(25.8203 420.374 0)
(17.0981 398.498 0)
(8.70919 388.302 0)
(0.944152 390.488 0)
(-4.38412 404.529 0)
(-4.91738 424.104 0)
(-2.90702 438.38 0)
(0.101983 449.724 0)
(3.29673 455.508 0)
(4.59842 456.155 0)
(5.40296 455.45 0)
(4.71725 451.393 0)
(4.28285 449.698 0)
(4.38618 445.3 0)
(5.04269 441.81 0)
(5.36657 434.886 0)
(8.99685 428.282 0)
(21.5998 395.002 0)
(59.3934 295.587 0)
(141.211 28.6052 0)
(180.869 -360.611 0)
(53.4884 -595.04 0)
(-123.26 -510.306 0)
(-288.505 -342.687 0)
(10887.2 433.168 0)
(-10691.2 -11107.8 0)
(21186.9 22595.1 0)
(-21316.3 -264.597 0)
(318.737 462.375 0)
(225.416 812.666 0)
(44.5467 1052.75 0)
(-116.342 1043.46 0)
(-260.15 724.918 0)
(-260.883 225.327 0)
(-144.674 -94.5778 0)
(-65.7012 -260.462 0)
(-21.711 -373.699 0)
(15.1311 -434.777 0)
(33.4088 -460.193 0)
(34.2831 -444.679 0)
(25.8203 -420.374 0)
(17.0981 -398.498 0)
(8.70919 -388.302 0)
(0.944152 -390.488 0)
(-4.38412 -404.529 0)
(-4.91738 -424.104 0)
(-2.90702 -438.38 0)
(0.101983 -449.724 0)
(3.29673 -455.508 0)
(4.59842 -456.155 0)
(5.40296 -455.45 0)
(4.71725 -451.393 0)
(4.28285 -449.698 0)
(4.38618 -445.3 0)
(5.04269 -441.81 0)
(5.36657 -434.886 0)
(8.99685 -428.282 0)
(21.5998 -395.002 0)
(59.3934 -295.587 0)
(141.211 -28.6052 0)
(180.869 360.611 0)
(53.4884 595.04 0)
(-123.26 510.306 0)
(-288.505 342.687 0)
(10887.2 -433.168 0)
(-10691.2 11107.8 0)
(331.594 -21949.6 0)
(-11.6114 653.557 0)
(719.352 831.019 0)
(343.488 857.327 0)
(177.854 967.591 0)
(-199.566 960.12 0)
(-528.231 742.506 0)
(-528.814 427.097 0)
(-323.45 221.858 0)
(-203.27 98.245 0)
(-146.266 -5.7384 0)
(-98.4799 -111.252 0)
(-42.9504 -208.503 0)
(4.08787 -264.288 0)
(18.6812 -282.15 0)
(13.8075 -283.652 0)
(-0.990117 -285.017 0)
(-16.5811 -292.784 0)
(-28.0098 -308.56 0)
(-27.7021 -330.349 0)
(-21.7814 -352.112 0)
(-16.6071 -372.058 0)
(-9.49364 -388.619 0)
(-4.54267 -400.466 0)
(-0.813461 -407.984 0)
(0.825297 -410.695 0)
(1.58844 -412.017 0)
(3.2151 -411.276 0)
(4.99269 -409.633 0)
(7.67 -408.23 0)
(29.4363 -402.096 0)
(106.269 -344.553 0)
(293.68 -197.78 0)
(491.126 143.989 0)
(420.098 438.975 0)
(90.7623 491.549 0)
(-119.916 510.573 0)
(-620.661 580.94 0)
(-513.512 538.165 0)
(404.72 -11317.2 0)
(665.29 -243.54 0)
(635.906 674.19 0)
(515.097 505.064 0)
(357.022 620.997 0)
(143.602 664.224 0)
(-333.242 672.225 0)
(-773.791 512.548 0)
(-762.597 231.627 0)
(-461.568 61.5049 0)
(-285.022 6.55272 0)
(-223.59 -24.4362 0)
(-180.26 -90.063 0)
(-114.063 -196.707 0)
(-36.6866 -306.816 0)
(7.16024 -369.101 0)
(14.3362 -387.955 0)
(-0.0902593 -390.337 0)
(-21.7434 -391.841 0)
(-40.5835 -399.752 0)
(-46.8852 -414.925 0)
(-43.0987 -435.954 0)
(-35.0777 -453.542 0)
(-24.0785 -465.889 0)
(-14.0622 -474.388 0)
(-4.45413 -478.997 0)
(0.831179 -480.089 0)
(3.7227 -479.717 0)
(6.68327 -477.934 0)
(7.97834 -476.765 0)
(12.6293 -477.216 0)
(70.3582 -467.55 0)
(218.486 -401.115 0)
(530.17 -224.14 0)
(754.812 84.9177 0)
(515.79 231.649 0)
(122.482 185.987 0)
(-37.1196 247.348 0)
(-261.916 273.319 0)
(-578.331 647.96 0)
(-304.097 284.225 0)
(746.584 6.22503 0)
(709.771 -116.793 0)
(668.094 -147.963 0)
(496.86 -88.4413 0)
(227.219 14.9658 0)
(-345.726 133.316 0)
(-952.807 168.869 0)
(-963.455 51.3973 0)
(-540.339 -28.4737 0)
(-286.086 -3.86583 0)
(-239.368 51.3041 0)
(-264.486 68.4689 0)
(-251.822 -14.1785 0)
(-162.038 -173.981 0)
(-59.5074 -320.267 0)
(-6.65615 -392.561 0)
(-4.73388 -412.392 0)
(-25.653 -414.936 0)
(-50.2547 -414.234 0)
(-62.5881 -419.878 0)
(-58.9939 -433.847 0)
(-45.4539 -447.477 0)
(-29.5824 -458.29 0)
(-17.1742 -466.305 0)
(-6.30699 -473.064 0)
(0.131496 -477.442 0)
(3.66567 -479.294 0)
(6.05994 -480.366 0)
(5.68391 -482.794 0)
(16.55 -487.178 0)
(102.77 -472.126 0)
(340.828 -432.179 0)
(762.039 -211.042 0)
(930.34 32.6084 0)
(517.492 80.5397 0)
(105.89 18.2966 0)
(-35.7591 53.8975 0)
(-234.616 58.0863 0)
(-503.002 151.729 0)
(-493.568 153.797 0)
(558.742 -138.236 0)
(487.325 -485.405 0)
(542.418 -787.87 0)
(514.025 -985.225 0)
(357.295 -1052.61 0)
(-184.936 -1092.74 0)
(-852.731 -928.067 0)
(-952.764 -703.802 0)
(-514.821 -542.136 0)
(-208.145 -410.955 0)
(-153.885 -270.259 0)
(-243.361 -111.396 0)
(-347.696 -1.16673 0)
(-331.645 -23.271 0)
(-203.471 -183.392 0)
(-74.4387 -346.52 0)
(-21.652 -416.074 0)
(-23.5188 -432.203 0)
(-45.3456 -429.611 0)
(-65.7843 -425.009 0)
(-69.694 -428.28 0)
(-58.6319 -437.759 0)
(-42.2226 -450.037 0)
(-28.2994 -460.14 0)
(-15.1861 -467.112 0)
(-5.17172 -470.451 0)
(0.905562 -471.102 0)
(3.31024 -470.211 0)
(1.41419 -470.752 0)
(22.9092 -472.327 0)
(123.357 -454.151 0)
(470.076 -425.91 0)
(978.057 -173.417 0)
(1035.79 16.975 0)
(501.998 -4.22701 0)
(96.809 -62.3575 0)
(1.22316 -55.9109 0)
(-167.641 -61.5242 0)
(-486.1 -31.2126 0)
(-598.514 -28.2038 0)
(145.621 -185.117 0)
(83.7597 -491.195 0)
(186.449 -879.439 0)
(241.744 -1218.05 0)
(123.613 -1537.19 0)
(-225.709 -1808.9 0)
(-578.011 -1774.14 0)
(-591.558 -1422.84 0)
(-258.141 -1167.52 0)
(-24.0962 -1065.93 0)
(49.2969 -985.034 0)
(-5.17896 -848.013 0)
(-166.901 -633.34 0)
(-337.637 -451.153 0)
(-371.001 -417.951 0)
(-230.877 -532.987 0)
(-87.3013 -645.811 0)
(-38.698 -678.29 0)
(-43.3223 -664.764 0)
(-61.305 -641.207 0)
(-71.2806 -621.12 0)
(-66.4194 -610.634 0)
(-51.1496 -607.525 0)
(-33.6282 -606.834 0)
(-16.2433 -605.157 0)
(-3.71353 -602.27 0)
(3.89701 -600.431 0)
(6.39699 -595.925 0)
(3.64466 -593.54 0)
(32.5473 -591.047 0)
(147.5 -586.857 0)
(611.353 -571.21 0)
(1188.82 -389.676 0)
(1093.38 -264.117 0)
(441.044 -317.69 0)
(56.0855 -386.301 0)
(-34.9561 -395.076 0)
(-210.815 -413.199 0)
(-470.894 -365.935 0)
(-436.312 -174.533 0)
(-92.976 -111.864 0)
(-181.749 -249.489 0)
(-158.007 -473.373 0)
(-119.807 -691.148 0)
(-212.065 -938.918 0)
(-413.273 -1057.48 0)
(-480.718 -1065.1 0)
(-368.2 -858.423 0)
(-170.884 -763.23 0)
(-32.2948 -808.843 0)
(56.1059 -909.738 0)
(95.5441 -1005.2 0)
(34.7325 -1005.75 0)
(-124.088 -904.205 0)
(-282.33 -785.367 0)
(-294.013 -804.626 0)
(-161.671 -956.521 0)
(-41.7828 -1052.72 0)
(-9.61102 -1066.14 0)
(-23.7267 -1050.93 0)
(-40.2327 -1026.96 0)
(-45.5311 -1004.96 0)
(-38.5614 -988.048 0)
(-26.0178 -976.703 0)
(-10.7881 -968.832 0)