/*--------------------------------*- C++ -*----------------------------------*\
| =========                 |                                                 |
| \\      /  F ield         | OpenFOAM: The Open Source CFD Toolbox           |
|  \\    /   O peration     | Version:  v1912                                 |
|   \\  /    A nd           | Website:  www.openfoam.com                      |
|    \\/     M anipulation  |                                                 |
\*---------------------------------------------------------------------------*/
FoamFile
{
    version     2.0;
    format      ascii;
    class       volScalarField;
    location    "7.62";
    object      T;
}
// * * * * * * * * * * * * * * * * * * * * * * * * * * * * * * * * * * * * * //

dimensions      [0 0 0 1 0 0 0];


internalField   nonuniform List<scalar> 
1900
(
1.26874
0.986289
0.93155
0.925397
0.926047
0.932116
0.940784
0.947597
0.950782
0.951467
1.26874
0.986293
0.931553
0.925402
0.926042
0.932119
0.940803
0.947679
0.951109
0.951592
1.26874
0.986295
0.931555
0.925406
0.926041
0.932122
0.940801
0.947669
0.950842
0.951151
1.26874
0.986293
0.931553
0.925402
0.926042
0.932119
0.940803
0.947679
0.951109
0.951592
1.26874
0.986289
0.93155
0.925397
0.926047
0.932116
0.940784
0.947597
0.950782
0.951467
0.955197
0.950992
0.953903
0.96235
1.00192
0.950996
0.948279
0.950405
0.957279
0.984055
0.950105
0.947667
0.949408
0.956734
0.98207
0.950996
0.948279
0.950405
0.957279
0.984055
0.955197
0.950992
0.953903
0.96235
1.00192
0.794749
0.67995
0.615644
0.570381
0.538672
0.814457
0.696236
0.628446
0.583971
0.544666
0.814334
0.690598
0.622187
0.579299
0.535337
0.814457
0.696236
0.628446
0.583971
0.544666
0.794749
0.67995
0.615644
0.570381
0.538672
0.509458
0.494724
0.483377
0.477297
0.470487
0.456501
0.447424
0.452617
0.512799
0.581176
0.607809
0.610327
0.608006
0.594045
0.563864
0.532084
0.509051
0.487204
0.459854
0.423017
0.387596
0.371477
0.366281
0.36298
0.359953
0.357464
0.355921
0.355414
0.355631
0.356132
0.356547
0.359181
0.371966
0.417539
0.454137
0.47145
0.488882
0.506951
0.518022
0.518325
0.52488
0.521092
0.515652
0.507948
0.496568
0.475727
0.4597
0.464496
0.524981
0.591851
0.612142
0.612246
0.60938
0.59495
0.564856
0.532381
0.509434
0.487891
0.460578
0.423484
0.387747
0.371485
0.366276
0.362982
0.359951
0.357453
0.355907
0.3554
0.355618
0.356121
0.356536
0.359174
0.371948
0.417539
0.454146
0.471433
0.488863
0.506918
0.517971
0.51827
0.525933
0.524595
0.522703
0.518099
0.50793
0.483912
0.465435
0.469096
0.527742
0.596553
0.613832
0.613125
0.609619
0.595405
0.567532
0.535705
0.510617
0.488077
0.46041
0.42339
0.387779
0.371494
0.366276
0.362983
0.359951
0.35745
0.355902
0.355395
0.355614
0.356117
0.356533
0.359171
0.371943
0.417541
0.454147
0.471423
0.488852
0.506912
0.517957
0.518243
0.52488
0.521092
0.515652
0.507948
0.496568
0.475727
0.4597
0.464496
0.524981
0.591851
0.612142
0.612246
0.60938
0.59495
0.564856
0.532381
0.509434
0.487891
0.460578
0.423484
0.387747
0.371485
0.366276
0.362982
0.359951
0.357453
0.355907
0.3554
0.355618
0.356121
0.356536
0.359174
0.371948
0.417539
0.454146
0.471433
0.488863
0.506918
0.517971
0.51827
0.509458
0.494724
0.483377
0.477297
0.470487
0.456501
0.447424
0.452617
0.512799
0.581176
0.607809
0.610327
0.608006
0.594045
0.563864
0.532084
0.509051
0.487204
0.459854
0.423017
0.387596
0.371477
0.366281
0.36298
0.359953
0.357464
0.355921
0.355414
0.355631
0.356132
0.356547
0.359181
0.371966
0.417539
0.454137
0.47145
0.488882
0.506951
0.518022
0.518325
0.428425
0.425383
0.420911
0.420812
0.419955
0.41554
0.416042
0.426952
0.493295
0.559072
0.592859
0.601074
0.599586
0.587357
0.560042
0.53072
0.507969
0.486008
0.458604
0.421769
0.386913
0.371403
0.366301
0.362973
0.359964
0.357507
0.355983
0.355479
0.355689
0.35618
0.356589
0.359219
0.37201
0.417498
0.454057
0.471409
0.488884
0.507023
0.518127
0.518483
0.378895
0.376923
0.37368
0.372164
0.372819
0.376793
0.384715
0.409965
0.477148
0.539068
0.575862
0.588336
0.586741
0.572778
0.546865
0.522414
0.502543
0.481714
0.454539
0.417979
0.385126
0.37121
0.366341
0.362972
0.35999
0.357605
0.35613
0.355639
0.355833
0.3563
0.356689
0.359315
0.372104
0.417423
0.453917
0.471274
0.488975
0.507145
0.518222
0.518572
0.378361
0.379609
0.380313
0.37875
0.378209
0.381112
0.389743
0.425494
0.478495
0.533147
0.562683
0.572502
0.568851
0.553078
0.531708
0.513093
0.495863
0.475756
0.448381
0.412338
0.382747
0.370978
0.366396
0.363006
0.36006
0.357764
0.356358
0.35589
0.356067
0.356499
0.356858
0.359473
0.372255
0.417357
0.453781
0.471108
0.489042
0.507248
0.518409
0.518754
0.37948
0.379093
0.378185
0.376629
0.378977
0.389887
0.407368
0.438498
0.487723
0.531599
0.555446
0.560166
0.551178
0.53434
0.517985
0.50365
0.487955
0.468066
0.440272
0.405451
0.380278
0.370786
0.36647
0.363071
0.360178
0.357987
0.356661
0.356224
0.356383
0.356776
0.357098
0.359701
0.37248
0.417371
0.453742
0.471023
0.489131
0.507387
0.518648
0.518998
0.383803
0.38354
0.383961
0.385659
0.393122
0.407101
0.429052
0.463237
0.505825
0.534182
0.549087
0.54474
0.531419
0.517986
0.50634
0.493987
0.478744
0.458737
0.430492
0.398038
0.378077
0.370631
0.366532
0.363148
0.360331
0.358262
0.357028
0.356628
0.35677
0.357124
0.357402
0.359992
0.372728
0.417325
0.453651
0.470884
0.489121
0.507503
0.518873
0.519273
0.396908
0.397493
0.400159
0.406037
0.416885
0.433129
0.456845
0.490236
0.518588
0.535192
0.535185
0.525967
0.515
0.505212
0.495494
0.483566
0.468567
0.448191
0.41955
0.39105
0.376473
0.370575
0.366611
0.363266
0.360553
0.358621
0.357487
0.357129
0.357258
0.357573
0.357811
0.360394
0.373159
0.417522
0.453759
0.470915
0.489239
0.507727
0.519132
0.519535
0.42084
0.422298
0.426963
0.434858
0.445799
0.461979
0.486096
0.508125
0.520214
0.524849
0.518893
0.509719
0.501504
0.493793
0.484335
0.472622
0.457787
0.43647
0.408162
0.385449
0.375442
0.370521
0.366671
0.363408
0.360828
0.359047
0.35802
0.357707
0.357825
0.358107
0.358304
0.360877
0.373554
0.417556
0.453759
0.470869
0.489236
0.507852
0.519339
0.519763
0.453851
0.45581
0.461322
0.466677
0.474901
0.488812
0.501837
0.508352
0.513742
0.510507
0.501988
0.495702
0.489762
0.482256
0.472951
0.461727
0.4464
0.423544
0.397627
0.381842
0.375015
0.370614
0.366848
0.363708
0.361286
0.359658
0.358732
0.358455
0.358561
0.358807
0.35897
0.361544
0.374232
0.417924
0.453968
0.470943
0.489343
0.50807
0.519606
0.520043
0.486555
0.489049
0.488625
0.49072
0.496139
0.499762
0.501336
0.503453
0.498843
0.492635
0.488503
0.483953
0.478049
0.470631
0.462043
0.450927
0.433976
0.410252
0.389799
0.379968
0.374848
0.370739
0.367081
0.364088
0.36183
0.360353
0.359524
0.359275
0.359369
0.35959
0.359732
0.362309
0.374883
0.418129
0.454102
0.470984
0.489443
0.508298
0.51992
0.520374
0.514858
0.515859
0.508224
0.506552
0.502667
0.498225
0.494415
0.487727
0.483545
0.480528
0.477267
0.472506
0.466429
0.459752
0.451541
0.439202
0.420021
0.398536
0.385397
0.379228
0.374887
0.370911
0.367378
0.364549
0.362451
0.361104
0.360349
0.360113
0.360191
0.360393
0.360533
0.363138
0.375705
0.418556
0.454334
0.471071
0.489635
0.508639
0.520383
0.520908
0.532222
0.525205
0.515901
0.507869
0.499507
0.490593
0.482156
0.476707
0.473385
0.470321
0.466101
0.460761
0.455459
0.449643
0.440873
0.426334
0.406556
0.391008
0.383377
0.378769
0.374737
0.370906
0.367602
0.365
0.363112
0.361936
0.361283
0.361088
0.361178
0.361409
0.361575
0.36423
0.376642
0.419137
0.45507
0.471597
0.489961
0.509052
0.520958
0.521554
0.532143
0.522457
0.511574
0.502594
0.495399
0.484863
0.47543
0.468646
0.463975
0.459547
0.454695
0.450332
0.44617
0.439894
0.428986
0.412883
0.39722
0.388593
0.384069
0.380424
0.376779
0.373348
0.370501
0.368324
0.3668
0.365907
0.365446
0.365364
0.365522
0.365834
0.366059
0.368841
0.381381
0.423834
0.459644
0.475498
0.493169
0.511059
0.522175
0.522557
0.532237
0.522102
0.51084
0.50268
0.496411
0.484946
0.471962
0.461498
0.454646
0.449804
0.446178
0.443469
0.440108
0.433572
0.421599
0.40743
0.398101
0.394147
0.391993
0.389808
0.387513
0.385496
0.383996
0.383042
0.38256
0.382585
0.382694
0.38323
0.383814
0.384513
0.38481
0.387974
0.401367
0.444236
0.477542
0.488454
0.501883
0.516623
0.52513
0.524137
0.534249
0.523882
0.513278
0.506294
0.500034
0.488419
0.471707
0.457414
0.450773
0.449063
0.44949
0.450266
0.448334
0.442028
0.433562
0.428277
0.427118
0.427411
0.427597
0.42718
0.426341
0.425525
0.424897
0.424599
0.42455
0.424919
0.425246
0.425945
0.426494
0.427109
0.427333
0.430616
0.444301
0.482776
0.509573
0.514693
0.522293
0.530087
0.532764
0.528305
0.538399
0.529397
0.522413
0.519818
0.516978
0.509868
0.491709
0.476896
0.473228
0.475333
0.478179
0.479228
0.476133
0.469905
0.464447
0.462529
0.462593
0.462572
0.461927
0.460693
0.459204
0.457816
0.456677
0.455973
0.455596
0.455636
0.455739
0.456096
0.456376
0.456694
0.456918
0.4601
0.471971
0.504027
0.527765
0.532929
0.538797
0.543949
0.544341
0.536016
0.543214
0.540974
0.541606
0.5435
0.546381
0.543255
0.524528
0.506479
0.501113
0.500361
0.498323
0.493867
0.487155
0.481821
0.479398
0.479057
0.479091
0.478662
0.477647
0.476145
0.474579
0.473255
0.472269
0.471645
0.47123
0.471148
0.471116
0.471236
0.471331
0.471442
0.471453
0.474139
0.482559
0.507585
0.530221
0.536161
0.541787
0.548048
0.550118
0.543636
0.545342
0.547304
0.551461
0.555763
0.558297
0.554012
0.535467
0.517861
0.510491
0.5068
0.502587
0.498245
0.494641
0.493189
0.493214
0.493749
0.494023
0.493735
0.492684
0.491225
0.489919
0.489078
0.488685
0.488513
0.488401
0.488499
0.488569
0.48877
0.488955
0.489182
0.489217
0.491302
0.4973
0.515304
0.535049
0.540878
0.543976
0.547192
0.547683
0.543222
0.540976
0.54736
0.551398
0.552938
0.55597
0.55213
0.537881
0.523425
0.515498
0.511252
0.508053
0.506483
0.505969
0.506827
0.508241
0.50946
0.510135
0.510234
0.509719
0.508805
0.508063
0.507598
0.507419
0.507362
0.507325
0.50747
0.507601
0.50786
0.508095
0.508391
0.508612
0.509774
0.514075
0.524986
0.540293
0.547019
0.546921
0.548871
0.545748
0.532849
0.452137
0.511671
0.544263
0.548069
0.55349
0.552022
0.541877
0.531364
0.525485
0.522763
0.521072
0.520701
0.520972
0.521787
0.522668
0.523171
0.523235
0.522927
0.522295
0.521567
0.52106
0.520588
0.520225
0.520029
0.51992
0.519932
0.519943
0.52005
0.520183
0.520423
0.520726
0.521481
0.523541
0.529591
0.54084
0.548814
0.547423
0.546105
0.511094
0.440688
0.33233
0.42099
0.528948
0.543528
0.546475
0.543817
0.535733
0.529112
0.526397
0.525688
0.525179
0.52508
0.525256
0.525552
0.525635
0.52537
0.52476
0.524
0.523243
0.52258
0.521999
0.521395
0.520889
0.520556
0.520404
0.520376
0.520389
0.520493
0.520632
0.520918
0.521291
0.521986
0.523116
0.526311
0.533112
0.541696
0.54269
0.533419
0.443213
0.336422
0.33233
0.42099
0.528948
0.543528
0.546475
0.543817
0.535733
0.529112
0.526397
0.525688
0.525179
0.52508
0.525256
0.525552
0.525635
0.52537
0.52476
0.524
0.523243
0.52258
0.521999
0.521395
0.520889
0.520556
0.520404
0.520376
0.520389
0.520493
0.520632
0.520918
0.521291
0.521986
0.523116
0.526311
0.533112
0.541696
0.54269
0.533419
0.443213
0.336422
0.452137
0.511671
0.544263
0.548069
0.55349
0.552022
0.541877
0.531364
0.525485
0.522763
0.521072
0.520701
0.520972
0.521787
0.522668
0.523171
0.523235
0.522927
0.522295
0.521567
0.52106
0.520588
0.520225
0.520029
0.51992
0.519932
0.519943
0.52005
0.520183
0.520423
0.520726
0.521481
0.523541
0.529591
0.54084
0.548814
0.547423
0.546105
0.511094
0.440688
0.540976
0.54736
0.551398
0.552938
0.55597
0.55213
0.537881
0.523425
0.515498
0.511252
0.508053
0.506483
0.505969
0.506827
0.508241
0.50946
0.510135
0.510234
0.509719
0.508805
0.508063
0.507598
0.507419
0.507362
0.507325
0.50747
0.507601
0.50786
0.508095
0.508391
0.508612
0.509774
0.514075
0.524986
0.540293
0.547019
0.546921
0.548871
0.545748
0.532849
0.545342
0.547304
0.551461
0.555763
0.558297
0.554012
0.535467
0.517861
0.510491
0.5068
0.502587
0.498245
0.494641
0.493189
0.493214
0.493749
0.494023
0.493735
0.492684
0.491225
0.489919
0.489078
0.488685
0.488513
0.488401
0.488499
0.488569
0.48877
0.488955
0.489182
0.489217
0.491302
0.4973
0.515304
0.535049
0.540878
0.543976
0.547192
0.547683
0.543222
0.543214
0.540974
0.541606
0.5435
0.546381
0.543255
0.524528
0.506479
0.501113
0.500361
0.498323
0.493867
0.487155
0.481821
0.479398
0.479057
0.479091
0.478662
0.477647
0.476145
0.474579
0.473255
0.472269
0.471645
0.47123
0.471148
0.471116
0.471236
0.471331
0.471442
0.471453
0.474139
0.482559
0.507585
0.530221
0.536161
0.541787
0.548048
0.550118
0.543636
0.538399
0.529397
0.522413
0.519818
0.516978
0.509868
0.491709
0.476896
0.473228
0.475333
0.478179
0.479228
0.476133
0.469905
0.464447
0.462529
0.462593
0.462572
0.461927
0.460693
0.459204
0.457816
0.456677
0.455973
0.455596
0.455636
0.455739
0.456096
0.456376
0.456694
0.456918
0.4601
0.471971
0.504027
0.527765
0.532929
0.538797
0.543949
0.544341
0.536016
0.534249
0.523882
0.513278
0.506294
0.500034
0.488419
0.471707
0.457414
0.450773
0.449063
0.44949
0.450266
0.448334
0.442028
0.433562
0.428277
0.427118
0.427411
0.427597
0.42718
0.426341
0.425525
0.424897
0.424599
0.42455
0.424919
0.425246
0.425945
0.426494
0.427109
0.427333
0.430616
0.444301
0.482776
0.509573
0.514693
0.522293
0.530087
0.532764
0.528305
0.532237
0.522102
0.51084
0.50268
0.496411
0.484946
0.471962
0.461498
0.454646
0.449804
0.446178
0.443469
0.440108
0.433572
0.421599
0.40743
0.398101
0.394147
0.391993
0.389808
0.387513
0.385496
0.383996
0.383042
0.38256
0.382585
0.382694
0.38323
0.383814
0.384513
0.38481
0.387974
0.401367
0.444236
0.477542
0.488454
0.501883
0.516623
0.52513
0.524137
0.532143
0.522457
0.511574
0.502594
0.495399
0.484863
0.47543
0.468646
0.463975
0.459547
0.454695
0.450332
0.44617
0.439894
0.428986
0.412883
0.39722
0.388593
0.384069
0.380424
0.376779
0.373348
0.370501
0.368324
0.3668
0.365907
0.365446
0.365364
0.365522
0.365834
0.366059
0.368841
0.381381
0.423834
0.459644
0.475498
0.493169
0.511059
0.522175
0.522557
0.532222
0.525205
0.515901
0.507869
0.499507
0.490593
0.482156
0.476707
0.473385
0.470321
0.466101
0.460761
0.455459
0.449643
0.440873
0.426334
0.406556
0.391008
0.383377
0.378769
0.374737
0.370906
0.367602
0.365
0.363112
0.361936
0.361283
0.361088
0.361178
0.361409
0.361575
0.36423
0.376642
0.419137
0.45507
0.471597
0.489961
0.509052
0.520958
0.521554
0.514858
0.515859
0.508224
0.506552
0.502667
0.498225
0.494415
0.487727
0.483545
0.480528
0.477267
0.472506
0.466429
0.459752
0.451541
0.439202
0.420021
0.398536
0.385397
0.379228
0.374887
0.370911
0.367378
0.364549
0.362451
0.361104
0.360349
0.360113
0.360191
0.360393
0.360533
0.363138
0.375705
0.418556
0.454334
0.471071
0.489635
0.508639
0.520383
0.520908
0.486555
0.489049
0.488625
0.49072
0.496139
0.499762
0.501336
0.503453
0.498843
0.492635
0.488503
0.483953
0.478049
0.470631
0.462043
0.450927
0.433976
0.410252
0.389799
0.379968
0.374848
0.370739
0.367081
0.364088
0.36183
0.360353
0.359524
0.359275
0.359369
0.35959
0.359732
0.362309
0.374883
0.418129
0.454102
0.470984
0.489443
0.508298
0.51992
0.520374
0.453851
0.45581
0.461322
0.466677
0.474901
0.488812
0.501837
0.508352
0.513742
0.510507
0.501988
0.495702
0.489762
0.482256
0.472951
0.461727
0.4464
0.423544
0.397627
0.381842
0.375015
0.370614
0.366848
0.363708
0.361286
0.359658
0.358732
0.358455
0.358561
0.358807
0.35897
0.361544
0.374232
0.417924
0.453968
0.470943
0.489343
0.50807
0.519606
0.520043
0.42084
0.422298
0.426963
0.434858
0.445799
0.461979
0.486096
0.508125
0.520214
0.524849
0.518893
0.509719
0.501504
0.493793
0.484335
0.472622
0.457787
0.43647
0.408162
0.385449
0.375442
0.370521
0.366671
0.363408
0.360828
0.359047
0.35802
0.357707
0.357825
0.358107
0.358304
0.360877
0.373554
0.417556
0.453759
0.470869
0.489236
0.507852
0.519339
0.519763
0.396908
0.397493
0.400159
0.406037
0.416885
0.433129
0.456845
0.490236
0.518588
0.535192
0.535185
0.525967
0.515
0.505212
0.495494
0.483566
0.468567
0.448191
0.41955
0.39105
0.376473
0.370575
0.366611
0.363266
0.360553
0.358621
0.357487
0.357129
0.357258
0.357573
0.357811
0.360394
0.373159
0.417522
0.453759
0.470915
0.489239
0.507727
0.519132
0.519535
0.383803
0.38354
0.383961
0.385659
0.393122
0.407101
0.429052
0.463237
0.505825
0.534182
0.549087
0.54474
0.531419
0.517986
0.50634
0.493987
0.478744
0.458737
0.430492
0.398038
0.378077
0.370631
0.366532
0.363148
0.360331
0.358262
0.357028
0.356628
0.35677
0.357124
0.357402
0.359992
0.372728
0.417325
0.453651
0.470884
0.489121
0.507503
0.518873
0.519273
0.37948
0.379093
0.378185
0.376629
0.378977
0.389887
0.407368
0.438498
0.487723
0.531599
0.555446
0.560166
0.551178
0.53434
0.517985
0.50365
0.487955
0.468066
0.440272
0.405451
0.380278
0.370786
0.36647
0.363071
0.360178
0.357987
0.356661
0.356224
0.356383
0.356776
0.357098
0.359701
0.37248
0.417371
0.453742
0.471023
0.489131
0.507387
0.518648
0.518998
0.378361
0.379609
0.380313
0.37875
0.378209
0.381112
0.389743
0.425494
0.478495
0.533147
0.562683
0.572502
0.568851
0.553078
0.531708
0.513093
0.495863
0.475756
0.448381
0.412338
0.382747
0.370978
0.366396
0.363006
0.36006
0.357764
0.356358
0.35589
0.356067
0.356499
0.356858
0.359473
0.372255
0.417357
0.453781
0.471108
0.489042
0.507248
0.518409
0.518754
0.378895
0.376923
0.37368
0.372164
0.372819
0.376793
0.384715
0.409965
0.477148
0.539068
0.575862
0.588336
0.586741
0.572778
0.546865
0.522414
0.502543
0.481714
0.454539
0.417979
0.385126
0.37121
0.366341
0.362972
0.35999
0.357605
0.35613
0.355639
0.355833
0.3563
0.356689
0.359315
0.372104
0.417423
0.453917
0.471274
0.488975
0.507145
0.518222
0.518572
0.428425
0.425383
0.420911
0.420812
0.419955
0.41554
0.416042
0.426952
0.493295
0.559072
0.592859
0.601074
0.599586
0.587357
0.560042
0.53072
0.507969
0.486008
0.458604
0.421769
0.386913
0.371403
0.366301
0.362973
0.359964
0.357507
0.355983
0.355479
0.355689
0.35618
0.356589
0.359219
0.37201
0.417498
0.454057
0.471409
0.488884
0.507023
0.518127
0.518483
)
;

boundaryField
{
    inlet
    {
        type            fixedValue;
        value           uniform 1;
    }
    outlet
    {
        type            zeroGradient;
    }
    obstacle
    {
        type            zeroGradient;
    }
    empty
    {
        type            empty;
    }
}


// ************************************************************************* //
