/*--------------------------------*- C++ -*----------------------------------*\
| =========                 |                                                 |
| \\      /  F ield         | OpenFOAM: The Open Source CFD Toolbox           |
|  \\    /   O peration     | Version:  v1912                                 |
|   \\  /    A nd           | Website:  www.openfoam.com                      |
|    \\/     M anipulation  |                                                 |
\*---------------------------------------------------------------------------*/
FoamFile
{
    version     2.0;
    format      ascii;
    class       volVectorField;
    location    "0.22";
    object      U;
}
// * * * * * * * * * * * * * * * * * * * * * * * * * * * * * * * * * * * * * //

dimensions      [0 1 -1 0 0 0 0];


internalField   nonuniform List<vector> 
1900
(
(0 0 0)
(-9.37927e-18 6.29336e-17 0)
(1.22169e-17 -1.26882e-18 0)
(0 0 0)
(6.67745e-19 7.16884e-17 0)
(-7.25799e-19 1.52259e-17 0)
(0 8.58992e-17 0)
(-7.59227e-18 0 0)
(6.19188e-17 -2.10624e-17 0)
(7.24983e-14 3.8203e-15 0)
(0 0 0)
(-2.78359e-17 -3.17205e-18 0)
(3.50898e-17 -1.29927e-16 0)
(0 -2.03011e-18 0)
(2.88607e-18 0 0)
(-4.01793e-18 0 0)
(0 -2.82947e-17 0)
(-1.33814e-21 9.84606e-17 0)
(2.30038e-16 3.42582e-17 0)
(1.26523e-13 1.24357e-14 0)
(0 0 0)
(-5.8979e-17 0 0)
(6.79641e-17 -3.17205e-18 0)
(0 0 0)
(2.52159e-17 0 0)
(-3.25177e-17 0 0)
(0 9.85874e-17 0)
(-7.50729e-20 0 0)
(2.99829e-16 0 0)
(1.67204e-13 5.01854e-17 0)
(0 0 0)
(0 0 0)
(0 -2.94367e-17 0)
(0 0 0)
(6.37948e-17 -3.21012e-17 0)
(-6.28899e-17 9.4781e-17 0)
(0 0 0)
(-2.10423e-18 -1.36145e-16 0)
(2.00475e-16 -3.64152e-17 0)
(1.26139e-13 -1.39878e-14 0)
(0 0 0)
(0 -2.81678e-17 0)
(0 -1.78523e-16 0)
(0 -5.17679e-17 0)
(0 -1.70022e-16 0)
(0 -2.32194e-17 0)
(0 0 0)
(-1.90323e-17 -3.29894e-18 0)
(-5.57013e-17 -4.60582e-17 0)
(6.98392e-14 -4.63957e-15 0)
(2.40637e-12 1.36713e-13 0)
(1.45771e-10 9.47071e-12 0)
(3.60527e-09 2.96834e-10 0)
(4.85948e-08 5.58616e-09 0)
(2.78669e-07 3.99391e-08 0)
(3.72107e-12 4.4662e-13 0)
(2.00187e-10 2.37346e-11 0)
(4.98389e-09 7.14361e-10 0)
(6.93132e-08 1.44264e-08 0)
(3.70003e-07 9.47829e-08 0)
(4.54308e-12 -6.01196e-16 0)
(2.27978e-10 -8.90638e-15 0)
(5.91904e-09 2.2258e-14 0)
(8.62878e-08 -5.45185e-15 0)
(4.57804e-07 5.77048e-15 0)
(3.71961e-12 -4.45879e-13 0)
(2.00165e-10 -2.37509e-11 0)
(4.98396e-09 -7.14328e-10 0)
(6.93132e-08 -1.44264e-08 0)
(3.70003e-07 -9.47829e-08 0)
(2.41202e-12 -1.35442e-13 0)
(1.45753e-10 -9.4676e-12 0)
(3.6053e-09 -2.96852e-10 0)
(4.85948e-08 -5.58615e-09 0)
(2.78669e-07 -3.99391e-08 0)
(-1.11747e-05 -9.97137e-07 0)
(-0.000728235 -3.31181e-05 0)
(-0.00786219 0.000332098 0)
(-0.0337731 0.00651414 0)
(-0.0754459 0.0272166 0)
(-1.53873e-05 -3.07084e-06 0)
(-0.000908499 -0.000112505 0)
(-0.00823871 0.000363268 0)
(-0.0255526 0.00876479 0)
(-0.0295125 0.0307207 0)
(-1.84689e-05 6.63684e-15 0)
(-0.00104122 3.68892e-15 0)
(-0.00860033 -1.0917e-14 0)
(-0.0200527 7.76705e-15 0)
(-0.00863924 1.71356e-16 0)
(-1.53873e-05 3.07084e-06 0)
(-0.000908499 0.000112505 0)
(-0.00823871 -0.000363268 0)
(-0.0255526 -0.00876479 0)
(-0.0295125 -0.0307207 0)
(-1.11747e-05 9.97137e-07 0)
(-0.000728235 3.31181e-05 0)
(-0.00786219 -0.000332098 0)
(-0.0337731 -0.00651414 0)
(-0.0754459 -0.0272166 0)
(-0.211454 0.0177495 0)
(-0.0657112 -0.0621942 0)
(-0.0339393 -0.0187472 0)
(-0.00529916 -0.00201056 0)
(-0.000198263 -3.83176e-05 0)
(-1.07531e-06 -9.8504e-08 0)
(-5.4577e-10 -2.41144e-11 0)
(-2.15988e-14 -3.97949e-16 0)
(1.9187e-18 -8.35115e-17 0)
(-1.81013e-17 2.03011e-17 0)
(2.34452e-17 1.09349e-16 0)
(1.90948e-17 -1.25498e-16 0)
(1.86626e-17 4.17558e-17 0)
(-5.30649e-17 -1.07965e-16 0)
(-1.3609e-17 5.92886e-17 0)
(1.44892e-16 -5.05222e-17 0)
(-2.28096e-17 0 0)
(-6.7217e-17 0 0)
(-9.9937e-17 1.67254e-16 0)
(5.85637e-17 -4.42934e-17 0)
(2.53625e-17 6.13648e-17 0)
(2.38276e-17 -1.50413e-16 0)
(-2.51197e-17 8.48957e-17 0)
(-6.45113e-17 3.62191e-16 0)
(-1.09441e-17 6.92085e-19 0)
(1.47659e-16 2.76834e-17 0)
(6.83871e-17 -2.7222e-17 0)
(-9.91126e-17 0 0)
(-4.55684e-18 3.35892e-16 0)
(3.42906e-17 3.81108e-16 0)
(6.81715e-17 1.12348e-16 0)
(3.63127e-17 2.67606e-17 0)
(4.37877e-14 -1.93622e-15 0)
(1.04281e-09 -1.13001e-14 0)
(2.04103e-06 7.39263e-15 0)
(0.000375874 -4.2044e-15 0)
(0.0099907 5.18238e-14 0)
(0.0650207 8.49067e-15 0)
(0.159278 3.03e-14 0)
(0.678284 1.96286e-14 0)
(-0.0275991 0.0125479 0)
(-0.016507 -0.0369097 0)
(-0.020281 -0.0130865 0)
(-0.00429859 -0.00127973 0)
(-0.000192218 -1.50781e-05 0)
(-1.15274e-06 2.0192e-08 0)
(-6.33998e-10 4.05989e-11 0)
(-2.52174e-14 1.76758e-15 0)
(8.20115e-18 -1.83864e-16 0)
(-4.20701e-17 -7.88976e-17 0)
(-2.89652e-18 4.15251e-18 0)
(4.7063e-17 2.10855e-16 0)
(4.95314e-17 6.20569e-17 0)
(-7.04455e-17 0 0)
(-3.89562e-18 -2.30695e-19 0)
(1.1328e-16 5.05222e-17 0)
(3.62591e-19 0 0)
(-4.39627e-17 1.24575e-17 0)
(-1.28545e-16 3.49041e-16 0)
(6.86231e-17 1.58718e-16 0)
(7.65251e-18 0 0)
(6.4145e-17 1.31496e-16 0)
(2.13513e-17 1.10272e-16 0)
(-1.33294e-16 4.27478e-16 0)
(-1.4219e-16 2.05088e-16 0)
(1.44847e-16 -9.87374e-17 0)
(8.44591e-17 -2.7891e-16 0)
(-1.03052e-17 9.18166e-17 0)
(6.94359e-17 1.7925e-16 0)
(-6.24948e-18 4.52162e-17 0)
(-2.75034e-17 0 0)
(3.44836e-17 -2.03473e-16 0)
(4.36196e-14 -3.7857e-16 0)
(1.04281e-09 -1.12646e-14 0)
(2.04103e-06 6.44747e-15 0)
(0.000375874 -7.12242e-15 0)
(0.0099907 3.55059e-14 0)
(0.0650207 -6.44533e-15 0)
(0.159278 7.63327e-16 0)
(0.678284 -5.40648e-15 0)
(0.0135719 2.38623e-14 0)
(0.000388305 1.68421e-14 0)
(-0.0136787 6.1325e-15 0)
(-0.00398568 -1.57851e-14 0)
(-0.000215166 8.39015e-15 0)
(-1.3973e-06 1.67856e-14 0)
(-7.91821e-10 -2.83363e-15 0)
(-3.09734e-14 -3.06132e-16 0)
(-3.96535e-18 6.92085e-19 0)
(-8.12085e-17 -7.61293e-18 0)
(7.19662e-17 -3.04517e-17 0)
(6.44288e-18 2.86292e-16 0)
(2.3137e-17 -3.0221e-17 0)
(-1.35403e-16 1.6587e-16 0)
(-3.14327e-17 -6.45946e-17 0)
(1.41402e-16 0 0)
(-5.30096e-18 0 0)
(-8.98316e-18 2.07625e-18 0)
(-5.84186e-17 3.21358e-16 0)
(7.83485e-18 2.77065e-16 0)
(1.54014e-17 2.86062e-17 0)
(6.85606e-17 3.45812e-16 0)
(7.21359e-18 2.14546e-16 0)
(-8.70899e-17 2.34386e-16 0)
(-2.16705e-16 3.43735e-16 0)
(-3.70514e-18 1.04274e-16 0)
(1.75484e-16 -7.1054e-17 0)
(1.67223e-17 2.46844e-16 0)
(-2.38792e-17 0 0)
(-2.18253e-17 -4.2817e-16 0)
(1.44228e-17 -1.10503e-16 0)
(2.38868e-17 -1.10964e-16 0)
(4.34581e-14 3.28671e-15 0)
(1.04281e-09 -1.88635e-14 0)
(2.04103e-06 -9.92336e-15 0)
(0.000375874 4.78551e-15 0)
(0.0099907 1.75071e-14 0)
(0.0650207 -1.7973e-14 0)
(0.159278 -9.35048e-15 0)
(0.678284 -2.56946e-14 0)
(-0.0275991 -0.0125479 0)
(-0.016507 0.0369097 0)
(-0.020281 0.0130865 0)
(-0.00429859 0.00127973 0)
(-0.000192218 1.50781e-05 0)
(-1.15274e-06 -2.0192e-08 0)
(-6.33996e-10 -4.05981e-11 0)
(-2.50005e-14 -1.71106e-15 0)
(5.42542e-17 1.83864e-16 0)
(-5.11048e-17 1.26882e-16 0)
(4.38874e-17 -1.34726e-16 0)
(-3.27902e-17 1.29881e-16 0)
(4.07186e-17 -5.30598e-18 0)
(-3.90495e-17 3.11899e-16 0)
(-6.34668e-17 6.5056e-17 0)
(6.23247e-17 0 0)
(-1.82131e-17 0 0)
(-1.96089e-17 0 0)
(1.4403e-17 9.22779e-17 0)
(-3.55229e-17 1.01044e-16 0)
(2.15801e-17 0 0)
(9.98531e-17 4.10637e-17 0)
(1.04063e-17 -1.75328e-17 0)
(-1.33041e-16 -1.38417e-18 0)
(-1.27518e-16 1.63101e-16 0)
(3.3782e-18 2.93213e-16 0)
(1.68566e-16 0 0)
(5.82467e-17 1.70714e-17 0)
(-1.34726e-16 0 0)
(-5.54496e-17 -2.65991e-16 0)
(2.22433e-17 -7.75135e-17 0)
(2.7917e-17 -2.03242e-16 0)
(4.6049e-14 1.41324e-15 0)
(1.04279e-09 -3.23058e-14 0)
(2.04103e-06 -1.51583e-14 0)
(0.000375874 1.71008e-14 0)
(0.0099907 2.03513e-15 0)
(0.0650207 -2.43365e-14 0)
(0.159278 -2.0556e-14 0)
(0.678284 -2.17476e-14 0)
(-0.211454 -0.0177495 0)
(-0.0657112 0.0621942 0)
(-0.0339393 0.0187472 0)
(-0.00529916 0.00201056 0)
(-0.000198263 3.83176e-05 0)
(-1.07531e-06 9.8504e-08 0)
(-5.45768e-10 2.41176e-11 0)
(-2.16318e-14 2.47074e-16 0)
(7.9937e-17 8.28195e-17 0)
(-6.43612e-17 -5.95193e-17 0)
(8.85674e-17 -9.13552e-17 0)
(1.71569e-17 0 0)
(-5.41858e-18 -6.89778e-17 0)
(3.02071e-17 1.41877e-16 0)
(-4.55951e-17 1.22268e-16 0)
(1.21411e-18 0 0)
(-4.31611e-17 0 0)
(3.424e-19 0 0)
(4.58445e-27 -1.04505e-16 0)
(-6.08562e-24 -7.56679e-17 0)
(-1.54628e-24 0 0)
(8.59611e-18 0 0)
(9.11365e-24 -2.16853e-16 0)
(-4.32402e-17 -1.80865e-16 0)
(-2.27399e-17 0 0)
(-9.37348e-18 1.55027e-16 0)
(9.06337e-17 0 0)
(8.3294e-17 -3.28971e-16 0)
(-7.53197e-17 -1.19961e-17 0)
(1.73277e-17 -1.22499e-16 0)
(-4.97866e-26 -1.69791e-16 0)
(-1.07752e-17 -1.40032e-16 0)
(4.4565e-14 -1.02429e-15 0)
(1.04278e-09 -1.4438e-14 0)
(2.04103e-06 -6.13788e-15 0)
(0.000375874 1.37812e-14 0)
(0.0099907 -3.53255e-14 0)
(0.0650207 -1.92236e-14 0)
(0.159278 -4.0671e-14 0)
(0.678284 -2.383e-14 0)
(-0.596092 -0.00482375 0)
(-0.13434 0.0427998 0)
(-0.0520198 0.00999516 0)
(-0.00754615 0.00133053 0)
(-0.000271821 3.64754e-05 0)
(-1.43448e-06 1.48985e-07 0)
(-7.20397e-10 5.8206e-11 0)
(-2.94409e-14 3.07686e-15 0)
(-1.65144e-17 2.43753e-17 0)
(-3.72132e-17 1.14564e-16 0)
(-6.57538e-27 1.87342e-17 0)
(2.73183e-17 4.61738e-17 0)
(-1.96477e-17 2.34699e-17 0)
(-6.66272e-18 -8.70547e-17 0)
(7.70264e-19 1.5043e-17 0)
(-2.35938e-18 1.30234e-17 0)
(4.5086e-25 0 0)
(-9.74657e-19 0 0)
(-1.7359e-24 -9.39494e-17 0)
(2.317e-22 -3.69808e-17 0)
(6.89325e-23 0 0)
(-5.41833e-28 -1.92913e-17 0)
(1.87544e-22 -1.31487e-16 0)
(-1.27797e-17 -9.80584e-17 0)
(2.00249e-17 0 0)
(-1.74107e-17 8.14832e-18 0)
(1.84266e-17 -7.89063e-17 0)
(-6.14884e-20 -1.51405e-16 0)
(1.38638e-19 -1.13659e-16 0)
(3.71332e-17 8.98404e-18 0)
(-5.33467e-25 -7.84188e-17 0)
(-2.32713e-17 -6.059e-18 0)
(4.52586e-14 -8.13926e-16 0)
(1.04278e-09 3.7329e-17 0)
(2.04103e-06 2.51605e-14 0)
(0.000375874 8.97486e-15 0)
(0.0099907 -4.33674e-14 0)
(0.0650207 -1.50952e-14 0)
(0.159278 -1.50832e-14 0)
(0.678284 -1.57919e-14 0)
(-0.676432 0.000552185 0)
(-0.157822 0.0062902 0)
(-0.0636371 0.00185625 0)
(-0.00967319 0.000317453 0)
(-0.000359877 1.05892e-05 0)
(-1.93687e-06 4.89172e-08 0)
(-9.83405e-10 2.09386e-11 0)
(-4.25475e-14 3.35404e-16 0)
(-1.69532e-17 -1.24105e-16 0)
(-1.03881e-16 -2.84146e-17 0)
(-1.04127e-25 0 0)
(6.08182e-17 -4.61738e-17 0)
(-3.48347e-17 0 0)
(-2.135e-17 0 0)
(9.65565e-18 1.77592e-17 0)
(-1.54586e-17 1.22294e-16 0)
(-1.2401e-20 1.83859e-17 0)
(-1.71719e-17 0 0)
(-8.39498e-23 2.08931e-19 0)
(1.66239e-21 9.62476e-17 0)
(1.21952e-20 2.78575e-19 0)
(-9.13452e-27 0 0)
(1.58196e-20 0 0)
(-4.80566e-17 0 0)
(4.77406e-17 -4.61738e-17 0)
(-4.33249e-17 0 0)
(5.2428e-17 -4.50595e-17 0)
(-1.00088e-18 0 0)
(3.18885e-18 -1.14216e-17 0)
(1.01655e-16 0 0)
(-2.36683e-23 0 0)
(-7.12072e-17 0 0)
(4.25195e-14 -1.37602e-15 0)
(1.04279e-09 2.98152e-15 0)
(2.04103e-06 1.70279e-15 0)
(0.000375874 1.21089e-14 0)
(0.0099907 9.79786e-16 0)
(0.0650207 -2.90587e-15 0)
(0.159278 2.86009e-15 0)
(0.678284 4.64533e-15 0)
(-0.678285 2.04236e-05 0)
(-0.159256 0.000199247 0)
(-0.0649845 6.93892e-05 0)
(-0.00998123 1.33329e-05 0)
(-0.000375343 4.93117e-07 0)
(-2.03735e-06 2.49065e-09 0)
(-1.04062e-09 1.1358e-12 0)
(-4.26655e-14 1.06764e-16 0)
(-6.14079e-19 -1.6227e-17 0)
(-6.25729e-18 0 0)
(-1.18226e-22 0 0)
(1.66177e-22 0 0)
(5.7428e-17 9.75012e-19 0)
(9.8439e-17 1.13101e-16 0)
(-8.2623e-17 1.74109e-17 0)
(-8.51556e-17 2.65343e-17 0)
(-1.95837e-18 1.26194e-16 0)
(-5.08434e-17 4.61042e-17 0)
(-3.23737e-20 0 0)
(-5.3389e-20 2.01967e-18 0)
(1.49381e-18 0 0)
(-6.08647e-23 0 0)
(2.63631e-19 7.65385e-17 0)
(-2.53485e-18 0 0)
(6.87562e-19 4.61738e-17 0)
(-3.48568e-19 -3.0295e-17 0)
(1.92235e-17 6.53955e-17 0)
(-1.60119e-17 0 0)
(-1.42039e-35 0 0)
(5.64445e-18 0 0)
(-2.65541e-20 0 0)
(-9.44436e-17 -4.61738e-17 0)
(4.2101e-14 -2.71611e-17 0)
(1.04279e-09 9.23817e-15 0)
(2.04103e-06 -9.31738e-15 0)
(0.000375874 1.01048e-14 0)
(0.0099907 3.20144e-14 0)
(0.0650207 1.69142e-14 0)
(0.159278 9.75773e-15 0)
(0.678284 2.21484e-14 0)
(-0.678284 2.36737e-06 0)
(-0.159277 1.0507e-06 0)
(-0.0650206 3.83813e-07 0)
(-0.00999066 7.7704e-08 0)
(-0.000375872 2.98559e-09 0)
(-2.04101e-06 1.54583e-11 0)
(-1.04278e-09 2.33623e-14 0)
(-4.52235e-14 -3.99059e-17 0)
(1.61936e-17 0 0)
(-5.67315e-21 0 0)
(-9.18876e-21 0 0)
(1.4248e-19 0 0)
(3.71476e-17 -7.53545e-17 0)
(9.89076e-18 2.0336e-17 0)
(-4.27774e-17 0 0)
(-1.60452e-18 -8.94922e-17 0)
(3.71787e-19 -1.45904e-16 0)
(5.29475e-18 -4.61042e-17 0)
(-2.26391e-18 0 0)
(2.15963e-18 0 0)
(2.39845e-17 0 0)
(-2.61659e-20 0 0)
(2.25356e-18 0 0)
(-3.05753e-17 0 0)
(3.07826e-18 0 0)
(-2.09625e-18 8.88654e-17 0)
(4.80036e-17 0 0)
(-4.7705e-17 0 0)
(7.83081e-33 0 0)
(1.71432e-18 0 0)
(-2.43586e-18 0 0)
(-6.66963e-17 4.61738e-17 0)
(4.26614e-14 5.58473e-16 0)
(1.04281e-09 5.23568e-15 0)
(2.04103e-06 -1.67667e-14 0)
(0.000375874 2.24366e-15 0)
(0.0099907 2.13272e-14 0)
(0.0650207 -1.13641e-15 0)
(0.159278 1.95723e-15 0)
(0.678284 -1.00484e-15 0)
(-0.678284 3.45752e-08 0)
(-0.159278 1.52173e-09 0)
(-0.0650207 2.10195e-10 0)
(-0.0099907 4.27196e-11 0)
(-0.000375874 1.60288e-12 0)
(-2.04103e-06 5.06096e-14 0)
(-1.04282e-09 7.55871e-15 0)
(-4.2881e-14 4.31791e-18 0)
(8.24362e-17 -3.30111e-17 0)
(2.4126e-19 0 0)
(-6.73931e-20 4.61738e-17 0)
(3.04973e-18 0 0)
(1.01789e-16 0 0)
(3.08573e-17 0 0)
(-1.12266e-16 -3.27326e-18 0)
(-1.67351e-17 -9.91727e-17 0)
(2.70192e-18 -3.0295e-17 0)
(1.96191e-17 0 0)
(-2.09919e-17 0 0)
(2.22678e-17 0 0)
(7.8508e-17 0 0)
(-1.03304e-18 0 0)
(1.38839e-17 -5.85007e-17 0)
(-8.17944e-17 3.71201e-17 0)
(3.85386e-18 2.74396e-17 0)
(-2.31889e-17 1.23269e-16 0)
(2.43776e-17 2.55592e-17 0)
(-2.32345e-17 0 0)
(-2.64135e-31 0 0)
(1.19586e-17 0 0)
(-2.96339e-17 0 0)
(7.61535e-18 0 0)
(4.30539e-14 -1.47854e-16 0)
(1.0428e-09 -1.2541e-14 0)
(2.04103e-06 -1.29349e-14 0)
(0.000375874 5.3125e-15 0)
(0.0099907 8.46681e-16 0)
(0.0650207 -2.55924e-14 0)
(0.159278 -1.51327e-15 0)
(0.678284 -1.15373e-14 0)
(-0.678284 3.15532e-11 0)
(-0.159278 7.49847e-13 0)
(-0.0650207 1.93184e-14 0)
(-0.0099907 1.93101e-14 0)
(-0.000375874 1.50406e-14 0)
(-2.04103e-06 1.52778e-15 0)
(-1.04282e-09 -3.98404e-15 0)
(-4.51975e-14 3.51144e-16 0)
(-6.70216e-17 5.94061e-17 0)
(6.8439e-18 0 0)
(-3.85241e-19 -4.61738e-17 0)
(-9.82103e-21 -1.1143e-17 0)
(9.59632e-18 7.47277e-17 0)
(6.8912e-17 -3.06432e-18 0)
(-2.67952e-17 9.26958e-17 0)
(-3.27782e-18 4.84024e-17 0)
(-4.50821e-17 0 0)
(5.05841e-17 0 0)
(-4.50021e-17 0 0)
(5.08183e-17 -4.61738e-17 0)
(-4.47974e-17 0 0)
(-5.29942e-18 -4.61738e-17 0)
(4.97395e-17 0 0)
(-1.42111e-21 -5.51578e-17 0)
(4.96726e-17 -4.61738e-17 0)
(-4.60832e-17 -1.28423e-16 0)
(4.94739e-17 -3.26629e-17 0)
(-4.63165e-17 4.61042e-17 0)
(-1.26595e-26 0 0)
(2.04416e-17 0 0)
(-7.93935e-17 0 0)
(1.58552e-17 -4.61738e-17 0)
(4.21959e-14 -2.14363e-16 0)
(1.04279e-09 -1.6468e-15 0)
(2.04103e-06 1.20538e-14 0)
(0.000375874 1.51122e-15 0)
(0.0099907 5.3928e-15 0)
(0.0650207 -6.13978e-15 0)
(0.159278 8.64243e-15 0)
(0.678284 1.50672e-14 0)
(-0.678284 -9.77694e-16 0)
(-0.159278 -3.06325e-15 0)
(-0.0650207 5.72119e-15 0)
(-0.0099907 4.29728e-15 0)
(-0.000375874 2.85815e-15 0)
(-2.04103e-06 2.26816e-15 0)
(-1.04281e-09 -1.87777e-14 0)
(-4.33696e-14 -1.11806e-15 0)
(1.34304e-17 -5.92668e-17 0)
(2.21704e-18 0 0)
(-1.93229e-18 -9.26262e-18 0)
(-1.16948e-19 -1.1345e-16 0)
(-9.42178e-30 -1.77592e-17 0)
(-3.32074e-20 -1.1331e-16 0)
(8.63044e-17 -1.04466e-18 0)
(-2.72728e-17 1.40471e-16 0)
(-1.32509e-16 4.46416e-17 0)
(-1.82085e-17 -1.92217e-17 0)
(2.15716e-17 0 0)
(1.1589e-20 4.61738e-17 0)
(-2.07592e-20 0 0)
(-2.10952e-17 4.61738e-17 0)
(-1.88135e-17 4.61042e-17 0)
(-1.2724e-20 0 0)
(-9.34621e-22 4.61738e-17 0)
(1.12845e-17 -1.51823e-17 0)
(-1.24018e-17 0 0)
(6.90737e-25 -4.61042e-17 0)
(-5.10996e-23 0 0)
(4.80219e-30 0 0)
(2.00163e-17 5.64114e-18 0)
(2.09156e-17 4.61738e-17 0)
(4.25458e-14 2.38112e-16 0)
(1.0428e-09 1.60936e-14 0)
(2.04103e-06 1.43645e-14 0)
(0.000375874 -1.77659e-16 0)
(0.0099907 4.47499e-15 0)
(0.0650207 1.61184e-14 0)
(0.159278 2.74751e-14 0)
(0.678284 3.13772e-14 0)
(-0.678284 -2.66104e-14 0)
(-0.159278 -1.14621e-14 0)
(-0.0650207 -3.74722e-16 0)
(-0.0099907 5.74238e-15 0)
(-0.000375874 -1.62485e-14 0)
(-2.04103e-06 -2.73652e-15 0)
(-1.04279e-09 -1.35358e-14 0)
(-4.27619e-14 8.35934e-16 0)
(8.14981e-17 3.28718e-17 0)
(3.28801e-17 0 0)
(-4.10269e-17 0 0)
(-2.00197e-18 0 0)
(-1.61007e-28 0 0)
(-1.04149e-18 -1.12823e-17 0)
(5.35083e-17 0 0)
(-2.69521e-20 0 0)
(-5.40931e-17 -2.04753e-17 0)
(1.48583e-18 -1.16096e-16 0)
(9.72491e-17 -2.04753e-17 0)
(4.98515e-19 0 0)
(-5.28277e-19 0 0)
(-6.04346e-17 0 0)
(-5.38392e-17 -4.61042e-17 0)
(-1.86915e-18 0 0)
(-2.01504e-20 0 0)
(4.52742e-17 0 0)
(-5.04734e-17 0 0)
(1.17599e-23 -3.18968e-17 0)
(-9.3229e-21 0 0)
(2.93489e-28 1.68538e-17 0)
(5.87668e-17 1.24244e-16 0)
(-3.62444e-17 2.84843e-17 0)
(4.2746e-14 -1.06207e-16 0)
(1.04282e-09 5.79596e-15 0)
(2.04103e-06 1.55466e-15 0)
(0.000375874 -7.1582e-15 0)
(0.0099907 -1.70413e-14 0)
(0.0650207 -1.9618e-15 0)
(0.159278 -6.40428e-15 0)
(0.678284 4.98374e-16 0)
(-0.678284 4.50219e-15 0)
(-0.159278 7.85546e-15 0)
(-0.0650207 -1.11667e-14 0)
(-0.0099907 2.60434e-15 0)
(-0.000375874 7.5788e-15 0)
(-2.04103e-06 -1.53045e-14 0)
(-1.04277e-09 1.4176e-15 0)
(-4.53824e-14 9.26262e-17 0)
(-2.39557e-17 0 0)
(1.1696e-16 0 0)
(-1.15706e-16 4.15773e-17 0)
(-2.00074e-17 1.32462e-16 0)
(-1.79744e-27 1.81074e-17 0)
(2.80212e-17 0 0)
(1.2904e-16 -5.22328e-17 0)
(1.73057e-18 -1.54122e-16 0)
(-1.24343e-16 -1.32323e-17 0)
(-2.16919e-17 8.95618e-17 0)
(2.99493e-18 0 0)
(1.74524e-18 0 0)
(-1.76524e-18 -6.43508e-17 0)
(2.28514e-17 0 0)
(1.56188e-18 0 0)
(-3.45488e-17 0 0)
(-2.73672e-18 0 0)
(-2.00972e-17 -4.61738e-17 0)
(-5.2763e-19 -4.61738e-17 0)
(1.62778e-22 -1.24105e-16 0)
(-1.18328e-19 -2.84146e-17 0)
(1.68929e-26 -7.55634e-17 0)
(3.44592e-17 -1.02307e-16 0)
(-6.09192e-17 -6.61615e-18 0)
(4.23787e-14 9.37126e-16 0)
(1.04281e-09 -1.06691e-14 0)
(2.04103e-06 -3.06377e-15 0)
(0.000375874 -8.74738e-15 0)
(0.0099907 -3.48925e-14 0)
(0.0650207 5.38699e-15 0)
(0.159278 -1.58553e-14 0)
(0.678284 -1.1658e-14 0)
(-0.678284 1.68556e-14 0)
(-0.159278 1.09998e-14 0)
(-0.0650207 -4.6622e-15 0)
(-0.0099907 -9.327e-15 0)
(-0.000375874 2.07758e-14 0)
(-2.04103e-06 -3.21783e-15 0)
(-1.04279e-09 1.64029e-14 0)
(-4.28207e-14 -1.00162e-15 0)
(-3.84889e-17 0 0)
(6.70629e-17 3.80951e-17 0)
(-2.87677e-17 1.33925e-16 0)
(-1.13028e-23 2.22164e-17 0)
(-6.39176e-27 1.39287e-19 0)
(8.67117e-17 2.08931e-19 0)
(-8.8205e-18 0 0)
(1.70332e-17 0 0)
(-4.42928e-17 0 0)
(-1.4254e-18 0 0)
(9.04642e-19 0 0)
(2.02084e-17 0 0)
(1.67497e-18 6.43508e-17 0)
(9.73012e-17 0 0)
(2.57622e-17 0 0)
(-1.17959e-16 0 0)
(-2.2154e-17 0 0)
(-5.65849e-17 4.61738e-17 0)
(-2.20886e-18 4.61738e-17 0)
(2.6411e-21 3.12004e-17 0)
(-1.04383e-18 -4.61738e-17 0)
(1.7417e-24 0 0)
(6.02951e-17 -5.08399e-18 0)
(3.75637e-18 9.08154e-17 0)
(4.52036e-14 -1.74806e-17 0)
(1.04279e-09 -6.76784e-15 0)
(2.04103e-06 2.54618e-16 0)
(0.000375874 2.66731e-14 0)
(0.0099907 -1.48618e-14 0)
(0.0650207 6.78797e-15 0)
(0.159278 1.27178e-14 0)
(0.678284 3.56215e-15 0)
(-0.678284 5.30451e-15 0)
(-0.159278 -4.95359e-15 0)
(-0.0650207 5.5702e-15 0)
(-0.0099907 -1.23404e-15 0)
(-0.000375874 -9.44478e-15 0)
(-2.04103e-06 1.04112e-14 0)
(-1.04281e-09 1.3421e-15 0)
(-4.278e-14 -1.17768e-16 0)
(-5.06819e-18 0 0)
(-2.33298e-23 0 0)
(8.31805e-17 3.13397e-18 0)
(1.28382e-22 0 0)
(-2.74087e-25 -1.39287e-19 0)
(1.98823e-17 9.25565e-17 0)
(-4.94214e-17 2.31217e-17 0)
(4.63072e-17 1.07808e-16 0)
(-1.02871e-16 2.31217e-17 0)
(7.1287e-19 -1.1143e-17 0)
(1.37495e-17 0 0)
(5.2744e-17 2.06145e-17 0)
(-4.30433e-17 1.16375e-16 0)
(2.10794e-17 2.06145e-17 0)
(-1.44027e-17 0 0)
(-4.52627e-17 0 0)
(-1.37019e-21 0 0)
(1.55101e-17 0 0)
(-6.50381e-18 1.37198e-17 0)
(4.78653e-20 1.20414e-16 0)
(-4.2383e-18 4.61738e-17 0)
(1.56483e-22 7.66081e-17 0)
(1.12412e-17 1.1143e-17 0)
(9.35926e-19 1.06764e-16 0)
(4.2357e-14 -4.70861e-16 0)
(1.0428e-09 8.65839e-15 0)
(2.04103e-06 1.20229e-14 0)
(0.000375874 1.73354e-14 0)
(0.0099907 1.34566e-14 0)
(0.0650207 -3.17615e-15 0)
(0.159278 2.44933e-14 0)
(0.678284 1.85654e-14 0)
(-0.678284 -8.78113e-16 0)
(-0.159278 -1.55068e-14 0)
(-0.0650207 -4.30009e-15 0)
(-0.0099907 9.67946e-15 0)
(-0.000375874 -4.7941e-14 0)
(-2.04103e-06 8.83572e-15 0)
(-1.04279e-09 -1.18317e-14 0)
(-4.24687e-14 -7.42402e-17 0)
(-9.01708e-19 5.85007e-18 0)
(-1.32506e-21 -2.97379e-17 0)
(1.98538e-19 -1.16653e-16 0)
(4.37763e-21 -1.09341e-17 0)
(-1.21252e-20 0 0)
(6.93836e-17 -4.17862e-19 0)
(4.99166e-17 8.39903e-17 0)
(-4.58894e-17 -9.75012e-19 0)
(-1.05803e-17 0 0)
(7.42273e-17 2.82057e-17 0)
(7.00661e-17 5.03524e-17 0)
(5.17789e-19 1.23409e-16 0)
(4.30969e-18 2.77878e-17 0)
(1.00134e-16 1.23478e-16 0)
(-5.20382e-17 3.76076e-17 0)
(-1.52063e-16 0 0)
(-4.17357e-19 0 0)
(8.80702e-17 5.00738e-17 0)
(-7.77937e-18 4.59649e-17 0)
(1.8667e-19 1.02585e-16 0)
(-1.06813e-17 4.49202e-17 0)
(6.02611e-21 2.17985e-17 0)
(5.20299e-17 5.04221e-17 0)
(-3.67363e-17 4.30398e-17 0)
(4.53596e-14 2.08263e-15 0)
(1.04282e-09 1.58191e-14 0)
(2.04103e-06 1.96979e-14 0)
(0.000375874 -5.32817e-15 0)
(0.0099907 6.84246e-15 0)
(0.0650207 -1.56022e-14 0)
(0.159278 8.26129e-15 0)
(0.678284 1.39147e-14 0)
(-0.678284 6.83646e-14 0)
(-0.159278 6.01474e-14 0)
(-0.0650207 7.53517e-14 0)
(-0.0099907 1.14177e-13 0)
(-0.000375874 6.29044e-14 0)
(-2.04103e-06 8.91949e-14 0)
(-1.04278e-09 9.5889e-14 0)
(-4.64224e-14 1.0112e-13 0)
(2.52133e-16 9.70387e-14 0)
(-3.90242e-17 9.77429e-14 0)
(2.99797e-16 9.68182e-14 0)
(1.72615e-16 9.86194e-14 0)
(-5.05675e-16 9.73419e-14 0)
(1.39726e-15 9.73096e-14 0)
(8.52657e-17 1.01249e-13 0)
(-1.39528e-15 9.75126e-14 0)
(4.02923e-16 9.73635e-14 0)
(3.47288e-16 9.86818e-14 0)
(9.03207e-16 9.83436e-14 0)
(6.68375e-17 1.01284e-13 0)
(-1.37476e-17 9.85373e-14 0)
(-4.2607e-16 1.01236e-13 0)
(-1.38945e-15 9.68951e-14 0)
(1.83989e-15 9.82422e-14 0)
(2.33159e-17 1.01393e-13 0)
(-1.6267e-15 9.82025e-14 0)
(1.65667e-16 9.72929e-14 0)
(2.01193e-17 9.81024e-14 0)
(1.3297e-16 9.72341e-14 0)
(3.60415e-16 9.88307e-14 0)
(9.97251e-16 9.83628e-14 0)
(9.09618e-16 1.01809e-13 0)
(4.09793e-14 9.6079e-14 0)
(1.04283e-09 1.05546e-13 0)
(2.04103e-06 1.06147e-13 0)
(0.000375874 8.47045e-14 0)
(0.0099907 8.12344e-14 0)
(0.0650207 6.70319e-14 0)
(0.159278 6.63743e-14 0)
(0.678284 6.68316e-14 0)
(-0.678284 1.56174e-09 0)
(-0.159278 1.512e-09 0)
(-0.0650207 1.93768e-09 0)
(-0.0099907 2.04352e-09 0)
(-0.000375874 2.06536e-09 0)
(-2.04103e-06 2.06593e-09 0)
(-1.04281e-09 2.06598e-09 0)
(-3.78362e-14 2.06596e-09 0)
(1.53559e-16 2.06597e-09 0)
(1.7346e-15 2.06596e-09 0)
(3.11042e-15 2.06597e-09 0)
(5.92227e-16 2.06597e-09 0)
(-7.05604e-16 2.06598e-09 0)
(-1.3058e-14 2.06597e-09 0)
(-3.17514e-15 2.06594e-09 0)
(1.27739e-14 2.06596e-09 0)
(3.9124e-15 2.06597e-09 0)
(-1.4257e-14 2.06597e-09 0)
(-8.70145e-15 2.06594e-09 0)
(1.12568e-14 2.06594e-09 0)
(1.74231e-15 2.06596e-09 0)
(7.21114e-16 2.06595e-09 0)
(-4.92555e-15 2.06597e-09 0)
(-1.06659e-14 2.06594e-09 0)
(-2.2381e-15 2.06594e-09 0)
(-4.72734e-16 2.06593e-09 0)
(9.76044e-15 2.06594e-09 0)
(1.82519e-17 2.06596e-09 0)
(-6.93487e-15 2.06594e-09 0)
(1.15183e-15 2.06594e-09 0)
(8.96865e-15 2.06594e-09 0)
(1.48393e-14 2.06596e-09 0)
(5.29623e-14 2.06598e-09 0)
(1.04276e-09 2.06591e-09 0)
(2.04103e-06 2.0659e-09 0)
(0.000375874 2.06526e-09 0)
(0.0099907 2.04352e-09 0)
(0.0650207 1.93769e-09 0)
(0.159278 1.51193e-09 0)
(0.678284 1.56168e-09 0)
(-0.678284 2.68692e-06 0)
(-0.159278 2.60226e-06 0)
(-0.0650207 3.12203e-06 0)
(-0.00999069 3.22067e-06 0)
(-0.000375873 3.2453e-06 0)
(-2.04102e-06 3.24616e-06 0)
(-1.04282e-09 3.24617e-06 0)
(-1.08506e-13 3.24617e-06 0)
(4.87294e-15 3.24617e-06 0)
(-1.45886e-15 3.24617e-06 0)
(-5.40663e-15 3.24617e-06 0)
(2.08883e-14 3.24617e-06 0)
(1.19071e-14 3.24617e-06 0)
(-1.75779e-14 3.24617e-06 0)
(-1.27771e-14 3.24617e-06 0)
(6.43063e-15 3.24617e-06 0)
(-5.88866e-16 3.24617e-06 0)
(-1.53764e-14 3.24617e-06 0)
(-6.60538e-15 3.24617e-06 0)
(1.4876e-16 3.24617e-06 0)
(4.56723e-15 3.24617e-06 0)
(1.6639e-14 3.24617e-06 0)
(1.30654e-15 3.24617e-06 0)
(-1.6366e-14 3.24617e-06 0)
(-5.69382e-15 3.24617e-06 0)
(3.34675e-15 3.24617e-06 0)
(1.55198e-14 3.24617e-06 0)
(5.45823e-15 3.24617e-06 0)
(6.88757e-15 3.24617e-06 0)
(-8.53328e-16 3.24617e-06 0)
(-2.11717e-14 3.24617e-06 0)
(-4.66221e-16 3.24617e-06 0)
(8.4786e-14 3.24617e-06 0)
(1.04276e-09 3.24617e-06 0)
(2.04102e-06 3.24616e-06 0)
(0.000375873 3.2453e-06 0)
(0.00999069 3.22067e-06 0)
(0.0650207 3.12203e-06 0)
(0.159278 2.60226e-06 0)
(0.678284 2.68692e-06 0)
(-0.678258 0.000446513 0)
(-0.15927 0.000431085 0)
(-0.0650126 0.000491779 0)
(-0.00998909 0.000498446 0)
(-0.000375779 0.000501015 0)
(-2.0403e-06 0.000501109 0)
(-1.04236e-09 0.00050111 0)
(-9.43233e-14 0.00050111 0)
(1.34376e-14 0.00050111 0)
(-1.27626e-15 0.00050111 0)
(-2.79418e-14 0.00050111 0)
(-8.09257e-15 0.00050111 0)
(3.06367e-15 0.00050111 0)
(3.57464e-14 0.00050111 0)
(1.38621e-14 0.00050111 0)
(-4.65061e-15 0.00050111 0)
(6.47603e-15 0.00050111 0)
(3.31128e-14 0.00050111 0)
(1.02369e-14 0.00050111 0)
(-5.55667e-15 0.00050111 0)
(2.66203e-15 0.00050111 0)
(6.994e-15 0.00050111 0)
(5.16326e-15 0.00050111 0)
(1.8034e-16 0.00050111 0)
(-1.5566e-14 0.00050111 0)
(-9.9048e-15 0.00050111 0)
(-1.95796e-14 0.00050111 0)
(-4.37839e-15 0.00050111 0)
(1.73733e-14 0.00050111 0)
(1.77801e-15 0.00050111 0)
(-1.46292e-14 0.00050111 0)
(-3.37343e-14 0.00050111 0)
(2.94217e-14 0.00050111 0)
(1.04242e-09 0.00050111 0)
(2.0403e-06 0.000501109 0)
(0.000375779 0.000501015 0)
(0.00998909 0.000498446 0)
(0.0650126 0.000491779 0)
(0.15927 0.000431085 0)
(0.678258 0.000446513 0)
(-0.677775 0.0109886 0)
(-0.15916 0.0105523 0)
(-0.064849 0.0116704 0)
(-0.00995242 0.0116793 0)
(-0.000373518 0.0117158 0)
(-2.02217e-06 0.0117172 0)
(-1.02952e-09 0.0117172 0)
(-2.89267e-14 0.0117172 0)
(2.71648e-14 0.0117172 0)
(-2.88199e-15 0.0117172 0)
(-4.83084e-16 0.0117172 0)
(9.63056e-15 0.0117172 0)
(1.78176e-15 0.0117172 0)
(1.4025e-15 0.0117172 0)
(-2.12126e-14 0.0117172 0)
(-2.47216e-14 0.0117172 0)
(-1.1435e-15 0.0117172 0)
(-1.06322e-14 0.0117172 0)
(-1.26018e-14 0.0117172 0)
(-3.89666e-15 0.0117172 0)
(4.28628e-15 0.0117172 0)
(1.9694e-14 0.0117172 0)
(6.63644e-15 0.0117172 0)
(1.48129e-14 0.0117172 0)
(1.4395e-14 0.0117172 0)
(-1.9068e-14 0.0117172 0)
(-5.98985e-15 0.0117172 0)
(-1.22148e-15 0.0117172 0)
(3.56939e-15 0.0117172 0)
(-4.32342e-15 0.0117172 0)
(-1.89905e-14 0.0117172 0)
(7.55058e-15 0.0117172 0)
(1.05753e-13 0.0117172 0)
(1.02951e-09 0.0117172 0)
(2.02217e-06 0.0117172 0)
(0.000373518 0.0117158 0)
(0.00995242 0.0116793 0)
(0.064849 0.0116704 0)
(0.15916 0.0105523 0)
(0.677775 0.0109886 0)
(-0.682485 0.0733038 0)
(-0.162115 0.0650542 0)
(-0.0653401 0.0709088 0)
(-0.00994337 0.0704218 0)
(-0.000368107 0.0705725 0)
(-1.95553e-06 0.0705791 0)
(-9.72347e-10 0.0705791 0)
(-7.32143e-14 0.0705791 0)
(3.03526e-15 0.0705791 0)
(1.96696e-14 0.0705791 0)
(-2.47488e-16 0.0705791 0)
(-2.06658e-15 0.0705791 0)
(1.51808e-14 0.0705791 0)
(8.93274e-15 0.0705791 0)
(-1.54448e-14 0.0705791 0)
(-1.89614e-14 0.0705791 0)
(-2.38389e-15 0.0705791 0)
(2.62678e-15 0.0705791 0)
(1.41359e-14 0.0705791 0)
(4.6665e-15 0.0705791 0)
(5.77005e-15 0.0705791 0)
(9.32468e-15 0.0705791 0)
(-5.5065e-15 0.0705791 0)
(6.95509e-16 0.0705791 0)
(-1.03438e-14 0.0705791 0)
(-2.44878e-14 0.0705791 0)
(5.33114e-15 0.0705791 0)
(1.69361e-15 0.0705791 0)
(-9.37914e-16 0.0705791 0)
(-3.15326e-15 0.0705791 0)
(-1.10086e-14 0.0705791 0)
(1.29425e-15 0.0705791 0)
(7.87716e-14 0.0705791 0)
(9.7231e-10 0.0705791 0)
(1.95553e-06 0.0705791 0)
(0.000368107 0.0705725 0)
(0.00994337 0.0704218 0)
(0.0653401 0.0709088 0)
(0.162115 0.0650542 0)
(0.682485 0.0733038 0)
(-0.636266 0.166475 0)
(-0.146949 0.154704 0)
(-0.0596095 0.169483 0)
(-0.00893596 0.166669 0)
(-0.000320322 0.166765 0)
(-1.61477e-06 0.166771 0)
(-7.49662e-10 0.166771 0)
(-5.03818e-14 0.166771 0)
(-1.33565e-15 0.166771 0)
(8.25827e-15 0.166771 0)
(6.55047e-15 0.166771 0)
(1.00343e-14 0.166771 0)
(1.23492e-15 0.166771 0)
(-1.227e-15 0.166771 0)
(1.62737e-14 0.166771 0)
(3.78349e-16 0.166771 0)
(-2.17502e-14 0.166771 0)
(-1.06075e-14 0.166771 0)
(-7.33595e-15 0.166771 0)
(-8.28811e-15 0.166771 0)
(3.0207e-15 0.166771 0)
(1.84592e-14 0.166771 0)
(5.99864e-15 0.166771 0)
(-5.90051e-15 0.166771 0)
(2.48789e-17 0.166771 0)
(-5.57944e-16 0.166771 0)
(7.10089e-15 0.166771 0)
(3.20659e-16 0.166771 0)
(-1.01404e-14 0.166771 0)
(-4.45467e-15 0.166771 0)
(-8.17972e-16 0.166771 0)
(1.61976e-14 0.166771 0)
(6.26666e-14 0.166771 0)
(7.49603e-10 0.166771 0)
(1.61477e-06 0.166771 0)
(0.000320322 0.166765 0)
(0.00893596 0.166669 0)
(0.0596095 0.169483 0)
(0.146949 0.154704 0)
(0.636266 0.166475 0)
(-0.656951 0.672855 0)
(-0.158605 0.653192 0)
(-0.0675132 0.697539 0)
(-0.00933306 0.693122 0)
(-0.00033221 0.693525 0)
(-1.66912e-06 0.693545 0)
(-7.75336e-10 0.693545 0)
(-5.17402e-14 0.693545 0)
(-2.81952e-14 0.693545 0)
(-3.93861e-15 0.693545 0)
(2.09702e-14 0.693545 0)
(1.15303e-14 0.693545 0)
(1.4484e-15 0.693545 0)
(1.47917e-14 0.693545 0)
(9.28008e-15 0.693545 0)
(-1.88101e-14 0.693545 0)
(-2.91472e-14 0.693545 0)
(-1.21765e-14 0.693545 0)
(-6.58038e-15 0.693545 0)
(-2.41157e-15 0.693545 0)
(4.39773e-15 0.693545 0)
(2.24224e-14 0.693545 0)
(1.84404e-15 0.693545 0)
(-1.10644e-14 0.693545 0)
(7.89383e-15 0.693545 0)
(2.45831e-15 0.693545 0)
(3.25486e-15 0.693545 0)
(1.52999e-15 0.693545 0)
(-3.08828e-15 0.693545 0)
(-5.34036e-15 0.693545 0)
(-1.25158e-14 0.693545 0)
(9.73752e-15 0.693545 0)
(7.26044e-14 0.693545 0)
(7.75369e-10 0.693545 0)
(1.66912e-06 0.693545 0)
(0.00033221 0.693525 0)
(0.00933306 0.693122 0)
(0.0675132 0.697539 0)
(0.158605 0.653192 0)
(0.656951 0.672855 0)
(-0.656951 -0.672855 0)
(-0.158605 -0.653192 0)
(-0.0675132 -0.697539 0)
(-0.00933306 -0.693122 0)
(-0.00033221 -0.693525 0)
(-1.66912e-06 -0.693545 0)
(-7.75409e-10 -0.693545 0)
(-3.74138e-14 -0.693545 0)
(-1.08809e-14 -0.693545 0)
(1.42083e-14 -0.693545 0)
(1.53982e-14 -0.693545 0)
(-7.05509e-15 -0.693545 0)
(-1.47736e-14 -0.693545 0)
(-2.52438e-15 -0.693545 0)
(-2.41796e-15 -0.693545 0)
(-6.73747e-15 -0.693545 0)
(8.99586e-15 -0.693545 0)
(7.98328e-15 -0.693545 0)
(1.33121e-14 -0.693545 0)
(1.73697e-15 -0.693545 0)