/*--------------------------------*- C++ -*----------------------------------*\
| =========                 |                                                 |
| \\      /  F ield         | OpenFOAM: The Open Source CFD Toolbox           |
|  \\    /   O peration     | Version:  v1912                                 |
|   \\  /    A nd           | Website:  www.openfoam.com                      |
|    \\/     M anipulation  |                                                 |
\*---------------------------------------------------------------------------*/
FoamFile
{
    version     2.0;
    format      ascii;
    class       volVectorField;
    location    "2.6";
    object      grad(T);
}
// * * * * * * * * * * * * * * * * * * * * * * * * * * * * * * * * * * * * * //

dimensions      [0 -1 0 1 0 0 0];


internalField   nonuniform List<vector> 
1900
(
(0.649607 -8.29659e-07 0)
(-0.444675 -1.85897e-06 0)
(0.0351232 2.36685e-06 0)
(0.0281365 1.5611e-05 0)
(0.0175147 4.50286e-05 0)
(0.0153638 2.45671e-06 0)
(0.0176043 -0.000344418 0)
(0.0221624 -0.00233942 0)
(0.028963 -0.00555685 0)
(0.0106325 -0.0051273 0)
(0.649604 -3.55397e-06 0)
(-0.444672 -4.38601e-06 0)
(0.0351407 3.06058e-07 0)
(0.0281791 -2.52453e-06 0)
(0.0175015 -3.1695e-06 0)
(0.0149744 -9.15759e-05 0)
(0.0152624 -0.000410684 0)
(0.01695 -0.00219444 0)
(0.0261751 -0.00461929 0)
(0.0399124 -0.0060914 0)
(0.649599 -8.23994e-14 0)
(-0.444671 6.28837e-14 0)
(0.0351251 2.1684e-13 0)
(0.028133 8.0231e-14 0)
(0.0174256 -2.29851e-13 0)
(0.0149563 3.68629e-14 0)
(0.0155014 6.72205e-13 0)
(0.0179538 8.67362e-14 0)
(0.025066 -6.22332e-13 0)
(0.0372522 -4.94396e-13 0)
(0.649604 3.55397e-06 0)
(-0.444672 4.38601e-06 0)
(0.0351407 -3.06057e-07 0)
(0.0281791 2.52453e-06 0)
(0.0175015 3.1695e-06 0)
(0.0149744 9.15759e-05 0)
(0.0152624 0.000410684 0)
(0.01695 0.00219444 0)
(0.0261751 0.00461929 0)
(0.0399124 0.0060914 0)
(0.649607 8.29659e-07 0)
(-0.444675 1.85897e-06 0)
(0.0351232 -2.36685e-06 0)
(0.0281365 -1.5611e-05 0)
(0.0175147 -4.50286e-05 0)
(0.0153638 -2.45671e-06 0)
(0.0176043 0.000344418 0)
(0.0221624 0.00233942 0)
(0.028963 0.00555685 0)
(0.0106325 0.0051273 0)
(0.0270716 0.0192414 1.01734e-15)
(0.0696224 0.0222636 -1.24188e-15)
(0.0216751 0.0230626 -1.57873e-15)
(-0.32046 0.0699573 0)
(-0.31343 0.450972 -6.50197e-15)
(0.0565205 0.017541 1.02081e-15)
(0.06433 0.0156476 1.24188e-15)
(0.0439615 0.00726318 1.57873e-15)
(-0.141716 0.0204831 0)
(-0.264891 0.334198 0)
(0.0582028 -2.35696e-13 0)
(0.0610385 -9.74831e-14 0)
(0.02853 3.91517e-14 0)
(-0.146144 1.60166e-13 0)
(-0.0657539 1.41979e-13 0)
(0.0565205 -0.017541 1.02081e-15)
(0.06433 -0.0156476 1.24188e-15)
(0.0439615 -0.00726318 1.57873e-15)
(-0.141716 -0.0204831 0)
(-0.264891 -0.334198 0)
(0.0270716 -0.0192414 -3.05897e-15)
(0.0696224 -0.0222636 -1.24188e-15)
(0.0216751 -0.0230626 -1.57873e-15)
(-0.32046 -0.0699573 -4.29663e-15)
(-0.31343 -0.450972 6.50197e-15)
(0.142457 -0.141465 2.89217e-15)
(-0.23603 -0.0317929 -2.3924e-15)
(-0.278693 -0.0109786 0)
(-0.4282 0.141631 1.74695e-15)
(-0.752894 0.390823 -7.42807e-16)
(-0.0174768 -0.176212 -1.44396e-15)
(-0.206354 -0.0421777 1.19572e-15)
(-0.214006 -0.0241163 0)
(-0.257218 0.149788 -1.09564e-15)
(-0.267612 0.457436 1.92088e-16)
(0.0266266 3.34022e-13 0)
(-0.200702 4.86501e-13 0)
(-0.207093 1.10026e-12 0)
(-0.233285 1.89204e-12 4.4006e-16)
(-0.272911 2.02892e-12 -3.84177e-16)
(-0.0174768 0.176212 -1.44396e-15)
(-0.206354 0.0421777 1.19572e-15)
(-0.214006 0.0241163 0)
(-0.257218 -0.149788 -1.09564e-15)
(-0.267612 -0.457436 1.92088e-16)
(0.142457 0.141465 1.44396e-15)
(-0.23603 0.0317929 9.57499e-19)
(-0.278693 0.0109786 0)
(-0.4282 -0.141631 4.26548e-18)
(-0.752894 -0.390823 7.42807e-16)
(-0.730609 2.50743 0)
(0.0113511 0.772948 0)
(0.293995 0.245278 0)
(0.0298853 0.107599 0)
(-0.044303 0.0594483 0)
(-0.00299326 0.043672 0)
(0.0248835 0.0353133 0)
(0.0393991 0.0357983 0)
(0.0482153 0.0349663 0)
(0.0591251 0.0345909 0)
(0.0691738 0.0345211 0)
(0.0780028 0.0343276 0)
(0.0850508 0.0340951 0)
(0.0902462 0.033871 0)
(0.0937527 0.0336695 0)
(0.0951098 0.0335378 0)
(0.0924697 0.0334905 0)
(0.0814587 0.0335148 0)
(0.0616945 0.0335538 0)
(0.0241768 0.0336082 0)
(-0.0281078 0.0335988 0)
(-0.0652134 0.0335009 0)
(-0.0844947 0.0334277 0)
(-0.0956835 0.0333325 0)
(-0.0990768 0.0332643 0)
(-0.0993038 0.0332443 0)
(-0.0984647 0.0332788 0)
(-0.0973397 0.0333564 0)
(-0.0958876 0.033459 0)
(-0.0937581 0.0335689 0)
(-0.0905236 0.033671 0)
(-0.0859821 0.0337585 0)
(-0.0807241 0.0338333 0)
(-0.0765378 0.0339416 0)
(-0.0737154 0.0340493 0)
(-0.064844 0.0342128 0)
(-0.0463403 0.0326737 0)
(-0.254731 0.0334538 0)
(-0.64206 0.0315104 0)
(-0.405034 0.0179478 0)
(-0.626073 1.4485 0)
(-0.343942 0.838454 0)
(0.155988 0.3018 0)
(-0.015756 0.0606856 0)
(-0.0498 0.0287591 0)
(-0.0055874 0.0195713 0)
(0.0239617 0.0159578 0)
(0.0392719 0.0155068 0)
(0.0481518 0.0153672 0)
(0.0590547 0.0151432 0)
(0.0691539 0.0151002 0)
(0.0779669 0.0149964 0)
(0.0850042 0.0148719 0)
(0.0901906 0.0147335 0)
(0.0936945 0.0145784 0)
(0.0950614 0.0144366 0)
(0.0924397 0.0143371 0)
(0.0814446 0.0142928 0)
(0.0616913 0.014277 0)
(0.024176 0.0142913 0)
(-0.0281169 0.0142811 0)
(-0.0652233 0.0142387 0)
(-0.0845013 0.0142236 0)
(-0.0956887 0.0142081 0)
(-0.0990757 0.0142122 0)
(-0.0992958 0.0142407 0)
(-0.0984529 0.0142911 0)
(-0.0973298 0.0143514 0)
(-0.0958857 0.0144068 0)
(-0.0937688 0.0144434 0)
(-0.0905483 0.0144524 0)
(-0.0860171 0.0144355 0)
(-0.0807534 0.0144036 0)
(-0.0765504 0.0144125 0)
(-0.0736778 0.014447 0)
(-0.0649794 0.0146789 0)
(-0.0463671 0.0138259 0)
(-0.254613 0.0145964 0)
(-0.64324 0.0147761 0)
(-0.406183 0.00939286 0)
(-0.549037 1.90425e-12 0)
(-0.322233 5.16474e-13 0)
(0.0677347 1.18277e-13 0)
(-0.0495448 -1.65587e-13 0)
(-0.0562635 9.06787e-14 0)
(-0.00671728 1.37989e-13 0)
(0.0237011 -3.3906e-13 0)
(0.0392273 -1.82146e-12 0)
(0.0481096 -5.79555e-13 0)
(0.0590474 5.92566e-12 0)
(0.069131 1.48831e-11 0)
(0.0779364 1.10865e-11 0)
(0.0849744 -2.31231e-11 0)
(0.0901608 -7.49164e-11 0)
(0.0936663 -9.89344e-11 0)
(0.0950397 -3.58575e-11 0)
(0.0924279 -7.37218e-11 0)
(0.0814412 2.42629e-10 0)
(0.061694 4.47917e-10 0)
(0.0241779 5.45405e-10 0)
(-0.0281231 -5.32166e-11 0)
(-0.0652302 -1.04464e-09 0)
(-0.0845036 -9.39124e-10 0)
(-0.0956868 4.08224e-10 0)
(-0.0990673 1.02741e-09 0)
(-0.0992808 9.06685e-10 0)
(-0.0984325 6.05123e-10 0)
(-0.0973061 4.49096e-11 0)
(-0.0958609 -2.83048e-10 0)
(-0.0937448 -2.78206e-10 0)
(-0.0905259 7.46996e-11 0)
(-0.0859964 6.77989e-10 0)
(-0.0807308 1.24802e-09 0)
(-0.0765251 2.07804e-09 0)
(-0.0736379 2.85072e-09 0)
(-0.0650247 3.69638e-09 0)
(-0.0463643 3.23289e-09 0)
(-0.254454 2.40888e-09 0)
(-0.643574 6.5951e-10 0)
(-0.4066 9.48529e-10 0)
(-0.626073 -1.4485 0)
(-0.343942 -0.838454 0)
(0.155988 -0.3018 0)
(-0.015756 -0.0606856 0)
(-0.0498 -0.0287591 0)
(-0.0055874 -0.0195713 0)
(0.0239617 -0.0159578 0)
(0.0392719 -0.0155068 0)
(0.0481518 -0.0153672 0)
(0.0590547 -0.0151432 0)
(0.0691539 -0.0151002 0)
(0.0779669 -0.0149964 0)
(0.0850042 -0.014872 0)
(0.0901906 -0.0147335 0)
(0.0936945 -0.0145784 0)
(0.0950614 -0.0144366 0)
(0.0924397 -0.0143371 0)
(0.0814446 -0.0142928 0)
(0.0616913 -0.014277 0)
(0.024176 -0.0142913 0)
(-0.0281169 -0.0142811 0)
(-0.0652233 -0.0142387 0)
(-0.0845013 -0.0142236 0)
(-0.0956887 -0.0142081 0)
(-0.0990757 -0.0142122 0)
(-0.0992958 -0.0142407 0)
(-0.0984529 -0.014291 0)
(-0.0973298 -0.0143514 0)
(-0.0958857 -0.0144068 0)
(-0.0937688 -0.0144434 0)
(-0.0905483 -0.0144524 0)
(-0.0860171 -0.0144355 0)
(-0.0807534 -0.0144036 0)
(-0.0765504 -0.0144125 0)
(-0.0736778 -0.014447 0)
(-0.0649794 -0.0146789 0)
(-0.0463671 -0.0138258 0)
(-0.254613 -0.0145964 0)
(-0.64324 -0.0147761 0)
(-0.406183 -0.00939285 0)
(-0.730609 -2.50743 0)
(0.0113511 -0.772948 0)
(0.293995 -0.245278 0)
(0.0298853 -0.107599 0)
(-0.044303 -0.0594483 0)
(-0.00299326 -0.043672 0)
(0.0248835 -0.0353133 0)
(0.0393991 -0.0357983 0)
(0.0482153 -0.0349663 0)
(0.0591251 -0.0345909 0)
(0.0691738 -0.0345211 0)
(0.0780028 -0.0343276 0)
(0.0850508 -0.0340951 0)
(0.0902462 -0.033871 0)
(0.0937527 -0.0336695 0)
(0.0951098 -0.0335378 0)
(0.0924697 -0.0334905 0)
(0.0814587 -0.0335148 0)
(0.0616945 -0.0335538 0)
(0.0241768 -0.0336082 0)
(-0.0281078 -0.0335988 0)
(-0.0652134 -0.0335009 0)
(-0.0844947 -0.0334277 0)
(-0.0956835 -0.0333325 0)
(-0.0990768 -0.0332643 0)
(-0.0993038 -0.0332443 0)
(-0.0984647 -0.0332788 0)
(-0.0973397 -0.0333564 0)
(-0.0958876 -0.033459 0)
(-0.0937581 -0.0335689 0)
(-0.0905236 -0.033671 0)
(-0.0859821 -0.0337585 0)
(-0.0807241 -0.0338333 0)
(-0.0765378 -0.0339416 0)
(-0.0737154 -0.0340493 0)
(-0.064844 -0.0342128 0)
(-0.0463403 -0.0326737 0)
(-0.254731 -0.0334538 0)
(-0.64206 -0.0315104 0)
(-0.405034 -0.0179478 0)
(0.310819 -1.37631 0)
(0.664234 -0.269436 0)
(0.413775 -0.125921 0)
(0.0480373 -0.158579 0)
(-0.0160566 -0.0946565 0)
(0.00655238 -0.0710326 0)
(0.0278347 -0.0594976 0)
(0.0393423 -0.0598563 0)
(0.0488358 -0.058644 0)
(0.0592527 -0.058375 0)
(0.0692961 -0.0582947 0)
(0.0781926 -0.0581164 0)
(0.0852366 -0.0579872 0)
(0.0903933 -0.0579757 0)
(0.0938362 -0.058092 0)
(0.0951178 -0.0583366 0)
(0.0924195 -0.0586643 0)
(0.0813886 -0.0590062 0)
(0.061629 -0.0592741 0)
(0.0241469 -0.0594656 0)
(-0.02806 -0.0594484 0)
(-0.0651273 -0.0591959 0)
(-0.0844033 -0.0589246 0)
(-0.0955922 -0.0585743 0)
(-0.0990191 -0.0582359 0)
(-0.0992957 -0.057952 0)
(-0.0985096 -0.0577384 0)
(-0.0974314 -0.0575833 0)
(-0.0960167 -0.0574656 0)
(-0.0939142 -0.0573637 0)
(-0.0906958 -0.0572584 0)
(-0.0861594 -0.0571349 0)
(-0.0809022 -0.0569827 0)
(-0.0767005 -0.0568207 0)
(-0.0738045 -0.056555 0)
(-0.0642731 -0.0561027 0)
(-0.045922 -0.0537529 0)
(-0.253746 -0.053804 0)
(-0.634878 -0.0491244 0)
(-0.399005 -0.0281563 0)
(0.564748 -0.298616 0)
(0.866179 -0.0184229 0)
(0.33659 -0.127077 0)
(0.050279 -0.153177 0)
(0.0249137 -0.117119 0)
(0.0257685 -0.0930047 0)
(0.0340708 -0.0835521 0)
(0.0402521 -0.081176 0)
(0.0493101 -0.0800173 0)
(0.0593933 -0.0794227 0)
(0.0693574 -0.0791166 0)
(0.0781973 -0.0789448 0)
(0.0850868 -0.0789984 0)
(0.0900664 -0.0793248 0)
(0.0933601 -0.0798958 0)
(0.0945541 -0.080637 0)
(0.0918514 -0.0814425 0)
(0.0809087 -0.0821837 0)
(0.0612869 -0.0827335 0)
(0.0240247 -0.0830594 0)
(-0.0278735 -0.0830074 0)
(-0.0647548 -0.0825711 0)
(-0.0839447 -0.0820303 0)
(-0.0950688 -0.0813283 0)
(-0.098508 -0.0805862 0)
(-0.0988287 -0.0798666 0)
(-0.0980854 -0.0791933 0)
(-0.0970277 -0.0785528 0)
(-0.0956067 -0.0779196 0)
(-0.0934747 -0.0772733 0)
(-0.0902109 -0.0766013 0)
(-0.0856215 -0.0759085 0)
(-0.0803257 -0.0752035 0)
(-0.0760383 -0.0745199 0)
(-0.0729757 -0.0736527 0)
(-0.06245 -0.0725661 0)
(-0.0443495 -0.0698201 0)
(-0.250799 -0.06954 0)
(-0.621197 -0.0624962 0)
(-0.388061 -0.0448543 0)
(0.580823 -0.00314542 0)
(0.829536 -0.056562 0)
(0.283921 -0.130904 0)
(0.0576333 -0.133985 0)
(0.0419273 -0.121617 0)
(0.0388985 -0.105476 0)
(0.0392332 -0.0998541 0)
(0.0427486 -0.0958411 0)
(0.0505253 -0.0940252 0)
(0.0601206 -0.0927306 0)
(0.0697567 -0.0918267 0)
(0.0783066 -0.0913495 0)
(0.0848704 -0.0913119 0)
(0.0895285 -0.0917027 0)
(0.0925717 -0.0924382 0)
(0.0936273 -0.0934006 0)
(0.090929 -0.094444 0)
(0.0801445 -0.0953857 0)
(0.0607852 -0.0960545 0)
(0.023883 -0.0963766 0)
(-0.0275895 -0.0962601 0)
(-0.0641857 -0.0957176 0)
(-0.0832058 -0.0949948 0)
(-0.0942006 -0.0940425 0)
(-0.0976106 -0.0929908 0)
(-0.0979535 -0.0919269 0)
(-0.0972435 -0.0908944 0)
(-0.096204 -0.089891 0)
(-0.0947838 -0.0889027 0)
(-0.0926439 -0.0879186 0)
(-0.0893806 -0.0869534 0)
(-0.0848124 -0.0860338 0)
(-0.0795641 -0.0851829 0)
(-0.0752062 -0.0844249 0)
(-0.0719217 -0.083339 0)
(-0.0605798 -0.0820437 0)
(-0.043006 -0.0799015 0)
(-0.246689 -0.080077 0)
(-0.61109 -0.0705672 0)
(-0.382004 -0.0630878 0)
(0.513274 -0.00997677 0)
(0.743066 -0.0967667 0)
(0.261982 -0.122292 0)
(0.0592281 -0.123563 0)
(0.0523865 -0.117028 0)
(0.0467402 -0.108912 0)
(0.0433551 -0.105031 0)
(0.0458691 -0.101359 0)
(0.0523075 -0.0990249 0)
(0.0615118 -0.0971715 0)
(0.0706882 -0.0957099 0)
(0.0786934 -0.0948859 0)
(0.0847465 -0.0946962 0)
(0.0889811 -0.0950334 0)
(0.0917239 -0.0957681 0)
(0.0926212 -0.0967556 0)
(0.0899386 -0.0978266 0)
(0.0793567 -0.0987661 0)
(0.060332 -0.0993814 0)
(0.0238266 -0.0995959 0)
(-0.0272384 -0.0994091 0)
(-0.0635355 -0.0988469 0)
(-0.0823306 -0.0980802 0)
(-0.0931377 -0.0970454 0)
(-0.0964694 -0.0958687 0)
(-0.0968085 -0.0946593 0)
(-0.0961234 -0.0934795 0)
(-0.0951084 -0.0923411 0)
(-0.0937061 -0.0912293 0)
(-0.0915963 -0.0901606 0)
(-0.0883946 -0.0891376 0)
(-0.0839154 -0.0882392 0)
(-0.0787754 -0.0874308 0)
(-0.0742615 -0.0867293 0)
(-0.0706811 -0.0854259 0)
(-0.0591375 -0.0840122 0)
(-0.0424543 -0.0831134 0)
(-0.241804 -0.0848655 0)
(-0.604825 -0.0719277 0)
(-0.380854 -0.0718596 0)
(0.497189 -0.06438 0)
(0.721304 -0.105652 0)
(0.2581 -0.11739 0)
(0.0627058 -0.113987 0)
(0.056045 -0.111143 0)
(0.0504595 -0.109203 0)
(0.0465119 -0.106417 0)
(0.0485362 -0.103878 0)
(0.0545603 -0.10123 0)
(0.0633151 -0.0989631 0)
(0.0719592 -0.0971224 0)
(0.0792833 -0.0960757 0)
(0.0847282 -0.095745 0)
(0.0884956 -0.0960035 0)
(0.0909122 -0.0966775 0)
(0.0916437 -0.0976183 0)
(0.0889916 -0.0986346 0)
(0.0786462 -0.0994898 0)
(0.0599856 -0.0999832 0)
(0.0238563 -0.100077 0)
(-0.0268677 -0.0998438 0)
(-0.0629051 -0.099318 0)
(-0.0814697 -0.0986087 0)
(-0.0920696 -0.0976169 0)
(-0.0953113 -0.0964659 0)
(-0.0956512 -0.0952816 0)
(-0.0950096 -0.0941432 0)
(-0.0940356 -0.0930549 0)
(-0.0926826 -0.0920302 0)
(-0.0906283 -0.0910315 0)
(-0.0875291 -0.090162 0)
(-0.0831676 -0.0893932 0)
(-0.0781091 -0.0887143 0)
(-0.0732742 -0.0881047 0)
(-0.0693034 -0.0866345 0)
(-0.0583514 -0.0853012 0)
(-0.0438282 -0.0857113 0)
(-0.23591 -0.0890909 0)
(-0.598557 -0.0726491 0)
(-0.381939 -0.0759423 0)
(0.473504 -0.0540845 0)
(0.691984 -0.0981165 0)
(0.25395 -0.110435 0)
(0.0652477 -0.10889 0)
(0.0569968 -0.106966 0)
(0.051295 -0.107881 0)
(0.0484865 -0.106498 0)
(0.0508674 -0.104529 0)
(0.0570434 -0.101825 0)
(0.0654699 -0.0992334 0)
(0.0734706 -0.0972811 0)
(0.0800206 -0.0960825 0)
(0.0848161 -0.0957197 0)
(0.0880825 -0.0959166 0)
(0.0901678 -0.0965482 0)
(0.0907353 -0.0974344 0)
(0.0881351 -0.0983797 0)
(0.0780572 -0.0991312 0)
(0.0597661 -0.0994884 0)
(0.0239609 -0.099478 0)
(-0.026507 -0.099218 0)
(-0.0623453 -0.0987452 0)
(-0.0806913 -0.0981223 0)
(-0.0910729 -0.0972029 0)
(-0.094219 -0.0961108 0)
(-0.0945703 -0.0949899 0)
(-0.0939778 -0.0939175 0)
(-0.0930722 -0.0929287 0)
(-0.0917562 -0.091954 0)
(-0.089796 -0.0911262 0)
(-0.086816 -0.0902752 0)
(-0.0825203 -0.0897236 0)
(-0.0775337 -0.0890509 0)
(-0.0722573 -0.0884604 0)
(-0.0679796 -0.08695 0)
(-0.0582479 -0.0859525 0)
(-0.0461062 -0.0872706 0)
(-0.229217 -0.0908354 0)
(-0.592155 -0.0724793 0)
(-0.384027 -0.0757857 0)
(0.454758 -0.0507525 0)
(0.667003 -0.0915115 0)
(0.247717 -0.105255 0)
(0.0660485 -0.106244 0)
(0.0570177 -0.105061 0)
(0.0509113 -0.106531 0)
(0.0497416 -0.105861 0)
(0.0530387 -0.10417 0)
(0.0596637 -0.101421 0)
(0.067694 -0.098896 0)
(0.0749955 -0.0968283 0)
(0.0807879 -0.0957916 0)
(0.0848881 -0.0953883 0)
(0.0876972 -0.0956235 0)
(0.0894496 -0.0962227 0)
(0.0898788 -0.0970693 0)
(0.0873564 -0.0979454 0)
(0.0775778 -0.0986017 0)
(0.0596514 -0.0988384 0)
(0.0241169 -0.0987607 0)
(-0.0261616 -0.0984908 0)
(-0.0618492 -0.0980633 0)
(-0.0799835 -0.0975126 0)
(-0.0901312 -0.0966433 0)
(-0.0931788 -0.0955902 0)
(-0.0935377 -0.0945047 0)
(-0.0930232 -0.0934948 0)
(-0.0921435 -0.0925181 0)
(-0.0909456 -0.0916906 0)
(-0.0890105 -0.0907695 0)
(-0.0861775 -0.0901928 0)
(-0.0819878 -0.0895496 0)
(-0.0768919 -0.088945 0)
(-0.0712497 -0.0883931 0)
(-0.0668867 -0.0869289 0)
(-0.0586603 -0.0863762 0)
(-0.0485336 -0.0881903 0)
(-0.221656 -0.0913426 0)
(-0.584055 -0.0722027 0)
(-0.385125 -0.0750187 0)
(0.434227 -0.0470713 0)
(0.639463 -0.0857997 0)
(0.239753 -0.101909 0)
(0.0654341 -0.104233 0)
(0.0567206 -0.103988 0)
(0.0505245 -0.104867 0)
(0.0507616 -0.104315 0)
(0.0551458 -0.102892 0)
(0.0621254 -0.100309 0)
(0.0698959 -0.0977302 0)
(0.0764621 -0.0960857 0)
(0.0814082 -0.0949533 0)
(0.0849781 -0.0947497 0)
(0.0872784 -0.094936 0)
(0.0887746 -0.0955284 0)
(0.0890753 -0.0963047 0)
(0.0866585 -0.0971004 0)
(0.0771967 -0.0976649 0)
(0.0596129 -0.0978041 0)
(0.0242959 -0.0977028 0)
(-0.025835 -0.0974426 0)
(-0.0614027 -0.0970493 0)
(-0.079323 -0.0965533 0)
(-0.0892203 -0.0957127 0)
(-0.0921582 -0.0946776 0)
(-0.0925511 -0.093627 0)
(-0.0920634 -0.0926248 0)
(-0.0913336 -0.0917641 0)
(-0.0900712 -0.0908223 0)
(-0.0883528 -0.0902183 0)
(-0.0856404 -0.0893385 0)
(-0.0813178 -0.089027 0)
(-0.0764192 -0.088298 0)
(-0.0703145 -0.0877009 0)
(-0.0660361 -0.0865152 0)
(-0.0594634 -0.0863422 0)
(-0.0508919 -0.0882666 0)
(-0.21381 -0.0908228 0)
(-0.576425 -0.0713976 0)
(-0.386741 -0.0724873 0)
(0.417438 -0.0520217 0)
(0.61416 -0.0827821 0)
(0.229954 -0.10019 0)
(0.0640448 -0.102391 0)
(0.0564067 -0.102869 0)
(0.0505964 -0.102959 0)
(0.0516453 -0.10228 0)
(0.0568986 -0.100916 0)
(0.0646374 -0.0984623 0)
(0.0717638 -0.0963199 0)
(0.0776715 -0.0945235 0)
(0.0820754 -0.0938046 0)
(0.0849047 -0.093466 0)
(0.0869469 -0.0937128 0)
(0.0881307 -0.0941964 0)
(0.0883639 -0.0948829 0)
(0.0860457 -0.0955756 0)
(0.0768998 -0.0960586 0)
(0.0596149 -0.0961327 0)
(0.0244653 -0.0960558 0)
(-0.0255319 -0.0958255 0)
(-0.0609923 -0.095453 0)
(-0.0786955 -0.0949981 0)
(-0.0883238 -0.0941752 0)
(-0.0911689 -0.0931645 0)
(-0.0915595 -0.0921394 0)
(-0.0912281 -0.0912279 0)
(-0.0904065 -0.0903369 0)
(-0.089456 -0.0896608 0)
(-0.0875807 -0.0888043 0)
(-0.0850295 -0.0883125 0)
(-0.0809851 -0.0879092 0)
(-0.0756139 -0.0871285 0)
(-0.0695317 -0.0869038 0)
(-0.0655774 -0.0858162 0)
(-0.0603481 -0.0859724 0)
(-0.0528513 -0.0879417 0)
(-0.205401 -0.090094 0)
(-0.566386 -0.0714862 0)
(-0.386175 -0.0701066 0)
(0.404585 -0.054567 0)
(0.593046 -0.0792449 0)
(0.220857 -0.0969516 0)
(0.0628534 -0.0985358 0)
(0.0561733 -0.100214 0)
(0.0510921 -0.0999809 0)
(0.0527306 -0.0991264 0)
(0.0588242 -0.0981356 0)
(0.0665544 -0.0955981 0)
(0.0736915 -0.0938431 0)
(0.0788859 -0.092402 0)
(0.0824272 -0.0916762 0)
(0.0850666 -0.0914631 0)
(0.0865745 -0.0915704 0)
(0.087647 -0.0919494 0)
(0.0877463 -0.0924887 0)
(0.0855255 -0.0930731 0)
(0.0766598 -0.0934939 0)
(0.0596156 -0.0935429 0)
(0.0245919 -0.0935357 0)
(-0.0252541 -0.0933513 0)
(-0.0606054 -0.0929825 0)
(-0.0780916 -0.0925581 0)
(-0.0874533 -0.0917549 0)
(-0.0901964 -0.0907813 0)
(-0.0906849 -0.0898323 0)
(-0.0903265 -0.0889802 0)
(-0.0898235 -0.0882515 0)
(-0.0885943 -0.0875393 0)
(-0.0870535 -0.0869197 0)
(-0.0847778 -0.0862843 0)
(-0.0801769 -0.0857851 0)
(-0.0754505 -0.0852384 0)
(-0.06905 -0.0848296 0)
(-0.0651385 -0.0841104 0)
(-0.0615116 -0.0843627 0)
(-0.0548637 -0.0860724 0)
(-0.197953 -0.0876335 0)
(-0.557164 -0.0691158 0)
(-0.385411 -0.0667006 0)
(0.393658 -0.0549948 0)
(0.573316 -0.0768001 0)
(0.211365 -0.0939858 0)
(0.0609008 -0.0954128 0)
(0.0550141 -0.0978772 0)
(0.0516447 -0.0973965 0)
(0.0534236 -0.0962696 0)
(0.0602986 -0.0945471 0)
(0.0687738 -0.0927046 0)
(0.0748437 -0.0905587 0)
(0.0797596 -0.0895742 0)
(0.0829801 -0.0886075 0)
(0.0850067 -0.0883754 0)
(0.0864783 -0.0882961 0)
(0.0872457 -0.0884937 0)
(0.0872811 -0.0888585 0)
(0.0850771 -0.0893268 0)
(0.076447 -0.0897068 0)
(0.0595746 -0.0897686 0)
(0.0246499 -0.0898609 0)
(-0.0249988 -0.0897298 0)
(-0.060228 -0.0893498 0)
(-0.0775125 -0.0889484 0)
(-0.0866115 -0.0881778 0)
(-0.0893162 -0.0872785 0)
(-0.089824 -0.0864478 0)
(-0.0897049 -0.0857251 0)
(-0.089018 -0.0851815 0)
(-0.0881726 -0.0845293 0)
(-0.0863713 -0.0843461 0)
(-0.0839361 -0.0834501 0)
(-0.0799773 -0.0836332 0)
(-0.0746932 -0.0825371 0)
(-0.0684448 -0.0825439 0)
(-0.0651275 -0.0821051 0)
(-0.0622387 -0.082716 0)
(-0.0560031 -0.0842824 0)
(-0.189061 -0.0854433 0)
(-0.546214 -0.0683342 0)
(-0.383848 -0.0635186 0)
(0.383572 -0.0532901 0)
(0.555473 -0.0720546 0)
(0.202921 -0.0898123 0)
(0.0591035 -0.0918418 0)
(0.0542617 -0.0933334 0)
(0.0526412 -0.0925702 0)
(0.0554763 -0.090633 0)
(0.0622596 -0.0890387 0)
(0.0703978 -0.0865733 0)
(0.076708 -0.0857135 0)
(0.0807661 -0.0841653 0)
(0.0835824 -0.0839885 0)
(0.0853667 -0.0835776 0)
(0.0864606 -0.0836413 0)
(0.0871051 -0.0837261 0)
(0.0869436 -0.0840007 0)
(0.0847081 -0.0843825 0)
(0.076234 -0.0847461 0)
(0.0594672 -0.0848523 0)
(0.0246293 -0.0850538 0)
(-0.0247616 -0.0849744 0)
(-0.0598524 -0.0845738 0)
(-0.0769623 -0.0841865 0)
(-0.0858442 -0.0834604 0)
(-0.0885293 -0.0826468 0)
(-0.089188 -0.0818817 0)
(-0.0891062 -0.0812472 0)
(-0.0886712 -0.0805438 0)
(-0.0877893 -0.0801403 0)
(-0.0860136 -0.0792867 0)
(-0.0840909 -0.0791459 0)
(-0.079297 -0.078312 0)
(-0.0744008 -0.0777958 0)
(-0.0686337 -0.0777264 0)
(-0.0653043 -0.0777189 0)
(-0.0636097 -0.0786746 0)
(-0.0574918 -0.0803709 0)
(-0.182585 -0.0812722 0)
(-0.536037 -0.064499 0)
(-0.380771 -0.0590505 0)
(0.375575 -0.0502379 0)
(0.538122 -0.066751 0)
(0.192297 -0.0865751 0)
(0.0575077 -0.0896674 0)
(0.0543122 -0.089957 0)
(0.0542469 -0.0881564 0)
(0.0568266 -0.0848412 0)
(0.0642106 -0.0832151 0)
(0.0719781 -0.0803992 0)
(0.0771641 -0.0796058 0)
(0.0814219 -0.0786942 0)
(0.0835465 -0.078345 0)
(0.0853412 -0.078323 0)
(0.0863353 -0.0783524 0)
(0.0868994 -0.0785182 0)
(0.0866485 -0.0787665 0)
(0.0843588 -0.079119 0)
(0.0759943 -0.0794766 0)
(0.0592781 -0.0796287 0)
(0.0245323 -0.079936 0)
(-0.0245363 -0.0798995 0)
(-0.0594687 -0.0794703 0)
(-0.0764395 -0.0791069 0)
(-0.0851278 -0.0784435 0)
(-0.087795 -0.0776978 0)
(-0.0884752 -0.0769795 0)
(-0.0884157 -0.0762596 0)
(-0.0879514 -0.0756118 0)
(-0.0869612 -0.0748084 0)
(-0.085413 -0.0743277 0)
(-0.0829968 -0.0736104 0)
(-0.0786764 -0.0730706 0)
(-0.0741289 -0.0729114 0)
(-0.0683707 -0.0727638 0)
(-0.0660412 -0.0736234 0)
(-0.0647943 -0.0751956 0)
(-0.0585063 -0.077011 0)
(-0.173766 -0.0774421 0)
(-0.524801 -0.0612021 0)
(-0.378597 -0.0536801 0)
(0.36766 -0.0475175 0)
(0.520457 -0.0646818 0)
(0.180838 -0.0859835 0)
(0.0558447 -0.0896317 0)
(0.0557179 -0.0878054 0)
(0.0575709 -0.0839736 0)
(0.060238 -0.0797248 0)
(0.0665401 -0.0763736 0)
(0.0738757 -0.0745704 0)
(0.078351 -0.0729027 0)
(0.0819811 -0.0725219 0)
(0.08394 -0.0721702 0)
(0.0853595 -0.0723925 0)
(0.0862724 -0.0728329 0)
(0.0867061 -0.0734983 0)
(0.0863647 -0.0742466 0)
(0.0840238 -0.0749558 0)
(0.0757429 -0.0755347 0)
(0.0590244 -0.0758356 0)
(0.0243683 -0.0762793 0)
(-0.0243129 -0.0762729 0)
(-0.0590886 -0.0757669 0)
(-0.0759729 -0.0753242 0)
(-0.0844864 -0.0745121 0)
(-0.0871185 -0.073478 0)
(-0.087802 -0.0723159 0)
(-0.0877881 -0.0711414 0)
(-0.0872728 -0.0701029 0)
(-0.0865519 -0.0691313 0)
(-0.0848592 -0.0686369 0)
(-0.0828796 -0.0677912 0)
(-0.0786234 -0.0680425 0)
(-0.074105 -0.0675735 0)
(-0.0693197 -0.0684937 0)
(-0.0676478 -0.0702282 0)
(-0.0668741 -0.0726942 0)
(-0.0596566 -0.0750008 0)
(-0.167351 -0.0751244 0)
(-0.513139 -0.0595364 0)
(-0.373523 -0.0474695 0)
(0.359035 -0.0467396 0)
(0.501055 -0.0633349 0)
(0.168255 -0.0865632 0)
(0.0557521 -0.0898908 0)
(0.0597646 -0.0867429 0)
(0.0620336 -0.0810988 0)
(0.0641503 -0.0772687 0)
(0.0691775 -0.0726458 0)
(0.0753228 -0.0712248 0)
(0.0791381 -0.0693687 0)
(0.0821278 -0.0686454 0)
(0.0836712 -0.0681292 0)
(0.0847025 -0.0680435 0)
(0.0852696 -0.0684556 0)
(0.0855371 -0.069321 0)
(0.085244 -0.0704556 0)
(0.0831176 -0.0715519 0)
(0.0751465 -0.0724931 0)
(0.0585606 -0.0730465 0)
(0.0241108 -0.0736595 0)
(-0.0240426 -0.0736701 0)
(-0.0585546 -0.0730349 0)
(-0.0752304 -0.0723998 0)
(-0.0833487 -0.0713005 0)
(-0.0856786 -0.0699619 0)
(-0.0862236 -0.0684937 0)
(-0.0862831 -0.0672 0)
(-0.0860143 -0.0662528 0)
(-0.0855486 -0.0657196 0)
(-0.0841217 -0.0654219 0)
(-0.082424 -0.0653378 0)
(-0.0784666 -0.065633 0)
(-0.0745638 -0.0659329 0)
(-0.0709289 -0.0674966 0)
(-0.0700889 -0.0698709 0)
(-0.0693932 -0.072604 0)
(-0.0608481 -0.0749072 0)
(-0.158864 -0.0742154 0)
(-0.498151 -0.0576381 0)
(-0.366969 -0.04359 0)
(0.351668 -0.0412645 0)
(0.482082 -0.0610712 0)
(0.155248 -0.0840067 0)
(0.0556716 -0.0877328 0)
(0.0641902 -0.0851723 0)
(0.0667006 -0.0792219 0)
(0.0683835 -0.075776 0)
(0.0723641 -0.0705615 0)
(0.0770337 -0.0690132 0)
(0.0808366 -0.0660229 0)
(0.0831755 -0.0643284 0)
(0.08452 -0.0622192 0)
(0.085045 -0.0604897 0)
(0.0850415 -0.0590762 0)
(0.0847789 -0.0582803 0)
(0.0842149 -0.058333 0)
(0.0820604 -0.0593296 0)
(0.0743026 -0.0609115 0)
(0.0579004 -0.0624664 0)
(0.0237673 -0.063926 0)
(-0.0237109 -0.0639431 0)
(-0.0578645 -0.0624842 0)
(-0.0743016 -0.0608938 0)
(-0.0821372 -0.0592199 0)
(-0.0844138 -0.0580612 0)
(-0.0851405 -0.0577631 0)
(-0.0856287 -0.058226 0)
(-0.0858462 -0.0591892 0)
(-0.0857513 -0.0604113 0)
(-0.0844913 -0.0617474 0)
(-0.083083 -0.0628719 0)
(-0.0791969 -0.0643057 0)
(-0.0759008 -0.0654116 0)
(-0.0731145 -0.0675082 0)
(-0.0725695 -0.0698449 0)
(-0.0717273 -0.0722057 0)
(-0.0612095 -0.0735834 0)
(-0.15071 -0.0709092 0)
(-0.483627 -0.0544963 0)
(-0.359985 -0.032891 0)
(0.339949 -0.00209713 0)
(0.459867 -0.0426134 0)
(0.142562 -0.0624216 0)
(0.0546289 -0.0691917 0)
(0.067966 -0.0693216 0)
(0.0710882 -0.0661603 0)
(0.0724957 -0.0640393 0)
(0.0756945 -0.0606924 0)
(0.0796964 -0.0593663 0)
(0.0836525 -0.0565506 0)
(0.0857931 -0.0547354 0)
(0.0873703 -0.0519553 0)
(0.0877312 -0.0492278 0)
(0.0873986 -0.0461665 0)
(0.0862533 -0.0432184 0)
(0.0842329 -0.0414237 0)
(0.0806329 -0.0416392 0)
(0.0721238 -0.0426185 0)
(0.0556557 -0.04365 0)
(0.0226879 -0.0447031 0)
(-0.0226532 -0.0447163 0)
(-0.0556162 -0.043671 0)
(-0.0720848 -0.042631 0)
(-0.0806191 -0.041612 0)
(-0.0842747 -0.0413161 0)
(-0.0863823 -0.0429804 0)
(-0.0876574 -0.045737 0)
(-0.0881202 -0.0485217 0)
(-0.0880138 -0.0509418 0)
(-0.0864928 -0.0531896 0)
(-0.0848892 -0.0546937 0)
(-0.0809139 -0.0563946 0)
(-0.0776499 -0.057536 0)
(-0.075201 -0.0588161 0)
(-0.0746155 -0.0600278 0)
(-0.0729958 -0.0604677 0)
(-0.0595988 -0.0587649 0)
(-0.140471 -0.0516065 0)
(-0.461516 -0.0361013 0)
(-0.346149 0.00869022 0)
(0.312625 -0.05587 0)
(0.423951 -0.126718 0)
(0.129636 -0.13777 0)
(0.0490225 -0.149609 0)
(0.0671113 -0.159062 0)
(0.0717907 -0.165672 0)
(0.0736527 -0.17428 0)
(0.0768672 -0.179758 0)
(0.0810248 -0.18921 0)
(0.0852991 -0.195585 0)
(0.0876038 -0.204961 0)
(0.0898274 -0.212886 0)
(0.0906233 -0.221697 0)
(0.0908324 -0.229849 0)
(0.0893492 -0.237714 0)
(0.0857366 -0.245056 0)
(0.0809091 -0.251439 0)
(0.0723649 -0.256109 0)
(0.0558915 -0.258801 0)
(0.0227398 -0.260502 0)
(-0.0227163 -0.260513 0)
(-0.0558551 -0.258823 0)
(-0.0723174 -0.256138 0)
(-0.0808701 -0.251454 0)
(-0.0857324 -0.245027 0)
(-0.0894006 -0.2376 0)
(-0.0909685 -0.229602 0)
(-0.0908618 -0.221247 0)
(-0.0902495 -0.212217 0)
(-0.0881068 -0.203922 0)
(-0.0861714 -0.19436 0)
(-0.0819358 -0.187285 0)
(-0.0782343 -0.177771 0)
(-0.0755158 -0.171112 0)
(-0.074161 -0.162012 0)
(-0.0705103 -0.153756 0)
(-0.0526706 -0.143148 0)
(-0.12887 -0.130648 0)
(-0.425523 -0.124317 0)
(-0.316823 -0.0536166 0)
(0.271677 -0.298605 0)
(0.380945 -0.408603 0)
(0.120504 -0.450325 0)
(0.0341109 -0.487913 0)
(0.0524877 -0.510248 0)
(0.0564239 -0.523471 0)
(0.058922 -0.538649 0)
(0.0613068 -0.549933 0)
(0.0644449 -0.562136 0)
(0.068474 -0.572367 0)
(0.0691211 -0.584103 0)
(0.0712436 -0.593589 0)
(0.0713848 -0.604188 0)
(0.0719642 -0.612239 0)
(0.0715996 -0.620589 0)
(0.0710067 -0.627113 0)
(0.0699812 -0.633463 0)
(0.0650296 -0.642345 0)
(0.0514227 -0.654455 0)
(0.0210382 -0.666942 0)
(-0.0210355 -0.666948 0)
(-0.0514008 -0.654475 0)
(-0.0649831 -0.642388 0)
(-0.0699123 -0.63353 0)
(-0.0709245 -0.627191 0)
(-0.0715174 -0.62065 0)
(-0.0718992 -0.612245 0)
(-0.0713674 -0.604079 0)
(-0.0713192 -0.593311 0)
(-0.0692855 -0.583509 0)
(-0.0688568 -0.571513 0)
(-0.0649283 -0.560578 0)
(-0.0620649 -0.548073 0)
(-0.0600146 -0.535612 0)
(-0.0578905 -0.519631 0)
(-0.0548177 -0.504746 0)
(-0.0373314 -0.480673 0)
(-0.122325 -0.441314 0)
(-0.387285 -0.402298 0)
(-0.27802 -0.288544 0)
(0.206627 -0.228173 0)
(0.277748 -0.295677 0)
(0.0532097 -0.335265 0)
(-0.0087218 -0.365511 0)
(0.0328465 -0.379714 0)
(0.0444228 -0.385893 0)
(0.0481523 -0.392168 0)
(0.0542338 -0.39707 0)
(0.0594072 -0.399508 0)
(0.0641311 -0.402297 0)
(0.0671533 -0.404014 0)
(0.0704727 -0.404339 0)
(0.0726518 -0.404814 0)
(0.0750274 -0.403025 0)
(0.0750154 -0.401636 0)
(0.0733314 -0.39948 0)
(0.0662316 -0.399223 0)
(0.0521361 -0.403371 0)
(0.0321887 -0.412603 0)
(0.0107009 -0.423331 0)
(-0.0107026 -0.423331 0)
(-0.0321881 -0.412608 0)
(-0.0521341 -0.403393 0)
(-0.0662259 -0.399274 0)
(-0.0733205 -0.399567 0)
(-0.0749974 -0.401761 0)
(-0.0750006 -0.403179 0)
(-0.0726163 -0.404979 0)
(-0.0704276 -0.404475 0)
(-0.0671015 -0.404054 0)
(-0.064074 -0.402208 0)
(-0.0593484 -0.39909 0)
(-0.0541762 -0.396418 0)
(-0.0481081 -0.390904 0)
(-0.044417 -0.384062 0)
(-0.0329688 -0.376922 0)
(0.00845425 -0.361389 0)
(-0.0533457 -0.329409 0)
(-0.278308 -0.289806 0)
(-0.207205 -0.216319 0)
(0.206627 0.228173 0)
(0.277748 0.295677 0)
(0.0532097 0.335265 0)
(-0.0087218 0.365511 0)
(0.0328465 0.379714 0)
(0.0444228 0.385893 0)
(0.0481523 0.392168 0)
(0.0542338 0.39707 0)
(0.0594072 0.399508 0)
(0.0641311 0.402297 0)
(0.0671533 0.404014 0)
(0.0704727 0.404339 0)
(0.0726518 0.404814 0)
(0.0750274 0.403025 0)
(0.0750154 0.401636 0)
(0.0733314 0.39948 0)
(0.0662316 0.399223 0)
(0.0521361 0.403371 0)
(0.0321887 0.412603 0)
(0.0107009 0.423331 0)
(-0.0107026 0.423331 0)
(-0.0321881 0.412608 0)
(-0.0521341 0.403393 0)
(-0.0662259 0.399274 0)
(-0.0733205 0.399567 0)
(-0.0749974 0.401761 0)
(-0.0750006 0.403179 0)
(-0.0726163 0.404979 0)
(-0.0704276 0.404475 0)
(-0.0671015 0.404054 0)
(-0.064074 0.402208 0)
(-0.0593484 0.39909 0)
(-0.0541762 0.396418 0)
(-0.0481081 0.390904 0)
(-0.044417 0.384062 0)
(-0.0329688 0.376922 0)
(0.00845425 0.361389 0)
(-0.0533457 0.329409 0)
(-0.278308 0.289806 0)
(-0.207205 0.216319 0)
(0.271677 0.298605 0)
(0.380945 0.408603 0)
(0.120504 0.450325 0)
(0.0341109 0.487913 0)
(0.0524877 0.510248 0)
(0.0564239 0.523471 0)
(0.058922 0.538649 0)
(0.0613068 0.549933 0)
(0.0644449 0.562136 0)
(0.068474 0.572367 0)
(0.0691211 0.584103 0)
(0.0712436 0.593589 0)
(0.0713848 0.604188 0)
(0.0719642 0.612239 0)
(0.0715996 0.620589 0)
(0.0710067 0.627113 0)
(0.0699812 0.633463 0)