/*--------------------------------*- C++ -*----------------------------------*\
| =========                 |                                                 |
| \\      /  F ield         | OpenFOAM: The Open Source CFD Toolbox           |
|  \\    /   O peration     | Version:  v1912                                 |
|   \\  /    A nd           | Website:  www.openfoam.com                      |
|    \\/     M anipulation  |                                                 |
\*---------------------------------------------------------------------------*/
FoamFile
{
    version     2.0;
    format      ascii;
    class       volTensorField;
    location    "2.62";
    object      grad(U);
}
// * * * * * * * * * * * * * * * * * * * * * * * * * * * * * * * * * * * * * //

dimensions      [0 0 -1 0 0 0 0];


internalField   nonuniform List<tensor> 
1900
(
(-1.97428 -1.32063e-05 0 -1.87414e-05 -2.13114e-05 0 0 0 0)
(1.38482 6.3008e-06 0 -1.60068e-05 -1.58326e-05 0 0 0 0)
(-0.037534 5.68772e-05 0 -2.57578e-05 4.2645e-06 0 0 0 0)
(-0.0450176 0.000385645 0 -3.70484e-05 0.000110572 0 0 0 0)
(-0.0446272 0.0013559 0 0.00021073 0.00077294 0 0 0 0)
(-0.0450498 0.00198678 0 0.0013473 0.00275349 0 0 0 0)
(-0.0427779 -0.00475072 0 0.00443246 0.004777 0 0 0 0)
(-0.0371138 -0.0224205 0 0.00701926 -0.00411567 0 0 0 0)
(0.0229315 -0.0710689 0 -0.00129984 -0.0314964 0 0 0 0)
(0.0105993 -0.21764 0 -0.0660231 -0.135923 0 0 0 0)
(-1.97432 -2.39377e-05 0 -2.06369e-05 6.23415e-06 0 0 0 0)
(1.38481 1.92751e-05 0 -1.82793e-05 6.97216e-06 0 0 0 0)
(-0.037555 6.95272e-05 0 -3.01945e-05 -6.66532e-08 0 0 0 0)
(-0.0447811 0.00038303 0 1.55173e-05 -4.99051e-05 0 0 0 0)
(-0.0432429 0.00128702 0 0.000521028 -0.000385712 0 0 0 0)
(-0.040828 0.00201728 0 0.00230183 -0.0014058 0 0 0 0)
(-0.0371059 -0.00211844 0 0.00614603 -0.00237249 0 0 0 0)
(-0.0428461 -0.0138529 0 0.00834449 0.00334492 0 0 0 0)
(-0.0501108 -0.0607387 0 -0.00262853 0.0200481 0 0 0 0)
(-0.137641 -0.15258 0 -0.0965858 0.0744138 0 0 0 0)
(-1.97432 -3.57183e-13 0 -2.22261e-14 3.01545e-05 0 0 0 0)
(1.38481 3.90156e-14 0 4.96022e-14 1.77208e-05 0 0 0 0)
(-0.0375002 3.17086e-13 0 -6.57298e-14 -8.3957e-06 0 0 0 0)
(-0.0444664 3.33748e-13 0 1.77945e-13 -0.000121334 0 0 0 0)
(-0.0423409 1.6589e-15 0 1.21973e-15 -0.000774456 0 0 0 0)
(-0.0394248 -1.61841e-13 0 -2.26327e-14 -0.00269538 0 0 0 0)
(-0.0367352 -6.29833e-14 0 -1.63715e-13 -0.00480901 0 0 0 0)
(-0.0458884 -4.23507e-14 0 -1.01779e-13 0.0015415 0 0 0 0)
(-0.0819988 -1.81218e-13 0 -4.52654e-14 0.0228967 0 0 0 0)
(-0.184743 -1.11139e-13 0 -2.35814e-14 0.123019 0 0 0 0)
(-1.97432 2.39377e-05 0 2.06369e-05 6.23415e-06 0 0 0 0)
(1.38481 -1.92751e-05 0 1.82793e-05 6.97216e-06 0 0 0 0)
(-0.037555 -6.95272e-05 0 3.01945e-05 -6.66532e-08 0 0 0 0)
(-0.0447811 -0.00038303 0 -1.55173e-05 -4.99051e-05 0 0 0 0)
(-0.0432429 -0.00128702 0 -0.000521028 -0.000385712 0 0 0 0)
(-0.040828 -0.00201728 0 -0.00230183 -0.0014058 0 0 0 0)
(-0.0371059 0.00211844 0 -0.00614603 -0.00237249 0 0 0 0)
(-0.0428461 0.0138529 0 -0.00834449 0.00334492 0 0 0 0)
(-0.0501108 0.0607387 0 0.00262853 0.0200481 0 0 0 0)
(-0.137641 0.15258 0 0.0965858 0.0744138 0 0 0 0)
(-1.97428 1.32063e-05 0 1.87414e-05 -2.13114e-05 0 0 0 0)
(1.38482 -6.3008e-06 0 1.60068e-05 -1.58326e-05 0 0 0 0)
(-0.037534 -5.68772e-05 0 2.57578e-05 4.2645e-06 0 0 0 0)
(-0.0450176 -0.000385645 0 3.70484e-05 0.000110572 0 0 0 0)
(-0.0446272 -0.0013559 0 -0.00021073 0.00077294 0 0 0 0)
(-0.0450498 -0.00198678 0 -0.0013473 0.00275349 0 0 0 0)
(-0.0427779 0.00475072 0 -0.00443246 0.004777 0 0 0 0)
(-0.0371138 0.0224205 0 -0.00701926 -0.00411567 0 0 0 0)
(0.0229315 0.0710689 0 0.00129984 -0.0314964 0 0 0 0)
(0.0105993 0.21764 0 0.0660231 -0.135923 0 0 0 0)
(-0.142762 -0.370911 1.29402e-17 -0.21521 0.1737 -1.94103e-17 -5.51021e-17 -6.53914e-17 3.50746e-33)
(-0.279182 -0.458223 0 -0.30227 0.290885 0 1.47344e-16 5.37413e-17 0)
(-0.372396 -0.556519 0 -0.448912 0.316647 0 2.33648e-16 1.00117e-16 0)
(-1.17191 -0.388341 0 -1.06049 0.607914 0 0 0 0)
(0.189419 -1.85631 -4.5426e-16 -3.57718 3.92495 6.81391e-16 1.77968e-15 1.18646e-15 1.23128e-31)
(-0.28101 -0.22112 0 -0.192187 0.221319 0 -9.39906e-17 -3.40037e-17 0)
(-0.475385 -0.301307 0 -0.236132 0.35207 0 -1.47344e-16 -5.37413e-17 0)
(-0.796631 -0.452287 0 -0.484694 0.638779 0 -2.33648e-16 -1.00117e-16 0)
(-1.47067 -0.36343 0 -1.12345 1.14124 0 0 0 0)
(-1.08728 0.263664 0 -1.36603 1.39752 0 0 0 0)
(-0.346151 -3.53544e-14 0 -5.47502e-14 0.310072 0 0 0 0)
(-0.59514 3.38437e-13 0 -1.06399e-13 0.485483 0 0 0 0)
(-1.05387 1.36537e-13 0 1.38913e-13 0.938636 0 0 0 0)
(-1.79434 -7.89922e-14 0 -2.72077e-13 1.71579 0 0 0 0)
(-1.35753 2.36906e-13 0 -2.96865e-13 2.4868 0 0 0 0)
(-0.28101 0.22112 0 0.192187 0.221319 0 -9.39906e-17 3.40037e-17 0)
(-0.475385 0.301307 0 0.236132 0.35207 0 -1.47344e-16 5.37413e-17 0)
(-0.796631 0.452287 0 0.484694 0.638779 0 -2.33648e-16 1.00117e-16 0)
(-1.47067 0.36343 0 1.12345 1.14124 0 0 0 0)
(-1.08728 -0.263664 0 1.36603 1.39752 0 0 0 0)
(-0.142762 0.370911 -1.29402e-17 0.21521 0.1737 -1.94103e-17 2.43083e-16 -1.33399e-16 3.50746e-33)
(-0.279182 0.458223 0 0.30227 0.290885 0 1.47344e-16 -5.37413e-17 0)
(-0.372396 0.556519 0 0.448912 0.316647 0 2.33648e-16 -1.00117e-16 0)
(-1.17191 0.388341 -3.90992e-17 1.06049 0.607914 -5.86488e-17 7.06643e-16 -4.71095e-16 1.05979e-32)
(0.189419 1.85631 4.5426e-16 3.57718 3.92495 6.81391e-16 -1.77968e-15 1.18646e-15 1.23128e-31)
(0.0468633 0.522577 3.28114e-18 -0.479599 -1.09412 2.95303e-17 -1.11553e-15 8.93917e-17 -8.89356e-34)
(0.578821 -0.0151229 -8.88428e-19 -0.190898 -0.494312 -7.99585e-18 7.72512e-16 -7.03088e-17 -2.40809e-34)
(0.306506 0.0731463 0 0.137489 -0.303593 0 0 0 0)
(-0.261044 0.4719 -1.56369e-18 0.69637 0.332379 -1.40732e-17 -4.7349e-16 6.49504e-17 4.23839e-34)
(-1.27444 0.550593 5.72549e-18 2.31075 1.79004 5.15294e-17 2.81705e-16 -3.13005e-17 1.5519e-33)
(0.356662 0.501159 0 -0.574387 -0.525309 0 5.64987e-16 -2.82202e-17 0)
(0.72515 -0.019966 0 -0.208224 -0.574466 0 -3.89131e-16 2.77109e-17 0)
(0.605569 0.0960217 0 0.292101 -0.480745 0 0 0 0)
(0.605566 0.500953 0 1.08446 -0.689705 0 2.74658e-16 -4.16574e-17 0)
(1.2162 0.424714 0 3.42425 -1.37515 0 -2.72464e-17 1.09489e-17 0)
(0.462535 2.90877e-13 0 -6.29713e-14 -0.823436 0 0 0 0)
(0.832504 4.57165e-13 0 1.42939e-12 -0.691298 0 0 0 0)
(0.780919 5.39069e-13 0 3.83486e-12 -0.620344 0 0 0 0)
(1.08654 1.77417e-13 0 5.68586e-12 -1.10959 0 -9.67991e-17 5.00038e-29 0)
(1.87405 -3.49223e-13 0 7.68928e-12 -2.90839 0 5.44927e-17 -4.00204e-29 0)
(0.356662 -0.501159 0 0.574387 -0.525309 0 5.64987e-16 2.82202e-17 0)
(0.72515 0.019966 0 0.208224 -0.574466 0 -3.89131e-16 -2.77109e-17 0)
(0.605569 -0.0960217 0 -0.292101 -0.480745 0 0 0 0)
(0.605566 -0.500953 0 -1.08446 -0.689705 0 2.74658e-16 4.16574e-17 0)
(1.2162 -0.424714 0 -3.42425 -1.37515 0 -2.72464e-17 -1.09489e-17 0)
(0.0468633 -0.522577 0 0.479599 -1.09412 0 -5.64987e-16 -2.82202e-17 0)
(0.578821 0.0151229 8.88428e-19 0.190898 -0.494312 -7.99585e-18 5.74922e-18 -1.48871e-17 -2.40809e-34)
(0.306506 -0.0731463 0 -0.137489 -0.303593 0 0 0 0)
(-0.261044 -0.4719 1.56369e-18 -0.69637 0.332379 -1.40732e-17 2.09724e-17 -1.00102e-17 4.23839e-34)
(-1.27444 -0.550593 -5.72549e-18 -2.31075 1.79004 5.15294e-17 -2.81705e-16 -3.13005e-17 1.5519e-33)
(0.637437 -0.881196 0 10.3262 -0.194805 0 0 0 0)
(1.46688 -1.07801 0 5.72541 0.586807 0 0 0 0)
(-0.65145 0.133806 0 2.93704 0.916032 0 0 0 0)
(-0.676761 0.503919 0 0.752709 0.812455 0 0 0 0)
(-0.303764 0.271644 0 0.120108 0.480788 0 0 0 0)
(-0.100251 0.0657325 0 0.0316747 0.347943 0 0 0 0)
(0.00750925 0.017666 0 0.00968039 0.308947 0 0 0 0)
(0.076186 0.00900139 0 -0.00458708 0.29112 0 0 0 0)
(0.125256 0.00243909 0 -0.00127982 0.281367 0 0 0 0)
(0.157815 -0.00170411 0 -9.46138e-05 0.28205 0 0 0 0)
(0.187732 -0.00145694 0 -0.000982987 0.283221 0 0 0 0)
(0.212797 -0.00217114 0 -0.0017381 0.285516 0 0 0 0)
(0.231084 -0.00272801 0 -0.00244545 0.289279 0 0 0 0)
(0.242001 -0.00290441 0 -0.00281336 0.293646 0 0 0 0)
(0.246435 -0.002912 0 -0.00281069 0.298313 0 0 0 0)
(0.247569 -0.00273913 0 -0.00255707 0.302838 0 0 0 0)
(0.251669 -0.00239893 0 -0.00215112 0.306952 0 0 0 0)
(0.263044 -0.00181465 0 -0.00165883 0.310345 0 0 0 0)
(0.295014 -0.00152613 0 -0.00107625 0.312586 0 0 0 0)
(0.283313 -0.000574707 0 -0.00020736 0.315177 0 0 0 0)
(0.285084 0.00116914 0 0.000770625 0.31446 0 0 0 0)
(0.299146 0.00187022 0 0.00163264 0.311426 0 0 0 0)
(0.269402 0.00216689 0 0.00210259 0.308531 0 0 0 0)
(0.261204 0.00270582 0 0.00243024 0.304676 0 0 0 0)
(0.260779 0.00312927 0 0.00263507 0.300124 0 0 0 0)
(0.265115 0.00352809 0 0.00278766 0.294998 0 0 0 0)
(0.26934 0.00393638 0 0.00293262 0.28929 0 0 0 0)
(0.271646 0.00434439 0 0.00308517 0.283002 0 0 0 0)
(0.271629 0.00474571 0 0.00324247 0.276136 0 0 0 0)
(0.26897 0.0051311 0 0.00339887 0.268686 0 0 0 0)
(0.262945 0.0054967 0 0.00355065 0.260649 0 0 0 0)
(0.253075 0.00580608 0 0.00370565 0.252 0 0 0 0)
(0.240549 0.00613903 0 0.0038396 0.242832 0 0 0 0)
(0.228767 0.00617647 0 0.00400372 0.232835 0 0 0 0)
(0.219722 0.00673768 0 0.00387578 0.223152 0 0 0 0)
(0.205485 0.00489856 0 0.00527897 0.21045 0 0 0 0)
(0.160508 0.00955262 0 0.00376839 0.205972 0 0 0 0)
(0.311667 0.0188951 0 0.00909276 0.180137 0 0 0 0)
(2.38738 0.0368554 0 0.0143126 0.145387 0 0 0 0)
(2.13865 0.0263461 0 0.00675406 0.0743187 0 0 0 0)
(1.49023 -0.759875 0 9.40594 -1.43298 0 0 0 0)
(-0.0398851 -0.919201 0 5.15533 1.75022 0 0 0 0)
(-1.64341 0.151556 0 2.77867 2.27267 0 0 0 0)
(-1.22127 0.389265 0 0.659009 1.29026 0 0 0 0)
(-0.432372 0.165687 0 0.0221682 0.540444 0 0 0 0)
(-0.110894 0.0336887 0 -0.0145419 0.356484 0 0 0 0)
(0.00634208 0.00882896 0 -0.02155 0.314489 0 0 0 0)
(0.0776529 0.00469974 0 -0.020594 0.295757 0 0 0 0)
(0.126787 0.0010924 0 -0.0160596 0.283546 0 0 0 0)
(0.158567 -0.000936716 0 -0.0142136 0.287372 0 0 0 0)
(0.187992 -0.000739548 0 -0.0133031 0.289404 0 0 0 0)
(0.212893 -0.00112884 0 -0.0121574 0.292381 0 0 0 0)
(0.231093 -0.00140622 0 -0.0112332 0.296868 0 0 0 0)
(0.242051 -0.00147199 0 -0.0102895 0.301758 0 0 0 0)
(0.246578 -0.00146058 0 -0.00914333 0.306851 0 0 0 0)
(0.247809 -0.00136995 0 -0.00773622 0.311768 0 0 0 0)
(0.251987 -0.00120376 0 -0.00609359 0.316267 0 0 0 0)
(0.263412 -0.000916104 0 -0.00431636 0.320015 0 0 0 0)
(0.295434 -0.000777387 0 -0.00252103 0.322505 0 0 0 0)
(0.283752 -0.000293596 0 -0.0006805 0.325261 0 0 0 0)
(0.285508 0.000600009 0 0.00094681 0.324481 0 0 0 0)
(0.299514 0.000958631 0 0.00273251 0.321242 0 0 0 0)
(0.269682 0.00110845 0 0.00438259 0.318052 0 0 0 0)
(0.261425 0.00138272 0 0.00600072 0.313793 0 0 0 0)
(0.260946 0.00159992 0 0.00755757 0.308751 0 0 0 0)
(0.265232 0.00180718 0 0.00903964 0.303036 0 0 0 0)
(0.269401 0.00202127 0 0.0104188 0.296623 0 0 0 0)
(0.271639 0.00223607 0 0.0116546 0.289505 0 0 0 0)
(0.271543 0.00244673 0 0.0127021 0.281689 0 0 0 0)
(0.268798 0.00264634 0 0.0135206 0.273191 0 0 0 0)
(0.262692 0.00283035 0 0.01408 0.264051 0 0 0 0)
(0.252755 0.00297834 0 0.0143713 0.254297 0 0 0 0)
(0.240202 0.00312888 0 0.0143805 0.244092 0 0 0 0)
(0.228389 0.00312319 0 0.014188 0.233194 0 0 0 0)
(0.219559 0.00335806 0 0.0135938 0.222861 0 0 0 0)
(0.205147 0.0023406 0 0.0138618 0.210033 0 0 0 0)
(0.160692 0.00473384 0 0.012093 0.206022 0 0 0 0)
(0.31302 0.00933283 0 0.0136607 0.177196 0 0 0 0)
(2.38771 0.0188048 0 0.0137328 0.14107 0 0 0 0)
(2.13819 0.0137098 0 0.00181126 0.0505053 0 0 0 0)
(1.57968 -5.86965e-13 0 7.6557e-12 -3.09894 0 0 0 0)
(-0.46106 -4.06811e-13 0 2.79428e-12 2.53415 0 0 0 0)
(-1.95947 1.21527e-13 0 1.11605e-12 3.22057 0 0 0 0)
(-1.47865 1.92062e-13 0 -2.09941e-13 1.4922 0 0 0 0)
(-0.499706 4.73428e-14 0 -2.75979e-13 0.54437 0 0 0 0)
(-0.112969 1.05563e-13 0 -1.81357e-13 0.353103 0 0 0 0)
(0.00574862 1.46498e-12 0 6.8009e-13 0.312761 0 0 0 0)
(0.0777832 3.31357e-12 0 7.30555e-12 0.292404 0 0 0 0)
(0.127112 1.23895e-12 0 1.10608e-11 0.28045 0 0 0 0)
(0.158617 -9.76017e-12 0 4.82963e-13 0.284893 0 0 0 0)
(0.188331 -2.59881e-11 0 -2.91818e-11 0.28689 0 0 0 0)
(0.213399 -2.99124e-11 0 -6.15778e-11 0.289978 0 0 0 0)
(0.231627 4.49475e-13 0 -5.78116e-11 0.294651 0 0 0 0)
(0.242609 5.66962e-11 0 1.70101e-11 0.299645 0 0 0 0)
(0.247177 9.36478e-11 0 1.48416e-10 0.304771 0 0 0 0)
(0.248456 8.36588e-11 0 2.89205e-10 0.309687 0 0 0 0)
(0.252664 3.16242e-10 0 -2.37796e-10 0.314189 0 0 0 0)
(0.264084 2.34644e-10 0 -3.95991e-10 0.317963 0 0 0 0)
(0.296072 -3.60172e-10 0 -3.49541e-10 0.320487 0 0 0 0)
(0.284322 -4.96888e-10 0 -6.539e-10 0.323307 0 0 0 0)
(0.286077 -1.71868e-10 0 -4.8149e-10 0.322506 0 0 0 0)
(0.300146 -3.78466e-11 0 7.97064e-10 0.319182 0 0 0 0)
(0.270353 6.63629e-10 0 3.63876e-10 0.315915 0 0 0 0)
(0.262128 1.21431e-09 0 -2.10508e-10 0.311562 0 0 0 0)
(0.261663 6.3291e-10 0 9.2463e-10 0.306409 0 0 0 0)
(0.265947 2.75922e-10 0 5.96974e-10 0.300562 0 0 0 0)
(0.270101 3.68313e-12 0 -8.54347e-10 0.293985 0 0 0 0)
(0.27231 -5.01719e-10 0 -1.52012e-09 0.286666 0 0 0 0)
(0.272172 -8.58036e-10 0 -1.38821e-09 0.278612 0 0 0 0)
(0.269371 -9.28445e-10 0 -6.64827e-10 0.269845 0 0 0 0)
(0.263193 -7.56209e-10 0 1.37104e-10 0.260418 0 0 0 0)
(0.253162 -6.75001e-10 0 1.06521e-09 0.250386 0 0 0 0)
(0.240495 -4.38887e-10 0 1.91262e-09 0.239942 0 0 0 0)
(0.228538 -1.96422e-10 0 2.69187e-09 0.228875 0 0 0 0)
(0.219627 -1.47734e-10 0 3.08707e-09 0.21847 0 0 0 0)
(0.205049 -1.50709e-10 0 3.62793e-09 0.205788 0 0 0 0)
(0.160449 3.55064e-10 0 4.08265e-09 0.202379 0 0 0 0)
(0.312144 1.13449e-09 0 3.167e-09 0.173243 0 0 0 0)
(2.38394 -1.90066e-11 0 1.82611e-09 0.138215 0 0 0 0)
(2.13519 -6.8602e-10 0 2.63363e-10 0.0439604 0 0 0 0)
(1.49023 0.759875 0 -9.40594 -1.43298 0 0 0 0)
(-0.0398851 0.919201 0 -5.15533 1.75022 0 0 0 0)
(-1.64341 -0.151556 0 -2.77867 2.27267 0 0 0 0)
(-1.22127 -0.389265 0 -0.659009 1.29026 0 0 0 0)
(-0.432372 -0.165687 0 -0.0221682 0.540444 0 0 0 0)
(-0.110894 -0.0336887 0 0.0145419 0.356484 0 0 0 0)
(0.00634208 -0.00882896 0 0.02155 0.314489 0 0 0 0)
(0.0776529 -0.00469974 0 0.020594 0.295757 0 0 0 0)
(0.126787 -0.0010924 0 0.0160596 0.283546 0 0 0 0)
(0.158567 0.000936716 0 0.0142136 0.287372 0 0 0 0)
(0.187992 0.000739548 0 0.0133031 0.289404 0 0 0 0)
(0.212893 0.00112884 0 0.0121574 0.292381 0 0 0 0)
(0.231093 0.00140622 0 0.0112332 0.296868 0 0 0 0)
(0.242051 0.00147199 0 0.0102895 0.301758 0 0 0 0)
(0.246578 0.00146058 0 0.00914333 0.306851 0 0 0 0)
(0.247809 0.00136995 0 0.00773622 0.311768 0 0 0 0)
(0.251987 0.00120376 0 0.00609359 0.316267 0 0 0 0)
(0.263412 0.000916104 0 0.00431636 0.320015 0 0 0 0)
(0.295434 0.000777386 0 0.00252103 0.322505 0 0 0 0)
(0.283752 0.000293595 0 0.000680498 0.325261 0 0 0 0)
(0.285508 -0.000600008 0 -0.000946811 0.324481 0 0 0 0)
(0.299514 -0.00095863 0 -0.00273251 0.321242 0 0 0 0)
(0.269682 -0.00110845 0 -0.00438259 0.318052 0 0 0 0)
(0.261425 -0.00138272 0 -0.00600072 0.313793 0 0 0 0)
(0.260946 -0.00159992 0 -0.00755757 0.308751 0 0 0 0)
(0.265232 -0.00180718 0 -0.00903964 0.303036 0 0 0 0)
(0.269401 -0.00202127 0 -0.0104187 0.296623 0 0 0 0)
(0.271639 -0.00223607 0 -0.0116546 0.289505 0 0 0 0)
(0.271543 -0.00244673 0 -0.0127021 0.281689 0 0 0 0)
(0.268798 -0.00264634 0 -0.0135206 0.273191 0 0 0 0)
(0.262692 -0.00283035 0 -0.01408 0.264051 0 0 0 0)
(0.252755 -0.00297834 0 -0.0143713 0.254297 0 0 0 0)
(0.240202 -0.00312888 0 -0.0143805 0.244092 0 0 0 0)
(0.228389 -0.00312319 0 -0.014188 0.233194 0 0 0 0)
(0.219559 -0.00335806 0 -0.0135938 0.222861 0 0 0 0)
(0.205147 -0.0023406 0 -0.0138618 0.210033 0 0 0 0)
(0.160692 -0.00473383 0 -0.012093 0.206022 0 0 0 0)
(0.31302 -0.00933283 0 -0.0136607 0.177196 0 0 0 0)
(2.38771 -0.0188048 0 -0.0137328 0.14107 0 0 0 0)
(2.13819 -0.0137098 0 -0.00181126 0.0505053 0 0 0 0)
(0.637437 0.881196 0 -10.3262 -0.194805 0 0 0 0)
(1.46688 1.07801 0 -5.72541 0.586807 0 0 0 0)
(-0.65145 -0.133806 0 -2.93704 0.916032 0 0 0 0)
(-0.676761 -0.503919 0 -0.752709 0.812455 0 0 0 0)
(-0.303764 -0.271644 0 -0.120108 0.480788 0 0 0 0)
(-0.100251 -0.0657325 0 -0.0316747 0.347943 0 0 0 0)
(0.00750925 -0.017666 0 -0.00968039 0.308947 0 0 0 0)
(0.076186 -0.00900139 0 0.00458708 0.29112 0 0 0 0)
(0.125256 -0.00243909 0 0.00127982 0.281367 0 0 0 0)
(0.157815 0.00170411 0 9.46138e-05 0.28205 0 0 0 0)
(0.187732 0.00145694 0 0.000982987 0.283221 0 0 0 0)
(0.212797 0.00217114 0 0.0017381 0.285516 0 0 0 0)
(0.231084 0.00272801 0 0.00244545 0.289279 0 0 0 0)
(0.242001 0.00290441 0 0.00281336 0.293646 0 0 0 0)
(0.246435 0.002912 0 0.00281069 0.298313 0 0 0 0)
(0.247569 0.00273913 0 0.00255707 0.302838 0 0 0 0)
(0.251669 0.00239893 0 0.00215112 0.306952 0 0 0 0)
(0.263044 0.00181465 0 0.00165883 0.310345 0 0 0 0)
(0.295014 0.00152613 0 0.00107625 0.312586 0 0 0 0)
(0.283313 0.000574706 0 0.00020736 0.315177 0 0 0 0)
(0.285084 -0.00116915 0 -0.000770627 0.31446 0 0 0 0)
(0.299146 -0.00187022 0 -0.00163264 0.311426 0 0 0 0)
(0.269402 -0.00216689 0 -0.00210259 0.308531 0 0 0 0)
(0.261204 -0.00270582 0 -0.00243024 0.304676 0 0 0 0)
(0.260779 -0.00312927 0 -0.00263507 0.300124 0 0 0 0)
(0.265115 -0.00352809 0 -0.00278766 0.294998 0 0 0 0)
(0.26934 -0.00393638 0 -0.00293262 0.28929 0 0 0 0)
(0.271646 -0.00434439 0 -0.00308517 0.283002 0 0 0 0)
(0.271629 -0.00474571 0 -0.00324247 0.276136 0 0 0 0)
(0.26897 -0.0051311 0 -0.00339886 0.268686 0 0 0 0)
(0.262945 -0.0054967 0 -0.00355065 0.260649 0 0 0 0)
(0.253075 -0.00580608 0 -0.00370565 0.252 0 0 0 0)
(0.240549 -0.00613903 0 -0.0038396 0.242832 0 0 0 0)
(0.228767 -0.00617647 0 -0.00400372 0.232835 0 0 0 0)
(0.219722 -0.00673768 0 -0.00387578 0.223152 0 0 0 0)
(0.205485 -0.00489856 0 -0.00527898 0.21045 0 0 0 0)
(0.160508 -0.00955262 0 -0.00376839 0.205972 0 0 0 0)
(0.311667 -0.0188951 0 -0.00909276 0.180137 0 0 0 0)
(2.38738 -0.0368554 0 -0.0143126 0.145387 0 0 0 0)
(2.13865 -0.0263461 0 -0.00675406 0.0743187 0 0 0 0)
(2.51928 1.18631 0 -3.67629 -0.0860668 0 0 0 0)
(2.85292 1.43238 0 -2.50294 0.235674 0 0 0 0)
(0.328876 -0.0305371 0 -1.5407 0.323865 0 0 0 0)
(-0.083879 -0.529714 0 -0.569109 0.382807 0 0 0 0)
(-0.128791 -0.334549 0 -0.22121 0.371079 0 0 0 0)
(-0.0539321 -0.104429 0 -0.0926103 0.322887 0 0 0 0)
(0.0277385 -0.0342548 0 -0.0456322 0.290157 0 0 0 0)
(0.0862241 -0.0170265 0 -0.0131724 0.273569 0 0 0 0)
(0.12574 -0.00522472 0 -0.00884468 0.268391 0 0 0 0)
(0.159251 0.00121261 0 -0.00500988 0.264253 0 0 0 0)
(0.189324 0.00208446 0 -0.0012516 0.263887 0 0 0 0)
(0.213922 0.00372351 0 0.00135198 0.265219 0 0 0 0)
(0.231778 0.00497753 0 0.00303789 0.267981 0 0 0 0)
(0.242339 0.00548259 0 0.00387653 0.271453 0 0 0 0)
(0.246583 0.00554847 0 0.00411572 0.275199 0 0 0 0)
(0.247673 0.00520593 0 0.00400417 0.278827 0 0 0 0)
(0.25179 0.00453067 0 0.00363308 0.282119 0 0 0 0)
(0.263162 0.00341102 0 0.00296704 0.284859 0 0 0 0)
(0.295008 0.00294231 0 0.00193056 0.286678 0 0 0 0)
(0.283101 0.0011443 0 0.000312038 0.289102 0 0 0 0)
(0.284845 -0.00229451 0 -0.00147912 0.288453 0 0 0 0)
(0.299103 -0.00362365 0 -0.00312039 0.285599 0 0 0 0)
(0.269506 -0.00411903 0 -0.00416801 0.283055 0 0 0 0)
(0.261346 -0.00512645 0 -0.00502057 0.279669 0 0 0 0)
(0.260914 -0.00590223 0 -0.00571916 0.275665 0 0 0 0)
(0.26518 -0.00661337 0 -0.00638705 0.271162 0 0 0 0)
(0.269285 -0.00733156 0 -0.00710474 0.266172 0 0 0 0)
(0.271437 -0.00804945 0 -0.00790303 0.26072 0 0 0 0)
(0.271247 -0.00876881 0 -0.00878366 0.254826 0 0 0 0)
(0.268406 -0.00948773 0 -0.00973723 0.248507 0 0 0 0)
(0.262207 -0.0102139 0 -0.0107462 0.241784 0 0 0 0)
(0.252203 -0.0108848 0 -0.0117819 0.234664 0 0 0 0)
(0.239615 -0.0116702 0 -0.0127407 0.227289 0 0 0 0)
(0.227929 -0.0119376 0 -0.0136223 0.219311 0 0 0 0)
(0.218572 -0.0134918 0 -0.0138624 0.212059 0 0 0 0)
(0.204823 -0.0101598 0 -0.016147 0.201116 0 0 0 0)
(0.158513 -0.0181763 0 -0.0148542 0.198782 0 0 0 0)
(0.307969 -0.0362796 0 -0.0208376 0.180476 0 0 0 0)
(2.38955 -0.0643109 0 -0.0247902 0.152383 0 0 0 0)
(2.1424 -0.0436782 0 -0.0132372 0.105791 0 0 0 0)
(2.32913 1.09649 0 -0.455341 0.455322 0 0 0 0)
(2.78157 1.28301 0 -0.754738 0.107213 0 0 0 0)
(0.686382 -0.0474003 0 -0.668157 0.0521353 0 0 0 0)
(0.276825 -0.44459 0 -0.407409 0.153661 0 0 0 0)
(0.0615815 -0.295654 0 -0.218107 0.286373 0 0 0 0)
(0.0441042 -0.122962 0 -0.0982039 0.299552 0 0 0 0)
(0.073211 -0.0562952 0 -0.0458653 0.280573 0 0 0 0)
(0.106253 -0.0256722 0 -0.0196354 0.26817 0 0 0 0)
(0.132862 -0.00992308 0 -0.00833061 0.26392 0 0 0 0)
(0.164362 -0.00237336 0 -0.00176895 0.257155 0 0 0 0)
(0.19301 0.0020517 0 0.0028205 0.255459 0 0 0 0)
(0.216327 0.00528425 0 0.00601393 0.255591 0 0 0 0)
(0.233144 0.00752942 0 0.00801307 0.256858 0 0 0 0)
(0.242858 0.00847793 0 0.00896153 0.258788 0 0 0 0)
(0.246478 0.00860352 0 0.00914255 0.260961 0 0 0 0)
(0.247048 0.00808406 0 0.00877598 0.26315 0 0 0 0)
(0.250605 0.00706849 0 0.00787345 0.265223 0 0 0 0)
(0.261341 0.00535227 0 0.0062991 0.267029 0 0 0 0)
(0.292459 0.00485531 0 0.0039819 0.268204 0 0 0 0)
(0.280141 0.00197978 0 0.000798298 0.27042 0 0 0 0)
(0.281904 -0.00394081 0 -0.00244869 0.269885 0 0 0 0)
(0.296578 -0.00613205 0 -0.00549446 0.267265 0 0 0 0)
(0.267515 -0.00683453 0 -0.00760052 0.265367 0 0 0 0)
(0.259634 -0.0085291 0 -0.00929727 0.262811 0 0 0 0)
(0.259389 -0.00984059 0 -0.0106613 0.259803 0 0 0 0)
(0.263745 -0.0110211 0 -0.011868 0.256455 0 0 0 0)
(0.267909 -0.0121773 0 -0.0130171 0.252811 0 0 0 0)
(0.27014 -0.013291 0 -0.0141268 0.248918 0 0 0 0)
(0.270067 -0.0143575 0 -0.0151705 0.244828 0 0 0 0)
(0.267382 -0.0153631 0 -0.0161206 0.240583 0 0 0 0)
(0.261371 -0.0163069 0 -0.0169331 0.236254 0 0 0 0)
(0.251621 -0.0170509 0 -0.0175871 0.23188 0 0 0 0)
(0.239276 -0.0179681 0 -0.0179537 0.227698 0 0 0 0)
(0.228136 -0.0177628 0 -0.0182686 0.223222 0 0 0 0)
(0.217906 -0.0206485 0 -0.0176697 0.220156 0 0 0 0)
(0.204885 -0.0148713 0 -0.020483 0.21246 0 0 0 0)
(0.157057 -0.0248184 0 -0.0188404 0.21344 0 0 0 0)
(0.304076 -0.0542846 0 -0.0233769 0.204995 0 0 0 0)
(2.39354 -0.0941021 0 -0.0238569 0.185823 0 0 0 0)
(2.14778 -0.0619504 0 -0.0224156 0.164677 0 0 0 0)
(2.23077 0.850861 0 -0.0138469 0.487107 0 0 0 0)
(2.64784 1.04385 0 -0.161946 -0.00232382 0 0 0 0)
(0.663574 0.0142212 0 -0.230441 -0.00477417 0 0 0 0)
(0.349805 -0.303993 0 -0.241573 0.0961614 0 0 0 0)
(0.169171 -0.193962 0 -0.158746 0.245143 0 0 0 0)
(0.112047 -0.110018 0 -0.0921713 0.276949 0 0 0 0)
(0.10345 -0.0644964 0 -0.0474311 0.278126 0 0 0 0)
(0.122394 -0.0330736 0 -0.029128 0.269717 0 0 0 0)
(0.142956 -0.0158386 0 -0.0139598 0.264998 0 0 0 0)
(0.169996 -0.00694134 0 -0.00513064 0.259045 0 0 0 0)
(0.196824 0.000577252 0 0.000915193 0.256398 0 0 0 0)
(0.218926 0.00507151 0 0.00525616 0.255385 0 0 0 0)
(0.234619 0.00805787 0 0.00797541 0.255198 0 0 0 0)
(0.243427 0.00943645 0 0.00936631 0.255606 0 0 0 0)
(0.246404 0.00975209 0 0.00981081 0.256306 0 0 0 0)
(0.24645 0.00931307 0 0.00958036 0.257185 0 0 0 0)
(0.249403 0.00826833 0 0.00868975 0.258147 0 0 0 0)
(0.259412 0.00628398 0 0.0069812 0.259057 0 0 0 0)
(0.289708 0.00621041 0 0.00438135 0.259588 0 0 0 0)
(0.276904 0.00276373 0 0.000819904 0.261635 0 0 0 0)
(0.278781 -0.00533451 0 -0.00300939 0.26129 0 0 0 0)
(0.294139 -0.00797687 0 -0.00640792 0.258912 0 0 0 0)
(0.265841 -0.00841147 0 -0.00868166 0.257801 0 0 0 0)
(0.258397 -0.0104885 0 -0.0103694 0.256265 0 0 0 0)
(0.258437 -0.0120266 0 -0.0115785 0.254512 0 0 0 0)
(0.26291 -0.0133512 0 -0.0125583 0.252645 0 0 0 0)
(0.267108 -0.0145947 0 -0.013474 0.250719 0 0 0 0)
(0.269362 -0.0157418 0 -0.0143727 0.248789 0 0 0 0)
(0.269325 -0.0168007 0 -0.0152513 0.24688 0 0 0 0)
(0.266708 -0.0177503 0 -0.01606 0.245042 0 0 0 0)
(0.260793 -0.0186009 0 -0.016786 0.243279 0 0 0 0)
(0.251219 -0.0191293 0 -0.0173526 0.241638 0 0 0 0)
(0.238958 -0.0200128 0 -0.0175948 0.24038 0 0 0 0)
(0.228203 -0.0192054 0 -0.0181701 0.238551 0 0 0 0)
(0.216438 -0.0238629 0 -0.0175827 0.238616 0 0 0 0)
(0.203695 -0.0166319 0 -0.0219495 0.232414 0 0 0 0)
(0.155724 -0.0253701 0 -0.0206528 0.235476 0 0 0 0)
(0.303135 -0.0628917 0 -0.022457 0.236067 0 0 0 0)
(2.39048 -0.103163 0 -0.0181048 0.220507 0 0 0 0)
(2.14379 -0.0640562 0 -0.0367374 0.230689 0 0 0 0)
(2.18642 0.624855 0 0.061756 0.462041 0 0 0 0)
(2.57285 0.809011 0 -0.0338304 0.0905345 0 0 0 0)
(0.609651 0.0475036 0 -0.093501 0.0552499 0 0 0 0)
(0.345913 -0.203761 0 -0.147458 0.129825 0 0 0 0)
(0.20555 -0.12144 0 -0.119711 0.233715 0 0 0 0)
(0.151371 -0.0911783 0 -0.0891341 0.25795 0 0 0 0)
(0.133962 -0.0632644 0 -0.0530656 0.269555 0 0 0 0)
(0.138507 -0.0383229 0 -0.0359615 0.266024 0 0 0 0)
(0.155987 -0.0202065 0 -0.0206405 0.262899 0 0 0 0)
(0.178696 -0.010661 0 -0.00948093 0.259843 0 0 0 0)
(0.203019 -0.00147539 0 -0.0013777 0.257688 0 0 0 0)
(0.22313 0.00412863 0 0.00430881 0.25681 0 0 0 0)
(0.237104 0.0077422 0 0.00787441 0.25641 0 0 0 0)
(0.244627 0.00954492 0 0.0097488 0.256458 0 0 0 0)
(0.246684 0.010125 0 0.0104803 0.256757 0 0 0 0)
(0.245968 0.00985812 0 0.0103856 0.257246 0 0 0 0)
(0.2481 0.00887238 0 0.00950979 0.257825 0 0 0 0)
(0.257189 0.00674151 0 0.00768771 0.258384 0 0 0 0)
(0.286522 0.00733951 0 0.00484551 0.258684 0 0 0 0)
(0.273019 0.00361946 0 0.000942561 0.260749 0 0 0 0)
(0.274939 -0.00656485 0 -0.00352253 0.260615 0 0 0 0)
(0.291112 -0.00949382 0 -0.00739902 0.258332 0 0 0 0)
(0.263698 -0.00938507 0 -0.0100738 0.257629 0 0 0 0)
(0.256842 -0.0116984 0 -0.0120267 0.256612 0 0 0 0)
(0.25728 -0.0133291 0 -0.0133683 0.25548 0 0 0 0)
(0.261919 -0.0146762 0 -0.0144157 0.254317 0 0 0 0)
(0.266161 -0.0158933 0 -0.0153869 0.253174 0 0 0 0)
(0.268427 -0.0169904 0 -0.0163692 0.252066 0 0 0 0)
(0.268441 -0.0179676 0 -0.0173083 0.251046 0 0 0 0)
(0.265903 -0.0188333 0 -0.0182431 0.250025 0 0 0 0)
(0.260125 -0.0195871 0 -0.0189388 0.249209 0 0 0 0)
(0.250841 -0.0198449 0 -0.0195682 0.248307 0 0 0 0)
(0.238488 -0.0209429 0 -0.0196212 0.248015 0 0 0 0)
(0.228148 -0.0194619 0 -0.0206589 0.246468 0 0 0 0)
(0.214264 -0.0265621 0 -0.0200301 0.247484 0 0 0 0)
(0.201926 -0.0178972 0 -0.0257306 0.241141 0 0 0 0)
(0.156568 -0.0212984 0 -0.0246104 0.244582 0 0 0 0)
(0.306531 -0.0687093 0 -0.0185011 0.251764 0 0 0 0)
(2.37978 -0.0992853 0 -0.0133503 0.236256 0 0 0 0)
(2.12982 -0.0521395 0 -0.0512015 0.269473 0 0 0 0)
(2.13866 0.492864 0 0.035393 0.446177 0 0 0 0)
(2.49823 0.651856 0 -0.00106458 0.151521 0 0 0 0)
(0.554079 0.0520829 0 -0.0468231 0.10631 0 0 0 0)
(0.324549 -0.132018 0 -0.0976944 0.164366 0 0 0 0)
(0.225374 -0.0704963 0 -0.0919775 0.23125 0 0 0 0)
(0.176268 -0.0754813 0 -0.0708033 0.246318 0 0 0 0)
(0.154689 -0.056716 0 -0.0514574 0.261775 0 0 0 0)
(0.15364 -0.0394883 0 -0.0357959 0.263141 0 0 0 0)
(0.168474 -0.0217944 0 -0.022467 0.262635 0 0 0 0)
(0.188559 -0.0119624 0 -0.0105883 0.262372 0 0 0 0)
(0.210112 -0.00234602 0 -0.00175987 0.261901 0 0 0 0)
(0.227841 0.00383933 0 0.00449754 0.261804 0 0 0 0)
(0.239861 0.00771913 0 0.00823749 0.261963 0 0 0 0)
(0.245939 0.00977079 0 0.0102308 0.262243 0 0 0 0)
(0.247018 0.0105108 0 0.0110069 0.262672 0 0 0 0)
(0.245515 0.010343 0 0.0109722 0.263187 0 0 0 0)
(0.246804 0.00936562 0 0.0101501 0.263733 0 0 0 0)
(0.254917 0.0071118 0 0.00830877 0.264249 0 0 0 0)
(0.283208 0.00848933 0 0.00534095 0.264587 0 0 0 0)
(0.26884 0.00462439 0 0.0011526 0.266758 0 0 0 0)
(0.270743 -0.00766364 0 -0.00382362 0.266817 0 0 0 0)
(0.287826 -0.0108544 0 -0.00811695 0.26456 0 0 0 0)
(0.261382 -0.0100691 0 -0.0110848 0.263999 0 0 0 0)
(0.255222 -0.0125592 0 -0.0131965 0.263161 0 0 0 0)
(0.256135 -0.0142383 0 -0.0145658 0.262226 0 0 0 0)
(0.260965 -0.0155734 0 -0.015577 0.261276 0 0 0 0)
(0.265225 -0.0167637 0 -0.0165233 0.260337 0 0 0 0)
(0.26751 -0.0177928 0 -0.017446 0.259477 0 0 0 0)
(0.26752 -0.0187672 0 -0.0184576 0.258556 0 0 0 0)
(0.265137 -0.0195207 0 -0.0191942 0.257889 0 0 0 0)
(0.259516 -0.0202565 0 -0.0200385 0.256976 0 0 0 0)
(0.250562 -0.0202795 0 -0.0203775 0.256417 0 0 0 0)
(0.237907 -0.0217854 0 -0.0202293 0.256294 0 0 0 0)
(0.227809 -0.0197168 0 -0.021945 0.25422 0 0 0 0)
(0.21155 -0.0289962 0 -0.0213003 0.255544 0 0 0 0)
(0.199282 -0.0194287 0 -0.0273336 0.250093 0 0 0 0)
(0.162691 -0.015133 0 -0.025702 0.252965 0 0 0 0)
(0.313986 -0.0709148 0 -0.0118288 0.261707 0 0 0 0)
(2.35897 -0.0860976 0 -0.0102318 0.250261 0 0 0 0)
(2.10732 -0.0320466 0 -0.0663464 0.288582 0 0 0 0)
(2.15129 0.340915 0 0.0509296 0.448883 0 0 0 0)
(2.49363 0.481503 0 0.00853065 0.17992 0 0 0 0)
(0.516535 0.0598814 0 -0.0246863 0.14832 0 0 0 0)
(0.3024 -0.083364 0 -0.0603579 0.197138 0 0 0 0)
(0.231464 -0.0424683 0 -0.0668764 0.228517 0 0 0 0)
(0.190418 -0.0617632 0 -0.0551292 0.238451 0 0 0 0)
(0.167696 -0.0470535 0 -0.0463962 0.255626 0 0 0 0)
(0.166443 -0.037494 0 -0.0334816 0.259432 0 0 0 0)
(0.180278 -0.0209473 0 -0.021543 0.261408 0 0 0 0)
(0.19865 -0.0113691 0 -0.0102468 0.26346 0 0 0 0)
(0.217556 -0.00202294 0 -0.000912812 0.263963 0 0 0 0)
(0.232764 0.00418885 0 0.00501145 0.265032 0 0 0 0)
(0.242629 0.00816602 0 0.00888701 0.265519 0 0 0 0)
(0.247296 0.0102281 0 0.0107742 0.266173 0 0 0 0)
(0.247399 0.0110341 0 0.0116234 0.266725 0 0 0 0)
(0.245142 0.0108806 0 0.0116905 0.267315 0 0 0 0)
(0.245533 0.00989604 0 0.0109856 0.267903 0 0 0 0)
(0.252555 0.00756407 0 0.00915616 0.268486 0 0 0 0)
(0.279626 0.00975709 0 0.00605778 0.268973 0 0 0 0)
(0.264188 0.00576866 0 0.00147858 0.271239 0 0 0 0)
(0.266007 -0.00868285 0 -0.00405993 0.271452 0 0 0 0)
(0.284115 -0.0122095 0 -0.00888453 0.269204 0 0 0 0)
(0.258803 -0.0107334 0 -0.0121848 0.26864 0 0 0 0)
(0.253488 -0.013407 0 -0.0144626 0.267808 0 0 0 0)
(0.254986 -0.0151455 0 -0.0158477 0.266864 0 0 0 0)
(0.260032 -0.0164959 0 -0.0168288 0.265878 0 0 0 0)
(0.26436 -0.0176272 0 -0.0176858 0.264948 0 0 0 0)
(0.266563 -0.0187067 0 -0.0186761 0.263937 0 0 0 0)
(0.266756 -0.0194976 0 -0.0193579 0.263266 0 0 0 0)
(0.264379 -0.0203564 0 -0.0205497 0.261995 0 0 0 0)
(0.258985 -0.0210054 0 -0.0204711 0.261957 0 0 0 0)
(0.250658 -0.0205018 0 -0.0215295 0.26037 0 0 0 0)
(0.236978 -0.0230603 0 -0.0206099 0.26104 0 0 0 0)
(0.227116 -0.020185 0 -0.0230388 0.258367 0 0 0 0)
(0.209071 -0.0305387 0 -0.0224092 0.259775 0 0 0 0)
(0.197685 -0.0203818 0 -0.0277007 0.256025 0 0 0 0)
(0.171509 -0.0101063 0 -0.0239774 0.258493 0 0 0 0)