/*--------------------------------*- C++ -*----------------------------------*\
| =========                 |                                                 |
| \\      /  F ield         | OpenFOAM: The Open Source CFD Toolbox           |
|  \\    /   O peration     | Version:  v1912                                 |
|   \\  /    A nd           | Website:  www.openfoam.com                      |
|    \\/     M anipulation  |                                                 |
\*---------------------------------------------------------------------------*/
FoamFile
{
    version     2.0;
    format      ascii;
    class       volVectorField;
    location    "2.62";
    object      grad(rho);
}
// * * * * * * * * * * * * * * * * * * * * * * * * * * * * * * * * * * * * * //

dimensions      [1 -4 0 0 0 0 0];


internalField   nonuniform List<vector> 
1900
(
(37023.7 0.00235902 0)
(-26128.8 -0.0529845 0)
(-1631.02 0.247631 0)
(448.497 0.487202 0)
(561.208 0.756543 0)
(611.621 -1.89443 0)
(622.717 -11.8305 0)
(573.698 -61.0117 0)
(593.964 -108.73 0)
(-335.344 -152.887 0)
(37023.7 -0.109128 0)
(-26128.5 -0.178156 0)
(-1630.48 0.223849 0)
(449.006 -0.224733 0)
(558.826 -1.91944 0)
(599.034 -7.47505 0)
(563.6 -12.5848 0)
(476.799 -39.4904 0)
(502.089 -42.0049 0)
(424.154 -185.805 0)
(37023.4 3.8014e-09 0)
(-26128.4 -1.40332e-09 0)
(-1631.07 -3.83693e-09 0)
(446.354 -4.81393e-09 0)
(553.958 -2.0961e-09 0)
(600.955 -4.22773e-09 0)
(590.702 -1.11022e-08 0)
(544.278 -1.72307e-09 0)
(447.65 7.69163e-09 0)
(216.623 6.8745e-09 0)
(37023.7 0.109128 0)
(-26128.5 0.178156 0)
(-1630.48 -0.223849 0)
(449.006 0.224733 0)
(558.826 1.91944 0)
(599.034 7.47505 0)
(563.6 12.5848 0)
(476.799 39.4904 0)
(502.089 42.0049 0)
(424.154 185.805 0)
(37023.7 -0.00235902 0)
(-26128.8 0.0529845 0)
(-1631.02 -0.247631 0)
(448.497 -0.487202 0)
(561.208 -0.756543 0)
(611.621 1.89443 0)
(622.717 11.8305 0)
(573.698 61.0117 0)
(593.964 108.73 0)
(-335.344 152.887 0)
(-706.148 525.053 1.48749e-11)
(-505.777 660.647 -1.81561e-11)
(-3021.35 552.053 -2.28778e-11)
(-13746.3 2556.35 0)
(-4638.46 17475.6 -8.71823e-11)
(189.123 396.477 1.49698e-11)
(-695.155 348.335 1.81561e-11)
(-2049.96 -5.04711 2.28778e-11)
(-6517.07 1035.52 0)
(-2360.01 14337.3 0)
(115.406 4.40871e-09 0)
(-751.817 2.92164e-09 0)
(-2439.95 -3.60206e-09 0)
(-6224.89 1.41301e-09 0)
(5538.77 -4.33516e-09 0)
(189.123 -396.477 1.49698e-11)
(-695.155 -348.335 1.81561e-11)
(-2049.96 5.04711 2.28778e-11)
(-6517.07 -1035.52 0)
(-2360.01 -14337.3 0)
(-706.148 -525.053 -4.48145e-11)
(-505.777 -660.647 -1.81561e-11)
(-3021.35 -552.053 -2.28778e-11)
(-13746.3 -2556.35 -6.10518e-11)
(-4638.46 -17475.6 8.71823e-11)
(22453.1 -3418.6 4.56092e-11)
(8414.54 -312.192 -4.01805e-11)
(8615.75 256.873 0)
(9623.17 941.958 3.35161e-11)
(-3624.88 -8870.33 -1.57818e-11)
(16572.7 -3253.79 -2.27531e-11)
(9314.47 34.8444 2.00856e-11)
(9060.21 -3.17514 0)
(5553.41 -2110.16 -2.09494e-11)
(-11981.2 -20554.3 3.7239e-12)
(17949.7 -4.75489e-09 0)
(9203.41 -9.26135e-09 0)
(7745.04 -1.35529e-08 0)
(470.009 -4.74856e-08 8.35434e-12)
(-15354.1 -7.25086e-08 -7.44779e-12)
(16572.7 3253.79 -2.27531e-11)
(9314.47 -34.8444 2.00856e-11)
(9060.21 3.17514 0)
(5553.41 2110.16 -2.09494e-11)
(-11981.2 20554.3 3.7239e-12)
(22453.1 3418.6 2.27531e-11)
(8414.54 312.192 9.40221e-15)
(8615.75 -256.873 0)
(9623.17 -941.958 2.83687e-14)
(-3624.88 8870.33 1.57818e-11)
(-41871.8 -71023.1 0)
(-33938.9 6189.78 0)
(314.51 4732.94 0)
(136.296 2157.96 0)
(-474.969 1371.66 0)
(87.5403 1075.82 0)
(568.609 905.021 0)
(960.172 937.58 0)
(1262.36 908.147 0)
(1592.6 907.564 0)
(1884.18 918.701 0)
(2160.15 926.158 0)
(2406.06 933.842 0)
(2613.18 943.728 0)
(2778.67 955.719 0)
(2878.88 970.448 0)
(2844.73 987.666 0)
(2526.98 1005.84 0)
(1921.21 1020.93 0)
(752.557 1031.84 0)
(-882.586 1031.33 0)
(-2033.82 1018.49 0)
(-2620.64 1001.92 0)
(-2939.47 981.13 0)
(-2992.17 959.986 0)
(-2934.62 940.22 0)
(-2841.12 922.505 0)
(-2741.46 906.588 0)
(-2636.85 891.916 0)
(-2518.51 877.992 0)
(-2376.85 864.484 0)
(-2209.2 851.371 0)
(-2027.64 838.835 0)
(-1860.72 828.139 0)
(-1725.23 817.663 0)
(-1601.23 809.11 0)
(-1256.18 757.212 0)
(-275.002 759.314 0)
(148113 723.389 0)
(-183406 4405.05 0)
(-39502.6 -30984.5 0)
(-27421.5 7800.27 0)
(-139.864 4162.13 0)
(-506.583 1141.74 0)
(-555.743 663.746 0)
(35.7983 466.093 0)
(555.794 401.11 0)
(960.325 409.615 0)
(1260.55 402.184 0)
(1592.57 399.177 0)
(1885.95 403.563 0)
(2161.51 406.044 0)
(2407.46 408.496 0)
(2614.76 411.668 0)
(2780.45 415.294 0)
(2880.99 419.662 0)
(2847.21 425.138 0)
(2529.44 431.538 0)
(1923.22 437.148 0)
(753.379 441.592 0)
(-883.681 441.35 0)
(-2036.16 436.075 0)
(-2623.57 429.82 0)
(-2942.75 422.1 0)
(-2995.33 414.554 0)
(-2937.51 407.798 0)
(-2843.77 401.964 0)
(-2744.03 396.725 0)
(-2639.54 391.595 0)
(-2521.48 386.107 0)
(-2380.18 379.918 0)
(-2212.85 372.97 0)
(-2031.27 365.413 0)
(-1864.18 358.559 0)
(-1727.85 351.504 0)
(-1608.27 348.541 0)
(-1260.75 318.695 0)
(-277.071 327.587 0)
(148475 304.72 0)
(-183909 2423.85 0)
(-34646.3 -2.42876e-08 0)
(-23714.5 -4.78001e-09 0)
(-1622.52 1.13041e-09 0)
(-881.414 6.58867e-09 0)
(-671.521 2.93906e-09 0)
(11.1371 -5.16758e-09 0)
(552.179 -8.91408e-09 0)
(960.484 -4.46027e-08 0)
(1259.33 8.42962e-09 0)
(1593 1.95916e-07 0)
(1886.18 3.76814e-07 0)
(2161.59 1.15399e-07 0)
(2407.69 -8.84626e-07 0)
(2615.16 -2.05428e-06 0)
(2781 -2.18786e-06 0)
(2881.74 -3.8014e-08 0)
(2848.18 -6.83607e-07 0)
(2530.47 7.82618e-06 0)
(1924.13 1.59968e-05 0)
(753.779 1.79575e-05 0)
(-884.191 -3.8076e-06 0)
(-2037.17 -3.05559e-05 0)
(-2624.71 -2.15879e-05 0)
(-2943.91 1.60934e-05 0)
(-2996.33 3.24545e-05 0)
(-2938.28 3.2955e-05 0)
(-2844.35 2.73056e-05 0)
(-2744.48 1.18135e-05 0)
(-2639.94 -7.76591e-07 0)
(-2521.91 -6.13011e-06 0)
(-2380.67 -2.27202e-06 0)
(-2213.42 7.50911e-06 0)
(-2031.83 1.71058e-05 0)
(-1864.77 3.35269e-05 0)
(-1728.15 4.97255e-05 0)
(-1610.77 6.61132e-05 0)
(-1262.28 5.6292e-05 0)
(-279.068 4.13693e-05 0)
(148723 2.32765e-05 0)
(-184226 0.000158431 0)
(-39502.6 30984.5 0)
(-27421.5 -7800.27 0)
(-139.864 -4162.13 0)
(-506.583 -1141.74 0)
(-555.743 -663.746 0)
(35.7983 -466.093 0)
(555.794 -401.11 0)
(960.325 -409.615 0)
(1260.55 -402.184 0)
(1592.57 -399.177 0)
(1885.95 -403.563 0)
(2161.51 -406.044 0)
(2407.46 -408.496 0)
(2614.76 -411.668 0)
(2780.45 -415.294 0)
(2880.99 -419.662 0)
(2847.21 -425.138 0)
(2529.44 -431.538 0)
(1923.22 -437.148 0)
(753.379 -441.592 0)
(-883.681 -441.35 0)
(-2036.16 -436.075 0)
(-2623.57 -429.82 0)
(-2942.75 -422.1 0)
(-2995.33 -414.553 0)
(-2937.51 -407.798 0)
(-2843.77 -401.964 0)
(-2744.03 -396.725 0)
(-2639.54 -391.595 0)
(-2521.48 -386.107 0)
(-2380.18 -379.918 0)
(-2212.85 -372.97 0)
(-2031.27 -365.413 0)
(-1864.18 -358.559 0)
(-1727.85 -351.504 0)
(-1608.27 -348.541 0)
(-1260.75 -318.695 0)
(-277.071 -327.587 0)
(148475 -304.72 0)
(-183909 -2423.85 0)
(-41871.8 71023.1 0)
(-33938.9 -6189.78 0)
(314.51 -4732.94 0)
(136.296 -2157.96 0)
(-474.969 -1371.66 0)
(87.5403 -1075.82 0)
(568.609 -905.021 0)
(960.172 -937.58 0)
(1262.36 -908.147 0)
(1592.6 -907.564 0)
(1884.18 -918.701 0)
(2160.15 -926.158 0)
(2406.06 -933.842 0)
(2613.18 -943.728 0)
(2778.67 -955.719 0)
(2878.88 -970.448 0)
(2844.73 -987.666 0)
(2526.98 -1005.84 0)
(1921.21 -1020.93 0)
(752.557 -1031.84 0)
(-882.586 -1031.33 0)
(-2033.82 -1018.49 0)
(-2620.64 -1001.92 0)
(-2939.47 -981.13 0)
(-2992.17 -959.986 0)
(-2934.62 -940.22 0)
(-2841.12 -922.505 0)
(-2741.46 -906.588 0)
(-2636.85 -891.916 0)
(-2518.51 -877.992 0)
(-2376.85 -864.484 0)
(-2209.2 -851.371 0)
(-2027.64 -838.835 0)
(-1860.72 -828.139 0)
(-1725.23 -817.663 0)
(-1601.23 -809.11 0)
(-1256.18 -757.212 0)
(-275.003 -759.314 0)
(148113 -723.389 0)
(-183406 -4405.05 0)
(111172 74789.7 0)
(-67405.3 -7189.65 0)
(1863.82 -3999.94 0)
(858.525 -3449.87 0)
(29.6527 -2241.03 0)
(268.684 -1838.1 0)
(627.694 -1569.74 0)
(958.542 -1568.01 0)
(1277.29 -1531.47 0)
(1585.92 -1544.84 0)
(1876.34 -1565.11 0)
(2153.59 -1583.05 0)
(2398.06 -1604.79 0)
(2602.87 -1632.73 0)
(2765.74 -1666.57 0)
(2863.39 -1705.77 0)
(2827.87 -1748 0)
(2511.42 -1789.08 0)
(1909.23 -1821.87 0)
(747.806 -1844.59 0)
(-876.572 -1843.45 0)
(-2020.42 -1817.45 0)
(-2603.52 -1782.99 0)
(-2920.24 -1739.79 0)
(-2973.33 -1694.98 0)
(-2917.33 -1651.88 0)
(-2825.73 -1611.86 0)
(-2727.81 -1574.73 0)
(-2624.71 -1539.9 0)
(-2507.71 -1506.86 0)
(-2367.34 -1475.43 0)
(-2200.99 -1445.73 0)
(-2020.89 -1417.97 0)
(-1854.9 -1392.98 0)
(-1718.95 -1367.43 0)
(-1578.5 -1340.38 0)
(-1234.81 -1265.16 0)
(-258.247 -1240.44 0)
(146605 -1195.03 0)
(-181175 -6961.18 0)
(128697 34081.3 0)
(-91917.8 -4495.58 0)
(3087.51 -3764.16 0)
(1443.97 -3546.2 0)
(807.598 -2854.37 0)
(637.279 -2416.55 0)
(797.191 -2183.5 0)
(997.924 -2099.75 0)
(1276.69 -2080 0)
(1563.77 -2094.84 0)
(1851.56 -2118.38 0)
(2125.44 -2147.23 0)
(2362.47 -2185.75 0)
(2559.18 -2235.73 0)
(2715.23 -2296.01 0)
(2808.72 -2363.91 0)
(2773.49 -2434.71 0)
(2464.14 -2501.33 0)
(1874.14 -2553.52 0)
(734.304 -2588.03 0)
(-859.662 -2585.72 0)
(-1982.73 -2546.16 0)
(-2554.98 -2492.38 0)
(-2864.97 -2424.85 0)
(-2917.56 -2353.63 0)
(-2863.79 -2283.56 0)
(-2775.04 -2216.64 0)
(-2679.44 -2152.73 0)
(-2577.96 -2091.1 0)
(-2462.18 -2031.31 0)
(-2323.04 -1973.37 0)
(-2158.23 -1917.98 0)
(-1980.43 -1865.79 0)
(-1815.14 -1817.82 0)
(-1677.91 -1767.76 0)
(-1514.86 -1716.06 0)
(-1171.34 -1627.87 0)
(-216.409 -1589.93 0)
(143410 -1644.07 0)
(-176505 -10747.2 0)
(137339 20844 0)
(-103875 -2217.42 0)
(2778.68 -3231.87 0)
(1735.23 -3183.8 0)
(1118.22 -2984.34 0)
(915.154 -2657.18 0)
(932.982 -2523.18 0)
(1058.28 -2424.41 0)
(1282.02 -2402.99 0)
(1548.93 -2404.92 0)
(1825.86 -2419.76 0)
(2088.66 -2449.06 0)
(2312.78 -2494.03 0)
(2496.62 -2554.77 0)
(2642.23 -2628.89 0)
(2729.74 -2712.45 0)
(2695.44 -2799.34 0)
(2396.93 -2880.36 0)
(1825.68 -2942.91 0)
(716.768 -2981.86 0)
(-836.224 -2977.51 0)
(-1930.47 -2930.2 0)
(-2486.63 -2864.27 0)
(-2786.53 -2781.13 0)
(-2837.18 -2692.16 0)
(-2785.32 -2603.42 0)
(-2699.65 -2517.71 0)
(-2606.83 -2435.26 0)
(-2507.7 -2355.71 0)
(-2394.27 -2278.85 0)
(-2258.13 -2205.44 0)
(-2097.32 -2136.66 0)
(-1924.37 -2073.41 0)
(-1760.44 -2016.28 0)
(-1620.88 -1953.95 0)
(-1443.7 -1890.88 0)
(-1113.27 -1815.63 0)
(-273.851 -1796.18 0)
(137781 -2009.64 0)
(-168862 -14853.2 0)
(146606 4318.56 0)
(-115118 -1982.42 0)
(2156.27 -2745.92 0)
(1682.49 -2908.02 0)
(1315.07 -2813.19 0)
(1081.67 -2649.45 0)
(1021.5 -2572.84 0)
(1113.74 -2505.21 0)
(1295.47 -2477.94 0)
(1547.61 -2468.03 0)
(1809.03 -2472.13 0)
(2053.87 -2496.44 0)
(2260.61 -2541.02 0)
(2429.23 -2603.33 0)
(2563.27 -2680.03 0)
(2644.46 -2766.58 0)
(2611.69 -2856.36 0)
(2325.79 -2939.23 0)
(1776.33 -3001.84 0)
(700.963 -3038.52 0)
(-809.88 -3031.98 0)
(-1873.61 -2983.25 0)
(-2411.32 -2914.57 0)
(-2699.12 -2827.33 0)
(-2746.32 -2732.9 0)
(-2695.69 -2638.05 0)
(-2612.99 -2546.15 0)
(-2523.33 -2457.93 0)
(-2427.23 -2372.99 0)
(-2317.38 -2291.95 0)
(-2186.02 -2215.1 0)
(-2031.01 -2144.97 0)
(-1864.43 -2080.78 0)
(-1700.02 -2023.01 0)
(-1557.07 -1954.46 0)
(-1381.57 -1888.18 0)
(-1080.09 -1837.53 0)
(-403.369 -1863.26 0)
(130827 -2098.75 0)
(-159733 -17127.5 0)
(139488 -9808.73 0)
(-110682 -2139.2 0)
(1886.73 -2569.84 0)
(1670.41 -2616.51 0)
(1367.39 -2592.28 0)
(1146.76 -2572.96 0)
(1071.98 -2534.12 0)
(1149.73 -2502.57 0)
(1317.84 -2470.75 0)
(1554.53 -2452.73 0)
(1798.49 -2449.3 0)
(2022.28 -2469.49 0)
(2209.78 -2511.21 0)
(2362.66 -2571.61 0)
(2484.91 -2646.25 0)
(2559.82 -2730.74 0)
(2529.07 -2818.04 0)
(2256.74 -2897.64 0)
(1730.01 -2956.1 0)
(687.727 -2988.73 0)
(-782.965 -2980.81 0)
(-1817.33 -2933.86 0)
(-2336.38 -2867.63 0)
(-2611.47 -2782.66 0)
(-2654.78 -2689.96 0)
(-2605.37 -2596.66 0)
(-2526.08 -2506.62 0)
(-2439.97 -2420.33 0)
(-2347.75 -2338.3 0)
(-2242.12 -2259.52 0)
(-2116.49 -2187.08 0)
(-1967.88 -2120.42 0)
(-1806.85 -2059.46 0)
(-1638.71 -2004.03 0)
(-1490.95 -1933.26 0)
(-1331.02 -1870.01 0)
(-1089.26 -1842.53 0)
(-525.575 -1913.92 0)
(123072 -2079.02 0)
(-149731 -18516 0)
(134506 -9084.32 0)
(-108142 -2039.84 0)
(1696.31 -2370.27 0)
(1660.88 -2419.92 0)
(1357.03 -2415.84 0)
(1137.71 -2467.39 0)
(1089.34 -2465.92 0)
(1174.81 -2451.06 0)
(1343.49 -2420.66 0)
(1568.28 -2397.06 0)
(1792.87 -2392.42 0)
(1994.21 -2409.15 0)
(2162.21 -2449.86 0)
(2299.09 -2507.69 0)
(2409.93 -2579.81 0)
(2478.91 -2661.04 0)
(2450.86 -2744.45 0)
(2192.75 -2819.3 0)
(1688.55 -2872.47 0)
(677.148 -2901.08 0)
(-757.003 -2892.47 0)
(-1764.54 -2848.41 0)
(-2265.62 -2786.4 0)
(-2527.9 -2705.65 0)
(-2567.09 -2616.85 0)
(-2519.02 -2527.47 0)
(-2443.07 -2441.17 0)
(-2361.13 -2359.43 0)
(-2272.27 -2280.31 0)
(-2171.66 -2207.63 0)
(-2051.98 -2136.89 0)
(-1908.03 -2076.66 0)
(-1752.27 -2016.81 0)
(-1578.41 -1962.7 0)
(-1427.93 -1893.58 0)
(-1294.14 -1838.97 0)
(-1122.4 -1828.28 0)
(-631.259 -1914.24 0)
(114829 -2033.81 0)
(-139232 -19001.6 0)
(128272 -11337.3 0)
(-104212 -1944.84 0)
(1520.47 -2205.01 0)
(1626.5 -2283.03 0)
(1321.64 -2300.15 0)
(1098.5 -2366.37 0)
(1087.72 -2382.5 0)
(1193.35 -2376.27 0)
(1369.87 -2347.84 0)
(1581.74 -2328.13 0)
(1786.83 -2321.79 0)
(1966.93 -2343.05 0)
(2114.82 -2382.17 0)
(2237.43 -2440.16 0)
(2337.14 -2510.03 0)
(2401.17 -2588.57 0)
(2376.57 -2668.3 0)
(2133.37 -2738.8 0)
(1651.21 -2787.28 0)
(668.449 -2813 0)
(-732.211 -2804.27 0)
(-1715.11 -2762.86 0)
(-2198.82 -2704.64 0)
(-2448.09 -2627.51 0)
(-2483.08 -2542.12 0)
(-2436.08 -2455.95 0)
(-2364.15 -2373.49 0)
(-2284.96 -2293.94 0)
(-2201.47 -2220.59 0)
(-2103.92 -2147.01 0)
(-1990.29 -2084.55 0)
(-1852.16 -2023.28 0)
(-1697.03 -1965.9 0)
(-1519.97 -1913.98 0)
(-1371.73 -1848.29 0)
(-1268.1 -1803.94 0)
(-1161.79 -1802.42 0)
(-723.629 -1883.55 0)
(106606 -1977.59 0)
(-128785 -19262.3 0)
(121230 -13198.5 0)
(-99342.3 -1903.84 0)
(1370.42 -2078.03 0)
(1569.2 -2167.68 0)
(1276.71 -2209.01 0)
(1058.35 -2263.08 0)
(1079.8 -2281.95 0)
(1208.21 -2283.05 0)
(1389.88 -2260.86 0)
(1593.38 -2241.97 0)
(1778.5 -2246.87 0)
(1936.03 -2265.83 0)
(2068.62 -2309.66 0)
(2175.88 -2365.34 0)
(2266.91 -2433.76 0)
(2326.4 -2508.81 0)
(2306.09 -2584.62 0)
(2078.1 -2650.95 0)
(1617.05 -2695.42 0)
(660.776 -2719.47 0)
(-708.684 -2711.18 0)
(-1668.54 -2672.13 0)
(-2135.19 -2617.16 0)
(-2371.29 -2542.99 0)
(-2401.77 -2460.41 0)
(-2356.52 -2377.5 0)
(-2286.95 -2297.35 0)
(-2213.79 -2222.91 0)
(-2130.69 -2148.39 0)
(-2040.56 -2084.4 0)
(-1932.75 -2016.18 0)
(-1793.69 -1963.59 0)
(-1646.95 -1905 0)
(-1465.07 -1853.13 0)
(-1321.88 -1795.44 0)
(-1249.94 -1759.64 0)
(-1199.12 -1759.41 0)
(-800.056 -1824.88 0)
(98082.1 -1900.86 0)
(-118071 -19098.4 0)
(113266 -15321.4 0)
(-93496.2 -1875.24 0)
(1266.23 -1990.3 0)
(1500.28 -2065.37 0)
(1229.71 -2123.32 0)
(1028.21 -2159.96 0)
(1068.47 -2175.46 0)
(1213.68 -2178.29 0)
(1409.46 -2161.06 0)
(1595.22 -2153.29 0)
(1763.83 -2155.6 0)
(1906.42 -2184.32 0)
(2018.94 -2224.16 0)
(2117.85 -2280.26 0)
(2198.88 -2344.34 0)
(2255.79 -2415.22 0)
(2239.6 -2486.29 0)
(2026.61 -2548.51 0)
(1585.18 -2589.69 0)
(653.263 -2613.21 0)
(-686.59 -2605.94 0)
(-1624.51 -2569 0)
(-2074.38 -2517.02 0)
(-2297.05 -2445.66 0)
(-2323.61 -2366.24 0)
(-2278.95 -2286.47 0)
(-2215.19 -2211.05 0)
(-2141.41 -2137.99 0)
(-2068 -2071.97 0)
(-1976.52 -2003.97 0)
(-1873.87 -1946.11 0)
(-1745.02 -1893.34 0)
(-1590.6 -1834.88 0)
(-1414.39 -1791.97 0)
(-1281.63 -1738.62 0)
(-1233.38 -1709.97 0)
(-1224.65 -1709.98 0)
(-859.935 -1760.15 0)
(89960.3 -1815.39 0)
(-107856 -18853.7 0)
(104149 -16484.8 0)
(-86495.9 -1791.78 0)
(1187.2 -1874.42 0)
(1441.02 -1929.24 0)
(1185.57 -2009.67 0)
(1008.11 -2038.11 0)
(1062.13 -2049.36 0)
(1222.08 -2059.99 0)
(1413.98 -2042.8 0)
(1598.64 -2044.99 0)
(1748.59 -2054.87 0)
(1869.96 -2083.61 0)
(1976.18 -2125.16 0)
(2060.07 -2176.57 0)
(2136.86 -2236.1 0)
(2189.61 -2300.96 0)
(2177.65 -2366.73 0)
(1978.46 -2424.9 0)
(1554.7 -2463.51 0)
(645.116 -2487.44 0)
(-666.085 -2481.62 0)
(-1582.86 -2446.59 0)
(-2016.33 -2397.6 0)
(-2225.99 -2329.45 0)
(-2248.37 -2253.87 0)
(-2206.97 -2178.85 0)
(-2143.87 -2107.61 0)
(-2079.78 -2040.79 0)
(-2001.54 -1976.57 0)
(-1919.27 -1915.46 0)
(-1826.13 -1857.23 0)
(-1686.51 -1803.54 0)
(-1549.26 -1751.89 0)
(-1372.31 -1707.21 0)
(-1242.87 -1662.41 0)
(-1222.35 -1636.69 0)
(-1247.47 -1631.24 0)
(-901.633 -1661.85 0)
(81610.1 -1705.08 0)
(-97458.6 -18348.6 0)
(95104.2 -17025.7 0)
(-79417.1 -1690.73 0)
(1133.76 -1762.89 0)
(1369.95 -1813.9 0)
(1124.8 -1907.73 0)
(989.964 -1930.44 0)
(1047.39 -1936.22 0)
(1220 -1933.16 0)
(1423.92 -1930.58 0)
(1583.59 -1924.48 0)
(1726.62 -1945.25 0)
(1838.68 -1966.56 0)
(1929.36 -2007.1 0)
(2010.94 -2051.81 0)
(2079.01 -2104.71 0)
(2129.91 -2162.38 0)
(2120.17 -2222.17 0)
(1933.35 -2276.3 0)
(1524.92 -2312.83 0)
(635.804 -2337.61 0)
(-647.233 -2333.45 0)
(-1543.54 -2300.23 0)
(-1961.49 -2254.46 0)
(-2158.54 -2190.31 0)
(-2178.48 -2119.89 0)
(-2138.01 -2051.09 0)
(-2082.15 -1985.81 0)
(-2015.13 -1926.57 0)
(-1947.23 -1865.39 0)
(-1861.52 -1817.76 0)
(-1766.02 -1754.79 0)
(-1643.51 -1717.49 0)
(-1497.77 -1657.67 0)
(-1328.17 -1621.47 0)
(-1213.67 -1584.41 0)
(-1203.34 -1566.57 0)
(-1248.9 -1558.16 0)
(-931.087 -1572.46 0)
(73880.3 -1602.59 0)
(-87847.8 -17790.9 0)
(85542.6 -17136.9 0)
(-71788.1 -1569.98 0)
(1068.52 -1632.54 0)
(1301.45 -1694.88 0)
(1073.26 -1769.19 0)
(980.654 -1785.53 0)
(1059.51 -1776.69 0)
(1227.52 -1773.31 0)
(1422.35 -1759.29 0)
(1584.5 -1778.56 0)
(1708.04 -1785.37 0)
(1810.36 -1823.4 0)
(1894.02 -1857.09 0)
(1966.01 -1903.18 0)
(2030.32 -1950.45 0)
(2076.43 -2002.85 0)
(2067.87 -2057.11 0)
(1891.1 -2107.5 0)
(1495.62 -2142.35 0)
(625.242 -2167.87 0)
(-630.058 -2165.29 0)
(-1506.74 -2133.93 0)
(-1910.41 -2091.51 0)
(-2096.31 -2031.91 0)
(-2114.22 -1967.17 0)
(-2077.76 -1903.29 0)
(-2023.88 -1843.54 0)
(-1963.73 -1783.18 0)
(-1896.69 -1731.5 0)
(-1812.7 -1670.89 0)
(-1729.51 -1627.89 0)
(-1592.92 -1572.73 0)
(-1456.73 -1526.45 0)
(-1301.71 -1493.19 0)
(-1189.96 -1466.04 0)
(-1197.05 -1455.66 0)
(-1253.14 -1449.96 0)
(-944.444 -1454.92 0)
(65981.5 -1482.08 0)
(-78097.1 -17016.6 0)
(76509.9 -16956 0)
(-64476.5 -1475.86 0)
(1013.4 -1524.24 0)
(1238.27 -1604.05 0)
(1037.45 -1657.11 0)
(982.735 -1655.24 0)
(1059.16 -1620.31 0)
(1236.77 -1616.95 0)
(1418.87 -1593.62 0)
(1558.46 -1614.26 0)
(1683.41 -1631.91 0)
(1769.57 -1664.13 0)
(1852.47 -1703.68 0)
(1920.98 -1745.84 0)
(1982.97 -1791.88 0)
(2027.13 -1840.32 0)
(2019.33 -1890.49 0)
(1851.21 -1937.44 0)
(1466.74 -1970.61 0)
(613.699 -1996.5 0)
(-614.522 -1995.21 0)
(-1472.45 -1965.72 0)
(-1863.18 -1926.88 0)
(-2038.72 -1872.21 0)
(-2054.53 -1812.56 0)
(-2018.87 -1753.26 0)
(-1966.4 -1694.86 0)
(-1907.17 -1639.39 0)
(-1839.03 -1582.18 0)
(-1761.68 -1532.9 0)
(-1671.43 -1481.19 0)
(-1545.75 -1433.99 0)
(-1421.12 -1398.83 0)
(-1269.96 -1366.24 0)
(-1177.51 -1356.61 0)
(-1187.84 -1357.82 0)
(-1248.19 -1354.49 0)
(-962.039 -1347.36 0)
(58884.6 -1365.95 0)
(-69376.3 -16056.7 0)
(67233 -16641 0)
(-56917.5 -1420.08 0)
(944.985 -1470.76 0)
(1173.41 -1552.94 0)
(1023.94 -1567.79 0)
(1016.12 -1531.95 0)
(1096.4 -1477.9 0)
(1253.23 -1442.91 0)
(1424.94 -1435.91 0)
(1547.6 -1435.11 0)
(1659.98 -1460.6 0)
(1741.2 -1487.35 0)
(1815.29 -1527.58 0)
(1881.02 -1573.5 0)
(1939.28 -1626.1 0)
(1981.41 -1682.09 0)
(1974.27 -1737.61 0)
(1813.89 -1787.4 0)
(1438.72 -1822.17 0)
(601.53 -1849.55 0)
(-600.397 -1849.19 0)
(-1440.9 -1819.91 0)
(-1820.3 -1781.32 0)
(-1986.14 -1725.65 0)
(-1999.6 -1662.33 0)
(-1964.35 -1596.87 0)
(-1914.16 -1533.07 0)
(-1855.15 -1474.53 0)
(-1794.06 -1418.73 0)
(-1715.38 -1375.17 0)
(-1634.2 -1324.87 0)
(-1513.55 -1298.18 0)
(-1391.44 -1261.05 0)
(-1261.03 -1250.12 0)
(-1181.85 -1258.44 0)
(-1195.01 -1275.8 0)
(-1243.07 -1280.44 0)
(-955.487 -1267.07 0)
(51807 -1270.72 0)
(-60702.7 -15025.7 0)
(58577.3 -16151.8 0)
(-49857.9 -1384.2 0)
(885.368 -1425.86 0)
(1144.77 -1494.18 0)
(1057.68 -1484.93 0)
(1069.36 -1420 0)
(1144.96 -1375.81 0)
(1277.23 -1316.44 0)
(1426.38 -1317.95 0)
(1534.67 -1310.89 0)
(1633.08 -1328.09 0)
(1705.02 -1349.29 0)
(1769.44 -1380.05 0)
(1826.04 -1421.69 0)
(1878.34 -1474.29 0)
(1919.67 -1534.54 0)
(1917.84 -1595.22 0)
(1769.73 -1650.46 0)
(1406.85 -1688.82 0)
(587.662 -1718.01 0)
(-585.964 -1718.19 0)
(-1407.04 -1688.24 0)
(-1772.35 -1647.63 0)
(-1924.05 -1588.38 0)
(-1930.44 -1521.89 0)
(-1894.32 -1454.02 0)
(-1848.51 -1392.09 0)
(-1796.98 -1339.27 0)
(-1743.28 -1296.13 0)
(-1671.24 -1258.94 0)
(-1597.24 -1226.64 0)
(-1484.24 -1203.51 0)
(-1374.8 -1181.62 0)
(-1267.45 -1183.78 0)
(-1202.25 -1202.43 0)
(-1209.04 -1222.13 0)
(-1239.78 -1224.14 0)
(-952.669 -1195.75 0)
(45626.2 -1185.6 0)
(-53124.3 -14019.4 0)
(49804 -14759.9 0)
(-42727 -1298.53 0)
(839.002 -1370.51 0)
(1116.49 -1445.16 0)
(1095.43 -1451.46 0)
(1121.28 -1387.57 0)
(1196.19 -1359.32 0)
(1308.99 -1294.32 0)
(1430.29 -1300.47 0)
(1537.83 -1276.98 0)
(1622.97 -1280.51 0)
(1691.13 -1274.34 0)
(1745.52 -1275.27 0)
(1790.21 -1281.71 0)
(1830.53 -1300.63 0)
(1864.87 -1335.07 0)
(1862.57 -1386.56 0)
(1723.69 -1449.63 0)
(1373.62 -1507.65 0)
(573.226 -1556.39 0)
(-571.714 -1556.81 0)
(-1372.91 -1507.98 0)
(-1724.07 -1448.9 0)
(-1864.97 -1383.39 0)
(-1870.13 -1327.89 0)
(-1839.27 -1287.72 0)
(-1803.58 -1261.47 0)
(-1762.67 -1245.54 0)
(-1716.65 -1234.58 0)
(-1648.43 -1225.49 0)
(-1580.79 -1212.31 0)
(-1470.17 -1205.92 0)
(-1372.43 -1193.86 0)
(-1281.07 -1200.74 0)
(-1218.8 -1211.36 0)
(-1215.94 -1217.85 0)
(-1217.64 -1198.16 0)
(-918.347 -1132.11 0)
(39449.6 -1071.53 0)
(-45534.3 -12568.5 0)
(42623.6 -13180.1 0)
(-36955.5 -1044.69 0)
(744.069 -1209.11 0)
(1066.76 -1326.53 0)
(1113.18 -1363.22 0)
(1158.15 -1337.21 0)
(1234.82 -1323.82 0)
(1333.95 -1285.2 0)
(1443.08 -1284.58 0)
(1553.9 -1250.53 0)
(1635.62 -1233.77 0)
(1710.07 -1191.21 0)
(1762.35 -1146.03 0)
(1801.61 -1091.13 0)
(1826.91 -1040.64 0)
(1836.87 -1015.76 0)
(1807.45 -1034.29 0)
(1653.03 -1078.03 0)
(1303.98 -1126.54 0)
(540.293 -1169.15 0)
(-539.322 -1169.53 0)
(-1303.06 -1127.09 0)
(-1652.28 -1078.28 0)
(-1807.44 -1033.44 0)
(-1838.26 -1012.83 0)
(-1830.31 -1034.49 0)
(-1807.85 -1080.52 0)
(-1771.07 -1129.17 0)
(-1723.97 -1167.83 0)
(-1649.78 -1198.96 0)
(-1578.39 -1210.19 0)
(-1466.47 -1221.19 0)
(-1369.81 -1219.74 0)
(-1284.32 -1217.62 0)
(-1218.74 -1214.94 0)
(-1196.32 -1193.58 0)
(-1157.16 -1131.74 0)
(-830.645 -995.712 0)
(34605.7 -825.888 0)
(-39585.3 -10713.2 0)
(36079.6 -4951.67 0)
(-31191.4 -442.33 0)
(567.409 -696.822 0)
(967.981 -886.845 0)
(1085.15 -953.528 0)
(1159.25 -955.677 0)
(1246.31 -942.378 0)
(1346.8 -922.954 0)
(1463.7 -899.64 0)
(1586.79 -866.551 0)
(1680.14 -826.704 0)
(1775.68 -769.525 0)
(1841.96 -695.534 0)
(1891.76 -602.305 0)
(1903.15 -483.98 0)
(1871 -311.714 0)
(1802.58 -111.283 0)
(1634.79 10.5016 0)
(1285.8 13.0852 0)
(531.802 -53.2247 0)
(-531.184 -53.4517 0)
(-1284.98 12.5693 0)
(-1633.81 9.764 0)
(-1801.9 -111.923 0)
(-1871.14 -311.668 0)
(-1904.49 -482.468 0)
(-1894.82 -598.839 0)
(-1846.81 -689.134 0)
(-1783.91 -759.951 0)
(-1689.25 -811.224 0)
(-1602.21 -848.139 0)
(-1479.37 -869.02 0)
(-1368.99 -890.512 0)
(-1276.45 -888.932 0)
(-1195.64 -891.472 0)
(-1135.77 -861.198 0)
(-1026.97 -770.885 0)
(-623.615 -560.402 0)
(30085.5 -289.672 0)
(-34526.6 -3094.01 0)
(36737.1 428873 0)
(-32855.3 33575.2 0)
(315.719 31896.4 0)
(819.394 37124.4 0)
(1046.85 42545.4 0)
(1168.89 49545.1 0)
(1266.35 56497.4 0)
(1375.13 64518.9 0)
(1497.43 72462 0)
(1624.18 81348.4 0)
(1729.12 90009.8 0)
(1836.47 99333.1 0)
(1923.49 108369 0)
(2005.47 117779 0)
(2106.93 126821 0)
(2196.01 135650 0)
(2117.95 143705 0)
(1772.88 150488 0)
(1242.57 155198 0)
(476.176 157504 0)
(-475.92 157503 0)
(-1242.14 155198 0)
(-1772.25 150487 0)
(-2117.19 143704 0)
(-2195.33 135651 0)
(-2107.04 126823 0)
(-2007.01 117785 0)
(-1926.32 108381 0)
(-1841.62 99351.5 0)
(-1734.76 90038 0)
(-1634.08 81383.2 0)
(-1507.3 72512.4 0)
(-1389 64574.5 0)
(-1285.24 56573.8 0)
(-1192.01 49632 0)
(-1080.11 42653.9 0)
(-867.299 37244.6 0)
(-366.93 32027.7 0)
(32164.3 33682.8 0)
(-35644.4 429138 0)
(477382 -495888 0)
(-413732 -37431.6 0)
(3987.52 -36803.5 0)
(11229.7 -42620.3 0)
(13054.2 -49185.5 0)
(14603.9 -57678.7 0)
(15675.6 -66119.4 0)
(16730.9 -75856.3 0)
(17681.2 -85564 0)
(18496.5 -96454.3 0)
(19010.8 -107171 0)
(19467.7 -118712 0)
(19617.2 -130025 0)
(19672.1 -141806 0)
(19124.3 -153258 0)
(18141 -164550 0)
(16101 -175038 0)
(12710.4 -184053 0)
(8046.29 -190534 0)
(2752.88 -193985 0)
(-2753.33 -193985 0)
(-8045.89 -190534 0)
(-12709.4 -184054 0)
(-16099.1 -175039 0)
(-18138 -164553 0)
(-19119.9 -153264 0)
(-19666.1 -141814 0)
(-19610.5 -130035 0)
(-19460.4 -118724 0)
(-19004.2 -107185 0)
(-18490.5 -96468.6 0)
(-17676.8 -85574.1 0)
(-16728 -75865.6 0)
(-15675.6 -66118.8 0)
(-14609.3 -57668.9 0)
(-13072.8 -49155.2 0)
(-11266.8 -42554.5 0)
(-4055.84 -36680.5 0)
(412755 -37239.7 0)
(-476313 -494023 0)
(477382 495888 0)
(-413732 37431.6 0)
(3987.52 36803.5 0)
(11229.7 42620.3 0)
(13054.2 49185.5 0)
(14603.9 57678.7 0)
(15675.6 66119.4 0)
(16730.9 75856.3 0)
(17681.2 85564 0)
(18496.5 96454.3 0)
(19010.8 107171 0)
(19467.7 118712 0)
(19617.2 130025 0)
(19672.1 141806 0)
(19124.3 153258 0)
(18141 164550 0)
(16101 175038 0)
(12710.4 184053 0)
(8046.29 190534 0)
(2752.88 193985 0)
(-2753.33 193985 0)
(-8045.89 190534 0)
(-12709.4 184054 0)
(-16099.1 175039 0)
(-18138 164553 0)
(-19119.9 153264 0)
(-19666.1 141814 0)
(-19610.5 130035 0)
(-19460.4 118724 0)
(-19004.2 107185 0)
(-18490.5 96468.6 0)
(-17676.8 85574.1 0)
(-16728 75865.6 0)
(-15675.6 66118.8 0)
(-14609.3 57668.9 0)
(-13072.8 49155.2 0)
(-11266.8 42554.5 0)
(-4055.84 36680.5 0)
(412755 37239.7 0)
(-476313 494023 0)
(36737.1 -428873 0)
(-32855.3 -33575.2 0)
(315.719 -31896.4 0)
(819.394 -37124.4 0)
(1046.85 -42545.4 0)
(1168.89 -49545.1 0)
(1266.35 -56497.4 0)
(1375.13 -64518.9 0)
(1497.43 -72462 0)
(1624.18 -81348.4 0)
(1729.12 -90009.8 0)
(1836.47 -99333.1 0)
(1923.49 -108369 0)
(2005.47 -117779 0)
(2106.93 -126821 0)
(2196.01 -135650 0)
(2117.95 -143705 0)
(1772.88 -150488 0)
(1242.57 -155198 0)
(476.176 -157504 0)
(-475.92 -157503 0)
(-1242.14 -155198 0)
(-1772.25 -150487 0)
(-2117.19 -143704 0)
(-2195.33 -135651 0)
(-2107.04 -126823 0)
(-2007.01 -117785 0)
(-1926.32 -108381 0)
(-1841.62 -99351.5 0)
(-1734.76 -90038 0)
(-1634.08 -81383.2 0)
(-1507.3 -72512.4 0)
(-1389 -64574.5 0)
(-1285.24 -56573.8 0)
(-1192.01 -49632 0)
(-1080.11 -42653.9 0)
(-867.299 -37244.6 0)
(-366.93 -32027.7 0)
(32164.3 -33682.8 0)
(-35644.4 -429138 0)
(36079.6 4951.67 0)
(-31191.4 442.33 0)
(567.409 696.822 0)
(967.981 886.845 0)
(1085.15 953.528 0)
(1159.25 955.677 0)
(1246.31 942.378 0)
(1346.8 922.954 0)
(1463.7 899.64 0)
(1586.79 866.551 0)
(1680.14 826.704 0)
(1775.68 769.525 0)
(1841.96 695.534 0)
(1891.76 602.305 0)
(1903.15 483.98 0)
(1871 311.714 0)
(1802.58 111.283 0)
(1634.79 -10.5016 0)
(1285.8 -13.0852 0)
(531.802 53.2247 0)
(-531.184 53.4517 0)
(-1284.98 -12.5693 0)
(-1633.81 -9.764 0)
(-1801.9 111.923 0)
(-1871.14 311.668 0)
(-1904.49 482.468 0)
(-1894.82 598.839 0)
(-1846.81 689.134 0)
(-1783.91 759.951 0)
(-1689.25 811.224 0)
(-1602.21 848.139 0)
(-1479.37 869.02 0)
(-1368.99 890.512 0)
(-1276.45 888.932 0)
(-1195.64 891.472 0)
(-1135.77 861.198 0)
(-1026.97 770.885 0)
(-623.615 560.402 0)
(30085.5 289.672 0)
(-34526.6 3094.01 0)
(42623.6 13180.1 0)
(-36955.5 1044.69 0)
(744.069 1209.11 0)
(1066.76 1326.53 0)
(1113.18 1363.22 0)
(1158.15 1337.21 0)
(1234.82 1323.82 0)
(1333.95 1285.2 0)
(1443.08 1284.58 0)
(1553.9 1250.53 0)
(1635.62 1233.77 0)
(1710.07 1191.21 0)
(1762.35 1146.03 0)
(1801.61 1091.13 0)
(1826.91 1040.64 0)
(1836.87 1015.76 0)
(1807.45 1034.29 0)
(1653.03 1078.03 0)
(1303.98 1126.54 0)
(540.293 1169.15 0)
(-539.322 1169.53 0)
(-1303.06 1127.09 0)
(-1652.28 1078.28 0)
(-1807.44 1033.44 0)
(-1838.26 1012.83 0)
(-1830.31 1034.49 0)
(-1807.85 1080.52 0)
(-1771.07 1129.17 0)
(-1723.97 1167.83 0)
(-1649.78 1198.96 0)
(-1578.39 1210.19 0)
(-1466.47 1221.19 0)
(-1369.81 1219.74 0)
(-1284.32 1217.62 0)
(-1218.74 1214.94 0)
(-1196.32 1193.58 0)
(-1157.16 1131.74 0)
(-830.645 995.712 0)
(34605.7 825.888 0)
(-39585.3 10713.2 0)
(49804 14759.9 0)
(-42727 1298.53 0)
(839.002 1370.51 0)
(1116.49 1445.16 0)
(1095.43 1451.46 0)
(1121.28 1387.57 0)
(1196.19 1359.32 0)
(1308.99 1294.32 0)
(1430.29 1300.47 0)
(1537.83 1276.98 0)
(1622.97 1280.51 0)
(1691.13 1274.34 0)
(1745.52 1275.27 0)
(1790.21 1281.71 0)
(1830.53 1300.63 0)
(1864.87 1335.07 0)
(1862.57 1386.56 0)
(1723.69 1449.63 0)
(1373.62 1507.65 0)
(573.226 1556.39 0)
(-571.714 1556.81 0)
(-1372.91 1507.98 0)
(-1724.07 1448.9 0)
(-1864.97 1383.39 0)
(-1870.13 1327.89 0)
(-1839.27 1287.72 0)
(-1803.58 1261.47 0)
(-1762.67 1245.54 0)
(-1716.65 1234.58 0)
(-1648.43 1225.49 0)
(-1580.79 1212.31 0)
(-1470.17 1205.92 0)
(-1372.43 1193.86 0)
(-1281.07 1200.74 0)
(-1218.8 1211.36 0)
(-1215.94 1217.85 0)
(-1217.64 1198.16 0)
(-918.347 1132.11 0)
(39449.6 1071.53 0)
(-45534.3 12568.5 0)
(58577.3 16151.8 0)
(-49857.9 1384.2 0)
(885.368 1425.86 0)
(1144.77 1494.18 0)
(1057.68 1484.93 0)
(1069.36 1420 0)
(1144.96 1375.81 0)
(1277.23 1316.44 0)
(1426.38 1317.95 0)
(1534.67 1310.89 0)
(1633.08 1328.09 0)
(1705.02 1349.29 0)
(1769.44 1380.05 0)
(1826.04 1421.69 0)
(1878.34 1474.29 0)
(1919.67 1534.54 0)
(1917.84 1595.22 0)
(1769.73 1650.46 0)
(1406.85 1688.82 0)
(587.662 1718.01 0)
(-585.964 1718.19 0)
(-1407.04 1688.24 0)
(-1772.35 1647.63 0)
(-1924.05 1588.38 0)
(-1930.44 1521.89 0)
(-1894.32 1454.02 0)
(-1848.51 1392.09 0)
(-1796.98 1339.27 0)
(-1743.28 1296.13 0)
(-1671.24 1258.94 0)
(-1597.24 1226.64 0)
(-1484.24 1203.51 0)
(-1374.8 1181.62 0)
(-1267.45 1183.78 0)
(-1202.25 1202.43 0)
(-1209.04 1222.13 0)
(-1239.78 1224.14 0)
(-952.669 1195.75 0)
(45626.2 1185.6 0)
(-53124.3 14019.4 0)
(67233 16641 0)
(-56917.5 1420.08 0)
(944.985 1470.76 0)
(1173.41 1552.94 0)
(1023.94 1567.79 0)
(1016.12 1531.95 0)
(1096.4 1477.9 0)
(1253.23 1442.91 0)
(1424.94 1435.91 0)
(1547.6 1435.11 0)
(1659.98 1460.6 0)
(1741.2 1487.35 0)
(1815.29 1527.58 0)
(1881.02 1573.5 0)
(1939.28 1626.1 0)
(1981.41 1682.09 0)
(1974.27 1737.61 0)
(1813.89 1787.4 0)
(1438.72 1822.17 0)
(601.53 1849.55 0)
(-600.397 1849.19 0)
(-1440.9 1819.91 0)
(-1820.3 1781.32 0)
(-1986.14 1725.65 0)
(-1999.6 1662.33 0)