/*--------------------------------*- C++ -*----------------------------------*\
| =========                 |                                                 |
| \\      /  F ield         | OpenFOAM: The Open Source CFD Toolbox           |
|  \\    /   O peration     | Version:  v1912                                 |
|   \\  /    A nd           | Website:  www.openfoam.com                      |
|    \\/     M anipulation  |                                                 |
\*---------------------------------------------------------------------------*/
FoamFile
{
    version     2.0;
    format      ascii;
    class       volScalarField;
    location    "2.62";
    object      p;
}
// * * * * * * * * * * * * * * * * * * * * * * * * * * * * * * * * * * * * * //

dimensions      [1 -1 -2 0 0 0 0];


internalField   nonuniform List<scalar> 
1900
(
16000.9
11114.8
10886.2
10955.3
11013.9
11075.4
11136.4
11204.9
11269.8
11357.4
16000.9
11114.7
10886.2
10955.4
11014.1
11075.1
11133.9
11190.7
11241.4
11323.5
16000.8
11114.7
10886.2
10955.2
11013.6
11074
11133.6
11194.2
11253.4
11316.4
16000.9
11114.7
10886.2
10955.4
11014.1
11075.1
11133.9
11190.7
11241.4
11323.5
16000.9
11114.8
10886.2
10955.3
11013.9
11075.4
11136.4
11204.9
11269.8
11357.4
11268.1
11345.8
11342.3
11110.6
9714.37
11378.9
11458
11422
11346.6
10681.8
11357.8
11411.3
11351
11198.2
10484.6
11378.9
11458
11422
11346.6
10681.8
11268.1
11345.8
11342.3
11110.6
9714.37
12606.6
12783.3
13180
13257.8
13308.4
12419.3
12751.1
13183.4
13432.1
13262.5
12406.4
12757.6
13161.6
13292.1
12716.7
12419.3
12751.1
13183.4
13432.1
13262.5
12606.6
12783.3
13180
13257.8
13308.4
10591
4779.25
5137.2
5338.59
5208.52
5180.39
5214.81
5313.85
5438.9
5605.91
5809.42
6049.47
6324.27
6630.24
6963.52
7319.48
7687.69
8044.84
8339.91
8546.04
8537.48
8314.56
8007.32
7639.05
7259.16
6888.18
6533.55
6196.19
5875.86
5573.12
5289.7
5028.18
4790.6
4576.21
4379.69
4197.88
4039.88
3941.9
3638.45
20257.4
10975.8
5131.92
5353.34
5384.9
5240.91
5203.11
5233.98
5333.06
5458.14
5625.07
5829.02
6069.46
6344.67
6651.1
6984.88
7341.38
7710.19
8067.97
8363.58
8570.1
8561.52
8338.15
8030.32
7661.33
7280.71
6909.04
6553.77
6215.8
5894.88
5591.53
5307.48
5045.31
4807.07
4592.09
4395
4212.81
4053.34
3955.68
3650.95
20325.5
10418.8
5566.69
5488.82
5424.71
5254.81
5212.1
5241.67
5341.08
5465.89
5632.94
5837.02
6077.55
6352.88
6659.47
6993.41
7350.12
7719.16
8077.2
8373.03
8579.73
8571.14
8347.57
8039.51
7670.24
7289.35
6917.45
6561.97
6223.82
5902.73
5599.22
5315
5052.67
4814.26
4599.13
4401.89
4219.61
4059.53
3962.07
3656.72
20370.4
10975.8
5131.92
5353.34
5384.9
5240.91
5203.11
5233.98
5333.06
5458.14
5625.07
5829.02
6069.46
6344.67
6651.1
6984.88
7341.38
7710.19
8067.97
8363.58
8570.1
8561.52
8338.15
8030.32
7661.33
7280.71
6909.04
6553.77
6215.8
5894.88
5591.53
5307.48
5045.31
4807.07
4592.09
4395
4212.81
4053.34
3955.68
3650.95
20325.5
10591
4779.25
5137.2
5338.59
5208.52
5180.39
5214.81
5313.85
5438.9
5605.91
5809.42
6049.47
6324.27
6630.24
6963.52
7319.48
7687.69
8044.84
8339.91
8546.04
8537.48
8314.56
8007.32
7639.05
7259.16
6888.18
6533.55
6196.19
5875.86
5573.12
5289.7
5028.18
4790.6
4576.21
4379.69
4197.88
4039.88
3941.9
3638.45
20257.4
12099.1
4137.25
4857.59
5098.67
5073.94
5073.41
5126.36
5220.87
5348.93
5514.76
5716.3
5954.51
6227.26
6530.8
6861.25
7213.95
7578.56
7932.08
8224.16
8428.17
8419.69
8199.18
7895.12
7530.77
7154.88
6787.7
6436.56
6102.38
5784.98
5484.93
5203.98
4944.69
4709.1
4496.43
4301.54
4121.44
3968.29
3870.82
3574.68
19967.2
13216.2
3701.69
4472.38
4669.98
4778.27
4836.64
4920.75
5019.73
5148.21
5310.22
5506.86
5739.63
6005.83
6301.5
6622.85
6965.43
7319.45
7662.8
7946.68
8145.02
8136.82
7922.63
7627.06
7273.12
6908
6551.27
6209.97
5885.1
5576.55
5284.97
5012.11
4760.5
4532.08
4325.99
4137.63
3964.01
3821.36
3728.4
3446.84
19365.1
14115
3504.01
4100.11
4317.88
4453.11
4555.69
4656.86
4764.66
4893.41
5052.27
5243.86
5469.89
5727.47
6012.5
6321.38
6650.05
6989.49
7318.92
7591.67
7782.58
7774.86
7569.05
7284.97
6945.15
6594.76
6252.42
5924.84
5612.99
5316.86
5037.11
4775.46
4534.28
4315.41
4117.93
3938.17
3773.12
3641.05
3552.18
3276.42
18371.1
15385
3330.39
3810.47
3998.89
4148.45
4275.74
4384.33
4499.86
4628.96
4785.98
4973.81
5193.57
5442.37
5716.26
6011.96
6325.94
6650.03
6964.88
7226.12
7409.69
7402.76
7205.77
6933.95
6609.24
6274.78
5948.15
5635.6
5338.03
5055.47
4788.6
4538.98
4308.83
4099.91
3911.31
3740.9
3584.85
3460.75
3373.79
3097.78
17204.2
14484.5
3120.91
3541.55
3722.84
3873.25
4005.37
4118.25
4236.13
4366.36
4522.33
4707.19
4921.24
5161.52
5424.49
5707.26
6006.81
6315.84
6616.5
6866.69
7043.44
7037.5
6849.13
6589.32
6279.5
5960.81
5649.74
5352.05
5068.55
4799.33
4544.94
4307.01
4087.35
3887.95
3707.9
3547.09
3399.97
3281.07
3190.27
2922.03
15954
13904
2926.48
3299.75
3475.81
3624.7
3750.85
3863.18
3980.95
4112.08
4267.66
4450.28
4659.02
4891.36
5143.93
5414.41
5700.24
5995.01
6282.35
6522.38
6692.97
6688.1
6507.83
6259.26
5963.5
5659.76
5363.48
5079.86
4809.7
4552.94
4310.49
4083.26
3873.56
3683.14
3511.22
3359.87
3220.8
3104.9
3008.23
2752.56
14677
13193.1
2749.23
3081.64
3248.57
3394.36
3511.43
3620.38
3736.84
3868.55
4024.06
4203.95
4407.83
4632.15
4874.79
5133.42
5406.15
5687.36
5962.19
6192.85
6357.82
6354.03
6181.35
5943.31
5660.83
5371.31
5089.05
4818.84
4561.18
4316.58
4084.84
3868.47
3667.55
3486.06
3322.11
3179.63
3047.44
2933.41
2831.39
2590.02
13449
12431.5
2583.36
2881.23
3036.72
3177.18
3285.98
3390.93
3505.51
3637.55
3791.8
3969.75
4167.54
4384.55
4617.18
4864.52
5124.7
5393.09
5656.14
5878.12
6037.84
6035.1
5869.55
5641.41
5371.56
5095.59
4826.77
4569.18
4323.82
4089.95
3869.81
3662.03
3470.85
3297.48
3140.9
3006.79
2880.39
2767.7
2661.59
2434.95
12223.7
11587.9
2425.89
2695.27
2839.34
2972.49
3075.12
3176.34
3288.24
3419.55
3573.48
3746.51
3940.06
4148.42
4372.03
4608.36
4856.79
5113.09
5365.1
5579.02
5733.73
5731.92
5573.08
5354.27
5096.44
4833.41
4577.27
4331.99
4097.47
3875.45
3663.61
3467.32
3282.85
3118.22
2969.23
2842.07
2720.68
2609.7
2501.46
2289.48
11097.2
10625.3
2274.69
2518.62
2654.1
2779.24
2877.34
2975.41
3085.22
3215.85
3366.39
3538.03
3723.82
3926
4139.99
4366.49
4603.87
4848.99
5090.71
5297.09
5446.91
5445.86
5293.33
5083.29
4836.86
4586.01
4341.97
4107.7
3884.59
3671.05
3471.04
3280.9
3105.72
2948.8
2805.14
2685.15
2568.01
2458.44
2348.88
2151.16
9978.93
9692.58
2137.95
2360.25
2488.53
2602.86
2696.69
2792.04
2897.89
3027.86
3176.2
3341.72
3523.51
3717.16
3923.57
4140.58
4368.1
4602.94
4835.1
5034.43
5179.41
5178.92
5032.33
4830.46
4594.69
4355.26
4122.2
3898.71
3684.59
3481.92
3288.37
3109.2
2940.54
2790.57
2654.42
2539.43
2426.55
2319.62
2211.08
2026.99
8981.38
8721.47
2007.78
2209.42
2330.57
2435.12
2525.68
2619.05
2725.47
2852.1
2998.82
3161.03
3336.93
3525.03
3723.73
3932.87
4151.51
4377.12
4600.5
4793.24
4933.47
4933.35
4792.29
4597.93
4372
4142.92
3919.94
3705.56
3500.68
3305.33
3120.39
2947.83
2784.87
2643.67
2510.96
2401.38
2291.17
2186.14
2078.75
1907.11
7992.71
7830.36
1894.99
2078.69
2191.54
2289.57
2377.28
2470.74
2573.58
2701.84
2842.02
3001.17
3170.34
3351.82
3543.27
3744.72
3955.28
4172.48
4387.79
4574.36
4709.98
4710.05
4574.1
4386.62
4169.66
3950.05
3736.29
3530.86
3334.51
3147.49
2970.88
2804.86
2651.14
2513.88
2387.65
2280.93
2173.36
2070.3
1965.07
1804.82
7138.68
6935.17
1785.59
1951.18
2054.56
2147.17
2234.95
2331.11
2434.65
2561.57
2700.17
2854.47
3019.33
3194.68
3379.79
3574.24
3777.38
3986.89
4194.79
4375.64
4506.81
4506.96
4375.74
4194.47
3985.62
3774.59
3569.28
3372.02
3183.29
3004.02
2833.29
2674.86
2524.93
2393.82
2270.55
2165.84
2058.76
1957.05
1854.61
1705.44
6308.85
6123.9
1685.46
1833.69
1928.53
2021.3
2112.08
2211.64
2317.34
2443.12
2579.53
2729.73
2889.46
3058.64
3236.39
3422.49
3616.68
3817.31
4017.13
4191.91
4318.46
4318.61
4192.13
4017.23
3816.97
3615.5
3419.98
3232.05
3051.8
2879.95
2715.85
2563.19
2418.18
2291.02
2170.06
2064.96
1957.67
1856.55
1757.1
1618.78
5609.2
5316.19
1585.66
1717.14
1804.92
1896.36
1991.98
2092.47
2202.98
2326.11
2462.23
2609.44
2766.29
2931.62
3104.38
3284.05
3470.57
3663.04
3854.84
4023.51
4145.49
4145.59
4023.73
3855.1
3663.17
3470.34
3283.13
3102.42
2928.13
2761.14
2601.3
2452.55
2310.46
2186.49
2066.16
1961.3
1854.13
1754.77
1660.3
1533.84
4917.92
4677.62
1500.45
1613.48
1692.36
1781.6
1879.96
1981.23
2094.81
2216.3
2353.33
2499.38
2656.62
2822.04
2995
3173.94
3357.71
3544.14
3727.27
3886.7
4000.63
4000.69
3886.84
3727.52
3544.44
3357.95
3173.94
2994.56
2820.84
2654.55
2495.66
2348.77
2208.36
2086.32
1967.38
1863.35
1758.06
1662.55
1576.51
1464.78
4401.26
4131.5
1444.13
1535.62
1601.73
1684.84
1781.6
1881.16
1994.73
2114.52
2252.55
2398.62
2558.7
2727.86
2906.53
3091.93
3279.72
3465.22
3645.6
3802.56
3914.58
3914.61
3802.67
3645.81
3465.52
3280.05
3092.18
2906.58
2727.49
2557.8
2396.71
2249.99
2109.88
1989.47
1872.78
1771.31
1670.55
1583.29
1512.32
1421.2
3989.84
4107.44
1367.35
1441.56
1487.17
1556.71
1643.41
1732.74
1836.45
1944.37
2070.26
2202.24
2347.8
2501.76
2665.53
2838.02
3022.22
3213.74
3394.63
3541.02
3637.36
3637.37
3541.06
3394.73
3213.92
3022.5
2838.38
2665.87
2501.96
2347.76
2201.67
2069.33
1942.22
1833.89
1728.37
1637.83
1548.67
1476.24
1426.07
1350.35
4004.36
35419.2
4030.36
4064.27
4523.14
5074.18
5825.3
6580.9
7485.66
8407.89
9481.94
10564.2
11773.8
12990.9
14306.6
15622.4
16959
18230.4
19350.1
20167.1
20598.7
20598.6
20167.1
19350.1
18230.5
16959.2
15622.9
14307.5
12992.2
11775.5
10566.4
9484.49
8410.81
7488.69
6584.08
5828.22
5076.59
4523.7
4062.36
4024.5
35324.5
35419.2
4030.36
4064.27
4523.14
5074.18
5825.3
6580.9
7485.66
8407.89
9481.94
10564.2
11773.8
12990.9
14306.6
15622.4
16959
18230.4
19350.1
20167.1
20598.7
20598.6
20167.1
19350.1
18230.5
16959.2
15622.9
14307.5
12992.2
11775.5
10566.4
9484.49
8410.81
7488.69
6584.08
5828.22
5076.59
4523.7
4062.36
4024.5
35324.5
4107.44
1367.35
1441.56
1487.17
1556.71
1643.41
1732.74
1836.45
1944.37
2070.26
2202.24
2347.8
2501.76
2665.53
2838.02
3022.22
3213.74
3394.63
3541.02
3637.36
3637.37
3541.06
3394.73
3213.92
3022.5
2838.38
2665.87
2501.96
2347.76
2201.67
2069.33
1942.22
1833.89
1728.37
1637.83
1548.67
1476.24
1426.07
1350.35
4004.36
4131.5
1444.13
1535.62
1601.73
1684.84
1781.6
1881.16
1994.73
2114.52
2252.55
2398.62
2558.7
2727.86
2906.53
3091.93
3279.72
3465.22
3645.6
3802.56
3914.58
3914.61
3802.67
3645.81
3465.52
3280.05
3092.18
2906.58
2727.49
2557.8
2396.71
2249.99
2109.88
1989.47
1872.78
1771.31
1670.55
1583.29
1512.32
1421.2
3989.84
4677.62
1500.45
1613.48
1692.36
1781.6
1879.96
1981.23
2094.81
2216.3
2353.33
2499.38
2656.62
2822.04
2995
3173.94
3357.71
3544.14
3727.27
3886.7
4000.63
4000.69
3886.84
3727.52
3544.44
3357.95
3173.94
2994.56
2820.84
2654.55
2495.66
2348.77
2208.36
2086.32
1967.38
1863.35
1758.06
1662.55
1576.51
1464.78
4401.26
5316.19
1585.66
1717.14
1804.92
1896.36
1991.98
2092.47
2202.98
2326.11
2462.23
2609.44
2766.29
2931.62
3104.38
3284.05
3470.57
3663.04
3854.84
4023.51
4145.49
4145.59
4023.73
3855.1
3663.17
3470.34
3283.13
3102.42
2928.13
2761.14
2601.3
2452.55
2310.46
2186.49
2066.16
1961.3
1854.13
1754.77
1660.3
1533.84
4917.92
6123.9
1685.46
1833.69
1928.53
2021.3
2112.08
2211.64
2317.34
2443.12
2579.53
2729.73
2889.46
3058.64
3236.39
3422.49
3616.68
3817.31
4017.13
4191.91
4318.46
4318.61
4192.13
4017.23
3816.97
3615.5
3419.98
3232.05
3051.8
2879.95
2715.85
2563.19
2418.18
2291.02
2170.06
2064.96
1957.67
1856.55
1757.1
1618.78
5609.2
6935.17
1785.59
1951.18
2054.56
2147.17
2234.95
2331.11
2434.65
2561.57
2700.17
2854.47
3019.33
3194.68
3379.79
3574.24
3777.38
3986.89
4194.79
4375.64
4506.81
4506.96
4375.74
4194.47
3985.62
3774.59
3569.28
3372.02
3183.29
3004.02
2833.29
2674.86
2524.93
2393.82
2270.55
2165.84
2058.76
1957.05
1854.61
1705.44
6308.85
7830.36
1894.99
2078.69
2191.54
2289.57
2377.28
2470.74
2573.58
2701.84
2842.02
3001.17
3170.34
3351.82
3543.27
3744.72
3955.28
4172.48
4387.79
4574.36
4709.98
4710.05
4574.1
4386.62
4169.66
3950.05
3736.29
3530.86
3334.51
3147.49
2970.88
2804.86
2651.14
2513.88
2387.65
2280.93
2173.36
2070.3
1965.07
1804.82
7138.68
8721.47
2007.78
2209.42
2330.57
2435.12
2525.68
2619.05
2725.47
2852.1
2998.82
3161.03
3336.93
3525.03
3723.73
3932.87
4151.51
4377.12
4600.5
4793.24
4933.47
4933.35
4792.29
4597.93
4372
4142.92
3919.94
3705.56
3500.68
3305.33
3120.39
2947.83
2784.87
2643.67
2510.96
2401.38
2291.17
2186.14
2078.75
1907.11
7992.71
9692.58
2137.95
2360.25
2488.53
2602.86
2696.69
2792.04
2897.89
3027.86
3176.2
3341.72
3523.51
3717.16
3923.57
4140.58
4368.1
4602.94
4835.1
5034.43
5179.41
5178.92
5032.33
4830.46
4594.69
4355.26
4122.2
3898.71
3684.59
3481.92
3288.37
3109.2
2940.54
2790.57
2654.42
2539.43
2426.55
2319.62
2211.08
2026.99
8981.38
10625.3
2274.69
2518.62
2654.1
2779.24
2877.34
2975.41
3085.22
3215.85
3366.39
3538.03
3723.82
3926
4139.99
4366.49
4603.87
4848.99
5090.71
5297.09
5446.91
5445.86
5293.33
5083.29
4836.86
4586.01
4341.97
4107.7
3884.59
3671.05
3471.04
3280.9
3105.72
2948.8
2805.14
2685.15
2568.01
2458.44
2348.88
2151.16
9978.93
11587.9
2425.89
2695.27
2839.34
2972.49
3075.12
3176.34
3288.24
3419.55
3573.48
3746.51
3940.06
4148.42
4372.03
4608.36
4856.79
5113.09
5365.1
5579.02
5733.73
5731.92
5573.08
5354.27
5096.44
4833.41
4577.27
4331.99
4097.47
3875.45
3663.61
3467.32
3282.85
3118.22
2969.23
2842.07
2720.68
2609.7
2501.46
2289.48
11097.2
12431.5
2583.36
2881.23
3036.72
3177.18
3285.98
3390.93
3505.51
3637.55
3791.8
3969.75
4167.54
4384.55
4617.18
4864.52
5124.7
5393.09
5656.14
5878.12
6037.84
6035.1
5869.55
5641.41
5371.56
5095.59
4826.77
4569.18
4323.82
4089.95
3869.81
3662.03
3470.85
3297.48
3140.9
3006.79
2880.39
2767.7
2661.59
2434.95
12223.7
13193.1
2749.23
3081.64
3248.57
3394.36
3511.43
3620.38
3736.84
3868.55
4024.06
4203.95
4407.83
4632.15
4874.79
5133.42
5406.15
5687.36
5962.19
6192.85
6357.82
6354.03
6181.35
5943.31
5660.83
5371.31
5089.05
4818.84
4561.18
4316.58
4084.84
3868.47
3667.55
3486.06
3322.11
3179.63
3047.44
2933.41
2831.39
2590.02
13449
13904
2926.48
3299.75
3475.81
3624.7
3750.85
3863.18
3980.95
4112.08
4267.66
4450.28
4659.02
4891.36
5143.93
5414.41
5700.24
5995.01
6282.35
6522.38
6692.97
6688.1
6507.83
6259.26
5963.5
5659.76
5363.48
5079.86
4809.7
4552.94
4310.49
4083.26
3873.56
3683.14
3511.22
3359.87
3220.8
3104.9
3008.23
2752.56
14677
14484.5
3120.91
3541.55
3722.84
3873.25
4005.37
4118.25
4236.13
4366.36
4522.33
4707.19
4921.24
5161.52
5424.49
5707.26
6006.81
6315.84
6616.5
6866.69
7043.44
7037.5
6849.13
6589.32
6279.5
5960.81
5649.74
5352.05
5068.55
4799.33
4544.94
4307.01
4087.35
3887.95
3707.9
3547.09
3399.97
3281.07
3190.27
2922.03
15954
15385
3330.39
3810.47
3998.89
4148.45
4275.74
4384.33
4499.86
4628.96
4785.98
4973.81
5193.57
5442.37
5716.26
6011.96
6325.94
6650.03
6964.88
7226.12
7409.69
7402.76
7205.77
6933.95
6609.24
6274.78
5948.15
5635.6
5338.03
5055.47
4788.6
4538.98
4308.83
4099.91
3911.31
3740.9
3584.85
3460.75
3373.79
3097.78
17204.2
14115
3504.01
4100.11
4317.88
4453.11
4555.69
4656.86
4764.66
4893.41
5052.27
5243.86
5469.89
5727.47
6012.5
6321.38
6650.05
6989.49
7318.92
7591.67
7782.58
7774.86
7569.05
7284.97
6945.15
6594.76
6252.42
5924.84
5612.99
5316.86
5037.11
4775.46
4534.28
4315.41
4117.93
3938.17
3773.12
3641.05
3552.18
3276.42
18371.1
13216.2
3701.69
4472.38
4669.98
4778.27
4836.64
4920.75
5019.73
5148.21
5310.22
5506.86
5739.63
6005.83
6301.5
6622.85
6965.43
7319.45
7662.8
7946.68
8145.02
8136.82
7922.63
7627.06
7273.12
6908
6551.27
6209.97
5885.1
5576.55
5284.97
5012.11
4760.5
4532.08
4325.99
4137.63
3964.01
3821.36
3728.4
3446.84
19365.1
12099.1
4137.25
4857.59
5098.67
5073.94
5073.41
5126.36
5220.87
5348.93
5514.76
5716.3
5954.51
6227.26
6530.8
6861.25
7213.95
7578.56
7932.08
8224.16
8428.17
8419.69
8199.18
7895.12
7530.77
7154.88
6787.7
6436.56
6102.38
5784.98
5484.93
5203.98
4944.69
4709.1
4496.43
4301.54
4121.44
3968.29
3870.82
3574.68
19967.2
)
;

boundaryField
{
    inlet
    {
        type            fixedValue;
        value           uniform 10000;
    }
    outlet
    {
        type            fixedValue;
        value           uniform 1000;
    }
    obstacle
    {
        type            zeroGradient;
    }
    empty
    {
        type            empty;
    }
}


// ************************************************************************* //
