/*--------------------------------*- C++ -*----------------------------------*\
| =========                 |                                                 |
| \\      /  F ield         | OpenFOAM: The Open Source CFD Toolbox           |
|  \\    /   O peration     | Version:  v1912                                 |
|   \\  /    A nd           | Website:  www.openfoam.com                      |
|    \\/     M anipulation  |                                                 |
\*---------------------------------------------------------------------------*/
FoamFile
{
    version     2.0;
    format      ascii;
    class       volVectorField;
    location    "1.2";
    object      U;
}
// * * * * * * * * * * * * * * * * * * * * * * * * * * * * * * * * * * * * * //

dimensions      [0 1 -1 0 0 0 0];


internalField   nonuniform List<vector> 
4800
(
(-6.32486 -0.00270503 0)
(-1.86381 0.00232837 0)
(0.122847 -0.00232694 0)
(-0.552696 -0.00968393 0)
(-1.08524 -0.0190236 0)
(-1.24007 -0.0185173 0)
(-1.16066 -0.0181515 0)
(-1.00317 -0.00949416 0)
(-0.81763 0.00300698 0)
(-0.618604 0.00801952 0)
(-0.421187 0.00981022 0)
(-0.233322 0.00985366 0)
(-0.0539066 0.00637225 0)
(0.114907 0.000673743 0)
(0.265003 -0.0110673 0)
(0.393409 -0.0270334 0)
(0.510201 -0.0406973 0)
(0.597692 -0.0530622 0)
(0.626453 -0.0442134 0)
(0.657783 -0.0306851 0)
(0.6844 -0.0151076 0)
(0.672094 -0.00694851 0)
(0.515463 -0.003514 0)
(-0.0674513 -0.00882608 0)
(-0.813069 -0.012697 0)
(-0.928047 -0.00554229 0)
(-0.864333 0.0048343 0)
(-0.739389 0.0180987 0)
(-0.61091 0.0255252 0)
(-0.504015 0.0245443 0)
(-0.415473 0.0159972 0)
(-0.355139 -0.000372456 0)
(-0.328706 -0.0206767 0)
(-0.321838 -0.0318952 0)
(-0.307914 -0.0309896 0)
(-0.276885 -0.0222652 0)
(-0.231614 -0.00177402 0)
(-0.166499 0.0186784 0)
(-0.0886223 0.0290394 0)
(-0.00106198 0.035146 0)
(-6.32695 -0.00615918 0)
(-1.86861 0.0159286 0)
(0.0961173 -0.0059122 0)
(-0.572886 -0.0235423 0)
(-1.07311 -0.0508955 0)
(-1.21832 -0.0341089 0)
(-1.13816 -0.0173477 0)
(-0.991698 0.0082147 0)
(-0.818249 0.0219522 0)
(-0.628455 0.0239589 0)
(-0.43712 0.0199986 0)
(-0.250659 0.00909018 0)
(-0.0723301 -0.0081902 0)
(0.0948869 -0.0301537 0)
(0.245275 -0.0596869 0)
(0.378592 -0.0946482 0)
(0.505684 -0.114219 0)
(0.607667 -0.121689 0)
(0.655199 -0.0946573 0)
(0.68675 -0.0534358 0)
(0.704468 -0.0184734 0)
(0.685165 -0.016001 0)
(0.527334 -0.00412504 0)
(-0.0627973 0.00141496 0)
(-0.798417 0.00212739 0)
(-0.910729 0.0352471 0)
(-0.849818 0.058329 0)
(-0.739679 0.0795377 0)
(-0.623936 0.0789489 0)
(-0.525808 0.0551671 0)
(-0.449089 0.0114992 0)
(-0.390403 -0.0416139 0)
(-0.346928 -0.0715267 0)
(-0.311264 -0.0710631 0)
(-0.274958 -0.0357905 0)
(-0.242452 0.0189187 0)
(-0.214826 0.0685613 0)
(-0.172202 0.0998434 0)
(-0.10219 0.108705 0)
(-0.0255652 0.107446 0)
(-6.32716 -0.00972248 0)
(-1.87742 0.0286628 0)
(0.0344604 0.0145723 0)
(-0.623558 -0.0123201 0)
(-1.0621 -0.0689005 0)
(-1.18874 -0.0450467 0)
(-1.10558 -0.0304946 0)
(-0.970916 0.00421774 0)
(-0.814555 0.0254773 0)
(-0.642734 0.0279226 0)
(-0.462522 0.0197216 0)
(-0.281518 0.000279059 0)
(-0.108176 -0.0289057 0)
(0.052046 -0.0543253 0)
(0.199838 -0.0843259 0)
(0.342746 -0.119233 0)
(0.488605 -0.141903 0)
(0.607858 -0.143739 0)
(0.68458 -0.125606 0)
(0.717462 -0.0841118 0)
(0.723606 -0.0463355 0)
(0.696885 -0.0431074 0)
(0.553754 -0.020147 0)
(-0.0406586 -0.00153957 0)
(-0.770449 0.0091897 0)
(-0.879871 0.0488606 0)
(-0.819732 0.0735938 0)
(-0.729594 0.0926017 0)
(-0.637455 0.0831477 0)
(-0.565181 0.0424109 0)
(-0.505297 -0.0180849 0)
(-0.438631 -0.062041 0)
(-0.36233 -0.0836107 0)
(-0.290202 -0.0730837 0)
(-0.229005 -0.0372716 0)
(-0.185197 0.0183241 0)
(-0.163369 0.0807011 0)
(-0.147166 0.12858 0)
(-0.104028 0.152582 0)
(-0.0308557 0.151248 0)
(-6.32536 -0.0132767 0)
(-1.88936 0.0464569 0)
(-0.0511117 0.0306875 0)
(-0.697975 0.000824006 0)
(-1.05775 -0.0729345 0)
(-1.15272 -0.0485443 0)
(-1.06454 -0.0386964 0)
(-0.941475 -0.00250187 0)
(-0.807017 0.0236742 0)
(-0.658107 0.0282936 0)
(-0.495403 0.0169876 0)
(-0.323066 -0.0126573 0)
(-0.151936 -0.0521235 0)
(0.011091 -0.0826119 0)
(0.164343 -0.108426 0)
(0.31936 -0.127648 0)
(0.479128 -0.141432 0)
(0.609921 -0.137616 0)
(0.703112 -0.12638 0)
(0.744811 -0.106796 0)
(0.749987 -0.0757392 0)
(0.724926 -0.0601724 0)
(0.599426 -0.0308819 0)
(-0.000798332 0.0025568 0)
(-0.743347 0.0267796 0)
(-0.851445 0.0528308 0)
(-0.803413 0.0664896 0)
(-0.733227 0.0684302 0)
(-0.667076 0.0458304 0)
(-0.613686 0.0024873 0)
(-0.547137 -0.0403069 0)
(-0.460238 -0.0683063 0)
(-0.363662 -0.0687043 0)
(-0.270135 -0.0532845 0)
(-0.190375 -0.0248104 0)
(-0.133343 0.0172023 0)
(-0.106915 0.0750722 0)
(-0.103188 0.134727 0)
(-0.0951622 0.172315 0)
(-0.0324628 0.179498 0)
(-6.31941 -0.0164798 0)
(-1.90445 0.0705629 0)
(-0.152044 0.0599001 0)
(-0.779281 0.0250866 0)
(-1.0652 -0.0566574 0)
(-1.11982 -0.0424713 0)
(-1.0236 -0.0374673 0)
(-0.906897 -0.0122178 0)
(-0.794091 0.0094347 0)
(-0.671487 0.0177121 0)
(-0.529234 0.00371505 0)
(-0.365512 -0.0292285 0)
(-0.193268 -0.067079 0)
(-0.0245755 -0.0931649 0)
(0.13794 -0.112878 0)
(0.307212 -0.118196 0)
(0.477343 -0.117811 0)
(0.613452 -0.114474 0)
(0.703816 -0.113878 0)
(0.752979 -0.109962 0)
(0.774245 -0.103681 0)
(0.767325 -0.0795133 0)
(0.661669 -0.0375116 0)
(0.050465 -0.00225006 0)
(-0.726517 0.0324421 0)
(-0.837152 0.0325754 0)
(-0.810129 0.0265038 0)
(-0.754229 0.0099107 0)
(-0.698976 -0.0183915 0)
(-0.639116 -0.045669 0)
(-0.557267 -0.0535545 0)
(-0.462088 -0.0521662 0)
(-0.358892 -0.0461471 0)
(-0.259918 -0.0350995 0)
(-0.168088 -0.0222331 0)
(-0.0958691 0.00409377 0)
(-0.0553691 0.0496009 0)
(-0.0501191 0.109656 0)
(-0.0650941 0.163409 0)
(-0.0249181 0.198697 0)
(-6.30684 -0.0166757 0)
(-1.92248 0.0986551 0)
(-0.275055 0.0789798 0)
(-0.860566 0.0379731 0)
(-1.0774 -0.0270526 0)
(-1.0943 -0.0298534 0)
(-0.991459 -0.029764 0)
(-0.87763 -0.0130567 0)
(-0.777269 0.000388905 0)
(-0.67552 0.00122551 0)
(-0.551544 -0.0113907 0)
(-0.396198 -0.0338138 0)
(-0.223536 -0.063849 0)
(-0.0486039 -0.0868401 0)
(0.126575 -0.0979248 0)
(0.307356 -0.0951355 0)
(0.476349 -0.0891527 0)
(0.609619 -0.0915132 0)
(0.697255 -0.0964764 0)
(0.757725 -0.107427 0)
(0.800149 -0.113655 0)
(0.820273 -0.0823405 0)
(0.729651 -0.046547 0)
(0.104755 -0.0168266 0)
(-0.724525 0.0123354 0)
(-0.843473 -0.00708276 0)
(-0.835746 -0.0280076 0)
(-0.778164 -0.0531124 0)
(-0.713103 -0.0716161 0)
(-0.636291 -0.066949 0)
(-0.550452 -0.0521992 0)
(-0.456068 -0.0393805 0)
(-0.357432 -0.0324615 0)
(-0.258871 -0.0309676 0)
(-0.162315 -0.0316271 0)
(-0.0766511 -0.0234738 0)
(-0.0184301 0.00459836 0)
(0.00587155 0.0583336 0)
(-0.00669889 0.132254 0)
(0.0028932 0.198136 0)
(-6.28778 -0.0122013 0)
(-1.94071 0.106905 0)
(-0.406857 0.0801773 0)
(-0.923621 0.0361277 0)
(-1.08392 -0.00321173 0)
(-1.0766 -0.0115074 0)
(-0.971374 -0.0217257 0)
(-0.862365 -0.0159376 0)
(-0.768282 -0.0158398 0)
(-0.673642 -0.0204938 0)
(-0.554924 -0.0239801 0)
(-0.407102 -0.0308566 0)
(-0.237334 -0.0461638 0)
(-0.0560382 -0.0614167 0)
(0.130507 -0.0690613 0)
(0.312981 -0.0669259 0)
(0.476204 -0.0641618 0)
(0.603527 -0.0708837 0)
(0.691554 -0.0827558 0)
(0.76042 -0.0973062 0)
(0.826997 -0.0975609 0)
(0.872763 -0.0705901 0)
(0.781915 -0.0569506 0)
(0.148315 -0.0374859 0)
(-0.732453 -0.0223536 0)
(-0.866022 -0.0486918 0)
(-0.863935 -0.078565 0)
(-0.790004 -0.0975904 0)
(-0.701865 -0.0987409 0)
(-0.615201 -0.0756812 0)
(-0.531164 -0.0492362 0)
(-0.447147 -0.0345021 0)
(-0.360791 -0.0328845 0)
(-0.268083 -0.0378784 0)
(-0.170436 -0.0453931 0)
(-0.0734277 -0.0488646 0)
(0.0115033 -0.0346659 0)
(0.0655581 0.00429707 0)
(0.0738725 0.079536 0)
(0.0674327 0.169161 0)
(-6.26874 -0.00763754 0)
(-1.94899 0.0712682 0)
(-0.505092 0.0725126 0)
(-0.963506 0.0454434 0)
(-1.09319 0.0208009 0)
(-1.06951 0.0166008 0)
(-0.965536 -0.00590437 0)
(-0.859824 -0.0113498 0)
(-0.765271 -0.0283892 0)
(-0.664667 -0.0393754 0)
(-0.545306 -0.0307052 0)
(-0.40228 -0.0227025 0)
(-0.235108 -0.0194089 0)
(-0.0529077 -0.0236873 0)
(0.136985 -0.0314647 0)
(0.317713 -0.0354118 0)
(0.473573 -0.0397121 0)
(0.597328 -0.0540511 0)
(0.690412 -0.0713409 0)
(0.769979 -0.0800749 0)
(0.856448 -0.0696112 0)
(0.913916 -0.0538097 0)
(0.806543 -0.0634113 0)
(0.173144 -0.0540723 0)
(-0.746229 -0.0610934 0)
(-0.898397 -0.0912679 0)
(-0.877968 -0.110802 0)
(-0.780478 -0.114035 0)
(-0.673788 -0.0985461 0)
(-0.586316 -0.0695644 0)
(-0.511466 -0.0461689 0)
(-0.443576 -0.0371104 0)
(-0.369707 -0.0409143 0)
(-0.282418 -0.0488032 0)
(-0.185041 -0.0595892 0)
(-0.0776936 -0.0676242 0)
(0.0242252 -0.0645268 0)
(0.108768 -0.0441662 0)
(0.149391 0.00851748 0)
(0.149849 0.0968259 0)
(-6.26124 0.00220773 0)
(-1.95121 0.000209513 0)
(-0.543266 0.0472731 0)
(-0.982277 0.0493809 0)
(-1.10597 0.0378516 0)
(-1.08024 0.0406424 0)
(-0.980575 0.00336057 0)
(-0.874803 -0.014159 0)
(-0.767805 -0.0380571 0)
(-0.651865 -0.0459781 0)
(-0.524261 -0.0333697 0)
(-0.380411 -0.0127578 0)
(-0.216948 0.00530233 0)
(-0.0421839 0.0123221 0)
(0.137873 0.00578229 0)
(0.311437 -0.00670196 0)
(0.465782 -0.0208705 0)
(0.593382 -0.0418378 0)
(0.693658 -0.0592777 0)
(0.792574 -0.057665 0)
(0.880924 -0.0386121 0)
(0.931214 -0.0444988 0)
(0.806231 -0.0670592 0)
(0.171554 -0.0821995 0)
(-0.761625 -0.0959539 0)
(-0.92466 -0.117589 0)
(-0.870441 -0.116536 0)
(-0.752403 -0.103841 0)
(-0.644429 -0.0793022 0)
(-0.562286 -0.059617 0)
(-0.500093 -0.047522 0)
(-0.444813 -0.0437105 0)
(-0.380572 -0.0471156 0)
(-0.299292 -0.0542276 0)
(-0.203625 -0.0644745 0)
(-0.087957 -0.0754368 0)
(0.0280897 -0.079825 0)
(0.128142 -0.075473 0)
(0.198285 -0.0513762 0)
(0.218787 0.00654346 0)
(-6.27118 0.0119539 0)
(-1.95189 -0.0679046 0)
(-0.511597 0.0144868 0)
(-0.9758 0.0469428 0)
(-1.12381 0.0553268 0)
(-1.11143 0.05694 0)
(-1.01432 0.0132448 0)
(-0.904232 -0.0109767 0)
(-0.779691 -0.0312109 0)
(-0.643425 -0.0372846 0)
(-0.498087 -0.0212829 0)
(-0.346835 0.00660017 0)
(-0.189966 0.0350774 0)
(-0.027568 0.0460922 0)
(0.136815 0.0385658 0)
(0.301399 0.0182359 0)
(0.455668 -0.00346528 0)
(0.588328 -0.0272902 0)
(0.707247 -0.0405598 0)
(0.816622 -0.0341766 0)
(0.897917 -0.0206662 0)
(0.928515 -0.0456706 0)
(0.781456 -0.0787393 0)
(0.152418 -0.108252 0)
(-0.768483 -0.11217 0)
(-0.922963 -0.115367 0)
(-0.847896 -0.0967742 0)
(-0.722435 -0.0747446 0)
(-0.621498 -0.0602422 0)
(-0.549648 -0.0538049 0)
(-0.496377 -0.050031 0)
(-0.447818 -0.0476211 0)
(-0.389737 -0.0480524 0)
(-0.313256 -0.0512551 0)
(-0.220685 -0.0577607 0)
(-0.101297 -0.0704777 0)
(0.02406 -0.0824189 0)
(0.131838 -0.0887145 0)
(0.216752 -0.0855942 0)
(0.253892 -0.0617871 0)
(-6.29018 0.0155213 0)
(-1.94295 -0.103606 0)
(-0.423883 -0.00140589 0)
(-0.948353 0.0403035 0)
(-1.1437 0.0791655 0)
(-1.15456 0.0637075 0)
(-1.05801 0.0303774 0)
(-0.938136 0.00629422 0)
(-0.795397 -0.0103407 0)
(-0.639339 -0.0142551 0)
(-0.477484 -0.000914614 0)
(-0.314136 0.0227129 0)
(-0.155667 0.051107 0)
(-0.00218989 0.0666571 0)
(0.146667 0.0620358 0)
(0.297378 0.0437711 0)
(0.454598 0.0217731 0)
(0.594451 -0.00480653 0)
(0.729856 -0.0152662 0)
(0.8383 -0.0163538 0)
(0.905007 -0.0146289 0)
(0.913153 -0.0503473 0)
(0.74018 -0.0956094 0)
(0.136478 -0.115473 0)
(-0.751454 -0.109324 0)
(-0.902781 -0.0776297 0)
(-0.824172 -0.0622743 0)
(-0.704329 -0.0481576 0)
(-0.611962 -0.0457828 0)
(-0.547013 -0.0482935 0)
(-0.496863 -0.0497558 0)
(-0.449594 -0.0491956 0)
(-0.394048 -0.0463539 0)
(-0.321426 -0.0423941 0)
(-0.234431 -0.0436247 0)
(-0.11841 -0.0573894 0)
(0.0108256 -0.0755396 0)
(0.125122 -0.0907742 0)
(0.210684 -0.100807 0)
(0.258675 -0.100113 0)
(-6.30626 0.0144816 0)
(-1.92293 -0.0945191 0)
(-0.322061 -0.0138575 0)
(-0.904365 0.0310508 0)
(-1.16132 0.0916759 0)
(-1.1979 0.067809 0)
(-1.10211 0.0508799 0)
(-0.970407 0.0327874 0)
(-0.811318 0.0188279 0)
(-0.638368 0.0126742 0)
(-0.460255 0.0193505 0)
(-0.284844 0.0348888 0)
(-0.119757 0.0571013 0)
(0.0302236 0.0702923 0)
(0.165419 0.0734936 0)
(0.300202 0.0622315 0)
(0.45662 0.0503537 0)
(0.606312 0.026137 0)
(0.75063 0.0140949 0)
(0.853731 0.00240029 0)
(0.896863 -0.0164543 0)
(0.879602 -0.0638724 0)
(0.703924 -0.0981905 0)
(0.14165 -0.0953674 0)
(-0.71119 -0.082227 0)
(-0.882377 -0.0364257 0)
(-0.810936 -0.0307735 0)
(-0.701479 -0.0270879 0)
(-0.614168 -0.0318961 0)
(-0.551649 -0.039862 0)
(-0.500044 -0.0459069 0)
(-0.448422 -0.0465222 0)
(-0.390993 -0.0414346 0)
(-0.323848 -0.0325222 0)
(-0.244181 -0.0298349 0)
(-0.139633 -0.0430947 0)
(-0.0128004 -0.0655423 0)
(0.104371 -0.0906594 0)
(0.191586 -0.112266 0)
(0.245605 -0.124853 0)
(-6.31476 0.00817855 0)
(-1.90511 -0.0693988 0)
(-0.226652 -0.0214137 0)
(-0.848585 0.0227393 0)
(-1.16913 0.0896012 0)
(-1.23152 0.0728018 0)
(-1.13591 0.067678 0)
(-0.994938 0.052289 0)
(-0.825393 0.0429634 0)
(-0.639251 0.0410625 0)
(-0.44903 0.0420164 0)
(-0.262746 0.0482246 0)
(-0.0886146 0.0595352 0)
(0.0629922 0.0693337 0)
(0.189349 0.0780497 0)
(0.310641 0.0805298 0)
(0.467188 0.0712287 0)
(0.61659 0.0617822 0)
(0.762186 0.041294 0)
(0.854719 0.0171629 0)
(0.872755 -0.0258204 0)
(0.83582 -0.0788533 0)
(0.692522 -0.0809375 0)
(0.177463 -0.0631248 0)
(-0.6719 -0.0348878 0)
(-0.870418 -0.00628663 0)
(-0.808724 -0.00659097 0)
(-0.710837 -0.00928616 0)
(-0.626251 -0.0184148 0)
(-0.562473 -0.0306176 0)
(-0.504828 -0.0400495 0)
(-0.443751 -0.0413245 0)
(-0.382445 -0.0348029 0)
(-0.322644 -0.0255568 0)
(-0.252018 -0.0229777 0)
(-0.164018 -0.0350716 0)
(-0.0463612 -0.0590882 0)
(0.0707808 -0.0918043 0)
(0.161551 -0.12448 0)
(0.223381 -0.149093 0)
(-6.32141 0.00209227 0)
(-1.89259 -0.0487244 0)
(-0.13317 -0.0281302 0)
(-0.784414 0.0156943 0)
(-1.16821 0.0777809 0)
(-1.24985 0.0706499 0)
(-1.15392 0.0775014 0)
(-1.00464 0.0673446 0)
(-0.829777 0.0625108 0)
(-0.639133 0.0646175 0)
(-0.443803 0.0644888 0)
(-0.251008 0.0644306 0)
(-0.0689232 0.066629 0)
(0.0889407 0.0705145 0)
(0.216673 0.0798075 0)
(0.331289 0.0945738 0)
(0.475863 0.0969838 0)
(0.624747 0.0967245 0)
(0.755899 0.0659029 0)
(0.833295 0.027459 0)
(0.837982 -0.0372361 0)
(0.80609 -0.0747254 0)
(0.709035 -0.0520079 0)
(0.225455 -0.0285922 0)
(-0.641585 0.00918559 0)
(-0.869459 0.0178755 0)
(-0.816704 0.0137239 0)
(-0.727758 0.00496231 0)
(-0.644497 -0.00660542 0)
(-0.576131 -0.020087 0)
(-0.510168 -0.0302721 0)
(-0.439345 -0.032639 0)
(-0.373584 -0.0301859 0)
(-0.320473 -0.0250296 0)
(-0.261995 -0.0245073 0)
(-0.187956 -0.0361114 0)
(-0.0863161 -0.0587181 0)
(0.0271135 -0.0949086 0)
(0.12361 -0.134117 0)
(0.193827 -0.167808 0)
(-6.3228 -0.00369124 0)
(-1.88322 -0.0334107 0)
(-0.0461801 -0.032342 0)
(-0.716305 0.00378981 0)
(-1.15927 0.0567484 0)
(-1.25804 0.0590325 0)
(-1.16337 0.0720663 0)
(-1.00604 0.0682628 0)
(-0.827284 0.0700724 0)
(-0.636849 0.0773505 0)
(-0.441839 0.0811214 0)
(-0.246712 0.0811282 0)
(-0.0604885 0.0783793 0)
(0.104455 0.078427 0)
(0.24141 0.0870436 0)
(0.360292 0.105925 0)
(0.489452 0.120965 0)
(0.627068 0.122134 0)
(0.734325 0.0881895 0)
(0.794197 0.0294432 0)
(0.799067 -0.0324071 0)
(0.79953 -0.0423231 0)
(0.745259 -0.0176045 0)
(0.276119 -0.00146365 0)
(-0.621821 0.0422051 0)
(-0.876944 0.0363235 0)
(-0.834751 0.0290206 0)
(-0.750164 0.0170321 0)
(-0.664628 0.00443842 0)
(-0.593848 -0.00795889 0)
(-0.516429 -0.0179466 0)
(-0.438715 -0.0243694 0)
(-0.370937 -0.0303421 0)
(-0.318117 -0.0333094 0)
(-0.271752 -0.033777 0)
(-0.210091 -0.0418679 0)
(-0.12761 -0.0603768 0)
(-0.020578 -0.0949464 0)
(0.0816137 -0.134991 0)
(0.160507 -0.168738 0)
(-6.32471 -0.00718186 0)
(-1.87928 -0.0183353 0)
(0.0182642 -0.0329168 0)
(-0.66 -0.00846164 0)
(-1.13878 0.0271994 0)
(-1.25453 0.0399828 0)
(-1.16168 0.056205 0)
(-1.00093 0.0601289 0)
(-0.820603 0.0654172 0)
(-0.630528 0.0763895 0)
(-0.438526 0.0879564 0)
(-0.247461 0.0945454 0)
(-0.0619968 0.0945363 0)
(0.108619 0.094326 0)
(0.258285 0.102127 0)
(0.388578 0.119242 0)
(0.509245 0.135703 0)
(0.619544 0.128803 0)
(0.704047 0.096483 0)
(0.738665 0.0286521 0)
(0.770591 -0.0205213 0)
(0.816241 0.000744909 0)
(0.784075 0.0119944 0)
(0.324031 0.0272129 0)
(-0.611692 0.0637948 0)
(-0.89445 0.0502721 0)
(-0.859513 0.0386462 0)
(-0.775041 0.0254295 0)
(-0.686696 0.0139816 0)
(-0.612889 0.00343426 0)
(-0.528318 -0.00627641 0)
(-0.445542 -0.0192784 0)
(-0.374701 -0.0355771 0)
(-0.315973 -0.0468034 0)
(-0.275485 -0.0470657 0)
(-0.231235 -0.0474841 0)
(-0.163077 -0.0584426 0)
(-0.0661805 -0.0883578 0)
(0.0404955 -0.124229 0)
(0.130989 -0.154409 0)
(-6.32562 -0.00836301 0)
(-1.87845 -0.00560021 0)
(0.0476443 -0.0242451 0)
(-0.631592 -0.0224655 0)
(-1.11549 -0.0121754 0)
(-1.24181 0.000705104 0)
(-1.14913 0.0258767 0)
(-0.991872 0.0403043 0)
(-0.811872 0.0514257 0)
(-0.622778 0.0677047 0)
(-0.433793 0.0853472 0)
(-0.248477 0.0995231 0)
(-0.0678122 0.105683 0)
(0.106421 0.112228 0)
(0.266912 0.120963 0)
(0.406867 0.132989 0)
(0.520239 0.136827 0)
(0.609398 0.121963 0)
(0.67008 0.0821691 0)
(0.687737 0.0259723 0)
(0.7643 0.00374951 0)
(0.843053 0.0365949 0)
(0.80772 0.0448804 0)
(0.355305 0.0576932 0)
(-0.61504 0.0778454 0)
(-0.920551 0.0569976 0)
(-0.888259 0.042918 0)
(-0.79894 0.0305932 0)
(-0.71004 0.0208277 0)
(-0.632345 0.0121642 0)
(-0.549329 -0.00075948 0)
(-0.463224 -0.0206874 0)
(-0.383533 -0.0437944 0)
(-0.316607 -0.0604085 0)
(-0.272879 -0.0599891 0)
(-0.244567 -0.0520825 0)
(-0.190796 -0.0513398 0)
(-0.106225 -0.0740593 0)
(0.00249414 -0.1057 0)
(0.104113 -0.131419 0)
(-6.32423 -0.00701313 0)
(-1.87953 0.00864419 0)
(0.0397252 -0.0100507 0)
(-0.631695 -0.0275644 0)
(-1.09408 -0.0435971 0)
(-1.21792 -0.0434507 0)
(-1.12493 -0.0180935 0)
(-0.972609 0.0102422 0)
(-0.79718 0.0310913 0)
(-0.613301 0.0529764 0)
(-0.428685 0.074268 0)
(-0.247038 0.0944538 0)
(-0.0692505 0.110637 0)
(0.1047 0.125305 0)
(0.269477 0.13989 0)
(0.411434 0.147226 0)
(0.515706 0.137659 0)
(0.588029 0.114471 0)
(0.626109 0.0691455 0)
(0.662652 0.0260531 0)
(0.773338 0.0325022 0)
(0.874045 0.0654645 0)
(0.826003 0.0741462 0)
(0.368207 0.0855161 0)
(-0.631863 0.0836814 0)
(-0.950472 0.0577225 0)
(-0.917143 0.0445724 0)
(-0.820745 0.0333056 0)
(-0.73157 0.0245862 0)
(-0.654177 0.0158009 0)
(-0.575847 0.000343597 0)
(-0.488562 -0.0221097 0)
(-0.399029 -0.0475555 0)
(-0.322889 -0.0680867 0)
(-0.267253 -0.0683136 0)
(-0.244584 -0.0559328 0)
(-0.210238 -0.0422326 0)
(-0.136713 -0.0542844 0)
(-0.0331397 -0.0779994 0)
(0.0755827 -0.102572 0)
(-6.32079 -0.00249951 0)
(-1.88057 0.0200537 0)
(0.0132443 0.000998782 0)
(-0.65129 -0.0251392 0)
(-1.08453 -0.0617265 0)
(-1.19547 -0.0722902 0)
(-1.10123 -0.0595495 0)
(-0.947033 -0.0298283 0)
(-0.779164 -0.00242702 0)
(-0.60262 0.0259137 0)
(-0.421427 0.0514483 0)
(-0.240252 0.0771944 0)
(-0.0618838 0.10293 0)
(0.110737 0.131024 0)
(0.269264 0.151299 0)
(0.400204 0.156003 0)
(0.49263 0.131978 0)
(0.556271 0.098217 0)
(0.588689 0.0526409 0)
(0.658573 0.034667 0)
(0.791842 0.0546012 0)
(0.901601 0.0886487 0)
(0.839521 0.100012 0)
(0.361714 0.10791 0)
(-0.664514 0.082838 0)
(-0.980617 0.0528367 0)
(-0.942839 0.0412777 0)
(-0.840087 0.0301892 0)
(-0.750234 0.0216261 0)
(-0.676022 0.0128215 0)
(-0.602553 -0.00180017 0)
(-0.5155 -0.0223887 0)
(-0.418645 -0.0477389 0)
(-0.332217 -0.0688082 0)
(-0.263561 -0.0728029 0)
(-0.231785 -0.0609118 0)
(-0.214949 -0.0388282 0)
(-0.159556 -0.0359437 0)
(-0.0703707 -0.0560958 0)
(0.0398756 -0.0830678 0)
(-6.31298 0.000905608 0)
(-1.88012 0.0220223 0)
(-0.0195741 -0.00327475 0)
(-0.680473 -0.0274129 0)
(-1.08155 -0.0689076 0)
(-1.17647 -0.076149 0)
(-1.07856 -0.0705863 0)
(-0.920057 -0.0496328 0)
(-0.758212 -0.0291007 0)
(-0.588209 -0.00577839 0)
(-0.410106 0.0167972 0)
(-0.227556 0.0439918 0)
(-0.0461393 0.0779188 0)
(0.125177 0.117401 0)
(0.273986 0.147222 0)
(0.38051 0.15531 0)
(0.453539 0.127463 0)
(0.517198 0.0875697 0)
(0.566705 0.047134 0)
(0.669561 0.0510321 0)
(0.810093 0.0752213 0)
(0.921529 0.104048 0)
(0.845549 0.117649 0)
(0.338203 0.115308 0)
(-0.709045 0.0737585 0)
(-1.0084 0.0437854 0)
(-0.964078 0.0342931 0)
(-0.856603 0.0247001 0)
(-0.765892 0.0174965 0)
(-0.695269 0.00869907 0)
(-0.625785 -0.00270723 0)
(-0.539823 -0.017012 0)
(-0.437883 -0.036463 0)
(-0.340623 -0.0585529 0)
(-0.26331 -0.0715062 0)
(-0.214583 -0.0648014 0)
(-0.196509 -0.0448871 0)
(-0.174735 -0.0261221 0)
(-0.10287 -0.0328552 0)
(-0.000728956 -0.0615587 0)
(-6.30733 0.0075008 0)
(-1.87773 0.016016 0)
(-0.0461613 -0.0172259 0)
(-0.705413 -0.036239 0)
(-1.07766 -0.0705225 0)
(-1.15818 -0.0641246 0)
(-1.05904 -0.0616446 0)
(-0.901171 -0.0475586 0)
(-0.745593 -0.0350107 0)
(-0.579874 -0.0210802 0)
(-0.399916 -0.0128266 0)
(-0.208773 0.00613862 0)
(-0.0172348 0.0407405 0)
(0.155568 0.0868859 0)
(0.286382 0.125617 0)
(0.360716 0.138076 0)
(0.414465 0.121226 0)
(0.482155 0.0865376 0)
(0.558686 0.0607185 0)
(0.691467 0.073662 0)
(0.826564 0.0981018 0)
(0.930165 0.11329 0)
(0.840228 0.121823 0)
(0.293021 0.105108 0)
(-0.76035 0.0537301 0)
(-1.03253 0.0260813 0)
(-0.979725 0.0202937 0)
(-0.868804 0.0138572 0)
(-0.778555 0.0101684 0)
(-0.712016 0.00520128 0)
(-0.646458 -0.00191244 0)
(-0.56376 -0.0145134 0)
(-0.462171 -0.0322816 0)
(-0.358788 -0.0496962 0)
(-0.270623 -0.0602139 0)
(-0.203712 -0.0648237 0)
(-0.176363 -0.0568319 0)
(-0.167393 -0.0356812 0)
(-0.129183 -0.0240562 0)
(-0.0430051 -0.042507 0)
(-6.30418 0.0126881 0)
(-1.87464 0.00769402 0)
(-0.0601788 -0.0425622 0)
(-0.721009 -0.0493601 0)
(-1.07072 -0.0650305 0)
(-1.14111 -0.0452279 0)
(-1.04243 -0.043036 0)
(-0.889849 -0.0332136 0)
(-0.740075 -0.0265432 0)
(-0.579382 -0.0171608 0)
(-0.39824 -0.0187509 0)
(-0.195181 -0.0161139 0)
(0.0109274 0.00312303 0)
(0.19111 0.0419 0)
(0.306377 0.0810391 0)
(0.351225 0.0987786 0)
(0.386154 0.105923 0)
(0.460557 0.0862169 0)
(0.562788 0.0865346 0)
(0.709797 0.099142 0)
(0.837622 0.110559 0)
(0.928059 0.108777 0)
(0.81725 0.111282 0)
(0.229032 0.0853343 0)
(-0.816404 0.0307127 0)
(-1.05626 0.00892084 0)
(-0.994389 0.0048667 0)
(-0.87985 0.00242482 0)
(-0.789758 0.00156786 0)
(-0.726074 -0.000614795 0)
(-0.66464 -0.00382895 0)
(-0.58644 -0.0116891 0)
(-0.486461 -0.025056 0)
(-0.38007 -0.0398574 0)
(-0.285243 -0.0522534 0)
(-0.205016 -0.0620664 0)
(-0.166384 -0.0595525 0)
(-0.151 -0.0484637 0)
(-0.137151 -0.0288986 0)
(-0.0688131 -0.024163 0)
(-6.305 0.0164018 0)
(-1.87351 -0.000390663 0)
(-0.062407 -0.0646455 0)
(-0.724298 -0.0587472 0)
(-1.05818 -0.0544063 0)
(-1.12718 -0.0244883 0)
(-1.0295 -0.0258951 0)
(-0.883192 -0.0231992 0)
(-0.738553 -0.0230698 0)
(-0.580959 -0.0167225 0)
(-0.398577 -0.0201169 0)
(-0.190407 -0.0183313 0)
(0.0260492 -0.0105583 0)
(0.214744 0.00226229 0)
(0.325212 0.0174405 0)
(0.355337 0.0381121 0)
(0.381086 0.0603135 0)
(0.463777 0.0775758 0)
(0.570596 0.114359 0)
(0.714204 0.125406 0)
(0.830814 0.122509 0)
(0.908489 0.0959324 0)
(0.781342 0.0934359 0)
(0.156427 0.059211 0)
(-0.865823 0.00563986 0)
(-1.07547 -0.00982029 0)
(-1.00537 -0.0113208 0)
(-0.88698 -0.0116792 0)
(-0.796392 -0.0112808 0)
(-0.73454 -0.0105661 0)
(-0.676906 -0.00936453 0)
(-0.605578 -0.010519 0)
(-0.510626 -0.0178636 0)
(-0.403698 -0.0302197 0)
(-0.302923 -0.0447332 0)
(-0.215492 -0.0641847 0)
(-0.163944 -0.0709211 0)
(-0.140601 -0.0658295 0)
(-0.123825 -0.0399047 0)
(-0.071385 -0.00855482 0)
(-6.31112 0.0139928 0)
(-1.87387 -0.0091168 0)
(-0.0434289 -0.0823349 0)
(-0.706773 -0.0704174 0)
(-1.03844 -0.0439881 0)
(-1.11496 -0.00857456 0)
(-1.01982 -0.0120632 0)
(-0.879473 -0.0139741 0)
(-0.736737 -0.0174076 0)
(-0.577649 -0.00896983 0)
(-0.39273 -0.0100597 0)
(-0.186127 -0.00915612 0)
(0.0235479 -0.00860805 0)
(0.207284 -0.0183694 0)
(0.327654 -0.0344952 0)
(0.373576 -0.0358604 0)
(0.412802 0.00953866 0)
(0.502065 0.0661567 0)
(0.579436 0.133433 0)
(0.704448 0.148151 0)
(0.806531 0.129075 0)
(0.86578 0.0830414 0)
(0.739068 0.0719245 0)
(0.087404 0.0337871 0)
(-0.908283 -0.0104756 0)
(-1.09552 -0.0175549 0)
(-1.01907 -0.0206561 0)
(-0.89837 -0.0206864 0)
(-0.805544 -0.0218811 0)
(-0.740813 -0.0210688 0)
(-0.682928 -0.0160439 0)
(-0.61793 -0.010895 0)
(-0.531868 -0.0114956 0)
(-0.428532 -0.0206903 0)
(-0.325199 -0.0387623 0)
(-0.232749 -0.0661244 0)
(-0.167414 -0.0813808 0)
(-0.126762 -0.0772905 0)
(-0.0911298 -0.0453955 0)
(-0.0444956 0.00158721 0)
(-6.32082 0.0122792 0)
(-1.87437 -0.0104404 0)
(-0.0102524 -0.0792488 0)
(-0.670958 -0.068937 0)
(-1.01447 -0.0335008 0)
(-1.10367 -0.00133852 0)
(-1.01332 -0.00566506 0)
(-0.875993 -0.00989141 0)
(-0.731136 -0.0141043 0)
(-0.568613 -0.000271501 0)
(-0.383617 0.00612795 0)
(-0.185151 0.00555781 0)
(0.00736018 -0.00513751 0)
(0.174139 -0.0343603 0)
(0.301735 -0.078488 0)
(0.388155 -0.101019 0)
(0.46841 -0.0533773 0)
(0.554679 0.0334445 0)
(0.617109 0.125078 0)
(0.689971 0.15582 0)
(0.758454 0.125384 0)
(0.807375 0.0689673 0)
(0.691501 0.0510815 0)
(0.029259 0.0147743 0)
(-0.935001 -0.0227793 0)
(-1.10812 -0.0215551 0)
(-1.02855 -0.0262266 0)
(-0.907107 -0.0279449 0)
(-0.810522 -0.0304638 0)
(-0.740997 -0.0285073 0)
(-0.682005 -0.0206609 0)
(-0.621409 -0.0100507 0)
(-0.546757 -0.00301902 0)
(-0.451901 -0.00915897 0)
(-0.350584 -0.0311917 0)
(-0.254511 -0.0649176 0)
(-0.173551 -0.0830917 0)
(-0.107225 -0.075866 0)
(-0.047508 -0.0378068 0)
(0.00312463 0.015146 0)
(-6.32908 0.00883955 0)
(-1.87466 -0.00675584 0)
(0.0206052 -0.0569681 0)
(-0.631918 -0.054627 0)
(-0.990245 -0.0288417 0)
(-1.09068 -0.00321837 0)
(-1.00863 -0.0119414 0)
(-0.87244 -0.0150884 0)
(-0.720367 -0.0154968 0)
(-0.551889 0.00419561 0)
(-0.369641 0.0157815 0)
(-0.189264 0.0133377 0)
(-0.0247462 -0.00349235 0)
(0.120426 -0.0465119 0)
(0.254808 -0.106609 0)
(0.391953 -0.135708 0)
(0.522527 -0.106819 0)
(0.625455 -0.0191738 0)
(0.674199 0.0883179 0)
(0.692867 0.148522 0)
(0.704914 0.125345 0)
(0.745413 0.0599882 0)
(0.636067 0.0312531 0)
(-0.0245926 0.00499375 0)
(-0.949736 -0.0239774 0)
(-1.11711 -0.0162812 0)
(-1.03829 -0.0247194 0)
(-0.917071 -0.0302338 0)
(-0.815774 -0.0349809 0)
(-0.738547 -0.0339269 0)
(-0.675391 -0.0253686 0)
(-0.619895 -0.0115228 0)
(-0.555251 0.000764855 0)
(-0.473241 -0.000155626 0)
(-0.376243 -0.0183077 0)
(-0.275405 -0.0507139 0)
(-0.176193 -0.0681662 0)
(-0.0834009 -0.0567782 0)
(-0.0044991 -0.0178338 0)
(0.0457848 0.0263964 0)
(-6.3317 0.00119103 0)
(-1.87468 -0.00224625 0)
(0.0305619 -0.0177639 0)
(-0.614324 -0.0257891 0)
(-0.979166 -0.0257077 0)
(-1.08378 -0.0110349 0)
(-1.00505 -0.0261151 0)
(-0.863807 -0.0235514 0)
(-0.704035 -0.0164839 0)
(-0.53045 0.00129554 0)
(-0.355923 0.0109674 0)
(-0.200198 0.00712 0)
(-0.0681299 -0.0167384 0)
(0.0616417 -0.0659565 0)
(0.208978 -0.124291 0)
(0.383593 -0.140418 0)
(0.556636 -0.124362 0)
(0.692432 -0.0683214 0)
(0.736947 0.0165882 0)
(0.718899 0.10049 0)
(0.673004 0.12006 0)
(0.680125 0.0512202 0)
(0.569868 0.0212204 0)
(-0.0685349 0.0037454 0)
(-0.953628 -0.0142994 0)
(-1.12229 -0.00713959 0)
(-1.04692 -0.0189636 0)
(-0.925842 -0.0276379 0)
(-0.819456 -0.0324737 0)
(-0.731962 -0.0301187 0)
(-0.662827 -0.0192388 0)
(-0.608902 -0.0037727 0)
(-0.558975 0.0101479 0)
(-0.489216 0.00811052 0)
(-0.39666 -0.00822503 0)
(-0.289067 -0.0275476 0)
(-0.17124 -0.0330238 0)
(-0.0591242 -0.0196432 0)
(0.0263615 0.00943547 0)
(0.0617079 0.028982 0)
(-6.33124 -0.00574343 0)
(-1.87685 0.00746713 0)
(0.0112465 0.00713835 0)
(-0.627254 -0.00392331 0)
(-0.981807 -0.0182612 0)
(-1.08191 -0.0193931 0)
(-1.00113 -0.0384133 0)
(-0.852213 -0.0283682 0)
(-0.684355 -0.0216311 0)
(-0.509115 -0.0067247 0)
(-0.34873 -0.00106428 0)
(-0.221475 -0.01176 0)
(-0.115434 -0.0458273 0)
(0.0123865 -0.0961423 0)
(0.18097 -0.131075 0)
(0.370577 -0.132773 0)
(0.569918 -0.124248 0)
(0.723935 -0.105962 0)
(0.794155 -0.0561676 0)
(0.762932 0.0194465 0)
(0.689008 0.0798171 0)
(0.627967 0.0530432 0)
(0.501405 0.0158657 0)
(-0.0977854 0.00161861 0)
(-0.952523 0.00435575 0)
(-1.12718 0.00332319 0)
(-1.05286 -0.00538061 0)
(-0.928887 -0.0128376 0)
(-0.815655 -0.0158924 0)
(-0.722354 -0.0137909 0)
(-0.649809 -0.00435699 0)
(-0.596332 0.0084415 0)
(-0.555664 0.0207262 0)
(-0.493595 0.0263322 0)
(-0.399926 0.0226995 0)
(-0.284464 0.0172372 0)
(-0.160511 0.0170095 0)
(-0.0451871 0.0237175 0)
(0.0309256 0.0267511 0)
(0.053306 0.0182559 0)
(-6.32734 -0.0113633 0)
(-1.88102 0.0202642 0)
(-0.0306361 0.0568503 0)
(-0.668318 0.0343057 0)
(-0.99915 -0.0104702 0)
(-1.08668 -0.0253749 0)
(-0.996605 -0.0451889 0)
(-0.840328 -0.0328233 0)
(-0.666419 -0.023016 0)
(-0.49353 -0.0181763 0)
(-0.354354 -0.0233047 0)
(-0.255894 -0.0448901 0)
(-0.160739 -0.0870186 0)
(-0.0178768 -0.127901 0)
(0.165967 -0.134277 0)
(0.363875 -0.127227 0)
(0.566288 -0.12182 0)
(0.723934 -0.123513 0)
(0.821076 -0.110079 0)
(0.811863 -0.0768537 0)
(0.713244 -0.00533278 0)
(0.617934 0.0355745 0)
(0.457956 0.0110971 0)
(-0.110192 0.00665835 0)
(-0.945855 0.0257571 0)
(-1.12547 0.0173337 0)
(-1.05208 0.0119069 0)
(-0.926211 0.00668662 0)
(-0.810469 0.00502837 0)
(-0.711211 0.0048555 0)
(-0.634302 0.00997125 0)
(-0.57893 0.0199532 0)
(-0.539666 0.0345922 0)
(-0.48129 0.0507966 0)
(-0.388945 0.0616229 0)
(-0.272158 0.0664661 0)
(-0.152983 0.0651048 0)
(-0.0460135 0.0549218 0)
(0.0116317 0.0351357 0)
(0.0270501 9.92043e-05 0)
(-6.31826 -0.0137505 0)
(-1.88624 0.0345491 0)
(-0.103996 0.0841084 0)
(-0.738197 0.0542754 0)
(-1.02793 -0.00271154 0)
(-1.09281 -0.0269322 0)
(-0.990305 -0.0452802 0)
(-0.830332 -0.0286318 0)
(-0.656303 -0.0292082 0)
(-0.495804 -0.0397592 0)
(-0.382292 -0.0571247 0)
(-0.299791 -0.097429 0)
(-0.191225 -0.134347 0)
(-0.0294466 -0.15503 0)
(0.162391 -0.146862 0)
(0.363355 -0.13415 0)
(0.551181 -0.131752 0)
(0.702177 -0.140868 0)
(0.812461 -0.137304 0)
(0.842733 -0.143177 0)
(0.767459 -0.0872611 0)
(0.649373 0.000306597 0)
(0.443638 0.00857894 0)
(-0.104777 0.0158054 0)
(-0.935287 0.0433015 0)
(-1.11813 0.0267096 0)
(-1.04315 0.0285763 0)
(-0.916638 0.0269187 0)
(-0.802305 0.0261847 0)
(-0.698326 0.0253834 0)
(-0.616687 0.0279575 0)
(-0.554643 0.0362672 0)
(-0.508097 0.0537031 0)
(-0.448616 0.0787501 0)
(-0.361227 0.10204 0)
(-0.256497 0.111579 0)
(-0.149836 0.098679 0)
(-0.0677565 0.0682772 0)
(-0.02354 0.0244458 0)
(-0.0123026 -0.0238525 0)
(-6.30633 -0.0146522 0)
(-1.89171 0.0446529 0)
(-0.187749 0.095489 0)
(-0.813687 0.0605617 0)
(-1.06447 0.0036508 0)
(-1.09891 -0.0179953 0)
(-0.986024 -0.0342854 0)
(-0.829541 -0.0232317 0)
(-0.661778 -0.0396494 0)