/*--------------------------------*- C++ -*----------------------------------*\
| =========                 |                                                 |
| \\      /  F ield         | OpenFOAM: The Open Source CFD Toolbox           |
|  \\    /   O peration     | Version:  v1912                                 |
|   \\  /    A nd           | Website:  www.openfoam.com                      |
|    \\/     M anipulation  |                                                 |
\*---------------------------------------------------------------------------*/
FoamFile
{
    version     2.0;
    format      ascii;
    class       Cloud<dsmcParcel>;
    location    "0.00011/lagrangian/dsmc";
    object      coordinates;
}
// * * * * * * * * * * * * * * * * * * * * * * * * * * * * * * * * * * * * * //

12980
(
(0.1990519821 0.1935751237 0.2068988852 0.4004740089) 259 539 1
(0.242263447 0.3788682765 0.2434935055 0.135374771) 1261 2472 2
(0.407479318 0.296260341 0.09573060961 0.2005297314) 1298 2489 1
(0.342553576 0.328723212 0.07453073933 0.2541924727) 1106 2169 2
(0.1187983897 0.4383222532 0.4406008051 0.002278551961) 842 1668 1
(0.4160734843 0.2919632578 0.2385774774 0.05338578046) 347 655 1
(0.1904479775 0.04415830729 0.360617704 0.4047760113) 1050 2001 2
(0.1060794749 0.05617786267 0.3907823999 0.4469602625) 1298 2489 2
(0.1514038437 0.4242980782 0.3271808472 0.09711723098) 1264 2478 2
(0.2028009674 0.3985995163 0.2074062516 0.1911932648) 879 2547 2
(0.3087916102 0.1184464968 0.2271576981 0.3456041949) 873 1711 2
(0.1013265922 0.3981541943 0.05118250955 0.4493367039) 838 1663 1
(0.5090377268 0.2454811366 0.08541348651 0.1600676501) 1078 2056 1
(0.4687998479 0.2656000761 0.260973175 0.004626901031) 348 716 2
(0.2953456138 0.1527973599 0.1995298332 0.3523271931) 406 832 1
(0.4962562146 0.1838335596 0.2518718927 0.06803833314) 851 1685 1
(0.08024400582 0.4598779971 0.3580019987 0.1018759983) 254 528 2
(0.2222867518 0.3888566241 0.1379137167 0.2509429074) 1144 2186 1
(0.4755460404 0.2479010595 0.01432592031 0.2622269798) 1267 2428 2
(0.2260096398 0.3869951801 0.1444581994 0.2425369807) 289 596 2
(0.03738099949 0.4813095003 0.4067988111 0.07451068911) 877 1735 2
(0.2301047338 0.3849476331 0.3337179981 0.05122963504) 259 538 1
(0.7841890695 0.02218609039 0.1079054652 0.08571937484) 378 777 2
(0.1992786119 0.400360694 0.2467123381 0.1536483559) 1203 2360 2
(0.6346984338 0.1826507831 0.01653337762 0.1661174055) 1264 2480 2
(0.4263773171 0.2868113415 0.185202136 0.1016092055) 1237 2427 2
(0.07083654082 0.4645817296 0.3097589139 0.1548228157) 841 1666 2
(0.03625226141 0.2691772327 0.4818738693 0.2126966366) 823 1632 1
(0.4245633733 0.2333072357 0.2877183134 0.05441107762) 300 621 2
(0.4321935371 0.1618621787 0.1220410528 0.2839032315) 826 1640 1
(0.3908264018 0.3045867991 0.06534396007 0.239242839) 288 537 1
(0.364816632 0.317591684 0.02818456739 0.2894071166) 225 462 2
(0.2885315784 0.3557342108 0.2280099705 0.1277242403) 852 1687 2
(0.5535002856 0.1351580681 0.2232498572 0.08809178915) 219 444 1
(0.06428265636 0.4678586718 0.1890496309 0.2788090409) 1133 2220 2
(0.127735556 0.436132222 0.2252878456 0.2108443764) 1162 2279 2
(0.1887331424 0.4056334288 0.2517583857 0.1538750431) 832 1633 1
(0.3979676786 0.3010161607 0.01801209914 0.2830040615) 1176 2308 1
(0.01058830379 0.1609937098 0.3337121383 0.4947058481) 308 577 2
(0.2745942458 0.2665168039 0.3627028771 0.09618607321) 1088 2132 1
(0.1980953575 0.4009523213 0.3505026338 0.05044968746) 884 1732 1
(0.4911011662 0.1015496012 0.2544494169 0.1528998157) 219 448 2
(0.4202578825 0.2477959439 0.2898710587 0.04207511482) 859 1701 1
(0.8847170481 0.05764147596 0.02405283789 0.03358863807) 1076 2052 1
(0.4832159566 0.2583920217 0.1895602197 0.06883180197) 1221 2395 2
(0.4056884276 0.2094989368 0.08765684943 0.2971557862) 861 1688 2
(0.3595389244 0.3202305378 0.04876606067 0.2714644771) 897 1773 2
(0.5684399746 0.02259741756 0.1931825952 0.2157800127) 1195 2286 2
(0.3104363938 0.3447818031 0.2672430568 0.07753874632) 1105 2168 1
(0.4737140931 0.2631429535 0.2027706042 0.06037234927) 858 1699 2
(0.03565014073 0.4821749296 0.01529642349 0.4668785061) 1171 2298 1
(0.166604436 0.416697782 0.03372027405 0.3829775079) 226 469 1
(0.3674848473 0.3162575763 0.3020481462 0.01420943016) 1238 2429 2
(0.8344292526 0.02946258994 0.05332278379 0.08278537372) 1134 2166 2
(0.5239782659 0.2380108671 0.1348393724 0.1031714947) 1192 2338 2
(0.7148841117 0.1425579442 0.1069626592 0.03559528497) 811 1611 2
(0.3537083497 0.1218077081 0.3231458251 0.201338117) 1037 2034 2
(0.3912623945 0.3043688027 0.2021514122 0.1022173905) 1111 2177 2
(0.08178102378 0.4591094881 0.2731461322 0.1859633559) 1102 2103 1
(0.2532519584 0.3733740208 0.1242528935 0.2491211272) 929 1834 2
(0.01192988993 0.494035055 0.3121456322 0.1818894228) 1145 2188 1
(0.04750688227 0.0937477729 0.4762465589 0.382498786) 1104 2163 1
(0.323859991 0.1144044361 0.2236655685 0.3380700045) 1178 2253 2
(0.6479171112 0.1760414444 0.1408140087 0.03522743567) 1086 2128 2
(0.3839271681 0.308036416 0.2065829923 0.1014534236) 226 469 1
(0.03478642288 0.4826067886 0.06603774895 0.4165690396) 1292 2477 1
(0.04707400947 0.4764629953 0.2141072985 0.2623556967) 811 1593 1
(0.5367381174 0.06058225851 0.1710486828 0.2316309413) 1172 2241 2
(0.06326241574 0.4633017407 0.005067051396 0.4683687921) 287 535 2
(0.5732500023 0.1946860972 0.2133749989 0.01868890166) 851 1685 1
(0.2314697748 0.2280479137 0.3842651126 0.156217199) 376 773 2
(0.3414992927 0.2728800427 0.05637031094 0.3292503537) 288 537 2
(0.03992408829 0.4007227463 0.07931520951 0.4800379559) 1226 2405 1
(0.9052582428 0.04737087861 0.0003532860487 0.04701759256) 316 593 1
(0.004895741204 0.4975521294 0.4727364976 0.02481563176) 909 1796 2
(0.571296126 0.214351937 0.08800790102 0.126344036) 1232 2418 1
(0.4366183198 0.1728910903 0.2816908401 0.1087997498) 899 1777 1
(0.1332214801 0.4333892599 0.2960832214 0.1373060385) 1160 2273 2
(0.135306692 0.432346654 0.1864174246 0.2459292294) 287 595 1
(0.08065955796 0.4434785645 0.459670221 0.01619165654) 1107 2172 2
(0.4449823201 0.02842666365 0.27750884 0.2490821763) 1235 2424 2
(0.1191788673 0.4404105664 0.04966040734 0.390750159) 1164 2284 1
(0.4541963141 0.272901843 0.2000070146 0.07289482832) 226 469 1
(0.3876633865 0.3061683068 0.01216831393 0.2939999928) 1268 2430 1
(0.08411525162 0.4579423742 0.303187376 0.1547549982) 258 537 1
(0.8599723051 0.07001384746 0.04377143636 0.0262424111) 1237 2369 1
(0.1462639949 0.4268680025 0.2208437153 0.2060242872) 1083 2122 2
(0.001308292901 0.136520634 0.3628252196 0.4993458535) 1262 2418 2
(0.0103957791 0.4948021104 0.3257618439 0.1690402666) 1206 2367 1
(0.02757022648 0.4279809667 0.05823392002 0.4862148868) 349 658 2
(0.2327082176 0.3619475188 0.02169837242 0.3836458912) 1205 2364 1
(0.6333489235 0.04458352941 0.1833255383 0.1387420089) 827 1643 2
(0.9248028015 0.005118991768 0.03247960746 0.03759859923) 838 1645 2
(0.09041871479 0.4547906426 0.07432443449 0.3804662081) 255 530 2
(0.4719971484 0.2459971527 0.2640014258 0.01800427307) 1084 2127 2
(0.503100287 0.2484498565 0.05391863099 0.1945312255) 845 1674 2
(0.2954868246 0.3522565877 0.06667497316 0.2855816145) 228 471 2
(0.8253523681 0.08732381596 0.06182510569 0.02549871027) 820 1629 1
(0.2884444362 0.06245156282 0.2933262191 0.3557777819) 1108 2173 1
(0.09720911513 0.2532252742 0.4513954424 0.1981701682) 1075 2106 1
(0.2302972558 0.3848513721 0.318659303 0.06619206904) 408 837 1
(0.3689630359 0.2420506923 0.3155184821 0.07346778973) 229 474 1
(0.2110973159 0.1771537695 0.2172975725 0.3944513421) 1236 2367 2
(0.3193018929 0.3403490536 0.2899223158 0.05042673777) 245 508 2
(0.7823924304 0.03733651624 0.07146726854 0.1088037848) 871 1707 2
(0.5017401301 0.08905853404 0.1600714009 0.249129935) 228 474 1
(0.7005321399 0.14973393 0.07759208503 0.07214184501) 1175 2303 2
(0.03818992475 0.3525262353 0.1283788023 0.4809050376) 1232 2417 1
(0.0436490045 0.1475221442 0.4781754978 0.3306533536) 1283 431 1
(0.05017984541 0.4365513137 0.03835876361 0.4749100773) 1141 2180 2
(0.6502839989 0.04011161935 0.1748580005 0.1347463812) 279 576 1
(0.4714743521 0.2642628239 0.153891891 0.1103709329) 1110 2178 1
(0.2821480314 0.237978491 0.3589259843 0.1209474932) 1291 455 1
(0.04064328125 0.1545823261 0.3250960333 0.4796783594) 1129 2156 2
(0.292983714 0.2683269779 0.08518116511 0.353508143) 1288 2509 1
(0.4407192903 0.1866519717 0.09298838315 0.2796403548) 821 1630 1
(0.1690679385 0.4154660307 0.214404198 0.2010618327) 1229 2409 2
(0.1141533065 0.2516209618 0.191302385 0.4429233468) 250 520 1
(0.007782865474 0.4961085673 0.1290104602 0.3670981071) 1205 2365 1
(0.1617579992 0.3293441502 0.4191210004 0.08977685022) 1198 2351 2
(0.7040180385 0.001817748355 0.1461732324 0.1479909807) 1265 2424 2
(0.2385315707 0.3807342147 0.03740223391 0.3433319808) 1113 2184 1
(0.6816014815 0.1205709682 0.1591992593 0.03862829102) 1179 2313 2
(0.2923854832 0.3336507043 0.02015655408 0.3538072584) 285 531 2
(0.1407605508 0.4296197246 0.105364158 0.3242555666) 347 714 2
(0.5970210566 0.2014894717 0.03322423597 0.1682652357) 882 1728 1
(0.8418581272 0.07907093642 0.04820355958 0.03086737683) 1201 2298 1
(0.2869622205 0.3075706494 0.04894824039 0.3565188898) 280 580 1
(0.0733774601 0.46331127 0.1665475918 0.2967636781) 1298 2489 1
(0.1617902391 0.06793830572 0.3511665747 0.4191048804) 1205 2306 2
(0.317350656 0.341324672 0.2641127794 0.07721189263) 1070 2096 2
(0.7256442141 0.1300424733 0.137177893 0.007135419692) 1193 2338 1
(0.3747003863 0.2582276601 0.3126498068 0.0544221467) 826 1638 1
(0.2169489111 0.3462790546 0.3915255444 0.04524648984) 437 892 1
(0.508331895 0.02074357447 0.2458340525 0.225090478) 1261 2475 2
(0.7778811386 0.1110594307 0.00236809582 0.1086913349) 1222 2397 2
(0.9837825933 0.008108703348 0.004120353525 0.003988349824) 227 471 2
(0.1882366826 0.4058816587 0.043556006 0.3623256527) 904 1770 1
(0.228781393 0.3856093035 0.3801844039 0.00542489956) 1014 1989 1
(0.04686580509 0.3900043051 0.4765670975 0.0865627924) 1260 2473 2
(0.2558098387 0.3463575028 0.3720950807 0.02573757788) 1256 2465 2
(0.3939576293 0.3030211854 0.06999173968 0.2330294457) 252 457 1
(0.7690550335 0.005621635333 0.1154724833 0.1098508479) 346 713 2
(0.146097236 0.426951382 0.4014909422 0.0254604398) 1207 2366 2
(0.3118241959 0.3440879021 0.001887818135 0.3422000839) 1081 2062 1
(0.01409585107 0.1876353277 0.3053167468 0.4929520745) 1051 2003 2
(0.9428500105 0.02857499474 0.008575078195 0.01999991654) 1174 2245 1
(0.2124183805 0.3937908097 0.3294588088 0.06433200091) 1107 2169 2
(0.2927797222 0.1149255101 0.2386846289 0.3536101389) 810 1591 2
(0.3720553794 0.1470864015 0.3139723103 0.1668859088) 1264 2478 1
(0.1071175872 0.3104411987 0.1360000077 0.4464412064) 1113 2183 1
(0.04094752704 0.4795262365 0.1171359652 0.3623902713) 837 1661 2
(0.3692359893 0.05865093634 0.3153820054 0.256731069) 1208 2371 2
(0.3610976924 0.3194511538 0.2828792805 0.03657187332) 843 1670 2
(0.3575976287 0.2833533089 0.3212011857 0.03784787674) 282 582 1
(0.451522939 0.2742385305 0.2655044584 0.00873407207) 407 832 2
(0.1168272361 0.0643505735 0.3772358084 0.4415863819) 1221 2337 2
(0.8275492147 0.05292373166 0.033301661 0.08622539266) 909 2550 1
(0.2394520251 0.3802739875 0.04733811835 0.3329358691) 1295 2516 2
(0.2454673743 0.08350232681 0.2937639861 0.3772663129) 317 654 1
(0.2502373842 0.3748813079 0.1911002281 0.1837810798) 1258 2468 2
(0.4975139121 0.03296855015 0.2182744938 0.251243044) 894 1769 1
(0.1969233267 0.1491407602 0.2523975765 0.4015383367) 1112 2123 2
(0.4721921493 0.2639039253 0.1491706205 0.1147333049) 1203 2358 2
(0.5486686899 0.1452615574 0.225665655 0.08040409761) 1035 2027 1
(0.1727301616 0.3971348062 0.4136349192 0.01650011298) 843 1673 2
(0.04691415716 0.06250233674 0.4140405847 0.4765429214) 1286 2465 2
(0.1880532902 0.4059733549 0.05272467361 0.3532486813) 1261 2472 2
(0.01775572983 0.4720563228 0.0190658123 0.4911221351) 1171 2239 2
(0.6780820775 0.1151515189 0.1609589613 0.04580744233) 1113 2181 1
(0.06090671708 0.05849798927 0.4110486522 0.4695466415) 856 1679 2
(0.07227826822 0.4638608659 0.341858771 0.1220020949) 1074 2106 2
(0.09249178479 0.4537541076 0.1188133601 0.3349407475) 875 1733 2
(0.1348673286 0.4325663357 0.3926960733 0.0398702624) 311 583 1
(0.09570082457 0.2392743974 0.4521495877 0.2128751903) 1117 2192 2
(0.260445027 0.2161163527 0.3697774865 0.1536611338) 1198 2351 2
(0.1058663014 0.4470668493 0.408014514 0.03905233528) 1086 2128 2
(0.3545670903 0.3227164549 0.06492074913 0.2577957057) 254 526 2
(0.2164828491 0.3917585755 0.1530727561 0.2386858194) 377 774 2
(0.5852887494 0.2073556253 0.09086944741 0.1164861779) 229 474 2
(0.4654158356 0.1248763377 0.2672920822 0.1424157445) 1168 2289 1
(0.09997379541 0.008350439068 0.4500131023 0.4416626632) 812 1611 1
(0.008774686632 0.4956126567 0.2416726309 0.2539400258) 1116 2187 2
(0.09821147583 0.4508942621 0.07712666687 0.3737675952) 229 478 2
(0.03140427396 0.3449051088 0.1393927542 0.484297863) 1202 2300 2
(0.4010864468 0.1174669969 0.1819897796 0.2994567766) 225 467 1
(0.2177477235 0.3911261382 0.0308664503 0.3602596879) 379 779 2
(0.2351277498 0.3824361251 0.3491089586 0.0333271665) 258 534 2
(0.8218381244 0.08908093781 0.01835919983 0.07072173798) 1228 2351 1
(0.6121193534 0.1939403233 0.08554837217 0.1083919512) 1199 2294 1
(0.4485646979 0.2749539095 0.2757176511 0.0007637415581) 379 778 2
(0.2996815801 0.03270973147 0.3501592099 0.3174494785) 840 1667 2
(0.3769842624 0.3115078688 0.2654458098 0.04606205897) 1198 2292 1
(0.08850726816 0.4557463659 0.09036582933 0.3653805366) 328 617 1
(0.7968609154 0.07273493033 0.1015695423 0.02883461199) 371 763 2
(0.1088647605 0.385021877 0.06054574277 0.4455676198) 824 1636 1
(0.9755467355 0.009643500402 0.00258313186 0.01222663226) 1198 2292 2
(0.1915110625 0.3650802706 0.03916419822 0.4042444688) 1101 2159 1
(0.4104907788 0.2168840313 0.07787057928 0.2947546106) 1162 2221 2
(0.2041836606 0.3979081697 0.3391170913 0.05879107844) 848 1683 1
(0.8215199848 0.01273973218 0.07650027542 0.0892400076) 221 455 1
(0.2534170292 0.2654320099 0.1078594755 0.3732914854) 874 1731 1
(0.5936057584 0.2031971208 0.1701887597 0.03300836114) 1289 449 2
(0.4539281881 0.2730359059 0.2287830092 0.04425289675) 847 1681 1
(0.4531311129 0.0484808039 0.2734344436 0.2249536397) 1146 2249 2
(0.4516206972 0.2741896514 0.1834412045 0.09074844687) 228 476 2
(0.7433881163 0.006574842612 0.1217310993 0.1283059419) 1266 2484 1
(0.7838766014 0.1080616993 0.06193901513 0.04612268417) 1078 2112 2
(0.04734536944 0.4763273153 0.2683459256 0.2079813896) 832 1651 2
(0.5049380678 0.2096383169 0.03789264916 0.2475309661) 1174 2245 2
(0.3546223289 0.3226888355 0.3124564982 0.0102323373) 1226 2403 2
(0.1026069326 0.4486965337 0.09811431911 0.3505822146) 810 1591 1
(0.3556986966 0.3221506517 0.1385666457 0.183584006) 316 653 1
(0.07521435736 0.2191805204 0.4623928213 0.2432123009) 915 1807 1
(0.1069728777 0.4465135611 0.3328569584 0.1136566027) 909 1798 1
(0.1522921098 0.4238539451 0.2237995677 0.2000543774) 1292 2512 2
(0.01592207401 0.4481372237 0.492038963 0.04390173933) 819 1625 1
(0.3010133001 0.34949335 0.2814915888 0.06800176113) 929 1834 2
(0.155969398 0.2015307237 0.2204845773 0.422015301) 1137 2172 2
(0.598564512 0.200717744 0.03801398062 0.1627037634) 847 1680 2
(0.5543124387 0.2228437807 0.09535850299 0.1274852777) 1066 2090 2
(0.0814357323 0.4592821338 0.09650980796 0.3627723259) 314 646 2
(0.705120656 0.147439672 0.05610920667 0.09133046532) 228 474 2
(0.2171773877 0.3914113062 0.2464114903 0.1449998159) 1164 2225 1
(0.07211335581 0.3221488285 0.1417944936 0.4639433221) 1187 2328 1
(0.3414448856 0.3292775572 0.09064834557 0.2386292116) 218 445 1
(0.2497139242 0.3751430379 0.1130472729 0.262095765) 1088 2135 1
(0.8108842844 0.09455785782 0.06188167751 0.03267618031) 1205 2306 1
(0.5480175568 0.2259912216 0.1796329546 0.04635826703) 1290 2511 2
(0.5473192216 0.2263403892 0.1175126737 0.1088277155) 1234 2421 2
(0.5617319026 0.2191340487 0.0668935863 0.1522404624) 225 462 2
(0.3796398574 0.3101800713 0.1541718092 0.1560082621) 1105 2168 1
(0.21669768 0.3651376299 0.39165116 0.02651353008) 216 435 1
(0.5388126377 0.2305936811 0.1974038375 0.03318984361) 1107 2172 1
(0.2940862894 0.3529568553 0.2456716794 0.1072851759) 288 594 2
(0.1650302964 0.3761970706 0.04128778116 0.4174848518) 1109 2117 2
(0.9575505982 0.0200452211 0.001179479801 0.0212247009) 1079 2116 1
(0.3732098633 0.3133950683 0.1717702804 0.141624788) 1169 2294 1
(0.6086401199 0.1956799401 0.004845392404 0.1908345476) 1115 2188 1
(0.3687327221 0.1543222049 0.3156336389 0.1613114341) 408 834 1
(0.5417813874 0.2291093063 0.2150173242 0.01409198208) 1107 2171 2
(0.177103204 0.1281643305 0.411448398 0.2832840675) 873 1730 2
(0.07880812691 0.4605959365 0.08987640739 0.3707195292) 1105 2168 1
(0.05461720558 0.3934375838 0.4726913972 0.07925381342) 1139 2235 2
(0.1884658503 0.4057670748 0.2210309546 0.1847361202) 1298 2518 2
(0.9409181973 0.02954090136 0.01567121608 0.01386968528) 899 1760 1
(0.4322061491 0.1306199672 0.1532769582 0.2838969255) 1193 2340 1
(0.1900605316 0.4049697342 0.2892077922 0.115761942) 1199 2350 2
(0.05952461299 0.4702376935 0.09909658357 0.3711411099) 848 1664 1
(0.06160295943 0.00276421412 0.4691985203 0.4664343062) 1179 2311 1
(0.3801107666 0.01163750198 0.3099446167 0.2983071147) 875 1731 1
(0.06012010961 0.4699399452 0.4582779347 0.01166201045) 1264 2480 2
(0.9580350192 0.01553152271 0.005450967715 0.02098249042) 223 461 1
(0.1369784757 0.4315107622 0.1002636257 0.3312471364) 374 766 2
(0.1911714659 0.4044142671 0.05307032894 0.3513439381) 1293 2479 1
(0.02506546571 0.1776171037 0.4874672671 0.3098501635) 224 463 2
(0.2134176017 0.07911829532 0.3141729038 0.3932911991) 249 448 2
(0.3399009071 0.08830852438 0.3300495464 0.2417410221) 377 775 2
(0.3523496391 0.02068949464 0.3031356858 0.3238251805) 309 638 1
(0.4853582239 0.01673453913 0.2573208881 0.2405863489) 404 829 2
(0.4960456759 0.2465179268 0.2519771621 0.005459235285) 1261 2475 2
(0.2457894007 0.3685702155 0.008535084156 0.3771052996) 905 1772 2
(0.5620590987 0.2189704506 0.02363899698 0.1953314537) 883 1748 2
(0.007587953029 0.4962060235 0.1179104216 0.3782956018) 839 1665 1
(0.6057163472 0.1971418264 0.09493591389 0.1022059125) 378 777 1
(0.6518281678 0.006223342137 0.1740859161 0.167862574) 892 1763 1
(0.5636237191 0.2181881404 0.0261600484 0.192028092) 1263 2476 2
(0.3962864875 0.3018567563 0.09580490177 0.2060518545) 1066 2032 1
(0.1127019994 0.4436490003 0.1551478333 0.288501167) 289 596 2
(0.2244240004 0.1043315875 0.3877879998 0.2834564123) 843 1670 1
(0.2193579341 0.1591079075 0.2312131255 0.390321033) 818 1625 1
(0.2856042471 0.3571978765 0.3450851678 0.01211270864) 227 468 2
(0.4284066247 0.2857966876 0.1059056025 0.1798910851) 251 522 2
(0.7376616427 0.1311691786 0.01427914965 0.116890029) 1264 2478 2
(0.003500797806 0.4982496011 0.4526217082 0.04562789287) 1200 2354 2
(0.9090353648 0.02113677207 0.02434554551 0.04548231758) 1233 2361 2
(0.6354469544 0.0376405584 0.1822765228 0.1446359644) 860 1705 2
(0.3023307235 0.3488346382 0.003098068964 0.3457365693) 855 1677 1
(0.563146869 0.2184265655 0.06000505148 0.158421514) 1085 2129 1
(0.5447507238 0.2276246381 0.1767052625 0.05091937557) 1292 2512 2
(0.4128376198 0.1269940807 0.1665871094 0.2935811901) 226 468 1
(0.163244446 0.3538325045 0.06454527246 0.418377777) 838 1663 1
(0.3776901442 0.04465865835 0.2664962696 0.3111549279) 1104 2165 1
(0.03487252935 0.4825637353 0.4139310342 0.06863270116) 800 2670 2
(0.5530119121 0.2234940439 0.1660646684 0.05742937558) 1040 1981 1
(0.7145584337 0.1427207831 0.04692316525 0.0957976179) 1145 2246 2
(0.1822267875 0.07954170453 0.3293449017 0.4088866062) 1237 2369 2
(0.1076521618 0.4461739191 0.2453700216 0.2008038975) 1264 2478 2
(0.3972047906 0.2227373204 0.07866028435 0.3013976047) 919 1798 2
(0.1150871094 0.4424564453 0.3472356281 0.09522081714) 1080 2116 2
(0.04771745981 0.4761412701 0.1098593417 0.3662819284) 1201 2354 2
(0.1639638541 0.4180180729 0.1498266245 0.2681914485) 1144 2186 1
(0.07366208161 0.4631689592 0.1345598997 0.3286090595) 226 468 2
(0.1679843972 0.04583033633 0.4160078014 0.3701774651) 250 521 2
(0.7271407702 0.1211582385 0.1364296149 0.01527137638) 1137 2228 1
(0.3683640526 0.3158179737 0.1810800555 0.1347379182) 1177 2310 1
(0.3158769398 0.3420615301 0.2010062008 0.1410553293) 1075 2106 2
(0.362019147 0.1843752701 0.3189904265 0.1346151564) 854 1691 1
(0.4000116533 0.2999941734 0.004712431039 0.2952817423) 288 537 1
(0.2827793874 0.3586103063 0.02573615834 0.3328741479) 1055 2067 2
(0.5365019164 0.2317490418 0.01783592361 0.2139131182) 1207 2310 1
(0.07131419715 0.005682539331 0.4643429014 0.4586603621) 1264 2478 1
(0.00413926662 0.4979303667 0.4643773873 0.03355297935) 374 766 2
(0.2436195272 0.3781902364 0.3128983546 0.06529188184) 1137 2231 1
(0.8671696607 0.06641516967 0.05170189708 0.01471327259) 1193 2341 1
(0.5904776794 0.03509566185 0.2047611603 0.1696654985) 1146 2249 2
(0.4103243123 0.2948378438 0.220769549 0.07406829489) 1258 2469 1
(0.078756326 0.06117283289 0.3994490041 0.460621837) 929 2552 1
(0.7162799444 0.1418600278 0.1192686546 0.02259137319) 837 1643 1
(0.02917765898 0.4854111705 0.1087854912 0.3766256793) 1289 2471 1
(0.292689576 0.353655212 0.1569979672 0.1966572448) 1099 2153 2
(0.2365135713 0.3817432144 0.1228990903 0.258844124) 1236 2425 2
(0.0339782229 0.4830108886 0.1502450281 0.3327658604) 1198 2292 1
(0.01734448477 0.4913277576 0.1400431245 0.3512846331) 1255 2460 2
(0.07453778091 0.4627311095 0.1865789281 0.2761521814) 1010 1978 2
(0.1249354589 0.4375322706 0.1345849507 0.3029473199) 287 535 1
(0.3439289244 0.3280355378 0.02749588605 0.3005396517) 1138 2232 2
(0.5376379491 0.1827817932 0.04839923228 0.2311810255) 1011 2641 1
(0.3354232473 0.3284304211 0.3322883763 0.003857955283) 377 775 2
(0.1324967274 0.4337516363 0.1117780102 0.3219736261) 1223 2400 1
(0.03661969956 0.4816901502 0.1180821356 0.3636080146) 888 1756 2
(0.6071436471 0.1964281765 0.1587285621 0.03769961439) 1163 2223 1
(0.3098879764 0.3012697941 0.3450560118 0.04378621768) 855 1696 2
(0.3693415187 0.3153292407 0.08872492952 0.2266043112) 258 534 2
(0.7201022175 0.08715008355 0.05279880769 0.1399488912) 904 1770 2
(0.1186789107 0.4406605446 0.2978097963 0.1428507483) 1198 2348 2
(0.02375057341 0.1541841952 0.4881247133 0.3339405181) 315 651 2
(0.2040799664 0.3979600168 0.0903562914 0.3076037254) 1234 2419 2
(0.1610190042 0.2359878736 0.1835026243 0.4194904979) 848 1682 1
(0.6159361543 0.09920883441 0.09282308844 0.1920319229) 1299 2669 1
(0.02574468995 0.4045238348 0.487127655 0.08260382027) 1170 2293 1
(0.4991805867 0.2504097066 0.0360806281 0.2143290785) 1086 2131 1
(0.06298426782 0.4685078661 0.1996198661 0.268888) 838 1664 1
(0.03033523859 0.1887332744 0.4848323807 0.2960991063) 1057 2071 1
(0.2163181274 0.04968374385 0.3918409363 0.3421571925) 229 477 2
(0.8246413667 0.05238670839 0.03529260826 0.08767931664) 1086 2072 2
(0.385489397 0.3072553015 0.1903501432 0.1169051583) 837 1661 2
(0.2622564705 0.3245677039 0.04430406083 0.3688717648) 853 1691 1
(0.08518729047 0.3742530215 0.4574063548 0.08315333329) 251 520 1
(0.7888323691 0.04417392582 0.1055838155 0.06140988964) 1295 2515 1
(0.6420374378 0.05212068103 0.1789812811 0.1268606001) 1205 2362 1
(0.06613887683 0.4669305616 0.009183390545 0.457747171) 889 1760 1
(0.0155033314 0.339863915 0.4922483343 0.1523844193) 1219 2389 1
(0.682533227 0.03787931324 0.1587333865 0.1208540732) 400 818 1
(0.1082538937 0.4292307966 0.01664225657 0.4458730532) 1200 2296 2
(0.650355607 0.1748221965 0.1033902165 0.07143197998) 1262 2418 1
(0.7899218478 0.01693330882 0.08810576728 0.1050390761) 1204 2362 1
(0.06987577435 0.3554277753 0.1096343376 0.4650621128) 207 413 1
(0.7369329084 0.1315335458 0.007652913222 0.1238806326) 286 533 1
(0.1826085255 0.4086957372 0.2978652621 0.1108304752) 922 1820 2
(0.102409435 0.4487952825 0.1116872262 0.3371080563) 1299 479 2
(0.6991818114 0.1504090943 0.01033197217 0.1400771221) 284 586 2
(0.1745282912 0.4127358544 0.4086415098 0.004094344628) 226 470 2
(0.3873083009 0.01816242464 0.2881834249 0.3063458495) 1293 2514 1
(0.2227056753 0.3886471624 0.1975222912 0.1911248712) 1131 2219 1
(0.2433157768 0.3783421116 0.1669661044 0.2113760072) 311 640 2
(0.6238352845 0.03631186401 0.1517704937 0.1880823577) 1094 2087 2
(0.6292061431 0.01836960852 0.1670273199 0.1853969284) 1232 2417 1
(0.05493936701 0.01609593796 0.4564343785 0.4725303165) 282 584 1
(0.1759781268 0.006590735642 0.4120109366 0.405420201) 344 709 2
(0.7759121131 0.1120439434 0.08671490965 0.02532903379) 1106 2170 1
(0.4687665152 0.07599123923 0.1896255032 0.2656167424) 213 429 1
(0.07076174091 0.4646191295 0.3352305294 0.1293886001) 225 465 2
(0.5625485888 0.1258393144 0.09288639123 0.2187257056) 901 1764 2
(0.2295243692 0.1292239336 0.3852378154 0.2560138818) 1139 2235 2
(0.05712408701 0.4714379565 0.3480314514 0.1234065051) 1082 2122 2
(0.4806475952 0.1616721748 0.2596762024 0.09800402761) 1203 2361 2
(0.6242375179 0.187881241 0.1537231691 0.03415807195) 1198 2351 1
(0.371616234 0.314191883 0.2611331398 0.05305874321) 1204 2360 2
(0.9314880664 0.006332516744 0.03425596682 0.02792345007) 1230 2411 1
(0.539087817 0.1213051797 0.1091509118 0.2304560915) 338 696 1
(0.6235637085 0.1882181458 0.05637288413 0.1318452616) 1238 2371 1
(0.3767657242 0.153638614 0.1579785239 0.3116171379) 830 1629 2
(0.04403757162 0.1937960336 0.2841851806 0.4779812142) 1044 2047 1
(0.2054863068 0.1626627555 0.2345940911 0.3972568466) 1201 2356 1
(0.2129421013 0.3806166921 0.01291225725 0.3935289494) 1117 2133 2
(0.3842377922 0.3078811039 0.008977879852 0.298903224) 439 896 2
(0.5336991276 0.01114641095 0.2220040252 0.2331504362) 819 2541 1
(0.6678349704 0.1660825148 0.08810694201 0.07797557277) 346 653 1
(0.4373605651 0.1914458838 0.2813197175 0.08987383365) 318 654 1
(0.1121160212 0.01037991047 0.4439419894 0.4335620789) 215 432 1
(0.356880239 0.3215598805 0.1368768422 0.1846830383) 1080 2116 2
(0.09274978291 0.4536251085 0.4268679902 0.02675711836) 1164 2283 2
(0.4631134733 0.2684432634 0.2006602485 0.06778301483) 220 451 1
(0.142963426 0.3103110022 0.1182072848 0.428518287) 1195 2286 2
(0.03716036341 0.4814198183 0.3172500467 0.1641697716) 1280 2453 1
(0.2035714798 0.03508071333 0.3631335468 0.3982142601) 1139 2176 2
(0.2492221527 0.3753889236 0.03125329748 0.3441356262) 1136 2228 2
(0.0007365725873 0.03607858209 0.4635531316 0.4996317137) 854 1693 1
(0.6802120302 0.07084614352 0.08904784138 0.1598939849) 1223 2341 2
(0.3186254992 0.3406872504 0.2109224218 0.1297648286) 1044 2047 2
(0.2762012161 0.361899392 0.06390312042 0.2979962716) 1299 479 2
(0.4147295916 0.2926352042 0.1439281531 0.148707051) 1291 455 2
(0.2789316522 0.1384577004 0.3605341739 0.2220764735) 349 716 1
(0.4262776677 0.2484913307 0.03836983548 0.2868611662) 1077 2112 1
(0.1017113133 0.1784570224 0.4491443434 0.270687321) 376 773 2
(0.5267709606 0.2366145197 0.07105995484 0.1655545648) 1159 2271 2
(0.3780926302 0.009789237529 0.3109536849 0.3011644474) 1266 2482 1
(0.7666013329 0.1166993335 0.1007362402 0.01596309335) 1194 2284 1
(0.2523351739 0.1740734079 0.1997590051 0.373832413) 1158 2271 1
(0.4765291734 0.2617354133 0.2135680119 0.04816740141) 1073 2102 2
(0.1363630127 0.4318184936 0.4240703859 0.007748107783) 254 528 2
(0.17655693 0.007720083505 0.4040014515 0.411721535) 1138 2174 2
(0.01037019207 0.494814904 0.4735576103 0.02125729371) 1131 2160 1
(0.248250319 0.3758748405 0.2798399174 0.09603492307) 1072 2100 2
(0.3653374913 0.3173312544 0.1403389203 0.176992334) 1108 2171 2
(0.1566330251 0.4216834874 0.06975895745 0.35192453) 811 1612 1
(0.5124345464 0.2437827268 0.2405937385 0.003188988286) 868 1721 1
(0.06020034694 0.3848233702 0.08507645638 0.4698998265) 281 523 2
(0.2966092909 0.2837453346 0.06795001992 0.3516953545) 1264 2422 2
(0.05324791477 0.295115783 0.4733760426 0.1782602596) 1069 2094 1
(0.192666986 0.403666507 0.2038177217 0.1998487853) 917 1814 1
(0.1908504237 0.4045747881 0.1555760219 0.2489987662) 1107 2172 1
(0.254744537 0.3726277315 0.2285690969 0.1440586346) 225 465 2
(0.003045991507 0.4984770042 0.3892255834 0.1092514208) 342 702 2
(0.1641357744 0.1903341402 0.2275979726 0.4179321128) 222 458 1
(0.5649633767 0.05249395005 0.1650243616 0.2175183116) 256 532 1
(0.400051934 0.2870632567 0.01291077627 0.299974033) 343 706 1
(0.04056481105 0.3129971991 0.4797175945 0.1667203954) 843 1670 1
(0.7333673903 0.1333163049 0.02226028344 0.1110560214) 288 596 2
(0.2294807493 0.3852596253 0.06094412932 0.324315496) 1287 2507 2
(0.1260283806 0.4369858097 0.3355145586 0.1014712511) 255 531 1
(0.2680554654 0.01483686965 0.3511353976 0.3659722673) 899 1760 2
(0.3836825113 0.3081587444 0.2517770304 0.05638171396) 1136 2229 1
(0.3506579519 0.324671024 0.3217710764 0.002899947596) 282 525 1
(0.01942493912 0.4902875304 0.0673583133 0.4229292171) 315 650 2
(0.3478980362 0.3260509819 0.1035056146 0.2225453672) 1202 2359 1
(0.6999034096 0.1112957606 0.1500482952 0.03875253457) 1108 2171 1
(0.0575912233 0.4712043883 0.07545327915 0.3957511092) 1051 2061 2
(0.3832224226 0.2357540416 0.3083887887 0.07263474711) 348 714 1
(0.8590101749 0.07049491253 0.003709207217 0.06678570532) 250 520 2
(0.485099849 0.2574500755 0.2020366188 0.05541345675) 227 473 2
(0.8589473992 0.02054448502 0.04998181536 0.07052630038) 811 1593 2
(0.1272926555 0.4363536722 0.3613895167 0.07496415558) 1230 2414 1
(0.1855980989 0.4072009505 0.2479551414 0.1592458092) 879 1739 2
(0.1192818639 0.126398673 0.440359068 0.313960395) 822 1630 1
(0.5187407732 0.1516127036 0.2406296134 0.08901690982) 1234 2419 1
(0.3582155828 0.3208922086 0.1110114696 0.209880739) 1260 2472 2
(0.4755501905 0.2622249047 0.1753427318 0.08688217293) 1158 2272 1
(0.04846959109 0.4757652045 0.113641956 0.3621232485) 1252 2457 1
(0.003004882026 0.498497559 0.1330271884 0.3654703706) 800 478 2
(0.2481884682 0.06449028575 0.3759057659 0.3114154801) 882 1747 2