/*--------------------------------*- C++ -*----------------------------------*\
| =========                 |                                                 |
| \\      /  F ield         | OpenFOAM: The Open Source CFD Toolbox           |
|  \\    /   O peration     | Version:  v1912                                 |
|   \\  /    A nd           | Website:  www.openfoam.com                      |
|    \\/     M anipulation  |                                                 |
\*---------------------------------------------------------------------------*/
FoamFile
{
    version     2.0;
    format      ascii;
    class       volVectorField;
    location    "9.22";
    object      U;
}
// * * * * * * * * * * * * * * * * * * * * * * * * * * * * * * * * * * * * * //

dimensions      [0 1 -1 0 0 0 0];


internalField   nonuniform List<vector> 
1900
(
(1.61771 4.37783e-06 0)
(0.242682 1.62914e-06 0)
(0.114558 -1.85902e-06 0)
(0.121579 -5.83391e-06 0)
(0.123277 -1.83632e-05 0)
(0.128913 -3.89168e-05 0)
(0.127013 -6.48871e-05 0)
(0.124849 -0.000640869 0)
(0.117869 0.00423914 0)
(0.0988383 0.0118198 0)
(1.61773 1.05421e-05 0)
(0.242687 2.61422e-06 0)
(0.114557 -3.05597e-06 0)
(0.121575 -1.1035e-05 0)
(0.123262 -2.81443e-05 0)
(0.128815 -5.46036e-05 0)
(0.126875 -0.000128643 0)
(0.12454 -0.000275529 0)
(0.11815 0.00290016 0)
(0.113459 0.0114551 0)
(1.61774 9.89204e-15 0)
(0.242689 -2.82608e-15 0)
(0.114555 -2.38061e-16 0)
(0.121571 6.44965e-16 0)
(0.123242 -8.15071e-15 0)
(0.128738 3.87888e-15 0)
(0.126751 2.77892e-14 0)
(0.124598 1.332e-14 0)
(0.120014 4.15395e-15 0)
(0.12167 -2.62319e-15 0)
(1.61773 -1.05421e-05 0)
(0.242687 -2.61422e-06 0)
(0.114557 3.05597e-06 0)
(0.121575 1.1035e-05 0)
(0.123262 2.81443e-05 0)
(0.128815 5.46036e-05 0)
(0.126875 0.000128643 0)
(0.12454 0.000275529 0)
(0.11815 -0.00290016 0)
(0.113459 -0.0114551 0)
(1.61771 -4.37783e-06 0)
(0.242682 -1.62914e-06 0)
(0.114558 1.85902e-06 0)
(0.121579 5.83391e-06 0)
(0.123277 1.83632e-05 0)
(0.128913 3.89168e-05 0)
(0.127013 6.48871e-05 0)
(0.124849 0.000640869 0)
(0.117869 -0.00423914 0)
(0.0988383 -0.0118198 0)
(0.0999054 0.0382048 0)
(0.137352 0.0527184 0)
(0.183835 0.0780866 0)
(0.258673 0.119438 0)
(0.402491 0.17534 0)
(0.124881 0.0272798 0)
(0.147742 0.0291686 0)
(0.176508 0.0397772 0)
(0.238273 0.0619771 0)
(0.380128 0.103421 0)
(0.135176 4.4474e-16 0)
(0.156384 -1.77839e-14 0)
(0.186803 1.05764e-14 0)
(0.249828 -1.09668e-14 0)
(0.390717 3.58613e-17 0)
(0.124881 -0.0272798 0)
(0.147742 -0.0291686 0)
(0.176508 -0.0397772 0)
(0.238273 -0.0619771 0)
(0.380128 -0.103421 0)
(0.0999054 -0.0382048 0)
(0.137352 -0.0527184 0)
(0.183835 -0.0780866 0)
(0.258673 -0.119438 0)
(0.402491 -0.17534 0)
(0.850654 0.0316155 0)
(1.10815 -0.0520643 0)
(1.26113 -0.0832987 0)
(1.34457 -0.0953242 0)
(1.43676 -0.106292 0)
(0.822217 -0.0169759 0)
(1.12122 -0.048117 0)
(1.29312 -0.0595193 0)
(1.37804 -0.0598389 0)
(1.46398 -0.0805903 0)
(0.818016 -2.5623e-15 0)
(1.12525 5.03867e-15 0)
(1.28865 -3.62863e-15 0)
(1.36969 2.75463e-15 0)
(1.451 9.51868e-15 0)
(0.822217 0.0169759 0)
(1.12122 0.048117 0)
(1.29312 0.0595193 0)
(1.37804 0.0598389 0)
(1.46398 0.0805903 0)
(0.850654 -0.0316155 0)
(1.10815 0.0520643 0)
(1.26113 0.0832987 0)
(1.34457 0.0953242 0)
(1.43676 0.106292 0)
(1.45632 -0.0117197 0)
(1.48413 0.063679 0)
(1.47894 0.0253257 0)
(1.49946 -0.00403721 0)
(1.50639 -0.0157014 0)
(1.51991 -0.0137935 0)
(1.53549 -0.0100368 0)
(1.55373 -0.00808152 0)
(1.57441 -0.00226778 0)
(1.59719 -0.000340331 0)
(1.61606 -0.00118341 0)
(1.62961 0.00247123 0)
(1.65028 -0.000171189 0)
(1.68477 -0.00300175 0)
(1.6763 -0.00874183 0)
(1.64122 -0.0134648 0)
(1.48337 -0.0213146 0)
(1.30076 -0.0117953 0)
(1.25998 -0.00638544 0)
(1.25352 0.000424869 0)
(1.25592 -0.000457924 0)
(1.25799 -0.00950963 0)
(1.24458 -0.0215575 0)
(1.21106 -0.03305 0)
(1.15795 -0.0376595 0)
(1.09786 -0.0441807 0)
(1.05868 -0.0370309 0)
(0.695544 -0.0373002 0)
(0.414666 -0.0239799 0)
(0.239206 -0.0161054 0)
(-0.124128 -0.0128183 0)
(-0.400985 -0.0102271 0)
(-0.430782 -0.0102429 0)
(-0.439344 -0.0105563 0)
(-0.447304 -0.0111297 0)
(-0.456495 -0.011329 0)
(-0.463844 -0.0104936 0)
(-0.46835 -0.00923591 0)
(-0.470206 -0.00833458 0)
(-0.469986 -0.00788777 0)
(1.47195 -0.0130012 0)
(1.45232 0.0467485 0)
(1.42427 0.0448783 0)
(1.46111 0.0126209 0)
(1.47184 -0.00263839 0)
(1.48721 -0.0141275 0)
(1.50674 -0.0195233 0)
(1.52977 -0.0227733 0)
(1.55478 -0.0208285 0)
(1.58217 -0.0201838 0)
(1.60315 -0.0198126 0)
(1.61819 -0.0146785 0)
(1.64083 -0.0148838 0)
(1.67628 -0.0146992 0)
(1.67114 -0.0149742 0)
(1.63379 -0.016566 0)
(1.46442 -0.0210444 0)
(1.28743 -0.0137664 0)
(1.24614 -0.0105055 0)
(1.24461 -0.00410483 0)
(1.25146 -0.00355853 0)
(1.25648 -0.00651678 0)
(1.24495 -0.0111524 0)
(1.21605 -0.0165878 0)
(1.16935 -0.0197076 0)
(1.11385 -0.0235471 0)
(1.0671 -0.0188524 0)
(0.690154 -0.0186777 0)
(0.409867 -0.0115474 0)
(0.239439 -0.00826002 0)
(-0.121748 -0.00673009 0)
(-0.399696 -0.00503609 0)
(-0.429856 -0.00507927 0)
(-0.438995 -0.00523287 0)
(-0.447859 -0.00553695 0)
(-0.45793 -0.00567107 0)
(-0.465704 -0.00528193 0)
(-0.4703 -0.00468646 0)
(-0.472101 -0.00426359 0)
(-0.471768 -0.00403034 0)
(1.47221 -1.88839e-14 0)
(1.45524 -3.04851e-14 0)
(1.4146 -4.67961e-14 0)
(1.44728 -7.97639e-14 0)
(1.45924 -9.55413e-14 0)
(1.47805 -1.04816e-13 0)
(1.50042 -9.24985e-14 0)
(1.52537 -8.13182e-14 0)
(1.55142 -6.22699e-14 0)
(1.57973 -5.09289e-14 0)
(1.60058 -4.70831e-14 0)
(1.61553 -1.94917e-14 0)
(1.6388 -6.01862e-14 0)
(1.67427 -1.03586e-13 0)
(1.66948 -4.38896e-14 0)
(1.63124 -1.97892e-16 0)
(1.45757 9.35528e-14 0)
(1.2829 -8.10593e-14 0)
(1.24188 -7.85035e-14 0)
(1.24181 3.43806e-14 0)
(1.25037 5.04591e-14 0)
(1.25638 -2.97611e-13 0)
(1.24492 -1.27348e-14 0)
(1.21279 -8.00065e-13 0)
(1.16391 -1.94644e-12 0)
(1.10743 -2.31936e-13 0)
(1.0619 5.49257e-13 0)
(0.690243 8.72342e-13 0)
(0.413337 -5.11343e-13 0)
(0.24246 -5.20648e-13 0)
(-0.120362 4.94957e-13 0)
(-0.399209 6.92804e-13 0)
(-0.429297 5.31563e-13 0)
(-0.438274 1.99965e-13 0)
(-0.446912 1.28267e-13 0)
(-0.456857 -1.0821e-13 0)
(-0.464638 -2.08196e-13 0)
(-0.469381 1.05882e-14 0)
(-0.471408 1.39074e-13 0)
(-0.471387 8.56609e-15 0)
(1.47195 0.0130012 0)
(1.45232 -0.0467485 0)
(1.42427 -0.0448783 0)
(1.46111 -0.0126209 0)
(1.47184 0.00263839 0)
(1.48721 0.0141275 0)
(1.50674 0.0195233 0)
(1.52977 0.0227733 0)
(1.55478 0.0208285 0)
(1.58217 0.0201838 0)
(1.60315 0.0198126 0)
(1.61819 0.0146785 0)
(1.64083 0.0148838 0)
(1.67628 0.0146992 0)
(1.67114 0.0149742 0)
(1.63379 0.016566 0)
(1.46442 0.0210444 0)
(1.28743 0.0137664 0)
(1.24614 0.0105055 0)
(1.24461 0.00410483 0)
(1.25146 0.00355853 0)
(1.25648 0.00651678 0)
(1.24495 0.0111524 0)
(1.21605 0.0165878 0)
(1.16935 0.0197076 0)
(1.11385 0.0235471 0)
(1.0671 0.0188524 0)
(0.690154 0.0186777 0)
(0.409867 0.0115474 0)
(0.239439 0.00826002 0)
(-0.121748 0.00673009 0)
(-0.399696 0.00503609 0)
(-0.429856 0.00507927 0)
(-0.438995 0.00523287 0)
(-0.447859 0.00553695 0)
(-0.45793 0.00567107 0)
(-0.465704 0.00528193 0)
(-0.4703 0.00468646 0)
(-0.472101 0.00426359 0)
(-0.471768 0.00403034 0)
(1.45632 0.0117197 0)
(1.48413 -0.063679 0)
(1.47894 -0.0253257 0)
(1.49946 0.00403721 0)
(1.50639 0.0157014 0)
(1.51991 0.0137935 0)
(1.53549 0.0100368 0)
(1.55373 0.00808152 0)
(1.57441 0.00226778 0)
(1.59719 0.000340331 0)
(1.61606 0.00118341 0)
(1.62961 -0.00247123 0)
(1.65028 0.000171189 0)
(1.68477 0.00300175 0)
(1.6763 0.00874183 0)
(1.64122 0.0134648 0)
(1.48337 0.0213146 0)
(1.30076 0.0117953 0)
(1.25998 0.00638544 0)
(1.25352 -0.000424869 0)
(1.25592 0.000457924 0)
(1.25799 0.00950963 0)
(1.24458 0.0215575 0)
(1.21106 0.03305 0)
(1.15795 0.0376595 0)
(1.09786 0.0441807 0)
(1.05868 0.0370309 0)
(0.695544 0.0373002 0)
(0.414666 0.0239799 0)
(0.239206 0.0161054 0)
(-0.124128 0.0128183 0)
(-0.400985 0.0102271 0)
(-0.430782 0.0102429 0)
(-0.439344 0.0105563 0)
(-0.447304 0.0111297 0)
(-0.456495 0.011329 0)
(-0.463844 0.0104936 0)
(-0.46835 0.00923591 0)
(-0.470206 0.00833458 0)
(-0.469986 0.00788777 0)
(1.57864 -0.088707 0)
(1.58864 -0.0819469 0)
(1.59803 -0.0621498 0)
(1.597 -0.0417665 0)
(1.60012 -0.0113195 0)
(1.6066 0.0254352 0)
(1.60997 0.052877 0)
(1.61462 0.0727069 0)
(1.62262 0.0761053 0)
(1.63332 0.0801234 0)
(1.64403 0.0803743 0)
(1.65491 0.0642332 0)
(1.66966 0.0601847 0)
(1.69779 0.0657959 0)
(1.68629 0.0521751 0)
(1.65657 0.0501037 0)
(1.52346 0.0556146 0)
(1.32782 0.0437784 0)
(1.28618 0.0359874 0)
(1.27084 0.0240972 0)
(1.26461 0.0190133 0)
(1.25888 0.025413 0)
(1.24288 0.0448479 0)
(1.20869 0.0706953 0)
(1.15347 0.08552 0)
(1.09825 0.0932516 0)
(1.06057 0.0707569 0)
(0.707816 0.0658546 0)
(0.431442 0.054329 0)
(0.249406 0.0380858 0)
(-0.126114 0.0293833 0)
(-0.402132 0.021074 0)
(-0.431041 0.0211825 0)
(-0.439161 0.0216306 0)
(-0.446231 0.0224512 0)
(-0.454016 0.022777 0)
(-0.460307 0.0212771 0)
(-0.464353 0.0188651 0)
(-0.466337 0.0171381 0)
(-0.466368 0.016171 0)
(1.69636 0.00335353 0)
(1.69663 -0.000780173 0)
(1.69709 -0.00281046 0)
(1.69788 0.00651195 0)
(1.69878 0.00781918 0)
(1.69649 0.0060442 0)
(1.69458 0.018709 0)
(1.69028 0.0296996 0)
(1.68668 0.031436 0)
(1.68721 0.0415991 0)
(1.68849 0.0531959 0)
(1.69124 0.0489283 0)
(1.69837 0.0505621 0)
(1.71901 0.0614627 0)
(1.70474 0.0491178 0)
(1.67916 0.0450293 0)
(1.57073 0.0441707 0)
(1.36048 0.036416 0)
(1.31342 0.0326412 0)
(1.28736 0.0268686 0)
(1.27293 0.0288078 0)
(1.25914 0.049423 0)
(1.22984 0.086182 0)
(1.18473 0.128638 0)
(1.1268 0.145271 0)
(1.07375 0.1556 0)
(1.03847 0.119032 0)
(0.676892 0.112978 0)
(0.4056 0.110013 0)
(0.224859 0.0825653 0)
(-0.151315 0.0542848 0)
(-0.403313 0.036115 0)
(-0.430113 0.037551 0)
(-0.437929 0.0382646 0)
(-0.444898 0.0396456 0)
(-0.45179 0.0401369 0)
(-0.457404 0.0381801 0)
(-0.461262 0.0344984 0)
(-0.463755 0.0315946 0)
(-0.464629 0.0295927 0)
(1.73301 0.0796755 0)
(1.73554 0.0692358 0)
(1.73606 0.0517076 0)
(1.73417 0.0638697 0)
(1.72984 0.0758221 0)
(1.72668 0.0745486 0)
(1.72276 0.0862576 0)
(1.7174 0.091703 0)
(1.71346 0.0830922 0)
(1.71167 0.0954205 0)
(1.70749 0.108629 0)
(1.70391 0.10122 0)
(1.70533 0.113206 0)
(1.70817 0.141424 0)
(1.70182 0.10774 0)
(1.68005 0.0759872 0)
(1.57081 0.0628384 0)
(1.35887 0.079747 0)
(1.30838 0.0828849 0)
(1.27955 0.0811985 0)
(1.264 0.0767209 0)
(1.25161 0.0935507 0)
(1.22851 0.143662 0)
(1.18438 0.198555 0)
(1.12627 0.214808 0)
(1.06721 0.226937 0)
(1.01064 0.176754 0)
(0.629221 0.164012 0)
(0.369511 0.145819 0)
(0.190334 0.102508 0)
(-0.188443 0.0632783 0)
(-0.404022 0.0468724 0)
(-0.427552 0.0501915 0)
(-0.4355 0.0535596 0)
(-0.443301 0.0561619 0)
(-0.45028 0.056957 0)
(-0.455611 0.0548968 0)
(-0.458989 0.0501838 0)
(-0.461538 0.0461849 0)
(-0.462915 0.042898 0)
(1.72586 0.139736 0)
(1.72512 0.136937 0)
(1.72735 0.132523 0)
(1.73045 0.135412 0)
(1.72439 0.128552 0)
(1.71491 0.118493 0)
(1.70792 0.128341 0)
(1.70459 0.128481 0)
(1.70385 0.111946 0)
(1.70359 0.11898 0)
(1.70182 0.129305 0)
(1.70222 0.120734 0)
(1.70519 0.137044 0)
(1.69609 0.1598 0)
(1.67261 0.129548 0)
(1.64404 0.106536 0)
(1.53061 0.0962626 0)
(1.34724 0.100759 0)
(1.30575 0.108683 0)
(1.27333 0.108925 0)
(1.25365 0.104959 0)
(1.23067 0.131371 0)
(1.19099 0.199686 0)
(1.13561 0.262622 0)
(1.07566 0.278315 0)
(1.02112 0.290707 0)
(0.943346 0.222362 0)
(0.565431 0.191378 0)
(0.323181 0.154157 0)
(0.145115 0.0836454 0)
(-0.229901 0.0472445 0)
(-0.402989 0.0358785 0)
(-0.423572 0.0478238 0)
(-0.432383 0.0580101 0)
(-0.440939 0.0666293 0)
(-0.449668 0.0717643 0)
(-0.455728 0.0712523 0)
(-0.459215 0.0660025 0)
(-0.461403 0.0611946 0)
(-0.462746 0.0565613 0)
(1.69116 0.180484 0)
(1.69291 0.174299 0)
(1.69461 0.171829 0)
(1.69512 0.18286 0)
(1.69941 0.180862 0)
(1.7032 0.174889 0)
(1.70081 0.177775 0)
(1.70063 0.170142 0)
(1.70427 0.160607 0)
(1.70244 0.170714 0)
(1.69951 0.169491 0)
(1.70352 0.15835 0)
(1.69744 0.184743 0)
(1.66445 0.184776 0)
(1.63601 0.152542 0)
(1.59878 0.124821 0)
(1.47357 0.123977 0)
(1.34258 0.125433 0)
(1.30407 0.1395 0)
(1.26761 0.142711 0)
(1.23943 0.148314 0)
(1.19644 0.190059 0)
(1.14105 0.275706 0)
(1.07441 0.338954 0)
(1.01527 0.339581 0)
(0.961146 0.331572 0)
(0.852712 0.230987 0)
(0.458886 0.122095 0)
(0.249553 0.073432 0)
(0.0750782 0.00448853 0)
(-0.261291 -0.0465528 0)
(-0.384431 -0.0311471 0)
(-0.400883 0.00478677 0)
(-0.415095 0.0360766 0)
(-0.429924 0.0604081 0)
(-0.441821 0.0752306 0)
(-0.448865 0.0820117 0)
(-0.454379 0.0805247 0)
(-0.457202 0.075376 0)
(-0.458771 0.0698349 0)
(1.64908 0.220836 0)
(1.65031 0.216805 0)
(1.65016 0.220102 0)
(1.64909 0.22581 0)
(1.6535 0.219008 0)
(1.65836 0.216436 0)
(1.66252 0.215379 0)
(1.66687 0.202391 0)
(1.66793 0.203937 0)
(1.66615 0.214076 0)
(1.66975 0.20193 0)
(1.68239 0.205384 0)
(1.65291 0.21871 0)
(1.63025 0.200381 0)
(1.60815 0.173836 0)
(1.55306 0.151225 0)
(1.42061 0.156357 0)
(1.33979 0.160927 0)
(1.2963 0.182468 0)
(1.25418 0.18869 0)
(1.21397 0.206172 0)
(1.1533 0.28097 0)
(1.0727 0.35907 0)
(0.999038 0.393072 0)
(0.937019 0.379815 0)
(0.897176 0.333018 0)
(0.622367 0.126977 0)
(0.346753 -0.0176366 0)
(0.162669 -0.0237959 0)
(-0.00198333 -0.0984093 0)
(-0.278786 -0.144245 0)
(-0.348726 -0.111887 0)
(-0.362355 -0.0694993 0)
(-0.379591 -0.0247209 0)
(-0.400106 0.0202403 0)
(-0.420616 0.0575017 0)
(-0.438226 0.0804162 0)
(-0.449674 0.0896156 0)
(-0.456261 0.089657 0)
(-0.459716 0.083984 0)
(1.60322 0.258336 0)
(1.60364 0.256739 0)
(1.60239 0.261348 0)
(1.60161 0.264547 0)
(1.60477 0.25973 0)
(1.60786 0.25883 0)
(1.61148 0.256212 0)
(1.61645 0.244439 0)
(1.61792 0.245315 0)
(1.61739 0.250905 0)
(1.62538 0.241531 0)
(1.64432 0.255082 0)
(1.6172 0.256808 0)
(1.58418 0.226214 0)
(1.56282 0.193283 0)
(1.49984 0.182211 0)
(1.37413 0.185699 0)
(1.3185 0.199881 0)
(1.27006 0.221814 0)
(1.22583 0.247586 0)
(1.16005 0.273774 0)
(1.07336 0.366827 0)
(0.962313 0.43809 0)
(0.902464 0.407404 0)
(0.842988 0.326899 0)
(0.766381 0.191164 0)
(0.436012 0.0139029 0)
(0.24616 -0.0541663 0)
(0.143215 -0.109209 0)
(-0.0883732 -0.159043 0)
(-0.285103 -0.186388 0)
(-0.313421 -0.151455 0)
(-0.324088 -0.113816 0)
(-0.338209 -0.0734312 0)
(-0.357695 -0.02879 0)
(-0.381218 0.0181336 0)
(-0.40742 0.0599865 0)
(-0.431043 0.0878291 0)
(-0.447928 0.0999673 0)
(-0.457309 0.0987049 0)
(1.55584 0.299798 0)
(1.55584 0.299871 0)
(1.55456 0.303386 0)
(1.55425 0.303654 0)
(1.55592 0.301001 0)
(1.55739 0.300664 0)
(1.56085 0.296508 0)
(1.56641 0.289463 0)
(1.56826 0.29141 0)
(1.568 0.291376 0)
(1.57575 0.282048 0)
(1.58272 0.2831 0)
(1.55165 0.26815 0)
(1.52128 0.239128 0)
(1.49077 0.229222 0)
(1.41151 0.221871 0)
(1.33185 0.219259 0)
(1.28098 0.262352 0)
(1.22899 0.282563 0)
(1.16184 0.280231 0)
(1.04759 0.379322 0)
(0.90926 0.428573 0)
(0.830309 0.377405 0)
(0.765147 0.28854 0)
(0.719088 0.188426 0)
(0.615596 0.0570381 0)
(0.377636 -0.0293968 0)
(0.212646 -0.0957738 0)
(0.0925448 -0.133535 0)
(-0.15305 -0.198315 0)
(-0.268516 -0.198419 0)
(-0.281823 -0.163939 0)
(-0.290713 -0.128941 0)
(-0.300654 -0.092366 0)
(-0.318661 -0.0535154 0)
(-0.33752 -0.0105439 0)
(-0.364578 0.0336591 0)
(-0.398831 0.0736023 0)
(-0.428216 0.104046 0)
(-0.453437 0.115185 0)
(1.50054 0.337012 0)
(1.50024 0.337707 0)
(1.49953 0.338789 0)
(1.49997 0.336732 0)
(1.50098 0.334213 0)
(1.50206 0.334389 0)
(1.50556 0.3295 0)
(1.50965 0.326517 0)
(1.51074 0.334403 0)
(1.51214 0.335278 0)
(1.52174 0.332188 0)
(1.51328 0.329908 0)
(1.48464 0.314103 0)
(1.45795 0.277978 0)
(1.39349 0.251064 0)
(1.32719 0.253602 0)
(1.26739 0.286466 0)
(1.2134 0.280389 0)
(1.12601 0.28634 0)
(0.98957 0.359253 0)
(0.823991 0.37117 0)
(0.734905 0.318313 0)
(0.680011 0.243519 0)
(0.649503 0.171848 0)
(0.634414 0.106532 0)
(0.517726 0.0328403 0)
(0.355257 -0.0646075 0)
(0.178601 -0.0879855 0)
(0.0198443 -0.155832 0)
(-0.191667 -0.222053 0)
(-0.24202 -0.198165 0)
(-0.250496 -0.160922 0)
(-0.257962 -0.124935 0)
(-0.266783 -0.0882356 0)
(-0.278843 -0.0504885 0)
(-0.298331 -0.0133958 0)
(-0.318544 0.0284049 0)
(-0.354977 0.0668667 0)
(-0.392467 0.106071 0)
(-0.433871 0.12843 0)
(1.43303 0.373048 0)
(1.43286 0.373662 0)
(1.43329 0.373485 0)
(1.43488 0.373134 0)
(1.43777 0.374429 0)
(1.44156 0.375842 0)
(1.44568 0.375011 0)
(1.44706 0.37668 0)
(1.44621 0.373522 0)
(1.44552 0.363554 0)
(1.43749 0.36051 0)
(1.41926 0.33831 0)
(1.39251 0.30974 0)
(1.35148 0.293153 0)
(1.29296 0.290181 0)
(1.21648 0.276556 0)
(1.13483 0.253493 0)
(1.02545 0.262529 0)
(0.859045 0.291225 0)
(0.707695 0.286484 0)
(0.627081 0.25531 0)
(0.591339 0.225042 0)
(0.578149 0.186085 0)
(0.577759 0.135696 0)
(0.585324 0.0665623 0)
(0.475131 -0.0179404 0)
(0.297395 -0.0472345 0)
(0.135517 -0.107464 0)
(-0.0594454 -0.198048 0)
(-0.195095 -0.231897 0)
(-0.20856 -0.199607 0)
(-0.217574 -0.162134 0)
(-0.222663 -0.123046 0)
(-0.232431 -0.0832571 0)
(-0.239433 -0.040794 0)
(-0.262201 0.000279815 0)
(-0.277269 0.0449839 0)
(-0.312839 0.0838498 0)
(-0.346861 0.119988 0)
(-0.392236 0.133792 0)
(1.35248 0.393459 0)
(1.35248 0.395359 0)
(1.35452 0.397747 0)
(1.3582 0.399812 0)
(1.36326 0.398481 0)
(1.36933 0.395295 0)
(1.37098 0.390875 0)
(1.35731 0.398479 0)
(1.34447 0.386079 0)
(1.33053 0.347349 0)
(1.3197 0.304385 0)
(1.28061 0.256975 0)
(1.22161 0.221104 0)
(1.16943 0.18467 0)
(1.10535 0.169307 0)
(1.00266 0.160805 0)
(0.855141 0.174691 0)
(0.693009 0.203728 0)
(0.566719 0.237171 0)
(0.512019 0.249051 0)
(0.50211 0.236521 0)
(0.504565 0.202724 0)
(0.52753 0.149376 0)
(0.547035 0.0841442 0)
(0.530801 0.0206266 0)
(0.411941 -0.0167229 0)
(0.223901 -0.0655335 0)
(0.0616094 -0.160485 0)
(-0.110519 -0.238686 0)
(-0.169804 -0.232421 0)
(-0.172376 -0.198527 0)
(-0.181632 -0.159659 0)
(-0.184712 -0.117198 0)
(-0.194103 -0.0752891 0)
(-0.197317 -0.0309019 0)
(-0.219023 0.0139673 0)
(-0.234519 0.0632462 0)
(-0.265308 0.104506 0)
(-0.292538 0.132616 0)
(-0.33298 0.140265 0)
(1.25458 0.430412 0)
(1.25523 0.430563 0)
(1.25931 0.431162 0)
(1.26694 0.428346 0)
(1.24961 0.425026 0)
(1.23092 0.403774 0)
(1.21405 0.366141 0)
(1.19998 0.314845 0)
(1.18926 0.261815 0)
(1.15307 0.20509 0)
(1.10961 0.15276 0)
(1.05868 0.105912 0)
(0.98458 0.0753254 0)
(0.886187 0.059312 0)
(0.781999 0.0915324 0)
(0.651159 0.145135 0)
(0.519984 0.209538 0)
(0.436312 0.251457 0)
(0.409286 0.257736 0)
(0.411561 0.240465 0)
(0.436763 0.204654 0)
(0.467433 0.15242 0)
(0.492179 0.094478 0)
(0.490434 0.057294 0)
(0.459424 0.00418194 0)
(0.343815 -0.0590183 0)
(0.159204 -0.141235 0)
(-0.0216458 -0.229379 0)
(-0.120277 -0.260303 0)
(-0.134218 -0.233785 0)
(-0.133621 -0.199429 0)
(-0.142939 -0.162332 0)
(-0.144299 -0.120385 0)
(-0.152259 -0.0764826 0)
(-0.153045 -0.027331 0)
(-0.170626 0.0270688 0)
(-0.186058 0.084089 0)
(-0.208948 0.128071 0)
(-0.229532 0.152631 0)
(-0.264052 0.156317 0)
(1.11444 0.459204 0)
(1.11838 0.456277 0)
(1.10575 0.436173 0)
(1.09037 0.403218 0)
(1.06281 0.352103 0)
(1.02942 0.29117 0)
(0.993816 0.228299 0)
(0.948498 0.172683 0)
(0.910581 0.131601 0)
(0.870001 0.107905 0)
(0.821455 0.0958146 0)
(0.753237 0.0901899 0)
(0.666393 0.104628 0)
(0.556787 0.137549 0)
(0.450958 0.196398 0)
(0.364528 0.240831 0)
(0.318377 0.257939 0)
(0.314442 0.248315 0)
(0.334656 0.22672 0)
(0.372865 0.191406 0)
(0.406952 0.148708 0)
(0.423553 0.109425 0)
(0.430212 0.0712287 0)
(0.434621 0.0119499 0)
(0.399552 -0.0545141 0)
(0.268359 -0.133808 0)
(0.0784586 -0.236639 0)
(-0.0616086 -0.282439 0)
(-0.097872 -0.268438 0)
(-0.100025 -0.236649 0)
(-0.0944783 -0.199814 0)
(-0.101761 -0.159874 0)
(-0.101198 -0.115743 0)
(-0.109218 -0.0690608 0)
(-0.107445 -0.0183727 0)
(-0.119149 0.0378623 0)
(-0.128251 0.0948826 0)
(-0.143167 0.139417 0)
(-0.159048 0.163144 0)
(-0.189422 0.165932 0)
(0.918972 0.454373 0)
(0.901422 0.432334 0)
(0.86144 0.385866 0)
(0.81404 0.326433 0)
(0.777006 0.268495 0)
(0.740658 0.233229 0)
(0.697985 0.223186 0)
(0.639447 0.218313 0)
(0.571685 0.21349 0)
(0.502623 0.200699 0)
(0.431255 0.187133 0)
(0.360447 0.192343 0)
(0.306017 0.214903 0)
(0.264861 0.229342 0)
(0.241525 0.234688 0)
(0.236336 0.230686 0)
(0.2475 0.220877 0)
(0.277901 0.20053 0)
(0.313686 0.173142 0)
(0.341662 0.142465 0)
(0.360088 0.110755 0)
(0.372944 0.0698166 0)
(0.382555 0.0142373 0)
(0.373882 -0.0520324 0)
(0.314671 -0.139972 0)
(0.172415 -0.255364 0)
(0.0318722 -0.313357 0)
(-0.0521849 -0.307346 0)
(-0.0654314 -0.273525 0)
(-0.0640553 -0.241066 0)
(-0.0565616 -0.205423 0)
(-0.0593018 -0.165515 0)
(-0.0557284 -0.122262 0)
(-0.0626959 -0.0754288 0)
(-0.0583261 -0.0211157 0)
(-0.0658717 0.0415565 0)
(-0.0680516 0.105435 0)
(-0.0761778 0.154909 0)
(-0.0868844 0.179195 0)
(-0.112396 0.183961 0)
(0.610344 0.442289 0)
(0.568164 0.417316 0)
(0.520592 0.384483 0)
(0.473052 0.356754 0)
(0.423741 0.331725 0)
(0.370714 0.308403 0)
(0.312068 0.289635 0)
(0.253114 0.274145 0)
(0.19865 0.258293 0)
(0.15486 0.245304 0)
(0.127292 0.239073 0)
(0.120748 0.237838 0)
(0.132111 0.238057 0)
(0.150753 0.227589 0)
(0.173285 0.209069 0)
(0.201855 0.191441 0)
(0.230362 0.17397 0)
(0.256949 0.155019 0)
(0.280011 0.130679 0)
(0.300909 0.0996325 0)
(0.31951 0.058391 0)
(0.326912 0.00935642 0)
(0.319061 -0.0532725 0)
(0.284525 -0.153898 0)
(0.194647 -0.27536 0)
(0.110902 -0.356497 0)
(0.0351026 -0.356164 0)
(-0.0167937 -0.324323 0)
(-0.0313394 -0.287435 0)
(-0.0279163 -0.251021 0)
(-0.0180665 -0.211152 0)
(-0.0136172 -0.16803 0)
(-0.00705144 -0.122112 0)
(-0.00932331 -0.0716163 0)
(-0.00528368 -0.0179953 0)
(-0.00972393 0.0433274 0)
(-0.00570702 0.107163 0)
(-0.00823106 0.158096 0)
(-0.0146442 0.186097 0)
(-0.0356217 0.193072 0)
(0.218567 0.462474 0)
(0.199639 0.453231 0)
(0.171235 0.440818 0)
(0.14217 0.416556 0)
(0.105272 0.386371 0)
(0.0642412 0.358462 0)
(0.0272028 0.337804 0)
(0.00269662 0.317258 0)
(-0.00688096 0.295249 0)
(-0.000971414 0.274568 0)
(0.0194233 0.257307 0)
(0.0513735 0.237645 0)
(0.0891124 0.217886 0)
(0.124922 0.197703 0)
(0.155605 0.177774 0)
(0.183257 0.158473 0)
(0.207938 0.137667 0)
(0.229213 0.112296 0)
(0.249176 0.0809757 0)
(0.264164 0.042127 0)
(0.270195 -0.00482356 0)
(0.262042 -0.0713454 0)
(0.228467 -0.17193 0)
(0.165416 -0.297152 0)
(0.107122 -0.372163 0)
(0.100283 -0.392929 0)
(0.0665762 -0.379408 0)
(0.024859 -0.34264 0)
(0.00462023 -0.303332 0)
(0.00767434 -0.269257 0)
(0.0197076 -0.23212 0)
(0.0345669 -0.187336 0)
(0.0453098 -0.135718 0)
(0.0507491 -0.0812086 0)
(0.0549989 -0.0236899 0)
(0.0523461 0.0395031 0)
(0.0571943 0.10711 0)
(0.0581316 0.164847 0)
(0.05396 0.196879 0)
(0.0335277 0.205956 0)
(-0.0651386 0.480525 0)
(-0.0656278 0.476575 0)
(-0.0675803 0.461451 0)
(-0.0709086 0.441661 0)
(-0.0845557 0.41805 0)
(-0.0954944 0.389443 0)
(-0.10194 0.363051 0)
(-0.0939135 0.341765 0)
(-0.0760221 0.32106 0)
(-0.0504687 0.298861 0)
(-0.0179406 0.274968 0)
(0.0185923 0.246511 0)
(0.057498 0.218736 0)
(0.0948235 0.191949 0)
(0.127304 0.165556 0)
(0.153141 0.137479 0)
(0.174644 0.104984 0)
(0.194646 0.0677089 0)
(0.209248 0.0256588 0)
(0.213439 -0.0264048 0)
(0.203379 -0.100322 0)
(0.168599 -0.204367 0)
(0.116118 -0.31724 0)
(0.0880428 -0.383259 0)
(0.0918233 -0.405975 0)
(0.0981546 -0.410949 0)
(0.0904566 -0.399738 0)
(0.0635432 -0.369147 0)
(0.0429752 -0.327858 0)
(0.0474712 -0.286864 0)
(0.0642143 -0.247181 0)
(0.0864613 -0.202208 0)
(0.0991629 -0.146089 0)
(0.111208 -0.0858401 0)
(0.115384 -0.0221457 0)
(0.117347 0.0426374 0)
(0.119158 0.10671 0)
(0.1213 0.167046 0)
(0.119598 0.206343 0)
(0.10219 0.217146 0)
(-0.173547 0.474993 0)
(-0.180984 0.472603 0)
(-0.172568 0.471152 0)
(-0.16036 0.459752 0)
(-0.154637 0.437477 0)
(-0.144725 0.415845 0)
(-0.128009 0.399084 0)
(-0.107327 0.382424 0)
(-0.085651 0.365288 0)
(-0.062722 0.345462 0)
(-0.0366602 0.320962 0)
(-0.00788684 0.289264 0)
(0.0245302 0.255234 0)
(0.0559308 0.21573 0)
(0.0847862 0.171099 0)
(0.11043 0.121173 0)
(0.130928 0.0687768 0)
(0.14881 0.0120714 0)
(0.155784 -0.0550508 0)
(0.145148 -0.141028 0)
(0.112411 -0.246871 0)
(0.0728816 -0.341136 0)
(0.0600767 -0.389573 0)
(0.067917 -0.410513 0)
(0.0830525 -0.416865 0)
(0.095839 -0.420869 0)
(0.101084 -0.415939 0)
(0.0933605 -0.396902 0)
(0.0792679 -0.362623 0)
(0.0831795 -0.321785 0)
(0.103303 -0.279814 0)
(0.126838 -0.22759 0)
(0.141125 -0.163627 0)
(0.157906 -0.0959812 0)
(0.162152 -0.0254336 0)
(0.170629 0.0434548 0)
(0.175568 0.109261 0)
(0.17903 0.170725 0)
(0.184111 0.213196 0)
(0.1697 0.229344 0)
(-0.200252 0.480178 0)
(-0.211908 0.475094 0)
(-0.209644 0.469346 0)
(-0.195965 0.462341 0)
(-0.180744 0.450994 0)
(-0.161535 0.440566 0)
(-0.143011 0.427587 0)
(-0.127518 0.414588 0)
(-0.110994 0.399391 0)
(-0.0933898 0.381572 0)
(-0.0724114 0.360675 0)
(-0.0475281 0.333298 0)
(-0.0178053 0.299282 0)
(0.0122951 0.254147 0)
(0.0389087 0.198694 0)
(0.0531793 0.123684 0)
(0.0674271 0.0302141 0)
(0.0793428 -0.0715438 0)
(0.0745085 -0.180586 0)
(0.0555067 -0.285567 0)
(0.0378378 -0.359487 0)
(0.0376358 -0.393801 0)
(0.0477138 -0.409923 0)
(0.0610559 -0.417718 0)
(0.0763237 -0.420038 0)
(0.0896952 -0.425987 0)
(0.10272 -0.426327 0)
(0.109543 -0.420157 0)
(0.111715 -0.396602 0)
(0.119452 -0.356826 0)
(0.133444 -0.308388 0)
(0.15033 -0.249753 0)
(0.163997 -0.181142 0)
(0.181284 -0.108579 0)
(0.188051 -0.0337963 0)
(0.200209 0.0374215 0)
(0.211132 0.105505 0)
(0.219273 0.1728 0)
(0.232454 0.224345 0)
(0.229859 0.236847 0)
(-0.200972 0.462275 0)
(-0.21652 0.454615 0)
(-0.21653 0.438739 0)
(-0.20602 0.43183 0)
(-0.191453 0.435205 0)
(-0.171877 0.438628 0)
(-0.157671 0.444693 0)
(-0.14205 0.449115 0)
(-0.126319 0.453489 0)
(-0.106256 0.455504 0)
(-0.0792601 0.454549 0)
(-0.0468869 0.442297 0)
(-0.0139465 0.411505 0)
(0.0116525 0.348983 0)
(0.0290831 0.243663 0)
(0.037811 0.10426 0)
(0.0378869 -0.0534174 0)
(0.0273068 -0.206021 0)
(0.0129705 -0.31692 0)
(0.00866585 -0.375088 0)
(0.0178713 -0.399731 0)
(0.0306605 -0.411877 0)
(0.044333 -0.416532 0)
(0.0573193 -0.421371 0)
(0.0710262 -0.423617 0)
(0.0834394 -0.430018 0)
(0.0969123 -0.434198 0)
(0.111974 -0.4368 0)
(0.127729 -0.428591 0)
(0.1376 -0.400746 0)
(0.141682 -0.349968 0)
(0.155215 -0.284525 0)
(0.166349 -0.211993 0)
(0.185671 -0.135226 0)
(0.193717 -0.0562039 0)
(0.208602 0.0159058 0)
(0.22057 0.0874253 0)
(0.233827 0.156494 0)
(0.242503 0.219878 0)
(0.260543 0.253614 0)
(-0.200972 -0.462275 0)
(-0.21652 -0.454615 0)
(-0.21653 -0.438739 0)
(-0.20602 -0.43183 0)
(-0.191453 -0.435205 0)
(-0.171877 -0.438628 0)
(-0.157671 -0.444693 0)
(-0.14205 -0.449115 0)
(-0.126319 -0.453489 0)
(-0.106256 -0.455504 0)
(-0.0792601 -0.454549 0)
(-0.0468869 -0.442297 0)
(-0.0139465 -0.411505 0)
(0.0116525 -0.348983 0)
(0.0290831 -0.243663 0)
(0.037811 -0.10426 0)
(0.0378869 0.0534174 0)
(0.0273068 0.206021 0)
(0.0129705 0.31692 0)
(0.00866585 0.375088 0)
(0.0178713 0.399731 0)
(0.0306605 0.411877 0)
(0.044333 0.416532 0)
(0.0573193 0.421371 0)
(0.0710262 0.423617 0)
(0.0834394 0.430018 0)
(0.0969123 0.434198 0)
(0.111974 0.4368 0)
(0.127729 0.428591 0)
(0.1376 0.400746 0)
(0.141682 0.349968 0)
(0.155215 0.284525 0)
(0.166349 0.211993 0)
(0.185671 0.135226 0)
(0.193717 0.0562039 0)
(0.208602 -0.0159058 0)
(0.22057 -0.0874253 0)
(0.233827 -0.156494 0)
(0.242503 -0.219878 0)
(0.260543 -0.253614 0)
(-0.200252 -0.480178 0)
(-0.211908 -0.475094 0)
(-0.209644 -0.469346 0)
(-0.195965 -0.462341 0)
(-0.180744 -0.450994 0)
(-0.161535 -0.440566 0)
(-0.143011 -0.427587 0)
(-0.127518 -0.414588 0)
(-0.110994 -0.399391 0)
(-0.0933898 -0.381572 0)
(-0.0724114 -0.360675 0)
(-0.0475281 -0.333298 0)
(-0.0178053 -0.299282 0)
(0.0122951 -0.254147 0)
(0.0389087 -0.198694 0)
(0.0531793 -0.123684 0)
(0.0674271 -0.0302141 0)
(0.0793428 0.0715438 0)
(0.0745085 0.180586 0)
(0.0555067 0.285567 0)
(0.0378378 0.359487 0)
(0.0376358 0.393801 0)
(0.0477138 0.409923 0)
(0.0610559 0.417718 0)
(0.0763237 0.420038 0)
(0.0896952 0.425987 0)
(0.10272 0.426327 0)
(0.109543 0.420157 0)
(0.111715 0.396602 0)
(0.119452 0.356826 0)
(0.133444 0.308388 0)
(0.15033 0.249753 0)
(0.163997 0.181142 0)
(0.181284 0.108579 0)
(0.188051 0.0337963 0)
(0.200209 -0.0374215 0)
(0.211132 -0.105505 0)
(0.219273 -0.1728 0)
(0.232454 -0.224345 0)
(0.229859 -0.236847 0)
(-0.173547 -0.474993 0)
(-0.180984 -0.472603 0)
(-0.172568 -0.471152 0)
(-0.16036 -0.459752 0)
(-0.154637 -0.437477 0)
(-0.144725 -0.415845 0)
(-0.128009 -0.399084 0)
(-0.107327 -0.382424 0)
(-0.085651 -0.365288 0)
(-0.062722 -0.345462 0)
(-0.0366602 -0.320962 0)
(-0.00788684 -0.289264 0)
(0.0245302 -0.255234 0)
(0.0559308 -0.21573 0)
(0.0847862 -0.171099 0)
(0.11043 -0.121173 0)
(0.130928 -0.0687768 0)
(0.14881 -0.0120714 0)
(0.155784 0.0550508 0)
(0.145148 0.141028 0)
(0.112411 0.246871 0)
(0.0728816 0.341136 0)
(0.0600767 0.389573 0)
(0.067917 0.410513 0)
(0.0830525 0.416865 0)
(0.095839 0.420869 0)
(0.101084 0.415939 0)
(0.0933605 0.396902 0)
(0.0792679 0.362623 0)
(0.0831795 0.321785 0)
(0.103303 0.279814 0)
(0.126838 0.22759 0)
(0.141125 0.163627 0)
(0.157906 0.0959812 0)
(0.162152 0.0254336 0)
(0.170629 -0.0434548 0)
(0.175568 -0.109261 0)
(0.17903 -0.170725 0)
(0.184111 -0.213196 0)
(0.1697 -0.229344 0)
(-0.0651386 -0.480525 0)
(-0.0656278 -0.476575 0)
(-0.0675803 -0.461451 0)
(-0.0709086 -0.441661 0)
(-0.0845557 -0.41805 0)
(-0.0954944 -0.389443 0)
(-0.10194 -0.363051 0)
(-0.0939135 -0.341765 0)
(-0.0760221 -0.32106 0)
(-0.0504687 -0.298861 0)
(-0.0179406 -0.274968 0)
(0.0185923 -0.246511 0)
(0.057498 -0.218736 0)
(0.0948235 -0.191949 0)
(0.127304 -0.165556 0)
(0.153141 -0.137479 0)
(0.174644 -0.104984 0)
(0.194646 -0.0677089 0)
(0.209248 -0.0256588 0)
(0.213439 0.0264048 0)
(0.203379 0.100322 0)
(0.168599 0.204367 0)
(0.116118 0.31724 0)
(0.0880428 0.383259 0)
(0.0918233 0.405975 0)
(0.0981546 0.410949 0)
(0.0904566 0.399738 0)
(0.0635432 0.369147 0)
(0.0429752 0.327858 0)
(0.0474712 0.286864 0)
(0.0642143 0.247181 0)
(0.0864613 0.202208 0)
(0.0991629 0.146089 0)
(0.111208 0.0858401 0)
(0.115384 0.0221457 0)
(0.117347 -0.0426374 0)
(0.119158 -0.10671 0)
(0.1213 -0.167046 0)
(0.119598 -0.206343 0)
(0.10219 -0.217146 0)
(0.218567 -0.462474 0)
(0.199639 -0.453231 0)
(0.171235 -0.440818 0)
(0.14217 -0.416556 0)
(0.105272 -0.386371 0)
(0.0642412 -0.358462 0)
(0.0272028 -0.337804 0)
(0.00269662 -0.317258 0)
(-0.00688096 -0.295249 0)
(-0.000971414 -0.274568 0)
(0.0194233 -0.257307 0)
(0.0513735 -0.237645 0)