/*--------------------------------*- C++ -*----------------------------------*\
| =========                 |                                                 |
| \\      /  F ield         | OpenFOAM: The Open Source CFD Toolbox           |
|  \\    /   O peration     | Version:  v1912                                 |
|   \\  /    A nd           | Website:  www.openfoam.com                      |
|    \\/     M anipulation  |                                                 |
\*---------------------------------------------------------------------------*/
FoamFile
{
    version     2.0;
    format      ascii;
    class       volVectorField;
    location    "9.12";
    object      U;
}
// * * * * * * * * * * * * * * * * * * * * * * * * * * * * * * * * * * * * * //

dimensions      [0 1 -1 0 0 0 0];


internalField   nonuniform List<vector> 
1900
(
(1.01061 1.69788e-06 0)
(0.175146 1.04122e-06 0)
(0.110556 -1.74702e-07 0)
(0.126123 -5.35992e-06 0)
(0.130595 -1.59569e-05 0)
(0.129011 -3.84294e-05 0)
(0.123656 -7.97528e-05 0)
(0.116908 -0.000761548 0)
(0.109754 0.00404229 0)
(0.0944799 0.0118771 0)
(1.01063 5.21471e-06 0)
(0.175149 3.18541e-06 0)
(0.110554 -1.94565e-08 0)
(0.126116 -1.45399e-05 0)
(0.130567 -2.57675e-05 0)
(0.128946 -6.23181e-05 0)
(0.123523 -0.000108381 0)
(0.116456 -0.000272883 0)
(0.109964 0.00236373 0)
(0.10892 0.0114298 0)
(1.01064 -2.5363e-14 0)
(0.175151 -1.99267e-14 0)
(0.110552 -1.07406e-15 0)
(0.126106 3.63423e-16 0)
(0.130536 7.02324e-15 0)
(0.128888 8.03408e-15 0)
(0.123424 2.26493e-14 0)
(0.116625 1.48347e-14 0)
(0.111772 1.61352e-15 0)
(0.116568 -4.23111e-16 0)
(1.01063 -5.21471e-06 0)
(0.175149 -3.18541e-06 0)
(0.110554 1.94565e-08 0)
(0.126116 1.45399e-05 0)
(0.130567 2.57675e-05 0)
(0.128946 6.23181e-05 0)
(0.123523 0.000108381 0)
(0.116456 0.000272883 0)
(0.109964 -0.00236373 0)
(0.10892 -0.0114298 0)
(1.01061 -1.69788e-06 0)
(0.175146 -1.04122e-06 0)
(0.110556 1.74702e-07 0)
(0.126123 5.35992e-06 0)
(0.130595 1.59569e-05 0)
(0.129011 3.84294e-05 0)
(0.123656 7.97528e-05 0)
(0.116908 0.000761548 0)
(0.109754 -0.00404229 0)
(0.0944799 -0.0118771 0)
(0.0979707 0.0376689 0)
(0.1361 0.0523583 0)
(0.183289 0.0776224 0)
(0.258726 0.118925 0)
(0.402612 0.174949 0)
(0.1225 0.0273462 0)
(0.146798 0.0289175 0)
(0.176383 0.0395637 0)
(0.238359 0.0617635 0)
(0.380021 0.103335 0)
(0.132742 3.18802e-15 0)
(0.155705 -1.6572e-14 0)
(0.186833 1.18567e-14 0)
(0.249947 -1.08896e-14 0)
(0.39069 -3.03061e-15 0)
(0.1225 -0.0273462 0)
(0.146798 -0.0289175 0)
(0.176383 -0.0395637 0)
(0.238359 -0.0617635 0)
(0.380021 -0.103335 0)
(0.0979707 -0.0376689 0)
(0.1361 -0.0523583 0)
(0.183289 -0.0776224 0)
(0.258726 -0.118925 0)
(0.402612 -0.174949 0)
(0.849585 0.0314657 0)
(1.10592 -0.0520303 0)
(1.25886 -0.0830755 0)
(1.34268 -0.0953181 0)
(1.43628 -0.106017 0)
(0.821182 -0.0168809 0)
(1.11905 -0.0479827 0)
(1.29071 -0.0593428 0)
(1.37608 -0.0599173 0)
(1.46293 -0.0797441 0)
(0.816992 -3.99021e-15 0)
(1.12303 3.73449e-15 0)
(1.28619 -4.72408e-15 0)
(1.36778 4.67337e-16 0)
(1.44917 4.00752e-15 0)
(0.821182 0.0168809 0)
(1.11905 0.0479827 0)
(1.29071 0.0593428 0)
(1.37608 0.0599173 0)
(1.46293 0.0797441 0)
(0.849585 -0.0314657 0)
(1.10592 0.0520303 0)
(1.25886 0.0830755 0)
(1.34268 0.0953181 0)
(1.43628 0.106017 0)
(1.45635 -0.00990788 0)
(1.48795 0.0629078 0)
(1.48008 0.0236255 0)
(1.50296 -0.00706516 0)
(1.51117 -0.0164103 0)
(1.52384 -0.0139676 0)
(1.53984 -0.0112615 0)
(1.5594 -0.00710944 0)
(1.58181 -0.00184226 0)
(1.60357 -0.00320941 0)
(1.61886 0.000324298 0)
(1.63452 0.00268401 0)
(1.66614 -0.00187509 0)
(1.67941 -0.0057715 0)
(1.66373 -0.00929375 0)
(1.56088 -0.0163899 0)
(1.35933 -0.0149927 0)
(1.25962 -0.00874576 0)
(1.25143 -0.00163594 0)
(1.25016 7.32999e-05 0)
(1.25364 -0.00719986 0)
(1.2439 -0.0199591 0)
(1.21391 -0.0319139 0)
(1.16274 -0.0385343 0)
(1.1007 -0.0430948 0)
(1.04536 -0.0455819 0)
(1.00808 -0.0337545 0)
(0.66843 -0.0282836 0)
(0.346029 -0.0196779 0)
(0.0851622 -0.0136529 0)
(-0.299087 -0.0101613 0)
(-0.398849 -0.00891687 0)
(-0.415965 -0.00928416 0)
(-0.42382 -0.00985068 0)
(-0.432559 -0.0107309 0)
(-0.441631 -0.011391 0)
(-0.450052 -0.0109716 0)
(-0.455535 -0.00974649 0)
(-0.458285 -0.008715 0)
(-0.45884 -0.00804926 0)
(1.47305 -0.0146284 0)
(1.45497 0.0456451 0)
(1.429 0.0442159 0)
(1.46681 0.0103692 0)
(1.47655 -0.00592687 0)
(1.49176 -0.0155315 0)
(1.51233 -0.0204965 0)
(1.53634 -0.0222604 0)
(1.56318 -0.0208868 0)
(1.58865 -0.0225681 0)
(1.60516 -0.0177351 0)
(1.62342 -0.0144109 0)
(1.65716 -0.0158047 0)
(1.6729 -0.0147244 0)
(1.65857 -0.0150272 0)
(1.54702 -0.018811 0)
(1.34278 -0.0168195 0)
(1.24678 -0.0117739 0)
(1.24129 -0.00566078 0)
(1.24572 -0.00370572 0)
(1.25252 -0.00574763 0)
(1.24462 -0.0104741 0)
(1.21885 -0.0160663 0)
(1.17435 -0.0200078 0)
(1.11728 -0.0230795 0)
(1.05361 -0.0230996 0)
(1.00618 -0.016705 0)
(0.662042 -0.0135638 0)
(0.345988 -0.00936403 0)
(0.0873584 -0.00734534 0)
(-0.297174 -0.0049828 0)
(-0.397752 -0.00437044 0)
(-0.415005 -0.00458498 0)
(-0.42323 -0.00489656 0)
(-0.432766 -0.00535236 0)
(-0.442807 -0.00570728 0)
(-0.45183 -0.00552937 0)
(-0.457486 -0.00493706 0)
(-0.460188 -0.00444269 0)
(-0.460622 -0.00410134 0)
(1.47416 -1.51377e-14 0)
(1.45772 -1.82706e-14 0)
(1.42004 -3.89779e-14 0)
(1.45263 -8.06513e-14 0)
(1.46423 -1.01912e-13 0)
(1.48289 -9.64227e-14 0)
(1.50646 -7.09177e-14 0)
(1.5323 -6.20839e-14 0)
(1.56011 -6.17496e-14 0)
(1.58567 -4.44198e-14 0)
(1.60194 -2.13482e-14 0)
(1.62069 -2.4906e-14 0)
(1.6551 -1.0798e-13 0)
(1.67124 -7.27441e-14 0)
(1.65669 -3.13885e-14 0)
(1.54216 8.39626e-14 0)
(1.33672 2.18291e-14 0)
(1.24249 -1.18154e-13 0)
(1.23867 -1.98292e-14 0)
(1.24466 3.62343e-14 0)
(1.25254 -1.49874e-13 0)
(1.24497 -9.68949e-14 0)
(1.21593 -7.80319e-13 0)
(1.1691 -1.4785e-12 0)
(1.11107 7.05264e-14 0)
(1.04926 4.46348e-13 0)
(1.00678 2.78533e-13 0)
(0.666135 3.02785e-13 0)
(0.350758 -1.0915e-12 0)
(0.0894901 -6.54717e-13 0)
(-0.296694 3.64588e-13 0)
(-0.397356 6.99676e-13 0)
(-0.414517 6.04617e-13 0)
(-0.422595 2.74809e-13 0)
(-0.431916 2.06226e-13 0)
(-0.441789 -3.93394e-14 0)
(-0.450787 -2.40484e-13 0)
(-0.456579 -6.01457e-14 0)
(-0.459506 1.30286e-13 0)
(-0.460241 2.56015e-14 0)
(1.47305 0.0146284 0)
(1.45497 -0.0456451 0)
(1.429 -0.0442159 0)
(1.46681 -0.0103692 0)
(1.47655 0.00592687 0)
(1.49176 0.0155315 0)
(1.51233 0.0204965 0)
(1.53634 0.0222604 0)
(1.56318 0.0208868 0)
(1.58865 0.0225681 0)
(1.60516 0.0177351 0)
(1.62342 0.0144109 0)
(1.65716 0.0158047 0)
(1.6729 0.0147244 0)
(1.65857 0.0150272 0)
(1.54702 0.018811 0)
(1.34278 0.0168195 0)
(1.24678 0.0117739 0)
(1.24129 0.00566078 0)
(1.24572 0.00370572 0)
(1.25252 0.00574763 0)
(1.24462 0.0104741 0)
(1.21885 0.0160663 0)
(1.17435 0.0200078 0)
(1.11728 0.0230795 0)
(1.05361 0.0230996 0)
(1.00618 0.016705 0)
(0.662042 0.0135638 0)
(0.345988 0.00936403 0)
(0.0873584 0.00734534 0)
(-0.297174 0.0049828 0)
(-0.397752 0.00437044 0)
(-0.415005 0.00458498 0)
(-0.42323 0.00489656 0)
(-0.432766 0.00535236 0)
(-0.442807 0.00570728 0)
(-0.45183 0.00552937 0)
(-0.457486 0.00493706 0)
(-0.460188 0.00444269 0)
(-0.460622 0.00410134 0)
(1.45635 0.00990788 0)
(1.48795 -0.0629078 0)
(1.48008 -0.0236255 0)
(1.50296 0.00706516 0)
(1.51117 0.0164103 0)
(1.52384 0.0139676 0)
(1.53984 0.0112615 0)
(1.5594 0.00710944 0)
(1.58181 0.00184226 0)
(1.60357 0.00320941 0)
(1.61886 -0.000324298 0)
(1.63452 -0.00268401 0)
(1.66614 0.00187509 0)
(1.67941 0.0057715 0)
(1.66373 0.00929375 0)
(1.56088 0.0163899 0)
(1.35933 0.0149927 0)
(1.25962 0.00874576 0)
(1.25143 0.00163594 0)
(1.25016 -7.32999e-05 0)
(1.25364 0.00719986 0)
(1.2439 0.0199591 0)
(1.21391 0.0319139 0)
(1.16274 0.0385343 0)
(1.1007 0.0430948 0)
(1.04536 0.0455819 0)
(1.00808 0.0337545 0)
(0.66843 0.0282836 0)
(0.346029 0.0196779 0)
(0.0851622 0.0136529 0)
(-0.299087 0.0101613 0)
(-0.398849 0.00891687 0)
(-0.415965 0.00928416 0)
(-0.42382 0.00985068 0)
(-0.432559 0.0107309 0)
(-0.441631 0.011391 0)
(-0.450052 0.0109716 0)
(-0.455535 0.00974649 0)
(-0.458285 0.008715 0)
(-0.45884 0.00804926 0)
(1.57659 -0.0870822 0)
(1.58931 -0.0764544 0)
(1.59436 -0.0619429 0)
(1.59357 -0.0403639 0)
(1.60338 -0.00279387 0)
(1.60615 0.0288786 0)
(1.60972 0.0556966 0)
(1.61593 0.071521 0)
(1.62563 0.0770258 0)
(1.63601 0.0846127 0)
(1.64648 0.0748446 0)
(1.65721 0.0616277 0)
(1.67971 0.0683013 0)
(1.69172 0.0600218 0)
(1.67022 0.0481671 0)
(1.59023 0.0506507 0)
(1.39059 0.046569 0)
(1.28647 0.0389101 0)
(1.26935 0.0274654 0)
(1.25895 0.019481 0)
(1.25435 0.023446 0)
(1.2415 0.0417387 0)
(1.21007 0.0677755 0)
(1.15661 0.0886676 0)
(1.09928 0.0913653 0)
(1.04999 0.0840956 0)
(1.01578 0.0654949 0)
(0.680856 0.0572817 0)
(0.359308 0.0475036 0)
(0.0881549 0.0323668 0)
(-0.302841 0.022056 0)
(-0.398872 0.0193861 0)
(-0.415777 0.0199477 0)
(-0.423561 0.0205843 0)
(-0.431627 0.0217376 0)
(-0.439374 0.0227634 0)
(-0.446594 0.0220735 0)
(-0.451485 0.0198291 0)
(-0.454285 0.0178693 0)
(-0.4551 0.0164843 0)
(1.69049 0.00294413 0)
(1.69049 -0.00139738 0)
(1.69231 0.00232568 0)
(1.69423 0.00962521 0)
(1.69354 0.00354125 0)
(1.69204 0.00903415 0)
(1.68981 0.0225773 0)
(1.68579 0.0245902 0)
(1.68445 0.0296728 0)
(1.68539 0.0465619 0)
(1.68605 0.0505906 0)
(1.68904 0.0476656 0)
(1.70203 0.0614059 0)
(1.71053 0.0589378 0)
(1.6852 0.0446107 0)
(1.62364 0.040055 0)
(1.42537 0.0368614 0)
(1.31554 0.0337916 0)
(1.28577 0.0297869 0)
(1.26691 0.0290494 0)
(1.25496 0.044574 0)
(1.2307 0.0789873 0)
(1.18975 0.123794 0)
(1.13128 0.151955 0)
(1.07689 0.151413 0)
(1.02944 0.147379 0)
(0.991305 0.116731 0)
(0.649481 0.106842 0)
(0.333231 0.0998807 0)
(0.0616005 0.0644895 0)
(-0.315055 0.0396581 0)
(-0.398424 0.0356134 0)
(-0.414725 0.0365607 0)
(-0.422583 0.0373009 0)
(-0.430298 0.0386272 0)
(-0.437106 0.0399419 0)
(-0.44354 0.0391714 0)
(-0.448235 0.0359747 0)
(-0.45151 0.0328513 0)
(-0.453222 0.0301945 0)
(1.72772 0.0785007 0)
(1.72967 0.061189 0)
(1.72899 0.065818 0)
(1.72492 0.082615 0)
(1.72164 0.0801453 0)
(1.71839 0.0819504 0)
(1.71427 0.0923091 0)
(1.71125 0.0839675 0)
(1.70925 0.085183 0)
(1.70589 0.105164 0)
(1.70102 0.104114 0)
(1.69856 0.103887 0)
(1.69993 0.134484 0)
(1.70279 0.132858 0)
(1.67977 0.0813529 0)
(1.62238 0.0558858 0)
(1.41895 0.0755999 0)
(1.31046 0.0800876 0)
(1.27723 0.0825938 0)
(1.25744 0.0775603 0)
(1.24616 0.0872386 0)
(1.22659 0.133902 0)
(1.18442 0.193661 0)
(1.12286 0.22417 0)
(1.06242 0.221972 0)
(1.00494 0.215422 0)
(0.953701 0.171081 0)
(0.607156 0.155211 0)
(0.299171 0.137679 0)
(0.0224642 0.0868335 0)
(-0.329437 0.0516014 0)
(-0.396697 0.0508152 0)
(-0.412168 0.0524957 0)
(-0.420769 0.0538214 0)
(-0.428992 0.0554298 0)
(-0.435804 0.0569567 0)
(-0.441651 0.0560035 0)
(-0.445848 0.0519825 0)
(-0.449176 0.047916 0)
(-0.451435 0.0438156 0)
(1.71866 0.142135 0)
(1.72008 0.139324 0)
(1.72205 0.138618 0)
(1.7159 0.139045 0)
(1.70868 0.128181 0)
(1.70279 0.12728 0)
(1.69824 0.133669 0)
(1.69794 0.119512 0)
(1.69779 0.114728 0)
(1.69586 0.130718 0)
(1.69558 0.126782 0)
(1.69696 0.126628 0)
(1.69284 0.157892 0)
(1.67093 0.14593 0)
(1.65092 0.115289 0)
(1.5762 0.0933814 0)
(1.38732 0.0997733 0)
(1.306 0.104384 0)
(1.27066 0.109146 0)
(1.24758 0.105103 0)
(1.22546 0.122908 0)
(1.1868 0.187641 0)
(1.13176 0.25901 0)
(1.06623 0.28917 0)
(1.01115 0.284317 0)
(0.961401 0.273262 0)
(0.899373 0.216237 0)
(0.561732 0.193148 0)
(0.255897 0.155711 0)
(-0.0280882 0.0813079 0)
(-0.344432 0.0545795 0)
(-0.395861 0.0540174 0)
(-0.409967 0.0597533 0)
(-0.419062 0.0650653 0)
(-0.428258 0.0705883 0)
(-0.436238 0.0735947 0)
(-0.442371 0.0726342 0)
(-0.446124 0.0680792 0)
(-0.448919 0.0633761 0)
(-0.451191 0.0578364 0)
(1.68034 0.183028 0)
(1.68084 0.179701 0)
(1.68194 0.188114 0)
(1.68518 0.192766 0)
(1.69006 0.18367 0)
(1.6916 0.183433 0)
(1.69056 0.182207 0)
(1.69386 0.169626 0)
(1.69295 0.171936 0)
(1.6879 0.179254 0)
(1.68957 0.165295 0)
(1.69296 0.178691 0)
(1.66311 0.19375 0)
(1.63243 0.164655 0)
(1.60884 0.138677 0)
(1.5239 0.119798 0)
(1.36064 0.127419 0)
(1.30816 0.137141 0)
(1.26855 0.145119 0)
(1.23475 0.147003 0)
(1.19332 0.181361 0)
(1.13396 0.264905 0)
(1.06719 0.336002 0)
(1.00407 0.355894 0)
(0.957619 0.337937 0)
(0.916413 0.314113 0)
(0.831372 0.243735 0)
(0.48246 0.176918 0)
(0.183638 0.112579 0)
(-0.098762 0.0336685 0)
(-0.348031 0.000595434 0)
(-0.384509 0.0200504 0)
(-0.398585 0.0412015 0)
(-0.410823 0.0588596 0)
(-0.421042 0.0733058 0)
(-0.430003 0.0826979 0)
(-0.436997 0.0866003 0)
(-0.441862 0.0829164 0)
(-0.444674 0.0780423 0)
(-0.447071 0.071435 0)
(1.636 0.226809 0)
(1.63575 0.226727 0)
(1.6341 0.233783 0)
(1.63693 0.23183 0)
(1.64252 0.224155 0)
(1.6456 0.225058 0)
(1.64975 0.216841 0)
(1.6522 0.20843 0)
(1.65234 0.220472 0)
(1.65174 0.216286 0)
(1.66296 0.206335 0)
(1.65883 0.224672 0)
(1.62957 0.214954 0)
(1.60503 0.184627 0)
(1.56631 0.159983 0)
(1.46133 0.159074 0)
(1.34697 0.157657 0)
(1.29998 0.177893 0)
(1.25254 0.191549 0)
(1.20687 0.201902 0)
(1.14577 0.2642 0)
(1.06832 0.363404 0)
(0.992828 0.404413 0)
(0.93759 0.399936 0)
(0.89398 0.372147 0)
(0.860268 0.331192 0)
(0.68437 0.188315 0)
(0.351826 0.042472 0)
(0.0848461 -0.0139072 0)
(-0.173181 -0.0992602 0)
(-0.333636 -0.110022 0)
(-0.353516 -0.069438 0)
(-0.367739 -0.0286755 0)
(-0.384365 0.0117807 0)
(-0.401041 0.0486285 0)
(-0.418467 0.0755014 0)
(-0.430551 0.090473 0)
(-0.438843 0.0954375 0)
(-0.44448 0.093011 0)
(-0.447789 0.0858216 0)
(1.58797 0.266753 0)
(1.58747 0.268818 0)
(1.58599 0.273561 0)
(1.58768 0.271268 0)
(1.59109 0.266743 0)
(1.59353 0.266244 0)
(1.59806 0.258413 0)
(1.60084 0.252236 0)
(1.60107 0.259744 0)
(1.60394 0.258605 0)
(1.62403 0.258356 0)
(1.61678 0.265914 0)
(1.58175 0.244729 0)
(1.5573 0.203063 0)
(1.50878 0.18403 0)
(1.40013 0.186064 0)
(1.31951 0.194595 0)
(1.27024 0.221205 0)
(1.21708 0.234282 0)
(1.15795 0.280404 0)
(1.06802 0.365565 0)
(0.980498 0.444141 0)
(0.898046 0.458588 0)
(0.85763 0.415075 0)
(0.812869 0.335403 0)
(0.771759 0.226146 0)
(0.495262 0.043083 0)
(0.219673 -0.0524417 0)
(0.022043 -0.140378 0)
(-0.226699 -0.19352 0)
(-0.306454 -0.173746 0)
(-0.317358 -0.134589 0)
(-0.328778 -0.0946447 0)
(-0.343373 -0.0518407 0)
(-0.362721 -0.00533771 0)
(-0.384882 0.0407142 0)
(-0.406911 0.0775115 0)
(-0.426413 0.0975209 0)
(-0.437897 0.105081 0)
(-0.44513 0.100355 0)
(1.53788 0.30948 0)
(1.53725 0.311697 0)
(1.53649 0.313341 0)
(1.53761 0.310587 0)
(1.53923 0.30901 0)
(1.5412 0.307172 0)
(1.54572 0.3006 0)
(1.54901 0.299207 0)
(1.54801 0.30204 0)
(1.5506 0.294367 0)
(1.56356 0.28874 0)
(1.54601 0.282723 0)
(1.50918 0.25279 0)
(1.48653 0.239685 0)
(1.42098 0.229096 0)
(1.33769 0.223536 0)
(1.27855 0.244875 0)
(1.22263 0.291086 0)
(1.15694 0.299465 0)
(1.061 0.365193 0)
(0.938153 0.479423 0)
(0.845896 0.478203 0)
(0.791303 0.403887 0)
(0.73926 0.296951 0)
(0.700903 0.191677 0)
(0.640602 0.0728153 0)
(0.404123 -0.03861 0)
(0.157967 -0.13353 0)
(-0.0436201 -0.188223 0)
(-0.245024 -0.229382 0)
(-0.27553 -0.196763 0)
(-0.284971 -0.159902 0)
(-0.294249 -0.123442 0)
(-0.303893 -0.0854316 0)
(-0.320945 -0.0438529 0)
(-0.34123 0.00190597 0)
(-0.367812 0.0479595 0)
(-0.398638 0.0869019 0)
(-0.423543 0.111299 0)
(-0.442816 0.116491 0)
(1.47885 0.346906 0)
(1.47833 0.348274 0)
(1.47855 0.347176 0)
(1.47969 0.344195 0)
(1.48075 0.342846 0)
(1.4829 0.341096 0)
(1.48633 0.336527 0)
(1.48756 0.341128 0)
(1.48777 0.34656 0)
(1.49475 0.342891 0)
(1.49849 0.342055 0)
(1.47151 0.330924 0)
(1.44529 0.30177 0)
(1.39894 0.26204 0)
(1.32681 0.254162 0)
(1.26559 0.29695 0)
(1.2093 0.317786 0)
(1.13196 0.302875 0)
(1.01884 0.380492 0)
(0.863062 0.467967 0)
(0.758219 0.432881 0)
(0.693959 0.352484 0)
(0.653928 0.249209 0)
(0.634914 0.162118 0)
(0.623775 0.0948745 0)
(0.549274 0.0162982 0)
(0.348469 -0.0932327 0)
(0.104657 -0.148027 0)
(-0.112265 -0.219453 0)
(-0.237908 -0.240428 0)
(-0.245303 -0.20314 0)
(-0.252917 -0.163766 0)
(-0.261321 -0.127535 0)
(-0.268945 -0.0907772 0)
(-0.279398 -0.0520749 0)
(-0.299956 -0.0130485 0)
(-0.320495 0.030989 0)
(-0.356287 0.0724835 0)
(-0.392377 0.111121 0)
(-0.428109 0.131556 0)
(1.40634 0.381816 0)
(1.4063 0.382463 0)
(1.40751 0.381661 0)
(1.40959 0.381785 0)
(1.4128 0.382303 0)
(1.41707 0.382438 0)
(1.41953 0.385183 0)
(1.41777 0.388458 0)
(1.41911 0.378263 0)
(1.41849 0.368986 0)
(1.40663 0.359681 0)
(1.37817 0.334444 0)
(1.34216 0.316004 0)
(1.29443 0.327527 0)
(1.23364 0.327755 0)
(1.15905 0.300852 0)
(1.05924 0.309856 0)
(0.912752 0.371171 0)
(0.735269 0.397033 0)
(0.642002 0.351742 0)
(0.596679 0.289819 0)
(0.575122 0.225324 0)
(0.564489 0.17061 0)
(0.568402 0.112806 0)
(0.578851 0.0378769 0)
(0.491676 -0.0476785 0)
(0.266447 -0.0900686 0)
(0.0388219 -0.17835 0)
(-0.152181 -0.250021 0)
(-0.210654 -0.238324 0)
(-0.212359 -0.203445 0)
(-0.220416 -0.165334 0)
(-0.226251 -0.126659 0)
(-0.235445 -0.0880122 0)
(-0.240154 -0.0461544 0)
(-0.262037 -0.00470905 0)
(-0.276915 0.039614 0)
(-0.311029 0.0802136 0)
(-0.347237 0.119851 0)
(-0.393014 0.13941 0)
(1.31918 0.402319 0)
(1.31956 0.403847 0)
(1.32244 0.405021 0)
(1.32651 0.406169 0)
(1.33101 0.407496 0)
(1.33674 0.406717 0)
(1.33741 0.407027 0)
(1.33058 0.410361 0)
(1.31318 0.399937 0)
(1.29648 0.3738 0)
(1.27099 0.342582 0)
(1.23009 0.308665 0)
(1.18284 0.287612 0)
(1.12582 0.259246 0)
(1.04323 0.258224 0)
(0.904512 0.265932 0)
(0.731175 0.286061 0)
(0.589719 0.292184 0)
(0.515331 0.285371 0)
(0.492954 0.26686 0)
(0.492239 0.234113 0)
(0.499696 0.185107 0)
(0.524706 0.120979 0)
(0.533868 0.0539883 0)
(0.51433 -0.000977007 0)
(0.405413 -0.0503646 0)
(0.178962 -0.136666 0)
(-0.0340536 -0.23208 0)
(-0.153018 -0.262441 0)
(-0.174648 -0.235438 0)
(-0.176104 -0.200426 0)
(-0.185279 -0.161717 0)
(-0.188735 -0.11949 0)
(-0.198163 -0.0784829 0)
(-0.199219 -0.0351646 0)
(-0.219095 0.00908137 0)
(-0.235356 0.0572067 0)
(-0.265149 0.100923 0)
(-0.294606 0.133385 0)
(-0.336882 0.143013 0)
(1.20955 0.440368 0)
(1.21083 0.440221 0)
(1.21562 0.440807 0)
(1.21902 0.439355 0)
(1.20656 0.433276 0)
(1.18776 0.41264 0)
(1.17523 0.379276 0)
(1.15987 0.332519 0)
(1.15438 0.284066 0)
(1.1186 0.230677 0)
(1.07618 0.185984 0)
(1.02111 0.150521 0)
(0.934847 0.129356 0)
(0.81123 0.129755 0)
(0.675512 0.176989 0)
(0.533586 0.22266 0)
(0.431473 0.268911 0)
(0.398064 0.277654 0)
(0.397253 0.264534 0)
(0.414431 0.233569 0)
(0.444353 0.187049 0)
(0.467735 0.125863 0)
(0.477762 0.0716091 0)
(0.46757 0.0335843 0)
(0.437269 -0.0329696 0)
(0.313017 -0.119451 0)
(0.0997732 -0.226313 0)
(-0.0754975 -0.276732 0)
(-0.128092 -0.267972 0)
(-0.137777 -0.236308 0)
(-0.136778 -0.202378 0)
(-0.147152 -0.165901 0)
(-0.148442 -0.123747 0)
(-0.156729 -0.0800424 0)
(-0.155201 -0.0316581 0)
(-0.171457 0.0221898 0)
(-0.188369 0.0787727 0)
(-0.211091 0.124386 0)
(-0.232833 0.151327 0)
(-0.268114 0.157309 0)
(1.05195 0.464314 0)
(1.05589 0.459228 0)
(1.04272 0.436007 0)
(1.02313 0.396296 0)
(0.999756 0.341903 0)
(0.972665 0.28241 0)
(0.937877 0.225714 0)
(0.891211 0.176981 0)
(0.847765 0.143813 0)
(0.80252 0.126838 0)
(0.744903 0.118047 0)
(0.665859 0.120867 0)
(0.565279 0.150469 0)
(0.45364 0.192476 0)
(0.363531 0.240992 0)
(0.310468 0.266554 0)
(0.296683 0.267526 0)
(0.310835 0.251871 0)
(0.345523 0.221037 0)
(0.383605 0.177344 0)
(0.407612 0.129018 0)
(0.41139 0.0920055 0)
(0.409942 0.0434794 0)
(0.405278 -0.0284368 0)
(0.356888 -0.114571 0)
(0.211688 -0.224099 0)
(0.047935 -0.299705 0)
(-0.0691833 -0.301955 0)
(-0.0962229 -0.27206 0)
(-0.1029 -0.239727 0)
(-0.0978725 -0.203087 0)
(-0.105934 -0.163395 0)
(-0.105196 -0.119407 0)
(-0.113307 -0.0731616 0)
(-0.109691 -0.023479 0)
(-0.120873 0.0323283 0)
(-0.131409 0.090121 0)
(-0.147186 0.137178 0)
(-0.162696 0.163118 0)
(-0.19311 0.166964 0)
(0.831321 0.452072 0)
(0.808105 0.426383 0)
(0.768055 0.378111 0)
(0.72271 0.320026 0)
(0.686128 0.269953 0)
(0.649699 0.242421 0)
(0.604808 0.233948 0)
(0.547579 0.226047 0)
(0.48188 0.21226 0)
(0.415351 0.194412 0)
(0.349772 0.1921 0)
(0.294113 0.210704 0)
(0.256008 0.234767 0)
(0.229166 0.245409 0)
(0.218982 0.243667 0)
(0.226913 0.236979 0)
(0.252752 0.222174 0)
(0.288577 0.197606 0)
(0.319736 0.165163 0)
(0.340769 0.129878 0)
(0.351028 0.09246 0)
(0.358071 0.0394499 0)
(0.353814 -0.0260444 0)
(0.325291 -0.112364 0)
(0.243406 -0.226312 0)
(0.13546 -0.325683 0)
(0.0395167 -0.340066 0)
(-0.0370304 -0.31207 0)
(-0.0612616 -0.27496 0)
(-0.0682063 -0.242809 0)
(-0.0610826 -0.208548 0)
(-0.0637165 -0.16935 0)
(-0.0603144 -0.126028 0)
(-0.066623 -0.07895 0)
(-0.0609247 -0.0256143 0)
(-0.0683367 0.0359987 0)
(-0.0713209 0.100978 0)
(-0.0811581 0.153674 0)
(-0.0909179 0.180423 0)
(-0.11573 0.186245 0)
(0.488932 0.447351 0)
(0.454997 0.4169 0)
(0.413978 0.386962 0)
(0.372155 0.35876 0)
(0.326252 0.329554 0)
(0.27641 0.302345 0)
(0.225477 0.282021 0)
(0.177818 0.26568 0)
(0.137412 0.251791 0)
(0.111034 0.244261 0)
(0.102963 0.240526 0)
(0.112468 0.239897 0)
(0.131374 0.234308 0)
(0.153023 0.222272 0)
(0.17865 0.207591 0)
(0.208069 0.19236 0)
(0.236014 0.173832 0)
(0.259213 0.149543 0)
(0.277695 0.120254 0)
(0.293302 0.0812491 0)
(0.304643 0.0292068 0)
(0.299857 -0.0316001 0)
(0.273762 -0.115846 0)
(0.215742 -0.236372 0)
(0.138601 -0.334648 0)
(0.111223 -0.371016 0)
(0.0625745 -0.362029 0)
(0.00341752 -0.327357 0)
(-0.0264059 -0.289605 0)
(-0.0324445 -0.25194 0)
(-0.0233543 -0.212562 0)
(-0.0186673 -0.170214 0)
(-0.012514 -0.124214 0)
(-0.014289 -0.0737277 0)
(-0.00892378 -0.0211155 0)
(-0.0131161 0.0392096 0)
(-0.00863933 0.103745 0)
(-0.0128025 0.156925 0)
(-0.0181688 0.186468 0)
(-0.0387886 0.19424 0)
(0.11451 0.464028 0)
(0.107867 0.448237 0)
(0.0887873 0.432022 0)
(0.0685559 0.403095 0)
(0.037426 0.370851 0)
(0.00782935 0.342211 0)
(-0.0148465 0.318743 0)
(-0.0239273 0.298265 0)
(-0.0185981 0.279129 0)
(-2.47564e-05 0.262732 0)
(0.0303649 0.246337 0)
(0.0675331 0.226241 0)
(0.105155 0.208351 0)
(0.138032 0.191499 0)
(0.165674 0.173502 0)
(0.188216 0.154244 0)
(0.208391 0.130358 0)
(0.225917 0.0998948 0)
(0.241505 0.0602025 0)
(0.247626 0.012819 0)
(0.242206 -0.0479915 0)
(0.21745 -0.135806 0)
(0.166885 -0.249652 0)
(0.116264 -0.342787 0)
(0.101157 -0.379424 0)
(0.106563 -0.389274 0)
(0.0888535 -0.380317 0)
(0.0447298 -0.347857 0)
(0.0115159 -0.307642 0)
(0.00301806 -0.271526 0)
(0.0141971 -0.233204 0)
(0.0292893 -0.188184 0)
(0.0397985 -0.137251 0)
(0.0449419 -0.0832358 0)
(0.0507752 -0.0266185 0)
(0.0485183 0.0359833 0)
(0.0545741 0.10473 0)
(0.0542972 0.16537 0)
(0.050789 0.199493 0)
(0.02991 0.208836 0)
(-0.116728 0.471431 0)
(-0.112825 0.464142 0)
(-0.109365 0.444036 0)
(-0.107025 0.419416 0)
(-0.115031 0.392681 0)
(-0.115722 0.365728 0)
(-0.10882 0.343664 0)
(-0.091005 0.324661 0)
(-0.0661227 0.303934 0)
(-0.0355473 0.28128 0)
(0.000318234 0.256326 0)
(0.0387039 0.227728 0)
(0.0780713 0.201977 0)
(0.112203 0.178136 0)
(0.137561 0.153677 0)
(0.154645 0.12364 0)
(0.172447 0.0865811 0)
(0.186417 0.0425607 0)
(0.192197 -0.00934824 0)
(0.184706 -0.0762511 0)
(0.158659 -0.16739 0)
(0.114232 -0.273218 0)
(0.0808032 -0.350146 0)
(0.0807738 -0.384341 0)
(0.0942017 -0.397293 0)
(0.10517 -0.402145 0)
(0.104297 -0.396914 0)
(0.0809695 -0.372141 0)
(0.0520612 -0.332086 0)
(0.0440604 -0.28885 0)
(0.0579747 -0.247896 0)
(0.0807878 -0.204642 0)
(0.0939377 -0.149762 0)
(0.106801 -0.0896322 0)
(0.111987 -0.025311 0)
(0.114843 0.0400116 0)
(0.117831 0.105297 0)
(0.119156 0.168299 0)
(0.117122 0.209915 0)
(0.0977 0.221264 0)
(-0.189884 0.473255 0)
(-0.196212 0.464145 0)
(-0.186498 0.457159 0)
(-0.172569 0.442749 0)
(-0.161775 0.42195 0)
(-0.144654 0.403131 0)
(-0.123222 0.386087 0)
(-0.100261 0.369028 0)
(-0.0766126 0.349937 0)
(-0.0517664 0.326038 0)
(-0.0230039 0.29795 0)
(0.00871818 0.264739 0)
(0.0425587 0.229179 0)
(0.0715286 0.18668 0)
(0.0959862 0.138397 0)
(0.113465 0.0862585 0)
(0.127691 0.0302942 0)
(0.133277 -0.0342482 0)
(0.127454 -0.113292 0)
(0.103543 -0.208275 0)
(0.0685651 -0.301431 0)
(0.0498933 -0.360074 0)
(0.0555597 -0.386668 0)
(0.0695502 -0.400622 0)
(0.086327 -0.404362 0)
(0.1005 -0.409918 0)
(0.108908 -0.407976 0)
(0.104811 -0.395556 0)
(0.0892091 -0.365223 0)
(0.0827469 -0.322732 0)
(0.0996485 -0.279539 0)
(0.122986 -0.229546 0)
(0.138481 -0.167517 0)
(0.157021 -0.100961 0)
(0.160823 -0.0297543 0)
(0.171135 0.0397801 0)
(0.176665 0.107008 0)
(0.179312 0.170926 0)
(0.182997 0.215125 0)
(0.166062 0.231121 0)
(-0.202768 0.485089 0)
(-0.218059 0.475564 0)
(-0.215206 0.463451 0)
(-0.199735 0.454101 0)
(-0.18168 0.444539 0)
(-0.160041 0.434226 0)
(-0.141989 0.419499 0)
(-0.12445 0.403589 0)
(-0.106384 0.385025 0)
(-0.0865069 0.363459 0)
(-0.0615648 0.338599 0)
(-0.0327944 0.305843 0)
(-0.00138739 0.264831 0)
(0.0251356 0.21342 0)
(0.038189 0.144018 0)
(0.0488274 0.055027 0)
(0.0579498 -0.0423028 0)
(0.0562248 -0.145082 0)
(0.0442377 -0.245053 0)
(0.0299212 -0.323213 0)
(0.0267946 -0.367036 0)
(0.0349773 -0.388713 0)
(0.0485987 -0.399444 0)
(0.063157 -0.405783 0)
(0.0792421 -0.408326 0)
(0.0930722 -0.414974 0)
(0.106718 -0.416701 0)
(0.115631 -0.414087 0)
(0.118334 -0.3946 0)
(0.121211 -0.357764 0)
(0.134175 -0.310665 0)
(0.149149 -0.253186 0)
(0.163708 -0.184769 0)
(0.182597 -0.11272 0)
(0.188394 -0.0373429 0)
(0.202851 0.0342917 0)
(0.214347 0.102944 0)
(0.221058 0.1716 0)
(0.231565 0.223425 0)
(0.232743 0.241437 0)
(-0.203413 0.461174 0)
(-0.226358 0.45285 0)
(-0.225202 0.439059 0)
(-0.211019 0.434228 0)
(-0.192027 0.438453 0)
(-0.172976 0.442018 0)
(-0.157286 0.448623 0)
(-0.141037 0.451926 0)
(-0.122414 0.453077 0)
(-0.0972266 0.450932 0)
(-0.0653956 0.441784 0)
(-0.0327665 0.414416 0)
(-0.0060136 0.358676 0)
(0.0110803 0.261921 0)
(0.0196368 0.131049 0)
(0.0196142 -0.0166471 0)
(0.0120409 -0.163007 0)
(0.00218535 -0.276579 0)
(-0.00236238 -0.344037 0)
(0.00547049 -0.375848 0)
(0.0179945 -0.391865 0)
(0.0316949 -0.399916 0)
(0.0454942 -0.405009 0)
(0.0586174 -0.410638 0)
(0.0725071 -0.413229 0)
(0.0851686 -0.419592 0)
(0.0987897 -0.423246 0)
(0.113603 -0.426147 0)
(0.129735 -0.421499 0)
(0.142235 -0.399346 0)
(0.145596 -0.353104 0)
(0.15647 -0.288544 0)
(0.167281 -0.215575 0)
(0.187861 -0.138488 0)
(0.194848 -0.0594981 0)
(0.211704 0.0121025 0)
(0.223963 0.0828125 0)
(0.235715 0.152375 0)
(0.24758 0.222139 0)
(0.264828 0.258073 0)
(-0.203413 -0.461174 0)
(-0.226358 -0.45285 0)
(-0.225202 -0.439059 0)
(-0.211019 -0.434228 0)
(-0.192027 -0.438453 0)
(-0.172976 -0.442018 0)
(-0.157286 -0.448623 0)
(-0.141037 -0.451926 0)
(-0.122414 -0.453077 0)
(-0.0972266 -0.450932 0)
(-0.0653956 -0.441784 0)
(-0.0327665 -0.414416 0)
(-0.0060136 -0.358676 0)
(0.0110803 -0.261921 0)
(0.0196368 -0.131049 0)
(0.0196142 0.0166471 0)
(0.0120409 0.163007 0)
(0.00218535 0.276579 0)
(-0.00236238 0.344037 0)
(0.00547049 0.375848 0)
(0.0179945 0.391865 0)
(0.0316949 0.399916 0)
(0.0454942 0.405009 0)
(0.0586174 0.410638 0)
(0.0725071 0.413229 0)
(0.0851686 0.419592 0)
(0.0987897 0.423246 0)
(0.113603 0.426147 0)
(0.129735 0.421499 0)
(0.142235 0.399346 0)
(0.145596 0.353104 0)
(0.15647 0.288544 0)
(0.167281 0.215575 0)
(0.187861 0.138488 0)
(0.194848 0.0594981 0)
(0.211704 -0.0121025 0)
(0.223963 -0.0828125 0)
(0.235715 -0.152375 0)
(0.24758 -0.222139 0)
(0.264828 -0.258073 0)
(-0.202768 -0.485089 0)
(-0.218059 -0.475564 0)
(-0.215206 -0.463451 0)
(-0.199735 -0.454101 0)
(-0.18168 -0.444539 0)
(-0.160041 -0.434226 0)
(-0.141989 -0.419499 0)
(-0.12445 -0.403589 0)
(-0.106384 -0.385025 0)
(-0.0865069 -0.363459 0)
(-0.0615648 -0.338599 0)
(-0.0327944 -0.305843 0)
(-0.00138739 -0.264831 0)
(0.0251356 -0.21342 0)
(0.038189 -0.144018 0)
(0.0488274 -0.055027 0)
(0.0579498 0.0423028 0)
(0.0562248 0.145082 0)
(0.0442377 0.245053 0)
(0.0299212 0.323213 0)
(0.0267946 0.367036 0)
(0.0349773 0.388713 0)
(0.0485987 0.399444 0)
(0.063157 0.405783 0)
(0.0792421 0.408326 0)
(0.0930722 0.414974 0)
(0.106718 0.416701 0)
(0.115631 0.414087 0)
(0.118334 0.3946 0)
(0.121211 0.357764 0)
(0.134175 0.310665 0)
(0.149149 0.253186 0)
(0.163708 0.184769 0)
(0.182597 0.11272 0)
(0.188394 0.0373429 0)
(0.202851 -0.0342917 0)
(0.214347 -0.102944 0)
(0.221058 -0.1716 0)
(0.231565 -0.223425 0)
(0.232743 -0.241437 0)
(-0.189884 -0.473255 0)
(-0.196212 -0.464145 0)
(-0.186498 -0.457159 0)
(-0.172569 -0.442749 0)
(-0.161775 -0.42195 0)
(-0.144654 -0.403131 0)
(-0.123222 -0.386087 0)
(-0.100261 -0.369028 0)
(-0.0766126 -0.349937 0)
(-0.0517664 -0.326038 0)
(-0.0230039 -0.29795 0)
(0.00871818 -0.264739 0)
(0.0425587 -0.229179 0)
(0.0715286 -0.18668 0)
(0.0959862 -0.138397 0)
(0.113465 -0.0862585 0)
(0.127691 -0.0302942 0)
(0.133277 0.0342482 0)
(0.127454 0.113292 0)
(0.103543 0.208275 0)
(0.0685651 0.301431 0)
(0.0498933 0.360074 0)
(0.0555597 0.386668 0)
(0.0695502 0.400622 0)
(0.086327 0.404362 0)
(0.1005 0.409918 0)
(0.108908 0.407976 0)
(0.104811 0.395556 0)
(0.0892091 0.365223 0)
(0.0827469 0.322732 0)
(0.0996485 0.279539 0)
(0.122986 0.229546 0)
(0.138481 0.167517 0)
(0.157021 0.100961 0)
(0.160823 0.0297543 0)
(0.171135 -0.0397801 0)
(0.176665 -0.107008 0)
(0.179312 -0.170926 0)
(0.182997 -0.215125 0)
(0.166062 -0.231121 0)
(-0.116728 -0.471431 0)
(-0.112825 -0.464142 0)
(-0.109365 -0.444036 0)
(-0.107025 -0.419416 0)
(-0.115031 -0.392681 0)
(-0.115722 -0.365728 0)
(-0.10882 -0.343664 0)
(-0.091005 -0.324661 0)
(-0.0661227 -0.303934 0)
(-0.0355473 -0.28128 0)
(0.000318234 -0.256326 0)
(0.0387039 -0.227728 0)
(0.0780713 -0.201977 0)
(0.112203 -0.178136 0)
(0.137561 -0.153677 0)
(0.154645 -0.12364 0)
(0.172447 -0.0865811 0)
(0.186417 -0.0425607 0)
(0.192197 0.00934824 0)
(0.184706 0.0762511 0)
(0.158659 0.16739 0)
(0.114232 0.273218 0)
(0.0808032 0.350146 0)
(0.0807738 0.384341 0)
(0.0942017 0.397293 0)
(0.10517 0.402145 0)
(0.104297 0.396914 0)
(0.0809695 0.372141 0)
(0.0520612 0.332086 0)
(0.0440604 0.28885 0)
(0.0579747 0.247896 0)
(0.0807878 0.204642 0)
(0.0939377 0.149762 0)
(0.106801 0.0896322 0)
(0.111987 0.025311 0)
(0.114843 -0.0400116 0)
(0.117831 -0.105297 0)
(0.119156 -0.168299 0)
(0.117122 -0.209915 0)
(0.0977 -0.221264 0)
(0.11451 -0.464028 0)
(0.107867 -0.448237 0)
(0.0887873 -0.432022 0)
(0.0685559 -0.403095 0)
(0.037426 -0.370851 0)
(0.00782935 -0.342211 0)
(-0.0148465 -0.318743 0)
(-0.0239273 -0.298265 0)
(-0.0185981 -0.279129 0)
(-2.47564e-05 -0.262732 0)
(0.0303649 -0.246337 0)
(0.0675331 -0.226241 0)