/*--------------------------------*- C++ -*----------------------------------*\
| =========                 |                                                 |
| \\      /  F ield         | OpenFOAM: The Open Source CFD Toolbox           |
|  \\    /   O peration     | Version:  v1912                                 |
|   \\  /    A nd           | Website:  www.openfoam.com                      |
|    \\/     M anipulation  |                                                 |
\*---------------------------------------------------------------------------*/
FoamFile
{
    version     2.0;
    format      ascii;
    class       scalarField;
    location    "5e-05/lagrangian/dsmc";
    object      Ei;
}
// * * * * * * * * * * * * * * * * * * * * * * * * * * * * * * * * * * * * * //


11991
(
2.479774483e-20
8.993072931e-22
3.371636808e-20
2.651895996e-20
1.421300792e-20
1.582000019e-20
6.642461169e-21
4.079984355e-22
6.642687476e-21
4.407438399e-22
3.248804333e-21
9.57535125e-21
9.801475242e-21
5.838358226e-21
2.246057026e-20
2.916694888e-20
8.994279326e-21
1.313112545e-21
4.73902315e-21
2.074780077e-21
1.609605534e-20
9.257624036e-21
5.291199222e-21
1.169172084e-20
7.010312569e-21
3.694184182e-20
2.326839418e-20
1.064032194e-21
1.664442531e-21
1.661953686e-20
2.189646492e-20
1.404288302e-21
9.696380985e-21
9.794988502e-21
8.922006569e-21
4.194459475e-21
5.333471444e-21
6.909316146e-21
1.296040615e-21
3.565468926e-20
4.602895417e-20
2.740562215e-20
1.01680395e-20
6.43347936e-21
7.1514967e-21
1.361342234e-20
2.459187329e-20
1.985878278e-20
1.943834935e-20
1.688168751e-20
3.067959058e-21
1.864979571e-20
4.434601382e-21
4.024134784e-21
3.11488141e-22
1.105398432e-20
7.090974908e-21
1.842914704e-21
9.92805805e-22
3.453111289e-21
5.424343836e-21
2.901260985e-20
7.632605743e-21
5.101352161e-21
1.563825895e-20
5.335656599e-21
1.564084977e-21
2.472608314e-21
9.074525337e-21
3.229759108e-20
2.032686439e-21
4.040879295e-21
1.595688577e-21
3.594211971e-20
3.355989417e-21
1.440764128e-22
5.696448298e-22
6.658365081e-21
1.291209951e-21
1.194130418e-20
1.358187501e-20
5.105924625e-21
5.521933709e-21
2.389184948e-21
1.485298117e-20
5.538846735e-21
1.110680056e-20
2.095412602e-20
1.300389878e-20
4.981716111e-20
1.867617947e-21
2.090299432e-21
1.230476852e-20
8.120182657e-21
1.362621158e-20
5.853698332e-20
1.014891851e-20
1.100232571e-20
5.650383005e-21
9.51485847e-21
5.220601955e-21
1.38660536e-20
1.542195042e-20
4.432217997e-21
5.265876896e-22
4.968188971e-20
5.177082511e-21
3.975382516e-21
6.133443548e-21
1.015859677e-20
2.629249494e-21
3.166890746e-20
9.637381657e-21
6.283158292e-21
6.095690927e-21
6.801044734e-21
1.629495517e-20
1.547979381e-20
7.445101096e-21
4.647652676e-21
1.492062016e-20
3.558227025e-21
2.202602606e-20
9.937696865e-21
7.608777471e-21
2.868339233e-21
4.733102318e-21
7.381475483e-21
4.727542991e-21
1.180103943e-20
3.089575164e-20
2.667128771e-21
1.700656575e-21
7.339144882e-21
6.88319505e-21
7.190966931e-21
9.2190198e-21
1.734731476e-20
4.061711866e-21
3.864872969e-20
9.322412478e-21
1.384735934e-21
1.453015693e-20
1.17502573e-20
8.886768009e-21
1.60114891e-20
7.809894776e-22
1.285673059e-21
1.781491617e-20
1.930540583e-23
3.978371443e-20
1.944277969e-22
2.302777669e-21
5.402539483e-21
6.768639786e-21
1.358743957e-21
1.248928491e-21
2.407262367e-21
5.289723115e-20
1.813554283e-20
6.421318338e-21
8.799250264e-22
1.709141646e-21
2.942361716e-20
2.51151057e-21
7.889914218e-21
1.082472516e-20
3.327289722e-22
2.086741087e-20
1.838977493e-20
3.710478588e-21
7.888939606e-22
1.502866252e-20
6.233391991e-22
1.185549782e-20
3.282692954e-20
1.317546625e-20
1.044699193e-21
1.126587529e-20
1.310583183e-21
4.910525738e-20
1.997765966e-20
3.408662456e-21
1.897417085e-20
3.507083312e-21
1.391115749e-20
3.84475746e-21
6.25059837e-21
1.167352429e-21
1.00067328e-20
7.723205136e-21
5.9275375e-21
3.094865595e-21
4.486228934e-21
9.400913962e-22
1.189432573e-20
5.013275327e-20
6.019945753e-21
4.697685071e-21
2.232835663e-20
8.968511916e-24
2.974983957e-21
1.250662168e-20
1.734215102e-20
3.281473837e-23
2.125473274e-21
4.830441634e-21
5.915812219e-21
3.61862876e-22
2.669948544e-20
5.101727319e-21
9.157490042e-22
1.683378822e-21
2.335153796e-20
1.787234064e-20
2.969449444e-21
1.769016934e-21
3.620055686e-21
1.337752367e-22
1.714269534e-20
1.311242438e-21
3.015931038e-21
1.453788083e-20
2.050155223e-22
1.830908119e-20
2.463540674e-20
1.618538464e-21
3.783091119e-21
2.097827109e-20
8.809408032e-21
6.242962196e-21
1.083893405e-20
2.080446027e-20
2.820769338e-21
2.95983616e-20
8.114142166e-22
9.402109239e-21
4.2043135e-21
3.44993774e-21
1.783063054e-20
2.383331484e-20
3.23604157e-21
1.73904809e-21
8.626867375e-21
2.236849806e-20
1.337116517e-20
1.688279256e-21
4.152077088e-21
7.818535642e-21
9.102883768e-21
1.40986476e-20
1.300104421e-20
1.387961019e-21
5.665653464e-21
1.381129422e-20
2.711257317e-21
5.604907103e-21
3.433335005e-20
8.081377043e-21
4.925955749e-20
5.279492801e-21
1.587332279e-20
8.35356476e-21
2.555616143e-21
2.690091666e-21
2.204063454e-20
7.408261015e-21
8.455738077e-21
3.487903739e-20
5.729471004e-21
8.095362491e-21
3.141862072e-21
9.786001199e-21
1.634959254e-20
1.286927784e-20
1.718710881e-20
5.08906231e-21
1.35433534e-21
3.149493453e-20
7.309919319e-22
2.68476635e-20
1.475110087e-20
9.83349666e-21
5.413827683e-21
8.003357709e-21
7.427605908e-21
1.069832126e-21
9.910626106e-21
8.16724636e-21
2.514883308e-20
5.803536098e-21
7.8001067e-21
2.396983116e-20
5.39685277e-21
1.561956418e-20
9.046690803e-21
5.884697938e-21
2.766727299e-21
5.990794963e-20
1.808936175e-20
2.388975123e-21
2.191807574e-21
3.60083135e-20
2.10444316e-20
3.352622864e-20
3.327886354e-20
2.512295432e-20
1.980333986e-20
3.94549543e-23
8.536304537e-21
2.086291299e-20
7.164913537e-21
1.038782761e-20
4.121327858e-20
1.263229973e-20
5.537449623e-21
5.789282052e-21
1.089334646e-20
1.874329102e-20
1.472725687e-21
8.496308076e-21
1.527288439e-20
1.505826888e-21
8.312950606e-21
9.709481015e-21
9.778292415e-22
1.793169797e-20
3.718561244e-20
1.616077916e-20
5.617311352e-21
3.76055836e-20
5.812232163e-21
4.0277169e-21
2.841212888e-21
2.978709669e-20
2.735880251e-20
1.441737908e-20
6.980903525e-21
1.695885185e-20
4.371430405e-21
2.127803075e-20
6.816037938e-21
2.815467657e-21
4.255111054e-21
2.512976899e-21
7.759516533e-21
6.350072797e-21
1.772505004e-20
2.088348854e-20
1.967814284e-20
1.375883921e-20
6.144341256e-21
1.867473565e-20
5.963936947e-22
2.019578367e-20
6.256564709e-21
1.91932121e-21
4.235038464e-22
1.452662147e-21
2.125968109e-22
1.506642643e-20
7.017064837e-21
2.241751534e-21
1.958816256e-20
1.321356237e-21
3.108547908e-22
1.787788635e-21
2.768911018e-20
1.435155551e-20
6.042127009e-21
1.773590389e-21
5.888035542e-21
1.093693734e-21
2.605130918e-22
4.259914185e-23
4.805670044e-21
8.30046285e-21
2.450809452e-21
1.429464346e-20
1.243393039e-20
1.271294874e-21
9.904328892e-21
2.414858246e-21
2.210906284e-21
5.821376876e-21
1.149401425e-20
1.607741205e-20
3.350318337e-21
1.340488373e-20
5.905502809e-22
7.116711237e-21
5.137446337e-21
5.892950571e-21
3.308199593e-21
2.299830958e-21
2.701598117e-20
3.229260618e-21
1.49454989e-21
3.627601616e-20
2.828239391e-20
7.895296258e-21
9.760801199e-21
9.531399333e-22
1.977751541e-21
1.428196712e-20
3.318565136e-20
2.077060489e-21
2.449717942e-21
1.400612737e-20
5.000788516e-21
1.744070653e-20
1.717381307e-20
5.203244946e-21
1.099509534e-21
1.324057681e-20
1.272229272e-20
6.744709072e-22
9.713314488e-21
1.424707822e-20
1.797055098e-20
8.608693879e-21
5.141044032e-21
3.996444485e-21
6.279668826e-22
1.180406047e-20
2.584044389e-20
1.22803853e-20
1.163948564e-20
1.780788809e-21
2.465886265e-21
4.219976665e-21
5.682711202e-21
2.82536016e-20
8.023558587e-21
7.152015497e-20
2.203412337e-20
1.524681385e-21
3.350028083e-20
1.846962351e-20
9.428307918e-21
4.548486598e-21
4.100794683e-21
4.024165186e-20
4.602316325e-22
4.203203364e-21
5.844571775e-21
1.687741743e-20
2.266459642e-21
1.444354544e-20
1.100073898e-20
3.200640392e-20
2.942792451e-20
9.526773055e-22
2.980304762e-20
2.339857129e-20
2.627280193e-21
8.717326829e-22
4.757578356e-21
1.748820794e-20
6.815687045e-20
7.621557547e-21
1.440623735e-20
6.268462753e-21
1.704289521e-21
2.080372419e-20
1.090865601e-20
3.406673669e-21
1.498602583e-20
5.374739145e-21
9.045366632e-21
1.323007969e-20
6.941870835e-21
9.245420627e-21
2.310242285e-21
2.090945325e-21
7.125149378e-20
1.133108799e-20
1.0288281e-20
3.086865731e-20
1.476987536e-21
3.377567129e-20
1.530804312e-20
9.872893632e-21
2.989881112e-20
4.316457173e-20
6.263553901e-21
4.601381649e-23
1.566853307e-20
4.207452176e-21
3.930148898e-20
1.487561191e-20
1.456667731e-22
4.246572314e-20
2.024223002e-21
4.21230019e-21
3.680593934e-21
1.360075859e-20
3.209747744e-20
4.243854029e-21
1.994441734e-21
5.325231593e-21
2.822048102e-21
1.230556523e-20
2.013004951e-20
4.534312034e-21
3.549096419e-21
9.603670265e-21
4.643621373e-22
8.629527904e-21
1.719974246e-20
4.760057312e-20
5.179351729e-21
7.795503504e-21
1.780744532e-20
8.951872103e-20
1.361949778e-20
4.133561217e-21
5.053570546e-20
5.972706101e-21
3.168045816e-21
2.203201736e-22
1.715268208e-20
1.506381598e-20
1.723986337e-21
3.409803571e-20
2.30546736e-20
1.325241326e-20
1.785860274e-22
1.332276728e-20
6.176746799e-21
3.83005215e-21
2.339878576e-20
1.953202269e-20
9.968617624e-21
4.78764404e-20
1.189006868e-20
1.42073941e-20
7.082235994e-21
9.119254966e-22
1.211132664e-20
9.095741064e-22
5.400217343e-21
1.404718845e-20
1.203623057e-20
2.245298146e-20
2.272326382e-20
2.219674776e-21
2.411312556e-20
3.015061683e-21
1.354177467e-20
4.755270741e-21
2.112266084e-21
7.510492124e-21
3.732350011e-20
3.406422951e-20
1.272328352e-20
1.572677615e-20
5.389182884e-22
5.138617433e-21
1.485828577e-20
3.23954705e-20
2.188472995e-21
5.099594502e-21
2.141135056e-20
1.876320253e-20
2.65950713e-21
5.394903943e-20
4.917854182e-21
5.212476926e-21
6.237323771e-21
8.112670727e-21
3.221202011e-21
2.986030817e-20
4.033654986e-22
1.294523646e-20
3.483843978e-20
4.368230102e-21
1.691951337e-20
1.041052757e-20
2.412463525e-20
3.047022609e-21
4.402615569e-21
4.217899538e-22
1.431694455e-20
1.278093622e-20
1.811835283e-21
4.3867284e-20
7.850159844e-22
1.119974634e-21
5.977989638e-21
9.918041552e-21
1.687240257e-20
1.770641725e-21
1.126832734e-20
1.199946025e-20
2.473855556e-20
1.398723715e-20
2.905148815e-20
8.326518489e-21
1.030677099e-20
1.701055578e-21
1.366317995e-20
1.820381996e-20
2.036134479e-21
2.55811451e-21
1.467691263e-20
5.782150911e-21
1.00305586e-20
2.381990709e-20
2.716710623e-21
1.151308872e-21
4.082299443e-21
4.192539229e-21
6.133862831e-21
2.839326419e-20
1.892325602e-20
2.524881328e-20
4.836478203e-21
3.778244736e-20
1.735125806e-20
1.465836783e-21
6.649107452e-21
1.363759892e-20
2.910790999e-23
1.943600903e-20
9.357975357e-21
3.02822921e-21
3.179055022e-20
1.106308455e-20
2.488835599e-21
1.482457428e-20
2.083514468e-20
6.315778849e-21
2.033444718e-20
2.974429239e-21
8.063754293e-21
1.782672269e-20
1.170693259e-21
8.59700214e-22
5.465572313e-21
6.116357999e-20
1.198090578e-20
2.663506275e-21
7.575911077e-21
4.115884282e-22
5.598545843e-22
5.335136425e-21
2.104840802e-22
1.820052934e-20
2.623495142e-21
1.370658083e-20
8.412298462e-21
7.899246675e-22
5.404260668e-21
3.353763621e-21
2.630545865e-20
2.166355542e-20
3.416995415e-21
1.420815536e-21
4.459569723e-21
1.499745047e-20
2.130578667e-20
1.495484863e-21
1.651183376e-20
3.201744086e-20
4.230141589e-21
2.357717468e-21
1.516890639e-20
3.287193655e-21
2.206375172e-21
3.865188016e-21
5.070632025e-21
3.886844522e-22
2.370573023e-21
1.384606027e-20
2.513920476e-20
1.726350958e-20
7.81632447e-21
1.346641754e-20
3.209338733e-22
8.944564818e-22
9.404812144e-21
1.010696227e-20
2.068906298e-20
2.822014741e-21
2.027228598e-22
3.123587702e-21
1.4540382e-21
6.150955167e-20
2.001604859e-20
1.413820358e-20
2.537662083e-21
3.19186619e-21
1.490177432e-20
3.201749259e-21
8.671836227e-21
3.96448195e-21
2.098273165e-20
1.436110515e-20
1.513063215e-20
1.998477345e-20
1.42259691e-20
4.45324363e-21
9.464743691e-21
1.050600247e-20
2.37413487e-20
1.489385377e-21
4.035663874e-21
1.360750253e-20
5.846801926e-21
2.863657684e-21
1.066701978e-20
7.748543467e-21
2.484038145e-20
1.117789159e-20
7.022642085e-21
1.276329593e-20
3.874348575e-21
6.041206996e-21
5.254791133e-21
1.29634264e-20
1.072145018e-20
1.348621483e-20
3.252407029e-20
5.564751119e-22
9.316837463e-23
7.539734794e-21
3.25668875e-21
4.893314064e-21
2.043813478e-21
6.086686505e-22
5.055012056e-21
5.5667276e-21
4.945634403e-21
3.397790209e-20
4.128590181e-21
4.296118495e-22
6.282094018e-21
7.837459795e-21
4.828378939e-21
4.909789459e-21
2.277193524e-21
3.843823973e-21
3.590909115e-21
1.141695851e-21
9.029406035e-21
1.154678742e-20
1.219951065e-21
2.22830187e-20
1.884321932e-20
1.807801833e-21
1.280917414e-20
6.288658483e-21
6.414783262e-22
9.876610135e-22
3.34222509e-21
4.39084331e-21
1.934056806e-20
3.326198598e-21
3.327640842e-20
1.588146661e-20
3.690905307e-21
6.374757984e-22
2.837336054e-20
7.97593334e-21
9.724491835e-22
1.384120402e-20
1.809578362e-20
4.25269424e-21
8.294491533e-21
1.355142187e-20
1.672973067e-20
1.845432277e-21
8.912870888e-21
1.110412821e-20
1.072127062e-20
1.62931144e-20
1.857539803e-20
1.118612889e-20
2.151124299e-20
7.48609233e-21
2.264752568e-21
2.425974888e-20
7.780429696e-21
2.075737881e-21
1.357156681e-20
1.662072485e-22
1.814736102e-21
8.227862549e-22
7.061790603e-21
9.04827737e-21
1.633158595e-22
2.647180714e-20
2.790723048e-20
2.668557767e-20
4.204544294e-21
1.673989467e-21
2.097748566e-21
6.144446493e-21
4.751371824e-20
1.242643874e-21
1.394877248e-20
1.782950037e-21
2.363747754e-21
9.34188653e-21
2.460458696e-21
1.777867444e-21
1.77394528e-20
7.027104813e-21
3.575924617e-22
1.362307985e-20
5.851653476e-21
6.62513143e-21
2.614190987e-21
3.763808588e-22
3.723112155e-21
4.402823588e-21
3.211452023e-21
1.084813408e-20
7.552382291e-21
7.687201676e-21
8.559137642e-21
1.776748855e-20
4.907378748e-21
1.034416039e-20
1.137089584e-20
4.122848338e-21
8.490685204e-22
1.252229514e-20
2.811943323e-21
2.966192793e-21
4.944744312e-21
4.448482442e-22
6.503414777e-21
5.469287843e-21
6.775113544e-21
8.069573369e-21
1.806662555e-21
1.918302384e-21
8.040071287e-21
1.097213174e-20
5.586159662e-23
6.962186694e-21
6.629487179e-22
1.730600845e-21
3.032660688e-20
4.261899718e-21
3.537143166e-21
4.120300915e-20
1.944717322e-22
2.350152015e-20
1.357636182e-20
3.916773176e-20
3.419665048e-20
6.705816328e-21
1.980237758e-20
3.886171399e-21
1.668568287e-20
1.583166586e-20
2.205193306e-20
2.866151647e-20
3.677142237e-22
3.974636992e-21
6.601250573e-21
2.634973875e-21
5.713753513e-21
9.763736574e-21
8.173945967e-21
1.094172289e-20
1.192030884e-20
3.462764869e-20
1.583280741e-20
1.798934717e-20
7.020020896e-22
1.005124093e-20
1.287261536e-20
2.459903915e-20
1.72735507e-21
1.747182965e-21
1.967994721e-20
2.750288641e-22
1.187083258e-20
1.011816442e-20
8.786121691e-21
1.427914024e-20
5.661866268e-21
8.782965116e-21
1.073064853e-21
1.800496388e-20
5.793331954e-21
2.176995081e-20
1.29640095e-20
4.792932437e-21
7.89940477e-21
1.47690921e-20
3.277674084e-20
7.224960575e-21
1.595799995e-20
1.42921368e-21
3.593493606e-21
2.483634631e-21
1.96825784e-21
8.475156179e-21
7.211213188e-21
3.996085755e-21
1.612900688e-20
3.013556802e-20
5.955989523e-21
7.217938598e-22
3.132308216e-21
9.280840602e-21
2.111236508e-21
8.394429396e-21
2.319872154e-20
2.42355234e-21
6.340979221e-21
1.556070092e-20
7.887449873e-21
1.862541609e-20
2.474901365e-20
3.405916603e-22
2.76819693e-21
1.367194306e-20
1.708537179e-20
1.745510137e-20
2.648189164e-21
2.818921565e-21
1.646042788e-21
3.571108601e-21
1.139102646e-20
2.476868394e-20
1.265725694e-20
3.007651284e-21
3.36536126e-21
3.853089559e-21
1.605969933e-20
9.192161634e-22
5.701428779e-21
3.29182805e-20
3.254171305e-21
1.127827946e-20
7.890818741e-21
3.103397146e-21
1.012588507e-21
3.78292267e-20
1.133063593e-20
3.033230126e-21
1.637068719e-21
2.946037965e-20
2.876429625e-20
2.103010569e-21
5.522941865e-21
5.139660449e-21
3.44036767e-21
3.419415724e-21
2.677481639e-22
3.618216743e-21
5.48047042e-21
1.916983426e-20
2.496741348e-20
5.925076178e-21
1.086221349e-20
4.677471718e-21
5.489242911e-22
1.987236861e-20
4.431231089e-21
2.494782774e-21
4.940440242e-22
1.181712245e-20
1.669392492e-20
2.567222942e-20
3.562777358e-21
5.614114366e-21
2.870017488e-21
1.010003111e-20
1.366392357e-20
1.91247166e-21
2.768730713e-21
3.337872892e-20
9.101981436e-21
1.281076503e-20
1.389904644e-21
8.178530873e-21
1.16676605e-20
1.44853242e-20
4.387599844e-21
8.679516094e-21
1.301123064e-20
8.5097383e-21
3.588760412e-21
4.626514458e-22
7.835090284e-21
2.011503124e-21
2.096739188e-21
1.813038423e-21
1.180804975e-20
1.402655435e-21
1.095825327e-21
6.570044643e-22
2.460576985e-20
2.32795399e-22
1.136551655e-21
2.798221272e-20
1.028035487e-20
1.69896253e-21
1.553336718e-21
9.564263131e-21
4.816642901e-21
7.482248108e-21
1.800890329e-20
8.084858849e-21
6.212442243e-21
7.986722211e-21
5.018711264e-21
7.787906728e-22
1.962432184e-20
2.373291576e-21
5.038181901e-21
8.521516394e-21
1.943440154e-20
5.818609829e-22
3.212863975e-22
3.716151196e-20
1.0624438e-20
6.060338669e-21
8.141347912e-21
4.096684979e-21
9.516406508e-21
4.434215748e-21
4.800151674e-21
6.636417532e-21
5.443930666e-22
2.260162881e-21
8.807778778e-22
9.535867729e-22
5.600916253e-21
2.589246585e-20
1.211910827e-22
1.090481972e-20
9.10522455e-21
1.68597842e-20
3.321622675e-21
1.265859595e-20
6.592115625e-22
2.209195616e-20
4.416150421e-21
2.948046621e-20
5.740302794e-22
2.439771854e-20
2.261129402e-20
7.977978985e-21
1.182368738e-20
7.316983713e-21
1.559987916e-21
6.322856562e-21
1.810515393e-21
1.096654314e-20
2.922959323e-22
1.206855385e-20
4.355286156e-21
4.105142003e-21
4.926226084e-21
4.588230044e-21
3.877699983e-21
1.592033996e-20
1.991257478e-21
9.691030731e-21
1.253193606e-20
5.694348119e-22
4.654217899e-21
1.453088791e-20
2.095853174e-20
8.206678697e-21
5.921535665e-22
2.36224874e-21
1.229337853e-20
2.358410623e-21
2.411671877e-21
9.217513157e-21
4.080916866e-22
3.247780652e-20
1.206012309e-20
7.573380064e-22
1.072918479e-20
6.082786138e-21
1.636812458e-21
9.295849235e-21
3.198483941e-22
2.90387023e-21
4.651252842e-21
2.816101516e-21
4.976327165e-21
2.878153318e-21
1.604672118e-21
1.041720197e-20
2.04939906e-21
1.018896662e-20
1.594857698e-20
5.142524252e-21
1.630577994e-20
6.972299176e-21
6.04986032e-21
2.869946378e-21
7.853490914e-22
2.872787766e-21
1.398036656e-21
4.874551365e-21
1.179497347e-21
1.154158767e-20
9.425189137e-21
1.248580297e-21
6.616289275e-21
4.559683514e-23
4.418795336e-21
9.913720691e-21
2.615423445e-21
7.06451524e-21
8.799852842e-22
4.944799749e-21
2.055332463e-21
9.42066755e-21
4.719485011e-21
2.099480003e-20
8.640718316e-21
3.349694308e-20
1.772934741e-20
2.469736349e-21
3.463565624e-21
9.335934248e-22
1.369217079e-21
2.832070089e-20
1.346362594e-20
5.765641978e-21
9.54191707e-21
1.465955532e-20
3.157165452e-21
4.781617205e-21
1.289091279e-20
5.822655173e-21
6.913478919e-21
2.363373081e-20
2.200110977e-21
1.914033088e-20
7.7370936e-22
1.044964256e-20
9.43526584e-21
2.603320687e-20
1.459738398e-21
1.26452789e-20
1.648609334e-21
8.906320062e-21
6.322181823e-21
2.026201839e-20
1.325152554e-20
1.831351092e-21
9.360951369e-21
6.781471505e-21
1.125329438e-21
3.52483007e-21
3.663466843e-21
9.589584477e-22
3.869358468e-22
1.588650833e-21
1.804089487e-20
2.103594924e-21
1.906713508e-21
1.450590118e-20
9.079414985e-21
6.017956964e-21
8.533574976e-22
1.925012006e-21
1.94067319e-20
2.044100423e-21
3.912516894e-22
1.443650112e-20
5.271986823e-21
8.552437885e-21
2.327524248e-20
8.554010194e-21
3.275542487e-20
2.355164339e-20
8.807386598e-21
2.358849415e-21
7.490649328e-21
8.031913086e-21
1.131716633e-23
1.62296291e-20
3.102271393e-21
7.737116028e-21
1.018985265e-20
2.771654838e-20
2.47170698e-20
1.164600547e-20
3.596281312e-21
2.753493233e-20
8.868691421e-21
5.949647349e-21
2.48195637e-20
2.390609035e-21
2.487292843e-21
2.653860697e-20
4.890748062e-21
4.746145271e-21
3.109364275e-22
4.460368823e-21
1.47051564e-20
6.37554602e-21
4.905819969e-21
1.453017359e-20
2.373376121e-21
1.2013236e-20
1.33676342e-20
1.022983716e-21
3.880862328e-22
1.841511367e-20
5.799088429e-21
5.387743419e-22
2.010218289e-20
4.717370001e-21
1.229590475e-20
1.502093303e-21
3.20668619e-21
2.898759935e-20
9.483039432e-21
3.059800747e-21
5.221824586e-21
9.003640318e-22
3.136490842e-22
7.811917768e-22
6.931980193e-21
6.975521637e-22
1.245291165e-20
1.200798012e-20
1.087393956e-20
1.865393705e-21
1.60571073e-20
2.064363126e-20
7.380238936e-21
4.973492104e-21
4.103682781e-21
9.822384904e-21
1.31083714e-20
1.686512707e-20
2.13624988e-20
3.815145672e-21
8.206154937e-21
2.457780391e-21
1.617326964e-21
6.460192073e-21
2.248757321e-21
1.0993411e-20
1.637664666e-21
1.241484197e-20
3.280347677e-20
3.903419778e-21
1.730719961e-20
3.866903645e-20
2.770271671e-20
3.102713687e-21
7.343622393e-21
1.455427785e-20
5.076949404e-21
3.754115646e-21
8.117452194e-23
5.11625566e-21
4.454910576e-21
7.165403267e-21
3.013919463e-20
5.264812291e-21
4.054509569e-21
2.638283353e-20
4.924529813e-21
2.127285182e-20
2.113717695e-22
3.847301491e-21
1.230475002e-22
6.461540082e-22
4.053061798e-21
3.847676846e-21
5.715644043e-21
2.630277222e-20
5.169401193e-21
5.923182759e-20
1.906261473e-20
1.138422183e-20
7.254977412e-21
9.991731418e-21
4.442426131e-21
7.463494796e-21
9.491192475e-21
1.7540062e-21
2.243275443e-21
2.325197599e-20
1.261895496e-20
6.930009855e-21
2.674905139e-21
1.271942913e-21
2.722311145e-21
9.65333624e-21
1.894267158e-21
7.122181781e-21
2.072909373e-21
1.240840963e-20
6.260319455e-21
1.682206307e-21
7.025076189e-21
1.136867896e-20
5.978154154e-21
2.074702123e-20
1.724551987e-20
2.601361277e-21
3.115422448e-21
6.651658601e-22
7.008683071e-21
4.236622714e-21
1.904694265e-20
4.927727288e-21
1.191851878e-20
1.851677158e-21
2.682995795e-21
1.538045062e-21
3.355741853e-22
2.649966187e-21
3.234000099e-20
3.846728055e-21
2.746287234e-21
1.057375076e-21
2.372721286e-21
1.229701123e-20
2.286359158e-21
1.141434694e-20
1.389762541e-21
6.001915848e-21
2.466910057e-21
1.134913819e-20
9.097984655e-22
3.166466999e-22
5.303453561e-21
3.279554365e-21
6.897426756e-22
1.394561768e-20
2.969475579e-21
5.444083718e-21
6.492638041e-21
1.265568914e-20
1.219518609e-21
2.400880828e-20
5.754215739e-21
4.845081695e-21
5.09952069e-21
8.811808217e-21
1.27654427e-20
1.58637059e-20
1.733867342e-22
7.360767709e-21
8.586301007e-22
2.06328657e-21
3.236529364e-20
3.430472211e-21
9.188604875e-21
1.080512375e-21
1.40542363e-20
6.201707335e-21
1.570014023e-20
1.031460477e-20
1.031385594e-20
1.646620462e-21
1.12132405e-20
1.747773372e-20
8.614848879e-22
1.392155938e-21
4.88628067e-21
3.485214479e-21
2.951232336e-21
1.73313231e-21
8.127517584e-22
2.818191063e-22
8.174112821e-21
1.726978491e-21
2.670308775e-21
4.966924773e-21
1.533236689e-22
2.44074252e-21
4.699077268e-21
1.0540056e-20
4.649315585e-21
1.692541628e-21
2.048082543e-20
3.265418789e-21
1.46150298e-21
1.88625504e-20
1.179374272e-20
7.279746253e-21
5.633679496e-21
8.708079093e-22
1.338150424e-20
2.652007931e-21
7.442876404e-21
7.169858841e-21
1.347887988e-20
5.705420694e-21
9.249208962e-21
1.239717879e-21
5.475338135e-22
2.093455594e-22
1.841663653e-21
7.285385182e-21
1.300690983e-21
8.588306162e-22
2.38895012e-21
6.390931385e-22
1.920412224e-21
7.179260743e-21
2.162195165e-22
2.195885609e-21
2.006039995e-21
5.574564675e-22
1.215628678e-20
5.493982041e-23
3.871496388e-21
1.206909268e-21
7.549301144e-21
1.583710218e-21
1.234902004e-22
2.135832357e-21
1.161044997e-20
2.234042696e-21
3.853220129e-21
5.071033899e-21
8.507975063e-21
5.242534179e-21
5.976102123e-21
2.333388978e-21
5.310125167e-24
4.413601391e-21
9.167163398e-22
7.138438992e-21
1.014691219e-20
4.335066766e-21
5.534681798e-21
6.038239248e-21
4.919503543e-21
3.803667089e-21
6.705457311e-21
1.619648689e-21
1.829346146e-21
5.965778029e-21
2.15463917e-21
1.209694423e-21
6.851458443e-22
5.439688109e-21
4.730191164e-21
2.849900257e-22
6.274419232e-21
1.781153186e-20
2.82649804e-22
9.716946113e-22
1.051168278e-20
6.736014992e-21
8.08135639e-22
1.082119934e-20
2.95788025e-21
3.521977758e-21
8.594102762e-21
1.00372527e-21
4.87629849e-21
6.417148239e-21
1.531580032e-22
1.577292884e-21
1.091252743e-21
1.619109592e-21
9.053839495e-21
1.062979715e-20
5.898818095e-23
2.247897335e-21
2.357275175e-21
8.49043486e-22
4.723439117e-21
1.9401401e-21
3.389709943e-21
1.507787055e-21
3.746465068e-22
4.64215003e-22
1.341793133e-21
5.010169311e-21
3.540923257e-21
1.264288273e-22
3.412598508e-21
2.479557747e-21
6.811003864e-21
4.118565378e-21
2.089341088e-23
3.015664631e-21
3.743945927e-22
1.783990303e-21
8.479196743e-21
1.661593933e-22
2.642737195e-21
2.11784896e-21
2.117815916e-21
6.006883133e-21
5.370472424e-21
3.685963713e-21
9.367332961e-22
2.339709717e-21
1.624194204e-20
1.061390283e-20
1.045536344e-21
2.659171598e-21
1.802199721e-21
3.6441347e-21
1.13499027e-22
1.449374398e-21
1.147183413e-21
7.789746236e-21
3.832240846e-21
5.49425412e-21
3.031900789e-21
2.038072353e-20
1.093344196e-21
1.972213712e-21
3.597316974e-21
4.583168704e-21
1.225282198e-21
1.411846553e-21
7.67756027e-21
1.706122296e-20
1.922010914e-22
6.68494267e-22
1.246179469e-22
1.927576932e-20
4.630361153e-22
4.093308654e-21
1.569384036e-22
6.662906043e-21
1.828104355e-21
4.974280031e-22
2.158894698e-21
1.067688426e-20
2.802835458e-21
9.720951571e-21
1.100896715e-21
4.038959275e-21
3.516398567e-21
8.537547773e-21
3.441110293e-21
1.329889895e-20
8.813313641e-21
1.356310417e-20
2.347395941e-20
2.424818252e-21
3.059998165e-20
1.92406435e-20
3.730812205e-20
8.04257298e-21
1.878473752e-20
5.7155449e-21
2.314486608e-20
8.367887549e-21
8.210183079e-21
4.218402261e-21
1.247895825e-20
4.409605678e-21
2.709419129e-22
2.969460656e-20
5.180118448e-22
1.867936508e-20
2.063979658e-21
2.59843345e-21
3.311897595e-21
5.166349621e-21
7.543226928e-21
6.479592102e-23
1.359449325e-20
1.406342979e-21
3.47273453e-20
1.626311442e-21
1.762921372e-20
1.350949835e-20
5.537415983e-21
4.214678459e-21
3.089260038e-20
4.744952002e-21
3.213848923e-20
8.179891879e-22
5.496442266e-21
1.669348792e-20
2.990974379e-20
7.494036551e-21
1.682599644e-20
4.244944418e-22
1.568109807e-20
2.377947432e-20
2.342013378e-20
9.568575427e-21
3.188159727e-21
7.788710383e-21
1.843124763e-20
3.510504524e-21
3.443759099e-20
6.163445124e-22
8.522929288e-21
1.059812283e-21
3.604082809e-21
6.862088333e-21
1.267876561e-20
4.062283999e-22
3.61861866e-20
1.15057147e-21
6.373175916e-21
1.373282317e-20
1.113607851e-21
4.663345838e-21
4.464578868e-22
1.045609393e-20
2.139964799e-20
2.979866415e-20
1.413491566e-20
2.23377781e-20
5.584368324e-21
1.076347492e-20
4.826270818e-20
4.867659738e-22
5.403032881e-21
2.988936115e-21
1.580937601e-20
9.441360349e-21
1.012370671e-20
9.875571733e-21
2.043658347e-21
8.364651151e-21
5.391708207e-21
1.122100253e-20
1.048436828e-20
1.242296856e-20
3.426433965e-21
1.795453929e-22
1.60032783e-21
9.896908334e-21
2.72037998e-20
2.940269567e-20
8.179130436e-21
8.730282265e-21
9.529089157e-21
1.667480191e-20
5.190027183e-21
2.952030658e-21
8.222910426e-21
7.702959035e-21
6.435002587e-21
7.570917307e-21
3.298394202e-21
1.200040167e-20
8.852335787e-21
2.93284871e-21
4.622109676e-21
4.025923474e-21
4.203788361e-20
1.604180158e-21
1.781407948e-20
1.004986434e-20
5.561033361e-22
2.847860332e-20
3.403997333e-20
1.558962764e-21
3.864285717e-21
9.744522432e-22
1.322998971e-21
5.550968424e-21
1.640922142e-20
2.827110745e-20
1.132150484e-20
8.955895575e-21
3.678155646e-20
3.786880569e-21
3.233248447e-22
9.517223864e-21
3.03837261e-21
2.852832302e-21
1.84724915e-20
7.332350357e-21
1.581396935e-21
4.943344739e-21
1.663734606e-20
9.921104426e-22
2.192022722e-20
6.901679053e-22
9.902163321e-21
2.187747262e-21
1.226694445e-21
5.765386424e-21
1.864330472e-20
9.474946553e-21
1.421713456e-21
8.884582027e-21
3.27606859e-20
8.291207896e-22
4.463344171e-21
3.270991808e-21
7.120698403e-21
1.991576761e-20
1.501910989e-20
1.930795111e-20
3.766186722e-21
3.065435312e-22
3.912916778e-21
1.403936979e-22
7.391798742e-22
1.6860574e-21
8.984104623e-21
5.867823931e-21
3.506281426e-20
3.849069209e-21
7.158117299e-22
2.958518081e-21
1.703444338e-22
5.169757001e-21
4.531457983e-21
5.060517839e-21
1.509872416e-20
9.509727135e-21
1.345446982e-20
3.008256755e-21
1.761437818e-21
2.633261348e-22
1.203018794e-20
1.309292006e-20
3.601322162e-21
9.919894642e-21
1.88714445e-20
9.740365061e-21
2.353565327e-21
8.589626745e-21
4.587309131e-21
5.751593207e-21
6.605829156e-22
1.610643933e-21
2.501996506e-21
1.060445843e-20
1.170231217e-21
8.469566134e-21
6.089339174e-22
3.190333291e-21
4.227013228e-21
1.858838262e-20
1.64872867e-20
1.752601074e-20
1.947348405e-22
2.710627591e-20
3.051396585e-20
5.481326383e-21
1.213517444e-21
3.133378201e-21
4.60089477e-21
3.734759358e-21
6.740548817e-21
2.07047924e-21
5.205433333e-22
3.413645354e-21
3.985002732e-21
6.329140635e-22
1.461859672e-21
1.511627289e-21
2.978796513e-21
5.792661007e-22
1.899969459e-23
1.453371128e-20
5.411226996e-21
1.402367013e-21
1.817289295e-20
7.205515198e-21
3.995190065e-21
5.247492193e-21
4.19370507e-22
7.638653278e-22
2.313994575e-21
5.148960677e-21
2.181691115e-21
2.006084301e-20
2.10757246e-21
3.435371715e-21
3.982135162e-21
5.249708228e-21
1.811612396e-21
4.847452522e-21
2.037209714e-20
1.385165458e-21
5.507990233e-21
1.22322933e-20
3.156469684e-21
1.160212858e-20
8.570840959e-21
1.175073728e-20
8.235671067e-21
5.699354557e-21
4.232326024e-21
2.078554316e-21
9.078842085e-21
2.771060999e-21
3.753812814e-21
4.866620187e-21
9.080596706e-21
1.863638802e-21
3.446480045e-21
4.162548133e-21
2.964631026e-21
5.270880601e-21
3.176645088e-21
3.079847078e-21
1.375329275e-21
2.440450438e-20
2.519713691e-21
2.224344832e-20
1.355459e-21
1.642075459e-20
3.89075145e-23
7.992774604e-21
4.217515343e-22
1.926004912e-20
1.261178471e-21
3.372303843e-21
4.048385472e-22
8.408530419e-21
1.854454133e-21
5.495132552e-21
4.769662026e-21
2.566334027e-21
2.247109488e-21
2.540426453e-21
1.024407894e-21
1.939989937e-22
3.036656539e-21
4.922813342e-21
5.852919509e-21
2.926092304e-21
2.646886447e-21
6.503156823e-21