/*--------------------------------*- C++ -*----------------------------------*\
| =========                 |                                                 |
| \\      /  F ield         | OpenFOAM: The Open Source CFD Toolbox           |
|  \\    /   O peration     | Version:  v1912                                 |
|   \\  /    A nd           | Website:  www.openfoam.com                      |
|    \\/     M anipulation  |                                                 |
\*---------------------------------------------------------------------------*/
FoamFile
{
    version     2.0;
    format      ascii;
    class       Cloud<dsmcParcel>;
    location    "0.00031/lagrangian/dsmc";
    object      coordinates;
}
// * * * * * * * * * * * * * * * * * * * * * * * * * * * * * * * * * * * * * //

12954
(
(0.1057275563 0.4471362218 0.2619089811 0.1852272407) 1233 2361 1
(0.4156892682 0.2921553659 0.0147999979 0.277355368) 1053 2063 2
(0.3579548176 0.3210225912 0.2782006996 0.04282189164) 829 1646 1
(0.0419617572 0.2155326846 0.2634864368 0.4790191214) 1206 2366 1
(0.7467540283 0.02695378212 0.09966920371 0.1266229858) 287 594 1
(0.1539451156 0.1914551829 0.2315722593 0.4230274422) 409 778 2
(0.6887193504 0.1556403248 0.05172981517 0.1039105096) 1295 2515 2
(0.3708906249 0.2741570139 0.3145546876 0.04039767365) 1016 1993 2
(0.09930670158 0.4354901843 0.01485646489 0.4503466492) 1109 2175 1
(0.3192796914 0.3403601543 0.04596427816 0.2943958761) 317 655 1
(0.2663337936 0.3668331032 0.1199693557 0.2468637475) 1083 2124 2
(0.01438018654 0.4928099067 0.03086522511 0.4619446816) 803 1594 2
(0.2704073555 0.01228095019 0.3647963222 0.352515372) 285 588 1
(0.03944309458 0.4802784527 0.4374158829 0.04286256981) 843 1673 1
(0.3817876864 0.3091061568 0.1919665555 0.1171396013) 1115 2187 2
(0.08243630026 0.1952186553 0.2635631945 0.4587818499) 222 458 1
(0.215322324 0.1606373632 0.2317014748 0.392338838) 1141 2238 1
(0.07223455067 0.4638827247 0.1450952515 0.3187874732) 343 647 1
(0.3899656289 0.3050171856 0.2874578296 0.01755935592) 1115 2188 1
(0.6519026722 0.1740486639 0.1175222075 0.05652645644) 1168 2291 2
(0.1660495247 0.1879097111 0.2290655266 0.4169752377) 1238 2429 1
(0.09060471584 0.2349899512 0.2197076909 0.4546976421) 377 774 1
(0.09077858513 0.4546107074 0.1715242123 0.2830864951) 1174 2303 2
(0.09106799443 0.4544660028 0.06866303018 0.3858029726) 838 1661 2
(0.1351642167 0.4324178916 0.3193639947 0.1130538969) 1014 1986 2
(0.2099143676 0.3950428162 0.05760615806 0.3374366582) 902 1766 1
(0.5456560185 0.1751571643 0.05201482648 0.2271719908) 1118 2135 2
(0.5584101353 0.2207949324 0.1181165261 0.1026784062) 1234 2421 2
(0.208446796 0.3528814707 0.04289513135 0.395776602) 254 528 1
(0.6462990705 0.1768504647 0.0273440659 0.1495063988) 822 1614 1
(0.3084427874 0.2127628573 0.3457786063 0.133015749) 878 1737 1
(0.3283299391 0.3358350304 0.1413463487 0.1944886817) 220 447 2
(0.7872695335 0.01470158708 0.09166364618 0.1063652333) 1201 2298 2
(0.9206051274 0.02369239666 0.01600503964 0.0396974363) 1080 2060 2
(0.08184087982 0.1663896367 0.4590795601 0.2926899234) 317 655 2
(0.5248369395 0.03621259748 0.2375815302 0.2013689328) 1176 2308 2
(0.3783231042 0.3108384479 0.165054104 0.1457843439) 1196 2344 2
(0.7025099057 0.1487450472 0.001803132045 0.1469419151) 863 1692 1
(0.4670634681 0.2664682659 0.04311521092 0.223353055) 1204 2360 2
(0.5122851823 0.2438574089 0.1201571273 0.1237002815) 1201 2354 2
(0.5890894346 0.04547822956 0.1599770531 0.2054552827) 372 764 1
(0.1815357038 0.4092321481 0.3808353431 0.028396805) 1267 2484 2
(0.07060787954 0.08338643911 0.4646960602 0.3813096211) 1067 2093 2
(0.2009747172 0.3995126414 0.3290890864 0.07042355501) 841 1666 2
(0.001121908087 0.2600744954 0.2393645506 0.499439046) 1079 2058 2
(0.053003824 0.1704193145 0.3030787735 0.473498088) 226 470 1
(0.1601234605 0.4199382698 0.4195375558 0.0004007140092) 1177 2309 2
(0.1239694235 0.4380152882 0.4103100076 0.02770528062) 861 1704 2
(0.04185205736 0.4757989631 0.003275008174 0.4790739713) 1106 2169 1
(0.151880763 0.4240596185 0.02736833378 0.3966912847) 1236 2423 2
(0.1032626277 0.4483686862 0.1336207147 0.3147479715) 1237 2427 2
(0.7094693086 0.1405207861 0.1452653457 0.0047445596) 1264 2481 2
(0.007350597425 0.4963247013 0.4536691999 0.04265550141) 830 1647 2
(0.08163247464 0.01601141432 0.4591837627 0.4431723484) 839 1663 1
(0.556565263 0.1254217459 0.09629562261 0.2217173685) 1265 2424 2
(0.0313176759 0.3607133649 0.1236277971 0.484341162) 845 1676 1
(0.1673425521 0.02666349032 0.4163287239 0.3896652336) 1208 2371 2
(0.2246765125 0.3808443437 0.3876617438 0.006817400117) 1076 2108 1
(0.2390127486 0.3804936257 0.0752529255 0.3052407002) 1196 2344 2
(0.1446408561 0.4276795719 0.0767841076 0.3508954643) 1139 2234 2
(0.3953272925 0.1192867479 0.1830496059 0.3023363538) 1215 2325 2
(0.07398104335 0.1028159165 0.4630094783 0.3601935618) 1117 2192 2
(0.3093761403 0.3453119299 0.09344782303 0.2518641068) 1168 2289 2
(0.451571283 0.0354385062 0.2742143585 0.2387758523) 831 1647 1
(0.1603559107 0.4198220446 0.1316216923 0.2882003523) 1058 2076 1
(0.5279563874 0.2360218063 0.03689473407 0.1991270722) 1051 2059 2
(0.03071050537 0.4846447473 0.3198895103 0.164755237) 1195 2342 2
(0.1759438831 0.1349722648 0.4120280585 0.2770557937) 1047 2054 2
(0.2900472135 0.3549763933 0.02315215094 0.3318242423) 315 651 1
(0.01348347459 0.1951408541 0.4932582627 0.2981174086) 1232 2415 1
(0.07549482235 0.4622525888 0.1872868656 0.2749657233) 1139 2176 1
(0.8649821508 0.06750892462 0.03228842378 0.03522050085) 1173 2299 2
(0.07243655761 0.2388224026 0.4637817212 0.2249593186) 1147 2251 2
(0.07573610219 0.4621319489 0.1096547006 0.3524772483) 1074 2106 2
(0.4157945699 0.1145405757 0.1775621393 0.292102715) 1077 2054 2
(0.1446894807 0.4276552596 0.1101682956 0.3174869641) 1258 2468 2
(0.2126632476 0.02184031127 0.3936683762 0.3718280649) 899 1779 2
(0.5001233212 0.2104974427 0.03944089664 0.2499383394) 1140 2236 1
(0.479004414 0.260497793 0.1067167126 0.1537810804) 811 1609 2
(0.7440025944 0.1279987028 0.09849928729 0.02949941552) 1229 2412 1
(0.208509913 0.3957450435 0.3581982183 0.03754682515) 877 1735 2
(0.3597654179 0.04007672312 0.280040568 0.3201172911) 1262 2418 2
(0.4968457463 0.2515771268 0.2082086693 0.04336845749) 1078 2115 1
(0.4854090721 0.2572954639 0.1349594197 0.1223360442) 1171 2295 2
(0.372384687 0.3138076565 0.1971500675 0.116657589) 315 651 1
(0.3318445679 0.334077716 0.1042808701 0.2297968459) 1101 2159 2
(0.7509996116 0.1245001942 0.008066225167 0.116433969) 229 478 2
(0.1237811268 0.4117952215 0.4381094366 0.0263142151) 1043 2043 1
(0.4404120641 0.2170468568 0.06274711118 0.279793968) 284 588 1
(0.2841387268 0.1761720769 0.1817585597 0.3579306366) 1227 2407 1
(0.3874786307 0.2514017586 0.05485892606 0.3062606847) 1111 2121 2
(0.2571338042 0.3714330979 0.07385634456 0.2975767533) 813 1615 2
(0.1466678991 0.4266660505 0.02349831811 0.4031677323) 1167 2290 1
(0.3033981872 0.2600103687 0.08829053769 0.3483009064) 369 758 1
(0.4993471473 0.2503264264 0.07246573226 0.1778606941) 1042 2041 2
(0.4552113738 0.02665247418 0.2723943131 0.2457418389) 1292 458 1
(0.03255488784 0.4837225561 0.06740951287 0.4163130432) 1103 2161 2
(0.2547315078 0.02462937091 0.3726342461 0.3480048752) 1059 2075 1
(0.3860738681 0.306963066 0.02515446153 0.2818086044) 1291 455 2
(0.2994223421 0.2207630633 0.3502888289 0.1295257656) 1202 2356 1
(0.06576092285 0.4407496123 0.02636992623 0.4671195386) 1145 2246 1
(0.1854405557 0.2136509923 0.4072797222 0.1936287298) 1048 2056 2
(0.3762286667 0.01480436503 0.2970813016 0.3118856667) 1238 2371 2
(0.4655851416 0.2012170616 0.06599036765 0.2672074292) 1175 2305 1
(0.02049726146 0.05489168484 0.4348596844 0.4897513693) 438 896 1
(0.8937740567 0.009318576769 0.05311297164 0.04379439487) 865 1715 2
(0.5703566598 0.197603943 0.01721772713 0.2148216701) 1190 2276 2
(0.8111633072 0.07299067872 0.09441834642 0.0214276677) 1267 2487 2
(0.253467343 0.3732663285 0.2378088347 0.1354574938) 1014 1988 2
(0.7984724901 0.100763755 0.0878791795 0.01288457546) 1238 2430 1
(0.3395729196 0.02243929164 0.3077742486 0.3302135402) 836 1659 1
(0.1248705298 0.4375647351 0.03078308173 0.4067816534) 1293 2514 2
(0.1036903952 0.1102532455 0.3379015569 0.4481548024) 228 476 1
(0.03682210838 0.2547478893 0.4815889458 0.2268410565) 1166 2285 1
(0.4992811251 0.2503594374 0.2186613971 0.03169804029) 315 648 2
(0.1731169408 0.2895942635 0.4134415296 0.1238472661) 1264 2481 2
(0.3784753376 0.3107623312 0.1365853817 0.1741769495) 228 475 1
(0.3003013824 0.3385044254 0.3498493088 0.01134488342) 1233 2417 1
(0.1844617211 0.1903638292 0.2174053102 0.4077691394) 1232 2417 1
(0.2065433069 0.2607475907 0.3967283466 0.1359807559) 229 477 2
(0.04761370416 0.4761931479 0.3156000387 0.1605931092) 1231 2357 1
(0.1934477109 0.4032761445 0.3900828794 0.01319326511) 1266 2482 2
(0.4377714972 0.2811142514 0.04999019377 0.2311240577) 1196 2347 1
(0.03899085613 0.1310495748 0.4805045719 0.3494549971) 832 1649 1
(0.4879791057 0.0959102226 0.1601002245 0.2560104471) 1114 2127 2
(0.7784105536 0.1107947232 0.05717755924 0.05361716398) 313 644 2
(0.2563379315 0.1178087264 0.2540223079 0.3718310342) 834 1637 2
(0.4828307923 0.2585846039 0.1356667817 0.1229178222) 1236 2425 2
(0.7141628869 0.05210782714 0.09081072939 0.1429185565) 1294 2515 1
(0.7073347666 0.07652102171 0.1463326167 0.069811595) 1116 2187 1
(0.4096443325 0.2702674983 0.02491033549 0.2951778338) 310 581 2
(0.7034979539 0.1314791527 0.1482510231 0.01677187035) 1269 2488 1
(0.6237557619 0.188122119 0.07660393299 0.1115181861) 259 536 2
(0.3070451656 0.3464774172 0.2938613692 0.05261604799) 1298 476 2
(0.3922963292 0.1562662719 0.1475855635 0.3038518354) 1136 2228 1
(0.1926402387 0.2048472113 0.1988326694 0.4036798807) 876 1717 2
(0.167116118 0.416441941 0.1081663003 0.3082756407) 1109 2176 1
(0.08944258538 0.4552787073 0.181162953 0.2741157543) 227 468 2
(0.04863087987 0.4756845601 0.420483686 0.05520087402) 1261 2475 1
(0.06649706559 0.4667514672 0.318647628 0.1481038392) 1140 2237 1
(0.2149544704 0.3925227648 0.3882241846 0.004298580193) 1116 2189 2
(0.8464506895 0.07677465524 0.04697254126 0.02980211399) 1298 2519 2
(0.348697154 0.325651423 0.1933421638 0.1323092592) 1263 2476 2
(0.243073864 0.378463068 0.1538767797 0.2245862883) 1172 2300 1
(0.277524973 0.3015251508 0.05971236271 0.3612375135) 1290 2511 1
(0.3819501145 0.3028229043 0.3090249427 0.006202038471) 253 527 2
(0.1886896461 0.4056551769 0.1716169276 0.2340382493) 938 1853 2
(0.5990475889 0.09438508939 0.2004762056 0.1060911162) 875 1731 1
(0.2793801101 0.2842128147 0.3603099449 0.07609713026) 1106 2170 2
(0.1411053106 0.2647017523 0.4294473447 0.1647455924) 1166 2288 2
(0.6128339297 0.0233703767 0.1935830352 0.1702126584) 1232 2418 2
(0.4509795746 0.2180799462 0.05643026653 0.2745102127) 813 1597 2
(0.07508767681 0.4624561616 0.1175872329 0.3448689287) 1204 2360 2
(0.4257590132 0.2871204934 0.1237394794 0.163381014) 1205 2306 1
(0.417248229 0.2242792815 0.06709660401 0.2913758855) 867 1718 1
(0.02143445033 0.1332689881 0.3560137868 0.4892827748) 812 1613 1
(0.2347729943 0.3826135029 0.1461040906 0.2365094122) 285 590 2
(0.3145119404 0.3427440298 0.1260777665 0.2166662633) 887 1738 1
(0.0527088956 0.01929555413 0.4736455522 0.4543499981) 229 474 1
(0.3859982167 0.3070008917 0.01213790797 0.2948629837) 225 465 2
(0.3716796542 0.3141601729 0.09211282333 0.2220473496) 216 438 2
(0.2118807886 0.08043519609 0.3940596057 0.3136244096) 1195 2342 1
(0.1543036399 0.42284818 0.03646253889 0.3863856411) 1170 2295 2
(0.1854749302 0.4072625349 0.07100867134 0.3362538636) 1227 2407 2
(0.02728704103 0.2176788645 0.4863564795 0.268677615) 281 580 1
(0.8609819173 0.06950904137 0.01448183825 0.05502720312) 1236 2425 2
(0.09256849098 0.4537157545 0.2505630092 0.2031527453) 1233 2417 2
(0.7003355298 0.1498322351 0.003195691498 0.1466365436) 1258 2466 2
(0.002229070773 0.4988854646 0.4349073075 0.0639781571) 1195 2286 1
(0.5840099672 0.03016569352 0.2079950164 0.1778293229) 1193 2341 2
(0.4939690687 0.2530154657 0.04508682883 0.2079286368) 825 1636 2
(0.5687927179 0.1969168823 0.2156036411 0.01868675882) 820 1629 2
(0.0762268353 0.4618865823 0.2704830194 0.191403563) 1173 2243 1
(0.3797751762 0.3101124119 0.04522228002 0.2648901319) 1296 470 2
(0.6943132813 0.1528433593 0.1073460203 0.04549733907) 1198 2350 2
(0.9467097964 0.02664510179 0.004281063484 0.02236403831) 1261 2472 2
(0.5355251684 0.2322374158 0.1289412695 0.1032961463) 408 837 1
(0.3196326562 0.3401836719 0.3395672575 0.0006164144182) 255 466 1
(0.05336559109 0.4733172045 0.03950528676 0.4338119177) 1142 2241 1
(0.608125397 0.0141274111 0.1818098904 0.1959373015) 841 1668 1
(0.4940155725 0.2529922137 0.007387654469 0.2456045593) 224 459 2
(0.3361948822 0.22477524 0.1071273189 0.3319025589) 1234 2363 2
(0.7813464197 0.1093267901 0.07191569726 0.03741109288) 824 1636 2
(0.4154661106 0.2922669447 0.07518252589 0.2170844188) 1167 2287 2
(0.1876928112 0.4061535944 0.1991994982 0.2069540963) 228 476 2
(0.1599510641 0.4200244679 0.3182131593 0.1018113086) 1257 2464 2
(0.3160686481 0.341965676 0.2695100622 0.07245561375) 1147 2192 1
(0.8584558157 0.07077209217 0.001204057297 0.06956803487) 1296 2485 1
(0.8959306844 0.05203465778 0.04604373649 0.005990921289) 1145 2246 2
(0.535240451 0.04027812568 0.2323797745 0.1921016488) 840 719 1
(0.5760103537 0.2119948232 0.0292560192 0.182738804) 863 1711 1
(0.1276093235 0.4361953383 0.3004736045 0.1357217338) 1158 2213 1
(0.1069557616 0.4465221192 0.02657334554 0.4199487736) 908 1778 1
(0.3597467699 0.320126615 0.3004930494 0.01963356563) 859 1684 1
(0.6762961175 0.1618519412 0.04484902238 0.1170029189) 224 459 2
(0.1988064089 0.22740873 0.4005967956 0.1731880655) 811 1612 2
(0.5970061777 0.2014969112 0.02828061307 0.1732162981) 828 1645 1
(0.5454726257 0.1183842491 0.2272636872 0.108879438) 1230 2414 2
(0.3968537978 0.3015731011 0.07623490984 0.2253381913) 1178 2253 1
(0.4276069294 0.02937752929 0.256819006 0.2861965353) 1052 2005 2
(0.2954507214 0.3375517018 0.3522746393 0.0147229375) 1129 2212 1
(0.05571181627 0.2678412898 0.2043028021 0.4721440919) 1201 2298 2
(0.4353983057 0.008844116657 0.2823008472 0.2734567305) 1263 2479 2
(0.5434405527 0.1988129676 0.2282797237 0.02946675601) 1100 2158 2
(0.1624663561 0.4187668219 0.1599848044 0.2587820175) 1171 2297 2
(0.07398895294 0.4630055235 0.4089577888 0.05404773472) 1224 2399 2
(0.7575383581 0.121230821 0.08930171635 0.03192910461) 1030 2621 1
(0.5402974917 0.2298512541 0.173081879 0.05676937518) 904 1788 2
(0.4981829541 0.250908523 0.1736698122 0.07723871079) 863 1708 2
(0.5330752282 0.002360594934 0.2334623859 0.231101791) 856 1695 1
(0.2659825604 0.3670087198 0.3577792979 0.009229421931) 1141 2238 2
(0.08679310362 0.003609931436 0.4529935168 0.4566034482) 259 477 2
(0.5928013612 0.2035993194 0.01101094574 0.1925883736) 1141 2239 1
(0.4509461666 0.2745269167 0.07056436639 0.2039625503) 1075 2109 1
(0.8836197955 0.05819010224 0.04216063782 0.01602946442) 1254 2460 2
(0.02048402237 0.4897579888 0.1329530824 0.3568049065) 1076 2110 2
(0.4656421853 0.2671789073 0.1920908848 0.07508802252) 217 443 2
(0.2025143338 0.3562271069 0.3987428331 0.04251572624) 1258 2469 2
(0.1477241797 0.4261379102 0.1821570528 0.2439808574) 309 638 2
(0.5172118951 0.2413940524 0.2182839764 0.02311007599) 895 1769 2
(0.02285145285 0.1878663229 0.4885742736 0.3007079507) 1223 2400 2
(0.0319176702 0.4840411649 0.451364172 0.03267699289) 1044 2047 2
(0.18396716 0.05695869689 0.40801642 0.3510577231) 854 1691 1
(0.1914696916 0.3630586903 0.04120646392 0.4042651542) 867 1718 1
(0.2657521595 0.2293844926 0.3671239202 0.1377394276) 1236 2426 2
(0.4719376631 0.2055209228 0.05851024569 0.2640311685) 246 439 2
(0.2310756044 0.3844621978 0.09318815526 0.2912740425) 1232 2418 1
(0.1503023584 0.02641062682 0.4248488208 0.398438194) 874 1732 2
(0.05141814696 0.4674254869 0.4742909265 0.006865439572) 1202 2359 2
(0.2776850978 0.3611574511 0.1849383757 0.1762190754) 1233 2419 2
(0.2680697473 0.3659651264 0.3221658035 0.04379932284) 1070 2096 2
(0.1542209906 0.3917180398 0.4228895047 0.0311714649) 821 1631 2
(0.5620712318 0.09675045924 0.1222139249 0.2189643841) 1206 2308 2
(0.113753522 0.1536289303 0.443123239 0.2894943087) 1237 2428 2
(0.3289142364 0.1681732088 0.3355428818 0.167369673) 885 1750 1
(0.1164773665 0.4417613168 0.3778727254 0.0638885913) 333 687 1
(0.4114143532 0.2942928234 0.08572139335 0.2085714301) 1267 2484 2
(0.6507108653 0.1318836261 0.04276094121 0.1746445673) 1114 2185 1
(0.3065769676 0.08303935568 0.3467115162 0.2636721605) 885 1750 1
(0.01374489762 0.4931275512 0.3953913516 0.09773619958) 1228 2409 2
(0.492963652 0.253518174 0.1790579767 0.07446019731) 1107 2113 1
(0.4733680938 0.2633159531 0.02394472622 0.2393712269) 222 457 1
(0.7843900166 0.1078049917 0.01331784345 0.09448714824) 1227 2407 2
(0.6557035347 0.1721482327 0.07281944098 0.09932879168) 905 1791 1
(0.4004348389 0.2997825806 0.246757231 0.05302534958) 1164 2284 1
(0.3798357154 0.3100821423 0.2848156066 0.0252665357) 849 1684 1
(0.4526918445 0.1336086818 0.1400453959 0.2736540777) 252 524 1
(0.08956174658 0.4552191267 0.0928799874 0.3623391393) 228 474 2
(0.4340843636 0.06591841993 0.2829578182 0.2170393983) 1208 2368 1
(0.1613809338 0.4193095331 0.1236435535 0.2956659796) 843 1673 1
(0.2627472591 0.08259156849 0.3686263704 0.2860348019) 288 594 1
(0.08324906495 0.4583754675 0.2109872844 0.2473881831) 227 471 2
(0.2188781579 0.2845817187 0.390560921 0.1059792024) 225 462 1
(0.223767945 0.3881160275 0.3057627336 0.08235329389) 907 1776 1
(0.1944740336 0.04244268627 0.4027629832 0.3603202969) 1142 2238 1
(0.3273485787 0.1815446379 0.3363257107 0.1547810728) 1299 479 1
(0.1306605236 0.4346697382 0.4143555457 0.02031419248) 1164 2284 1
(0.1428798379 0.4285600811 0.2667787912 0.1617812899) 1143 2242 2
(0.4352125639 0.2409144408 0.04147927724 0.282393718) 866 1698 2
(0.1482733466 0.1952593473 0.2306039794 0.4258633267) 379 779 1
(0.6394240569 0.1058446008 0.07444337073 0.1802879716) 257 472 2
(0.08643865379 0.4567806731 0.2949213104 0.1618593627) 228 471 2
(0.07416037734 0.4629198113 0.06715627905 0.3957635323) 315 651 1
(0.3850493904 0.1386932495 0.1687820553 0.3074753048) 1105 2109 2
(0.03387121303 0.4830643935 0.1166274271 0.3664369664) 1289 2509 2
(0.1031873723 0.4484063138 0.2942138716 0.1541924422) 1236 2425 2
(0.4037476027 0.03948456109 0.2981261987 0.2586416376) 374 766 1
(0.1964722225 0.4017638888 0.3808449191 0.02091896964) 1064 2084 2
(0.03348375802 0.1935026949 0.2897554261 0.483258121) 802 1594 1
(0.06868739614 0.08083229176 0.3848240102 0.4656563019) 1085 2128 1
(0.01318177715 0.4934091114 0.1962492257 0.2971598857) 1116 2131 1
(0.3706722467 0.1087486747 0.2059152019 0.3146638766) 809 2679 1
(0.4487875021 0.2756062489 0.1233539702 0.1522522787) 835 1658 1
(0.7703405428 0.112647549 0.002182179601 0.1148297286) 1166 2287 1
(0.4723846411 0.2638076795 0.242160375 0.0216473045) 228 471 2
(0.9081095085 0.04594524574 0.02839054329 0.01755470245) 812 1611 2
(0.3126622824 0.2198384378 0.3436688588 0.123830421) 838 1661 1
(0.782315473 0.1088422635 0.08530720789 0.0235350556) 1172 2297 2
(0.01527604687 0.4923619766 0.4764641414 0.01589783521) 1299 2669 2
(0.8941487467 0.05292562664 0.02577007614 0.0271555505) 850 1686 1
(0.7298251235 0.06860123713 0.1350874383 0.06648620114) 1077 2113 2
(0.1799905119 0.410004744 0.0668791829 0.3431255612) 1193 2338 2
(0.1056595877 0.4471702062 0.1097345328 0.3374356733) 1231 2357 1
(0.3391709767 0.05042323731 0.2799912744 0.3304145117) 1235 2365 2
(0.2836745406 0.3581627297 0.05242911141 0.3057336183) 885 1750 2
(0.2490873671 0.3260673976 0.04938891885 0.3754563164) 1235 2423 1
(0.05731551573 0.4506166785 0.4713422421 0.02072556366) 223 460 2
(0.05137450951 0.2738613784 0.2004513668 0.4743127452) 1298 2519 1
(0.01023744957 0.2982736637 0.4948812752 0.1966076115) 869 1720 1
(0.09445696984 0.3674455399 0.4527715151 0.0853259752) 848 1680 1
(0.04752418272 0.4762379086 0.239942801 0.2362951076) 1290 2473 1
(0.6921392542 0.1539303729 0.1037714632 0.05015890973) 1117 2133 1
(0.2470808998 0.3764595501 0.002840478519 0.3736190716) 218 445 1
(0.086630914 0.09047472432 0.456684543 0.3662098187) 1168 2292 2
(0.1379534097 0.2356302577 0.4310232951 0.1953930375) 1191 2334 1
(0.08881108653 0.07276342916 0.3828310276 0.4555944567) 853 1673 2
(0.2263988788 0.3023078229 0.3868005606 0.08449273771) 1138 2230 1
(0.07887520514 0.09337887756 0.4605623974 0.3671835199) 867 1716 1
(0.4752429141 0.01334518119 0.2490333618 0.262378543) 816 1621 1
(0.61705974 0.154672837 0.03679729295 0.19147013) 1295 2516 1
(0.2189543095 0.3905228452 0.08973144819 0.3007913971) 875 1734 1
(0.3604851937 0.3197574031 0.2373257897 0.08243161348) 287 595 1
(0.06235041376 0.4688247931 0.1758884847 0.2929363084) 1267 2484 2
(0.1822437008 0.2846598798 0.1242182698 0.4088781496) 1266 2484 1
(0.02030739698 0.4898463015 0.4100313239 0.07981497762) 316 593 1
(0.2468308215 0.3003552664 0.3765845893 0.07622932283) 888 1759 2
(0.105591325 0.4472043375 0.08187501896 0.3653293186) 889 1741 1
(0.02362863086 0.05977004927 0.4284156353 0.4881856846) 1261 2474 1
(0.1072448961 0.171666368 0.446377552 0.274711184) 888 1756 1
(0.262793439 0.3686032805 0.3231765851 0.04542669544) 1133 2222 2
(0.5767096986 0.2116451507 0.01987079267 0.191774358) 1176 2307 2
(0.6309346256 0.1362874994 0.1845326872 0.04824518777) 1175 2306 2
(0.1440657672 0.4279671164 0.2001347375 0.2278323789) 887 1754 2
(0.1054756039 0.4472621981 0.2071461356 0.2401160625) 1189 2274 1
(0.5955632651 0.2022183674 0.09439086817 0.1078274993) 1261 2416 1
(0.5005449437 0.2497275281 0.17279443 0.07693309812) 1108 2174 1
(0.3530914965 0.1427499692 0.3234542518 0.1807042826) 1110 2175 1
(0.01610953968 0.4264702465 0.06547498363 0.4919452302) 1297 2518 1
(0.1886645875 0.06108019569 0.4056677062 0.3445875105) 287 592 1
(0.3534947978 0.3232526011 0.156976367 0.1662762341) 1024 2009 1
(0.5862191108 0.09925387577 0.2068904446 0.1076365688) 1296 470 1
(0.7492698402 0.01879406167 0.1065710183 0.1253650799) 1284 2505 1
(0.5722386446 0.2138806777 0.0832513518 0.1306293259) 831 1649 2
(0.02878391465 0.4856080427 0.1330358104 0.3525722323) 255 466 1
(0.01698905777 0.4915054711 0.3393578303 0.1521476408) 484 988 2
(0.07906707616 0.3893726974 0.07109376456 0.4604664619) 257 534 1
(0.3626406649 0.3186796675 0.1489168695 0.169762798) 1279 419 2
(0.3046806741 0.3476596629 0.1326538389 0.215005824) 1188 2331 1
(0.7193765587 0.1227923305 0.01751939009 0.1403117206) 289 538 2
(0.7024234937 0.09208169077 0.05670656238 0.1487882532) 925 1828 1
(0.1395263884 0.2737507507 0.4302368058 0.1564860551) 1130 2217 2
(0.264399723 0.2030153793 0.1647847592 0.3678001385) 1134 2224 1
(0.2372588298 0.08345671525 0.2979138699 0.3813705851) 1195 2286 2
(0.1957378925 0.4021310537 0.09370522981 0.3084258239) 875 1715 1
(0.4884034769 0.2557982615 0.1316005136 0.1241977479) 319 598 1
(0.4418647765 0.2790676118 0.2603959391 0.0186716727) 1232 2415 2
(0.5661511674 0.175361938 0.2169244163 0.04156247827) 255 531 2
(0.3065810442 0.3467094779 0.2399914229 0.106718055) 1178 2253 1
(0.3353979056 0.3323010472 0.275419526 0.05688152119) 1233 2419 2
(0.6556427977 0.1721786011 0.1046457414 0.06753285976) 254 463 1
(0.5034313556 0.2482843222 0.003171377142 0.245112945) 495 1011 1
(0.05641880265 0.3941612127 0.4717905987 0.07762938599) 1175 2303 1
(0.3387424606 0.1093488446 0.3306287697 0.2212799251) 1131 2219 2
(0.3579807181 0.3210096409 0.3088282416 0.01218139935) 255 466 1
(0.07207939141 0.2741317718 0.1898285325 0.4639603043) 1193 2282 2
(0.2762893866 0.117817033 0.3618553067 0.2440382737) 833 1651 1
(0.3502171513 0.2321362093 0.09275521509 0.3248914244) 229 478 1
(0.5424119474 0.2167118506 0.2287940263 0.01208217568) 812 1614 2
(0.7169415299 0.009800664948 0.1317285701 0.1415292351) 1146 2248 1
(0.1418893604 0.267558461 0.1614968588 0.4290553198) 863 1710 1
(0.2494904611 0.3752547694 0.3105455198 0.06470924962) 1066 2091 1
(0.1891359015 0.2465196224 0.1589124269 0.4054320492) 1259 2412 2
(0.1914797442 0.1538890244 0.4042601279 0.2503711035) 1053 2063 1
(0.08834115222 0.4558294239 0.3540100131 0.1018194108) 1291 455 2
(0.3895762058 0.3052118971 0.06388138094 0.2413305162) 1032 2023 2
(0.4018773319 0.201119338 0.2990613341 0.09794199608) 855 1696 2
(0.5254914784 0.1074339514 0.2372542608 0.1298203094) 1160 2276 2
(0.3667880517 0.3166059741 0.08744388691 0.2291620872) 284 589 1
(0.4277121264 0.2614819728 0.2861439368 0.02466196404) 1066 2091 2
(0.02028083201 0.489859584 0.1347975361 0.3550620479) 1223 2397 2
(0.3898268419 0.1880396863 0.1170468928 0.305086579) 250 451 2
(0.4853148566 0.2573425717 0.1597267046 0.09761586711) 1116 2189 2
(0.3376421541 0.331178923 0.2004636282 0.1307152948) 1145 2188 1
(0.1832109321 0.3942389209 0.01415561302 0.408394534) 1050 2001 2
(0.08960281491 0.2183144881 0.2368841044 0.4551985925) 1066 2032 2
(0.1719417333 0.4140291334 0.2255036898 0.1885254435) 1052 2063 2
(0.04600003143 0.4769999843 0.0495716184 0.4274283659) 1201 2354 2
(0.7020631586 0.1489684207 0.009276685957 0.1396917347) 859 2545 2
(0.6600052988 0.09066366748 0.07933368313 0.1699973506) 861 1706 1
(0.1321494074 0.0665107975 0.4339252963 0.3674144988) 315 648 1
(0.6414246245 0.1792876878 0.01231713285 0.1669705549) 856 1698 1
(0.7101380202 0.0108382382 0.1340927517 0.1449309899) 223 459 1
(0.1790818415 0.04637982758 0.4104590792 0.3640792516) 1080 2116 1
(0.8897521031 0.05338045093 0.05512394844 0.001743497511) 1202 2356 1
(0.6345069822 0.1335891694 0.1827465089 0.04915733951) 229 474 1
(0.3091916479 0.06931340877 0.2760907673 0.3454041761) 1202 2300 2
(0.5004528686 0.2497735657 0.1234800268 0.1262935389) 1236 2423 2
(0.2111018914 0.3944490543 0.3605422235 0.03390683079) 1234 2419 2
(0.03001385874 0.4849930706 0.1637057309 0.3212873397) 1289 449 2
(0.3042397239 0.2907276657 0.05715247233 0.3478801381) 1171 2239 2
(0.2662555638 0.1580655864 0.3668722181 0.2088066317) 1201 2357 2
(0.2917625489 0.3541187256 0.298312848 0.05580587759) 1016 1990 2
(0.1261005099 0.436949745 0.006655036811 0.4302947082) 1127 2152 1
(0.0801851956 0.439976036 0.01993136617 0.4599074022) 375 770 1
(0.2074243497 0.3127941591 0.3962878252 0.08349366607) 1162 2277 1
(0.4046747305 0.1886399473 0.2976626348 0.1090226875) 258 537 2
(0.2062719907 0.3968640046 0.1626608508 0.2342031538) 1292 2513 2
(0.2994369563 0.1500652702 0.2002162517 0.3502815219) 1172 2241 2
(0.09469573594 0.3422182537 0.1104338784 0.452652132) 1205 2364 1
(0.395754892 0.302122554 0.04526826059 0.2568542934) 1014 1988 2
(0.3216332248 0.3391833876 0.1965621028 0.1426212848) 1237 2428 1
(0.3260189606 0.3369905197 0.1208222436 0.2161682761) 1019 1998 2
(0.5342377568 0.2328811216 0.1209895689 0.1118915527) 834 1637 1
(0.2774700518 0.3612649741 0.2122995623 0.1489654118) 1052 2064 1
(0.403166083 0.2984169585 0.2659720813 0.03244487724) 256 530 2
(0.009172380588 0.178848442 0.4954138097 0.3165653677) 317 652 1
(0.1129508027 0.4435245987 0.09253743853 0.3509871601) 1013 1986 2
(0.1889699448 0.4055150276 0.3498982023 0.0556168253) 896 1774 1
(0.2886752999 0.3556623501 0.3439317468 0.01173060324) 1229 2409 2
(0.1183156873 0.4408421563 0.3017158698 0.1391262866) 1267 2487 1
(0.1163406369 0.4418296816 0.2310865361 0.2107431454) 1234 2419 2
(0.5557622838 0.2221188581 0.115944965 0.1061738931) 1299 2490 1
(0.3595472591 0.3055597978 0.3202263704 0.01466657264) 1235 2421 1
(0.6978468545 0.1510765728 0.04957493348 0.1015016393) 1023 2653 2
(0.3300370336 0.07320825717 0.261773226 0.3349814832) 1171 2297 1
(0.3150371367 0.1948913411 0.1475900906 0.3424814317) 1298 2489 2
(0.2951623705 0.3524188148 0.2681787025 0.08424011228) 285 588 2
(0.5155302699 0.1594223776 0.08281248742 0.2422348651) 821 1612 2
(0.137402893 0.4312985535 0.08075757181 0.3505409817) 1223 2341 1
(0.7293403984 0.01772209035 0.1353298008 0.1176077105) 1170 2293 1
(0.1541548362 0.4229225819 0.2576415287 0.1652810532) 1267 2486 2
(0.301813416 0.349093292 0.2650850699 0.08400822216) 824 1637 1
(0.4012124106 0.003771254203 0.2993937947 0.2956225405) 374 766 1
(0.5379613152 0.2310193424 0.01509350793 0.2159258345) 844 1674 2
(0.5162396037 0.2418801981 0.2218662851 0.02001391308) 1011 1980 2
(0.6624253623 0.002414966251 0.1663723526 0.1687873189) 1248 2390 2
(0.8262203531 0.08688982344 0.05853029421 0.02835952923) 281 582 2
(0.6791806655 0.1604096673 0.004201752624 0.1562079146) 1206 2366 2
(0.2130230955 0.008941835797 0.3845466164 0.3934884522) 1198 2292 2
(0.05885707851 0.3117026428 0.4705714607 0.1588688179) 1202 2356 1
(0.3732482694 0.3133758653 0.04584600854 0.2675298568) 868 1720 2
(0.6564099446 0.1717950277 0.04487158016 0.1269234475) 1163 2281 2
(0.05888429694 0.1983451614 0.4705578515 0.2722126901) 1264 2478 1
(0.1577336791 0.4211331605 0.3122665482 0.1088666123) 1172 2299 2
(0.126814662 0.3917751272 0.436592669 0.04481754183) 1114 2183 1
(0.311168012 0.344415994 0.1129069464 0.2315090475) 1258 2468 2
(0.2545929047 0.1213481434 0.3727035477 0.2513554042) 1084 2127 2
(0.6355243603 0.1587452307 0.02349258913 0.1822378199) 255 530 1
(0.1940379668 0.4029810166 0.1840696189 0.2189113977) 229 474 2
(0.0162525066 0.09556398189 0.4918737467 0.3963097648) 841 1666 1
(0.100762553 0.07401134144 0.3756073821 0.4496187235) 1260 2472 1
(0.6657180071 0.1671409965 0.09124025486 0.07590074161) 1169 2235 1
(0.5016291903 0.2491854049 0.02000252912 0.2291828757) 846 1676 2
(0.3734665054 0.3132667473 0.2698767105 0.04339003681) 224 459 2
(0.1798886938 0.3558625506 0.05419310248 0.4100556531) 277 515 2
(0.08193748624 0.4590312569 0.2720455926 0.1869856643) 1157 2269 2
(0.1912536304 0.06452055021 0.4043731848 0.3398526346) 857 1700 2
(0.1945148683 0.4027425659 0.07152970839 0.3312128575) 285 591 1
(0.186477103 0.4067614485 0.2205465362 0.1862149123) 1222 2339 1
(0.3298413049 0.3350793475 0.2724891165 0.06259023105) 282 582 2
(0.02841090856 0.4857945457 0.220482656 0.2653118898) 1115 2188 1
(0.8664197679 0.03902678438 0.06679011604 0.02776333166) 893 1768 2