/*--------------------------------*- C++ -*----------------------------------*\
| =========                 |                                                 |
| \\      /  F ield         | OpenFOAM: The Open Source CFD Toolbox           |
|  \\    /   O peration     | Version:  v1912                                 |
|   \\  /    A nd           | Website:  www.openfoam.com                      |
|    \\/     M anipulation  |                                                 |
\*---------------------------------------------------------------------------*/
FoamFile
{
    version     2.0;
    format      ascii;
    class       volVectorField;
    location    "6.56";
    object      U;
}
// * * * * * * * * * * * * * * * * * * * * * * * * * * * * * * * * * * * * * //

dimensions      [0 1 -1 0 0 0 0];


internalField   nonuniform List<vector> 
1900
(
(-0.776819 -1.22294e-06 0)
(-0.0523283 -2.73468e-06 0)
(0.0913441 -3.37336e-06 0)
(0.0887841 2.52659e-06 0)
(0.0901885 -1.91608e-05 0)
(0.0906908 -3.67587e-05 0)
(0.0915409 -9.02333e-05 0)
(0.0927931 0.000284929 0)
(0.0944563 0.00288231 0)
(0.0882957 0.0118171 0)
(-0.776819 -2.05445e-06 0)
(-0.052329 -4.71582e-06 0)
(0.091347 -3.78949e-06 0)
(0.0887974 7.57979e-06 0)
(0.0902046 -2.64707e-06 0)
(0.0906658 -2.76391e-05 0)
(0.0913603 -0.000100198 0)
(0.092481 0.000190082 0)
(0.0957085 0.00199619 0)
(0.0998636 0.0112638 0)
(-0.776819 3.25227e-14 0)
(-0.0523269 -1.73408e-14 0)
(0.0913502 -8.3124e-15 0)
(0.0888032 -1.04458e-14 0)
(0.0901902 1.05018e-13 0)
(0.0906071 1.31991e-13 0)
(0.0912928 9.2629e-14 0)
(0.0926887 3.18644e-14 0)
(0.096509 -6.64798e-14 0)
(0.106415 -1.48797e-13 0)
(-0.776819 2.05445e-06 0)
(-0.052329 4.71582e-06 0)
(0.091347 3.78949e-06 0)
(0.0887974 -7.57979e-06 0)
(0.0902046 2.64707e-06 0)
(0.0906658 2.76391e-05 0)
(0.0913603 0.000100198 0)
(0.092481 -0.000190082 0)
(0.0957085 -0.00199619 0)
(0.0998636 -0.0112638 0)
(-0.776819 1.22294e-06 0)
(-0.0523283 2.73468e-06 0)
(0.0913441 3.37336e-06 0)
(0.0887841 -2.52659e-06 0)
(0.0901885 1.91608e-05 0)
(0.0906908 3.67587e-05 0)
(0.0915409 9.02333e-05 0)
(0.0927931 -0.000284929 0)
(0.0944563 -0.00288231 0)
(0.0882957 -0.0118171 0)
(0.0915166 0.0377536 0)
(0.128618 0.0509597 0)
(0.176978 0.0755014 0)
(0.253895 0.117504 0)
(0.399308 0.174239 0)
(0.115292 0.0275695 0)
(0.142535 0.0285602 0)
(0.174012 0.0382097 0)
(0.236711 0.0601327 0)
(0.37829 0.102777 0)
(0.126271 -1.80732e-13 0)
(0.151791 -1.81573e-13 0)
(0.184844 -1.56848e-13 0)
(0.248047 -1.2495e-13 0)
(0.388843 -5.55341e-14 0)
(0.115292 -0.0275695 0)
(0.142535 -0.0285602 0)
(0.174012 -0.0382097 0)
(0.236711 -0.0601327 0)
(0.37829 -0.102777 0)
(0.0915166 -0.0377536 0)
(0.128618 -0.0509597 0)
(0.176978 -0.0755014 0)
(0.253895 -0.117504 0)
(0.399308 -0.174239 0)
(0.849656 0.0305686 0)
(1.10792 -0.0526913 0)
(1.25404 -0.0819831 0)
(1.38011 -0.099585 0)
(1.47406 -0.10214 0)
(0.8224 -0.0174127 0)
(1.12186 -0.0481971 0)
(1.28451 -0.0591766 0)
(1.4146 -0.0615763 0)
(1.50397 -0.0712316 0)
(0.818461 -1.20936e-14 0)
(1.12599 -4.79849e-17 0)
(1.28011 -7.43819e-14 0)
(1.4056 2.44595e-13 0)
(1.49351 -4.3614e-13 0)
(0.8224 0.0174127 0)
(1.12186 0.0481971 0)
(1.28451 0.0591766 0)
(1.4146 0.0615763 0)
(1.50397 0.0712316 0)
(0.849656 -0.0305686 0)
(1.10792 0.0526913 0)
(1.25404 0.0819831 0)
(1.38011 0.099585 0)
(1.47406 0.10214 0)
(1.44363 -0.10514 0)
(1.44237 -0.102888 0)
(1.49673 -0.127888 0)
(1.50285 -0.0162697 0)
(1.38205 0.0567769 0)
(1.02415 -0.0124867 0)
(0.88508 -0.0532665 0)
(0.766569 -0.0863607 0)
(0.613723 -0.103054 0)
(0.481865 -0.0848838 0)
(0.385315 -0.0593546 0)
(0.304409 -0.0410436 0)
(0.211944 -0.0288648 0)
(0.112988 -0.021089 0)
(0.054916 -0.0173065 0)
(0.0382238 -0.0159686 0)
(0.0350383 -0.0153799 0)
(0.0349966 -0.0149422 0)
(0.0366542 -0.0143031 0)
(0.0419291 -0.0139582 0)
(0.0529595 -0.0138557 0)
(0.0691414 -0.0138195 0)
(0.0881038 -0.0137992 0)
(0.107982 -0.0137773 0)
(0.127877 -0.0137484 0)
(0.147573 -0.0137052 0)
(0.166792 -0.0137274 0)
(0.186287 -0.0135784 0)
(0.204942 -0.0137123 0)
(0.223501 -0.013564 0)
(0.241891 -0.0137805 0)
(0.259543 -0.0134504 0)
(0.275953 -0.014037 0)
(0.289393 -0.0133773 0)
(0.302015 -0.0143282 0)
(0.309538 -0.0138936 0)
(0.293852 -0.0143115 0)
(0.200465 -0.013229 0)
(0.119182 -0.0150768 0)
(-0.0272311 -0.0144411 0)
(1.50687 -0.0575357 0)
(1.49591 -0.0522047 0)
(1.53652 -0.0705478 0)
(1.49132 -0.0227422 0)
(1.37983 0.0344295 0)
(1.02641 -0.00321874 0)
(0.878222 -0.0238254 0)
(0.776502 -0.0411489 0)
(0.638338 -0.050722 0)
(0.503542 -0.0423343 0)
(0.398782 -0.0293412 0)
(0.310821 -0.0200807 0)
(0.214106 -0.0144597 0)
(0.113592 -0.0105891 0)
(0.0549474 -0.00863594 0)
(0.0381019 -0.00797315 0)
(0.0349432 -0.00767532 0)
(0.0349296 -0.00746359 0)
(0.0366133 -0.0071423 0)
(0.0418859 -0.00697296 0)
(0.0529496 -0.00692506 0)
(0.0691729 -0.006909 0)
(0.0881798 -0.00689937 0)
(0.108102 -0.00688852 0)
(0.128038 -0.00687414 0)
(0.147771 -0.00685259 0)
(0.167023 -0.00686389 0)
(0.186551 -0.00678951 0)
(0.205235 -0.00685636 0)
(0.223822 -0.00678174 0)
(0.242239 -0.00689043 0)
(0.259914 -0.0067236 0)
(0.276341 -0.00701895 0)
(0.289771 -0.00667914 0)
(0.302438 -0.00716009 0)
(0.30995 -0.00692862 0)
(0.294396 -0.00715275 0)
(0.200968 -0.00657164 0)
(0.119245 -0.00754113 0)
(-0.0276492 -0.00715045 0)
(1.4921 3.54026e-13 0)
(1.48441 -8.90457e-14 0)
(1.53024 1.95663e-14 0)
(1.47686 -1.06736e-12 0)
(1.36402 -3.1305e-12 0)
(1.02322 -4.06135e-11 0)
(0.874607 -1.69038e-11 0)
(0.771183 -1.88924e-12 0)
(0.626153 1.98999e-12 0)
(0.490768 7.87755e-13 0)
(0.391234 8.44063e-13 0)
(0.309766 3.46678e-12 0)
(0.215772 6.63413e-12 0)
(0.114607 8.12685e-12 0)
(0.055125 8.38312e-12 0)
(0.0381267 6.91422e-12 0)
(0.0349811 3.53245e-12 0)
(0.0349608 -2.24489e-12 0)
(0.0366627 -1.04884e-11 0)
(0.0419003 -1.19894e-11 0)
(0.052953 -7.48255e-12 0)
(0.0691818 2.4667e-12 0)
(0.0881968 7.2985e-12 0)
(0.108125 2.9126e-12 0)
(0.128068 -8.70131e-12 0)
(0.147806 -1.34445e-11 0)
(0.167064 -1.92645e-11 0)
(0.1866 -1.99612e-11 0)
(0.205293 -7.09105e-12 0)
(0.223893 -9.6148e-12 0)
(0.242328 -5.17752e-12 0)
(0.260024 9.40978e-12 0)
(0.276481 7.77701e-12 0)
(0.289947 -1.34968e-12 0)
(0.302688 1.25675e-12 0)
(0.310294 1.11436e-11 0)
(0.294968 9.78908e-12 0)
(0.201749 5.06863e-12 0)
(0.120218 2.08225e-12 0)
(-0.0262781 5.54018e-14 0)
(1.50687 0.0575357 0)
(1.49591 0.0522047 0)
(1.53652 0.0705478 0)
(1.49132 0.0227422 0)
(1.37983 -0.0344295 0)
(1.02641 0.00321874 0)
(0.878222 0.0238254 0)
(0.776502 0.0411489 0)
(0.638338 0.050722 0)
(0.503542 0.0423343 0)
(0.398782 0.0293412 0)
(0.310821 0.0200807 0)
(0.214106 0.0144597 0)
(0.113592 0.0105891 0)
(0.0549474 0.00863594 0)
(0.0381019 0.00797315 0)
(0.0349432 0.00767532 0)
(0.0349296 0.00746359 0)
(0.0366133 0.0071423 0)
(0.0418859 0.00697296 0)
(0.0529496 0.00692506 0)
(0.0691729 0.006909 0)
(0.0881798 0.00689937 0)
(0.108102 0.00688852 0)
(0.128038 0.00687414 0)
(0.147771 0.00685259 0)
(0.167023 0.00686389 0)
(0.186551 0.00678951 0)
(0.205235 0.00685636 0)
(0.223822 0.00678174 0)
(0.242239 0.00689043 0)
(0.259914 0.0067236 0)
(0.276341 0.00701895 0)
(0.289771 0.00667914 0)
(0.302438 0.00716009 0)
(0.30995 0.00692862 0)
(0.294396 0.00715275 0)
(0.200968 0.00657164 0)
(0.119245 0.00754113 0)
(-0.0276492 0.00715045 0)
(1.44363 0.10514 0)
(1.44237 0.102888 0)
(1.49673 0.127888 0)
(1.50285 0.0162697 0)
(1.38205 -0.0567769 0)
(1.02415 0.0124867 0)
(0.88508 0.0532665 0)
(0.766569 0.0863607 0)
(0.613723 0.103054 0)
(0.481865 0.0848838 0)
(0.385315 0.0593546 0)
(0.304409 0.0410436 0)
(0.211944 0.0288648 0)
(0.112988 0.021089 0)
(0.054916 0.0173065 0)
(0.0382238 0.0159686 0)
(0.0350383 0.0153799 0)
(0.0349966 0.0149422 0)
(0.0366542 0.0143031 0)
(0.0419291 0.0139582 0)
(0.0529595 0.0138557 0)
(0.0691414 0.0138195 0)
(0.0881038 0.0137992 0)
(0.107982 0.0137773 0)
(0.127877 0.0137484 0)
(0.147573 0.0137052 0)
(0.166792 0.0137274 0)
(0.186287 0.0135784 0)
(0.204942 0.0137123 0)
(0.223501 0.013564 0)
(0.241891 0.0137805 0)
(0.259543 0.0134504 0)
(0.275953 0.014037 0)
(0.289393 0.0133773 0)
(0.302015 0.0143282 0)
(0.309538 0.0138936 0)
(0.293852 0.0143115 0)
(0.200465 0.013229 0)
(0.119182 0.0150768 0)
(-0.0272311 0.0144411 0)
(1.36604 0.18581 0)
(1.36656 0.207594 0)
(1.41689 0.179623 0)
(1.37635 0.0615916 0)
(1.25405 -0.0138266 0)
(0.963255 0.0393906 0)
(0.813079 0.119242 0)
(0.677166 0.189298 0)
(0.542047 0.20264 0)
(0.44366 0.161693 0)
(0.36868 0.115624 0)
(0.296184 0.0829373 0)
(0.205125 0.0602432 0)
(0.10769 0.0441033 0)
(0.0525796 0.0359643 0)
(0.037294 0.0331673 0)
(0.0343849 0.0319546 0)
(0.0342448 0.0309319 0)
(0.0361957 0.0297474 0)
(0.0417973 0.0290918 0)
(0.0529553 0.0288356 0)
(0.0691632 0.0287235 0)
(0.0881251 0.0286727 0)
(0.108002 0.0286274 0)
(0.127904 0.0285689 0)
(0.147614 0.028481 0)
(0.166851 0.0285278 0)
(0.186361 0.0282197 0)
(0.205043 0.0284988 0)
(0.223627 0.0281984 0)
(0.242038 0.0286391 0)
(0.259732 0.0279792 0)
(0.276199 0.0291323 0)
(0.28981 0.0278678 0)
(0.302402 0.0297214 0)
(0.310106 0.0288571 0)
(0.2941 0.0297366 0)
(0.201035 0.0274606 0)
(0.120741 0.0304756 0)
(-0.0238857 0.0293869 0)
(1.26667 0.268408 0)
(1.27304 0.292252 0)
(1.2267 0.277457 0)
(1.16964 0.180719 0)
(1.00641 0.113837 0)
(0.797595 0.173611 0)
(0.640569 0.278899 0)
(0.506045 0.333706 0)
(0.414547 0.311765 0)
(0.365444 0.248726 0)
(0.322492 0.185959 0)
(0.264104 0.139698 0)
(0.179572 0.103549 0)
(0.0917905 0.076725 0)
(0.0466473 0.0638444 0)
(0.0350821 0.0593216 0)
(0.032793 0.0571454 0)
(0.0325555 0.0552195 0)
(0.034931 0.0533583 0)
(0.041269 0.0523277 0)
(0.0528643 0.0518453 0)
(0.0691815 0.0515978 0)
(0.0881255 0.0514858 0)
(0.107975 0.0514002 0)
(0.127873 0.0512964 0)
(0.147602 0.051142 0)
(0.166882 0.0512279 0)
(0.186418 0.0506771 0)
(0.205163 0.0511753 0)
(0.223804 0.0506492 0)
(0.242262 0.0514163 0)
(0.260052 0.0502821 0)
(0.276633 0.0522038 0)
(0.290629 0.0501398 0)
(0.303186 0.0531786 0)
(0.311145 0.051744 0)
(0.294255 0.0533159 0)
(0.201313 0.0492832 0)
(0.121543 0.0541561 0)
(-0.0224866 0.0527426 0)
(1.07881 0.380991 0)
(1.06988 0.382446 0)
(1.02731 0.335879 0)
(0.920475 0.268771 0)
(0.726246 0.25606 0)
(0.539038 0.339738 0)
(0.406466 0.419775 0)
(0.324979 0.424727 0)
(0.301011 0.383307 0)
(0.293381 0.30586 0)
(0.26945 0.235551 0)
(0.219575 0.182986 0)
(0.142994 0.13801 0)
(0.0709914 0.105528 0)
(0.0392703 0.0908532 0)
(0.0320775 0.0852523 0)
(0.0303367 0.0820986 0)
(0.0301855 0.079228 0)
(0.0331843 0.0767994 0)
(0.0404089 0.0754582 0)
(0.0526142 0.0747842 0)
(0.0691347 0.0743779 0)
(0.0880725 0.0741816 0)
(0.107875 0.0740476 0)
(0.127748 0.0739003 0)
(0.147483 0.073684 0)
(0.166802 0.0738134 0)
(0.186361 0.0730306 0)
(0.205178 0.0737423 0)
(0.223877 0.0730197 0)
(0.24237 0.0740766 0)
(0.260252 0.0725582 0)
(0.27694 0.0750603 0)
(0.291374 0.0724846 0)
(0.303946 0.0762835 0)
(0.312085 0.0745699 0)
(0.293994 0.0767053 0)
(0.201309 0.0712507 0)
(0.122338 0.0781122 0)
(-0.0210392 0.0762629 0)
(0.781376 0.410553 0)
(0.745542 0.38017 0)
(0.686312 0.350474 0)
(0.548985 0.359865 0)
(0.369721 0.436102 0)
(0.245929 0.505119 0)
(0.1966 0.514709 0)
(0.189776 0.480838 0)
(0.211651 0.410704 0)
(0.226843 0.331702 0)
(0.212868 0.267763 0)
(0.16888 0.21285 0)
(0.102192 0.163753 0)
(0.0500052 0.131334 0)
(0.0317678 0.117114 0)
(0.0282717 0.110843 0)
(0.0270108 0.106617 0)
(0.0272534 0.102847 0)
(0.0311047 0.0999539 0)
(0.0393277 0.0983799 0)
(0.0522336 0.0975625 0)
(0.0690133 0.0970031 0)
(0.0879618 0.0967127 0)
(0.10771 0.0965252 0)
(0.127548 0.0963372 0)
(0.147279 0.0960647 0)
(0.166635 0.0962461 0)
(0.186223 0.0952548 0)
(0.205116 0.0961715 0)
(0.223878 0.0952912 0)
(0.242396 0.0966059 0)
(0.260366 0.0948033 0)
(0.277142 0.0977381 0)
(0.292018 0.0948754 0)
(0.304631 0.0990429 0)
(0.312839 0.0973612 0)
(0.293587 0.0999193 0)
(0.201154 0.0932699 0)
(0.123259 0.102174 0)
(-0.0192372 0.0999176 0)
(0.415882 0.454868 0)
(0.330563 0.429254 0)
(0.240176 0.468554 0)
(0.12982 0.540182 0)
(0.0494675 0.578158 0)
(0.0340587 0.574497 0)
(0.0617038 0.538379 0)
(0.10624 0.478077 0)
(0.146349 0.410466 0)
(0.166948 0.345201 0)
(0.155706 0.286547 0)
(0.115234 0.230502 0)
(0.0621909 0.182747 0)
(0.0308329 0.154939 0)
(0.0236706 0.14244 0)
(0.0228946 0.135648 0)
(0.0224257 0.130376 0)
(0.0235653 0.125876 0)
(0.0285902 0.122662 0)
(0.0379836 0.121021 0)
(0.0516793 0.120061 0)
(0.0687901 0.119357 0)
(0.0878009 0.11897 0)
(0.107533 0.118728 0)
(0.127367 0.118507 0)
(0.147129 0.118185 0)
(0.166558 0.118429 0)
(0.186231 0.117261 0)
(0.205237 0.118372 0)
(0.224106 0.117376 0)
(0.242692 0.118917 0)
(0.260795 0.116928 0)
(0.277702 0.120179 0)
(0.293045 0.117169 0)
(0.305787 0.121561 0)
(0.314043 0.119941 0)
(0.293983 0.12277 0)
(0.201977 0.115071 0)
(0.125446 0.125962 0)
(-0.0157982 0.123455 0)
(0.0151418 0.531415 0)
(-0.0562314 0.544292 0)
(-0.102461 0.59147 0)
(-0.12973 0.60767 0)
(-0.11361 0.589377 0)
(-0.0660295 0.558786 0)
(-0.00419795 0.516836 0)
(0.0493471 0.463488 0)
(0.091808 0.40829 0)
(0.110083 0.351603 0)
(0.0988306 0.295838 0)
(0.063267 0.242108 0)
(0.0292485 0.200966 0)
(0.0165638 0.178658 0)
(0.016578 0.167368 0)
(0.0175229 0.15977 0)
(0.0178236 0.153522 0)
(0.0199893 0.148426 0)
(0.0262256 0.144977 0)
(0.0367313 0.143221 0)
(0.0511476 0.14219 0)
(0.0685235 0.141354 0)
(0.0875382 0.140872 0)
(0.107193 0.140579 0)
(0.126957 0.140336 0)
(0.146682 0.139974 0)
(0.166114 0.140296 0)
(0.185821 0.139002 0)
(0.204855 0.140303 0)
(0.223756 0.139242 0)
(0.24232 0.140988 0)
(0.260462 0.138912 0)
(0.277372 0.142405 0)
(0.292996 0.139371 0)
(0.305785 0.1437 0)
(0.313805 0.142302 0)
(0.292723 0.145266 0)
(0.200449 0.136835 0)
(0.125117 0.149897 0)
(-0.0155727 0.147271 0)
(-0.191126 0.548344 0)
(-0.234688 0.568717 0)
(-0.237536 0.588279 0)
(-0.218753 0.574403 0)
(-0.17088 0.552714 0)
(-0.113951 0.527894 0)
(-0.0452743 0.494188 0)
(0.0044546 0.448256 0)
(0.0441478 0.400929 0)
(0.0564752 0.349647 0)
(0.044483 0.296785 0)
(0.0180927 0.249433 0)
(0.00301068 0.217898 0)
(0.00270844 0.200866 0)
(0.00697791 0.190475 0)
(0.00962376 0.182303 0)
(0.0112993 0.175466 0)
(0.0151681 0.17011 0)
(0.023087 0.166688 0)
(0.0349463 0.164913 0)
(0.0502799 0.163838 0)
(0.0681243 0.16288 0)
(0.087352 0.16231 0)
(0.107134 0.161975 0)
(0.127024 0.161724 0)
(0.146908 0.161333 0)
(0.166519 0.16175 0)
(0.186471 0.160368 0)
(0.205697 0.161848 0)
(0.224806 0.160758 0)
(0.243521 0.162686 0)
(0.261866 0.160595 0)
(0.278941 0.164285 0)
(0.294937 0.161307 0)
(0.307855 0.165539 0)
(0.315852 0.16431 0)
(0.294484 0.167403 0)
(0.2026 0.158508 0)
(0.128573 0.173473 0)
(-0.0110465 0.170753 0)
(-0.217046 0.525923 0)
(-0.267844 0.540307 0)
(-0.273398 0.549559 0)
(-0.253513 0.532183 0)
(-0.201286 0.517851 0)
(-0.143598 0.503976 0)
(-0.0782774 0.474339 0)
(-0.0345658 0.434438 0)
(-0.00124172 0.392166 0)
(0.0050839 0.345188 0)
(-0.00384776 0.298137 0)
(-0.01528 0.260842 0)
(-0.0142855 0.237695 0)
(-0.00725631 0.223534 0)
(-0.00039191 0.213138 0)
(0.00338581 0.204337 0)
(0.00624375 0.196975 0)
(0.0116433 0.191415 0)
(0.0209268 0.187871 0)
(0.0338506 0.186088 0)
(0.0497295 0.18498 0)
(0.0676954 0.183907 0)
(0.0868264 0.183254 0)
(0.106445 0.182882 0)
(0.126188 0.182638 0)
(0.145977 0.182233 0)
(0.165584 0.182766 0)
(0.18548 0.181342 0)
(0.204739 0.182989 0)
(0.223898 0.181921 0)
(0.242614 0.184013 0)
(0.261027 0.181976 0)
(0.278133 0.185821 0)
(0.294333 0.182967 0)
(0.307247 0.187058 0)
(0.314997 0.185989 0)
(0.293182 0.189041 0)
(0.201216 0.179778 0)
(0.128549 0.196695 0)
(-0.0104175 0.194081 0)
(-0.204725 0.502545 0)
(-0.265285 0.510592 0)
(-0.281699 0.513676 0)
(-0.270426 0.500512 0)
(-0.221745 0.495014 0)
(-0.163031 0.484049 0)
(-0.108094 0.456203 0)
(-0.0689481 0.419927 0)
(-0.0437454 0.38071 0)
(-0.0403175 0.338017 0)
(-0.0421139 0.299703 0)
(-0.0400513 0.272735 0)
(-0.0302353 0.255789 0)
(-0.01922 0.243711 0)
(-0.0106609 0.23354 0)
(-0.00566234 0.224595 0)
(-0.000992615 0.217198 0)
(0.00652594 0.211812 0)
(0.0175505 0.208453 0)
(0.0318737 0.206802 0)
(0.0487174 0.20568 0)
(0.0672568 0.204499 0)
(0.0867443 0.203766 0)
(0.106631 0.203362 0)
(0.126624 0.203136 0)
(0.14667 0.202715 0)
(0.166565 0.203335 0)
(0.186628 0.20188 0)
(0.206133 0.203644 0)
(0.225484 0.20262 0)
(0.244305 0.204831 0)
(0.262835 0.202864 0)
(0.279981 0.20682 0)
(0.296313 0.204112 0)
(0.309118 0.208048 0)
(0.316601 0.207227 0)
(0.29475 0.210239 0)
(0.202725 0.200869 0)
(0.131307 0.21964 0)
(-0.00668426 0.217057 0)
(-0.180688 0.477893 0)
(-0.252137 0.48221 0)
(-0.280036 0.486893 0)
(-0.280227 0.480795 0)
(-0.23509 0.48346 0)
(-0.180959 0.464984 0)
(-0.135861 0.440623 0)
(-0.103002 0.406959 0)
(-0.0835469 0.37182 0)
(-0.077227 0.336384 0)
(-0.0682862 0.308868 0)
(-0.0559713 0.289329 0)
(-0.0411743 0.275618 0)
(-0.0279194 0.264314 0)
(-0.0184708 0.254004 0)
(-0.0124816 0.24478 0)
(-0.0061331 0.237264 0)
(0.00311829 0.231916 0)
(0.0155174 0.228516 0)
(0.0306876 0.226962 0)
(0.0478889 0.22582 0)
(0.0664453 0.22453 0)
(0.0857999 0.22372 0)
(0.10553 0.223295 0)
(0.125412 0.223111 0)
(0.145412 0.222686 0)
(0.165354 0.223414 0)
(0.185403 0.221983 0)
(0.205078 0.223845 0)
(0.224574 0.222936 0)
(0.243507 0.225255 0)
(0.262193 0.223398 0)
(0.279448 0.227421 0)
(0.295967 0.224881 0)
(0.308811 0.228645 0)
(0.316187 0.228071 0)
(0.294297 0.230925 0)
(0.202469 0.221453 0)
(0.132785 0.241873 0)
(-0.00358403 0.239529 0)
(-0.156266 0.458491 0)
(-0.239064 0.462382 0)
(-0.276147 0.468106 0)
(-0.288075 0.468519 0)
(-0.244528 0.475267 0)
(-0.200279 0.447318 0)
(-0.160345 0.426538 0)
(-0.135152 0.394736 0)
(-0.116899 0.364799 0)
(-0.104645 0.337743 0)
(-0.0883706 0.318568 0)
(-0.0713536 0.303723 0)
(-0.0541915 0.292221 0)
(-0.039825 0.28167 0)
(-0.0296437 0.271634 0)
(-0.0220692 0.262753 0)
(-0.0133197 0.255902 0)
(-0.00201116 0.251119 0)
(0.0121896 0.248006 0)
(0.0288073 0.246599 0)
(0.0470565 0.245459 0)
(0.0663472 0.244066 0)
(0.0862448 0.243177 0)
(0.106405 0.242712 0)
(0.126651 0.242537 0)
(0.14696 0.242045 0)
(0.16719 0.242815 0)
(0.187408 0.241373 0)
(0.207355 0.243208 0)
(0.227006 0.24239 0)
(0.246032 0.244739 0)
(0.264786 0.242963 0)
(0.282033 0.246992 0)
(0.29856 0.244609 0)
(0.311283 0.248162 0)
(0.318413 0.247853 0)
(0.296363 0.250569 0)
(0.204748 0.24136 0)
(0.136477 0.263286 0)
(0.00191812 0.261186 0)
(-0.136631 0.452348 0)
(-0.225776 0.455389 0)
(-0.269661 0.456578 0)
(-0.293887 0.458946 0)
(-0.254338 0.464765 0)
(-0.218903 0.43246 0)
(-0.183986 0.414775 0)
(-0.162609 0.38703 0)
(-0.140566 0.366378 0)
(-0.121376 0.347316 0)
(-0.10036 0.332983 0)
(-0.0804253 0.320761 0)
(-0.0615902 0.310576 0)
(-0.046824 0.300237 0)
(-0.0365426 0.289838 0)
(-0.027302 0.280952 0)
(-0.0167124 0.274403 0)
(-0.00397487 0.269485 0)
(0.0110463 0.266483 0)
(0.0278902 0.265126 0)
(0.0459163 0.263955 0)
(0.0647581 0.262474 0)
(0.0841959 0.26156 0)
(0.103997 0.261137 0)
(0.124026 0.261067 0)
(0.144249 0.260607 0)
(0.164514 0.261528 0)
(0.184763 0.260171 0)
(0.204952 0.262031 0)
(0.224786 0.2614 0)
(0.243986 0.263794 0)
(0.262931 0.262139 0)
(0.280329 0.266146 0)
(0.297032 0.263915 0)
(0.309867 0.267236 0)
(0.316972 0.267104 0)
(0.294953 0.269663 0)
(0.204392 0.261064 0)
(0.138461 0.284378 0)
(0.00692616 0.282623 0)
(-0.121748 0.44848 0)
(-0.216337 0.451694 0)
(-0.266624 0.448027 0)
(-0.300236 0.450106 0)
(-0.268138 0.451973 0)
(-0.239496 0.420988 0)
(-0.206481 0.406579 0)
(-0.18367 0.383914 0)
(-0.158433 0.369913 0)
(-0.136664 0.354741 0)
(-0.114046 0.343623 0)
(-0.0928781 0.333309 0)
(-0.0740814 0.323353 0)
(-0.0597386 0.312863 0)
(-0.0481558 0.304029 0)
(-0.0372688 0.296533 0)
(-0.0248351 0.290225 0)
(-0.0100539 0.285812 0)
(0.00684976 0.283071 0)
(0.0254098 0.281869 0)
(0.044981 0.280719 0)
(0.0651515 0.279175 0)
(0.0856553 0.278237 0)
(0.10625 0.277837 0)
(0.126845 0.277836 0)
(0.147463 0.277339 0)
(0.168035 0.278365 0)
(0.188394 0.277068 0)
(0.208867 0.278799 0)
(0.228756 0.278327 0)
(0.247995 0.280677 0)
(0.266922 0.279105 0)
(0.284232 0.283029 0)
(0.300818 0.280931 0)
(0.31347 0.283972 0)
(0.32028 0.284025 0)
(0.298482 0.286473 0)
(0.209784 0.278867 0)
(0.145708 0.303213 0)
(0.0171965 0.301799 0)
(-0.110678 0.446547 0)
(-0.209332 0.449747 0)
(-0.263607 0.440845 0)
(-0.307424 0.440574 0)
(-0.283679 0.436864 0)
(-0.254738 0.411559 0)
(-0.222252 0.403779 0)
(-0.196268 0.386657 0)
(-0.168846 0.378283 0)
(-0.145438 0.366119 0)
(-0.121446 0.357285 0)
(-0.0998529 0.347603 0)
(-0.08083 0.338308 0)
(-0.0660164 0.328345 0)
(-0.0536181 0.31845 0)
(-0.0407863 0.310309 0)
(-0.0264493 0.304036 0)
(-0.0104544 0.299467 0)
(0.00689965 0.296454 0)
(0.0251685 0.295105 0)
(0.0439268 0.293918 0)
(0.0631535 0.292473 0)
(0.0829092 0.29184 0)
(0.103047 0.291871 0)
(0.123429 0.292339 0)
(0.144023 0.292153 0)
(0.164693 0.293563 0)
(0.185231 0.29252 0)
(0.205925 0.294256 0)
(0.226068 0.294011 0)
(0.245576 0.296366 0)
(0.264724 0.294911 0)
(0.282228 0.298712 0)
(0.298957 0.296683 0)
(0.31172 0.299397 0)
(0.318447 0.299367 0)
(0.297112 0.301526 0)
(0.211428 0.295277 0)
(0.15033 0.320951 0)
(0.0262796 0.320341 0)
(-0.107928 0.445215 0)
(-0.207424 0.447377 0)
(-0.263734 0.433757 0)
(-0.314605 0.433646 0)
(-0.295187 0.429068 0)
(-0.264467 0.410246 0)
(-0.231718 0.406804 0)
(-0.205723 0.391053 0)
(-0.178859 0.384214 0)
(-0.155295 0.373092 0)
(-0.131282 0.365091 0)
(-0.11029 0.355346 0)
(-0.092651 0.345121 0)
(-0.0781586 0.33519 0)
(-0.0645944 0.326658 0)
(-0.0502802 0.31966 0)
(-0.0343375 0.314415 0)
(-0.0166684 0.310625 0)
(0.00243751 0.308218 0)
(0.0225196 0.307334 0)
(0.0430963 0.306318 0)
(0.0639736 0.304753 0)
(0.0850486 0.303916 0)
(0.106087 0.303801 0)
(0.126974 0.304218 0)
(0.147767 0.303878 0)
(0.168458 0.305288 0)
(0.188899 0.304103 0)
(0.209463 0.305527 0)
(0.229428 0.305257 0)
(0.248736 0.307424 0)
(0.267623 0.305976 0)
(0.284797 0.30955 0)
(0.301193 0.307491 0)
(0.31355 0.309782 0)
(0.319734 0.309623 0)
(0.299004 0.31162 0)
(0.217773 0.307673 0)
(0.159998 0.334566 0)
(0.0417198 0.334413 0)
(-0.112463 0.440832 0)
(-0.209902 0.440698 0)
(-0.26742 0.424168 0)
(-0.320491 0.425841 0)
(-0.303125 0.421877 0)
(-0.27267 0.40501 0)
(-0.240634 0.404378 0)
(-0.214812 0.390128 0)
(-0.187526 0.386053 0)
(-0.163408 0.376095 0)
(-0.139331 0.368981 0)
(-0.118582 0.35982 0)
(-0.100623 0.350664 0)
(-0.0850141 0.341762 0)
(-0.0697647 0.334314 0)
(-0.0535853 0.328108 0)
(-0.0361695 0.323155 0)
(-0.0176873 0.319297 0)
(0.0016398 0.316697 0)
(0.0215511 0.315635 0)
(0.0417221 0.314364 0)
(0.0620849 0.312505 0)
(0.0827252 0.311505 0)
(0.103632 0.311306 0)
(0.124605 0.311566 0)
(0.145713 0.310769 0)
(0.166659 0.311933 0)
(0.187498 0.31027 0)
(0.208399 0.311202 0)
(0.228761 0.310566 0)
(0.248502 0.312304 0)
(0.267672 0.310604 0)
(0.285104 0.313701 0)
(0.301508 0.311311 0)
(0.313851 0.31297 0)
(0.319795 0.312437 0)
(0.301084 0.314562 0)
(0.227259 0.314841 0)
(0.173412 0.345832 0)
(0.0613234 0.349966 0)
(-0.127177 0.433548 0)
(-0.221313 0.431756 0)
(-0.27681 0.408133 0)
(-0.326037 0.407252 0)
(-0.309552 0.404626 0)
(-0.279085 0.390327 0)
(-0.247605 0.392459 0)
(-0.221701 0.3799 0)
(-0.194819 0.377686 0)
(-0.171411 0.367812 0)
(-0.148466 0.360558 0)
(-0.128844 0.351046 0)
(-0.111221 0.341811 0)
(-0.0949505 0.332819 0)
(-0.0785095 0.32468 0)
(-0.0608254 0.318466 0)
(-0.0418857 0.31359 0)
(-0.0219346 0.309653 0)
(-0.00136348 0.306785 0)
(0.0194363 0.305181 0)
(0.0402844 0.302684 0)
(0.0613889 0.298892 0)
(0.0829093 0.295674 0)
(0.104486 0.293373 0)
(0.125868 0.291921 0)
(0.14719 0.289371 0)
(0.168552 0.289643 0)
(0.189394 0.286958 0)
(0.210308 0.287277 0)
(0.230651 0.285915 0)
(0.250386 0.287073 0)
(0.269486 0.285001 0)
(0.286904 0.287956 0)
(0.303139 0.285628 0)
(0.315455 0.287854 0)
(0.321655 0.289098 0)
(0.30742 0.295545 0)
(0.247208 0.308812 0)
(0.196786 0.350105 0)
(0.0885798 0.358434 0)
(-0.144437 0.459253 0)
(-0.254233 0.433828 0)
(-0.298832 0.380173 0)
(-0.330824 0.364321 0)
(-0.311521 0.360156 0)
(-0.281837 0.347179 0)
(-0.251601 0.349748 0)
(-0.225868 0.335441 0)
(-0.199567 0.332139 0)
(-0.177141 0.319534 0)
(-0.155183 0.309599 0)
(-0.136228 0.29702 0)
(-0.118154 0.284715 0)
(-0.100371 0.272853 0)
(-0.081997 0.262364 0)
(-0.0632677 0.252975 0)
(-0.0439405 0.244771 0)
(-0.0241045 0.237749 0)
(-0.00408832 0.232235 0)
(0.0157615 0.228404 0)
(0.0353459 0.223628 0)
(0.0550881 0.217536 0)
(0.0754663 0.212499 0)
(0.0961065 0.208942 0)
(0.116679 0.206541 0)
(0.137288 0.202647 0)
(0.158224 0.202293 0)
(0.17866 0.198511 0)
(0.199453 0.197969 0)
(0.219744 0.195765 0)
(0.239823 0.196488 0)
(0.259566 0.194892 0)
(0.278048 0.199089 0)
(0.295809 0.199135 0)
(0.310354 0.205378 0)
(0.320656 0.213241 0)
(0.318723 0.232053 0)
(0.288963 0.273941 0)
(0.245718 0.370597 0)
(0.102826 0.415613 0)
(-0.762391 0.311315 0)
(-0.390209 0.455368 0)
(-0.368945 0.332543 0)
(-0.348366 0.305305 0)
(-0.324499 0.304242 0)
(-0.300269 0.289751 0)
(-0.272482 0.289874 0)
(-0.249508 0.273046 0)
(-0.224203 0.26642 0)
(-0.202966 0.250832 0)
(-0.180874 0.238233 0)
(-0.160368 0.224131 0)
(-0.139862 0.211346 0)
(-0.119595 0.199503 0)
(-0.0988313 0.189242 0)
(-0.0780505 0.179816 0)
(-0.0568789 0.171225 0)
(-0.0352418 0.163596 0)
(-0.0131467 0.157512 0)
(0.00909353 0.153437 0)
(0.0311775 0.148769 0)
(0.0535911 0.143187 0)
(0.0766878 0.139123 0)
(0.0999202 0.13683 0)
(0.122926 0.135887 0)
(0.146124 0.133184 0)
(0.169433 0.134334 0)
(0.192281 0.131984 0)
(0.215377 0.132752 0)
(0.237848 0.132192 0)
(0.259842 0.134414 0)
(0.281323 0.13514 0)
(0.301083 0.141082 0)
(0.320291 0.143985 0)
(0.335826 0.15296 0)
(0.349762 0.164033 0)
(0.357104 0.185217 0)
(0.380475 0.229939 0)
(0.403131 0.389736 0)
(0.690276 0.31368 0)
(-0.99065 1.00064 0)
(-0.317651 0.741499 0)
(-0.412934 0.163469 0)
(-0.353046 0.159567 0)
(-0.326444 0.167978 0)
(-0.302722 0.15137 0)
(-0.275771 0.151417 0)
(-0.25362 0.133585 0)
(-0.228314 0.124919 0)
(-0.207275 0.108032 0)
(-0.185024 0.0942947 0)
(-0.16405 0.0804727 0)
(-0.142873 0.0688089 0)
(-0.121919 0.0585429 0)
(-0.100697 0.049942 0)
(-0.0793806 0.0421566 0)
(-0.0578815 0.0349108 0)
(-0.0362018 0.0283751 0)
(-0.0143084 0.023278 0)
(0.00772848 0.0202288 0)
(0.0296032 0.0164369 0)
(0.0516367 0.0114153 0)
(0.074248 0.00790855 0)
(0.0970798 0.00627142 0)
(0.119931 0.00592665 0)
(0.142973 0.00337381 0)
(0.166204 0.00503911 0)
(0.189193 0.00312812 0)
(0.212364 0.00455195 0)
(0.235119 0.00525117 0)
(0.257373 0.0090754 0)
(0.279297 0.0125467 0)
(0.299456 0.0211796 0)
(0.319426 0.0282053 0)
(0.335444 0.0419109 0)
(0.352951 0.0578789 0)
(0.364635 0.0816305 0)
(0.42019 0.0929839 0)
(0.333275 0.651447 0)
(0.972329 0.977952 0)
(-0.99065 -1.00064 0)
(-0.317651 -0.741499 0)
(-0.412934 -0.163469 0)
(-0.353046 -0.159567 0)
(-0.326444 -0.167978 0)
(-0.302722 -0.15137 0)
(-0.275771 -0.151417 0)
(-0.25362 -0.133585 0)
(-0.228314 -0.124919 0)
(-0.207275 -0.108032 0)
(-0.185024 -0.0942947 0)
(-0.16405 -0.0804727 0)
(-0.142873 -0.0688089 0)
(-0.121919 -0.0585429 0)
(-0.100697 -0.049942 0)
(-0.0793806 -0.0421566 0)
(-0.0578815 -0.0349108 0)
(-0.0362018 -0.0283751 0)
(-0.0143084 -0.023278 0)
(0.00772848 -0.0202288 0)
(0.0296032 -0.0164369 0)
(0.0516367 -0.0114153 0)
(0.074248 -0.00790855 0)
(0.0970798 -0.00627142 0)
(0.119931 -0.00592665 0)
(0.142973 -0.00337381 0)
(0.166204 -0.00503911 0)
(0.189193 -0.00312812 0)
(0.212364 -0.00455195 0)
(0.235119 -0.00525117 0)
(0.257373 -0.0090754 0)
(0.279297 -0.0125467 0)
(0.299456 -0.0211796 0)
(0.319426 -0.0282053 0)
(0.335444 -0.0419109 0)
(0.352951 -0.0578789 0)
(0.364635 -0.0816305 0)
(0.42019 -0.0929839 0)
(0.333275 -0.651447 0)
(0.972329 -0.977952 0)
(-0.762391 -0.311315 0)
(-0.390209 -0.455368 0)
(-0.368945 -0.332543 0)
(-0.348366 -0.305305 0)
(-0.324499 -0.304242 0)
(-0.300269 -0.289751 0)
(-0.272482 -0.289874 0)
(-0.249508 -0.273046 0)
(-0.224203 -0.26642 0)
(-0.202966 -0.250832 0)
(-0.180874 -0.238233 0)
(-0.160368 -0.224131 0)
(-0.139862 -0.211346 0)
(-0.119595 -0.199503 0)
(-0.0988313 -0.189242 0)
(-0.0780505 -0.179816 0)
(-0.0568789 -0.171225 0)
(-0.0352418 -0.163596 0)
(-0.0131467 -0.157512 0)
(0.00909353 -0.153437 0)
(0.0311775 -0.148769 0)
(0.0535911 -0.143187 0)
(0.0766878 -0.139123 0)
(0.0999202 -0.13683 0)
(0.122926 -0.135887 0)
(0.146124 -0.133184 0)
(0.169433 -0.134334 0)
(0.192281 -0.131984 0)
(0.215377 -0.132752 0)
(0.237848 -0.132192 0)
(0.259842 -0.134414 0)
(0.281323 -0.13514 0)
(0.301083 -0.141082 0)
(0.320291 -0.143985 0)
(0.335826 -0.15296 0)
(0.349762 -0.164033 0)
(0.357104 -0.185217 0)
(0.380475 -0.229939 0)
(0.403131 -0.389736 0)
(0.690276 -0.31368 0)
(-0.144437 -0.459253 0)
(-0.254233 -0.433828 0)
(-0.298832 -0.380173 0)
(-0.330824 -0.364321 0)
(-0.311521 -0.360156 0)
(-0.281837 -0.347179 0)
(-0.251601 -0.349748 0)
(-0.225868 -0.335441 0)
(-0.199567 -0.332139 0)
(-0.177141 -0.319534 0)
(-0.155183 -0.309599 0)
(-0.136228 -0.29702 0)
(-0.118154 -0.284715 0)
(-0.100371 -0.272853 0)
(-0.081997 -0.262364 0)
(-0.0632677 -0.252975 0)
(-0.0439405 -0.244771 0)
(-0.0241045 -0.237749 0)
(-0.00408832 -0.232235 0)
(0.0157615 -0.228404 0)
(0.0353459 -0.223628 0)
(0.0550881 -0.217536 0)
(0.0754663 -0.212499 0)
(0.0961065 -0.208942 0)
(0.116679 -0.206541 0)
(0.137288 -0.202647 0)
(0.158224 -0.202293 0)
(0.17866 -0.198511 0)
(0.199453 -0.197969 0)
(0.219744 -0.195765 0)
(0.239823 -0.196488 0)
(0.259566 -0.194892 0)
(0.278048 -0.199089 0)
(0.295809 -0.199135 0)
(0.310354 -0.205378 0)
(0.320656 -0.213241 0)
(0.318723 -0.232053 0)
(0.288963 -0.273941 0)
(0.245718 -0.370597 0)
(0.102826 -0.415613 0)
(-0.127177 -0.433548 0)
(-0.221313 -0.431756 0)
(-0.27681 -0.408133 0)
(-0.326037 -0.407252 0)
(-0.309552 -0.404626 0)
(-0.279085 -0.390327 0)
(-0.247605 -0.392459 0)
(-0.221701 -0.3799 0)
(-0.194819 -0.377686 0)
(-0.171411 -0.367812 0)
(-0.148466 -0.360558 0)
(-0.128844 -0.351046 0)
(-0.111221 -0.341811 0)
(-0.0949505 -0.332819 0)
(-0.0785095 -0.32468 0)
(-0.0608254 -0.318466 0)
(-0.0418857 -0.31359 0)
(-0.0219346 -0.309653 0)
(-0.00136348 -0.306785 0)
(0.0194363 -0.305181 0)
(0.0402844 -0.302684 0)
(0.0613889 -0.298892 0)
(0.0829093 -0.295674 0)
(0.104486 -0.293373 0)
(0.125868 -0.291921 0)
(0.14719 -0.289371 0)
(0.168552 -0.289643 0)
(0.189394 -0.286958 0)
(0.210308 -0.287277 0)
(0.230651 -0.285915 0)
(0.250386 -0.287073 0)
(0.269486 -0.285001 0)
(0.286904 -0.287956 0)
(0.303139 -0.285628 0)
(0.315455 -0.287854 0)
(0.321655 -0.289098 0)