/*--------------------------------*- C++ -*----------------------------------*\
| =========                 |                                                 |
| \\      /  F ield         | OpenFOAM: The Open Source CFD Toolbox           |
|  \\    /   O peration     | Version:  v1912                                 |
|   \\  /    A nd           | Website:  www.openfoam.com                      |
|    \\/     M anipulation  |                                                 |
\*---------------------------------------------------------------------------*/
FoamFile
{
    version     2.0;
    format      ascii;
    class       volVectorField;
    location    "3.7";
    object      grad(rho);
}
// * * * * * * * * * * * * * * * * * * * * * * * * * * * * * * * * * * * * * //

dimensions      [1 -4 0 0 0 0 0];


internalField   nonuniform List<vector> 
1900
(
(103962 0.0640227 0)
(-76331.3 -2.66588 0)
(-10100.7 0.41926 0)
(-1115.26 2.31843 0)
(-639.65 6.02502 0)
(-908.175 8.14081 0)
(-1210.25 4.3706 0)
(-1379.98 -44.1504 0)
(-1364.95 -234.076 0)
(-2070.71 -504.275 0)
(103960 0.532804 0)
(-76331 -4.18029 0)
(-10095.7 0.862102 0)
(-1109.66 3.73326 0)
(-633.828 2.55424 0)
(-909.83 -2.99958 0)
(-1262.54 -5.49444 0)
(-1618.43 -55.6285 0)
(-1825.07 -215.924 0)
(-2132.96 -414.478 0)
(103959 -7.56728e-09 0)
(-76331 -6.78568e-09 0)
(-10092.7 3.8014e-09 0)
(-1113.57 1.77636e-09 0)
(-646.383 -4.08562e-10 0)
(-916.224 -1.43885e-09 0)
(-1262.87 -1.13687e-09 0)
(-1590.41 -1.86517e-09 0)
(-1723.8 1.35003e-09 0)
(-2070.06 1.04805e-09 0)
(103960 -0.532804 0)
(-76331 4.18029 0)
(-10095.7 -0.862102 0)
(-1109.66 -3.73326 0)
(-633.828 -2.55424 0)
(-909.83 2.99958 0)
(-1262.54 5.49444 0)
(-1618.43 55.6285 0)
(-1825.07 215.924 0)
(-2132.96 414.478 0)
(103962 -0.0640226 0)
(-76331.3 2.66588 0)
(-10100.7 -0.41926 0)
(-1115.26 -2.31843 0)
(-639.65 -6.02502 0)
(-908.175 -8.14081 0)
(-1210.25 -4.3706 0)
(-1379.98 44.1504 0)
(-1364.95 234.076 0)
(-2070.71 504.275 0)
(-1664.26 -369.267 1.45678e-11)
(-73.9399 -573.794 -1.74995e-11)
(689.227 -1030.96 -2.21421e-11)
(-6064.62 -809.812 0)
(-5889.57 6787.99 -8.96334e-11)
(-1608.14 -279.184 1.4501e-11)
(-540.692 -484.223 1.74995e-11)
(722.758 -772.883 2.21421e-11)
(-2278.42 -624.318 0)
(-3778.34 5618.52 0)
(-1800.34 1.35158e-09 0)
(-673.976 1.40239e-09 0)
(321.942 -4.14483e-09 0)
(-3365.74 -3.4316e-09 0)
(-1377.93 -9.30473e-09 0)
(-1608.14 279.184 1.4501e-11)
(-540.692 484.223 1.74995e-11)
(722.758 772.883 2.21421e-11)
(-2278.42 624.318 0)
(-3778.34 -5618.52 0)
(-1664.26 369.267 -4.35699e-11)
(-73.9399 573.794 -1.74995e-11)
(689.227 1030.96 -2.21421e-11)
(-6064.62 809.812 -6.07797e-11)
(-5889.57 -6787.99 8.96334e-11)
(2355.36 -2856.77 4.11618e-11)
(-5013.95 324.626 -3.31774e-11)
(-2897.47 829.649 0)
(-4993.79 937.511 2.44621e-11)
(-11513.3 -3511.67 -1.04847e-11)
(206.351 -2796.93 -2.05379e-11)
(-4068.5 399.944 1.65936e-11)
(-2640.59 881.249 0)
(-6850.23 -64.5018 -1.5306e-11)
(-13966 -5891.05 2.55039e-12)
(808.409 -1.13041e-08 0)
(-4086.49 -3.18833e-09 0)
(-3112.39 1.27635e-08 0)
(-7965.85 -6.96611e-10 6.12161e-12)
(-14676.9 -5.92119e-09 -5.10077e-12)
(206.351 2796.93 -2.05379e-11)
(-4068.5 -399.944 1.65936e-11)
(-2640.59 -881.249 0)
(-6850.23 64.5018 -1.5306e-11)
(-13966 5891.05 2.55039e-12)
(2355.36 2856.77 2.05379e-11)
(-5013.95 -324.626 -9.77668e-15)
(-2897.47 -829.649 0)
(-4993.79 -937.511 2.82348e-14)
(-11513.3 3511.67 1.04847e-11)
(-26844.8 -30651.4 0)
(-18554.4 3172.08 0)
(1135.41 3238.53 0)
(96.3882 2062.68 0)
(-1710.52 1167.8 0)
(-1976.95 570.248 0)
(-1544.34 256.448 0)
(-590.126 81.72 0)
(-155.836 83.9289 0)
(-163.389 52.0836 0)
(-128.112 41.0597 0)
(-142.43 30.2508 0)
(-144.196 24.4838 0)
(-143.625 21.5919 0)
(-130.883 19.9092 0)
(-109.702 18.701 0)
(-87.691 17.6502 0)
(-68.8637 16.7133 0)
(-58.8794 15.9327 0)
(-55.6683 15.4295 0)
(-57.2287 15.0593 0)
(-68.7007 14.8154 0)
(-80.2607 14.7247 0)
(-93.5121 14.6586 0)
(-115.963 14.7092 0)
(-147.41 14.9004 0)
(-192.14 15.2902 0)
(-254.542 15.9022 0)
(-338.916 16.8222 0)
(-447.07 17.7314 0)
(-566.284 18.5898 0)
(-673.802 18.5828 0)
(-715.125 17.187 0)
(-678.554 19.0025 0)
(-556.086 16.3661 0)
(-452.393 25.3858 0)
(-334.28 16.5321 0)
(3389.52 42.362 0)
(107954 -69.8744 0)
(-124534 -7529.56 0)
(-25731.7 -8095.83 0)
(-16648 5569.16 0)
(1078.17 3240.14 0)
(-218.165 1203.1 0)
(-1849.68 658.793 0)
(-2079.86 287.748 0)
(-1592.73 103.95 0)
(-604.268 40.511 0)
(-158.571 30.7962 0)
(-166.698 20.334 0)
(-129.682 14.722 0)
(-143.578 10.4349 0)
(-144.768 7.86971 0)
(-143.838 6.7689 0)
(-130.972 6.24609 0)
(-109.766 5.94725 0)
(-87.7642 5.69376 0)
(-68.9432 5.45532 0)
(-58.9483 5.23773 0)
(-55.727 5.08903 0)
(-57.2898 4.94669 0)
(-68.7614 4.8077 0)
(-80.3295 4.68942 0)
(-93.5917 4.54766 0)
(-116.043 4.44055 0)
(-147.482 4.39631 0)
(-192.19 4.48151 0)
(-254.549 4.76452 0)
(-338.887 5.38183 0)
(-447.01 6.33242 0)
(-566.237 7.78468 0)
(-673.86 9.64595 0)
(-714.876 11.9586 0)
(-678.327 16.8097 0)
(-555.069 22.0772 0)
(-452.095 33.4646 0)
(-332.272 39.3129 0)
(3380.38 60.1319 0)
(107844 -8.75111 0)
(-124396 3720.62 0)
(-23754.6 8.10665e-09 0)
(-15256.6 6.87935e-09 0)
(-134.719 7.65448e-09 0)
(-654.549 3.84339e-09 0)
(-1976.8 1.55028e-08 0)
(-2138.36 1.0529e-08 0)
(-1616.26 -2.12678e-08 0)
(-611.408 1.03836e-07 0)
(-161.705 1.91669e-07 0)
(-168.065 4.14376e-08 0)
(-130.992 -7.5802e-08 0)
(-144.424 -9.56649e-08 0)
(-145.262 -6.42557e-08 0)
(-144.098 8.70415e-09 0)
(-131.122 7.88056e-08 0)
(-109.863 1.01204e-07 0)
(-87.8341 8.77843e-08 0)
(-68.9963 -4.27941e-09 0)
(-58.9859 -1.10635e-07 0)
(-55.753 -1.41317e-07 0)
(-57.3106 -4.59915e-08 0)
(-68.7756 1.02835e-07 0)
(-80.3363 9.86363e-08 0)
(-93.5845 7.38964e-08 0)
(-116.007 1.16626e-07 0)
(-147.398 1.14946e-07 0)
(-192.033 5.26286e-08 0)
(-254.28 1.97499e-08 0)
(-338.459 4.47803e-08 0)
(-446.37 1.22439e-07 0)
(-565.32 1.27623e-07 0)
(-672.588 7.28952e-08 0)
(-713.041 -6.86643e-08 0)
(-675.61 -1.90506e-07 0)
(-551.24 1.91362e-07 0)
(-447.379 -5.56161e-08 0)
(-326.522 9.82971e-08 0)
(3375.53 7.31698e-08 0)
(109019 -2.32779e-06 0)
(-125666 -5.46885e-06 0)
(-25731.7 8095.83 0)
(-16648 -5569.16 0)
(1078.17 -3240.14 0)
(-218.165 -1203.1 0)
(-1849.68 -658.793 0)
(-2079.86 -287.748 0)
(-1592.73 -103.95 0)
(-604.268 -40.511 0)
(-158.571 -30.7962 0)
(-166.698 -20.334 0)
(-129.682 -14.722 0)
(-143.578 -10.4349 0)
(-144.768 -7.86971 0)
(-143.838 -6.7689 0)
(-130.972 -6.24609 0)
(-109.766 -5.94725 0)
(-87.7642 -5.69376 0)
(-68.9432 -5.45532 0)
(-58.9483 -5.23773 0)
(-55.727 -5.08903 0)
(-57.2898 -4.94669 0)
(-68.7614 -4.8077 0)
(-80.3295 -4.68942 0)
(-93.5917 -4.54766 0)
(-116.043 -4.44055 0)
(-147.482 -4.39631 0)
(-192.19 -4.48152 0)
(-254.549 -4.76452 0)
(-338.887 -5.38183 0)
(-447.01 -6.33242 0)
(-566.237 -7.78468 0)
(-673.86 -9.64595 0)
(-714.876 -11.9586 0)
(-678.327 -16.8097 0)
(-555.069 -22.0772 0)
(-452.095 -33.4646 0)
(-332.272 -39.3129 0)
(3380.38 -60.1319 0)
(107844 8.7511 0)
(-124396 -3720.62 0)
(-26844.8 30651.4 0)
(-18554.4 -3172.08 0)
(1135.41 -3238.53 0)
(96.3882 -2062.68 0)
(-1710.52 -1167.8 0)
(-1976.95 -570.248 0)
(-1544.34 -256.448 0)
(-590.126 -81.72 0)
(-155.836 -83.9289 0)
(-163.389 -52.0836 0)
(-128.112 -41.0597 0)
(-142.43 -30.2508 0)
(-144.196 -24.4838 0)
(-143.625 -21.5919 0)
(-130.883 -19.9092 0)
(-109.702 -18.701 0)
(-87.691 -17.6502 0)
(-68.8637 -16.7133 0)
(-58.8794 -15.9327 0)
(-55.6683 -15.4295 0)
(-57.2287 -15.0593 0)
(-68.7007 -14.8154 0)
(-80.2607 -14.7247 0)
(-93.5121 -14.6586 0)
(-115.963 -14.7092 0)
(-147.41 -14.9004 0)
(-192.14 -15.2902 0)
(-254.542 -15.9022 0)
(-338.916 -16.8222 0)
(-447.07 -17.7314 0)
(-566.284 -18.5898 0)
(-673.802 -18.5828 0)
(-715.125 -17.187 0)
(-678.554 -19.0025 0)
(-556.086 -16.3661 0)
(-452.393 -25.3858 0)
(-334.28 -16.5321 0)
(3389.52 -42.362 0)
(107954 69.8744 0)
(-124534 7529.56 0)
(61770.7 43063.1 0)
(-35702.1 -4854.82 0)
(1707.89 -3150.27 0)
(717.044 -2864.44 0)
(-1074.42 -1745.88 0)
(-1627.17 -1015.94 0)
(-1342.24 -483.001 0)
(-512.404 -167.748 0)
(-143.143 -156.209 0)
(-143.633 -107.774 0)
(-117.802 -82.4045 0)
(-134.507 -60.533 0)
(-139.999 -49.8486 0)
(-141.214 -44.0441 0)
(-129.262 -40.4146 0)
(-108.423 -37.6852 0)
(-86.6021 -35.3517 0)
(-67.9578 -33.3266 0)
(-58.2227 -31.6759 0)
(-55.247 -30.6213 0)
(-56.9752 -29.9053 0)
(-68.6216 -29.5003 0)
(-80.3107 -29.4499 0)
(-93.674 -29.5134 0)
(-116.287 -29.8675 0)
(-147.929 -30.5433 0)
(-192.876 -31.6568 0)
(-255.519 -33.2935 0)
(-340.002 -35.4707 0)
(-448.049 -37.8137 0)
(-566.717 -39.8988 0)
(-673.046 -41.1227 0)
(-714.852 -38.719 0)
(-677.551 -41.6331 0)
(-557.898 -39.2776 0)
(-451.853 -51.0518 0)
(-340.599 -45.0323 0)
(3424.01 -75.1696 0)
(112466 -192.898 0)
(-129355 1827.26 0)
(72673.6 26457.2 0)
(-53892.1 -3579.23 0)
(2746.42 -2523.99 0)
(1116.9 -2518.91 0)
(-270.333 -1897.19 0)
(-947.564 -1301.52 0)
(-835.355 -656.258 0)
(-316.894 -289.418 0)
(-104.849 -235.82 0)
(-102.862 -166.228 0)
(-88.1185 -125.524 0)
(-115.307 -94.3511 0)
(-130.557 -79.4812 0)
(-135.827 -70.7063 0)
(-125.624 -64.9849 0)
(-105.509 -60.6348 0)
(-84.0748 -56.9818 0)
(-65.8073 -53.8203 0)
(-56.6246 -51.2461 0)
(-54.1881 -49.6184 0)
(-56.2844 -48.5118 0)
(-68.3043 -47.8575 0)
(-80.2464 -47.7399 0)
(-93.8278 -47.7914 0)
(-116.782 -48.2423 0)
(-148.856 -49.2768 0)
(-194.396 -50.9103 0)
(-257.694 -53.3683 0)
(-342.689 -56.8234 0)
(-450.811 -60.776 0)
(-569.241 -63.9013 0)
(-673.071 -66.9726 0)
(-715.763 -64.1652 0)
(-679.63 -69.3664 0)
(-564.19 -70.6053 0)
(-458.228 -85.1529 0)
(-354.132 -87.7577 0)
(3228.53 -111.7 0)
(107368 -598.024 0)
(-123716 -7232.21 0)
(79631 18210.3 0)
(-63629.4 -1300.2 0)
(2729.65 -1797.86 0)
(1321.06 -1974.13 0)
(98.7027 -1696.72 0)
(-431.368 -1257.88 0)
(-366.936 -722.687 0)
(-107.254 -413.952 0)
(-24.433 -329.062 0)
(-37.3483 -221.843 0)
(-48.5382 -172.708 0)
(-90.1378 -137.139 0)
(-117.214 -117.208 0)
(-127.245 -104.583 0)
(-119.557 -95.8815 0)
(-100.711 -89.3024 0)
(-80.0354 -83.8025 0)
(-62.4306 -79.1949 0)
(-54.1736 -75.4699 0)
(-52.6122 -73.1815 0)
(-55.2783 -71.6733 0)
(-67.8778 -70.7925 0)
(-80.247 -70.7149 0)
(-94.1581 -70.8509 0)
(-117.718 -71.6975 0)
(-150.5 -73.1798 0)
(-196.819 -75.8236 0)
(-261.217 -79.5214 0)
(-347.141 -84.2557 0)
(-454.869 -90.1771 0)
(-572.688 -94.495 0)
(-673.3 -99.4082 0)
(-717.159 -96.2532 0)
(-683.756 -103.981 0)
(-573.11 -109.716 0)
(-468.382 -127.196 0)
(-366.181 -134.581 0)
(2932.3 -149.931 0)
(105604 -790.118 0)
(-121560 -4865.28 0)
(88604.7 6410.95 0)
(-73172.7 -565.561 0)
(2097 -1276.97 0)
(1214.36 -1642.41 0)
(419.872 -1475.67 0)
(-8.94782 -1102.39 0)
(-22.1166 -724.099 0)
(62.4167 -490.927 0)
(80.2741 -386.613 0)
(47.8064 -273.586 0)
(-6.49433 -218.443 0)
(-61.826 -180.83 0)
(-99.1846 -156.595 0)
(-115.276 -140.015 0)
(-110.899 -128.357 0)
(-93.8688 -119.14 0)
(-74.3348 -111.68 0)
(-57.7777 -105.541 0)
(-50.8299 -100.635 0)
(-50.5295 -97.6992 0)
(-53.9823 -95.8539 0)
(-67.3808 -94.7986 0)
(-80.3027 -94.8062 0)
(-94.7747 -95.1763 0)
(-119.026 -96.3529 0)
(-152.832 -98.8635 0)
(-200.507 -102.182 0)
(-265.819 -107.242 0)
(-352.957 -114.315 0)
(-460.678 -121.893 0)
(-578.137 -126.782 0)
(-674.765 -134.529 0)
(-720.17 -134.487 0)
(-692.603 -144.776 0)
(-586.561 -156.511 0)
(-482.19 -176.03 0)
(-376.04 -185.146 0)
(2596.83 -193.929 0)
(102824 -1021.18 0)
(-118250 -6678.37 0)
(85354.5 -3510.91 0)
(-71037.8 -593.191 0)
(1691.96 -1164.78 0)
(1129.58 -1335.22 0)
(619.09 -1248.92 0)
(292.872 -975.969 0)
(222.29 -719.775 0)
(217.96 -537.559 0)
(185.005 -420.676 0)
(124.706 -325.877 0)
(40.845 -266.687 0)
(-30.5386 -226.434 0)
(-77.8831 -200.111 0)
(-100.034 -180.106 0)
(-99.4409 -164.89 0)
(-84.6406 -152.949 0)
(-66.9306 -143.319 0)
(-51.7875 -135.653 0)
(-46.6172 -129.512 0)
(-48.0046 -125.959 0)
(-52.4833 -123.893 0)
(-66.8682 -122.733 0)
(-80.611 -122.959 0)
(-95.6484 -123.633 0)
(-121.271 -125.626 0)
(-156.117 -128.601 0)
(-204.893 -134.177 0)
(-272.909 -140.144 0)
(-361.259 -149.443 0)
(-466.882 -160.095 0)
(-584.864 -165.454 0)
(-680.725 -177.209 0)
(-727.033 -180.594 0)
(-704.98 -195.601 0)
(-603.227 -212.703 0)
(-495.975 -235.067 0)
(-383.429 -244.682 0)
(2126.66 -253.516 0)
(99355.4 -1354.45 0)
(-114066 -9030.44 0)
(84330.6 -1256.01 0)
(-70911.9 -594.356 0)
(1381.95 -1067.25 0)
(1133.28 -1122.52 0)
(766.062 -1055.26 0)
(500.952 -883.399 0)
(400.352 -710.203 0)
(350.639 -571.633 0)
(284.258 -462.84 0)
(196.196 -379.414 0)
(89.3328 -321.73 0)
(2.32928 -279.984 0)
(-54.542 -251.786 0)
(-81.3362 -227.558 0)
(-84.7293 -208.803 0)
(-73.082 -193.6 0)
(-57.6685 -181.573 0)
(-44.4726 -172.377 0)
(-41.4882 -164.894 0)
(-45.1149 -160.732 0)
(-50.8737 -158.613 0)
(-66.4811 -157.427 0)
(-81.1697 -158.033 0)
(-97.3446 -159.224 0)
(-123.813 -162.251 0)
(-161.072 -166.882 0)
(-211.631 -173.544 0)
(-280.53 -183.242 0)
(-372.182 -194.428 0)
(-476.107 -207.477 0)
(-594.628 -211.516 0)
(-689.355 -230.31 0)
(-737.893 -235.616 0)
(-723.544 -251.651 0)
(-624.592 -266.989 0)
(-513.006 -292.417 0)
(-393.819 -294.103 0)
(1527.42 -299.046 0)
(94366.5 -1575 0)
(-108106 -11269.4 0)
(83486.6 -3361.97 0)
(-70855.9 -652.258 0)
(1183 -995.46 0)
(1141.13 -1037.4 0)
(849.519 -971.444 0)
(625.38 -860.989 0)
(522.719 -733.712 0)
(456.328 -618.258 0)
(370.234 -520.8 0)
(260.686 -446.982 0)
(136.659 -391.299 0)
(36.8619 -347.692 0)
(-27.3637 -316.126 0)
(-58.614 -288.793 0)
(-66.7176 -266.047 0)
(-58.4015 -247.046 0)
(-46.4795 -232.79 0)
(-35.7144 -222.002 0)
(-35.3952 -213.061 0)
(-41.9524 -208.241 0)
(-49.2993 -206.31 0)
(-66.3088 -205.23 0)
(-82.3419 -206.336 0)
(-99.7138 -208.589 0)
(-128.652 -212.404 0)
(-166.999 -219.468 0)
(-220.657 -227.9 0)
(-293.033 -241.725 0)
(-384.613 -252.869 0)
(-483.349 -276.667 0)
(-606.867 -279.87 0)
(-703.949 -307.021 0)
(-747.598 -322.563 0)
(-735.211 -342.964 0)
(-642.511 -364.746 0)
(-522.103 -401.226 0)
(-389.817 -413.092 0)
(892.34 -417.057 0)
(88784 -1661.49 0)
(-101475 -12789.2 0)
(80252.3 -6146.02 0)
(-68631.4 -704.498 0)
(1010.81 -901.005 0)
(1156.43 -953.763 0)
(936.061 -901.475 0)
(730.04 -832.785 0)
(634.257 -740.31 0)
(555.809 -646.436 0)
(449.306 -570.241 0)
(320.987 -512.849 0)
(185.013 -467.579 0)
(74.7691 -432.617 0)
(2.21457 -399.366 0)
(-33.0789 -371.107 0)
(-44.5002 -344.43 0)
(-41.0341 -322.092 0)
(-33.5353 -305.14 0)
(-25.4611 -292.949 0)
(-28.2271 -282.472 0)
(-38.6096 -276.971 0)
(-47.9727 -275.515 0)
(-66.5062 -274.605 0)
(-84.4065 -276.411 0)
(-103.191 -279.781 0)
(-134.296 -285.726 0)
(-176.005 -293.64 0)
(-233.078 -305.47 0)
(-304.591 -317.626 0)
(-405.854 -329.093 0)
(-502.127 -348.171 0)
(-623.879 -351.017 0)
(-730.496 -377.902 0)
(-772.528 -396.263 0)
(-764.192 -415.091 0)
(-680.735 -447.93 0)
(-559.594 -489.937 0)
(-409.074 -531.32 0)
(324.418 -533.805 0)
(82444.3 -1488.16 0)
(-93908.1 -14065.8 0)
(76543.5 -7500.84 0)
(-65801.6 -743.777 0)
(942.8 -839.426 0)
(1140.68 -922.308 0)
(966.098 -944.298 0)
(780.686 -907.735 0)
(702.291 -832.5 0)
(620.212 -757.74 0)
(498.963 -689.547 0)
(359.615 -637.996 0)
(213.974 -594.04 0)
(102.594 -555.179 0)
(31.9099 -516.443 0)
(-5.67569 -481.189 0)
(-19.4855 -449.394 0)
(-20.5404 -424.139 0)
(-18.3965 -404.506 0)
(-13.8703 -391.565 0)
(-19.9982 -380.033 0)
(-35.248 -374.148 0)
(-47.019 -373.186 0)
(-67.1731 -372.389 0)
(-87.3295 -375.044 0)
(-108.69 -379.472 0)
(-142.007 -387.596 0)
(-186.025 -397.803 0)
(-243.772 -412.227 0)
(-315.797 -431.08 0)
(-414.047 -444.331 0)
(-504.476 -473.747 0)
(-635.516 -486.626 0)
(-747.55 -521.212 0)
(-783.435 -545.594 0)
(-784.999 -563.632 0)
(-714.636 -599.744 0)
(-602.461 -644.459 0)
(-432.089 -691.632 0)
(-29.7088 -697.894 0)
(75744 -1178.86 0)
(-86147.8 -14818.4 0)
(71981.8 -8897.25 0)
(-62212.2 -829.71 0)
(838.77 -897.211 0)
(1055.37 -990.791 0)
(950.104 -1051.93 0)
(837.773 -1019.95 0)
(778.797 -941.392 0)
(693.563 -879.956 0)
(564.696 -810.623 0)
(413.022 -761.156 0)
(264.818 -709.885 0)
(149.544 -669.571 0)
(73.5142 -634.618 0)
(31.5315 -601.159 0)
(10.4755 -572.224 0)
(2.22177 -548.004 0)
(-2.14671 -529.221 0)
(-1.87752 -516.739 0)
(-11.4432 -505.515 0)
(-32.0117 -499.976 0)
(-46.2775 -499.151 0)
(-68.2969 -498.278 0)
(-91.232 -500.984 0)
(-115.287 -505.245 0)
(-151.96 -511.607 0)
(-199.74 -520.721 0)
(-265.146 -530.579 0)
(-335.527 -549.944 0)
(-446.97 -558.504 0)
(-542.884 -599.802 0)
(-669.618 -631.704 0)
(-787.319 -671.916 0)
(-813.406 -705.679 0)
(-816.374 -729.122 0)
(-758.623 -763.391 0)
(-648.141 -811.515 0)
(-460.566 -850.191 0)
(-145.097 -872.767 0)
(68837.3 -1010.43 0)
(-78108.8 -15050.8 0)
(66833.5 -9828.91 0)
(-58092.4 -877.33 0)
(787.576 -917.138 0)
(991.583 -983.95 0)
(937.996 -1050.26 0)
(887.205 -1038 0)
(837.198 -996.473 0)
(746.226 -968.314 0)
(613.444 -927.215 0)
(456.689 -902.203 0)
(302.228 -853.207 0)
(175.125 -820.864 0)
(97.835 -776.399 0)
(54.4493 -736.91 0)
(31.7364 -704.403 0)
(20.8988 -677.765 0)
(11.7316 -659.317 0)
(8.97309 -646.866 0)
(-3.84509 -636.716 0)
(-29.1149 -631.631 0)
(-45.3828 -630.765 0)
(-68.9398 -630.205 0)
(-94.0431 -632.959 0)
(-118.927 -637.913 0)
(-156.92 -644.277 0)
(-204.308 -655.383 0)
(-271.931 -667.385 0)
(-342.706 -688.443 0)
(-462.093 -700.917 0)
(-575.014 -732.564 0)
(-705.008 -763.466 0)
(-818.835 -781.123 0)
(-838.561 -799.778 0)
(-840.613 -812.012 0)
(-794.033 -831.047 0)
(-686.105 -864.672 0)
(-491.113 -890.045 0)
(-184.124 -908.684 0)
(62081.5 -928.458 0)
(-70267.9 -14761.3 0)
(61330.1 -10224 0)
(-53624.5 -892.923 0)
(736.027 -941.695 0)
(927.085 -995.871 0)
(898.019 -1050.18 0)
(889.604 -1053.42 0)
(845.95 -1056.58 0)
(760.303 -1052.67 0)
(628.403 -1038.49 0)
(484.339 -1021.32 0)
(343.199 -976.048 0)
(223.559 -936.948 0)
(154.415 -881.068 0)
(100.909 -836.404 0)
(67.4704 -798.451 0)
(45.6688 -771.669 0)
(27.6283 -755.29 0)
(19.9015 -746.133 0)
(3.23804 -739.717 0)
(-26.2767 -736.546 0)
(-44.904 -735.338 0)
(-70.4116 -733.385 0)
(-98.6591 -733.489 0)
(-126.193 -735.251 0)
(-168.795 -740.573 0)
(-222.008 -751.37 0)
(-297.003 -767.815 0)
(-367.84 -790.96 0)
(-489.487 -803.549 0)
(-603.159 -836.67 0)
(-716.411 -860.175 0)
(-822.311 -863.632 0)
(-843.172 -868.465 0)
(-846.506 -870.881 0)
(-809.368 -878.225 0)
(-704.993 -897 0)
(-502.977 -909.92 0)
(-182.113 -918.058 0)
(55488.4 -915.421 0)
(-62595.5 -14151 0)
(55806.8 -10375.7 0)
(-49147.7 -880.601 0)
(688.371 -932.538 0)
(887.046 -992.758 0)
(882.541 -1024.48 0)
(881.035 -1020.21 0)
(837.917 -1046.27 0)
(763.659 -1048.64 0)
(643.658 -1047.25 0)
(516.859 -1023.46 0)
(383.529 -977.638 0)
(266.651 -945.624 0)
(194.723 -898.197 0)
(134.062 -856.108 0)
(94.1174 -820.786 0)
(62.49 -794.295 0)
(36.3389 -776.653 0)
(23.9802 -766.854 0)
(5.3929 -760.637 0)
(-24.8948 -757.498 0)
(-42.3361 -755.839 0)
(-67.1585 -754.494 0)
(-95.8417 -755.353 0)
(-125.753 -756.937 0)
(-172.453 -762.659 0)
(-230.559 -771.135 0)
(-310.081 -781.835 0)
(-377.14 -801.028 0)
(-506.141 -807.048 0)
(-629.581 -831.61 0)
(-730.989 -852.742 0)
(-826.823 -860.668 0)
(-845.546 -865.774 0)
(-850.018 -870.246 0)
(-819.201 -877.568 0)
(-716.647 -891.566 0)
(-511.406 -901.083 0)
(-189.425 -906.422 0)
(49329.8 -911.266 0)
(-55386.5 -13513.9 0)
(50189.3 -10288.3 0)
(-44524.7 -863.534 0)
(627.948 -916.819 0)
(838.484 -972.612 0)
(871.566 -1002.87 0)
(868.605 -1001.1 0)
(818.554 -1024.53 0)
(759.363 -1026.51 0)
(652.671 -1030.26 0)
(551.418 -996.751 0)
(418.201 -944.581 0)
(300.111 -901.332 0)
(240.676 -849.556 0)
(175.505 -807.888 0)
(127.036 -768.956 0)
(88.1977 -738.894 0)
(54.0716 -717.225 0)
(35.3348 -704.191 0)
(12.2532 -697.109 0)
(-21.6528 -694.853 0)
(-42.0089 -692.685 0)
(-69.9438 -690.402 0)
(-101.013 -692.028 0)
(-133.233 -696.406 0)
(-182.477 -705.429 0)
(-240.487 -718.144 0)
(-325.808 -729.799 0)
(-392.136 -752.459 0)
(-518.957 -761.977 0)
(-647.191 -791.547 0)
(-744.411 -821.052 0)
(-834.869 -835.399 0)
(-852.402 -845.248 0)
(-857.871 -854.125 0)
(-829.912 -864.56 0)
(-727.653 -879.231 0)
(-517.294 -889.269 0)
(-191.926 -896.055 0)
(43339.4 -899.719 0)
(-48360.6 -12752 0)
(44807.2 -10261.2 0)
(-40117 -813.155 0)
(583.259 -864.331 0)
(804.122 -931.389 0)
(855.086 -959.495 0)
(860.168 -964.986 0)
(813.431 -970.97 0)
(758.132 -961.921 0)
(672.337 -963.045 0)
(599.425 -915.656 0)
(475.479 -853.027 0)
(358.221 -792.275 0)
(284.769 -723.18 0)
(211.731 -682.257 0)
(160.603 -642.449 0)
(112.34 -612.128 0)
(69.78 -589.808 0)
(43.365 -574.531 0)
(14.3905 -564.198 0)
(-20.6321 -558.813 0)
(-38.047 -555.654 0)
(-66.5251 -555.688 0)
(-101.627 -560.662 0)
(-138.667 -567.469 0)
(-193.4 -578.135 0)
(-254.043 -594.258 0)
(-343.148 -607.704 0)
(-408.148 -636.792 0)
(-543.808 -658.565 0)
(-686.508 -704.548 0)
(-773.247 -748.104 0)
(-850.138 -772.643 0)
(-863.591 -790.693 0)
(-868.628 -804.356 0)
(-843.394 -818.53 0)
(-740.458 -830.82 0)
(-527.619 -845.451 0)
(-199.495 -843.679 0)
(37905 -842.592 0)
(-41947.7 -12031.6 0)
(39278.5 -9284.06 0)
(-35469.6 -638.754 0)
(514.014 -725.844 0)
(746.781 -807.335 0)
(839.19 -834.09 0)
(857.547 -842.687 0)
(821.508 -838.218 0)
(767 -824.822 0)
(697.253 -812.039 0)
(657.436 -767.638 0)
(537.095 -703.432 0)
(425.236 -640.176 0)
(346.694 -582.415 0)
(253.3 -548.567 0)
(194.615 -518.631 0)
(138.924 -495.415 0)
(90.3012 -477.801 0)
(60.0132 -464.171 0)
(27.3995 -453.844 0)
(-13.4193 -447.915 0)
(-38.9976 -444.543 0)
(-74.7694 -445.304 0)
(-112.366 -451.553 0)
(-150.071 -458.883 0)
(-208.292 -467.317 0)
(-268.98 -479.977 0)
(-366.796 -485.442 0)
(-441.149 -511.911 0)
(-584.249 -530.424 0)
(-733.474 -570.054 0)
(-810.031 -613.792 0)
(-875.909 -640.723 0)
(-882.961 -661.711 0)
(-884.696 -675.539 0)
(-855.414 -688.99 0)
(-753.595 -700.557 0)
(-529.686 -702.678 0)
(-189.171 -675.232 0)
(32558.3 -642.109 0)
(-35710.8 -10305.5 0)
(35158.7 -9011.5 0)
(-31870 -265.209 0)
(420.809 -404.015 0)
(699.812 -549.851 0)
(821.02 -609.426 0)
(856.19 -637.933 0)
(830.646 -629.473 0)
(783.359 -616.984 0)
(727.442 -589.262 0)
(704.083 -530.658 0)
(598.306 -496.911 0)
(474.837 -447.721 0)
(373.048 -418.384 0)
(273.195 -405.823 0)
(211.822 -390.186 0)
(151.686 -378.054 0)
(99.8881 -367.239 0)
(66.4509 -351.897 0)
(30.0551 -336.225 0)
(-11.6697 -326.888 0)
(-35.5308 -324.783 0)
(-73.2793 -330.11 0)
(-114.713 -341.225 0)
(-153.859 -350.609 0)
(-213.726 -355.089 0)
(-271.509 -358.966 0)
(-373.922 -353.019 0)
(-451.494 -365.813 0)
(-599.837 -371.708 0)
(-766.845 -388.823 0)
(-841.345 -412.756 0)
(-896.315 -425.627 0)
(-897.141 -438.869 0)
(-894.916 -445.3 0)
(-867.503 -453.438 0)
(-753.648 -455.488 0)
(-503.215 -427.636 0)
(-141.128 -349.603 0)
(28624.9 -236.19 0)
(-31352.1 -9279.14 0)
(30682.7 14488.4 0)
(-27175.1 1236.05 0)
(239.722 233.78 0)
(548.84 -48.3015 0)
(754.312 -160.67 0)
(838.228 -206.33 0)
(841.695 -222.333 0)
(805.749 -235.552 0)
(780.44 -216.056 0)
(746.428 -152.157 0)
(617.016 43.6252 0)
(500.909 492.965 0)
(387.068 1229.48 0)
(280.473 1976.68 0)
(221.374 2700.55 0)
(161.037 3267.12 0)
(115.507 3687.08 0)
(89.8998 3928.5 0)
(51.4987 4062.14 0)
(-2.39322 3978.3 0)
(-42.1022 3980.74 0)
(-90.6138 4072.8 0)
(-132.12 3947.68 0)
(-163.431 3714.54 0)
(-216.345 3312.08 0)
(-266.986 2753.93 0)
(-373.394 2098.73 0)
(-459.158 1313.18 0)
(-606.421 650.481 0)
(-773.028 195.439 0)
(-845.497 -28.1328 0)
(-901.073 -85.5668 0)
(-901.92 -105.719 0)
(-898.735 -109.075 0)
(-865.231 -113.855 0)
(-728.731 -113.957 0)
(-427.652 -64.7429 0)
(-4.68664 102.36 0)
(23953.5 1129.76 0)
(-26964.3 16045.8 0)
(49632.4 579418 0)
(-45606.3 48422.8 0)
(-816.838 27907.1 0)
(319.706 32749.1 0)
(668.738 36950.8 0)
(796.769 42666 0)
(802.487 48473 0)
(789.408 54952.9 0)
(807.805 61624.3 0)
(954.322 68800.3 0)
(1219.97 75971.2 0)
(1617.57 83218 0)
(1802.81 90064.2 0)
(1690.78 96513.7 0)
(1455.34 102265 0)
(1102.34 107154 0)
(737.22 110643 0)
(427.876 113525 0)
(78.0375 114899 0)
(-90.1071 116030 0)
(55.531 116027 0)
(-105.142 114846 0)
(-459.943 113457 0)
(-766.343 110480 0)
(-1139.41 107034 0)
(-1440.74 101949 0)
(-1762.28 96259 0)
(-1847.08 89663.5 0)
(-1676.93 82705.3 0)
(-1420.78 75431.8 0)
(-1112.13 68101.9 0)
(-971.079 60798.3 0)
(-919.794 53905.5 0)
(-902.756 47172.6 0)
(-872.207 41098.5 0)
(-706.323 35094.8 0)
(-294.764 30633.4 0)
(1009.94 25359.9 0)
(43988.6 44149.1 0)
(-46762.5 547191 0)
(631135 -654198 0)
(-558631 -52230.9 0)
(-14864 -32531.2 0)
(9263.69 -37262.1 0)
(10310.6 -41987 0)
(11941.5 -48611.1 0)
(12681.7 -55338.4 0)
(13478.7 -62804.4 0)
(14124.3 -70414 0)
(14571.7 -78612.9 0)
(14510.5 -86875.8 0)
(14081.4 -95286.4 0)
(13199.3 -103495 0)
(12037.9 -111137 0)
(10475 -117973 0)
(8234.12 -123697 0)
(6254.79 -127773 0)
(4191.37 -131033 0)
(2464.82 -132610 0)
(1083.95 -133716 0)
(-1182.39 -133688 0)
(-2567.01 -132494 0)
(-4340.04 -130866 0)
(-6353.15 -127462 0)
(-8437.12 -123392 0)
(-10649.8 -117400 0)
(-12211.8 -110652 0)
(-13519.9 -102651 0)
(-14320.6 -94394.5 0)
(-14845.4 -85694.4 0)
(-14946.9 -77123.2 0)
(-14581.2 -68626.3 0)
(-14032.2 -60600 0)
(-13240.1 -52750.2 0)
(-12503.8 -45619.1 0)
(-10813.3 -38599.2 0)
(-9808.56 -33595.1 0)
(13019.6 -28547.4 0)
(526809 -47025.4 0)
(-591745 -615634 0)
(631135 654198 0)
(-558631 52230.9 0)
(-14864 32531.2 0)
(9263.69 37262.1 0)
(10310.6 41987 0)
(11941.5 48611.1 0)
(12681.7 55338.4 0)
(13478.7 62804.4 0)
(14124.3 70414 0)
(14571.7 78612.9 0)
(14510.5 86875.8 0)
(14081.4 95286.4 0)
(13199.3 103495 0)
(12037.9 111137 0)
(10475 117973 0)
(8234.12 123697 0)
(6254.79 127773 0)
(4191.37 131033 0)
(2464.82 132610 0)
(1083.95 133716 0)
(-1182.39 133688 0)
(-2567.01 132494 0)
(-4340.04 130866 0)
(-6353.15 127462 0)
(-8437.12 123392 0)
(-10649.8 117400 0)
(-12211.8 110652 0)
(-13519.9 102651 0)
(-14320.6 94394.5 0)
(-14845.4 85694.4 0)
(-14946.9 77123.2 0)
(-14581.2 68626.3 0)
(-14032.2 60600 0)
(-13240.1 52750.2 0)
(-12503.8 45619.1 0)
(-10813.3 38599.2 0)
(-9808.56 33595.1 0)
(13019.6 28547.4 0)
(526809 47025.4 0)
(-591745 615634 0)
(49632.4 -579418 0)
(-45606.3 -48422.8 0)
(-816.838 -27907.1 0)
(319.706 -32749.1 0)
(668.738 -36950.8 0)
(796.769 -42666 0)
(802.487 -48473 0)
(789.408 -54952.9 0)
(807.805 -61624.3 0)
(954.322 -68800.3 0)
(1219.97 -75971.2 0)
(1617.57 -83218 0)
(1802.81 -90064.2 0)
(1690.78 -96513.7 0)
(1455.34 -102265 0)
(1102.34 -107154 0)
(737.22 -110643 0)
(427.876 -113525 0)
(78.0375 -114899 0)
(-90.1071 -116030 0)
(55.531 -116027 0)
(-105.142 -114846 0)
(-459.943 -113457 0)
(-766.343 -110480 0)
(-1139.41 -107034 0)
(-1440.74 -101949 0)
(-1762.28 -96259 0)
(-1847.08 -89663.5 0)
(-1676.93 -82705.3 0)
(-1420.78 -75431.8 0)
(-1112.13 -68101.9 0)
(-971.079 -60798.3 0)
(-919.794 -53905.5 0)
(-902.756 -47172.6 0)
(-872.207 -41098.5 0)
(-706.323 -35094.8 0)
(-294.764 -30633.4 0)
(1009.94 -25359.9 0)
(43988.6 -44149.1 0)
(-46762.5 -547191 0)
(30682.7 -14488.4 0)
(-27175.1 -1236.05 0)
(239.722 -233.78 0)
(548.84 48.3015 0)
(754.312 160.67 0)
(838.228 206.33 0)
(841.695 222.333 0)
(805.749 235.552 0)
(780.44 216.056 0)
(746.428 152.157 0)
(617.016 -43.6252 0)
(500.909 -492.965 0)
(387.068 -1229.48 0)
(280.473 -1976.68 0)
(221.374 -2700.55 0)
(161.037 -3267.12 0)
(115.507 -3687.08 0)
(89.8998 -3928.5 0)
(51.4987 -4062.14 0)
(-2.39322 -3978.3 0)
(-42.1022 -3980.74 0)
(-90.6138 -4072.8 0)
(-132.12 -3947.68 0)
(-163.431 -3714.54 0)
(-216.345 -3312.08 0)
(-266.986 -2753.93 0)
(-373.394 -2098.73 0)
(-459.158 -1313.18 0)
(-606.421 -650.481 0)
(-773.028 -195.439 0)
(-845.497 28.1328 0)
(-901.073 85.5668 0)
(-901.92 105.719 0)
(-898.735 109.075 0)
(-865.231 113.855 0)
(-728.731 113.957 0)
(-427.652 64.7429 0)
(-4.68664 -102.36 0)
(23953.5 -1129.76 0)
(-26964.3 -16045.8 0)
(35158.7 9011.5 0)
(-31870 265.209 0)
(420.809 404.015 0)
(699.812 549.851 0)
(821.02 609.426 0)
(856.19 637.933 0)
(830.646 629.473 0)
(783.359 616.984 0)
(727.442 589.262 0)
(704.083 530.658 0)
(598.306 496.911 0)
(474.837 447.721 0)
(373.048 418.384 0)
(273.195 405.823 0)
(211.822 390.186 0)
(151.686 378.054 0)
(99.8881 367.239 0)
(66.4509 351.897 0)
(30.0551 336.225 0)
(-11.6697 326.888 0)
(-35.5308 324.783 0)
(-73.2793 330.11 0)
(-114.713 341.225 0)
(-153.859 350.609 0)
(-213.726 355.089 0)
(-271.509 358.966 0)
(-373.922 353.019 0)
(-451.494 365.813 0)
(-599.837 371.708 0)
(-766.845 388.823 0)
(-841.345 412.756 0)
(-896.315 425.627 0)
(-897.141 438.869 0)
(-894.916 445.3 0)
(-867.503 453.438 0)
(-753.648 455.488 0)
(-503.215 427.636 0)
(-141.128 349.603 0)
(28624.9 236.19 0)
(-31352.1 9279.14 0)
(39278.5 9284.06 0)
(-35469.6 638.754 0)
(514.014 725.844 0)
(746.781 807.335 0)
(839.19 834.09 0)
(857.547 842.687 0)
(821.508 838.218 0)
(767 824.822 0)
(697.253 812.039 0)
(657.436 767.638 0)
(537.095 703.432 0)
(425.236 640.176 0)
(346.694 582.415 0)
(253.3 548.567 0)
(194.615 518.631 0)
(138.924 495.415 0)
(90.3012 477.801 0)
(60.0132 464.171 0)
(27.3995 453.844 0)
(-13.4193 447.915 0)
(-38.9976 444.543 0)
(-74.7694 445.304 0)
(-112.366 451.553 0)
(-150.071 458.883 0)
(-208.292 467.317 0)
(-268.98 479.977 0)
(-366.796 485.442 0)
(-441.149 511.911 0)
(-584.249 530.424 0)
(-733.474 570.054 0)
(-810.031 613.792 0)
(-875.909 640.723 0)
(-882.961 661.711 0)
(-884.696 675.539 0)
(-855.414 688.99 0)
(-753.595 700.557 0)
(-529.686 702.678 0)
(-189.171 675.232 0)
(32558.3 642.109 0)
(-35710.8 10305.5 0)
(44807.2 10261.2 0)
(-40117 813.155 0)
(583.259 864.331 0)
(804.122 931.389 0)
(855.086 959.495 0)
(860.168 964.986 0)
(813.431 970.97 0)
(758.132 961.921 0)
(672.337 963.045 0)
(599.425 915.656 0)
(475.479 853.027 0)
(358.221 792.275 0)
(284.769 723.18 0)
(211.731 682.257 0)
(160.603 642.449 0)
(112.34 612.128 0)
(69.78 589.808 0)
(43.365 574.531 0)
(14.3905 564.198 0)
(-20.6321 558.813 0)
(-38.047 555.654 0)
(-66.5251 555.688 0)
(-101.627 560.662 0)
(-138.667 567.469 0)
(-193.4 578.135 0)
(-254.043 594.258 0)
(-343.148 607.704 0)
(-408.148 636.792 0)
(-543.808 658.565 0)
(-686.508 704.548 0)
(-773.247 748.104 0)
(-850.138 772.643 0)
(-863.591 790.693 0)
(-868.628 804.356 0)
(-843.394 818.53 0)
(-740.458 830.82 0)
(-527.619 845.451 0)
(-199.495 843.679 0)
(37905 842.592 0)
(-41947.7 12031.6 0)
(50189.3 10288.3 0)
(-44524.7 863.534 0)
(627.948 916.819 0)
(838.484 972.612 0)
(871.566 1002.87 0)
(868.605 1001.1 0)
(818.554 1024.53 0)
(759.363 1026.51 0)
(652.671 1030.26 0)
(551.418 996.751 0)
(418.201 944.581 0)
(300.111 901.332 0)
(240.676 849.556 0)
(175.505 807.888 0)
(127.036 768.956 0)
(88.1977 738.894 0)
(54.0716 717.225 0)