/*--------------------------------*- C++ -*----------------------------------*\
| =========                 |                                                 |
| \\      /  F ield         | OpenFOAM: The Open Source CFD Toolbox           |
|  \\    /   O peration     | Version:  v1912                                 |
|   \\  /    A nd           | Website:  www.openfoam.com                      |
|    \\/     M anipulation  |                                                 |
\*---------------------------------------------------------------------------*/
FoamFile
{
    version     2.0;
    format      ascii;
    class       volTensorField;
    location    "0.36";
    object      grad(U);
}
// * * * * * * * * * * * * * * * * * * * * * * * * * * * * * * * * * * * * * //

dimensions      [0 0 -1 0 0 0 0];


internalField   nonuniform List<tensor> 
1900
(
(-1.14363e-16 2.94367e-16 0 0 0 0 0 0 0)
(1.41453e-16 -4.75808e-17 0 -9.24491e-17 1.6685e-16 0 0 0 0)
(1.14363e-16 -2.94367e-16 0 1.2555e-16 -8.09508e-16 0 0 0 0)
(-1.26478e-16 5.12604e-16 0 0 -7.73981e-17 0 0 0 0)
(-2.18575e-17 2.55033e-16 0 2.14113e-17 4.65023e-16 0 0 0 0)
(-1.24368e-16 2.157e-16 0 -4.64551e-17 2.55033e-16 0 0 0 0)
(2.58115e-14 2.69625e-16 0 -4.47145e-16 7.27035e-16 0 0 0 0)
(3.30726e-11 1.16189e-12 0 8.43199e-15 2.59728e-15 0 0 0 0)
(6.6556e-09 2.91315e-10 0 1.45444e-11 5.07501e-12 0 0 0 0)
(2.21662e-07 1.20314e-08 0 3.35027e-09 1.19103e-09 0 0 0 0)
(-2.06812e-16 -1.27517e-16 0 0 0 0 0 0 0)
(2.67003e-16 -7.61927e-16 0 -1.49862e-16 -2.94367e-16 0 0 0 0)
(2.06812e-16 5.01185e-17 0 2.28965e-16 -7.99358e-17 0 0 0 0)
(-2.30617e-16 7.61927e-16 0 0 1.35417e-31 0 0 0 0)
(-6.83126e-17 7.73981e-17 0 1.41919e-16 -4.65023e-16 0 0 0 0)
(-5.92923e-16 4.6312e-17 0 -2.10633e-16 -2.55033e-16 0 0 0 0)
(3.429e-14 2.07262e-15 0 -3.50439e-16 3.61112e-31 0 0 0 0)
(4.76174e-11 3.91239e-12 0 1.55214e-14 -6.33776e-16 0 0 0 0)
(1.00059e-08 8.99712e-10 0 2.55729e-11 -1.16627e-12 0 0 0 0)
(3.2938e-07 3.33556e-08 0 5.5394e-09 -2.91338e-10 0 0 0 0)
(-2.64224e-16 0 0 0 0 0 0 0 0)
(3.70419e-16 -1.27517e-16 0 2.06812e-16 1.27517e-16 0 0 0 0)
(2.64224e-16 1.05324e-31 0 -2.67003e-16 4.13001e-16 0 0 0 0)
(-2.13524e-16 1.27517e-16 0 0 7.73981e-17 0 0 0 0)
(-2.3249e-16 0 0 2.91808e-16 -2.5313e-16 0 0 0 0)
(-6.16725e-16 6.80723e-16 0 -2.36399e-16 3.81915e-16 0 0 0 0)
(4.15436e-14 -1.09119e-16 0 5.56537e-16 -1.77635e-17 0 0 0 0)
(5.86459e-11 -4.38061e-15 0 -9.41476e-16 -4.31209e-15 0 0 0 0)
(1.2195e-08 -2.19873e-14 0 -4.20679e-14 -7.8987e-12 0 0 0 0)
(3.94957e-07 1.18492e-14 0 -4.62676e-15 -1.79955e-09 0 0 0 0)
(0 0 0 0 0 0 0 0 0)
(0 -3.48926e-16 0 2.64224e-16 -3.00076e-16 0 0 0 0)
(0 6.01853e-32 0 -3.70419e-16 -1.02901e-15 0 0 0 0)
(3.28195e-16 9.5796e-17 0 0 -5.2212e-16 0 0 0 0)
(-3.04711e-16 3.81915e-16 0 -1.56894e-16 -1.01379e-15 0 0 0 0)
(-3.28195e-16 2.81678e-16 0 2.3249e-16 -2.11893e-16 0 0 0 0)
(3.35849e-14 -2.62139e-15 0 4.59831e-16 -6.80723e-16 0 0 0 0)
(4.75748e-11 -3.9863e-12 0 -1.64187e-14 -4.86593e-16 0 0 0 0)
(1.00059e-08 -8.9983e-10 0 -2.56965e-11 -1.18662e-12 0 0 0 0)
(3.2938e-07 -3.33554e-08 0 -5.53943e-09 -2.91353e-10 0 0 0 0)
(0 -3.00076e-16 0 0 0 0 0 0 0)
(0 -1.15653e-15 0 0 3.00076e-16 0 0 0 0)
(0 -2.22044e-16 0 0 1.50546e-15 0 0 0 0)
(0 1.42742e-16 0 0 5.2212e-16 0 0 0 0)
(0 3.10227e-16 0 -3.28195e-16 1.26692e-15 0 0 0 0)
(0 1.01379e-15 0 3.04711e-16 -1.70022e-16 0 0 0 0)
(2.48924e-14 -3.83819e-16 0 0 -2.85485e-17 0 0 0 0)
(3.2949e-11 -1.19032e-12 0 -8.38782e-15 2.83518e-15 0 0 0 0)
(6.65558e-09 -2.91375e-10 0 -1.46258e-11 5.17659e-12 0 0 0 0)
(2.21663e-07 -1.20313e-08 0 -3.35028e-09 1.19121e-09 0 0 0 0)
(6.58341e-06 5.92355e-07 -1.96346e-23 2.0208e-07 -1.44506e-07 2.94519e-23 6.65401e-24 2.96641e-23 -5.32196e-39)
(3.45451e-05 7.80095e-06 0 5.29297e-06 -4.14184e-06 0 -1.2195e-21 -1.19968e-22 0)
(4.26714e-05 3.67436e-05 0 3.19965e-05 -2.56423e-05 0 -8.27411e-21 -1.27202e-21 0)
(-0.000716045 6.86683e-05 0 5.41921e-05 -3.94211e-05 0 0 0 0)
(-0.0242228 -0.000631739 -1.94255e-19 -0.0010035 0.00160594 2.91382e-19 3.82516e-19 2.5501e-19 5.26529e-35)
(9.24721e-06 1.08021e-06 0 1.50332e-07 -1.04155e-08 0 4.317e-23 3.55189e-24 0)
(4.82968e-05 8.28525e-06 0 3.29047e-06 -4.13633e-07 0 1.2195e-21 1.19968e-22 0)
(6.94661e-05 2.33761e-05 0 1.7787e-05 -5.21273e-06 0 8.27411e-21 1.27202e-21 0)
(-0.000677709 3.65356e-05 0 3.79482e-05 -2.73901e-05 0 0 0 0)
(-0.0258018 0.000129552 0 0.000146694 -0.000100642 0 0 0 0)
(1.05657e-05 -1.81077e-13 0 1.48116e-13 -5.7794e-08 0 0 0 0)
(5.40807e-05 2.59712e-13 0 -4.03998e-13 -1.82836e-06 0 0 0 0)
(8.32411e-05 1.36278e-13 0 6.78149e-13 -1.77321e-05 0 0 0 0)
(-0.00064292 -3.51498e-13 0 -4.3915e-13 -6.98115e-05 0 0 0 0)
(-0.0263771 2.7277e-13 0 2.07685e-13 -0.000188138 0 0 0 0)
(9.24721e-06 -1.08021e-06 0 -1.50331e-07 -1.04154e-08 0 4.31701e-23 -3.55188e-24 0)
(4.82968e-05 -8.28525e-06 0 -3.29047e-06 -4.13633e-07 0 1.2195e-21 -1.19968e-22 0)
(6.94661e-05 -2.33761e-05 0 -1.7787e-05 -5.21273e-06 0 8.27411e-21 -1.27202e-21 0)
(-0.000677709 -3.65356e-05 0 -3.79482e-05 -2.73901e-05 0 0 0 0)
(-0.0258018 -0.000129552 0 -0.000146694 -0.000100642 0 0 0 0)
(6.58341e-06 -5.92356e-07 1.96346e-23 -2.02081e-07 -1.44506e-07 2.94519e-23 -9.29942e-23 3.6768e-23 -5.32198e-39)
(3.45451e-05 -7.80095e-06 0 -5.29296e-06 -4.14184e-06 0 -1.2195e-21 1.19968e-22 0)
(4.26714e-05 -3.67436e-05 0 -3.19965e-05 -2.56423e-05 0 -8.27411e-21 1.27202e-21 0)
(-0.000716045 -6.86683e-05 5.65433e-21 -5.41921e-05 -3.94211e-05 8.48149e-21 -2.75704e-20 1.83803e-20 -1.53261e-36)
(-0.0242228 0.000631739 1.94255e-19 0.0010035 0.00160594 2.91382e-19 -3.82516e-19 2.5501e-19 5.26529e-35)
(-0.124912 -0.000156728 6.91805e-20 -0.0062194 -0.0221371 6.22624e-19 -1.35737e-17 8.20676e-19 -1.87514e-35)
(-0.246994 0.0082778 -2.50344e-19 -0.0362585 -0.0810492 -2.2531e-18 4.96802e-17 -2.95775e-18 -6.78559e-35)
(-0.368231 0.0829191 0 -0.0261885 -0.078359 0 0 0 0)
(-0.45799 0.238935 -6.58268e-19 0.268798 0.21279 -5.92441e-18 -1.4663e-16 2.36003e-17 1.78424e-34)
(-0.853877 0.144222 2.31238e-18 1.05473 0.773431 2.08114e-17 1.08375e-16 -1.20417e-17 6.26772e-34)
(-0.133306 0.000218521 0 -0.0066915 -0.00200988 0 6.88049e-18 -7.69896e-20 0)
(-0.250993 0.0166457 0 -0.049658 -0.00740863 0 -2.53861e-17 2.58407e-19 0)
(-0.26178 0.0984927 0 -0.0248801 -0.0504923 0 0 0 0)
(-0.0289238 0.247448 0 0.430495 -0.241067 0 8.33432e-17 -1.69405e-17 0)
(0.35037 0.0588219 0 1.47276 -0.54543 0 -8.06388e-18 4.72709e-18 0)
(-0.139784 -3.41985e-16 0 -1.13194e-13 -0.00109299 0 0 0 0)
(-0.250872 -1.02549e-13 0 -6.06678e-14 -0.0023431 0 0 0 0)
(-0.182141 -1.05351e-14 0 1.25486e-13 -0.0984614 0 0 0 0)
(0.172689 3.18312e-14 0 6.6434e-16 -0.514283 0 -2.81512e-17 1.89462e-30 0)
(0.582959 5.81981e-14 0 1.63859e-13 -1.25567 0 1.61278e-17 3.84957e-32 0)
(-0.133306 -0.000218521 0 0.0066915 -0.00200988 0 6.88049e-18 7.69896e-20 0)
(-0.250993 -0.0166457 0 0.049658 -0.00740863 0 -2.53861e-17 -2.58407e-19 0)
(-0.26178 -0.0984927 0 0.0248801 -0.0504923 0 0 0 0)
(-0.0289238 -0.247448 0 -0.430495 -0.241067 0 8.33432e-17 1.69405e-17 0)
(0.35037 -0.0588219 0 -1.47276 -0.54543 0 -8.06388e-18 -4.72709e-18 0)
(-0.124912 0.000156728 0 0.0062194 -0.0221371 0 -6.88049e-18 -7.69896e-20 0)
(-0.246994 -0.0082778 2.50344e-19 0.0362585 -0.0810492 -2.2531e-18 1.09199e-18 -2.44094e-18 -6.78559e-35)
(-0.368231 -0.0829191 0 0.0261885 -0.078359 0 0 0 0)
(-0.45799 -0.238935 6.58268e-19 -0.268798 0.21279 -5.92441e-18 8.09531e-18 -6.40853e-18 1.78424e-34)
(-0.853877 -0.144222 -2.31238e-18 -1.05473 0.773431 2.08114e-17 -1.08375e-16 -1.20417e-17 6.26772e-34)
(-0.0503865 -0.488254 0 6.15631 0.10465 0 0 0 0)
(0.680004 -0.243285 0 1.76392 0.403412 0 0 0 0)
(0.278549 0.296482 0 0.587144 0.134435 0 0 0 0)
(0.31453 0.148996 0 0.0837371 0.0456479 0 0 0 0)
(0.140485 0.0285601 0 0.0012755 0.009232 0 0 0 0)
(0.0278253 0.00106606 0 -0.000392625 0.000571506 0 0 0 0)
(0.00160825 -1.89801e-05 0 -6.98618e-06 5.67638e-06 0 0 0 0)
(1.69318e-05 -4.62369e-07 0 -1.0647e-08 6.27628e-09 0 0 0 0)
(2.13631e-08 -5.98574e-10 0 -1.21968e-12 4.41839e-13 0 0 0 0)
(2.28772e-12 -7.37913e-14 0 -3.79932e-17 1.46716e-17 0 0 0 0)
(1.14435e-16 -5.46118e-16 0 -1.43682e-16 -5.36695e-16 0 0 0 0)
(-2.39941e-17 -3.25489e-16 0 5.0694e-16 3.99853e-15 0 0 0 0)
(-3.13303e-16 7.38224e-17 0 3.97347e-16 1.80269e-15 0 0 0 0)
(-7.02115e-17 7.38224e-17 0 -7.69118e-16 7.37619e-16 0 0 0 0)
(8.06466e-16 1.90428e-16 0 3.49699e-18 3.72111e-16 0 0 0 0)
(-8.14222e-17 -2.15595e-16 0 3.6484e-16 1.98229e-15 0 0 0 0)
(-7.94783e-16 1.057e-16 0 1.55892e-16 4.81476e-16 0 0 0 0)
(-3.11656e-16 7.39901e-16 0 -2.63117e-16 1.56065e-15 0 0 0 0)
(4.01706e-16 -5.28501e-17 0 -1.08321e-15 5.41679e-15 0 0 0 0)
(5.13452e-16 -5.09206e-16 0 4.20372e-16 3.57467e-15 0 0 0 0)
(-6.99491e-17 -3.82534e-16 0 8.44038e-17 5.18321e-16 0 0 0 0)
(-1.07184e-16 1.80361e-16 0 7.76593e-16 3.67228e-15 0 0 0 0)
(-5.38814e-16 1.92693e-15 0 7.68972e-16 1.93818e-15 0 0 0 0)
(-1.63025e-16 -3.48978e-16 0 -1.38238e-15 5.42672e-15 0 0 0 0)
(1.05326e-15 -1.32545e-15 0 -1.68644e-15 4.09013e-15 0 0 0 0)
(4.90607e-16 -1.09056e-16 0 -1.57885e-16 -9.17535e-16 0 0 0 0)
(-9.52903e-16 -6.37557e-17 0 8.88413e-16 -5.0361e-15 0 0 0 0)
(-3.59975e-16 1.38165e-15 0 8.57356e-16 3.59635e-16 0 0 0 0)
(2.86036e-16 1.67526e-15 0 8.0505e-16 -3.19068e-16 0 0 0 0)
(5.43479e-16 -8.12046e-16 0 -1.4845e-16 -3.41687e-15 0 0 0 0)
(3.24638e-12 -1.17445e-15 0 -1.16364e-15 -1.15468e-15 0 0 0 0)
(3.04938e-08 1.25733e-14 0 -1.51324e-14 -8.45449e-14 0 0 0 0)
(2.46189e-05 -1.39421e-13 0 5.82136e-14 -1.22031e-13 0 0 0 0)
(0.00239909 3.14659e-15 0 -3.21156e-13 -3.44516e-13 0 0 0 0)
(0.0429689 1.90709e-13 0 2.25282e-13 5.74945e-13 0 0 0 0)
(0.230048 1.16219e-13 0 1.21788e-13 -3.08372e-13 0 0 0 0)
(0.569768 -4.43636e-14 0 3.37581e-14 -1.31846e-13 0 0 0 0)
(0.775504 -3.53252e-14 0 -1.23205e-14 -2.28594e-13 0 0 0 0)
(2.58409 4.63902e-14 0 1.67559e-14 -3.23507e-13 0 0 0 0)
(2.1889 -4.33207e-14 0 1.49817e-13 -2.78455e-13 0 0 0 0)
(0.162187 -0.402123 0 4.25396 -0.320455 0 0 0 0)
(-0.19093 -0.197145 0 1.56786 1.11727 0 0 0 0)
(-0.039486 0.193736 0 0.541762 0.515836 0 0 0 0)
(0.204425 0.099169 0 0.0609859 0.09811 0 0 0 0)
(0.129688 0.0186293 0 -0.00771162 0.00366299 0 0 0 0)
(0.0289227 -0.000238496 0 -0.000978881 -6.52461e-05 0 0 0 0)
(0.00176499 -0.000110518 0 -1.31449e-05 -1.58939e-06 0 0 0 0)
(1.90907e-05 -1.47948e-06 0 -1.80036e-08 -2.05774e-09 0 0 0 0)
(2.43303e-08 -1.83455e-09 0 -1.95514e-12 -1.40237e-13 0 0 0 0)
(2.60735e-12 -1.47523e-13 0 6.20669e-17 -3.74879e-16 0 0 0 0)
(3.05275e-16 1.13334e-15 0 5.07143e-16 -1.38705e-15 0 0 0 0)
(1.44524e-16 3.23812e-16 0 -1.33788e-16 5.98076e-15 0 0 0 0)
(-5.3922e-16 -8.4644e-16 0 -5.82778e-17 -8.93943e-17 0 0 0 0)
(-1.52224e-16 -4.52162e-16 0 -1.00891e-15 3.79781e-15 0 0 0 0)
(8.15418e-16 2.08045e-16 0 -3.04373e-16 -1.55719e-15 0 0 0 0)
(6.72082e-19 8.3889e-19 0 -6.833e-17 7.15154e-16 0 0 0 0)
(-6.61953e-16 -5.70445e-17 0 2.27159e-16 0 0 0 0 0)
(-5.27585e-16 1.46806e-15 0 7.0408e-16 7.20921e-16 0 0 0 0)
(4.14241e-16 4.84879e-16 0 4.49848e-16 2.10797e-15 0 0 0 0)
(6.14998e-16 -1.39088e-15 0 -9.95116e-16 4.14097e-15 0 0 0 0)
(6.61188e-17 9.06002e-17 0 4.625e-17 6.2576e-16 0 0 0 0)
(1.41671e-16 7.15574e-16 0 9.91967e-16 7.23517e-15 0 0 0 0)
(-9.2087e-16 1.28602e-15 0 3.71318e-16 3.15475e-15 0 0 0 0)
(-8.01721e-16 2.12239e-16 0 -1.60765e-16 -5.96923e-16 0 0 0 0)
(1.01567e-15 -2.37154e-15 0 -2.22438e-15 5.87118e-15 0 0 0 0)
(1.01213e-15 -2.27172e-15 0 -2.85808e-15 1.91765e-15 0 0 0 0)
(-3.13e-16 5.81351e-16 0 1.60369e-15 -1.21692e-15 0 0 0 0)
(-2.17281e-16 1.98901e-15 0 1.90632e-15 2.59532e-15 0 0 0 0)
(-1.3264e-16 -1.37578e-16 0 -3.82253e-16 -4.5966e-15 0 0 0 0)
(-1.08393e-16 -6.91246e-16 0 -4.56128e-16 -1.16097e-14 0 0 0 0)
(3.23239e-12 -1.97617e-14 0 -9.33345e-16 -3.4114e-15 0 0 0 0)
(3.04939e-08 -3.07873e-15 0 -4.05895e-14 -5.07529e-15 0 0 0 0)
(2.46189e-05 -1.35981e-13 0 5.27991e-14 8.11325e-14 0 0 0 0)
(0.00239909 1.05115e-13 0 -4.04662e-13 -3.33492e-13 0 0 0 0)
(0.0429689 1.51383e-13 0 4.15681e-13 3.08572e-13 0 0 0 0)
(0.230048 -2.07874e-14 0 -8.93235e-14 -2.22104e-13 0 0 0 0)
(0.569768 -2.15222e-14 0 1.65094e-14 -3.32138e-13 0 0 0 0)
(0.775504 -9.42506e-14 0 -6.20952e-14 -2.30276e-13 0 0 0 0)
(2.58409 -1.34773e-14 0 -1.97128e-14 -4.44378e-13 0 0 0 0)
(2.1889 -2.63035e-14 0 3.5483e-14 -5.74625e-13 0 0 0 0)
(0.179117 8.49971e-14 0 3.34994e-13 -0.675235 0 0 0 0)
(-0.399907 -4.95069e-14 0 -1.04724e-14 1.45925 0 0 0 0)
(-0.159815 -1.19534e-13 0 -2.14623e-13 0.680137 0 0 0 0)
(0.154683 -8.37432e-15 0 -1.06079e-13 0.127317 0 0 0 0)
(0.122459 8.75883e-14 0 1.66665e-13 -0.00164983 0 0 0 0)
(0.0300649 -4.7809e-14 0 -5.0283e-15 -0.000759826 0 0 0 0)
(0.00189301 -7.19376e-14 0 6.93651e-14 -1.01714e-05 0 0 0 0)
(2.07558e-05 7.25181e-14 0 2.04062e-13 -1.26126e-08 0 0 0 0)
(2.66005e-08 4.21509e-14 0 -8.42397e-14 -8.62776e-13 0 0 0 0)
(2.85664e-12 -3.33987e-14 0 -4.34552e-16 2.5982e-15 0 0 0 0)
(5.74588e-17 1.3028e-15 0 6.70541e-16 -1.65235e-15 0 0 0 0)
(-1.8848e-16 5.20112e-17 0 -9.52181e-16 -7.1227e-16 0 0 0 0)
(-5.67885e-16 -5.61218e-16 0 -5.95849e-17 -1.10157e-15 0 0 0 0)
(-1.41803e-16 -3.53173e-16 0 6.68077e-16 4.41492e-15 0 0 0 0)
(1.08009e-15 -7.06346e-16 0 -7.21404e-16 8.24734e-16 0 0 0 0)
(7.32053e-17 2.37406e-16 0 -7.11538e-16 -7.15154e-16 0 0 0 0)
(-5.70082e-16 1.07378e-16 0 -1.81738e-16 0 0 0 0 0)
(-2.46873e-16 1.35313e-15 0 3.99849e-16 -5.19063e-16 0 0 0 0)
(-9.26054e-17 9.42074e-16 0 1.89356e-15 -3.36238e-15 0 0 0 0)
(3.96041e-16 -9.40396e-16 0 -1.14011e-15 -8.79524e-16 0 0 0 0)
(5.08111e-16 5.17595e-16 0 3.25209e-16 -8.36269e-17 0 0 0 0)
(-1.26193e-17 9.16068e-16 0 7.40712e-16 -1.37263e-15 0 0 0 0)
(-8.74154e-16 -3.51495e-16 0 -7.27501e-16 -2.71643e-15 0 0 0 0)
(-9.18137e-16 4.41256e-16 0 1.53322e-17 -6.79396e-15 0 0 0 0)
(2.68588e-16 -5.93934e-16 0 -1.92951e-16 8.93943e-17 0 0 0 0)
(1.60423e-15 -2.17105e-15 0 -1.34181e-15 5.77026e-15 0 0 0 0)
(4.33106e-16 1.33384e-16 0 1.38064e-15 4.63408e-15 0 0 0 0)
(-9.37705e-16 3.98473e-16 0 6.88113e-16 -1.10734e-15 0 0 0 0)
(-4.01222e-16 -2.45711e-15 0 -2.64589e-15 -2.48285e-15 0 0 0 0)
(3.83161e-16 -4.67262e-16 0 -6.65009e-16 -3.97084e-15 0 0 0 0)
(3.23471e-12 7.26479e-16 0 6.70937e-16 -1.07561e-15 0 0 0 0)
(3.04939e-08 3.71679e-14 0 -1.17241e-15 8.47227e-15 0 0 0 0)
(2.46189e-05 -2.34961e-13 0 7.91138e-14 1.54955e-13 0 0 0 0)
(0.00239909 6.9311e-14 0 -5.4089e-13 -5.16919e-13 0 0 0 0)
(0.0429689 2.23113e-13 0 6.09046e-13 1.08487e-13 0 0 0 0)
(0.230048 -7.01696e-14 0 -9.3266e-14 -4.10364e-14 0 0 0 0)
(0.569768 -4.67408e-14 0 5.51957e-14 -3.02171e-13 0 0 0 0)
(0.775504 -6.7977e-14 0 -6.45593e-14 -1.76204e-13 0 0 0 0)
(2.58409 -5.37841e-14 0 -9.85638e-14 -1.49084e-13 0 0 0 0)
(2.1889 -8.12108e-14 0 -2.32611e-13 -1.40923e-13 0 0 0 0)
(0.162187 0.402123 0 -4.25396 -0.320455 0 0 0 0)
(-0.19093 0.197145 0 -1.56786 1.11727 0 0 0 0)
(-0.039486 -0.193736 0 -0.541762 0.515836 0 0 0 0)
(0.204425 -0.099169 0 -0.0609859 0.09811 0 0 0 0)
(0.129688 -0.0186293 0 0.00771162 0.00366299 0 0 0 0)
(0.0289227 0.000238496 0 0.000978881 -6.52461e-05 0 0 0 0)
(0.00176499 0.000110518 0 1.31449e-05 -1.58939e-06 0 0 0 0)
(1.90907e-05 1.47948e-06 0 1.80037e-08 -2.05722e-09 0 0 0 0)
(2.43302e-08 1.83457e-09 0 1.86307e-12 -4.86818e-13 0 0 0 0)
(2.63206e-12 1.02986e-13 0 -1.13495e-15 -6.22876e-16 0 0 0 0)
(1.54692e-16 1.70295e-16 0 3.75118e-16 -1.92919e-15 0 0 0 0)
(-6.78764e-17 4.8404e-16 0 2.79274e-16 -4.29381e-15 0 0 0 0)
(-6.78724e-17 6.45107e-16 0 -2.88218e-16 -1.10734e-15 0 0 0 0)
(-3.44753e-16 1.08217e-16 0 2.08112e-15 -6.34411e-16 0 0 0 0)
(4.14076e-16 -1.28434e-15 0 -2.30929e-16 2.40788e-15 0 0 0 0)
(1.57666e-16 -2.39084e-16 0 -1.78171e-15 0 0 0 0 0)
(-3.38641e-16 0 0 -5.11626e-16 0 0 0 0 0)
(7.61378e-17 4.89912e-16 0 7.43654e-17 -3.69112e-16 0 0 0 0)
(-3.37468e-17 3.80017e-16 0 9.08986e-16 -5.5684e-15 0 0 0 0)
(1.58751e-16 -4.37062e-16 0 3.71518e-16 -4.58506e-15 0 0 0 0)
(6.13267e-16 -5.28501e-17 0 -4.52448e-16 -1.41877e-15 0 0 0 0)
(-1.64572e-16 -5.03334e-17 0 -1.21079e-15 -5.38673e-15 0 0 0 0)
(-1.13189e-15 -2.91095e-16 0 -4.09002e-16 -7.50623e-15 0 0 0 0)
(-6.46215e-16 1.02848e-15 0 7.28028e-16 -6.58057e-15 0 0 0 0)
(6.20868e-16 1.2835e-15 0 2.03e-15 -5.42133e-15 0 0 0 0)
(1.4699e-15 -9.49624e-16 0 5.17139e-16 5.91156e-16 0 0 0 0)
(2.77524e-16 -1.4194e-15 0 -1.11014e-15 1.3784e-15 0 0 0 0)
(-1.38864e-15 -8.13724e-17 0 2.22572e-16 -7.46298e-15 0 0 0 0)
(-5.26275e-16 -9.70596e-16 0 -5.23401e-16 -8.93943e-16 0 0 0 0)
(8.56502e-16 -2.81867e-16 0 4.22468e-16 4.31976e-15 0 0 0 0)
(3.23225e-12 -1.61419e-14 0 7.79212e-16 -5.07529e-16 0 0 0 0)
(3.04939e-08 4.2312e-14 0 -4.47576e-14 -4.75635e-14 0 0 0 0)
(2.46189e-05 -2.88822e-13 0 1.34975e-13 -1.40205e-13 0 0 0 0)
(0.00239909 9.15969e-14 0 -6.62994e-13 7.16572e-14 0 0 0 0)
(0.0429689 2.89821e-13 0 8.63171e-13 -7.27173e-16 0 0 0 0)
(0.230048 -1.40252e-13 0 -5.31013e-14 -1.1116e-13 0 0 0 0)
(0.569768 -6.08437e-14 0 -2.71051e-15 -5.48755e-13 0 0 0 0)
(0.775504 -4.97163e-14 0 -1.30104e-13 -5.87811e-16 0 0 0 0)
(2.58409 -3.21357e-15 0 -1.36018e-13 -3.08728e-13 0 0 0 0)
(2.1889 -2.39292e-14 0 -1.22219e-13 1.04061e-13 0 0 0 0)
(-0.0503865 0.488254 0 -6.15631 0.10465 0 0 0 0)
(0.680004 0.243285 0 -1.76392 0.403412 0 0 0 0)
(0.278549 -0.296482 0 -0.587144 0.134435 0 0 0 0)
(0.31453 -0.148996 0 -0.0837371 0.0456479 0 0 0 0)
(0.140485 -0.0285601 0 -0.0012755 0.009232 0 0 0 0)
(0.0278253 -0.00106606 0 0.000392625 0.000571506 0 0 0 0)
(0.00160825 1.89801e-05 0 6.98618e-06 5.67638e-06 0 0 0 0)
(1.69318e-05 4.62369e-07 0 1.06468e-08 6.2766e-09 0 0 0 0)
(2.1363e-08 5.98507e-10 0 1.24697e-12 2.06496e-13 0 0 0 0)
(2.31476e-12 1.0766e-13 0 -5.7776e-16 -9.87068e-16 0 0 0 0)
(4.68868e-16 2.34889e-16 0 -5.37629e-17 1.25475e-16 0 0 0 0)
(-3.81451e-16 2.91095e-16 0 7.71346e-16 -1.89568e-15 0 0 0 0)
(-4.37129e-17 5.03334e-16 0 -6.6396e-16 -6.23944e-16 0 0 0 0)
(-1.25137e-16 6.69435e-16 0 6.19266e-16 -3.80557e-15 0 0 0 0)
(-4.36401e-17 -5.2179e-16 0 4.56185e-16 2.34394e-16 0 0 0 0)
(-8.45202e-18 -4.63068e-16 0 -8.8896e-16 1.71586e-16 0 0 0 0)
(-3.01331e-17 0 0 -1.29664e-16 0 0 0 0 0)
(1.66396e-16 -2.66767e-16 0 2.59812e-16 -3.22985e-18 0 0 0 0)
(-6.16092e-18 -2.84384e-16 0 -8.17496e-17 -2.67038e-15 0 0 0 0)
(-1.19914e-20 2.66767e-16 0 3.85141e-16 -2.00856e-15 0 0 0 0)
(4.78047e-17 2.84384e-16 0 -6.27182e-16 -1.81672e-16 0 0 0 0)
(1.96159e-20 -8.54829e-16 0 -1.63464e-15 -1.36405e-15 0 0 0 0)
(-3.10136e-16 -6.98796e-16 0 -6.16607e-17 -2.55896e-15 0 0 0 0)
(-2.08608e-16 1.04777e-15 0 1.55078e-15 -2.31322e-15 0 0 0 0)
(2.07239e-16 1.49239e-15 0 1.91784e-15 -3.33091e-15 0 0 0 0)
(6.9073e-16 -1.92945e-16 0 -1.77473e-16 -2.84914e-15 0 0 0 0)
(3.47413e-16 -2.20964e-15 0 -1.85414e-15 -7.37146e-16 0 0 0 0)
(-7.67016e-16 -2.62573e-16 0 -3.8407e-16 -3.37003e-15 0 0 0 0)
(-3.4307e-16 9.70596e-16 0 1.37656e-15 -1.43963e-15 0 0 0 0)
(7.62103e-16 -3.54851e-16 0 1.11105e-15 2.5682e-15 0 0 0 0)
(3.22156e-12 -1.43668e-14 0 1.34085e-16 -9.71391e-16 0 0 0 0)
(3.04939e-08 -3.47133e-15 0 -3.56191e-14 4.00129e-14 0 0 0 0)
(2.46189e-05 -2.00278e-13 0 -1.18431e-14 -2.65975e-13 0 0 0 0)
(0.00239909 1.09886e-13 0 -3.57726e-13 6.08211e-13 0 0 0 0)
(0.0429689 1.6993e-13 0 6.42453e-13 6.30342e-16 0 0 0 0)
(0.230048 -2.29596e-13 0 -2.03596e-13 -5.57845e-14 0 0 0 0)
(0.569768 -1.45743e-14 0 -1.5647e-13 -4.55077e-13 0 0 0 0)
(0.775504 1.84914e-15 0 -7.6387e-14 6.37596e-14 0 0 0 0)
(2.58409 -2.33408e-14 0 -5.51957e-14 -1.31049e-13 0 0 0 0)
(2.1889 3.88731e-14 0 6.70234e-14 -8.76458e-15 0 0 0 0)
(1.95267 0.373261 0 -3.21795 0.152854 0 0 0 0)
(2.29544 0.16248 0 -0.805701 -0.209481 0 0 0 0)
(0.646719 -0.299352 0 -0.320226 -0.118307 0 0 0 0)
(0.444615 -0.120093 0 -0.0922804 -0.00589252 0 0 0 0)
(0.169976 -0.035422 0 -0.0133248 0.00346265 0 0 0 0)
(0.0309961 -0.00404053 0 -0.000598045 0.000242945 0 0 0 0)
(0.00169995 -0.000142126 0 -4.9541e-06 2.38725e-06 0 0 0 0)
(1.72046e-05 -9.05129e-07 0 -5.0174e-09 2.5209e-09 0 0 0 0)
(2.10826e-08 -6.73379e-10 0 -4.12899e-13 2.90825e-13 0 0 0 0)
(2.2167e-12 -3.187e-14 0 -4.67424e-16 5.65503e-16 0 0 0 0)
(6.37684e-16 -4.74337e-16 0 -5.55799e-16 7.33162e-16 0 0 0 0)
(-8.80658e-17 2.37042e-16 0 1.46698e-16 -1.10229e-16 0 0 0 0)
(-1.91203e-16 -3.88992e-16 0 -1.0067e-16 4.01004e-16 0 0 0 0)
(1.03951e-16 -2.27925e-18 0 -2.27781e-16 -9.10189e-16 0 0 0 0)
(-2.75847e-18 3.28718e-16 0 2.97211e-16 -4.9429e-16 0 0 0 0)
(-1.77477e-17 -1.27131e-16 0 -2.12158e-16 6.54624e-16 0 0 0 0)
(2.52405e-17 -1.09657e-16 0 2.22281e-16 1.39287e-16 0 0 0 0)
(1.83243e-18 -3.10231e-16 0 -1.36422e-16 -1.1274e-18 0 0 0 0)
(1.29727e-17 -1.09657e-16 0 -2.17471e-19 2.78928e-16 0 0 0 0)
(1.85206e-19 3.10231e-16 0 -1.29318e-18 8.03824e-16 0 0 0 0)
(1.26606e-19 -3.8494e-17 0 1.22224e-18 2.65435e-17 0 0 0 0)
(-1.4441e-19 -6.11345e-16 0 -7.62145e-17 -8.35687e-17 0 0 0 0)
(-8.39131e-17 -4.15077e-16 0 6.08671e-19 8.75932e-16 0 0 0 0)
(8.94898e-17 5.21948e-16 0 1.8123e-16 7.40871e-16 0 0 0 0)
(1.50415e-17 7.05808e-16 0 5.53383e-16 -5.3158e-16 0 0 0 0)
(4.75195e-18 -1.97535e-16 0 -9.87766e-17 -1.18693e-15 0 0 0 0)
(6.71218e-17 -8.32433e-16 0 -5.03147e-16 -3.38114e-16 0 0 0 0)
(-8.08554e-17 -3.1251e-16 0 -4.81942e-16 1.87246e-15 0 0 0 0)
(1.99741e-16 5.09792e-16 0 5.3347e-16 -7.60763e-17 0 0 0 0)
(1.86282e-16 9.6235e-17 0 6.3818e-16 6.08814e-16 0 0 0 0)
(3.22156e-12 5.29368e-15 0 -3.66061e-16 6.44885e-16 0 0 0 0)
(3.04939e-08 -7.09806e-14 0 8.60433e-15 2.27994e-14 0 0 0 0)
(2.46189e-05 -3.47853e-14 0 -1.96834e-13 -1.69372e-13 0 0 0 0)
(0.00239909 2.37684e-13 0 1.11083e-13 3.85492e-13 0 0 0 0)
(0.0429689 1.19399e-14 0 2.62916e-13 -9.17395e-14 0 0 0 0)
(0.230048 -3.228e-13 0 -2.56917e-13 1.74746e-13 0 0 0 0)
(0.569768 -3.93559e-14 0 -1.80242e-13 9.19965e-14 0 0 0 0)
(0.775504 9.39155e-14 0 -3.70451e-14 4.17763e-14 0 0 0 0)
(2.58409 -2.54339e-14 0 -2.85649e-14 1.72244e-13 0 0 0 0)
(2.1889 -1.9839e-14 0 4.40376e-14 1.0389e-13 0 0 0 0)
(2.20185 0.093209 0 -0.442483 0.0433537 0 0 0 0)
(2.60611 0.0253145 0 -0.194906 -0.330436 0 0 0 0)
(0.768602 -0.098757 0 -0.138578 -0.12069 0 0 0 0)
(0.540515 -0.0471527 0 -0.0609826 -0.0334403 0 0 0 0)
(0.21302 -0.0189681 0 -0.011899 -0.00363438 0 0 0 0)
(0.0389605 -0.00280549 0 -0.000688687 -0.00011988 0 0 0 0)
(0.00213537 -0.000128737 0 -7.25688e-06 -6.90464e-07 0 0 0 0)
(2.15595e-05 -1.10478e-06 0 -9.16901e-09 -4.29606e-10 0 0 0 0)
(2.63484e-08 -1.14869e-09 0 -9.80102e-13 -1.77988e-14 0 0 0 0)
(2.76469e-12 -9.70626e-14 0 1.57149e-16 -6.66477e-16 0 0 0 0)
(9.70135e-16 -3.59615e-17 0 -1.4047e-20 1.11693e-16 0 0 0 0)
(-1.00194e-16 1.05711e-30 0 -1.60867e-16 -1.74241e-16 0 0 0 0)
(-3.25486e-16 2.10957e-16 0 3.35716e-16 -9.22451e-17 0 0 0 0)
(1.35431e-16 1.66892e-16 0 3.96144e-16 7.13783e-16 0 0 0 0)
(-5.05081e-17 5.30052e-16 0 -3.28208e-16 -9.19823e-18 0 0 0 0)
(-7.56728e-17 -3.26692e-17 0 -2.69042e-16 6.30736e-18 0 0 0 0)
(1.31561e-17 -5.73105e-16 0 -2.15494e-16 4.79359e-16 0 0 0 0)
(4.02325e-17 -1.08897e-16 0 -2.28416e-16 1.7608e-16 0 0 0 0)
(1.13794e-16 3.97602e-16 0 -1.11834e-18 3.21938e-16 0 0 0 0)
(1.26963e-18 2.5325e-19 0 -6.04488e-18 1.498e-16 0 0 0 0)
(1.17439e-18 -3.97602e-16 0 2.13617e-17 2.06468e-32 0 0 0 0)
(-4.83688e-19 -1.66892e-16 0 -1.05773e-19 1.78971e-16 0 0 0 0)
(-1.83361e-16 -5.64747e-17 0 4.26114e-18 1.03966e-15 0 0 0 0)
(1.64216e-16 -2.65912e-17 0 4.74019e-17 6.30998e-16 0 0 0 0)
(4.04761e-17 5.64747e-17 0 -8.7458e-17 2.67011e-16 0 0 0 0)
(4.04633e-17 -4.052e-18 0 6.55476e-17 -2.63858e-16 0 0 0 0)
(1.28482e-16 5.54985e-30 0 1.95516e-17 5.41119e-16 0 0 0 0)
(-1.36036e-16 1.67145e-17 0 -9.07177e-17 7.17987e-16 0 0 0 0)
(4.45247e-16 9.91045e-31 0 -1.39025e-17 6.22063e-16 0 0 0 0)
(2.04057e-16 9.80077e-17 0 -1.4562e-16 1.88958e-16 0 0 0 0)
(3.22924e-12 -3.52575e-15 0 -9.01117e-17 5.22197e-16 0 0 0 0)
(3.04937e-08 -1.31105e-13 0 -7.00095e-15 -1.25474e-14 0 0 0 0)
(2.46189e-05 6.04828e-14 0 -2.3391e-13 6.46002e-14 0 0 0 0)
(0.00239909 1.16167e-13 0 3.90315e-13 1.54751e-13 0 0 0 0)
(0.0429689 5.15661e-14 0 -1.08593e-13 -3.32247e-13 0 0 0 0)
(0.230048 -2.56196e-15 0 1.11377e-13 2.24103e-13 0 0 0 0)
(0.569768 -1.2942e-13 0 -1.4394e-13 2.59231e-13 0 0 0 0)
(0.775504 2.98096e-14 0 -4.28474e-14 1.11295e-13 0 0 0 0)
(2.58409 3.7637e-14 0 4.46327e-14 1.25465e-13 0 0 0 0)
(2.1889 4.48849e-15 0 -2.38041e-15 1.96704e-13 0 0 0 0)
(2.19124 0.0130641 0 -0.0117186 -0.0250914 0 0 0 0)
(2.58829 0.00440134 0 -0.0250515 -0.121595 0 0 0 0)
(0.775773 -0.0131564 0 -0.0344009 -0.0514835 0 0 0 0)
(0.566688 -0.00729418 0 -0.0178759 -0.0196577 0 0 0 0)
(0.228077 -0.00331321 0 -0.00414453 -0.0028863 0 0 0 0)
(0.0424555 -0.000538977 0 -0.000272419 -0.00013232 0 0 0 0)
(0.00236359 -2.66065e-05 0 -3.16043e-06 -1.13527e-06 0 0 0 0)
(2.41976e-05 -2.39773e-07 0 -4.28308e-09 -1.18044e-09 0 0 0 0)
(2.99182e-08 -2.59395e-10 0 -4.65109e-13 -1.00871e-13 0 0 0 0)
(3.16117e-12 -1.46107e-14 0 5.17831e-16 1.36922e-16 0 0 0 0)
(3.31232e-16 0 0 -3.54613e-19 0 0 0 0 0)
(2.35456e-16 4.052e-17 0 -2.40825e-16 1.74241e-16 0 0 0 0)
(3.45553e-16 4.6674e-16 0 3.70771e-16 -2.9776e-16 0 0 0 0)
(-5.3583e-16 7.77477e-17 0 1.22942e-16 6.46504e-17 0 0 0 0)
(-6.43756e-16 -3.5303e-16 0 -3.18594e-16 -1.7319e-16 0 0 0 0)
(9.08671e-17 3.4366e-16 0 1.03448e-16 -9.31124e-16 0 0 0 0)
(6.43888e-17 5.39422e-17 0 4.92189e-17 -7.04847e-16 0 0 0 0)
(2.08413e-16 -4.61928e-16 0 1.65835e-16 -1.73978e-16 0 0 0 0)
(2.27258e-16 -1.34982e-16 0 -2.13754e-17 -2.62807e-17 0 0 0 0)
(2.18478e-17 4.25323e-31 0 2.54296e-17 -4.12606e-16 0 0 0 0)
(5.84975e-18 -1.03832e-17 0 1.62645e-16 -2.65435e-17 0 0 0 0)
(-1.66231e-17 3.90511e-16 0 -1.69498e-19 7.43283e-32 0 0 0 0)
(-3.8133e-17 2.05132e-17 0 1.65619e-17 1.46646e-16 0 0 0 0)
(1.10594e-18 -2.22607e-16 0 1.72308e-17 5.86059e-17 0 0 0 0)
(3.25275e-17 -1.56508e-16 0 -1.64918e-16 1.74241e-16 0 0 0 0)
(1.0787e-16 6.66047e-17 0 1.25463e-16 3.50847e-16 0 0 0 0)
(-8.34612e-17 1.13709e-16 0 -3.07992e-17 1.78446e-16 0 0 0 0)
(-1.13093e-16 -2.34509e-16 0 -1.64147e-16 0 0 0 0 0)
(1.46836e-16 0 0 -7.18388e-17 1.611e-16 0 0 0 0)
(1.12844e-16 0 0 -4.31348e-16 0 0 0 0 0)
(3.21495e-12 -6.97957e-15 0 -1.25901e-16 5.93943e-17 0 0 0 0)
(3.04936e-08 -9.23273e-15 0 -1.83286e-14 4.84536e-15 0 0 0 0)
(2.46189e-05 1.26429e-13 0 -1.32453e-14 1.97755e-13 0 0 0 0)
(0.00239909 -1.44733e-13 0 2.75045e-13 -1.00183e-15 0 0 0 0)
(0.0429689 7.87699e-14 0 -4.31673e-13 -1.55051e-13 0 0 0 0)
(0.230048 2.4717e-13 0 4.13578e-13 3.0855e-14 0 0 0 0)
(0.569768 -1.48062e-13 0 -7.88511e-14 9.76528e-14 0 0 0 0)
(0.775504 -3.49859e-14 0 -3.49623e-14 7.87456e-16 0 0 0 0)
(2.58409 5.68695e-14 0 3.1838e-14 3.31889e-14 0 0 0 0)
(2.1889 4.88088e-14 0 -5.95102e-15 5.98829e-15 0 0 0 0)
(2.18901 0.000214329 0 0.000630992 -0.00353198 0 0 0 0)
(2.58426 -0.000117866 0 -0.00180137 -0.0171105 0 0 0 0)
(0.775517 -0.000526179 0 -0.00372854 -0.00812608 0 0 0 0)
(0.569671 -0.000322664 0 -0.00208146 -0.00346454 0 0 0 0)
(0.229983 -0.000152697 0 -0.000533122 -0.000559357 0 0 0 0)
(0.0429513 -2.52348e-05 0 -3.68358e-05 -2.76013e-05 0 0 0 0)
(0.00239788 -1.22968e-06 0 -4.37164e-07 -2.48743e-07 0 0 0 0)
(2.4605e-05 -1.07904e-08 0 -5.97157e-10 -2.69015e-10 0 0 0 0)
(3.04757e-08 -1.1182e-11 0 -6.32118e-14 4.95259e-15 0 0 0 0)
(3.21289e-12 1.40554e-16 0 4.95135e-18 0 0 0 0 0)
(2.39067e-16 0 0 -1.46869e-18 1.74241e-16 0 0 0 0)
(2.57436e-16 -2.86932e-16 0 7.06479e-17 0 0 0 0 0)
(2.50528e-17 1.05352e-16 0 2.59381e-16 -7.48999e-17 0 0 0 0)
(-5.28866e-16 2.86932e-16 0 -2.45401e-16 -4.84352e-16 0 0 0 0)
(-6.92929e-17 -4.29512e-16 0 -1.67857e-16 -1.91323e-16 0 0 0 0)
(2.78765e-16 -5.44994e-16 0 1.90043e-16 -5.47952e-16 0 0 0 0)
(7.32742e-17 1.56508e-16 0 2.43302e-16 -6.04981e-16 0 0 0 0)
(-2.77946e-17 5.44994e-16 0 3.48151e-16 -1.73978e-16 0 0 0 0)
(-2.15052e-17 1.67651e-16 0 -1.00304e-16 0 0 0 0 0)
(1.78598e-16 0 0 1.28033e-16 -3.3902e-17 0 0 0 0)
(-2.34939e-17 0 0 3.44604e-16 0 0 0 0 0)
(-1.41255e-16 0 0 5.05932e-18 -2.3127e-17 0 0 0 0)
(-1.66593e-16 0 0 4.79366e-17 -6.87239e-16 0 0 0 0)
(-1.06644e-17 0 0 -2.69013e-16 3.44277e-17 0 0 0 0)
(1.44773e-16 3.38089e-16 0 -1.72514e-17 -2.41782e-17 0 0 0 0)
(1.69705e-16 6.54089e-30 0 -1.17325e-16 6.27582e-16 0 0 0 0)
(-1.50597e-16 -3.38089e-16 0 1.3212e-17 -9.48732e-17 0 0 0 0)
(-1.75583e-16 0 0 -3.127e-17 0 0 0 0 0)
(1.87763e-16 0 0 -1.37383e-26 0 0 0 0 0)
(1.5196e-16 0 0 1.49973e-17 0 0 0 0 0)
(3.21199e-12 1.14342e-15 0 -5.88739e-17 0 0 0 0 0)
(3.04937e-08 5.94015e-14 0 3.28151e-15 1.04975e-14 0 0 0 0)
(2.46189e-05 5.48482e-14 0 9.94422e-14 -1.1205e-14 0 0 0 0)
(0.00239909 -2.2381e-13 0 1.74753e-15 -2.27705e-13 0 0 0 0)
(0.0429689 8.22646e-14 0 -3.71866e-13 1.109e-13 0 0 0 0)
(0.230048 2.40953e-13 0 4.3939e-13 -1.44658e-13 0 0 0 0)
(0.569768 -1.58394e-13 0 -4.6418e-14 -7.81997e-14 0 0 0 0)
(0.775504 -3.23102e-14 0 -5.95102e-14 -1.81779e-13 0 0 0 0)
(2.58409 4.26487e-14 0 -9.10507e-14 -6.35777e-15 0 0 0 0)
(2.1889 -2.17231e-14 0 -8.33143e-15 -1.2711e-13 0 0 0 0)
(2.1889 -2.0573e-05 0 5.60735e-05 -0.000482881 0 0 0 0)
(2.58409 -2.57016e-05 0 -5.49057e-05 -0.000705723 0 0 0 0)
(0.775503 -6.67791e-06 0 -0.000118652 -0.000361036 0 0 0 0)
(0.569767 -2.61084e-06 0 -6.79804e-05 -0.000159733 0 0 0 0)
(0.230047 -1.25188e-06 0 -1.82987e-05 -2.61981e-05 0 0 0 0)
(0.0429688 -1.99397e-07 0 -1.25857e-06 -1.27608e-06 0 0 0 0)
(0.00239908 -9.15634e-09 0 -1.44337e-08 -1.11976e-08 0 0 0 0)
(2.46189e-05 -7.48714e-11 0 -1.87679e-11 -1.15889e-11 0 0 0 0)
(3.04936e-08 -1.62471e-13 0 -4.782e-14 7.81376e-15 0 0 0 0)
(3.22208e-12 -1.92153e-14 0 1.76359e-16 0 0 0 0 0)
(3.9454e-16 2.14726e-30 0 -4.73709e-18 -1.74241e-16 0 0 0 0)
(4.8682e-16 -1.99561e-16 0 -1.72382e-17 -7.91048e-17 0 0 0 0)
(4.09973e-17 1.03234e-31 0 -1.11154e-16 5.13787e-16 0 0 0 0)
(-9.47532e-16 -3.4442e-17 0 2.30641e-16 -1.47172e-16 0 0 0 0)
(-2.24146e-16 -4.14317e-16 0 1.93899e-16 3.23515e-16 0 0 0 0)
(4.87075e-16 -5.49552e-17 0 -3.37069e-18 4.99595e-16 0 0 0 0)
(2.16748e-16 4.14317e-16 0 -1.83617e-16 5.6556e-16 0 0 0 0)
(-1.22698e-16 1.21053e-16 0 1.37936e-16 1.73978e-16 0 0 0 0)
(1.5144e-17 0 0 -1.54422e-16 0 0 0 0 0)
(4.50577e-16 0 0 1.64201e-16 -1.74241e-16 0 0 0 0)
(-1.12652e-16 0 0 -3.36351e-16 0 0 0 0 0)