/*--------------------------------*- C++ -*----------------------------------*\
| =========                 |                                                 |
| \\      /  F ield         | OpenFOAM: The Open Source CFD Toolbox           |
|  \\    /   O peration     | Version:  v1912                                 |
|   \\  /    A nd           | Website:  www.openfoam.com                      |
|    \\/     M anipulation  |                                                 |
\*---------------------------------------------------------------------------*/
FoamFile
{
    version     2.0;
    format      ascii;
    class       volVectorField;
    location    "9.02";
    object      grad(rho);
}
// * * * * * * * * * * * * * * * * * * * * * * * * * * * * * * * * * * * * * //

dimensions      [1 -4 0 0 0 0 0];


internalField   nonuniform List<vector> 
1900
(
(-49460.2 -0.029668 0)
(23579 -0.124432 0)
(6229.32 -0.264774 0)
(5498.08 0.452683 0)
(2875.66 0.198813 0)
(43.4619 1.17394 0)
(-1199.31 -0.0902102 0)
(-1281.64 -7.53035 0)
(-1192.13 59.5133 0)
(-16.9593 11.9503 0)
(-49460.3 -0.0671308 0)
(23578.7 -0.222528 0)
(6229.9 -0.452069 0)
(5498.55 1.24512 0)
(2876.38 1.62914 0)
(43.1728 5.54507 0)
(-1208.01 0.624255 0)
(-1222.03 -37.898 0)
(-1172.65 -4.89097 0)
(-1147.08 -73.3368 0)
(-49460.5 2.14051e-09 0)
(23578.6 1.97176e-09 0)
(6230.79 2.39808e-09 0)
(5500.17 5.09814e-09 0)
(2879.96 5.52447e-09 0)
(42.457 1.95399e-09 0)
(-1242.75 -2.00728e-09 0)
(-1287.15 3.19744e-10 0)
(-1227.57 8.34888e-10 0)
(-1260.13 3.90799e-10 0)
(-49460.3 0.0671308 0)
(23578.7 0.222528 0)
(6229.9 0.452069 0)
(5498.55 -1.24512 0)
(2876.38 -1.62914 0)
(43.1728 -5.54507 0)
(-1208.01 -0.624255 0)
(-1222.03 37.898 0)
(-1172.65 4.89097 0)
(-1147.08 73.3368 0)
(-49460.2 0.029668 0)
(23579 0.124432 0)
(6229.32 0.264774 0)
(5498.08 -0.452683 0)
(2875.66 -0.198813 0)
(43.4619 -1.17394 0)
(-1199.31 0.0902102 0)
(-1281.64 7.53035 0)
(-1192.13 -59.5133 0)
(-16.9593 -11.9503 0)
(-611.074 -918.129 1.2399e-11)
(-2749.97 -751.331 -1.46015e-11)
(-3988.75 -812.783 -1.82641e-11)
(-4383.34 -912.962 0)
(-25720.6 -7404.32 -7.50712e-11)
(-1300.89 -1090.11 1.22331e-11)
(-2113.26 -897.859 1.46015e-11)
(-3704.15 -833.184 1.82641e-11)
(-6747.71 -428.036 0)
(-24016.1 -6075.23 0)
(-1668.89 -8.04509e-11 0)
(-2156.98 1.63612e-09 0)
(-3503.66 4.19418e-10 0)
(-6523.01 1.68216e-09 0)
(-26284.3 -1.26883e-09 0)
(-1300.89 1090.11 1.22331e-11)
(-2113.26 897.859 1.46015e-11)
(-3704.15 833.184 1.82641e-11)
(-6747.71 428.036 0)
(-24016.1 6075.23 0)
(-611.074 918.129 -3.68651e-11)
(-2749.97 751.331 -1.46015e-11)
(-3988.75 812.783 -1.82641e-11)
(-4383.34 912.962 -4.84741e-11)
(-25720.6 7404.32 7.50712e-11)
(-42927.4 14417.4 1.73125e-11)
(-15494.6 6223.49 -9.92062e-12)
(-7834.32 3075.74 0)
(-5783.79 2113.51 4.90878e-12)
(-1716.35 1398.86 -1.73127e-12)
(-38462 18674.7 -8.87337e-12)
(-17963.2 5403.54 5.05403e-12)
(-8836.29 1875.11 0)
(-6237.04 1242.1 -3.11712e-12)
(-3478.16 408.65 4.46426e-13)
(-40015.8 -9.42007e-10 0)
(-19780.3 -4.93432e-10 0)
(-9149.96 1.18424e-09 0)
(-6421.44 -2.75742e-10 1.26181e-12)
(-3495 1.02582e-09 -8.92852e-13)
(-38462 -18674.7 -8.87337e-12)
(-17963.2 -5403.54 5.05403e-12)
(-8836.29 -1875.11 0)
(-6237.04 -1242.1 -3.11712e-12)
(-3478.16 -408.65 4.46426e-13)
(-42927.4 -14417.4 8.87337e-12)
(-15494.6 -6223.49 -1.87431e-13)
(-7834.32 -3075.74 0)
(-5783.79 -2113.51 6.36519e-14)
(-1716.35 -1398.86 1.73127e-12)
(2038.63 -8886.35 0)
(1272.24 -7487.79 0)
(418.492 -4961.67 0)
(12.6066 -4762.15 0)
(-246.04 -4840.7 0)
(-530.608 -4831.39 0)
(-772.66 -4711.85 0)
(-890.179 -4525.37 0)
(-904.664 -4280.98 0)
(-762.127 -3844.04 0)
(-779.016 -3342.55 0)
(-1018.51 -2886.07 0)
(-757.482 -2258.75 0)
(175.502 -1911.87 0)
(2409.96 -1793.17 0)
(3886.18 -2209.51 0)
(1998.7 -2240.11 0)
(63.1672 -2058.58 0)
(-388.313 -1764.17 0)
(-644.411 -1224.87 0)
(-616.103 -690.008 0)
(-436.734 -132.763 0)
(-286.026 252.346 0)
(-263.305 -52.2258 0)
(-354.25 -349.127 0)
(-693.063 -404.48 0)
(1832.04 -454.789 0)
(3279.86 -469.156 0)
(-2400.42 -96.1372 0)
(-5151.51 172.931 0)
(-1684.3 55.2434 0)
(361.659 16.1258 0)
(462.665 12.4816 0)
(453.031 12.3881 0)
(591.055 11.7148 0)
(753.979 13.6303 0)
(850.254 13.9886 0)
(903.954 16.3404 0)
(924.933 15.9686 0)
(925.034 15.2381 0)
(365.146 -3312.13 0)
(1514.65 -5077.69 0)
(753.145 -3293.86 0)
(-144.855 -3139.19 0)
(-347.469 -3196.93 0)
(-524.021 -3216.38 0)
(-650.226 -2962.31 0)
(-735.357 -2636.75 0)
(-743.023 -2362.28 0)
(-605.299 -2030.16 0)
(-643.896 -1764.37 0)
(-859.537 -1495.72 0)
(-628.572 -1115.84 0)
(225.378 -976.513 0)
(2366.18 -916.24 0)
(3826.36 -1135.84 0)
(2026.85 -1167.14 0)
(123.871 -1032.74 0)
(-290.428 -924.499 0)
(-511.31 -671.532 0)
(-473.938 -404.72 0)
(-286.182 -68.4889 0)
(-257.714 85.6216 0)
(-307.202 -116.611 0)
(-336.94 22.1585 0)
(-692.897 145.003 0)
(1795.44 174.692 0)
(3259.95 82.184 0)
(-2378.74 32.3917 0)
(-5143.32 75.2701 0)
(-1698.45 21.2331 0)
(357.461 3.80246 0)
(462.624 2.35104 0)
(453.577 3.90038 0)
(591.917 4.89503 0)
(755.138 5.49288 0)
(851.658 4.84263 0)
(904.991 6.22984 0)
(924.932 6.82322 0)
(920.358 7.40913 0)
(214.696 5.65204e-11 0)
(1277.55 3.79494e-10 0)
(982.419 1.84095e-09 0)
(40.8057 3.30241e-09 0)
(-268.495 3.93221e-09 0)
(-462.355 2.01859e-09 0)
(-604.04 1.84095e-09 0)
(-715.627 3.0521e-09 0)
(-728.201 1.16271e-09 0)
(-588.188 0 0)
(-623.543 1.49375e-09 0)
(-829.846 2.32541e-09 0)
(-606.441 4.44897e-09 0)
(233.566 1.35649e-09 0)
(2363.61 1.11426e-09 0)
(3813.19 1.53413e-09 0)
(2028.7 2.89062e-09 0)
(133.755 2.18007e-09 0)
(-283.235 -3.7142e-09 0)
(-493.203 -1.195e-09 0)
(-440.672 2.50224e-08 0)
(-294.089 -9.07638e-08 0)
(-300.025 -1.5309e-07 0)
(-281.767 2.84702e-08 0)
(-278.144 -2.55149e-09 0)
(-648.689 -1.85064e-08 0)
(1813.76 -1.06258e-08 0)
(3238.47 -6.65326e-09 0)
(-2402.43 1.13848e-08 0)
(-5154.76 -4.47319e-09 0)
(-1705.09 -9.47929e-09 0)
(356.166 -1.34842e-09 0)
(462.693 5.32907e-10 0)
(453.771 9.12401e-10 0)
(591.518 -1.48568e-09 0)
(753.964 -3.63346e-09 0)
(850.469 -2.52727e-09 0)
(904.53 -9.36625e-10 0)
(925.276 1.45338e-09 0)
(926.125 3.04403e-09 0)
(365.146 3312.13 0)
(1514.65 5077.69 0)
(753.145 3293.86 0)
(-144.855 3139.19 0)
(-347.469 3196.93 0)
(-524.021 3216.38 0)
(-650.226 2962.31 0)
(-735.357 2636.75 0)
(-743.023 2362.28 0)
(-605.299 2030.16 0)
(-643.896 1764.37 0)
(-859.537 1495.72 0)
(-628.572 1115.84 0)
(225.378 976.513 0)
(2366.18 916.24 0)
(3826.36 1135.84 0)
(2026.85 1167.14 0)
(123.871 1032.74 0)
(-290.428 924.499 0)
(-511.31 671.532 0)
(-473.938 404.72 0)
(-286.182 68.4889 0)
(-257.714 -85.6216 0)
(-307.202 116.611 0)
(-336.94 -22.1585 0)
(-692.897 -145.003 0)
(1795.44 -174.692 0)
(3259.95 -82.184 0)
(-2378.74 -32.3917 0)
(-5143.32 -75.2701 0)
(-1698.45 -21.2331 0)
(357.461 -3.80246 0)
(462.624 -2.35104 0)
(453.577 -3.90038 0)
(591.917 -4.89503 0)
(755.138 -5.49288 0)
(851.658 -4.84263 0)
(904.991 -6.22984 0)
(924.932 -6.82322 0)
(920.358 -7.40913 0)
(2038.63 8886.35 0)
(1272.24 7487.79 0)
(418.492 4961.67 0)
(12.6066 4762.15 0)
(-246.04 4840.7 0)
(-530.608 4831.39 0)
(-772.66 4711.85 0)
(-890.179 4525.37 0)
(-904.664 4280.98 0)
(-762.127 3844.04 0)
(-779.016 3342.55 0)
(-1018.51 2886.07 0)
(-757.482 2258.75 0)
(175.502 1911.87 0)
(2409.96 1793.17 0)
(3886.18 2209.51 0)
(1998.7 2240.11 0)
(63.1672 2058.58 0)
(-388.313 1764.17 0)
(-644.411 1224.87 0)
(-616.103 690.008 0)
(-436.734 132.763 0)
(-286.026 -252.346 0)
(-263.305 52.2258 0)
(-354.25 349.127 0)
(-693.063 404.48 0)
(1832.04 454.789 0)
(3279.86 469.156 0)
(-2400.42 96.1372 0)
(-5151.51 -172.931 0)
(-1684.3 -55.2434 0)
(361.659 -16.1258 0)
(462.665 -12.4816 0)
(453.031 -12.3881 0)
(591.055 -11.7148 0)
(753.979 -13.6303 0)
(850.254 -13.9886 0)
(903.954 -16.3404 0)
(924.933 -15.9686 0)
(925.034 -15.2381 0)
(-486.08 9343.42 0)
(-666.913 6731.09 0)
(-569.629 5008.01 0)
(-402.797 3898.32 0)
(-421.311 3334.05 0)
(-597.233 2970.22 0)
(-700.622 2977.23 0)
(-826.613 3112.52 0)
(-983.506 3194.78 0)
(-1012.62 3157.36 0)
(-1088.57 2936.75 0)
(-1355.56 2706.49 0)
(-1090.61 2372.53 0)
(-8.99656 2077.27 0)
(2502.27 2001.03 0)
(4037.54 2289.34 0)
(1964.73 2280.15 0)
(-104.482 2170.63 0)
(-700.208 1832.05 0)
(-1031.2 1229.76 0)
(-994.612 632.658 0)
(-703.219 168.153 0)
(-275.498 -66.5593 0)
(19.3299 -171.552 0)
(-95.9664 -78.2121 0)
(-626.427 -17.4557 0)
(1793.69 92.7879 0)
(3011.96 148.133 0)
(-2756.44 -282.283 0)
(-5228.8 -386.345 0)
(-1616.46 -83.7014 0)
(379.429 -28.155 0)
(464.922 -24.0107 0)
(454.69 -22.9155 0)
(592.135 -19.5134 0)
(755.052 -17.5512 0)
(851.582 -13.2647 0)
(904.948 -10.669 0)
(925.622 -8.40192 0)
(925.566 -9.70202 0)
(-1909.22 4310.39 0)
(-1865.68 3754.4 0)
(-1781.4 3476.65 0)
(-1377.73 3070.74 0)
(-1046.41 2535.27 0)
(-838.732 2100.55 0)
(-674.166 1810.29 0)
(-714.63 1609.76 0)
(-819.173 1541.81 0)
(-876.451 1623.83 0)
(-1047.5 1657.34 0)
(-1381.47 1729.29 0)
(-1185.19 1854.39 0)
(-83.5546 1653.43 0)
(2564.83 1621.4 0)
(4073.99 1896.63 0)
(1902.53 1816.19 0)
(-278.743 1782.73 0)
(-1127.72 1528.28 0)
(-1592.78 1010.91 0)
(-1436.14 453.67 0)
(-967.628 206.393 0)
(-619.024 31.2855 0)
(-426.092 -249.333 0)
(-344.256 -488.768 0)
(-564.013 -614.957 0)
(2012.17 -490.052 0)
(3062.09 -391.531 0)
(-2724.56 -866.283 0)
(-4918.71 -643.218 0)
(-1375.52 -98.5622 0)
(409.65 -33.0478 0)
(466.503 -32.6429 0)
(456.476 -33.4308 0)
(595.644 -32.0116 0)
(759.425 -26.7743 0)
(856.175 -17.977 0)
(908.107 -10.5668 0)
(925.496 -8.00226 0)
(935.547 -10.8081 0)
(-1683.51 1125.03 0)
(-1470.33 1194.73 0)
(-1228.43 1247.49 0)
(-1309.95 1314.98 0)
(-1356.22 1203.6 0)
(-1295.85 1042.23 0)
(-1173.57 778.422 0)
(-1085.33 452.819 0)
(-969.951 275.589 0)
(-901.294 222.427 0)
(-986.942 105.494 0)
(-1165.67 196.119 0)
(-1163.71 715.597 0)
(-233.52 1037.96 0)
(2736.62 1226.7 0)
(4225.24 1236.5 0)
(1854.98 606.307 0)
(-381.92 509.034 0)
(-1443.97 346.792 0)
(-2066.74 78.9101 0)
(-1769.87 -77.6483 0)
(-1110.24 -71.8759 0)
(-714.652 -106.488 0)
(-481.813 -115.066 0)
(-448.295 -145.101 0)
(-627.664 -279.233 0)
(2008.99 -194.844 0)
(2649.41 -205.064 0)
(-2998.97 -1029.47 0)
(-4488.99 -718.584 0)
(-1028.48 -12.8562 0)
(442.952 49.8621 0)
(464.553 26.4363 0)
(455.298 -4.60248 0)
(598.55 -26.9053 0)
(768.577 -32.1228 0)
(867.2 -24.4634 0)
(914.56 -12.8139 0)
(925.389 -9.08187 0)
(942.002 -10.4253 0)
(-1550.34 -5.57811 0)
(-1747.67 176.447 0)
(-1665.52 83.1793 0)
(-1420.02 26.5157 0)
(-1309.24 -22.3774 0)
(-1248.45 4.09569 0)
(-1242.14 -32.7769 0)
(-1199.18 -222.422 0)
(-1041.19 -321.829 0)
(-1040.36 -454.46 0)
(-1072.85 -724.249 0)
(-793.551 -495.628 0)
(-373.963 70.9519 0)
(408.968 685.822 0)
(2756.15 1291.79 0)
(3476.15 821.776 0)
(1201.52 -403.218 0)
(-528.821 -553.767 0)
(-1542.21 -688.678 0)
(-2001.78 -806.251 0)
(-1581.44 -616.146 0)
(-995.419 -421.148 0)
(-660.643 -365.698 0)
(-463.301 -304.954 0)
(-502.454 -305.974 0)
(-611.947 -382.045 0)
(2083.64 -167.365 0)
(2257.82 -6.75918 0)
(-3219.4 -810.071 0)
(-3939.07 -410.772 0)
(-635.013 299.682 0)
(447.514 305.396 0)
(414.019 222.623 0)
(405.074 153.866 0)
(569.125 90.352 0)
(761.778 20.2248 0)
(874.781 -19.8361 0)
(922.929 -19.6573 0)
(927.798 -14.7862 0)
(946.211 -13.1506 0)
(-1426.79 -413.931 0)
(-1384.8 -217.77 0)
(-1372.91 79.3681 0)
(-1411.67 155.172 0)
(-1377.83 130.034 0)
(-1305.87 126.419 0)
(-1391.85 84.8039 0)
(-1363.87 71.8764 0)
(-1193.55 69.423 0)
(-1289.08 -198.904 0)
(-1026.61 -294.188 0)
(-399.388 216.775 0)
(-25.223 544.257 0)
(942.924 883.799 0)
(2867.63 1528.27 0)
(2591.87 434.042 0)
(529.455 -557.124 0)
(-657 -672.765 0)
(-1687.27 -913.157 0)
(-1996.84 -1014.73 0)
(-1398.77 -721.448 0)
(-868.902 -520.82 0)
(-602.683 -426.159 0)
(-424.261 -313.621 0)
(-522.583 -212.762 0)
(-494.095 -185.994 0)
(2370.63 501.567 0)
(2030.07 1339.47 0)
(-3388.29 319.327 0)
(-3419.6 901.625 0)
(-338.351 1443.01 0)
(368.695 1241.15 0)
(318.533 920.819 0)
(327.836 627.668 0)
(469.769 380.219 0)
(662.396 209.088 0)
(828.768 97.7546 0)
(919.426 8.68053 0)
(931.659 -13.9582 0)
(954.798 -15.3885 0)
(-1316.47 -576.425 0)
(-1272.3 -467.435 0)
(-1306.14 -354.171 0)
(-1371.2 -290.633 0)
(-1336.95 -202.567 0)
(-1292.03 -172.096 0)
(-1294.7 -187.424 0)
(-1214 -41.3689 0)
(-1302.12 42.2893 0)
(-1390.75 -80.518 0)
(-672.285 167.723 0)
(14.4055 395.598 0)
(268.806 488.012 0)
(1357.2 760.504 0)
(2322.75 871.242 0)
(1466.59 -414.429 0)
(134.957 -925.686 0)
(-871.907 -1156.39 0)
(-1871.74 -1598.98 0)
(-1817.05 -1295.12 0)
(-1105.49 -797.948 0)
(-710.867 -570.439 0)
(-460.979 -188.647 0)
(-257.664 90.8345 0)
(-379.468 341.437 0)
(76.4065 860.077 0)
(3553.63 2978.69 0)
(2082.2 3385.42 0)
(-3641.32 1355.34 0)
(-2856.24 2237.28 0)
(-307.838 2661.86 0)
(-55.6909 2397.34 0)
(-177.151 2022.97 0)
(-115.869 1582.23 0)
(165.766 1122.63 0)
(489.586 706.717 0)
(681.662 367.654 0)
(815.279 156.271 0)
(904.604 20.8699 0)
(959.432 -16.6185 0)
(-1231.69 -655.229 0)
(-1170.63 -573.107 0)
(-1202.54 -493.032 0)
(-1265.58 -391.246 0)
(-1263.6 -273.368 0)
(-1291.28 -221.615 0)
(-1265.88 -196.288 0)
(-1142.51 -131.156 0)
(-1231.28 -112.674 0)
(-1168.21 -39.7041 0)
(-567.81 273.235 0)
(-90.746 201.044 0)
(326.414 302.724 0)
(1312.22 573.576 0)
(1735.42 -16.6734 0)
(860.287 -1080.66 0)
(-185.529 -1448.36 0)
(-1305.81 -1971.33 0)
(-1820.95 -2104.28 0)
(-1224.94 -1248.64 0)
(-700.441 -496.743 0)
(-281.757 8.23243 0)
(34.5437 735.554 0)
(86.5476 1836.56 0)
(218.687 2532.55 0)
(2047.26 3220.59 0)
(4804.14 5030.54 0)
(465.751 2273.52 0)
(-4494.68 488.61 0)
(-2160.59 1891.4 0)
(-184.106 2224.91 0)
(-246.959 2205.79 0)
(-466.937 2180.56 0)
(-539.766 2072.47 0)
(-373.908 1821.27 0)
(-65.1234 1409.85 0)
(298.338 922.489 0)
(585.252 487.332 0)
(765.057 162.374 0)
(929.645 -22.4887 0)
(-1159.91 -753.356 0)
(-1116.01 -676.636 0)
(-1130.89 -632.37 0)
(-1159.52 -544.85 0)
(-1173.49 -453.43 0)
(-1217.76 -414.045 0)
(-1207.53 -343.946 0)
(-1133.43 -258.124 0)
(-1213.99 -257.064 0)
(-1018.87 -94.3733 0)
(-440.291 218.313 0)
(42.8216 299.142 0)
(627.791 353.251 0)
(1049.41 177.795 0)
(728.667 -641.674 0)
(86.9698 -1434.87 0)
(-723.325 -2046.2 0)
(-1503.98 -2484.32 0)
(-1175.33 -1232.68 0)
(-267.966 -222.317 0)
(105.678 837.27 0)
(476.619 2445.57 0)
(1300.87 3519.68 0)
(1473.99 3932.87 0)
(954.226 3848.85 0)
(2483.56 3695.22 0)
(2641 3044.72 0)
(-2294.56 -1084.31 0)
(-4009.54 -847.737 0)
(-1183.08 904.048 0)
(-4.88023 1066.29 0)
(-98.4302 1166.3 0)
(-305.628 1341.31 0)
(-462.096 1520.51 0)
(-472.753 1611.69 0)
(-376.51 1568.49 0)
(-207.313 1370.55 0)
(82.8046 949.438 0)
(413.322 451.403 0)
(765.721 -30.6065 0)
(-1062.21 -973.326 0)
(-1054.04 -864.001 0)
(-1075.54 -804.677 0)
(-1093.15 -760.654 0)
(-1137.55 -761.363 0)
(-1185.77 -782.275 0)
(-1115.62 -724.854 0)
(-1058.79 -648.081 0)
(-1073.48 -582.022 0)
(-710.117 -278.308 0)
(-188.605 -35.5976 0)
(39.285 62.9396 0)
(209.479 1.59441 0)
(353.472 -481.144 0)
(181.394 -1124.48 0)
(-493.169 -1652.86 0)
(-1196.82 -1635.25 0)
(-521.875 -569.996 0)
(358.798 1208.78 0)
(769.744 2781.88 0)
(1870.43 3958.43 0)
(2303.11 4633.11 0)
(1467.76 4510.06 0)
(403.749 3273.46 0)
(-10.3211 1960.66 0)
(1272.36 1237.14 0)
(198.411 -732.081 0)
(-3285.16 -2705.56 0)
(-2578.63 -842.461 0)
(-316.158 398.914 0)
(68.6113 467.872 0)
(18.0586 482.636 0)
(-125.614 599.867 0)
(-279.221 755.781 0)
(-327.673 894.771 0)
(-297.489 1020.72 0)
(-298.198 1109.66 0)
(-300.475 1073.06 0)
(-179.35 675.595 0)
(344.509 -11.7704 0)
(-906.313 -1287.68 0)
(-953.49 -1252.12 0)
(-1031.3 -1273.58 0)
(-1117.78 -1298.31 0)
(-1194.32 -1299.2 0)
(-1182.58 -1207.44 0)
(-1078.22 -1014.08 0)
(-995.788 -789.297 0)
(-857.667 -425.747 0)
(-492.318 -69.1288 0)
(-111.452 -40.6724 0)
(78.6612 -0.795914 0)
(103.492 70.4819 0)
(-35.7132 8.16055 0)
(-400.438 -0.203909 0)
(-405.226 354.322 0)
(320.159 1443.01 0)
(1236.63 3213 0)
(2054.66 4125.93 0)
(2381.7 4871.43 0)
(1889.59 4706.16 0)
(1008.18 3291.62 0)
(-9.33809 1821.99 0)
(-982.705 816.444 0)
(-1008.05 -86.9383 0)
(-111.266 -1049.14 0)
(-1158.33 -3094.65 0)
(-2400.93 -2591 0)
(-1017.96 -336.173 0)
(79.6047 197.862 0)
(75.7976 253.326 0)
(28.765 248.562 0)
(-42.4155 289.965 0)
(-177.916 349.564 0)
(-217.45 389.549 0)
(-169.437 428.868 0)
(-156.878 476.421 0)
(-335.475 582.726 0)
(-632.057 512.708 0)
(-243.429 -15.2613 0)
(-958.662 -1643.84 0)
(-1040.46 -1707.01 0)
(-1120.05 -1705.44 0)
(-1117.83 -1527.05 0)
(-1049.99 -1090.1 0)
(-911.013 -502.679 0)
(-712.689 48.0864 0)
(-491.853 619.342 0)
(-379.5 1325.8 0)
(-339.046 1979.57 0)
(-122.757 2193.83 0)
(146.397 2165.07 0)
(218.11 2210.34 0)
(285.357 2275.71 0)
(514.967 2621.83 0)
(897.568 3319.46 0)
(1557.9 4201.43 0)
(2063.48 4453.52 0)
(1956.93 4091.95 0)
(1328.88 3028.71 0)
(348.061 1824.11 0)
(-476.182 831.645 0)
(-917.407 -83.3139 0)
(-1435.76 -694.86 0)
(-1808.07 -1282.75 0)
(-1625.98 -2561.15 0)
(-1287.37 -3492.33 0)
(-626.988 -1597.12 0)
(108.816 -33.2831 0)
(251.905 158.928 0)
(117.467 185.6 0)
(53.3646 213.894 0)
(-28.2848 224.92 0)
(-183.258 250.591 0)
(-251.252 246.41 0)
(-213.776 207.298 0)
(-149.935 118.034 0)
(-265.509 68.8842 0)
(-755.593 97.3801 0)
(-697.011 -125.425 0)
(-1026.16 -1994.97 0)
(-1012.85 -1738.33 0)
(-857.879 -1104.47 0)
(-524.82 -284.377 0)
(-207.205 458.925 0)
(-85.7743 1211.49 0)
(3.00124 1931.44 0)
(235.466 2553.67 0)
(453.096 3022.7 0)
(344.142 3384.45 0)
(67.3028 3618.23 0)
(94.5694 3703.97 0)
(210.108 3782.57 0)
(360.815 3641.84 0)
(605.356 3449.11 0)
(1116.94 3410.83 0)
(1412.98 3196.4 0)
(1131.13 2551.43 0)
(681.672 1686.68 0)
(196.32 768.789 0)
(-227.59 54.8952 0)
(-829.88 -360.012 0)
(-1480.33 -796.608 0)
(-2138.52 -1545.5 0)
(-2806.48 -2585.08 0)
(-2240.5 -3203.57 0)
(-229.356 -2422.13 0)
(932.337 -794.207 0)
(674.237 -5.87242 0)
(290.528 79.6043 0)
(128.765 100.547 0)
(66.6557 116.651 0)
(-7.0526 123.796 0)
(-157.207 170.605 0)
(-259.168 208.878 0)
(-293.145 187.913 0)
(-290.258 61.1993 0)
(-355.378 -124.294 0)
(-819.3 -234.024 0)
(-865.425 -258.858 0)
(-415.195 -2314.13 0)
(-182.337 -1282.51 0)
(281.035 -173.481 0)
(388.709 645.206 0)
(391.485 941.243 0)
(507.959 1008.1 0)
(580.686 1122.23 0)
(559.719 1229.97 0)
(421.064 1207.82 0)
(234.828 1120.17 0)
(185.143 1374.48 0)
(304.769 1972.3 0)
(158.241 2306.96 0)
(-35.9786 2394.49 0)
(292.353 2210.96 0)
(654.042 2007.86 0)
(729.754 1437.45 0)
(608.66 943.691 0)
(239.117 457.538 0)
(-243.568 -7.41104 0)
(-739.692 -562.341 0)
(-1296.72 -1094.85 0)
(-2059.79 -1734.86 0)
(-3159.2 -2722.06 0)
(-3405.84 -3292.03 0)
(-1468.96 -2334.11 0)
(1034.37 -1193.86 0)
(1701.41 -556.943 0)
(950.851 -226.214 0)
(354.454 -121.364 0)
(153.166 -68.1505 0)
(75.7681 -45.8378 0)
(23.7079 -12.9689 0)
(-101.27 43.3399 0)
(-234.574 111.781 0)
(-356.084 106.179 0)
(-450.789 28.3598 0)
(-549.997 -144.018 0)
(-885.264 -323.339 0)
(-799.109 -266.215 0)
(847.338 -2175.13 0)
(1049.96 -1128.26 0)
(999.742 -542.315 0)
(549.369 -447.9 0)
(142.491 -453.258 0)
(88.631 -560.46 0)
(216.806 -706.492 0)
(317.944 -807.277 0)
(347.283 -760.636 0)
(504.736 -376.092 0)
(888.45 174.163 0)
(993.149 676.105 0)
(616.951 864.851 0)
(268.307 1189.68 0)
(232.777 1410.52 0)
(371.557 1234.42 0)
(387.511 855.687 0)
(186.851 333.542 0)
(-234.844 -222.493 0)
(-786.472 -732.18 0)
(-1275.48 -1309.28 0)
(-1959.77 -2060.04 0)
(-3048.38 -3007.22 0)
(-3639.06 -3431.27 0)
(-2432.63 -2303.02 0)
(-218.629 -822.583 0)
(1483.19 -508.089 0)
(1864.8 -568.965 0)
(1093.98 -434.926 0)
(442.844 -278.166 0)
(201.545 -228.978 0)
(119.831 -199.822 0)
(78.8822 -151.579 0)
(-36.9937 -96.5195 0)
(-198.614 -13.3556 0)
(-373.532 14.897 0)
(-531.357 -1.99652 0)
(-694.287 -106.852 0)
(-937.054 -253.42 0)
(-797.906 -185.709 0)
(1762.64 -1294.53 0)
(1391.1 -1192.49 0)
(936.654 -1292.99 0)
(474.527 -1488.9 0)
(283.018 -1423.35 0)
(263.934 -1262.79 0)
(342.844 -1022.54 0)
(507.544 -729.98 0)
(836.57 -352.244 0)
(1135.63 107.361 0)
(1199.08 446.14 0)
(970.341 499.34 0)
(653.145 541.484 0)
(489.852 699.556 0)
(335.458 795.039 0)
(119.38 632.878 0)
(-138.361 182.224 0)
(-430.313 -389.316 0)
(-787.852 -1012.58 0)
(-1290.84 -1614.73 0)
(-2019.27 -2327.94 0)
(-2932.92 -3193.57 0)
(-3381.15 -3428.21 0)
(-2480.61 -2258.91 0)
(-892.016 -592.678 0)
(260.709 98.3983 0)
(1278.77 -120.226 0)
(1771.91 -520.315 0)
(1231.08 -503.948 0)
(552.913 -322.746 0)
(228.661 -275.049 0)
(150.352 -257.237 0)
(123.254 -244.854 0)
(31.9274 -223.217 0)
(-127.209 -158.502 0)
(-345.138 -97.5052 0)
(-568.111 -69.6096 0)
(-792.277 -112.142 0)
(-961.253 -195.073 0)
(-750.91 -115.735 0)
(1418.44 -655.734 0)
(1051.45 -1120.08 0)
(714.106 -1438.67 0)
(423.746 -1530.95 0)
(360.384 -1425.7 0)
(474.871 -1246.05 0)
(730.239 -982.636 0)
(963.862 -692.322 0)
(1154.18 -435.334 0)
(1274.09 -351.39 0)
(1266.17 -272.92 0)
(1085.03 -167.839 0)
(809.887 70.9855 0)
(512.642 139.264 0)
(168.524 -18.1552 0)
(-218.974 -321.602 0)
(-597.513 -738.237 0)
(-964.505 -1242.64 0)
(-1415.69 -1863.98 0)
(-2054.01 -2610.99 0)
(-2796.91 -3270.47 0)
(-3020.02 -3207.45 0)
(-2147.71 -1980 0)
(-906.641 -426.942 0)
(-161.04 375.43 0)
(236.644 491.02 0)
(886.973 260.928 0)
(1495.03 -307.081 0)
(1284.36 -461.35 0)
(663.419 -294.854 0)
(264.671 -242.953 0)
(148.928 -281.037 0)
(111.665 -351.813 0)
(46.218 -381.164 0)
(-77.4737 -359.842 0)
(-287.873 -296.931 0)
(-545.461 -193.76 0)
(-815.188 -111.994 0)
(-940.517 -69.0255 0)
(-628.494 -9.93072 0)
(416.522 -447.937 0)
(636.635 -883.021 0)
(540.727 -1120.54 0)
(487.033 -1171.07 0)
(557.557 -1130.89 0)
(690.882 -1003.32 0)
(876.44 -941.256 0)
(1034.94 -977.609 0)
(1165.11 -1080.51 0)
(1292.14 -1162.12 0)
(1375.96 -1130.87 0)
(1301.74 -1003.59 0)
(949.08 -846.107 0)
(403.953 -844.462 0)
(-108.649 -990.654 0)
(-574.517 -1277.84 0)
(-1025.91 -1683.17 0)
(-1515.12 -2191.25 0)
(-2106.44 -2785.19 0)
(-2646.18 -3198.2 0)
(-2594.03 -2846.75 0)
(-1689.38 -1591.09 0)
(-701.76 -224.061 0)
(-210.828 503.753 0)
(-7.43515 719.763 0)
(150.371 686.074 0)
(509.69 534.176 0)
(1075.9 9.07659 0)
(1242.86 -351.695 0)
(763.368 -269.002 0)
(241.976 -191.197 0)
(45.4511 -269.307 0)
(26.7682 -431.202 0)
(24.1902 -540.556 0)
(-46.0393 -584.684 0)
(-185.095 -561.206 0)
(-389.899 -402.283 0)
(-672.079 -233.934 0)
(-862.901 -38.1732 0)
(-667.471 32.4451 0)
(-259.383 -156.188 0)
(403.301 -389.094 0)
(436.53 -631.87 0)
(413.776 -738.049 0)
(522.038 -824.928 0)
(657.605 -929.156 0)
(755.012 -1097.49 0)
(829.671 -1312.21 0)
(976.372 -1548.49 0)
(1225.56 -1722.47 0)
(1418.94 -1823.24 0)
(1359.44 -1885.5 0)
(963.23 -1938.52 0)
(373.35 -2029.01 0)
(-249.092 -2141.71 0)
(-886.308 -2396.65 0)
(-1477.72 -2750.22 0)
(-2026.46 -3062.48 0)
(-2386.02 -3024.06 0)
(-2113.32 -2336.8 0)
(-1248.24 -1110.84 0)
(-492.708 7.42973 0)
(-129.045 570.725 0)
(2.86241 781.324 0)
(14.6513 835.309 0)
(57.8057 807.36 0)
(234.593 684.055 0)
(641.369 349.171 0)
(1016.4 -148.015 0)
(818.081 -363.497 0)
(264.377 -316.172 0)
(-82.3493 -319.817 0)
(-149.721 -496.928 0)
(-101.683 -676.393 0)
(-97.3726 -803.046 0)
(-112.105 -831.369 0)
(-230.09 -699.385 0)
(-464.318 -499.472 0)
(-683.824 -62.2043 0)
(-536.556 101.739 0)
(-520.3 -166.887 0)
(178.251 -338.024 0)
(204.461 -616.859 0)
(300.995 -667.245 0)
(373.4 -657.993 0)
(428.235 -794.121 0)
(507.316 -1005.61 0)
(600.338 -1167.34 0)
(769.763 -1262.49 0)
(1027.39 -1419.35 0)
(1218.85 -1810.79 0)
(1190.65 -2412.12 0)
(810.793 -3168.7 0)
(208.155 -3851.17 0)
(-462.921 -4300.57 0)
(-1160.9 -4308.79 0)
(-1667.53 -3907.86 0)
(-1779 -3152.97 0)
(-1407.16 -2039.6 0)
(-802.535 -757.217 0)
(-335.041 180.134 0)
(-68.9613 603.435 0)
(43.9932 765.293 0)
(44.1343 801.835 0)
(17.6532 813.642 0)
(4.61768 826.146 0)
(68.1624 778.309 0)
(274.084 593.912 0)
(556.106 112.826 0)
(601.325 -468.404 0)
(284.067 -731.265 0)
(-128.732 -798.893 0)
(-316.842 -865.617 0)
(-270.796 -924.37 0)
(-195.38 -976.127 0)
(-85.2027 -964.401 0)
(-70.0704 -885.457 0)
(-58.0687 -717.683 0)
(-283.553 -319.805 0)
(-591.732 188.051 0)
(-1132.84 1006.45 0)
(-30.3085 873.855 0)
(119.281 887.522 0)
(374.138 719.527 0)
(399.775 254.953 0)
(322.634 -170.639 0)
(395.369 -636.778 0)
(582.123 -1280.78 0)
(733.52 -2209.44 0)
(697.203 -3449.02 0)
(462.27 -4837.27 0)
(50.9031 -6106.94 0)
(-423.485 -6877.14 0)
(-717.364 -6873.26 0)
(-690.077 -6146.39 0)
(-507.873 -4877.12 0)
(-363.921 -3241.31 0)
(-226.134 -1593.12 0)
(-77.3867 -338.437 0)
(25.6963 386.326 0)
(62.9294 719.694 0)
(71.1715 828.409 0)
(62.1407 828.497 0)
(49.454 825.053 0)
(38.0785 842.642 0)
(23.7577 872.535 0)
(10.8041 897.03 0)
(0.0854432 824.489 0)
(-7.29063 555.433 0)
(4.68364 20.9906 0)
(-54.0941 -537.57 0)
(-211.816 -860.98 0)
(-270.635 -809.734 0)
(-208.173 -790.295 0)
(-135.948 -747.147 0)
(-24.7328 -647.172 0)
(7.65621 -671.276 0)
(80.7647 -509.178 0)
(188.975 -593.64 0)
(-364.169 -386.467 0)
(-1132.84 -1006.45 0)
(-30.3085 -873.855 0)
(119.281 -887.522 0)
(374.138 -719.527 0)
(399.775 -254.953 0)
(322.634 170.639 0)
(395.369 636.778 0)
(582.123 1280.78 0)
(733.52 2209.44 0)
(697.203 3449.02 0)
(462.27 4837.27 0)
(50.9031 6106.94 0)
(-423.485 6877.14 0)
(-717.364 6873.26 0)
(-690.077 6146.39 0)
(-507.873 4877.12 0)
(-363.921 3241.31 0)
(-226.134 1593.12 0)
(-77.3867 338.437 0)
(25.6963 -386.326 0)
(62.9294 -719.694 0)
(71.1715 -828.409 0)
(62.1407 -828.497 0)
(49.454 -825.053 0)
(38.0785 -842.642 0)
(23.7577 -872.535 0)
(10.8041 -897.03 0)
(0.0854432 -824.489 0)
(-7.29063 -555.433 0)
(4.68364 -20.9906 0)
(-54.0941 537.57 0)
(-211.816 860.98 0)
(-270.635 809.734 0)
(-208.173 790.295 0)
(-135.948 747.147 0)
(-24.7328 647.172 0)
(7.65621 671.276 0)
(80.7647 509.178 0)
(188.975 593.64 0)
(-364.169 386.467 0)
(-520.3 166.887 0)
(178.251 338.024 0)
(204.461 616.859 0)
(300.995 667.245 0)
(373.4 657.993 0)
(428.235 794.121 0)
(507.316 1005.61 0)
(600.338 1167.34 0)
(769.763 1262.49 0)
(1027.39 1419.35 0)
(1218.85 1810.79 0)
(1190.65 2412.12 0)
(810.793 3168.7 0)
(208.155 3851.17 0)
(-462.921 4300.57 0)
(-1160.9 4308.79 0)
(-1667.53 3907.86 0)
(-1779 3152.97 0)
(-1407.16 2039.6 0)
(-802.535 757.217 0)
(-335.041 -180.134 0)
(-68.9613 -603.435 0)
(43.9932 -765.293 0)
(44.1343 -801.835 0)
(17.6532 -813.642 0)
(4.61768 -826.146 0)
(68.1624 -778.309 0)
(274.084 -593.912 0)
(556.106 -112.826 0)
(601.325 468.404 0)
(284.067 731.265 0)
(-128.732 798.893 0)
(-316.842 865.617 0)
(-270.796 924.37 0)
(-195.38 976.127 0)
(-85.2027 964.401 0)
(-70.0704 885.457 0)
(-58.0687 717.683 0)
(-283.553 319.805 0)
(-591.732 -188.051 0)
(-259.383 156.188 0)
(403.301 389.094 0)
(436.53 631.87 0)
(413.776 738.049 0)
(522.038 824.928 0)
(657.605 929.156 0)
(755.012 1097.49 0)
(829.671 1312.21 0)
(976.372 1548.49 0)
(1225.56 1722.47 0)
(1418.94 1823.24 0)
(1359.44 1885.5 0)
(963.23 1938.52 0)
(373.35 2029.01 0)
(-249.092 2141.71 0)
(-886.308 2396.65 0)
(-1477.72 2750.22 0)
(-2026.46 3062.48 0)
(-2386.02 3024.06 0)
(-2113.32 2336.8 0)
(-1248.24 1110.84 0)
(-492.708 -7.42973 0)
(-129.045 -570.725 0)
(2.86241 -781.324 0)
(14.6513 -835.309 0)
(57.8057 -807.36 0)
(234.593 -684.055 0)
(641.369 -349.171 0)
(1016.4 148.015 0)
(818.081 363.497 0)
(264.377 316.172 0)
(-82.3493 319.817 0)
(-149.721 496.928 0)
(-101.683 676.393 0)
(-97.3726 803.046 0)
(-112.105 831.369 0)
(-230.09 699.385 0)
(-464.318 499.472 0)
(-683.824 62.2043 0)
(-536.556 -101.739 0)
(416.522 447.937 0)
(636.635 883.021 0)
(540.727 1120.54 0)
(487.033 1171.07 0)
(557.557 1130.89 0)
(690.882 1003.32 0)
(876.44 941.256 0)
(1034.94 977.609 0)
(1165.11 1080.51 0)
(1292.14 1162.12 0)
(1375.96 1130.87 0)
(1301.74 1003.59 0)
(949.08 846.107 0)
(403.953 844.462 0)
(-108.649 990.654 0)
(-574.517 1277.84 0)
(-1025.91 1683.17 0)
(-1515.12 2191.25 0)
(-2106.44 2785.19 0)
(-2646.18 3198.2 0)
(-2594.03 2846.75 0)
(-1689.38 1591.09 0)
(-701.76 224.061 0)
(-210.828 -503.753 0)
(-7.43515 -719.763 0)
(150.371 -686.074 0)
(509.69 -534.176 0)
(1075.9 -9.07659 0)
(1242.86 351.695 0)
(763.368 269.002 0)
(241.976 191.197 0)
(45.4511 269.307 0)
(26.7682 431.202 0)
(24.1902 540.556 0)
(-46.0393 584.684 0)
(-185.095 561.206 0)
(-389.899 402.283 0)
(-672.079 233.934 0)
(-862.901 38.1732 0)
(-667.471 -32.4451 0)
(1418.44 655.734 0)
(1051.45 1120.08 0)
(714.106 1438.67 0)
(423.746 1530.95 0)
(360.384 1425.7 0)
(474.871 1246.05 0)
(730.239 982.636 0)
(963.862 692.322 0)
(1154.18 435.334 0)
(1274.09 351.39 0)
(1266.17 272.92 0)
(1085.03 167.839 0)
(809.887 -70.9855 0)
(512.642 -139.264 0)
(168.524 18.1552 0)
(-218.974 321.602 0)
(-597.513 738.237 0)
(-964.505 1242.64 0)
(-1415.69 1863.98 0)
(-2054.01 2610.99 0)
(-2796.91 3270.47 0)
(-3020.02 3207.45 0)
(-2147.71 1980 0)
(-906.641 426.942 0)
(-161.04 -375.43 0)
(236.644 -491.02 0)
(886.973 -260.928 0)
(1495.03 307.081 0)
(1284.36 461.35 0)
(663.419 294.854 0)
(264.671 242.953 0)
(148.928 281.037 0)
(111.665 351.813 0)
(46.218 381.164 0)
(-77.4737 359.842 0)
(-287.873 296.931 0)
(-545.461 193.76 0)
(-815.188 111.994 0)
(-940.517 69.0255 0)
(-628.494 9.93072 0)
(1762.64 1294.53 0)
(1391.1 1192.49 0)
(936.654 1292.99 0)
(474.527 1488.9 0)
(283.018 1423.35 0)
(263.934 1262.79 0)
(342.844 1022.54 0)
(507.544 729.98 0)
(836.57 352.244 0)
(1135.63 -107.361 0)
(1199.08 -446.14 0)
(970.341 -499.34 0)
(653.145 -541.484 0)
(489.852 -699.556 0)
(335.458 -795.039 0)
(119.38 -632.878 0)
(-138.361 -182.224 0)
(-430.313 389.316 0)
(-787.852 1012.58 0)
(-1290.84 1614.73 0)
(-2019.27 2327.94 0)
(-2932.92 3193.57 0)
(-3381.15 3428.21 0)
(-2480.61 2258.91 0)
(-892.016 592.678 0)
(260.709 -98.3983 0)
(1278.77 120.226 0)
(1771.91 520.315 0)
(1231.08 503.948 0)
(552.913 322.746 0)
(228.661 275.049 0)
(150.352 257.237 0)
(123.254 244.854 0)
(31.9274 223.217 0)
(-127.209 158.502 0)
(-345.138 97.5052 0)
(-568.111 69.6096 0)
(-792.277 112.142 0)
(-961.253 195.073 0)
(-750.91 115.735 0)
(847.338 2175.13 0)
(1049.96 1128.26 0)
(999.742 542.315 0)
(549.369 447.9 0)
(142.491 453.258 0)
(88.631 560.46 0)
(216.806 706.492 0)
(317.944 807.277 0)
(347.283 760.636 0)
(504.736 376.092 0)
(888.45 -174.163 0)
(993.149 -676.105 0)
(616.951 -864.851 0)
(268.307 -1189.68 0)
(232.777 -1410.52 0)
(371.557 -1234.42 0)
(387.511 -855.687 0)
(186.851 -333.542 0)
(-234.844 222.493 0)
(-786.472 732.18 0)
(-1275.48 1309.28 0)
(-1959.77 2060.04 0)
(-3048.38 3007.22 0)
(-3639.06 3431.27 0)
(-2432.63 2303.02 0)
(-218.629 822.583 0)
(1483.19 508.089 0)
(1864.8 568.965 0)
(1093.98 434.926 0)
(442.844 278.166 0)
(201.545 228.978 0)