/*--------------------------------*- C++ -*----------------------------------*\
| =========                 |                                                 |
| \\      /  F ield         | OpenFOAM: The Open Source CFD Toolbox           |
|  \\    /   O peration     | Version:  v1912                                 |
|   \\  /    A nd           | Website:  www.openfoam.com                      |
|    \\/     M anipulation  |                                                 |
\*---------------------------------------------------------------------------*/
FoamFile
{
    version     2.0;
    format      ascii;
    class       volScalarField;
    location    "8.36";
    object      Ma;
}
// * * * * * * * * * * * * * * * * * * * * * * * * * * * * * * * * * * * * * //

dimensions      [0 0 0 0 0 0 0];


internalField   nonuniform List<scalar> 
1900
(
0.215379
0.104683
0.11363
0.112118
0.109572
0.110965
0.110425
0.110882
0.110917
0.100906
0.215375
0.104685
0.113623
0.112098
0.10953
0.110905
0.110356
0.110505
0.113084
0.11468
0.215374
0.104686
0.113617
0.112085
0.109506
0.110871
0.110323
0.110774
0.114136
0.122171
0.215375
0.104685
0.113623
0.112098
0.10953
0.110905
0.110356
0.110505
0.113084
0.11468
0.215379
0.104683
0.11363
0.112118
0.109572
0.110965
0.110425
0.110882
0.110917
0.100906
0.110521
0.151731
0.205475
0.291503
0.438808
0.131413
0.157214
0.187904
0.253675
0.397941
0.139636
0.164186
0.19459
0.25769
0.394659
0.131413
0.157214
0.187904
0.253675
0.397941
0.110521
0.151731
0.205475
0.291503
0.438808
0.956089
1.34984
1.61674
1.79163
1.96847
0.911736
1.34898
1.63862
1.81229
1.99383
0.907042
1.35827
1.63958
1.80706
1.99214
0.911736
1.34898
1.63862
1.81229
1.99383
0.956089
1.34984
1.61674
1.79163
1.96847
2.06207
2.14501
2.20566
2.23181
2.25924
2.29521
2.33854
2.39067
2.48694
2.54349
2.51423
2.27052
1.81255
1.65293
1.62332
1.6003
1.54601
1.45471
1.35159
1.26648
1.19641
1.1203
1.02689
0.889373
0.645663
0.376606
0.301195
0.298413
0.288748
0.109062
0.210674
0.347647
0.391159
0.415572
0.435973
0.451057
0.464078
0.478024
0.490795
0.505134
2.02782
2.01027
2.03486
2.07929
2.12474
2.1837
2.24465
2.30832
2.41873
2.48557
2.46178
2.21053
1.78105
1.63461
1.61907
1.61297
1.56307
1.46645
1.36059
1.27712
1.21147
1.13798
1.04015
0.897525
0.650609
0.378059
0.301136
0.298271
0.288622
0.108466
0.209846
0.346726
0.389934
0.413997
0.434185
0.449429
0.463431
0.479055
0.492939
0.507528
2.02303
2.00033
1.98329
2.0335
2.07181
2.13682
2.20612
2.27559
2.39117
2.46152
2.43932
2.18829
1.76657
1.62762
1.617
1.61336
1.56248
1.46363
1.35775
1.2841
1.22054
1.14744
1.05051
0.898402
0.646634
0.3767
0.300992
0.298136
0.288464
0.108064
0.209842
0.346647
0.389644
0.413458
0.43341
0.448419
0.462213
0.477773
0.491809
0.506723
2.02782
2.01027
2.03486
2.07929
2.12474
2.1837
2.24465
2.30832
2.41873
2.48557
2.46178
2.21053
1.78105
1.63461
1.61907
1.61297
1.56307
1.46645
1.36059
1.27712
1.21147
1.13798
1.04015
0.897525
0.650609
0.378059
0.301136
0.298271
0.288622
0.108466
0.209846
0.346726
0.389934
0.413997
0.434185
0.449429
0.463431
0.479055
0.492939
0.507528
2.06207
2.14501
2.20566
2.23181
2.25924
2.29521
2.33854
2.39067
2.48694
2.54349
2.51423
2.27052
1.81255
1.65293
1.62332
1.6003
1.54601
1.45471
1.35159
1.26648
1.19641
1.1203
1.02689
0.889373
0.645663
0.376606
0.301195
0.298413
0.288748
0.109062
0.210674
0.347647
0.391159
0.415572
0.435973
0.451057
0.464078
0.478024
0.490795
0.505134
2.47754
2.50986
2.53843
2.54864
2.54412
2.54614
2.54859
2.56436
2.61687
2.65115
2.61038
2.35981
1.8578
1.68984
1.6307
1.59259
1.53392
1.45225
1.36629
1.29349
1.21866
1.13426
1.03626
0.892853
0.641839
0.37355
0.30195
0.299715
0.290201
0.113117
0.21215
0.348445
0.391815
0.416129
0.436385
0.451176
0.463282
0.475101
0.485775
0.498929
2.83309
2.84932
2.86781
2.86475
2.85003
2.82844
2.79846
2.78261
2.79675
2.7818
2.71586
2.40936
1.89381
1.72944
1.64773
1.59605
1.5229
1.43447
1.34422
1.26902
1.19838
1.11838
1.01908
0.870421
0.615847
0.364499
0.304666
0.30368
0.294614
0.124386
0.216037
0.350544
0.393595
0.41759
0.437434
0.451893
0.463656
0.474484
0.483873
0.496346
2.8803
2.86403
2.84995
2.84503
2.84119
2.83431
2.83239
2.83395
2.83211
2.79491
2.70871
2.33887
1.90192
1.75492
1.65235
1.56018
1.46045
1.36857
1.2928
1.23352
1.16977
1.09165
0.992226
0.837862
0.578936
0.353891
0.309184
0.309707
0.301248
0.139978
0.221502
0.353205
0.395751
0.419372
0.438946
0.453468
0.465552
0.47637
0.484737
0.495894
2.83749
2.83457
2.82554
2.82178
2.82108
2.82049
2.83614
2.87288
2.81329
2.70215
2.56355
2.215
1.90183
1.75174
1.62002
1.49889
1.39105
1.30704
1.24759
1.19738
1.13691
1.06019
0.959029
0.79492
0.533991
0.345038
0.315342
0.317234
0.309395
0.157586
0.230151
0.358826
0.401157
0.424703
0.444111
0.458545
0.470659
0.481519
0.489137
0.498685
2.74054
2.74409
2.7471
2.75324
2.76108
2.7684
2.80158
2.81278
2.69009
2.59719
2.40068
2.09127
1.88034
1.71188
1.55486
1.41891
1.32082
1.25398
1.20776
1.1601
1.09904
1.0219
0.916597
0.739921
0.485254
0.340289
0.323626
0.326703
0.319721
0.177914
0.238067
0.362204
0.403634
0.4266
0.445338
0.459147
0.47072
0.481455
0.488855
0.497194
2.63442
2.63625
2.64119
2.6505
2.65812
2.66542
2.68428
2.65806
2.55598
2.4269
2.24532
1.98562
1.79717
1.6111
1.44949
1.33661
1.26157
1.21199
1.1706
1.12077
1.05742
0.978514
0.866071
0.675076
0.44041
0.341368
0.334011
0.337456
0.331134
0.198827
0.252264
0.372282
0.413455
0.436457
0.454988
0.468144
0.47893
0.489066
0.496235
0.503447
2.50912
2.51001
2.5121
2.51807
2.52103
2.52086
2.50964
2.45872
2.35556
2.21471
2.03334
1.82857
1.6324
1.45841
1.33772
1.26071
1.21007
1.17324
1.131
1.07743
1.01269
0.931193
0.807678
0.604031
0.407409
0.349056
0.348649
0.352193
0.347238
0.225222
0.26374
0.377668
0.417982
0.440835
0.459458
0.472245
0.48259
0.491974
0.499006
0.505268
2.34533
2.34536
2.34582
2.34596
2.3381
2.32126
2.28814
2.22483
2.12488
1.97253
1.79125
1.60054
1.42419
1.30672
1.24607
1.20289
1.17362
1.13642
1.09024
1.03504
0.968431
0.880726
0.740371
0.529463
0.385236
0.357728
0.360046
0.362781
0.358795
0.243263
0.275071
0.382924
0.420654
0.442756
0.461653
0.476388
0.488966
0.499043
0.505812
0.511053
2.11926
2.11816
2.11859
2.11813
2.10766
2.07957
2.02645
1.94952
1.83963
1.69324
1.52387
1.35211
1.24293
1.21209
1.18674
1.17011
1.13915
1.09645
1.04309
0.978465
0.901931
0.796811
0.628839
0.446381
0.357509
0.341991
0.345175
0.34618
0.342004
0.210698
0.242384
0.352622
0.389607
0.416297
0.441263
0.463274
0.479775
0.497295
0.508203
0.513736
1.82723
1.82949
1.83951
1.84312
1.82945
1.79401
1.73802
1.65586
1.53739
1.39468
1.25195
1.16975
1.17736
1.17122
1.15988
1.1312
1.08474
1.02416
0.949799
0.860006
0.754582
0.617735
0.430915
0.289588
0.250133
0.249556
0.257958
0.265258
0.260199
0.0963382
0.211422
0.304491
0.32448
0.342381
0.367629
0.407192
0.442588
0.481418
0.504807
0.518574
1.48838
1.50618
1.52452
1.53007
1.51816
1.48744
1.42907
1.33653
1.23348
1.15583
1.12629
1.14874
1.15549
1.13926
1.09662
1.02784
0.932804
0.818136
0.703021
0.59861
0.490478
0.372524
0.298415
0.291155
0.304841
0.32062
0.335737
0.350044
0.348202
0.270919
0.292058
0.317116
0.301578
0.292112
0.292218
0.31813
0.361272
0.425496
0.475102
0.513018
1.14771
1.16616
1.17468
1.17441
1.15997
1.12388
1.09282
1.08499
1.09573
1.11502
1.1259
1.10817
1.04948
0.953931
0.837077
0.716815
0.615956
0.529091
0.461804
0.400719
0.347514
0.317728
0.331303
0.352651
0.369541
0.38625
0.399245
0.412271
0.407646
0.335342
0.312962
0.311648
0.280528
0.259589
0.239735
0.251501
0.276047
0.343723
0.412994
0.481263
0.836509
0.843027
0.845108
0.849458
0.867171
0.898536
0.928301
0.94156
0.952607
0.933405
0.872224
0.778746
0.678808
0.591227
0.525233
0.456062
0.402728
0.359307
0.335312
0.308754
0.294909
0.323419
0.355908
0.376652
0.393639
0.410737
0.422641
0.434948
0.429493
0.359709
0.303056
0.279876
0.235925
0.207552
0.175317
0.189586
0.204846
0.275178
0.343475
0.412741
0.686242
0.66209
0.631051
0.61202
0.59863
0.583231
0.567798
0.560616
0.555413
0.540608
0.511699
0.478122
0.444375
0.397095
0.351208
0.306626
0.280592
0.258999
0.241874
0.25578
0.303824
0.347022
0.37233
0.392102
0.408404
0.425778
0.437531
0.449989
0.446604
0.386182
0.307537
0.26416
0.211932
0.175487
0.124836
0.128703
0.149708
0.23483
0.298235
0.348231
0.628429
0.57615
0.528222
0.492453
0.461365
0.432969
0.41548
0.405065
0.392862
0.383978
0.372015
0.349157
0.307397
0.260763
0.221353
0.190665
0.17621
0.183897
0.229433
0.291142
0.337629
0.365352
0.386714
0.405941
0.420891
0.438176
0.449816
0.462779
0.461272
0.414663
0.324334
0.260241
0.193508
0.137088
0.0680403
0.0603496
0.108938
0.197415
0.262939
0.299995
0.652679
0.583894
0.524643
0.479158
0.440321
0.403334
0.371238
0.34602
0.32431
0.303513
0.274819
0.233696
0.187168
0.137563
0.104363
0.101878
0.144342
0.216495
0.285668
0.32999
0.356191
0.376578
0.397047
0.415808
0.429325
0.445885
0.456784
0.469941
0.470717
0.442968
0.357297
0.27491
0.20802
0.149389
0.0843001
0.0248094
0.10883
0.208318
0.288728
0.317429
0.666484
0.594064
0.534075
0.487106
0.438501
0.383906
0.334266
0.292838
0.25858
0.226524
0.186607
0.130568
0.0681003
0.0188096
0.0694705
0.141366
0.220474
0.286695
0.325559
0.349452
0.367404
0.386184
0.40601
0.424474
0.436937
0.452719
0.462696
0.475867
0.479347
0.464102
0.399372
0.308226
0.228827
0.170783
0.127497
0.119863
0.168668
0.247242
0.321166
0.336111
0.685459
0.648005
0.593284
0.535742
0.474208
0.410061
0.35008
0.288117
0.225331
0.161176
0.0920948
0.0362308
0.0580828
0.115418
0.180154
0.245104
0.293797
0.325364
0.347979
0.362866
0.379282
0.39748
0.416423
0.434045
0.445316
0.460073
0.468975
0.481334
0.488849
0.486116
0.449431
0.375285
0.297314
0.251615
0.210626
0.21743
0.247833
0.334558
0.42569
0.430629
0.761542
0.726644
0.658458
0.590792
0.518714
0.452633
0.384631
0.310313
0.225908
0.143268
0.10595
0.132864
0.170645
0.216131
0.263016
0.300683
0.329109
0.347288
0.361
0.375945
0.394753
0.413606
0.430447
0.445344
0.454292
0.467726
0.475902
0.487464
0.495944
0.501589
0.48747
0.438893
0.369005
0.315676
0.273282
0.291796
0.315971
0.419817
0.550579
0.567401
1.47945
0.855526
0.663049
0.626615
0.594646
0.537853
0.460432
0.350775
0.230648
0.153536
0.171333
0.21917
0.263192
0.302276
0.32885
0.34712
0.357843
0.368283
0.381645
0.397515
0.415836
0.432423
0.4451
0.455796
0.461959
0.473539
0.480554
0.490821
0.498468
0.508249
0.510468
0.494453
0.440141
0.369743
0.311833
0.32093
0.330941
0.425306
0.562606
0.810435
1.47945
0.855526
0.663049
0.626615
0.594646
0.537853
0.460432
0.350775
0.230648
0.153536
0.171333
0.21917
0.263192
0.302276
0.32885
0.34712
0.357843
0.368283
0.381645
0.397515
0.415836
0.432423
0.4451
0.455796
0.461959
0.473539
0.480554
0.490821
0.498468
0.508249
0.510468
0.494453
0.440141
0.369743
0.311833
0.32093
0.330941
0.425306
0.562606
0.810435
0.761542
0.726644
0.658458
0.590792
0.518714
0.452633
0.384631
0.310313
0.225908
0.143268
0.10595
0.132864
0.170645
0.216131
0.263016
0.300683
0.329109
0.347288
0.361
0.375945
0.394753
0.413606
0.430447
0.445344
0.454292
0.467726
0.475902
0.487464
0.495944
0.501589
0.48747
0.438893
0.369005
0.315676
0.273282
0.291796
0.315971
0.419817
0.550579
0.567401
0.685459
0.648005
0.593284
0.535742
0.474208
0.410061
0.35008
0.288117
0.225331
0.161176
0.0920948
0.0362308
0.0580828
0.115418
0.180154
0.245104
0.293797
0.325364
0.347979
0.362866
0.379282
0.39748
0.416423
0.434045
0.445316
0.460073
0.468975
0.481334
0.488849
0.486116
0.449431
0.375285
0.297314
0.251615
0.210626
0.21743
0.247833
0.334558
0.42569
0.430629
0.666484
0.594064
0.534075
0.487106
0.438501
0.383906
0.334266
0.292838
0.25858
0.226524
0.186607
0.130568
0.0681003
0.0188096
0.0694705
0.141366
0.220474
0.286695
0.325559
0.349452
0.367404
0.386184
0.40601
0.424474
0.436937
0.452719
0.462696
0.475867
0.479347
0.464102
0.399372
0.308226
0.228827
0.170783
0.127497
0.119863
0.168668
0.247242
0.321166
0.336111
0.652679
0.583894
0.524643
0.479158
0.440321
0.403334
0.371238
0.34602
0.32431
0.303513
0.274819
0.233696
0.187168
0.137563
0.104363
0.101878
0.144342
0.216495
0.285668
0.32999
0.356191
0.376578
0.397047
0.415808
0.429325
0.445885
0.456784
0.469941
0.470717
0.442968
0.357297
0.27491
0.20802
0.149389
0.0843001
0.0248094
0.10883
0.208318
0.288728
0.317429
0.628429
0.57615
0.528222
0.492453
0.461365
0.432969
0.41548
0.405065
0.392862
0.383978
0.372015
0.349157
0.307397
0.260763
0.221353
0.190665
0.17621
0.183897
0.229433
0.291142
0.337629
0.365352
0.386714
0.405941
0.420891
0.438176
0.449816
0.462779
0.461272
0.414663
0.324334
0.260241
0.193508
0.137088
0.0680403
0.0603496
0.108938
0.197415
0.262939
0.299995
0.686242
0.66209
0.631051
0.61202
0.59863
0.583231
0.567798
0.560616
0.555413
0.540608
0.511699
0.478122
0.444375
0.397095
0.351208
0.306626
0.280592
0.258999
0.241874
0.25578
0.303824
0.347022
0.37233
0.392102
0.408404
0.425778
0.437531
0.449989
0.446604
0.386182
0.307537
0.26416
0.211932
0.175487
0.124836
0.128703
0.149708
0.23483
0.298235
0.348231
0.836509
0.843027
0.845108
0.849458
0.867171
0.898536
0.928301
0.94156
0.952607
0.933405
0.872224
0.778746
0.678808
0.591227
0.525233
0.456062
0.402728
0.359307
0.335312
0.308754
0.294909
0.323419
0.355908
0.376652
0.393639
0.410737
0.422641
0.434948
0.429493
0.359709
0.303056
0.279876
0.235925
0.207552
0.175317
0.189586
0.204846
0.275178
0.343475
0.412741
1.14771
1.16616
1.17468
1.17441
1.15997
1.12388
1.09282
1.08499
1.09573
1.11502
1.1259
1.10817
1.04948
0.953931
0.837077
0.716815
0.615956
0.529091
0.461804
0.400719
0.347514
0.317728
0.331303
0.352651
0.369541
0.38625
0.399245
0.412271
0.407646
0.335342
0.312962
0.311648
0.280528
0.259589
0.239735
0.251501
0.276047
0.343723
0.412994
0.481263
1.48838
1.50618
1.52452
1.53007
1.51816
1.48744
1.42907
1.33653
1.23348
1.15583
1.12629
1.14874
1.15549
1.13926
1.09662
1.02784
0.932804
0.818136
0.703021
0.59861
0.490478
0.372524
0.298415
0.291155
0.304841
0.32062
0.335737
0.350044
0.348202
0.270919
0.292058
0.317116
0.301578
0.292112
0.292218
0.31813
0.361272
0.425496
0.475102
0.513018
1.82723
1.82949
1.83951
1.84312
1.82945
1.79401
1.73802
1.65586
1.53739
1.39468
1.25195
1.16975
1.17736
1.17122
1.15988
1.1312
1.08474
1.02416
0.949799
0.860006
0.754582
0.617735
0.430915
0.289588
0.250133
0.249556
0.257958
0.265258
0.260199
0.0963382
0.211422
0.304491
0.32448
0.342381
0.367629
0.407192
0.442588
0.481418
0.504807
0.518574
2.11926
2.11816
2.11859
2.11813
2.10766
2.07957
2.02645
1.94952
1.83963
1.69324
1.52387
1.35211
1.24293
1.21209
1.18674
1.17011
1.13915
1.09645
1.04309
0.978465
0.901931
0.796811
0.628839
0.446381
0.357509
0.341991
0.345175
0.34618
0.342004
0.210698
0.242384
0.352622
0.389607
0.416297
0.441263
0.463274
0.479775
0.497295
0.508203
0.513736
2.34533
2.34536
2.34582
2.34596
2.3381
2.32126
2.28814
2.22483
2.12488
1.97253
1.79125
1.60054
1.42419
1.30672
1.24607
1.20289
1.17362
1.13642
1.09024
1.03504
0.968431
0.880726
0.740371
0.529463
0.385236
0.357728
0.360046
0.362781
0.358795
0.243263
0.275071
0.382924
0.420654
0.442756
0.461653
0.476388
0.488966
0.499043
0.505812
0.511053
2.50912
2.51001
2.5121
2.51807
2.52103
2.52086
2.50964
2.45872
2.35556
2.21471
2.03334
1.82857
1.6324
1.45841
1.33772
1.26071
1.21007
1.17324
1.131
1.07743
1.01269
0.931193
0.807678
0.604031
0.407409
0.349056
0.348649
0.352193
0.347238
0.225222
0.26374
0.377668
0.417982
0.440835
0.459458
0.472245
0.48259
0.491974
0.499006
0.505268
2.63442
2.63625
2.64119
2.6505
2.65812
2.66542
2.68428
2.65806
2.55598
2.4269
2.24532
1.98562
1.79717
1.6111
1.44949
1.33661
1.26157
1.21199
1.1706
1.12077
1.05742
0.978514
0.866071
0.675076
0.44041
0.341368
0.334011
0.337456
0.331134
0.198827
0.252264
0.372282
0.413455
0.436457
0.454988
0.468144
0.47893
0.489066
0.496235
0.503447
2.74054
2.74409
2.7471
2.75324
2.76108
2.7684
2.80158
2.81278
2.69009
2.59719
2.40068
2.09127
1.88034
1.71188
1.55486
1.41891
1.32082
1.25398
1.20776
1.1601
1.09904
1.0219
0.916597
0.739921
0.485254
0.340289
0.323626
0.326703
0.319721
0.177914
0.238067
0.362204
0.403634
0.4266
0.445338
0.459147
0.47072
0.481455
0.488855
0.497194
2.83749
2.83457
2.82554
2.82178
2.82108
2.82049
2.83614
2.87288
2.81329
2.70215
2.56355
2.215
1.90183
1.75174
1.62002
1.49889
1.39105
1.30704
1.24759
1.19738
1.13691
1.06019
0.959029
0.79492
0.533991
0.345038
0.315342
0.317234
0.309395
0.157586
0.230151
0.358826
0.401157
0.424703
0.444111
0.458545
0.470659
0.481519
0.489137
0.498685
2.8803
2.86403
2.84995
2.84503
2.84119
2.83431
2.83239
2.83395
2.83211
2.79491
2.70871
2.33887
1.90192
1.75492
1.65235
1.56018
1.46045
1.36857
1.2928
1.23352
1.16977
1.09165
0.992226
0.837862
0.578936
0.353891
0.309184
0.309707
0.301248
0.139978
0.221502
0.353205
0.395751
0.419372
0.438946
0.453468
0.465552
0.47637
0.484737
0.495894
2.83309
2.84932
2.86781
2.86475
2.85003
2.82844
2.79846
2.78261
2.79675
2.7818
2.71586
2.40936
1.89381
1.72944
1.64773
1.59605
1.5229
1.43447
1.34422
1.26902
1.19838
1.11838
1.01908
0.870421
0.615847
0.364499
0.304666
0.30368
0.294614
0.124386
0.216037
0.350544
0.393595
0.41759
0.437434
0.451893
0.463656
0.474484
0.483873
0.496346
2.47754
2.50986
2.53843
2.54864
2.54412
2.54614
2.54859
2.56436
2.61687
2.65115
2.61038
2.35981
1.8578
1.68984
1.6307
1.59259
1.53392
1.45225
1.36629
1.29349
1.21866
1.13426
1.03626
0.892853
0.641839
0.37355
0.30195
0.299715
0.290201
0.113117
0.21215
0.348445
0.391815
0.416129
0.436385
0.451176
0.463282
0.475101
0.485775
0.498929
)
;

boundaryField
{
    inlet
    {
        type            calculated;
        value           uniform 0;
    }
    outlet
    {
        type            calculated;
        value           nonuniform List<scalar> 
165
(
2.47754
2.83309
2.8803
2.83749
2.74054
2.63442
2.50912
2.34533
2.11926
1.82723
1.48838
1.14771
0.836509
0.686242
0.628429
0.652679
0.666484
0.685459
0.761542
1.47945
1.47945
0.855526
0.663049
0.626615
0.594646
0.537853
0.460432
0.350775
0.230648
0.153536
0.171333
0.21917
0.263192
0.302276
0.32885
0.34712
0.357843
0.368283
0.381645
0.397515
0.415836
0.432423
0.4451
0.455796
0.461959
0.473539
0.480554
0.490821
0.498468
0.508249
0.510468
0.494453
0.440141
0.369743
0.311833
0.32093
0.330941
0.425306
0.562606
0.810435
0.498929
0.496346
0.495894
0.498685
0.497194
0.503447
0.505268
0.511053
0.513736
0.518574
0.513018
0.481263
0.412741
0.348231
0.299995
0.317429
0.336111
0.430629
0.567401
0.810435
0.505134
0.507528
0.506723
0.507528
0.505134
0.810435
0.567401
0.430629
0.336111
0.317429
0.299995
0.348231
0.412741
0.481263
0.513018
0.518574
0.513736
0.511053
0.505268
0.503447
0.497194
0.498685
0.495894
0.496346
0.498929
1.47945
0.855526
0.663049
0.626615
0.594646
0.537853
0.460432
0.350775
0.230648
0.153536
0.171333
0.21917
0.263192
0.302276
0.32885
0.34712
0.357843
0.368283
0.381645
0.397515
0.415836
0.432423
0.4451
0.455796
0.461959
0.473539
0.480554
0.490821
0.498468
0.508249
0.510468
0.494453
0.440141
0.369743
0.311833
0.32093
0.330941
0.425306
0.562606
0.810435
1.47945
0.761542
0.685459
0.666484
0.652679
0.628429
0.686242
0.836509
1.14771
1.48838
1.82723
2.11926
2.34533
2.50912
2.63442
2.74054
2.83749
2.8803
2.83309
2.47754
)
;
    }
    obstacle
    {
        type            calculated;
        value           nonuniform List<scalar> 
40
(
0.215379
0.104683
0.11363
0.112118
0.109572
0.110965
0.110425
0.110881
0.110853
0.1001
0.215379
0.104683
0.11363
0.112118
0.109572
0.110965
0.110425
0.110881
0.110853
0.1001
0.108146
0.148355
0.202056
0.288052
0.432017
0.108146
0.148355
0.202056
0.288052
0.432017
0.945575
1.34709
1.61512
1.79021
1.96711
0.945575
1.34709
1.61512
1.79021
1.96711
)
;
    }
    empty
    {
        type            empty;
    }
}


// ************************************************************************* //
