/*--------------------------------*- C++ -*----------------------------------*\
| =========                 |                                                 |
| \\      /  F ield         | OpenFOAM: The Open Source CFD Toolbox           |
|  \\    /   O peration     | Version:  v1912                                 |
|   \\  /    A nd           | Website:  www.openfoam.com                      |
|    \\/     M anipulation  |                                                 |
\*---------------------------------------------------------------------------*/
FoamFile
{
    version     2.0;
    format      ascii;
    class       volVectorField;
    location    "1.94";
    object      grad(rho);
}
// * * * * * * * * * * * * * * * * * * * * * * * * * * * * * * * * * * * * * //

dimensions      [1 -4 0 0 0 0 0];


internalField   nonuniform List<vector> 
1900
(
(10915.4 -0.126871 0)
(-4027.89 -0.0298606 0)
(275.137 0.652959 0)
(66.8109 1.50051 0)
(24.273 0.131561 0)
(101.781 -1.70835 0)
(270.334 -16.4571 0)
(367.537 -41.5774 0)
(439.713 -54.1134 0)
(-109.736 -64.3886 0)
(10915.3 -0.23214 0)
(-4027.11 0.0411228 0)
(276.667 1.13223 0)
(66.2895 2.01777 0)
(21.0641 -1.29251 0)
(85.192 -6.54531 0)
(230.465 -22.5555 0)
(329.88 -34.3092 0)
(416.902 -12.8449 0)
(454.499 -81.0787 0)
(10915.3 1.24345e-10 0)
(-4026.53 1.7053e-09 0)
(277.114 -1.77636e-09 0)
(64.3861 -1.47438e-09 0)
(15.7099 -2.96652e-09 0)
(80.5177 -6.19949e-09 0)
(242.57 -8.43769e-09 0)
(377.247 -4.36984e-09 0)
(392.943 1.13687e-09 0)
(351.532 8.52651e-10 0)
(10915.3 0.23214 0)
(-4027.11 -0.0411228 0)
(276.667 -1.13223 0)
(66.2895 -2.01777 0)
(21.0641 1.29251 0)
(85.192 6.54531 0)
(230.465 22.5555 0)
(329.88 34.3092 0)
(416.902 12.8449 0)
(454.499 81.0787 0)
(10915.4 0.126871 0)
(-4027.89 0.0298606 0)
(275.137 -0.652959 0)
(66.8109 -1.50051 0)
(24.273 -0.131561 0)
(101.781 1.70835 0)
(270.334 16.4571 0)
(367.537 41.5774 0)
(439.713 54.1134 0)
(-109.736 64.3886 0)
(-176.146 424.157 1.45071e-11)
(42.4584 510.536 -1.77113e-11)
(-1414.9 540.589 -2.23888e-11)
(-7768.54 1575.59 0)
(-2148.87 10517.3 -8.97055e-11)
(434.319 367.303 1.45838e-11)
(-37.3574 339.147 1.77113e-11)
(-926.785 222.058 2.23888e-11)
(-3645.58 668.088 0)
(-1088.99 8790.4 0)
(441.627 2.44571e-09 0)
(-43.6562 2.53209e-09 0)
(-1095.08 -2.96059e-09 0)
(-3406.65 2.01859e-10 0)
(3677.75 -4.96957e-09 0)
(434.319 -367.303 1.45838e-11)
(-37.3574 -339.147 1.77113e-11)
(-926.785 -222.058 2.23888e-11)
(-3645.58 -668.088 0)
(-1088.99 -8790.4 0)
(-176.146 -424.157 -4.36746e-11)
(42.4584 -510.536 -1.77113e-11)
(-1414.9 -540.589 -2.23888e-11)
(-7768.54 -1575.59 -6.03968e-11)
(-2148.87 -10517.3 8.97055e-11)
(12972.6 -3243.01 4.35111e-11)
(3369.88 -377.951 -3.73608e-11)
(4228.56 91.1054 0)
(6828.85 775.294 2.99511e-11)
(-775.715 -7804.41 -1.40522e-11)
(9374.02 -3158.97 -2.17067e-11)
(4170.75 -129.293 1.86747e-11)
(4633.36 -31.5447 0)
(3313.79 -970.764 -1.87267e-11)
(-8325.16 -16533.6 3.32981e-12)
(10240 -7.26691e-09 0)
(4131.67 -4.70659e-09 0)
(3870.67 -1.31582e-10 0)
(-515.681 -1.44547e-08 7.479e-12)
(-11763 -2.69051e-08 -6.65962e-12)
(9374.02 3158.97 -2.17067e-11)
(4170.75 129.293 1.86747e-11)
(4633.36 31.5447 0)
(3313.79 970.764 -1.87267e-11)
(-8325.16 16533.6 3.32981e-12)
(12972.6 3243.01 2.17067e-11)
(3369.88 377.951 1.13826e-14)
(4228.56 -91.1054 0)
(6828.85 -775.294 2.33493e-14)
(-775.715 7804.41 1.40522e-11)
(-32303 -68092.1 0)
(-27228 3190.72 0)
(1392.85 3037.54 0)
(956.643 1220.64 0)
(369.566 470.864 0)
(1103.74 230.853 0)
(1632.3 210.065 0)
(2156.93 80.927 0)
(2868.26 46.4572 0)
(3322.91 24.0213 0)
(3657.8 15.4621 0)
(3845.63 9.85587 0)
(3886.54 7.38911 0)
(3708.7 7.19495 0)
(3153.21 8.32117 0)
(2116.31 7.36802 0)
(939.203 3.38966 0)
(219.597 0.690567 0)
(19.5143 0.133024 0)
(0.436606 0.108133 0)
(-0.54666 0.107997 0)
(-22.7329 0.107975 0)
(-244.197 0.107899 0)
(-1014.5 0.107121 0)
(-2243.49 0.103893 0)
(-3307.44 0.0968509 0)
(-3880.22 0.0861342 0)
(-4089.6 0.0728789 0)
(-4113.88 0.0586258 0)
(-4045.21 0.0448294 0)
(-3919.94 0.0325793 0)
(-3748.44 0.0225028 0)
(-3523.99 0.0147715 0)
(-3228.24 0.00921693 0)
(-2891.43 0.00549866 0)
(-2628.01 0.00316516 0)
(-2373.13 0.00183183 0)
(-1475.96 0.000937603 0)
(119567 0.000484828 0)
(-157955 5.03801e-06 0)
(-30654 -28642.6 0)
(-21513 5598.24 0)
(1308.09 2468.6 0)
(544.35 539.624 0)
(316.627 281.382 0)
(1063.48 123.294 0)
(1615.02 60.1742 0)
(2147.78 42.1827 0)
(2860.79 18.2698 0)
(3319.97 6.97217 0)
(3656.62 3.61238 0)
(3844.96 1.46436 0)
(3886.42 0.602003 0)
(3708.94 0.897116 0)
(3153.28 1.79499 0)
(2115.92 1.50762 0)
(938.807 0.30201 0)
(219.51 -0.237351 0)
(19.5482 -0.092611 0)
(0.440437 -0.0740521 0)
(-0.546626 -0.0739165 0)
(-22.7329 -0.0738832 0)
(-244.197 -0.0738204 0)
(-1014.5 -0.0732942 0)
(-2243.49 -0.0710463 0)
(-3307.44 -0.0662111 0)
(-3880.22 -0.0588909 0)
(-4089.59 -0.0498523 0)
(-4113.87 -0.0401236 0)
(-4045.2 -0.0306876 0)
(-3919.93 -0.0222921 0)
(-3748.43 -0.0153723 0)
(-3523.99 -0.0100596 0)
(-3228.23 -0.00624511 0)
(-2891.43 -0.00369749 0)
(-2628.01 -0.00210611 0)
(-2373.13 -0.00119898 0)
(-1475.96 -0.000617598 0)
(119567 -0.000326475 0)
(-157955 1.96252e-06 0)
(-26922.7 -1.15625e-08 0)
(-18177.5 -4.87691e-09 0)
(-78.7514 -1.13041e-09 0)
(320.361 3.90799e-09 0)
(248.451 -1.2919e-10 0)
(1039.38 -2.87447e-09 0)
(1608.71 9.68922e-11 0)
(2144.74 9.36625e-10 0)
(2858.02 -3.7142e-09 0)
(3318.65 -4.16636e-09 0)
(3656.2 -2.58379e-10 0)
(3844.75 -3.22974e-10 0)
(3886.38 2.90677e-09 0)
(3709.05 5.81353e-10 0)
(3153.38 2.33833e-08 0)
(2115.87 5.71018e-08 0)
(938.696 -2.9972e-07 0)
(219.482 2.64516e-07 0)
(19.5618 -6.18857e-06 0)
(0.442045 -1.42173e-07 0)
(-0.546611 -1.11155e-06 0)
(-22.7329 1.49472e-06 0)
(-244.197 1.19731e-05 0)
(-1014.5 -1.5623e-05 0)
(-2243.49 -6.99478e-06 0)
(-3307.44 -6.9057e-06 0)
(-3880.22 -2.94656e-06 0)
(-4089.59 -1.7148e-06 0)
(-4113.87 3.96483e-07 0)
(-4045.2 2.33142e-06 0)
(-3919.93 2.18269e-06 0)
(-3748.43 3.59244e-06 0)
(-3523.99 2.49504e-06 0)
(-3228.23 2.21153e-06 0)
(-2891.43 1.22837e-06 0)
(-2628.01 5.44147e-07 0)
(-2373.13 -7.16195e-07 0)
(-1475.96 -2.59057e-07 0)
(119567 -1.64975e-07 0)
(-157955 -1.35649e-08 0)
(-30654 28642.6 0)
(-21513 -5598.24 0)
(1308.09 -2468.6 0)
(544.35 -539.624 0)
(316.627 -281.382 0)
(1063.48 -123.294 0)
(1615.02 -60.1742 0)
(2147.78 -42.1827 0)
(2860.79 -18.2698 0)
(3319.97 -6.97217 0)
(3656.62 -3.61238 0)
(3844.96 -1.46436 0)
(3886.42 -0.602003 0)
(3708.94 -0.897116 0)
(3153.28 -1.79499 0)
(2115.92 -1.50762 0)
(938.807 -0.30201 0)
(219.51 0.237351 0)
(19.5482 0.0925994 0)
(0.440438 0.0740517 0)
(-0.546626 0.0739145 0)
(-22.7329 0.0738861 0)
(-244.197 0.0738424 0)
(-1014.5 0.0732652 0)
(-2243.49 0.0710335 0)
(-3307.44 0.0661981 0)
(-3880.22 0.0588852 0)
(-4089.59 0.0498491 0)
(-4113.87 0.0401244 0)
(-4045.2 0.0306919 0)
(-3919.93 0.0222963 0)
(-3748.43 0.015379 0)
(-3523.99 0.0100643 0)
(-3228.23 0.00624931 0)
(-2891.43 0.00369982 0)
(-2628.01 0.00210712 0)
(-2373.13 0.00119765 0)
(-1475.96 0.000617115 0)
(119567 0.000326152 0)
(-157955 -2.01135e-06 0)
(-32303 68092.1 0)
(-27228 -3190.72 0)
(1392.85 -3037.54 0)
(956.643 -1220.64 0)
(369.566 -470.864 0)
(1103.74 -230.853 0)
(1632.3 -210.065 0)
(2156.93 -80.927 0)
(2868.26 -46.4572 0)
(3322.91 -24.0213 0)
(3657.8 -15.4621 0)
(3845.63 -9.85587 0)
(3886.54 -7.38911 0)
(3708.7 -7.19495 0)
(3153.21 -8.32117 0)
(2116.31 -7.36802 0)
(939.203 -3.38966 0)
(219.597 -0.690567 0)
(19.5143 -0.133019 0)
(0.436609 -0.108133 0)
(-0.546659 -0.107997 0)
(-22.7329 -0.107976 0)
(-244.197 -0.107909 0)
(-1014.5 -0.107109 0)
(-2243.49 -0.103886 0)
(-3307.44 -0.0968452 0)
(-3880.22 -0.0861319 0)
(-4089.6 -0.0728775 0)
(-4113.88 -0.0586261 0)
(-4045.21 -0.0448314 0)
(-3919.94 -0.032581 0)
(-3748.44 -0.0225057 0)
(-3523.99 -0.0147735 0)
(-3228.24 -0.00921868 0)
(-2891.43 -0.00549964 0)
(-2628.01 -0.00316563 0)
(-2373.13 -0.00183125 0)
(-1475.96 -0.000937363 0)
(119567 -0.000484702 0)
(-157955 -5.03348e-06 0)
(108207 76627.8 0)
(-59522.8 -5073.24 0)
(2445.87 -2762.62 0)
(1677.65 -2034.33 0)
(876.284 -860.527 0)
(1180.52 -443.967 0)
(1689.08 -404.543 0)
(2239.84 -165.979 0)
(2887.86 -107.755 0)
(3336.01 -63.0384 0)
(3664.14 -43.4992 0)
(3849.25 -32.8538 0)
(3887.95 -28.6253 0)
(3708.63 -27.5294 0)
(3153.26 -26.3788 0)
(2118.58 -21.2827 0)
(942.537 -12.2962 0)
(221.451 -6.53014 0)
(19.9526 -5.3363 0)
(0.460562 -5.28206 0)
(-0.546488 -5.28177 0)
(-22.7328 -5.28161 0)
(-244.196 -5.27817 0)
(-1014.5 -5.24294 0)
(-2243.48 -5.10776 0)
(-3307.43 -4.82688 0)
(-3880.2 -4.40935 0)
(-4089.57 -3.89169 0)
(-4113.85 -3.31859 0)
(-4045.18 -2.73397 0)
(-3919.92 -2.1756 0)
(-3748.42 -1.6718 0)
(-3523.98 -1.24015 0)
(-3228.23 -0.888108 0)
(-2891.42 -0.616667 0)
(-2628.01 -0.41782 0)
(-2373.13 -0.284807 0)
(-1475.96 -0.170858 0)
(119567 -0.104533 0)
(-157955 -0.0185368 0)
(129512 42382.6 0)
(-86414 -2959.01 0)
(3756.58 -2112 0)
(2402.95 -1797.49 0)
(1630.38 -1197.24 0)
(1501.97 -747.043 0)
(1869.74 -575.963 0)
(2398.47 -326.575 0)
(2956.95 -237.502 0)
(3377.8 -168.4 0)
(3683.49 -139.913 0)
(3858.01 -128.647 0)
(3890.92 -127.79 0)
(3710.9 -130.456 0)
(3159.2 -129.827 0)
(2128.66 -120.46 0)
(951.632 -106.139 0)
(225.309 -98.2948 0)
(20.4819 -97.0468 0)
(0.476317 -97.0039 0)
(-0.546324 -97.0037 0)
(-22.7295 -97.0021 0)
(-244.16 -96.9406 0)
(-1014.34 -96.3434 0)
(-2243.09 -94.1678 0)
(-3306.78 -89.8659 0)
(-3879.33 -83.6977 0)
(-4088.56 -76.1622 0)
(-4112.78 -67.7553 0)
(-4044.12 -58.9382 0)
(-3918.92 -50.1255 0)
(-3747.54 -41.6705 0)
(-3523.24 -33.8533 0)
(-3227.64 -26.8813 0)
(-2890.98 -20.9397 0)
(-2627.69 -16.0686 0)
(-2372.89 -12.383 0)
(-1475.79 -8.48802 0)
(119568 -5.90863 0)
(-157955 -3.0653 0)
(144226 24471.1 0)
(-102399 -813.191 0)
(3565.15 -1493.63 0)
(2559.14 -1509.82 0)
(1888.53 -1366.19 0)
(1779.21 -1022.07 0)
(2094.25 -817.584 0)
(2565.99 -619.834 0)
(3040.28 -543.524 0)
(3430.05 -502.946 0)
(3702.44 -501.896 0)
(3860.94 -522.666 0)
(3886.2 -552.772 0)
(3706.67 -581.092 0)
(3162.89 -599.344 0)
(2141.4 -602.955 0)
(963.895 -595.854 0)
(230.213 -590.243 0)
(21.1966 -589.196 0)
(0.502073 -589.155 0)
(-0.544693 -589.155 0)
(-22.672 -589.145 0)
(-243.561 -588.768 0)
(-1011.83 -585.279 0)
(-2237.24 -573.231 0)
(-3297.34 -550.641 0)
(-3866.99 -519.67 0)
(-4074.21 -482.913 0)
(-4097.25 -442.356 0)
(-4028.2 -399.589 0)
(-3903.28 -355.984 0)
(-3732.74 -312.752 0)
(-3509.72 -270.964 0)
(-3215.78 -231.624 0)
(-2881 -195.985 0)
(-2619.76 -164.615 0)
(-2365.82 -138.181 0)
(-1469.72 -105.609 0)
(119573 -81.7886 0)
(-157947 -96.7328 0)
(152425 12508 0)
(-111435 -601.171 0)
(3085.29 -1478.65 0)
(2525.76 -1691.61 0)
(2100.39 -1556.12 0)
(2030.62 -1405.36 0)
(2257.35 -1338.73 0)
(2662.56 -1272.38 0)
(3069.59 -1247.39 0)
(3417.92 -1270.98 0)
(3664.48 -1328.05 0)
(3808.99 -1405.01 0)
(3834.62 -1486.72 0)
(3666.02 -1561.31 0)
(3138.13 -1620.16 0)
(2132.02 -1657.69 0)
(963.882 -1672.83 0)
(231.725 -1675.06 0)
(21.5299 -1675.04 0)
(0.515883 -1675.04 0)
(-0.536069 -1675.04 0)
(-22.356 -1675 0)
(-240.435 -1673.87 0)
(-999.37 -1663.93 0)
(-2209.71 -1631.38 0)
(-3255.17 -1573.57 0)
(-3814.07 -1498.04 0)
(-4014.06 -1411.65 0)
(-4032.48 -1318.54 0)
(-3960.89 -1221.43 0)
(-3835.25 -1122.39 0)
(-3665.62 -1023.2 0)
(-3445.06 -925.505 0)
(-3155.39 -831.327 0)
(-2826.41 -743.68 0)
(-2571.99 -663.822 0)
(-2316.03 -588.217 0)
(-1421.44 -488.346 0)
(119576 -412.734 0)
(-157779 -935.894 0)
(155971 8011.48 0)
(-115877 -687.512 0)
(2514.37 -1654.09 0)
(2484.48 -2013.94 0)
(2164.37 -2144.21 0)
(1988.69 -2190.99 0)
(2222.41 -2182.3 0)
(2654.01 -2173.39 0)
(3041.62 -2187.55 0)
(3352.32 -2247.37 0)
(3573.29 -2341.28 0)
(3708.04 -2452.51 0)
(3735.59 -2567.48 0)
(3578.08 -2676.67 0)
(3070.01 -2771.67 0)
(2090.64 -2842.77 0)
(947.156 -2881.71 0)
(228.082 -2893.46 0)
(21.2179 -2894.8 0)
(0.5089 -2894.84 0)
(-0.513302 -2894.84 0)
(-21.5515 -2894.78 0)
(-232.885 -2892.63 0)
(-970.878 -2874.66 0)
(-2150.17 -2819.01 0)
(-3168.85 -2725.44 0)
(-3710.95 -2608.91 0)
(-3901.23 -2480.71 0)
(-3913.95 -2346.64 0)
(-3839.19 -2209.79 0)
(-3712.25 -2072.17 0)
(-3543.01 -1935.26 0)
(-3324.83 -1800.72 0)
(-3040.57 -1671.26 0)
(-2719.59 -1551.09 0)
(-2469.95 -1440.67 0)
(-2196.73 -1319.64 0)
(-1300.62 -1165.31 0)
(119141 -1061.04 0)
(-156609 -3899.56 0)
(159811 -1087.09 0)
(-120749 -1447.45 0)
(1807.09 -2178.66 0)
(2053.46 -2616.31 0)
(1929.79 -2872.57 0)
(1993.92 -2936.77 0)
(2274.31 -2878.07 0)
(2657.5 -2858.42 0)
(2998.3 -2881.52 0)
(3269.78 -2950.85 0)
(3466.8 -3050.87 0)
(3591.01 -3167.7 0)
(3618.61 -3289.9 0)
(3469.26 -3410.31 0)
(2978.07 -3522.44 0)
(2025.98 -3615.74 0)
(915.032 -3674.7 0)
(219.107 -3695.28 0)
(20.1992 -3697.92 0)
(0.478322 -3698 0)
(-0.474539 -3698 0)
(-20.229 -3697.91 0)
(-221.05 -3694.83 0)
(-928.428 -3670 0)
(-2065.92 -3596.94 0)
(-3052.7 -3480.24 0)
(-3578.23 -3340.97 0)
(-3761.32 -3192.78 0)
(-3771.42 -3041.96 0)
(-3696.4 -2891.51 0)
(-3570.7 -2743.12 0)
(-3404.04 -2597.98 0)
(-3190.66 -2457.63 0)
(-2914.83 -2325.93 0)
(-2604.2 -2206.87 0)
(-2348.96 -2099.05 0)
(-2050.68 -1958.62 0)
(-1172.25 -1810.61 0)
(116941 -1758.63 0)
(-152843 -9053.06 0)
(153529 -12619.4 0)
(-116929 -2396.62 0)
(1388.01 -2750.31 0)
(1815.8 -3056.54 0)
(1855.56 -3154.33 0)
(1983.39 -3203.69 0)
(2297.91 -3172.19 0)
(2650.69 -3165.56 0)
(2952.55 -3196.17 0)
(3189.12 -3266.39 0)
(3364.33 -3362.47 0)
(3477.7 -3473.95 0)
(3501.8 -3593.5 0)
(3354 -3716.4 0)
(2872.05 -3837.87 0)
(1943.92 -3946.93 0)
(870.515 -4021.32 0)
(205.71 -4048.81 0)
(18.5921 -4052.44 0)
(0.428578 -4052.56 0)
(-0.422639 -4052.56 0)
(-18.4903 -4052.44 0)
(-205.989 -4048.65 0)
(-876.552 -4018.87 0)
(-1967.31 -3934.62 0)
(-2922.19 -3805.78 0)
(-3433.95 -3657.28 0)
(-3613.09 -3503.01 0)
(-3623.64 -3348.8 0)
(-3551.21 -3197.27 0)
(-3429.39 -3049.93 0)
(-3267.9 -2907.61 0)
(-3062.68 -2772.42 0)
(-2798.92 -2648.93 0)
(-2500.96 -2540.47 0)
(-2230.74 -2443.97 0)
(-1918.77 -2303.29 0)
(-1107.89 -2198.61 0)
(112162 -2247.07 0)
(-145827 -14190.9 0)
(144904 -17180.2 0)
(-111238 -2785.85 0)
(1171.16 -2894.87 0)
(1664.14 -3104.04 0)
(1787.99 -3217.22 0)
(1976.71 -3242.85 0)
(2311.06 -3218.05 0)
(2634.4 -3220.96 0)
(2901.13 -3262.11 0)
(3109.52 -3334.88 0)
(3266.79 -3428.82 0)
(3368.39 -3536.35 0)
(3384.98 -3654.25 0)
(3233.77 -3779.58 0)
(2755.92 -3908.18 0)
(1849.2 -4028.77 0)
(816.858 -4114.39 0)
(189.121 -4146.63 0)
(16.587 -4150.87 0)
(0.367278 -4151 0)
(-0.36245 -4151 0)
(-16.4672 -4150.87 0)
(-188.701 -4146.64 0)
(-818.539 -4113.55 0)
(-1860.58 -4022.18 0)
(-2785.45 -3887.16 0)
(-3286.48 -3735.95 0)
(-3464.06 -3581.62 0)
(-3476.79 -3428.97 0)
(-3408.4 -3280.21 0)
(-3291.58 -3136.29 0)
(-3136.63 -2998.79 0)
(-2941.38 -2868.21 0)
(-2691.32 -2752.15 0)
(-2406.7 -2650.35 0)
(-2120.4 -2559.03 0)
(-1814.25 -2436.52 0)
(-1118.08 -2375.53 0)
(105385 -2506.18 0)
(-136426 -17439.6 0)
(133690 -20760.9 0)
(-103163 -2953.54 0)
(1081.39 -2911.43 0)
(1505.17 -3069.82 0)
(1721.8 -3156.83 0)
(1982.6 -3159.94 0)
(2319 -3138.65 0)
(2608.23 -3156.23 0)
(2842.78 -3204.32 0)
(3028.47 -3281.35 0)
(3170.18 -3374.9 0)
(3260.46 -3482.18 0)
(3267.42 -3600.47 0)
(3109.31 -3728.56 0)
(2631.92 -3862.98 0)
(1745.21 -3992.09 0)
(756.946 -4085.27 0)
(170.558 -4120.23 0)
(14.3791 -4124.72 0)
(0.302076 -4124.85 0)
(-0.29926 -4124.85 0)
(-14.2925 -4124.72 0)
(-170.031 -4120.31 0)
(-756.613 -4085.31 0)
(-1749.15 -3989.5 0)
(-2646.37 -3851.46 0)
(-3139.52 -3700.63 0)
(-3317.27 -3548.91 0)
(-3333.19 -3399.99 0)
(-3269.18 -3255.21 0)
(-3158.2 -3116.33 0)
(-3009.57 -2982.41 0)
(-2825 -2859.25 0)
(-2588.98 -2745.12 0)
(-2314.86 -2648.62 0)
(-2024.68 -2556.71 0)
(-1741.96 -2465.43 0)
(-1175.02 -2440.63 0)
(97646 -2597.38 0)
(-125885 -19087 0)
(121275 -22028.2 0)
(-94038.1 -3014.69 0)
(1059.11 -2965.27 0)
(1427.66 -2989.09 0)
(1701.14 -3007.46 0)
(1994.24 -2994.8 0)
(2314.64 -2997.79 0)
(2571.11 -3024.19 0)
(2780.56 -3085.86 0)
(2945.13 -3163.28 0)
(3073.27 -3259.88 0)
(3151.02 -3368.66 0)
(3147.56 -3489.43 0)
(2980.8 -3620.41 0)
(2501.97 -3759.04 0)
(1635 -3893.68 0)
(693.379 -3991.15 0)
(151.105 -4027.1 0)
(12.136 -4031.54 0)
(0.239074 -4031.67 0)
(-0.23786 -4031.67 0)
(-12.0899 -4031.54 0)
(-150.721 -4027.18 0)
(-692.49 -3991.49 0)
(-1635.23 -3893.32 0)
(-2507.08 -3754.18 0)
(-2994.93 -3605.39 0)
(-3174.35 -3457.74 0)
(-3193.77 -3313.5 0)
(-3135.05 -3174.27 0)
(-3028.69 -3039.25 0)
(-2888.9 -2914.21 0)
(-2712.72 -2791.73 0)
(-2488.35 -2688.39 0)
(-2225.14 -2585.94 0)
(-1943.86 -2500.79 0)
(-1702.4 -2434.54 0)
(-1245.24 -2450.19 0)
(89344.1 -2575.91 0)
(-114724 -19387.5 0)
(108680 -22588.9 0)
(-84793.7 -2971.71 0)
(1106.06 -2931.39 0)
(1464.5 -2811.75 0)
(1716.3 -2792.02 0)
(1991.92 -2782.95 0)
(2290.68 -2810.22 0)
(2523.37 -2861.45 0)
(2708.75 -2923.81 0)
(2860.78 -3011.58 0)
(2972.27 -3108.86 0)
(3039.26 -3221.2 0)
(3024.82 -3343.95 0)
(2849.51 -3476.66 0)
(2368.58 -3617.14 0)
(1521.53 -3754.38 0)
(628.378 -3853.34 0)
(131.635 -3888.91 0)
(9.98284 -3893.08 0)
(0.1823 -3893.19 0)
(-0.181969 -3893.19 0)
(-9.96557 -3893.09 0)
(-131.434 -3888.95 0)
(-627.625 -3853.67 0)
(-1520.48 -3754.9 0)
(-2368.91 -3616.1 0)
(-2853.85 -3470.49 0)
(-3036 -3327.88 0)
(-3060.03 -3189.68 0)
(-3004.91 -3055.57 0)
(-2907.6 -2929.58 0)
(-2771.04 -2805.44 0)
(-2607.39 -2698.85 0)
(-2390.68 -2588.46 0)
(-2134.08 -2493.66 0)
(-1878.79 -2411.12 0)
(-1693.19 -2364.97 0)
(-1311.25 -2415.09 0)
(81324.6 -2489.4 0)
(-103889 -19418.6 0)
(95680.1 -21745.1 0)
(-75095.4 -2787.33 0)
(1213.25 -2730.02 0)
(1561.96 -2563.79 0)
(1728.9 -2545.31 0)
(1976.71 -2545.18 0)
(2239 -2608.16 0)
(2461.66 -2663.41 0)
(2635.88 -2745.9 0)
(2766.81 -2831.63 0)
(2871.28 -2934.84 0)
(2924.48 -3046.78 0)
(2901.38 -3169.24 0)
(2717.55 -3300.36 0)
(2234.36 -3439.55 0)
(1407.38 -3576.52 0)
(563.739 -3674.66 0)
(112.811 -3708.77 0)
(8.0059 -3712.54 0)
(0.133956 -3712.63 0)
(-0.133964 -3712.63 0)
(-8.00312 -3712.54 0)
(-112.742 -3708.79 0)
(-563.312 -3674.87 0)
(-1406.3 -3577.15 0)
(-2233.01 -3440.14 0)
(-2717.19 -3299.18 0)
(-2903.75 -3163.44 0)
(-2931.37 -3032.53 0)
(-2884.41 -2907.4 0)
(-2787.65 -2785.9 0)
(-2666.56 -2676.12 0)
(-2503.64 -2563.62 0)
(-2290.62 -2468.42 0)
(-2054.24 -2363.94 0)
(-1819.85 -2294.13 0)
(-1706.22 -2258.51 0)
(-1365.15 -2316.89 0)
(72958.9 -2359.18 0)
(-92755.9 -18883.4 0)
(84056.4 -20124.8 0)
(-66470.1 -2498.93 0)
(1321.47 -2449.17 0)
(1642.5 -2306.93 0)
(1734.23 -2303.04 0)
(1931.35 -2309.26 0)
(2176.75 -2384.64 0)
(2390.63 -2457.07 0)
(2546.65 -2540.53 0)
(2678.72 -2633.22 0)
(2764.94 -2733.08 0)
(2813.39 -2841.07 0)
(2780.47 -2956.13 0)
(2589.02 -3079.89 0)
(2102.46 -3213.28 0)
(1294.97 -3346.78 0)
(500.935 -3442 0)
(95.1321 -3473.83 0)
(6.25908 -3477.11 0)
(0.0948235 -3477.19 0)
(-0.0948963 -3477.19 0)
(-6.26103 -3477.11 0)
(-95.1275 -3473.83 0)
(-500.773 -3442.09 0)
(-1294.28 -3347.21 0)
(-2101.05 -3214.18 0)
(-2587.22 -3080.77 0)
(-2779.05 -2955.7 0)
(-2813.3 -2837.19 0)
(-2767.24 -2722.99 0)
(-2684.73 -2613.62 0)
(-2556.84 -2507.59 0)
(-2407.24 -2406.32 0)
(-2198.26 -2310.5 0)
(-1966.13 -2211.18 0)
(-1777.19 -2160.44 0)
(-1715.13 -2130.11 0)
(-1408.27 -2188.65 0)
(65360.5 -2204.79 0)
(-82564.7 -18118.3 0)
(72917.8 -17970.5 0)
(-58062.5 -2133.91 0)
(1398.26 -2108.13 0)
(1702.77 -2027.13 0)
(1726.66 -2021.56 0)
(1898.07 -2048.05 0)
(2096.57 -2117.21 0)
(2311.44 -2205.77 0)
(2466.14 -2289.48 0)
(2581.26 -2385.49 0)
(2670.98 -2479.63 0)
(2709.54 -2579.5 0)
(2671.24 -2684.18 0)
(2469.75 -2796.48 0)
(1977.18 -2919.46 0)
(1186.98 -3045.61 0)
(441.309 -3135.35 0)
(78.972 -3164.11 0)
(4.76994 -3166.85 0)
(0.0646326 -3166.91 0)
(-0.0646825 -3166.91 0)
(-4.77212 -3166.85 0)
(-78.9867 -3164.1 0)
(-441.29 -3135.37 0)
(-1186.68 -3045.8 0)
(-1976.26 -2920.13 0)
(-2468.11 -2797.72 0)
(-2669.03 -2685.69 0)
(-2707.12 -2580.46 0)
(-2668.97 -2478.8 0)
(-2580.09 -2381.13 0)
(-2466.79 -2279.13 0)
(-2313.71 -2187.61 0)
(-2102.58 -2086.72 0)
(-1909.64 -2005.68 0)
(-1741.72 -1954.76 0)
(-1733.41 -1942.28 0)
(-1437.11 -1975.85 0)
(57608.5 -1974.28 0)
(-72324 -16858.6 0)
(63802.2 -16179.5 0)
(-51184.5 -1863.22 0)
(1424.38 -1873.64 0)
(1725.92 -1833.05 0)
(1714.07 -1828.74 0)
(1839.19 -1824.59 0)
(2024.76 -1889.21 0)
(2224.62 -1940.67 0)
(2373.46 -2022.6 0)
(2495.48 -2100.9 0)
(2577.99 -2191.3 0)
(2616.28 -2284.75 0)
(2571.38 -2382.21 0)
(2362.3 -2484.79 0)
(1862.39 -2597.4 0)
(1086.93 -2714.51 0)
(386.746 -2797.24 0)
(64.7774 -2822.46 0)
(3.55823 -2824.68 0)
(0.0426177 -2824.71 0)
(-0.0426389 -2824.71 0)
(-3.55946 -2824.68 0)
(-64.7908 -2822.46 0)
(-386.775 -2797.24 0)
(-1086.86 -2714.56 0)
(-1861.98 -2597.72 0)
(-2361.31 -2485.68 0)
(-2569.69 -2383.81 0)
(-2613.93 -2287.01 0)
(-2575.17 -2193.9 0)
(-2492.32 -2103.11 0)
(-2370.36 -2023.72 0)
(-2221.83 -1939.17 0)
(-2022.95 -1884.57 0)
(-1838.97 -1813.68 0)
(-1716.1 -1809.13 0)
(-1735.45 -1804.92 0)
(-1439.1 -1824.55 0)
(51018.9 -1800.24 0)
(-63611.2 -15690.5 0)
(54711.6 -14194.1 0)
(-44276.8 -1625.47 0)
(1427.33 -1693.64 0)
(1746.04 -1704.01 0)
(1734.8 -1715.18 0)
(1839.8 -1696.02 0)
(1984.71 -1719.61 0)
(2182.9 -1750.52 0)
(2311.74 -1790.18 0)
(2418.7 -1846.05 0)
(2493.81 -1916.5 0)
(2525.57 -2010.35 0)
(2478.48 -2122.16 0)
(2262.39 -2244.53 0)
(1755.81 -2371.12 0)
(994.4 -2489.62 0)
(337.281 -2565.27 0)
(52.5383 -2586.32 0)
(2.60221 -2587.99 0)
(0.0272752 -2588.01 0)
(-0.027281 -2588.01 0)
(-2.60266 -2587.99 0)
(-52.5453 -2586.32 0)
(-337.31 -2565.26 0)
(-994.426 -2489.61 0)
(-1755.71 -2371.21 0)
(-2261.97 -2244.96 0)
(-2477.58 -2123.2 0)
(-2524.11 -2012.24 0)
(-2491.76 -1919.35 0)
(-2416.1 -1849.83 0)
(-2308.82 -1794.87 0)
(-2179.62 -1755.75 0)
(-1981.65 -1725.01 0)
(-1836.95 -1700.76 0)
(-1733.28 -1718.36 0)
(-1748.27 -1704.76 0)
(-1432.61 -1686.64 0)
(44246.7 -1612.39 0)
(-54691.5 -14018 0)
(47994.2 -12609.3 0)
(-39138.6 -1467.7 0)
(1348.69 -1599.06 0)
(1705.17 -1690.03 0)
(1721.78 -1740.06 0)
(1834.92 -1734.03 0)
(1972.23 -1733.32 0)
(2156.62 -1725.2 0)
(2281.41 -1721.4 0)
(2373.75 -1722.99 0)
(2419.65 -1746.15 0)
(2418.1 -1794.64 0)
(2345.72 -1875.06 0)
(2122.39 -1990.34 0)
(1626.21 -2133.92 0)
(899.841 -2276 0)
(293.566 -2360.68 0)
(42.8877 -2381.22 0)
(1.92599 -2382.6 0)
(0.0176842 -2382.62 0)
(-0.0176847 -2382.62 0)
(-1.92608 -2382.6 0)
(-42.8899 -2381.22 0)
(-293.581 -2360.67 0)
(-899.875 -2275.97 0)
(-1626.23 -2133.91 0)
(-2122.31 -1990.46 0)
(-2345.42 -1875.5 0)
(-2417.5 -1795.61 0)
(-2418.66 -1747.85 0)
(-2372.37 -1725.6 0)
(-2279.71 -1725.08 0)
(-2154.52 -1729.88 0)
(-1969.96 -1739.22 0)
(-1832.56 -1740.51 0)
(-1719.95 -1747.43 0)
(-1704.88 -1696.8 0)
(-1350.09 -1603.55 0)
(39136 -1469.59 0)
(-48003.3 -12580.4 0)
(40941.6 -7206.16 0)
(-33667 -1078.61 0)
(1213.09 -1194.14 0)
(1610.16 -1336.47 0)
(1692.41 -1431.61 0)
(1846.29 -1446.81 0)
(1993.22 -1446.6 0)
(2194.39 -1429.87 0)
(2313.87 -1394.76 0)
(2394.84 -1347.11 0)
(2424.76 -1278.14 0)
(2401.35 -1197.4 0)
(2289.9 -1138.98 0)
(2012.95 -1144.88 0)
(1480.54 -1233.98 0)
(775.885 -1365.79 0)
(235.879 -1449.64 0)
(31.41 -1468.54 0)
(1.25642 -1469.65 0)
(0.0100922 -1469.66 0)
(-0.010092 -1469.66 0)
(-1.25642 -1469.65 0)
(-31.4105 -1468.54 0)
(-235.885 -1449.64 0)
(-775.909 -1365.78 0)
(-1480.57 -1233.96 0)
(-2012.96 -1144.89 0)
(-2289.82 -1139.08 0)
(-2401.1 -1197.69 0)
(-2424.3 -1278.75 0)
(-2394.16 -1348.18 0)
(-2312.94 -1396.42 0)
(-2193.25 -1432.16 0)
(-1991.89 -1449.75 0)
(-1844.85 -1450.67 0)
(-1691.16 -1436.3 0)
(-1609.62 -1341.31 0)
(-1213.66 -1198.43 0)
(33669 -1081.98 0)
(-40951.5 -7204.16 0)
(38693.9 315386 0)
(-33345.2 35660.4 0)
(1100.21 36036.7 0)
(1476.33 42185.4 0)
(1615.44 47929.6 0)
(1820.47 55585.1 0)
(1988.56 63046.4 0)
(2206.57 71758.6 0)
(2361.17 80259.9 0)
(2486.13 89601.4 0)
(2563.92 98520.4 0)
(2552.2 107520 0)
(2396.32 115672 0)
(2030.84 122226 0)
(1413.34 126109 0)
(692.022 127384 0)
(194.555 127508 0)
(23.6096 127497 0)
(0.84485 127496 0)
(0.00595794 127496 0)
(-0.00595768 127496 0)
(-0.844836 127496 0)
(-23.6097 127497 0)
(-194.558 127508 0)
(-692.038 127384 0)
(-1413.37 126109 0)
(-2030.87 122226 0)
(-2396.31 115672 0)
(-2552.09 107520 0)
(-2563.67 98519.8 0)
(-2485.76 89600.3 0)
(-2360.64 80258.1 0)
(-2205.91 71756.1 0)
(-1987.79 63043.1 0)
(-1819.6 55581 0)
(-1614.57 47924.7 0)
(-1475.67 42180.3 0)
(-1100.19 36032 0)
(33348.6 35656.5 0)
(-38703.4 315382 0)
(375330 -388461 0)
(-302858 -41121.2 0)
(7500.85 -43607.5 0)
(13070.5 -51485.4 0)
(14604.8 -58914.2 0)
(16413.4 -68891.3 0)
(17578.6 -78677.6 0)
(18781.9 -90066.7 0)
(19507.8 -101366 0)
(19991.3 -113674 0)
(19692.2 -125608 0)
(18929.5 -137651 0)
(16460.4 -148735 0)
(12069.8 -157931 0)
(6451.47 -163882 0)
(2124.17 -166365 0)
(344.889 -166894 0)
(20.471 -166940 0)
(0.304002 -166941 0)
(0.000622409 -166941 0)
(-0.000622308 -166941 0)
(-0.303979 -166941 0)
(-20.4703 -166940 0)
(-344.884 -166894 0)
(-2124.16 -166365 0)
(-6451.47 -163882 0)
(-12069.9 -157931 0)
(-16460.6 -148735 0)
(-18929.7 -137651 0)
(-19692.6 -125608 0)
(-19991.8 -113674 0)
(-19508.3 -101366 0)
(-18782.3 -90066.4 0)
(-17578.9 -78677.4 0)
(-16413.5 -68891.5 0)
(-14604.5 -58914.9 0)
(-13069.8 -51486.8 0)
(-7500.21 -43609.6 0)
(302861 -41123.3 0)
(-375332 -388470 0)
(375330 388461 0)
(-302858 41121.2 0)
(7500.85 43607.5 0)
(13070.5 51485.4 0)
(14604.8 58914.2 0)
(16413.4 68891.3 0)
(17578.6 78677.6 0)
(18781.9 90066.7 0)
(19507.8 101366 0)
(19991.3 113674 0)
(19692.2 125608 0)
(18929.5 137651 0)
(16460.4 148735 0)
(12069.8 157931 0)
(6451.47 163882 0)
(2124.17 166365 0)
(344.889 166894 0)
(20.471 166940 0)
(0.304002 166941 0)
(0.000622388 166941 0)
(-0.000622316 166941 0)
(-0.303979 166941 0)
(-20.4703 166940 0)
(-344.884 166894 0)
(-2124.16 166365 0)
(-6451.47 163882 0)
(-12069.9 157931 0)
(-16460.6 148735 0)
(-18929.7 137651 0)
(-19692.6 125608 0)
(-19991.8 113674 0)
(-19508.3 101366 0)
(-18782.3 90066.4 0)
(-17578.9 78677.4 0)
(-16413.5 68891.5 0)
(-14604.5 58914.9 0)
(-13069.8 51486.8 0)
(-7500.21 43609.6 0)
(302861 41123.3 0)
(-375332 388470 0)
(38693.9 -315386 0)
(-33345.2 -35660.4 0)
(1100.21 -36036.7 0)
(1476.33 -42185.4 0)
(1615.44 -47929.6 0)
(1820.47 -55585.1 0)
(1988.56 -63046.4 0)
(2206.57 -71758.6 0)
(2361.17 -80259.9 0)
(2486.13 -89601.4 0)
(2563.92 -98520.4 0)
(2552.2 -107520 0)
(2396.32 -115672 0)
(2030.84 -122226 0)
(1413.34 -126109 0)
(692.022 -127384 0)
(194.555 -127508 0)
(23.6096 -127497 0)
(0.84485 -127496 0)
(0.00595793 -127496 0)
(-0.00595768 -127496 0)
(-0.844836 -127496 0)
(-23.6097 -127497 0)
(-194.558 -127508 0)
(-692.038 -127384 0)
(-1413.37 -126109 0)
(-2030.87 -122226 0)
(-2396.31 -115672 0)
(-2552.09 -107520 0)
(-2563.67 -98519.8 0)
(-2485.76 -89600.3 0)
(-2360.64 -80258.1 0)
(-2205.91 -71756.1 0)
(-1987.79 -63043.1 0)
(-1819.6 -55581 0)
(-1614.57 -47924.7 0)
(-1475.67 -42180.3 0)
(-1100.19 -36032 0)
(33348.6 -35656.5 0)
(-38703.4 -315382 0)
(40941.6 7206.16 0)
(-33667 1078.61 0)
(1213.09 1194.14 0)
(1610.16 1336.47 0)
(1692.41 1431.61 0)
(1846.29 1446.81 0)
(1993.22 1446.6 0)
(2194.39 1429.87 0)
(2313.87 1394.76 0)
(2394.84 1347.11 0)
(2424.76 1278.14 0)
(2401.35 1197.4 0)
(2289.9 1138.98 0)
(2012.95 1144.88 0)
(1480.54 1233.98 0)
(775.885 1365.79 0)
(235.879 1449.64 0)
(31.41 1468.54 0)
(1.25642 1469.65 0)
(0.0100922 1469.66 0)
(-0.010092 1469.66 0)
(-1.25642 1469.65 0)
(-31.4105 1468.54 0)
(-235.885 1449.64 0)
(-775.909 1365.78 0)
(-1480.57 1233.96 0)
(-2012.96 1144.89 0)
(-2289.82 1139.08 0)
(-2401.1 1197.69 0)
(-2424.3 1278.75 0)
(-2394.16 1348.18 0)
(-2312.94 1396.42 0)
(-2193.25 1432.16 0)
(-1991.89 1449.75 0)
(-1844.85 1450.67 0)
(-1691.16 1436.3 0)
(-1609.62 1341.31 0)
(-1213.66 1198.43 0)
(33669 1081.98 0)
(-40951.5 7204.16 0)
(47994.2 12609.3 0)
(-39138.6 1467.7 0)
(1348.69 1599.06 0)
(1705.17 1690.03 0)
(1721.78 1740.06 0)
(1834.92 1734.03 0)
(1972.23 1733.32 0)
(2156.62 1725.2 0)
(2281.41 1721.4 0)
(2373.75 1722.99 0)
(2419.65 1746.15 0)
(2418.1 1794.64 0)
(2345.72 1875.06 0)
(2122.39 1990.34 0)
(1626.21 2133.92 0)
(899.841 2276 0)
(293.566 2360.68 0)
(42.8877 2381.22 0)
(1.92599 2382.6 0)
(0.0176842 2382.62 0)
(-0.0176847 2382.62 0)
(-1.92608 2382.6 0)
(-42.8899 2381.22 0)
(-293.581 2360.67 0)
(-899.875 2275.97 0)
(-1626.23 2133.91 0)
(-2122.31 1990.46 0)
(-2345.42 1875.5 0)
(-2417.5 1795.61 0)
(-2418.66 1747.85 0)
(-2372.37 1725.6 0)
(-2279.71 1725.08 0)
(-2154.52 1729.88 0)
(-1969.96 1739.22 0)
(-1832.56 1740.51 0)
(-1719.95 1747.43 0)
(-1704.88 1696.8 0)
(-1350.09 1603.55 0)
(39136 1469.59 0)
(-48003.3 12580.4 0)
(54711.6 14194.1 0)
(-44276.8 1625.47 0)
(1427.33 1693.64 0)
(1746.04 1704.01 0)
(1734.8 1715.18 0)
(1839.8 1696.02 0)
(1984.71 1719.61 0)
(2182.9 1750.52 0)
(2311.74 1790.18 0)
(2418.7 1846.05 0)
(2493.81 1916.5 0)
(2525.57 2010.35 0)
(2478.48 2122.16 0)
(2262.39 2244.53 0)
(1755.81 2371.12 0)
(994.4 2489.62 0)
(337.281 2565.27 0)
(52.5383 2586.32 0)
(2.60221 2587.99 0)
(0.0272752 2588.01 0)
(-0.027281 2588.01 0)
(-2.60266 2587.99 0)
(-52.5453 2586.32 0)
(-337.31 2565.26 0)
(-994.426 2489.61 0)
(-1755.71 2371.21 0)
(-2261.97 2244.96 0)
(-2477.58 2123.2 0)
(-2524.11 2012.24 0)
(-2491.76 1919.35 0)
(-2416.1 1849.83 0)
(-2308.82 1794.87 0)
(-2179.62 1755.75 0)
(-1981.65 1725.01 0)
(-1836.95 1700.76 0)
(-1733.28 1718.36 0)
(-1748.27 1704.76 0)
(-1432.61 1686.64 0)
(44246.7 1612.39 0)
(-54691.5 14018 0)
(63802.2 16179.5 0)
(-51184.5 1863.22 0)
(1424.38 1873.64 0)
(1725.92 1833.05 0)
(1714.07 1828.74 0)
(1839.19 1824.59 0)
(2024.76 1889.21 0)
(2224.62 1940.67 0)
(2373.46 2022.6 0)
(2495.48 2100.9 0)
(2577.99 2191.3 0)
(2616.28 2284.75 0)
(2571.38 2382.21 0)
(2362.3 2484.79 0)
(1862.39 2597.4 0)
(1086.93 2714.51 0)
(386.746 2797.24 0)
(64.7774 2822.46 0)
(3.55823 2824.68 0)
(0.0426177 2824.71 0)
(-0.0426389 2824.71 0)
(-3.55946 2824.68 0)
(-64.7908 2822.46 0)
(-386.775 2797.24 0)
(-1086.86 2714.56 0)
(-1861.98 2597.72 0)
(-2361.31 2485.68 0)
(-2569.69 2383.81 0)
(-2613.93 2287.01 0)
(-2575.17 2193.9 0)
(-2492.32 2103.11 0)
(-2370.36 2023.72 0)
(-2221.83 1939.17 0)
(-2022.95 1884.57 0)
(-1838.97 1813.68 0)
(-1716.1 1809.13 0)
(-1735.45 1804.92 0)
(-1439.1 1824.55 0)
(51018.9 1800.24 0)
(-63611.2 15690.5 0)
(72917.8 17970.5 0)
(-58062.5 2133.91 0)
(1398.26 2108.13 0)
(1702.77 2027.13 0)
(1726.66 2021.56 0)
(1898.07 2048.05 0)
(2096.57 2117.21 0)
(2311.44 2205.77 0)
(2466.14 2289.48 0)
(2581.26 2385.49 0)
(2670.98 2479.63 0)
(2709.54 2579.5 0)
(2671.24 2684.18 0)
(2469.75 2796.48 0)