/*--------------------------------*- C++ -*----------------------------------*\
| =========                 |                                                 |
| \\      /  F ield         | OpenFOAM: The Open Source CFD Toolbox           |
|  \\    /   O peration     | Version:  v1912                                 |
|   \\  /    A nd           | Website:  www.openfoam.com                      |
|    \\/     M anipulation  |                                                 |
\*---------------------------------------------------------------------------*/
FoamFile
{
    version     2.0;
    format      ascii;
    class       volScalarField;
    location    "1.94";
    object      p;
}
// * * * * * * * * * * * * * * * * * * * * * * * * * * * * * * * * * * * * * //

dimensions      [1 -1 -2 0 0 0 0];


internalField   nonuniform List<scalar> 
1900
(
11515.2
10666.3
10716.6
10729.9
10731.6
10734.8
10752.2
10790.3
10829.5
10885.6
11515.1
10666.3
10716.7
10730.2
10731.6
10734.5
10748.8
10781.5
10817.1
10871.5
11515.1
10666.3
10716.8
10730.4
10731.3
10733.5
10747.6
10782.8
10825.2
10868
11515.1
10666.3
10716.7
10730.2
10731.6
10734.5
10748.8
10781.5
10817.1
10871.5
11515.2
10666.3
10716.6
10729.9
10731.6
10734.8
10752.2
10790.3
10829.5
10885.6
10831.2
10907.1
10931.3
10855.1
10054.4
10914.4
10989.9
11002.5
10997.3
10647.9
10904.5
10963.9
10962.6
10913.6
10543.4
10914.4
10989.9
11002.5
10997.3
10647.9
10831.2
10907.1
10931.3
10855.1
10054.4
12048.1
12078.4
12307.6
12333.4
12454.6
11883.6
12049.1
12303.5
12461.8
12326.1
11876.3
12056.8
12290.3
12381.3
11892.7
11883.6
12049.1
12303.5
12461.8
12326.1
12048.1
12078.4
12307.6
12333.4
12454.6
10267.8
5136.88
5575.6
5814.95
5800.36
5859.51
6044.31
6249.73
6567.55
6949.94
7391.16
7872.72
8378.91
8888.56
9364.07
9737.69
9939.62
9994.64
9999.89
10000
10000
9999.86
9993.76
9932.85
9716.3
9323.16
8826.79
8294.54
7761.08
7242.4
6746.65
6278.93
5843.36
5444.94
5091.7
4789.03
4532.27
4298.15
3833.98
17660.4
10540.8
5464.86
5761.34
5843.62
5815.03
5866.32
6047.35
6252.02
6568.53
6950.33
7391.36
7872.82
8378.96
8888.63
9364.19
9737.78
9939.64
9994.63
9999.88
10000
10000
9999.85
9993.76
9932.85
9716.3
9323.16
8826.79
8294.53
7761.08
7242.39
6746.65
6278.93
5843.36
5444.94
5091.7
4789.03
4532.27
4298.15
3833.98
17660.4
9987.73
5913.26
5868.78
5870.34
5821.55
5868.78
6048.45
6252.82
6568.91
6950.43
7391.4
7872.83
8378.95
8888.63
9364.21
9737.81
9939.65
9994.63
9999.88
10000
10000
9999.85
9993.75
9932.85
9716.3
9323.16
8826.79
8294.53
7761.08
7242.39
6746.65
6278.93
5843.36
5444.94
5091.7
4789.03
4532.27
4298.15
3833.98
17660.4
10540.8
5464.86
5761.34
5843.62
5815.03
5866.32
6047.35
6252.02
6568.53
6950.33
7391.36
7872.82
8378.96
8888.63
9364.19
9737.78
9939.64
9994.63
9999.88
10000
10000
9999.85
9993.76
9932.85
9716.3
9323.16
8826.79
8294.53
7761.08
7242.39
6746.65
6278.93
5843.36
5444.94
5091.7
4789.03
4532.27
4298.15
3833.98
17660.4
10267.8
5136.88
5575.6
5814.95
5800.36
5859.51
6044.31
6249.73
6567.55
6949.94
7391.16
7872.72
8378.91
8888.56
9364.07
9737.69
9939.62
9994.64
9999.89
10000
10000
9999.86
9993.76
9932.85
9716.3
9323.16
8826.79
8294.54
7761.08
7242.4
6746.65
6278.93
5843.36
5444.94
5091.7
4789.03
4532.27
4298.15
3833.98
17660.4
12090.2
4562.73
5344.13
5662.54
5750.15
5836.86
6019.54
6241.62
6562.17
6947.08
7389.25
7871.38
8377.82
8887.51
9362.92
9736.63
9939.08
9994.5
9999.85
9999.98
9999.98
9999.83
9993.73
9932.83
9716.28
9323.14
8826.77
8294.52
7761.07
7242.38
6746.64
6278.93
5843.36
5444.93
5091.7
4789.03
4532.26
4298.15
3833.98
17660.4
13698.3
4183.87
5077.11
5413.78
5618.31
5767.46
5964.3
6213.91
6544.34
6936.48
7381.78
7865.38
8372.29
8882.06
9357.83
9732.66
9936.67
9992.99
9998.49
9998.62
9998.62
9998.47
9992.38
9931.48
9714.98
9321.92
8825.68
8293.57
7760.27
7241.74
6746.14
6278.55
5843.08
5444.74
5091.56
4788.94
4532.2
4298.11
3833.96
17660.4
15453.1
4132.89
4920.99
5256.09
5478.13
5667.18
5887.11
6164.99
6505.95
6906.89
7355.37
7839.62
8345.67
8854.13
9329.21
9705
9911.04
9968.49
9974.17
9974.31
9974.31
9974.16
9968.08
9907.38
9691.56
9299.83
8805.4
8275.41
7744.39
7228.16
6734.78
6269.27
5835.67
5438.95
5087.13
4785.59
4529.64
4296.36
3832.89
17660
16553.1
4074.25
4770.43
5080.17
5312.31
5536.84
5778.17
6070.98
6417.09
6816.76
7260.22
7736.5
8233.54
8733.73
9202.55
9574.68
9779.62
9837.17
9842.92
9843.06
9843.06
9842.91
9836.94
9777.24
9564.85
9179.4
8693.24
8172.66
7651.6
7145.48
6662.09
6206.19
5781.67
5393.29
5048.87
4753.69
4502.95
4275.9
3818.6
17645.1
17124
3989.66
4601.82
4885.93
5131.99
5352.4
5585.24
5874.16
6215.91
6606.01
7035.27
7494.83
7974.31
8457.53
8911.47
9272.73
9472.19
9528.32
9533.93
9534.07
9534.07
9533.93
9528.23
9470.89
9266.27
8894.39
8425.37
7923.56
7421.88
6935.18
6470.9
6033.52
5626.72
5254.99
4925.69
4643.9
4405.57
4194.08
3754.84
17512.5
17800.3
3878.34
4411.2
4646.19
4842.33
5052.15
5290.78
5578.45
5912.77
6289.29
6700.68
7139.7
7597.59
8059.47
8493.83
8839.49
9029.82
9083.06
9088.33
9088.46
9088.46
9088.33
9083.05
9029.31
8835.93
8482.86
8036.73
7559.28
7082.13
6619.54
6178.61
5763.63
5378.07
5026.07
4714.44
4448.21
4226.51
4033.63
3618.55
17035.7
17000.7
3661.89
4138
4330.99
4512.84
4712.53
4950.92
5234.51
5559.92
5922.11
6315.24
6733.53
7169.45
7608.99
8021.79
8349.03
8527.74
8577
8581.78
8581.89
8581.89
8581.78
8577.02
8527.67
8347.49
8015.69
7594.75
7143.56
6692.46
6255.12
5838.35
5446.27
5082.15
4749.63
4455.08
4203.57
3999.64
3821.98
3428.1
16118.3
15932.4
3408.91
3839.8
4008.52
4175.97
4367.6
4603.85
4881.77
5196.93
5544.38
5919.65
6317.86
6732.09
7149.03
7539.35
7846.64
8012.17
8056.78
8060.97
8061.06
8061.06
8060.97
8056.81
8012.28
7846.24
7536.58
7141.27
6716.46
6291.3
5878.94
5485.93
5116.27
4772.94
4459.12
4180.73
3943.05
3755.86
3588.84
3212.21
14900.5
14530.9
3153.17
3551.91
3696.33
3847.92
4034.46
4267.97
4539.11
4842.84
5175.38
5533.01
5911.65
6304.64
6699.05
7066.52
7353.02
7504.51
7544.14
7547.71
7547.78
7547.78
7547.71
7544.16
7504.64
7353.12
7065.67
6695.61
6296.53
5896.53
5508.32
5138.28
4790.1
4466.91
4170.8
3908.03
3683.88
3509.88
3350.3
2990.45
13577
13014.2
2901.86
3266.09
3394.09
3538.57
3721.79
3951.82
4214.18
4506.44
4823.8
5164.29
5523.65
5895.69
6267.76
6612.29
6877.69
7014.85
7049.43
7052.39
7052.45
7052.45
7052.39
7049.44
7014.94
6877.93
6612.33
6266.75
5892.38
5516.46
5151.37
4803.08
4475.72
4171.01
3892.55
3644.44
3433.7
3269.13
3114.35
2773.87
12222.8
11532.5
2657.47
2983.94
3111.41
3254.89
3436.32
3658.66
3912.75
4191.37
4494.49
4817.59
5158.06
5509.39
5859.43
6181.34
6425.79
6548.73
6578.41
6580.8
6580.84
6580.84
6580.8
6578.41
6548.78
6425.98
6181.64
5859.53
5508.67
5155.61
4812.26
4484.99
4176.19
3890.51
3626.78
3394.75
3195.5
3038.53
2884.85
2567.74
10965.6
10050.6
2427.08
2719.98
2856.79
3000.78
3178.43
3392.87
3633.94
3901.72
4188.49
4495.36
4816.95
5148.15
5476.78
5776.7
6000.76
6109.94
6135
6136.88
6136.91
6136.91
6136.88
6135
6109.96
6000.86
5776.97
5477.19
5148.49
4816.81
4494.18
4185.53
3896.19
3624.77
3379.08
3159.41
2972.27
2820.6
2666.32
2374.65
9712.55
8787.07
2221.62
2487.85
2632.97
2775.65
2949.94
3150.74
3383.49
3634.69
3908.65
4198.1
4502.15
4814.06
5122.43
5401.48
5606.04
5702.17
5723
5724.44
5724.47
5724.47
5724.44
5723
5702.17
5606.08
5401.64
5122.79
4814.61
4502.8
4198.66
3908.8
3633.97
3381.56
3146.75
2943.91
2765.16
2618.96
2464.68
2196.91
8617.75
7613.83
2042.23
2284.66
2435.71
2576.06
2745.69
2937.1
3154.68
3395.75
3653.17
3928.25
4215.55
4510.31
4800.34
5060.22
5246.59
5330.6
5347.65
5348.73
5348.75
5348.75
5348.73
5347.65
5330.6
5246.59
5060.28
4800.55
4510.73
4216.23
3929.16
3654.24
3396.86
3155.56
2937.72
2745.39
2574.5
2432.63
2277.7
2033.64
7546.98
6697.12
1897.65
2120.07
2269.85
2409.35
2572.4
2752.56
2959.83
3185.6
3430.73
3690.87
3963.68
4242.84
4516.68
4759.56
4929.54
5002.68
5016.48
5017.27
5017.28
5017.28
5017.27
5016.48
5002.67
4929.53
4759.57
4516.76
4243.07
3964.12
3691.57
3431.72
3186.9
2961.38
2754.33
2574.23
2411.1
2271.25
2120.09
1896.58
6674.68
5806.09
1762.87
1965.42
2115.18
2252.29
2416.78
2589.72
2790.19
3007.81
3241.63
3489.96
3749.22
4014.62
4274.05
4501.8
4657.13
4720.64
4731.72
4732.29
4732.29
4732.29
4732.29
4731.72
4720.64
4657.12
4501.79
4274.07
4014.7
3749.42
3490.33
3242.23
3008.68
2791.33
2591.16
2418.42
2254.19
2117.04
1966.85
1763.7
5802.98
5203.21
1663.02
1845.03
1986.47
2120.71
2282.4
2453.18
2649.23
2861.89
3090.55
3330.93
3578.72
3828.47
4070.19
4280.33
4420.85
4476.04
4485.03
4485.45
4485.45
4485.45
4485.45
4485.03
4476.04
4420.84
4280.32
4070.19
3828.48
3578.78
3331.06
3090.8
2862.29
2649.79
2453.95
2283.35
2121.86
1987.69
1846.17
1663.88
5203.45
4586.77
1562.99
1722.3
1851.66
1976.44
2136.11
2302.96
2497.84
2709
2935.48
3172.74
3416.33
3659.88
3890.72
4084.63
4207.58
4252.26
4258.83
4259.11
4259.11
4259.11
4259.11
4258.83
4252.26
4207.58
4084.62
3890.71
3659.88
3416.34
3172.78
2935.58
2709.18
2498.11
2303.35
2136.61
1977.07
1852.37
1722.99
1563.54
4587.45
4267.12
1422.01
1568.91
1674.96
1778.27
1916.84
2062.62
2232.68
2419.37
2621.08
2836.51
3061.74
3288.39
3500.88
3672.77
3774.53
3808.16
3812.56
3812.72
3812.72
3812.72
3812.72
3812.56
3808.16
3774.53
3672.76
3500.88
3288.38
3061.73
2836.51
2621.1
2419.42
2232.78
2062.77
1917.06
1778.56
1675.32
1569.31
1422.38
4267.87
28377.8
4344.6
4687.48
5353.83
5996
6940.1
7890.37
9047.7
10228.4
11578.7
12931
14356.9
15714.9
16868.8
17611.2
17902.7
17955.6
17959
17959
17959
17959
17959
17959
17955.6
17902.7
17611.2
16868.8
15714.9
14356.9
12931
11578.6
10228.3
9047.57
7890.22
6939.94
5995.85
5353.71
4687.42
4344.56
28378
28377.8
4344.6
4687.48
5353.83
5996
6940.1
7890.37
9047.7
10228.4
11578.7
12931
14356.9
15714.9
16868.8
17611.2
17902.7
17955.6
17959
17959
17959
17959
17959
17959
17955.6
17902.7
17611.2
16868.8
15714.9
14356.9
12931
11578.6
10228.3
9047.57
7890.22
6939.94
5995.85
5353.71
4687.42
4344.56
28378
4267.12
1422.01
1568.91
1674.96
1778.27
1916.84
2062.62
2232.68
2419.37
2621.08
2836.51
3061.74
3288.39
3500.88
3672.77
3774.53
3808.16
3812.56
3812.72
3812.72
3812.72
3812.72
3812.56
3808.16
3774.53
3672.76
3500.88
3288.38
3061.73
2836.51
2621.1
2419.42
2232.78
2062.77
1917.06
1778.56
1675.32
1569.31
1422.38
4267.87
4586.77
1562.99
1722.3
1851.66
1976.44
2136.11
2302.96
2497.84
2709
2935.48
3172.74
3416.33
3659.88
3890.72
4084.63
4207.58
4252.26
4258.83
4259.11
4259.11
4259.11
4259.11
4258.83
4252.26
4207.58
4084.62
3890.71
3659.88
3416.34
3172.78
2935.58
2709.18
2498.11
2303.35
2136.61
1977.07
1852.37
1722.99
1563.54
4587.45
5203.21
1663.02
1845.03
1986.47
2120.71
2282.4
2453.18
2649.23
2861.89
3090.55
3330.93
3578.72
3828.47
4070.19
4280.33
4420.85
4476.04
4485.03
4485.45
4485.45
4485.45
4485.45
4485.03
4476.04
4420.84
4280.32
4070.19
3828.48
3578.78
3331.06
3090.8
2862.29
2649.79
2453.95
2283.35
2121.86
1987.69
1846.17
1663.88
5203.45
5806.09
1762.87
1965.42
2115.18
2252.29
2416.78
2589.72
2790.19
3007.81
3241.63
3489.96
3749.22
4014.62
4274.05
4501.8
4657.13
4720.64
4731.72
4732.29
4732.29
4732.29
4732.29
4731.72
4720.64
4657.12
4501.79
4274.07
4014.7
3749.42
3490.33
3242.23
3008.68
2791.33
2591.16
2418.42
2254.19
2117.04
1966.85
1763.7
5802.98
6697.12
1897.65
2120.07
2269.85
2409.35
2572.4
2752.56
2959.83
3185.6
3430.73
3690.87
3963.68
4242.84
4516.68
4759.56
4929.54
5002.68
5016.48
5017.27
5017.28
5017.28
5017.27
5016.48
5002.67
4929.53
4759.57
4516.76
4243.07
3964.12
3691.57
3431.72
3186.9
2961.38
2754.33
2574.23
2411.1
2271.25
2120.09
1896.58
6674.68
7613.83
2042.23
2284.66
2435.71
2576.06
2745.69
2937.1
3154.68
3395.75
3653.17
3928.25
4215.55
4510.31
4800.34
5060.22
5246.59
5330.6
5347.65
5348.73
5348.75
5348.75
5348.73
5347.65
5330.6
5246.59
5060.28
4800.55
4510.73
4216.23
3929.16
3654.24
3396.86
3155.56
2937.72
2745.39
2574.5
2432.63
2277.7
2033.64
7546.98
8787.07
2221.62
2487.85
2632.97
2775.65
2949.94
3150.74
3383.49
3634.69
3908.65
4198.1
4502.15
4814.06
5122.43
5401.48
5606.04
5702.17
5723
5724.44
5724.47
5724.47
5724.44
5723
5702.17
5606.08
5401.64
5122.79
4814.61
4502.8
4198.66
3908.8
3633.97
3381.56
3146.75
2943.91
2765.16
2618.96
2464.68
2196.91
8617.75
10050.6
2427.08
2719.98
2856.79
3000.78
3178.43
3392.87
3633.94
3901.72
4188.49
4495.36
4816.95
5148.15
5476.78
5776.7
6000.76
6109.94
6135
6136.88
6136.91
6136.91
6136.88
6135
6109.96
6000.86
5776.97
5477.19
5148.49
4816.81
4494.18
4185.53
3896.19
3624.77
3379.08
3159.41
2972.27
2820.6
2666.32
2374.65
9712.55
11532.5
2657.47
2983.94
3111.41
3254.89
3436.32
3658.66
3912.75
4191.37
4494.49
4817.59
5158.06
5509.39
5859.43
6181.34
6425.79
6548.73
6578.41
6580.8
6580.84
6580.84
6580.8
6578.41
6548.78
6425.98
6181.64
5859.53
5508.67
5155.61
4812.26
4484.99
4176.19
3890.51
3626.78
3394.75
3195.5
3038.53
2884.85
2567.74
10965.6
13014.2
2901.86
3266.09
3394.09
3538.57
3721.79
3951.82
4214.18
4506.44
4823.8
5164.29
5523.65
5895.69
6267.76
6612.29
6877.69
7014.85
7049.43
7052.39
7052.45
7052.45
7052.39
7049.44
7014.94
6877.93
6612.33
6266.75
5892.38
5516.46
5151.37
4803.08
4475.72
4171.01
3892.55
3644.44
3433.7
3269.13
3114.35
2773.87
12222.8
14530.9
3153.17
3551.91
3696.33
3847.92
4034.46
4267.97
4539.11
4842.84
5175.38
5533.01
5911.65
6304.64
6699.05
7066.52
7353.02
7504.51
7544.14
7547.71
7547.78
7547.78
7547.71
7544.16
7504.64
7353.12
7065.67
6695.61
6296.53
5896.53
5508.32
5138.28
4790.1
4466.91
4170.8
3908.03
3683.88
3509.88
3350.3
2990.45
13577
15932.4
3408.91
3839.8
4008.52
4175.97
4367.6
4603.85
4881.77
5196.93
5544.38
5919.65
6317.86
6732.09
7149.03
7539.35
7846.64
8012.17
8056.78
8060.97
8061.06
8061.06
8060.97
8056.81
8012.28
7846.24
7536.58
7141.27
6716.46
6291.3
5878.94
5485.93
5116.27
4772.94
4459.12
4180.73
3943.05
3755.86
3588.84
3212.21
14900.5
17000.7
3661.89
4138
4330.99
4512.84
4712.53
4950.92
5234.51
5559.92
5922.11
6315.24
6733.53
7169.45
7608.99
8021.79
8349.03
8527.74
8577
8581.78
8581.89
8581.89
8581.78
8577.02
8527.67
8347.49
8015.69
7594.75
7143.56
6692.46
6255.12
5838.35
5446.27
5082.15
4749.63
4455.08
4203.57
3999.64
3821.98
3428.1
16118.3
17800.3
3878.34
4411.2
4646.19
4842.33
5052.15
5290.78
5578.45
5912.77
6289.29
6700.68
7139.7
7597.59
8059.47
8493.83
8839.49
9029.82
9083.06
9088.33
9088.46
9088.46
9088.33
9083.05
9029.31
8835.93
8482.86
8036.73
7559.28
7082.13
6619.54
6178.61
5763.63
5378.07
5026.07
4714.44
4448.21
4226.51
4033.63
3618.55
17035.7
17124
3989.66
4601.82
4885.93
5131.99
5352.4
5585.24
5874.16
6215.91
6606.01
7035.27
7494.83
7974.31
8457.53
8911.47
9272.73
9472.19
9528.32
9533.93
9534.07
9534.07
9533.93
9528.23
9470.89
9266.27
8894.39
8425.37
7923.56
7421.88
6935.18
6470.9
6033.52
5626.72
5254.99
4925.69
4643.9
4405.57
4194.08
3754.84
17512.5
16553.1
4074.25
4770.43
5080.17
5312.31
5536.84
5778.17
6070.98
6417.09
6816.76
7260.22
7736.5
8233.54
8733.73
9202.55
9574.68
9779.62
9837.17
9842.92
9843.06
9843.06
9842.91
9836.94
9777.24
9564.85
9179.4
8693.24
8172.66
7651.6
7145.48
6662.09
6206.19
5781.67
5393.29
5048.87
4753.69
4502.95
4275.9
3818.6
17645.1
15453.1
4132.89
4920.99
5256.09
5478.13
5667.18
5887.11
6164.99
6505.95
6906.89
7355.37
7839.62
8345.67
8854.13
9329.21
9705
9911.04
9968.49
9974.17
9974.31
9974.31
9974.16
9968.08
9907.38
9691.56
9299.83
8805.4
8275.41
7744.39
7228.16
6734.78
6269.27
5835.67
5438.95
5087.13
4785.59
4529.64
4296.36
3832.89
17660
13698.3
4183.87
5077.11
5413.78
5618.31
5767.46
5964.3
6213.91
6544.34
6936.48
7381.78
7865.38
8372.29
8882.06
9357.83
9732.66
9936.67
9992.99
9998.49
9998.62
9998.62
9998.47
9992.38
9931.48
9714.98
9321.92
8825.68
8293.57
7760.27
7241.74
6746.14
6278.55
5843.08
5444.74
5091.56
4788.94
4532.2
4298.11
3833.96
17660.4
12090.2
4562.73
5344.13
5662.54
5750.15
5836.86
6019.54
6241.62
6562.17
6947.08
7389.25
7871.38
8377.82
8887.51
9362.92
9736.63
9939.08
9994.5
9999.85
9999.98
9999.98
9999.83
9993.73
9932.83
9716.28
9323.14
8826.77
8294.52
7761.07
7242.38
6746.64
6278.93
5843.36
5444.93
5091.7
4789.03
4532.26
4298.15
3833.98
17660.4
)
;

boundaryField
{
    inlet
    {
        type            fixedValue;
        value           uniform 10000;
    }
    outlet
    {
        type            fixedValue;
        value           uniform 1000;
    }
    obstacle
    {
        type            zeroGradient;
    }
    empty
    {
        type            empty;
    }
}


// ************************************************************************* //
