/*--------------------------------*- C++ -*----------------------------------*\
| =========                 |                                                 |
| \\      /  F ield         | OpenFOAM: The Open Source CFD Toolbox           |
|  \\    /   O peration     | Version:  v1912                                 |
|   \\  /    A nd           | Website:  www.openfoam.com                      |
|    \\/     M anipulation  |                                                 |
\*---------------------------------------------------------------------------*/
FoamFile
{
    version     2.0;
    format      ascii;
    class       volVectorField;
    location    "1.94";
    object      U;
}
// * * * * * * * * * * * * * * * * * * * * * * * * * * * * * * * * * * * * * //

dimensions      [0 1 -1 0 0 0 0];


internalField   nonuniform List<vector> 
1900
(
(-0.10093 -2.66567e-06 0)
(-0.0459055 -2.89001e-06 0)
(-0.0499841 -5.94977e-06 0)
(-0.0500075 -2.40066e-06 0)
(-0.0505318 1.14652e-05 0)
(-0.0511659 9.48434e-05 0)
(-0.0524426 0.00020381 0)
(-0.0547467 -0.000255296 0)
(-0.057178 -0.00226581 0)
(-0.0524559 -0.00943444 0)
(-0.100932 -2.47038e-06 0)
(-0.0459108 -2.28754e-06 0)
(-0.0500083 -7.04775e-06 0)
(-0.050027 -9.43687e-06 0)
(-0.0505391 1.31479e-05 0)
(-0.0510618 5.72573e-05 0)
(-0.0519387 0.000275647 0)
(-0.0538967 6.09099e-05 0)
(-0.0572617 -0.00130136 0)
(-0.0609304 -0.00785944 0)
(-0.100933 -3.12811e-14 0)
(-0.0459148 -1.94852e-14 0)
(-0.0500214 -5.52139e-14 0)
(-0.0500331 1.54991e-14 0)
(-0.0505243 -1.97063e-14 0)
(-0.0509672 -9.29715e-15 0)
(-0.0517542 -1.34947e-14 0)
(-0.0537924 -1.62458e-14 0)
(-0.0575481 -4.95504e-14 0)
(-0.0648627 -2.47266e-14 0)
(-0.100932 2.47038e-06 0)
(-0.0459108 2.28754e-06 0)
(-0.0500083 7.04775e-06 0)
(-0.050027 9.43687e-06 0)
(-0.0505391 -1.31479e-05 0)
(-0.0510618 -5.72573e-05 0)
(-0.0519387 -0.000275647 0)
(-0.0538967 -6.09099e-05 0)
(-0.0572617 0.00130136 0)
(-0.0609304 0.00785944 0)
(-0.10093 2.66567e-06 0)
(-0.0459055 2.89001e-06 0)
(-0.0499841 5.94977e-06 0)
(-0.0500075 2.40066e-06 0)
(-0.0505318 -1.14652e-05 0)
(-0.0511659 -9.48434e-05 0)
(-0.0524426 -0.00020381 0)
(-0.0547467 0.000255296 0)
(-0.057178 0.00226581 0)
(-0.0524559 0.00943444 0)
(-0.0555108 -0.026746 0)
(-0.0747333 -0.0357869 0)
(-0.0938846 -0.0517224 0)
(-0.126359 -0.0699579 0)
(-0.230787 -0.0615697 0)
(-0.0728699 -0.0185882 0)
(-0.092576 -0.0240134 0)
(-0.119915 -0.0365386 0)
(-0.172167 -0.0508703 0)
(-0.271365 -0.0494922 0)
(-0.0785776 -4.29299e-14 0)
(-0.0975743 -3.76861e-14 0)
(-0.128841 7.91979e-15 0)
(-0.186504 -1.03555e-14 0)
(-0.28146 5.57615e-15 0)
(-0.0728699 0.0185882 0)
(-0.092576 0.0240134 0)
(-0.119915 0.0365386 0)
(-0.172167 0.0508703 0)
(-0.271365 0.0494922 0)
(-0.0555108 0.026746 0)
(-0.0747333 0.0357869 0)
(-0.0938846 0.0517224 0)
(-0.126359 0.0699579 0)
(-0.230787 0.0615697 0)
(-0.281158 0.0128562 0)
(-0.239396 0.0205142 0)
(-0.221014 0.021836 0)
(-0.21734 0.0420769 0)
(-0.299604 0.099434 0)
(-0.292635 0.0120745 0)
(-0.248136 0.0130027 0)
(-0.215151 0.0142173 0)
(-0.178913 0.034654 0)
(-0.141032 0.106382 0)
(-0.299621 9.2676e-15 0)
(-0.251275 3.04091e-14 0)
(-0.209908 4.04394e-14 0)
(-0.152689 9.4413e-14 0)
(-0.0463605 6.53426e-14 0)
(-0.292635 -0.0120745 0)
(-0.248136 -0.0130027 0)
(-0.215151 -0.0142173 0)
(-0.178913 -0.034654 0)
(-0.141032 -0.106382 0)
(-0.281158 -0.0128562 0)
(-0.239396 -0.0205142 0)
(-0.221014 -0.021836 0)
(-0.21734 -0.0420769 0)
(-0.299604 -0.099434 0)
(-0.522749 0.10468 0)
(-0.112464 -0.131536 0)
(-0.177833 -0.164608 0)
(-0.282488 -0.0834051 0)
(-0.329936 -0.0272226 0)
(-0.344269 -0.011811 0)
(-0.337946 -0.0065386 0)
(-0.315849 -0.00309953 0)
(-0.286584 -0.00192312 0)
(-0.249802 -0.00136957 0)
(-0.209125 -0.000932932 0)
(-0.166561 -0.000624272 0)
(-0.123919 -0.000407948 0)
(-0.083004 -0.000255079 0)
(-0.0465168 -0.000138378 0)
(-0.0188978 -5.2724e-05 0)
(-0.00431928 -8.09614e-06 0)
(-0.00038386 1.85462e-06 0)
(-8.67329e-06 6.79525e-07 0)
(-2.87732e-08 5.531e-07 0)
(4.12446e-08 5.52302e-07 0)
(1.07806e-05 5.523e-07 0)
(0.000446309 5.52079e-07 0)
(0.00480831 5.50256e-07 0)
(0.0204914 5.4056e-07 0)
(0.0497297 5.15497e-07 0)
(0.0882049 4.7179e-07 0)
(0.131601 4.11691e-07 0)
(0.177575 3.41664e-07 0)
(0.22496 2.6935e-07 0)
(0.273057 2.01503e-07 0)
(0.321301 1.42977e-07 0)
(0.369091 9.61618e-08 0)
(0.415545 6.12289e-08 0)
(0.459321 3.71241e-08 0)
(0.49881 2.16148e-08 0)
(0.534478 1.27701e-08 0)
(0.56683 6.39492e-09 0)
(0.649801 2.80374e-09 0)
(1.24031 8.68589e-11 0)
(0.0208083 0.117638 0)
(0.171125 -0.095176 0)
(-0.041292 -0.115657 0)
(-0.25022 -0.0488239 0)
(-0.325325 -0.0140359 0)
(-0.342503 -0.00601029 0)
(-0.338063 -0.00324541 0)
(-0.315855 -0.00146721 0)
(-0.286431 -0.000935235 0)
(-0.249627 -0.000685116 0)
(-0.209004 -0.000471395 0)
(-0.166482 -0.000315869 0)
(-0.123864 -0.000206766 0)
(-0.0829645 -0.000129791 0)
(-0.0464895 -7.06439e-05 0)
(-0.0188843 -2.7123e-05 0)
(-0.00431591 -4.88727e-06 0)
(-0.000384269 7.1638e-07 0)
(-8.74297e-06 2.83294e-07 0)
(-2.93434e-08 2.22017e-07 0)
(4.10974e-08 2.21598e-07 0)
(1.07806e-05 2.21585e-07 0)
(0.000446309 2.21466e-07 0)
(0.00480831 2.20771e-07 0)
(0.0204914 2.16734e-07 0)
(0.0497297 2.06385e-07 0)
(0.0882049 1.88437e-07 0)
(0.131601 1.63862e-07 0)
(0.177575 1.35355e-07 0)
(0.22496 1.06077e-07 0)
(0.273057 7.87864e-08 0)
(0.321301 5.54241e-08 0)
(0.369091 3.69107e-08 0)
(0.415545 2.32366e-08 0)
(0.459321 1.39124e-08 0)
(0.49881 7.98681e-09 0)
(0.534478 4.64092e-09 0)
(0.56683 2.31729e-09 0)
(0.649801 1.00941e-09 0)
(1.24031 2.86098e-11 0)
(0.191753 2.99705e-14 0)
(0.266413 -1.50798e-14 0)
(0.0200041 -1.62018e-14 0)
(-0.234806 -2.42134e-15 0)
(-0.324098 2.37548e-14 0)
(-0.342062 3.6855e-14 0)
(-0.338167 2.30832e-14 0)
(-0.315804 -6.56713e-15 0)
(-0.286363 1.17532e-14 0)
(-0.249569 7.41885e-14 0)
(-0.208968 -3.01517e-15 0)
(-0.166459 -5.19497e-15 0)
(-0.123849 -2.13796e-14 0)
(-0.0829536 -2.15683e-14 0)
(-0.0464814 -7.87239e-15 0)
(-0.0188795 -2.10019e-13 0)
(-0.00431454 6.71093e-13 0)
(-0.000384238 6.85202e-13 0)
(-8.76683e-06 1.56598e-11 0)
(-2.96051e-08 -3.00557e-13 0)
(4.10244e-08 3.02532e-12 0)
(1.07807e-05 -2.65348e-12 0)
(0.000446309 -3.29714e-11 0)
(0.00480831 4.0168e-11 0)
(0.0204914 2.00223e-11 0)
(0.0497297 1.73551e-11 0)
(0.0882049 6.33629e-12 0)
(0.131601 5.13987e-12 0)
(0.177575 -7.90057e-13 0)
(0.22496 -7.41611e-12 0)
(0.273057 -5.96872e-12 0)
(0.321301 -1.21475e-11 0)
(0.369091 -8.10674e-12 0)
(0.415545 -7.86702e-12 0)
(0.459321 -4.55635e-12 0)
(0.49881 -2.52037e-12 0)
(0.534478 3.22994e-12 0)
(0.56683 1.23509e-12 0)
(0.649801 4.70235e-13 0)
(1.24031 6.07608e-15 0)
(0.0208083 -0.117638 0)
(0.171125 0.095176 0)
(-0.041292 0.115657 0)
(-0.25022 0.0488239 0)
(-0.325325 0.0140359 0)
(-0.342503 0.00601029 0)
(-0.338063 0.00324541 0)
(-0.315855 0.00146721 0)
(-0.286431 0.000935235 0)
(-0.249627 0.000685116 0)
(-0.209004 0.000471395 0)
(-0.166482 0.000315869 0)
(-0.123864 0.000206766 0)
(-0.0829645 0.000129791 0)
(-0.0464895 7.06439e-05 0)
(-0.0188843 2.7123e-05 0)
(-0.00431591 4.88728e-06 0)
(-0.000384268 -7.16379e-07 0)
(-8.74299e-06 -2.83238e-07 0)
(-2.93437e-08 -2.22018e-07 0)
(4.11009e-08 -2.21587e-07 0)
(1.07806e-05 -2.21595e-07 0)
(0.000446309 -2.21585e-07 0)
(0.00480831 -2.20626e-07 0)
(0.0204914 -2.16662e-07 0)
(0.0497297 -2.06321e-07 0)
(0.0882049 -1.88413e-07 0)
(0.131601 -1.63844e-07 0)
(0.177575 -1.35358e-07 0)
(0.22496 -1.06104e-07 0)
(0.273057 -7.88088e-08 0)
(0.321301 -5.54678e-08 0)
(0.369091 -3.69394e-08 0)
(0.415545 -2.3264e-08 0)
(0.459321 -1.39277e-08 0)
(0.49881 -7.99443e-09 0)
(0.534478 -4.62919e-09 0)
(0.56683 -2.31351e-09 0)
(0.649801 -1.00797e-09 0)
(1.24031 -2.85437e-11 0)
(-0.522749 -0.10468 0)
(-0.112464 0.131536 0)
(-0.177833 0.164608 0)
(-0.282488 0.0834051 0)
(-0.329936 0.0272226 0)
(-0.344269 0.011811 0)
(-0.337946 0.0065386 0)
(-0.315849 0.00309953 0)
(-0.286584 0.00192312 0)
(-0.249802 0.00136957 0)
(-0.209125 0.000932932 0)
(-0.166561 0.000624272 0)
(-0.123919 0.000407948 0)
(-0.083004 0.000255079 0)
(-0.0465168 0.000138378 0)
(-0.0188978 5.2724e-05 0)
(-0.00431928 8.09614e-06 0)
(-0.00038386 -1.85462e-06 0)
(-8.67332e-06 -6.79456e-07 0)
(-2.87738e-08 -5.53102e-07 0)
(4.1251e-08 -5.52288e-07 0)
(1.07806e-05 -5.52312e-07 0)
(0.000446309 -5.52235e-07 0)
(0.00480831 -5.50068e-07 0)
(0.0204914 -5.40462e-07 0)
(0.0497297 -5.15415e-07 0)
(0.0882049 -4.7176e-07 0)
(0.131601 -4.11668e-07 0)
(0.177575 -3.41668e-07 0)
(0.22496 -2.69386e-07 0)
(0.273057 -2.01532e-07 0)
(0.321301 -1.43036e-07 0)
(0.369091 -9.62002e-08 0)
(0.415545 -6.1266e-08 0)
(0.459321 -3.7145e-08 0)
(0.49881 -2.16256e-08 0)
(0.534478 -1.27534e-08 0)
(0.56683 -6.38956e-09 0)
(0.649801 -2.80188e-09 0)
(1.24031 -8.67621e-11 0)
(-1.11625 -0.158968 0)
(-0.431527 0.148483 0)
(-0.343007 0.199457 0)
(-0.333331 0.117671 0)
(-0.345988 0.0481497 0)
(-0.350575 0.0228754 0)
(-0.339806 0.0126527 0)
(-0.317111 0.00725843 0)
(-0.287358 0.00435222 0)
(-0.250374 0.00291251 0)
(-0.209497 0.00194742 0)
(-0.166799 0.00131964 0)
(-0.124075 0.000883247 0)
(-0.0831157 0.000565662 0)
(-0.0466087 0.000321867 0)
(-0.0189685 0.000136971 0)
(-0.0043508 3.41828e-05 0)
(-0.000390605 5.8725e-06 0)
(-9.06091e-06 1.62418e-06 0)
(-3.13638e-08 1.43964e-06 0)
(4.05705e-08 1.4386e-06 0)
(1.07808e-05 1.43857e-06 0)
(0.000446309 1.43822e-06 0)
(0.0048083 1.43296e-06 0)
(0.0204914 1.40862e-06 0)
(0.0497297 1.3461e-06 0)
(0.0882048 1.23679e-06 0)
(0.131601 1.08601e-06 0)
(0.177575 9.09198e-07 0)
(0.22496 7.24942e-07 0)
(0.273057 5.50066e-07 0)
(0.321301 3.96989e-07 0)
(0.369091 2.72283e-07 0)
(0.415545 1.77305e-07 0)
(0.459321 1.10149e-07 0)
(0.49881 6.58621e-08 0)
(0.534478 4.00514e-08 0)
(0.56683 2.05023e-08 0)
(0.649801 9.22818e-09 0)
(1.24031 2.77678e-10 0)
(-1.24406 -0.11237 0)
(-0.598877 0.153637 0)
(-0.468575 0.193491 0)
(-0.397693 0.121572 0)
(-0.378138 0.0644026 0)
(-0.363469 0.0362993 0)
(-0.347886 0.0205348 0)
(-0.321855 0.0131837 0)
(-0.289905 0.00788297 0)
(-0.251895 0.00517085 0)
(-0.210453 0.00347478 0)
(-0.167455 0.00240046 0)
(-0.124567 0.00164397 0)
(-0.0835194 0.00106323 0)
(-0.0469359 0.000614187 0)
(-0.019184 0.000313657 0)
(-0.00443585 0.000157328 0)
(-0.000402296 0.000104469 0)
(-9.41899e-06 9.84731e-05 0)
(-3.28581e-08 9.83326e-05 0)
(4.03126e-08 9.83321e-05 0)
(1.07803e-05 9.83316e-05 0)
(0.00044629 9.83093e-05 0)
(0.00480814 9.80465e-05 0)
(0.0204907 9.68428e-05 0)
(0.0497283 9.3814e-05 0)
(0.0882027 8.84833e-05 0)
(0.131598 8.09509e-05 0)
(0.177572 7.17212e-05 0)
(0.224957 6.14843e-05 0)
(0.273054 5.09633e-05 0)
(0.321298 4.08127e-05 0)
(0.369089 3.15488e-05 0)
(0.415543 2.35124e-05 0)
(0.459319 1.69563e-05 0)
(0.498809 1.18985e-05 0)
(0.534477 8.5473e-06 0)
(0.566829 5.10129e-06 0)
(0.649801 2.71061e-06 0)
(1.24031 1.60145e-07 0)
(-1.254 -0.0516821 0)
(-0.638185 0.116075 0)
(-0.512486 0.157596 0)
(-0.437946 0.102149 0)
(-0.405855 0.0648561 0)
(-0.381514 0.0429925 0)
(-0.358226 0.0274754 0)
(-0.328747 0.017744 0)
(-0.29367 0.0119598 0)
(-0.254237 0.00839357 0)
(-0.211963 0.00624846 0)
(-0.168545 0.00484821 0)
(-0.125421 0.00385649 0)
(-0.0841992 0.00310856 0)
(-0.0474377 0.00254339 0)
(-0.0194822 0.00213949 0)
(-0.0045406 0.00191065 0)
(-0.000416931 0.00184365 0)
(-9.93114e-06 0.00183677 0)
(-3.53828e-08 0.0018366 0)
(3.9707e-08 0.0018366 0)
(1.07688e-05 0.00183659 0)
(0.000445916 0.00183626 0)
(0.00480494 0.00183254 0)
(0.0204795 0.00181631 0)
(0.0497046 0.00177681 0)
(0.0881652 0.00170808 0)
(0.131548 0.00161016 0)
(0.177512 0.00148702 0)
(0.22489 0.00134462 0)
(0.272984 0.00118976 0)
(0.321228 0.00102948 0)
(0.369022 0.000870395 0)
(0.415482 0.000718296 0)
(0.459266 0.000580253 0)
(0.498766 0.000460309 0)
(0.534441 0.000374241 0)
(0.566784 0.000256243 0)
(0.649769 0.000156911 0)
(1.24031 1.83437e-05 0)
(-1.25569 -0.0269808 0)
(-0.648817 0.093954 0)
(-0.531906 0.131036 0)
(-0.466067 0.0896764 0)
(-0.42821 0.0656147 0)
(-0.39955 0.0464312 0)
(-0.369764 0.0339439 0)
(-0.336331 0.0252791 0)
(-0.298299 0.0200421 0)
(-0.256996 0.0168367 0)
(-0.213686 0.0148778 0)
(-0.16968 0.0136526 0)
(-0.126223 0.0128273 0)
(-0.0847963 0.0122267 0)
(-0.0478616 0.0117717 0)
(-0.0197136 0.0114614 0)
(-0.0046168 0.0113163 0)
(-0.000427346 0.0112805 0)
(-1.02928e-05 0.0112771 0)
(-3.71584e-08 0.011277 0)
(3.889e-08 0.011277 0)
(1.06899e-05 0.011277 0)
(0.000443486 0.0112753 0)
(0.00478539 0.0112574 0)
(0.0204145 0.0111842 0)
(0.0495737 0.0110149 0)
(0.0879627 0.0107288 0)
(0.131277 0.010325 0)
(0.177181 0.00981343 0)
(0.22451 0.00920912 0)
(0.272567 0.00852949 0)
(0.320789 0.00779368 0)
(0.368574 0.00702142 0)
(0.41504 0.0062323 0)
(0.45885 0.00546255 0)
(0.498401 0.0047375 0)
(0.534092 0.00420127 0)
(0.566297 0.0032244 0)
(0.649355 0.00221882 0)
(1.24025 0.000512248 0)
(-1.25086 0.00177608 0)
(-0.647835 0.0828296 0)
(-0.539329 0.114407 0)
(-0.484093 0.0854484 0)
(-0.445048 0.0732618 0)
(-0.413146 0.0583632 0)
(-0.378638 0.0493297 0)
(-0.341867 0.0426732 0)
(-0.301604 0.0387161 0)
(-0.258847 0.0364322 0)
(-0.2147 0.0351861 0)
(-0.170274 0.0345259 0)
(-0.126604 0.03417 0)
(-0.0850339 0.0339802 0)
(-0.0479862 0.0338989 0)
(-0.0197693 0.0338892 0)
(-0.00463382 0.0339055 0)
(-0.00042937 0.0339152 0)
(-1.03493e-05 0.0339166 0)
(-3.73996e-08 0.0339166 0)
(3.73899e-08 0.0339166 0)
(1.04363e-05 0.0339165 0)
(0.000435944 0.0339121 0)
(0.00472773 0.0338678 0)
(0.0202345 0.0336964 0)
(0.0492312 0.0333225 0)
(0.087452 0.0327174 0)
(0.130606 0.0318844 0)
(0.17636 0.0308401 0)
(0.223558 0.0296051 0)
(0.271502 0.0282011 0)
(0.319632 0.0266511 0)
(0.367348 0.024979 0)
(0.413778 0.0232089 0)
(0.457609 0.0214193 0)
(0.497236 0.0196641 0)
(0.532919 0.0183918 0)
(0.564457 0.0153721 0)
(0.647571 0.0115549 0)
(1.23979 0.00475667 0)
(-1.24919 0.0331111 0)
(-0.641985 0.0837418 0)
(-0.540902 0.112291 0)
(-0.493692 0.0957484 0)
(-0.455431 0.092705 0)
(-0.421424 0.0819536 0)
(-0.384773 0.0757717 0)
(-0.345683 0.0710032 0)
(-0.303714 0.0683207 0)
(-0.25985 0.0669567 0)
(-0.215083 0.0664088 0)
(-0.170324 0.0663315 0)
(-0.126484 0.0665095 0)
(-0.0848436 0.0668137 0)
(-0.047801 0.0671574 0)
(-0.019638 0.0674567 0)
(-0.00457838 0.0676362 0)
(-0.000420401 0.0676923 0)
(-1.00019e-05 0.0676985 0)
(-3.57234e-08 0.0676987 0)
(3.49181e-08 0.0676987 0)
(9.92092e-06 0.0676985 0)
(0.000420839 0.0676907 0)
(0.00461589 0.0676137 0)
(0.0199019 0.0673285 0)
(0.0486303 0.0667367 0)
(0.0865939 0.0658206 0)
(0.129509 0.0645989 0)
(0.175043 0.0630985 0)
(0.222037 0.0613453 0)
(0.269798 0.059362 0)
(0.317765 0.0571704 0)
(0.365342 0.0547898 0)
(0.411683 0.0522388 0)
(0.455525 0.0496421 0)
(0.495183 0.0470652 0)
(0.530825 0.0453274 0)
(0.561004 0.0401614 0)
(0.643997 0.0321272 0)
(1.23817 0.0199189 0)
(-1.24675 0.0732337 0)
(-0.636655 0.104667 0)
(-0.539736 0.130577 0)
(-0.499482 0.121485 0)
(-0.463452 0.12219 0)
(-0.427842 0.113327 0)
(-0.38948 0.109259 0)
(-0.348387 0.106158 0)
(-0.304989 0.1046 0)
(-0.260224 0.104051 0)
(-0.214942 0.104143 0)
(-0.169911 0.10462 0)
(-0.12595 0.105315 0)
(-0.0842897 0.106099 0)
(-0.0473035 0.106851 0)
(-0.0192937 0.107445 0)
(-0.00444138 0.10778 0)
(-0.000399812 0.107879 0)
(-9.25641e-06 0.10789 0)
(-3.2063e-08 0.10789 0)
(3.1182e-08 0.10789 0)
(9.12794e-06 0.10789 0)
(0.000397492 0.107879 0)
(0.00444491 0.107769 0)
(0.0194072 0.107371 0)
(0.0477699 0.106571 0)
(0.08541 0.105377 0)
(0.128041 0.103832 0)
(0.173317 0.101977 0)
(0.220073 0.0998447 0)
(0.267614 0.0974605 0)
(0.315377 0.094844 0)
(0.36278 0.0920145 0)
(0.409003 0.0889693 0)
(0.452883 0.0859188 0)
(0.492468 0.082805 0)
(0.528077 0.081089 0)
(0.556779 0.0747762 0)
(0.63964 0.0624578 0)
(1.23457 0.0496477 0)
(-1.23807 0.117273 0)
(-0.631305 0.135767 0)
(-0.538383 0.162006 0)
(-0.503359 0.154482 0)
(-0.469144 0.155704 0)
(-0.432472 0.148709 0)
(-0.392726 0.146342 0)
(-0.350029 0.144662 0)
(-0.305516 0.144186 0)
(-0.260039 0.144456 0)
(-0.214342 0.145226 0)
(-0.169077 0.146296 0)
(-0.125 0.147521 0)
(-0.0833267 0.148775 0)
(-0.0464595 0.149916 0)
(-0.0187333 0.150785 0)
(-0.00422883 0.151259 0)
(-0.00036945 0.151395 0)
(-8.21356e-06 0.151409 0)
(-2.71424e-08 0.15141 0)
(2.6523e-08 0.15141 0)
(8.10694e-06 0.151409 0)
(0.000366747 0.151395 0)
(0.0042182 0.151257 0)
(0.0187583 0.150752 0)
(0.0466674 0.149758 0)
(0.0839334 0.148311 0)
(0.126256 0.146485 0)
(0.171259 0.144336 0)
(0.217769 0.141905 0)
(0.265081 0.139218 0)
(0.312635 0.136304 0)
(0.359844 0.133161 0)
(0.405953 0.129791 0)
(0.449901 0.126477 0)
(0.489316 0.122908 0)
(0.524721 0.121412 0)
(0.552795 0.115374 0)
(0.635852 0.0995126 0)
(1.22823 0.0901606 0)
(-1.22726 0.168493 0)
(-0.628251 0.172628 0)
(-0.537207 0.19704 0)
(-0.505485 0.189455 0)
(-0.472873 0.190456 0)
(-0.435363 0.185927 0)
(-0.394388 0.185213 0)
(-0.350546 0.185016 0)
(-0.305212 0.185613 0)
(-0.259226 0.186753 0)
(-0.213184 0.188219 0)
(-0.167719 0.189897 0)
(-0.123559 0.19165 0)
(-0.0819327 0.193351 0)
(-0.0452854 0.19485 0)
(-0.0179831 0.195963 0)
(-0.00395578 0.196554 0)
(-0.000332266 0.196718 0)
(-7.0061e-06 0.196734 0)
(-2.17743e-08 0.196734 0)
(2.14559e-08 0.196734 0)
(6.94265e-06 0.196734 0)
(0.000330301 0.196718 0)
(0.00394346 0.196556 0)
(0.0179696 0.195957 0)
(0.0453434 0.194783 0)
(0.0821935 0.193102 0)
(0.124191 0.191021 0)
(0.168922 0.188614 0)
(0.215187 0.185926 0)
(0.262284 0.182998 0)
(0.309611 0.17982 0)
(0.356681 0.176487 0)
(0.402615 0.172811 0)
(0.446637 0.169325 0)
(0.485938 0.165433 0)
(0.520859 0.163893 0)
(0.549406 0.159029 0)
(0.633171 0.141011 0)
(1.21938 0.13811 0)
(-1.21276 0.214137 0)
(-0.6261 0.21042 0)
(-0.536527 0.232532 0)
(-0.506628 0.226041 0)
(-0.474833 0.226657 0)
(-0.436428 0.224573 0)
(-0.394618 0.225685 0)
(-0.349773 0.226579 0)
(-0.30404 0.228376 0)
(-0.257625 0.230272 0)
(-0.211379 0.23245 0)
(-0.16579 0.234697 0)
(-0.121634 0.236942 0)
(-0.0801472 0.239049 0)
(-0.0438289 0.240861 0)
(-0.0170802 0.242178 0)
(-0.00363927 0.24286 0)
(-0.000291277 0.243042 0)
(-5.75723e-06 0.243059 0)
(-1.66115e-08 0.243059 0)
(1.64943e-08 0.243059 0)
(5.72936e-06 0.243059 0)
(0.000290223 0.243042 0)
(0.00363047 0.242863 0)
(0.0170581 0.242185 0)
(0.0438185 0.240849 0)
(0.0802146 0.238952 0)
(0.121878 0.236634 0)
(0.166336 0.23399 0)
(0.212374 0.231083 0)
(0.259231 0.227909 0)
(0.306443 0.224604 0)
(0.353208 0.220925 0)
(0.39923 0.217301 0)
(0.443043 0.213382 0)
(0.482327 0.209385 0)
(0.517162 0.207868 0)
(0.546708 0.204048 0)
(0.631016 0.184611 0)
(1.20624 0.18551 0)
(-1.19631 0.264666 0)
(-0.624976 0.248605 0)
(-0.537455 0.268498 0)
(-0.507433 0.264699 0)
(-0.474459 0.264168 0)
(-0.43613 0.265288 0)
(-0.393071 0.266936 0)
(-0.348303 0.269666 0)
(-0.301819 0.271881 0)
(-0.255399 0.274733 0)
(-0.208957 0.277441 0)
(-0.163374 0.28022 0)
(-0.1193 0.282879 0)
(-0.0780377 0.285329 0)
(-0.0421428 0.2874 0)
(-0.0160599 0.288882 0)
(-0.00329464 0.289629 0)
(-0.000249053 0.289821 0)
(-4.56139e-06 0.289838 0)
(-1.2066e-08 0.289838 0)
(1.20429e-08 0.289838 0)
(4.55377e-06 0.289838 0)
(0.000248659 0.289821 0)
(0.0032901 0.289631 0)
(0.0160424 0.288891 0)
(0.0421127 0.287412 0)
(0.0780174 0.285317 0)
(0.119336 0.282779 0)
(0.163532 0.279921 0)
(0.209318 0.27678 0)
(0.256066 0.273499 0)
(0.302884 0.269792 0)
(0.349961 0.266433 0)
(0.395245 0.261968 0)
(0.43959 0.25861 0)
(0.47814 0.25371 0)
(0.51393 0.252962 0)
(0.544625 0.249572 0)
(0.629257 0.229783 0)
(1.19228 0.242362 0)
(-1.17526 0.301647 0)
(-0.624573 0.285871 0)
(-0.539495 0.306531 0)
(-0.507551 0.304653 0)
(-0.472723 0.304222 0)
(-0.433785 0.306391 0)
(-0.391433 0.310535 0)
(-0.345124 0.312599 0)
(-0.299412 0.316545 0)
(-0.252362 0.31944 0)
(-0.206107 0.322827 0)
(-0.16053 0.325952 0)
(-0.116634 0.328964 0)
(-0.0756624 0.331686 0)
(-0.0402721 0.333967 0)
(-0.0149524 0.335577 0)
(-0.00293517 0.336368 0)
(-0.000207677 0.336562 0)
(-3.48361e-06 0.336578 0)
(-8.34145e-09 0.336578 0)
(8.34718e-09 0.336578 0)
(3.48398e-06 0.336578 0)
(0.000207622 0.336562 0)
(0.00293367 0.33637 0)
(0.0149429 0.335583 0)
(0.0402459 0.333983 0)
(0.0756192 0.331709 0)
(0.116586 0.328971 0)
(0.160502 0.325894 0)
(0.206137 0.322622 0)
(0.252493 0.318972 0)
(0.299719 0.315662 0)
(0.345626 0.311099 0)
(0.392259 0.308131 0)
(0.435087 0.303008 0)
(0.474212 0.298844 0)
(0.510808 0.298173 0)
(0.543246 0.295567 0)
(0.6273 0.274153 0)
(1.17211 0.286493 0)
(-1.15396 0.358173 0)
(-0.624603 0.32609 0)
(-0.540471 0.345939 0)
(-0.507329 0.34668 0)
(-0.4689 0.344573 0)
(-0.432183 0.350555 0)
(-0.386745 0.352131 0)
(-0.343151 0.357838 0)
(-0.295442 0.360333 0)
(-0.24934 0.364533 0)
(-0.202753 0.367889 0)
(-0.157419 0.371388 0)
(-0.113705 0.374601 0)
(-0.0730791 0.377524 0)
(-0.038256 0.379961 0)
(-0.0137843 0.381666 0)
(-0.00257241 0.382482 0)
(-0.00016878 0.382672 0)
(-2.56235e-06 0.382686 0)
(-5.48015e-09 0.382687 0)
(5.48791e-09 0.382687 0)
(2.56427e-06 0.382686 0)
(0.000168835 0.382672 0)
(0.00257241 0.382482 0)
(0.013781 0.381669 0)
(0.0382407 0.379972 0)
(0.073043 0.377551 0)
(0.113644 0.374643 0)
(0.157335 0.371435 0)
(0.202656 0.367916 0)
(0.249245 0.364491 0)
(0.295362 0.360153 0)
(0.343148 0.357421 0)
(0.386766 0.351359 0)
(0.432473 0.349302 0)
(0.469147 0.342483 0)
(0.508544 0.343842 0)
(0.541929 0.341054 0)
(0.625996 0.320176 0)
(1.15275 0.349706 0)
(-1.12858 0.390268 0)
(-0.622594 0.362958 0)
(-0.539633 0.385326 0)
(-0.504644 0.386591 0)
(-0.465348 0.386112 0)
(-0.426176 0.390483 0)
(-0.384639 0.39676 0)
(-0.337468 0.399303 0)
(-0.292511 0.404715 0)
(-0.245174 0.408052 0)
(-0.199229 0.41204 0)
(-0.15394 0.415551 0)
(-0.110552 0.418916 0)
(-0.070316 0.421933 0)
(-0.0361204 0.424456 0)
(-0.012576 0.426212 0)
(-0.00221557 0.427031 0)
(-0.000133488 0.427211 0)
(-1.81195e-06 0.427223 0)
(-3.41266e-09 0.427224 0)
(3.4168e-09 0.427224 0)
(1.81329e-06 0.427223 0)
(0.000133547 0.427211 0)
(0.002216 0.427031 0)
(0.0125758 0.426213 0)
(0.0361142 0.424462 0)
(0.070295 0.421951 0)
(0.110507 0.418956 0)
(0.153864 0.41562 0)
(0.199118 0.412141 0)
(0.245023 0.408175 0)
(0.292333 0.404853 0)
(0.337238 0.399405 0)
(0.384438 0.396821 0)
(0.425909 0.390377 0)
(0.465149 0.385806 0)
(0.504752 0.385957 0)
(0.53982 0.383917 0)
(0.622943 0.360927 0)
(1.1279 0.386571 0)
(-1.10135 0.456349 0)
(-0.622272 0.408491 0)
(-0.539556 0.42851 0)
(-0.50447 0.430248 0)
(-0.461055 0.427328 0)
(-0.424724 0.434456 0)
(-0.378735 0.436509 0)
(-0.335331 0.442635 0)
(-0.287917 0.44587 0)
(-0.241878 0.450243 0)
(-0.195684 0.453927 0)
(-0.150735 0.457515 0)
(-0.107484 0.460744 0)
(-0.0675594 0.463688 0)
(-0.033976 0.466181 0)
(-0.011384 0.467915 0)
(-0.00188101 0.468705 0)
(-0.000103113 0.468868 0)
(-1.23695e-06 0.468878 0)
(-2.02335e-09 0.468879 0)
(2.02464e-09 0.468879 0)
(1.23753e-06 0.468878 0)
(0.000103146 0.468868 0)
(0.00188137 0.468705 0)
(0.0113849 0.467915 0)
(0.033975 0.466183 0)
(0.0675508 0.463697 0)
(0.10746 0.460769 0)
(0.150688 0.457567 0)
(0.195605 0.454019 0)
(0.241759 0.450385 0)
(0.287758 0.446076 0)
(0.335117 0.442896 0)
(0.378491 0.436841 0)
(0.424413 0.434809 0)
(0.460764 0.427714 0)
(0.504264 0.430562 0)
(0.539413 0.428619 0)
(0.62233 0.408184 0)
(1.10125 0.454895 0)
(-1.07468 0.475329 0)
(-0.616352 0.439452 0)
(-0.534811 0.463375 0)
(-0.499314 0.465135 0)
(-0.454698 0.462822 0)
(-0.417438 0.46894 0)
(-0.373646 0.473408 0)
(-0.328827 0.477742 0)
(-0.283454 0.482697 0)
(-0.237097 0.486739 0)
(-0.19152 0.490839 0)
(-0.146765 0.494556 0)
(-0.104047 0.498168 0)
(-0.0646733 0.501373 0)
(-0.0317902 0.503936 0)
(-0.0102095 0.505623 0)
(-0.00157186 0.506341 0)
(-7.77576e-05 0.506479 0)
(-8.16755e-07 0.506487 0)
(-1.14726e-09 0.506487 0)
(1.14759e-09 0.506487 0)
(8.16915e-07 0.506487 0)
(7.777e-05 0.506479 0)
(0.00157204 0.506341 0)
(0.0102103 0.505622 0)
(0.0317911 0.503936 0)
(0.0646718 0.501375 0)
(0.104039 0.498178 0)
(0.146744 0.494584 0)
(0.191479 0.490894 0)
(0.237032 0.486837 0)
(0.283359 0.482852 0)
(0.328698 0.477959 0)
(0.373487 0.47371 0)
(0.417237 0.469312 0)
(0.454501 0.463277 0)
(0.499115 0.465628 0)
(0.534666 0.463873 0)
(0.616354 0.439741 0)
(1.07474 0.475109 0)
(-1.03835 0.542563 0)
(-0.616428 0.486924 0)
(-0.536913 0.508114 0)
(-0.502956 0.509781 0)
(-0.457334 0.506408 0)
(-0.420021 0.511046 0)
(-0.374334 0.512031 0)
(-0.329931 0.515386 0)
(-0.283013 0.517844 0)
(-0.236453 0.521044 0)
(-0.190413 0.524673 0)
(-0.145673 0.528788 0)
(-0.102673 0.53267 0)
(-0.0630859 0.535954 0)
(-0.0304013 0.538571 0)
(-0.00940698 0.540277 0)
(-0.00135687 0.540983 0)
(-6.07243e-05 0.541108 0)
(-5.57284e-07 0.541115 0)
(-6.67917e-10 0.541115 0)
(6.6792e-10 0.541115 0)
(5.57299e-07 0.541115 0)
(6.07267e-05 0.541108 0)
(0.00135692 0.540983 0)
(0.00940735 0.540276 0)
(0.0304022 0.53857 0)
(0.0630867 0.535954 0)
(0.102672 0.532672 0)
(0.145666 0.528797 0)
(0.190397 0.524696 0)
(0.236424 0.521091 0)
(0.282967 0.517924 0)
(0.32986 0.51551 0)
(0.374242 0.512213 0)
(0.41989 0.511288 0)
(0.457187 0.506717 0)
(0.502781 0.510141 0)
(0.536765 0.508503 0)
(0.616369 0.487222 0)
(1.03842 0.542586 0)
(-1.01351 0.532456 0)
(-0.609307 0.510198 0)
(-0.532441 0.538248 0)
(-0.500854 0.542553 0)
(-0.455273 0.540805 0)
(-0.417645 0.545112 0)
(-0.372339 0.546254 0)
(-0.327086 0.54802 0)
(-0.280441 0.549828 0)
(-0.232832 0.551523 0)
(-0.185924 0.554055 0)
(-0.139846 0.557024 0)
(-0.0961535 0.560611 0)
(-0.0571306 0.56474 0)
(-0.0262502 0.568724 0)
(-0.00757408 0.571445 0)
(-0.000991765 0.572497 0)
(-3.93418e-05 0.572663 0)
(-3.1465e-07 0.572671 0)
(-3.26415e-10 0.572671 0)
(3.2633e-10 0.572671 0)
(3.14643e-07 0.572671 0)
(3.93416e-05 0.572663 0)
(0.000991774 0.572497 0)
(0.00757421 0.571445 0)
(0.0262507 0.568724 0)
(0.0571317 0.564739 0)
(0.0961549 0.560611 0)
(0.139847 0.557026 0)
(0.185922 0.554064 0)
(0.232826 0.551543 0)
(0.280428 0.549864 0)
(0.327068 0.548082 0)
(0.372309 0.546343 0)
(0.417609 0.54524 0)
(0.455224 0.540966 0)
(0.500796 0.542761 0)
(0.532401 0.538478 0)
(0.609312 0.510383 0)
(1.01357 0.532523 0)
(-0.973598 0.606899 0)
(-0.583533 0.586044 0)
(-0.505408 0.612743 0)
(-0.481067 0.619979 0)
(-0.432184 0.620479 0)
(-0.398415 0.626243 0)
(-0.350383 0.627682 0)
(-0.307079 0.63061 0)
(-0.259837 0.632508 0)
(-0.21386 0.634617 0)
(-0.167801 0.636583 0)
(-0.123742 0.638912 0)
(-0.0828214 0.641998 0)
(-0.0474959 0.646022 0)
(-0.0207429 0.650066 0)
(-0.00556504 0.652767 0)
(-0.000659982 0.653721 0)
(-2.31369e-05 0.653851 0)
(-1.6026e-07 0.653856 0)
(-1.42812e-10 0.653856 0)
(1.42761e-10 0.653856 0)
(1.60253e-07 0.653856 0)
(2.31364e-05 0.653851 0)
(0.000659979 0.653721 0)
(0.00556507 0.652767 0)
(0.0207431 0.650066 0)
(0.0474965 0.646021 0)
(0.0828226 0.641997 0)
(0.123743 0.638911 0)
(0.167804 0.636583 0)
(0.213864 0.63462 0)
(0.259843 0.632517 0)
(0.307092 0.630628 0)
(0.350403 0.627711 0)
(0.398444 0.62629 0)
(0.432224 0.620542 0)
(0.481113 0.620065 0)
(0.505467 0.612845 0)
(0.583596 0.586131 0)
(0.973622 0.606951 0)
(-1.03543 1.03927 0)
(-0.603932 0.976147 0)
(-0.526318 1.01865 0)
(-0.536963 1.04328 0)
(-0.466214 1.08036 0)
(-0.444277 1.10789 0)
(-0.374147 1.13493 0)
(-0.334867 1.16033 0)
(-0.270242 1.1796 0)
(-0.223873 1.19947 0)
(-0.166727 1.21313 0)
(-0.11801 1.22532 0)
(-0.0713391 1.23345 0)
(-0.0342128 1.23881 0)
(-0.0108799 1.24153 0)
(-0.00179706 1.24253 0)
(-0.000114066 1.24273 0)
(-2.03852e-06 1.24274 0)
(-7.44233e-09 1.24274 0)
(-4.00446e-12 1.24274 0)
(3.9805e-12 1.24274 0)
(7.44191e-09 1.24274 0)
(2.03845e-06 1.24274 0)
(0.000114064 1.24273 0)
(0.00179705 1.24253 0)
(0.0108799 1.24153 0)
(0.0342128 1.23881 0)
(0.0713393 1.23345 0)
(0.118011 1.22532 0)
(0.166727 1.21313 0)
(0.223874 1.19946 0)
(0.270243 1.1796 0)
(0.334869 1.16033 0)
(0.374149 1.13493 0)
(0.444278 1.10789 0)
(0.466215 1.08036 0)
(0.536961 1.04328 0)
(0.526317 1.01865 0)
(0.603928 0.976148 0)
(1.03543 1.03927 0)
(-1.03543 -1.03927 0)
(-0.603932 -0.976147 0)
(-0.526318 -1.01865 0)
(-0.536963 -1.04328 0)
(-0.466214 -1.08036 0)
(-0.444277 -1.10789 0)
(-0.374147 -1.13493 0)
(-0.334867 -1.16033 0)
(-0.270242 -1.1796 0)
(-0.223873 -1.19947 0)
(-0.166727 -1.21313 0)
(-0.11801 -1.22532 0)
(-0.0713391 -1.23345 0)
(-0.0342128 -1.23881 0)
(-0.0108799 -1.24153 0)
(-0.00179706 -1.24253 0)
(-0.000114066 -1.24273 0)
(-2.03852e-06 -1.24274 0)
(-7.44216e-09 -1.24274 0)
(-3.89506e-12 -1.24274 0)
(4.07317e-12 -1.24274 0)
(7.44198e-09 -1.24274 0)
(2.03845e-06 -1.24274 0)
(0.000114064 -1.24273 0)
(0.00179705 -1.24253 0)
(0.0108799 -1.24153 0)
(0.0342128 -1.23881 0)
(0.0713393 -1.23345 0)
(0.118011 -1.22532 0)
(0.166727 -1.21313 0)
(0.223874 -1.19946 0)
(0.270243 -1.1796 0)
(0.334869 -1.16033 0)
(0.374149 -1.13493 0)
(0.444278 -1.10789 0)
(0.466215 -1.08036 0)
(0.536961 -1.04328 0)
(0.526317 -1.01865 0)
(0.603928 -0.976148 0)
(1.03543 -1.03927 0)
(-0.973598 -0.606899 0)
(-0.583533 -0.586044 0)
(-0.505408 -0.612743 0)
(-0.481067 -0.619979 0)
(-0.432184 -0.620479 0)
(-0.398415 -0.626243 0)
(-0.350383 -0.627682 0)
(-0.307079 -0.63061 0)
(-0.259837 -0.632508 0)
(-0.21386 -0.634617 0)
(-0.167801 -0.636583 0)
(-0.123742 -0.638912 0)
(-0.0828214 -0.641998 0)
(-0.0474959 -0.646022 0)
(-0.0207429 -0.650066 0)
(-0.00556504 -0.652767 0)
(-0.000659982 -0.653721 0)
(-2.31369e-05 -0.653851 0)
(-1.6026e-07 -0.653856 0)
(-1.42859e-10 -0.653856 0)
(1.42813e-10 -0.653856 0)
(1.60253e-07 -0.653856 0)
(2.31364e-05 -0.653851 0)
(0.000659979 -0.653721 0)
(0.00556507 -0.652767 0)
(0.0207431 -0.650066 0)
(0.0474965 -0.646021 0)
(0.0828226 -0.641997 0)
(0.123743 -0.638911 0)
(0.167804 -0.636583 0)
(0.213864 -0.63462 0)
(0.259843 -0.632517 0)
(0.307092 -0.630628 0)
(0.350403 -0.627711 0)
(0.398444 -0.62629 0)
(0.432224 -0.620542 0)
(0.481113 -0.620065 0)
(0.505467 -0.612845 0)
(0.583596 -0.586131 0)
(0.973622 -0.606951 0)
(-1.01351 -0.532456 0)
(-0.609307 -0.510198 0)
(-0.532441 -0.538248 0)
(-0.500854 -0.542553 0)
(-0.455273 -0.540805 0)
(-0.417645 -0.545112 0)
(-0.372339 -0.546254 0)
(-0.327086 -0.54802 0)
(-0.280441 -0.549828 0)
(-0.232832 -0.551523 0)
(-0.185924 -0.554055 0)
(-0.139846 -0.557024 0)
(-0.0961535 -0.560611 0)
(-0.0571306 -0.56474 0)
(-0.0262502 -0.568724 0)
(-0.00757408 -0.571445 0)
(-0.000991765 -0.572497 0)
(-3.93418e-05 -0.572663 0)
(-3.1465e-07 -0.572671 0)
(-3.26491e-10 -0.572671 0)
(3.26375e-10 -0.572671 0)
(3.14643e-07 -0.572671 0)
(3.93416e-05 -0.572663 0)
(0.000991774 -0.572497 0)
(0.00757421 -0.571445 0)
(0.0262507 -0.568724 0)
(0.0571317 -0.564739 0)