/*--------------------------------*- C++ -*----------------------------------*\
| =========                 |                                                 |
| \\      /  F ield         | OpenFOAM: The Open Source CFD Toolbox           |
|  \\    /   O peration     | Version:  v1912                                 |
|   \\  /    A nd           | Website:  www.openfoam.com                      |
|    \\/     M anipulation  |                                                 |
\*---------------------------------------------------------------------------*/
FoamFile
{
    version     2.0;
    format      ascii;
    class       volTensorField;
    location    "7.42";
    object      grad(U);
}
// * * * * * * * * * * * * * * * * * * * * * * * * * * * * * * * * * * * * * //

dimensions      [0 0 -1 0 0 0 0];


internalField   nonuniform List<tensor> 
1900
(
(-3.02651 -1.13442e-05 0 4.7677e-06 -2.76596e-06 0 0 0 0)
(3.59882 -3.262e-06 0 1.38138e-05 -1.98943e-05 0 0 0 0)
(0.395448 2.02844e-05 0 -7.81089e-06 -1.06732e-05 0 0 0 0)
(-0.0128342 -0.00011617 0 -5.46908e-06 1.72411e-05 0 0 0 0)
(-0.00343513 -0.000284169 0 -9.39187e-05 -0.000261442 0 0 0 0)
(-0.0068264 -0.000539379 0 -0.000400983 -0.000684018 0 0 0 0)
(-5.5414e-05 0.00224356 0 -0.00114703 -0.00124565 0 0 0 0)
(0.00717285 0.0155075 0 -0.000578973 0.00347452 0 0 0 0)
(-0.0305465 0.0586297 0 0.00738782 0.0251924 0 0 0 0)
(-0.017072 0.211187 0 0.0569578 0.116974 0 0 0 0)
(-3.02649 -1.1316e-05 0 5.57255e-06 3.24405e-06 0 0 0 0)
(3.5988 -4.64521e-06 0 2.22056e-05 8.10018e-06 0 0 0 0)
(0.395429 1.68509e-05 0 -1.63375e-05 6.50605e-06 0 0 0 0)
(-0.0129203 -0.000134599 0 -1.77387e-05 -1.21842e-05 0 0 0 0)
(-0.00383064 -0.00041709 0 -0.000213394 0.000122676 0 0 0 0)
(-0.00787951 -0.000444832 0 -0.000788687 0.000271985 0 0 0 0)
(-0.000233404 0.00191498 0 -0.00155835 0.000662054 0 0 0 0)
(0.0157077 0.0109306 0 0.000605608 -0.00197157 0 0 0 0)
(0.0269903 0.0548701 0 0.0106121 -0.0148455 0 0 0 0)
(0.105446 0.149104 0 0.0902805 -0.0606013 0 0 0 0)
(-3.02648 -2.23692e-13 0 3.68629e-14 -9.56179e-07 0 0 0 0)
(3.59879 7.59064e-14 0 -1.12418e-13 2.35882e-05 0 0 0 0)
(0.395408 -6.05805e-14 0 -3.93023e-15 8.33425e-06 0 0 0 0)
(-0.0130313 1.6499e-14 0 1.02322e-13 -1.01136e-05 0 0 0 0)
(-0.00420608 1.56438e-13 0 -3.83537e-14 0.000277533 0 0 0 0)
(-0.00817135 1.88272e-13 0 -1.76183e-14 0.000824066 0 0 0 0)
(0.00133888 -3.66081e-14 0 -3.49655e-14 0.0011672 0 0 0 0)
(0.0193433 -1.86834e-13 0 -9.6494e-14 -0.0030059 0 0 0 0)
(0.0591284 -1.12021e-13 0 8.26704e-15 -0.0206939 0 0 0 0)
(0.162037 -7.537e-14 0 2.87314e-14 -0.112746 0 0 0 0)
(-3.02649 1.1316e-05 0 -5.57255e-06 3.24405e-06 0 0 0 0)
(3.5988 4.64522e-06 0 -2.22056e-05 8.10018e-06 0 0 0 0)
(0.395429 -1.68509e-05 0 1.63375e-05 6.50605e-06 0 0 0 0)
(-0.0129203 0.000134599 0 1.77388e-05 -1.21842e-05 0 0 0 0)
(-0.00383064 0.00041709 0 0.000213394 0.000122676 0 0 0 0)
(-0.00787951 0.000444832 0 0.000788687 0.000271985 0 0 0 0)
(-0.000233404 -0.00191498 0 0.00155835 0.000662054 0 0 0 0)
(0.0157077 -0.0109306 0 -0.000605608 -0.00197157 0 0 0 0)
(0.0269903 -0.0548701 0 -0.0106121 -0.0148455 0 0 0 0)
(0.105446 -0.149104 0 -0.0902805 -0.0606013 0 0 0 0)
(-3.02651 1.13442e-05 0 -4.7677e-06 -2.76596e-06 0 0 0 0)
(3.59882 3.262e-06 0 -1.38138e-05 -1.98943e-05 0 0 0 0)
(0.395448 -2.02844e-05 0 7.81089e-06 -1.06732e-05 0 0 0 0)
(-0.0128342 0.00011617 0 5.46908e-06 1.72411e-05 0 0 0 0)
(-0.00343513 0.000284169 0 9.39187e-05 -0.000261442 0 0 0 0)
(-0.0068264 0.000539379 0 0.000400983 -0.000684018 0 0 0 0)
(-5.5414e-05 -0.00224356 0 0.00114703 -0.00124565 0 0 0 0)
(0.00717285 -0.0155075 0 0.000578973 0.00347452 0 0 0 0)
(-0.0305465 -0.0586297 0 -0.00738782 0.0251924 0 0 0 0)
(-0.017072 -0.211187 0 -0.0569578 0.116974 0 0 0 0)
(0.179481 0.416065 -2.05892e-17 0.238595 -0.229139 3.08838e-17 5.80278e-17 7.37593e-17 -5.58071e-33)
(0.519617 0.569119 0 0.294201 -0.458066 0 -1.60101e-16 -4.76268e-17 0)
(0.808552 0.977601 0 0.292412 -0.790773 0 -2.61672e-16 -8.53882e-17 0)
(1.4993 1.59525 0 0.342842 -1.44857 0 0 0 0)
(2.79993 1.85256 2.70122e-16 1.13734 -3.51807 -4.05182e-16 -2.28861e-15 -1.52574e-15 -7.32166e-32)
(0.251637 0.159639 0 0.183661 -0.208161 0 1.01142e-16 3.23539e-17 0)
(0.435246 0.166494 0 0.151818 -0.3393 0 1.60101e-16 4.76268e-17 0)
(0.755199 0.417917 0 0.06374 -0.62948 0 2.61672e-16 8.53882e-17 0)
(1.68453 0.868114 0 -0.0606539 -1.33183 0 0 0 0)
(3.70422 0.581464 0 -0.176821 -3.10059 0 0 0 0)
(0.310358 -1.23487e-13 0 9.08412e-14 -0.299867 0 0 0 0)
(0.460101 1.96805e-13 0 1.11452e-13 -0.37567 0 0 0 0)
(0.747856 1.87612e-13 0 3.86623e-13 -0.631201 0 0 0 0)
(1.58932 -4.40842e-14 0 1.88914e-13 -1.35615 0 0 0 0)
(3.45843 1.9336e-13 0 3.04932e-13 -3.64961 0 0 0 0)
(0.251637 -0.159639 0 -0.183661 -0.208161 0 1.01142e-16 -3.23539e-17 0)
(0.435246 -0.166494 0 -0.151818 -0.3393 0 1.60101e-16 -4.76268e-17 0)
(0.755199 -0.417917 0 -0.06374 -0.62948 0 2.61672e-16 -8.53882e-17 0)
(1.68453 -0.868114 0 0.0606539 -1.33183 0 0 0 0)
(3.70422 -0.581464 0 0.176821 -3.10059 0 0 0 0)
(0.179481 -0.416065 2.05892e-17 -0.238595 -0.229139 3.08838e-17 -2.60312e-16 1.38467e-16 -5.58071e-33)
(0.519617 -0.569119 0 -0.294201 -0.458066 0 -1.60101e-16 4.76268e-17 0)
(0.808552 -0.977601 0 -0.292412 -0.790773 0 -2.61672e-16 8.53882e-17 0)
(1.4993 -1.59525 9.57487e-17 -0.342842 -1.44857 1.43623e-16 -9.37421e-16 6.24948e-16 -2.59527e-32)
(2.79993 -1.85256 -2.70122e-16 -1.13734 -3.51807 -4.05182e-16 2.28861e-15 -1.52574e-15 -7.32166e-32)
(4.22953 -0.783972 -1.86432e-17 0.0118723 4.48933 -1.67789e-16 2.28182e-15 -1.18292e-16 5.05325e-33)
(2.32096 -0.312593 9.06904e-18 0.54243 2.77844 8.16214e-17 -2.56526e-15 1.99536e-16 2.45817e-33)
(1.37779 0.00387167 0 0.733665 2.25902 0 0 0 0)
(1.02271 0.077081 -5.42901e-18 0.670375 2.13195 -4.88611e-17 2.39838e-15 -2.00036e-16 1.47154e-33)
(0.764682 0.456285 4.45143e-18 0.487348 1.71475 4.00629e-17 -1.13354e-15 1.25949e-16 1.20656e-33)
(4.35053 -0.951838 0 -0.693881 -0.681368 0 -1.14109e-15 -8.45621e-18 0)
(2.60783 -0.202124 0 0.318852 0.995884 0 1.2908e-15 -5.79295e-17 0)
(1.46436 -0.00983461 0 0.451116 1.39741 0 0 0 0)
(0.965302 -0.0599871 0 0.362094 1.3823 0 -1.51433e-15 7.44855e-17 0)
(0.574965 0.183705 0 0.190774 1.42588 0 2.8849e-16 -7.84076e-18 0)
(4.35293 8.20216e-14 0 2.4641e-13 0.801174 0 0 0 0)
(2.58446 -1.23005e-13 0 1.29734e-13 1.85523 0 0 0 0)
(1.35782 5.20141e-14 0 8.03113e-15 1.98411 0 0 0 0)
(0.892827 5.73685e-15 0 -1.20467e-13 1.74548 0 6.10096e-16 8.19696e-30 0)
(0.543657 -1.6179e-13 0 -1.90211e-14 2.08277 0 -5.7698e-16 3.33675e-30 0)
(4.35053 0.951838 0 0.693881 -0.681368 0 -1.14109e-15 8.45621e-18 0)
(2.60783 0.202124 0 -0.318852 0.995884 0 1.2908e-15 5.79295e-17 0)
(1.46436 0.00983461 0 -0.451116 1.39741 0 0 0 0)
(0.965302 0.0599871 0 -0.362094 1.3823 0 -1.51433e-15 -7.44855e-17 0)
(0.574965 -0.183705 0 -0.190774 1.42588 0 2.8849e-16 7.84076e-18 0)
(4.22953 0.783972 0 -0.0118723 4.48933 0 1.14109e-15 -8.45621e-18 0)
(2.32096 0.312593 -9.06904e-18 -0.54243 2.77844 8.16214e-17 -1.63362e-17 8.36774e-17 2.45817e-33)
(1.37779 -0.00387167 0 -0.733665 2.25902 0 0 0 0)
(1.02271 -0.077081 5.42901e-18 -0.670375 2.13195 -4.88611e-17 2.01895e-17 -6.42074e-17 1.47154e-33)
(0.764682 -0.456285 -4.45143e-18 -0.487348 1.71475 4.00629e-17 1.13354e-15 1.25949e-16 1.20656e-33)
(0.341526 0.515008 0 -0.31897 -0.189549 0 0 0 0)
(0.137285 0.130612 0 -0.529092 -0.132376 0 0 0 0)
(0.102001 -0.0866025 0 -0.479989 0.122814 0 0 0 0)
(0.183579 -0.154994 0 -0.424131 0.169373 0 0 0 0)
(0.320654 -0.0683986 0 -0.303044 0.286123 0 0 0 0)
(0.189886 0.0983743 0 -0.036433 0.114025 0 0 0 0)
(-0.508759 0.159198 0 0.105055 -0.0942591 0 0 0 0)
(-1.67232 -0.032352 0 0.548075 0.0537602 0 0 0 0)
(-1.33617 -0.171727 0 0.317191 0.225175 0 0 0 0)
(-0.341673 -0.121663 0 0.124131 0.438414 0 0 0 0)
(-0.504281 -0.153577 0 0.130867 0.691576 0 0 0 0)
(-0.77078 -0.10285 0 0.141203 0.959362 0 0 0 0)
(-0.901363 0.00974038 0 0.12874 1.03241 0 0 0 0)
(-0.875018 0.0941342 0 0.153874 0.907031 0 0 0 0)
(-0.749221 0.108431 0 0.152618 0.672401 0 0 0 0)
(-0.633021 0.0894065 0 0.125088 0.475145 0 0 0 0)
(-0.640657 0.0604315 0 0.0995933 0.373665 0 0 0 0)
(-0.777771 0.0442845 0 0.0736864 0.295434 0 0 0 0)
(-0.772936 0.0336275 0 0.0443634 0.22069 0 0 0 0)
(-0.440685 0.0170519 0 0.0167804 0.172169 0 0 0 0)
(-0.108168 0.00509551 0 0.00401775 0.1583 0 0 0 0)
(0.00414691 0.00237562 0 0.00310711 0.153612 0 0 0 0)
(0.0229273 0.00244476 0 0.00317103 0.149861 0 0 0 0)
(0.0335262 0.0018993 0 0.00200391 0.14609 0 0 0 0)
(0.0549435 0.000827102 0 0.00135367 0.144151 0 0 0 0)
(0.081671 -8.4002e-05 0 0.00121448 0.143137 0 0 0 0)
(0.101275 3.54262e-05 0 0.00156262 0.144063 0 0 0 0)
(0.10789 -0.000207699 0 0.00182232 0.142895 0 0 0 0)
(0.105312 -7.46462e-05 0 0.00219177 0.144771 0 0 0 0)
(0.102003 -0.000637414 0 0.00238743 0.143207 0 0 0 0)
(0.0997205 -0.000217309 0 0.00252677 0.146908 0 0 0 0)
(0.0687947 -0.000291047 0 0.00254232 0.14409 0 0 0 0)
(-0.16334 -0.000976942 0 0.00351375 0.148069 0 0 0 0)
(-0.757497 0.000809219 0 0.00527115 0.148387 0 0 0 0)
(-0.96357 0.000435032 0 0.00626103 0.147866 0 0 0 0)
(-0.503485 0.00018692 0 0.00790701 0.147045 0 0 0 0)
(-0.193601 -0.00328924 0 0.00772406 0.150725 0 0 0 0)
(-0.139391 -0.0194037 0 0.0188941 0.150073 0 0 0 0)
(-0.162521 -0.00257038 0 -0.0152454 0.194735 0 0 0 0)
(-0.102371 0.0131899 0 -0.0418144 0.1616 0 0 0 0)
(0.129713 0.326965 0 -0.149405 0.371837 0 0 0 0)
(0.0554704 0.13123 0 -0.380807 -0.20226 0 0 0 0)
(0.0980929 0.0088688 0 -0.4386 -0.077143 0 0 0 0)
(0.193183 -0.118777 0 -0.497841 0.0954361 0 0 0 0)
(0.354866 -0.096956 0 -0.424542 0.455648 0 0 0 0)
(0.209515 0.0282769 0 -0.353882 0.330556 0 0 0 0)
(-0.44078 0.14024 0 -0.342184 0.117486 0 0 0 0)
(-1.58151 0.0275719 0 -0.111726 -0.216688 0 0 0 0)
(-1.3541 -0.100163 0 0.12648 0.228696 0 0 0 0)
(-0.396538 -0.063098 0 -0.0593617 0.373623 0 0 0 0)
(-0.522036 -0.0759118 0 -0.0555148 0.646911 0 0 0 0)
(-0.773244 -0.0497385 0 -0.028827 0.901545 0 0 0 0)
(-0.861579 0.00824495 0 0.0526021 1.00046 0 0 0 0)
(-0.815042 0.0413255 0 0.202336 0.868062 0 0 0 0)
(-0.722499 0.0393404 0 0.274577 0.67687 0 0 0 0)
(-0.637078 0.0442429 0 0.144531 0.49533 0 0 0 0)
(-0.656648 0.0374233 0 0.0546996 0.369536 0 0 0 0)
(-0.7996 0.0240271 0 0.0348062 0.287597 0 0 0 0)
(-0.789479 0.0163111 0 0.0247434 0.217307 0 0 0 0)
(-0.446245 0.00815319 0 0.00864673 0.172002 0 0 0 0)
(-0.108762 0.00254149 0 0.00205312 0.158691 0 0 0 0)
(0.004296 0.00116798 0 0.0018892 0.154486 0 0 0 0)
(0.0228322 0.00123689 0 0.00216266 0.150525 0 0 0 0)
(0.0334445 0.000970549 0 0.00119457 0.146083 0 0 0 0)
(0.0550901 0.000414433 0 0.00111343 0.143996 0 0 0 0)
(0.0818666 -6.14455e-05 0 0.00142006 0.143239 0 0 0 0)
(0.101475 1.26559e-05 0 0.00185472 0.144285 0 0 0 0)
(0.108093 -0.000101557 0 0.00221926 0.143118 0 0 0 0)
(0.105509 -3.24466e-05 0 0.00263384 0.144999 0 0 0 0)
(0.102176 -0.000317096 0 0.00298584 0.143374 0 0 0 0)
(0.0998859 -9.76569e-05 0 0.00334149 0.14719 0 0 0 0)
(0.0690779 -0.000141206 0 0.00374264 0.144121 0 0 0 0)
(-0.16275 -0.000439049 0 0.00473984 0.148191 0 0 0 0)
(-0.756558 0.000532896 0 0.00670822 0.147479 0 0 0 0)
(-0.962283 0.000277268 0 0.00949872 0.145409 0 0 0 0)
(-0.501969 0.000269036 0 0.0138266 0.145984 0 0 0 0)
(-0.191773 -0.00206184 0 0.0195352 0.144766 0 0 0 0)
(-0.144066 -0.0104054 0 0.0286475 0.157291 0 0 0 0)
(-0.171853 -0.0009901 0 0.00867311 0.211467 0 0 0 0)
(-0.105978 0.00699048 0 -0.00463437 0.166126 0 0 0 0)
(0.157127 1.8653e-13 0 4.0214e-13 0.662028 0 0 0 0)
(0.0531553 -3.62098e-14 0 1.08026e-12 0.0167562 0 0 0 0)
(0.0679552 -3.78143e-13 0 1.89243e-13 -0.240175 0 0 0 0)
(0.187669 -1.59216e-13 0 1.81357e-13 -0.0442168 0 0 0 0)
(0.362533 7.73512e-13 0 3.78485e-13 0.576417 0 0 0 0)
(0.213845 1.28223e-12 0 5.75613e-13 0.622356 0 0 0 0)
(-0.438313 3.02341e-12 0 1.30893e-12 0.382014 0 0 0 0)
(-1.53598 -2.53607e-12 0 1.70082e-11 -0.341795 0 0 0 0)
(-1.32093 -4.11257e-12 0 -1.05306e-11 0.192457 0 0 0 0)
(-0.394617 1.7422e-12 0 -1.0842e-11 0.346822 0 0 0 0)
(-0.495398 2.65931e-12 0 -3.24393e-11 0.626256 0 0 0 0)
(-0.739328 2.08666e-12 0 -3.80693e-11 0.868716 0 0 0 0)
(-0.834115 -2.28901e-12 0 -1.61526e-11 0.968208 0 0 0 0)
(-0.810443 -2.36921e-12 0 -3.23289e-13 0.812032 0 0 0 0)
(-0.766038 2.55225e-12 0 5.92763e-12 0.684095 0 0 0 0)
(-0.696986 3.81542e-12 0 8.99296e-12 0.541567 0 0 0 0)
(-0.672577 -1.7524e-12 0 2.2508e-11 0.379925 0 0 0 0)
(-0.786486 -6.25284e-12 0 4.37131e-11 0.284281 0 0 0 0)
(-0.780546 -3.23238e-12 0 3.00639e-11 0.214738 0 0 0 0)
(-0.447286 1.22788e-12 0 -3.12891e-12 0.172143 0 0 0 0)
(-0.110133 1.95845e-12 0 -2.48465e-11 0.158685 0 0 0 0)
(0.00417878 3.11e-12 0 -2.59455e-11 0.15467 0 0 0 0)
(0.0227253 4.24647e-12 0 -1.27556e-11 0.150655 0 0 0 0)
(0.033221 -8.99013e-13 0 9.33005e-12 0.146166 0 0 0 0)
(0.0550091 -4.3184e-12 0 2.47706e-11 0.143983 0 0 0 0)
(0.0818867 -2.72832e-12 0 1.9625e-11 0.143317 0 0 0 0)
(0.101507 -3.73639e-12 0 -1.7091e-12 0.144405 0 0 0 0)
(0.108117 4.64799e-14 0 -2.98757e-11 0.14323 0 0 0 0)
(0.105535 5.00013e-12 0 -5.06598e-11 0.145104 0 0 0 0)
(0.102209 -7.11413e-13 0 -4.80893e-11 0.143453 0 0 0 0)
(0.0999407 -1.435e-12 0 -4.51974e-11 0.147284 0 0 0 0)
(0.0692015 4.5159e-12 0 -4.23598e-11 0.144125 0 0 0 0)
(-0.162477 2.802e-12 0 -1.91707e-11 0.148254 0 0 0 0)
(-0.756113 -3.21981e-12 0 1.00555e-11 0.147143 0 0 0 0)
(-0.9615 -2.62882e-12 0 1.5378e-11 0.144591 0 0 0 0)
(-0.500566 3.31313e-12 0 -4.96811e-12 0.145237 0 0 0 0)
(-0.189289 1.65606e-12 0 -1.06621e-11 0.142741 0 0 0 0)
(-0.142551 -4.15074e-12 0 3.81146e-12 0.159412 0 0 0 0)
(-0.172203 -1.34183e-12 0 9.3956e-12 0.214278 0 0 0 0)
(-0.106242 1.53389e-12 0 4.74782e-12 0.166219 0 0 0 0)
(0.129713 -0.326965 0 0.149405 0.371837 0 0 0 0)
(0.0554704 -0.13123 0 0.380807 -0.20226 0 0 0 0)
(0.0980929 -0.0088688 0 0.4386 -0.077143 0 0 0 0)
(0.193183 0.118777 0 0.497841 0.0954361 0 0 0 0)
(0.354866 0.096956 0 0.424542 0.455648 0 0 0 0)
(0.209515 -0.0282769 0 0.353882 0.330556 0 0 0 0)
(-0.44078 -0.14024 0 0.342184 0.117486 0 0 0 0)
(-1.58151 -0.0275719 0 0.111726 -0.216688 0 0 0 0)
(-1.3541 0.100163 0 -0.12648 0.228696 0 0 0 0)
(-0.396538 0.063098 0 0.0593617 0.373623 0 0 0 0)
(-0.522036 0.0759118 0 0.0555148 0.646911 0 0 0 0)
(-0.773244 0.0497385 0 0.028827 0.901545 0 0 0 0)
(-0.861579 -0.00824495 0 -0.0526021 1.00046 0 0 0 0)
(-0.815042 -0.0413255 0 -0.202336 0.868062 0 0 0 0)
(-0.722499 -0.0393404 0 -0.274577 0.67687 0 0 0 0)
(-0.637078 -0.0442429 0 -0.144531 0.49533 0 0 0 0)
(-0.656648 -0.0374233 0 -0.0546996 0.369536 0 0 0 0)
(-0.7996 -0.0240271 0 -0.0348062 0.287597 0 0 0 0)
(-0.789479 -0.0163111 0 -0.0247434 0.217307 0 0 0 0)
(-0.446245 -0.00815319 0 -0.00864673 0.172002 0 0 0 0)
(-0.108762 -0.00254149 0 -0.00205312 0.158691 0 0 0 0)
(0.004296 -0.00116798 0 -0.0018892 0.154486 0 0 0 0)
(0.0228322 -0.00123689 0 -0.00216266 0.150525 0 0 0 0)
(0.0334445 -0.000970549 0 -0.00119457 0.146083 0 0 0 0)
(0.0550901 -0.000414433 0 -0.00111343 0.143996 0 0 0 0)
(0.0818666 6.14455e-05 0 -0.00142006 0.143239 0 0 0 0)
(0.101475 -1.26559e-05 0 -0.00185472 0.144285 0 0 0 0)
(0.108093 0.000101557 0 -0.00221926 0.143118 0 0 0 0)
(0.105509 3.24466e-05 0 -0.00263384 0.144999 0 0 0 0)
(0.102176 0.000317096 0 -0.00298584 0.143374 0 0 0 0)
(0.0998859 9.76569e-05 0 -0.00334149 0.14719 0 0 0 0)
(0.0690779 0.000141206 0 -0.00374264 0.144121 0 0 0 0)
(-0.16275 0.000439049 0 -0.00473984 0.148191 0 0 0 0)
(-0.756558 -0.000532896 0 -0.00670822 0.147479 0 0 0 0)
(-0.962283 -0.000277268 0 -0.00949872 0.145409 0 0 0 0)
(-0.501969 -0.000269036 0 -0.0138266 0.145984 0 0 0 0)
(-0.191773 0.00206184 0 -0.0195352 0.144766 0 0 0 0)
(-0.144066 0.0104054 0 -0.0286475 0.157291 0 0 0 0)
(-0.171853 0.0009901 0 -0.00867311 0.211467 0 0 0 0)
(-0.105978 -0.00699048 0 0.00463437 0.166126 0 0 0 0)
(0.341526 -0.515008 0 0.31897 -0.189549 0 0 0 0)
(0.137285 -0.130612 0 0.529092 -0.132376 0 0 0 0)
(0.102001 0.0866025 0 0.479989 0.122814 0 0 0 0)
(0.183579 0.154994 0 0.424131 0.169373 0 0 0 0)
(0.320654 0.0683986 0 0.303044 0.286123 0 0 0 0)
(0.189886 -0.0983743 0 0.036433 0.114025 0 0 0 0)
(-0.508759 -0.159198 0 -0.105055 -0.0942591 0 0 0 0)
(-1.67232 0.032352 0 -0.548075 0.0537602 0 0 0 0)
(-1.33617 0.171727 0 -0.317191 0.225175 0 0 0 0)
(-0.341673 0.121663 0 -0.124131 0.438414 0 0 0 0)
(-0.504281 0.153577 0 -0.130867 0.691576 0 0 0 0)
(-0.77078 0.10285 0 -0.141203 0.959362 0 0 0 0)
(-0.901363 -0.00974038 0 -0.12874 1.03241 0 0 0 0)
(-0.875018 -0.0941342 0 -0.153874 0.907031 0 0 0 0)
(-0.749221 -0.108431 0 -0.152618 0.672401 0 0 0 0)
(-0.633021 -0.0894065 0 -0.125088 0.475145 0 0 0 0)
(-0.640657 -0.0604315 0 -0.0995933 0.373665 0 0 0 0)
(-0.777771 -0.0442845 0 -0.0736864 0.295434 0 0 0 0)
(-0.772936 -0.0336275 0 -0.0443634 0.22069 0 0 0 0)
(-0.440685 -0.0170519 0 -0.0167804 0.172169 0 0 0 0)
(-0.108168 -0.00509551 0 -0.00401775 0.1583 0 0 0 0)
(0.00414691 -0.00237562 0 -0.00310711 0.153612 0 0 0 0)
(0.0229273 -0.00244476 0 -0.00317103 0.149861 0 0 0 0)
(0.0335262 -0.0018993 0 -0.00200391 0.14609 0 0 0 0)
(0.0549435 -0.000827102 0 -0.00135367 0.144151 0 0 0 0)
(0.081671 8.4002e-05 0 -0.00121448 0.143137 0 0 0 0)
(0.101275 -3.54262e-05 0 -0.00156262 0.144063 0 0 0 0)
(0.10789 0.000207699 0 -0.00182232 0.142895 0 0 0 0)
(0.105312 7.46462e-05 0 -0.00219177 0.144771 0 0 0 0)
(0.102003 0.000637414 0 -0.00238743 0.143207 0 0 0 0)
(0.0997205 0.000217309 0 -0.00252677 0.146908 0 0 0 0)
(0.0687947 0.000291047 0 -0.00254232 0.14409 0 0 0 0)
(-0.16334 0.000976942 0 -0.00351375 0.148069 0 0 0 0)
(-0.757497 -0.000809219 0 -0.00527115 0.148387 0 0 0 0)
(-0.96357 -0.000435032 0 -0.00626103 0.147866 0 0 0 0)
(-0.503485 -0.00018692 0 -0.00790701 0.147045 0 0 0 0)
(-0.193601 0.00328924 0 -0.00772406 0.150725 0 0 0 0)
(-0.139391 0.0194037 0 -0.0188941 0.150073 0 0 0 0)
(-0.162521 0.00257038 0 0.0152454 0.194735 0 0 0 0)
(-0.102371 -0.0131899 0 0.0418144 0.1616 0 0 0 0)
(0.0379488 0.0265879 0 0.246125 0.320695 0 0 0 0)
(0.0618752 0.0639938 0 0.135419 0.589019 0 0 0 0)
(0.0277348 0.0700213 0 0.0857209 0.539268 0 0 0 0)
(0.0932942 0.179341 0 -0.03463 0.366298 0 0 0 0)
(0.151232 0.0952576 0 -0.134774 0.430935 0 0 0 0)
(-0.0237782 -0.18583 0 -0.614637 0.353083 0 0 0 0)
(-0.728827 -0.156122 0 -0.890253 0.127038 0 0 0 0)
(-1.60958 0.103513 0 -1.1958 0.175074 0 0 0 0)
(-1.10892 0.258699 0 -0.488516 0.116593 0 0 0 0)
(-0.3431 0.287943 0 -0.498962 0.354434 0 0 0 0)
(-0.553274 0.312887 0 -0.626363 0.643854 0 0 0 0)
(-0.77476 0.202123 0 -0.694531 0.898757 0 0 0 0)
(-0.823526 -0.0393414 0 -0.598482 0.904948 0 0 0 0)
(-0.760674 -0.206088 0 -0.389074 0.774738 0 0 0 0)
(-0.673545 -0.230365 0 -0.206651 0.606088 0 0 0 0)
(-0.608508 -0.179412 0 -0.116658 0.472404 0 0 0 0)
(-0.642894 -0.123548 0 -0.0849946 0.375739 0 0 0 0)
(-0.790196 -0.0965616 0 -0.0856078 0.290085 0 0 0 0)
(-0.772911 -0.0736102 0 -0.0810216 0.213249 0 0 0 0)
(-0.427366 -0.0369992 0 -0.0352143 0.169513 0 0 0 0)
(-0.100872 -0.0112284 0 -0.00831878 0.157014 0 0 0 0)
(0.0049995 -0.00506539 0 -0.00494325 0.152184 0 0 0 0)
(0.0234142 -0.00455836 0 -0.00498104 0.148751 0 0 0 0)
(0.0344901 -0.00347857 0 -0.00327167 0.145936 0 0 0 0)
(0.0557547 -0.0017898 0 -0.000847423 0.144138 0 0 0 0)
(0.0819616 -1.93718e-05 0 0.000613062 0.142991 0 0 0 0)
(0.101326 -0.000138252 0 0.000745387 0.143799 0 0 0 0)
(0.107934 0.000422686 0 0.000914075 0.142577 0 0 0 0)
(0.105382 0.000179632 0 0.000908692 0.144397 0 0 0 0)
(0.102165 0.00128712 0 0.00122153 0.142891 0 0 0 0)
(0.09998 0.00051275 0 0.00161547 0.146351 0 0 0 0)
(0.0687862 0.000696237 0 0.00235052 0.143808 0 0 0 0)
(-0.16378 0.00251247 0 0.00183725 0.147628 0 0 0 0)
(-0.757195 -0.000340505 0 0.00120761 0.148674 0 0 0 0)
(-0.962448 -0.000936716 0 0.00403531 0.149482 0 0 0 0)
(-0.501134 0.00142909 0 0.00639093 0.146529 0 0 0 0)
(-0.196552 0.00254257 0 0.0124994 0.155256 0 0 0 0)
(-0.135064 0.0276075 0 -0.00346643 0.142108 0 0 0 0)
(-0.144561 0.00639334 0 0.014588 0.173164 0 0 0 0)
(-0.0934837 -0.0206069 0 0.0334215 0.158758 0 0 0 0)
(0.0151026 -0.0122568 0 -0.185253 0.908895 0 0 0 0)
(0.0231501 -0.0243423 0 -0.250841 0.924384 0 0 0 0)
(-0.0220399 -0.119128 0 -0.288818 0.883109 0 0 0 0)
(0.0195166 0.0375448 0 -0.244787 0.737012 0 0 0 0)
(-0.147412 0.041261 0 -0.321457 0.56359 0 0 0 0)
(-0.423547 -0.344324 0 -0.684072 0.45379 0 0 0 0)
(-0.950781 -0.332384 0 -0.92743 0.302172 0 0 0 0)
(-1.31883 -0.0158728 0 -0.924067 0.288309 0 0 0 0)
(-0.786526 0.297928 0 -0.409502 0.287892 0 0 0 0)
(-0.473743 0.540586 0 -0.693041 0.430995 0 0 0 0)
(-0.666467 0.592679 0 -0.911662 0.730711 0 0 0 0)
(-0.741778 0.301215 0 -0.945602 0.800224 0 0 0 0)
(-0.648751 -0.113376 0 -0.763659 0.679944 0 0 0 0)
(-0.55875 -0.322093 0 -0.539628 0.565781 0 0 0 0)
(-0.527292 -0.334387 0 -0.365341 0.473538 0 0 0 0)
(-0.528934 -0.263116 0 -0.254362 0.401909 0 0 0 0)
(-0.609536 -0.202275 0 -0.197554 0.332934 0 0 0 0)
(-0.767281 -0.172833 0 -0.177589 0.258377 0 0 0 0)
(-0.724388 -0.128375 0 -0.135597 0.193001 0 0 0 0)
(-0.377768 -0.0605457 0 -0.0505302 0.162877 0 0 0 0)
(-0.0829092 -0.0185065 0 -0.0128256 0.154476 0 0 0 0)
(0.0069061 -0.00889602 0 -0.00786744 0.150216 0 0 0 0)
(0.0242771 -0.00733206 0 -0.00793072 0.146993 0 0 0 0)
(0.0369926 -0.00549725 0 -0.00552873 0.144614 0 0 0 0)
(0.058252 -0.00314875 0 -0.00191822 0.143069 0 0 0 0)
(0.0830501 -0.000187664 0 0.000581171 0.141999 0 0 0 0)
(0.101537 -0.000378692 0 0.00105125 0.142736 0 0 0 0)
(0.108024 0.000668922 0 0.00132924 0.141455 0 0 0 0)
(0.105571 0.000320891 0 0.00127912 0.143182 0 0 0 0)
(0.102597 0.00217243 0 0.0016989 0.141818 0 0 0 0)
(0.100669 0.000942159 0 0.00223425 0.14491 0 0 0 0)
(0.069013 0.00130353 0 0.00328583 0.142823 0 0 0 0)
(-0.164206 0.00484241 0 0.00272103 0.146161 0 0 0 0)
(-0.755541 0.000726294 0 0.00242423 0.147465 0 0 0 0)
(-0.959177 -0.00223286 0 0.00714447 0.148542 0 0 0 0)
(-0.49659 0.00451032 0 0.0102249 0.144747 0 0 0 0)
(-0.201517 -0.00057074 0 0.0152817 0.156506 0 0 0 0)
(-0.139698 0.0322618 0 0.000990861 0.140185 0 0 0 0)
(-0.136605 0.0165649 0 0.00365842 0.159935 0 0 0 0)
(-0.0889877 -0.0230951 0 0.00933087 0.157658 0 0 0 0)
(-0.0252544 0.0415135 0 -0.471982 0.563806 0 0 0 0)
(-0.0379236 0.0391454 0 -0.480121 0.617594 0 0 0 0)
(0.0335694 -0.110537 0 -0.461361 0.640154 0 0 0 0)
(0.0618425 -0.128559 0 -0.362934 0.656683 0 0 0 0)
(-0.27208 -0.177665 0 -0.537604 0.444179 0 0 0 0)
(-0.607716 -0.437742 0 -0.585361 0.386452 0 0 0 0)
(-0.960095 -0.315586 0 -0.727874 0.400063 0 0 0 0)
(-1.11049 0.0897525 0 -0.605022 0.51765 0 0 0 0)
(-0.88629 0.396197 0 -0.556546 0.627919 0 0 0 0)
(-0.826999 0.714659 0 -0.882238 0.858937 0 0 0 0)
(-0.796651 0.66869 0 -1.06399 0.925295 0 0 0 0)
(-0.632139 0.153202 0 -0.970488 0.67682 0 0 0 0)
(-0.432315 -0.265259 0 -0.743222 0.495172 0 0 0 0)
(-0.376839 -0.404988 0 -0.552017 0.404689 0 0 0 0)
(-0.398653 -0.388278 0 -0.412951 0.356921 0 0 0 0)
(-0.446823 -0.314903 0 -0.312925 0.32009 0 0 0 0)
(-0.568913 -0.26186 0 -0.257666 0.273111 0 0 0 0)
(-0.730491 -0.231406 0 -0.236343 0.2149 0 0 0 0)
(-0.650472 -0.165638 0 -0.169835 0.169237 0 0 0 0)
(-0.30906 -0.0741234 0 -0.0587291 0.155789 0 0 0 0)
(-0.059761 -0.0234289 0 -0.0161807 0.151298 0 0 0 0)
(0.00971638 -0.0122757 0 -0.0108424 0.147811 0 0 0 0)
(0.0256678 -0.00995706 0 -0.0105578 0.144619 0 0 0 0)
(0.0402839 -0.00726039 0 -0.00749763 0.142386 0 0 0 0)
(0.0616424 -0.00430966 0 -0.00321034 0.141154 0 0 0 0)
(0.0848231 -0.000340111 0 -1.67607e-05 0.140242 0 0 0 0)
(0.102047 -0.000662724 0 0.000787845 0.140982 0 0 0 0)
(0.108153 0.00085288 0 0.00118182 0.139687 0 0 0 0)
(0.105739 0.000530031 0 0.00102005 0.141311 0 0 0 0)
(0.103085 0.00295173 0 0.0014289 0.140187 0 0 0 0)
(0.101509 0.00148155 0 0.00197986 0.142798 0 0 0 0)
(0.0692553 0.00190176 0 0.00318948 0.141367 0 0 0 0)
(-0.16461 0.00698562 0 0.00240253 0.144006 0 0 0 0)
(-0.752932 0.00195415 0 0.00201872 0.145632 0 0 0 0)
(-0.954931 -0.00355638 0 0.00750985 0.146876 0 0 0 0)
(-0.493292 0.00910351 0 0.00977771 0.143644 0 0 0 0)
(-0.20545 -0.00185323 0 0.0123644 0.157121 0 0 0 0)
(-0.146264 0.0309121 0 0.00234426 0.14365 0 0 0 0)
(-0.136524 0.0232307 0 0.000139602 0.152997 0 0 0 0)
(-0.0880175 -0.0228014 0 0.000608973 0.153629 0 0 0 0)
(0.00725969 0.0395757 0 -0.7527 0.487537 0 0 0 0)
(0.0333852 0.0492296 0 -0.72546 0.460125 0 0 0 0)
(0.0908856 -0.0814606 0 -0.703665 0.415057 0 0 0 0)
(-0.0539536 -0.151304 0 -0.774815 0.406542 0 0 0 0)
(-0.36175 -0.219144 0 -0.984444 0.317716 0 0 0 0)
(-0.606898 -0.386836 0 -0.949415 0.330201 0 0 0 0)
(-0.969728 -0.205957 0 -1.0497 0.572416 0 0 0 0)
(-1.15373 0.203697 0 -0.973062 0.751124 0 0 0 0)
(-1.05366 0.626804 0 -1.10703 0.970924 0 0 0 0)
(-0.962733 0.827148 0 -1.20537 1.12393 0 0 0 0)
(-0.751508 0.417185 0 -1.13487 0.79921 0 0 0 0)
(-0.432676 -0.113267 0 -0.870553 0.473797 0 0 0 0)
(-0.245498 -0.375612 0 -0.655462 0.327994 0 0 0 0)
(-0.24049 -0.455316 0 -0.519796 0.261483 0 0 0 0)
(-0.296894 -0.41591 0 -0.419134 0.247639 0 0 0 0)
(-0.379295 -0.343879 0 -0.339765 0.240151 0 0 0 0)
(-0.535739 -0.30364 0 -0.300363 0.212134 0 0 0 0)
(-0.682644 -0.27293 0 -0.282533 0.167427 0 0 0 0)
(-0.553233 -0.185337 0 -0.185436 0.144442 0 0 0 0)
(-0.229701 -0.0778322 0 -0.0601002 0.148655 0 0 0 0)
(-0.0367638 -0.0261942 0 -0.0195883 0.148015 0 0 0 0)
(0.0123246 -0.0153319 0 -0.0146105 0.14504 0 0 0 0)
(0.0275002 -0.0125601 0 -0.0131208 0.141823 0 0 0 0)
(0.0440729 -0.00883646 0 -0.00902185 0.13991 0 0 0 0)
(0.0654609 -0.00521474 0 -0.00394977 0.13897 0 0 0 0)
(0.0869028 -0.000353695 0 -0.000118911 0.138252 0 0 0 0)
(0.102692 -0.000913397 0 0.00113216 0.13904 0 0 0 0)
(0.108248 0.000986317 0 0.00181464 0.137734 0 0 0 0)
(0.105809 0.000802376 0 0.00177478 0.139249 0 0 0 0)
(0.103522 0.00360508 0 0.00234295 0.138358 0 0 0 0)
(0.102366 0.00207926 0 0.00307804 0.140459 0 0 0 0)
(0.0694203 0.00246765 0 0.00458644 0.139546 0 0 0 0)
(-0.165334 0.00895252 0 0.00401322 0.14148 0 0 0 0)
(-0.75062 0.0034918 0 0.00433141 0.143155 0 0 0 0)
(-0.9517 -0.004148 0 0.0119571 0.144274 0 0 0 0)
(-0.491912 0.014383 0 0.0147597 0.141131 0 0 0 0)
(-0.208681 -0.000565219 0 0.0178354 0.154251 0 0 0 0)
(-0.151479 0.0282885 0 0.0117053 0.144974 0 0 0 0)
(-0.138278 0.0261805 0 0.0104135 0.149648 0 0 0 0)
(-0.0885354 -0.0224869 0 0.00852969 0.150139 0 0 0 0)
(0.000995381 0.0150989 0 -1.01125 0.494283 0 0 0 0)
(0.00932839 -0.0306985 0 -1.03331 0.418164 0 0 0 0)
(-0.0139912 -0.162171 0 -1.13276 0.317346 0 0 0 0)
(-0.208726 -0.22236 0 -1.32423 0.309798 0 0 0 0)
(-0.44033 -0.251231 0 -1.39219 0.318638 0 0 0 0)
(-0.670601 -0.192304 0 -1.46643 0.482316 0 0 0 0)
(-0.982883 0.090031 0 -1.61074 0.803876 0 0 0 0)
(-1.16573 0.473769 0 -1.61458 1.0246 0 0 0 0)
(-1.11015 0.755447 0 -1.58943 1.23785 0 0 0 0)
(-0.853835 0.54919 0 -1.39346 0.949124 0 0 0 0)
(-0.474006 0.0421972 0 -1.04182 0.505923 0 0 0 0)
(-0.170161 -0.300879 0 -0.723646 0.280806 0 0 0 0)
(-0.0943132 -0.469852 0 -0.564479 0.160003 0 0 0 0)
(-0.149105 -0.482421 0 -0.479596 0.140493 0 0 0 0)
(-0.225168 -0.408834 0 -0.407132 0.165153 0 0 0 0)
(-0.332371 -0.349116 0 -0.350634 0.176957 0 0 0 0)
(-0.513762 -0.331939 0 -0.335134 0.155875 0 0 0 0)
(-0.619743 -0.296637 0 -0.312278 0.123032 0 0 0 0)
(-0.436128 -0.183728 0 -0.175697 0.128146 0 0 0 0)
(-0.149243 -0.07068 0 -0.0529438 0.144502 0 0 0 0)
(-0.0159255 -0.0269123 0 -0.0209994 0.145406 0 0 0 0)
(0.0159487 -0.0182423 0 -0.01768 0.142151 0 0 0 0)
(0.0310532 -0.0149008 0 -0.0151414 0.138832 0 0 0 0)
(0.0491215 -0.0100101 0 -0.0103348 0.13739 0 0 0 0)
(0.0702216 -0.00590722 0 -0.00502525 0.13675 0 0 0 0)
(0.0897202 -0.000272879 0 -0.00118307 0.136228 0 0 0 0)
(0.10391 -0.00116128 0 0.000102463 0.137047 0 0 0 0)
(0.108773 0.00105458 0 0.000625807 0.13573 0 0 0 0)
(0.106248 0.00113143 0 0.000417881 0.137144 0 0 0 0)
(0.104341 0.00411836 0 0.000782329 0.136483 0 0 0 0)
(0.103671 0.0026257 0 0.00133037 0.138104 0 0 0 0)
(0.0701565 0.00288521 0 0.00268117 0.137542 0 0 0 0)
(-0.164856 0.0104641 0 0.0018198 0.138883 0 0 0 0)
(-0.745277 0.00464684 0 0.00134104 0.140478 0 0 0 0)
(-0.944882 -0.00550757 0 0.00851891 0.141591 0 0 0 0)
(-0.487628 0.0187173 0 0.0108844 0.139197 0 0 0 0)
(-0.208393 0.00185083 0 0.013829 0.151671 0 0 0 0)
(-0.153416 0.0264763 0 0.00829862 0.144134 0 0 0 0)
(-0.139585 0.0282075 0 0.0073152 0.147661 0 0 0 0)
(-0.0898328 -0.0223279 0 0.00378934 0.147358 0 0 0 0)
(-0.0140017 -0.0337756 0 -1.37657 0.375377 0 0 0 0)
(-0.0837056 -0.121274 0 -1.44628 0.326351 0 0 0 0)
(-0.189453 -0.185886 0 -1.59534 0.331434 0 0 0 0)
(-0.303955 -0.150059 0 -1.74138 0.386885 0 0 0 0)
(-0.498776 -0.0528994 0 -1.83017 0.494649 0 0 0 0)
(-0.817497 0.0807574 0 -2.02667 0.740846 0 0 0 0)
(-1.11249 0.316607 0 -2.17509 1.01846 0 0 0 0)
(-1.1332 0.621886 0 -2.06148 1.21351 0 0 0 0)
(-0.840581 0.554074 0 -1.66659 1.01569 0 0 0 0)
(-0.435037 0.121842 0 -1.18784 0.526679 0 0 0 0)
(-0.106054 -0.226831 0 -0.776964 0.21648 0 0 0 0)
(0.0273043 -0.446609 0 -0.564441 0.0547455 0 0 0 0)
(-0.0103223 -0.510823 0 -0.491445 0.0237576 0 0 0 0)
(-0.0888644 -0.450354 0 -0.439372 0.0693878 0 0 0 0)
(-0.172621 -0.380772 0 -0.383941 0.112825 0 0 0 0)
(-0.309915 -0.352819 0 -0.356244 0.121984 0 0 0 0)
(-0.498778 -0.355604 0 -0.366065 0.0960398 0 0 0 0)
(-0.529005 -0.299651 0 -0.315426 0.083821 0 0 0 0)
(-0.30333 -0.164647 0 -0.148087 0.12062 0 0 0 0)
(-0.0806279 -0.0611992 0 -0.0469818 0.141712 0 0 0 0)
(-0.00278236 -0.0284598 0 -0.0250228 0.142523 0 0 0 0)
(0.0179695 -0.021667 0 -0.0215035 0.138747 0 0 0 0)
(0.0345783 -0.0171475 0 -0.0168787 0.135974 0 0 0 0)
(0.0538212 -0.0108426 0 -0.0106439 0.134906 0 0 0 0)
(0.0742799 -0.00633484 0 -0.00445551 0.134474 0 0 0 0)
(0.0918441 -6.76399e-05 0 -3.94848e-05 0.134061 0 0 0 0)
(0.104436 -0.00139282 0 0.00190297 0.134833 0 0 0 0)
(0.108552 0.00107932 0 0.00273341 0.13346 0 0 0 0)
(0.10596 0.00152781 0 0.00289951 0.134786 0 0 0 0)
(0.104401 0.00453059 0 0.00350136 0.134285 0 0 0 0)
(0.104196 0.00309976 0 0.00416791 0.135482 0 0 0 0)
(0.0698919 0.00321792 0 0.00557126 0.135061 0 0 0 0)
(-0.166625 0.0117814 0 0.00500468 0.135932 0 0 0 0)
(-0.744164 0.00610128 0 0.00562348 0.137639 0 0 0 0)
(-0.942504 -0.00538215 0 0.0139015 0.139303 0 0 0 0)