/*--------------------------------*- C++ -*----------------------------------*\
| =========                 |                                                 |
| \\      /  F ield         | OpenFOAM: The Open Source CFD Toolbox           |
|  \\    /   O peration     | Version:  v1912                                 |
|   \\  /    A nd           | Website:  www.openfoam.com                      |
|    \\/     M anipulation  |                                                 |
\*---------------------------------------------------------------------------*/
FoamFile
{
    version     2.0;
    format      ascii;
    class       volTensorField;
    location    "3.42";
    object      grad(U);
}
// * * * * * * * * * * * * * * * * * * * * * * * * * * * * * * * * * * * * * //

dimensions      [0 0 -1 0 0 0 0];


internalField   nonuniform List<tensor> 
1900
(
(-3.36223 -3.57306e-05 0 -2.99617e-05 -3.21589e-05 0 0 0 0)
(2.4271 -5.46353e-05 0 -7.6841e-05 -6.47224e-05 0 0 0 0)
(-0.058955 1.61726e-05 0 -0.00013821 -0.000158406 0 0 0 0)
(-0.0380088 0.000805597 0 -0.00015357 1.08602e-05 0 0 0 0)
(-0.031914 0.00209723 0 0.000277618 0.00140856 0 0 0 0)
(-0.021798 0.00183124 0 0.00228671 0.00427481 0 0 0 0)
(-0.00747323 -0.00409808 0 0.0054289 0.00572948 0 0 0 0)
(0.0228971 -0.0288423 0 0.0109807 -0.00172326 0 0 0 0)
(0.109867 -0.0864533 0 0.00888095 -0.0424876 0 0 0 0)
(0.113526 -0.237017 0 -0.0548718 -0.153435 0 0 0 0)
(-3.36234 -6.11506e-05 0 -3.93183e-05 1.25311e-05 0 0 0 0)
(2.42699 -7.16114e-05 0 -0.000106543 2.31995e-05 0 0 0 0)
(-0.0590317 5.941e-05 0 -0.000195023 6.71664e-05 0 0 0 0)
(-0.037593 0.000761366 0 -9.3985e-05 7.0269e-06 0 0 0 0)
(-0.0294737 0.00216672 0 0.000763755 -0.000738431 0 0 0 0)
(-0.0166467 0.00248968 0 0.00389598 -0.0020902 0 0 0 0)
(0.0012208 -0.00189999 0 0.00836281 -0.00256968 0 0 0 0)
(0.0263492 -0.0193749 0 0.0158291 0.00200788 0 0 0 0)
(0.0440142 -0.0652582 0 0.00203107 0.0262726 0 0 0 0)
(-0.0363665 -0.151348 0 -0.0969202 0.0884612 0 0 0 0)
(-3.36238 -6.3911e-13 0 -8.78204e-14 3.92555e-05 0 0 0 0)
(2.42695 2.17355e-13 0 -8.53809e-14 8.30457e-05 0 0 0 0)
(-0.0589424 1.76779e-13 0 1.0327e-13 0.000182478 0 0 0 0)
(-0.03705 8.73492e-14 0 -1.63986e-14 -3.57742e-05 0 0 0 0)
(-0.027924 2.44018e-14 0 2.22261e-14 -0.00134025 0 0 0 0)
(-0.0141989 -2.99157e-15 0 3.02221e-14 -0.00436922 0 0 0 0)
(0.00445995 4.12969e-14 0 -1.49755e-13 -0.00631961 0 0 0 0)
(0.0165654 -4.21752e-14 0 -8.70072e-14 -0.000569238 0 0 0 0)
(-0.00288258 -3.70593e-14 0 6.78982e-14 0.0324301 0 0 0 0)
(-0.0906795 1.13662e-13 0 5.94956e-14 0.129947 0 0 0 0)
(-3.36234 6.11506e-05 0 3.93183e-05 1.25311e-05 0 0 0 0)
(2.42699 7.16114e-05 0 0.000106543 2.31995e-05 0 0 0 0)
(-0.0590317 -5.941e-05 0 0.000195023 6.71664e-05 0 0 0 0)
(-0.037593 -0.000761366 0 9.3985e-05 7.0269e-06 0 0 0 0)
(-0.0294737 -0.00216672 0 -0.000763755 -0.000738431 0 0 0 0)
(-0.0166467 -0.00248968 0 -0.00389598 -0.0020902 0 0 0 0)
(0.0012208 0.00189999 0 -0.00836281 -0.00256968 0 0 0 0)
(0.0263492 0.0193749 0 -0.0158291 0.00200788 0 0 0 0)
(0.0440142 0.0652582 0 -0.00203107 0.0262726 0 0 0 0)
(-0.0363665 0.151348 0 0.0969202 0.0884612 0 0 0 0)
(-3.36223 3.57306e-05 0 2.99617e-05 -3.21589e-05 0 0 0 0)
(2.4271 5.46353e-05 0 7.6841e-05 -6.47224e-05 0 0 0 0)
(-0.058955 -1.61726e-05 0 0.00013821 -0.000158406 0 0 0 0)
(-0.0380088 -0.000805597 0 0.00015357 1.08602e-05 0 0 0 0)
(-0.031914 -0.00209723 0 -0.000277618 0.00140856 0 0 0 0)
(-0.021798 -0.00183124 0 -0.00228671 0.00427481 0 0 0 0)
(-0.00747323 0.00409808 0 -0.0054289 0.00572948 0 0 0 0)
(0.0228971 0.0288423 0 -0.0109807 -0.00172326 0 0 0 0)
(0.109867 0.0864533 0 -0.00888095 -0.0424876 0 0 0 0)
(0.113526 0.237017 0 0.0548718 -0.153435 0 0 0 0)
(-0.0426688 -0.351317 9.13402e-18 -0.184281 0.163485 -1.3701e-17 -6.04468e-17 -6.61687e-17 2.47578e-33)
(-0.163424 -0.35012 0 -0.243349 0.245533 0 1.37527e-16 5.4843e-17 0)
(-0.205484 -0.397759 0 -0.374737 0.227038 0 2.05499e-16 9.39145e-17 0)
(-1.04469 -0.215626 0 -0.93706 0.376047 0 0 0 0)
(0.123614 -1.57656 -3.91657e-16 -3.30244 3.38483 5.87486e-16 1.57041e-15 1.04694e-15 1.06159e-31)
(-0.161005 -0.222136 0 -0.195878 0.246525 0 -9.37464e-17 -3.66268e-17 0)
(-0.324682 -0.271745 0 -0.244423 0.366434 0 -1.37527e-16 -5.4843e-17 0)
(-0.60864 -0.397632 0 -0.516877 0.601543 0 -2.05499e-16 -9.39145e-17 0)
(-1.29873 -0.317007 0 -1.21001 1.0303 0 0 0 0)
(-0.923302 0.24703 0 -1.5201 1.27132 0 0 0 0)
(-0.233101 9.4593e-14 0 5.00854e-14 0.317724 0 0 0 0)
(-0.463244 2.23535e-13 0 9.59971e-14 0.48114 0 0 0 0)
(-0.881067 2.81403e-14 0 2.49592e-13 0.875812 0 0 0 0)
(-1.60422 -2.62693e-13 0 3.94255e-13 1.57946 0 0 0 0)
(-1.15884 4.33771e-14 0 7.43776e-13 2.27531 0 0 0 0)
(-0.161005 0.222136 0 0.195878 0.246525 0 -9.37464e-17 3.66268e-17 0)
(-0.324682 0.271745 0 0.244423 0.366434 0 -1.37527e-16 5.4843e-17 0)
(-0.60864 0.397632 0 0.516877 0.601543 0 -2.05499e-16 9.39145e-17 0)
(-1.29873 0.317007 0 1.21001 1.0303 0 0 0 0)
(-0.923302 -0.24703 0 1.5201 1.27132 0 0 0 0)
(-0.0426688 0.351317 -9.13402e-18 0.184281 0.163485 -1.3701e-17 2.4794e-16 -1.39422e-16 2.47578e-33)
(-0.163424 0.35012 0 0.243349 0.245533 0 1.37527e-16 -5.4843e-17 0)
(-0.205484 0.397759 0 0.374737 0.227038 0 2.05499e-16 -9.39145e-17 0)
(-1.04469 0.215626 -1.63198e-17 0.93706 0.376047 -2.44797e-17 5.95248e-16 -3.96832e-16 4.4235e-33)
(0.123614 1.57656 3.91657e-16 3.30244 3.38483 5.87486e-16 -1.57041e-15 1.04694e-15 1.06159e-31)
(0.17826 0.4537 2.8393e-18 -0.440373 -0.941485 2.55537e-17 -9.75941e-16 7.86098e-17 -7.69594e-34)
(0.761226 -0.0336792 -9.1645e-19 -0.26796 -0.432452 -8.24805e-18 6.26863e-16 -5.57307e-17 -2.48404e-34)
(0.519162 0.0676049 0 -0.0790114 -0.212601 0 0 0 0)
(0.167867 0.29476 -1.7329e-18 0.505871 0.420071 -1.55961e-17 -2.94164e-16 4.70288e-17 4.69702e-34)
(-0.706358 0.199507 3.87639e-18 1.91461 1.38668 3.48875e-17 1.51266e-16 -1.68074e-17 1.0507e-33)
(0.487103 0.446826 0 -0.539274 -0.46367 0 4.94602e-16 -2.51277e-17 0)
(0.824478 -0.0384823 0 -0.321341 -0.433801 0 -3.17467e-16 2.13533e-17 0)
(0.766181 0.0789563 0 0.00500903 -0.364418 0 0 0 0)
(0.962162 0.380959 0 0.764214 -0.544297 0 1.68576e-16 -3.32019e-17 0)
(1.46173 0.276445 0 2.74977 -0.858242 0 -2.69766e-18 8.18058e-18 0)
(0.607522 2.61156e-13 0 1.37716e-12 -0.741347 0 0 0 0)
(0.913049 3.92897e-13 0 2.70819e-12 -0.550437 0 0 0 0)
(0.918236 3.52251e-13 0 4.30669e-12 -0.412774 0 0 0 0)
(1.32788 4.54721e-13 0 5.1225e-12 -0.893029 0 -5.82243e-17 4.01262e-29 0)
(1.9583 -4.32029e-13 0 7.57906e-12 -2.17303 0 5.39533e-18 -6.7428e-29 0)
(0.487103 -0.446826 0 0.539274 -0.46367 0 4.94602e-16 2.51277e-17 0)
(0.824478 0.0384823 0 0.321341 -0.433801 0 -3.17467e-16 -2.13533e-17 0)
(0.766181 -0.0789563 0 -0.00500903 -0.364418 0 0 0 0)
(0.962162 -0.380959 0 -0.764214 -0.544297 0 1.68576e-16 3.32019e-17 0)
(1.46173 -0.276445 0 -2.74977 -0.858242 0 -2.69766e-18 -8.18058e-18 0)
(0.17826 -0.4537 0 0.440373 -0.941485 0 -4.94602e-16 -2.51277e-17 0)
(0.761226 0.0336792 9.1645e-19 0.26796 -0.432452 -8.24805e-18 8.07009e-18 -1.30241e-17 -2.48404e-34)
(0.519162 -0.0676049 0 0.0790114 -0.212601 0 0 0 0)
(0.167867 -0.29476 1.7329e-18 -0.505871 0.420071 -1.55961e-17 1.52352e-17 -1.26512e-17 4.69702e-34)
(-0.706358 -0.199507 -3.87639e-18 -1.91461 1.38668 3.48875e-17 -1.51266e-16 -1.68074e-17 1.0507e-33)
(0.65539 -0.844662 0 9.93262 0.205511 0 0 0 0)
(1.15759 -0.930997 0 6.03499 0.807852 0 0 0 0)
(-0.854557 0.066511 0 3.45988 1.24136 0 0 0 0)
(-0.928035 0.526703 0 1.12397 1.13662 0 0 0 0)
(-0.55018 0.369885 0 0.171829 0.74617 0 0 0 0)
(-0.365822 0.110664 0 0.0562774 0.529962 0 0 0 0)
(-0.153379 0.031354 0 0.0250152 0.45358 0 0 0 0)
(-0.0189076 0.0138809 0 0.0121444 0.424435 0 0 0 0)
(0.0315731 0.00710112 0 0.0062725 0.406686 0 0 0 0)
(0.0750473 0.00455083 0 0.0027918 0.398146 0 0 0 0)
(0.119709 0.0027357 0 -0.000138577 0.391705 0 0 0 0)
(0.167438 0.0012501 0 -0.000693275 0.389502 0 0 0 0)
(0.214604 0.00111015 0 -0.000941995 0.387408 0 0 0 0)
(0.258495 0.000933742 0 -0.000890397 0.385719 0 0 0 0)
(0.295569 0.000793679 0 -0.000750718 0.384252 0 0 0 0)
(0.324113 0.000693583 0 -0.000608338 0.383006 0 0 0 0)
(0.34426 0.000540795 0 -0.000472662 0.381865 0 0 0 0)
(0.357221 0.000585175 0 -0.000337987 0.381134 0 0 0 0)
(0.364033 -0.000201949 0 -0.000207275 0.379845 0 0 0 0)
(0.366995 -0.000403312 0 4.10709e-05 0.381837 0 0 0 0)
(0.369054 0.000810972 0 0.000266501 0.381245 0 0 0 0)
(0.370171 0.000376153 0 0.000520952 0.379045 0 0 0 0)
(0.367713 -0.000270891 0 0.00076674 0.379943 0 0 0 0)
(0.360448 -7.13699e-05 0 0.00100518 0.379968 0 0 0 0)
(0.348193 -7.23453e-05 0 0.00123366 0.380173 0 0 0 0)
(0.329609 1.23091e-05 0 0.00143997 0.380187 0 0 0 0)
(0.304141 9.05302e-05 0 0.00159763 0.380079 0 0 0 0)
(0.273462 0.000178887 0 0.0016706 0.379798 0 0 0 0)
(0.241312 0.000245826 0 0.00161875 0.379362 0 0 0 0)
(0.212833 0.000250642 0 0.0013929 0.378824 0 0 0 0)
(0.192334 0.000292097 0 0.000977541 0.378371 0 0 0 0)
(0.18052 5.19758e-05 0 0.000390151 0.377608 0 0 0 0)
(0.173697 0.000702304 0 -0.000488997 0.378089 0 0 0 0)
(0.163337 -0.000319681 0 -0.00072585 0.37502 0 0 0 0)
(0.142951 0.00214602 0 -0.00344808 0.378737 0 0 0 0)
(0.121021 -0.000553134 0 -0.00381107 0.368701 0 0 0 0)
(0.0975051 0.000412033 0 -0.00686527 0.379777 0 0 0 0)
(0.0872399 -0.018337 0 -0.0120132 0.367139 0 0 0 0)
(2.34279 -0.0236352 0 -0.0270683 0.432938 0 0 0 0)
(2.29708 -0.0010405 0 -0.0382605 0.428883 0 0 0 0)
(1.56137 -0.690472 0 7.83728 -0.554054 0 0 0 0)
(0.021484 -0.822153 0 5.08876 2.03144 0 0 0 0)
(-1.79262 0.0891852 0 3.09472 2.64625 0 0 0 0)
(-1.55177 0.394629 0 0.922332 1.80281 0 0 0 0)
(-0.740425 0.225897 0 -0.0244582 0.835709 0 0 0 0)
(-0.372074 0.0568463 0 -0.0496769 0.531325 0 0 0 0)
(-0.1537 0.0146576 0 -0.0402886 0.455303 0 0 0 0)
(-0.0193912 0.00695637 0 -0.0400713 0.423546 0 0 0 0)
(0.0318582 0.00332675 0 -0.0347837 0.407587 0 0 0 0)
(0.0752868 0.00212917 0 -0.0318733 0.399135 0 0 0 0)
(0.12008 0.00142459 0 -0.029833 0.391944 0 0 0 0)
(0.168174 0.000643256 0 -0.0264821 0.389731 0 0 0 0)
(0.215461 0.000573767 0 -0.0230211 0.387646 0 0 0 0)
(0.259429 0.00048455 0 -0.019553 0.385915 0 0 0 0)
(0.296536 0.000409448 0 -0.0161695 0.384437 0 0 0 0)
(0.325089 0.00035432 0 -0.0129252 0.383187 0 0 0 0)
(0.345235 0.000274147 0 -0.0098304 0.382052 0 0 0 0)
(0.358193 0.00029411 0 -0.00687198 0.381328 0 0 0 0)
(0.365006 -0.000100443 0 -0.00402303 0.380041 0 0 0 0)
(0.367968 -0.00020208 0 -0.00121675 0.382022 0 0 0 0)
(0.370027 0.00040376 0 0.00155143 0.381427 0 0 0 0)
(0.371144 0.000185102 0 0.00435219 0.379235 0 0 0 0)
(0.368681 -0.000140458 0 0.00721188 0.380134 0 0 0 0)
(0.361407 -4.38262e-05 0 0.01016 0.380166 0 0 0 0)
(0.349139 -4.82894e-05 0 0.0132224 0.38038 0 0 0 0)
(0.330537 -1.07476e-05 0 0.0164165 0.380414 0 0 0 0)
(0.305037 2.35435e-05 0 0.0197463 0.380337 0 0 0 0)
(0.274305 6.4488e-05 0 0.0231895 0.380103 0 0 0 0)
(0.242081 9.77815e-05 0 0.0267154 0.379722 0 0 0 0)
(0.213506 0.00010486 0 0.0302876 0.379258 0 0 0 0)
(0.192897 0.000134289 0 0.0338812 0.378861 0 0 0 0)
(0.180962 3.46639e-05 0 0.0375168 0.378254 0 0 0 0)
(0.174107 0.000382143 0 0.041186 0.378682 0 0 0 0)
(0.163479 -8.07148e-05 0 0.0453884 0.37584 0 0 0 0)
(0.143061 0.0011819 0 0.0488162 0.379781 0 0 0 0)
(0.121111 -0.00018184 0 0.0533873 0.368463 0 0 0 0)
(0.0969105 0.000290208 0 0.0579716 0.381682 0 0 0 0)
(0.0841953 -0.0101868 0 0.0589246 0.367047 0 0 0 0)
(2.3421 -0.0106679 0 0.0425648 0.444716 0 0 0 0)
(2.29893 0.00168584 0 0.0651092 0.448293 0 0 0 0)
(1.70603 -1.00358e-12 0 5.95128e-12 -2.0942 0 0 0 0)
(-0.222066 -4.73879e-13 0 2.62377e-12 2.68909 0 0 0 0)
(-2.06661 -5.84657e-13 0 8.93974e-13 3.5581 0 0 0 0)
(-1.83543 -6.11339e-13 0 -1.5445e-12 2.07594 0 0 0 0)
(-0.832946 7.61095e-14 0 2.73022e-13 0.845024 0 0 0 0)
(-0.370427 1.14069e-12 0 6.13856e-12 0.522902 0 0 0 0)
(-0.150585 1.92001e-12 0 1.02901e-11 0.454206 0 0 0 0)
(-0.0173062 -2.91725e-13 0 -1.11338e-11 0.422131 0 0 0 0)
(0.0339579 -2.71181e-12 0 -3.89327e-11 0.406381 0 0 0 0)
(0.0764875 -5.55007e-12 0 -7.87998e-11 0.399259 0 0 0 0)
(0.121278 -1.04988e-11 0 -1.17896e-10 0.391743 0 0 0 0)
(0.16942 -1.39668e-11 0 -1.1968e-10 0.389465 0 0 0 0)
(0.216619 -1.04375e-11 0 -8.07928e-11 0.38732 0 0 0 0)
(0.260488 5.0702e-12 0 -4.34351e-11 0.385521 0 0 0 0)
(0.297497 3.97916e-11 0 -7.35168e-11 0.383989 0 0 0 0)
(0.325957 9.099e-11 0 -1.83546e-10 0.382706 0 0 0 0)
(0.346021 6.66971e-11 0 -2.73587e-10 0.381553 0 0 0 0)
(0.358911 -1.12667e-10 0 -2.33385e-10 0.380821 0 0 0 0)
(0.365678 -1.71543e-10 0 -1.50845e-10 0.379531 0 0 0 0)
(0.368616 3.82639e-11 0 -4.19388e-11 0.381511 0 0 0 0)
(0.370674 1.50847e-10 0 6.19298e-11 0.38092 0 0 0 0)
(0.371818 -9.00982e-11 0 1.2867e-10 0.378736 0 0 0 0)
(0.369403 -2.22116e-10 0 4.68715e-11 0.379648 0 0 0 0)
(0.362197 5.82289e-11 0 -9.98471e-11 0.379701 0 0 0 0)
(0.350013 2.36468e-10 0 -1.08748e-10 0.379949 0 0 0 0)
(0.331507 1.17991e-10 0 -1.34845e-11 0.380033 0 0 0 0)
(0.306112 -1.37995e-11 0 -7.21576e-11 0.380023 0 0 0 0)
(0.275489 -3.81729e-11 0 -3.48372e-10 0.379871 0 0 0 0)
(0.243377 6.33774e-13 0 -6.54251e-10 0.37958 0 0 0 0)
(0.214917 -1.12494e-11 0 -7.61553e-10 0.379199 0 0 0 0)
(0.194437 -3.83184e-11 0 -6.12555e-10 0.378859 0 0 0 0)
(0.182645 -6.33208e-11 0 -2.63091e-10 0.378276 0 0 0 0)
(0.175987 -2.41729e-11 0 1.59236e-10 0.37862 0 0 0 0)
(0.165557 3.78732e-11 0 5.47808e-10 0.375649 0 0 0 0)
(0.145278 -7.16258e-11 0 7.78286e-10 0.379175 0 0 0 0)
(0.123684 7.15253e-11 0 7.92995e-10 0.367523 0 0 0 0)
(0.099116 1.20651e-10 0 8.06984e-10 0.380425 0 0 0 0)
(0.082758 -1.47879e-10 0 7.65204e-10 0.365528 0 0 0 0)
(2.34459 -1.36206e-10 0 6.6599e-10 0.45046 0 0 0 0)
(2.30363 -2.20483e-11 0 6.53983e-10 0.438869 0 0 0 0)
(1.56137 0.690472 0 -7.83728 -0.554054 0 0 0 0)
(0.021484 0.822153 0 -5.08876 2.03144 0 0 0 0)
(-1.79262 -0.0891852 0 -3.09472 2.64625 0 0 0 0)
(-1.55177 -0.394629 0 -0.922332 1.80281 0 0 0 0)
(-0.740425 -0.225897 0 0.0244582 0.835709 0 0 0 0)
(-0.372074 -0.0568463 0 0.0496769 0.531325 0 0 0 0)
(-0.1537 -0.0146576 0 0.0402886 0.455303 0 0 0 0)
(-0.0193912 -0.00695637 0 0.0400713 0.423546 0 0 0 0)
(0.0318582 -0.00332675 0 0.0347837 0.407587 0 0 0 0)
(0.0752868 -0.00212917 0 0.0318733 0.399135 0 0 0 0)
(0.12008 -0.00142459 0 0.029833 0.391944 0 0 0 0)
(0.168174 -0.000643256 0 0.0264821 0.389731 0 0 0 0)
(0.215461 -0.000573767 0 0.0230211 0.387646 0 0 0 0)
(0.259429 -0.00048455 0 0.019553 0.385915 0 0 0 0)
(0.296536 -0.000409448 0 0.0161695 0.384437 0 0 0 0)
(0.325089 -0.00035432 0 0.0129252 0.383187 0 0 0 0)
(0.345235 -0.000274147 0 0.0098304 0.382052 0 0 0 0)
(0.358193 -0.00029411 0 0.00687198 0.381328 0 0 0 0)
(0.365006 0.000100442 0 0.00402303 0.380041 0 0 0 0)
(0.367968 0.00020208 0 0.00121675 0.382022 0 0 0 0)
(0.370027 -0.00040376 0 -0.00155143 0.381427 0 0 0 0)
(0.371144 -0.000185102 0 -0.00435219 0.379235 0 0 0 0)
(0.368681 0.000140457 0 -0.00721188 0.380134 0 0 0 0)
(0.361407 4.38263e-05 0 -0.01016 0.380166 0 0 0 0)
(0.349139 4.82899e-05 0 -0.0132224 0.38038 0 0 0 0)
(0.330537 1.07479e-05 0 -0.0164165 0.380414 0 0 0 0)
(0.305037 -2.35435e-05 0 -0.0197463 0.380337 0 0 0 0)
(0.274305 -6.44881e-05 0 -0.0231895 0.380103 0 0 0 0)
(0.242081 -9.77815e-05 0 -0.0267154 0.379722 0 0 0 0)
(0.213506 -0.00010486 0 -0.0302876 0.379258 0 0 0 0)
(0.192897 -0.000134289 0 -0.0338812 0.378861 0 0 0 0)
(0.180962 -3.4664e-05 0 -0.0375168 0.378254 0 0 0 0)
(0.174107 -0.000382143 0 -0.041186 0.378682 0 0 0 0)
(0.163479 8.07149e-05 0 -0.0453884 0.37584 0 0 0 0)
(0.143061 -0.0011819 0 -0.0488162 0.379781 0 0 0 0)
(0.121111 0.00018184 0 -0.0533873 0.368463 0 0 0 0)
(0.0969105 -0.000290207 0 -0.0579716 0.381682 0 0 0 0)
(0.0841953 0.0101868 0 -0.0589246 0.367047 0 0 0 0)
(2.3421 0.0106679 0 -0.0425648 0.444716 0 0 0 0)
(2.29893 -0.00168584 0 -0.0651092 0.448293 0 0 0 0)
(0.65539 0.844662 0 -9.93262 0.205511 0 0 0 0)
(1.15759 0.930997 0 -6.03499 0.807852 0 0 0 0)
(-0.854557 -0.066511 0 -3.45988 1.24136 0 0 0 0)
(-0.928035 -0.526703 0 -1.12397 1.13662 0 0 0 0)
(-0.55018 -0.369885 0 -0.171829 0.74617 0 0 0 0)
(-0.365822 -0.110664 0 -0.0562774 0.529962 0 0 0 0)
(-0.153379 -0.031354 0 -0.0250152 0.45358 0 0 0 0)
(-0.0189076 -0.0138809 0 -0.0121444 0.424435 0 0 0 0)
(0.0315731 -0.00710112 0 -0.0062725 0.406686 0 0 0 0)
(0.0750473 -0.00455083 0 -0.0027918 0.398146 0 0 0 0)
(0.119709 -0.0027357 0 0.000138577 0.391705 0 0 0 0)
(0.167438 -0.0012501 0 0.000693275 0.389502 0 0 0 0)
(0.214604 -0.00111015 0 0.000941995 0.387408 0 0 0 0)
(0.258495 -0.000933742 0 0.000890397 0.385719 0 0 0 0)
(0.295569 -0.000793679 0 0.000750718 0.384252 0 0 0 0)
(0.324113 -0.000693583 0 0.000608338 0.383006 0 0 0 0)
(0.34426 -0.000540795 0 0.000472662 0.381865 0 0 0 0)
(0.357221 -0.000585175 0 0.000337988 0.381134 0 0 0 0)
(0.364033 0.000201949 0 0.000207275 0.379845 0 0 0 0)
(0.366995 0.000403313 0 -4.1071e-05 0.381837 0 0 0 0)
(0.369054 -0.000810972 0 -0.000266501 0.381245 0 0 0 0)
(0.370171 -0.000376153 0 -0.000520953 0.379045 0 0 0 0)
(0.367713 0.000270891 0 -0.00076674 0.379943 0 0 0 0)
(0.360448 7.137e-05 0 -0.00100519 0.379968 0 0 0 0)
(0.348193 7.23458e-05 0 -0.00123366 0.380173 0 0 0 0)
(0.329609 -1.23088e-05 0 -0.00143998 0.380187 0 0 0 0)
(0.304141 -9.05301e-05 0 -0.00159763 0.380079 0 0 0 0)
(0.273462 -0.000178887 0 -0.0016706 0.379798 0 0 0 0)
(0.241312 -0.000245826 0 -0.00161875 0.379362 0 0 0 0)
(0.212833 -0.000250642 0 -0.00139289 0.378824 0 0 0 0)
(0.192334 -0.000292097 0 -0.00097754 0.378371 0 0 0 0)
(0.18052 -5.1976e-05 0 -0.00039015 0.377608 0 0 0 0)
(0.173697 -0.000702304 0 0.000488998 0.378089 0 0 0 0)
(0.163337 0.000319681 0 0.000725851 0.37502 0 0 0 0)
(0.142951 -0.00214602 0 0.00344808 0.378737 0 0 0 0)
(0.121021 0.000553134 0 0.00381107 0.368701 0 0 0 0)
(0.0975051 -0.000412033 0 0.00686527 0.379777 0 0 0 0)
(0.0872399 0.018337 0 0.0120132 0.367139 0 0 0 0)
(2.34279 0.0236352 0 0.0270683 0.432938 0 0 0 0)
(2.29708 0.0010405 0 0.0382605 0.428883 0 0 0 0)
(2.46764 1.00838 0 -4.51431 0.0345109 0 0 0 0)
(2.76803 1.34606 0 -2.99161 0.439092 0 0 0 0)
(0.203303 0.0908255 0 -1.96493 0.559463 0 0 0 0)
(-0.210455 -0.552537 0 -0.794958 0.592395 0 0 0 0)
(-0.290662 -0.439951 0 -0.385837 0.572588 0 0 0 0)
(-0.287211 -0.178154 0 -0.151936 0.496979 0 0 0 0)
(-0.126388 -0.0615468 0 -0.0710208 0.444357 0 0 0 0)
(-0.00819355 -0.0283656 0 -0.0423289 0.419173 0 0 0 0)
(0.0380544 -0.015453 0 -0.0317666 0.401987 0 0 0 0)
(0.0795853 -0.0087263 0 -0.0216319 0.394907 0 0 0 0)
(0.122694 -0.00533076 0 -0.016305 0.389607 0 0 0 0)
(0.16953 -0.00263701 0 -0.0139652 0.387298 0 0 0 0)
(0.216577 -0.00232661 0 -0.0121563 0.385141 0 0 0 0)
(0.260388 -0.00194443 0 -0.0106393 0.38348 0 0 0 0)
(0.297477 -0.00166723 0 -0.00908509 0.382019 0 0 0 0)
(0.326043 -0.00145939 0 -0.0074442 0.380792 0 0 0 0)
(0.346192 -0.00113965 0 -0.0057722 0.379672 0 0 0 0)
(0.359149 -0.00122506 0 -0.00410099 0.378961 0 0 0 0)
(0.365893 0.000424062 0 -0.0024216 0.377694 0 0 0 0)
(0.368797 0.000847741 0 -0.00101994 0.379731 0 0 0 0)
(0.370852 -0.00168444 0 0.000435831 0.379156 0 0 0 0)
(0.371955 -0.000781026 0 0.00182043 0.376946 0 0 0 0)
(0.369495 0.000568644 0 0.00318315 0.377844 0 0 0 0)
(0.362222 0.000156403 0 0.00448407 0.377871 0 0 0 0)
(0.34996 0.000157928 0 0.00569702 0.378083 0 0 0 0)
(0.331381 -2.17336e-05 0 0.00682159 0.378103 0 0 0 0)
(0.305927 -0.000190438 0 0.00785083 0.378002 0 0 0 0)
(0.275267 -0.000381614 0 0.00882045 0.377732 0 0 0 0)
(0.243146 -0.000537324 0 0.00974277 0.377314 0 0 0 0)
(0.214688 -0.000557915 0 0.0106401 0.376755 0 0 0 0)
(0.194177 -0.000714385 0 0.0115906 0.376312 0 0 0 0)
(0.182394 -0.000191406 0 0.0124033 0.375342 0 0 0 0)
(0.175282 -0.00163588 0 0.0135693 0.375931 0 0 0 0)
(0.165498 0.000210715 0 0.0130763 0.37237 0 0 0 0)
(0.145124 -0.00403055 0 0.0160317 0.375503 0 0 0 0)
(0.123358 0.000404598 0 0.0158419 0.367364 0 0 0 0)
(0.101368 -0.00112902 0 0.018784 0.374837 0 0 0 0)
(0.0933477 0.0341097 0 0.0235847 0.366275 0 0 0 0)
(2.35775 0.0344046 0 0.0412589 0.413745 0 0 0 0)
(2.30809 -0.00738158 0 0.00135916 0.405284 0 0 0 0)
(2.29257 1.00461 0 -0.691299 0.585383 0 0 0 0)
(2.7507 1.21429 0 -1.05957 0.388829 0 0 0 0)
(0.694955 -0.00315122 0 -0.917641 0.240792 0 0 0 0)
(0.208846 -0.500202 0 -0.54523 0.29323 0 0 0 0)
(-0.0697013 -0.42426 0 -0.363957 0.4168 0 0 0 0)
(-0.104607 -0.198041 0 -0.175417 0.441683 0 0 0 0)
(-0.0622317 -0.0901405 0 -0.0680713 0.423789 0 0 0 0)
(0.013174 -0.046943 0 -0.0377324 0.407154 0 0 0 0)
(0.0480419 -0.0260064 0 -0.0205201 0.396248 0 0 0 0)
(0.0875132 -0.0142423 0 -0.0102454 0.38958 0 0 0 0)
(0.125497 -0.00867641 0 -0.00503045 0.386334 0 0 0 0)
(0.170314 -0.00480907 0 -0.00344496 0.383854 0 0 0 0)
(0.21675 -0.00413668 0 -0.00282866 0.38171 0 0 0 0)
(0.26044 -0.00340026 0 -0.00261527 0.380147 0 0 0 0)
(0.297625 -0.00291547 0 -0.00229678 0.378766 0 0 0 0)
(0.326271 -0.00254531 0 -0.00188404 0.377651 0 0 0 0)
(0.346446 -0.00198433 0 -0.0014438 0.376619 0 0 0 0)
(0.359416 -0.00214794 0 -0.00101487 0.375986 0 0 0 0)
(0.366005 0.000824464 0 -0.000572034 0.374781 0 0 0 0)
(0.368782 0.00157354 0 -0.000536798 0.376913 0 0 0 0)
(0.370827 -0.00302641 0 -0.000391687 0.37636 0 0 0 0)
(0.371862 -0.00142295 0 -0.0003451 0.374103 0 0 0 0)
(0.369325 0.0010027 0 -0.000322258 0.374976 0 0 0 0)
(0.36192 0.000255632 0 -0.000403614 0.374969 0 0 0 0)
(0.349497 0.000250745 0 -0.000629724 0.37515 0 0 0 0)
(0.330735 -8.43907e-05 0 -0.00103696 0.375102 0 0 0 0)
(0.30511 -0.000394848 0 -0.00157369 0.374949 0 0 0 0)
(0.274317 -0.000733334 0 -0.00230364 0.374564 0 0 0 0)
(0.242082 -0.00103147 0 -0.00307575 0.374048 0 0 0 0)
(0.213618 -0.00105214 0 -0.00384135 0.373343 0 0 0 0)
(0.193045 -0.00142686 0 -0.00451038 0.372852 0 0 0 0)
(0.181421 -0.000344116 0 -0.00548645 0.371423 0 0 0 0)
(0.173496 -0.00306551 0 -0.00530522 0.3722 0 0 0 0)
(0.164551 -3.3966e-05 0 -0.00795582 0.368107 0 0 0 0)
(0.14445 -0.00595955 0 -0.0058528 0.370652 0 0 0 0)
(0.12242 -9.23564e-06 0 -0.00718474 0.365246 0 0 0 0)
(0.102895 -0.00107691 0 -0.00548628 0.369557 0 0 0 0)
(0.105622 0.0473724 0 -0.00257345 0.365679 0 0 0 0)
(2.31335 0.0554507 0 0.0281161 0.391326 0 0 0 0)
(2.25272 -0.00259665 0 -0.0757752 0.407235 0 0 0 0)
(2.11276 0.818975 0 -0.0399687 0.555913 0 0 0 0)
(2.54992 1.014 0 -0.304145 0.158185 0 0 0 0)
(0.698943 -0.00129795 0 -0.371801 0.123152 0 0 0 0)
(0.323096 -0.382929 0 -0.378388 0.167899 0 0 0 0)
(0.0657035 -0.296895 0 -0.250538 0.3352 0 0 0 0)
(-0.00208497 -0.171419 0 -0.167671 0.38808 0 0 0 0)
(0.00628953 -0.0948209 0 -0.0769402 0.395364 0 0 0 0)
(0.0376286 -0.0549044 0 -0.048431 0.389936 0 0 0 0)
(0.0645419 -0.032388 0 -0.0242222 0.387415 0 0 0 0)
(0.0945116 -0.01828 0 -0.0147634 0.382548 0 0 0 0)
(0.129248 -0.0108482 0 -0.00869062 0.380625 0 0 0 0)
(0.171652 -0.00709332 0 -0.00634204 0.378278 0 0 0 0)
(0.217376 -0.00589901 0 -0.00522894 0.37623 0 0 0 0)
(0.2609 -0.00478065 0 -0.0045446 0.374737 0 0 0 0)
(0.298182 -0.00407222 0 -0.00387799 0.373514 0 0 0 0)
(0.326865 -0.00352833 0 -0.00309422 0.372519 0 0 0 0)
(0.34703 -0.00274469 0 -0.00236517 0.37162 0 0 0 0)
(0.359989 -0.00299649 0 -0.00166796 0.371083 0 0 0 0)
(0.366354 0.00131743 0 -0.000955018 0.369948 0 0 0 0)
(0.368971 0.00236924 0 -0.000784189 0.372209 0 0 0 0)
(0.371036 -0.00439235 0 -0.000435308 0.371666 0 0 0 0)
(0.372022 -0.00211468 0 -0.000210012 0.369305 0 0 0 0)
(0.369439 0.0014032 0 1.21366e-05 0.370126 0 0 0 0)
(0.361926 0.000323763 0 0.000129487 0.370059 0 0 0 0)
(0.34935 0.000286109 0 5.98001e-05 0.370151 0 0 0 0)
(0.330471 -0.000215398 0 -0.000130776 0.370061 0 0 0 0)
(0.304707 -0.000708031 0 -0.00066028 0.369696 0 0 0 0)
(0.27382 -0.00124965 0 -0.00108974 0.369256 0 0 0 0)
(0.241664 -0.00171401 0 -0.00180026 0.368551 0 0 0 0)
(0.213305 -0.00171058 0 -0.00265918 0.367454 0 0 0 0)
(0.192592 -0.00256492 0 -0.00270983 0.367051 0 0 0 0)
(0.181628 -0.00081981 0 -0.00386354 0.364769 0 0 0 0)
(0.172902 -0.00483158 0 -0.00277414 0.365565 0 0 0 0)
(0.164971 -0.00128027 0 -0.00577503 0.360819 0 0 0 0)
(0.145867 -0.00678677 0 -0.00254581 0.362276 0 0 0 0)
(0.123711 -0.000651404 0 -0.0028237 0.359871 0 0 0 0)
(0.105812 -0.000712433 0 -0.000282846 0.360892 0 0 0 0)
(0.125728 0.0550873 0 0.000447423 0.36179 0 0 0 0)
(2.28721 0.0744493 0 0.0489943 0.361586 0 0 0 0)
(2.20798 0.00794862 0 -0.0714812 0.368271 0 0 0 0)
(2.038 0.621344 0 0.0524987 0.503197 0 0 0 0)
(2.43093 0.797267 0 -0.0968709 0.180049 0 0 0 0)
(0.623412 0.00620907 0 -0.184226 0.138194 0 0 0 0)
(0.325699 -0.295866 0 -0.237801 0.197812 0 0 0 0)
(0.133353 -0.212085 0 -0.190302 0.307868 0 0 0 0)
(0.062678 -0.140064 0 -0.134451 0.351172 0 0 0 0)
(0.0526725 -0.0883522 0 -0.0791318 0.367952 0 0 0 0)
(0.0639751 -0.054603 0 -0.0490929 0.370104 0 0 0 0)
(0.0804852 -0.0331261 0 -0.0284351 0.372652 0 0 0 0)
(0.10248 -0.0207852 0 -0.0176835 0.370698 0 0 0 0)
(0.133612 -0.0127905 0 -0.0115873 0.369518 0 0 0 0)
(0.17365 -0.00904417 0 -0.00846424 0.367639 0 0 0 0)
(0.218483 -0.00754928 0 -0.00687207 0.365971 0 0 0 0)
(0.261742 -0.00601725 0 -0.0060167 0.364905 0 0 0 0)
(0.299023 -0.00505261 0 -0.00487073 0.363843 0 0 0 0)
(0.327729 -0.00437073 0 -0.00392095 0.363182 0 0 0 0)
(0.34782 -0.00336813 0 -0.00299929 0.362464 0 0 0 0)
(0.360775 -0.00375889 0 -0.00215982 0.362092 0 0 0 0)
(0.366856 0.00190948 0 -0.00128278 0.361037 0 0 0 0)
(0.369282 0.00322871 0 -0.00107552 0.363466 0 0 0 0)
(0.371381 -0.00582442 0 -0.000615252 0.362924 0 0 0 0)
(0.372293 -0.00290653 0 -0.000337676 0.360399 0 0 0 0)
(0.369652 0.00172927 0 -6.7753e-05 0.361138 0 0 0 0)
(0.361966 0.000279328 0 4.49211e-05 0.360929 0 0 0 0)
(0.349247 0.000251946 0 5.66127e-07 0.360932 0 0 0 0)
(0.330041 -0.000522848 0 -0.000448062 0.360507 0 0 0 0)
(0.304186 -0.00117072 0 -0.000702622 0.360241 0 0 0 0)
(0.273218 -0.00183673 0 -0.00197077 0.359111 0 0 0 0)
(0.240569 -0.00276737 0 -0.00247297 0.35849 0 0 0 0)
(0.212742 -0.00249755 0 -0.0035445 0.356953 0 0 0 0)
(0.191884 -0.00401429 0 -0.0041874 0.356213 0 0 0 0)
(0.181359 -0.00177637 0 -0.00604706 0.353005 0 0 0 0)
(0.171654 -0.00687194 0 -0.00353728 0.35398 0 0 0 0)
(0.164771 -0.00320285 0 -0.00741894 0.348793 0 0 0 0)
(0.147294 -0.00687346 0 -0.00387958 0.349123 0 0 0 0)
(0.124601 -0.00134284 0 -0.0036357 0.348624 0 0 0 0)
(0.106047 0.000773052 0 -9.84987e-05 0.347606 0 0 0 0)
(0.153108 0.0480404 0 -0.00195884 0.352984 0 0 0 0)
(2.24404 0.0616955 0 0.0636285 0.321006 0 0 0 0)
(2.13663 0.00384547 0 -0.0916312 0.338007 0 0 0 0)
(1.96882 0.507578 0 0.04306 0.40766 0 0 0 0)
(2.32181 0.662269 0 -0.0490371 0.174942 0 0 0 0)
(0.563137 0.0158193 0 -0.120537 0.139306 0 0 0 0)
(0.31724 -0.219425 0 -0.159176 0.206935 0 0 0 0)
(0.165296 -0.149112 0 -0.14189 0.290377 0 0 0 0)
(0.105043 -0.11352 0 -0.106387 0.319847 0 0 0 0)
(0.0885434 -0.076577 0 -0.0692667 0.33891 0 0 0 0)
(0.0864818 -0.0503749 0 -0.0443631 0.346282 0 0 0 0)
(0.0948091 -0.0318163 0 -0.0283831 0.350874 0 0 0 0)
(0.110747 -0.0213008 0 -0.0181183 0.35123 0 0 0 0)
(0.138132 -0.0137954 0 -0.0123072 0.35129 0 0 0 0)
(0.176196 -0.0105115 0 -0.00920666 0.349916 0 0 0 0)
(0.219735 -0.00853402 0 -0.00812321 0.349685 0 0 0 0)
(0.262829 -0.00683055 0 -0.00634378 0.348571 0 0 0 0)
(0.300202 -0.00573228 0 -0.00544412 0.348432 0 0 0 0)
(0.328668 -0.00485717 0 -0.00421079 0.347995 0 0 0 0)
(0.348727 -0.00379529 0 -0.00327392 0.347651 0 0 0 0)
(0.361643 -0.00437238 0 -0.00239032 0.347488 0 0 0 0)
(0.367398 0.00264167 0 -0.00146241 0.346531 0 0 0 0)
(0.369614 0.00418799 0 -0.00129829 0.349181 0 0 0 0)
(0.371747 -0.00734747 0 -0.000796989 0.348646 0 0 0 0)
(0.372549 -0.00383553 0 -0.000563761 0.345899 0 0 0 0)
(0.369807 0.00191325 0 -0.000358956 0.346516 0 0 0 0)
(0.361992 0.00012486 0 -0.000312886 0.346149 0 0 0 0)
(0.348875 -0.000119788 0 -0.000599104 0.345787 0 0 0 0)
(0.329794 -0.000881173 0 -0.000841554 0.345456 0 0 0 0)
(0.303239 -0.00205416 0 -0.00231814 0.343986 0 0 0 0)
(0.272114 -0.00293668 0 -0.00217887 0.343797 0 0 0 0)
(0.240147 -0.00379348 0 -0.00463521 0.341343 0 0 0 0)
(0.211653 -0.0039046 0 -0.00602661 0.339595 0 0 0 0)
(0.19018 -0.00636929 0 -0.00514982 0.339285 0 0 0 0)
(0.182255 -0.00297241 0 -0.00955968 0.333808 0 0 0 0)
(0.17158 -0.00889042 0 -0.00654976 0.334309 0 0 0 0)
(0.164641 -0.00596007 0 -0.0111329 0.329102 0 0 0 0)
(0.149513 -0.00694934 0 -0.00724028 0.327689 0 0 0 0)
(0.127355 -0.00211334 0 -0.00792803 0.326809 0 0 0 0)
(0.107427 0.00348874 0 -0.00444849 0.322582 0 0 0 0)
(0.187138 0.0294542 0 -0.00800181 0.330672 0 0 0 0)
(2.2008 0.0600174 0 0.0654936 0.264809 0 0 0 0)
(2.05836 0.0243319 0 -0.102489 0.304882 0 0 0 0)
(1.94925 0.397088 0 0.0326986 0.393235 0 0 0 0)
(2.27329 0.538671 0 -0.0237734 0.17226 0 0 0 0)
(0.517278 0.0370383 0 -0.0757879 0.145746 0 0 0 0)
(0.305122 -0.150288 0 -0.119351 0.211137 0 0 0 0)
(0.184222 -0.103279 0 -0.115025 0.270912 0 0 0 0)
(0.13266 -0.0932951 0 -0.0847672 0.289428 0 0 0 0)
(0.112441 -0.0628782 0 -0.0608229 0.307984 0 0 0 0)
(0.103372 -0.0430746 0 -0.040453 0.316894 0 0 0 0)
(0.105776 -0.0283581 0 -0.0269649 0.322647 0 0 0 0)
(0.117971 -0.0203842 0 -0.0173054 0.323717 0 0 0 0)
(0.142199 -0.0140565 0 -0.0122284 0.324548 0 0 0 0)
(0.177682 -0.0105912 0 -0.010342 0.325367 0 0 0 0)
(0.221241 -0.00884558 0 -0.00732899 0.324107 0 0 0 0)
(0.264323 -0.00722442 0 -0.00692862 0.325354 0 0 0 0)
(0.301078 -0.00560796 0 -0.0051696 0.324989 0 0 0 0)
(0.32982 -0.00512368 0 -0.00417649 0.325396 0 0 0 0)
(0.349574 -0.00385594 0 -0.00322944 0.325322 0 0 0 0)
(0.362521 -0.00483739 0 -0.00242841 0.32546 0 0 0 0)
(0.367909 0.00354067 0 -0.00156614 0.324582 0 0 0 0)
(0.369924 0.00526643 0 -0.00149782 0.327482 0 0 0 0)
(0.372088 -0.00898738 0 -0.00101506 0.32696 0 0 0 0)
(0.372715 -0.00495919 0 -0.000905197 0.323936 0 0 0 0)
(0.369894 0.00197008 0 -0.000835369 0.324429 0 0 0 0)
(0.361734 -0.000423329 0 -0.000987435 0.323773 0 0 0 0)
(0.348737 -0.000415887 0 -0.00135161 0.323306 0 0 0 0)
(0.328385 -0.00225769 0 -0.00240471 0.321927 0 0 0 0)
(0.302897 -0.00276902 0 -0.00247139 0.321815 0 0 0 0)
(0.270985 -0.00438371 0 -0.00600967 0.317729 0 0 0 0)
(0.236862 -0.00681623 0 -0.00448483 0.319003 0 0 0 0)
(0.212246 -0.0044807 0 -0.00940588 0.313346 0 0 0 0)
(0.18848 -0.00959175 0 -0.00807483 0.313109 0 0 0 0)