/*--------------------------------*- C++ -*----------------------------------*\
| =========                 |                                                 |
| \\      /  F ield         | OpenFOAM: The Open Source CFD Toolbox           |
|  \\    /   O peration     | Version:  v1912                                 |
|   \\  /    A nd           | Website:  www.openfoam.com                      |
|    \\/     M anipulation  |                                                 |
\*---------------------------------------------------------------------------*/
FoamFile
{
    version     2.0;
    format      ascii;
    class       volScalarField;
    location    "3.42";
    object      T;
}
// * * * * * * * * * * * * * * * * * * * * * * * * * * * * * * * * * * * * * //

dimensions      [0 0 0 1 0 0 0];


internalField   nonuniform List<scalar> 
1900
(
1.15937
1.02395
1.03131
1.04017
1.04369
1.04475
1.04538
1.04631
1.04651
1.04776
1.15937
1.02395
1.03132
1.04017
1.04369
1.04474
1.04532
1.04561
1.04495
1.04467
1.15937
1.02395
1.03132
1.04017
1.04367
1.04468
1.04521
1.04543
1.04518
1.04486
1.15937
1.02395
1.03132
1.04017
1.04369
1.04474
1.04532
1.04561
1.04495
1.04467
1.15937
1.02395
1.03131
1.04017
1.04369
1.04475
1.04538
1.04631
1.04651
1.04776
1.04301
1.04028
1.0283
0.995097
0.930508
1.04261
1.03919
1.02428
0.994518
0.947266
1.04325
1.0389
1.02274
0.990028
0.941857
1.04261
1.03919
1.02428
0.994518
0.947266
1.04301
1.04028
1.0283
0.995097
0.930508
0.962109
0.912911
0.888089
0.87047
0.849906
0.957092
0.912502
0.889004
0.871508
0.85392
0.956041
0.912403
0.888759
0.870709
0.853204
0.957092
0.912502
0.889004
0.871508
0.85392
0.962109
0.912911
0.888089
0.87047
0.849906
0.783725
0.68766
0.744955
0.770042
0.753988
0.738623
0.728925
0.727567
0.728763
0.730609
0.733618
0.736711
0.739432
0.741442
0.742745
0.743497
0.74387
0.744023
0.744073
0.743876
0.743551
0.74312
0.742385
0.741313
0.739739
0.737423
0.734145
0.729727
0.724164
0.717672
0.710615
0.70338
0.696223
0.68957
0.683662
0.679486
0.676643
0.673397
0.616291
0.520979
0.842373
0.721327
0.757002
0.773817
0.75613
0.739138
0.729075
0.727639
0.728866
0.730663
0.733665
0.736746
0.739463
0.741471
0.742772
0.743523
0.743894
0.744046
0.744096
0.743899
0.743574
0.743143
0.742407
0.741335
0.73976
0.737445
0.734166
0.729748
0.724187
0.717695
0.71064
0.703404
0.696245
0.689589
0.683674
0.679518
0.676673
0.673424
0.615993
0.520746
0.838123
0.744049
0.76626
0.776664
0.757259
0.73943
0.729188
0.727687
0.728938
0.730703
0.733698
0.73677
0.739483
0.741487
0.742786
0.743535
0.743905
0.744057
0.744106
0.743909
0.743584
0.743152
0.742417
0.741345
0.739771
0.737457
0.73418
0.729765
0.724207
0.71772
0.710672
0.703444
0.696294
0.689649
0.683748
0.67962
0.6768
0.673575
0.616205
0.522864
0.842373
0.721327
0.757002
0.773817
0.75613
0.739138
0.729075
0.727639
0.728866
0.730663
0.733665
0.736746
0.739463
0.741471
0.742772
0.743523
0.743894
0.744046
0.744096
0.743899
0.743574
0.743143
0.742407
0.741335
0.73976
0.737445
0.734166
0.729748
0.724187
0.717695
0.71064
0.703404
0.696245
0.689589
0.683674
0.679518
0.676673
0.673424
0.615993
0.520746
0.783725
0.68766
0.744955
0.770042
0.753988
0.738623
0.728925
0.727567
0.728763
0.730609
0.733618
0.736711
0.739432
0.741442
0.742745
0.743497
0.74387
0.744023
0.744073
0.743876
0.743551
0.74312
0.742385
0.741313
0.739739
0.737423
0.734145
0.729727
0.724164
0.717672
0.710615
0.70338
0.696223
0.68957
0.683662
0.679486
0.676643
0.673397
0.616291
0.520979
0.603046
0.637956
0.732355
0.756144
0.746723
0.735914
0.727901
0.726901
0.728124
0.73019
0.733271
0.736425
0.739176
0.741208
0.74253
0.743299
0.743685
0.743847
0.743903
0.743709
0.743386
0.742956
0.742219
0.741144
0.739564
0.737241
0.733953
0.729524
0.723949
0.717443
0.710374
0.703134
0.695979
0.689342
0.683458
0.679217
0.676377
0.673186
0.617412
0.522593
0.510743
0.639059
0.722519
0.734487
0.733554
0.728984
0.725092
0.724972
0.726524
0.72902
0.73235
0.735653
0.738485
0.740579
0.741954
0.742767
0.743188
0.743375
0.743448
0.743262
0.742944
0.742515
0.741774
0.740689
0.739094
0.736751
0.733434
0.72897
0.723353
0.716799
0.709682
0.702406
0.695242
0.688611
0.682752
0.6784
0.675468
0.672314
0.61733
0.51979
0.497715
0.646501
0.711006
0.719356
0.722472
0.72154
0.720962
0.721943
0.72418
0.727263
0.730849
0.734362
0.737316
0.739509
0.740965
0.74185
0.742325
0.74255
0.742646
0.742473
0.742161
0.741733
0.740985
0.739884
0.738267
0.735888
0.732531
0.728013
0.722332
0.715712
0.70853
0.701208
0.694045
0.687432
0.681594
0.677103
0.674054
0.670996
0.61762
0.517949
0.50467
0.643534
0.699956
0.707187
0.712346
0.71441
0.71599
0.718215
0.721117
0.724764
0.728692
0.732457
0.735584
0.737918
0.739499
0.74048
0.741031
0.741308
0.741437
0.74128
0.740977
0.740551
0.73979
0.738668
0.737014
0.734594
0.731163
0.726578
0.720807
0.714077
0.706811
0.699428
0.692261
0.685639
0.679775
0.675099
0.671868
0.66894
0.617694
0.514259
0.496266
0.637583
0.688556
0.697076
0.703205
0.707246
0.7103
0.713616
0.717239
0.721416
0.725711
0.72976
0.733102
0.735649
0.737375
0.738498
0.739144
0.73949
0.739659
0.739524
0.739231
0.738803
0.738026
0.736868
0.735175
0.732665
0.729187
0.724451
0.718579
0.711716
0.704327
0.696844
0.689691
0.683026
0.677093
0.672148
0.66872
0.665928
0.617382
0.509835
0.493065
0.630906
0.678274
0.687362
0.694203
0.699563
0.703776
0.708005
0.712305
0.716964
0.721639
0.725997
0.729666
0.732404
0.73439
0.735658
0.736438
0.736867
0.737087
0.736977
0.736695
0.736263
0.735459
0.73426
0.732483
0.729931
0.726244
0.721479
0.715371
0.708294
0.700815
0.693179
0.685975
0.679141
0.673081
0.66767
0.663911
0.661087
0.614835
0.504301
0.490037
0.623567
0.66897
0.678111
0.685641
0.691525
0.696461
0.701367
0.706165
0.711205
0.71624
0.720965
0.724898
0.728043
0.730212
0.731725
0.732644
0.733179
0.733458
0.733379
0.733109
0.732665
0.731827
0.730561
0.72872
0.725979
0.722289
0.717167
0.710972
0.703634
0.695943
0.688151
0.68093
0.673916
0.667597
0.661847
0.657491
0.654759
0.610539
0.49851
0.484741
0.615284
0.659216
0.667395
0.675354
0.681967
0.687677
0.693212
0.698459
0.703859
0.709258
0.71435
0.718795
0.722216
0.724774
0.726502
0.727603
0.728258
0.728603
0.728562
0.728302
0.727837
0.726953
0.725613
0.723647
0.720815
0.716811
0.71159
0.705013
0.697329
0.689499
0.681443
0.674039
0.666842
0.660216
0.654067
0.649067
0.646186
0.603612
0.492157
0.47994
0.607209
0.649707
0.657114
0.665269
0.672405
0.678699
0.684535
0.689967
0.695496
0.701141
0.70657
0.711378
0.715213
0.718088
0.72008
0.721376
0.722159
0.722579
0.72258
0.722326
0.721835
0.720895
0.71947
0.717376
0.714365
0.710191
0.704665
0.697896
0.689983
0.681983
0.673877
0.666442
0.6592
0.652391
0.645962
0.640574
0.637539
0.596952
0.486113
0.475202
0.599087
0.640155
0.646934
0.654977
0.662282
0.66893
0.674899
0.680466
0.686142
0.691994
0.697803
0.703026
0.707331
0.710539
0.712818
0.7143
0.715216
0.715712
0.715755
0.715505
0.714986
0.713992
0.712472
0.710264
0.707057
0.702716
0.696853
0.689904
0.681755
0.673751
0.665605
0.658178
0.650927
0.644019
0.637338
0.631672
0.628628
0.589588
0.480163
0.470846
0.591598
0.631246
0.637675
0.645525
0.652962
0.659822
0.665838
0.671455
0.677134
0.683184
0.689175
0.694745
0.699298
0.702752
0.705226
0.706859
0.707887
0.70845
0.708531
0.708287
0.707747
0.70671
0.705125
0.702833
0.699549
0.695095
0.689172
0.682091
0.67393
0.665906
0.657848
0.650474
0.643271
0.636294
0.629384
0.62346
0.620383
0.583445
0.474818
0.466843
0.584563
0.62288
0.629168
0.636586
0.644079
0.650888
0.656851
0.662479
0.668171
0.674361
0.680597
0.686504
0.691363
0.695094
0.697732
0.699483
0.700587
0.701194
0.701302
0.701067
0.700523
0.699468
0.697857
0.695519
0.692176
0.687611
0.681529
0.674391
0.666151
0.658203
0.65026
0.642954
0.635771
0.628722
0.621577
0.615409
0.612331
0.577068
0.469807
0.463462
0.577995
0.614804
0.62088
0.628179
0.635733
0.642441
0.648403
0.654087
0.659897
0.66625
0.672737
0.678943
0.684037
0.687901
0.690615
0.692418
0.693549
0.694172
0.694292
0.694071
0.693544
0.692504
0.690916
0.688597
0.68526
0.680734
0.674522
0.667347
0.659036
0.651122
0.643232
0.63593
0.62871
0.621543
0.61417
0.607743
0.604611
0.571342
0.46552
0.460066
0.571834
0.607063
0.612758
0.619895
0.627559
0.634044
0.640085
0.645877
0.651835
0.658434
0.665107
0.671649
0.677067
0.681221
0.684129
0.686011
0.687183
0.687815
0.687943
0.68774
0.687236
0.686221
0.684642
0.682318
0.678868
0.674211
0.667765
0.660503
0.652143
0.644231
0.636312
0.628966
0.621648
0.614313
0.606698
0.600018
0.596875
0.565416
0.461388
0.457633
0.565464
0.598985
0.604284
0.611323
0.619094
0.625642
0.631866
0.637825
0.644109
0.651017
0.658058
0.665108
0.670906
0.67535
0.678434
0.680438
0.681667
0.682299
0.682406
0.682225
0.681782
0.680805
0.67922
0.676838
0.67327
0.668466
0.661714
0.654163
0.645596
0.637553
0.629535
0.622061
0.614574
0.607019
0.599181
0.592246
0.589097
0.559673
0.458441
0.454085
0.559629
0.591094
0.595905
0.602902
0.610733
0.61736
0.623823
0.630026
0.636703
0.644114
0.651657
0.65913
0.665412
0.670379
0.673838
0.676109
0.677549
0.678328
0.678519
0.678362
0.677881
0.676803
0.675065
0.67248
0.668599
0.663397
0.656197
0.648383
0.639512
0.631193
0.622911
0.615175
0.607417
0.599629
0.591593
0.584388
0.581366
0.554158
0.454797
0.454551
0.554162
0.583606
0.587908
0.595051
0.603002
0.609882
0.616723
0.623329
0.630465
0.638363
0.646454
0.654722
0.66149
0.666887
0.670592
0.673112
0.674713
0.675565
0.675777
0.675647
0.67519
0.674081
0.672221
0.669455
0.665303
0.659864
0.652201
0.643834
0.634564
0.625942
0.617405
0.609391
0.601371
0.593324
0.585038
0.57759
0.575015
0.54992
0.455831
0.460645
0.553809
0.583084
0.585704
0.591892
0.599407
0.606384
0.613385
0.620175
0.627507
0.63555
0.643828
0.652184
0.658854
0.664227
0.667727
0.67006
0.671524
0.672341
0.67273
0.672609
0.671997
0.670944
0.669228
0.666677
0.66268
0.657335
0.649699
0.641457
0.632158
0.623477
0.614971
0.60693
0.598928
0.590909
0.582729
0.575843
0.574261
0.549815
0.462462
0.445835
0.532583
0.561815
0.56251
0.565934
0.570711
0.575028
0.579958
0.584361
0.589979
0.596035
0.602364
0.608676
0.612829
0.615502
0.616121
0.616
0.615621
0.615208
0.616971
0.616857
0.614918
0.615141
0.615213
0.615236
0.613879
0.611293
0.606056
0.600027
0.592352
0.585783
0.578926
0.572988
0.566851
0.560985
0.555082
0.550435
0.550091
0.524922
0.436941
0.384127
0.44086
0.468575
0.461039
0.459381
0.462034
0.464277
0.468005
0.471971
0.476991
0.482342
0.488257
0.49417
0.500091
0.505421
0.510362
0.51412
0.517268
0.518448
0.520609
0.520614
0.518425
0.517233
0.514042
0.510265
0.505216
0.499866
0.493769
0.487805
0.481667
0.476075
0.470773
0.466274
0.461991
0.458931
0.455026
0.455958
0.462596
0.438155
0.380792
0.384127
0.44086
0.468575
0.461039
0.459381
0.462034
0.464277
0.468005
0.471971
0.476991
0.482342
0.488257
0.49417
0.500091
0.505421
0.510362
0.51412
0.517268
0.518448
0.520609
0.520614
0.518425
0.517233
0.514042
0.510265
0.505216
0.499866
0.493769
0.487805
0.481667
0.476075
0.470773
0.466274
0.461991
0.458931
0.455026
0.455958
0.462596
0.438155
0.380792
0.445835
0.532583
0.561815
0.56251
0.565934
0.570711
0.575028
0.579958
0.584361
0.589979
0.596035
0.602364
0.608676
0.612829
0.615502
0.616121
0.616
0.615621
0.615208
0.616971
0.616857
0.614918
0.615141
0.615213
0.615236
0.613879
0.611293
0.606056
0.600027
0.592352
0.585783
0.578926
0.572988
0.566851
0.560985
0.555082
0.550435
0.550091
0.524922
0.436941
0.460645
0.553809
0.583084
0.585704
0.591892
0.599407
0.606384
0.613385
0.620175
0.627507
0.63555
0.643828
0.652184
0.658854
0.664227
0.667727
0.67006
0.671524
0.672341
0.67273
0.672609
0.671997
0.670944
0.669228
0.666677
0.66268
0.657335
0.649699
0.641457
0.632158
0.623477
0.614971
0.60693
0.598928
0.590909
0.582729
0.575843
0.574261
0.549815
0.462462
0.454551
0.554162
0.583606
0.587908
0.595051
0.603002
0.609882
0.616723
0.623329
0.630465
0.638363
0.646454
0.654722
0.66149
0.666887
0.670592
0.673112
0.674713
0.675565
0.675777
0.675647
0.67519
0.674081
0.672221
0.669455
0.665303
0.659864
0.652201
0.643834
0.634564
0.625942
0.617405
0.609391
0.601371
0.593324
0.585038
0.57759
0.575015
0.54992
0.455831
0.454085
0.559629
0.591094
0.595905
0.602902
0.610733
0.61736
0.623823
0.630026
0.636703
0.644114
0.651657
0.65913
0.665412
0.670379
0.673838
0.676109
0.677549
0.678328
0.678519
0.678362
0.677881
0.676803
0.675065
0.67248
0.668599
0.663397
0.656197
0.648383
0.639512
0.631193
0.622911
0.615175
0.607417
0.599629
0.591593
0.584388
0.581366
0.554158
0.454797
0.457633
0.565464
0.598985
0.604284
0.611323
0.619094
0.625642
0.631866
0.637825
0.644109
0.651017
0.658058
0.665108
0.670906
0.67535
0.678434
0.680438
0.681667
0.682299
0.682406
0.682225
0.681782
0.680805
0.67922
0.676838
0.67327
0.668466
0.661714
0.654163
0.645596
0.637553
0.629535
0.622061
0.614574
0.607019
0.599181
0.592246
0.589097
0.559673
0.458441
0.460066
0.571834
0.607063
0.612758
0.619895
0.627559
0.634044
0.640085
0.645877
0.651835
0.658434
0.665107
0.671649
0.677067
0.681221
0.684129
0.686011
0.687183
0.687815
0.687943
0.68774
0.687236
0.686221
0.684642
0.682318
0.678868
0.674211
0.667765
0.660503
0.652143
0.644231
0.636312
0.628966
0.621648
0.614313
0.606698
0.600018
0.596875
0.565416
0.461388
0.463462
0.577995
0.614804
0.62088
0.628179
0.635733
0.642441
0.648403
0.654087
0.659897
0.66625
0.672737
0.678943
0.684037
0.687901
0.690615
0.692418
0.693549
0.694172
0.694292
0.694071
0.693544
0.692504
0.690916
0.688597
0.68526
0.680734
0.674522
0.667347
0.659036
0.651122
0.643232
0.63593
0.62871
0.621543
0.61417
0.607743
0.604611
0.571342
0.46552
0.466843
0.584563
0.62288
0.629168
0.636586
0.644079
0.650888
0.656851
0.662479
0.668171
0.674361
0.680597
0.686504
0.691363
0.695094
0.697732
0.699483
0.700587
0.701194
0.701302
0.701067
0.700523
0.699468
0.697857
0.695519
0.692176
0.687611
0.681529
0.674391
0.666151
0.658203
0.65026
0.642954
0.635771
0.628722
0.621577
0.615409
0.612331
0.577068
0.469807
0.470846
0.591598
0.631246
0.637675
0.645525
0.652962
0.659822
0.665838
0.671455
0.677134
0.683184
0.689175
0.694745
0.699298
0.702752
0.705226
0.706859
0.707887
0.70845
0.708531
0.708287
0.707747
0.70671
0.705125
0.702833
0.699549
0.695095
0.689172
0.682091
0.67393
0.665906
0.657848
0.650474
0.643271
0.636294
0.629384
0.62346
0.620383
0.583445
0.474818
0.475202
0.599087
0.640155
0.646934
0.654977
0.662282
0.66893
0.674899
0.680466
0.686142
0.691994
0.697803
0.703026
0.707331
0.710539
0.712818
0.7143
0.715216
0.715712
0.715755
0.715505
0.714986
0.713992
0.712472
0.710264
0.707057
0.702716
0.696853
0.689904
0.681755
0.673751
0.665605
0.658178
0.650927
0.644019
0.637338
0.631672
0.628628
0.589588
0.480163
0.47994
0.607209
0.649707
0.657114
0.665269
0.672405
0.678699
0.684535
0.689967
0.695496
0.701141
0.70657
0.711378
0.715213
0.718088
0.72008
0.721376
0.722159
0.722579
0.72258
0.722326
0.721835
0.720895
0.71947
0.717376
0.714365
0.710191
0.704665
0.697896
0.689983
0.681983
0.673877
0.666442
0.6592
0.652391
0.645962
0.640574
0.637539
0.596952
0.486113
0.484741
0.615284
0.659216
0.667395
0.675354
0.681967
0.687677
0.693212
0.698459
0.703859
0.709258
0.71435
0.718795
0.722216
0.724774
0.726502
0.727603
0.728258
0.728603
0.728562
0.728302
0.727837
0.726953
0.725613
0.723647
0.720815
0.716811
0.71159
0.705013
0.697329
0.689499
0.681443
0.674039
0.666842
0.660216
0.654067
0.649067
0.646186
0.603612
0.492157
0.490037
0.623567
0.66897
0.678111
0.685641
0.691525
0.696461
0.701367
0.706165
0.711205
0.71624
0.720965
0.724898
0.728043
0.730212
0.731725
0.732644
0.733179
0.733458
0.733379
0.733109
0.732665
0.731827
0.730561
0.72872
0.725979
0.722289
0.717167
0.710972
0.703634
0.695943
0.688151
0.68093
0.673916
0.667597
0.661847
0.657491
0.654759
0.610539
0.49851
0.493065
0.630906
0.678274
0.687362
0.694203
0.699563
0.703776
0.708005
0.712305
0.716964
0.721639
0.725997
0.729666
0.732404
0.73439
0.735658
0.736438
0.736867
0.737087
0.736977
0.736695
0.736263
0.735459
0.73426
0.732483
0.729931
0.726244
0.721479
0.715371
0.708294
0.700815
0.693179
0.685975
0.679141
0.673081
0.66767
0.663911
0.661087
0.614835
0.504301
0.496266
0.637583
0.688556
0.697076
0.703205
0.707246
0.7103
0.713616
0.717239
0.721416
0.725711
0.72976
0.733102
0.735649
0.737375
0.738498
0.739144
0.73949
0.739659
0.739524
0.739231
0.738803
0.738026
0.736868
0.735175
0.732665
0.729187
0.724451
0.718579
0.711716
0.704327
0.696844
0.689691
0.683026
0.677093
0.672148
0.66872
0.665928
0.617382
0.509835
0.50467
0.643534
0.699956
0.707187
0.712346
0.71441
0.71599
0.718215
0.721117
0.724764
0.728692
0.732457
0.735584
0.737918
0.739499
0.74048
0.741031
0.741308
0.741437
0.74128
0.740977
0.740551
0.73979
0.738668
0.737014
0.734594
0.731163
0.726578
0.720807
0.714077
0.706811
0.699428
0.692261
0.685639
0.679775
0.675099
0.671868
0.66894
0.617694
0.514259
0.497715
0.646501
0.711006
0.719356
0.722472
0.72154
0.720962
0.721943
0.72418
0.727263
0.730849
0.734362
0.737316
0.739509
0.740965
0.74185
0.742325
0.74255
0.742646
0.742473
0.742161
0.741733
0.740985
0.739884
0.738267
0.735888
0.732531
0.728013
0.722332
0.715712
0.70853
0.701208
0.694045
0.687432
0.681594
0.677103
0.674054
0.670996
0.61762
0.517949
0.510743
0.639059
0.722519
0.734487
0.733554
0.728984
0.725092
0.724972
0.726524
0.72902
0.73235
0.735653
0.738485
0.740579
0.741954
0.742767
0.743188
0.743375
0.743448
0.743262
0.742944
0.742515
0.741774
0.740689
0.739094
0.736751
0.733434
0.72897
0.723353
0.716799
0.709682
0.702406
0.695242
0.688611
0.682752
0.6784
0.675468
0.672314
0.61733
0.51979
0.603046
0.637956
0.732355
0.756144
0.746723
0.735914
0.727901
0.726901
0.728124
0.73019
0.733271
0.736425
0.739176
0.741208
0.74253
0.743299
0.743685
0.743847
0.743903
0.743709
0.743386
0.742956
0.742219
0.741144
0.739564
0.737241
0.733953
0.729524
0.723949
0.717443
0.710374
0.703134
0.695979
0.689342
0.683458
0.679217
0.676377
0.673186
0.617412
0.522593
)
;

boundaryField
{
    inlet
    {
        type            fixedValue;
        value           uniform 1;
    }
    outlet
    {
        type            zeroGradient;
    }
    obstacle
    {
        type            zeroGradient;
    }
    empty
    {
        type            empty;
    }
}


// ************************************************************************* //
