/*--------------------------------*- C++ -*----------------------------------*\
| =========                 |                                                 |
| \\      /  F ield         | OpenFOAM: The Open Source CFD Toolbox           |
|  \\    /   O peration     | Version:  v1912                                 |
|   \\  /    A nd           | Website:  www.openfoam.com                      |
|    \\/     M anipulation  |                                                 |
\*---------------------------------------------------------------------------*/
FoamFile
{
    version     2.0;
    format      ascii;
    class       volVectorField;
    location    "3.42";
    object      U;
}
// * * * * * * * * * * * * * * * * * * * * * * * * * * * * * * * * * * * * * //

dimensions      [0 1 -1 0 0 0 0];


internalField   nonuniform List<vector> 
1900
(
(-0.582792 -2.50623e-06 0)
(-0.0896539 -4.6399e-06 0)
(-0.0973719 -1.34333e-05 0)
(-0.101445 -1.40538e-06 0)
(-0.104974 0.000147686 0)
(-0.107828 0.00041804 0)
(-0.109333 0.000513935 0)
(-0.109322 -0.000401576 0)
(-0.104754 -0.00525452 0)
(-0.0873489 -0.0176922 0)
(-0.582798 -3.92555e-06 0)
(-0.0896692 -8.30457e-06 0)
(-0.0973996 -1.82478e-05 0)
(-0.101476 3.57742e-06 0)
(-0.104918 0.000134025 0)
(-0.10737 0.000436922 0)
(-0.108247 0.000631961 0)
(-0.107126 5.69238e-05 0)
(-0.102978 -0.00324301 0)
(-0.0983233 -0.0129947 0)
(-0.5828 -7.18848e-14 0)
(-0.0896752 -5.59373e-14 0)
(-0.0974109 -2.84139e-14 0)
(-0.101464 -2.05815e-14 0)
(-0.104821 -1.0944e-14 0)
(-0.107048 -1.57011e-14 0)
(-0.107661 -1.15424e-14 0)
(-0.106156 -7.44172e-15 0)
(-0.104348 -1.99774e-14 0)
(-0.106733 -1.48536e-14 0)
(-0.582798 3.92555e-06 0)
(-0.0896692 8.30457e-06 0)
(-0.0973996 1.82478e-05 0)
(-0.101476 -3.57742e-06 0)
(-0.104918 -0.000134025 0)
(-0.10737 -0.000436922 0)
(-0.108247 -0.000631961 0)
(-0.107126 -5.69238e-05 0)
(-0.102978 0.00324301 0)
(-0.0983233 0.0129947 0)
(-0.582792 2.50623e-06 0)
(-0.0896539 4.6399e-06 0)
(-0.0973719 1.34333e-05 0)
(-0.101445 1.40538e-06 0)
(-0.104974 -0.000147686 0)
(-0.107828 -0.00041804 0)
(-0.109333 -0.000513935 0)
(-0.109322 0.000401576 0)
(-0.104754 0.00525452 0)
(-0.0873489 0.0176922 0)
(-0.0831548 -0.0453607 0)
(-0.103253 -0.055698 0)
(-0.11652 -0.0721852 0)
(-0.148915 -0.0906667 0)
(-0.304028 -0.0711942 0)
(-0.107762 -0.0292306 0)
(-0.128115 -0.0365666 0)
(-0.156416 -0.0525487 0)
(-0.223429 -0.069496 0)
(-0.367588 -0.0637088 0)
(-0.119196 -9.19817e-16 0)
(-0.140405 -3.46938e-16 0)
(-0.178545 2.77786e-14 0)
(-0.255395 2.55294e-15 0)
(-0.389154 1.34564e-15 0)
(-0.107762 0.0292306 0)
(-0.128115 0.0365666 0)
(-0.156416 0.0525487 0)
(-0.223429 0.069496 0)
(-0.367588 0.0637088 0)
(-0.0831548 0.0453607 0)
(-0.103253 0.055698 0)
(-0.11652 0.0721852 0)
(-0.148915 0.0906667 0)
(-0.304028 0.0711942 0)
(-0.353688 0.0204015 0)
(-0.267896 0.0225577 0)
(-0.211701 0.0218651 0)
(-0.17269 0.0370122 0)
(-0.185971 0.0652264 0)
(-0.368916 0.0163096 0)
(-0.280247 0.0143114 0)
(-0.216078 0.0123832 0)
(-0.142204 0.030363 0)
(-0.0502421 0.0825752 0)
(-0.377416 1.14253e-14 0)
(-0.284605 4.65659e-14 0)
(-0.211401 8.16927e-14 0)
(-0.120724 1.04502e-13 0)
(0.0230117 1.5903e-13 0)
(-0.368916 -0.0163096 0)
(-0.280247 -0.0143114 0)
(-0.216078 -0.0123832 0)
(-0.142204 -0.030363 0)
(-0.0502421 -0.0825752 0)
(-0.353688 -0.0204015 0)
(-0.267896 -0.0225577 0)
(-0.211701 -0.0218651 0)
(-0.17269 -0.0370122 0)
(-0.185971 -0.0652264 0)
(-0.35386 0.0443243 0)
(0.0307339 -0.162515 0)
(-0.035523 -0.2117 0)
(-0.204269 -0.144224 0)
(-0.290733 -0.0668567 0)
(-0.355569 -0.042506 0)
(-0.391334 -0.0364242 0)
(-0.397748 -0.0338836 0)
(-0.396533 -0.032607 0)
(-0.389065 -0.0319308 0)
(-0.375895 -0.0313555 0)
(-0.356145 -0.0311785 0)
(-0.32985 -0.0310117 0)
(-0.297129 -0.0308732 0)
(-0.258764 -0.0307549 0)
(-0.215848 -0.030655 0)
(-0.169632 -0.0305642 0)
(-0.121176 -0.0305062 0)
(-0.0713965 -0.0304033 0)
(-0.021067 -0.0305618 0)
(0.0295271 -0.0305142 0)
(0.0804228 -0.0303388 0)
(0.131324 -0.0304107 0)
(0.181544 -0.0304133 0)
(0.230447 -0.0304304 0)
(0.277297 -0.0304332 0)
(0.32109 -0.030427 0)
(0.360936 -0.0304083 0)
(0.396292 -0.0303778 0)
(0.427297 -0.0303407 0)
(0.454821 -0.0303089 0)
(0.480189 -0.0302603 0)
(0.504464 -0.0302946 0)
(0.527955 -0.0300672 0)
(0.549381 -0.0303825 0)
(0.567267 -0.029477 0)
(0.582662 -0.0305346 0)
(0.594081 -0.0293637 0)
(0.606653 -0.0355773 0)
(1.23835 -0.0358634 0)
(0.130694 0.083768 0)
(0.339829 -0.107564 0)
(0.136602 -0.142324 0)
(-0.153141 -0.0830377 0)
(-0.290134 -0.033801 0)
(-0.356757 -0.0209161 0)
(-0.392455 -0.0181682 0)
(-0.399025 -0.0168852 0)
(-0.397787 -0.0162552 0)
(-0.390264 -0.0159704 0)
(-0.377084 -0.0156697 0)
(-0.357242 -0.0155786 0)
(-0.330836 -0.0154928 0)
(-0.29799 -0.0154208 0)
(-0.259493 -0.0153596 0)
(-0.216443 -0.0153082 0)
(-0.170093 -0.0152621 0)
(-0.121503 -0.0152328 0)
(-0.0715902 -0.0151812 0)
(-0.0211266 -0.0152605 0)
(0.0296011 -0.0152368 0)
(0.0806309 -0.0151494 0)
(0.131666 -0.0151859 0)
(0.182018 -0.015188 0)
(0.231053 -0.015198 0)
(0.278031 -0.0152013 0)
(0.32195 -0.0152009 0)
(0.361916 -0.0151949 0)
(0.397384 -0.0151832 0)
(0.428489 -0.015168 0)
(0.456098 -0.0151543 0)
(0.481535 -0.015131 0)
(0.505863 -0.0151448 0)
(0.529415 -0.0150259 0)
(0.55082 -0.015167 0)
(0.568757 -0.0147009 0)
(0.584125 -0.015217 0)
(0.595407 -0.0146211 0)
(0.607279 -0.0180184 0)
(1.23948 -0.0175548 0)
(0.273122 3.6314e-15 0)
(0.437835 -8.31964e-14 0)
(0.212054 -1.26685e-13 0)
(-0.130483 -2.43977e-13 0)
(-0.292689 -2.94803e-13 0)
(-0.359543 -2.23047e-13 0)
(-0.394557 1.88864e-14 0)
(-0.400954 3.04956e-13 0)
(-0.399316 -6.13379e-14 0)
(-0.391615 -4.40793e-13 0)
(-0.378282 -1.58761e-12 0)
(-0.358264 -3.32797e-12 0)
(-0.331691 -5.42848e-12 0)
(-0.298693 -6.19829e-12 0)
(-0.260057 -4.03417e-12 0)
(-0.216882 4.7444e-12 0)
(-0.170419 2.09881e-11 0)
(-0.121726 2.30861e-11 0)
(-0.0717183 -9.99527e-12 0)
(-0.0211644 -2.40882e-11 0)
(0.0296512 5.273e-13 0)
(0.080771 1.73947e-11 0)
(0.131901 -2.42497e-11 0)
(0.182357 -4.36872e-11 0)
(0.231505 -8.23676e-12 0)
(0.27861 2.13415e-11 0)
(0.32267 2.42107e-11 0)
(0.362791 1.75466e-11 0)
(0.398429 1.37131e-11 0)
(0.42972 1.77209e-11 0)
(0.457531 1.06196e-11 0)
(0.48319 7.18337e-12 0)
(0.507759 -6.79368e-12 0)
(0.531586 5.35823e-13 0)
(0.553287 3.62146e-12 0)
(0.571538 -1.91613e-11 0)
(0.5873 2.32909e-11 0)
(0.598795 1.40178e-11 0)
(0.610058 -1.73757e-11 0)
(1.24356 -2.3439e-11 0)
(0.130694 -0.083768 0)
(0.339829 0.107564 0)
(0.136602 0.142324 0)
(-0.153141 0.0830377 0)
(-0.290134 0.033801 0)
(-0.356757 0.0209161 0)
(-0.392455 0.0181682 0)
(-0.399025 0.0168852 0)
(-0.397787 0.0162552 0)
(-0.390264 0.0159704 0)
(-0.377084 0.0156697 0)
(-0.357242 0.0155786 0)
(-0.330836 0.0154928 0)
(-0.29799 0.0154208 0)
(-0.259493 0.0153596 0)
(-0.216443 0.0153082 0)
(-0.170093 0.0152621 0)
(-0.121503 0.0152328 0)
(-0.0715902 0.0151812 0)
(-0.0211266 0.0152605 0)
(0.0296011 0.0152368 0)
(0.0806309 0.0151494 0)
(0.131666 0.0151859 0)
(0.182018 0.015188 0)
(0.231053 0.015198 0)
(0.278031 0.0152013 0)
(0.32195 0.0152009 0)
(0.361916 0.0151949 0)
(0.397384 0.0151832 0)
(0.428489 0.015168 0)
(0.456098 0.0151543 0)
(0.481535 0.015131 0)
(0.505863 0.0151448 0)
(0.529415 0.0150259 0)
(0.55082 0.015167 0)
(0.568757 0.0147009 0)
(0.584125 0.015217 0)
(0.595407 0.0146211 0)
(0.607279 0.0180184 0)
(1.23948 0.0175548 0)
(-0.35386 -0.0443243 0)
(0.0307339 0.162515 0)
(-0.035523 0.2117 0)
(-0.204269 0.144224 0)
(-0.290733 0.0668567 0)
(-0.355569 0.042506 0)
(-0.391334 0.0364242 0)
(-0.397748 0.0338836 0)
(-0.396533 0.032607 0)
(-0.389065 0.0319308 0)
(-0.375895 0.0313555 0)
(-0.356145 0.0311785 0)
(-0.32985 0.0310117 0)
(-0.297129 0.0308732 0)
(-0.258764 0.0307549 0)
(-0.215848 0.030655 0)
(-0.169632 0.0305642 0)
(-0.121176 0.0305062 0)
(-0.0713965 0.0304033 0)
(-0.021067 0.0305618 0)
(0.0295271 0.0305142 0)
(0.0804228 0.0303388 0)
(0.131324 0.0304107 0)
(0.181544 0.0304133 0)
(0.230447 0.0304304 0)
(0.277297 0.0304332 0)
(0.32109 0.030427 0)
(0.360936 0.0304083 0)
(0.396292 0.0303778 0)
(0.427297 0.0303407 0)
(0.454821 0.0303089 0)
(0.480189 0.0302603 0)
(0.504464 0.0302946 0)
(0.527955 0.0300672 0)
(0.549381 0.0303825 0)
(0.567267 0.029477 0)
(0.582662 0.0305346 0)
(0.594081 0.0293637 0)
(0.606653 0.0355773 0)
(1.23835 0.0358634 0)
(-1.02242 -0.0939242 0)
(-0.343816 0.183381 0)
(-0.261208 0.276242 0)
(-0.287908 0.208358 0)
(-0.319083 0.124295 0)
(-0.36784 0.0873712 0)
(-0.398066 0.0753024 0)
(-0.402597 0.0704459 0)
(-0.40032 0.0675018 0)
(-0.392132 0.0661963 0)
(-0.378434 0.0651021 0)
(-0.358391 0.0647303 0)
(-0.331813 0.0643769 0)
(-0.298832 0.0640905 0)
(-0.260206 0.0638422 0)
(-0.217026 0.063632 0)
(-0.170544 0.0634408 0)
(-0.121823 0.0633186 0)
(-0.0717784 0.063104 0)
(-0.0212025 0.0634352 0)
(0.0296408 0.0633371 0)
(0.0807817 0.062972 0)
(0.131928 0.0631223 0)
(0.182393 0.0631284 0)
(0.231539 0.0631653 0)
(0.278632 0.0631718 0)
(0.322669 0.0631593 0)
(0.362762 0.0631194 0)
(0.398368 0.0630544 0)
(0.429627 0.0629717 0)
(0.457407 0.062901 0)
(0.483026 0.0627752 0)
(0.507565 0.0628483 0)
(0.531228 0.0623254 0)
(0.553077 0.0629063 0)
(0.571137 0.061217 0)
(0.587001 0.0630175 0)
(0.599013 0.0609065 0)
(0.612671 0.0723977 0)
(1.2474 0.0703678 0)
(-1.19165 -0.0085819 0)
(-0.561196 0.267685 0)
(-0.435209 0.325348 0)
(-0.370083 0.266819 0)
(-0.377777 0.187792 0)
(-0.389251 0.150147 0)
(-0.406544 0.133331 0)
(-0.406365 0.125359 0)
(-0.402921 0.120422 0)
(-0.393153 0.118207 0)
(-0.378855 0.116505 0)
(-0.358642 0.115821 0)
(-0.332018 0.115183 0)
(-0.299035 0.114683 0)
(-0.260397 0.114248 0)
(-0.217189 0.113882 0)
(-0.170673 0.113548 0)
(-0.121916 0.113336 0)
(-0.0718334 0.112957 0)
(-0.0212647 0.113563 0)
(0.0295816 0.11339 0)
(0.0807128 0.11273 0)
(0.131844 0.112998 0)
(0.182277 0.113006 0)
(0.231371 0.113069 0)
(0.278389 0.113075 0)
(0.322324 0.113046 0)
(0.362294 0.112966 0)
(0.397761 0.112844 0)
(0.428867 0.112683 0)
(0.456506 0.112555 0)
(0.481954 0.11229 0)
(0.506396 0.11246 0)
(0.529665 0.111447 0)
(0.551648 0.112451 0)
(0.569389 0.109809 0)
(0.585314 0.112448 0)
(0.597685 0.109512 0)
(0.61436 0.125475 0)
(1.23386 0.124761 0)
(-1.20561 0.0612023 0)
(-0.624603 0.286421 0)
(-0.504383 0.340052 0)
(-0.432394 0.286064 0)
(-0.415532 0.234747 0)
(-0.414325 0.204417 0)
(-0.416105 0.187606 0)
(-0.412596 0.178342 0)
(-0.405757 0.172508 0)
(-0.394847 0.169435 0)
(-0.379767 0.167481 0)
(-0.359304 0.166452 0)
(-0.332562 0.16553 0)
(-0.299525 0.164829 0)
(-0.260815 0.164215 0)
(-0.217525 0.16371 0)
(-0.170927 0.163245 0)
(-0.122092 0.162955 0)
(-0.07193 0.162421 0)
(-0.0213447 0.163317 0)
(0.029537 0.163072 0)
(0.0806902 0.162109 0)
(0.131843 0.162491 0)
(0.182286 0.162495 0)
(0.231373 0.16258 0)
(0.278357 0.162574 0)
(0.322252 0.162521 0)
(0.362151 0.162379 0)
(0.397553 0.162177 0)
(0.428609 0.161908 0)
(0.456212 0.161707 0)
(0.481572 0.161202 0)
(0.506159 0.161481 0)
(0.52912 0.159874 0)
(0.551526 0.161129 0)
(0.569233 0.158007 0)
(0.585547 0.16095 0)
(0.598331 0.157811 0)
(0.620122 0.176099 0)
(1.22732 0.178285 0)
(-1.20224 0.138735 0)
(-0.641794 0.309604 0)
(-0.533737 0.357983 0)
(-0.470356 0.311312 0)
(-0.444169 0.27662 0)
(-0.433684 0.252989 0)
(-0.426933 0.238103 0)
(-0.419199 0.228692 0)
(-0.40934 0.223087 0)
(-0.397066 0.219582 0)
(-0.381158 0.217371 0)
(-0.360322 0.216065 0)
(-0.333404 0.214884 0)
(-0.30024 0.213989 0)
(-0.261425 0.213229 0)
(-0.218009 0.212599 0)
(-0.1713 0.212027 0)
(-0.122358 0.211673 0)
(-0.0720864 0.210993 0)
(-0.0214725 0.212198 0)
(0.0294662 0.211881 0)
(0.0806572 0.210596 0)
(0.131847 0.211082 0)
(0.182311 0.211072 0)
(0.231387 0.211159 0)
(0.278354 0.211141 0)
(0.322149 0.211015 0)
(0.362005 0.210819 0)
(0.397284 0.21051 0)
(0.428162 0.210058 0)
(0.455788 0.209823 0)
(0.48093 0.208954 0)
(0.505661 0.209335 0)
(0.528135 0.207064 0)
(0.550973 0.208454 0)
(0.568641 0.205174 0)
(0.585239 0.208084 0)
(0.597804 0.205387 0)
(0.627343 0.221296 0)
(1.21492 0.222353 0)
(-1.1917 0.19455 0)
(-0.650274 0.334133 0)
(-0.553203 0.376673 0)
(-0.495411 0.338484 0)
(-0.465962 0.316332 0)
(-0.449955 0.297478 0)
(-0.437075 0.285114 0)
(-0.425605 0.276419 0)
(-0.413293 0.271261 0)
(-0.399533 0.26767 0)
(-0.382837 0.265403 0)
(-0.361547 0.263876 0)
(-0.334384 0.262512 0)
(-0.30112 0.261529 0)
(-0.262106 0.260634 0)
(-0.218564 0.259953 0)
(-0.171722 0.259298 0)
(-0.122664 0.258909 0)
(-0.0722699 0.258096 0)
(-0.0216297 0.259636 0)
(0.029374 0.259247 0)
(0.0806008 0.257615 0)
(0.131825 0.258193 0)
(0.182298 0.258141 0)
(0.231373 0.258227 0)
(0.278238 0.258108 0)
(0.322066 0.257985 0)
(0.361629 0.257543 0)
(0.396897 0.257177 0)
(0.42767 0.2565 0)
(0.455102 0.256103 0)
(0.479969 0.254749 0)
(0.505222 0.255286 0)
(0.527154 0.252304 0)
(0.550498 0.253647 0)
(0.56827 0.250393 0)
(0.585521 0.253066 0)
(0.597812 0.251352 0)
(0.636984 0.261166 0)
(1.20303 0.267857 0)
(-1.19083 0.246765 0)
(-0.654789 0.355964 0)
(-0.565679 0.394899 0)
(-0.512538 0.36615 0)
(-0.48177 0.35357 0)
(-0.461877 0.337748 0)
(-0.445289 0.327914 0)
(-0.430955 0.320456 0)
(-0.416861 0.316068 0)
(-0.401867 0.312658 0)
(-0.384419 0.310463 0)
(-0.362762 0.308792 0)
(-0.335557 0.30755 0)
(-0.301921 0.30636 0)
(-0.262868 0.305563 0)
(-0.219124 0.304818 0)
(-0.172167 0.304154 0)
(-0.122991 0.303757 0)
(-0.072474 0.302824 0)
(-0.0218166 0.304731 0)
(0.029255 0.304272 0)
(0.0805078 0.30226 0)
(0.131752 0.302909 0)
(0.182229 0.302801 0)
(0.231229 0.302792 0)
(0.278131 0.302687 0)
(0.321534 0.302171 0)
(0.361428 0.301925 0)
(0.396055 0.300966 0)
(0.426565 0.300051 0)
(0.454423 0.299734 0)
(0.478397 0.297413 0)
(0.503926 0.297927 0)
(0.525185 0.294276 0)
(0.549055 0.295291 0)
(0.56654 0.291779 0)
(0.58406 0.293569 0)
(0.595684 0.293015 0)
(0.644699 0.29147 0)
(1.18776 0.303147 0)
(-1.18303 0.298757 0)
(-0.656574 0.379782 0)
(-0.573287 0.415296 0)
(-0.527039 0.394435 0)
(-0.496444 0.388123 0)
(-0.472418 0.374176 0)
(-0.453193 0.366729 0)
(-0.436325 0.360396 0)
(-0.420438 0.356762 0)
(-0.404119 0.353455 0)
(-0.386078 0.351408 0)
(-0.364287 0.350098 0)
(-0.336326 0.348401 0)
(-0.302956 0.347748 0)
(-0.263476 0.346756 0)
(-0.219671 0.346183 0)
(-0.172578 0.345508 0)
(-0.123308 0.345156 0)
(-0.0726849 0.34411 0)
(-0.0220267 0.346418 0)
(0.029105 0.345892 0)
(0.0803609 0.343458 0)
(0.131604 0.344166 0)
(0.182036 0.343941 0)
(0.231015 0.343903 0)
(0.277601 0.343419 0)
(0.321411 0.343266 0)
(0.360037 0.341741 0)
(0.395709 0.341713 0)
(0.425177 0.339537 0)
(0.452962 0.339077 0)
(0.476874 0.336375 0)
(0.502848 0.336569 0)
(0.523805 0.332366 0)
(0.547809 0.332733 0)
(0.566683 0.329635 0)
(0.584432 0.33004 0)
(0.59642 0.331075 0)
(0.651563 0.320581 0)
(1.17284 0.345717 0)
(-1.16372 0.338509 0)
(-0.65463 0.39908 0)
(-0.576298 0.432708 0)
(-0.535296 0.417472 0)
(-0.504541 0.41497 0)
(-0.477612 0.403469 0)
(-0.457236 0.399264 0)
(-0.438696 0.394025 0)
(-0.422111 0.391553 0)
(-0.405342 0.388812 0)
(-0.387321 0.387526 0)
(-0.364578 0.385532 0)
(-0.337596 0.385259 0)
(-0.30336 0.384011 0)
(-0.26411 0.383596 0)
(-0.220103 0.383029 0)
(-0.172936 0.382454 0)
(-0.123597 0.38217 0)
(-0.0729012 0.381016 0)
(-0.022255 0.383755 0)
(0.0289182 0.383165 0)
(0.0801484 0.380271 0)
(0.131362 0.381019 0)
(0.181734 0.380671 0)
(0.23056 0.380431 0)
(0.277178 0.379983 0)
(0.319994 0.378809 0)
(0.35974 0.378323 0)
(0.393084 0.37596 0)
(0.423301 0.374461 0)
(0.450887 0.373159 0)
(0.473563 0.36901 0)
(0.49969 0.368722 0)
(0.520267 0.363919 0)
(0.54431 0.362859 0)
(0.563402 0.35909 0)
(0.582381 0.358993 0)
(0.594266 0.358835 0)
(0.65109 0.344518 0)
(1.15642 0.375566 0)
(-1.14814 0.387722 0)
(-0.65341 0.423809 0)
(-0.578193 0.453648 0)
(-0.542724 0.442824 0)
(-0.513408 0.441551 0)
(-0.484929 0.432503 0)
(-0.463692 0.430135 0)
(-0.443068 0.424987 0)
(-0.425803 0.423362 0)
(-0.407946 0.420501 0)
(-0.388719 0.418469 0)
(-0.366641 0.417818 0)
(-0.338139 0.41642 0)
(-0.304314 0.416022 0)
(-0.264595 0.415556 0)
(-0.220478 0.415144 0)
(-0.173246 0.414688 0)
(-0.12386 0.41449 0)
(-0.0731339 0.41322 0)
(-0.0224924 0.41641 0)
(0.0286878 0.415766 0)
(0.0798677 0.412379 0)
(0.131034 0.413159 0)
(0.181322 0.412671 0)
(0.230013 0.41225 0)
(0.276369 0.411511 0)
(0.319574 0.410626 0)
(0.357718 0.408497 0)
(0.392923 0.407916 0)
(0.420929 0.40414 0)
(0.449539 0.40368 0)
(0.472159 0.399421 0)
(0.498476 0.398805 0)
(0.519175 0.394033 0)
(0.544043 0.393138 0)
(0.563649 0.38953 0)
(0.584383 0.389925 0)
(0.596667 0.389169 0)
(0.651785 0.375131 0)
(1.13937 0.417042 0)
(-1.13047 0.422406 0)
(-0.65018 0.441539 0)
(-0.577898 0.468937 0)
(-0.54629 0.462289 0)
(-0.517578 0.461228 0)
(-0.487631 0.453728 0)
(-0.465625 0.452975 0)
(-0.443712 0.448232 0)
(-0.426422 0.447872 0)
(-0.407777 0.445019 0)
(-0.389256 0.44462 0)
(-0.366158 0.443444 0)
(-0.33834 0.44334 0)
(-0.304372 0.443364 0)
(-0.264708 0.443181 0)
(-0.220706 0.443184 0)
(-0.173468 0.442792 0)
(-0.124092 0.442717 0)
(-0.0733862 0.441308 0)
(-0.0227336 0.444956 0)
(0.0284128 0.444275 0)
(0.0795265 0.440375 0)
(0.130628 0.441206 0)
(0.180774 0.440537 0)
(0.229306 0.440036 0)
(0.275246 0.438783 0)
(0.317962 0.437599 0)
(0.355926 0.435184 0)
(0.389593 0.433134 0)
(0.418004 0.429891 0)
(0.445691 0.428129 0)
(0.46777 0.423094 0)
(0.494164 0.422246 0)
(0.514422 0.41715 0)
(0.539592 0.4157 0)
(0.559414 0.411613 0)
(0.581534 0.412274 0)
(0.593917 0.410611 0)
(0.647402 0.397207 0)
(1.12141 0.444229 0)
(-1.1138 0.469525 0)
(-0.648893 0.46611 0)
(-0.578584 0.489571 0)
(-0.551621 0.487524 0)
(-0.521042 0.485003 0)
(-0.492463 0.47968 0)
(-0.470517 0.479399 0)
(-0.447762 0.474574 0)
(-0.430446 0.474663 0)
(-0.411039 0.471686 0)
(-0.391727 0.470849 0)
(-0.36821 0.469599 0)
(-0.340051 0.469474 0)
(-0.305432 0.468962 0)
(-0.265568 0.468816 0)
(-0.22123 0.468611 0)
(-0.173869 0.468204 0)
(-0.124424 0.468162 0)
(-0.0736962 0.466572 0)
(-0.0230143 0.470669 0)
(0.028114 0.469969 0)
(0.079188 0.46557 0)
(0.130275 0.466507 0)
(0.180381 0.465797 0)
(0.22884 0.465267 0)
(0.274903 0.464338 0)
(0.317325 0.463061 0)
(0.355379 0.461273 0)
(0.389052 0.459567 0)
(0.416552 0.455948 0)
(0.445307 0.455342 0)
(0.466903 0.450248 0)
(0.493598 0.449748 0)
(0.51404 0.445106 0)
(0.539986 0.444006 0)
(0.559977 0.44002 0)
(0.583378 0.441267 0)
(0.596032 0.439673 0)
(0.647428 0.42767 0)
(1.10106 0.485347 0)
(-1.09598 0.501593 0)
(-0.645871 0.485355 0)
(-0.578379 0.506515 0)
(-0.55385 0.5063 0)
(-0.521526 0.502135 0)
(-0.494249 0.499815 0)
(-0.471715 0.499054 0)
(-0.448383 0.494106 0)
(-0.430884 0.494822 0)
(-0.410401 0.49153 0)
(-0.390707 0.491592 0)
(-0.36685 0.490847 0)
(-0.33847 0.49116 0)
(-0.304202 0.491456 0)
(-0.264713 0.491989 0)
(-0.220801 0.492196 0)
(-0.173777 0.492065 0)
(-0.124528 0.492152 0)
(-0.0739172 0.490415 0)
(-0.0232841 0.494972 0)
(0.027783 0.494275 0)
(0.0787485 0.489374 0)
(0.129689 0.490402 0)
(0.179511 0.489571 0)
(0.227498 0.488792 0)
(0.272858 0.487428 0)
(0.314695 0.485814 0)
(0.351496 0.482918 0)
(0.385195 0.481456 0)
(0.41152 0.476972 0)
(0.44044 0.476233 0)
(0.461703 0.470879 0)
(0.488493 0.470123 0)
(0.508888 0.465336 0)
(0.535624 0.464388 0)
(0.555986 0.460265 0)
(0.580495 0.46162 0)
(0.593469 0.459689 0)
(0.643357 0.44869 0)
(1.08135 0.510389 0)
(-1.07581 0.548538 0)
(-0.644049 0.51133 0)
(-0.579001 0.528911 0)
(-0.555976 0.529412 0)
(-0.52303 0.524238 0)
(-0.498132 0.524497 0)
(-0.474138 0.522843 0)
(-0.451382 0.518305 0)
(-0.433962 0.519122 0)
(-0.412697 0.515775 0)
(-0.393266 0.516404 0)
(-0.36866 0.515568 0)
(-0.340441 0.516065 0)
(-0.3061 0.516328 0)
(-0.26626 0.516406 0)
(-0.222064 0.516206 0)
(-0.174762 0.515743 0)
(-0.125279 0.515672 0)
(-0.0744902 0.513654 0)
(-0.0236845 0.518636 0)
(0.0275232 0.517968 0)
(0.078617 0.512626 0)
(0.129721 0.513924 0)
(0.179708 0.513284 0)
(0.227876 0.512926 0)
(0.273282 0.51193 0)
(0.315299 0.511101 0)
(0.351483 0.508122 0)
(0.384962 0.507033 0)
(0.410791 0.502596 0)
(0.439715 0.50198 0)
(0.460826 0.496795 0)
(0.487931 0.496339 0)
(0.508317 0.491912 0)
(0.535743 0.491412 0)
(0.556456 0.487719 0)
(0.581757 0.489314 0)
(0.594957 0.48746 0)
(0.642736 0.478311 0)
(1.0575 0.550837 0)
(-1.05652 0.577189 0)
(-0.640619 0.531935 0)
(-0.578521 0.547769 0)
(-0.556736 0.54844 0)
(-0.524128 0.542934 0)
(-0.500533 0.544317 0)
(-0.475014 0.541229 0)
(-0.452616 0.537819 0)
(-0.434737 0.538512 0)
(-0.412288 0.534875 0)
(-0.392591 0.536375 0)
(-0.366675 0.53519 0)
(-0.338285 0.536198 0)
(-0.303645 0.536561 0)
(-0.263989 0.537181 0)
(-0.220224 0.537615 0)
(-0.173408 0.537519 0)
(-0.124479 0.537885 0)
(-0.0741761 0.535914 0)
(-0.0237878 0.541521 0)
(0.0270323 0.540889 0)
(0.0776465 0.534886 0)
(0.128238 0.536119 0)
(0.177586 0.535055 0)
(0.22516 0.534401 0)
(0.269889 0.532713 0)
(0.311417 0.531634 0)
(0.347129 0.528264 0)
(0.380526 0.527351 0)
(0.406168 0.522748 0)
(0.435389 0.52222 0)
(0.456345 0.516895 0)
(0.483852 0.516479 0)
(0.504223 0.512073 0)
(0.532408 0.511775 0)
(0.553461 0.508155 0)
(0.579685 0.509775 0)
(0.593173 0.507696 0)
(0.639082 0.499335 0)
(1.03615 0.573266 0)
(-1.03117 0.623578 0)
(-0.63742 0.558823 0)
(-0.578428 0.570769 0)
(-0.558031 0.572075 0)
(-0.526398 0.566906 0)
(-0.503733 0.5684 0)
(-0.476927 0.564215 0)
(-0.455564 0.562035 0)
(-0.436673 0.561719 0)
(-0.413715 0.557961 0)
(-0.393567 0.558981 0)
(-0.36713 0.557311 0)
(-0.339667 0.558794 0)
(-0.305247 0.558853 0)
(-0.266024 0.559403 0)
(-0.222152 0.559177 0)
(-0.175302 0.558701 0)
(-0.126129 0.558698 0)
(-0.0754202 0.556194 0)
(-0.0244756 0.562116 0)
(0.0270327 0.561559 0)
(0.0782099 0.555269 0)
(0.129232 0.557069 0)
(0.178825 0.556416 0)
(0.2264 0.556221 0)
(0.271085 0.555155 0)
(0.312217 0.554543 0)
(0.346866 0.551307 0)
(0.379749 0.550681 0)
(0.404525 0.546349 0)
(0.434213 0.546875 0)
(0.455254 0.542371 0)
(0.483226 0.542758 0)
(0.503869 0.539242 0)
(0.532706 0.539637 0)
(0.554152 0.536746 0)
(0.580836 0.538388 0)
(0.594394 0.536178 0)
(0.637724 0.529708 0)
(1.00804 0.613786 0)
(-1.01027 0.647351 0)
(-0.633883 0.580212 0)
(-0.578142 0.591651 0)
(-0.559219 0.592797 0)
(-0.52852 0.587711 0)
(-0.506299 0.588518 0)
(-0.478463 0.583052 0)
(-0.457583 0.581661 0)
(-0.437633 0.580462 0)
(-0.41375 0.576166 0)
(-0.393582 0.577462 0)
(-0.366245 0.575635 0)
(-0.338288 0.576248 0)
(-0.303579 0.575503 0)
(-0.263992 0.575864 0)
(-0.219984 0.57567 0)
(-0.17302 0.57516 0)
(-0.124025 0.575206 0)
(-0.0739023 0.572576 0)
(-0.0240406 0.579113 0)
(0.0260441 0.578591 0)
(0.0760433 0.571619 0)
(0.126429 0.573538 0)
(0.175747 0.572831 0)
(0.223336 0.572808 0)
(0.267924 0.57155 0)
(0.309188 0.571434 0)
(0.343504 0.568638 0)
(0.376895 0.569288 0)
(0.401011 0.565197 0)
(0.430727 0.56581 0)
(0.451491 0.561634 0)
(0.479809 0.56233 0)
(0.500507 0.559224 0)
(0.530033 0.560111 0)
(0.551807 0.557634 0)
(0.579165 0.559461 0)
(0.592827 0.55711 0)
(0.6343 0.550611 0)
(0.985385 0.632411 0)
(-0.980616 0.686403 0)
(-0.628978 0.598875 0)
(-0.577157 0.610301 0)
(-0.560494 0.614329 0)
(-0.530783 0.609543 0)
(-0.508696 0.609041 0)
(-0.48085 0.602232 0)
(-0.461497 0.601662 0)
(-0.439482 0.598802 0)
(-0.41663 0.595247 0)
(-0.395707 0.59553 0)
(-0.366841 0.59142 0)
(-0.340359 0.5926 0)
(-0.305279 0.590745 0)
(-0.266964 0.591521 0)
(-0.2231 0.590704 0)
(-0.176244 0.590071 0)
(-0.126979 0.589937 0)
(-0.0761794 0.586977 0)
(-0.0250929 0.593991 0)
(0.0265845 0.593598 0)
(0.0778114 0.58622 0)
(0.128904 0.588564 0)
(0.178487 0.588059 0)
(0.226008 0.588437 0)
(0.270162 0.587521 0)
(0.310788 0.587921 0)
(0.343916 0.585434 0)
(0.37697 0.586935 0)
(0.401282 0.584224 0)
(0.431716 0.586368 0)
(0.452716 0.583375 0)
(0.481418 0.584892 0)
(0.502186 0.582691 0)
(0.531743 0.584029 0)
(0.553625 0.582315 0)
(0.580902 0.584017 0)
(0.592829 0.57932 0)
(0.631689 0.569697 0)
(0.953473 0.665317 0)
(-0.946067 0.690635 0)
(-0.61552 0.606137 0)
(-0.570123 0.61928 0)
(-0.559269 0.624358 0)
(-0.532763 0.620557 0)
(-0.511971 0.61967 0)
(-0.484208 0.613378 0)
(-0.465538 0.612847 0)
(-0.440741 0.608423 0)
(-0.418904 0.605937 0)
(-0.396334 0.604899 0)
(-0.368661 0.601348 0)
(-0.341249 0.602224 0)
(-0.30495 0.600902 0)
(-0.265583 0.602773 0)
(-0.220825 0.60234 0)
(-0.173541 0.602099 0)
(-0.124375 0.601774 0)
(-0.0744613 0.59812 0)
(-0.0245378 0.604967 0)
(0.0254289 0.604656 0)
(0.0754207 0.597508 0)
(0.125554 0.600705 0)
(0.174928 0.600469 0)
(0.222758 0.6008 0)
(0.26756 0.599217 0)
(0.309201 0.599082 0)
(0.342893 0.595667 0)
(0.376917 0.597188 0)
(0.400312 0.594393 0)
(0.430586 0.596826 0)
(0.451183 0.594062 0)
(0.480066 0.595797 0)
(0.500627 0.593824 0)
(0.530229 0.59526 0)
(0.551747 0.593606 0)
(0.577427 0.593693 0)
(0.586044 0.586732 0)
(0.617852 0.577672 0)
(0.920267 0.656804 0)
(-0.998462 0.551799 0)
(-0.593954 0.610881 0)
(-0.565027 0.638446 0)
(-0.554364 0.651474 0)
(-0.532191 0.651599 0)
(-0.511635 0.653536 0)
(-0.482106 0.651378 0)
(-0.462012 0.653788 0)
(-0.433888 0.652315 0)
(-0.411032 0.653678 0)
(-0.385094 0.654817 0)
(-0.35871 0.65359 0)
(-0.335043 0.650927 0)
(-0.309727 0.642127 0)
(-0.280264 0.632123 0)
(-0.24191 0.621186 0)
(-0.196212 0.612214 0)
(-0.144041 0.606427 0)
(-0.0861351 0.601604 0)
(-0.0285704 0.608075 0)
(0.029072 0.607875 0)
(0.086665 0.601151 0)
(0.144817 0.605654 0)
(0.197119 0.610895 0)
(0.24363 0.619849 0)
(0.281296 0.629175 0)
(0.313765 0.639678 0)
(0.336369 0.645784 0)
(0.364738 0.650593 0)
(0.386651 0.647771 0)
(0.417889 0.647964 0)
(0.439398 0.643404 0)
(0.470132 0.642758 0)
(0.491532 0.638748 0)
(0.523059 0.637383 0)
(0.544687 0.63367 0)
(0.567058 0.6312 0)
(0.576791 0.61654 0)
(0.594987 0.590461 0)
(0.994277 0.499983 0)
(-1.02473 1.02712 0)
(-0.508001 0.998171 0)
(-0.642094 0.93577 0)
(-0.650678 0.966057 0)
(-0.618055 0.996463 0)
(-0.599851 1.01808 0)
(-0.560022 1.04515 0)
(-0.537759 1.06608 0)
(-0.496892 1.08955 0)
(-0.4713 1.10926 0)
(-0.429612 1.12945 0)
(-0.400324 1.14763 0)
(-0.357824 1.16541 0)
(-0.324305 1.18329 0)
(-0.280387 1.19899 0)
(-0.241432 1.21393 0)
(-0.193228 1.22432 0)
(-0.144582 1.23522 0)
(-0.0865884 1.23572 0)
(-0.0306916 1.25577 0)
(0.0307254 1.25579 0)
(0.0866437 1.23566 0)
(0.144736 1.23521 0)
(0.19336 1.22424 0)
(0.241867 1.2139 0)
(0.280555 1.19881 0)
(0.325268 1.18318 0)
(0.358017 1.16501 0)
(0.401929 1.14702 0)
(0.430789 1.12847 0)
(0.47361 1.10785 0)
(0.499731 1.08761 0)
(0.541817 1.06321 0)
(0.565134 1.0412 0)
(0.607318 1.01231 0)
(0.626392 0.988887 0)
(0.662197 0.955434 0)
(0.654296 0.921133 0)
(0.517722 0.983904 0)
(1.01958 1.02626 0)
(-1.02473 -1.02712 0)
(-0.508001 -0.998171 0)
(-0.642094 -0.93577 0)
(-0.650678 -0.966057 0)
(-0.618055 -0.996463 0)
(-0.599851 -1.01808 0)
(-0.560022 -1.04515 0)
(-0.537759 -1.06608 0)
(-0.496892 -1.08955 0)
(-0.4713 -1.10926 0)
(-0.429612 -1.12945 0)
(-0.400324 -1.14763 0)
(-0.357824 -1.16541 0)
(-0.324305 -1.18329 0)
(-0.280387 -1.19899 0)
(-0.241432 -1.21393 0)
(-0.193228 -1.22432 0)
(-0.144582 -1.23522 0)
(-0.0865884 -1.23572 0)
(-0.0306916 -1.25577 0)
(0.0307254 -1.25579 0)
(0.0866437 -1.23566 0)
(0.144736 -1.23521 0)
(0.19336 -1.22424 0)
(0.241867 -1.2139 0)
(0.280555 -1.19881 0)
(0.325268 -1.18318 0)
(0.358017 -1.16501 0)
(0.401929 -1.14702 0)
(0.430789 -1.12847 0)
(0.47361 -1.10785 0)
(0.499731 -1.08761 0)
(0.541817 -1.06321 0)
(0.565134 -1.0412 0)
(0.607318 -1.01231 0)
(0.626392 -0.988887 0)
(0.662197 -0.955434 0)
(0.654296 -0.921133 0)
(0.517722 -0.983904 0)
(1.01958 -1.02626 0)
(-0.998462 -0.551799 0)
(-0.593954 -0.610881 0)
(-0.565027 -0.638446 0)
(-0.554364 -0.651474 0)
(-0.532191 -0.651599 0)
(-0.511635 -0.653536 0)
(-0.482106 -0.651378 0)
(-0.462012 -0.653788 0)
(-0.433888 -0.652315 0)
(-0.411032 -0.653678 0)
(-0.385094 -0.654817 0)
(-0.35871 -0.65359 0)
(-0.335043 -0.650927 0)
(-0.309727 -0.642127 0)
(-0.280264 -0.632123 0)
(-0.24191 -0.621186 0)
(-0.196212 -0.612214 0)
(-0.144041 -0.606427 0)
(-0.0861351 -0.601604 0)
(-0.0285704 -0.608075 0)
(0.029072 -0.607875 0)
(0.086665 -0.601151 0)
(0.144817 -0.605654 0)
(0.197119 -0.610895 0)
(0.24363 -0.619849 0)
(0.281296 -0.629175 0)
(0.313765 -0.639678 0)
(0.336369 -0.645784 0)
(0.364738 -0.650593 0)
(0.386651 -0.647771 0)
(0.417889 -0.647964 0)
(0.439398 -0.643404 0)
(0.470132 -0.642758 0)
(0.491532 -0.638748 0)
(0.523059 -0.637383 0)
(0.544687 -0.63367 0)
(0.567058 -0.6312 0)
(0.576791 -0.61654 0)
(0.594987 -0.590461 0)
(0.994277 -0.499983 0)
(-0.946067 -0.690635 0)
(-0.61552 -0.606137 0)
(-0.570123 -0.61928 0)
(-0.559269 -0.624358 0)
(-0.532763 -0.620557 0)
(-0.511971 -0.61967 0)
(-0.484208 -0.613378 0)
(-0.465538 -0.612847 0)
(-0.440741 -0.608423 0)
(-0.418904 -0.605937 0)
(-0.396334 -0.604899 0)
(-0.368661 -0.601348 0)
(-0.341249 -0.602224 0)
(-0.30495 -0.600902 0)
(-0.265583 -0.602773 0)
(-0.220825 -0.60234 0)
(-0.173541 -0.602099 0)
(-0.124375 -0.601774 0)
(-0.0744613 -0.59812 0)
(-0.0245378 -0.604967 0)
(0.0254289 -0.604656 0)
(0.0754207 -0.597508 0)
(0.125554 -0.600705 0)
(0.174928 -0.600469 0)
(0.222758 -0.6008 0)
(0.26756 -0.599217 0)
(0.309201 -0.599082 0)
(0.342893 -0.595667 0)
(0.376917 -0.597188 0)
(0.400312 -0.594393 0)
(0.430586 -0.596826 0)
(0.451183 -0.594062 0)
(0.480066 -0.595797 0)
(0.500627 -0.593824 0)
(0.530229 -0.59526 0)
(0.551747 -0.593606 0)
(0.577427 -0.593693 0)
(0.586044 -0.586732 0)
(0.617852 -0.577672 0)
(0.920267 -0.656804 0)
(-0.980616 -0.686403 0)
(-0.628978 -0.598875 0)
(-0.577157 -0.610301 0)
(-0.560494 -0.614329 0)
(-0.530783 -0.609543 0)
(-0.508696 -0.609041 0)
(-0.48085 -0.602232 0)
(-0.461497 -0.601662 0)
(-0.439482 -0.598802 0)
(-0.41663 -0.595247 0)
(-0.395707 -0.59553 0)
(-0.366841 -0.59142 0)
(-0.340359 -0.5926 0)
(-0.305279 -0.590745 0)
(-0.266964 -0.591521 0)
(-0.2231 -0.590704 0)
(-0.176244 -0.590071 0)
(-0.126979 -0.589937 0)
(-0.0761794 -0.586977 0)
(-0.0250929 -0.593991 0)
(0.0265845 -0.593598 0)
(0.0778114 -0.58622 0)
(0.128904 -0.588564 0)
(0.178487 -0.588059 0)
(0.226008 -0.588437 0)
(0.270162 -0.587521 0)
(0.310788 -0.587921 0)
(0.343916 -0.585434 0)
(0.37697 -0.586935 0)
(0.401282 -0.584224 0)
(0.431716 -0.586368 0)
(0.452716 -0.583375 0)
(0.481418 -0.584892 0)
(0.502186 -0.582691 0)
(0.531743 -0.584029 0)
(0.553625 -0.582315 0)
(0.580902 -0.584017 0)
(0.592829 -0.57932 0)
(0.631689 -0.569697 0)
(0.953473 -0.665317 0)
(-1.01027 -0.647351 0)
(-0.633883 -0.580212 0)
(-0.578142 -0.591651 0)
(-0.559219 -0.592797 0)
(-0.52852 -0.587711 0)
(-0.506299 -0.588518 0)
(-0.478463 -0.583052 0)