/*--------------------------------*- C++ -*----------------------------------*\
| =========                 |                                                 |
| \\      /  F ield         | OpenFOAM: The Open Source CFD Toolbox           |
|  \\    /   O peration     | Version:  v1912                                 |
|   \\  /    A nd           | Website:  www.openfoam.com                      |
|    \\/     M anipulation  |                                                 |
\*---------------------------------------------------------------------------*/
FoamFile
{
    version     2.0;
    format      ascii;
    class       volVectorField;
    location    "7.56";
    object      grad(T);
}
// * * * * * * * * * * * * * * * * * * * * * * * * * * * * * * * * * * * * * //

dimensions      [0 -1 0 1 0 0 0];


internalField   nonuniform List<vector> 
1900
(
(1.25132 -6.00164e-07 0)
(-1.67858 1.28802e-05 0)
(-0.29755 8.12329e-06 0)
(-0.0225537 4.74676e-05 0)
(0.037563 -1.81963e-05 0)
(0.0769696 -1.9967e-07 0)
(0.078696 -3.46353e-05 0)
(0.0494497 0.000627397 0)
(0.0190795 0.00176673 0)
(0.0281222 0.000607144 0)
(1.25133 -1.73933e-06 0)
(-1.67858 2.42449e-05 0)
(-0.297516 1.15277e-05 0)
(-0.02258 8.1109e-05 0)
(0.0375153 -1.31112e-05 0)
(0.0769531 8.29351e-06 0)
(0.0793236 -0.000117302 0)
(0.051251 0.000605137 0)
(0.0190593 0.000603055 0)
(-0.000158086 -0.00130306 0)
(1.25134 -5.63785e-13 0)
(-1.67857 -5.13912e-13 0)
(-0.297493 -4.78133e-13 0)
(-0.0225783 -1.57209e-13 0)
(0.0374902 -1.24683e-13 0)
(0.0768654 -4.44523e-14 0)
(0.0792928 1.43115e-13 0)
(0.05017 0 0)
(0.0171713 -2.92735e-14 0)
(-0.00400022 -5.20417e-14 0)
(1.25133 1.73933e-06 0)
(-1.67858 -2.42449e-05 0)
(-0.297516 -1.15277e-05 0)
(-0.02258 -8.1109e-05 0)
(0.0375153 1.31112e-05 0)
(0.0769531 -8.29351e-06 0)
(0.0793236 0.000117302 0)
(0.051251 -0.000605137 0)
(0.0190593 -0.000603055 0)
(-0.000158086 0.00130306 0)
(1.25132 6.00164e-07 0)
(-1.67858 -1.28802e-05 0)
(-0.29755 -8.12329e-06 0)
(-0.0225537 -4.74676e-05 0)
(0.037563 1.81963e-05 0)
(0.0769696 1.9967e-07 0)
(0.078696 3.46353e-05 0)
(0.0494497 -0.000627397 0)
(0.0190795 -0.00176673 0)
(0.0281222 -0.000607144 0)
(0.00249943 -0.0226669 9.40575e-16)
(-0.00591853 -0.0179251 -1.12962e-15)
(0.104369 -0.0286939 -1.43486e-15)
(0.396113 -0.0570955 0)
(-0.504453 -0.318525 -6.47303e-15)
(-0.0141367 -0.0274058 9.36479e-16)
(0.0019412 -0.0219815 1.12962e-15)
(0.0869463 -0.0370778 1.43486e-15)
(0.287919 -0.0634113 0)
(-0.440451 -0.354377 0)
(-0.0238334 -4.71392e-14 0)
(-0.00543149 -7.13291e-14 0)
(0.0764792 -3.91517e-14 0)
(0.259438 7.39229e-14 0)
(-0.568087 9.68038e-14 0)
(-0.0141367 0.0274058 9.36479e-16)
(0.0019412 0.0219815 1.12962e-15)
(0.0869463 0.0370778 1.43486e-15)
(0.287919 0.0634113 0)
(-0.440451 0.354377 0)
(0.00249943 0.0226669 -2.81353e-15)
(-0.00591853 0.0179251 -1.12962e-15)
(0.104369 0.0286939 -1.43486e-15)
(0.396113 0.0570955 -3.9557e-15)
(-0.504453 0.318525 6.47303e-15)
(-1.87405 0.448992 2.19151e-15)
(-0.961331 0.313961 -1.58602e-15)
(-0.591038 0.213345 0)
(-0.412334 0.200519 1.01715e-15)
(-0.297211 0.0791532 -4.2715e-16)
(-1.67207 0.446246 -1.10252e-15)
(-1.00241 0.205384 7.97738e-16)
(-0.607236 0.108787 0)
(-0.453393 0.131829 -6.40485e-16)
(-0.29841 -0.0432719 1.07058e-16)
(-1.72346 7.1185e-14 0)
(-1.05855 1.112e-13 0)
(-0.617817 4.81868e-14 0)
(-0.486481 5.66903e-14 2.57782e-16)
(-0.284088 5.86484e-14 -2.14115e-16)
(-1.67207 -0.446246 -1.10252e-15)
(-1.00241 -0.205384 7.97738e-16)
(-0.607236 -0.108787 0)
(-0.453393 -0.131829 -6.40485e-16)
(-0.29841 0.0432719 1.07058e-16)
(-1.87405 -0.448992 1.10252e-15)
(-0.961331 -0.313961 -9.45549e-18)
(-0.591038 -0.213345 0)
(-0.412334 -0.200519 6.03898e-18)
(-0.297211 -0.0791532 4.2715e-16)
(-0.181499 0.648745 0)
(-0.0941184 0.703666 0)
(-0.0619214 0.734534 0)
(-0.0522531 0.682878 0)
(-0.0877275 0.588204 0)
(-0.0752744 0.439067 0)
(0.0219661 0.312614 0)
(0.326576 0.268364 0)
(0.502342 0.266922 0)
(0.265651 0.201775 0)
(0.0496121 0.102498 0)
(-0.0226692 0.0818998 0)
(-0.0987676 0.0664138 0)
(-0.199154 0.0479553 0)
(-0.224013 0.0278162 0)
(-0.179063 0.012235 0)
(-0.161335 0.0149665 0)
(-0.193705 0.0166456 0)
(-0.248808 0.0149703 0)
(-0.241553 0.0104365 0)
(-0.140617 0.00315707 0)
(-0.0526161 5.84266e-06 0)
(-0.0272361 -4.93978e-05 0)
(-0.0230398 9.62736e-05 0)
(-0.0193622 -0.000146556 0)
(-0.0129534 -0.000440509 0)
(-0.00555026 -0.000550324 0)
(4.75218e-05 -0.000528229 0)
(0.00315681 -0.000470594 0)
(0.00372406 -0.00037924 0)
(0.00842564 -0.000334536 0)
(0.034518 -0.000330785 0)
(0.167088 -0.000454793 0)
(0.293321 -2.95446e-05 0)
(0.229742 0.000626151 0)
(0.14081 0.000372959 0)
(0.130524 -0.00024195 0)
(0.110545 -0.00061941 0)
(0.0498457 -0.00091734 0)
(0.00481122 -0.00132121 0)
(-0.104985 0.203372 0)
(-0.0379236 0.354637 0)
(-0.0466125 0.46846 0)
(-0.0737375 0.483884 0)
(-0.12828 0.447139 0)
(-0.124627 0.321977 0)
(-0.00160307 0.208994 0)
(0.325409 0.190038 0)
(0.484509 0.176608 0)
(0.235096 0.132563 0)
(0.0323797 0.0448696 0)
(-0.02653 0.0328121 0)
(-0.102213 0.0239806 0)
(-0.201246 0.0267974 0)
(-0.226754 0.0553112 0)
(-0.180181 0.0322732 0)
(-0.159614 0.0147945 0)
(-0.1935 0.00841813 0)
(-0.250372 0.00570181 0)
(-0.243602 0.00380907 0)
(-0.1418 0.00131252 0)
(-0.0528716 -1.81926e-05 0)
(-0.0272135 5.57834e-06 0)
(-0.0230537 6.11016e-05 0)
(-0.0194158 -5.62456e-05 0)
(-0.0129912 -0.000200958 0)
(-0.00555606 -0.000244111 0)
(5.54222e-05 -0.000228719 0)
(0.00317036 -0.000204318 0)
(0.00373523 -0.000165924 0)
(0.00842874 -0.000154116 0)
(0.034496 -0.000153206 0)
(0.167097 -0.000257308 0)
(0.293414 -0.000102145 0)
(0.229727 0.00016562 0)
(0.140719 -0.000212041 0)
(0.130456 -0.000286178 0)
(0.110453 -0.000442733 0)
(0.0497897 -0.000626268 0)
(0.00479541 -0.000821429 0)
(-0.0509227 2.95692e-14 0)
(-0.017002 -2.75979e-14 0)
(-0.0243224 1.97128e-14 0)
(-0.0584554 -1.43903e-13 0)
(-0.134828 -2.4641e-13 0)
(-0.144553 -4.25796e-13 0)
(-0.0164161 7.2543e-13 0)
(0.317155 1.22416e-12 0)
(0.485622 -2.40496e-13 0)
(0.227328 -1.44692e-12 0)
(0.0205936 2.36356e-12 0)
(-0.028746 2.8209e-12 0)
(-0.100517 1.53365e-12 0)
(-0.190039 -1.22811e-12 0)
(-0.22242 -1.82146e-12 0)
(-0.19085 2.30639e-13 0)
(-0.168275 1.56716e-12 0)
(-0.19635 4.47874e-12 0)
(-0.250149 3.93467e-12 0)
(-0.24283 2.7519e-12 0)
(-0.141731 1.11377e-12 0)
(-0.0529963 -1.18277e-12 0)
(-0.027213 1.79386e-13 0)
(-0.0230578 -5.69699e-13 0)
(-0.0194385 -3.43002e-13 0)
(-0.0130081 -1.14334e-13 0)
(-0.00555834 -2.24726e-13 0)
(5.9098e-05 -6.4855e-13 0)
(0.00317508 -9.44242e-13 0)
(0.00373866 -1.07237e-12 0)
(0.00842934 -1.23993e-12 0)
(0.034488 -1.05266e-12 0)
(0.167103 -6.91918e-13 0)
(0.293444 -4.51422e-13 0)
(0.22971 4.04112e-13 0)
(0.140679 -2.06984e-13 0)
(0.130457 2.28668e-13 0)
(0.110446 -4.17911e-13 0)
(0.0497355 -1.79386e-13 0)
(0.00475445 -4.4748e-13 0)
(-0.104985 -0.203372 0)
(-0.0379236 -0.354637 0)
(-0.0466125 -0.46846 0)
(-0.0737375 -0.483884 0)
(-0.12828 -0.447139 0)
(-0.124627 -0.321977 0)
(-0.00160307 -0.208994 0)
(0.325409 -0.190038 0)
(0.484509 -0.176608 0)
(0.235096 -0.132563 0)
(0.0323797 -0.0448696 0)
(-0.02653 -0.0328121 0)
(-0.102213 -0.0239806 0)
(-0.201246 -0.0267974 0)
(-0.226754 -0.0553112 0)
(-0.180181 -0.0322732 0)
(-0.159614 -0.0147945 0)
(-0.1935 -0.00841813 0)
(-0.250372 -0.00570181 0)
(-0.243602 -0.00380907 0)
(-0.1418 -0.00131252 0)
(-0.0528716 1.81926e-05 0)
(-0.0272135 -5.57834e-06 0)
(-0.0230537 -6.11016e-05 0)
(-0.0194158 5.62456e-05 0)
(-0.0129912 0.000200958 0)
(-0.00555606 0.000244111 0)
(5.54222e-05 0.000228719 0)
(0.00317036 0.000204318 0)
(0.00373523 0.000165924 0)
(0.00842874 0.000154116 0)
(0.034496 0.000153206 0)
(0.167097 0.000257308 0)
(0.293414 0.000102145 0)
(0.229727 -0.00016562 0)
(0.140719 0.000212041 0)
(0.130456 0.000286178 0)
(0.110453 0.000442733 0)
(0.0497897 0.000626268 0)
(0.00479541 0.000821429 0)
(-0.181499 -0.648745 0)
(-0.0941184 -0.703666 0)
(-0.0619214 -0.734534 0)
(-0.0522531 -0.682878 0)
(-0.0877275 -0.588204 0)
(-0.0752744 -0.439067 0)
(0.0219661 -0.312614 0)
(0.326576 -0.268364 0)
(0.502342 -0.266922 0)
(0.265651 -0.201775 0)
(0.0496121 -0.102498 0)
(-0.0226692 -0.0818998 0)
(-0.0987676 -0.0664138 0)
(-0.199154 -0.0479553 0)
(-0.224013 -0.0278162 0)
(-0.179063 -0.012235 0)
(-0.161335 -0.0149665 0)
(-0.193705 -0.0166456 0)
(-0.248808 -0.0149703 0)
(-0.241553 -0.0104365 0)
(-0.140617 -0.00315707 0)
(-0.0526161 -5.84266e-06 0)
(-0.0272361 4.93978e-05 0)
(-0.0230398 -9.62736e-05 0)
(-0.0193622 0.000146556 0)
(-0.0129534 0.000440509 0)
(-0.00555026 0.000550324 0)
(4.75218e-05 0.000528229 0)
(0.00315681 0.000470594 0)
(0.00372406 0.00037924 0)
(0.00842564 0.000334536 0)
(0.034518 0.000330785 0)
(0.167088 0.000454793 0)
(0.293321 2.95446e-05 0)
(0.229742 -0.000626151 0)
(0.14081 -0.000372959 0)
(0.130524 0.00024195 0)
(0.110545 0.00061941 0)
(0.0498457 0.00091734 0)
(0.00481122 0.00132121 0)
(-0.0115708 -0.639855 0)
(-0.0267613 -0.568509 0)
(-0.0158713 -0.526022 0)
(-0.00679016 -0.497547 0)
(-0.0222333 -0.448899 0)
(-0.00882105 -0.346669 0)
(0.0782225 -0.277186 0)
(0.35272 -0.159599 0)
(0.505659 -0.197295 0)
(0.302905 -0.19425 0)
(0.0876494 -0.129066 0)
(-0.00835957 -0.107514 0)
(-0.0849033 -0.101827 0)
(-0.179453 -0.0937164 0)
(-0.207516 -0.0604047 0)
(-0.173414 -0.0347921 0)
(-0.160391 -0.0256358 0)
(-0.193265 -0.0225617 0)
(-0.248286 -0.0225014 0)
(-0.23856 -0.0187134 0)
(-0.136625 -0.00595742 0)
(-0.0511557 -0.0001709 0)
(-0.0272441 0.000101971 0)
(-0.0230088 -0.000104618 0)
(-0.019141 0.000240958 0)
(-0.0127816 0.000727592 0)
(-0.00550773 0.000956281 0)
(1.45451e-05 0.000938649 0)
(0.00309256 0.000833307 0)
(0.0036628 0.000676707 0)
(0.00840194 0.000569508 0)
(0.0345458 0.000561612 0)
(0.166919 0.000648669 0)
(0.292843 -9.14022e-05 0)
(0.229458 -0.00103955 0)
(0.141158 -0.00126655 0)
(0.131 0.000343051 0)
(0.110769 0.000450611 0)
(0.0501651 0.000626738 0)
(0.00503046 0.00101349 0)
(-0.00763136 -0.184325 0)
(-0.0205432 -0.167618 0)
(-0.018233 -0.149546 0)
(-0.00231409 -0.155521 0)
(0.0225443 -0.147239 0)
(0.0545602 -0.113811 0)
(0.172067 -0.0585079 0)
(0.389542 0.0206343 0)
(0.467172 -0.06191 0)
(0.311423 -0.113205 0)
(0.112798 -0.115393 0)
(-0.00409453 -0.115001 0)
(-0.0929062 -0.12883 0)
(-0.169802 -0.130687 0)
(-0.176077 -0.0913825 0)
(-0.148588 -0.0557419 0)
(-0.150056 -0.0412555 0)
(-0.190921 -0.037924 0)
(-0.245379 -0.0391196 0)
(-0.227216 -0.0298101 0)
(-0.12489 -0.00834427 0)
(-0.0475601 -0.000253887 0)
(-0.0271679 0.000165481 0)
(-0.0229225 4.06415e-05 0)
(-0.0186789 0.000463029 0)
(-0.0123562 0.00113082 0)
(-0.00536969 0.00149174 0)
(-5.3297e-05 0.001503 0)
(0.00293885 0.00135706 0)
(0.0035027 0.00112943 0)
(0.00832744 0.000947177 0)
(0.0345794 0.000911122 0)
(0.16655 0.000989186 0)
(0.291951 -2.9309e-05 0)
(0.228762 -0.00107793 0)
(0.141956 -0.00153557 0)
(0.131923 0.000343994 0)
(0.110699 0.000322248 0)
(0.0502168 0.000856813 0)
(0.00506635 0.000900163 0)
(0.0045285 0.00436721 0)
(0.00675325 0.0113945 0)
(-0.00421389 0.0211336 0)
(-0.00456709 0.0242747 0)
(0.0179604 0.0362292 0)
(0.0766835 0.0657576 0)
(0.207779 0.101938 0)
(0.349442 0.104435 0)
(0.376687 0.0364222 0)
(0.251366 -0.0544504 0)
(0.0859181 -0.0957773 0)
(-0.0213072 -0.118932 0)
(-0.100019 -0.148625 0)
(-0.143368 -0.136961 0)
(-0.135297 -0.0911191 0)
(-0.12511 -0.0619647 0)
(-0.143221 -0.0526388 0)
(-0.191207 -0.0523928 0)
(-0.240467 -0.0541268 0)
(-0.208904 -0.0375204 0)
(-0.108143 -0.00921971 0)
(-0.0429554 -0.000179597 0)
(-0.0269603 0.000300459 0)
(-0.0227221 0.000306635 0)
(-0.0180905 0.00084468 0)
(-0.0117903 0.00165044 0)
(-0.00514909 0.0021139 0)
(-0.000115237 0.00216781 0)
(0.00273258 0.00200167 0)
(0.00326783 0.00171475 0)
(0.00819157 0.00146267 0)
(0.0345863 0.00139455 0)
(0.166013 0.0014868 0)
(0.290851 0.000292591 0)
(0.228006 -0.000742943 0)
(0.142528 -0.00119131 0)
(0.132791 0.000217957 0)
(0.111263 0.000516159 0)
(0.050722 0.0015525 0)
(0.00507224 0.00152613 0)
(-0.000859625 0.0271245 0)
(-0.00438652 0.0223529 0)
(-0.00582116 0.0224266 0)
(0.0122326 0.0408355 0)
(0.0625186 0.0751767 0)
(0.11788 0.119495 0)
(0.209337 0.148432 0)
(0.326409 0.14345 0)
(0.314065 0.0761077 0)
(0.184031 -0.0196812 0)
(0.0506607 -0.0808879 0)
(-0.0550207 -0.124286 0)
(-0.110279 -0.144627 0)
(-0.114387 -0.117567 0)
(-0.103808 -0.0829685 0)
(-0.111507 -0.0680812 0)
(-0.140832 -0.0641678 0)
(-0.192355 -0.065848 0)
(-0.231048 -0.0659736 0)
(-0.183942 -0.0399318 0)
(-0.0889071 -0.00842383 0)
(-0.0383861 -0.000139835 0)
(-0.0266993 0.000351707 0)
(-0.0223981 0.000526022 0)
(-0.017384 0.00121191 0)
(-0.0111331 0.00212844 0)
(-0.00487113 0.00266484 0)
(-0.000161442 0.00275981 0)
(0.00250226 0.00259186 0)
(0.00298329 0.00227733 0)
(0.00801888 0.00197373 0)
(0.0346027 0.00187922 0)
(0.165488 0.0019305 0)
(0.289802 0.000419979 0)
(0.227332 -0.000634312 0)
(0.142882 -0.00107121 0)
(0.133568 -6.64117e-05 0)
(0.111985 0.000734175 0)
(0.0511901 0.00174817 0)
(0.00504094 0.00183799 0)
(-6.95219e-05 0.0761244 0)
(0.00222624 0.0802576 0)
(0.0135966 0.0968179 0)
(0.0462648 0.126816 0)
(0.0937596 0.159275 0)
(0.147275 0.177943 0)
(0.230862 0.206866 0)
(0.279748 0.183379 0)
(0.219489 0.0700635 0)
(0.100079 -0.0258764 0)
(-0.014883 -0.107434 0)
(-0.0827288 -0.138242 0)
(-0.0935438 -0.126788 0)
(-0.083951 -0.0966675 0)
(-0.0876103 -0.0800219 0)
(-0.106993 -0.0749505 0)
(-0.141069 -0.0732882 0)
(-0.192947 -0.0770369 0)
(-0.215493 -0.0734507 0)
(-0.153447 -0.0368598 0)
(-0.0697982 -0.00643383 0)
(-0.034499 -4.0792e-05 0)
(-0.0263186 0.000395828 0)
(-0.0218932 0.000789649 0)
(-0.0165463 0.00165701 0)
(-0.0103902 0.00266987 0)
(-0.00454067 0.00325925 0)
(-0.000185559 0.00339376 0)
(0.00226764 0.00323968 0)
(0.00267217 0.00292762 0)
(0.00780793 0.00260562 0)
(0.0345447 0.00252819 0)
(0.164607 0.00266969 0)
(0.28838 0.00118613 0)
(0.226569 -5.8618e-05 0)
(0.143075 -0.000672307 0)
(0.13453 2.71735e-05 0)
(0.113012 0.00112379 0)
(0.0517857 0.00183411 0)
(0.0051588 0.00186083 0)
(0.00312331 0.153583 0)
(0.0155545 0.160557 0)
(0.0390442 0.180059 0)
(0.0724181 0.201351 0)
(0.111786 0.208476 0)
(0.163741 0.21426 0)
(0.214577 0.208409 0)
(0.19458 0.118315 0)
(0.112418 0.0111457 0)
(0.0129884 -0.0805588 0)
(-0.0576193 -0.126374 0)
(-0.0736713 -0.126976 0)
(-0.0702162 -0.101974 0)
(-0.0693209 -0.0868467 0)
(-0.0828811 -0.0826468 0)
(-0.105018 -0.0796212 0)
(-0.142843 -0.0797614 0)
(-0.192511 -0.0865578 0)
(-0.192332 -0.0740571 0)
(-0.119362 -0.0290676 0)
(-0.053427 -0.00430372 0)
(-0.0318048 -6.46018e-05 0)
(-0.0258991 0.000392093 0)
(-0.0211828 0.00106944 0)
(-0.0155721 0.00213298 0)
(-0.00958917 0.00322716 0)
(-0.00417357 0.00385348 0)
(-0.000180301 0.00401821 0)
(0.00205307 0.00388715 0)
(0.00237229 0.00360295 0)
(0.00763398 0.00329713 0)
(0.0346644 0.00322539 0)
(0.164194 0.00329417 0)
(0.287173 0.00151867 0)
(0.225541 0.000275318 0)
(0.142964 -0.000311962 0)
(0.135299 9.03117e-05 0)
(0.113726 0.00116401 0)
(0.0519003 0.00176216 0)
(0.00506669 0.00166206 0)
(0.00665086 0.22263 0)
(0.0277396 0.230095 0)
(0.0529074 0.236956 0)
(0.073648 0.226712 0)
(0.106199 0.211876 0)
(0.147211 0.191338 0)
(0.138406 0.119322 0)
(0.089658 0.0192751 0)
(0.0278471 -0.0555897 0)
(-0.0324394 -0.118162 0)
(-0.0596122 -0.123398 0)
(-0.0592163 -0.106446 0)
(-0.0548739 -0.0906033 0)
(-0.0653266 -0.0866173 0)
(-0.0806475 -0.0839323 0)
(-0.104212 -0.0812469 0)
(-0.147753 -0.0869073 0)
(-0.18745 -0.0940003 0)
(-0.160094 -0.065034 0)
(-0.0862298 -0.0189729 0)
(-0.0418499 -0.00232975 0)
(-0.0299739 0.000140232 0)
(-0.0252258 0.000772598 0)
(-0.0202156 0.00177979 0)
(-0.0144671 0.00301411 0)
(-0.00873228 0.00413402 0)
(-0.0037784 0.00475677 0)
(-0.000153113 0.0049137 0)
(0.00186748 0.0047821 0)
(0.0021036 0.00451619 0)
(0.0074441 0.00423795 0)
(0.0345418 0.00419106 0)
(0.162962 0.00425102 0)
(0.285471 0.0022386 0)
(0.224805 0.000746059 0)
(0.142897 -7.64248e-05 0)
(0.135953 0.000106033 0)
(0.114623 0.00114677 0)
(0.0522656 0.00178194 0)
(0.00506233 0.00173657 0)
(0.0103173 0.242885 0)
(0.0293603 0.248297 0)
(0.0357844 0.21754 0)
(0.0482502 0.192209 0)
(0.0776977 0.160188 0)
(0.0745516 0.0946164 0)
(0.0487709 0.013319 0)
(0.0260297 -0.048729 0)
(-0.0200208 -0.111132 0)
(-0.0523543 -0.121214 0)
(-0.0463301 -0.108665 0)
(-0.042069 -0.0921081 0)
(-0.0511081 -0.088876 0)
(-0.0628924 -0.0861263 0)
(-0.0777061 -0.0815483 0)
(-0.107885 -0.0833032 0)
(-0.155133 -0.0957393 0)
(-0.171433 -0.0927922 0)
(-0.120032 -0.0468228 0)
(-0.0589382 -0.010214 0)
(-0.0350089 -0.000849231 0)
(-0.0288153 0.000659279 0)
(-0.0243192 0.00157699 0)
(-0.0190228 0.00282205 0)
(-0.0133035 0.00414483 0)
(-0.00790988 0.00523398 0)
(-0.00342223 0.00581748 0)
(-0.000155893 0.0059329 0)
(0.00167 0.00579026 0)
(0.00184792 0.00555827 0)
(0.00732067 0.00534573 0)
(0.034677 0.00535701 0)
(0.162313 0.00538318 0)
(0.283795 0.00310077 0)
(0.223311 0.00145444 0)
(0.142348 0.000367808 0)
(0.136478 0.000519886 0)
(0.115341 0.0015464 0)
(0.0524687 0.00219029 0)
(0.00502296 0.00214824 0)
(0.0118665 0.220441 0)
(0.00331597 0.207457 0)
(-0.00114111 0.1535 0)
(0.0183814 0.123344 0)
(0.0121546 0.0672541 0)
(0.00568259 -0.000668611 0)
(0.000273148 -0.0560711 0)
(-0.0302677 -0.0997321 0)
(-0.042002 -0.118828 0)
(-0.0300622 -0.103103 0)
(-0.0315648 -0.0893438 0)
(-0.0401465 -0.0884041 0)
(-0.0491097 -0.0868039 0)
(-0.0582653 -0.081271 0)
(-0.0779271 -0.0802003 0)
(-0.117887 -0.0907403 0)
(-0.156897 -0.102537 0)
(-0.140312 -0.0762453 0)
(-0.0805184 -0.026361 0)
(-0.041928 -0.00433142 0)
(-0.0313721 0.000173501 0)
(-0.0276359 0.00130552 0)
(-0.0231417 0.00250613 0)
(-0.0177411 0.00385688 0)
(-0.0121428 0.00513414 0)
(-0.00712046 0.00609554 0)
(-0.00310489 0.00657663 0)
(-0.000179345 0.00660748 0)
(0.00150648 0.00645042 0)
(0.00167524 0.00626908 0)
(0.00725016 0.00616517 0)
(0.0345779 0.0062815 0)
(0.160788 0.00630553 0)
(0.281685 0.00370909 0)
(0.222172 0.00185532 0)
(0.141997 0.000604044 0)
(0.137088 0.000926733 0)
(0.116233 0.00200769 0)
(0.0528456 0.00289577 0)
(0.00502181 0.00309673 0)
(-0.00219473 0.147099 0)
(-0.0351473 0.101208 0)
(-0.0452704 0.0716446 0)
(-0.0348591 0.03109 0)
(-0.0418051 -0.0144092 0)
(-0.0442891 -0.050942 0)
(-0.0466903 -0.0861871 0)
(-0.0344448 -0.101024 0)
(-0.0232691 -0.0865225 0)
(-0.0239426 -0.0831469 0)
(-0.0321658 -0.085825 0)
(-0.0396215 -0.0861802 0)
(-0.0442344 -0.0802867 0)
(-0.056529 -0.0766752 0)
(-0.086831 -0.083979 0)
(-0.12941 -0.0998533 0)
(-0.141165 -0.0951722 0)
(-0.0980272 -0.048537 0)
(-0.0507336 -0.0123065 0)
(-0.0333686 -0.00196924 0)
(-0.0295769 -1.28894e-05 0)
(-0.0265675 0.00104933 0)
(-0.0218606 0.00250953 0)
(-0.0164903 0.00398598 0)
(-0.0111462 0.00528419 0)
(-0.00651984 0.00620231 0)
(-0.00292891 0.00664483 0)
(-0.000277518 0.00666408 0)
(0.00134391 0.00654936 0)
(0.00157305 0.00651057 0)
(0.00733265 0.00657773 0)
(0.0348123 0.0068351 0)
(0.159834 0.0067667 0)
(0.279507 0.00380945 0)
(0.220319 0.00253632 0)
(0.141453 0.00132267 0)
(0.137831 0.00143912 0)
(0.117238 0.00252335 0)
(0.0535181 0.00376242 0)
(0.00521661 0.00424123 0)
(-0.0323556 0.0398085 0)
(-0.0693948 0.00228285 0)
(-0.0687096 -0.00617562 0)
(-0.0645431 -0.0262366 0)
(-0.0668944 -0.032118 0)
(-0.0634852 -0.0549244 0)
(-0.0479874 -0.0663067 0)
(-0.0305909 -0.0702657 0)
(-0.0247752 -0.0757075 0)
(-0.0293901 -0.0820102 0)
(-0.0344878 -0.0844537 0)
(-0.0348096 -0.0784465 0)
(-0.0399503 -0.0729077 0)
(-0.0618233 -0.0778427 0)
(-0.100262 -0.0929688 0)
(-0.128673 -0.0997057 0)
(-0.107447 -0.0669612 0)
(-0.06046 -0.0217721 0)
(-0.0356439 -0.00227556 0)
(-0.0300815 0.00272928 0)
(-0.0284633 0.00455829 0)
(-0.0252052 0.00666562 0)
(-0.0203118 0.00909403 0)
(-0.0150674 0.0113299 0)
(-0.0100071 0.0131999 0)
(-0.00580929 0.0145625 0)
(-0.00265991 0.0153642 0)
(-0.000271344 0.0157231 0)
(0.00135855 0.0158881 0)
(0.00170258 0.0162148 0)
(0.00756288 0.0165183 0)
(0.03476 0.017075 0)
(0.157872 0.0172741 0)
(0.277608 0.0149984 0)
(0.219775 0.0143608 0)
(0.140939 0.0122017 0)
(0.138245 0.00939516 0)
(0.118471 0.00651331 0)
(0.054501 0.00596015 0)
(0.00548321 0.00593824 0)
(-0.0383558 -0.00303185 0)
(-0.0794593 -0.0108832 0)
(-0.0727528 -0.0152961 0)
(-0.0598581 -0.0119785 0)
(-0.0694498 -0.00830106 0)
(-0.0772347 -0.0206811 0)
(-0.0614737 -0.0439843 0)
(-0.0435037 -0.0647278 0)
(-0.0345864 -0.0761747 0)
(-0.0323707 -0.0784067 0)
(-0.0287317 -0.0717561 0)
(-0.0284954 -0.063439 0)
(-0.0436526 -0.0640002 0)
(-0.0758606 -0.0739831 0)
(-0.107899 -0.0839449 0)
(-0.104348 -0.0653495 0)
(-0.066065 -0.0205067 0)
(-0.0356938 0.00864824 0)
(-0.0271232 0.0196463 0)
(-0.0267833 0.0248076 0)
(-0.0257837 0.0293736 0)
(-0.0221967 0.0345334 0)
(-0.0173659 0.0396727 0)
(-0.0125338 0.0443791 0)
(-0.0080312 0.0483281 0)
(-0.00443427 0.0516195 0)
(-0.00181049 0.0537236 0)
(0.000227346 0.0556407 0)
(0.00181771 0.0570403 0)
(0.00218034 0.0584562 0)
(0.00816162 0.0589797 0)
(0.0355406 0.060397 0)
(0.157833 0.0622287 0)
(0.2767 0.0637656 0)
(0.217624 0.0591706 0)
(0.136668 0.0454741 0)
(0.132349 0.0329836 0)
(0.113928 0.0220122 0)
(0.052964 0.0125587 0)
(0.0051955 0.00864439 0)
(-0.0399215 0.0112236 0)
(-0.0812131 0.00878036 0)
(-0.0697651 0.00981338 0)
(-0.0578024 0.0176844 0)
(-0.0752806 0.0115713 0)
(-0.0978708 0.00291321 0)
(-0.0904324 -0.0321142 0)
(-0.0616108 -0.0559241 0)
(-0.0379567 -0.0576878 0)
(-0.0251321 -0.0451501 0)
(-0.0200644 -0.027663 0)
(-0.0273358 -0.0180929 0)
(-0.050111 -0.0201992 0)
(-0.0810427 -0.0234006 0)
(-0.0919426 -0.00485087 0)
(-0.067542 0.0444139 0)
(-0.0361399 0.0889339 0)
(-0.0217671 0.112355 0)
(-0.0200722 0.125875 0)
(-0.0207079 0.136614 0)
(-0.0190911 0.14699 0)
(-0.0152807 0.157005 0)
(-0.0108242 0.165686 0)
(-0.00672673 0.172985 0)
(-0.00302994 0.178679 0)
(-0.000609934 0.183549 0)
(0.001215 0.186616 0)
(0.00292468 0.18976 0)
(0.00407174 0.191573 0)
(0.00357152 0.193113 0)
(0.00943309 0.193023 0)
(0.0378909 0.194544 0)
(0.161118 0.197543 0)
(0.274661 0.19285 0)
(0.202149 0.166114 0)
(0.115704 0.128595 0)
(0.115637 0.0944367 0)
(0.0987893 0.0605315 0)
(0.0416193 0.0319488 0)
(0.00171126 0.0171937 0)
(-0.0407102 0.0245379 0)
(-0.0808182 0.0282724 0)
(-0.0641725 0.038128 0)
(-0.0581641 0.051117 0)
(-0.0836838 0.0577143 0)
(-0.119332 0.0588468 0)
(-0.118172 0.0336779 0)
(-0.0681474 0.0295269 0)
(-0.0242042 0.0471643 0)
(-0.0034378 0.0716025 0)
(-0.00265836 0.0903456 0)
(-0.0213029 0.0999651 0)
(-0.0487673 0.104049 0)
(-0.0610705 0.118998 0)
(-0.0425505 0.158804 0)
(-0.0139733 0.203036 0)
(-0.000594335 0.2306 0)
(-9.60505e-05 0.243853 0)
(-0.00374684 0.251827 0)
(-0.00643631 0.258429 0)
(-0.00613393 0.264501 0)
(-0.00418037 0.269609 0)
(-0.0019672 0.273254 0)
(-1.31202e-05 0.276043 0)
(0.00214916 0.277811 0)
(0.00321365 0.279051 0)
(0.00417462 0.279739 0)
(0.00500447 0.280059 0)
(0.00504895 0.279578 0)
(0.00357752 0.278754 0)
(0.0095397 0.278019 0)
(0.0398966 0.278053 0)
(0.156201 0.276898 0)
(0.246413 0.24951 0)
(0.155706 0.207319 0)
(0.0675969 0.176129 0)
(0.0667603 0.141965 0)
(0.0537125 0.100577 0)
(0.0112021 0.0645462 0)
(-0.00902307 0.0374455 0)
(-0.0363228 0.0295717 0)
(-0.0681171 0.0571308 0)
(-0.0477512 0.0939767 0)
(-0.0389284 0.119067 0)
(-0.0678318 0.154442 0)
(-0.121033 0.176909 0)
(-0.118686 0.17013 0)
(-0.0486148 0.170617 0)
(0.00258883 0.181455 0)
(0.0164789 0.186115 0)
(0.00726686 0.177031 0)
(-0.014131 0.164076 0)
(-0.0317699 0.161591 0)
(-0.0282783 0.181485 0)
(-0.0109607 0.208542 0)
(0.00164327 0.222012 0)
(0.00319277 0.223401 0)
(-0.00131176 0.220351 0)
(-0.00602644 0.216818 0)
(-0.00849523 0.214189 0)
(-0.00831784 0.212444 0)
(-0.00684619 0.210674 0)
(-0.00462335 0.208818 0)
(-0.00233548 0.207056 0)
(-0.000131688 0.205255 0)
(0.00124792 0.20322 0)
(0.00218588 0.201583 0)
(0.00276948 0.199173 0)
(0.00281463 0.197175 0)
(0.00206928 0.194912 0)
(0.00875714 0.19386 0)
(0.0368114 0.191572 0)
(0.133613 0.181713 0)
(0.207612 0.13454 0)
(0.131436 0.104009 0)
(0.0527273 0.100987 0)
(0.0428319 0.0918646 0)
(0.0241856 0.0809331 0)
(-0.0192166 0.069288 0)
(-0.0244039 0.0545116 0)
(-0.0141533 0.0191906 0)
(-0.0187552 0.0611387 0)
(-0.00448839 0.104822 0)
(0.000102099 0.133636 0)
(-0.0279449 0.159174 0)
(-0.104214 0.179573 0)
(-0.124235 0.183229 0)
(-0.0572345 0.174207 0)
(-0.00926947 0.160291 0)
(-0.00770019 0.139498 0)
(-0.0238966 0.116688 0)
(-0.0361816 0.103789 0)
(-0.0319909 0.108782 0)
(-0.0158267 0.125515 0)
(-0.00349705 0.137303 0)
(0.000344705 0.139896 0)
(-0.002195 0.137377 0)
(-0.00643943 0.134461 0)
(-0.00968488 0.131842 0)
(-0.0106507 0.130392 0)
(-0.00952155 0.130286 0)
(-0.00767453 0.131305 0)
(-0.0054528 0.13306 0)
(-0.00344729 0.134062 0)
(-0.00154757 0.134329 0)
(-0.000324527 0.133996 0)
(0.000274423 0.133484 0)
(0.000756499 0.132522 0)
(0.000942638 0.131866 0)
(0.00038312 0.131131 0)
(0.00632194 0.130778 0)
(0.0281919 0.126825 0)
(0.101242 0.115245 0)
(0.171535 0.0633453 0)
(0.123372 0.0373096 0)
(0.055894 0.0395212 0)
(0.047436 0.0320143 0)
(0.0319568 0.0253368 0)
(-0.0142587 0.0223107 0)
(-0.0232622 0.0309744 0)
(0.00409994 -0.0116076 0)
(0.0144006 0.0264994 0)
(0.0221101 0.0458162 0)
(0.0134467 0.0495614 0)
(-0.0235652 0.0554754 0)
(-0.0978526 0.0604583 0)
(-0.123857 0.0790609 0)
(-0.0707188 0.0799953 0)
(-0.0308578 0.0647561 0)
(-0.0255389 0.0520687 0)
(-0.0271441 0.0507939 0)
(-0.0217493 0.0644697 0)
(-0.0108339 0.0858021 0)
(-0.000793888 0.102594 0)
(0.00289705 0.111925 0)
(0.00171424 0.115736 0)
(-0.00204418 0.117805 0)
(-0.0066454 0.119884 0)
(-0.00994734 0.122065 0)
(-0.0099951 0.124555 0)
(-0.00743781 0.127586 0)
(-0.00417253 0.130583 0)
(-0.00196718 0.13355 0)
(-0.00111301 0.135595 0)
(-0.000194957 0.136932 0)
(0.000434215 0.137793 0)
(0.000765577 0.13854 0)
(0.00120961 0.139196 0)
(0.00147439 0.139781 0)
(0.00102147 0.140402 0)
(0.00460693 0.141488 0)
(0.0218432 0.137822 0)
(0.0724425 0.127957 0)
(0.13251 0.0795297 0)
(0.108479 0.0428537 0)
(0.0476246 0.0441854 0)
(0.0291633 0.024255 0)
(0.0148349 0.00937971 0)
(-0.0137841 -0.0108883 0)
(-0.0160553 -0.0364662 0)
(0.022568 -0.357284 0)
(0.0365804 -0.129278 0)
(0.017735 -0.0135493 0)
(0.00941002 -0.0129805 0)
(-0.0174442 0.00150356 0)
(-0.0814858 0.0122834 0)
(-0.105408 0.043907 0)
(-0.0710191 0.0619776 0)
(-0.0361805 0.0638487 0)
(-0.0211546 0.0679967 0)
(-0.0119465 0.0783271 0)
(-0.00244644 0.092168 0)
(0.00474717 0.103703 0)
(0.0093459 0.109577 0)
(0.00916709 0.11183 0)
(0.00601147 0.11196 0)
(0.00180172 0.112091 0)
(-0.00233447 0.113039 0)
(-0.00518334 0.115443 0)
(-0.00533068 0.118636 0)
(-0.00371333 0.121926 0)
(-0.00192742 0.123397 0)
(-0.000622209 0.123642 0)
(-0.000188065 0.123798 0)
(0.000570448 0.124078 0)
(0.00122498 0.124015 0)
(0.00162596 0.12406 0)
(0.00195271 0.123983 0)
(0.00210513 0.123964 0)
(0.00202782 0.124059 0)
(0.00383566 0.125082 0)
(0.0151527 0.122971 0)
(0.0450696 0.11082 0)
(0.0895263 0.0720138 0)
(0.089313 0.0296041 0)
(0.0379715 0.0327131 0)
(0.013896 0.0153003 0)
(-0.00190853 -0.00133708 0)
(-0.0584374 -0.139586 0)
(-0.0479099 -0.39415 0)
(0.223815 -0.78859 0)
(0.345636 -0.472324 0)
(0.134178 -0.0744526 0)
(0.0279522 -0.0271748 0)
(0.000780046 -0.0251714 0)
(-0.056991 -0.0183747 0)
(-0.0759699 0.0103153 0)
(-0.0515023 0.0397172 0)
(-0.0250576 0.0570617 0)
(-0.011587 0.0683858 0)
(-0.00385171 0.0766507 0)
(0.00270407 0.0803148 0)
(0.00594169 0.080979 0)
(0.00703782 0.0779614 0)
(0.00519385 0.0729544 0)
(0.00196561 0.0677882 0)
(-0.00100412 0.0634193 0)
(-0.00341548 0.0608704 0)
(-0.0045548 0.060445 0)
(-0.00374802 0.0614054 0)
(-0.0028493 0.0618555 0)
(-0.00251859 0.0612156 0)
(-0.00158137 0.0598674 0)
(-0.000693385 0.0587975 0)
(1.41485e-05 0.0583282 0)
(0.000417007 0.0575893 0)
(0.000735409 0.0570316 0)
(0.00111764 0.0563539 0)
(0.00154723 0.0559027 0)
(0.00209861 0.0557273 0)
(0.00355878 0.0562259 0)
(0.00809987 0.0556596 0)
(0.0233382 0.0466834 0)
(0.0542472 0.0218898 0)
(0.070607 -0.0152401 0)
(0.0338409 -0.0175243 0)
(-0.00364866 -0.0159275 0)
(-0.134419 -0.0586852 0)
(-0.392313 -0.395853 0)
(-0.261363 -0.74762 0)
(0.327334 -0.447819 0)
(0.724749 -0.340394 0)
(0.446697 -0.0543994 0)
(0.0568992 -0.0160824 0)
(-0.00896409 -0.0243601 0)
(-0.0472895 -0.0261942 0)
(-0.049429 -0.0142924 0)
(-0.0259727 0.00134826 0)
(-0.00855443 0.0122005 0)
(-0.00227794 0.0184742 0)
(-0.000451367 0.0218609 0)
(0.00172446 0.0220029 0)
(0.00247936 0.0208443 0)
(0.00161319 0.0184099 0)
(-0.000636141 0.015215 0)
(-0.00317698 0.0123599 0)
(-0.00486452 0.00987836 0)
(-0.00520055 0.00835382 0)
(-0.0046678 0.00802593 0)
(-0.00397152 0.00823656 0)
(-0.00389623 0.007794 0)
(-0.0038432 0.00715011 0)
(-0.00295239 0.00641941 0)
(-0.00167136 0.00572735 0)
(-0.000593791 0.00540454 0)
(-2.4419e-05 0.00509647 0)
(0.000435497 0.00494646 0)
(0.000864826 0.00478524 0)
(0.00150126 0.0046841 0)
(0.00233927 0.00473754 0)
(0.00377047 0.00493384 0)
(0.00595727 0.00495722 0)
(0.0125278 0.00271039 0)
(0.0298546 -0.00626109 0)
(0.0513322 -0.0226027 0)
(0.0373091 -0.0262633 0)
(-0.0257682 -0.0190037 0)
(-0.368019 -0.0492176 0)
(-0.72232 -0.261418 0)
(-0.386886 -0.391678 0)
(0.327334 0.447819 0)
(0.724749 0.340394 0)
(0.446697 0.0543994 0)
(0.0568992 0.0160824 0)
(-0.00896409 0.0243601 0)
(-0.0472895 0.0261942 0)
(-0.049429 0.0142924 0)
(-0.0259727 -0.00134826 0)
(-0.00855443 -0.0122005 0)
(-0.00227794 -0.0184742 0)
(-0.000451367 -0.0218609 0)
(0.00172446 -0.0220029 0)
(0.00247936 -0.0208443 0)
(0.00161319 -0.0184099 0)
(-0.000636141 -0.015215 0)
(-0.00317698 -0.0123599 0)
(-0.00486452 -0.00987836 0)
(-0.00520055 -0.00835382 0)
(-0.0046678 -0.00802593 0)
(-0.00397152 -0.00823656 0)
(-0.00389623 -0.007794 0)
(-0.0038432 -0.00715011 0)
(-0.00295239 -0.00641941 0)
(-0.00167136 -0.00572735 0)
(-0.000593791 -0.00540454 0)
(-2.4419e-05 -0.00509647 0)
(0.000435497 -0.00494646 0)
(0.000864826 -0.00478524 0)
(0.00150126 -0.0046841 0)
(0.00233927 -0.00473754 0)
(0.00377047 -0.00493384 0)
(0.00595727 -0.00495722 0)
(0.0125278 -0.00271039 0)
(0.0298546 0.00626109 0)
(0.0513322 0.0226027 0)
(0.0373091 0.0262633 0)
(-0.0257682 0.0190037 0)
(-0.368019 0.0492176 0)
(-0.72232 0.261418 0)
(-0.386886 0.391678 0)
(0.223815 0.78859 0)
(0.345636 0.472324 0)
(0.134178 0.0744526 0)
(0.0279522 0.0271748 0)
(0.000780046 0.0251714 0)
(-0.056991 0.0183747 0)
(-0.0759699 -0.0103153 0)
(-0.0515023 -0.0397172 0)
(-0.0250576 -0.0570617 0)
(-0.011587 -0.0683858 0)