/*--------------------------------*- C++ -*----------------------------------*\
| =========                 |                                                 |
| \\      /  F ield         | OpenFOAM: The Open Source CFD Toolbox           |
|  \\    /   O peration     | Version:  v1912                                 |
|   \\  /    A nd           | Website:  www.openfoam.com                      |
|    \\/     M anipulation  |                                                 |
\*---------------------------------------------------------------------------*/
FoamFile
{
    version     2.0;
    format      ascii;
    class       volScalarField;
    location    "7.56";
    object      Ma;
}
// * * * * * * * * * * * * * * * * * * * * * * * * * * * * * * * * * * * * * //

dimensions      [0 0 0 0 0 0 0];


internalField   nonuniform List<scalar> 
1900
(
0.52024
0.0195397
0.107876
0.104059
0.104947
0.102507
0.100719
0.0995583
0.0996406
0.0914075
0.520237
0.019545
0.107865
0.104049
0.104925
0.102421
0.100459
0.0994084
0.100816
0.102982
0.520236
0.0195494
0.107856
0.104039
0.1049
0.10236
0.100377
0.0996228
0.101722
0.109207
0.520237
0.019545
0.107865
0.104049
0.104925
0.102421
0.100459
0.0994084
0.100816
0.102982
0.52024
0.0195397
0.107876
0.104059
0.104947
0.102507
0.100719
0.0995583
0.0996406
0.0914075
0.100939
0.140321
0.193933
0.281033
0.430403
0.119923
0.14675
0.179365
0.246284
0.391518
0.12766
0.153107
0.185875
0.249842
0.38839
0.119923
0.14675
0.179365
0.246284
0.391518
0.100939
0.140321
0.193933
0.281033
0.430403
0.947945
1.34227
1.60832
1.78754
1.96183
0.906988
1.34126
1.62981
1.80743
1.98285
0.902665
1.35027
1.63034
1.80168
1.98047
0.906988
1.34126
1.62981
1.80743
1.98285
0.947945
1.34227
1.60832
1.78754
1.96183
2.0803
2.16323
2.20811
2.24016
2.29041
2.39126
2.44742
2.37728
1.83919
1.51161
1.45934
1.39398
1.27752
1.14743
1.02037
0.896984
0.787186
0.681892
0.550673
0.376111
0.243427
0.208751
0.209526
0.215284
0.222367
0.233072
0.249146
0.271229
0.294089
0.316988
0.340792
0.357572
0.326846
0.110655
0.116694
0.198891
0.220446
0.241778
0.26592
0.305759
2.05323
2.06558
2.09813
2.12894
2.19128
2.31251
2.39372
2.32043
1.83689
1.49873
1.45119
1.37908
1.26185
1.13617
1.02402
0.910018
0.798487
0.690747
0.556504
0.377918
0.243168
0.208189
0.209015
0.21483
0.221926
0.232701
0.248843
0.271018
0.293945
0.316927
0.34078
0.357643
0.326987
0.110254
0.114826
0.197091
0.218264
0.239841
0.265898
0.307224
2.04286
2.04956
2.06717
2.08852
2.14688
2.28106
2.3627
2.29371
1.82258
1.48734
1.45035
1.38266
1.27096
1.15004
1.03757
0.925554
0.803689
0.686835
0.552975
0.377763
0.243429
0.208081
0.208862
0.214693
0.221741
0.232507
0.248661
0.270861
0.2938
0.316802
0.340666
0.357559
0.326929
0.11002
0.11426
0.196382
0.217147
0.238318
0.264347
0.305918
2.05323
2.06558
2.09813
2.12894
2.19128
2.31251
2.39372
2.32043
1.83689
1.49873
1.45119
1.37908
1.26185
1.13617
1.02402
0.910018
0.798487
0.690747
0.556504
0.377918
0.243168
0.208189
0.209015
0.21483
0.221926
0.232701
0.248843
0.271018
0.293945
0.316927
0.34078
0.357643
0.326987
0.110254
0.114826
0.197091
0.218264
0.239841
0.265898
0.307224
2.0803
2.16323
2.20811
2.24016
2.29041
2.39126
2.44742
2.37728
1.83919
1.51161
1.45934
1.39398
1.27752
1.14743
1.02037
0.896984
0.787186
0.681892
0.550673
0.376111
0.243427
0.208751
0.209526
0.215284
0.222367
0.233072
0.249146
0.271229
0.294089
0.316988
0.340792
0.357572
0.326846
0.110655
0.116694
0.198891
0.220446
0.241778
0.26592
0.305759
2.3593
2.38541
2.41841
2.41774
2.43916
2.49446
2.47376
2.33873
1.76563
1.50818
1.44092
1.36801
1.25197
1.13175
1.01904
0.90543
0.794495
0.685363
0.550387
0.373299
0.243584
0.211185
0.211996
0.217641
0.224749
0.235464
0.251498
0.273381
0.296152
0.318897
0.342694
0.359383
0.328764
0.115764
0.12038
0.200869
0.222193
0.243834
0.265165
0.301201
2.51867
2.53284
2.55077
2.54034
2.54215
2.514
2.39676
2.13392
1.62401
1.44276
1.35596
1.27191
1.16814
1.07191
0.978688
0.877722
0.775261
0.670508
0.535161
0.361491
0.24486
0.218102
0.219087
0.224314
0.231429
0.24225
0.258241
0.279571
0.30208
0.324395
0.34816
0.364623
0.334451
0.129587
0.130341
0.20603
0.226699
0.249014
0.270049
0.303088
2.48902
2.47655
2.4679
2.47489
2.50136
2.41881
2.28263
1.95136
1.60991
1.40436
1.26891
1.16974
1.08369
1.0104
0.931098
0.841001
0.748816
0.6487
0.512035
0.345657
0.248213
0.228356
0.229591
0.234297
0.241366
0.25225
0.268201
0.288776
0.310903
0.332589
0.356256
0.372391
0.342875
0.14828
0.144778
0.213976
0.234591
0.256283
0.278464
0.309048
2.3787
2.38462
2.39827
2.41949
2.41491
2.27016
2.10847
1.82022
1.51454
1.29715
1.16922
1.08765
1.01986
0.958368
0.885286
0.803818
0.719873
0.62164
0.482628
0.329726
0.255204
0.24177
0.242991
0.247099
0.254068
0.26492
0.280776
0.300419
0.32205
0.342951
0.366426
0.382137
0.353372
0.169617
0.163268
0.225823
0.246746
0.266656
0.289773
0.318168
2.23936
2.24301
2.24121
2.23799
2.17463
2.03661
1.84058
1.58427
1.3329
1.16216
1.08167
1.02121
0.971577
0.912517
0.840491
0.765317
0.687317
0.588285
0.447686
0.316139
0.265195
0.257222
0.258388
0.262117
0.269116
0.279997
0.295832
0.314537
0.335699
0.355821
0.379112
0.39446
0.36673
0.193562
0.182124
0.237231
0.258195
0.275431
0.298811
0.32504
2.02764
2.02331
1.99444
1.94043
1.85101
1.72411
1.53692
1.31443
1.12446
1.05029
1.01474
0.980392
0.934053
0.866914
0.796827
0.7285
0.654024
0.550736
0.412726
0.311168
0.280017
0.275115
0.275609
0.278869
0.28575
0.29645
0.312056
0.329596
0.350086
0.369224
0.392083
0.406797
0.37975
0.216496
0.204735
0.254426
0.275943
0.290898
0.314496
0.338891
1.73897
1.72122
1.6704
1.60212
1.51126
1.37942
1.20458
1.04709
1.00465
1.00627
0.984216
0.946443
0.884577
0.818499
0.754888
0.692792
0.61754
0.506816
0.380709
0.312937
0.296265
0.293465
0.293721
0.297024
0.30417
0.315016
0.330701
0.347376
0.367484
0.385911
0.408502
0.422847
0.39704
0.242525
0.225099
0.268343
0.29002
0.302398
0.325996
0.348546
1.39646
1.36684
1.31619
1.2458
1.14856
1.03845
0.967454
0.979833
1.00166
0.988933
0.951366
0.896479
0.83565
0.775307
0.719126
0.65977
0.57777
0.46223
0.363323
0.325076
0.315555
0.312621
0.312093
0.31522
0.322343
0.33297
0.348396
0.363887
0.383339
0.400843
0.422923
0.436594
0.411567
0.265464
0.247913
0.286726
0.308524
0.318669
0.342074
0.362911
1.01667
0.992625
0.958271
0.928269
0.913505
0.942352
0.987617
1.00357
0.991085
0.952723
0.902612
0.846608
0.788824
0.735756
0.685004
0.622253
0.529085
0.420537
0.357483
0.338944
0.333757
0.330994
0.330646
0.334325
0.341992
0.352842
0.368409
0.383204
0.402279
0.419127
0.440763
0.453866
0.429944
0.290577
0.268467
0.302441
0.324555
0.332825
0.356229
0.37552
0.755238
0.796754
0.830477
0.884506
0.944984
0.990603
1.00295
0.988786
0.953294
0.907648
0.855226
0.800258
0.749776
0.703486
0.65193
0.579156
0.480974
0.400583
0.368053
0.357532
0.352282
0.348875
0.348602
0.352556
0.360458
0.37117
0.386551
0.400443
0.418883
0.434934
0.455923
0.468248
0.445152
0.313507
0.292028
0.322356
0.344039
0.350343
0.373183
0.390655
0.746604
0.788273
0.841133
0.895304
0.94273
0.977529
0.978679
0.95459
0.912867
0.862579
0.809467
0.7589
0.714518
0.669267
0.611157
0.528805
0.442817
0.395195
0.379948
0.374311
0.370364
0.368013
0.368931
0.373838
0.382473
0.393392
0.408887
0.422305
0.440223
0.45561
0.475893
0.487497
0.465548
0.3391
0.311838
0.337135
0.35829
0.362531
0.385163
0.401459
0.734371
0.761233
0.812476
0.860223
0.909916
0.943361
0.943123
0.913305
0.867597
0.815971
0.768207
0.726425
0.686025
0.63623
0.564314
0.476763
0.422202
0.404878
0.395765
0.388531
0.382858
0.3794
0.379648
0.384222
0.392682
0.403107
0.418205
0.430976
0.448086
0.462706
0.482439
0.493076
0.471081
0.346794
0.318096
0.343245
0.368031
0.375044
0.399419
0.415606
0.714154
0.730845
0.779541
0.82164
0.866193
0.899478
0.899816
0.868201
0.822828
0.773138
0.727995
0.683814
0.630071
0.559867
0.491438
0.443525
0.409361
0.387636
0.374174
0.363484
0.354213
0.347489
0.344989
0.347317
0.35432
0.363486
0.378537
0.390768
0.407631
0.422469
0.443213
0.453771
0.42936
0.295973
0.267301
0.306677
0.344516
0.367144
0.401906
0.424023
0.688185
0.69595
0.736444
0.770812
0.805742
0.833785
0.831278
0.797114
0.75124
0.697507
0.643283
0.585382
0.522604
0.449519
0.368382
0.305311
0.266733
0.237754
0.214854
0.196838
0.183442
0.176359
0.177688
0.187046
0.202524
0.220108
0.24249
0.262301
0.284818
0.306855
0.331505
0.345154
0.315365
0.156016
0.110259
0.186751
0.251367
0.313542
0.380836
0.426886
0.658785
0.654734
0.670132
0.680144
0.682553
0.681329
0.667818
0.622178
0.561304
0.492324
0.42063
0.340556
0.254372
0.174641
0.113857
0.0715061
0.0454606
0.0403208
0.0569136
0.0782332
0.0994146
0.122052
0.145343
0.168702
0.191747
0.215786
0.238116
0.261553
0.283297
0.306873
0.328132
0.34229
0.315113
0.176632
0.0334024
0.0750472
0.152164
0.228857
0.327628
0.400962
0.624186
0.588571
0.548263
0.502793
0.451964
0.407647
0.390899
0.368223
0.321847
0.265182
0.200673
0.140187
0.094998
0.0682385
0.0517544
0.0505305
0.0660564
0.0881777
0.11065
0.130663
0.149639
0.16939
0.188569
0.207474
0.225385
0.246405
0.264534
0.285855
0.304965
0.326643
0.345041
0.359713
0.34143
0.240874
0.111715
0.0380972
0.112759
0.195048
0.308054
0.372248
0.599101
0.536747
0.466262
0.408072
0.33936
0.295506
0.291821
0.291821
0.260068
0.22023
0.180431
0.15374
0.13199
0.112628
0.0959039
0.0905533
0.0976647
0.113871
0.132767
0.150461
0.167674
0.18601
0.204769
0.223827
0.241663
0.26315
0.281193
0.302655
0.321908
0.343412
0.36124
0.378258
0.367943
0.296677
0.185993
0.120826
0.176226
0.233038
0.32325
0.358408
0.615148
0.569545
0.456166
0.356821
0.270683
0.226825
0.231426
0.239505
0.22285
0.20316
0.181607
0.165966
0.14884
0.135579
0.126335
0.127292
0.136115
0.149511
0.163105
0.174192
0.185858
0.202024
0.220214
0.237479
0.252603
0.271789
0.287386
0.307067
0.324822
0.34495
0.36107
0.378899
0.380029
0.343233
0.260942
0.209124
0.234567
0.318403
0.444011
0.46797
0.905668
0.705016
0.528018
0.399636
0.3162
0.27154
0.279023
0.280155
0.26303
0.244717
0.221051
0.202136
0.18263
0.168699
0.159508
0.158662
0.164187
0.173532
0.183563
0.193119
0.206122
0.222935
0.24089
0.25814
0.273139
0.292372
0.307714
0.326966
0.344433
0.364046
0.379781
0.397853
0.405975
0.395657
0.349933
0.318144
0.323571
0.441622
0.61831
0.822641
2.21192
0.997466
0.517988
0.40054
0.331173
0.283498
0.294288
0.297009
0.281705
0.267903
0.246385
0.229637
0.212508
0.202144
0.198173
0.20092
0.208333
0.217861
0.227231
0.236365
0.249226
0.262122
0.27447
0.287573
0.299407
0.316377
0.329355
0.346538
0.362158
0.379951
0.394056
0.411053
0.422519
0.430325
0.415609
0.38194
0.361755
0.465838
0.805913
2.05716
2.21192
0.997466
0.517988
0.40054
0.331173
0.283498
0.294288
0.297009
0.281705
0.267903
0.246385
0.229637
0.212508
0.202144
0.198173
0.20092
0.208333
0.217861
0.227231
0.236365
0.249226
0.262122
0.27447
0.287573
0.299407
0.316377
0.329355
0.346538
0.362158
0.379951
0.394056
0.411053
0.422519
0.430325
0.415609
0.38194
0.361755
0.465838
0.805913
2.05716
0.905668
0.705016
0.528018
0.399636
0.3162
0.27154
0.279023
0.280155
0.26303
0.244717
0.221051
0.202136
0.18263
0.168699
0.159508
0.158662
0.164187
0.173532
0.183563
0.193119
0.206122
0.222935
0.24089
0.25814
0.273139
0.292372
0.307714
0.326966
0.344433
0.364046
0.379781
0.397853
0.405975
0.395657
0.349933
0.318144
0.323571
0.441622
0.61831
0.822641
0.615148
0.569545
0.456166
0.356821
0.270683
0.226825
0.231426
0.239505
0.22285
0.20316
0.181607
0.165966
0.14884
0.135579
0.126335
0.127292
0.136115
0.149511
0.163105
0.174192
0.185858
0.202024
0.220214
0.237479
0.252603
0.271789
0.287386
0.307067
0.324822
0.34495
0.36107
0.378899
0.380029
0.343233
0.260942
0.209124
0.234567
0.318403
0.444011
0.46797
0.599101
0.536747
0.466262
0.408072
0.33936
0.295506
0.291821
0.291821
0.260068
0.22023
0.180431
0.15374
0.13199
0.112628
0.0959039
0.0905533
0.0976647
0.113871
0.132767
0.150461
0.167674
0.18601
0.204769
0.223827
0.241663
0.26315
0.281193
0.302655
0.321908
0.343412
0.36124
0.378258
0.367943
0.296677
0.185993
0.120826
0.176226
0.233038
0.32325
0.358408
0.624186
0.588571
0.548263
0.502793
0.451964
0.407647
0.390899
0.368223
0.321847
0.265182
0.200673
0.140187
0.094998
0.0682385
0.0517544
0.0505305
0.0660564
0.0881777
0.11065
0.130663
0.149639
0.16939
0.188569
0.207474
0.225385
0.246405
0.264534
0.285855
0.304965
0.326643
0.345041
0.359713
0.34143
0.240874
0.111715
0.0380972
0.112759
0.195048
0.308054
0.372248
0.658785
0.654734
0.670132
0.680144
0.682553
0.681329
0.667818
0.622178
0.561304
0.492324
0.42063
0.340556
0.254372
0.174641
0.113857
0.0715061
0.0454606
0.0403208
0.0569136
0.0782332
0.0994146
0.122052
0.145343
0.168702
0.191747
0.215786
0.238116
0.261553
0.283297
0.306873
0.328132
0.34229
0.315113
0.176632
0.0334024
0.0750472
0.152164
0.228857
0.327628
0.400962
0.688185
0.69595
0.736444
0.770812
0.805742
0.833785
0.831278
0.797114
0.75124
0.697507
0.643283
0.585382
0.522604
0.449519
0.368382
0.305311
0.266733
0.237754
0.214854
0.196838
0.183442
0.176359
0.177688
0.187046
0.202524
0.220108
0.24249
0.262301
0.284818
0.306855
0.331505
0.345154
0.315365
0.156016
0.110259
0.186751
0.251367
0.313542
0.380836
0.426886
0.714154
0.730845
0.779541
0.82164
0.866193
0.899478
0.899816
0.868201
0.822828
0.773138
0.727995
0.683814
0.630071
0.559867
0.491438
0.443525
0.409361
0.387636
0.374174
0.363484
0.354213
0.347489
0.344989
0.347317
0.35432
0.363486
0.378537
0.390768
0.407631
0.422469
0.443213
0.453771
0.42936
0.295973
0.267301
0.306677
0.344516
0.367144
0.401906
0.424023
0.734371
0.761233
0.812476
0.860223
0.909916
0.943361
0.943123
0.913305
0.867597
0.815971
0.768207
0.726425
0.686025
0.63623
0.564314
0.476763
0.422202
0.404878
0.395765
0.388531
0.382858
0.3794
0.379648
0.384222
0.392682
0.403107
0.418205
0.430976
0.448086
0.462706
0.482439
0.493076
0.471081
0.346794
0.318096
0.343245
0.368031
0.375044
0.399419
0.415606
0.746604
0.788273
0.841133
0.895304
0.94273
0.977529
0.978679
0.95459
0.912867
0.862579
0.809467
0.7589
0.714518
0.669267
0.611157
0.528805
0.442817
0.395195
0.379948
0.374311
0.370364
0.368013
0.368931
0.373838
0.382473
0.393392
0.408887
0.422305
0.440223
0.45561
0.475893
0.487497
0.465548
0.3391
0.311838
0.337135
0.35829
0.362531
0.385163
0.401459
0.755238
0.796754
0.830477
0.884506
0.944984
0.990603
1.00295
0.988786
0.953294
0.907648
0.855226
0.800258
0.749776
0.703486
0.65193
0.579156
0.480974
0.400583
0.368053
0.357532
0.352282
0.348875
0.348602
0.352556
0.360458
0.37117
0.386551
0.400443
0.418883
0.434934
0.455923
0.468248
0.445152
0.313507
0.292028
0.322356
0.344039
0.350343
0.373183
0.390655
1.01667
0.992625
0.958271
0.928269
0.913505
0.942352
0.987617
1.00357
0.991085
0.952723
0.902612
0.846608
0.788824
0.735756
0.685004
0.622253
0.529085
0.420537
0.357483
0.338944
0.333757
0.330994
0.330646
0.334325
0.341992
0.352842
0.368409
0.383204
0.402279
0.419127
0.440763
0.453866
0.429944
0.290577
0.268467
0.302441
0.324555
0.332825
0.356229
0.37552
1.39646
1.36684
1.31619
1.2458
1.14856
1.03845
0.967454
0.979833
1.00166
0.988933
0.951366
0.896479
0.83565
0.775307
0.719126
0.65977
0.57777
0.46223
0.363323
0.325076
0.315555
0.312621
0.312093
0.31522
0.322343
0.33297
0.348396
0.363887
0.383339
0.400843
0.422923
0.436594
0.411567
0.265464
0.247913
0.286726
0.308524
0.318669
0.342074
0.362911
1.73897
1.72122
1.6704
1.60212
1.51126
1.37942
1.20458
1.04709
1.00465
1.00627
0.984216
0.946443
0.884577
0.818499
0.754888
0.692792
0.61754
0.506816
0.380709
0.312937
0.296265
0.293465
0.293721
0.297024
0.30417
0.315016
0.330701
0.347376
0.367484
0.385911
0.408502
0.422847
0.39704
0.242525
0.225099
0.268343
0.29002
0.302398
0.325996
0.348546
2.02764
2.02331
1.99444
1.94043
1.85101
1.72411
1.53692
1.31443
1.12446
1.05029
1.01474
0.980392
0.934053
0.866914
0.796827
0.7285
0.654024
0.550736
0.412726
0.311168
0.280017
0.275115
0.275609
0.278869
0.28575
0.29645
0.312056
0.329596
0.350086
0.369224
0.392083
0.406797
0.37975
0.216496
0.204735
0.254426
0.275943
0.290898
0.314496
0.338891
2.23936
2.24301
2.24121
2.23799
2.17463
2.03661
1.84058
1.58427
1.3329
1.16216
1.08167
1.02121
0.971577
0.912517
0.840491
0.765317
0.687317
0.588285
0.447686
0.316139
0.265195
0.257222
0.258388
0.262117
0.269116
0.279997
0.295832
0.314537
0.335699
0.355821
0.379112
0.39446
0.36673
0.193562
0.182124
0.237231
0.258195
0.275431
0.298811
0.32504
2.3787
2.38462
2.39827
2.41949
2.41491
2.27016
2.10847
1.82022
1.51454
1.29715
1.16922
1.08765
1.01986
0.958368
0.885286
0.803818
0.719873
0.62164
0.482628
0.329726
0.255204
0.24177
0.242991
0.247099
0.254068
0.26492
0.280776
0.300419
0.32205
0.342951
0.366426
0.382137
0.353372
0.169617
0.163268
0.225823
0.246746
0.266656
0.289773
0.318168
2.48902
2.47655
2.4679
2.47489
2.50136
2.41881
2.28263
1.95136
1.60991
1.40436
1.26891
1.16974
1.08369
1.0104
0.931098
0.841001
0.748816
0.6487
0.512035
0.345657
0.248213
0.228356
0.229591
0.234297
0.241366
0.25225
0.268201
0.288776
0.310903
0.332589
0.356256
0.372391
0.342875
0.14828
0.144778
0.213976
0.234591
0.256283
0.278464
0.309048
2.51867
2.53284
2.55077
2.54034
2.54215
2.514
2.39676
2.13392
1.62401
1.44276
1.35596
1.27191
1.16814
1.07191
0.978688
0.877722
0.775261
0.670508
0.535161
0.361491
0.24486
0.218102
0.219087
0.224314
0.231429
0.24225
0.258241
0.279571
0.30208
0.324395
0.34816
0.364623
0.334451
0.129587
0.130341
0.20603
0.226699
0.249014
0.270049
0.303088
2.3593
2.38541
2.41841
2.41774
2.43916
2.49446
2.47376
2.33873
1.76563
1.50818
1.44092
1.36801
1.25197
1.13175
1.01904
0.90543
0.794495
0.685363
0.550387
0.373299
0.243584
0.211185
0.211996
0.217641
0.224749
0.235464
0.251498
0.273381
0.296152
0.318897
0.342694
0.359383
0.328764
0.115764
0.12038
0.200869
0.222193
0.243834
0.265165
0.301201
)
;

boundaryField
{
    inlet
    {
        type            calculated;
        value           uniform 0;
    }
    outlet
    {
        type            calculated;
        value           nonuniform List<scalar> 
165
(
2.3593
2.51867
2.48902
2.3787
2.23936
2.02764
1.73897
1.39646
1.01667
0.755238
0.746604
0.734371
0.714154
0.688185
0.658785
0.624186
0.599101
0.615148
0.905668
2.21192
2.21192
0.997466
0.517988
0.40054
0.331173
0.283498
0.294288
0.297009
0.281705
0.267903
0.246385
0.229637
0.212508
0.202144
0.198173
0.20092
0.208333
0.217861
0.227231
0.236365
0.249226
0.262122
0.27447
0.287573
0.299407
0.316377
0.329355
0.346538
0.362158
0.379951
0.394056
0.411053
0.422519
0.430325
0.415609
0.38194
0.361755
0.465838
0.805913
2.05716
0.301201
0.303088
0.309048
0.318168
0.32504
0.338891
0.348546
0.362911
0.37552
0.390655
0.401459
0.415606
0.424023
0.426886
0.400962
0.372248
0.358408
0.46797
0.822641
2.05716
0.305759
0.307224
0.305918
0.307224
0.305759
2.05716
0.822641
0.46797
0.358408
0.372248
0.400962
0.426886
0.424023
0.415606
0.401459
0.390655
0.37552
0.362911
0.348546
0.338891
0.32504
0.318168
0.309048
0.303088
0.301201
2.21192
0.997466
0.517988
0.40054
0.331173
0.283498
0.294288
0.297009
0.281705
0.267903
0.246385
0.229637
0.212508
0.202144
0.198173
0.20092
0.208333
0.217861
0.227231
0.236365
0.249226
0.262122
0.27447
0.287573
0.299407
0.316377
0.329355
0.346538
0.362158
0.379951
0.394056
0.411053
0.422519
0.430325
0.415609
0.38194
0.361755
0.465838
0.805913
2.05716
2.21192
0.905668
0.615148
0.599101
0.624186
0.658785
0.688185
0.714154
0.734371
0.746604
0.755238
1.01667
1.39646
1.73897
2.02764
2.23936
2.3787
2.48902
2.51867
2.3593
)
;
    }
    obstacle
    {
        type            calculated;
        value           nonuniform List<scalar> 
40
(
0.52024
0.0195397
0.107876
0.104059
0.104947
0.102507
0.100719
0.099558
0.0995937
0.0905831
0.52024
0.0195397
0.107876
0.104059
0.104947
0.102507
0.100719
0.099558
0.0995937
0.0905831
0.0990687
0.137393
0.190748
0.277802
0.423817
0.0990687
0.137393
0.190748
0.277802
0.423817
0.937926
1.33954
1.60673
1.78605
1.96058
0.937926
1.33954
1.60673
1.78605
1.96058
)
;
    }
    empty
    {
        type            empty;
    }
}


// ************************************************************************* //
