/*--------------------------------*- C++ -*----------------------------------*\
| =========                 |                                                 |
| \\      /  F ield         | OpenFOAM: The Open Source CFD Toolbox           |
|  \\    /   O peration     | Version:  v1912                                 |
|   \\  /    A nd           | Website:  www.openfoam.com                      |
|    \\/     M anipulation  |                                                 |
\*---------------------------------------------------------------------------*/
FoamFile
{
    version     2.0;
    format      ascii;
    class       volTensorField;
    location    "6.04";
    object      grad(U);
}
// * * * * * * * * * * * * * * * * * * * * * * * * * * * * * * * * * * * * * //

dimensions      [0 0 -1 0 0 0 0];


internalField   nonuniform List<tensor> 
1900
(
(-4.51674 -1.97385e-05 0 3.74612e-06 -6.15508e-06 0 0 0 0)
(4.6016 -3.81928e-05 0 1.21098e-05 -4.81901e-05 0 0 0 0)
(0.738324 -2.08393e-05 0 -1.50056e-05 -7.05921e-05 0 0 0 0)
(0.0181552 8.10439e-05 0 3.63412e-05 -4.16657e-05 0 0 0 0)
(0.0479006 -0.000554472 0 0.0002049 0.000127916 0 0 0 0)
(0.0432361 -0.00147858 0 0.00042577 -0.000914716 0 0 0 0)
(0.0339707 0.00305074 0 -0.00191019 -0.00198993 0 0 0 0)
(0.0144226 0.018713 0 -0.00349429 0.00440544 0 0 0 0)
(-0.0412393 0.0602764 0 0.00712407 0.0291777 0 0 0 0)
(-0.0338223 0.210948 0 0.05665 0.119328 0 0 0 0)
(-4.51672 -3.46067e-05 0 3.13462e-06 3.16266e-06 0 0 0 0)
(4.60158 -2.62443e-05 0 1.64222e-05 1.65758e-05 0 0 0 0)
(0.738349 2.73637e-05 0 -2.4013e-05 4.13554e-05 0 0 0 0)
(0.0183751 0.000117464 0 4.37735e-05 3.74152e-05 0 0 0 0)
(0.0482901 -0.000318578 0 0.000188418 -3.96885e-05 0 0 0 0)
(0.041121 -0.000639263 0 0.000251301 0.000591887 0 0 0 0)
(0.0300506 0.00226942 0 -0.00292132 0.00143889 0 0 0 0)
(0.0234569 0.0124546 0 -0.00353052 -0.00245885 0 0 0 0)
(0.018905 0.0546463 0 0.00975079 -0.0172741 0 0 0 0)
(0.0894591 0.146423 0 0.0902414 -0.0627352 0 0 0 0)
(-4.51672 -1.93208e-12 0 -3.69713e-13 5.98484e-06 0 0 0 0)
(4.60157 -3.1451e-13 0 -1.1151e-12 6.32285e-05 0 0 0 0)
(0.738352 1.03249e-12 0 -9.73071e-13 5.84734e-05 0 0 0 0)
(0.0183676 1.59272e-12 0 -4.20264e-13 8.5011e-06 0 0 0 0)
(0.0481082 1.35093e-12 0 1.13706e-13 -0.000176454 0 0 0 0)
(0.0401263 -3.66537e-13 0 9.21165e-13 0.000645658 0 0 0 0)
(0.0301888 -8.45091e-13 0 1.01698e-12 0.00110207 0 0 0 0)
(0.0270947 -1.59263e-13 0 6.72205e-14 -0.00389318 0 0 0 0)
(0.0525326 2.53595e-15 0 -3.72694e-13 -0.0238072 0 0 0 0)
(0.14593 -4.48799e-13 0 3.63208e-14 -0.113186 0 0 0 0)
(-4.51672 3.46067e-05 0 -3.13462e-06 3.16266e-06 0 0 0 0)
(4.60158 2.62443e-05 0 -1.64222e-05 1.65758e-05 0 0 0 0)
(0.738349 -2.73637e-05 0 2.4013e-05 4.13554e-05 0 0 0 0)
(0.0183751 -0.000117464 0 -4.37735e-05 3.74152e-05 0 0 0 0)
(0.0482901 0.000318578 0 -0.000188418 -3.96885e-05 0 0 0 0)
(0.041121 0.000639263 0 -0.000251301 0.000591887 0 0 0 0)
(0.0300506 -0.00226942 0 0.00292132 0.00143889 0 0 0 0)
(0.0234569 -0.0124546 0 0.00353052 -0.00245885 0 0 0 0)
(0.018905 -0.0546463 0 -0.00975079 -0.0172741 0 0 0 0)
(0.0894591 -0.146423 0 -0.0902414 -0.0627352 0 0 0 0)
(-4.51674 1.97385e-05 0 -3.74611e-06 -6.15508e-06 0 0 0 0)
(4.6016 3.81928e-05 0 -1.21098e-05 -4.81901e-05 0 0 0 0)
(0.738324 2.08393e-05 0 1.50056e-05 -7.05921e-05 0 0 0 0)
(0.0181552 -8.10439e-05 0 -3.63412e-05 -4.16657e-05 0 0 0 0)
(0.0479006 0.000554472 0 -0.0002049 0.000127916 0 0 0 0)
(0.0432361 0.00147858 0 -0.00042577 -0.000914716 0 0 0 0)
(0.0339707 -0.00305074 0 0.00191019 -0.00198993 0 0 0 0)
(0.0144226 -0.018713 0 0.00349429 0.00440544 0 0 0 0)
(-0.0412393 -0.0602764 0 -0.00712407 0.0291777 0 0 0 0)
(-0.0338223 -0.210948 0 -0.05665 0.119328 0 0 0 0)
(0.15914 0.409241 -1.99468e-17 0.2354 -0.22709 2.99201e-17 5.82353e-17 7.35201e-17 -5.40658e-33)
(0.504643 0.545571 0 0.289394 -0.448587 0 -1.5797e-16 -4.73525e-17 0)
(0.78047 0.966943 0 0.292299 -0.786631 0 -2.57797e-16 -8.31865e-17 0)
(1.45952 1.56059 0 0.333323 -1.40531 0 0 0 0)
(2.81014 1.77116 2.6069e-16 1.12955 -3.42044 -3.91035e-16 -2.24158e-15 -1.49439e-15 -7.06602e-32)
(0.231926 0.158334 0 0.183465 -0.210528 0 1.00772e-16 3.24849e-17 0)
(0.415527 0.157995 0 0.155978 -0.338278 0 1.5797e-16 4.73525e-17 0)
(0.736265 0.409072 0 0.064281 -0.615616 0 2.57797e-16 8.31865e-17 0)
(1.64751 0.864564 0 -0.0453361 -1.32022 0 0 0 0)
(3.69201 0.564132 0 -0.136974 -3.05298 0 0 0 0)
(0.292999 -4.60095e-13 0 -1.22022e-13 -0.298034 0 0 0 0)
(0.442372 1.15524e-13 0 -6.15213e-14 -0.371644 0 0 0 0)
(0.724167 4.06329e-13 0 3.99047e-14 -0.610192 0 0 0 0)
(1.55758 3.09777e-13 0 1.40659e-13 -1.33513 0 0 0 0)
(3.47009 1.49366e-13 0 7.67977e-13 -3.59309 0 0 0 0)
(0.231926 -0.158334 0 -0.183465 -0.210528 0 1.00772e-16 -3.24849e-17 0)
(0.415527 -0.157995 0 -0.155978 -0.338278 0 1.5797e-16 -4.73525e-17 0)
(0.736265 -0.409072 0 -0.064281 -0.615616 0 2.57797e-16 -8.31865e-17 0)
(1.64751 -0.864564 0 0.0453361 -1.32022 0 0 0 0)
(3.69201 -0.564132 0 0.136974 -3.05298 0 0 0 0)
(0.15914 -0.409241 1.99468e-17 -0.2354 -0.22709 2.99201e-17 -2.5978e-16 1.3849e-16 -5.40658e-33)
(0.504643 -0.545571 0 -0.289394 -0.448587 0 -1.5797e-16 4.73525e-17 0)
(0.78047 -0.966943 0 -0.292299 -0.786631 0 -2.57797e-16 8.31865e-17 0)
(1.45952 -1.56059 9.06705e-17 -0.333323 -1.40531 1.36006e-16 -9.19702e-16 6.13135e-16 -2.45763e-32)
(2.81014 -1.77116 -2.6069e-16 -1.12955 -3.42044 -3.91035e-16 2.24158e-15 -1.49439e-15 -7.06602e-32)
(4.50064 -0.768607 -1.80204e-17 0.0632376 4.35507 -1.62184e-16 2.27436e-15 -1.21335e-16 4.88444e-33)
(2.43753 -0.263608 9.95418e-18 0.455829 2.96661 8.95876e-17 -2.64621e-15 2.03153e-16 2.69808e-33)
(0.421381 -0.0202419 0 0.790915 2.33963 0 0 0 0)
(-0.64862 0.15831 -3.70907e-18 0.582982 1.68576 -3.33817e-17 2.16868e-15 -1.88244e-16 1.00535e-33)
(0.0381519 -0.24897 3.84644e-18 0.511645 1.58908 3.46179e-17 -9.13414e-16 1.0149e-16 1.04258e-33)
(4.57418 -0.944803 0 -0.603756 -0.596613 0 -1.13813e-15 -4.91278e-18 0)
(2.72288 -0.20356 0 0.176395 0.940697 0 1.32997e-15 -5.69043e-17 0)
(0.525748 0.00250753 0 0.516029 1.37842 0 0 0 0)
(-0.693812 0.110799 0 0.321944 1.42985 0 -1.36882e-15 7.51557e-17 0)
(-0.0500829 -0.0842795 0 0.28422 1.11022 0 2.34346e-16 -5.0491e-18 0)
(4.5656 -5.67135e-14 0 2.19031e-14 0.866976 0 0 0 0)
(2.71037 -1.2634e-13 0 1.29734e-13 1.89752 0 0 0 0)
(0.419506 1.65477e-13 0 1.68654e-13 2.01307 0 0 0 0)
(-0.749185 -1.67462e-13 0 7.08629e-15 1.705 0 5.51406e-16 1.23204e-29 0)
(-0.155663 2.28087e-12 0 -3.99443e-13 1.34121 0 -4.68691e-16 6.29611e-30 0)
(4.57418 0.944803 0 0.603756 -0.596613 0 -1.13813e-15 4.91278e-18 0)
(2.72288 0.20356 0 -0.176395 0.940697 0 1.32997e-15 5.69043e-17 0)
(0.525748 -0.00250753 0 -0.516029 1.37842 0 0 0 0)
(-0.693812 -0.110799 0 -0.321944 1.42985 0 -1.36882e-15 -7.51557e-17 0)
(-0.0500829 0.0842795 0 -0.28422 1.11022 0 2.34346e-16 5.0491e-18 0)
(4.50064 0.768607 0 -0.0632376 4.35507 0 1.13813e-15 -4.91278e-18 0)
(2.43753 0.263608 -9.95418e-18 -0.455829 2.96661 8.95876e-17 -1.37281e-17 8.93447e-17 2.69808e-33)
(0.421381 0.0202419 0 -0.790915 2.33963 0 0 0 0)
(-0.64862 -0.15831 3.70907e-18 -0.582982 1.68576 -3.33817e-17 1.75575e-17 -5.07696e-17 1.00535e-33)
(0.0381519 0.24897 -3.84644e-18 -0.511645 1.58908 3.46179e-17 9.13414e-16 1.0149e-16 1.04258e-33)
(0.782892 -0.63451 0 0.538038 2.49195 0 0 0 0)
(0.41723 0.292144 0 1.31127 2.03224 0 0 0 0)
(-0.495372 0.746267 0 1.50086 1.06769 0 0 0 0)
(-1.78055 0.155846 0 1.61654 0.844627 0 0 0 0)
(-1.95372 -0.250689 0 1.09906 1.02854 0 0 0 0)
(-1.23851 -0.237034 0 1.15893 1.40599 0 0 0 0)
(-1.15944 -0.0117021 0 1.12682 1.46171 0 0 0 0)
(-0.951727 0.24068 0 0.65657 1.11342 0 0 0 0)
(-0.795591 0.233298 0 0.288601 0.738769 0 0 0 0)
(-0.719539 0.135012 0 0.114735 0.477191 0 0 0 0)
(-0.52911 0.0645411 0 0.0474249 0.334584 0 0 0 0)
(-0.258194 0.0282978 0 0.0184456 0.267282 0 0 0 0)
(-0.0859825 0.0124128 0 0.0067044 0.238626 0 0 0 0)
(-0.0296821 0.00617029 0 0.00311744 0.224724 0 0 0 0)
(-0.0130977 0.00594898 0 0.00528362 0.215127 0 0 0 0)
(0.00687625 0.00601936 0 0.0033168 0.204562 0 0 0 0)
(0.0451217 0.00320338 0 -8.91468e-05 0.196854 0 0 0 0)
(0.0937731 0.00102962 0 -0.00104046 0.193446 0 0 0 0)
(0.131947 9.85057e-05 0 -0.000930153 0.192467 0 0 0 0)
(0.15145 -1.71675e-05 0 -0.000433411 0.192674 0 0 0 0)
(0.158986 0.000311986 0 0.000163588 0.192426 0 0 0 0)
(0.161997 0.00040135 0 0.000723884 0.191582 0 0 0 0)
(0.163838 0.000259432 0 0.00120578 0.191033 0 0 0 0)
(0.16548 0.000182725 0 0.00162919 0.190675 0 0 0 0)
(0.166949 0.000176612 0 0.00202201 0.19039 0 0 0 0)
(0.167104 3.26934e-05 0 0.00239065 0.190054 0 0 0 0)
(0.167813 0.00032483 0 0.00276064 0.190269 0 0 0 0)
(0.165826 -6.95532e-05 0 0.00303949 0.188928 0 0 0 0)
(0.160788 6.02812e-05 0 0.00332873 0.190492 0 0 0 0)
(0.157632 -0.00023017 0 0.00350722 0.188745 0 0 0 0)
(0.153942 0.000137679 0 0.00366907 0.191256 0 0 0 0)
(0.149941 -0.00103602 0 0.00371087 0.188301 0 0 0 0)
(0.142692 0.000743501 0 0.00369461 0.19459 0 0 0 0)
(0.130041 -0.00159446 0 0.00309909 0.18612 0 0 0 0)
(0.0997231 6.16665e-05 0 0.00279462 0.199464 0 0 0 0)
(0.0759885 -0.00120012 0 -0.00150726 0.186419 0 0 0 0)
(0.0783124 -0.00480577 0 0.00219665 0.204965 0 0 0 0)
(0.0854062 -0.00159663 0 0.00137724 0.200627 0 0 0 0)
(-0.653798 -0.00781945 0 -0.00912839 0.201617 0 0 0 0)
(-0.698658 -0.00550716 0 -0.0273621 0.207275 0 0 0 0)
(0.854102 -0.305885 0 -0.134232 2.35153 0 0 0 0)
(0.507546 0.125046 0 0.252165 2.95412 0 0 0 0)
(-0.583615 0.413992 0 0.204131 1.34729 0 0 0 0)
(-1.8364 0.0677718 0 0.200278 0.388824 0 0 0 0)
(-1.93878 -0.127899 0 0.151477 0.811567 0 0 0 0)
(-1.19077 -0.107557 0 0.184863 1.25057 0 0 0 0)
(-1.18242 -0.00625397 0 0.25162 1.62637 0 0 0 0)
(-1.05209 0.120332 0 0.148338 1.29079 0 0 0 0)
(-0.874699 0.112147 0 0.0896461 0.799031 0 0 0 0)
(-0.757017 0.0627932 0 0.0581638 0.488834 0 0 0 0)
(-0.541998 0.0318381 0 0.0200789 0.334927 0 0 0 0)
(-0.261587 0.0144178 0 -0.000209815 0.266974 0 0 0 0)
(-0.0864904 0.00618084 0 -0.0045299 0.237653 0 0 0 0)
(-0.0290369 0.00291211 0 -0.0042018 0.224305 0 0 0 0)
(-0.0127808 0.00303856 0 -0.00211003 0.216443 0 0 0 0)
(0.00650782 0.00310184 0 -0.00214355 0.203856 0 0 0 0)
(0.0452301 0.00150212 0 -0.00289171 0.195751 0 0 0 0)
(0.0941966 0.000467005 0 -0.00220228 0.192844 0 0 0 0)
(0.132337 2.49577e-05 0 -0.00143934 0.192212 0 0 0 0)
(0.151841 -9.90013e-06 0 -0.000653578 0.192505 0 0 0 0)
(0.15938 0.000156451 0 0.000164186 0.192271 0 0 0 0)
(0.162374 0.000199431 0 0.000954064 0.191433 0 0 0 0)
(0.164191 0.000127079 0 0.00169205 0.190892 0 0 0 0)
(0.165812 8.81511e-05 0 0.00238961 0.190541 0 0 0 0)
(0.167264 8.50802e-05 0 0.00306449 0.190263 0 0 0 0)
(0.167405 1.33876e-05 0 0.00372574 0.189934 0 0 0 0)
(0.168092 0.000159922 0 0.00439499 0.190151 0 0 0 0)
(0.166086 -3.61473e-05 0 0.00502248 0.188817 0 0 0 0)
(0.16103 3.12954e-05 0 0.00570047 0.19039 0 0 0 0)
(0.157853 -0.000113997 0 0.00637745 0.18861 0 0 0 0)
(0.154138 7.30156e-05 0 0.00712016 0.191181 0 0 0 0)
(0.1501 -0.000520048 0 0.00791118 0.188137 0 0 0 0)
(0.142777 0.00039468 0 0.00879497 0.194743 0 0 0 0)
(0.130102 -0.000794377 0 0.00966488 0.185581 0 0 0 0)
(0.0993653 9.46651e-05 0 0.0110251 0.200224 0 0 0 0)
(0.0760766 -0.000498894 0 0.0109405 0.185369 0 0 0 0)
(0.0787338 -0.00244918 0 0.0156756 0.204349 0 0 0 0)
(0.0834731 -0.00125023 0 0.019341 0.201889 0 0 0 0)
(-0.656824 -0.00487974 0 0.0130603 0.209837 0 0 0 0)
(-0.699821 -0.00332866 0 0.00314811 0.228768 0 0 0 0)
(0.752154 -7.94104e-12 0 -1.17015e-11 2.18096 0 0 0 0)
(0.515663 7.78486e-12 0 1.69948e-10 3.18011 0 0 0 0)
(-0.510466 8.36984e-11 0 -8.70279e-11 1.32127 0 0 0 0)
(-1.79587 7.54175e-12 0 5.38324e-10 0.333917 0 0 0 0)
(-1.95821 -8.49297e-11 0 1.20208e-11 0.855341 0 0 0 0)
(-1.20938 -3.75783e-11 0 4.55858e-11 1.21322 0 0 0 0)
(-1.17007 5.45409e-12 0 -2.81301e-11 1.5948 0 0 0 0)
(-0.998847 3.32022e-11 0 -7.50899e-11 1.25622 0 0 0 0)
(-0.821823 1.9505e-11 0 -8.11456e-11 0.767513 0 0 0 0)
(-0.739777 -3.56838e-12 0 -5.86706e-11 0.485206 0 0 0 0)
(-0.546092 -6.91208e-12 0 -4.34435e-11 0.335809 0 0 0 0)
(-0.265353 3.31412e-12 0 -4.24887e-11 0.266318 0 0 0 0)
(-0.0871438 1.14191e-11 0 -4.89695e-11 0.236687 0 0 0 0)
(-0.0289781 1.22571e-11 0 -5.65617e-11 0.223825 0 0 0 0)
(-0.012499 9.35e-12 0 -5.66197e-11 0.216666 0 0 0 0)
(0.00664885 -7.61307e-12 0 -4.67124e-11 0.202935 0 0 0 0)
(0.0451046 -3.96075e-11 0 -2.1411e-11 0.195341 0 0 0 0)
(0.0941956 -6.22285e-11 0 5.76124e-12 0.192608 0 0 0 0)
(0.132397 -3.30553e-11 0 2.69744e-11 0.19213 0 0 0 0)
(0.151917 2.40116e-11 0 4.33587e-11 0.192436 0 0 0 0)
(0.159454 6.35621e-11 0 5.74434e-11 0.192198 0 0 0 0)
(0.162442 4.97735e-11 0 7.07245e-11 0.191361 0 0 0 0)
(0.164255 -2.27305e-11 0 8.11646e-11 0.190827 0 0 0 0)
(0.165879 -7.89473e-11 0 8.47353e-11 0.190487 0 0 0 0)
(0.167338 -6.21987e-11 0 7.82897e-11 0.190221 0 0 0 0)
(0.167492 -2.90662e-11 0 6.44351e-11 0.189902 0 0 0 0)
(0.16819 1.05518e-11 0 4.82588e-11 0.190129 0 0 0 0)
(0.166206 6.87401e-11 0 3.51331e-11 0.188803 0 0 0 0)
(0.161182 3.12393e-11 0 2.4087e-11 0.190377 0 0 0 0)
(0.158045 2.99711e-11 0 1.72083e-11 0.188588 0 0 0 0)
(0.154388 6.73329e-11 0 4.26979e-12 0.191161 0 0 0 0)
(0.150429 -1.849e-11 0 -1.757e-11 0.188086 0 0 0 0)
(0.143202 -4.41744e-11 0 -5.53653e-11 0.194737 0 0 0 0)
(0.13069 2.80148e-11 0 -1.09908e-10 0.185372 0 0 0 0)
(0.100094 3.60036e-11 0 -1.73714e-10 0.200198 0 0 0 0)
(0.0773413 -2.53821e-11 0 -2.22821e-10 0.184721 0 0 0 0)
(0.0807562 -1.44399e-11 0 -2.69899e-10 0.203628 0 0 0 0)
(0.0846454 3.25028e-11 0 -2.69891e-10 0.201559 0 0 0 0)
(-0.658508 2.2073e-11 0 -2.18794e-10 0.212223 0 0 0 0)
(-0.701541 7.3172e-12 0 -1.9429e-10 0.235108 0 0 0 0)
(0.854102 0.305885 0 0.134232 2.35153 0 0 0 0)
(0.507546 -0.125046 0 -0.252165 2.95412 0 0 0 0)
(-0.583615 -0.413992 0 -0.204131 1.34729 0 0 0 0)
(-1.8364 -0.0677718 0 -0.200278 0.388824 0 0 0 0)
(-1.93878 0.127899 0 -0.151477 0.811567 0 0 0 0)
(-1.19077 0.107557 0 -0.184863 1.25057 0 0 0 0)
(-1.18242 0.00625397 0 -0.25162 1.62637 0 0 0 0)
(-1.05209 -0.120332 0 -0.148338 1.29079 0 0 0 0)
(-0.874699 -0.112147 0 -0.0896461 0.799031 0 0 0 0)
(-0.757017 -0.0627932 0 -0.0581638 0.488834 0 0 0 0)
(-0.541998 -0.0318381 0 -0.0200789 0.334927 0 0 0 0)
(-0.261587 -0.0144178 0 0.000209814 0.266974 0 0 0 0)
(-0.0864904 -0.00618084 0 0.0045299 0.237653 0 0 0 0)
(-0.0290369 -0.00291211 0 0.0042018 0.224305 0 0 0 0)
(-0.0127808 -0.00303856 0 0.00211003 0.216443 0 0 0 0)
(0.00650782 -0.00310184 0 0.00214355 0.203856 0 0 0 0)
(0.0452301 -0.00150212 0 0.00289171 0.195751 0 0 0 0)
(0.0941966 -0.000467005 0 0.00220228 0.192844 0 0 0 0)
(0.132337 -2.49577e-05 0 0.00143934 0.192212 0 0 0 0)
(0.151841 9.90018e-06 0 0.000653578 0.192505 0 0 0 0)
(0.15938 -0.000156451 0 -0.000164186 0.192271 0 0 0 0)
(0.162374 -0.000199431 0 -0.000954064 0.191433 0 0 0 0)
(0.164191 -0.000127079 0 -0.00169205 0.190892 0 0 0 0)
(0.165812 -8.81513e-05 0 -0.00238961 0.190541 0 0 0 0)
(0.167264 -8.50803e-05 0 -0.00306449 0.190263 0 0 0 0)
(0.167405 -1.33877e-05 0 -0.00372574 0.189934 0 0 0 0)
(0.168092 -0.000159922 0 -0.00439499 0.190151 0 0 0 0)
(0.166086 3.61475e-05 0 -0.00502248 0.188817 0 0 0 0)
(0.16103 -3.12954e-05 0 -0.00570047 0.19039 0 0 0 0)
(0.157853 0.000113997 0 -0.00637745 0.18861 0 0 0 0)
(0.154138 -7.30155e-05 0 -0.00712016 0.191181 0 0 0 0)
(0.1501 0.000520048 0 -0.00791117 0.188137 0 0 0 0)
(0.142777 -0.00039468 0 -0.00879497 0.194743 0 0 0 0)
(0.130102 0.000794377 0 -0.00966487 0.185581 0 0 0 0)
(0.0993653 -9.4665e-05 0 -0.0110251 0.200224 0 0 0 0)
(0.0760766 0.000498894 0 -0.0109405 0.185369 0 0 0 0)
(0.0787338 0.00244917 0 -0.0156756 0.204349 0 0 0 0)
(0.0834731 0.00125023 0 -0.019341 0.201889 0 0 0 0)
(-0.656824 0.00487974 0 -0.0130603 0.209837 0 0 0 0)
(-0.699821 0.00332866 0 -0.00314811 0.228768 0 0 0 0)
(0.782892 0.63451 0 -0.538038 2.49195 0 0 0 0)
(0.41723 -0.292144 0 -1.31127 2.03224 0 0 0 0)
(-0.495372 -0.746267 0 -1.50086 1.06769 0 0 0 0)
(-1.78055 -0.155846 0 -1.61654 0.844627 0 0 0 0)
(-1.95372 0.250689 0 -1.09906 1.02854 0 0 0 0)
(-1.23851 0.237034 0 -1.15893 1.40599 0 0 0 0)
(-1.15944 0.0117021 0 -1.12682 1.46171 0 0 0 0)
(-0.951727 -0.24068 0 -0.65657 1.11342 0 0 0 0)
(-0.795591 -0.233298 0 -0.288601 0.738769 0 0 0 0)
(-0.719539 -0.135012 0 -0.114735 0.477191 0 0 0 0)
(-0.52911 -0.0645411 0 -0.0474249 0.334584 0 0 0 0)
(-0.258194 -0.0282978 0 -0.0184456 0.267282 0 0 0 0)
(-0.0859825 -0.0124128 0 -0.0067044 0.238626 0 0 0 0)
(-0.0296821 -0.00617029 0 -0.00311744 0.224724 0 0 0 0)
(-0.0130977 -0.00594898 0 -0.00528362 0.215127 0 0 0 0)
(0.00687625 -0.00601936 0 -0.0033168 0.204562 0 0 0 0)
(0.0451217 -0.00320338 0 8.91467e-05 0.196854 0 0 0 0)
(0.0937731 -0.00102962 0 0.00104046 0.193446 0 0 0 0)
(0.131947 -9.85057e-05 0 0.000930153 0.192467 0 0 0 0)
(0.15145 1.71675e-05 0 0.000433411 0.192674 0 0 0 0)
(0.158986 -0.000311986 0 -0.000163588 0.192426 0 0 0 0)
(0.161997 -0.00040135 0 -0.000723885 0.191582 0 0 0 0)
(0.163838 -0.000259432 0 -0.00120578 0.191033 0 0 0 0)
(0.16548 -0.000182725 0 -0.00162919 0.190675 0 0 0 0)
(0.166949 -0.000176612 0 -0.00202201 0.19039 0 0 0 0)
(0.167104 -3.26935e-05 0 -0.00239065 0.190054 0 0 0 0)
(0.167813 -0.00032483 0 -0.00276064 0.190269 0 0 0 0)
(0.165826 6.95533e-05 0 -0.00303949 0.188928 0 0 0 0)
(0.160788 -6.02811e-05 0 -0.00332873 0.190492 0 0 0 0)
(0.157632 0.00023017 0 -0.00350722 0.188745 0 0 0 0)
(0.153942 -0.000137679 0 -0.00366907 0.191256 0 0 0 0)
(0.149941 0.00103602 0 -0.00371087 0.188301 0 0 0 0)
(0.142692 -0.000743501 0 -0.00369461 0.19459 0 0 0 0)
(0.130041 0.00159446 0 -0.00309909 0.18612 0 0 0 0)
(0.0997231 -6.16664e-05 0 -0.00279462 0.199464 0 0 0 0)
(0.0759885 0.00120012 0 0.00150726 0.186419 0 0 0 0)
(0.0783124 0.00480577 0 -0.00219665 0.204965 0 0 0 0)
(0.0854062 0.00159663 0 -0.00137724 0.200627 0 0 0 0)
(-0.653798 0.00781945 0 0.00912839 0.201617 0 0 0 0)
(-0.698658 0.00550716 0 0.0273621 0.207275 0 0 0 0)
(0.262813 -0.177681 0 -1.64591 1.00195 0 0 0 0)
(0.00802449 -0.825234 0 -1.95706 0.585301 0 0 0 0)
(-0.877134 -0.774754 0 -2.54091 0.724795 0 0 0 0)
(-1.64893 0.00950412 0 -2.96025 1.07869 0 0 0 0)
(-1.63445 0.338051 0 -1.96961 1.27568 0 0 0 0)
(-1.15298 0.229567 0 -1.72089 1.35065 0 0 0 0)
(-0.893861 -0.183565 0 -1.27313 1.08707 0 0 0 0)
(-0.64234 -0.434662 0 -0.675734 0.804914 0 0 0 0)
(-0.62629 -0.37116 0 -0.357444 0.578748 0 0 0 0)
(-0.649068 -0.232824 0 -0.212887 0.424074 0 0 0 0)
(-0.496499 -0.125695 0 -0.119995 0.319035 0 0 0 0)
(-0.239966 -0.0585609 0 -0.0547095 0.261817 0 0 0 0)
(-0.0774627 -0.0256708 0 -0.0256334 0.236801 0 0 0 0)
(-0.0273997 -0.0138852 0 -0.0166407 0.223502 0 0 0 0)
(-0.0125394 -0.0123203 0 -0.0167381 0.212464 0 0 0 0)
(0.00945202 -0.0111906 0 -0.0138849 0.203372 0 0 0 0)
(0.0480886 -0.00650745 0 -0.00697505 0.197229 0 0 0 0)
(0.0952139 -0.00256795 0 -0.00235359 0.193869 0 0 0 0)
(0.132407 -0.000424109 0 -0.000737939 0.192688 0 0 0 0)
(0.151606 -2.42279e-05 0 -0.000440139 0.192756 0 0 0 0)
(0.159109 -0.000661953 0 -0.000398575 0.192454 0 0 0 0)
(0.162156 -0.000840087 0 -0.000292839 0.191594 0 0 0 0)
(0.164031 -0.000542867 0 -7.35926e-05 0.191046 0 0 0 0)
(0.165685 -0.000382182 0 0.000206453 0.190698 0 0 0 0)
(0.167151 -0.000368822 0 0.000493933 0.19042 0 0 0 0)
(0.16729 -6.65513e-05 0 0.000777496 0.190089 0 0 0 0)
(0.168007 -0.00067581 0 0.00101913 0.190314 0 0 0 0)
(0.16603 0.000137399 0 0.00136427 0.188959 0 0 0 0)
(0.161017 -0.000112588 0 0.00166013 0.190495 0 0 0 0)
(0.157894 0.000458627 0 0.00211206 0.188776 0 0 0 0)
(0.154237 -0.000276368 0 0.00254189 0.191149 0 0 0 0)
(0.150268 0.00201475 0 0.00312545 0.188308 0 0 0 0)
(0.143259 -0.00135947 0 0.00358152 0.194036 0 0 0 0)
(0.130737 0.00292637 0 0.0050274 0.186522 0 0 0 0)
(0.101841 5.48379e-05 0 0.00593099 0.19763 0 0 0 0)
(0.0765536 0.00313886 0 0.012535 0.187158 0 0 0 0)
(0.0774116 0.00863651 0 0.00831181 0.204194 0 0 0 0)
(0.0883419 -0.00125046 0 0.00747995 0.197557 0 0 0 0)
(-0.642296 0.00565062 0 0.00596377 0.194752 0 0 0 0)
(-0.689729 0.00435898 0 0.0165045 0.195549 0 0 0 0)
(0.278018 -0.0369224 0 -2.87991 0.0196175 0 0 0 0)
(-0.225791 -0.273361 0 -3.19747 0.0690718 0 0 0 0)
(-1.25736 -0.255548 0 -3.39718 0.799211 0 0 0 0)
(-1.30061 0.286338 0 -3.24149 1.16014 0 0 0 0)
(-0.93064 0.465917 0 -2.35842 1.13118 0 0 0 0)
(-0.613218 0.0592849 0 -1.71391 0.864223 0 0 0 0)
(-0.294704 -0.409479 0 -1.09486 0.612842 0 0 0 0)
(-0.235243 -0.626494 0 -0.657914 0.47236 0 0 0 0)
(-0.440359 -0.526363 0 -0.455405 0.399757 0 0 0 0)
(-0.528513 -0.332831 0 -0.3155 0.334263 0 0 0 0)
(-0.394172 -0.188105 0 -0.176712 0.281056 0 0 0 0)
(-0.177039 -0.0913136 0 -0.0762659 0.250617 0 0 0 0)
(-0.0538666 -0.0422255 0 -0.0352995 0.233589 0 0 0 0)
(-0.0223342 -0.0254845 0 -0.0254583 0.220879 0 0 0 0)
(-0.0107415 -0.0219303 0 -0.023699 0.209485 0 0 0 0)
(0.0149031 -0.0179274 0 -0.0188559 0.20164 0 0 0 0)
(0.0546427 -0.0105888 0 -0.0102945 0.196789 0 0 0 0)
(0.0990108 -0.00458112 0 -0.00363579 0.194051 0 0 0 0)
(0.133544 -0.000997247 0 -0.000988595 0.19283 0 0 0 0)
(0.151694 -0.00018642 0 -0.00057781 0.192731 0 0 0 0)
(0.159062 -0.00124405 0 -0.000732216 0.192334 0 0 0 0)
(0.162226 -0.00152236 0 -0.000828034 0.191442 0 0 0 0)
(0.164215 -0.000970466 0 -0.000745491 0.190886 0 0 0 0)
(0.165917 -0.000678943 0 -0.000561709 0.190536 0 0 0 0)
(0.167391 -0.000660556 0 -0.000358596 0.190248 0 0 0 0)
(0.167511 -0.000117032 0 -0.000153003 0.1899 0 0 0 0)
(0.168274 -0.00122525 0 1.50489e-05 0.190125 0 0 0 0)
(0.166334 0.000207571 0 0.000313528 0.188731 0 0 0 0)
(0.161386 -0.000209209 0 0.000576365 0.190201 0 0 0 0)
(0.158342 0.000737932 0 0.00105064 0.188544 0 0 0 0)
(0.154761 -0.000513884 0 0.00146787 0.190682 0 0 0 0)
(0.150768 0.00329363 0 0.0020795 0.1881 0 0 0 0)
(0.14422 -0.00213393 0 0.00235533 0.192955 0 0 0 0)
(0.131932 0.00434373 0 0.0038807 0.186973 0 0 0 0)
(0.105822 0.000488065 0 0.00469109 0.195102 0 0 0 0)
(0.0779797 0.00648584 0 0.0123443 0.188326 0 0 0 0)
(0.0739242 0.0127725 0 0.00852332 0.202103 0 0 0 0)
(0.0815693 -0.00597543 0 0.00537672 0.193268 0 0 0 0)
(-0.651269 0.00704792 0 -0.0071032 0.195961 0 0 0 0)
(-0.693288 0.00689066 0 -0.00312877 0.202291 0 0 0 0)
(-0.0431946 -0.130026 0 -3.14319 0.369093 0 0 0 0)
(-0.490428 -0.0739897 0 -3.75566 0.406148 0 0 0 0)
(-0.919554 0.276637 0 -3.43265 0.907117 0 0 0 0)
(-0.647943 0.329407 0 -2.69046 1.03099 0 0 0 0)
(-0.162418 0.0528957 0 -1.88404 0.648993 0 0 0 0)
(0.0646299 -0.269927 0 -1.18661 0.306385 0 0 0 0)
(0.123731 -0.561178 0 -0.772042 0.134481 0 0 0 0)
(-0.0261418 -0.639998 0 -0.604704 0.157498 0 0 0 0)
(-0.296328 -0.504235 0 -0.491578 0.232137 0 0 0 0)
(-0.38051 -0.34721 0 -0.347711 0.247199 0 0 0 0)
(-0.265964 -0.2063 0 -0.188591 0.244301 0 0 0 0)
(-0.103696 -0.104302 0 -0.0861806 0.238701 0 0 0 0)
(-0.0285028 -0.054328 0 -0.0451634 0.229186 0 0 0 0)
(-0.0162211 -0.0371125 0 -0.0361771 0.216755 0 0 0 0)
(-0.00617702 -0.0308596 0 -0.0310082 0.206192 0 0 0 0)
(0.0223691 -0.0234246 0 -0.0233011 0.199809 0 0 0 0)
(0.0627552 -0.0138202 0 -0.0131768 0.196201 0 0 0 0)
(0.104181 -0.00638345 0 -0.0051465 0.194047 0 0 0 0)
(0.135354 -0.001696 0 -0.00159833 0.192888 0 0 0 0)
(0.151853 -0.000501835 0 -0.000903769 0.192653 0 0 0 0)
(0.158868 -0.0019043 0 -0.0010955 0.19215 0 0 0 0)
(0.162143 -0.00223585 0 -0.00129607 0.19121 0 0 0 0)
(0.164288 -0.00141573 0 -0.0012908 0.190633 0 0 0 0)
(0.166057 -0.0009971 0 -0.00116373 0.190275 0 0 0 0)
(0.167545 -0.00098221 0 -0.00101944 0.189972 0 0 0 0)
(0.16765 -0.000184976 0 -0.00086561 0.189612 0 0 0 0)
(0.168457 -0.00180233 0 -0.000690467 0.189838 0 0 0 0)
(0.166571 0.000210962 0 -0.000525546 0.188401 0 0 0 0)
(0.161727 -0.000292233 0 -0.000230504 0.189808 0 0 0 0)
(0.158753 0.000921889 0 0.000290995 0.188292 0 0 0 0)
(0.155228 -0.000704703 0 0.000690813 0.190115 0 0 0 0)
(0.151123 0.00420509 0 0.00131241 0.187981 0 0 0 0)
(0.144995 -0.00244553 0 0.00138844 0.191756 0 0 0 0)
(0.132988 0.00499575 0 0.00284454 0.187767 0 0 0 0)
(0.109997 0.00135879 0 0.0035487 0.192715 0 0 0 0)
(0.0802465 0.00988473 0 0.0111232 0.189509 0 0 0 0)
(0.0706974 0.0133987 0 0.00890281 0.198809 0 0 0 0)
(0.0732836 -0.00716907 0 0.00511902 0.189047 0 0 0 0)
(-0.650492 0.0143454 0 -0.00958577 0.198311 0 0 0 0)
(-0.685899 0.0104586 0 0.00600042 0.204587 0 0 0 0)
(-0.312187 -0.00121444 0 -2.59579 0.212 0 0 0 0)
(-0.504727 0.245099 0 -2.82266 0.420527 0 0 0 0)
(-0.230888 0.346576 0 -2.26858 0.514638 0 0 0 0)
(0.191682 0.0375997 0 -1.5193 0.235483 0 0 0 0)
(0.518523 -0.232342 0 -0.970639 0.062697 0 0 0 0)
(0.458346 -0.436518 0 -0.66154 -0.0587717 0 0 0 0)
(0.266039 -0.552952 0 -0.53313 -0.0688197 0 0 0 0)
(0.0350224 -0.532389 0 -0.528712 0.0507341 0 0 0 0)
(-0.192711 -0.439924 0 -0.455169 0.138963 0 0 0 0)
(-0.236544 -0.32111 0 -0.328641 0.187207 0 0 0 0)
(-0.142151 -0.196294 0 -0.177261 0.217347 0 0 0 0)
(-0.0388273 -0.105878 0 -0.092338 0.225807 0 0 0 0)
(-0.00568148 -0.0633736 0 -0.0576076 0.22071 0 0 0 0)
(-0.00869371 -0.0476427 0 -0.0473566 0.210233 0 0 0 0)
(0.00166628 -0.0382607 0 -0.0385084 0.201752 0 0 0 0)
(0.032086 -0.0275552 0 -0.0274454 0.197213 0 0 0 0)
(0.0721371 -0.016141 0 -0.0156783 0.194868 0 0 0 0)
(0.110168 -0.00777316 0 -0.006758 0.193403 0 0 0 0)
(0.137632 -0.00234053 0 -0.00263029 0.192448 0 0 0 0)
(0.152178 -0.000898488 0 -0.00159419 0.192167 0 0 0 0)
(0.158684 -0.00263452 0 -0.00163223 0.19159 0 0 0 0)
(0.162038 -0.00298366 0 -0.00175248 0.190609 0 0 0 0)
(0.164343 -0.00187103 0 -0.00167318 0.190015 0 0 0 0)
(0.166178 -0.00131599 0 -0.00147422 0.189661 0 0 0 0)
(0.167679 -0.00130017 0 -0.0012649 0.189371 0 0 0 0)
(0.167828 -0.000245889 0 -0.00103668 0.18902 0 0 0 0)
(0.168602 -0.00239164 0 -0.00067686 0.18924 0 0 0 0)
(0.166777 0.000178641 0 -0.000569323 0.187811 0 0 0 0)
(0.162173 -0.000314919 0 -6.96796e-05 0.189152 0 0 0 0)
(0.15923 0.0010338 0 0.000673721 0.187832 0 0 0 0)
(0.155745 -0.000813013 0 0.00125979 0.189328 0 0 0 0)
(0.15144 0.00487479 0 0.00210237 0.18769 0 0 0 0)
(0.145697 -0.00234051 0 0.00226539 0.190534 0 0 0 0)
(0.134013 0.00526771 0 0.00384647 0.188192 0 0 0 0)
(0.1138 0.00216729 0 0.0047666 0.190976 0 0 0 0)
(0.0831391 0.0123582 0 0.0113671 0.189507 0 0 0 0)
(0.0681384 0.0123268 0 0.0109524 0.194219 0 0 0 0)
(0.0637531 -0.00645503 0 0.00768777 0.186936 0 0 0 0)
(-0.65042 0.0220227 0 -0.00731793 0.19879 0 0 0 0)
(-0.678269 0.0129379 0 0.00853251 0.203726 0 0 0 0)
(-0.261811 0.0709188 0 -1.28611 0.0268129 0 0 0 0)
(-0.175118 0.217644 0 -1.23618 0.125039 0 0 0 0)
(0.336405 0.0983226 0 -0.816399 -0.0157734 0 0 0 0)
(0.602801 -0.1061 0 -0.488938 -0.228233 0 0 0 0)
(0.664153 -0.230659 0 -0.363939 -0.174806 0 0 0 0)
(0.48623 -0.396662 0 -0.419028 -0.17355 0 0 0 0)
(0.25173 -0.455654 0 -0.423054 -0.0778855 0 0 0 0)
(0.0489845 -0.439771 0 -0.462919 0.021718 0 0 0 0)
(-0.103533 -0.372724 0 -0.390286 0.0995022 0 0 0 0)
(-0.112708 -0.271676 0 -0.277881 0.159443 0 0 0 0)
(-0.0382543 -0.169103 0 -0.153287 0.202221 0 0 0 0)
(0.0116065 -0.101061 0 -0.0897284 0.215045 0 0 0 0)
(0.014843 -0.0693362 0 -0.0646448 0.211335 0 0 0 0)
(0.00218355 -0.055381 0 -0.053318 0.2035 0 0 0 0)
(0.0130101 -0.0434065 0 -0.0422834 0.197267 0 0 0 0)
(0.0443691 -0.0300588 0 -0.0287371 0.194419 0 0 0 0)
(0.0826904 -0.0174916 0 -0.0162068 0.1931 0 0 0 0)
(0.116755 -0.00871487 0 -0.007286 0.192088 0 0 0 0)
(0.14033 -0.0028868 0 -0.00314125 0.191236 0 0 0 0)
(0.152815 -0.00132851 0 -0.00203837 0.190939 0 0 0 0)
(0.158715 -0.00340595 0 -0.00206116 0.190314 0 0 0 0)
(0.162103 -0.00375417 0 -0.00221752 0.189305 0 0 0 0)
(0.164556 -0.00232869 0 -0.00219725 0.18871 0 0 0 0)
(0.166451 -0.00161731 0 -0.00207633 0.188384 0 0 0 0)
(0.167966 -0.00160051 0 -0.00196146 0.188153 0 0 0 0)
(0.168217 -0.000311536 0 -0.00185336 0.187808 0 0 0 0)
(0.168907 -0.00296708 0 -0.00152989 0.188054 0 0 0 0)
(0.167156 0.000126474 0 -0.0016304 0.186797 0 0 0 0)
(0.162925 -0.000272056 0 -0.00119099 0.188017 0 0 0 0)
(0.160034 0.00109153 0 -0.000536751 0.187001 0 0 0 0)
(0.156605 -0.00084127 0 -8.41822e-05 0.188234 0 0 0 0)
(0.152092 0.00536706 0 0.000611033 0.187154 0 0 0 0)
(0.146675 -0.00196166 0 0.000490124 0.189296 0 0 0 0)
(0.135398 0.00542164 0 0.00167574 0.188252 0 0 0 0)
(0.117244 0.00262619 0 0.00219965 0.189764 0 0 0 0)
(0.0862074 0.0130102 0 0.00696019 0.189091 0 0 0 0)
(0.0671518 0.0109203 0 0.00570184 0.190055 0 0 0 0)
(0.0556777 -0.00276498 0 0.00203899 0.186938 0 0 0 0)
(-0.649678 0.0305253 0 -0.0123745 0.199639 0 0 0 0)
(-0.670625 0.0152155 0 0.00381135 0.205177 0 0 0 0)
(-0.264075 0.0934398 0 -0.284194 -0.0986126 0 0 0 0)
(-0.0520957 0.204062 0 -0.31048 -0.0904791 0 0 0 0)
(0.489185 0.00615061 0 -0.158318 -0.149153 0 0 0 0)
(0.627689 -0.11565 0 -0.143803 -0.211678 0 0 0 0)
(0.58589 -0.179648 0 -0.193099 -0.160863 0 0 0 0)
(0.40138 -0.343122 0 -0.334047 -0.150544 0 0 0 0)
(0.223744 -0.364785 0 -0.363471 -0.0597155 0 0 0 0)
(0.0665985 -0.361452 0 -0.389574 0.0131932 0 0 0 0)
(-0.0144014 -0.307207 0 -0.320479 0.0880447 0 0 0 0)
(-0.00816224 -0.222126 0 -0.220398 0.149437 0 0 0 0)
(0.0391595 -0.142713 0 -0.135131 0.189934 0 0 0 0)
(0.0465913 -0.097096 0 -0.0906711 0.202487 0 0 0 0)
(0.0294049 -0.0744988 0 -0.0736916 0.200011 0 0 0 0)
(0.0128546 -0.0611983 0 -0.0619 0.194956 0 0 0 0)
(0.0253533 -0.0470115 0 -0.047932 0.191399 0 0 0 0)
(0.0572143 -0.0315707 0 -0.0319847 0.190395 0 0 0 0)
(0.0928082 -0.0183876 0 -0.0183731 0.190025 0 0 0 0)
(0.122759 -0.00956963 0 -0.00932877 0.189652 0 0 0 0)
(0.142689 -0.00344782 0 -0.0049389 0.188887 0 0 0 0)
(0.153219 -0.00178668 0 -0.00336628 0.188593 0 0 0 0)
(0.158512 -0.0042083 0 -0.00289374 0.187957 0 0 0 0)
(0.161906 -0.00452973 0 -0.00259425 0.186952 0 0 0 0)
(0.164479 -0.00275919 0 -0.00215383 0.186387 0 0 0 0)
(0.166405 -0.00185269 0 -0.00164217 0.186119 0 0 0 0)
(0.167893 -0.00185532 0 -0.0011578 0.185996 0 0 0 0)
(0.168244 -0.00034174 0 -0.000718355 0.185658 0 0 0 0)
(0.168817 -0.00336575 0 -4.50184e-05 0.185984 0 0 0 0)
(0.167104 0.000143203 0 0.000281186 0.185069 0 0 0 0)
(0.163227 -0.000118299 0 0.00117342 0.186118 0 0 0 0)
(0.160296 0.00124338 0 0.00223361 0.185489 0 0 0 0)
(0.156851 -0.000665497 0 0.00311371 0.186541 0 0 0 0)
(0.151994 0.0058981 0 0.00422916 0.186026 0 0 0 0)