/*--------------------------------*- C++ -*----------------------------------*\
| =========                 |                                                 |
| \\      /  F ield         | OpenFOAM: The Open Source CFD Toolbox           |
|  \\    /   O peration     | Version:  v1912                                 |
|   \\  /    A nd           | Website:  www.openfoam.com                      |
|    \\/     M anipulation  |                                                 |
\*---------------------------------------------------------------------------*/
FoamFile
{
    version     2.0;
    format      ascii;
    class       volScalarField;
    location    "2.54";
    object      Ma;
}
// * * * * * * * * * * * * * * * * * * * * * * * * * * * * * * * * * * * * * //

dimensions      [0 0 0 0 0 0 0];


internalField   nonuniform List<scalar> 
1900
(
0.297338
0.0544917
0.0569186
0.0609842
0.0650566
0.069395
0.0737826
0.0776989
0.0808977
0.0746666
0.297342
0.054495
0.0569221
0.0609804
0.0650067
0.0691473
0.0729654
0.0764456
0.0812242
0.086401
0.297344
0.0544947
0.0569212
0.060968
0.0649521
0.0689776
0.0726526
0.0762059
0.0813639
0.0913465
0.297342
0.054495
0.0569221
0.0609804
0.0650067
0.0691473
0.0729654
0.0764456
0.0812242
0.086401
0.297338
0.0544917
0.0569186
0.0609842
0.0650566
0.069395
0.0737826
0.0776989
0.0808977
0.0746666
0.0864196
0.114881
0.14494
0.194919
0.337884
0.105479
0.133388
0.172854
0.248604
0.387135
0.110443
0.136628
0.179533
0.2614
0.398284
0.105479
0.133388
0.172854
0.248604
0.387135
0.0864196
0.114881
0.14494
0.194919
0.337884
0.378682
0.316856
0.287883
0.279496
0.37524
0.395113
0.3247
0.278124
0.233557
0.219729
0.403629
0.327045
0.269759
0.200153
0.0872295
0.395113
0.3247
0.278124
0.233557
0.219729
0.378682
0.316856
0.287883
0.279496
0.37524
0.653735
0.21198
0.276741
0.346127
0.396793
0.420104
0.422213
0.412445
0.39357
0.369221
0.339983
0.306577
0.270321
0.2325
0.194317
0.156761
0.120535
0.0857729
0.0528375
0.0237857
0.0247554
0.0552574
0.0891532
0.125212
0.163103
0.202888
0.244241
0.286793
0.330232
0.374248
0.418413
0.462073
0.504432
0.54495
0.583928
0.621964
0.657269
0.681564
0.796258
1.62873
0.130281
0.229664
0.141428
0.297232
0.39213
0.419244
0.42244
0.412595
0.393417
0.368877
0.339556
0.306091
0.269788
0.231897
0.193591
0.155831
0.119268
0.0839157
0.049695
0.0154353
0.0169386
0.0522832
0.0873738
0.123976
0.162172
0.202149
0.243626
0.286261
0.329753
0.373803
0.417989
0.461667
0.504043
0.544584
0.583578
0.621642
0.656925
0.681457
0.796223
1.62849
0.178273
0.312829
0.0453902
0.270876
0.391255
0.419195
0.422845
0.413013
0.393759
0.369257
0.33993
0.306412
0.270043
0.232075
0.193672
0.155783
0.119045
0.083434
0.0487107
0.0115778
0.013547
0.0513694
0.0869303
0.123781
0.162153
0.202269
0.243864
0.286599
0.330177
0.3743
0.418544
0.462263
0.504664
0.54521
0.58419
0.622224
0.657471
0.681965
0.796559
1.62842
0.130281
0.229664
0.141428
0.297232
0.39213
0.419244
0.42244
0.412595
0.393417
0.368877
0.339556
0.306091
0.269788
0.231897
0.193591
0.155831
0.119268
0.0839157
0.049695
0.0154353
0.0169386
0.0522832
0.0873738
0.123976
0.162172
0.202149
0.243626
0.286261
0.329753
0.373803
0.417989
0.461667
0.504043
0.544584
0.583578
0.621642
0.656925
0.681457
0.796223
1.62849
0.653735
0.21198
0.276741
0.346127
0.396793
0.420104
0.422213
0.412445
0.39357
0.369221
0.339983
0.306577
0.270321
0.2325
0.194317
0.156761
0.120535
0.0857729
0.0528375
0.0237857
0.0247554
0.0552574
0.0891532
0.125212
0.163103
0.202888
0.244241
0.286793
0.330232
0.374248
0.418413
0.462073
0.504432
0.54495
0.583928
0.621964
0.657269
0.681564
0.796258
1.62873
1.45016
0.558748
0.463433
0.421136
0.421023
0.43035
0.428627
0.415784
0.396712
0.372154
0.342636
0.309119
0.272939
0.235405
0.197741
0.16099
0.125999
0.0932985
0.0643353
0.0438236
0.0442589
0.0661721
0.096225
0.130289
0.16699
0.20599
0.246788
0.288929
0.332051
0.375815
0.419776
0.463276
0.505511
0.545946
0.584898
0.622904
0.658197
0.6818
0.796292
1.63012
1.67945
0.756319
0.605312
0.505992
0.469562
0.455815
0.443442
0.425851
0.40516
0.379538
0.349374
0.315692
0.279797
0.243009
0.206594
0.171727
0.139525
0.111024
0.0882558
0.0749032
0.0750236
0.0893316
0.113114
0.142927
0.17675
0.21372
0.253045
0.294094
0.336394
0.379538
0.423031
0.466179
0.508161
0.548409
0.587314
0.625041
0.6605
0.682736
0.796733
1.63289
1.69574
0.794052
0.653539
0.557255
0.510964
0.481839
0.462284
0.440987
0.417934
0.391111
0.360483
0.326903
0.291689
0.256182
0.221686
0.18947
0.160791
0.136783
0.119063
0.109768
0.109737
0.119621
0.138139
0.163333
0.193537
0.227745
0.264974
0.304424
0.345495
0.387684
0.430435
0.473005
0.51456
0.554467
0.593231
0.630293
0.6658
0.686754
0.800286
1.63915
1.67897
0.809018
0.677369
0.592469
0.545705
0.512567
0.486076
0.461499
0.435807
0.407388
0.376056
0.342547
0.308144
0.274152
0.241852
0.212496
0.187268
0.167067
0.152889
0.146039
0.14593
0.153109
0.167824
0.188971
0.215505
0.246603
0.28129
0.318697
0.358133
0.399015
0.440722
0.482476
0.523436
0.562821
0.601375
0.637261
0.672909
0.693309
0.806516
1.64697
1.67749
0.823105
0.697214
0.623285
0.57898
0.542736
0.512896
0.485414
0.457591
0.427722
0.395803
0.362578
0.329228
0.296993
0.267054
0.240539
0.218418
0.201275
0.189626
0.184439
0.184298
0.189637
0.201592
0.219419
0.242575
0.270535
0.302471
0.337542
0.375037
0.414306
0.454724
0.495424
0.535644
0.574268
0.612496
0.646717
0.682399
0.704265
0.816299
1.65597
1.69933
0.838665
0.716404
0.65085
0.610144
0.572189
0.541396
0.511874
0.48246
0.451428
0.419183
0.386427
0.354318
0.323923
0.296291
0.27235
0.252834
0.238059
0.228242
0.224264
0.22412
0.228135
0.238078
0.25328
0.273536
0.298588
0.327801
0.360451
0.395821
0.433336
0.47221
0.511762
0.551093
0.58868
0.626497
0.658859
0.6948
0.718946
0.829171
1.66457
1.69802
0.855164
0.73685
0.677752
0.63982
0.601422
0.571179
0.540284
0.509714
0.478053
0.445633
0.413661
0.382841
0.354275
0.32875
0.307032
0.289637
0.276694
0.268241
0.26519
0.265066
0.268085
0.276535
0.289687
0.307534
0.330019
0.356706
0.386961
0.420256
0.455762
0.493272
0.531234
0.569828
0.606074
0.643394
0.673944
0.710435
0.737025
0.845177
1.67425
1.70012
0.873164
0.759151
0.705148
0.669058
0.630945
0.601979
0.570122
0.539233
0.506765
0.474985
0.443595
0.414254
0.387331
0.363696
0.343857
0.328195
0.316694
0.309292
0.306981
0.306888
0.309136
0.316459
0.328006
0.343878
0.364167
0.388558
0.416663
0.447707
0.481725
0.516994
0.554271
0.591377
0.626232
0.663184
0.692065
0.729146
0.757886
0.863318
1.68101
1.7113
0.895073
0.78378
0.734216
0.698751
0.661316
0.633859
0.601632
0.569771
0.538372
0.505933
0.476146
0.447781
0.422536
0.400509
0.382285
0.368052
0.357714
0.351147
0.349436
0.349377
0.351019
0.357476
0.367758
0.382024
0.400437
0.422883
0.448818
0.478358
0.509665
0.544918
0.578856
0.616628
0.649207
0.685639
0.713483
0.751396
0.781764
0.88493
1.69167
1.71628
0.916129
0.808567
0.763962
0.728709
0.692339
0.66636
0.632842
0.603423
0.569376
0.5399
0.509706
0.483265
0.459178
0.43868
0.421809
0.408779
0.399391
0.393499
0.392272
0.392245
0.39341
0.399194
0.408476
0.421429
0.438309
0.458946
0.483403
0.510388
0.54169
0.572563
0.608416
0.642444
0.674498
0.710411
0.737061
0.775656
0.806474
0.906314
1.69602
1.72845
0.943599
0.838407
0.797703
0.760887
0.725424
0.69957
0.66769
0.634866
0.605361
0.572952
0.545739
0.519419
0.496927
0.477549
0.461869
0.449831
0.441225
0.435879
0.435037
0.435032
0.435828
0.441086
0.449577
0.461487
0.477062
0.496414
0.518952
0.545618
0.573001
0.606915
0.636099
0.673866
0.702562
0.738095
0.764589
0.804832
0.836505
0.934132
1.70735
1.73173
0.965341
0.864127
0.827143
0.790017
0.756482
0.731915
0.697328
0.670235
0.636027
0.60878
0.580413
0.556326
0.534598
0.516438
0.501711
0.490505
0.482531
0.477625
0.477078
0.477086
0.477603
0.482449
0.490324
0.501395
0.515972
0.533995
0.555635
0.579715
0.608102
0.636007
0.669479
0.700737
0.730564
0.764992
0.78993
0.830576
0.861277
0.955634
1.70887
1.74191
0.997353
0.898294
0.863528
0.824351
0.792313
0.76576
0.733648
0.703398
0.672939
0.643596
0.617013
0.592949
0.572187
0.554714
0.540717
0.530123
0.522627
0.518055
0.517722
0.517735
0.518053
0.522591
0.530016
0.540496
0.554343
0.571652
0.592213
0.61624
0.642353
0.672631
0.700969
0.735851
0.762182
0.797945
0.82314
0.865716
0.897071
0.989517
1.71965
1.74051
1.01906
0.924862
0.891718
0.850371
0.820258
0.792287
0.760229
0.731681
0.701512
0.674159
0.649059
0.626812
0.607504
0.591285
0.578221
0.568276
0.561203
0.556899
0.556709
0.556722
0.556907
0.561198
0.568228
0.578092
0.591033
0.6071
0.626187
0.648341
0.672861
0.700945
0.728756
0.761196
0.787127
0.822096
0.846449
0.889688
0.92021
1.00978
1.71746
1.74432
1.05283
0.961155
0.92962
0.885888
0.858119
0.824838
0.795708
0.76537
0.736244
0.709314
0.684659
0.662824
0.643995
0.628239
0.615539
0.605834
0.598912
0.594699
0.594547
0.594556
0.59471
0.598922
0.605826
0.615486
0.628105
0.643752
0.662407
0.684159
0.708352
0.735791
0.763193
0.796077
0.821449
0.858734
0.8842
0.928925
0.95926
1.04694
1.72451
1.73528
1.07404
0.988698
0.958416
0.912582
0.885604
0.848427
0.821841
0.789931
0.762419
0.735667
0.71199
0.691418
0.674235
0.660335
0.649471
0.641215
0.635252
0.631551
0.631516
0.631522
0.63156
0.635267
0.641229
0.649465
0.660281
0.674102
0.691148
0.711605
0.734903
0.761839
0.788086
0.821175
0.845429
0.884
0.909699
0.955461
0.984478
1.06765
1.71768
1.72726
1.10661
1.02607
0.999715
0.955363
0.928345
0.888842
0.863212
0.828433
0.801196
0.772578
0.748212
0.726689
0.708778
0.694406
0.68337
0.674889
0.668741
0.664856
0.664682
0.664684
0.664861
0.668754
0.674907
0.683388
0.694411
0.708749
0.726593
0.748042
0.772215
0.800879
0.827514
0.862761
0.887375
0.927403
0.954037
0.998559
1.02437
1.10354
1.71439
1.66877
1.11049
1.04249
1.02375
0.982123
0.956752
0.916836
0.892757
0.856784
0.830742
0.801018
0.775929
0.752404
0.732011
0.714899
0.701869
0.693573
0.68848
0.685807
0.686255
0.686255
0.68581
0.688489
0.693589
0.70189
0.714924
0.73202
0.75238
0.775847
0.800834
0.830493
0.856257
0.892245
0.915907
0.955756
0.98102
1.0224
1.04066
1.10793
1.66194
1.68967
1.16496
1.10788
1.10112
1.0635
1.04242
1.00439
0.983342
0.949415
0.926934
0.899623
0.878023
0.857014
0.83943
0.824379
0.81259
0.804296
0.799464
0.79776
0.798554
0.798554
0.797761
0.79947
0.804307
0.812607
0.8244
0.839446
0.857015
0.877984
0.899519
0.926751
0.94903
0.98288
1.00357
1.0414
1.06217
1.09933
1.10562
1.16243
1.68656
2.31022
1.68774
1.66274
1.71425
1.71798
1.72517
1.71793
1.72019
1.70931
1.70752
1.69631
1.69157
1.68117
1.67383
1.66425
1.65551
1.64711
1.64013
1.63556
1.63397
1.63397
1.63556
1.64013
1.64711
1.65551
1.66425
1.67382
1.68116
1.69156
1.69629
1.70749
1.70927
1.72014
1.71787
1.72511
1.71792
1.71428
1.66282
1.68774
2.31057
2.31022
1.68774
1.66274
1.71425
1.71798
1.72517
1.71793
1.72019
1.70931
1.70752
1.69631
1.69157
1.68117
1.67383
1.66425
1.65551
1.64711
1.64013
1.63556
1.63397
1.63397
1.63556
1.64013
1.64711
1.65551
1.66425
1.67382
1.68116
1.69156
1.69629
1.70749
1.70927
1.72014
1.71787
1.72511
1.71792
1.71428
1.66282
1.68774
2.31057
1.68967
1.16496
1.10788
1.10112
1.0635
1.04242
1.00439
0.983342
0.949415
0.926934
0.899623
0.878023
0.857014
0.83943
0.824379
0.81259
0.804296
0.799464
0.79776
0.798554
0.798554
0.797761
0.79947
0.804307
0.812607
0.8244
0.839446
0.857015
0.877984
0.899519
0.926751
0.94903
0.98288
1.00357
1.0414
1.06217
1.09933
1.10562
1.16243
1.68656
1.66877
1.11049
1.04249
1.02375
0.982123
0.956752
0.916836
0.892757
0.856784
0.830742
0.801018
0.775929
0.752404
0.732011
0.714899
0.701869
0.693573
0.68848
0.685807
0.686255
0.686255
0.68581
0.688489
0.693589
0.70189
0.714924
0.73202
0.75238
0.775847
0.800834
0.830493
0.856257
0.892245
0.915907
0.955756
0.98102
1.0224
1.04066
1.10793
1.66194
1.72726
1.10661
1.02607
0.999715
0.955363
0.928345
0.888842
0.863212
0.828433
0.801196
0.772578
0.748212
0.726689
0.708778
0.694406
0.68337
0.674889
0.668741
0.664856
0.664682
0.664684
0.664861
0.668754
0.674907
0.683388
0.694411
0.708749
0.726593
0.748042
0.772215
0.800879
0.827514
0.862761
0.887375
0.927403
0.954037
0.998559
1.02437
1.10354
1.71439
1.73528
1.07404
0.988698
0.958416
0.912582
0.885604
0.848427
0.821841
0.789931
0.762419
0.735667
0.71199
0.691418
0.674235
0.660335
0.649471
0.641215
0.635252
0.631551
0.631516
0.631522
0.63156
0.635267
0.641229
0.649465
0.660281
0.674102
0.691148
0.711605
0.734903
0.761839
0.788086
0.821175
0.845429
0.884
0.909699
0.955461
0.984478
1.06765
1.71768
1.74432
1.05283
0.961155
0.92962
0.885888
0.858119
0.824838
0.795708
0.76537
0.736244
0.709314
0.684659
0.662824
0.643995
0.628239
0.615539
0.605834
0.598912
0.594699
0.594547
0.594556
0.59471
0.598922
0.605826
0.615486
0.628105
0.643752
0.662407
0.684159
0.708352
0.735791
0.763193
0.796077
0.821449
0.858734
0.8842
0.928925
0.95926
1.04694
1.72451
1.74051
1.01906
0.924862
0.891718
0.850371
0.820258
0.792287
0.760229
0.731681
0.701512
0.674159
0.649059
0.626812
0.607504
0.591285
0.578221
0.568276
0.561203
0.556899
0.556709
0.556722
0.556907
0.561198
0.568228
0.578092
0.591033
0.6071
0.626187
0.648341
0.672861
0.700945
0.728756
0.761196
0.787127
0.822096
0.846449
0.889688
0.92021
1.00978
1.71746
1.74191
0.997353
0.898294
0.863528
0.824351
0.792313
0.76576
0.733648
0.703398
0.672939
0.643596
0.617013
0.592949
0.572187
0.554714
0.540717
0.530123
0.522627
0.518055
0.517722
0.517735
0.518053
0.522591
0.530016
0.540496
0.554343
0.571652
0.592213
0.61624
0.642353
0.672631
0.700969
0.735851
0.762182
0.797945
0.82314
0.865716
0.897071
0.989517
1.71965
1.73173
0.965341
0.864127
0.827143
0.790017
0.756482
0.731915
0.697328
0.670235
0.636027
0.60878
0.580413
0.556326
0.534598
0.516438
0.501711
0.490505
0.482531
0.477625
0.477078
0.477086
0.477603
0.482449
0.490324
0.501395
0.515972
0.533995
0.555635
0.579715
0.608102
0.636007
0.669479
0.700737
0.730564
0.764992
0.78993
0.830576
0.861277
0.955634
1.70887
1.72845
0.943599
0.838407
0.797703
0.760887
0.725424
0.69957
0.66769
0.634866
0.605361
0.572952
0.545739
0.519419
0.496927
0.477549
0.461869
0.449831
0.441225
0.435879
0.435037
0.435032
0.435828
0.441086
0.449577
0.461487
0.477062
0.496414
0.518952
0.545618
0.573001
0.606915
0.636099
0.673866
0.702562
0.738095
0.764589
0.804832
0.836505
0.934132
1.70735
1.71628
0.916129
0.808567
0.763962
0.728709
0.692339
0.66636
0.632842
0.603423
0.569376
0.5399
0.509706
0.483265
0.459178
0.43868
0.421809
0.408779
0.399391
0.393499
0.392272
0.392245
0.39341
0.399194
0.408476
0.421429
0.438309
0.458946
0.483403
0.510388
0.54169
0.572563
0.608416
0.642444
0.674498
0.710411
0.737061
0.775656
0.806474
0.906314
1.69602
1.7113
0.895073
0.78378
0.734216
0.698751
0.661316
0.633859
0.601632
0.569771
0.538372
0.505933
0.476146
0.447781
0.422536
0.400509
0.382285
0.368052
0.357714
0.351147
0.349436
0.349377
0.351019
0.357476
0.367758
0.382024
0.400437
0.422883
0.448818
0.478358
0.509665
0.544918
0.578856
0.616628
0.649207
0.685639
0.713483
0.751396
0.781764
0.88493
1.69167
1.70012
0.873164
0.759151
0.705148
0.669058
0.630945
0.601979
0.570122
0.539233
0.506765
0.474985
0.443595
0.414254
0.387331
0.363696
0.343857
0.328195
0.316694
0.309292
0.306981
0.306888
0.309136
0.316459
0.328006
0.343878
0.364167
0.388558
0.416663
0.447707
0.481725
0.516994
0.554271
0.591377
0.626232
0.663184
0.692065
0.729146
0.757886
0.863318
1.68101
1.69802
0.855164
0.73685
0.677752
0.63982
0.601422
0.571179
0.540284
0.509714
0.478053
0.445633
0.413661
0.382841
0.354275
0.32875
0.307032
0.289637
0.276694
0.268241
0.26519
0.265066
0.268085
0.276535
0.289687
0.307534
0.330019
0.356706
0.386961
0.420256
0.455762
0.493272
0.531234
0.569828
0.606074
0.643394
0.673944
0.710435
0.737025
0.845177
1.67425
1.69933
0.838665
0.716404
0.65085
0.610144
0.572189
0.541396
0.511874
0.48246
0.451428
0.419183
0.386427
0.354318
0.323923
0.296291
0.27235
0.252834
0.238059
0.228242
0.224264
0.22412
0.228135
0.238078
0.25328
0.273536
0.298588
0.327801
0.360451
0.395821
0.433336
0.47221
0.511762
0.551093
0.58868
0.626497
0.658859
0.6948
0.718946
0.829171
1.66457
1.67749
0.823105
0.697214
0.623285
0.57898
0.542736
0.512896
0.485414
0.457591
0.427722
0.395803
0.362578
0.329228
0.296993
0.267054
0.240539
0.218418
0.201275
0.189626
0.184439
0.184298
0.189637
0.201592
0.219419
0.242575
0.270535
0.302471
0.337542
0.375037
0.414306
0.454724
0.495424
0.535644
0.574268
0.612496
0.646717
0.682399
0.704265
0.816299
1.65597
1.67897
0.809018
0.677369
0.592469
0.545705
0.512567
0.486076
0.461499
0.435807
0.407388
0.376056
0.342547
0.308144
0.274152
0.241852
0.212496
0.187268
0.167067
0.152889
0.146039
0.14593
0.153109
0.167824
0.188971
0.215505
0.246603
0.28129
0.318697
0.358133
0.399015
0.440722
0.482476
0.523436
0.562821
0.601375
0.637261
0.672909
0.693309
0.806516
1.64697
1.69574
0.794052
0.653539
0.557255
0.510964
0.481839
0.462284
0.440987
0.417934
0.391111
0.360483
0.326903
0.291689
0.256182
0.221686
0.18947
0.160791
0.136783
0.119063
0.109768
0.109737
0.119621
0.138139
0.163333
0.193537
0.227745
0.264974
0.304424
0.345495
0.387684
0.430435
0.473005
0.51456
0.554467
0.593231
0.630293
0.6658
0.686754
0.800286
1.63915
1.67945
0.756319
0.605312
0.505992
0.469562
0.455815
0.443442
0.425851
0.40516
0.379538
0.349374
0.315692
0.279797
0.243009
0.206594
0.171727
0.139525
0.111024
0.0882558
0.0749032
0.0750236
0.0893316
0.113114
0.142927
0.17675
0.21372
0.253045
0.294094
0.336394
0.379538
0.423031
0.466179
0.508161
0.548409
0.587314
0.625041
0.6605
0.682736
0.796733
1.63289
1.45016
0.558748
0.463433
0.421136
0.421023
0.43035
0.428627
0.415784
0.396712
0.372154
0.342636
0.309119
0.272939
0.235405
0.197741
0.16099
0.125999
0.0932985
0.0643353
0.0438236
0.0442589
0.0661721
0.096225
0.130289
0.16699
0.20599
0.246788
0.288929
0.332051
0.375815
0.419776
0.463276
0.505511
0.545946
0.584898
0.622904
0.658197
0.6818
0.796292
1.63012
)
;

boundaryField
{
    inlet
    {
        type            calculated;
        value           uniform 0;
    }
    outlet
    {
        type            calculated;
        value           nonuniform List<scalar> 
165
(
1.45016
1.67945
1.69574
1.67897
1.67749
1.69933
1.69802
1.70012
1.7113
1.71628
1.72845
1.73173
1.74191
1.74051
1.74432
1.73528
1.72726
1.66877
1.68967
2.31022
2.31022
1.68774
1.66274
1.71425
1.71798
1.72517
1.71793
1.72019
1.70931
1.70752
1.69631
1.69157
1.68117
1.67383
1.66425
1.65551
1.64711
1.64013
1.63556
1.63397
1.63397
1.63556
1.64013
1.64711
1.65551
1.66425
1.67382
1.68116
1.69156
1.69629
1.70749
1.70927
1.72014
1.71787
1.72511
1.71792
1.71428
1.66282
1.68774
2.31057
1.63012
1.63289
1.63915
1.64697
1.65597
1.66457
1.67425
1.68101
1.69167
1.69602
1.70735
1.70887
1.71965
1.71746
1.72451
1.71768
1.71439
1.66194
1.68656
2.31057
1.62873
1.62849
1.62842
1.62849
1.62873
2.31057
1.68656
1.66194
1.71439
1.71768
1.72451
1.71746
1.71965
1.70887
1.70735
1.69602
1.69167
1.68101
1.67425
1.66457
1.65597
1.64697
1.63915
1.63289
1.63012
2.31022
1.68774
1.66274
1.71425
1.71798
1.72517
1.71793
1.72019
1.70931
1.70752
1.69631
1.69157
1.68117
1.67383
1.66425
1.65551
1.64711
1.64013
1.63556
1.63397
1.63397
1.63556
1.64013
1.64711
1.65551
1.66425
1.67382
1.68116
1.69156
1.69629
1.70749
1.70927
1.72014
1.71787
1.72511
1.71792
1.71428
1.66282
1.68774
2.31057
2.31022
1.68967
1.66877
1.72726
1.73528
1.74432
1.74051
1.74191
1.73173
1.72845
1.71628
1.7113
1.70012
1.69802
1.69933
1.67749
1.67897
1.69574
1.67945
1.45016
)
;
    }
    obstacle
    {
        type            calculated;
        value           nonuniform List<scalar> 
40
(
0.297338
0.0544917
0.0569186
0.0609842
0.0650565
0.0693945
0.0737812
0.077696
0.0808103
0.0733577
0.297338
0.0544917
0.0569186
0.0609842
0.0650565
0.0693945
0.0737812
0.077696
0.0808103
0.0733577
0.0856954
0.113817
0.144579
0.194245
0.316185
0.0856954
0.113817
0.144579
0.194245
0.316185
0.378099
0.316785
0.287854
0.278998
0.368825
0.378099
0.316785
0.287854
0.278998
0.368825
)
;
    }
    empty
    {
        type            empty;
    }
}


// ************************************************************************* //
