/*--------------------------------*- C++ -*----------------------------------*\
| =========                 |                                                 |
| \\      /  F ield         | OpenFOAM: The Open Source CFD Toolbox           |
|  \\    /   O peration     | Version:  v1912                                 |
|   \\  /    A nd           | Website:  www.openfoam.com                      |
|    \\/     M anipulation  |                                                 |
\*---------------------------------------------------------------------------*/
FoamFile
{
    version     2.0;
    format      ascii;
    class       volScalarField;
    location    "2.54";
    object      p;
}
// * * * * * * * * * * * * * * * * * * * * * * * * * * * * * * * * * * * * * //

dimensions      [1 -1 -2 0 0 0 0];


internalField   nonuniform List<scalar> 
1900
(
15459.8
11031.9
10840.2
10900.3
10956.4
11019.4
11084.3
11154.3
11215.3
11297.2
15459.9
11031.9
10840.2
10900.3
10956.5
11019.1
11082.1
11141.1
11189.2
11264
15459.9
11031.9
10840.2
10900.1
10956
11018.4
11082.1
11144.5
11200.3
11257.3
15459.9
11031.9
10840.2
10900.3
10956.5
11019.1
11082.1
11141.1
11189.2
11264
15459.8
11031.9
10840.2
10900.3
10956.4
11019.4
11084.3
11154.3
11215.3
11297.2
11209.3
11285.8
11286.6
11081.9
9776.77
11315
11393
11363.8
11302.8
10695.7
11295.7
11349.6
11297.4
11164.5
10509.9
11315
11393
11363.8
11302.8
10695.7
11209.3
11285.8
11286.6
11081.9
9776.77
12554.8
12738.2
13133.1
13220.2
13302.1
12368.2
12703.1
13128.6
13397.5
13265.9
12356.8
12710.1
13111.6
13257.7
12710.8
12368.2
12703.1
13128.6
13397.5
13265.9
12554.8
12738.2
13133.1
13220.2
13302.1
10639
4846.21
5217.02
5431
5327.12
5320.54
5377.91
5493.73
5640.76
5830.3
6060.9
6330.94
6637.58
6975.43
7339.36
7724.78
8124.31
8519.53
8860.84
9098.48
9090.36
8836.02
8483.22
8077.56
7667.06
7267.69
6884.06
6517.03
6167.15
5835.52
5524.01
5235.41
4972.54
4735.85
4520.94
4322.1
4144.6
4024.66
3688.45
20058.8
11021.9
5198.11
5430.67
5475.14
5358.72
5344.58
5398.52
5515.67
5663.05
5852.94
6084.36
6355.23
6662.75
7001.49
7366.28
7752.61
8153.13
8549.38
8891.59
9129.93
9121.75
8866.55
8512.66
8105.74
7693.98
7293.39
6908.59
6540.44
6189.5
5856.86
5544.44
5255.05
4991.52
4754.34
4539.09
4340.11
4161.69
4041.25
3702.91
20089
10452.2
5629.24
5565.26
5514.4
5371.78
5353.72
5406.19
5524.08
5671.51
5861.72
6093.44
6364.56
6672.39
7011.42
7376.49
7763.13
8163.99
8560.62
8903.18
9141.8
9133.59
8878.04
8523.73
8116.34
7704.11
7303.09
6917.9
6549.38
6198.1
5865.16
5552.46
5262.85
4999.14
4761.85
4546.57
4347.64
4169
4048.68
3709.96
20096.8
11021.9
5198.11
5430.67
5475.14
5358.72
5344.58
5398.52
5515.67
5663.05
5852.94
6084.36
6355.23
6662.75
7001.49
7366.28
7752.61
8153.13
8549.38
8891.59
9129.93
9121.75
8866.55
8512.66
8105.74
7693.98
7293.39
6908.59
6540.44
6189.5
5856.86
5544.44
5255.05
4991.52
4754.34
4539.09
4340.11
4161.69
4041.25
3702.91
20089
10639
4846.21
5217.02
5431
5327.12
5320.54
5377.91
5493.73
5640.76
5830.3
6060.9
6330.94
6637.58
6975.43
7339.36
7724.78
8124.31
8519.53
8860.84
9098.48
9090.36
8836.02
8483.22
8077.56
7667.06
7267.69
6884.06
6517.03
6167.15
5835.52
5524.01
5235.41
4972.54
4735.85
4520.94
4322.1
4144.6
4024.66
3688.45
20058.8
12217.6
4209.21
4944.8
5200.31
5198.9
5215.13
5285.33
5394.35
5541.59
5727.9
5954.51
6220.74
6523.15
6856.24
7214.89
7594.52
7987.91
8376.99
8712.98
8946.85
8938.87
8688.6
8341.11
7941.51
7537.04
7143.43
6765.27
6403.46
6058.61
5731.83
5425.05
5141.05
4882.63
4650.22
4439.42
4244.78
4073.33
3958.15
3632.25
19868.6
13399
3787.69
4573.86
4786.77
4913.82
4985.68
5080.49
5191.34
5334.61
5514.96
5734.02
5991.83
6284.22
6605.74
6951.51
7317.3
7696.3
8071.23
8395.08
8620.68
8613.22
8372.13
8036.88
7651.32
7260.99
6881.14
6516.25
6167.27
5834.87
5520.19
5225.11
4952.35
4704.61
4482.2
4280.88
4095.4
3936.34
3829.96
3521.99
19448.9
14444.4
3595.56
4211.76
4444.1
4592.73
4702.3
4811.59
4928.78
5069.98
5245.63
5457.8
5706.59
5987.69
6295.8
6626.41
6975.67
7337.27
7694.95
8004.02
8219.75
8213.09
7983.29
7663.18
7295
6922.24
6559.46
6210.96
5877.71
5560.4
5260.14
4978.75
4718.78
4482.75
4270.88
4079.48
3903.68
3757.29
3657.32
3361.38
18609.3
15770
3431.21
3923.37
4122.49
4280.57
4416.04
4530.8
4654.56
4795.76
4969.27
5176.99
5418.36
5689.23
5984.71
6300.78
6634.01
6978.62
7319.48
7614.28
7820.65
7815.02
7596.46
7291.44
6940.62
6585.47
6239.78
5907.64
5590.01
5287.57
5001.42
4733.23
4485.39
4260.26
4058.01
3876.18
3709.77
3573.44
3476.57
3185.41
17513
14986.6
3218.35
3649.99
3839.75
3997.45
4134.98
4253.14
4379.41
4522.27
4694.75
4898.9
5133.5
5394.59
5677.9
5979.87
6297.51
6625.63
6950.26
7231.45
7428.93
7424.4
7216.79
6926.4
6592.46
6254.42
5925.31
5608.98
5306.38
5018.25
4745.57
4489.99
4253.59
4038.76
3845.63
3673.59
3516.73
3387.95
3288.17
3007.03
16279.6
14433.9
3016.19
3402.61
3584.76
3738.26
3867.61
3985.13
4111.83
4256.21
4428.23
4629.27
4857.36
5109.11
5380.68
5669.1
5971.79
6284.14
6593.35
6861.71
7050.77
7047.33
6850.23
6573.8
6256.01
5934.35
5621.09
5319.84
5031.59
4757.02
4497.27
4253.51
4028.04
3822.97
3638.61
3476.44
3328.52
3204.72
3099.81
2831.27
14996.2
13641.3
2829.98
3176.34
3347.44
3495.77
3614.88
3729.31
3855.53
4000.8
4172.35
4369.7
4591.46
4833.83
5094.04
5369.36
5657.72
5955.05
6249.64
6505.91
6686.88
6684.45
6497.45
6234.37
5932.08
5626.16
5328.08
5041.3
4766.72
4505.33
4257.58
4025.6
3810.03
3614.68
3438.82
3286.22
3146.2
3025.69
2915.68
2661.29
13745
12845.6
2655.07
2965.79
3124.94
3266.56
3377.07
3487.88
3612.68
3758.39
3928
4122.09
4336.59
4570.06
4819.04
5081.88
5356.63
5639.79
5920.57
6165.42
6338.5
6336.95
6159.64
5909.34
5621.91
5331.07
5047.56
4774.53
4513.24
4263.93
4028.58
3806.51
3601.62
3414.93
3247.26
3103.8
2970.47
2852.32
2738.25
2498.72
12494.9
11927.8
2487.28
2768.52
2917.11
3050.86
3154.97
3262.29
3384.77
3529.18
3697.82
3885.99
4094.61
4318.39
4556.99
4807.89
5069.92
5339.8
5607.59
5841.58
6006.84
6005.99
5838
5599.91
5326.7
5050.24
4780.54
4520.77
4271.61
4034.87
3809.28
3599.42
3402.04
3225.22
3065.32
2929.68
2802.27
2686.51
2570.08
2345.64
11341.5
10907.1
2327.61
2582.12
2722.68
2848.32
2947.49
3051.53
3171.48
3315.37
3479.2
3664.87
3864.71
4080.81
4308.93
4549.01
4799.19
5056.73
5312.28
5535.87
5693.3
5692.95
5533.93
5307.48
5047.8
4784.94
4528.35
4280.72
4043.78
3816.92
3603.84
3401.07
3214.59
3045.3
2891.79
2764.28
2641.58
2527.72
2410.07
2200.58
10195.5
9927.33
2183.09
2414.29
2547.3
2662.16
2756.52
2858.01
2974.38
3116.41
3278.24
3456.15
3651.02
3857.7
4077.21
4307.07
4546.55
4792.66
5036.67
5250.25
5399.87
5399.82
5249.42
5034.03
4787.08
4536.96
4292.4
4056.43
3829.62
3614.41
3408.7
3218.24
3038.02
2877.36
2731.62
2609.36
2491.67
2380.98
2264.52
2069.36
9170.83
8905.9
2045.29
2254.54
2379.39
2485.24
2576.67
2676.46
2793.1
2931.92
3089.92
3264.55
3451.92
3652.33
3863.27
4084.48
4314.28
4549.99
4783.23
4987.21
5129.1
5129.2
4987.02
4782.04
4546.91
4308.39
4074.84
3848.93
3632.31
3425.15
3229.57
3045.48
2873.19
2721.13
2579.35
2463.7
2348.87
2240.2
2125.17
1943.37
8154.18
7968.85
1925.94
2115.8
2230.54
2330.19
2418.87
2520.15
2631.96
2771.76
2923.32
3093.13
3273.86
3466.74
3670.09
3883.03
4104.09
4330.34
4553.64
4748.48
4882.78
4882.92
4748.61
4553.31
4328.94
4100.91
3877.29
3660.99
3453.38
3255.51
3068.21
2892.22
2729.03
2581.74
2447.96
2335.11
2223.45
2117.44
2005.46
1836.03
7281.3
7021.21
1807.79
1978.55
2084.05
2179.78
2270.28
2374
2487.37
2623.58
2773.6
2937.71
3113.52
3299.83
3496.24
3701.72
3914.8
4132.47
4346.66
4532.94
4659.84
4659.97
4533.16
4346.77
4132.07
3913.42
3698.76
3491.09
3291.74
3102.01
2921.32
2753.3
2594.1
2454.44
2323.61
2213.55
2102.46
1997.83
1888.97
1731.42
6426.78
6172.39
1701.2
1854.2
1952.53
2049.22
2144.86
2251.03
2366.73
2500.85
2647.37
2806.85
2976.45
3155.74
3343.92
3540.39
3744.1
3952.42
4157.42
4335.32
4455.01
4455.09
4335.52
4157.67
3952.53
3743.77
3539.23
3341.48
3151.46
2969.98
2797.06
2635.11
2482.11
2346.53
2218.54
2108.41
1997.11
1892.77
1787.23
1641.29
5711.64
5333.48
1596.05
1732.4
1825.37
1921.57
2023.37
2130.02
2249.84
2380.78
2526.2
2682.01
2847.92
3022.34
3204.37
3393.22
3588.18
3787.43
3983.25
4152.83
4265.29
4265.33
4152.96
3983.49
3787.71
3588.36
3393.07
3203.61
3020.58
2844.9
2676.93
2519.6
2370
2238.07
2110.89
2001.16
1889.5
1786.54
1686.23
1552.83
5003.3
4692.01
1508.3
1626.53
1711.65
1805.83
1910.57
2017.6
2139.46
2268.16
2413.77
2567.96
2733.53
2907.16
3088.1
3274.49
3464.58
3655.61
3840.25
3998.05
4101.21
4101.23
3998.12
3840.42
3655.89
3464.92
3274.81
3088.26
2906.95
2732.78
2566.26
2411.32
2263.62
2134.35
2008.81
1899.97
1789.93
1690.77
1599.2
1480.98
4480.36
4151.09
1447.36
1544.68
1617.84
1705.13
1807.36
1911.86
2032.75
2159.07
2305.15
2459.45
2627.75
2805.32
2991.99
3184.62
3378.59
3567.68
3747.75
3899.84
3997.2
3997.21
3899.88
3747.87
3567.9
3378.92
3185
2992.35
2805.55
2627.72
2458.91
2304.12
2156.86
2030.02
1907.11
1801.4
1696.32
1605.85
1528.69
1431.35
4054.78
4074.07
1364.3
1445.56
1498.77
1571.78
1662.96
1756.38
1866.32
1979.9
2112.75
2252.33
2405.4
2567.38
2738.92
2918.01
3104.43
3293.64
3466.61
3601.26
3680.36
3680.36
3601.27
3466.65
3293.76
3104.65
2918.37
2739.36
2567.85
2405.81
2252.57
2112.77
1979.35
1865.49
1754.47
1660.38
1567.61
1492.64
1435.95
1353.36
4005.67
34609.2
4032.52
4123.37
4604.96
5162.93
5931.18
6703.59
7636.98
8581.11
9683.18
10794.4
12033.3
13278.5
14616.6
15951.3
17282.6
18507.1
19504.8
20136
20395.3
20395.3
20136
19504.8
18507.1
17282.7
15951.5
14617.1
13279.3
12034.6
10796.1
9685.28
8583.71
7639.9
6706.89
5934.66
5166.38
4607.82
4124.78
4031.62
34562.4
34609.2
4032.52
4123.37
4604.96
5162.93
5931.18
6703.59
7636.98
8581.11
9683.18
10794.4
12033.3
13278.5
14616.6
15951.3
17282.6
18507.1
19504.8
20136
20395.3
20395.3
20136
19504.8
18507.1
17282.7
15951.5
14617.1
13279.3
12034.6
10796.1
9685.28
8583.71
7639.9
6706.89
5934.66
5166.38
4607.82
4124.78
4031.62
34562.4
4074.07
1364.3
1445.56
1498.77
1571.78
1662.96
1756.38
1866.32
1979.9
2112.75
2252.33
2405.4
2567.38
2738.92
2918.01
3104.43
3293.64
3466.61
3601.26
3680.36
3680.36
3601.27
3466.65
3293.76
3104.65
2918.37
2739.36
2567.85
2405.81
2252.57
2112.77
1979.35
1865.49
1754.47
1660.38
1567.61
1492.64
1435.95
1353.36
4005.67
4151.09
1447.36
1544.68
1617.84
1705.13
1807.36
1911.86
2032.75
2159.07
2305.15
2459.45
2627.75
2805.32
2991.99
3184.62
3378.59
3567.68
3747.75
3899.84
3997.2
3997.21
3899.88
3747.87
3567.9
3378.92
3185
2992.35
2805.55
2627.72
2458.91
2304.12
2156.86
2030.02
1907.11
1801.4
1696.32
1605.85
1528.69
1431.35
4054.78
4692.01
1508.3
1626.53
1711.65
1805.83
1910.57
2017.6
2139.46
2268.16
2413.77
2567.96
2733.53
2907.16
3088.1
3274.49
3464.58
3655.61
3840.25
3998.05
4101.21
4101.23
3998.12
3840.42
3655.89
3464.92
3274.81
3088.26
2906.95
2732.78
2566.26
2411.32
2263.62
2134.35
2008.81
1899.97
1789.93
1690.77
1599.2
1480.98
4480.36
5333.48
1596.05
1732.4
1825.37
1921.57
2023.37
2130.02
2249.84
2380.78
2526.2
2682.01
2847.92
3022.34
3204.37
3393.22
3588.18
3787.43
3983.25
4152.83
4265.29
4265.33
4152.96
3983.49
3787.71
3588.36
3393.07
3203.61
3020.58
2844.9
2676.93
2519.6
2370
2238.07
2110.89
2001.16
1889.5
1786.54
1686.23
1552.83
5003.3
6172.39
1701.2
1854.2
1952.53
2049.22
2144.86
2251.03
2366.73
2500.85
2647.37
2806.85
2976.45
3155.74
3343.92
3540.39
3744.1
3952.42
4157.42
4335.32
4455.01
4455.09
4335.52
4157.67
3952.53
3743.77
3539.23
3341.48
3151.46
2969.98
2797.06
2635.11
2482.11
2346.53
2218.54
2108.41
1997.11
1892.77
1787.23
1641.29
5711.64
7021.21
1807.79
1978.55
2084.05
2179.78
2270.28
2374
2487.37
2623.58
2773.6
2937.71
3113.52
3299.83
3496.24
3701.72
3914.8
4132.47
4346.66
4532.94
4659.84
4659.97
4533.16
4346.77
4132.07
3913.42
3698.76
3491.09
3291.74
3102.01
2921.32
2753.3
2594.1
2454.44
2323.61
2213.55
2102.46
1997.83
1888.97
1731.42
6426.78
7968.85
1925.94
2115.8
2230.54
2330.19
2418.87
2520.15
2631.96
2771.76
2923.32
3093.13
3273.86
3466.74
3670.09
3883.03
4104.09
4330.34
4553.64
4748.48
4882.78
4882.92
4748.61
4553.31
4328.94
4100.91
3877.29
3660.99
3453.38
3255.51
3068.21
2892.22
2729.03
2581.74
2447.96
2335.11
2223.45
2117.44
2005.46
1836.03
7281.3
8905.9
2045.29
2254.54
2379.39
2485.24
2576.67
2676.46
2793.1
2931.92
3089.92
3264.55
3451.92
3652.33
3863.27
4084.48
4314.28
4549.99
4783.23
4987.21
5129.1
5129.2
4987.02
4782.04
4546.91
4308.39
4074.84
3848.93
3632.31
3425.15
3229.57
3045.48
2873.19
2721.13
2579.35
2463.7
2348.87
2240.2
2125.17
1943.37
8154.18
9927.33
2183.09
2414.29
2547.3
2662.16
2756.52
2858.01
2974.38
3116.41
3278.24
3456.15
3651.02
3857.7
4077.21
4307.07
4546.55
4792.66
5036.67
5250.25
5399.87
5399.82
5249.42
5034.03
4787.08
4536.96
4292.4
4056.43
3829.62
3614.41
3408.7
3218.24
3038.02
2877.36
2731.62
2609.36
2491.67
2380.98
2264.52
2069.36
9170.83
10907.1
2327.61
2582.12
2722.68
2848.32
2947.49
3051.53
3171.48
3315.37
3479.2
3664.87
3864.71
4080.81
4308.93
4549.01
4799.19
5056.73
5312.28
5535.87
5693.3
5692.95
5533.93
5307.48
5047.8
4784.94
4528.35
4280.72
4043.78
3816.92
3603.84
3401.07
3214.59
3045.3
2891.79
2764.28
2641.58
2527.72
2410.07
2200.58
10195.5
11927.8
2487.28
2768.52
2917.11
3050.86
3154.97
3262.29
3384.77
3529.18
3697.82
3885.99
4094.61
4318.39
4556.99
4807.89
5069.92
5339.8
5607.59
5841.58
6006.84
6005.99
5838
5599.91
5326.7
5050.24
4780.54
4520.77
4271.61
4034.87
3809.28
3599.42
3402.04
3225.22
3065.32
2929.68
2802.27
2686.51
2570.08
2345.64
11341.5
12845.6
2655.07
2965.79
3124.94
3266.56
3377.07
3487.88
3612.68
3758.39
3928
4122.09
4336.59
4570.06
4819.04
5081.88
5356.63
5639.79
5920.57
6165.42
6338.5
6336.95
6159.64
5909.34
5621.91
5331.07
5047.56
4774.53
4513.24
4263.93
4028.58
3806.51
3601.62
3414.93
3247.26
3103.8
2970.47
2852.32
2738.25
2498.72
12494.9
13641.3
2829.98
3176.34
3347.44
3495.77
3614.88
3729.31
3855.53
4000.8
4172.35
4369.7
4591.46
4833.83
5094.04
5369.36
5657.72
5955.05
6249.64
6505.91
6686.88
6684.45
6497.45
6234.37
5932.08
5626.16
5328.08
5041.3
4766.72
4505.33
4257.58
4025.6
3810.03
3614.68
3438.82
3286.22
3146.2
3025.69
2915.68
2661.29
13745
14433.9
3016.19
3402.61
3584.76
3738.26
3867.61
3985.13
4111.83
4256.21
4428.23
4629.27
4857.36
5109.11
5380.68
5669.1
5971.79
6284.14
6593.35
6861.71
7050.77
7047.33
6850.23
6573.8
6256.01
5934.35
5621.09
5319.84
5031.59
4757.02
4497.27
4253.51
4028.04
3822.97
3638.61
3476.44
3328.52
3204.72
3099.81
2831.27
14996.2
14986.6
3218.35
3649.99
3839.75
3997.45
4134.98
4253.14
4379.41
4522.27
4694.75
4898.9
5133.5
5394.59
5677.9
5979.87
6297.51
6625.63
6950.26
7231.45
7428.93
7424.4
7216.79
6926.4
6592.46
6254.42
5925.31
5608.98
5306.38
5018.25
4745.57
4489.99
4253.59
4038.76
3845.63
3673.59
3516.73
3387.95
3288.17
3007.03
16279.6
15770
3431.21
3923.37
4122.49
4280.57
4416.04
4530.8
4654.56
4795.76
4969.27
5176.99
5418.36
5689.23
5984.71
6300.78
6634.01
6978.62
7319.48
7614.28
7820.65
7815.02
7596.46
7291.44
6940.62
6585.47
6239.78
5907.64
5590.01
5287.57
5001.42
4733.23
4485.39
4260.26
4058.01
3876.18
3709.77
3573.44
3476.57
3185.41
17513
14444.4
3595.56
4211.76
4444.1
4592.73
4702.3
4811.59
4928.78
5069.98
5245.63
5457.8
5706.59
5987.69
6295.8
6626.41
6975.67
7337.27
7694.95
8004.02
8219.75
8213.09
7983.29
7663.18
7295
6922.24
6559.46
6210.96
5877.71
5560.4
5260.14
4978.75
4718.78
4482.75
4270.88
4079.48
3903.68
3757.29
3657.32
3361.38
18609.3
13399
3787.69
4573.86
4786.77
4913.82
4985.68
5080.49
5191.34
5334.61
5514.96
5734.02
5991.83
6284.22
6605.74
6951.51
7317.3
7696.3
8071.23
8395.08
8620.68
8613.22
8372.13
8036.88
7651.32
7260.99
6881.14
6516.25
6167.27
5834.87
5520.19
5225.11
4952.35
4704.61
4482.2
4280.88
4095.4
3936.34
3829.96
3521.99
19448.9
12217.6
4209.21
4944.8
5200.31
5198.9
5215.13
5285.33
5394.35
5541.59
5727.9
5954.51
6220.74
6523.15
6856.24
7214.89
7594.52
7987.91
8376.99
8712.98
8946.85
8938.87
8688.6
8341.11
7941.51
7537.04
7143.43
6765.27
6403.46
6058.61
5731.83
5425.05
5141.05
4882.63
4650.22
4439.42
4244.78
4073.33
3958.15
3632.25
19868.6
)
;

boundaryField
{
    inlet
    {
        type            fixedValue;
        value           uniform 10000;
    }
    outlet
    {
        type            fixedValue;
        value           uniform 1000;
    }
    obstacle
    {
        type            zeroGradient;
    }
    empty
    {
        type            empty;
    }
}


// ************************************************************************* //
