/*--------------------------------*- C++ -*----------------------------------*\
| =========                 |                                                 |
| \\      /  F ield         | OpenFOAM: The Open Source CFD Toolbox           |
|  \\    /   O peration     | Version:  v1912                                 |
|   \\  /    A nd           | Website:  www.openfoam.com                      |
|    \\/     M anipulation  |                                                 |
\*---------------------------------------------------------------------------*/
FoamFile
{
    version     2.0;
    format      ascii;
    class       volVectorField;
    location    "4.74";
    object      grad(T);
}
// * * * * * * * * * * * * * * * * * * * * * * * * * * * * * * * * * * * * * //

dimensions      [0 -1 0 1 0 0 0];


internalField   nonuniform List<vector> 
1900
(
(0.645535 1.65739e-06 0)
(-0.923361 -6.21294e-06 0)
(0.200499 2.33487e-05 0)
(0.104983 3.90929e-05 0)
(0.0086631 7.05403e-05 0)
(-0.0190672 0.00022624 0)
(-0.0303897 0.000660565 0)
(-0.0267924 0.000766692 0)
(-0.0380715 -0.00585127 0)
(-0.046121 -0.0055099 0)
(0.64553 3.54088e-06 0)
(-0.923339 -4.38681e-06 0)
(0.200544 4.24022e-05 0)
(0.10503 7.90125e-05 0)
(0.00885025 0.000114384 0)
(-0.0184772 0.000289196 0)
(-0.0298493 0.000679572 0)
(-0.0333042 0.000281182 0)
(-0.0443481 -0.0080489 0)
(-0.0647692 -0.00727881 0)
(0.645534 -1.14925e-13 0)
(-0.923322 2.92735e-14 0)
(0.200582 -2.71051e-13 0)
(0.105055 -1.82146e-13 0)
(0.00887328 2.81893e-13 0)
(-0.018502 3.1225e-13 0)
(-0.0303977 -2.38524e-13 0)
(-0.0355209 -1.56125e-13 0)
(-0.0456315 -4.68375e-13 0)
(-0.0626272 -2.75387e-13 0)
(0.64553 -3.54088e-06 0)
(-0.923339 4.38681e-06 0)
(0.200544 -4.24022e-05 0)
(0.10503 -7.90125e-05 0)
(0.00885025 -0.000114384 0)
(-0.0184772 -0.000289196 0)
(-0.0298493 -0.000679572 0)
(-0.0333042 -0.000281182 0)
(-0.0443481 0.0080489 0)
(-0.0647692 0.00727881 0)
(0.645535 -1.65739e-06 0)
(-0.923361 6.21294e-06 0)
(0.200499 -2.33487e-05 0)
(0.104983 -3.90929e-05 0)
(0.0086631 -7.05403e-05 0)
(-0.0190672 -0.00022624 0)
(-0.0303897 -0.000660565 0)
(-0.0267924 -0.000766692 0)
(-0.0380715 0.00585127 0)
(-0.046121 0.0055099 0)
(-0.0881974 -0.0223223 9.70853e-16)
(-0.171484 -0.0231513 -1.15891e-15)
(-0.198779 -0.0307512 -1.44991e-15)
(-0.0794334 -0.0423358 0)
(-0.369769 -0.305208 -6.16469e-15)
(-0.10356 -0.0227713 9.66819e-16)
(-0.167564 -0.0231763 1.15891e-15)
(-0.20084 -0.0289508 1.44991e-15)
(-0.178364 -0.0405266 0)
(-0.367295 -0.294135 0)
(-0.110002 -1.15884e-13 0)
(-0.174413 -8.55949e-14 0)
(-0.21182 3.01167e-14 0)
(-0.192678 1.60166e-13 0)
(-0.490627 1.67793e-13 0)
(-0.10356 0.0227713 9.66819e-16)
(-0.167564 0.0231763 1.15891e-15)
(-0.20084 0.0289508 1.44991e-15)
(-0.178364 0.0405266 0)
(-0.367295 0.294135 0)
(-0.0881974 0.0223223 -2.90449e-15)
(-0.171484 0.0231513 -1.15891e-15)
(-0.198779 0.0307512 -1.44991e-15)
(-0.0794334 0.0423358 -3.90616e-15)
(-0.369769 0.305208 6.16469e-15)
(-0.922109 0.236643 2.32731e-15)
(-0.515716 0.101437 -1.84806e-15)
(-0.471513 0.0540879 0)
(-0.439182 0.0409106 1.26051e-15)
(-0.360479 0.0498262 -5.33604e-16)
(-0.78991 0.230856 -1.16722e-15)
(-0.555293 0.0725988 9.25556e-16)
(-0.485518 0.0297434 0)
(-0.436224 0.0242904 -7.88775e-16)
(-0.406917 0.0207136 1.33932e-16)
(-0.81832 1.4237e-13 0)
(-0.569033 1.01934e-13 0)
(-0.48754 -4.01556e-15 0)
(-0.443805 1.31096e-13 3.15803e-16)
(-0.407332 -2.53615e-14 -2.67864e-16)
(-0.78991 -0.230856 -1.16722e-15)
(-0.555293 -0.0725988 9.25556e-16)
(-0.485518 -0.0297434 0)
(-0.436224 -0.0242904 -7.88775e-16)
(-0.406917 -0.0207136 1.33932e-16)
(-0.922109 -0.236643 1.16722e-15)
(-0.515716 -0.101437 -3.05494e-18)
(-0.471513 -0.0540879 0)
(-0.439182 -0.0409106 1.23209e-18)
(-0.360479 -0.0498262 5.33604e-16)
(-0.372608 0.229205 0)
(-0.0813931 0.0390248 0)
(0.275968 -0.0408911 0)
(0.115633 0.0802707 0)
(-0.0949155 0.0796168 0)
(-0.126303 0.040418 0)
(-0.101734 0.0133315 0)
(-0.0903508 0.00811633 0)
(-0.0928154 0.00620476 0)
(-0.0892839 0.00775559 0)
(-0.07119 0.00261609 0)
(-0.0454474 0.000743256 0)
(-0.0281607 0.000241687 0)
(-0.0201038 0.00025677 0)
(-0.0165845 0.00026112 0)
(-0.0142192 0.000213323 0)
(-0.0120702 0.000135116 0)
(-0.0100735 6.94061e-05 0)
(-0.00837683 3.04424e-05 0)
(-0.00690258 5.76386e-06 0)
(-0.00553122 -1.43691e-05 0)
(-0.00437166 -2.97362e-05 0)
(-0.00331248 -3.90646e-05 0)
(-0.00228795 -4.33069e-05 0)
(-0.00137917 -4.19681e-05 0)
(-0.000642604 -3.77418e-05 0)
(-9.59148e-05 -3.20728e-05 0)
(0.000319846 -3.48608e-05 0)
(0.000943812 -3.04908e-05 0)
(0.00171222 -4.97107e-05 0)
(0.00365485 -4.52929e-05 0)
(0.00587541 5.90395e-06 0)
(0.00903984 5.3351e-05 0)
(0.0114071 0.000349703 0)
(0.0142803 0.000398808 0)
(0.0176482 0.000689816 0)
(0.0201393 5.12419e-05 0)
(-0.10819 0.00245363 0)
(-0.461822 0.00690885 0)
(-0.342466 -0.0162657 0)
(-0.422227 -0.0945272 0)
(-0.080686 0.000349798 0)
(0.306052 0.0235949 0)
(0.151448 0.0821154 0)
(-0.0928701 0.0628136 0)
(-0.134629 0.0241639 0)
(-0.106254 0.00625052 0)
(-0.0912578 0.00310593 0)
(-0.0925927 0.00179463 0)
(-0.0895354 0.00379669 0)
(-0.0719747 0.00071315 0)
(-0.0455985 0.000174803 0)
(-0.0281826 1.06255e-05 0)
(-0.0200912 4.64637e-05 0)
(-0.0165826 6.67137e-05 0)
(-0.0142281 6.15232e-05 0)
(-0.0120834 3.25356e-05 0)
(-0.010082 5.60271e-06 0)
(-0.00838004 -4.91031e-06 0)
(-0.00690565 -1.15385e-05 0)
(-0.00553566 -2.24336e-05 0)
(-0.00437563 -3.37162e-05 0)
(-0.00331522 -4.24873e-05 0)
(-0.00228929 -4.816e-05 0)
(-0.00137926 -4.95015e-05 0)
(-0.000642019 -4.7619e-05 0)
(-9.67218e-05 -4.43594e-05 0)
(0.000318595 -4.83874e-05 0)
(0.000939774 -4.6047e-05 0)
(0.00170736 -6.18547e-05 0)
(0.0036591 -6.08226e-05 0)
(0.00588321 -2.18953e-05 0)
(0.00908238 2.53172e-05 0)
(0.0114661 0.000279006 0)
(0.0143328 0.000510428 0)
(0.0176213 0.000865477 0)
(0.0204003 0.000956665 0)
(-0.106648 0.00325427 0)
(-0.459218 0.00998678 0)
(-0.341083 0.0326565 0)
(-0.385448 -2.96874e-12 0)
(-0.0470304 -1.33061e-12 0)
(0.299754 3.47733e-12 0)
(0.127042 1.53562e-12 0)
(-0.111774 -5.97297e-13 0)
(-0.142757 4.21853e-13 0)
(-0.10786 -8.87075e-14 0)
(-0.091647 -1.21628e-12 0)
(-0.0926145 -1.55139e-12 0)
(-0.0895985 -3.8637e-13 0)
(-0.0722436 -1.61842e-12 0)
(-0.0456518 -9.97466e-13 0)
(-0.0281981 -1.91805e-12 0)
(-0.0200875 -2.48381e-13 0)
(-0.0165801 -3.3906e-13 0)
(-0.0142292 -7.84568e-13 0)
(-0.0120865 -3.58772e-13 0)
(-0.0100844 2.58237e-13 0)
(-0.00838182 1.42918e-12 0)
(-0.00690767 3.59955e-12 0)
(-0.00553767 5.40327e-12 0)
(-0.0043775 7e-12 0)
(-0.00331668 7.56773e-12 0)
(-0.00228999 7.64855e-12 0)
(-0.00137902 7.95213e-12 0)
(-0.000641108 7.98958e-12 0)
(-9.61384e-05 7.26218e-12 0)
(0.000319356 6.16418e-12 0)
(0.000939895 3.11856e-12 0)
(0.00170792 -1.42326e-12 0)
(0.00366647 -4.51817e-12 0)
(0.00590047 -5.45058e-12 0)
(0.00912737 -3.80062e-12 0)
(0.0115482 3.57392e-12 0)
(0.0144509 2.49564e-12 0)
(0.017778 8.92791e-12 0)
(0.0208343 1.20484e-11 0)
(-0.105563 1.45007e-11 0)
(-0.453269 1.7846e-11 0)
(-0.335871 2.12937e-11 0)
(-0.422227 0.0945272 0)
(-0.080686 -0.000349798 0)
(0.306052 -0.0235949 0)
(0.151448 -0.0821154 0)
(-0.0928701 -0.0628136 0)
(-0.134629 -0.0241639 0)
(-0.106254 -0.00625052 0)
(-0.0912578 -0.00310593 0)
(-0.0925927 -0.00179463 0)
(-0.0895354 -0.00379669 0)
(-0.0719747 -0.00071315 0)
(-0.0455985 -0.000174803 0)
(-0.0281826 -1.06255e-05 0)
(-0.0200912 -4.64637e-05 0)
(-0.0165826 -6.67137e-05 0)
(-0.0142281 -6.15232e-05 0)
(-0.0120834 -3.25356e-05 0)
(-0.010082 -5.60271e-06 0)
(-0.00838004 4.91031e-06 0)
(-0.00690565 1.15385e-05 0)
(-0.00553566 2.24336e-05 0)
(-0.00437563 3.37162e-05 0)
(-0.00331522 4.24873e-05 0)
(-0.00228929 4.816e-05 0)
(-0.00137926 4.95015e-05 0)
(-0.000642019 4.7619e-05 0)
(-9.67218e-05 4.43594e-05 0)
(0.000318595 4.83874e-05 0)
(0.000939774 4.60469e-05 0)
(0.00170736 6.18547e-05 0)
(0.0036591 6.08225e-05 0)
(0.00588321 2.18953e-05 0)
(0.00908238 -2.53172e-05 0)
(0.0114661 -0.000279006 0)
(0.0143328 -0.000510428 0)
(0.0176213 -0.000865477 0)
(0.0204003 -0.000956665 0)
(-0.106648 -0.00325427 0)
(-0.459218 -0.00998678 0)
(-0.341083 -0.0326565 0)
(-0.372608 -0.229205 0)
(-0.0813931 -0.0390248 0)
(0.275968 0.0408911 0)
(0.115633 -0.0802707 0)
(-0.0949155 -0.0796168 0)
(-0.126303 -0.040418 0)
(-0.101734 -0.0133315 0)
(-0.0903508 -0.00811633 0)
(-0.0928154 -0.00620476 0)
(-0.0892839 -0.00775559 0)
(-0.07119 -0.00261609 0)
(-0.0454474 -0.000743256 0)
(-0.0281607 -0.000241687 0)
(-0.0201038 -0.00025677 0)
(-0.0165845 -0.00026112 0)
(-0.0142192 -0.000213323 0)
(-0.0120702 -0.000135116 0)
(-0.0100735 -6.94061e-05 0)
(-0.00837683 -3.04424e-05 0)
(-0.00690258 -5.76386e-06 0)
(-0.00553122 1.43691e-05 0)
(-0.00437166 2.97362e-05 0)
(-0.00331248 3.90646e-05 0)
(-0.00228795 4.33069e-05 0)
(-0.00137917 4.19681e-05 0)
(-0.000642604 3.77418e-05 0)
(-9.59148e-05 3.20728e-05 0)
(0.000319846 3.48608e-05 0)
(0.000943812 3.04908e-05 0)
(0.00171222 4.97106e-05 0)
(0.00365485 4.52929e-05 0)
(0.00587541 -5.90398e-06 0)
(0.00903984 -5.33511e-05 0)
(0.0114071 -0.000349703 0)
(0.0142803 -0.000398808 0)
(0.0176482 -0.000689816 0)
(0.0201393 -5.12419e-05 0)
(-0.10819 -0.00245363 0)
(-0.461822 -0.00690885 0)
(-0.342466 0.0162657 0)
(-0.0964653 -0.688427 0)
(0.0895557 -0.210172 0)
(0.314964 -0.0874429 0)
(0.117267 -0.142827 0)
(-0.0655065 -0.108695 0)
(-0.102676 -0.0581201 0)
(-0.0912175 -0.0269478 0)
(-0.0878361 -0.0176544 0)
(-0.0921088 -0.0131922 0)
(-0.0875752 -0.0114185 0)
(-0.0684834 -0.00530766 0)
(-0.0442838 -0.00169312 0)
(-0.0279028 -0.000621795 0)
(-0.0200888 -0.000524162 0)
(-0.016553 -0.000487745 0)
(-0.0141593 -0.000380646 0)
(-0.0120083 -0.000248603 0)
(-0.0100261 -0.000141589 0)
(-0.00834383 -6.61177e-05 0)
(-0.0068811 -1.77252e-05 0)
(-0.00551853 1.41203e-05 0)
(-0.00436473 3.5074e-05 0)
(-0.00330987 4.63693e-05 0)
(-0.00228901 5.02563e-05 0)
(-0.00138285 4.59193e-05 0)
(-0.000647549 3.78643e-05 0)
(-9.94619e-05 2.84587e-05 0)
(0.000316156 2.86766e-05 0)
(0.000944419 2.28385e-05 0)
(0.00171101 4.41578e-05 0)
(0.00362913 3.086e-05 0)
(0.00583034 -4.51404e-05 0)
(0.00891591 -0.00013157 0)
(0.0113177 -0.00047208 0)
(0.0141801 -0.000470757 0)
(0.0178082 -0.000835763 0)
(0.0195957 -0.000159106 0)
(-0.109166 -0.00255306 0)
(-0.444464 7.79291e-05 0)
(-0.324947 0.00951879 0)
(0.181567 -0.520078 0)
(0.406069 -0.0479525 0)
(0.319953 -0.0587437 0)
(0.0942766 -0.135465 0)
(-0.0290591 -0.111935 0)
(-0.0601971 -0.0694401 0)
(-0.0683788 -0.0413515 0)
(-0.0784438 -0.0272136 0)
(-0.0871852 -0.0207469 0)
(-0.0826023 -0.0149237 0)
(-0.0632696 -0.00755212 0)
(-0.0415559 -0.00277519 0)
(-0.0271726 -0.0010852 0)
(-0.0199827 -0.000762181 0)
(-0.0164631 -0.000629304 0)
(-0.014021 -0.000445416 0)
(-0.0118731 -0.000247707 0)
(-0.00992307 -8.93773e-05 0)
(-0.00827517 1.87708e-05 0)
(-0.00683677 8.36777e-05 0)
(-0.00548714 0.000131107 0)
(-0.0043443 0.000164965 0)
(-0.00329925 0.000184144 0)
(-0.00228782 0.000191287 0)
(-0.00138914 0.000184517 0)
(-0.000656778 0.000172126 0)
(-0.000102866 0.000158685 0)
(0.00031641 0.00016413 0)
(0.000958405 0.000160593 0)
(0.0017206 0.000203779 0)
(0.00358258 0.000191162 0)
(0.00574306 8.40119e-05 0)
(0.00869488 -2.41178e-05 0)
(0.0111282 -0.000459845 0)
(0.0139836 -0.000517152 0)
(0.0178627 -0.00098733 0)
(0.018776 -0.000633545 0)
(-0.107439 -0.00281436 0)
(-0.459497 0.00522825 0)
(-0.342763 -0.0116863 0)
(0.358492 -0.175259 0)
(0.534115 0.0491846 0)
(0.230634 -0.047773 0)
(0.06601 -0.112191 0)
(-0.00188274 -0.0880573 0)
(-0.0346594 -0.0638354 0)
(-0.0505265 -0.0458637 0)
(-0.0679808 -0.0335965 0)
(-0.0802658 -0.0270107 0)
(-0.0748602 -0.0178749 0)
(-0.0567766 -0.00943084 0)
(-0.0380521 -0.00389525 0)
(-0.025963 -0.00173002 0)
(-0.0196495 -0.00110104 0)
(-0.0162478 -0.000796243 0)
(-0.0137915 -0.000501209 0)
(-0.0116652 -0.000223384 0)
(-0.00976932 -7.52993e-06 0)
(-0.00817707 0.000134448 0)
(-0.00677285 0.000226377 0)
(-0.0054402 0.000294203 0)
(-0.00431362 0.000342189 0)
(-0.00328451 0.000368186 0)
(-0.00228865 0.000376209 0)
(-0.00140132 0.000364666 0)
(-0.000672442 0.000347278 0)
(-0.000107168 0.000329596 0)
(0.000317994 0.000342744 0)
(0.000982626 0.000341516 0)
(0.00174047 0.000409058 0)
(0.00351372 0.000399875 0)
(0.00562289 0.00025652 0)
(0.00839183 0.000115828 0)
(0.0108426 -0.000393628 0)
(0.0136718 -0.000499765 0)
(0.017696 -0.00107268 0)
(0.0178351 -0.00108795 0)
(-0.103518 -0.00242064 0)
(-0.453013 0.0050836 0)
(-0.341246 0.00645935 0)
(0.397849 -0.0217782 0)
(0.528919 0.0149544 0)
(0.164445 -0.0478434 0)
(0.0554573 -0.0838415 0)
(0.0175385 -0.0662591 0)
(-0.0195379 -0.0555224 0)
(-0.0392395 -0.0446584 0)
(-0.0602763 -0.0375639 0)
(-0.0720352 -0.0300348 0)
(-0.0656618 -0.0194452 0)
(-0.0497983 -0.0102608 0)
(-0.0341351 -0.00468805 0)
(-0.02448 -0.00231746 0)
(-0.0190829 -0.00143694 0)
(-0.0158851 -0.000946828 0)
(-0.0134689 -0.000536481 0)
(-0.0113974 -0.000189961 0)
(-0.00957825 6.71254e-05 0)
(-0.00804977 0.000241733 0)
(-0.00668283 0.000361437 0)
(-0.00537554 0.000451731 0)
(-0.00427301 0.000515353 0)
(-0.00326646 0.000549117 0)
(-0.00229121 0.000559187 0)
(-0.00141702 0.000545584 0)
(-0.000690573 0.000527969 0)
(-0.000107235 0.00051041 0)
(0.000327897 0.000537933 0)
(0.00102231 0.000546043 0)
(0.00177684 0.000637348 0)
(0.00343559 0.000633913 0)
(0.00546934 0.00045858 0)
(0.00806838 0.00027655 0)
(0.010535 -0.000253827 0)
(0.0133292 -0.00042205 0)
(0.0172959 -0.00104086 0)
(0.0174771 -0.00152338 0)
(-0.101491 -0.00138901 0)
(-0.45094 0.00330443 0)
(-0.341438 0.00247517 0)
(0.393889 -0.0063619 0)
(0.508997 -0.0173312 0)
(0.135431 -0.0377196 0)
(0.048264 -0.0547843 0)
(0.0254066 -0.0488542 0)
(-0.0138442 -0.0479695 0)
(-0.033221 -0.0428681 0)
(-0.053889 -0.038703 0)
(-0.062806 -0.0298064 0)
(-0.0558053 -0.0193063 0)
(-0.0425561 -0.0100645 0)
(-0.0303976 -0.00503423 0)
(-0.0228301 -0.00269439 0)
(-0.0183287 -0.00167101 0)
(-0.0153801 -0.00104224 0)
(-0.0130622 -0.000548609 0)
(-0.0110835 -0.000159772 0)
(-0.00935333 0.000124615 0)
(-0.00789346 0.000327235 0)
(-0.00657048 0.00046955 0)
(-0.00529188 0.000581628 0)
(-0.00421978 0.000663213 0)
(-0.00324227 0.000709123 0)
(-0.00229205 0.000728282 0)
(-0.0014314 0.000724288 0)
(-0.000706337 0.000722883 0)
(-9.75666e-05 0.000720259 0)
(0.000352331 0.000782995 0)
(0.00107843 0.000824817 0)
(0.00182515 0.000961697 0)
(0.00334146 0.000992863 0)
(0.00527852 0.00082301 0)
(0.00770532 0.000646409 0)
(0.0101694 0.000141749 0)
(0.0129134 -1.63634e-05 0)
(0.0166347 -0.000560397 0)
(0.0174996 -0.00121495 0)
(-0.0988655 -1.29707e-05 0)
(-0.44929 0.00276841 0)
(-0.342045 0.0005223 0)
(0.387279 -0.000674319 0)
(0.498702 -0.0269278 0)
(0.128354 -0.0303093 0)
(0.0447276 -0.0352489 0)
(0.0241056 -0.0391837 0)
(-0.0137695 -0.042714 0)
(-0.0303099 -0.0414782 0)
(-0.0476895 -0.0374894 0)
(-0.0533439 -0.0279397 0)
(-0.0466377 -0.0178177 0)
(-0.0360453 -0.00964761 0)
(-0.0270331 -0.00517976 0)
(-0.0212391 -0.00298871 0)
(-0.0174908 -0.00187512 0)
(-0.0148035 -0.00114993 0)
(-0.0126185 -0.000601641 0)
(-0.0107487 -0.000185823 0)
(-0.00910895 0.000121633 0)
(-0.00771738 0.000345374 0)
(-0.00643769 0.000506818 0)
(-0.00518892 0.000639401 0)
(-0.00415015 0.000740434 0)
(-0.00320376 0.00080187 0)
(-0.0022766 0.000835221 0)
(-0.00142222 0.000848368 0)
(-0.000694456 0.000873038 0)
(-4.93082e-05 0.000890481 0)
(0.000428653 0.000988847 0)
(0.00119451 0.00106158 0)
(0.00193877 0.0012244 0)
(0.00330195 0.00126417 0)
(0.00513548 0.00106894 0)
(0.00741189 0.000839855 0)
(0.00989628 0.000289842 0)
(0.0126526 8.93147e-05 0)
(0.0161409 -0.000369425 0)
(0.0180046 -0.00107373 0)
(-0.0976529 0.00102244 0)
(-0.450424 0.00445958 0)
(-0.343602 0.000665748 0)
(0.368591 -0.00360136 0)
(0.48044 -0.0248905 0)
(0.127412 -0.0245829 0)
(0.0397124 -0.0279598 0)
(0.0182129 -0.0356267 0)
(-0.0160552 -0.0396413 0)
(-0.0281864 -0.039532 0)
(-0.0408429 -0.0343035 0)
(-0.0438497 -0.0248062 0)
(-0.0381783 -0.0154195 0)
(-0.0303777 -0.00861567 0)
(-0.0239808 -0.00485171 0)
(-0.0196456 -0.00289832 0)
(-0.0165568 -0.00180662 0)
(-0.0141529 -0.00108178 0)
(-0.0121331 -0.000542766 0)
(-0.0103865 -0.000147678 0)
(-0.00884144 0.000142152 0)
(-0.00752228 0.000355223 0)
(-0.00628715 0.000521221 0)
(-0.00506676 0.000673146 0)
(-0.00406322 0.000800949 0)
(-0.00315093 0.000891993 0)
(-0.00224725 0.000962112 0)
(-0.00139496 0.00102502 0)
(-0.000665754 0.00111289 0)
(1.40314e-05 0.00118716 0)
(0.000517209 0.00136783 0)
(0.00130541 0.00151247 0)
(0.00202037 0.00174028 0)
(0.00319165 0.00183916 0)
(0.00486963 0.00167001 0)
(0.00695456 0.00145194 0)
(0.00944612 0.000884394 0)
(0.0122781 0.000592219 0)
(0.015514 0.000102006 0)
(0.0188408 -0.000589536 0)
(-0.0935334 0.00148247 0)
(-0.449633 0.00542282 0)
(-0.345701 0.00245636 0)
(0.366764 -0.00540142 0)
(0.478483 -0.0151504 0)
(0.125396 -0.0208501 0)
(0.0340853 -0.0253088 0)
(0.0128489 -0.0342049 0)
(-0.0175328 -0.0364717 0)
(-0.0251662 -0.0357293 0)
(-0.0334991 -0.0297382 0)
(-0.0351466 -0.0211769 0)
(-0.031036 -0.0131745 0)
(-0.0258617 -0.00772079 0)
(-0.0215236 -0.00459134 0)
(-0.0183047 -0.00283426 0)
(-0.0157403 -0.00174218 0)
(-0.0135856 -0.00100311 0)
(-0.0117184 -0.000494204 0)
(-0.0100886 -0.000142432 0)
(-0.00862434 0.00011317 0)
(-0.00735209 0.000323317 0)
(-0.00613132 0.000506778 0)
(-0.00491936 0.000682776 0)
(-0.00393926 0.000835839 0)
(-0.00304846 0.000951198 0)
(-0.00214841 0.00105064 0)
(-0.00127693 0.00115112 0)
(-0.000538204 0.00127962 0)
(0.000196366 0.00137922 0)
(0.000742128 0.00160098 0)
(0.00155342 0.00175801 0)
(0.00225358 0.00198089 0)
(0.00323423 0.00208247 0)
(0.00476235 0.00190244 0)
(0.00665484 0.00163115 0)
(0.00906782 0.0010868 0)
(0.0118987 0.000736198 0)
(0.0150021 0.00034174 0)
(0.0193349 -0.000243209 0)
(-0.0918592 0.00176551 0)
(-0.449486 0.00655496 0)
(-0.346461 0.00513537 0)
(0.359196 0.00334637 0)
(0.465553 -0.00872769 0)
(0.117623 -0.0189869 0)
(0.0268432 -0.024341 0)
(0.0074559 -0.0337822 0)
(-0.0175241 -0.0336903 0)
(-0.0216977 -0.0315847 0)
(-0.0268197 -0.0253997 0)
(-0.0278883 -0.0179773 0)
(-0.0252115 -0.0113348 0)
(-0.0221067 -0.00687906 0)
(-0.019272 -0.00411528 0)
(-0.0169001 -0.00239644 0)
(-0.0147922 -0.00124309 0)
(-0.0129503 -0.000494728 0)
(-0.0113038 -4.11991e-05 0)
(-0.00980124 0.000261516 0)
(-0.00839263 0.000492925 0)
(-0.00714298 0.000705312 0)
(-0.00594076 0.000897642 0)
(-0.00474967 0.00108901 0)
(-0.00380456 0.00126391 0)
(-0.00294394 0.00140583 0)
(-0.00205459 0.00153887 0)
(-0.00117431 0.00167301 0)
(-0.000445949 0.00182601 0)
(0.00032371 0.00192618 0)
(0.000882217 0.00214436 0)
(0.00167151 0.00223402 0)
(0.00233303 0.00233944 0)
(0.00311606 0.00231831 0)
(0.00443473 0.00201257 0)
(0.00616857 0.00151814 0)
(0.00858371 0.000830447 0)
(0.0115601 0.000337438 0)
(0.0145702 6.74071e-05 0)
(0.0202128 -0.000319855 0)
(-0.0869824 0.00193519 0)
(-0.446386 0.00803618 0)
(-0.347069 0.00803956 0)
(0.355129 0.00113347 0)
(0.456962 -0.00870435 0)
(0.110351 -0.0184822 0)
(0.0198279 -0.0239666 0)
(0.00383951 -0.0323511 0)
(-0.0154152 -0.030086 0)
(-0.0171771 -0.0268011 0)
(-0.0203865 -0.0209898 0)
(-0.0215931 -0.0147701 0)
(-0.0203413 -0.00937493 0)
(-0.0189048 -0.00571538 0)
(-0.017204 -0.00321402 0)
(-0.015537 -0.00156484 0)
(-0.0139077 -0.000519368 0)
(-0.0124274 0.000135962 0)
(-0.0109897 0.000568722 0)
(-0.00957395 0.000872015 0)
(-0.00819668 0.00112107 0)
(-0.00696209 0.00134464 0)
(-0.00576158 0.00154795 0)
(-0.00456641 0.0017584 0)
(-0.00363397 0.00195524 0)
(-0.00278351 0.00211422 0)
(-0.00189094 0.00226141 0)
(-0.00100023 0.00239657 0)
(-0.000294245 0.00253826 0)
(0.000503138 0.00261959 0)
(0.00103877 0.00283554 0)
(0.00174141 0.00286304 0)
(0.00233481 0.0028711 0)
(0.00291924 0.00273285 0)
(0.00399127 0.00231512 0)
(0.0055157 0.00162076 0)
(0.00793006 0.000716879 0)
(0.0111634 -0.000100219 0)
(0.0143687 -0.000554611 0)
(0.0211347 -0.000971856 0)
(-0.083807 0.00105318 0)
(-0.443603 0.0090763 0)
(-0.346457 0.0115604 0)
(0.349716 0.00147652 0)
(0.446651 -0.00860568 0)
(0.102916 -0.0179095 0)
(0.0134786 -0.0226257 0)
(0.00155894 -0.0295136 0)
(-0.0121759 -0.0257267 0)
(-0.0129322 -0.0218022 0)
(-0.0152263 -0.0169383 0)
(-0.0166958 -0.011903 0)
(-0.016486 -0.00754731 0)
(-0.0161698 -0.00447514 0)
(-0.0152724 -0.00214793 0)
(-0.0143034 -0.000606176 0)
(-0.0131533 0.000523959 0)
(-0.0119018 0.00132274 0)
(-0.0105945 0.00195375 0)
(-0.00926898 0.00244699 0)
(-0.00793719 0.00285943 0)
(-0.00673162 0.00320421 0)
(-0.00554205 0.00348058 0)
(-0.00435719 0.00372116 0)
(-0.00346168 0.00390329 0)
(-0.00264891 0.00400033 0)
(-0.0017825 0.00404631 0)
(-0.000907517 0.00403704 0)
(-0.000231043 0.00401983 0)
(0.000610181 0.00393749 0)
(0.00111681 0.00399633 0)
(0.00170577 0.00384594 0)
(0.00220758 0.00366357 0)
(0.00258029 0.00331211 0)
(0.00336307 0.00274424 0)
(0.00462845 0.00182793 0)
(0.00692531 0.000724321 0)
(0.0103349 -0.000325347 0)
(0.0137302 -0.000819509 0)
(0.0217622 -0.00131203 0)
(-0.0772996 3.13242e-05 0)
(-0.436261 0.00980617 0)
(-0.344675 0.0139241 0)
(0.345413 -0.000170526 0)
(0.438281 -0.00916337 0)
(0.0968406 -0.0169604 0)
(0.0086458 -0.0205755 0)
(0.000851235 -0.0254064 0)
(-0.00798428 -0.0212243 0)
(-0.00870834 -0.01722 0)
(-0.0108473 -0.0132157 0)
(-0.0125436 -0.00894223 0)
(-0.0131835 -0.00520236 0)
(-0.0137017 -0.00254673 0)
(-0.0134757 -0.000413315 0)
(-0.0129623 0.00110145 0)
(-0.012049 0.00228717 0)
(-0.0110496 0.00313089 0)
(-0.0099063 0.00382176 0)
(-0.0087012 0.00440711 0)
(-0.00746699 0.00491811 0)
(-0.00636353 0.00535051 0)
(-0.00526343 0.00568012 0)
(-0.00415907 0.00594658 0)
(-0.00336495 0.00613059 0)
(-0.00264568 0.00620024 0)
(-0.00185557 0.0061923 0)
(-0.00102576 0.00609951 0)
(-0.000390169 0.00600341 0)
(0.000480496 0.0058149 0)
(0.000950544 0.00575005 0)
(0.00142076 0.00545045 0)
(0.00182039 0.00508387 0)
(0.00203333 0.00450852 0)
(0.00256106 0.00370527 0)
(0.00356924 0.00245447 0)
(0.00585508 0.00102092 0)
(0.0096757 -0.000397829 0)
(0.0134179 -0.000971643 0)
(0.0219546 -0.00157369 0)
(-0.0730931 -0.00114611 0)
(-0.430216 0.00981325 0)
(-0.342489 0.0152164 0)
(0.34105 0.00245132 0)
(0.430471 -0.00699673 0)
(0.0919191 -0.0159133 0)
(0.00533977 -0.0182668 0)
(0.00093371 -0.0204903 0)
(-0.00428716 -0.0164939 0)
(-0.00521485 -0.0124431 0)
(-0.00724956 -0.00923827 0)
(-0.00897384 -0.00567507 0)
(-0.0103231 -0.00272408 0)
(-0.0115549 -0.000385227 0)
(-0.0117569 0.00184561 0)
(-0.0117011 0.0033915 0)
(-0.0111976 0.00461427 0)
(-0.010423 0.00549324 0)
(-0.00936466 0.00626459 0)
(-0.0082125 0.00697367 0)
(-0.0070281 0.0076321 0)
(-0.00599732 0.00820478 0)
(-0.00496766 0.00862309 0)
(-0.00392309 0.00890247 0)
(-0.00321724 0.00902651 0)
(-0.00258945 0.00898256 0)
(-0.00187958 0.00883389 0)
(-0.00108954 0.00858139 0)
(-0.000505297 0.00836628 0)
(0.000366038 0.00805149 0)
(0.000765618 0.00783634 0)
(0.00106381 0.00740207 0)
(0.0012999 0.00680616 0)
(0.00125182 0.00600035 0)
(0.00138371 0.00496505 0)
(0.00204171 0.00343118 0)
(0.00417674 0.00184753 0)
(0.00841475 2.03486e-05 0)
(0.0125971 -0.000576082 0)
(0.021594 -0.00135268 0)
(-0.0663268 -0.00244952 0)
(-0.420494 0.0097863 0)
(-0.339469 0.0169022 0)
(0.336309 0.00726149 0)
(0.420584 -0.00207118 0)
(0.0859803 -0.0123154 0)
(0.00423529 -0.013853 0)
(0.00255972 -0.0135103 0)
(-0.000229769 -0.0106433 0)
(-0.00171656 -0.0067563 0)
(-0.00432537 -0.00467063 0)
(-0.00626625 -0.00164678 0)
(-0.00808603 0.000801344 0)
(-0.00929823 0.00284957 0)
(-0.00983635 0.00485464 0)
(-0.0102943 0.00610305 0)
(-0.0100237 0.00718616 0)
(-0.00945931 0.00795007 0)
(-0.0084797 0.00866141 0)
(-0.00738342 0.00933015 0)
(-0.00628064 0.0099654 0)
(-0.00540857 0.0105313 0)
(-0.00459111 0.0109595 0)
(-0.00377032 0.0112749 0)
(-0.00328778 0.0114489 0)
(-0.0028313 0.0114445 0)
(-0.00224215 0.0113222 0)
(-0.00147636 0.0110808 0)
(-0.000900797 0.0109069 0)
(-3.0171e-05 0.0106168 0)
(0.000324739 0.0104246 0)
(0.000428032 0.0100726 0)
(0.000469641 0.00949186 0)
(0.000259178 0.00865128 0)
(8.53186e-05 0.00779051 0)
(0.000565085 0.00626922 0)
(0.00256828 0.00478376 0)
(0.00734021 0.00259103 0)
(0.0120948 0.00169369 0)
(0.0201493 0.00126753 0)
(-0.0623592 -0.00131868 0)
(-0.411568 0.00931055 0)
(-0.335632 0.0199181 0)
(0.332057 0.0129541 0)
(0.411606 0.00493397 0)
(0.0805657 -0.00347181 0)
(0.00418832 -0.00531512 0)
(0.00402672 -0.00373343 0)
(0.00222128 -0.00287066 0)
(0.000540618 0.000348629 0)
(-0.00232584 0.00199094 0)
(-0.00370084 0.00389248 0)
(-0.00599022 0.00561854 0)
(-0.007649 0.00702296 0)
(-0.0086217 0.00859317 0)
(-0.00945437 0.00944316 0)
(-0.00941775 0.0103107 0)
(-0.00900141 0.0109884 0)
(-0.00803477 0.0117235 0)
(-0.00695593 0.012419 0)
(-0.00587064 0.0130742 0)
(-0.00503941 0.0136511 0)
(-0.00425108 0.014067 0)
(-0.00345148 0.0143474 0)
(-0.00305384 0.0144709 0)
(-0.0027115 0.0144093 0)
(-0.00223001 0.0142436 0)
(-0.00148978 0.0139519 0)
(-0.000952416 0.0137325 0)
(-9.87085e-05 0.0134131 0)
(0.000241175 0.0132514 0)
(0.000165017 0.0130524 0)
(-6.97289e-05 0.0126993 0)
(-0.000387667 0.0120279 0)
(-0.00091172 0.0116775 0)
(-0.000855698 0.010539 0)
(0.000632298 0.00953299 0)
(0.00543705 0.00796591 0)
(0.0113218 0.00712048 0)
(0.0186912 0.00771823 0)
(-0.0585762 0.0051775 0)
(-0.400029 0.0150707 0)
(-0.329247 0.0272991 0)
(0.32858 0.0285582 0)
(0.404756 0.017597 0)
(0.0761039 0.00780875 0)
(0.00398318 0.00512726 0)
(0.00491528 0.00537538 0)
(0.00370385 0.00504696 0)
(0.00296826 0.00776117 0)
(-0.000910394 0.00910253 0)
(-0.00277056 0.0101589 0)
(-0.00506938 0.0113094 0)
(-0.00643176 0.012202 0)
(-0.00750416 0.0132456 0)
(-0.00863924 0.0137453 0)
(-0.00853462 0.014614 0)
(-0.00809788 0.0153912 0)
(-0.00710112 0.01627 0)
(-0.00608182 0.0170149 0)
(-0.00509337 0.0175481 0)
(-0.0044519 0.0178971 0)
(-0.00392007 0.018146 0)
(-0.0033811 0.0185329 0)
(-0.00322817 0.0189734 0)
(-0.00305034 0.0191381 0)
(-0.00268291 0.0189625 0)
(-0.00196881 0.0184074 0)
(-0.00141997 0.0178665 0)
(-0.000493784 0.017142 0)
(-2.28765e-05 0.0167527 0)
(-0.00010406 0.0163307 0)
(-0.000517599 0.0160351 0)
(-0.000725456 0.0153496 0)
(-0.00134944 0.0152487 0)
(-0.00150142 0.0143394 0)
(8.87682e-05 0.0135749 0)
(0.00501544 0.0127638 0)
(0.0118562 0.0126359 0)
(0.018277 0.0145272 0)
(-0.055274 0.0148008 0)
(-0.390251 0.022654 0)
(-0.323848 0.0413679 0)
(0.321494 0.0601322 0)
(0.391611 0.0362542 0)
(0.0685494 0.0268646 0)
(0.00184344 0.0236412 0)
(0.00394935 0.0190763 0)
(0.0045203 0.0192317 0)
(0.00444871 0.0205115 0)
(-1.52898e-05 0.0204169 0)
(-0.00157418 0.0222547 0)
(-0.00402139 0.0214355 0)
(-0.00578328 0.0211219 0)
(-0.00713456 0.0197082 0)
(-0.00813572 0.018684 0)
(-0.00783174 0.0180027 0)
(-0.00740564 0.0174585 0)
(-0.00647002 0.0176023 0)
(-0.00572426 0.0183233 0)
(-0.0050206 0.01951 0)
(-0.00446331 0.0208822 0)
(-0.0036384 0.021805 0)
(-0.00265418 0.021931 0)
(-0.00247058 0.0214628 0)
(-0.002722 0.0208725 0)
(-0.00293416 0.0207176 0)
(-0.00254588 0.0207963 0)
(-0.00217177 0.0214851 0)
(-0.00117197 0.0222288 0)
(-0.00054061 0.0226965 0)
(-0.000526509 0.0236314 0)
(-0.00101519 0.0244215 0)
(-0.00114546 0.0249533 0)
(-0.00188522 0.0254534 0)
(-0.00246863 0.0255459 0)
(-0.000885987 0.0244769 0)
(0.00453221 0.0234638 0)
(0.013021 0.0227923 0)
(0.0207773 0.0244773 0)
(-0.0507449 0.0270471 0)
(-0.374428 0.03269 0)
(-0.311213 0.0699602 0)
(0.30557 -0.118578 0)
(0.372698 -0.0477858 0)
(0.0639495 -0.0269331 0)
(-0.00352191 -0.0341084 0)
(0.000666129 -0.04484 0)
(0.00508687 -0.0501212 0)
(0.00411035 -0.0583645 0)
(0.00076946 -0.0655598 0)
(-0.00178901 -0.0708735 0)
(-0.00616096 -0.0794357 0)
(-0.00809631 -0.0844389 0)
(-0.00985347 -0.0913825 0)
(-0.0102827 -0.0952696 0)
(-0.00971552 -0.0999366 0)
(-0.00848367 -0.103443 0)
(-0.00626774 -0.10662 0)
(-0.00424356 -0.108823 0)
(-0.00262753 -0.109833 0)
(-0.00224033 -0.10944 0)
(-0.00290945 -0.106254 0)
(-0.0037109 -0.106398 0)
(-0.00424814 -0.109454 0)
(-0.00376843 -0.109277 0)
(-0.00275631 -0.108064 0)
(-0.00122922 -0.104864 0)
(-3.96193e-05 -0.102212 0)
(0.000673592 -0.0973234 0)
(0.00132879 -0.0952894 0)
(0.00155824 -0.0896114 0)
(0.00075617 -0.0862264 0)
(0.000268896 -0.0793998 0)
(-0.000778414 -0.0749914 0)
(-0.00244243 -0.0666608 0)
(-0.00191757 -0.0617313 0)
(0.00339208 -0.0557676 0)
(0.0128328 -0.0516971 0)
(0.0223771 -0.0461984 0)
(-0.04736 -0.0426476 0)
(-0.348898 -0.0562025 0)
(-0.287933 -0.103398 0)
(0.389712 -0.364266 0)
(0.479923 -0.441623 0)
(0.0817295 -0.350852 0)
(-0.0154123 -0.386121 0)
(-0.0114812 -0.40924 0)
(-0.00851247 -0.423038 0)
(-0.0104285 -0.441459 0)
(-0.0120694 -0.451256 0)
(-0.0149455 -0.462605 0)
(-0.0170935 -0.47155 0)
(-0.0172957 -0.477661 0)
(-0.0175714 -0.482213 0)
(-0.0163788 -0.484264 0)
(-0.0157084 -0.485356 0)
(-0.0138457 -0.485094 0)
(-0.0116538 -0.485459 0)
(-0.00882061 -0.48532 0)
(-0.00561538 -0.48424 0)
(-0.00101474 -0.484337 0)
(-0.000707186 -0.482638 0)
(-0.00573732 -0.481437 0)
(-0.00524461 -0.481298 0)
(-0.00138317 -0.47743 0)
(0.00131799 -0.479117 0)
(0.00309404 -0.475568 0)
(0.00509501 -0.475957 0)
(0.00549855 -0.47353 0)
(0.00689098 -0.472676 0)
(0.00820688 -0.46896 0)
(0.00882503 -0.466324 0)
(0.00968099 -0.458932 0)
(0.0103906 -0.453946 0)
(0.0103093 -0.443982 0)
(0.00961107 -0.435745 0)
(0.0142015 -0.424051 0)
(0.0222423 -0.414073 0)
(0.0294977 -0.396977 0)
(-0.0603852 -0.366734 0)
(-0.432969 -0.449963 0)
(-0.356693 -0.379453 0)
(0.231026 -0.206201 0)
(0.385623 -0.370875 0)
(0.117433 -0.304059 0)
(-0.0597871 -0.333824 0)
(-0.0349076 -0.350109 0)
(-0.0259601 -0.358135 0)
(-0.0230818 -0.368215 0)
(-0.019608 -0.371266 0)
(-0.0213448 -0.376038 0)
(-0.0206697 -0.377907 0)
(-0.0183717 -0.379749 0)
(-0.0162157 -0.379023 0)
(-0.0133112 -0.378342 0)
(-0.0105155 -0.37584 0)
(-0.00858356 -0.372953 0)
(-0.00648539 -0.370379 0)
(-0.0030684 -0.36759 0)
(-0.00168 -0.36441 0)
(-0.000696459 -0.363506 0)
(-0.00011502 -0.364079 0)
(-0.00241999 -0.362891 0)
(-0.000386975 -0.360637 0)
(-0.0016673 -0.35785 0)
(-0.000962394 -0.360932 0)
(0.00181619 -0.360217 0)
(0.00192406 -0.362258 0)
(0.0038351 -0.363507 0)
(0.00573287 -0.363984 0)
(0.00767948 -0.364709 0)
(0.0104197 -0.364531 0)
(0.0121971 -0.363054 0)
(0.0136282 -0.36192 0)
(0.0150967 -0.359695 0)
(0.0172884 -0.356952 0)
(0.0242761 -0.351728 0)
(0.0389225 -0.346497 0)
(0.0679945 -0.334418 0)
(-0.0984198 -0.306548 0)
(-0.361154 -0.373888 0)