/*--------------------------------*- C++ -*----------------------------------*\
| =========                 |                                                 |
| \\      /  F ield         | OpenFOAM: The Open Source CFD Toolbox           |
|  \\    /   O peration     | Version:  v1912                                 |
|   \\  /    A nd           | Website:  www.openfoam.com                      |
|    \\/     M anipulation  |                                                 |
\*---------------------------------------------------------------------------*/
FoamFile
{
    version     2.0;
    format      ascii;
    class       volScalarField;
    location    "3.26";
    object      p;
}
// * * * * * * * * * * * * * * * * * * * * * * * * * * * * * * * * * * * * * //

dimensions      [1 -1 -2 0 0 0 0];


internalField   nonuniform List<scalar> 
1900
(
21232.2
12084.4
11330.8
11430.2
11500.6
11563.6
11613.9
11653.1
11684.3
11688.9
21232.2
12084.4
11331
11430.7
11501.5
11563.5
11609.9
11638.3
11627
11578.2
21232.2
12084.4
11331.1
11430.5
11500.6
11561.9
11609
11641.8
11633
11576.4
21232.2
12084.4
11331
11430.7
11501.5
11563.5
11609.9
11638.3
11627
11578.2
21232.2
12084.4
11330.8
11430.2
11500.6
11563.6
11613.9
11653.1
11684.3
11688.9
11471.8
11441
11271.4
10750.5
8959.96
11492.8
11437.1
11201
10875.4
9855.59
11490.5
11414.1
11169.8
10743.4
9659.99
11492.8
11437.1
11201
10875.4
9855.59
11471.8
11441
11271.4
10750.5
8959.96
11601.3
11068.5
11127.2
11049.6
10719.2
11427.5
11059.2
11173.8
11101.9
10524.5
11411.5
11070.9
11143.2
11029.7
10247.9
11427.5
11059.2
11173.8
11101.9
10524.5
11601.3
11068.5
11127.2
11049.6
10719.2
8534.07
3763.49
4027.57
4161.23
3932.42
3720.88
3612.93
3612.65
3636.75
3687.14
3762.75
3853
3947.36
4033.9
4104.24
4155.31
4188.16
4207.26
4215.27
4215.47
4210.45
4199.56
4179.65
4145.43
4093.14
4016.9
3914.94
3790.36
3651.72
3509.82
3373.35
3246.58
3129.35
3022.27
2926.78
2856.51
2803.36
2768.74
2902.28
16648.5
8719.79
4032.56
4203.16
4206.83
3954.77
3727.97
3616.09
3614.62
3638.63
3688.69
3764.13
3854.23
3948.51
4034.98
4105.24
4156.25
4189.05
4208.11
4216.1
4216.29
4211.27
4200.38
4180.47
4146.26
4093.99
4017.78
3915.85
3791.29
3652.67
3510.78
3374.32
3247.54
3130.31
3023.2
2927.62
2857.52
2804.27
2770.11
2908.8
16717.1
8409.54
4428.02
4323.92
4241.33
3967.88
3732.14
3617.99
3616.18
3639.79
3689.66
3764.95
3854.93
3949.12
4035.52
4105.72
4156.67
4189.43
4208.47
4216.45
4216.63
4211.61
4200.72
4180.82
4146.62
4094.38
4018.21
3916.32
3791.82
3653.27
3511.46
3375.09
3248.42
3131.32
3024.34
2928.91
2859.08
2806.07
2772.31
2913.37
16974.7
8719.79
4032.56
4203.16
4206.83
3954.77
3727.97
3616.09
3614.62
3638.63
3688.69
3764.13
3854.23
3948.51
4034.98
4105.24
4156.25
4189.05
4208.11
4216.1
4216.29
4211.27
4200.38
4180.47
4146.26
4093.99
4017.78
3915.85
3791.29
3652.67
3510.78
3374.32
3247.54
3130.31
3023.2
2927.62
2857.52
2804.27
2770.11
2908.8
16717.1
8534.07
3763.49
4027.57
4161.23
3932.42
3720.88
3612.93
3612.65
3636.75
3687.14
3762.75
3853
3947.36
4033.9
4104.24
4155.31
4188.16
4207.26
4215.27
4215.47
4210.45
4199.56
4179.65
4145.43
4093.14
4016.9
3914.94
3790.36
3651.72
3509.82
3373.35
3246.58
3129.35
3022.27
2926.78
2856.51
2803.36
2768.74
2902.28
16648.5
9387.62
3202.88
3765.65
3948.47
3827.18
3679.52
3595.12
3598.11
3624.69
3677.74
3754.37
3845.41
3940.18
4027.13
4097.91
4149.4
4182.59
4201.93
4210.09
4210.37
4205.38
4194.47
4174.5
4140.15
4087.7
4011.28
3909.15
3784.41
3645.65
3503.67
3367.15
3240.39
3123.21
3016.42
2921.37
2850.67
2797.82
2761.94
2875.57
16567.8
10114.8
2834.79
3472.73
3612.5
3628.35
3573.28
3542.31
3555.82
3593.01
3651.81
3731.75
3824.52
3920.45
4008.6
4080.61
4133.22
4167.29
4187.27
4195.81
4196.32
4191.4
4180.43
4160.3
4125.62
4072.75
3995.81
3893.1
3767.82
3628.58
3486.23
3349.46
3222.55
3105.37
2998.78
2904.51
2832.9
2779.16
2741.19
2807.85
16083.4
10677.8
2729.02
3237.99
3377.12
3446.44
3452.71
3465.32
3495.6
3543.71
3611.12
3694.45
3789.74
3887.4
3977.41
4051.21
4105.47
4140.83
4161.75
4170.83
4171.67
4166.84
4155.76
4135.4
4100.23
4046.74
3969.03
3865.62
3739.58
3599.81
3457.14
3320.19
3193.32
3076.51
2970.42
2877.2
2804.23
2749.29
2709.76
2713.35
15389.6
11570
2623.75
3036.32
3186.22
3278.25
3326.51
3367.03
3416.14
3475.11
3550.13
3637.7
3735.97
3836.34
3928.95
4005.5
4061.98
4099.17
4121.39
4131.23
4132.54
4127.82
4116.58
4095.85
4059.99
4005.53
3926.9
3822.14
3695.4
3554.58
3411.46
3274.49
3147.45
3031.22
2925.26
2832.75
2757.03
2699.52
2657.71
2591.37
14498.9
10833.6
2513.66
2856.35
3016.32
3117.44
3190.97
3250.45
3314.51
3383.54
3464.73
3556.36
3657.86
3761.17
3857.79
3937.23
3996.86
4036.21
4060.11
4070.91
4072.83
4068.23
4056.71
4035.48
3998.65
3943.18
3862.77
3757.5
3628.44
3487.64
3343.71
3206.58
3079.65
2964.57
2857.88
2765.45
2685.61
2625.2
2579.84
2452.05
13524
10528.5
2401.32
2694.06
2847.13
2955.58
3042.3
3115.41
3190.24
3266.73
3352.17
3446.96
3550.94
3658.89
3758.13
3842.47
3904.84
3947
3972.73
3984.67
3987.3
3982.81
3970.94
3949.06
3911.23
3854.07
3773.14
3664.63
3536.62
3393.19
3249.56
3113.37
2985.82
2871.95
2764.87
2671.86
2588.02
2522.69
2474.49
2311.55
12476.9
10193
2287.7
2542.32
2681.13
2795.99
2887.89
2968.42
3049.02
3128.7
3215.56
3312.01
3418.64
3528.06
3633.1
3719.61
3786.24
3830.73
3858.5
3871.58
3874.98
3870.6
3858.31
3835.78
3796.71
3738.74
3655
3547.88
3415.84
3275.1
3131.15
2996.18
2870.78
2759.45
2653.68
2560.8
2476.63
2406.57
2356.05
2188.92
11459.7
9637.13
2172.07
2395.16
2518.98
2632.85
2728.36
2813.92
2896.59
2977.06
3064.11
3160.91
3267.85
3381.06
3486.98
3578.44
3647.08
3694.29
3723.78
3737.93
3742.07
3737.8
3725.14
3702.01
3662.15
3602.66
3519.41
3409.3
3280.52
3139.03
2998.07
2867.08
2743.87
2636.04
2533.58
2442.11
2357.74
2284.96
2232.57
2075.45
10434.4
9058.46
2062.9
2264.37
2375.24
2486.51
2582.28
2669.13
2749.53
2827.68
2912.22
3008.22
3114.85
3227.85
3336.51
3429.15
3500.34
3549.17
3580.08
3595.09
3599.87
3595.74
3582.88
3559.44
3519.09
3459.52
3375.49
3267.42
3138.69
3001.76
2864.89
2738.1
2620.24
2517.18
2419.1
2330.2
2246.75
2173.7
2120.48
1974.81
9491.28
8435.41
1959.6
2142.34
2243.16
2349.11
2442.49
2528.72
2606.13
2682.18
2765.71
2859.86
2966.88
3079.9
3190.01
3284.03
3356.75
3406.71
3438.64
3454.27
3459.57
3455.65
3442.8
3419.38
3379.02
3319.74
3236.22
3129.32
3002.4
2869.43
2735.97
2615.49
2501.31
2402.74
2308.27
2221.6
2138.54
2065.36
2011.99
1876.88
8572.38
7821.03
1866.33
2036.93
2131.01
2230.09
2320.81
2405.18
2479.67
2553.62
2634.03
2727.62
2832.35
2945.4
3054.62
3149.59
3222.62
3273.42
3306.05
3322.18
3327.97
3324.33
3311.62
3288.39
3248.38
3189.57
3107.6
3001.9
2878.8
2749.17
2621.6
2505.44
2396.6
2301.87
2211.13
2126.66
2043.98
1970.72
1916.84
1791.16
7736.26
7199.92
1782.63
1939.73
2028.9
2118.98
2206.72
2287.21
2358.93
2431.37
2510.49
2603.03
2707.12
2819.63
2929.26
3025.26
3099.3
3150.84
3184.07
3200.62
3206.93
3203.63
3191.09
3168.18
3128.53
3070.21
2988.58
2884.14
2762.57
2637.28
2513.15
2402.09
2297.28
2206.14
2118.29
2035.5
1952.8
1879.38
1825.7
1708.76
6938.69
6597.13
1704.38
1849.47
1933.66
2018.95
2104.3
2181.3
2251.67
2323.54
2401.95
2493.97
2597.03
2708.38
2817.61
2912.77
2986.48
3037.71
3071.13
3087.96
3094.81
3091.89
3079.55
3057.12
3018.14
2961.16
2880.91
2779.04
2659.51
2538.41
2417.92
2310.98
2209.66
2120.93
2035.08
1953.22
1870.57
1796.93
1742.93
1633.97
6220.11
5982.14
1632.08
1764.74
1842.44
1922.76
2006.54
2078.92
2148.76
2220.34
2298.18
2390.02
2491.59
2602.05
2710.83
2807.25
2882.62
2934.59
2968.49
2985.47
2992.88
2990.35
2978.24
2956.43
2917.82
2861.06
2780.19
2678.48
2560.87
2443.34
2326.41
2223.22
2124.52
2037.89
1953.56
1872.38
1789.8
1716.2
1662.71
1561.82
5533.32
5415.3
1559.76
1680.07
1751.23
1827.68
1909.8
1980.94
2050.99
2123.02
2202.62
2294.96
2396.84
2508.18
2617.91
2716.47
2792.44
2844.98
2878.89
2895.6
2903
2900.91
2889.63
2868.84
2830.99
2774.46
2693.66
2591.2
2473.69
2357.36
2242.2
2141.04
2043.9
1958.19
1874.5
1793.48
1711.37
1638.13
1585.39
1492.89
4932.43
4813.17
1493.23
1600.7
1664.85
1737.43
1816.71
1885.74
1956.62
2030.14
2112.06
2207.57
2310.95
2423.96
2534.96
2637.26
2717.97
2774.27
2810.95
2829.44
2838.15
2836.5
2824.75
2803.06
2763.26
2703.94
2618.9
2513.9
2395.4
2279.74
2164.43
2063.31
1965.89
1879.79
1795.7
1714.89
1633.73
1561.38
1510.72
1427.52
4334
4379.31
1440.26
1531.1
1584.53
1653.75
1730.62
1800.41
1873.66
1949.72
2033.88
2132.43
2237.42
2355.03
2470.29
2577.31
2660.57
2720.23
2758.99
2778.51
2787.94
2786.73
2775.07
2753.15
2711.87
2650.06
2562.4
2454.5
2331.76
2213.91
2097.79
1996.58
1898.96
1812.35
1727.94
1647.21
1566.84
1495.63
1451.01
1380.79
3916.63
3931.59
1425.4
1499.98
1534.26
1595.7
1668.98
1741.61
1817.14
1895.62
1982.03
2082.07
2188.76
2309.09
2425.3
2534.26
2619.99
2680.97
2721.05
2742.14
2753.98
2753.05
2739.5
2716.51
2674.14
2611.21
2521.02
2411.44
2288.73
2170.15
2053.48
1951.61
1854.16
1767.12
1683.08
1602.81
1524.04
1458.87
1427.3
1370.87
3537.28
4654.1
1429.36
1453.32
1466.29
1511.28
1573.14
1635.75
1703.02
1773.71
1852.36
1942.54
2039.12
2152.66
2285.18
2442.17
2601.25
2744.87
2859.55
2927.46
2961.74
2961.18
2925.84
2856.75
2740.6
2596.29
2433.96
2277.24
2137.26
2023.65
1917.88
1826.5
1738.5
1660.1
1584.48
1512.88
1443.5
1391.26
1376.69
1364.77
4380.73
41609.2
4510.38
3751.53
4145.54
4580.22
5203.78
5832.93
6564.73
7328.87
8188.51
9090.86
10079.3
11091.4
12162.7
13206.6
14260.5
15205.9
16032.8
16550.7
16990.7
16991.8
16550.4
16031.9
15203.1
14256.3
13198
12153.1
11074.4
10063.3
9063.61
8156.68
7288.58
6510.61
5767.39
5117.5
4471.54
4016.9
3595.45
4295.3
39970.6
41609.2
4510.38
3751.53
4145.54
4580.22
5203.78
5832.93
6564.73
7328.87
8188.51
9090.86
10079.3
11091.4
12162.7
13206.6
14260.5
15205.9
16032.8
16550.7
16990.7
16991.8
16550.4
16031.9
15203.1
14256.3
13198
12153.1
11074.4
10063.3
9063.61
8156.68
7288.58
6510.61
5767.39
5117.5
4471.54
4016.9
3595.45
4295.3
39970.6
4654.1
1429.36
1453.32
1466.29
1511.28
1573.14
1635.75
1703.02
1773.71
1852.36
1942.54
2039.12
2152.66
2285.18
2442.17
2601.25
2744.87
2859.55
2927.46
2961.74
2961.18
2925.84
2856.75
2740.6
2596.29
2433.96
2277.24
2137.26
2023.65
1917.88
1826.5
1738.5
1660.1
1584.48
1512.88
1443.5
1391.26
1376.69
1364.77
4380.73
3931.59
1425.4
1499.98
1534.26
1595.7
1668.98
1741.61
1817.14
1895.62
1982.03
2082.07
2188.76
2309.09
2425.3
2534.26
2619.99
2680.97
2721.05
2742.14
2753.98
2753.05
2739.5
2716.51
2674.14
2611.21
2521.02
2411.44
2288.73
2170.15
2053.48
1951.61
1854.16
1767.12
1683.08
1602.81
1524.04
1458.87
1427.3
1370.87
3537.28
4379.31
1440.26
1531.1
1584.53
1653.75
1730.62
1800.41
1873.66
1949.72
2033.88
2132.43
2237.42
2355.03
2470.29
2577.31
2660.57
2720.23
2758.99
2778.51
2787.94
2786.73
2775.07
2753.15
2711.87
2650.06
2562.4
2454.5
2331.76
2213.91
2097.79
1996.58
1898.96
1812.35
1727.94
1647.21
1566.84
1495.63
1451.01
1380.79
3916.63
4813.17
1493.23
1600.7
1664.85
1737.43
1816.71
1885.74
1956.62
2030.14
2112.06
2207.57
2310.95
2423.96
2534.96
2637.26
2717.97
2774.27
2810.95
2829.44
2838.15
2836.5
2824.75
2803.06
2763.26
2703.94
2618.9
2513.9
2395.4
2279.74
2164.43
2063.31
1965.89
1879.79
1795.7
1714.89
1633.73
1561.38
1510.72
1427.52
4334
5415.3
1559.76
1680.07
1751.23
1827.68
1909.8
1980.94
2050.99
2123.02
2202.62
2294.96
2396.84
2508.18
2617.91
2716.47
2792.44
2844.98
2878.89
2895.6
2903
2900.91
2889.63
2868.84
2830.99
2774.46
2693.66
2591.2
2473.69
2357.36
2242.2
2141.04
2043.9
1958.19
1874.5
1793.48
1711.37
1638.13
1585.39
1492.89
4932.43
5982.14
1632.08
1764.74
1842.44
1922.76
2006.54
2078.92
2148.76
2220.34
2298.18
2390.02
2491.59
2602.05
2710.83
2807.25
2882.62
2934.59
2968.49
2985.47
2992.88
2990.35
2978.24
2956.43
2917.82
2861.06
2780.19
2678.48
2560.87
2443.34
2326.41
2223.22
2124.52
2037.89
1953.56
1872.38
1789.8
1716.2
1662.71
1561.82
5533.32
6597.13
1704.38
1849.47
1933.66
2018.95
2104.3
2181.3
2251.67
2323.54
2401.95
2493.97
2597.03
2708.38
2817.61
2912.77
2986.48
3037.71
3071.13
3087.96
3094.81
3091.89
3079.55
3057.12
3018.14
2961.16
2880.91
2779.04
2659.51
2538.41
2417.92
2310.98
2209.66
2120.93
2035.08
1953.22
1870.57
1796.93
1742.93
1633.97
6220.11
7199.92
1782.63
1939.73
2028.9
2118.98
2206.72
2287.21
2358.93
2431.37
2510.49
2603.03
2707.12
2819.63
2929.26
3025.26
3099.3
3150.84
3184.07
3200.62
3206.93
3203.63
3191.09
3168.18
3128.53
3070.21
2988.58
2884.14
2762.57
2637.28
2513.15
2402.09
2297.28
2206.14
2118.29
2035.5
1952.8
1879.38
1825.7
1708.76
6938.69
7821.03
1866.33
2036.93
2131.01
2230.09
2320.81
2405.18
2479.67
2553.62
2634.03
2727.62
2832.35
2945.4
3054.62
3149.59
3222.62
3273.42
3306.05
3322.18
3327.97
3324.33
3311.62
3288.39
3248.38
3189.57
3107.6
3001.9
2878.8
2749.17
2621.6
2505.44
2396.6
2301.87
2211.13
2126.66
2043.98
1970.72
1916.84
1791.16
7736.26
8435.41
1959.6
2142.34
2243.16
2349.11
2442.49
2528.72
2606.13
2682.18
2765.71
2859.86
2966.88
3079.9
3190.01
3284.03
3356.75
3406.71
3438.64
3454.27
3459.57
3455.65
3442.8
3419.38
3379.02
3319.74
3236.22
3129.32
3002.4
2869.43
2735.97
2615.49
2501.31
2402.74
2308.27
2221.6
2138.54
2065.36
2011.99
1876.88
8572.38
9058.46
2062.9
2264.37
2375.24
2486.51
2582.28
2669.13
2749.53
2827.68
2912.22
3008.22
3114.85
3227.85
3336.51
3429.15
3500.34
3549.17
3580.08
3595.09
3599.87
3595.74
3582.88
3559.44
3519.09
3459.52
3375.49
3267.42
3138.69
3001.76
2864.89
2738.1
2620.24
2517.18
2419.1
2330.2
2246.75
2173.7
2120.48
1974.81
9491.28
9637.13
2172.07
2395.16
2518.98
2632.85
2728.36
2813.92
2896.59
2977.06
3064.11
3160.91
3267.85
3381.06
3486.98
3578.44
3647.08
3694.29
3723.78
3737.93
3742.07
3737.8
3725.14
3702.01
3662.15
3602.66
3519.41
3409.3
3280.52
3139.03
2998.07
2867.08
2743.87
2636.04
2533.58
2442.11
2357.74
2284.96
2232.57
2075.45
10434.4
10193
2287.7
2542.32
2681.13
2795.99
2887.89
2968.42
3049.02
3128.7
3215.56
3312.01
3418.64
3528.06
3633.1
3719.61
3786.24
3830.73
3858.5
3871.58
3874.98
3870.6
3858.31
3835.78
3796.71
3738.74
3655
3547.88
3415.84
3275.1
3131.15
2996.18
2870.78
2759.45
2653.68
2560.8
2476.63
2406.57
2356.05
2188.92
11459.7
10528.5
2401.32
2694.06
2847.13
2955.58
3042.3
3115.41
3190.24
3266.73
3352.17
3446.96
3550.94
3658.89
3758.13
3842.47
3904.84
3947
3972.73
3984.67
3987.3
3982.81
3970.94
3949.06
3911.23
3854.07
3773.14
3664.63
3536.62
3393.19
3249.56
3113.37
2985.82
2871.95
2764.87
2671.86
2588.02
2522.69
2474.49
2311.55
12476.9
10833.6
2513.66
2856.35
3016.32
3117.44
3190.97
3250.45
3314.51
3383.54
3464.73
3556.36
3657.86
3761.17
3857.79
3937.23
3996.86
4036.21
4060.11
4070.91
4072.83
4068.23
4056.71
4035.48
3998.65
3943.18
3862.77
3757.5
3628.44
3487.64
3343.71
3206.58
3079.65
2964.57
2857.88
2765.45
2685.61
2625.2
2579.84
2452.05
13524
11570
2623.75
3036.32
3186.22
3278.25
3326.51
3367.03
3416.14
3475.11
3550.13
3637.7
3735.97
3836.34
3928.95
4005.5
4061.98
4099.17
4121.39
4131.23
4132.54
4127.82
4116.58
4095.85
4059.99
4005.53
3926.9
3822.14
3695.4
3554.58
3411.46
3274.49
3147.45
3031.22
2925.26
2832.75
2757.03
2699.52
2657.71
2591.37
14498.9
10677.8
2729.02
3237.99
3377.12
3446.44
3452.71
3465.32
3495.6
3543.71
3611.12
3694.45
3789.74
3887.4
3977.41
4051.21
4105.47
4140.83
4161.75
4170.83
4171.67
4166.84
4155.76
4135.4
4100.23
4046.74
3969.03
3865.62
3739.58
3599.81
3457.14
3320.19
3193.32
3076.51
2970.42
2877.2
2804.23
2749.29
2709.76
2713.35
15389.6
10114.8
2834.79
3472.73
3612.5
3628.35
3573.28
3542.31
3555.82
3593.01
3651.81
3731.75
3824.52
3920.45
4008.6
4080.61
4133.22
4167.29
4187.27
4195.81
4196.32
4191.4
4180.43
4160.3
4125.62
4072.75
3995.81
3893.1
3767.82
3628.58
3486.23
3349.46
3222.55
3105.37
2998.78
2904.51
2832.9
2779.16
2741.19
2807.85
16083.4
9387.62
3202.88
3765.65
3948.47
3827.18
3679.52
3595.12
3598.11
3624.69
3677.74
3754.37
3845.41
3940.18
4027.13
4097.91
4149.4
4182.59
4201.93
4210.09
4210.37
4205.38
4194.47
4174.5
4140.15
4087.7
4011.28
3909.15
3784.41
3645.65
3503.67
3367.15
3240.39
3123.21
3016.42
2921.37
2850.67
2797.82
2761.94
2875.57
16567.8
)
;

boundaryField
{
    inlet
    {
        type            fixedValue;
        value           uniform 10000;
    }
    outlet
    {
        type            fixedValue;
        value           uniform 1000;
    }
    obstacle
    {
        type            zeroGradient;
    }
    empty
    {
        type            empty;
    }
}


// ************************************************************************* //
