/*--------------------------------*- C++ -*----------------------------------*\
| =========                 |                                                 |
| \\      /  F ield         | OpenFOAM: The Open Source CFD Toolbox           |
|  \\    /   O peration     | Version:  v1912                                 |
|   \\  /    A nd           | Website:  www.openfoam.com                      |
|    \\/     M anipulation  |                                                 |
\*---------------------------------------------------------------------------*/
FoamFile
{
    version     2.0;
    format      ascii;
    class       volScalarField;
    location    "7.6";
    object      rho;
}
// * * * * * * * * * * * * * * * * * * * * * * * * * * * * * * * * * * * * * //

dimensions      [1 -3 0 0 0 0 0];


internalField   nonuniform List<scalar> 
1900
(
23228.5
12879
12900.8
12919.5
12839
12710.5
12527.6
12376.5
12294.3
12253.3
23228.4
12879.1
12900.9
12919.6
12839
12711
12527.9
12377.7
12302.6
12257.1
23228.3
12879.2
12900.9
12919.7
12839
12711.3
12527.6
12376.9
12294.8
12243.4
23228.4
12879.1
12900.9
12919.6
12839
12711
12527.9
12377.7
12302.6
12257.1
23228.5
12879
12900.8
12919.5
12839
12710.5
12527.6
12376.5
12294.3
12253.3
12367
12196.5
12069.4
11726.7
11614.9
12227
12111.3
12003.6
11680.1
11217.3
12194.4
12092.4
11996.9
11716.9
11286.2
12227
12111.3
12003.6
11680.1
11217.3
12367
12196.5
12069.4
11726.7
11614.9
6167.46
4198.41
3259.59
2731.64
2216.85
6799.96
4522
3441.98
2876.26
2345.94
6986.22
4478.59
3369.45
2817.79
2273.62
6799.96
4522
3441.98
2876.26
2345.94
6167.46
4198.41
3259.59
2731.64
2216.85
2372.91
2441.54
2377.31
2300.49
2190.26
1970.95
1826.63
1895.12
2596.84
3148.58
3128.98
3074.21
3062.97
3074.99
3040.4
2869.82
2587.14
2274.39
1936.81
1562.93
1283.99
1177.06
1140.14
1114.64
1091.61
1073.32
1062.59
1059.44
1061.3
1065.26
1068.36
1085.99
1159.9
1502.04
1897.45
2093.71
2214.48
2305.87
2421
2565.42
2160.32
2219.74
2250.15
2213.91
2114.38
1892.2
1750.69
1820.71
2509.13
3100.3
3098.67
3058.66
3056.64
3077.63
3047.14
2873.36
2593.3
2283.02
1944.24
1566.63
1284.89
1177.07
1140.11
1114.65
1091.57
1073.23
1062.47
1059.33
1061.2
1065.18
1068.28
1085.92
1159.76
1501.99
1897.48
2093.66
2214.73
2305.83
2420.93
2565.74
2132.88
2149.13
2185.28
2174.83
2107.49
1877.77
1743.72
1801.3
2460.18
3092.27
3090.63
3050.92
3052.55
3083.5
3081.01
2913.95
2605.92
2283.77
1942.57
1566.24
1285.19
1177.12
1140.11
1114.66
1091.57
1073.2
1062.43
1059.29
1061.16
1065.15
1068.25
1085.9
1159.72
1501.98
1897.48
2093.63
2214.81
2305.88
2420.9
2565.67
2160.32
2219.74
2250.15
2213.91
2114.38
1892.2
1750.69
1820.71
2509.13
3100.3
3098.67
3058.66
3056.64
3077.63
3047.14
2873.36
2593.3
2283.02
1944.24
1566.63
1284.89
1177.07
1140.11
1114.65
1091.57
1073.23
1062.47
1059.33
1061.2
1065.18
1068.28
1085.92
1159.76
1501.99
1897.48
2093.66
2214.73
2305.83
2420.93
2565.74
2372.91
2441.54
2377.31
2300.49
2190.26
1970.95
1826.63
1895.12
2596.84
3148.58
3128.98
3074.21
3062.97
3074.99
3040.4
2869.82
2587.14
2274.39
1936.81
1562.93
1283.99
1177.06
1140.14
1114.64
1091.61
1073.32
1062.59
1059.44
1061.3
1065.26
1068.36
1085.99
1159.9
1502.04
1897.45
2093.71
2214.48
2305.87
2421
2565.42
3119.99
2860.2
2626.95
2478.98
2336.86
2120.56
1986
2077.8
2807.38
3189.42
3131.19
3059.04
3048.69
3062.93
3031.58
2856.04
2566.65
2257.39
1923.85
1552.47
1279.7
1176.79
1140.33
1114.62
1091.75
1073.71
1063.11
1059.97
1061.78
1065.66
1068.71
1086.32
1160.33
1502.01
1896.95
2093.3
2214.01
2305.64
2420.72
2565.25
3544.18
3222.42
2900.43
2642.37
2430.58
2248.34
2199.17
2394.52
3040.8
3199.99
3106.65
3035.91
3024.5
3014.3
2949.04
2758.62
2489.71
2204.85
1882.19
1521.16
1268.65
1175.98
1140.65
1114.65
1092.06
1074.58
1064.31
1061.22
1062.91
1066.61
1069.51
1087.11
1161.25
1502.01
1896.16
2092.29
2214.48
2305.14
2420.09
2564.65
3581.72
3401.24
3202.83
2939.69
2675.83
2474.55
2491.18
2792.5
3134.89
3139.37
2992.11
2948.03
2937.29
2917.3
2831.8
2641.18
2397.93
2134.81
1820.23
1475.88
1254.12
1174.99
1141.07
1114.93
1092.69
1075.91
1066.11
1063.15
1064.69
1068.14
1070.81
1088.34
1162.63
1502.19
1895.5
2091.26
2214.93
2304.75
2421.22
2565.51
3564.38
3333.99
3102.71
2847.9
2632.04
2663.78
2709.53
2824.59
2999.69
2932.52
2855.07
2872.09
2850
2810.13
2699.7
2514.24
2295.26
2048.53
1740.99
1422.66
1239.26
1174.21
1141.6
1115.45
1093.68
1077.7
1068.46
1065.67
1067.06
1070.22
1072.61
1090.06
1164.56
1503.06
1895.88
2091.33
2216.06
2305.44
2423.2
2566.8
3505.7
3261.01
3047.83
2857.83
2749.64
2757.89
2783.07
2829.76
2810.14
2721.7
2762.63
2759.03
2739.8
2687.45
2561.33
2383.3
2183.96
1948.1
1648.67
1367.8
1226.1
1173.51
1142.04
1116.06
1094.93
1079.88
1071.27
1068.69
1069.95
1072.8
1074.87
1092.23
1166.77
1503.54
1895.52
2090.73
2216.57
2306.67
2425.09
2567.82
3390.42
3173.76
3011.16
2885.82
2806.35
2751.99
2717.68
2681.8
2583.01
2600.27
2640.17
2652.74
2634.21
2553.2
2415.16
2251.38
2069.47
1838.09
1550.09
1318.71
1216.7
1173.32
1142.59
1116.98
1096.69
1082.66
1074.75
1072.43
1073.57
1076.13
1077.88
1095.21
1170.23
1506.11
1897.13
2091.74
2218.46
2309.51
2428.14
2569.3
3202.2
3041.5
2935.37
2835.82
2730.73
2631.94
2550.41
2445.32
2425.34
2504.61
2560.73
2554.19
2505.58
2402.64
2269.05
2124.46
1952.75
1719.25
1454.1
1281.3
1210.54
1172.98
1142.98
1118.08
1098.84
1085.94
1078.76
1076.71
1077.76
1080.06
1081.52
1098.8
1173.67
1507.42
1897.74
2092.07
2219.7
2312.07
2430.61
2569.9
2996.17
2886.57
2796.31
2669.68
2526.46
2403.51
2314.51
2304.64
2396.59
2457.95
2457.38
2432.36
2357.34
2250.22
2134.64
2005.2
1831.67
1594.89
1372.84
1258.39
1208.11
1173.63
1144.28
1120.4
1102.38
1090.59
1084.11
1082.29
1083.22
1085.26
1086.45
1103.78
1179.14
1511.77
1900.59
2093.65
2222.01
2315.7
2433.83
2570.9
2756.87
2644.24
2509.9
2393.24
2301.02
2251.42
2260.24
2318.61
2344.91
2357.98
2344
2288.46
2203.92
2112.24
2014.84
1888.57
1702.98
1477.41
1317.7
1246.7
1207.15
1174.56
1146.14
1123.45
1106.68
1096
1090.16
1088.51
1089.34
1091.18
1092.21
1109.62
1184.81
1514.85
1902.7
2095.48
2225.02
2319.82
2437.12
2571.31
2555.6
2495.76
2389.01
2350.42
2298.45
2266.15
2261.17
2260.51
2266.5
2251.12
2208.07
2140.82
2067.49
1994.02
1902
1763.93
1568.5
1385.48
1288.97
1242.37
1207.68
1176.07
1148.73
1127.31
1111.74
1101.96
1096.61
1095
1095.69
1097.39
1098.39
1116.08
1191.75
1520.03
1906.04
2098.04
2229.49
2325.55
2441.59
2572.3
2589.15
2524.7
2460.15
2398.08
2326.78
2271.44
2228.04
2197.44
2166.86
2124.81
2067.62
2005.91
1950.4
1886.69
1787.79
1633.39
1452.03
1332.24
1275.67
1239.14
1206.42
1175.98
1150.41
1130.67
1116.59
1107.98
1103.29
1101.9
1102.62
1104.49
1105.69
1123.81
1199.15
1525.11
1912.62
2104.44
2235.96
2332.78
2446.3
2571.85
2598.83
2530.14
2489.02
2435.63
2383.14
2282.38
2184.86
2107.26
2047.39
1992.49
1939.61
1896.44
1852.89
1782.66
1664.37
1508.2
1380.18
1316.19
1280.86
1250.75
1220.74
1193.23
1170.88
1154.07
1142.45
1135.71
1132.27
1131.6
1132.78
1135.27
1136.94
1156.29
1233.93
1564.91
1957.27
2147.04
2273.74
2356.73
2457.51
2572.49
2608.12
2556.36
2538.48
2501.89
2435.33
2289.27
2131.71
2010.39
1935.27
1886.22
1851.54
1823.57
1783.22
1707.91
1585.95
1460.49
1385.94
1353.21
1332.28
1310.62
1288.58
1269.57
1255.36
1246.08
1240.92
1239.96
1240.2
1243.53
1247.74
1253.08
1255.57
1278.77
1366.2
1723.53
2121.64
2277.6
2369.41
2422.53
2487.87
2572.16
2622.59
2591.63
2595.4
2577.13
2485.66
2313.94
2101.45
1951.19
1885.72
1867.97
1870.97
1870.4
1835.23
1755.88
1668.53
1622.8
1613.76
1615.27
1614.34
1607.89
1598.55
1590.52
1584.95
1582.66
1582.75
1586.47
1589.85
1596.68
1602.35
1608.84
1611.1
1639.57
1745.72
2126.09
2499.25
2595.24
2621.06
2592.73
2574.88
2577.96
2648.44
2638.03
2691.66
2729.36
2668.94
2521.04
2281.22
2128.59
2096.01
2118.86
2146.1
2153.01
2116.22
2052.32
2005.2
1993.05
1997.04
1998.28
1991.74
1978.65
1963.14
1949.31
1938.47
1932.08
1928.73
1929.58
1931
1935.16
1938.52
1942.47
1944.52
1975.52
2082.57
2436.28
2782.08
2871.34
2885.47
2822.49
2718.61
2606.83
2665.94
2760.34
2925.75
3028.65
3055.89
2963.92
2697.86
2499.95
2447.49
2441.18
2416.42
2363.37
2289.35
2236.75
2214.68
2211.75
2210.14
2202.26
2188.05
2169.04
2149.74
2133.25
2120.68
2112.5
2107.05
2105.45
2104.85
2106.02
2107.16
2108.85
2109.49
2137.51
2221.84
2507.74
2830.26
2946.36
2980.79
2945.35
2828.94
2642.52
2666.07
2853.6
3081.04
3213.15
3239.4
3146.03
2872.83
2658.89
2570.5
2522.39
2467.38
2411.41
2365.35
2345.01
2339.58
2338.19
2332.23
2319.61
2300.98
2280.5
2262.15
2247.78
2237.92
2231.69
2227.93
2227.28
2227.15
2228.58
2230.34
2233.12
2235.24
2257.87
2325.16
2536.3
2826.66
2963.34
3003.28
2966.13
2834.14
2635.14
2671.33
2860.37
3056.74
3129.88
3147.83
3047.18
2815.23
2629.76
2537.54
2485.95
2440.77
2410.17
2395.36
2394.37
2397.8
2399.57
2395.58
2385.1
2371.05
2356.72
2345.11
2335.36
2328.31
2323.88
2321.96
2323.07
2324.47
2327.37
2330.31
2334.31
2338.46
2352.39
2402.79
2535.67
2769.91
2927.92
2964.89
2946.64
2807.34
2613.46
3526.14
2630.37
2885.49
2946.42
2979.88
2894.34
2726.2
2598.97
2530.65
2495.68
2469
2457
2455.51
2460.93
2468.07
2471.59
2469.86
2463.29
2454.26
2446.04
2442.14
2439.18
2437.93
2438.69
2440.29
2443.18
2445.12
2447.77
2450.03
2453.12
2456.01
2463.29
2484.25
2552.13
2688.4
2817.87
2838.61
2814.72
2568.84
3092.58
36399.5
3199.64
2657.5
2695.22
2697.4
2650.37
2567.85
2503.32
2474.33
2468.99
2470.7
2485.69
2500.67
2514.95
2526.71
2535.94
2542.73
2546.93
2548.88
2550.21
2552.51
2555.25
2558.75
2562.62
2566.22
2569.75
2571.82
2574.03
2575.31
2576.97
2577.25
2578.62
2578.6
2584.01
2603.58
2642.66
2640.47
2628.93
3061.72
22957.2
36399.5
3199.64
2657.5
2695.22
2697.4
2650.37
2567.85
2503.32
2474.33
2468.99
2470.7
2485.69
2500.67
2514.95
2526.71
2535.94
2542.73
2546.93
2548.88
2550.21
2552.51
2555.25
2558.75
2562.62
2566.22
2569.75
2571.82
2574.03
2575.31
2576.97
2577.25
2578.62
2578.6
2584.01
2603.58
2642.66
2640.47
2628.93
3061.72
22957.2
3526.14
2630.37
2885.49
2946.42
2979.88
2894.34
2726.2
2598.97
2530.65
2495.68
2469
2457
2455.51
2460.93
2468.07
2471.59
2469.86
2463.29
2454.26
2446.04
2442.14
2439.18
2437.93
2438.69
2440.29
2443.18
2445.12
2447.77
2450.03
2453.12
2456.01
2463.29
2484.25
2552.13
2688.4
2817.87
2838.61
2814.72
2568.84
3092.58
2671.33
2860.37
3056.74
3129.88
3147.83
3047.18
2815.23
2629.76
2537.54
2485.95
2440.77
2410.17
2395.36
2394.37
2397.8
2399.57
2395.58
2385.1
2371.05
2356.72
2345.11
2335.36
2328.31
2323.88
2321.96
2323.07
2324.47
2327.37
2330.31
2334.31
2338.46
2352.39
2402.79
2535.67
2769.91
2927.92
2964.89
2946.64
2807.34
2613.46
2666.07
2853.6
3081.04
3213.15
3239.4
3146.03
2872.83
2658.89
2570.5
2522.39
2467.38
2411.41
2365.35
2345.01
2339.58
2338.19
2332.23
2319.61
2300.98
2280.5
2262.15
2247.78
2237.92
2231.69
2227.93
2227.28
2227.15
2228.58
2230.34
2233.12
2235.24
2257.87
2325.16
2536.3
2826.66
2963.34
3003.28
2966.13
2834.14
2635.14
2665.94
2760.34
2925.75
3028.65
3055.89
2963.92
2697.86
2499.95
2447.49
2441.18
2416.42
2363.37
2289.35
2236.75
2214.68
2211.75
2210.14
2202.26
2188.05
2169.04
2149.74
2133.25
2120.68
2112.5
2107.05
2105.45
2104.85
2106.02
2107.16
2108.85
2109.49
2137.51
2221.84
2507.74
2830.26
2946.36
2980.79
2945.35
2828.94
2642.52
2648.44
2638.03
2691.66
2729.36
2668.94
2521.04
2281.22
2128.59
2096.01
2118.86
2146.1
2153.01
2116.22
2052.32
2005.2
1993.05
1997.04
1998.28
1991.74
1978.65
1963.14
1949.31
1938.47
1932.08
1928.73
1929.58
1931
1935.16
1938.52
1942.47
1944.52
1975.52
2082.57
2436.28
2782.08
2871.34
2885.47
2822.49
2718.61
2606.83
2622.59
2591.63
2595.4
2577.13
2485.66
2313.94
2101.45
1951.19
1885.72
1867.97
1870.97
1870.4
1835.23
1755.88
1668.53
1622.8
1613.76
1615.27
1614.34
1607.89
1598.55
1590.52
1584.95
1582.66
1582.75
1586.47
1589.85
1596.68
1602.35
1608.84
1611.1
1639.57
1745.72
2126.09
2499.25
2595.24
2621.06
2592.73
2574.88
2577.96
2608.12
2556.36
2538.48
2501.89
2435.33
2289.27
2131.71
2010.39
1935.27
1886.22
1851.54
1823.57
1783.22
1707.91
1585.95
1460.49
1385.94
1353.21
1332.28
1310.62
1288.58
1269.57
1255.36
1246.08
1240.92
1239.96
1240.2
1243.53
1247.74
1253.08
1255.57
1278.77
1366.2
1723.53
2121.64
2277.6
2369.41
2422.53
2487.87
2572.16
2598.83
2530.14
2489.02
2435.63
2383.14
2282.38
2184.86
2107.26
2047.39
1992.49
1939.61
1896.44
1852.89
1782.66
1664.37
1508.2
1380.18
1316.19
1280.86
1250.75
1220.74
1193.23
1170.88
1154.07
1142.45
1135.71
1132.27
1131.6
1132.78
1135.27
1136.94
1156.29
1233.93
1564.91
1957.27
2147.04
2273.74
2356.73
2457.51
2572.49
2589.15
2524.7
2460.15
2398.08
2326.78
2271.44
2228.04
2197.44
2166.86
2124.81
2067.62
2005.91
1950.4
1886.69
1787.79
1633.39
1452.03
1332.24
1275.67
1239.14
1206.42
1175.98
1150.41
1130.67
1116.59
1107.98
1103.29
1101.9
1102.62
1104.49
1105.69
1123.81
1199.15
1525.11
1912.62
2104.44
2235.96
2332.78
2446.3
2571.85
2555.6
2495.76
2389.01
2350.42
2298.45
2266.15
2261.17
2260.51
2266.5
2251.12
2208.07
2140.82
2067.49
1994.02
1902
1763.93
1568.5
1385.48
1288.97
1242.37
1207.68
1176.07
1148.73
1127.31
1111.74
1101.96
1096.61
1095
1095.69
1097.39
1098.39
1116.08
1191.75
1520.03
1906.04
2098.04
2229.49
2325.55
2441.59
2572.3
2756.87
2644.24
2509.9
2393.24
2301.02
2251.42
2260.24
2318.61
2344.91
2357.98
2344
2288.46
2203.92
2112.24
2014.84
1888.57
1702.98
1477.41
1317.7
1246.7
1207.15
1174.56
1146.14
1123.45
1106.68
1096
1090.16
1088.51
1089.34
1091.18
1092.21
1109.62
1184.81
1514.85
1902.7
2095.48
2225.02
2319.82
2437.12
2571.31
2996.17
2886.57
2796.31
2669.68
2526.46
2403.51
2314.51
2304.64
2396.59
2457.95
2457.38
2432.36
2357.34
2250.22
2134.64
2005.2
1831.67
1594.89
1372.84
1258.39
1208.11
1173.63
1144.28
1120.4
1102.38
1090.59
1084.11
1082.29
1083.22
1085.26
1086.45
1103.78
1179.14
1511.77
1900.59
2093.65
2222.01
2315.7
2433.83
2570.9
3202.2
3041.5
2935.37
2835.82
2730.73
2631.94
2550.41
2445.32
2425.34
2504.61
2560.73
2554.19
2505.58
2402.64
2269.05
2124.46
1952.75
1719.25
1454.1
1281.3
1210.54
1172.98
1142.98
1118.08
1098.84
1085.94
1078.76
1076.71
1077.76
1080.06
1081.52
1098.8
1173.67
1507.42
1897.74
2092.07
2219.7
2312.07
2430.61
2569.9
3390.42
3173.76
3011.16
2885.82
2806.35
2751.99
2717.68
2681.8
2583.01
2600.27
2640.17
2652.74
2634.21
2553.2
2415.16
2251.38
2069.47
1838.09
1550.09
1318.71
1216.7
1173.32
1142.59
1116.98
1096.69
1082.66
1074.75
1072.43
1073.57
1076.13
1077.88
1095.21
1170.23
1506.11
1897.13
2091.74
2218.46
2309.51
2428.14
2569.3
3505.7
3261.01
3047.83
2857.83
2749.64
2757.89
2783.07
2829.76
2810.14
2721.7
2762.63
2759.03
2739.8
2687.45
2561.33
2383.3
2183.96
1948.1
1648.67
1367.8
1226.1
1173.51
1142.04
1116.06
1094.93
1079.88
1071.27
1068.69
1069.95
1072.8
1074.87
1092.23
1166.77
1503.54
1895.52
2090.73
2216.57
2306.67
2425.09
2567.82
3564.38
3333.99
3102.71
2847.9
2632.04
2663.78
2709.53
2824.59
2999.69
2932.52
2855.07
2872.09
2850
2810.13
2699.7
2514.24
2295.26
2048.53
1740.99
1422.66
1239.26
1174.21
1141.6
1115.45
1093.68
1077.7
1068.46
1065.67
1067.06
1070.22
1072.61
1090.06
1164.56
1503.06
1895.88
2091.33
2216.06
2305.44
2423.2
2566.8
3581.72
3401.24
3202.83
2939.69
2675.83
2474.55
2491.18
2792.5
3134.89
3139.37
2992.11
2948.03
2937.29
2917.3
2831.8
2641.18
2397.93
2134.81
1820.23
1475.88
1254.12
1174.99
1141.07
1114.93
1092.69
1075.91
1066.11
1063.15
1064.69
1068.14
1070.81
1088.34
1162.63
1502.19
1895.5
2091.26
2214.93
2304.75
2421.22
2565.51
3544.18
3222.42
2900.43
2642.37
2430.58
2248.34
2199.17
2394.52
3040.8
3199.99
3106.65
3035.91
3024.5
3014.3
2949.04
2758.62
2489.71
2204.85
1882.19
1521.16
1268.65
1175.98
1140.65
1114.65
1092.06
1074.58
1064.31
1061.22
1062.91
1066.61
1069.51
1087.11
1161.25
1502.01
1896.16
2092.29
2214.48
2305.14
2420.09
2564.65
3119.99
2860.2
2626.95
2478.98
2336.86
2120.56
1986
2077.8
2807.38
3189.42
3131.19
3059.04
3048.69
3062.93
3031.58
2856.04
2566.65
2257.39
1923.85
1552.47
1279.7
1176.79
1140.33
1114.62
1091.75
1073.71
1063.11
1059.97
1061.78
1065.66
1068.71
1086.32
1160.33
1502.01
1896.95
2093.3
2214.01
2305.64
2420.72
2565.25
)
;

boundaryField
{
    inlet
    {
        type            calculated;
        value           uniform 14000.1;
    }
    outlet
    {
        type            calculated;
        value           nonuniform List<scalar> 
165
(
3261.02
3682
3687.68
3674.87
3630.3
3506.16
3302.6
3063.34
2861.41
2706.8
2627.64
2630.85
2629.77
2619.16
2598.96
2577.54
2568.79
2589.52
3102.25
4218.71
4218.71
3325.68
2644.76
2575.23
2562.48
2578.17
2618.15
2648.62
2660.86
2663.8
2665.97
2666.01
2664.84
2663.24
2662.79
2664.14
2667.23
2671.05
2674.82
2678.07
2680.92
2683.95
2686.53
2688.23
2688.99
2689.12
2689.05
2688.51
2687.8
2686.33
2684.42
2680.89
2675.44
2660.49
2628.26
2586.72
2580.51
2624.95
3164.46
4169.66
2698.5
2698.08
2697.15
2695.9
2694.5
2693.18
2692.04
2690.63
2688.95
2686.24
2682.97
2677.9
2670.36
2650.94
2614.31
2577.27
2577.91
2627.67
3182.82
4169.66
2699.27
2699.54
2699.67
2699.54
2699.27
4169.66
3182.82
2627.67
2577.91
2577.27
2614.31
2650.94
2670.36
2677.9
2682.97
2686.24
2688.95
2690.63
2692.04
2693.18
2694.5
2695.9
2697.15
2698.08
2698.5
4218.71
3325.68
2644.76
2575.23
2562.48
2578.17
2618.15
2648.62
2660.86
2663.8
2665.97
2666.01
2664.84
2663.24
2662.79
2664.14
2667.23
2671.05
2674.82
2678.07
2680.92
2683.95
2686.53
2688.23
2688.99
2689.12
2689.05
2688.51
2687.8
2686.33
2684.42
2680.89
2675.44
2660.49
2628.26
2586.72
2580.51
2624.95
3164.46
4169.66
4218.71
3102.25
2589.52
2568.79
2577.54
2598.96
2619.16
2629.77
2630.85
2627.64
2706.8
2861.41
3063.34
3302.6
3506.16
3630.3
3674.87
3687.68
3682
3261.02
)
;
    }
    obstacle
    {
        type            calculated;
        value           nonuniform List<scalar> 
40
(
23228.5
12879
12900.8
12919.5
12839
12710.5
12527.6
12376.5
12294.3
12253.3
23228.5
12879
12900.8
12919.5
12839
12710.5
12527.6
12376.5
12294.3
12253.3
12367
12196.5
12069.4
11726.7
11614.9
12367
12196.5
12069.4
11726.7
11614.9
6167.46
4198.41
3259.59
2731.64
2216.85
6167.46
4198.41
3259.59
2731.64
2216.85
)
;
    }
    empty
    {
        type            empty;
    }
}


// ************************************************************************* //
