/*--------------------------------*- C++ -*----------------------------------*\
| =========                 |                                                 |
| \\      /  F ield         | OpenFOAM: The Open Source CFD Toolbox           |
|  \\    /   O peration     | Version:  v1912                                 |
|   \\  /    A nd           | Website:  www.openfoam.com                      |
|    \\/     M anipulation  |                                                 |
\*---------------------------------------------------------------------------*/
FoamFile
{
    version     2.0;
    format      ascii;
    class       volScalarField;
    location    "6.3";
    object      Ma;
}
// * * * * * * * * * * * * * * * * * * * * * * * * * * * * * * * * * * * * * //

dimensions      [0 0 0 0 0 0 0];


internalField   nonuniform List<scalar> 
1900
(
0.739254
0.0632943
0.0946402
0.0905535
0.0926404
0.0937966
0.0949169
0.0969378
0.0979235
0.090065
0.739252
0.063292
0.0946392
0.0905423
0.0926191
0.0937197
0.0947223
0.0964002
0.0991186
0.101247
0.739251
0.0632928
0.0946333
0.0905275
0.0926011
0.0937004
0.0946706
0.0962969
0.0997881
0.107439
0.739252
0.063292
0.0946392
0.0905423
0.0926191
0.0937197
0.0947223
0.0964002
0.0991186
0.101247
0.739254
0.0632943
0.0946402
0.0905535
0.0926404
0.0937966
0.0949169
0.0969378
0.0979235
0.090065
0.0991758
0.138144
0.191539
0.278997
0.428249
0.118372
0.145171
0.178013
0.244905
0.389873
0.126391
0.15151
0.184681
0.24862
0.387203
0.118372
0.145171
0.178013
0.244905
0.389873
0.0991758
0.138144
0.191539
0.278997
0.428249
0.946536
1.3428
1.67648
1.87928
1.79666
0.906569
1.34127
1.69183
1.90427
1.82183
0.902678
1.35018
1.69194
1.89774
1.81826
0.906569
1.34127
1.69183
1.90427
1.82183
0.946536
1.3428
1.67648
1.87928
1.79666
1.81788
1.95888
2.16496
2.00355
1.45456
1.092
0.933545
0.740351
0.569637
0.437771
0.316664
0.182856
0.0764423
0.0362431
0.0282382
0.0262254
0.0252122
0.0255871
0.031974
0.0493741
0.0757126
0.106373
0.138656
0.171443
0.204342
0.237285
0.2698
0.302902
0.334454
0.365416
0.395959
0.425414
0.45381
0.477498
0.49694
0.509509
0.522292
0.48963
0.379625
0.0902398
1.81986
1.99707
2.17569
2.0766
1.49532
1.09187
0.958521
0.769733
0.587463
0.445385
0.318409
0.181556
0.0721136
0.0277208
0.0176301
0.0152127
0.0144378
0.0160482
0.0251799
0.0452621
0.0731301
0.104631
0.13742
0.170547
0.203695
0.236831
0.269497
0.302741
0.33439
0.365456
0.39607
0.425614
0.454036
0.477768
0.497207
0.509748
0.522687
0.490035
0.379244
0.0872745
1.80264
1.95169
2.1297
2.07291
1.50792
1.07768
0.940586
0.745041
0.567008
0.436548
0.318143
0.182577
0.0711351
0.0243424
0.0122614
0.00902399
0.00828486
0.0113226
0.0225235
0.0438307
0.0722606
0.104044
0.136993
0.170222
0.203443
0.236636
0.269347
0.302637
0.334323
0.365436
0.396094
0.425702
0.454183
0.478007
0.497562
0.510251
0.523474
0.491348
0.380635
0.0880824
1.81986
1.99707
2.17569
2.0766
1.49532
1.09187
0.958521
0.769733
0.587463
0.445385
0.318409
0.181556
0.0721136
0.0277208
0.0176301
0.0152127
0.0144378
0.0160482
0.0251799
0.0452621
0.0731301
0.104631
0.13742
0.170547
0.203695
0.236831
0.269497
0.302741
0.33439
0.365456
0.39607
0.425614
0.454036
0.477768
0.497207
0.509748
0.522687
0.490035
0.379244
0.0872745
1.81788
1.95888
2.16496
2.00355
1.45456
1.092
0.933545
0.740351
0.569637
0.437771
0.316664
0.182856
0.0764423
0.0362431
0.0282382
0.0262254
0.0252122
0.0255871
0.031974
0.0493741
0.0757126
0.106373
0.138656
0.171443
0.204342
0.237285
0.2698
0.302902
0.334454
0.365416
0.395959
0.425414
0.45381
0.477498
0.49694
0.509509
0.522292
0.48963
0.379625
0.0902398
1.82031
1.87002
1.91947
1.68412
1.2848
1.00785
0.846948
0.680909
0.54594
0.432728
0.317403
0.186719
0.0899633
0.0595884
0.0536953
0.051612
0.0497755
0.0488684
0.0520801
0.0642639
0.0862001
0.114055
0.144628
0.176317
0.20847
0.240875
0.273021
0.305771
0.337154
0.36791
0.398378
0.427663
0.456128
0.479819
0.499527
0.512355
0.524656
0.492025
0.383846
0.102406
1.58651
1.61564
1.54024
1.26994
0.956781
0.818141
0.723382
0.624049
0.527553
0.424183
0.312033
0.19341
0.120581
0.100123
0.0943962
0.0912604
0.0881739
0.0861143
0.0873111
0.0950921
0.111132
0.133781
0.160558
0.189558
0.219763
0.250711
0.281829
0.313569
0.344453
0.374593
0.404808
0.433582
0.462134
0.485673
0.506003
0.519153
0.530364
0.49672
0.389584
0.122347
1.25419
1.23915
1.06002
0.832511
0.723421
0.711688
0.669442
0.606215
0.508506
0.410685
0.306315
0.208207
0.157988
0.14203
0.135457
0.130855
0.126604
0.123705
0.123835
0.129406
0.141602
0.159807
0.182655
0.208495
0.236216
0.265194
0.294868
0.325128
0.355262
0.384462
0.414235
0.442203
0.470722
0.493895
0.51491
0.5283
0.538238
0.50347
0.398599
0.148711
0.820172
0.709942
0.686562
0.711488
0.743986
0.723537
0.666277
0.577317
0.488498
0.400479
0.30725
0.233297
0.198442
0.1841
0.176172
0.170045
0.164773
0.161207
0.160643
0.164938
0.17462
0.189443
0.20888
0.231672
0.256801
0.283594
0.311602
0.340087
0.369302
0.397339
0.426517
0.453485
0.48183
0.504486
0.526083
0.539553
0.548479
0.51261
0.410599
0.178803
0.700766
0.712606
0.806714
0.829674
0.78813
0.721399
0.638501
0.556569
0.476738
0.395216
0.317351
0.265199
0.239227
0.225342
0.215942
0.208504
0.20241
0.198329
0.197338
0.200779
0.208718
0.220999
0.237672
0.257808
0.280531
0.305184
0.331508
0.35815
0.386395
0.4132
0.441732
0.467659
0.495784
0.51789
0.54
0.553359
0.561653
0.525236
0.426534
0.211416
0.789216
0.859468
0.894207
0.844642
0.771622
0.702811
0.62319
0.547496
0.473456
0.401636
0.341369
0.302848
0.280432
0.265828
0.254956
0.246354
0.239531
0.235031
0.233664
0.23651
0.24316
0.253457
0.267863
0.285693
0.306208
0.32877
0.35338
0.378114
0.40524
0.430658
0.458346
0.483062
0.510703
0.532002
0.554182
0.567037
0.574196
0.53707
0.44176
0.243484
0.782437
0.872775
0.888875
0.822702
0.759555
0.68861
0.615534
0.544016
0.476803
0.416614
0.370577
0.339957
0.319498
0.304243
0.292362
0.282955
0.275646
0.270894
0.269212
0.271593
0.27726
0.286062
0.29877
0.314853
0.333664
0.354554
0.377805
0.401032
0.427307
0.451645
0.478738
0.502559
0.529944
0.550706
0.573078
0.585589
0.591812
0.555311
0.463598
0.278085
0.753549
0.856788
0.865965
0.804912
0.755734
0.680958
0.616045
0.550506
0.492261
0.443093
0.405869
0.378355
0.358039
0.341856
0.329009
0.31876
0.310994
0.30593
0.303936
0.305991
0.310845
0.318328
0.329476
0.343874
0.36096
0.380059
0.401778
0.423336
0.44849
0.471531
0.497755
0.520494
0.547343
0.567336
0.58952
0.601356
0.606067
0.570397
0.48266
0.310991
0.7254
0.83771
0.848571
0.799765
0.756451
0.679907
0.62149
0.562463
0.512349
0.471175
0.439237
0.413919
0.393755
0.377127
0.363827
0.353175
0.345186
0.33991
0.337676
0.339388
0.343617
0.350179
0.36032
0.37367
0.389698
0.407648
0.428474
0.44886
0.473325
0.495489
0.521092
0.543021
0.569421
0.588767
0.610646
0.62197
0.625251
0.590134
0.506659
0.345424
0.705607
0.820657
0.840966
0.802435
0.758127
0.684459
0.633091
0.581508
0.539977
0.503532
0.474067
0.449518
0.429068
0.411874
0.397931
0.386752
0.378422
0.372715
0.370337
0.371788
0.375416
0.381016
0.390042
0.402176
0.416953
0.433545
0.45327
0.472306
0.495943
0.517214
0.54215
0.563335
0.589306
0.608095
0.6297
0.640741
0.642914
0.60806
0.529468
0.378687
0.690397
0.805553
0.841461
0.807804
0.759862
0.694354
0.649019
0.602983
0.566807
0.533137
0.505712
0.481687
0.461228
0.443958
0.429847
0.418821
0.410466
0.404637
0.40203
0.403268
0.406519
0.411562
0.420005
0.431523
0.445661
0.46145
0.48052
0.498653
0.521685
0.54231
0.566641
0.587158
0.612579
0.630747
0.651779
0.662449
0.663338
0.628145
0.554124
0.41161
0.678171
0.794941
0.840924
0.811377
0.766756
0.708375
0.67059
0.627921
0.595394
0.563573
0.537174
0.513538
0.493194
0.475598
0.460919
0.449695
0.440942
0.435132
0.432426
0.433456
0.436165
0.440327
0.447757
0.458198
0.471259
0.485856
0.503978
0.520977
0.543247
0.563202
0.586907
0.606833
0.631783
0.649474
0.670112
0.680673
0.680799
0.646058
0.577571
0.443434
0.668028
0.788398
0.84158
0.81848
0.78087
0.724676
0.690472
0.64971
0.620214
0.58985
0.56433
0.540662
0.520307
0.503391
0.490139
0.478716
0.469935
0.46389
0.460928
0.461802
0.464346
0.468313
0.475612
0.485919
0.498796
0.512964
0.530803
0.547245
0.569038
0.588603
0.611745
0.631148
0.655438
0.672537
0.692382
0.702529
0.701568
0.667052
0.603063
0.474032
0.667656
0.787817
0.844333
0.827335
0.794411
0.739886
0.710242
0.671344
0.644411
0.614794
0.589877
0.566489
0.547258
0.53024
0.515471
0.50357
0.494406
0.487869
0.484454
0.484933
0.486944
0.490253
0.496975
0.50678
0.51916
0.532635
0.550018
0.565799
0.586968
0.606111
0.628747
0.647736
0.671516
0.688179
0.707508
0.717367
0.715812
0.682423
0.624931
0.503206
0.670166
0.7899
0.848245
0.835555
0.806166
0.75394
0.726895
0.689234
0.663584
0.634384
0.610076
0.587445
0.567326
0.550088
0.535341
0.523172
0.513443
0.506266
0.502429
0.502855
0.504973
0.508459
0.515535
0.525809
0.538613
0.552142
0.569727
0.585319
0.606064
0.624986
0.647143
0.665723
0.688685
0.704737
0.72306
0.732212
0.729774
0.698223
0.647025
0.52997
0.67066
0.789257
0.848503
0.839744
0.81229
0.761675
0.736888
0.700199
0.676144
0.647565
0.623863
0.601446
0.581732
0.564268
0.549347
0.536906
0.52673
0.519039
0.514705
0.51475
0.516485
0.519635
0.52655
0.536756
0.549391
0.562399
0.579599
0.594481
0.614557
0.633223
0.655117
0.673549
0.696015
0.711704
0.729337
0.737848
0.735203
0.707988
0.665433
0.554819
0.672299
0.789485
0.839305
0.83028
0.804335
0.756345
0.73397
0.698996
0.676506
0.648772
0.62587
0.604551
0.586489
0.570967
0.557687
0.546405
0.537301
0.530789
0.527613
0.528396
0.529841
0.531669
0.536861
0.545482
0.556803
0.568226
0.584249
0.59727
0.615578
0.632627
0.652994
0.670433
0.691586
0.706542
0.723258
0.731517
0.730301
0.711861
0.682192
0.575921
0.708778
0.795686
0.815183
0.802474
0.780581
0.736605
0.718087
0.685372
0.664993
0.639207
0.617777
0.596833
0.577957
0.560371
0.544988
0.531771
0.520713
0.512259
0.507315
0.506403
0.505437
0.504193
0.506482
0.512805
0.522441
0.532099
0.548028
0.560953
0.579456
0.596103
0.615871
0.633345
0.65422
0.670031
0.688413
0.700775
0.707959
0.709595
0.71829
0.652159
1.59649
0.934615
0.809281
0.778012
0.75718
0.714038
0.691237
0.656065
0.630654
0.60012
0.572823
0.545979
0.521524
0.498658
0.47803
0.459365
0.442795
0.428918
0.419051
0.414237
0.410638
0.408093
0.410536
0.418062
0.429377
0.441087
0.459728
0.475826
0.498024
0.51933
0.543778
0.566902
0.59247
0.614896
0.638989
0.659488
0.678782
0.717204
0.88932
1.5143
2.49891
1.60456
0.720488
0.638602
0.611279
0.566708
0.531559
0.490441
0.453442
0.41524
0.378743
0.343157
0.309411
0.277097
0.246736
0.218496
0.192829
0.170903
0.155238
0.148637
0.148433
0.15442
0.16957
0.191617
0.217665
0.244933
0.276696
0.307055
0.340424
0.372975
0.406173
0.438209
0.469554
0.499786
0.528178
0.555468
0.579318
0.656355
1.46488
2.46201
2.49891
1.60456
0.720488
0.638602
0.611279
0.566708
0.531559
0.490441
0.453442
0.41524
0.378743
0.343157
0.309411
0.277097
0.246736
0.218496
0.192829
0.170903
0.155238
0.148637
0.148433
0.15442
0.16957
0.191617
0.217665
0.244933
0.276696
0.307055
0.340424
0.372975
0.406173
0.438209
0.469554
0.499786
0.528178
0.555468
0.579318
0.656355
1.46488
2.46201
1.59649
0.934615
0.809281
0.778012
0.75718
0.714038
0.691237
0.656065
0.630654
0.60012
0.572823
0.545979
0.521524
0.498658
0.47803
0.459365
0.442795
0.428918
0.419051
0.414237
0.410638
0.408093
0.410536
0.418062
0.429377
0.441087
0.459728
0.475826
0.498024
0.51933
0.543778
0.566902
0.59247
0.614896
0.638989
0.659488
0.678782
0.717204
0.88932
1.5143
0.708778
0.795686
0.815183
0.802474
0.780581
0.736605
0.718087
0.685372
0.664993
0.639207
0.617777
0.596833
0.577957
0.560371
0.544988
0.531771
0.520713
0.512259
0.507315
0.506403
0.505437
0.504193
0.506482
0.512805
0.522441
0.532099
0.548028
0.560953
0.579456
0.596103
0.615871
0.633345
0.65422
0.670031
0.688413
0.700775
0.707959
0.709595
0.71829
0.652159
0.672299
0.789485
0.839305
0.83028
0.804335
0.756345
0.73397
0.698996
0.676506
0.648772
0.62587
0.604551
0.586489
0.570967
0.557687
0.546405
0.537301
0.530789
0.527613
0.528396
0.529841
0.531669
0.536861
0.545482
0.556803
0.568226
0.584249
0.59727
0.615578
0.632627
0.652994
0.670433
0.691586
0.706542
0.723258
0.731517
0.730301
0.711861
0.682192
0.575921
0.67066
0.789257
0.848503
0.839744
0.81229
0.761675
0.736888
0.700199
0.676144
0.647565
0.623863
0.601446
0.581732
0.564268
0.549347
0.536906
0.52673
0.519039
0.514705
0.51475
0.516485
0.519635
0.52655
0.536756
0.549391
0.562399
0.579599
0.594481
0.614557
0.633223
0.655117
0.673549
0.696015
0.711704
0.729337
0.737848
0.735203
0.707988
0.665433
0.554819
0.670166
0.7899
0.848245
0.835555
0.806166
0.75394
0.726895
0.689234
0.663584
0.634384
0.610076
0.587445
0.567326
0.550088
0.535341
0.523172
0.513443
0.506266
0.502429
0.502855
0.504973
0.508459
0.515535
0.525809
0.538613
0.552142
0.569727
0.585319
0.606064
0.624986
0.647143
0.665723
0.688685
0.704737
0.72306
0.732212
0.729774
0.698223
0.647025
0.52997
0.667656
0.787817
0.844333
0.827335
0.794411
0.739886
0.710242
0.671344
0.644411
0.614794
0.589877
0.566489
0.547258
0.53024
0.515471
0.50357
0.494406
0.487869
0.484454
0.484933
0.486944
0.490253
0.496975
0.50678
0.51916
0.532635
0.550018
0.565799
0.586968
0.606111
0.628747
0.647736
0.671516
0.688179
0.707508
0.717367
0.715812
0.682423
0.624931
0.503206
0.668028
0.788398
0.84158
0.81848
0.78087
0.724676
0.690472
0.64971
0.620214
0.58985
0.56433
0.540662
0.520307
0.503391
0.490139
0.478716
0.469935
0.46389
0.460928
0.461802
0.464346
0.468313
0.475612
0.485919
0.498796
0.512964
0.530803
0.547245
0.569038
0.588603
0.611745
0.631148
0.655438
0.672537
0.692382
0.702529
0.701568
0.667052
0.603063
0.474032
0.678171
0.794941
0.840924
0.811377
0.766756
0.708375
0.67059
0.627921
0.595394
0.563573
0.537174
0.513538
0.493194
0.475598
0.460919
0.449695
0.440942
0.435132
0.432426
0.433456
0.436165
0.440327
0.447757
0.458198
0.471259
0.485856
0.503978
0.520977
0.543247
0.563202
0.586907
0.606833
0.631783
0.649474
0.670112
0.680673
0.680799
0.646058
0.577571
0.443434
0.690397
0.805553
0.841461
0.807804
0.759862
0.694354
0.649019
0.602983
0.566807
0.533137
0.505712
0.481687
0.461228
0.443958
0.429847
0.418821
0.410466
0.404637
0.40203
0.403268
0.406519
0.411562
0.420005
0.431523
0.445661
0.46145
0.48052
0.498653
0.521685
0.54231
0.566641
0.587158
0.612579
0.630747
0.651779
0.662449
0.663338
0.628145
0.554124
0.41161
0.705607
0.820657
0.840966
0.802435
0.758127
0.684459
0.633091
0.581508
0.539977
0.503532
0.474067
0.449518
0.429068
0.411874
0.397931
0.386752
0.378422
0.372715
0.370337
0.371788
0.375416
0.381016
0.390042
0.402176
0.416953
0.433545
0.45327
0.472306
0.495943
0.517214
0.54215
0.563335
0.589306
0.608095
0.6297
0.640741
0.642914
0.60806
0.529468
0.378687
0.7254
0.83771
0.848571
0.799765
0.756451
0.679907
0.62149
0.562463
0.512349
0.471175
0.439237
0.413919
0.393755
0.377127
0.363827
0.353175
0.345186
0.33991
0.337676
0.339388
0.343617
0.350179
0.36032
0.37367
0.389698
0.407648
0.428474
0.44886
0.473325
0.495489
0.521092
0.543021
0.569421
0.588767
0.610646
0.62197
0.625251
0.590134
0.506659
0.345424
0.753549
0.856788
0.865965
0.804912
0.755734
0.680958
0.616045
0.550506
0.492261
0.443093
0.405869
0.378355
0.358039
0.341856
0.329009
0.31876
0.310994
0.30593
0.303936
0.305991
0.310845
0.318328
0.329476
0.343874
0.36096
0.380059
0.401778
0.423336
0.44849
0.471531
0.497755
0.520494
0.547343
0.567336
0.58952
0.601356
0.606067
0.570397
0.48266
0.310991
0.782437
0.872775
0.888875
0.822702
0.759555
0.68861
0.615534
0.544016
0.476803
0.416614
0.370577
0.339957
0.319498
0.304243
0.292362
0.282955
0.275646
0.270894
0.269212
0.271593
0.27726
0.286062
0.29877
0.314853
0.333664
0.354554
0.377805
0.401032
0.427307
0.451645
0.478738
0.502559
0.529944
0.550706
0.573078
0.585589
0.591812
0.555311
0.463598
0.278085
0.789216
0.859468
0.894207
0.844642
0.771622
0.702811
0.62319
0.547496
0.473456
0.401636
0.341369
0.302848
0.280432
0.265828
0.254956
0.246354
0.239531
0.235031
0.233664
0.23651
0.24316
0.253457
0.267863
0.285693
0.306208
0.32877
0.35338
0.378114
0.40524
0.430658
0.458346
0.483062
0.510703
0.532002
0.554182
0.567037
0.574196
0.53707
0.44176
0.243484
0.700766
0.712606
0.806714
0.829674
0.78813
0.721399
0.638501
0.556569
0.476738
0.395216
0.317351
0.265199
0.239227
0.225342
0.215942
0.208504
0.20241
0.198329
0.197338
0.200779
0.208718
0.220999
0.237672
0.257808
0.280531
0.305184
0.331508
0.35815
0.386395
0.4132
0.441732
0.467659
0.495784
0.51789
0.54
0.553359
0.561653
0.525236
0.426534
0.211416
0.820172
0.709942
0.686562
0.711488
0.743986
0.723537
0.666277
0.577317
0.488498
0.400479
0.30725
0.233297
0.198442
0.1841
0.176172
0.170045
0.164773
0.161207
0.160643
0.164938
0.17462
0.189443
0.20888
0.231672
0.256801
0.283594
0.311602
0.340087
0.369302
0.397339
0.426517
0.453485
0.48183
0.504486
0.526083
0.539553
0.548479
0.51261
0.410599
0.178803
1.25419
1.23915
1.06002
0.832511
0.723421
0.711688
0.669442
0.606215
0.508506
0.410685
0.306315
0.208207
0.157988
0.14203
0.135457
0.130855
0.126604
0.123705
0.123835
0.129406
0.141602
0.159807
0.182655
0.208495
0.236216
0.265194
0.294868
0.325128
0.355262
0.384462
0.414235
0.442203
0.470722
0.493895
0.51491
0.5283
0.538238
0.50347
0.398599
0.148711
1.58651
1.61564
1.54024
1.26994
0.956781
0.818141
0.723382
0.624049
0.527553
0.424183
0.312033
0.19341
0.120581
0.100123
0.0943962
0.0912604
0.0881739
0.0861143
0.0873111
0.0950921
0.111132
0.133781
0.160558
0.189558
0.219763
0.250711
0.281829
0.313569
0.344453
0.374593
0.404808
0.433582
0.462134
0.485673
0.506003
0.519153
0.530364
0.49672
0.389584
0.122347
1.82031
1.87002
1.91947
1.68412
1.2848
1.00785
0.846948
0.680909
0.54594
0.432728
0.317403
0.186719
0.0899633
0.0595884
0.0536953
0.051612
0.0497755
0.0488684
0.0520801
0.0642639
0.0862001
0.114055
0.144628
0.176317
0.20847
0.240875
0.273021
0.305771
0.337154
0.36791
0.398378
0.427663
0.456128
0.479819
0.499527
0.512355
0.524656
0.492025
0.383846
0.102406
)
;

boundaryField
{
    inlet
    {
        type            calculated;
        value           uniform 0;
    }
    outlet
    {
        type            calculated;
        value           nonuniform List<scalar> 
165
(
1.82031
1.58651
1.25419
0.820172
0.700766
0.789216
0.782437
0.753549
0.7254
0.705607
0.690397
0.678171
0.668028
0.667656
0.670166
0.67066
0.672299
0.708778
1.59649
2.49891
2.49891
1.60456
0.720488
0.638602
0.611279
0.566708
0.531559
0.490441
0.453442
0.41524
0.378743
0.343157
0.309411
0.277097
0.246736
0.218496
0.192829
0.170903
0.155238
0.148637
0.148433
0.15442
0.16957
0.191617
0.217665
0.244933
0.276696
0.307055
0.340424
0.372975
0.406173
0.438209
0.469554
0.499786
0.528178
0.555468
0.579318
0.656355
1.46488
2.46201
0.102406
0.122347
0.148711
0.178803
0.211416
0.243484
0.278085
0.310991
0.345424
0.378687
0.41161
0.443434
0.474032
0.503206
0.52997
0.554819
0.575921
0.652159
1.5143
2.46201
0.0902398
0.0872745
0.0880824
0.0872745
0.0902398
2.46201
1.5143
0.652159
0.575921
0.554819
0.52997
0.503206
0.474032
0.443434
0.41161
0.378687
0.345424
0.310991
0.278085
0.243484
0.211416
0.178803
0.148711
0.122347
0.102406
2.49891
1.60456
0.720488
0.638602
0.611279
0.566708
0.531559
0.490441
0.453442
0.41524
0.378743
0.343157
0.309411
0.277097
0.246736
0.218496
0.192829
0.170903
0.155238
0.148637
0.148433
0.15442
0.16957
0.191617
0.217665
0.244933
0.276696
0.307055
0.340424
0.372975
0.406173
0.438209
0.469554
0.499786
0.528178
0.555468
0.579318
0.656355
1.46488
2.46201
2.49891
1.59649
0.708778
0.672299
0.67066
0.670166
0.667656
0.668028
0.678171
0.690397
0.705607
0.7254
0.753549
0.782437
0.789216
0.700766
0.820172
1.25419
1.58651
1.82031
)
;
    }
    obstacle
    {
        type            calculated;
        value           nonuniform List<scalar> 
40
(
0.739254
0.0632943
0.0946402
0.0905535
0.0926404
0.0937966
0.0949166
0.0969375
0.097869
0.0892868
0.739254
0.0632943
0.0946402
0.0905535
0.0926404
0.0937966
0.0949166
0.0969375
0.097869
0.0892868
0.0972468
0.135164
0.188274
0.27566
0.421603
0.0972468
0.135164
0.188274
0.27566
0.421603
0.936656
1.34009
1.67444
1.87807
1.79515
0.936656
1.34009
1.67444
1.87807
1.79515
)
;
    }
    empty
    {
        type            empty;
    }
}


// ************************************************************************* //
