/*--------------------------------*- C++ -*----------------------------------*\
| =========                 |                                                 |
| \\      /  F ield         | OpenFOAM: The Open Source CFD Toolbox           |
|  \\    /   O peration     | Version:  v1912                                 |
|   \\  /    A nd           | Website:  www.openfoam.com                      |
|    \\/     M anipulation  |                                                 |
\*---------------------------------------------------------------------------*/
FoamFile
{
    version     2.0;
    format      ascii;
    class       volVectorField;
    location    "7.18";
    object      grad(p);
}
// * * * * * * * * * * * * * * * * * * * * * * * * * * * * * * * * * * * * * //

dimensions      [1 -2 -2 0 0 0 0];


internalField   nonuniform List<vector> 
1900
(
(69762.6 -0.0870487 0)
(-79728.1 0.0397412 0)
(-4778.49 -0.117922 0)
(-392.176 -0.0568017 0)
(-338.868 0.860501 0)
(-168.588 0.734373 0)
(-34.2234 2.81841 0)
(76.3835 6.21401 0)
(109.551 29.6595 0)
(872.834 -28.4112 0)
(69762.6 -0.15139 0)
(-79728.1 0.10249 0)
(-4778.59 -0.128055 0)
(-391.198 0.063761 0)
(-338.077 2.09949 0)
(-166.63 2.98895 0)
(-28.7438 3.39106 0)
(103.225 1.25753 0)
(74.9255 -20.2555 0)
(-44.9112 -79.7103 0)
(69762.6 6.53699e-09 0)
(-79728.1 -7.63833e-10 0)
(-4778.53 -7.63833e-10 0)
(-389.949 -7.99361e-10 0)
(-335.943 -5.50671e-10 0)
(-167.296 -6.03961e-10 0)
(-35.9548 -8.88178e-10 0)
(52.7369 5.68434e-10 0)
(28.5829 1.20792e-09 0)
(-178.455 1.93623e-09 0)
(69762.6 0.15139 0)
(-79728.1 -0.10249 0)
(-4778.59 0.128055 0)
(-391.198 -0.063761 0)
(-338.077 -2.09949 0)
(-166.63 -2.98895 0)
(-28.7438 -3.39106 0)
(103.225 -1.25753 0)
(74.9255 20.2555 0)
(-44.9112 79.7103 0)
(69762.6 0.0870487 0)
(-79728.1 -0.0397412 0)
(-4778.49 0.117922 0)
(-392.176 0.0568017 0)
(-338.868 -0.860501 0)
(-168.588 -0.734373 0)
(-34.2234 -2.81841 0)
(76.3835 -6.21401 0)
(109.551 -29.6595 0)
(872.834 28.4112 0)
(-57.2892 -770.3 8.50153e-12)
(-1657.04 -596.721 -9.96674e-12)
(-1587.84 -688.991 -1.25339e-11)
(621.338 -952.057 0)
(-18625 -7836.64 -5.44853e-11)
(-541.267 -939.732 8.36234e-12)
(-1123.64 -718.617 9.96674e-12)
(-1508.43 -801.847 1.25339e-11)
(-2036.09 -695.245 0)
(-17755.7 -7242.98 0)
(-866.961 1.4803e-09 0)
(-1194.67 2.27888e-09 0)
(-1448.93 1.20891e-09 0)
(-2035.72 2.75874e-09 0)
(-20482.8 -1.37456e-09 0)
(-541.267 939.732 8.36234e-12)
(-1123.64 718.617 9.96674e-12)
(-1508.43 801.847 1.25339e-11)
(-2036.09 695.245 0)
(-17755.7 7242.98 0)
(-57.2892 770.3 -2.52262e-11)
(-1657.04 596.721 -9.96674e-12)
(-1587.84 688.991 -1.25339e-11)
(621.338 952.057 -3.36612e-11)
(-18625 7836.64 5.44853e-11)
(-37005.9 10514.5 1.00189e-11)
(-11123.7 4108.5 -4.89358e-12)
(-4999.05 1874.6 0)
(-3106.52 1294.18 2.02999e-12)
(-1373.91 867.528 -6.89629e-13)
(-33087.6 13026.6 -5.16776e-12)
(-13044.1 3346.78 2.50866e-12)
(-5696.07 1069.22 0)
(-3375.68 794.717 -1.29909e-12)
(-2023.57 313.999 1.81303e-13)
(-34160.2 6.50434e-10 0)
(-14177.3 5.50367e-10 0)
(-5801.9 1.14312e-09 0)
(-3443.19 -1.21907e-09 5.2921e-13)
(-1987.63 2.73985e-09 -3.62606e-13)
(-33087.6 -13026.6 -5.16776e-12)
(-13044.1 -3346.78 2.50866e-12)
(-5696.07 -1069.22 0)
(-3375.68 -794.717 -1.29909e-12)
(-2023.57 -313.999 1.81303e-13)
(-37005.9 -10514.5 5.16776e-12)
(-11123.7 -4108.5 -1.23735e-13)
(-4999.05 -1874.6 0)
(-3106.52 -1294.18 3.89764e-14)
(-1373.91 -867.528 6.89629e-13)
(-202.83 -1133.01 0)
(-281.21 -456.015 0)
(-469.463 67.3559 0)
(-679.613 196.782 0)
(-347.061 102.672 0)
(707.072 -71.4164 0)
(2652.59 -257.75 0)
(2332.27 252.571 0)
(294.319 294.048 0)
(-177.109 293.989 0)
(-341.654 297.232 0)
(-679.062 273.703 0)
(-948.148 167.476 0)
(-1017.79 149.183 0)
(-1021.88 119.455 0)
(-1110.32 85.9492 0)
(-1106.28 63.11 0)
(-768.135 30.3512 0)
(-346.863 6.16902 0)
(-150.166 0.238412 0)
(-104.699 1.05578 0)
(-91.1841 1.34409 0)
(-73.1924 0.0220591 0)
(-47.564 -1.04824 0)
(-23.0604 -1.39899 0)
(-7.26483 -1.35043 0)
(0.935278 -1.20001 0)
(4.78458 -1.03756 0)
(8.45954 -0.945858 0)
(13.507 -0.792206 0)
(19.8631 -0.686973 0)
(24.591 -0.374204 0)
(59.6494 -0.503924 0)
(229.935 -0.473492 0)
(801.48 -3.46278 0)
(1240.24 -2.93423 0)
(906.091 0.244135 0)
(591.109 42.7928 0)
(491.468 -8.48783 0)
(605.055 -8.83185 0)
(-615.67 -710.725 0)
(-90.9168 -452.074 0)
(-319.964 -42.4649 0)
(-647.958 343.759 0)
(-407.745 244.674 0)
(649.081 52.4899 0)
(2632.16 -84.5344 0)
(2296.59 -74.8966 0)
(282.301 -177.694 0)
(-136.016 -102.431 0)
(-301.501 13.0626 0)
(-675.774 210.875 0)
(-945.065 143.331 0)
(-996.799 85.1324 0)
(-1023.15 44.8352 0)
(-1123.6 33.8933 0)
(-1118.53 28.9559 0)
(-775.529 14.0665 0)
(-349.437 2.50836 0)
(-150.47 0.00952837 0)
(-104.556 0.607196 0)
(-91.3047 0.602357 0)
(-73.4264 -6.62939e-05 0)
(-47.6873 -0.481225 0)
(-23.08 -0.606956 0)
(-7.24489 -0.573571 0)
(0.964006 -0.507157 0)
(4.80723 -0.442305 0)
(8.48164 -0.410021 0)
(13.5285 -0.349118 0)
(19.8997 -0.315264 0)
(24.5946 -0.187248 0)
(59.6519 -0.316187 0)
(229.557 -0.168028 0)
(801.082 -2.11793 0)
(1240.53 -2.04067 0)
(912.304 -0.870237 0)
(589.065 28.5189 0)
(484.718 -9.54908 0)
(608.225 -4.42973 0)
(-484.887 -5.17566e-09 0)
(-86.807 -2.85832e-09 0)
(-237.948 3.47197e-09 0)
(-596.082 1.22609e-08 0)
(-431.794 -7.99966e-09 0)
(611.303 -2.20833e-09 0)
(2615.53 -2.10741e-09 0)
(2305.16 1.73558e-08 0)
(286.309 1.28394e-07 0)
(-121.616 1.60349e-07 0)
(-250.511 1.0166e-07 0)
(-641.166 1.03231e-08 0)
(-984.727 -1.07308e-08 0)
(-1046.44 3.4207e-08 0)
(-1036.78 5.54708e-08 0)
(-1114.94 3.52001e-08 0)
(-1112.04 1.68431e-08 0)
(-775.829 3.89184e-09 0)
(-350.952 -6.08806e-09 0)
(-150.719 -7.059e-09 0)
(-104.526 -9.79116e-09 0)
(-91.3608 -1.15968e-09 0)
(-73.5076 2.64334e-09 0)
(-47.7406 3.07633e-09 0)
(-23.0873 -3.54666e-09 0)
(-7.2358 -1.17623e-08 0)
(0.973464 -1.96721e-08 0)
(4.81284 -2.88224e-08 0)
(8.48665 -2.07511e-08 0)
(13.5346 -1.92311e-08 0)
(19.9101 -1.60669e-08 0)
(24.5907 -2.41221e-09 0)
(59.655 6.11531e-09 0)
(229.411 8.19546e-09 0)
(800.935 1.06319e-08 0)
(1240.61 1.48124e-08 0)
(914.981 7.92901e-09 0)
(588.584 1.38596e-08 0)
(481.883 -6.42314e-09 0)
(609.121 -1.84499e-09 0)
(-615.67 710.725 0)
(-90.9168 452.074 0)
(-319.964 42.4649 0)
(-647.958 -343.759 0)
(-407.745 -244.674 0)
(649.081 -52.4899 0)
(2632.16 84.5344 0)
(2296.59 74.8966 0)
(282.301 177.694 0)
(-136.016 102.431 0)
(-301.501 -13.0626 0)
(-675.774 -210.875 0)
(-945.065 -143.331 0)
(-996.799 -85.1324 0)
(-1023.15 -44.8352 0)
(-1123.6 -33.8933 0)
(-1118.53 -28.9559 0)
(-775.529 -14.0665 0)
(-349.437 -2.50836 0)
(-150.47 -0.00952839 0)
(-104.556 -0.607196 0)
(-91.3047 -0.602357 0)
(-73.4264 6.63009e-05 0)
(-47.6873 0.481225 0)
(-23.08 0.606956 0)
(-7.24489 0.573571 0)
(0.964006 0.507157 0)
(4.80723 0.442305 0)
(8.48164 0.410021 0)
(13.5285 0.349118 0)
(19.8997 0.315264 0)
(24.5946 0.187248 0)
(59.6519 0.316187 0)
(229.557 0.168028 0)
(801.082 2.11793 0)
(1240.53 2.04067 0)
(912.304 0.870237 0)
(589.065 -28.5189 0)
(484.718 9.54908 0)
(608.225 4.42973 0)
(-202.83 1133.01 0)
(-281.21 456.015 0)
(-469.463 -67.3559 0)
(-679.613 -196.782 0)
(-347.061 -102.672 0)
(707.072 71.4164 0)
(2652.59 257.75 0)
(2332.27 -252.571 0)
(294.319 -294.048 0)
(-177.109 -293.989 0)
(-341.654 -297.232 0)
(-679.062 -273.703 0)
(-948.148 -167.476 0)
(-1017.79 -149.183 0)
(-1021.88 -119.455 0)
(-1110.32 -85.9492 0)
(-1106.28 -63.11 0)
(-768.135 -30.3512 0)
(-346.863 -6.16902 0)
(-150.166 -0.238412 0)
(-104.699 -1.05578 0)
(-91.1841 -1.34409 0)
(-73.1924 -0.0220591 0)
(-47.564 1.04824 0)
(-23.0604 1.39899 0)
(-7.26483 1.35043 0)
(0.935278 1.20001 0)
(4.78458 1.03756 0)
(8.45954 0.945858 0)
(13.507 0.792206 0)
(19.8631 0.686973 0)
(24.591 0.374204 0)
(59.6494 0.503924 0)
(229.935 0.473492 0)
(801.48 3.46278 0)
(1240.24 2.93423 0)
(906.091 -0.244135 0)
(591.109 -42.7928 0)
(491.468 8.48783 0)
(605.055 8.83185 0)
(-747.128 568.341 0)
(-623.844 197.773 0)
(-556.588 -108.964 0)
(-633.511 -55.2982 0)
(-309.678 165.227 0)
(808.111 309.277 0)
(2405.3 482.205 0)
(1909.21 -649.354 0)
(242.426 -834.655 0)
(-90.4988 -674.064 0)
(-242.35 -586.537 0)
(-590.58 -505.622 0)
(-863.392 -382.985 0)
(-942.404 -250.79 0)
(-984.953 -167.643 0)
(-1103.6 -133.724 0)
(-1097.82 -110.591 0)
(-748.361 -56.0454 0)
(-333.524 -11.7707 0)
(-147.616 -1.09139 0)
(-105.084 -1.84698 0)
(-90.7957 -2.10973 0)
(-72.1963 -0.201096 0)
(-46.9384 1.63446 0)
(-22.913 2.39609 0)
(-7.34666 2.36805 0)
(0.800972 2.11012 0)
(4.67399 1.82282 0)
(8.35328 1.65175 0)
(13.3909 1.401 0)
(19.6799 1.17049 0)
(24.4839 0.677893 0)
(59.7172 0.648433 0)
(230.977 0.937812 0)
(802.164 4.21909 0)
(1238.54 2.62298 0)
(890.806 -2.36667 0)
(592.178 -37.929 0)
(509.296 -3.36074 0)
(601.027 7.66223 0)
(-691.845 54.3868 0)
(-750.154 153.972 0)
(-666.614 89.8306 0)
(-440.114 258.775 0)
(-15.7884 684.702 0)
(958.344 915.287 0)
(1861.43 664.657 0)
(1290.15 -557.697 0)
(298.334 -759.974 0)
(15.5435 -586.861 0)
(-232.587 -592.339 0)
(-530.359 -575.218 0)
(-748.031 -472.251 0)
(-850.704 -361.76 0)
(-928.868 -281.066 0)
(-1058.95 -232.891 0)
(-1035.96 -177.988 0)
(-683.511 -80.6234 0)
(-301.06 -16.0864 0)
(-141.97 -2.26612 0)
(-105.474 -2.70905 0)
(-89.8064 -2.40709 0)
(-70.1184 -0.0279127 0)
(-45.3968 2.51028 0)
(-22.4325 3.74584 0)
(-7.49652 3.82154 0)
(0.481894 3.46967 0)
(4.40218 3.03235 0)
(8.11004 2.76792 0)
(13.1056 2.40934 0)
(19.2645 2.03659 0)
(24.1454 1.32864 0)
(59.8635 1.10413 0)
(232.818 1.62356 0)
(802.737 5.36466 0)
(1234.81 1.97689 0)
(875.21 -5.00971 0)
(589.578 -24.1413 0)
(525.842 -9.79619 0)
(603.07 2.6127 0)
(-546.345 36.8261 0)
(-589.689 141.486 0)
(-455.597 299.394 0)
(-60.2712 530.859 0)
(322.961 819.679 0)
(788.795 902.391 0)
(985.876 501.962 0)
(536.379 -392.948 0)
(214.322 -504.527 0)
(71.0405 -570.313 0)
(-231.129 -637.039 0)
(-474.86 -611.53 0)
(-657.697 -532.933 0)
(-758.171 -429.658 0)
(-860.77 -342.105 0)
(-1004.27 -295.373 0)
(-951.086 -225.974 0)
(-592.347 -94.5427 0)
(-258.016 -17.8134 0)
(-134.725 -3.33098 0)
(-105.219 -3.1476 0)
(-88.212 -2.10502 0)
(-67.4577 0.831065 0)
(-43.3019 3.9055 0)
(-21.6495 5.51014 0)
(-7.61278 5.71007 0)
(0.0404861 5.28888 0)
(3.99776 4.70219 0)
(7.75292 4.35222 0)
(12.6862 3.88753 0)
(18.6385 3.37899 0)
(23.5853 2.43729 0)
(60.0014 2.03195 0)
(235.082 2.75265 0)
(802.505 7.22272 0)
(1228.54 2.36067 0)
(865.637 -6.63225 0)
(587.566 -14.8141 0)
(535.077 -9.85888 0)
(607.949 0.205532 0)
(-520.017 -11.1836 0)
(-497.134 24.5024 0)
(-291.399 268.025 0)
(61.2513 446.545 0)
(342.233 482.113 0)
(652.18 409.408 0)
(613.192 -26.6934 0)
(320.26 -394.516 0)
(127.419 -422.288 0)
(-112.15 -577.82 0)
(-272.305 -628.275 0)
(-430.039 -620.414 0)
(-572.773 -551.899 0)
(-666.815 -449.212 0)
(-799.466 -377.751 0)
(-947.04 -346.431 0)
(-842.431 -250.383 0)
(-482.92 -91.1043 0)
(-213.165 -16.7724 0)
(-127.838 -4.5345 0)
(-104.292 -3.56784 0)
(-85.9724 -1.48781 0)
(-64.3265 2.09566 0)
(-40.8878 5.54076 0)
(-20.6935 7.35726 0)
(-7.70973 7.62789 0)
(-0.489338 7.1552 0)
(3.49958 6.46313 0)
(7.32502 6.05215 0)
(12.1677 5.51467 0)
(17.8669 4.89948 0)
(22.8473 3.81409 0)
(60.1674 3.21093 0)
(237.82 4.12773 0)
(802.359 8.64879 0)
(1221.46 2.61621 0)
(858.659 -7.49246 0)
(586.469 -10.9982 0)
(540.315 -9.64805 0)
(612.372 -1.80819 0)
(-533.511 13.705 0)
(-320.634 195.371 0)
(-48.9016 411.784 0)
(146.032 394.366 0)
(287.175 224.381 0)
(298.49 -4.23931 0)
(211.185 -357.677 0)
(155.169 -426.996 0)
(37.6839 -535.079 0)
(-127.456 -608.091 0)
(-272.175 -616.412 0)
(-401.261 -600.998 0)
(-492.721 -524.939 0)
(-590.356 -439.38 0)
(-761.727 -407.315 0)
(-881.537 -384.434 0)
(-705.044 -242.03 0)
(-367.231 -73.6585 0)
(-174.594 -14.1812 0)
(-122 -5.30962 0)
(-102.284 -3.60468 0)
(-82.7545 -0.36463 0)
(-60.6847 3.84904 0)
(-38.2317 7.54968 0)
(-19.6382 9.45087 0)
(-7.80749 9.75433 0)
(-1.08191 9.25977 0)
(2.93482 8.52463 0)
(6.83895 8.0956 0)
(11.5754 7.52548 0)
(16.9998 6.87769 0)
(21.9582 5.76337 0)
(60.3036 5.13001 0)
(240.322 6.18866 0)
(801.048 11.3385 0)
(1212.98 5.69878 0)
(852.518 -4.93264 0)
(585.488 -6.70242 0)
(543.933 -7.15899 0)
(618.988 -1.81619 0)
(-318.544 17.1699 0)
(-113.53 223.974 0)
(-99.6405 119.822 0)
(-119.337 -78.7701 0)
(-41.877 -245.298 0)
(91.2881 -337.215 0)
(205.808 -350.773 0)
(149.309 -424.621 0)
(-47.0902 -556.21 0)
(-190.525 -596.733 0)
(-265.47 -602.731 0)
(-341.893 -553.572 0)
(-417.032 -475.349 0)
(-553.469 -433.46 0)
(-746.518 -440.579 0)
(-787.765 -389.541 0)
(-542.956 -197.916 0)
(-263.357 -52.3139 0)
(-147.302 -13.0621 0)
(-117.646 -6.78886 0)
(-99.5273 -3.64029 0)
(-78.7897 0.703586 0)
(-56.7 5.50886 0)
(-35.4897 9.37562 0)
(-18.5691 11.2963 0)
(-7.89388 11.6336 0)
(-1.67433 11.1818 0)
(2.37774 10.4729 0)
(6.3622 10.0491 0)
(10.9941 9.47772 0)
(16.1689 8.878 0)
(21.1632 7.87899 0)
(60.5772 7.28523 0)
(243.802 8.36685 0)
(801.887 12.7842 0)
(1205.78 7.27655 0)
(846.709 -2.62914 0)
(584.323 -3.89667 0)
(545.024 -5.28721 0)
(621.021 -2.30441 0)
(-301.136 -195.085 0)
(-221.715 -23.6665 0)
(-340.636 -232.902 0)
(-205.811 -244.326 0)
(38.1281 -211.533 0)
(196.852 -200.982 0)
(126.957 -347.281 0)
(-42.7979 -498.591 0)
(-128.169 -582.308 0)
(-172.285 -575.618 0)
(-230.583 -547.334 0)
(-278.512 -484.087 0)
(-376.977 -442.588 0)
(-556.85 -451.212 0)
(-719.405 -464.388 0)
(-647.698 -343.918 0)
(-380.079 -136.338 0)
(-189.1 -35.2923 0)
(-130.724 -12.7294 0)
(-112.921 -7.78695 0)
(-95.0636 -2.93515 0)
(-73.938 2.4331 0)
(-52.3281 7.7232 0)
(-32.6547 11.6179 0)
(-17.4624 13.4745 0)
(-7.91777 13.7945 0)
(-2.20038 13.4099 0)
(1.84323 12.7639 0)
(5.87995 12.2849 0)
(10.4469 11.7649 0)
(15.4592 11.2544 0)
(20.4233 10.4313 0)
(60.7737 10.0098 0)
(245.621 11.1634 0)
(799.998 15.0056 0)
(1198.13 9.51342 0)
(841.751 -0.275099 0)
(582.927 -1.73648 0)
(545.467 -4.55705 0)
(626.304 -2.75546 0)
(-529.341 16.5728 0)
(-149.972 -2.40266 0)
(-312.276 -18.6016 0)
(-98.7449 -8.47873 0)
(-0.108528 -102.78 0)
(-39.5241 -288.975 0)
(-80.9789 -467.458 0)
(-77.1712 -539.301 0)
(-121.317 -529.707 0)
(-156.822 -521.881 0)
(-177.268 -470.051 0)
(-240.956 -429.153 0)
(-385.352 -438.275 0)
(-574.476 -475.014 0)
(-643.126 -440.987 0)
(-471.644 -251.88 0)
(-245.553 -83.1902 0)
(-144.244 -25.8122 0)
(-120.797 -12.8952 0)
(-108.208 -7.53078 0)
(-89.6789 -1.47253 0)
(-68.519 4.77401 0)
(-47.8492 10.2966 0)
(-29.9475 14.1475 0)
(-16.4716 15.9339 0)
(-7.95614 16.2464 0)
(-2.66739 15.9195 0)
(1.29362 15.3616 0)
(5.39947 14.8551 0)
(10.0011 14.4694 0)
(14.8839 14.1044 0)
(19.9638 13.5833 0)
(61.2826 13.5534 0)
(248.617 14.7294 0)
(800.297 18.0872 0)
(1191.06 13.1118 0)
(835.868 4.06422 0)
(580.197 2.46858 0)
(544.042 -1.75644 0)
(628.068 -2.14378 0)
(-287.481 260.834 0)
(-255.61 11.907 0)
(-346.491 64.8239 0)
(-286.928 -17.2845 0)
(-232.168 -230.244 0)
(-154.565 -408.093 0)
(-114.266 -460.436 0)
(-102.783 -485.419 0)
(-111.383 -481.633 0)
(-114.798 -444.384 0)
(-141.226 -404.121 0)
(-247.891 -409.7 0)
(-421.171 -452.69 0)
(-559.462 -469.163 0)
(-504.385 -348.585 0)
(-302.912 -150.7 0)
(-162.232 -47.3177 0)
(-121.361 -18.6741 0)
(-113.108 -11.1001 0)
(-101.914 -4.61314 0)
(-83.2062 2.68096 0)
(-62.5969 9.61946 0)
(-43.2955 15.096 0)
(-27.2224 18.6313 0)
(-15.4397 20.1379 0)
(-7.93162 20.2927 0)
(-3.05305 19.872 0)
(0.817571 19.2844 0)
(5.02022 18.7475 0)
(9.7235 18.414 0)
(14.6053 18.1569 0)
(19.8923 17.9449 0)
(61.8782 18.3203 0)
(249.99 19.5711 0)
(798.439 22.1281 0)
(1184.62 17.2859 0)
(831.495 8.6656 0)
(577.318 6.44483 0)
(541.022 1.04778 0)
(630.062 -0.92465 0)
(-266.518 98.6663 0)
(-338.855 -3.09059 0)
(-340.406 39.7414 0)
(-383.083 -72.8958 0)
(-376.705 -238.297 0)
(-261.346 -387.997 0)
(-155.494 -446.574 0)
(-97.5971 -433.617 0)
(-81.7733 -408.704 0)
(-82.1285 -371.977 0)
(-143.845 -370.813 0)
(-287.759 -413.162 0)
(-442.653 -452.882 0)
(-474.158 -397.776 0)
(-336.243 -219.579 0)
(-181.331 -78.1087 0)
(-118.328 -26.339 0)
(-109.343 -12.3209 0)
(-107.247 -6.20343 0)
(-94.9277 1.38785 0)
(-75.9638 9.27128 0)
(-56.5553 16.235 0)
(-39.1651 21.4485 0)
(-25.089 24.5327 0)
(-14.8706 25.6434 0)
(-8.21242 25.5252 0)
(-3.63912 24.9281 0)
(0.210097 24.2298 0)
(4.56073 23.6369 0)
(9.43186 23.33 0)
(14.4318 23.1908 0)
(20.1213 23.3054 0)
(62.8498 24.0741 0)
(252.286 25.2824 0)
(798.095 26.3411 0)
(1178.08 21.1838 0)
(825.422 14.1613 0)
(572.856 11.8085 0)
(536.94 3.78993 0)
(627.949 -0.603199 0)
(-195.381 67.9174 0)
(-312.392 77.5308 0)
(-413.758 89.2386 0)
(-554.856 -70.2222 0)
(-535.811 -258.591 0)
(-355.268 -390.31 0)
(-158.227 -401.731 0)
(-66.2906 -365.313 0)
(-51.9849 -336.22 0)
(-78.2851 -325.215 0)
(-180.913 -363.278 0)
(-326.976 -410.257 0)
(-406.344 -396.222 0)
(-334.643 -266.529 0)
(-196.342 -111.438 0)
(-116.699 -36.0188 0)
(-98.8363 -12.061 0)
(-101.958 -4.45762 0)
(-99.8975 2.19345 0)
(-87.0018 10.1882 0)
(-68.899 17.9499 0)
(-50.8624 24.2534 0)
(-35.2996 28.6485 0)
(-23.18 30.9265 0)
(-14.4833 31.415 0)
(-8.62093 30.8943 0)
(-4.30127 30.0883 0)
(-0.426689 29.2366 0)
(4.15309 28.6773 0)
(9.29366 28.5747 0)
(14.5816 28.8256 0)
(20.7435 29.4474 0)
(63.7832 30.882 0)
(252.175 32.5641 0)
(794.489 33.5327 0)
(1172.88 28.6524 0)
(822.461 23.6887 0)
(567.324 21.2684 0)
(529.062 11.1242 0)
(626.992 3.0294 0)
(-126.359 55.1212 0)
(-318.309 30.3057 0)
(-482.787 -8.33282 0)
(-718.264 -93.3728 0)
(-685.154 -271.247 0)
(-399.281 -346.499 0)
(-131.405 -324.373 0)
(-34.4683 -296.179 0)
(-43.1332 -280.61 0)
(-108.203 -302.966 0)
(-225.795 -354.278 0)
(-319.504 -365.775 0)
(-304.152 -278.873 0)
(-199.73 -134.463 0)
(-114.115 -45.6954 0)
(-85.5679 -11.4665 0)
(-87.9148 -1.10495 0)
(-95.6071 3.20436 0)
(-93.1339 9.16922 0)
(-79.7442 16.7187 0)
(-62.4102 24.3389 0)
(-46.2458 30.5436 0)
(-32.7346 34.8708 0)
(-22.4231 37.1795 0)
(-14.9015 37.9003 0)
(-9.4909 37.8868 0)
(-5.23656 37.6015 0)
(-1.14958 37.3004 0)
(3.92286 37.3923 0)
(9.5748 38.2062 0)
(15.2728 39.2321 0)
(22.103 40.9363 0)
(65.8531 43.3768 0)
(254.84 46.3346 0)
(794.326 48.6888 0)
(1168.6 46.1141 0)
(818.306 42.2943 0)
(560.749 37.065 0)
(519.365 20.5308 0)
(614.31 4.70044 0)
(-113.061 -5.35325 0)
(-373.539 -33.1237 0)
(-532.939 -111.343 0)
(-808.21 -111.8 0)
(-779.733 -214.255 0)
(-406.462 -247.004 0)
(-109.737 -232.441 0)
(-24.1191 -234.203 0)
(-58.5248 -247.369 0)
(-149.275 -286.001 0)
(-241.438 -306.571 0)
(-254.313 -252.763 0)
(-183.443 -135.489 0)
(-109.944 -37.3597 0)
(-77.8186 8.10964 0)
(-73.73 24.8494 0)
(-84.6989 29.5956 0)
(-92.057 34.128 0)
(-86.8747 42.6151 0)
(-72.3837 53.0193 0)
(-55.5768 62.9182 0)
(-40.7135 71.2412 0)
(-28.9049 77.5364 0)
(-20.2607 81.8435 0)
(-13.8018 84.6465 0)
(-8.90887 86.7033 0)
(-4.86627 88.2189 0)
(-0.628295 89.5154 0)
(5.02589 90.8535 0)
(11.0665 92.9761 0)
(17.2125 94.5828 0)
(24.7376 97.1303 0)
(68.9852 99.9518 0)
(257.294 105.61 0)
(794.277 113.005 0)
(1166.72 117.992 0)
(813.74 116.393 0)
(546.352 91.9038 0)
(497.874 45.837 0)
(602.678 8.1169 0)
(-163.437 -70.0642 0)
(-420.445 -49.2222 0)
(-558.602 -97.1604 0)
(-817.433 -52.7959 0)
(-815.442 -85.5428 0)
(-416.806 -118.59 0)
(-119.069 -124.592 0)
(-48.8533 -146.618 0)
(-93.0482 -175.728 0)
(-165.252 -190.191 0)
(-193.766 -149.775 0)
(-154.643 -52.3589 0)
(-96.581 41.0285 0)
(-61.3527 93.2626 0)
(-54.1685 124.698 0)
(-64.8632 144.048 0)
(-78.9736 158.969 0)
(-83.061 175.237 0)
(-74.9295 193.629 0)
(-60.1795 211.982 0)
(-44.8508 229.932 0)
(-32.1592 248.059 0)
(-22.5179 264.975 0)
(-15.5715 279.511 0)
(-10.2185 291.71 0)
(-6.04845 302.978 0)
(-2.52668 310.858 0)
(1.38922 319.462 0)
(7.2577 326.098 0)
(13.1685 332.938 0)
(19.276 336.255 0)
(27.2767 341.777 0)
(74.0245 344.275 0)
(267.418 357.079 0)
(806.258 380.066 0)
(1171.86 392.769 0)
(793.166 347.758 0)
(492.758 245.615 0)
(438.625 114.617 0)
(562.318 9.7676 0)
(-228.009 -97.0671 0)
(-399.65 0.975588 0)
(-536.383 76.6512 0)
(-797.015 187.196 0)
(-843.134 194.002 0)
(-444.091 129.587 0)
(-136.746 119.915 0)
(-73.3961 122.881 0)
(-100.514 132.424 0)
(-124.264 188.043 0)
(-108.619 283.711 0)
(-70.4485 389.776 0)
(-43.1167 471.783 0)
(-29.3176 533.332 0)
(-28.8795 582.081 0)
(-40.705 620.947 0)
(-54.6442 655.049 0)
(-58.6575 687.042 0)
(-51.4657 716.859 0)
(-37.401 743.651 0)
(-20.8124 768.354 0)
(-6.94416 793.495 0)
(1.4038 814.913 0)
(5.50218 832.439 0)
(8.81212 845.981 0)
(9.54226 858.469 0)
(11.0177 866.089 0)
(14.0573 875.156 0)
(18.0118 880.989 0)
(20.8541 887.11 0)
(25.7307 888.717 0)
(32.4658 891.761 0)
(83.7304 891.108 0)
(291.784 905.507 0)
(828.669 921.988 0)
(1135.59 888.417 0)
(671.937 762.422 0)
(321.688 559.909 0)
(270.603 278.864 0)
(482.817 53.3491 0)
(-256.034 -69.9004 0)
(-253.044 132.179 0)
(-379.153 427.296 0)
(-704.35 695.925 0)
(-870.956 788.536 0)
(-488.199 704.915 0)
(-125.531 673.231 0)
(-36.7994 694.837 0)
(-30.2549 737.124 0)
(-19.4666 821.941 0)
(0.630846 913.224 0)
(26.59 994.803 0)
(41.7552 1056.44 0)
(44.9345 1104.25 0)
(30.2609 1132.09 0)
(5.4515 1144.95 0)
(-15.2828 1153.58 0)
(-23.4992 1164.05 0)
(-20.3791 1176.49 0)
(-10.5573 1188.05 0)
(3.18068 1195.81 0)
(12.7071 1201.15 0)
(15.0106 1198.99 0)
(14.3669 1194.98 0)
(14.8644 1189.29 0)
(13.3279 1184.23 0)
(13.5535 1179.15 0)
(15.7476 1174.34 0)
(18.7772 1169.45 0)
(20.6159 1164.75 0)
(23.7581 1160.54 0)
(29.5805 1155.66 0)
(87.2707 1153.19 0)
(297.175 1154.83 0)
(789.789 1117.6 0)
(1018.1 986.464 0)
(476.604 869.017 0)
(26.7841 744.733 0)
(-49.5154 408.938 0)
(242.185 92.4273 0)
(-167.995 -90.6341 0)
(79.4668 234.357 0)
(6.86265 621.419 0)
(-448.911 817.24 0)
(-834.471 955.144 0)
(-555.203 955.764 0)
(-146.457 910.07 0)
(-11.8262 906.191 0)
(21.9685 921.203 0)
(45.4316 949.973 0)
(57.9572 973.671 0)
(67.5614 986.352 0)
(62.3528 985.482 0)
(43.5841 968.983 0)
(10.3369 939.552 0)
(-20.0041 909.679 0)
(-36.2345 887.982 0)
(-36.5774 877.799 0)
(-28.3394 877.111 0)
(-18.7869 883.953 0)
(-8.19055 892.618 0)
(-3.87184 873.645 0)
(-4.54592 844.487 0)
(-3.85018 825.122 0)
(-1.54323 811.904 0)
(-0.231379 801.646 0)
(1.48379 794.203 0)
(4.71784 786.732 0)
(8.77022 781.161 0)
(12.2589 774.359 0)
(16.9788 770.173 0)
(25.3894 765.701 0)
(82.9296 764.773 0)
(257.483 741.12 0)
(666.423 647.66 0)
(896.046 413.804 0)
(438.997 339.465 0)
(-121.66 485.893 0)
(-357.983 320.818 0)
(-0.317649 -22.4 0)
(-117.537 535.783 0)
(433.116 -273.407 0)
(182.535 327.421 0)
(-382.76 314.722 0)
(-737.469 487.889 0)
(-531.634 666.868 0)
(-173.302 691.11 0)
(-26.0717 686.273 0)
(11.9348 682.941 0)
(31.0937 672.155 0)
(35.6869 662.509 0)
(37.9714 646.225 0)
(25.0184 627.739 0)
(0.674448 601.208 0)
(-26.8875 579.425 0)
(-44.2432 567.311 0)
(-46.0036 565.388 0)
(-33.9746 570.627 0)
(-14.4485 577.702 0)
(4.38591 582.078 0)
(-6.75218 583.482 0)
(-33.6739 577.345 0)
(-31.7482 575.958 0)
(-17.0312 570.934 0)
(-7.75763 566.514 0)
(-3.72932 563.619 0)
(-0.818219 561.562 0)
(3.18017 559.146 0)
(6.85374 556.912 0)
(10.0273 552.945 0)
(15.4151 548.82 0)
(24.3768 544.449 0)
(63.5835 536.775 0)
(184.321 492.188 0)
(474.376 361.333 0)
(721.111 47.7127 0)
(546.072 -165.31 0)
(8.81479 -47.0695 0)
(-539.325 -433.655 0)
(-45.3807 132.575 0)
(84.8395 48276.1 0)
(-121.318 -258.637 0)
(573.605 -418.027 0)
(-294.277 -340.691 0)
(-495.13 -75.444 0)
(-359.373 194.733 0)
(-127.757 296.336 0)
(-19.6972 318.299 0)
(8.36339 334.408 0)
(25.7416 336.826 0)
(32.9704 343.269 0)
(34.0564 345.883 0)
(18.9732 348.547 0)
(-2.9732 352.897 0)
(-22.3277 367.256 0)
(-33.5301 392.646 0)
(-33.0396 422.207 0)
(-24.7116 447.249 0)
(-17.3047 461.954 0)
(-13.2175 463.412 0)
(-12.7511 455.404 0)
(-11.1222 472.544 0)
(-10.7236 498.963 0)
(-12.9508 514.356 0)
(-8.59211 523.246 0)
(-5.00338 528.252 0)
(-2.82689 531.606 0)
(0.237667 532.976 0)
(2.79449 532.402 0)
(4.46126 530.088 0)
(8.79228 525.306 0)
(13.7819 519.497 0)
(32.569 505.612 0)
(88.421 461.929 0)
(238.11 325.602 0)
(388.554 17.0996 0)
(347.662 -332.629 0)
(-380.247 -545.128 0)
(-184.87 -229.442 0)
(289.813 34855.6 0)
(46153.8 -48527.1 0)
(-46490.3 543.617 0)
(103.464 -156.586 0)
(-52.6339 -159.001 0)
(-221.515 203.417 0)
(-173.373 584.688 0)
(-54.2294 756.266 0)
(10.6159 773.542 0)
(29.7881 765.69 0)
(39.6328 733.95 0)
(44.4147 697.849 0)
(43.0576 653.645 0)
(31.777 617.825 0)
(18.7024 600.98 0)
(11.4167 601.502 0)
(8.71002 612.303 0)
(6.61352 627.259 0)
(4.32719 639.726 0)
(1.1272 648.413 0)
(-1.92664 656.514 0)
(2.04759 664.128 0)
(8.30163 667.621 0)
(8.54304 667.055 0)
(6.36875 669.884 0)
(5.63278 673.886 0)
(4.32718 672.955 0)
(3.73452 674.588 0)
(3.94664 672.013 0)
(4.07071 670.245 0)
(3.18968 664.889 0)
(5.2094 662.306 0)
(5.39852 650.359 0)
(8.1083 642.401 0)
(10.857 608.147 0)
(45.7223 539.377 0)
(86.8157 313.604 0)
(4.28918 46.0691 0)
(108.25 -51.6282 0)
(33574.1 328.331 0)
(-33412.4 -34700.8 0)
(46153.8 48527.1 0)
(-46490.3 -543.617 0)
(103.464 156.586 0)
(-52.6339 159.001 0)
(-221.515 -203.417 0)
(-173.373 -584.688 0)
(-54.2294 -756.266 0)
(10.6159 -773.542 0)
(29.7881 -765.69 0)
(39.6328 -733.95 0)
(44.4147 -697.849 0)
(43.0576 -653.645 0)
(31.777 -617.825 0)
(18.7024 -600.98 0)
(11.4167 -601.502 0)
(8.71002 -612.303 0)
(6.61352 -627.259 0)
(4.32719 -639.726 0)
(1.1272 -648.413 0)
(-1.92664 -656.514 0)
(2.04759 -664.128 0)
(8.30163 -667.621 0)
(8.54304 -667.055 0)
(6.36875 -669.884 0)
(5.63278 -673.886 0)
(4.32718 -672.955 0)
(3.73452 -674.588 0)
(3.94664 -672.013 0)
(4.07071 -670.245 0)
(3.18968 -664.889 0)
(5.2094 -662.306 0)
(5.39852 -650.359 0)
(8.1083 -642.401 0)
(10.857 -608.147 0)
(45.7223 -539.377 0)
(86.8157 -313.604 0)
(4.28918 -46.0691 0)
(108.25 51.6282 0)
(33574.1 -328.331 0)
(-33412.4 34700.8 0)
(84.8395 -48276.1 0)
(-121.318 258.637 0)
(573.605 418.027 0)
(-294.277 340.691 0)
(-495.13 75.444 0)
(-359.373 -194.733 0)
(-127.757 -296.336 0)
(-19.6972 -318.299 0)
(8.36339 -334.408 0)
(25.7416 -336.826 0)
(32.9704 -343.269 0)
(34.0564 -345.883 0)
(18.9732 -348.547 0)
(-2.9732 -352.897 0)
(-22.3277 -367.256 0)
(-33.5301 -392.646 0)
(-33.0396 -422.207 0)
(-24.7116 -447.249 0)
(-17.3047 -461.954 0)
(-13.2175 -463.412 0)
(-12.7511 -455.404 0)
(-11.1222 -472.544 0)
(-10.7236 -498.963 0)
(-12.9508 -514.356 0)
(-8.59211 -523.246 0)
(-5.00338 -528.252 0)
(-2.82689 -531.606 0)
(0.237667 -532.976 0)
(2.79449 -532.402 0)
(4.46126 -530.088 0)
(8.79228 -525.306 0)
(13.7819 -519.497 0)
(32.569 -505.612 0)
(88.421 -461.929 0)
(238.11 -325.602 0)
(388.554 -17.0996 0)
(347.662 332.629 0)
(-380.247 545.128 0)
(-184.87 229.442 0)
(289.813 -34855.6 0)
(-117.537 -535.783 0)
(433.116 273.407 0)
(182.535 -327.421 0)
(-382.76 -314.722 0)
(-737.469 -487.889 0)
(-531.634 -666.868 0)
(-173.302 -691.11 0)
(-26.0717 -686.273 0)
(11.9348 -682.941 0)
(31.0937 -672.155 0)
(35.6869 -662.509 0)
(37.9714 -646.225 0)
(25.0184 -627.739 0)
(0.674448 -601.208 0)
(-26.8875 -579.425 0)
(-44.2432 -567.311 0)
(-46.0036 -565.388 0)
(-33.9746 -570.627 0)
(-14.4485 -577.702 0)
(4.38591 -582.078 0)
(-6.75218 -583.482 0)
(-33.6739 -577.345 0)
(-31.7482 -575.958 0)
(-17.0312 -570.934 0)
(-7.75763 -566.514 0)
(-3.72932 -563.619 0)
(-0.818219 -561.562 0)
(3.18017 -559.146 0)
(6.85374 -556.912 0)
(10.0273 -552.945 0)
(15.4151 -548.82 0)
(24.3768 -544.449 0)
(63.5835 -536.775 0)
(184.321 -492.188 0)
(474.376 -361.333 0)
(721.111 -47.7127 0)
(546.072 165.31 0)
(8.81479 47.0695 0)
(-539.325 433.655 0)
(-45.3807 -132.575 0)
(-167.995 90.6341 0)
(79.4668 -234.357 0)
(6.86265 -621.419 0)
(-448.911 -817.24 0)
(-834.471 -955.144 0)
(-555.203 -955.764 0)
(-146.457 -910.07 0)
(-11.8262 -906.191 0)
(21.9685 -921.203 0)
(45.4316 -949.973 0)
(57.9572 -973.671 0)
(67.5614 -986.352 0)
(62.3528 -985.482 0)
(43.5841 -968.983 0)
(10.3369 -939.552 0)
(-20.0041 -909.679 0)
(-36.2345 -887.982 0)
(-36.5774 -877.799 0)
(-28.3394 -877.111 0)
(-18.7869 -883.953 0)
(-8.19055 -892.618 0)
(-3.87184 -873.645 0)
(-4.54592 -844.487 0)
(-3.85018 -825.122 0)
(-1.54323 -811.904 0)
(-0.231379 -801.646 0)
(1.48379 -794.203 0)
(4.71784 -786.732 0)
(8.77022 -781.161 0)
(12.2589 -774.359 0)
(16.9788 -770.173 0)
(25.3894 -765.701 0)
(82.9296 -764.773 0)
(257.483 -741.12 0)
(666.423 -647.66 0)
(896.046 -413.804 0)
(438.997 -339.465 0)
(-121.66 -485.893 0)
(-357.983 -320.818 0)
(-0.317649 22.4 0)
(-256.034 69.9004 0)
(-253.044 -132.179 0)
(-379.153 -427.296 0)
(-704.35 -695.925 0)
(-870.956 -788.536 0)
(-488.199 -704.915 0)
(-125.531 -673.231 0)
(-36.7994 -694.837 0)
(-30.2549 -737.124 0)
(-19.4666 -821.941 0)
(0.630846 -913.224 0)
(26.59 -994.803 0)
(41.7552 -1056.44 0)
(44.9345 -1104.25 0)
(30.2609 -1132.09 0)
(5.4515 -1144.95 0)
(-15.2828 -1153.58 0)
(-23.4992 -1164.05 0)
(-20.3791 -1176.49 0)
(-10.5573 -1188.05 0)
(3.18068 -1195.81 0)
(12.7071 -1201.15 0)
(15.0106 -1198.99 0)
(14.3669 -1194.98 0)
(14.8644 -1189.29 0)
(13.3279 -1184.23 0)
(13.5535 -1179.15 0)
(15.7476 -1174.34 0)
(18.7772 -1169.45 0)
(20.6159 -1164.75 0)
(23.7581 -1160.54 0)
(29.5805 -1155.66 0)
(87.2707 -1153.19 0)
(297.175 -1154.83 0)
(789.789 -1117.6 0)
(1018.1 -986.464 0)
(476.604 -869.017 0)
(26.7841 -744.733 0)
(-49.5154 -408.938 0)
(242.185 -92.4273 0)
(-228.009 97.0671 0)
(-399.65 -0.975588 0)
(-536.383 -76.6512 0)
(-797.015 -187.196 0)
(-843.134 -194.002 0)
(-444.091 -129.587 0)
(-136.746 -119.915 0)
(-73.3961 -122.881 0)
(-100.514 -132.424 0)
(-124.264 -188.043 0)
(-108.619 -283.711 0)
(-70.4485 -389.776 0)
(-43.1167 -471.783 0)
(-29.3176 -533.332 0)
(-28.8795 -582.081 0)
(-40.705 -620.947 0)
(-54.6442 -655.049 0)
(-58.6575 -687.042 0)
(-51.4657 -716.859 0)
(-37.401 -743.651 0)
(-20.8124 -768.354 0)
(-6.94416 -793.495 0)
(1.4038 -814.913 0)
(5.50218 -832.439 0)
(8.81212 -845.981 0)
(9.54226 -858.469 0)
(11.0177 -866.089 0)
(14.0573 -875.156 0)
(18.0118 -880.989 0)
(20.8541 -887.11 0)
(25.7307 -888.717 0)
(32.4658 -891.761 0)
(83.7304 -891.108 0)
(291.784 -905.507 0)
(828.669 -921.988 0)
(1135.59 -888.417 0)
(671.937 -762.422 0)
(321.688 -559.909 0)
(270.603 -278.864 0)
(482.817 -53.3491 0)
(-163.437 70.0642 0)
(-420.445 49.2222 0)
(-558.602 97.1604 0)
(-817.433 52.7959 0)
(-815.442 85.5428 0)
(-416.806 118.59 0)
(-119.069 124.592 0)
(-48.8533 146.618 0)
(-93.0482 175.728 0)
(-165.252 190.191 0)
(-193.766 149.775 0)
(-154.643 52.3589 0)
(-96.581 -41.0285 0)
(-61.3527 -93.2626 0)
(-54.1685 -124.698 0)
(-64.8632 -144.048 0)
(-78.9736 -158.969 0)
(-83.061 -175.237 0)
(-74.9295 -193.629 0)
(-60.1795 -211.982 0)
(-44.8508 -229.932 0)
(-32.1592 -248.059 0)