/*--------------------------------*- C++ -*----------------------------------*\
| =========                 |                                                 |
| \\      /  F ield         | OpenFOAM: The Open Source CFD Toolbox           |
|  \\    /   O peration     | Version:  v1912                                 |
|   \\  /    A nd           | Website:  www.openfoam.com                      |
|    \\/     M anipulation  |                                                 |
\*---------------------------------------------------------------------------*/
FoamFile
{
    version     2.0;
    format      ascii;
    class       volVectorField;
    location    "7.18";
    object      grad(rho);
}
// * * * * * * * * * * * * * * * * * * * * * * * * * * * * * * * * * * * * * //

dimensions      [1 -4 0 0 0 0 0];


internalField   nonuniform List<vector> 
1900
(
(65854.2 -0.0751155 0)
(-72434.9 0.0380726 0)
(-3932.33 -0.13766 0)
(-899.351 -0.0824559 0)
(-1510.39 0.93922 0)
(-1608.15 1.21709 0)
(-1133.58 3.79908 0)
(-471.684 5.67049 0)
(-66.8935 24.6525 0)
(885.185 -37.6612 0)
(65854.2 -0.133991 0)
(-72435 0.0981603 0)
(-3932.45 -0.156291 0)
(-898.274 0.0336438 0)
(-1509.09 2.25689 0)
(-1605.29 3.97396 0)
(-1129.12 5.70795 0)
(-450.83 1.66128 0)
(-110.225 -28.7061 0)
(-70.9599 -97.0156 0)
(65854.2 1.81188e-09 0)
(-72434.9 1.59872e-10 0)
(-3932.4 1.63425e-09 0)
(-896.938 7.10543e-11 0)
(-1506.45 1.95399e-10 0)
(-1604.7 -7.4607e-10 0)
(-1135.89 -3.39284e-09 0)
(-506.098 6.03961e-10 0)
(-165.57 1.54543e-09 0)
(-221.733 1.86517e-09 0)
(65854.2 0.133991 0)
(-72435 -0.0981603 0)
(-3932.45 0.156291 0)
(-898.274 -0.0336438 0)
(-1509.09 -2.25689 0)
(-1605.29 -3.97396 0)
(-1129.12 -5.70795 0)
(-450.83 -1.66128 0)
(-110.225 28.7061 0)
(-70.9599 97.0156 0)
(65854.2 0.0751155 0)
(-72434.9 -0.0380726 0)
(-3932.33 0.13766 0)
(-899.351 0.0824559 0)
(-1510.39 -0.93922 0)
(-1608.15 -1.21709 0)
(-1133.58 -3.79908 0)
(-471.684 -5.67049 0)
(-66.8935 -24.6525 0)
(885.185 37.6612 0)
(-122.329 -809.732 1.23673e-11)
(-2308.37 -620.807 -1.46205e-11)
(-3587.64 -618.25 -1.83377e-11)
(-3894.37 -646.925 0)
(-25579 -7270.36 -7.57887e-11)
(-611.514 -998.773 1.2221e-11)
(-1648.15 -746.929 1.46205e-11)
(-3265.54 -677.793 1.83377e-11)
(-6368.5 -212.087 0)
(-24023.9 -6027.4 0)
(-940.395 1.28722e-09 0)
(-1647.23 2.68791e-09 0)
(-3050.53 1.11022e-09 0)
(-6031.08 2.38866e-09 0)
(-26193.9 -3.48927e-09 0)
(-611.514 998.773 1.2221e-11)
(-1648.15 746.929 1.46205e-11)
(-3265.54 677.793 1.83377e-11)
(-6368.5 212.087 0)
(-24023.9 6027.4 0)
(-122.329 809.732 -3.68094e-11)
(-2308.37 620.807 -1.46205e-11)
(-3587.64 618.25 -1.83377e-11)
(-3894.37 646.925 -4.87333e-11)
(-25579 7270.36 7.57887e-11)
(-43426.9 14569.7 1.74668e-11)
(-15599.3 6317.14 -9.98104e-12)
(-7901.45 3052.88 0)
(-5571.12 2147.11 4.935e-12)
(-2222.59 1854.75 -1.78503e-12)
(-38975.7 18889 -8.95282e-12)
(-18114.1 5490.85 5.08565e-12)
(-8915.84 1829.82 0)
(-5817.77 1286.96 -3.13448e-12)
(-3723.1 927.394 4.67205e-13)
(-40511.6 -8.07435e-10 0)
(-19959.7 -6.45258e-10 0)
(-9221.63 1.72701e-09 0)
(-5969.73 -2.04629e-09 1.26929e-12)
(-3712.56 5.28492e-09 -9.34411e-13)
(-38975.7 -18889 -8.95282e-12)
(-18114.1 -5490.85 5.08565e-12)
(-8915.84 -1829.82 0)
(-5817.77 -1286.96 -3.13448e-12)
(-3723.1 -927.394 4.67205e-13)
(-43426.9 -14569.7 8.95282e-12)
(-15599.3 -6317.14 -1.90252e-13)
(-7901.45 -3052.88 0)
(-5571.12 -2147.11 6.46641e-14)
(-2222.59 -1854.75 1.78503e-12)
(206.553 -5762.49 0)
(-347.511 -3853.98 0)
(-904.395 -2314.59 0)
(-1506.13 -1496.61 0)
(-841.253 -921.931 0)
(1383.89 -1115.85 0)
(4579.18 -1337.17 0)
(3627.04 -416.869 0)
(323.569 41.6308 0)
(-19.8452 125.718 0)
(76.0271 263.177 0)
(-461.007 356.142 0)
(-1373.24 283.959 0)
(-1929.97 294.394 0)
(-2086.14 244.282 0)
(-2342.98 179.27 0)
(-2448.12 138.586 0)
(-1791.56 71.3556 0)
(-851.893 15.208 0)
(-383.351 0.540266 0)
(-272.064 2.64162 0)
(-239.493 3.3953 0)
(-193.974 -0.0910581 0)
(-126.901 -2.95218 0)
(-61.7167 -3.89927 0)
(-19.3915 -3.76476 0)
(2.5814 -3.3685 0)
(12.8928 -2.93076 0)
(22.7611 -2.67602 0)
(36.2647 -2.26163 0)
(53.1586 -1.97956 0)
(65.6206 -1.13059 0)
(157.742 -1.4737 0)
(585.934 -1.36603 0)
(1933.73 -8.68708 0)
(2814.73 -6.48138 0)
(1824.16 2.60881 0)
(950.521 86.9197 0)
(828.4 -16.756 0)
(1476.72 -13.3621 0)
(-1091.88 -2488.16 0)
(-23.9677 -2435.86 0)
(-522.741 -1651.07 0)
(-1250.45 -648.525 0)
(-819.9 -298.806 0)
(1297.49 -560.008 0)
(4553 -804.92 0)
(3646.36 -766.124 0)
(399.778 -566.542 0)
(89.452 -349.886 0)
(175.631 -51.4852 0)
(-440.905 338.753 0)
(-1359.84 254.721 0)
(-1887.89 162.541 0)
(-2086.39 89.9474 0)
(-2367.92 70.941 0)
(-2472.79 63.9183 0)
(-1807.66 33.0006 0)
(-857.942 6.17326 0)
(-384.093 0.0159391 0)
(-271.7 1.54944 0)
(-239.814 1.5302 0)
(-194.595 -0.0586949 0)
(-127.232 -1.34672 0)
(-61.7684 -1.68779 0)
(-19.3379 -1.59209 0)
(2.65794 -1.41744 0)
(12.9555 -1.2407 0)
(22.8213 -1.14727 0)
(36.3215 -0.987144 0)
(53.2599 -0.896547 0)
(65.6323 -0.537599 0)
(157.75 -0.886795 0)
(585.024 -0.483241 0)
(1932.92 -5.22101 0)
(2815.85 -4.29499 0)
(1836.88 0.0164209 0)
(946.152 58.4512 0)
(815.229 -18.8468 0)
(1485.01 -6.69337 0)
(-971.281 -1.02706e-08 0)
(-103.995 -6.02346e-09 0)
(-384.443 5.43404e-09 0)
(-1112.75 2.42876e-08 0)
(-815.503 -1.7917e-08 0)
(1236.66 -5.66012e-09 0)
(4519.21 -4.19059e-09 0)
(3696.38 3.23781e-08 0)
(444.656 2.24822e-07 0)
(129.989 2.7393e-07 0)
(276.359 1.78653e-07 0)
(-371.929 2.54181e-08 0)
(-1424.5 -1.89424e-08 0)
(-1977.9 6.24147e-08 0)
(-2112.78 1.08398e-07 0)
(-2350.55 7.21928e-08 0)
(-2459.16 3.73923e-08 0)
(-1808.36 8.80104e-09 0)
(-861.488 -1.60639e-08 0)
(-384.697 -1.79008e-08 0)
(-271.624 -2.53454e-08 0)
(-239.961 -3.29433e-09 0)
(-194.811 7.4607e-09 0)
(-127.375 7.96535e-09 0)
(-61.7881 -9.64077e-09 0)
(-19.3129 -3.15747e-08 0)
(2.68362 -5.27457e-08 0)
(12.9714 -7.77318e-08 0)
(22.8349 -5.62863e-08 0)
(36.3377 -5.15305e-08 0)
(53.2893 -4.31614e-08 0)
(65.6234 -6.73401e-09 0)
(157.758 1.64878e-08 0)
(584.673 2.21399e-08 0)
(1932.62 2.66332e-08 0)
(2816.26 3.31694e-08 0)
(1842.41 1.69642e-08 0)
(945.034 2.88658e-08 0)
(809.448 -1.20308e-08 0)
(1487.29 -2.8341e-09 0)
(-1091.88 2488.16 0)
(-23.9677 2435.86 0)
(-522.741 1651.07 0)
(-1250.45 648.525 0)
(-819.9 298.806 0)
(1297.49 560.008 0)
(4553 804.92 0)
(3646.36 766.124 0)
(399.778 566.542 0)
(89.452 349.886 0)
(175.631 51.4852 0)
(-440.905 -338.753 0)
(-1359.84 -254.721 0)
(-1887.89 -162.541 0)
(-2086.39 -89.9474 0)
(-2367.92 -70.941 0)
(-2472.79 -63.9183 0)
(-1807.66 -33.0006 0)
(-857.942 -6.17326 0)
(-384.093 -0.0159392 0)
(-271.7 -1.54944 0)
(-239.814 -1.5302 0)
(-194.595 0.0586949 0)
(-127.232 1.34672 0)
(-61.7684 1.68779 0)
(-19.3379 1.59209 0)
(2.65794 1.41744 0)
(12.9555 1.2407 0)
(22.8213 1.14727 0)
(36.3215 0.987144 0)
(53.2599 0.896547 0)
(65.6323 0.537599 0)
(157.75 0.886795 0)
(585.024 0.483241 0)
(1932.92 5.22101 0)
(2815.85 4.29499 0)
(1836.88 -0.0164208 0)
(946.152 -58.4512 0)
(815.229 18.8468 0)
(1485.01 6.69337 0)
(206.553 5762.49 0)
(-347.511 3853.98 0)
(-904.395 2314.59 0)
(-1506.13 1496.61 0)
(-841.253 921.931 0)
(1383.89 1115.85 0)
(4579.18 1337.17 0)
(3627.04 416.869 0)
(323.569 -41.6308 0)
(-19.8452 -125.718 0)
(76.0271 -263.177 0)
(-461.007 -356.142 0)
(-1373.24 -283.959 0)
(-1929.97 -294.394 0)
(-2086.14 -244.282 0)
(-2342.98 -179.27 0)
(-2448.12 -138.586 0)
(-1791.56 -71.3556 0)
(-851.893 -15.208 0)
(-383.351 -0.540266 0)
(-272.064 -2.64162 0)
(-239.493 -3.3953 0)
(-193.974 0.0910581 0)
(-126.901 2.95218 0)
(-61.7167 3.89927 0)
(-19.3915 3.76476 0)
(2.5814 3.3685 0)
(12.8928 2.93076 0)
(22.7611 2.67602 0)
(36.2647 2.26163 0)
(53.1586 1.97956 0)
(65.6206 1.13059 0)
(157.742 1.4737 0)
(585.934 1.36603 0)
(1933.73 8.68708 0)
(2814.73 6.48138 0)
(1824.16 -2.60881 0)
(950.521 -86.9197 0)
(828.4 16.756 0)
(1476.72 13.3621 0)
(-2247.64 4755.02 0)
(-1812.64 3064.93 0)
(-1560.16 1751.58 0)
(-1828.4 1312.53 0)
(-1034.05 1387.85 0)
(1458.05 1495.53 0)
(4084.29 1578.34 0)
(2803.83 -562.764 0)
(147.544 -962.612 0)
(76.8569 -671.381 0)
(146.258 -593.269 0)
(-430.698 -653.863 0)
(-1305.62 -664.733 0)
(-1814.35 -502.796 0)
(-2014.46 -346.272 0)
(-2330.45 -279.133 0)
(-2433.61 -243.674 0)
(-1748.88 -132.169 0)
(-820.516 -29.1102 0)
(-377.069 -2.66809 0)
(-273.069 -4.64046 0)
(-238.47 -5.35395 0)
(-191.332 -0.334354 0)
(-125.225 4.57396 0)
(-61.3184 6.63279 0)
(-19.6087 6.5615 0)
(2.22329 5.87005 0)
(12.5936 5.09905 0)
(22.4711 4.63357 0)
(35.9503 3.95059 0)
(52.6676 3.32678 0)
(65.3286 2.00846 0)
(157.906 1.91386 0)
(588.497 2.63184 0)
(1935.19 10.7505 0)
(2810.06 6.32752 0)
(1793 -6.18725 0)
(953.247 -76.796 0)
(862.906 -7.1311 0)
(1462.24 12.182 0)
(-2319.79 1249.38 0)
(-2456.09 1403.56 0)
(-2241.43 1046.34 0)
(-1683.82 1244.8 0)
(-561.522 2211.24 0)
(1527.68 2444.1 0)
(2861.1 1545.95 0)
(1619.91 -845.341 0)
(313.291 -1002.02 0)
(284.213 -601.482 0)
(55.2481 -628.983 0)
(-546.124 -800.334 0)
(-1263.92 -860.197 0)
(-1685.08 -727.742 0)
(-1909.04 -573.054 0)
(-2250.83 -486.863 0)
(-2314.28 -395.713 0)
(-1607.68 -191.473 0)
(-743.926 -39.9809 0)
(-363.141 -5.71181 0)
(-274.114 -6.90353 0)
(-235.892 -6.15339 0)
(-185.824 0.108932 0)
(-121.086 6.90106 0)
(-60.015 10.2388 0)
(-20.0101 10.45 0)
(1.36416 9.50214 0)
(11.8618 8.32534 0)
(21.81 7.6074 0)
(35.174 6.63393 0)
(51.5503 5.62166 0)
(64.4156 3.71924 0)
(158.255 3.10612 0)
(593.074 4.40597 0)
(1936.51 13.6977 0)
(2800.92 5.33376 0)
(1760.76 -10.6736 0)
(948.15 -49.225 0)
(895.639 -20.9972 0)
(1462.88 4.13177 0)
(-1856.58 -138.13 0)
(-2008.3 193.436 0)
(-1713.14 616.064 0)
(-705.859 1198.44 0)
(121.629 1865.17 0)
(816.951 1749.04 0)
(914.473 632.753 0)
(348.519 -810.103 0)
(382.536 -650.38 0)
(436.328 -662.311 0)
(-45.3634 -814.219 0)
(-653.505 -982.711 0)
(-1235.67 -1024.17 0)
(-1537.65 -867.774 0)
(-1782.34 -698.011 0)
(-2159.56 -625.373 0)
(-2148.97 -509.935 0)
(-1406.08 -226.671 0)
(-641.51 -44.5218 0)
(-345.194 -8.51883 0)
(-273.494 -8.10677 0)
(-231.713 -5.41189 0)
(-178.753 2.3477 0)
(-115.464 10.5712 0)
(-57.8986 14.9077 0)
(-20.3186 15.4582 0)
(0.175923 14.3264 0)
(10.7677 12.7447 0)
(20.8412 11.7947 0)
(34.0368 10.534 0)
(49.8589 9.15198 0)
(62.9045 6.60824 0)
(158.568 5.50814 0)
(598.704 7.30585 0)
(1936.09 18.3597 0)
(2786.57 6.53759 0)
(1740.43 -13.1652 0)
(943.299 -30.2985 0)
(914.322 -22.0674 0)
(1472.75 -0.498371 0)
(-1740.15 -632.427 0)
(-1729.33 -518.148 0)
(-1272.97 138.981 0)
(-480.14 548.446 0)
(-30.9411 459.023 0)
(340.08 131.717 0)
(395.011 -591.403 0)
(383.441 -760.076 0)
(455.708 -517.266 0)
(126.331 -744.166 0)
(-253.501 -951.344 0)
(-748.445 -1136.96 0)
(-1153.16 -1102.04 0)
(-1370.78 -910.457 0)
(-1675.45 -778.39 0)
(-2069.59 -748.159 0)
(-1930.07 -574.973 0)
(-1159.2 -220.773 0)
(-533.707 -42.2015 0)
(-328.05 -11.6815 0)
(-271.12 -9.25701 0)
(-225.818 -3.84846 0)
(-170.422 5.63519 0)
(-108.983 14.8598 0)
(-55.3058 19.7756 0)
(-20.5703 20.526 0)
(-1.2506 19.2572 0)
(9.42216 17.3927 0)
(19.6796 16.2797 0)
(32.6274 14.8184 0)
(47.7673 13.1426 0)
(60.9043 10.204 0)
(158.928 8.55932 0)
(605.458 10.836 0)
(1935.77 21.9196 0)
(2770.54 7.30102 0)
(1725.27 -14.212 0)
(939.571 -21.6002 0)
(924.355 -21.3493 0)
(1482.5 -4.87723 0)
(-1770.76 -977.947 0)
(-1264.95 -459.048 0)
(-685.336 75.2673 0)
(-397.455 22.5029 0)
(-279.946 -381.77 0)
(-195.277 -664.98 0)
(55.1088 -916.776 0)
(419.96 -616.941 0)
(397.867 -700.678 0)
(18.035 -913.616 0)
(-423.879 -1103.59 0)
(-798.718 -1193.43 0)
(-1017.4 -1066.37 0)
(-1225.77 -897.426 0)
(-1625.95 -855.848 0)
(-1963.54 -849.983 0)
(-1640.76 -565.97 0)
(-892.686 -180.438 0)
(-440.022 -35.9196 0)
(-313.448 -13.723 0)
(-265.946 -9.38974 0)
(-217.362 -0.944021 0)
(-160.725 10.2193 0)
(-101.838 20.1467 0)
(-52.4384 25.2996 0)
(-20.8182 26.1477 0)
(-2.84345 24.8293 0)
(7.89847 22.8512 0)
(18.3605 21.6853 0)
(31.0138 20.1294 0)
(45.4123 18.3565 0)
(58.4879 15.3316 0)
(159.177 13.5894 0)
(611.578 16.173 0)
(1932.68 28.5664 0)
(2751.76 14.2692 0)
(1712.58 -8.52202 0)
(936.421 -12.1001 0)
(930.437 -15.3716 0)
(1497.87 -3.87944 0)
(-1088.11 -1216.41 0)
(-714.41 -640.889 0)
(-808.929 -776.519 0)
(-920.557 -1124.54 0)
(-693.425 -1211.99 0)
(-175.472 -947.87 0)
(441.303 -535.707 0)
(591.681 -493.902 0)
(169.822 -823.786 0)
(-261.93 -1064.82 0)
(-523.144 -1195.19 0)
(-712.577 -1132.52 0)
(-867.919 -974.41 0)
(-1167.91 -901.402 0)
(-1629.74 -950.321 0)
(-1790.26 -882.841 0)
(-1284.87 -471.142 0)
(-648.42 -129.507 0)
(-373.055 -33.2473 0)
(-302.485 -17.5363 0)
(-258.805 -9.48854 0)
(-206.922 1.83851 0)
(-150.098 14.5779 0)
(-94.4514 24.9586 0)
(-49.523 30.1694 0)
(-21.0234 31.1112 0)
(-4.42723 29.9168 0)
(6.39246 28.017 0)
(17.0568 26.8635 0)
(29.4197 25.2951 0)
(43.1439 23.6428 0)
(56.3106 20.9186 0)
(159.738 19.2738 0)
(619.891 21.8564 0)
(1933.94 32.1888 0)
(2734.8 17.7495 0)
(1699.86 -3.47913 0)
(932.971 -5.56649 0)
(932.277 -10.5774 0)
(1502.98 -4.45617 0)
(-1016.76 -1657.83 0)
(-841.051 -1193.2 0)
(-1151.4 -1374.13 0)
(-817.092 -1078.59 0)
(-109.701 -638.909 0)
(456.415 -269.244 0)
(492.569 -341.468 0)
(142.357 -719.21 0)
(-152.294 -1050.52 0)
(-339.865 -1151.12 0)
(-489.11 -1130.14 0)
(-585.964 -1001.31 0)
(-794.689 -921.396 0)
(-1202.56 -962.805 0)
(-1608.06 -1029.99 0)
(-1501.78 -798.351 0)
(-914.819 -329.93 0)
(-470.715 -88.1602 0)
(-332.123 -32.4682 0)
(-290.553 -20.0968 0)
(-247.276 -7.65864 0)
(-194.171 6.365 0)
(-138.445 20.4112 0)
(-86.813 30.8845 0)
(-46.5095 35.9269 0)
(-21.0615 36.8181 0)
(-5.82514 35.814 0)
(4.95616 34.095 0)
(15.7376 32.789 0)
(27.9102 31.355 0)
(41.1949 29.9392 0)
(54.2778 27.6812 0)
(160.081 26.4833 0)
(624.024 29.1715 0)
(1928.72 37.7599 0)
(2717.39 22.8128 0)
(1690.11 1.58461 0)
(929.581 -0.519296 0)
(931.507 -8.78428 0)
(1515.77 -6.68525 0)
(-1602.62 -866.93 0)
(-441.02 -641.071 0)
(-698.482 -377.727 0)
(-212.075 -53.6409 0)
(86.4888 -13.3609 0)
(111.154 -272.697 0)
(7.69966 -703.911 0)
(-91.5907 -998.312 0)
(-246.383 -1081.04 0)
(-338.656 -1094.48 0)
(-378.782 -985.241 0)
(-511.421 -900.68 0)
(-830.813 -934.75 0)
(-1272.56 -1042.46 0)
(-1471.26 -1005.13 0)
(-1115.66 -597.452 0)
(-600.508 -204.135 0)
(-361.775 -64.8917 0)
(-307.466 -32.9069 0)
(-278.577 -19.4232 0)
(-233.306 -3.85511 0)
(-179.873 12.507 0)
(-126.47 27.2026 0)
(-79.4999 37.5666 0)
(-43.8052 42.4241 0)
(-21.1322 43.2999 0)
(-7.05134 42.4571 0)
(3.4775 40.9796 0)
(14.4165 39.5994 0)
(26.6734 38.5258 0)
(39.6038 37.4945 0)
(52.9804 36.0292 0)
(161.175 35.8536 0)
(630.757 38.4935 0)
(1927.81 45.4601 0)
(2699.94 30.9391 0)
(1677.37 11.0741 0)
(922.979 8.52755 0)
(926.335 -3.36906 0)
(1519.19 -7.19452 0)
(-648.873 247.333 0)
(-369.638 -23.2108 0)
(-585.332 254.779 0)
(-465.976 175.765 0)
(-320.792 -228.479 0)
(-209.023 -658.008 0)
(-206.659 -897.478 0)
(-221.061 -1018.52 0)
(-244.97 -1028.06 0)
(-247.547 -946.858 0)
(-302.353 -859.679 0)
(-537.31 -879.744 0)
(-931.309 -991.865 0)
(-1270.37 -1058.42 0)
(-1179.24 -814.598 0)
(-729.919 -364.057 0)
(-401.624 -117.313 0)
(-305.713 -47.0939 0)
(-288.308 -28.3172 0)
(-262.557 -11.8888 0)
(-216.507 6.96762 0)
(-164.242 25.2258 0)
(-114.297 39.8459 0)
(-72.145 49.388 0)
(-40.9847 53.5146 0)
(-21.0298 53.9911 0)
(-8.06105 52.9 0)
(2.20236 51.3462 0)
(13.373 49.8967 0)
(25.8819 48.9619 0)
(38.7891 48.2062 0)
(52.6966 47.5372 0)
(162.455 48.401 0)
(633.281 51.0917 0)
(1921.44 55.5378 0)
(2684.25 40.4276 0)
(1668.51 21.4865 0)
(915.663 17.7133 0)
(916.356 2.10491 0)
(1522.88 -7.45213 0)
(-470.194 201.633 0)
(-433.845 82.5795 0)
(-506.742 267.318 0)
(-677.76 43.0683 0)
(-716.966 -385.208 0)
(-533.518 -796.582 0)
(-339.699 -963.047 0)
(-217.425 -941.189 0)
(-177.33 -883.785 0)
(-176.397 -803.59 0)
(-314.108 -805.664 0)
(-638.799 -909.806 0)
(-1002.99 -1018.89 0)
(-1101.73 -920.972 0)
(-802.147 -523.968 0)
(-443.728 -191.258 0)
(-295.071 -65.6997 0)
(-276.015 -31.1036 0)
(-273.541 -15.8055 0)
(-244.575 3.59187 0)
(-197.541 24.1347 0)
(-148.19 42.5661 0)
(-103.187 56.5392 0)
(-66.3282 64.9037 0)
(-39.3694 67.9937 0)
(-21.7245 67.7605 0)
(-9.60005 66.2077 0)
(0.583413 64.3648 0)
(12.1189 62.7764 0)
(25.0444 61.9125 0)
(38.2308 61.4571 0)
(53.1681 61.6265 0)
(164.6 63.4869 0)
(637.635 65.8954 0)
(1917.53 66.1121 0)
(2667.13 49.4805 0)
(1655.48 34.0133 0)
(904.302 30.439 0)
(902.085 7.60853 0)
(1514.13 -10.7782 0)
(-262.686 109.487 0)
(-306.342 191.118 0)
(-623.406 278.606 0)
(-1094.77 -71.2706 0)
(-1129.91 -539.167 0)
(-765.851 -856.562 0)
(-346.007 -884.866 0)
(-144.681 -800.668 0)
(-112.374 -736.626 0)
(-172.267 -716.204 0)
(-404.707 -807.346 0)
(-742.783 -925.431 0)
(-942.069 -913.846 0)
(-793.446 -630.99 0)
(-476.06 -270.257 0)
(-288.315 -88.97 0)
(-247.293 -30.1671 0)
(-257.633 -11.2592 0)
(-254.874 5.60112 0)
(-224.07 26.2592 0)
(-178.95 46.6457 0)
(-133.016 63.4341 0)
(-92.7717 75.2951 0)
(-61.1071 81.5473 0)
(-38.2318 83.0085 0)
(-22.7509 81.7259 0)
(-11.3333 79.6409 0)
(-1.10414 77.4059 0)
(11.01 75.9156 0)
(24.6105 75.5859 0)
(38.5135 76.1434 0)
(54.6526 77.6237 0)
(166.569 81.1851 0)
(635.811 84.6092 0)
(1905.63 83.9378 0)
(2653.32 66.6822 0)
(1650.16 55.2182 0)
(890.218 51.6035 0)
(876.638 22.1711 0)
(1507.16 -7.97082 0)
(-49.1385 45.4129 0)
(-270.875 45.2694 0)
(-759.589 1.2183 0)
(-1465.8 -188.067 0)
(-1473.7 -590.716 0)
(-866.646 -765.806 0)
(-285.838 -720.511 0)
(-74.5761 -658.206 0)
(-95.9373 -626.028 0)
(-244.545 -680.474 0)
(-515.727 -804.126 0)
(-741.427 -844.129 0)
(-719.261 -657.277 0)
(-481.549 -323.501 0)
(-279.837 -111.884 0)
(-212.369 -28.4777 0)
(-220.186 -2.83112 0)
(-241.547 8.01775 0)
(-237.387 23.3314 0)
(-205.023 43.0083 0)
(-161.718 63.1006 0)
(-120.582 79.6532 0)
(-85.7321 91.3343 0)
(-58.8953 97.6715 0)
(-39.1973 99.7583 0)
(-24.9696 99.8351 0)
(-13.763 99.1532 0)
(-3.00643 98.388 0)
(10.365 98.6143 0)
(25.2639 100.669 0)
(40.1946 103.222 0)
(58.0265 107.476 0)
(171.331 113.56 0)
(640.287 119.884 0)
(1900.26 121.374 0)
(2639.45 106.38 0)
(1640.95 95.8437 0)
(872.457 86.5236 0)
(844.677 41.696 0)
(1467.71 -10.3402 0)
(13.3534 -68.7942 0)
(-348.929 -112.177 0)
(-848.257 -236.996 0)
(-1665.18 -236.692 0)
(-1686.64 -462.375 0)
(-890.925 -547.492 0)
(-242.32 -523.079 0)
(-53.6342 -529.939 0)
(-133.833 -562.588 0)
(-343.889 -654.866 0)
(-562.411 -709.829 0)
(-601.273 -594.33 0)
(-440.372 -324.206 0)
(-267.885 -90.779 0)
(-191.765 19.8009 0)
(-183.228 61.2956 0)
(-212.125 73.5301 0)
(-232.422 85.5625 0)
(-221.156 107.911 0)
(-185.746 135.423 0)
(-143.638 161.789 0)
(-105.809 184.099 0)
(-75.4086 201.063 0)
(-52.9893 212.726 0)
(-36.1469 220.342 0)
(-23.334 225.882 0)
(-12.7278 229.946 0)
(-1.62347 233.327 0)
(13.2081 236.735 0)
(29.0506 241.988 0)
(45.0733 245.79 0)
(64.6151 251.805 0)
(178.525 258.328 0)
(643.341 269.699 0)
(1892.61 277.871 0)
(2628.72 267.04 0)
(1631.03 252.543 0)
(838.04 202.171 0)
(783.297 94.5396 0)
(1430.33 -11.181 0)
(-118.059 -180.392 0)
(-432.96 -145.753 0)
(-879.576 -214.102 0)
(-1682.98 -110.734 0)
(-1773.2 -181.934 0)
(-925.143 -265.575 0)
(-268.923 -284.273 0)
(-112.648 -336.479 0)
(-216.321 -404.586 0)
(-386.432 -440.658 0)
(-457.392 -351.254 0)
(-369.827 -124.727 0)
(-234.021 97.5038 0)
(-150.052 223.836 0)
(-133.292 300.832 0)
(-160.594 348.851 0)
(-196.802 386.893 0)
(-208.416 429.366 0)
(-189.339 477.884 0)
(-153.105 526.503 0)
(-114.812 573.755 0)
(-82.7365 620.746 0)
(-58.1457 664.146 0)
(-40.3174 701.201 0)
(-26.5201 732.065 0)
(-15.7148 760.259 0)
(-6.5883 779.975 0)
(3.53595 801.059 0)
(18.7105 817.079 0)
(33.9894 832.934 0)
(49.6552 839.89 0)
(70.1087 851.562 0)
(188.574 855.47 0)
(659.12 877.397 0)
(1897.69 901.257 0)
(2615.05 863.184 0)
(1578.44 729.86 0)
(720.199 516.138 0)
(639.083 237.523 0)
(1320.71 -17.4541 0)
(-302.938 -217.347 0)
(-381.413 -24.2487 0)
(-814.511 141.644 0)
(-1634.18 384.39 0)
(-1835.85 416.52 0)
(-989.543 286.427 0)
(-310.646 268.652 0)
(-169.572 275.873 0)
(-234.223 298.663 0)
(-292.496 427.915 0)
(-257.968 652.193 0)
(-168.834 902.269 0)
(-104.484 1096.51 0)
(-71.9508 1241.35 0)
(-71.2966 1355.99 0)
(-100.296 1449.39 0)
(-134.538 1534.69 0)
(-144.74 1617.54 0)
(-127.551 1695.97 0)
(-93.3616 1766.38 0)
(-52.8211 1830.11 0)
(-18.7057 1892.62 0)
(2.11998 1945.07 0)
(12.4606 1987.58 0)
(20.7641 2020.34 0)
(22.833 2049.93 0)
(26.5881 2068.14 0)
(34.1313 2088.98 0)
(43.9241 2101.89 0)
(51.0327 2114.08 0)
(63.0238 2115.56 0)
(79.6283 2119.06 0)
(203.421 2113.18 0)
(687.463 2126.77 0)
(1878.92 2103.76 0)
(2463.55 1909.19 0)
(1296.6 1571.54 0)
(363.606 1138.82 0)
(269.108 565.271 0)
(1129.99 68.4829 0)
(-417.53 -141.412 0)
(-87.0229 254.485 0)
(-485.797 841.644 0)
(-1418.1 1412.74 0)
(-1867.6 1664.67 0)
(-1067.63 1540.5 0)
(-279.094 1492.65 0)
(-83.7282 1544.98 0)
(-69.8076 1642.51 0)
(-45.7573 1834.25 0)
(-0.287585 2042.04 0)
(58.3293 2223.89 0)
(92.7305 2358.89 0)
(99.996 2462.04 0)
(67.1794 2523.01 0)
(11.6091 2553.46 0)
(-34.763 2578.15 0)
(-53.005 2609.69 0)
(-45.9122 2645.77 0)
(-23.8445 2678.64 0)
(6.83974 2700.59 0)
(28.0512 2712.49 0)
(33.3555 2705.69 0)
(32.2104 2694.91 0)
(33.5664 2681.15 0)
(30.3509 2668.23 0)
(31.0438 2656.24 0)
(36.0519 2643.86 0)
(42.8963 2631.43 0)
(47.1636 2618.36 0)
(54.4498 2607.3 0)
(67.8174 2593.3 0)
(196.012 2585.05 0)
(650.048 2569.37 0)
(1688.02 2433.91 0)
(2102.17 2046.97 0)
(836.081 1740.07 0)
(-249.478 1477.28 0)
(-392.328 822.704 0)
(564.395 168.623 0)
(-272.532 -105.397 0)
(565.895 457.999 0)
(301.625 1158.93 0)
(-841.089 1565.46 0)
(-1712.73 1923.39 0)
(-1155.3 2000.48 0)
(-306.331 1930.74 0)
(-25.1652 1922.12 0)
(44.529 1951.79 0)
(92.5013 2004.62 0)
(117.498 2045.6 0)
(136.501 2059.04 0)
(125.01 2043.01 0)
(86.1967 1997.91 0)
(16.7993 1927.72 0)
(-47.1552 1857.15 0)
(-80.3535 1806.49 0)
(-79.5822 1781.46 0)
(-61.1093 1777.76 0)
(-40.5373 1789.64 0)
(-20.1954 1804.4 0)
(-13.7901 1760.87 0)
(-14.8258 1695.53 0)
(-11.1876 1651.68 0)
(-4.94144 1621.6 0)
(-1.17201 1597.14 0)
(3.09974 1580.12 0)
(10.2283 1562.13 0)
(19.3482 1548.64 0)
(27.781 1532.37 0)
(38.8812 1523.36 0)
(58.1857 1513.07 0)
(180.359 1512.16 0)
(541.821 1455.52 0)
(1375.51 1240.62 0)
(1794.94 708.866 0)
(747.635 550.484 0)
(-520.401 892.759 0)
(-991.963 632.87 0)
(25.7211 39.6274 0)
(-340.541 3994.97 0)
(1131.33 -297.936 0)
(581.397 374.032 0)
(-681.441 308.149 0)
(-1448.4 689.444 0)
(-1060.55 1104.18 0)
(-354.609 1173.4 0)
(-63.4468 1162.39 0)
(9.69101 1154 0)
(44.6445 1125.46 0)
(52.1593 1099.67 0)
(55.8333 1059.1 0)
(33.8203 1015.13 0)
(-11.0989 958.08 0)
(-68.4594 911.153 0)
(-105.21 884.037 0)
(-107.697 878.863 0)
(-80.6934 887.922 0)
(-38.0331 900.576 0)
(1.82612 908.066 0)
(-20.8868 910.341 0)
(-76.8562 899.968 0)
(-71.8598 900.802 0)
(-39.039 893.393 0)
(-18.9912 886.184 0)
(-9.6156 880.844 0)
(-2.69396 876.768 0)
(5.71408 870.943 0)
(14.2222 865.471 0)
(22.8023 855.822 0)
(35.847 845.459 0)
(57.03 833.334 0)
(140.556 814.106 0)
(388.377 715.893 0)
(968.519 441.59 0)
(1437.14 -208.32 0)
(1013.29 -609.149 0)
(-170.088 -273.581 0)
(-1214.44 -563.977 0)
(115.182 2858.19 0)
(-1212.29 214634 0)
(-2923.38 1918.56 0)
(885.67 -1048 0)
(-537.146 -1070.31 0)
(-945.649 -570.012 0)
(-688.947 -32.9815 0)
(-250.236 180.054 0)
(-43.8542 238.338 0)
(8.94265 283.227 0)
(40.1493 305.016 0)
(53.5516 333.847 0)
(55.0284 355.617 0)
(27.6603 376.316 0)
(-13.997 395.263 0)
(-54.5511 433.402 0)
(-78.2707 497.951 0)
(-76.6105 572.159 0)
(-58.6588 635.572 0)
(-41.6975 673.975 0)
(-31.127 684.286 0)
(-27.9985 676.577 0)
(-22.9822 722.128 0)
(-21.1623 788.157 0)
(-25.2743 829.411 0)
(-17.0338 855.096 0)
(-10.2455 871.626 0)
(-6.44136 881.484 0)
(-0.657874 886.459 0)
(4.77681 886.175 0)
(8.49701 880.313 0)
(17.211 865.718 0)
(27.9721 846.19 0)
(67.1881 804.883 0)
(182.851 697.519 0)
(484.906 394.618 0)
(782.406 -253.146 0)
(684.747 -941.078 0)
(-476.872 -1223.89 0)
(2025.92 1896.14 0)
(2628.69 155761 0)
(196063 -205024 0)
(-206707 3816.17 0)
(-2298.79 -130.079 0)
(-220.834 -350.421 0)
(-448.792 477.512 0)
(-337.763 1387.96 0)
(-93.1561 1812.15 0)
(35.9743 1860.23 0)
(73.9442 1838.22 0)
(93.4239 1762.18 0)
(100.921 1672.43 0)
(96.7585 1563.25 0)
(72.0244 1475.49 0)
(43.9111 1432.39 0)
(30.495 1431.84 0)
(28.5005 1457.93 0)
(24.9196 1495.58 0)
(17.4203 1528.03 0)
(8.90932 1551.62 0)
(4.33372 1575.23 0)
(15.579 1600.43 0)
(30.6663 1610.67 0)
(31.5223 1611.61 0)
(25.4663 1619.5 0)
(21.6887 1630.34 0)
(15.8123 1629.53 0)
(11.5997 1634.08 0)
(10.2342 1627.86 0)
(8.29907 1623.55 0)
(3.08919 1608.7 0)
(2.9647 1599.61 0)
(-1.592 1563.75 0)
(-2.70838 1537.09 0)
(-6.96917 1443.5 0)
(52.4237 1275.93 0)
(150.011 736.708 0)
(77.84 137.882 0)
(2563.96 89.6415 0)
(150062 2713.1 0)
(-139817 -145289 0)
(196063 205024 0)
(-206707 -3816.17 0)
(-2298.79 130.079 0)
(-220.834 350.421 0)
(-448.792 -477.512 0)
(-337.763 -1387.96 0)
(-93.1561 -1812.15 0)
(35.9743 -1860.23 0)
(73.9442 -1838.22 0)
(93.4239 -1762.18 0)
(100.921 -1672.43 0)
(96.7585 -1563.25 0)
(72.0244 -1475.49 0)
(43.9111 -1432.39 0)
(30.495 -1431.84 0)
(28.5005 -1457.93 0)
(24.9196 -1495.58 0)
(17.4203 -1528.03 0)
(8.90932 -1551.62 0)
(4.33372 -1575.23 0)
(15.579 -1600.43 0)
(30.6663 -1610.67 0)
(31.5223 -1611.61 0)
(25.4663 -1619.5 0)
(21.6887 -1630.34 0)
(15.8123 -1629.53 0)
(11.5997 -1634.08 0)
(10.2342 -1627.86 0)
(8.29907 -1623.55 0)
(3.08919 -1608.7 0)
(2.9647 -1599.61 0)
(-1.592 -1563.75 0)
(-2.70838 -1537.09 0)
(-6.96917 -1443.5 0)
(52.4237 -1275.93 0)
(150.011 -736.708 0)
(77.84 -137.882 0)
(2563.96 -89.6415 0)
(150062 -2713.1 0)
(-139817 145289 0)
(-1212.29 -214634 0)
(-2923.38 -1918.56 0)
(885.67 1048 0)
(-537.146 1070.31 0)
(-945.649 570.012 0)
(-688.947 32.9815 0)
(-250.236 -180.054 0)
(-43.8542 -238.338 0)
(8.94265 -283.227 0)
(40.1493 -305.016 0)
(53.5516 -333.847 0)
(55.0284 -355.617 0)
(27.6603 -376.316 0)
(-13.997 -395.263 0)
(-54.5511 -433.402 0)
(-78.2707 -497.951 0)
(-76.6105 -572.159 0)
(-58.6588 -635.572 0)
(-41.6975 -673.975 0)
(-31.127 -684.286 0)
(-27.9985 -676.577 0)
(-22.9822 -722.128 0)
(-21.1623 -788.157 0)
(-25.2743 -829.411 0)
(-17.0338 -855.096 0)
(-10.2455 -871.626 0)
(-6.44136 -881.484 0)
(-0.657874 -886.459 0)
(4.77681 -886.175 0)
(8.49701 -880.313 0)
(17.211 -865.718 0)
(27.9721 -846.19 0)
(67.1881 -804.883 0)
(182.851 -697.519 0)
(484.906 -394.618 0)
(782.406 253.146 0)
(684.747 941.078 0)
(-476.872 1223.89 0)
(2025.92 -1896.14 0)
(2628.69 -155761 0)
(-340.541 -3994.97 0)
(1131.33 297.936 0)
(581.397 -374.032 0)
(-681.441 -308.149 0)
(-1448.4 -689.444 0)
(-1060.55 -1104.18 0)
(-354.609 -1173.4 0)
(-63.4468 -1162.39 0)
(9.69101 -1154 0)
(44.6445 -1125.46 0)
(52.1593 -1099.67 0)
(55.8333 -1059.1 0)
(33.8203 -1015.13 0)
(-11.0989 -958.08 0)
(-68.4594 -911.153 0)
(-105.21 -884.037 0)
(-107.697 -878.863 0)
(-80.6934 -887.922 0)
(-38.0331 -900.576 0)
(1.82612 -908.066 0)
(-20.8868 -910.341 0)
(-76.8562 -899.968 0)
(-71.8598 -900.802 0)
(-39.039 -893.393 0)
(-18.9912 -886.184 0)
(-9.6156 -880.844 0)
(-2.69396 -876.768 0)
(5.71408 -870.943 0)
(14.2222 -865.471 0)
(22.8023 -855.822 0)
(35.847 -845.459 0)
(57.03 -833.334 0)
(140.556 -814.106 0)
(388.377 -715.893 0)
(968.519 -441.59 0)
(1437.14 208.32 0)
(1013.29 609.149 0)
(-170.088 273.581 0)
(-1214.44 563.977 0)
(115.182 -2858.19 0)
(-272.532 105.397 0)
(565.895 -457.999 0)
(301.625 -1158.93 0)
(-841.089 -1565.46 0)
(-1712.73 -1923.39 0)
(-1155.3 -2000.48 0)
(-306.331 -1930.74 0)
(-25.1652 -1922.12 0)
(44.529 -1951.79 0)
(92.5013 -2004.62 0)
(117.498 -2045.6 0)
(136.501 -2059.04 0)
(125.01 -2043.01 0)
(86.1967 -1997.91 0)
(16.7993 -1927.72 0)
(-47.1552 -1857.15 0)
(-80.3535 -1806.49 0)
(-79.5822 -1781.46 0)
(-61.1093 -1777.76 0)
(-40.5373 -1789.64 0)
(-20.1954 -1804.4 0)
(-13.7901 -1760.87 0)
(-14.8258 -1695.53 0)
(-11.1876 -1651.68 0)
(-4.94144 -1621.6 0)
(-1.17201 -1597.14 0)
(3.09974 -1580.12 0)
(10.2283 -1562.13 0)
(19.3482 -1548.64 0)
(27.781 -1532.37 0)
(38.8812 -1523.36 0)
(58.1857 -1513.07 0)
(180.359 -1512.16 0)
(541.821 -1455.52 0)
(1375.51 -1240.62 0)
(1794.94 -708.866 0)
(747.635 -550.484 0)
(-520.401 -892.759 0)
(-991.963 -632.87 0)
(25.7211 -39.6274 0)
(-417.53 141.412 0)
(-87.0229 -254.485 0)
(-485.797 -841.644 0)
(-1418.1 -1412.74 0)
(-1867.6 -1664.67 0)
(-1067.63 -1540.5 0)
(-279.094 -1492.65 0)
(-83.7282 -1544.98 0)
(-69.8076 -1642.51 0)
(-45.7573 -1834.25 0)
(-0.287585 -2042.04 0)
(58.3293 -2223.89 0)
(92.7305 -2358.89 0)
(99.996 -2462.04 0)
(67.1794 -2523.01 0)
(11.6091 -2553.46 0)
(-34.763 -2578.15 0)
(-53.005 -2609.69 0)
(-45.9122 -2645.77 0)
(-23.8445 -2678.64 0)
(6.83974 -2700.59 0)
(28.0512 -2712.49 0)
(33.3555 -2705.69 0)
(32.2104 -2694.91 0)
(33.5664 -2681.15 0)
(30.3509 -2668.23 0)
(31.0438 -2656.24 0)
(36.0519 -2643.86 0)
(42.8963 -2631.43 0)
(47.1636 -2618.36 0)
(54.4498 -2607.3 0)
(67.8174 -2593.3 0)
(196.012 -2585.05 0)
(650.048 -2569.37 0)
(1688.02 -2433.91 0)
(2102.17 -2046.97 0)
(836.081 -1740.07 0)
(-249.478 -1477.28 0)
(-392.328 -822.704 0)
(564.395 -168.623 0)
(-302.938 217.347 0)
(-381.413 24.2487 0)
(-814.511 -141.644 0)
(-1634.18 -384.39 0)
(-1835.85 -416.52 0)
(-989.543 -286.427 0)
(-310.646 -268.652 0)
(-169.572 -275.873 0)
(-234.223 -298.663 0)
(-292.496 -427.915 0)
(-257.968 -652.193 0)
(-168.834 -902.269 0)
(-104.484 -1096.51 0)
(-71.9508 -1241.35 0)
(-71.2966 -1355.99 0)
(-100.296 -1449.39 0)
(-134.538 -1534.69 0)
(-144.74 -1617.54 0)
(-127.551 -1695.97 0)
(-93.3616 -1766.38 0)
(-52.8211 -1830.11 0)
(-18.7057 -1892.62 0)
(2.11998 -1945.07 0)
(12.4606 -1987.58 0)
(20.7641 -2020.34 0)
(22.833 -2049.93 0)
(26.5881 -2068.14 0)
(34.1313 -2088.98 0)
(43.9241 -2101.89 0)
(51.0327 -2114.08 0)
(63.0238 -2115.56 0)
(79.6283 -2119.06 0)
(203.421 -2113.18 0)
(687.463 -2126.77 0)
(1878.92 -2103.76 0)
(2463.55 -1909.19 0)
(1296.6 -1571.54 0)
(363.606 -1138.82 0)
(269.108 -565.271 0)
(1129.99 -68.4829 0)
(-118.059 180.392 0)
(-432.96 145.753 0)
(-879.576 214.102 0)
(-1682.98 110.734 0)
(-1773.2 181.934 0)
(-925.143 265.575 0)
(-268.923 284.273 0)
(-112.648 336.479 0)
(-216.321 404.586 0)
(-386.432 440.658 0)
(-457.392 351.254 0)
(-369.827 124.727 0)
(-234.021 -97.5038 0)
(-150.052 -223.836 0)
(-133.292 -300.832 0)
(-160.594 -348.851 0)
(-196.802 -386.893 0)
(-208.416 -429.366 0)
(-189.339 -477.884 0)
(-153.105 -526.503 0)
(-114.812 -573.755 0)
(-82.7365 -620.746 0)
(-58.1457 -664.146 0)
(-40.3174 -701.201 0)
(-26.5201 -732.065 0)
(-15.7148 -760.259 0)
(-6.5883 -779.975 0)
(3.53595 -801.059 0)