/*--------------------------------*- C++ -*----------------------------------*\
| =========                 |                                                 |
| \\      /  F ield         | OpenFOAM: The Open Source CFD Toolbox           |
|  \\    /   O peration     | Version:  v1912                                 |
|   \\  /    A nd           | Website:  www.openfoam.com                      |
|    \\/     M anipulation  |                                                 |
\*---------------------------------------------------------------------------*/
FoamFile
{
    version     2.0;
    format      ascii;
    class       volTensorField;
    location    "8.56";
    object      grad(U);
}
// * * * * * * * * * * * * * * * * * * * * * * * * * * * * * * * * * * * * * //

dimensions      [0 0 -1 0 0 0 0];


internalField   nonuniform List<tensor> 
1900
(
(0.25649 -1.81052e-05 0 -1.72708e-06 -1.13172e-05 0 0 0 0)
(0.932179 -2.54014e-05 0 -3.08628e-06 -3.71811e-05 0 0 0 0)
(-0.0529377 -4.31936e-05 0 1.74285e-05 -5.32941e-05 0 0 0 0)
(-0.0167545 -6.63883e-05 0 -4.0059e-05 -9.50013e-05 0 0 0 0)
(-0.00969158 -0.000207211 0 -0.000177751 -0.000185812 0 0 0 0)
(-0.0107861 -0.000408244 0 -0.000558512 -0.000658543 0 0 0 0)
(-0.0239321 0.000562657 0 -0.000810762 -0.00104649 0 0 0 0)
(-0.0285742 0.0198145 0 -0.000456502 0.00117061 0 0 0 0)
(-0.0745872 0.0626928 0 0.00563929 0.0325497 0 0 0 0)
(-0.0358472 0.2116 0 0.0658796 0.120919 0 0 0 0)
(0.256485 -3.03932e-05 0 -4.9935e-06 3.42652e-06 0 0 0 0)
(0.932198 -1.65755e-05 0 -2.71682e-06 1.46786e-05 0 0 0 0)
(-0.0529747 -1.46266e-05 0 2.48769e-05 2.88279e-05 0 0 0 0)
(-0.0169497 -6.61299e-05 0 -9.03151e-05 5.78722e-05 0 0 0 0)
(-0.01021 -0.00035633 0 -0.000329344 9.52163e-05 0 0 0 0)
(-0.0114191 -0.00045243 0 -0.00102551 0.000265084 0 0 0 0)
(-0.0238301 0.0012665 0 -0.0014811 0.00050346 0 0 0 0)
(-0.0221241 0.0137817 0 0.000789297 -0.000297574 0 0 0 0)
(-0.00825116 0.0570552 0 0.0138169 -0.0193111 0 0 0 0)
(0.0887414 0.145513 0 0.103575 -0.0629904 0 0 0 0)
(0.256482 -1.93525e-13 0 -1.37287e-13 1.57814e-05 0 0 0 0)
(0.932209 1.32527e-14 0 -1.46367e-14 4.5005e-05 0 0 0 0)
(-0.0530253 1.09274e-13 0 -1.39591e-14 4.89323e-05 0 0 0 0)
(-0.0171087 3.9911e-14 0 -9.09375e-14 7.42582e-05 0 0 0 0)
(-0.0106268 9.0029e-15 0 -2.27547e-13 0.000181192 0 0 0 0)
(-0.0119379 7.00306e-14 0 1.47723e-13 0.000786918 0 0 0 0)
(-0.0221173 2.6529e-14 0 4.07931e-14 0.00108605 0 0 0 0)
(-0.0132762 -5.47216e-14 0 -5.84114e-14 -0.00174608 0 0 0 0)
(0.028199 -6.76289e-14 0 4.39102e-14 -0.0264773 0 0 0 0)
(0.136601 -3.79014e-14 0 6.93889e-14 -0.115856 0 0 0 0)
(0.256485 3.03932e-05 0 4.9935e-06 3.42652e-06 0 0 0 0)
(0.932198 1.65755e-05 0 2.71682e-06 1.46786e-05 0 0 0 0)
(-0.0529747 1.46266e-05 0 -2.48769e-05 2.88279e-05 0 0 0 0)
(-0.0169497 6.61299e-05 0 9.03151e-05 5.78722e-05 0 0 0 0)
(-0.01021 0.00035633 0 0.000329344 9.52163e-05 0 0 0 0)
(-0.0114191 0.00045243 0 0.00102551 0.000265084 0 0 0 0)
(-0.0238301 -0.0012665 0 0.0014811 0.00050346 0 0 0 0)
(-0.0221241 -0.0137817 0 -0.000789297 -0.000297574 0 0 0 0)
(-0.00825116 -0.0570552 0 -0.0138169 -0.0193111 0 0 0 0)
(0.0887414 -0.145513 0 -0.103575 -0.0629904 0 0 0 0)
(0.25649 1.81052e-05 0 1.72708e-06 -1.13172e-05 0 0 0 0)
(0.932179 2.54014e-05 0 3.08628e-06 -3.71811e-05 0 0 0 0)
(-0.0529377 4.31936e-05 0 -1.74285e-05 -5.32941e-05 0 0 0 0)
(-0.0167545 6.63883e-05 0 4.0059e-05 -9.50013e-05 0 0 0 0)
(-0.00969158 0.000207211 0 0.000177751 -0.000185812 0 0 0 0)
(-0.0107861 0.000408244 0 0.000558512 -0.000658543 0 0 0 0)
(-0.0239321 -0.000562657 0 0.000810762 -0.00104649 0 0 0 0)
(-0.0285742 -0.0198145 0 0.000456502 0.00117061 0 0 0 0)
(-0.0745872 -0.0626928 0 -0.00563929 0.0325497 0 0 0 0)
(-0.0358472 -0.2116 0 -0.0658796 0.120919 0 0 0 0)
(0.178492 0.437086 -2.18735e-17 0.248004 -0.244787 3.28103e-17 5.99069e-17 7.69926e-17 -5.92884e-33)
(0.51802 0.58491 0 0.286054 -0.469225 0 -1.63252e-16 -4.92099e-17 0)
(0.80524 0.978198 0 0.276619 -0.79831 0 -2.64681e-16 -8.7665e-17 0)
(1.49443 1.58814 0 0.330187 -1.45069 0 0 0 0)
(2.80563 1.84628 2.69283e-16 1.13417 -3.52535 -4.03924e-16 -2.29947e-15 -1.53298e-15 -7.29892e-32)
(0.232255 0.164358 0 0.183704 -0.212899 0 1.04721e-16 3.27595e-17 0)
(0.416126 0.179118 0 0.139186 -0.35282 0 1.63252e-16 4.92099e-17 0)
(0.756187 0.426936 0 0.043291 -0.646973 0 2.64681e-16 8.7665e-17 0)
(1.69246 0.870379 0 -0.0721915 -1.35237 0 0 0 0)
(3.71278 0.58047 0 -0.182056 -3.12412 0 0 0 0)
(0.282808 -1.3457e-13 0 8.10205e-14 -0.29937 0 0 0 0)
(0.435114 8.45779e-14 0 1.26015e-13 -0.383675 0 0 0 0)
(0.745568 6.72215e-14 0 3.62154e-13 -0.646614 0 0 0 0)
(1.59782 -1.04564e-13 0 1.653e-13 -1.38077 0 0 0 0)
(3.46881 1.4073e-13 0 4.2755e-13 -3.66818 0 0 0 0)
(0.232255 -0.164358 0 -0.183704 -0.212899 0 1.04721e-16 -3.27595e-17 0)
(0.416126 -0.179118 0 -0.139186 -0.35282 0 1.63252e-16 -4.92099e-17 0)
(0.756187 -0.426936 0 -0.043291 -0.646973 0 2.64681e-16 -8.7665e-17 0)
(1.69246 -0.870379 0 0.0721915 -1.35237 0 0 0 0)
(3.71278 -0.58047 0 0.182056 -3.12412 0 0 0 0)
(0.178492 -0.437086 2.18735e-17 -0.248004 -0.244787 3.28103e-17 -2.69349e-16 1.42512e-16 -5.92884e-33)
(0.51802 -0.58491 0 -0.286054 -0.469225 0 -1.63252e-16 4.92099e-17 0)
(0.80524 -0.978198 0 -0.276619 -0.79831 0 -2.64681e-16 8.7665e-17 0)
(1.49443 -1.58814 9.50138e-17 -0.330187 -1.45069 1.42521e-16 -9.46901e-16 6.31267e-16 -2.57535e-32)
(2.80563 -1.84628 -2.69283e-16 -1.13417 -3.52535 -4.03924e-16 2.29947e-15 -1.53298e-15 -7.29892e-32)
(4.2477 -0.788826 -1.8821e-17 0.00487167 4.52495 -1.69389e-16 2.29043e-15 -1.18199e-16 5.10143e-33)
(2.34689 -0.313742 9.09573e-18 0.546279 2.78759 8.18616e-17 -2.57614e-15 2.00456e-16 2.4654e-33)
(1.37935 -0.00270841 0 0.741534 2.28806 0 0 0 0)
(1.04746 0.0832809 -5.28678e-18 0.666575 2.10592 -4.75811e-17 2.40756e-15 -2.01853e-16 1.43299e-33)
(0.663374 0.546609 4.72977e-18 0.552242 1.74654 4.25679e-17 -1.14279e-15 1.26977e-16 1.28201e-33)
(4.36842 -0.957556 0 -0.708485 -0.699794 0 -1.14529e-15 -9.03883e-18 0)
(2.63782 -0.203861 0 0.323957 1.00182 0 1.29629e-15 -5.82515e-17 0)
(1.4649 -0.0142435 0 0.45604 1.39174 0 0 0 0)
(1.01391 -0.0682986 0 0.364916 1.41212 0 -1.52002e-15 7.58861e-17 0)
(0.509481 0.25012 0 0.251128 1.40136 0 2.91746e-16 -8.04309e-18 0)
(4.37452 4.54786e-14 0 2.90216e-13 0.799334 0 0 0 0)
(2.61516 -2.48318e-14 0 1.20467e-13 1.86474 0 0 0 0)
(1.35828 -3.59911e-14 0 -1.60623e-14 1.99467 0 0 0 0)
(0.942941 4.81923e-14 0 5.66903e-14 1.77218 0 6.12404e-16 8.11322e-31 0)
(0.500759 -3.63188e-14 0 1.26807e-14 2.13651 0 -5.83493e-16 -1.66631e-30 0)
(4.36842 0.957556 0 0.708485 -0.699794 0 -1.14529e-15 9.03883e-18 0)
(2.63782 0.203861 0 -0.323957 1.00182 0 1.29629e-15 5.82515e-17 0)
(1.4649 0.0142435 0 -0.45604 1.39174 0 0 0 0)
(1.01391 0.0682986 0 -0.364916 1.41212 0 -1.52002e-15 -7.58861e-17 0)
(0.509481 -0.25012 0 -0.251128 1.40136 0 2.91746e-16 8.04309e-18 0)
(4.2477 0.788826 0 -0.00487167 4.52495 0 1.14529e-15 -9.03883e-18 0)
(2.34689 0.313742 -9.09573e-18 -0.546279 2.78759 8.18616e-17 -1.64521e-17 8.39531e-17 2.4654e-33)
(1.37935 0.00270841 0 -0.741534 2.28806 0 0 0 0)
(1.04746 -0.0832809 5.28678e-18 -0.666575 2.10592 -4.75811e-17 2.0075e-17 -6.34235e-17 1.43299e-33)
(0.663374 -0.546609 -4.72977e-18 -0.552242 1.74654 4.25679e-17 1.14279e-15 1.26977e-16 1.28201e-33)
(0.181558 0.641662 0 -0.515738 -0.530648 0 0 0 0)
(0.139323 0.113067 0 -0.973303 -0.255116 0 0 0 0)
(0.11066 -0.218496 0 -1.13645 0.0927383 0 0 0 0)
(0.0877534 -0.132607 0 -0.93517 0.0488503 0 0 0 0)
(0.0914272 -0.0314258 0 -0.863226 0.10836 0 0 0 0)
(0.105297 -0.000342107 0 -0.726893 0.0661391 0 0 0 0)
(0.122418 0.0113376 0 -0.558215 0.136601 0 0 0 0)
(0.134841 0.0473102 0 -0.423025 0.197236 0 0 0 0)
(0.207584 0.0106468 0 -0.303279 0.184207 0 0 0 0)
(0.21109 -0.00593052 0 -0.138579 0.263409 0 0 0 0)
(0.0277022 0.0280664 0 -0.104951 0.229685 0 0 0 0)
(-0.44111 0.02547 0 -0.0804839 0.0983316 0 0 0 0)
(-1.18734 -0.0029062 0 -0.284163 0.0095531 0 0 0 0)
(-1.10932 -0.0158116 0 -0.149088 0.0631918 0 0 0 0)
(-0.338012 0.00855088 0 -0.0866699 0.0790022 0 0 0 0)
(-0.0332847 -0.0125586 0 0.0667549 0.0778304 0 0 0 0)
(-0.0814122 -0.0565264 0 0.190994 0.183258 0 0 0 0)
(-0.238973 -0.109471 0 0.299584 0.336466 0 0 0 0)
(-0.423968 -0.123066 0 0.305615 0.50294 0 0 0 0)
(-0.530761 -0.0518134 0 0.150049 0.623855 0 0 0 0)
(-0.536783 0.0180991 0 -0.0544781 0.629631 0 0 0 0)
(-0.516961 0.0416537 0 -0.118118 0.58177 0 0 0 0)
(-0.505113 0.0486393 0 -0.0382564 0.512713 0 0 0 0)
(-0.55217 0.0498899 0 0.0513392 0.425589 0 0 0 0)
(-0.843914 0.051747 0 0.0902475 0.320747 0 0 0 0)
(-1.41842 0.0557189 0 0.112953 0.257132 0 0 0 0)
(-1.39486 0.040067 0 0.0808164 0.17086 0 0 0 0)
(-0.933783 0.0123598 0 0.0110772 0.117609 0 0 0 0)
(-1.19692 -0.000599029 0 0.00115532 0.11657 0 0 0 0)
(-1.16415 -0.000806155 0 0.00137725 0.119113 0 0 0 0)
(-0.525441 0.00051685 0 0.00477228 0.119703 0 0 0 0)
(-0.222425 0.000670637 0 0.00672304 0.117914 0 0 0 0)
(-0.146778 -0.000535042 0 0.00916184 0.118148 0 0 0 0)
(-0.119473 -0.00213083 0 0.0114335 0.119842 0 0 0 0)
(-0.0914265 -0.00487549 0 0.0109914 0.123821 0 0 0 0)
(-0.0745047 -0.00832839 0 0.00368831 0.131442 0 0 0 0)
(-0.0738693 -0.00568979 0 -0.0150574 0.144587 0 0 0 0)
(-0.0651753 0.00237103 0 -0.0367638 0.146793 0 0 0 0)
(-0.051231 0.0108778 0 -0.0475653 0.139877 0 0 0 0)
(-0.023985 0.00783839 0 -0.0487618 0.114777 0 0 0 0)
(-0.0746153 0.484038 0 0.0154596 0.174743 0 0 0 0)
(-0.0669212 0.185939 0 -0.437526 -0.623173 0 0 0 0)
(0.093623 -0.0881387 0 -0.912733 -0.213925 0 0 0 0)
(0.146187 -0.165009 0 -0.63613 0.127907 0 0 0 0)
(0.125941 -0.120882 0 -0.628298 0.241913 0 0 0 0)
(0.152096 -0.0732966 0 -0.509213 0.235933 0 0 0 0)
(0.163767 -0.0176368 0 -0.369312 0.243089 0 0 0 0)
(0.165428 0.0248366 0 -0.304877 0.19696 0 0 0 0)
(0.244183 0.00518136 0 -0.231784 0.0804598 0 0 0 0)
(0.237053 0.00767217 0 -0.145085 0.160362 0 0 0 0)
(0.0346774 0.0328971 0 -0.130147 0.100846 0 0 0 0)
(-0.469644 0.0216412 0 -0.121076 0.0638833 0 0 0 0)
(-1.19854 0.0188272 0 -0.265092 0.0132928 0 0 0 0)
(-1.06591 0.0165056 0 -0.175176 0.0738734 0 0 0 0)
(-0.294146 0.0185005 0 -0.042586 0.0676451 0 0 0 0)
(0.0131774 0.0125453 0 0.0445334 0.0444798 0 0 0 0)
(-0.013129 -0.0182467 0 0.162755 0.110815 0 0 0 0)
(-0.193274 -0.0640364 0 0.310564 0.238789 0 0 0 0)
(-0.456468 -0.0615435 0 0.277744 0.487122 0 0 0 0)
(-0.61009 -0.016633 0 0.127713 0.661829 0 0 0 0)
(-0.590256 0.0173425 0 0.0456537 0.66523 0 0 0 0)
(-0.50227 0.0260148 0 0.070903 0.599614 0 0 0 0)
(-0.460398 0.0178351 0 0.160008 0.522046 0 0 0 0)
(-0.538348 0.00710831 0 0.232088 0.432416 0 0 0 0)
(-0.858099 0.0226782 0 0.180541 0.350549 0 0 0 0)
(-1.4364 0.039421 0 0.0631359 0.254536 0 0 0 0)
(-1.41415 0.0222644 0 0.0142678 0.159016 0 0 0 0)
(-0.944825 0.00422707 0 0.00207764 0.116806 0 0 0 0)
(-1.19772 -0.00056512 0 0.000710154 0.116529 0 0 0 0)
(-1.16305 -0.00035543 0 0.00146974 0.118865 0 0 0 0)
(-0.523925 0.0002988 0 0.00472453 0.1193 0 0 0 0)
(-0.220797 0.000307759 0 0.00898144 0.117088 0 0 0 0)
(-0.145157 -0.000355834 0 0.0139793 0.116995 0 0 0 0)
(-0.118709 -0.00117085 0 0.0185152 0.118927 0 0 0 0)
(-0.0929154 -0.00253828 0 0.0204259 0.124319 0 0 0 0)
(-0.0797124 -0.00424114 0 0.017148 0.135687 0 0 0 0)
(-0.0813183 -0.00289408 0 0.00609582 0.152948 0 0 0 0)
(-0.070451 0.00122263 0 -0.0067764 0.155246 0 0 0 0)
(-0.0526688 0.00553951 0 -0.0136167 0.144798 0 0 0 0)
(-0.0238945 0.00395775 0 -0.0162478 0.117853 0 0 0 0)
(-0.0292245 -6.51766e-14 0 -2.28668e-13 0.301696 0 0 0 0)
(-0.130697 -1.2822e-13 0 -9.30443e-13 -0.922687 0 0 0 0)
(0.0528839 -1.76728e-13 0 -1.15123e-12 -0.976632 0 0 0 0)
(0.170498 -3.53073e-14 0 -7.49085e-13 -0.316734 0 0 0 0)
(0.128348 6.30063e-14 0 -5.44072e-13 0.157808 0 0 0 0)
(0.180639 1.0956e-13 0 -5.67728e-13 0.514328 0 0 0 0)
(0.181861 3.0881e-17 0 -6.78119e-13 0.661722 0 0 0 0)
(0.174849 -6.50354e-14 0 -5.36187e-13 0.635581 0 0 0 0)
(0.254069 -1.1026e-14 0 -3.07519e-13 0.49097 0 0 0 0)
(0.240657 1.04681e-13 0 -1.41932e-13 0.59996 0 0 0 0)
(0.0346867 1.87803e-13 0 4.73106e-14 0.438224 0 0 0 0)
(-0.480366 3.15502e-13 0 2.52323e-13 0.373792 0 0 0 0)
(-1.20307 1.62696e-13 0 4.0214e-13 0.289441 0 0 0 0)
(-1.04459 -4.04417e-13 0 1.00535e-12 0.244355 0 0 0 0)
(-0.274097 -4.87333e-13 0 2.83864e-13 0.175965 0 0 0 0)
(0.0264509 -1.1936e-12 0 -3.43002e-13 0.117164 0 0 0 0)
(-0.00402149 -2.88069e-12 0 -9.30443e-13 0.0897164 0 0 0 0)
(-0.205522 -1.90285e-12 0 -6.72994e-12 0.24261 0 0 0 0)
(-0.477161 1.74775e-12 0 2.08955e-13 0.529967 0 0 0 0)
(-0.598278 5.69585e-12 0 5.29879e-12 0.665722 0 0 0 0)
(-0.553309 4.94359e-12 0 5.1884e-12 0.644318 0 0 0 0)
(-0.483695 -1.50474e-12 0 5.36976e-12 0.546492 0 0 0 0)
(-0.458222 -3.80207e-12 0 3.45368e-12 0.465466 0 0 0 0)
(-0.546197 3.56871e-13 0 -1.22219e-12 0.423876 0 0 0 0)
(-0.893063 2.78449e-12 0 -1.01324e-12 0.416597 0 0 0 0)
(-1.46679 -5.27975e-13 0 5.76993e-12 0.267963 0 0 0 0)
(-1.41263 -4.3198e-12 0 1.39675e-11 0.145577 0 0 0 0)
(-0.937727 -5.50004e-12 0 4.68572e-12 0.114895 0 0 0 0)
(-1.19709 -2.81678e-12 0 -3.05577e-11 0.116516 0 0 0 0)
(-1.16298 2.88933e-12 0 -6.6677e-11 0.118781 0 0 0 0)
(-0.523256 5.32556e-12 0 -5.86829e-11 0.11896 0 0 0 0)
(-0.219733 4.53055e-12 0 -3.08525e-11 0.116726 0 0 0 0)
(-0.144004 1.37092e-12 0 -9.59913e-12 0.116844 0 0 0 0)
(-0.117597 -1.2975e-12 0 1.6953e-13 0.119173 0 0 0 0)
(-0.0918243 -5.40901e-13 0 3.77894e-12 0.124893 0 0 0 0)
(-0.0786734 -1.30934e-12 0 7.08575e-12 0.136623 0 0 0 0)
(-0.0808291 -2.88186e-12 0 8.24388e-12 0.154051 0 0 0 0)
(-0.0709098 -5.67303e-13 0 4.56153e-12 0.15652 0 0 0 0)
(-0.0539863 1.48819e-12 0 8.37793e-13 0.145646 0 0 0 0)
(-0.0247505 5.93165e-13 0 -3.41031e-13 0.118436 0 0 0 0)
(-0.0746153 -0.484038 0 -0.0154596 0.174743 0 0 0 0)
(-0.0669212 -0.185939 0 0.437526 -0.623173 0 0 0 0)
(0.093623 0.0881387 0 0.912733 -0.213925 0 0 0 0)
(0.146187 0.165009 0 0.63613 0.127907 0 0 0 0)
(0.125941 0.120882 0 0.628298 0.241913 0 0 0 0)
(0.152096 0.0732966 0 0.509213 0.235933 0 0 0 0)
(0.163767 0.0176368 0 0.369312 0.243089 0 0 0 0)
(0.165428 -0.0248366 0 0.304877 0.19696 0 0 0 0)
(0.244183 -0.00518136 0 0.231784 0.0804598 0 0 0 0)
(0.237053 -0.00767217 0 0.145085 0.160362 0 0 0 0)
(0.0346774 -0.0328971 0 0.130147 0.100846 0 0 0 0)
(-0.469644 -0.0216412 0 0.121076 0.0638833 0 0 0 0)
(-1.19854 -0.0188272 0 0.265092 0.0132928 0 0 0 0)
(-1.06591 -0.0165056 0 0.175176 0.0738734 0 0 0 0)
(-0.294146 -0.0185005 0 0.042586 0.0676451 0 0 0 0)
(0.0131774 -0.0125453 0 -0.0445334 0.0444798 0 0 0 0)
(-0.013129 0.0182467 0 -0.162755 0.110815 0 0 0 0)
(-0.193274 0.0640364 0 -0.310564 0.238789 0 0 0 0)
(-0.456468 0.0615435 0 -0.277744 0.487122 0 0 0 0)
(-0.61009 0.016633 0 -0.127713 0.661829 0 0 0 0)
(-0.590256 -0.0173425 0 -0.0456537 0.66523 0 0 0 0)
(-0.50227 -0.0260148 0 -0.070903 0.599614 0 0 0 0)
(-0.460398 -0.0178351 0 -0.160008 0.522046 0 0 0 0)
(-0.538348 -0.00710831 0 -0.232088 0.432416 0 0 0 0)
(-0.858099 -0.0226782 0 -0.180541 0.350549 0 0 0 0)
(-1.4364 -0.039421 0 -0.0631359 0.254536 0 0 0 0)
(-1.41415 -0.0222644 0 -0.0142678 0.159016 0 0 0 0)
(-0.944825 -0.00422707 0 -0.00207764 0.116806 0 0 0 0)
(-1.19772 0.00056512 0 -0.000710154 0.116529 0 0 0 0)
(-1.16305 0.00035543 0 -0.00146974 0.118865 0 0 0 0)
(-0.523925 -0.0002988 0 -0.00472453 0.1193 0 0 0 0)
(-0.220797 -0.000307759 0 -0.00898144 0.117088 0 0 0 0)
(-0.145157 0.000355834 0 -0.0139793 0.116995 0 0 0 0)
(-0.118709 0.00117085 0 -0.0185152 0.118927 0 0 0 0)
(-0.0929154 0.00253828 0 -0.0204259 0.124319 0 0 0 0)
(-0.0797124 0.00424114 0 -0.017148 0.135687 0 0 0 0)
(-0.0813183 0.00289408 0 -0.00609582 0.152948 0 0 0 0)
(-0.070451 -0.00122263 0 0.0067764 0.155246 0 0 0 0)
(-0.0526688 -0.00553951 0 0.0136167 0.144798 0 0 0 0)
(-0.0238945 -0.00395775 0 0.0162478 0.117853 0 0 0 0)
(0.181558 -0.641662 0 0.515738 -0.530648 0 0 0 0)
(0.139323 -0.113067 0 0.973303 -0.255116 0 0 0 0)
(0.11066 0.218496 0 1.13645 0.0927383 0 0 0 0)
(0.0877534 0.132607 0 0.93517 0.0488503 0 0 0 0)
(0.0914272 0.0314258 0 0.863226 0.10836 0 0 0 0)
(0.105297 0.000342107 0 0.726893 0.0661391 0 0 0 0)
(0.122418 -0.0113376 0 0.558215 0.136601 0 0 0 0)
(0.134841 -0.0473102 0 0.423025 0.197236 0 0 0 0)
(0.207584 -0.0106468 0 0.303279 0.184207 0 0 0 0)
(0.21109 0.00593052 0 0.138579 0.263409 0 0 0 0)
(0.0277022 -0.0280664 0 0.104951 0.229685 0 0 0 0)
(-0.44111 -0.02547 0 0.0804839 0.0983316 0 0 0 0)
(-1.18734 0.0029062 0 0.284163 0.0095531 0 0 0 0)
(-1.10932 0.0158116 0 0.149088 0.0631918 0 0 0 0)
(-0.338012 -0.00855088 0 0.0866699 0.0790022 0 0 0 0)
(-0.0332847 0.0125586 0 -0.0667549 0.0778304 0 0 0 0)
(-0.0814122 0.0565264 0 -0.190994 0.183258 0 0 0 0)
(-0.238973 0.109471 0 -0.299584 0.336466 0 0 0 0)
(-0.423968 0.123066 0 -0.305615 0.50294 0 0 0 0)
(-0.530761 0.0518134 0 -0.150049 0.623855 0 0 0 0)
(-0.536783 -0.0180991 0 0.0544781 0.629631 0 0 0 0)
(-0.516961 -0.0416537 0 0.118118 0.58177 0 0 0 0)
(-0.505113 -0.0486393 0 0.0382564 0.512713 0 0 0 0)
(-0.55217 -0.0498899 0 -0.0513392 0.425589 0 0 0 0)
(-0.843914 -0.051747 0 -0.0902475 0.320747 0 0 0 0)
(-1.41842 -0.0557189 0 -0.112953 0.257132 0 0 0 0)
(-1.39486 -0.040067 0 -0.0808164 0.17086 0 0 0 0)
(-0.933783 -0.0123598 0 -0.0110772 0.117609 0 0 0 0)
(-1.19692 0.000599029 0 -0.00115532 0.11657 0 0 0 0)
(-1.16415 0.000806155 0 -0.00137725 0.119113 0 0 0 0)
(-0.525441 -0.00051685 0 -0.00477228 0.119703 0 0 0 0)
(-0.222425 -0.000670637 0 -0.00672304 0.117914 0 0 0 0)
(-0.146778 0.000535042 0 -0.00916184 0.118148 0 0 0 0)
(-0.119473 0.00213083 0 -0.0114335 0.119842 0 0 0 0)
(-0.0914265 0.00487549 0 -0.0109914 0.123821 0 0 0 0)
(-0.0745047 0.00832839 0 -0.00368831 0.131442 0 0 0 0)
(-0.0738693 0.00568979 0 0.0150574 0.144587 0 0 0 0)
(-0.0651753 -0.00237103 0 0.0367638 0.146793 0 0 0 0)
(-0.051231 -0.0108778 0 0.0475653 0.139877 0 0 0 0)
(-0.023985 -0.00783839 0 0.0487618 0.114777 0 0 0 0)
(0.046033 0.0572125 0 0.889204 -0.128834 0 0 0 0)
(0.0839658 0.120837 0 0.81903 0.246473 0 0 0 0)
(0.0500047 0.128083 0 0.753438 0.0504281 0 0 0 0)
(0.0423647 0.212274 0 0.703243 -0.0310028 0 0 0 0)
(0.0352016 0.23516 0 0.642736 -0.0256998 0 0 0 0)
(0.0148819 0.175365 0 0.561013 0.0412577 0 0 0 0)
(0.0209691 0.133372 0 0.453556 0.173876 0 0 0 0)
(0.0408807 0.0310108 0 0.332115 0.220345 0 0 0 0)
(0.108075 0.0426462 0 0.224589 0.25711 0 0 0 0)
(0.142669 0.00512696 0 0.0884865 0.365924 0 0 0 0)
(0.00630072 -0.142031 0 0.0174769 0.342418 0 0 0 0)
(-0.390222 -0.155297 0 -0.00757088 0.206454 0 0 0 0)
(-1.16846 -0.0659987 0 0.102605 0.107439 0 0 0 0)
(-1.1396 -0.0103088 0 0.003966 0.133277 0 0 0 0)
(-0.378818 -0.0208224 0 0.0597426 0.150108 0 0 0 0)
(-0.107272 0.0238254 0 -0.0663904 0.175134 0 0 0 0)
(-0.0802239 0.136221 0 -0.121503 0.228368 0 0 0 0)
(-0.212332 0.21203 0 -0.113672 0.401632 0 0 0 0)
(-0.400246 0.170679 0 -0.120424 0.547349 0 0 0 0)
(-0.475939 0.0554256 0 -0.108923 0.605341 0 0 0 0)
(-0.48387 -0.0428665 0 -0.0631722 0.596015 0 0 0 0)
(-0.495459 -0.081272 0 -0.031006 0.536853 0 0 0 0)
(-0.514993 -0.0801859 0 -0.0135035 0.465136 0 0 0 0)
(-0.602972 -0.078057 0 -0.0197347 0.404451 0 0 0 0)
(-0.91315 -0.0947361 0 -0.0652758 0.337737 0 0 0 0)
(-1.45126 -0.114597 0 -0.129364 0.254037 0 0 0 0)
(-1.37255 -0.0891988 0 -0.112408 0.158632 0 0 0 0)
(-0.907623 -0.0288783 0 -0.0155271 0.115377 0 0 0 0)
(-1.19257 0.00146926 0 0.00161482 0.115984 0 0 0 0)
(-1.16404 0.00179949 0 0.00431169 0.118709 0 0 0 0)
(-0.525525 -0.000799167 0 0.00163437 0.119234 0 0 0 0)
(-0.221669 -0.00086348 0 0.00274442 0.117888 0 0 0 0)
(-0.146237 0.00135814 0 0.00425593 0.118515 0 0 0 0)
(-0.118974 0.00361907 0 0.00552372 0.120095 0 0 0 0)
(-0.0897785 0.00711216 0 0.00695913 0.122594 0 0 0 0)
(-0.069394 0.0125415 0 0.0100602 0.126456 0 0 0 0)
(-0.0645567 0.00929072 0 0.0182017 0.134355 0 0 0 0)
(-0.0561598 -0.00284948 0 0.0301296 0.137293 0 0 0 0)
(-0.0468053 -0.0194493 0 0.0373229 0.136806 0 0 0 0)
(-0.0230393 -0.0152149 0 0.0372916 0.116102 0 0 0 0)
(0.0168947 -0.0256115 0 0.398894 0.698988 0 0 0 0)
(0.0381793 -0.0657502 0 0.330671 0.652937 0 0 0 0)
(0.0316079 -0.00040737 0 0.282216 0.593859 0 0 0 0)
(0.00541586 0.016528 0 0.266655 0.56767 0 0 0 0)
(-0.0154804 -0.00819007 0 0.237099 0.380607 0 0 0 0)
(-0.0285205 0.0988078 0 0.226266 0.281131 0 0 0 0)
(-0.043757 0.0836398 0 0.194664 0.249823 0 0 0 0)
(-0.0354158 -0.0091013 0 0.171432 0.151602 0 0 0 0)
(0.0261754 0.101061 0 0.137052 0.162801 0 0 0 0)
(0.0481978 0.0885673 0 0.0503897 0.224696 0 0 0 0)
(-0.053386 -0.120626 0 -0.0377681 0.183034 0 0 0 0)
(-0.386365 -0.182287 0 -0.0595649 0.109304 0 0 0 0)
(-1.18634 -0.0306612 0 -0.130087 0.128569 0 0 0 0)
(-1.13438 0.0709357 0 -0.114685 0.186264 0 0 0 0)
(-0.383929 0.0383648 0 -0.0120414 0.213981 0 0 0 0)
(-0.168266 0.0819311 0 -0.055378 0.224407 0 0 0 0)
(-0.127612 0.232053 0 -0.111485 0.25656 0 0 0 0)
(-0.252219 0.361857 0 -0.213713 0.415475 0 0 0 0)
(-0.432113 0.293836 0 -0.310195 0.572931 0 0 0 0)
(-0.504988 0.0967731 0 -0.354268 0.62394 0 0 0 0)
(-0.490073 -0.0708154 0 -0.336379 0.595714 0 0 0 0)
(-0.480629 -0.146529 0 -0.285903 0.534622 0 0 0 0)
(-0.488953 -0.15931 0 -0.233648 0.454955 0 0 0 0)
(-0.574818 -0.157552 0 -0.196277 0.374176 0 0 0 0)
(-0.91243 -0.173639 0 -0.188308 0.300163 0 0 0 0)
(-1.44623 -0.196739 0 -0.223695 0.215351 0 0 0 0)
(-1.29713 -0.147339 0 -0.168167 0.136064 0 0 0 0)
(-0.837933 -0.0445992 0 -0.0215854 0.112404 0 0 0 0)
(-1.18013 0.00334318 0 0.00455856 0.113903 0 0 0 0)
(-1.16419 0.00340521 0 0.00922023 0.116446 0 0 0 0)
(-0.526906 -0.00115626 0 0.0051505 0.117533 0 0 0 0)
(-0.220304 -0.0012596 0 0.00651977 0.116778 0 0 0 0)
(-0.144389 0.00222088 0 0.00876013 0.117573 0 0 0 0)
(-0.117135 0.00526277 0 0.0104885 0.119105 0 0 0 0)
(-0.0879387 0.00980536 0 0.0113502 0.1214 0 0 0 0)
(-0.0664115 0.0174025 0 0.011641 0.124293 0 0 0 0)
(-0.0595235 0.0142021 0 0.013694 0.129161 0 0 0 0)
(-0.0515837 0.000247592 0 0.01749 0.130916 0 0 0 0)
(-0.0467026 -0.0267019 0 0.0212173 0.135208 0 0 0 0)
(-0.0245223 -0.0238336 0 0.0196165 0.119639 0 0 0 0)
(-0.0197094 0.0128362 0 -0.00801815 0.576804 0 0 0 0)
(-0.0284696 0.0195309 0 -0.0198203 0.54529 0 0 0 0)
(-0.011684 0.0459166 0 -0.0562429 0.562678 0 0 0 0)
(-0.00111191 0.00677625 0 -0.0879169 0.552805 0 0 0 0)
(-0.00371844 -0.0409587 0 -0.086828 0.544111 0 0 0 0)
(-0.0260097 0.0493363 0 -0.0806775 0.528264 0 0 0 0)
(-0.0318705 0.00855277 0 -0.078347 0.481104 0 0 0 0)
(-0.0146364 -0.052846 0 -0.0418527 0.402351 0 0 0 0)
(-0.00856625 0.113082 0 0.0145647 0.400081 0 0 0 0)
(-0.0257944 0.0246233 0 -0.0843886 0.381896 0 0 0 0)
(-0.0996556 -0.253227 0 -0.236812 0.315956 0 0 0 0)
(-0.479184 -0.207781 0 -0.30633 0.314516 0 0 0 0)
(-1.22158 0.00816249 0 -0.449802 0.320568 0 0 0 0)
(-1.02585 0.071997 0 -0.17399 0.249573 0 0 0 0)
(-0.321668 0.015934 0 -0.0679102 0.263934 0 0 0 0)
(-0.203099 0.0648555 0 -0.111818 0.264641 0 0 0 0)
(-0.232802 0.320341 0 -0.23703 0.353157 0 0 0 0)
(-0.403817 0.516897 0 -0.402017 0.546483 0 0 0 0)
(-0.53569 0.371564 0 -0.52935 0.632029 0 0 0 0)
(-0.50117 0.0773806 0 -0.51921 0.586025 0 0 0 0)
(-0.41799 -0.128937 0 -0.438399 0.517335 0 0 0 0)
(-0.396463 -0.216912 0 -0.352233 0.45582 0 0 0 0)
(-0.428627 -0.234797 0 -0.277669 0.39104 0 0 0 0)
(-0.55928 -0.22722 0 -0.241541 0.327341 0 0 0 0)
(-0.939571 -0.247785 0 -0.257309 0.259197 0 0 0 0)
(-1.43185 -0.272729 0 -0.3129 0.172294 0 0 0 0)
(-1.17779 -0.188402 0 -0.204505 0.113993 0 0 0 0)
(-0.741179 -0.0502333 0 -0.0238564 0.110115 0 0 0 0)
(-1.16288 0.00536405 0 0.00620714 0.112315 0 0 0 0)
(-1.16347 0.00529782 0 0.0100973 0.115285 0 0 0 0)
(-0.528127 -0.000479212 0 0.00347496 0.118367 0 0 0 0)
(-0.21819 -0.000824609 0 0.00363488 0.119544 0 0 0 0)
(-0.142413 0.00360035 0 0.00517966 0.121001 0 0 0 0)
(-0.116478 0.00730643 0 0.00608733 0.122682 0 0 0 0)
(-0.0886679 0.0121119 0 0.00591192 0.124967 0 0 0 0)
(-0.0671354 0.0200203 0 0.00501415 0.126223 0 0 0 0)
(-0.0589204 0.0156724 0 0.0053932 0.128021 0 0 0 0)
(-0.0489101 0.00297743 0 0.00600784 0.125695 0 0 0 0)
(-0.0447561 -0.0303156 0 0.0105767 0.131517 0 0 0 0)
(-0.0245819 -0.0302172 0 0.0116822 0.120818 0 0 0 0)
(0.00552176 -0.0559795 0 -0.29394 0.479322 0 0 0 0)
(-0.00829182 -0.0793633 0 -0.262497 0.438486 0 0 0 0)
(-0.0340124 0.00683372 0 -0.246747 0.429006 0 0 0 0)
(-0.024057 -0.00136387 0 -0.243156 0.414769 0 0 0 0)
(-0.00850433 -0.0318384 0 -0.23308 0.421118 0 0 0 0)
(-0.0203479 0.0380927 0 -0.223981 0.440456 0 0 0 0)
(-0.00634393 -0.0376941 0 -0.197626 0.388413 0 0 0 0)
(0.0541173 -0.0871786 0 -0.132809 0.377939 0 0 0 0)
(-0.0148138 0.0813493 0 -0.0987581 0.428585 0 0 0 0)
(-0.194038 0.0075021 0 -0.274314 0.223718 0 0 0 0)
(-0.267257 -0.185556 0 -0.333919 0.213755 0 0 0 0)
(-0.59161 -0.177843 0 -0.469336 0.29846 0 0 0 0)
(-1.05881 -0.0932425 0 -0.571206 0.306748 0 0 0 0)
(-0.766376 0.0163615 0 -0.0871756 0.254691 0 0 0 0)
(-0.324018 0.0528853 0 -0.0858068 0.293053 0 0 0 0)
(-0.331236 0.167909 0 -0.198108 0.347171 0 0 0 0)
(-0.407258 0.503646 0 -0.388649 0.551857 0 0 0 0)
(-0.533909 0.630588 0 -0.580669 0.705286 0 0 0 0)
(-0.545045 0.33194 0 -0.636849 0.622141 0 0 0 0)
(-0.417345 -0.0137501 0 -0.541598 0.48952 0 0 0 0)
(-0.329167 -0.196285 0 -0.442721 0.411201 0 0 0 0)
(-0.325744 -0.268231 0 -0.36739 0.359392 0 0 0 0)
(-0.382286 -0.283117 0 -0.311938 0.315985 0 0 0 0)
(-0.555199 -0.284601 0 -0.291168 0.271249 0 0 0 0)
(-0.981194 -0.323049 0 -0.326588 0.206581 0 0 0 0)
(-1.39535 -0.336663 0 -0.389364 0.124988 0 0 0 0)
(-1.0186 -0.207257 0 -0.207158 0.100695 0 0 0 0)
(-0.634883 -0.0462164 0 -0.0212362 0.112969 0 0 0 0)
(-1.14741 0.00832586 0 0.0112712 0.114995 0 0 0 0)
(-1.16682 0.00923723 0 0.016581 0.119425 0 0 0 0)
(-0.533134 0.00294767 0 0.00979752 0.12266 0 0 0 0)
(-0.218662 0.00127944 0 0.0100868 0.124497 0 0 0 0)
(-0.142026 0.00524445 0 0.011862 0.126769 0 0 0 0)
(-0.11643 0.00908393 0 0.0130453 0.128512 0 0 0 0)
(-0.0889729 0.0132181 0 0.013753 0.130632 0 0 0 0)
(-0.0669113 0.0203461 0 0.0144473 0.12921 0 0 0 0)
(-0.0585659 0.0136925 0 0.0163185 0.128508 0 0 0 0)
(-0.0465888 0.00361636 0 0.0154624 0.122057 0 0 0 0)
(-0.0412346 -0.0314013 0 0.0189166 0.126608 0 0 0 0)
(-0.023457 -0.0341439 0 0.0204916 0.120121 0 0 0 0)
(0.0105904 -0.0265149 0 -0.409846 0.352891 0 0 0 0)
(0.0170078 -0.0289552 0 -0.410698 0.389274 0 0 0 0)
(0.00695323 0.0230623 0 -0.391225 0.417972 0 0 0 0)
(0.0120574 -0.000825193 0 -0.360505 0.395887 0 0 0 0)
(0.01476 -0.0162067 0 -0.339472 0.419333 0 0 0 0)
(0.00815487 0.0178206 0 -0.327266 0.448336 0 0 0 0)
(0.0559859 -0.0516906 0 -0.29569 0.382734 0 0 0 0)
(0.0806367 -0.0141353 0 -0.230956 0.416279 0 0 0 0)
(-0.144926 -0.035531 0 -0.287902 0.428804 0 0 0 0)
(-0.252404 -0.182394 0 -0.396405 0.251736 0 0 0 0)
(-0.287586 -0.181202 0 -0.402055 0.182148 0 0 0 0)
(-0.707843 -0.11817 0 -0.479507 0.232177 0 0 0 0)
(-0.853312 -0.0340151 0 -0.45591 0.283412 0 0 0 0)
(-0.558098 0.0588002 0 -0.122665 0.362462 0 0 0 0)
(-0.428566 0.105051 0 -0.205953 0.400715 0 0 0 0)
(-0.494929 0.314249 0 -0.365273 0.524627 0 0 0 0)
(-0.601451 0.665433 0 -0.563361 0.812814 0 0 0 0)
(-0.642991 0.584625 0 -0.704042 0.779592 0 0 0 0)
(-0.498039 0.163644 0 -0.636916 0.542872 0 0 0 0)
(-0.314102 -0.125889 0 -0.510726 0.396219 0 0 0 0)
(-0.250118 -0.254333 0 -0.426957 0.324391 0 0 0 0)
(-0.270435 -0.308666 0 -0.369273 0.279338 0 0 0 0)
(-0.355176 -0.319735 0 -0.335148 0.249587 0 0 0 0)
(-0.573398 -0.332646 0 -0.335915 0.212191 0 0 0 0)
(-1.0342 -0.388728 0 -0.398821 0.149485 0 0 0 0)
(-1.31677 -0.374765 0 -0.442542 0.0854967 0 0 0 0)
(-0.823049 -0.199984 0 -0.180203 0.0985352 0 0 0 0)
(-0.530692 -0.0364525 0 -0.0193095 0.119325 0 0 0 0)
(-1.12644 0.0115845 0 0.0117733 0.121562 0 0 0 0)
(-1.16489 0.0126834 0 0.0164722 0.124542 0 0 0 0)
(-0.534385 0.00440834 0 0.00966895 0.125888 0 0 0 0)
(-0.216201 0.00313529 0 0.0100596 0.127054 0 0 0 0)
(-0.139562 0.00746987 0 0.0119458 0.129574 0 0 0 0)
(-0.114655 0.0110286 0 0.0128122 0.132131 0 0 0 0)
(-0.0873169 0.0127841 0 0.013013 0.135729 0 0 0 0)
(-0.0646632 0.0179743 0 0.012979 0.132366 0 0 0 0)
(-0.0579422 0.00877993 0 0.0152028 0.131133 0 0 0 0)
(-0.0464065 0.00114581 0 0.0140107 0.121993 0 0 0 0)
(-0.0399098 -0.0321813 0 0.0161349 0.124285 0 0 0 0)
(-0.0230642 -0.0364681 0 0.0171188 0.120177 0 0 0 0)
(0.00470092 -0.0209188 0 -0.439053 0.332718 0 0 0 0)
(0.00965224 -0.0166487 0 -0.446685 0.350148 0 0 0 0)
(0.014355 0.0132062 0 -0.453126 0.367071 0 0 0 0)
(0.0258135 -5.17083e-05 0 -0.448375 0.342988 0 0 0 0)
(0.0235263 0.0187031 0 -0.449686 0.368039 0 0 0 0)
(0.0218429 0.00282385 0 -0.445114 0.364074 0 0 0 0)
(0.0864643 -0.068586 0 -0.431127 0.316015 0 0 0 0)
(0.0616221 -0.042784 0 -0.440927 0.353198 0 0 0 0)
(-0.174247 -0.0772103 0 -0.527518 0.273789 0 0 0 0)
(-0.30404 -0.230184 0 -0.484468 0.276445 0 0 0 0)
(-0.347337 -0.204403 0 -0.584037 0.233812 0 0 0 0)
(-0.643507 -0.0802618 0 -0.641452 0.249858 0 0 0 0)
(-0.714947 0.0323047 0 -0.457089 0.346272 0 0 0 0)
(-0.525508 0.129399 0 -0.37131 0.424205 0 0 0 0)
(-0.557804 0.209153 0 -0.515312 0.45914 0 0 0 0)
(-0.675647 0.565023 0 -0.686758 0.806261 0 0 0 0)
(-0.733708 0.74934 0 -0.826619 0.973509 0 0 0 0)
(-0.604789 0.370462 0 -0.781819 0.674623 0 0 0 0)
(-0.358758 -0.0374929 0 -0.595803 0.423325 0 0 0 0)
(-0.215021 -0.224287 0 -0.472278 0.308497 0 0 0 0)
(-0.192858 -0.308916 0 -0.405167 0.249332 0 0 0 0)
(-0.237272 -0.340315 0 -0.365641 0.215611 0 0 0 0)
(-0.350141 -0.347822 0 -0.351322 0.189386 0 0 0 0)
(-0.616557 -0.381063 0 -0.379737 0.15667 0 0 0 0)
(-1.08394 -0.445136 0 -0.469313 0.0882385 0 0 0 0)
(-1.18468 -0.38576 0 -0.452708 0.0280412 0 0 0 0)
(-0.610756 -0.174659 0 -0.130777 0.0921926 0 0 0 0)
(-0.449887 -0.024027 0 -0.0147853 0.115029 0 0 0 0)
(-1.11293 0.013353 0 0.010718 0.113126 0 0 0 0)
(-1.16885 0.0134058 0 0.00882165 0.10426 0 0 0 0)
(-0.539313 0.00536842 0 0.00175988 0.0910039 0 0 0 0)
(-0.216468 0.00483146 0 0.00441321 0.0839422 0 0 0 0)
(-0.139373 0.0101368 0 0.0095304 0.0872369 0 0 0 0)
(-0.115401 0.0150149 0 0.0137466 0.098092 0 0 0 0)
(-0.0888122 0.0134446 0 0.0166156 0.113855 0 0 0 0)
(-0.0648011 0.0159179 0 0.0153598 0.123395 0 0 0 0)
(-0.0575717 0.00369672 0 0.0144026 0.131495 0 0 0 0)
(-0.0456906 -0.00298285 0 0.0110244 0.121828 0 0 0 0)