/*--------------------------------*- C++ -*----------------------------------*\
| =========                 |                                                 |
| \\      /  F ield         | OpenFOAM: The Open Source CFD Toolbox           |
|  \\    /   O peration     | Version:  v1912                                 |
|   \\  /    A nd           | Website:  www.openfoam.com                      |
|    \\/     M anipulation  |                                                 |
\*---------------------------------------------------------------------------*/
FoamFile
{
    version     2.0;
    format      ascii;
    class       volVectorField;
    location    "8.56";
    object      U;
}
// * * * * * * * * * * * * * * * * * * * * * * * * * * * * * * * * * * * * * //

dimensions      [0 1 -1 0 0 0 0];


internalField   nonuniform List<vector> 
1900
(
(-0.0720884 -6.85304e-07 0)
(0.123386 -2.93573e-06 0)
(0.114347 -5.76559e-06 0)
(0.112799 -1.15744e-05 0)
(0.110997 -1.90433e-05 0)
(0.110861 -5.30167e-05 0)
(0.108839 -0.000100692 0)
(0.106074 5.95148e-05 0)
(0.103124 0.00386222 0)
(0.0911567 0.0125981 0)
(-0.0720887 -1.57814e-06 0)
(0.123386 -4.5005e-06 0)
(0.114351 -4.89323e-06 0)
(0.112791 -7.42582e-06 0)
(0.110961 -1.81192e-05 0)
(0.110749 -7.86918e-05 0)
(0.108677 -0.000108605 0)
(0.105983 0.000174608 0)
(0.104252 0.00264773 0)
(0.104333 0.0115856 0)
(-0.0720894 -1.39992e-14 0)
(0.123386 -2.47058e-14 0)
(0.114352 -1.13487e-14 0)
(0.112781 -2.85095e-15 0)
(0.110931 -3.36646e-15 0)
(0.110655 -1.05038e-15 0)
(0.108543 1.06396e-14 0)
(0.106232 4.25542e-15 0)
(0.105888 -3.04677e-16 0)
(0.111872 -9.27035e-15 0)
(-0.0720887 1.57814e-06 0)
(0.123386 4.5005e-06 0)
(0.114351 4.89323e-06 0)
(0.112791 7.42582e-06 0)
(0.110961 1.81192e-05 0)
(0.110749 7.86918e-05 0)
(0.108677 0.000108605 0)
(0.105983 -0.000174608 0)
(0.104252 -0.00264773 0)
(0.104333 -0.0115856 0)
(-0.0720884 6.85304e-07 0)
(0.123386 2.93573e-06 0)
(0.114347 5.76559e-06 0)
(0.112799 1.15744e-05 0)
(0.110997 1.90433e-05 0)
(0.110861 5.30167e-05 0)
(0.108839 0.000100692 0)
(0.106074 -5.95148e-05 0)
(0.103124 -0.00386222 0)
(0.0911567 -0.0125981 0)
(0.0949537 0.0391734 0)
(0.1312 0.0536286 0)
(0.178159 0.0776367 0)
(0.253703 0.119008 0)
(0.398036 0.174951 0)
(0.118313 0.027542 0)
(0.143445 0.0291593 0)
(0.173382 0.0387968 0)
(0.236488 0.0607541 0)
(0.378097 0.102709 0)
(0.128755 -8.17408e-15 0)
(0.152356 -2.55312e-14 0)
(0.183354 5.74595e-15 0)
(0.24735 -1.86052e-14 0)
(0.38784 -1.63438e-15 0)
(0.118313 -0.027542 0)
(0.143445 -0.0291593 0)
(0.173382 -0.0387968 0)
(0.236488 -0.0607541 0)
(0.378097 -0.102709 0)
(0.0949537 -0.0391734 0)
(0.1312 -0.0536286 0)
(0.178159 -0.0776367 0)
(0.253703 -0.119008 0)
(0.398036 -0.174951 0)
(0.850263 0.0307909 0)
(1.11275 -0.0520946 0)
(1.26914 -0.0835042 0)
(1.35363 -0.0960243 0)
(1.44789 -0.106503 0)
(0.82298 -0.0175853 0)
(1.12545 -0.0484833 0)
(1.301 -0.05984 0)
(1.38702 -0.060254 0)
(1.47793 -0.0811874 0)
(0.819089 -1.72807e-16 0)
(1.1296 6.2765e-15 0)
(1.2965 -3.45585e-15 0)
(1.37845 -3.23661e-16 0)
(1.46698 5.61569e-15 0)
(0.82298 0.0175853 0)
(1.12545 0.0484833 0)
(1.301 0.05984 0)
(1.38702 0.060254 0)
(1.47793 0.0811874 0)
(0.850263 -0.0307909 0)
(1.11275 0.0520946 0)
(1.26914 0.0835042 0)
(1.35363 0.0960243 0)
(1.44789 0.106503 0)
(1.47285 -0.0139794 0)
(1.4924 0.0498538 0)
(1.51116 0.017114 0)
(1.52283 -0.0102325 0)
(1.5353 -0.019353 0)
(1.54797 -0.0188746 0)
(1.56425 -0.0194471 0)
(1.58164 -0.0157568 0)
(1.60133 -0.00643679 0)
(1.63872 -0.0128289 0)
(1.65938 -0.00806768 0)
(1.64634 -0.00511067 0)
(1.53808 -0.00106342 0)
(1.31982 -0.00590987 0)
(1.23302 -0.00541161 0)
(1.22687 -0.00355838 0)
(1.22386 -0.00886522 0)
(1.20448 -0.0191031 0)
(1.15815 -0.0389697 0)
(1.08789 -0.0529464 0)
(1.01219 -0.0532184 0)
(0.940276 -0.0479691 0)
(0.870023 -0.0417637 0)
(0.80137 -0.0345933 0)
(0.718176 -0.0280439 0)
(0.569293 -0.0203629 0)
(0.32811 -0.0127212 0)
(0.185706 -0.00934446 0)
(0.0713198 -0.0093223 0)
(-0.143446 -0.00950919 0)
(-0.248821 -0.00954399 0)
(-0.287942 -0.00936706 0)
(-0.309988 -0.00935956 0)
(-0.328306 -0.00951419 0)
(-0.342843 -0.00994554 0)
(-0.353448 -0.010855 0)
(-0.363332 -0.0122359 0)
(-0.373763 -0.0124196 0)
(-0.381255 -0.0115838 0)
(-0.387851 -0.00942826 0)
(1.47771 -0.0120678 0)
(1.45746 0.0369075 0)
(1.4593 0.0390653 0)
(1.4832 0.0126693 0)
(1.49951 -0.00631233 0)
(1.51784 -0.0205731 0)
(1.54133 -0.0264689 0)
(1.56287 -0.0254233 0)
(1.58682 -0.0196388 0)
(1.63002 -0.0239984 0)
(1.65201 -0.017529 0)
(1.63956 -0.0149517 0)
(1.52286 -0.0115776 0)
(1.30996 -0.0097742 0)
(1.22974 -0.0070386 0)
(1.22907 -0.00468656 0)
(1.23336 -0.00358865 0)
(1.22546 -0.0097044 0)
(1.18021 -0.0211987 0)
(1.09993 -0.0266289 0)
(1.01244 -0.0257727 0)
(0.93761 -0.0218597 0)
(0.874312 -0.0186187 0)
(0.811001 -0.016955 0)
(0.726267 -0.0166639 0)
(0.575023 -0.0107185 0)
(0.331258 -0.00582308 0)
(0.186132 -0.00459582 0)
(0.071431 -0.00466064 0)
(-0.143242 -0.00475123 0)
(-0.248407 -0.00475838 0)
(-0.287321 -0.00466906 0)
(-0.309126 -0.00467375 0)
(-0.327239 -0.00476691 0)
(-0.341771 -0.00499573 0)
(-0.352791 -0.00546494 0)
(-0.363692 -0.00616205 0)
(-0.375153 -0.00626081 0)
(-0.383066 -0.00582582 0)
(-0.389637 -0.00473744 0)
(1.47409 -9.63448e-15 0)
(1.4574 -8.99493e-15 0)
(1.43815 -4.48949e-14 0)
(1.47194 -5.75951e-14 0)
(1.48503 -5.46045e-14 0)
(1.50724 -4.02684e-14 0)
(1.53471 -2.44755e-14 0)
(1.55725 -4.02599e-14 0)
(1.58279 -4.23602e-14 0)
(1.62712 -4.32921e-14 0)
(1.64897 -1.3573e-14 0)
(1.63666 8.3538e-15 0)
(1.51687 7.31899e-14 0)
(1.30581 5.30951e-14 0)
(1.22961 -3.80246e-14 0)
(1.23043 -8.09215e-14 0)
(1.23688 -3.66265e-13 0)
(1.22933 -8.7311e-13 0)
(1.18037 -8.8955e-13 0)
(1.09811 -3.9248e-13 0)
(1.01584 6.76808e-13 0)
(0.945948 9.67006e-13 0)
(0.882823 2.63004e-13 0)
(0.819937 -7.85628e-14 0)
(0.732619 3.61143e-13 0)
(0.574344 6.87173e-13 0)
(0.329251 2.1595e-13 0)
(0.185872 -5.00774e-13 0)
(0.0713766 -1.29656e-12 0)
(-0.143328 -1.27539e-12 0)
(-0.248443 -5.01997e-13 0)
(-0.287224 1.89143e-13 0)
(-0.30887 7.43905e-13 0)
(-0.326825 5.66145e-13 0)
(-0.341209 3.87093e-13 0)
(-0.352077 4.17397e-13 0)
(-0.362844 2.70247e-14 0)
(-0.374305 -3.75115e-13 0)
(-0.382345 -1.28984e-13 0)
(-0.389151 3.41367e-14 0)
(1.47771 0.0120678 0)
(1.45746 -0.0369075 0)
(1.4593 -0.0390653 0)
(1.4832 -0.0126693 0)
(1.49951 0.00631233 0)
(1.51784 0.0205731 0)
(1.54133 0.0264689 0)
(1.56287 0.0254233 0)
(1.58682 0.0196388 0)
(1.63002 0.0239984 0)
(1.65201 0.017529 0)
(1.63956 0.0149517 0)
(1.52286 0.0115776 0)
(1.30996 0.0097742 0)
(1.22974 0.0070386 0)
(1.22907 0.00468656 0)
(1.23336 0.00358865 0)
(1.22546 0.0097044 0)
(1.18021 0.0211987 0)
(1.09993 0.0266289 0)
(1.01244 0.0257727 0)
(0.93761 0.0218597 0)
(0.874312 0.0186187 0)
(0.811001 0.016955 0)
(0.726267 0.0166639 0)
(0.575023 0.0107185 0)
(0.331258 0.00582308 0)
(0.186132 0.00459582 0)
(0.071431 0.00466064 0)
(-0.143242 0.00475123 0)
(-0.248407 0.00475838 0)
(-0.287321 0.00466906 0)
(-0.309126 0.00467375 0)
(-0.327239 0.00476691 0)
(-0.341771 0.00499573 0)
(-0.352791 0.00546494 0)
(-0.363692 0.00616205 0)
(-0.375153 0.00626081 0)
(-0.383066 0.00582582 0)
(-0.389637 0.00473744 0)
(1.47285 0.0139794 0)
(1.4924 -0.0498538 0)
(1.51116 -0.017114 0)
(1.52283 0.0102325 0)
(1.5353 0.019353 0)
(1.54797 0.0188746 0)
(1.56425 0.0194471 0)
(1.58164 0.0157568 0)
(1.60133 0.00643679 0)
(1.63872 0.0128289 0)
(1.65938 0.00806768 0)
(1.64634 0.00511067 0)
(1.53808 0.00106342 0)
(1.31982 0.00590987 0)
(1.23302 0.00541161 0)
(1.22687 0.00355838 0)
(1.22386 0.00886522 0)
(1.20448 0.0191031 0)
(1.15815 0.0389697 0)
(1.08789 0.0529464 0)
(1.01219 0.0532184 0)
(0.940276 0.0479691 0)
(0.870023 0.0417637 0)
(0.80137 0.0345933 0)
(0.718176 0.0280439 0)
(0.569293 0.0203629 0)
(0.32811 0.0127212 0)
(0.185706 0.00934446 0)
(0.0713198 0.0093223 0)
(-0.143446 0.00950919 0)
(-0.248821 0.00954399 0)
(-0.287942 0.00936706 0)
(-0.309988 0.00935956 0)
(-0.328306 0.00951419 0)
(-0.342843 0.00994554 0)
(-0.353448 0.010855 0)
(-0.363332 0.0122359 0)
(-0.373763 0.0124196 0)
(-0.381255 0.0115838 0)
(-0.387851 0.00942826 0)
(1.57229 -0.0816793 0)
(1.58495 -0.0659458 0)
(1.59538 -0.0484491 0)
(1.5987 -0.030723 0)
(1.60703 0.00992619 0)
(1.60838 0.033946 0)
(1.61112 0.0581514 0)
(1.61415 0.0706233 0)
(1.62236 0.0666794 0)
(1.64387 0.0823511 0)
(1.6616 0.0680893 0)
(1.6456 0.0432925 0)
(1.55429 0.0253826 0)
(1.32427 0.0251429 0)
(1.2409 0.0225477 0)
(1.2201 0.0194167 0)
(1.2114 0.0290997 0)
(1.19804 0.0568775 0)
(1.15301 0.087408 0)
(1.08797 0.103814 0)
(1.02212 0.10265 0)
(0.954904 0.092026 0)
(0.885871 0.0803002 0)
(0.813281 0.0699749 0)
(0.720054 0.0588346 0)
(0.562164 0.0439225 0)
(0.320957 0.0273205 0)
(0.184713 0.0193928 0)
(0.0713603 0.0193789 0)
(-0.143243 0.0197969 0)
(-0.248751 0.0198738 0)
(-0.287762 0.0195771 0)
(-0.30971 0.0196364 0)
(-0.327977 0.0199506 0)
(-0.342428 0.0206316 0)
(-0.352666 0.0219064 0)
(-0.361511 0.0240805 0)
(-0.370419 0.0244614 0)
(-0.376955 0.0232969 0)
(-0.383291 0.0191128 0)
(1.65517 0.0311336 0)
(1.65981 0.0240905 0)
(1.66567 0.0130523 0)
(1.66851 0.0239784 0)
(1.66716 0.0175975 0)
(1.66425 0.0217262 0)
(1.65931 0.0447697 0)
(1.65222 0.0447271 0)
(1.64957 0.0422668 0)
(1.65941 0.0725189 0)
(1.66283 0.0666228 0)
(1.64473 0.0393467 0)
(1.55658 0.016494 0)
(1.31849 0.0309148 0)
(1.24462 0.0360013 0)
(1.21291 0.0414651 0)
(1.19835 0.0585323 0)
(1.17782 0.10528 0)
(1.12899 0.158043 0)
(1.05898 0.186085 0)
(0.990119 0.184656 0)
(0.924215 0.16661 0)
(0.857946 0.14436 0)
(0.789753 0.1228 0)
(0.699871 0.101033 0)
(0.538835 0.0750493 0)
(0.302158 0.0469301 0)
(0.182124 0.034531 0)
(0.071726 0.0346653 0)
(-0.142412 0.0354504 0)
(-0.248426 0.0356017 0)
(-0.287312 0.0351324 0)
(-0.30901 0.0352554 0)
(-0.327019 0.0357431 0)
(-0.341222 0.0367026 0)
(-0.351202 0.0384396 0)
(-0.359485 0.0414883 0)
(-0.367571 0.0423452 0)
(-0.37367 0.0415564 0)
(-0.380414 0.0350022 0)
(1.678 0.103552 0)
(1.67257 0.107082 0)
(1.67017 0.108924 0)
(1.66936 0.11971 0)
(1.66986 0.110787 0)
(1.66834 0.108446 0)
(1.66271 0.124354 0)
(1.65957 0.110798 0)
(1.65868 0.109822 0)
(1.65722 0.141895 0)
(1.65159 0.116593 0)
(1.62981 0.0722581 0)
(1.51981 0.0594535 0)
(1.29388 0.0745027 0)
(1.23771 0.0792527 0)
(1.20542 0.0788846 0)
(1.18185 0.097088 0)
(1.1414 0.166978 0)
(1.0708 0.239235 0)
(0.994087 0.269158 0)
(0.932982 0.260514 0)
(0.87914 0.233701 0)
(0.823954 0.200863 0)
(0.761267 0.169132 0)
(0.670152 0.138378 0)
(0.502885 0.100991 0)
(0.276392 0.0633773 0)
(0.178993 0.0491799 0)
(0.0725683 0.0495632 0)
(-0.140799 0.050655 0)
(-0.247386 0.0510201 0)
(-0.286034 0.0505232 0)
(-0.307389 0.0507933 0)
(-0.325198 0.0515133 0)
(-0.33942 0.0528026 0)
(-0.349582 0.0548441 0)
(-0.357882 0.0583082 0)
(-0.365785 0.059154 0)
(-0.371333 0.059127 0)
(-0.378093 0.0508172 0)
(1.65304 0.183987 0)
(1.65456 0.168592 0)
(1.65076 0.162162 0)
(1.64521 0.170472 0)
(1.64415 0.161787 0)
(1.64287 0.161716 0)
(1.63855 0.172262 0)
(1.64113 0.15135 0)
(1.65343 0.148288 0)
(1.63705 0.173721 0)
(1.60007 0.150351 0)
(1.56356 0.122693 0)
(1.43738 0.101444 0)
(1.27238 0.0970516 0)
(1.22663 0.105944 0)
(1.18328 0.111595 0)
(1.13554 0.152119 0)
(1.07128 0.250098 0)
(0.988713 0.325531 0)
(0.921394 0.341381 0)
(0.873943 0.321749 0)
(0.830873 0.287403 0)
(0.784364 0.247986 0)
(0.725745 0.209546 0)
(0.631684 0.169721 0)
(0.455916 0.120707 0)
(0.247964 0.0771382 0)
(0.175802 0.0637114 0)
(0.0733708 0.0644287 0)
(-0.139737 0.066001 0)
(-0.247505 0.0669689 0)
(-0.286348 0.0668116 0)
(-0.307637 0.0673207 0)
(-0.325406 0.0682538 0)
(-0.339655 0.0698188 0)
(-0.349873 0.0718888 0)
(-0.358056 0.075414 0)
(-0.365979 0.0756543 0)
(-0.370868 0.0764085 0)
(-0.377318 0.0670189 0)
(1.6001 0.230573 0)
(1.60301 0.223281 0)
(1.60478 0.22261 0)
(1.60493 0.229623 0)
(1.60809 0.222383 0)
(1.60898 0.225167 0)
(1.61034 0.227284 0)
(1.62438 0.210952 0)
(1.63251 0.223397 0)
(1.58453 0.201181 0)
(1.5631 0.173238 0)
(1.50544 0.15135 0)
(1.36844 0.140742 0)
(1.27078 0.141996 0)
(1.21497 0.156912 0)
(1.15292 0.170885 0)
(1.07886 0.24333 0)
(0.987524 0.353879 0)
(0.902039 0.404102 0)
(0.850563 0.398881 0)
(0.815661 0.369482 0)
(0.781781 0.32894 0)
(0.741291 0.284599 0)
(0.684108 0.241013 0)
(0.583606 0.193122 0)
(0.399704 0.134112 0)
(0.221495 0.0900614 0)
(0.173365 0.0791168 0)
(0.0755552 0.080037 0)
(-0.136405 0.0823025 0)
(-0.24479 0.0835249 0)
(-0.283361 0.0835148 0)
(-0.304245 0.0843871 0)
(-0.321741 0.085569 0)
(-0.335775 0.08742 0)
(-0.345753 0.0890846 0)
(-0.353558 0.0923629 0)
(-0.361687 0.0914991 0)
(-0.36632 0.092678 0)
(-0.372662 0.0826493 0)
(1.54443 0.277503 0)
(1.54573 0.27175 0)
(1.54709 0.272924 0)
(1.54967 0.275382 0)
(1.55419 0.27291 0)
(1.55614 0.280525 0)
(1.56019 0.273687 0)
(1.57992 0.261664 0)
(1.57714 0.261921 0)
(1.532 0.240431 0)
(1.49353 0.198621 0)
(1.43649 0.18422 0)
(1.31656 0.176549 0)
(1.23988 0.193104 0)
(1.17205 0.212133 0)
(1.08648 0.250621 0)
(0.986247 0.367515 0)
(0.88471 0.45669 0)
(0.81993 0.469392 0)
(0.786052 0.446379 0)
(0.760799 0.407713 0)
(0.733016 0.361427 0)
(0.69555 0.314126 0)
(0.636727 0.265776 0)
(0.525996 0.209334 0)
(0.338643 0.143364 0)
(0.20021 0.10325 0)
(0.170685 0.0953326 0)
(0.0764908 0.0966426 0)
(-0.135372 0.0990047 0)
(-0.244943 0.100329 0)
(-0.283683 0.100481 0)
(-0.304471 0.101658 0)
(-0.32201 0.103269 0)
(-0.336207 0.105787 0)
(-0.346434 0.106966 0)
(-0.354027 0.110164 0)
(-0.362266 0.107982 0)
(-0.366592 0.109344 0)
(-0.372782 0.0988657 0)
(1.48375 0.318743 0)
(1.48464 0.31607 0)
(1.4847 0.319884 0)
(1.48611 0.320515 0)
(1.48893 0.319914 0)
(1.49103 0.321646 0)
(1.49609 0.311028 0)
(1.50753 0.304549 0)
(1.49272 0.295951 0)
(1.45614 0.274439 0)
(1.40833 0.235199 0)
(1.33546 0.217562 0)
(1.24732 0.232504 0)
(1.17238 0.25441 0)
(1.07841 0.278584 0)
(0.970932 0.384544 0)
(0.859807 0.50131 0)
(0.780342 0.532654 0)
(0.744151 0.516283 0)
(0.72541 0.480633 0)
(0.708291 0.435555 0)
(0.684886 0.386076 0)
(0.64819 0.334787 0)
(0.583477 0.28253 0)
(0.459238 0.216505 0)
(0.279736 0.141543 0)
(0.18684 0.114492 0)
(0.169447 0.1096 0)
(0.0783954 0.110015 0)
(-0.134068 0.109931 0)
(-0.244324 0.107641 0)
(-0.282192 0.10576 0)
(-0.30172 0.107505 0)
(-0.318098 0.111563 0)
(-0.331372 0.117591 0)
(-0.341683 0.121784 0)
(-0.349741 0.127209 0)
(-0.358766 0.123784 0)
(-0.362997 0.125209 0)
(-0.369179 0.11453 0)
(1.41137 0.361038 0)
(1.4119 0.359495 0)
(1.41119 0.36249 0)
(1.41158 0.363601 0)
(1.41225 0.364412 0)
(1.41317 0.361009 0)
(1.4163 0.3494 0)
(1.41353 0.34268 0)
(1.39302 0.330962 0)
(1.36472 0.298 0)
(1.30855 0.269587 0)
(1.22641 0.276259 0)
(1.14201 0.299236 0)
(1.04488 0.327478 0)
(0.932296 0.421034 0)
(0.815861 0.540116 0)
(0.72686 0.587078 0)
(0.688538 0.58065 0)
(0.67661 0.551372 0)
(0.669512 0.505027 0)
(0.657299 0.44872 0)
(0.632853 0.390998 0)
(0.590896 0.334725 0)
(0.517853 0.265993 0)
(0.382345 0.182551 0)
(0.230178 0.126182 0)
(0.178313 0.102437 0)
(0.168212 0.0956506 0)
(0.0734267 0.0880035 0)
(-0.142506 0.0711803 0)
(-0.24697 0.062405 0)
(-0.278961 0.0640261 0)
(-0.294775 0.0758812 0)
(-0.310413 0.0925314 0)
(-0.324524 0.10939 0)
(-0.33603 0.122609 0)
(-0.34348 0.135734 0)
(-0.355649 0.137762 0)
(-0.361095 0.141078 0)
(-0.367698 0.130445 0)
(1.31796 0.397248 0)
(1.31812 0.397263 0)
(1.31704 0.401225 0)
(1.31732 0.402797 0)
(1.31836 0.401598 0)
(1.31889 0.396143 0)
(1.31407 0.387885 0)
(1.29831 0.378248 0)
(1.27246 0.357217 0)
(1.23118 0.333577 0)
(1.16547 0.334502 0)
(1.0823 0.357681 0)
(0.983944 0.377545 0)
(0.861905 0.452047 0)
(0.740627 0.569678 0)
(0.652772 0.638377 0)
(0.619046 0.639934 0)
(0.616867 0.612166 0)
(0.619329 0.556703 0)
(0.612786 0.494017 0)
(0.589795 0.430637 0)
(0.554939 0.356284 0)
(0.508629 0.267299 0)
(0.419891 0.174681 0)
(0.282222 0.0715167 0)
(0.189827 -0.00452981 0)
(0.168672 -0.0255739 0)
(0.161692 -0.0375838 0)
(0.0426862 -0.0666516 0)
(-0.160945 -0.0906223 0)
(-0.241356 -0.0804784 0)
(-0.262199 -0.0571638 0)
(-0.269515 -0.0224314 0)
(-0.282548 0.0175446 0)
(-0.29703 0.0578545 0)
(-0.31293 0.0942217 0)
(-0.325944 0.126111 0)
(-0.345042 0.142034 0)
(-0.353137 0.153225 0)
(-0.363178 0.145626 0)
(1.19457 0.429816 0)
(1.19371 0.432164 0)
(1.19442 0.434573 0)
(1.19879 0.432985 0)
(1.20224 0.42814 0)
(1.19895 0.420993 0)
(1.18216 0.417531 0)
(1.15483 0.411949 0)
(1.12073 0.40018 0)
(1.06869 0.39452 0)
(0.994367 0.416041 0)
(0.893375 0.451856 0)
(0.764035 0.511592 0)
(0.63927 0.606011 0)
(0.568974 0.678213 0)
(0.544631 0.683064 0)
(0.538313 0.654548 0)
(0.540017 0.592281 0)
(0.531961 0.506582 0)
(0.511311 0.406633 0)
(0.489681 0.296612 0)
(0.461148 0.189111 0)
(0.406631 0.0870903 0)
(0.315335 -0.0310675 0)
(0.210755 -0.132749 0)
(0.164945 -0.174065 0)
(0.160079 -0.184403 0)
(0.149985 -0.195154 0)
(0.0209088 -0.213621 0)
(-0.151215 -0.208672 0)
(-0.216989 -0.178389 0)
(-0.234116 -0.14064 0)
(-0.233656 -0.0989464 0)
(-0.244703 -0.0542394 0)
(-0.256109 -0.0083697 0)
(-0.271788 0.038392 0)
(-0.290838 0.0884711 0)
(-0.317402 0.130624 0)
(-0.33766 0.158282 0)
(-0.357539 0.161721 0)
(1.0304 0.457872 0)
(1.0314 0.460307 0)
(1.03768 0.463926 0)
(1.04499 0.468844 0)
(1.04568 0.47851 0)
(1.0346 0.488792 0)
(1.0146 0.492527 0)
(0.989571 0.482314 0)
(0.945753 0.466445 0)
(0.871041 0.464087 0)
(0.769906 0.49029 0)
(0.637202 0.550027 0)
(0.520252 0.654436 0)
(0.455923 0.723895 0)
(0.429776 0.706828 0)
(0.427085 0.642171 0)
(0.435738 0.542291 0)
(0.436114 0.427377 0)
(0.435463 0.315714 0)
(0.427118 0.21496 0)
(0.408864 0.126396 0)
(0.37695 0.0380209 0)
(0.320126 -0.0674964 0)
(0.227184 -0.166443 0)
(0.162049 -0.224598 0)
(0.151462 -0.243425 0)
(0.153353 -0.249133 0)
(0.141642 -0.256707 0)
(0.0232365 -0.25955 0)
(-0.122677 -0.24155 0)
(-0.182715 -0.20967 0)
(-0.20146 -0.169641 0)
(-0.196693 -0.127036 0)
(-0.206319 -0.0828673 0)
(-0.214289 -0.0390149 0)
(-0.224583 0.00519519 0)
(-0.241324 0.0551075 0)
(-0.272752 0.106132 0)
(-0.301814 0.15253 0)
(-0.336242 0.17509 0)
(0.814807 0.492589 0)
(0.830157 0.489551 0)
(0.841659 0.487888 0)
(0.849265 0.48598 0)
(0.853398 0.479892 0)
(0.845481 0.475235 0)
(0.821959 0.469301 0)
(0.772892 0.480353 0)
(0.693434 0.520523 0)
(0.593823 0.592099 0)
(0.476516 0.661432 0)
(0.370827 0.697486 0)
(0.304883 0.674599 0)
(0.296928 0.613994 0)
(0.314645 0.51935 0)
(0.336045 0.418235 0)
(0.356908 0.325736 0)
(0.360919 0.245908 0)
(0.35619 0.174814 0)
(0.351376 0.0975749 0)
(0.342837 0.0101008 0)
(0.299139 -0.0738611 0)
(0.222617 -0.156192 0)
(0.156863 -0.227183 0)
(0.139364 -0.257924 0)
(0.143179 -0.268804 0)
(0.147434 -0.273225 0)
(0.137096 -0.278502 0)
(0.0376449 -0.27297 0)
(-0.0867249 -0.247788 0)
(-0.141622 -0.216191 0)
(-0.162647 -0.178969 0)
(-0.157257 -0.137984 0)
(-0.167389 -0.0952594 0)
(-0.173267 -0.0503732 0)
(-0.182738 -0.00364354 0)
(-0.191364 0.0490804 0)
(-0.219587 0.101833 0)
(-0.24714 0.154346 0)
(-0.290489 0.177821 0)
(0.566761 0.479027 0)
(0.579534 0.468363 0)
(0.572657 0.46409 0)
(0.554807 0.462329 0)
(0.530112 0.462795 0)
(0.498798 0.465571 0)
(0.451748 0.476183 0)
(0.384122 0.490712 0)
(0.30862 0.51313 0)
(0.240681 0.53186 0)
(0.195367 0.524752 0)
(0.18408 0.488851 0)
(0.202056 0.445232 0)
(0.224926 0.382523 0)
(0.254641 0.328042 0)
(0.269433 0.278406 0)
(0.283622 0.217541 0)
(0.297282 0.147021 0)
(0.306569 0.0728578 0)
(0.290537 0.0095008 0)
(0.255856 -0.0540972 0)
(0.201502 -0.139537 0)
(0.143595 -0.222182 0)
(0.12389 -0.262246 0)
(0.12838 -0.276389 0)
(0.136266 -0.285501 0)
(0.142143 -0.289061 0)
(0.136049 -0.292725 0)
(0.0613597 -0.281754 0)
(-0.0465586 -0.249306 0)
(-0.100111 -0.211596 0)
(-0.122203 -0.17345 0)
(-0.115345 -0.131038 0)
(-0.125804 -0.0863786 0)
(-0.127598 -0.0387907 0)
(-0.139015 0.00788814 0)
(-0.138828 0.0610471 0)
(-0.165112 0.116159 0)
(-0.183488 0.161945 0)
(-0.222713 0.178956 0)
(0.260746 0.476609 0)
(0.251663 0.450788 0)
(0.232012 0.408028 0)
(0.205126 0.372631 0)
(0.178669 0.347936 0)
(0.157443 0.332453 0)
(0.145735 0.321072 0)
(0.136247 0.314784 0)
(0.130714 0.317592 0)
(0.128271 0.32644 0)
(0.129328 0.331766 0)
(0.138519 0.326164 0)
(0.161715 0.314141 0)
(0.176865 0.282524 0)
(0.20528 0.240048 0)
(0.22598 0.183314 0)
(0.237523 0.128762 0)
(0.238925 0.0722002 0)
(0.231023 0.014606 0)
(0.209374 -0.053409 0)
(0.169837 -0.138527 0)
(0.124403 -0.21981 0)
(0.105034 -0.263788 0)
(0.10953 -0.283287 0)
(0.119926 -0.29123 0)
(0.130126 -0.300162 0)
(0.138187 -0.303102 0)
(0.137075 -0.305767 0)
(0.0869088 -0.293984 0)
(-0.0047875 -0.260473 0)
(-0.058072 -0.22176 0)
(-0.0804976 -0.182074 0)
(-0.0713224 -0.139064 0)
(-0.081429 -0.0948609 0)
(-0.0780556 -0.0444773 0)
(-0.0904056 0.0114001 0)
(-0.0835457 0.0756209 0)
(-0.106054 0.138115 0)
(-0.114848 0.183103 0)
(-0.144867 0.198189 0)
(-0.0110726 0.444712 0)
(-0.00257318 0.406135 0)
(-0.0112507 0.364291 0)
(-0.0132625 0.33586 0)
(-0.0111517 0.316352 0)
(-0.00262092 0.304339 0)
(0.0134511 0.299139 0)
(0.0359261 0.291547 0)
(0.0617898 0.28055 0)
(0.0876747 0.273112 0)
(0.10534 0.265365 0)
(0.116708 0.255578 0)
(0.130737 0.239815 0)
(0.144634 0.203945 0)
(0.160725 0.161727 0)
(0.169646 0.114364 0)
(0.174368 0.0607725 0)
(0.170253 0.00270717 0)
(0.159399 -0.0665268 0)
(0.133205 -0.147211 0)
(0.0987272 -0.221023 0)
(0.0839723 -0.264272 0)
(0.0893876 -0.286146 0)
(0.100293 -0.297043 0)
(0.113402 -0.30375 0)
(0.125269 -0.312627 0)
(0.135682 -0.315187 0)
(0.139753 -0.316838 0)
(0.110184 -0.306753 0)
(0.0374122 -0.272597 0)
(-0.0151125 -0.229021 0)
(-0.0377989 -0.188105 0)
(-0.0268117 -0.142343 0)
(-0.0323897 -0.0928895 0)
(-0.0250111 -0.0391533 0)
(-0.0372599 0.0188653 0)
(-0.0246733 0.0822195 0)
(-0.0375632 0.144544 0)
(-0.0393754 0.187102 0)
(-0.0633651 0.201706 0)
(-0.166013 0.449541 0)
(-0.130174 0.416724 0)
(-0.116968 0.379403 0)
(-0.0961235 0.354562 0)
(-0.0774036 0.333716 0)
(-0.0566842 0.313336 0)
(-0.0303565 0.292842 0)
(0.00560272 0.272683 0)
(0.0463426 0.25378 0)
(0.0805354 0.236445 0)
(0.0985485 0.215988 0)
(0.108568 0.192386 0)
(0.109394 0.164816 0)
(0.107591 0.132155 0)
(0.110998 0.0893559 0)
(0.11417 0.0379278 0)
(0.115952 -0.0210764 0)
(0.108226 -0.0876115 0)
(0.0878643 -0.160163 0)
(0.0645939 -0.225709 0)
(0.0576403 -0.26462 0)
(0.0661625 -0.28476 0)
(0.0792401 -0.297051 0)
(0.0928733 -0.307411 0)
(0.107118 -0.313335 0)
(0.120023 -0.322023 0)
(0.132447 -0.324521 0)
(0.141051 -0.32558 0)
(0.128759 -0.318283 0)
(0.078998 -0.288147 0)
(0.0288714 -0.240998 0)
(0.00664187 -0.196034 0)
(0.0167171 -0.150739 0)
(0.0217189 -0.102962 0)
(0.0305838 -0.0491828 0)
(0.0225651 0.0119324 0)
(0.0363559 0.0817759 0)
(0.0324594 0.155992 0)
(0.0345511 0.208703 0)
(0.0144856 0.22661 0)
(-0.215806 0.456117 0)
(-0.177604 0.420883 0)
(-0.16132 0.386284 0)
(-0.13514 0.364123 0)
(-0.110805 0.337894 0)
(-0.0835202 0.309502 0)
(-0.0519206 0.280964 0)
(-0.013857 0.253088 0)
(0.0275111 0.226578 0)
(0.0582738 0.200239 0)
(0.0699324 0.174857 0)
(0.0715025 0.147243 0)
(0.0637054 0.109929 0)
(0.0578834 0.061904 0)
(0.0593482 0.00881894 0)
(0.0607525 -0.0477025 0)
(0.0560653 -0.110199 0)
(0.0413699 -0.177092 0)
(0.0260914 -0.233555 0)
(0.0255812 -0.265249 0)
(0.0371758 -0.284129 0)
(0.0543697 -0.296419 0)
(0.0715427 -0.306749 0)
(0.0869087 -0.316788 0)
(0.102146 -0.322013 0)
(0.116329 -0.330034 0)
(0.130926 -0.332081 0)
(0.144343 -0.333275 0)
(0.144311 -0.32653 0)
(0.118147 -0.303179 0)
(0.077048 -0.259091 0)
(0.055662 -0.210011 0)
(0.0654369 -0.1562 0)
(0.0828062 -0.100789 0)
(0.090722 -0.0402002 0)
(0.0920932 0.0232754 0)
(0.100414 0.0895617 0)
(0.106344 0.158569 0)
(0.110375 0.212878 0)
(0.0849241 0.230281 0)
(-0.213068 0.46583 0)
(-0.191437 0.447183 0)
(-0.186039 0.417675 0)
(-0.16451 0.391773 0)
(-0.141277 0.362651 0)
(-0.113633 0.330994 0)
(-0.0819049 0.30028 0)
(-0.0460773 0.267241 0)
(-0.00787608 0.232719 0)
(0.0182562 0.191075 0)
(0.0323574 0.145076 0)
(0.0325025 0.0940243 0)
(0.0219447 0.0356658 0)
(0.0147724 -0.0247318 0)
(0.014462 -0.0827906 0)
(0.0101136 -0.140509 0)
(-9.33853e-06 -0.196164 0)
(-0.00880634 -0.239579 0)
(-0.00542677 -0.266531 0)
(0.00749918 -0.285781 0)
(0.0254386 -0.298523 0)
(0.045163 -0.308641 0)
(0.0642434 -0.318191 0)
(0.0808442 -0.327273 0)
(0.0964522 -0.331387 0)
(0.110487 -0.338363 0)
(0.125319 -0.340157 0)
(0.139671 -0.342869 0)
(0.148397 -0.339223 0)
(0.143974 -0.325011 0)
(0.12368 -0.288473 0)
(0.106506 -0.236153 0)
(0.116819 -0.181597 0)
(0.140732 -0.124513 0)
(0.149245 -0.0556591 0)
(0.163545 0.0160114 0)
(0.166037 0.0926853 0)
(0.181177 0.170928 0)
(0.186843 0.242325 0)
(0.1354 0.274714 0)
(-0.243634 0.476867 0)
(-0.228961 0.476115 0)
(-0.223887 0.440363 0)
(-0.192863 0.415788 0)
(-0.17331 0.381819 0)
(-0.147564 0.353805 0)
(-0.118696 0.323691 0)
(-0.0868253 0.287496 0)
(-0.0539589 0.246324 0)
(-0.0392267 0.191614 0)
(-0.0333877 0.121899 0)
(-0.0410781 0.0454986 0)
(-0.0500197 -0.0309094 0)
(-0.050336 -0.0979425 0)
(-0.0448785 -0.155771 0)
(-0.0412652 -0.205953 0)
(-0.037535 -0.243851 0)
(-0.0295607 -0.26933 0)
(-0.0158609 -0.286946 0)
(0.00118355 -0.298731 0)
(0.0203525 -0.310081 0)
(0.0403126 -0.320795 0)
(0.0593897 -0.329329 0)
(0.076783 -0.336457 0)
(0.0933216 -0.338909 0)
(0.108567 -0.344483 0)
(0.124192 -0.345516 0)
(0.13936 -0.347989 0)
(0.153463 -0.345439 0)
(0.161812 -0.3385 0)
(0.16087 -0.312603 0)
(0.157249 -0.265041 0)
(0.163908 -0.203794 0)
(0.182681 -0.135601 0)
(0.189423 -0.0591836 0)
(0.212387 0.0164753 0)
(0.215823 0.0943485 0)
(0.248019 0.172301 0)
(0.272883 0.262202 0)
(0.218655 0.319911 0)
(-0.402914 0.581063 0)
(-0.302155 0.4596 0)
(-0.250693 0.418659 0)
(-0.213705 0.417712 0)
(-0.193573 0.42072 0)
(-0.16724 0.409281 0)
(-0.136777 0.393755 0)
(-0.107374 0.357546 0)
(-0.0859902 0.288834 0)
(-0.0737783 0.189029 0)
(-0.0744755 0.0760543 0)
(-0.0835669 -0.032481 0)
(-0.082463 -0.116565 0)
(-0.0763679 -0.179046 0)
(-0.0687333 -0.226231 0)
(-0.0584584 -0.258703 0)
(-0.0440127 -0.279691 0)
(-0.0277846 -0.292565 0)
(-0.0111386 -0.301624 0)
(0.00550341 -0.310962 0)
(0.0211494 -0.322213 0)
(0.0365071 -0.332483 0)
(0.0518158 -0.339812 0)
(0.0667125 -0.345245 0)
(0.0820529 -0.34645 0)
(0.0970183 -0.35097 0)
(0.112649 -0.351448 0)
(0.128204 -0.353455 0)
(0.143733 -0.352662 0)
(0.159268 -0.351753 0)
(0.174847 -0.340341 0)
(0.182704 -0.305975 0)
(0.18191 -0.24487 0)
(0.197547 -0.166966 0)
(0.202342 -0.0835823 0)
(0.229247 -0.00308959 0)
(0.231178 0.0702217 0)
(0.27665 0.121997 0)
(0.324529 0.208925 0)
(0.279608 0.272316 0)
(-0.402914 -0.581063 0)
(-0.302155 -0.4596 0)
(-0.250693 -0.418659 0)
(-0.213705 -0.417712 0)
(-0.193573 -0.42072 0)
(-0.16724 -0.409281 0)
(-0.136777 -0.393755 0)
(-0.107374 -0.357546 0)
(-0.0859902 -0.288834 0)
(-0.0737783 -0.189029 0)
(-0.0744755 -0.0760543 0)
(-0.0835669 0.032481 0)
(-0.082463 0.116565 0)
(-0.0763679 0.179046 0)
(-0.0687333 0.226231 0)
(-0.0584584 0.258703 0)
(-0.0440127 0.279691 0)
(-0.0277846 0.292565 0)
(-0.0111386 0.301624 0)
(0.00550341 0.310962 0)
(0.0211494 0.322213 0)
(0.0365071 0.332483 0)
(0.0518158 0.339812 0)
(0.0667125 0.345245 0)
(0.0820529 0.34645 0)
(0.0970183 0.35097 0)
(0.112649 0.351448 0)
(0.128204 0.353455 0)
(0.143733 0.352662 0)
(0.159268 0.351753 0)
(0.174847 0.340341 0)
(0.182704 0.305975 0)
(0.18191 0.24487 0)
(0.197547 0.166966 0)
(0.202342 0.0835823 0)
(0.229247 0.00308959 0)
(0.231178 -0.0702217 0)
(0.27665 -0.121997 0)
(0.324529 -0.208925 0)
(0.279608 -0.272316 0)
(-0.243634 -0.476867 0)
(-0.228961 -0.476115 0)
(-0.223887 -0.440363 0)
(-0.192863 -0.415788 0)
(-0.17331 -0.381819 0)
(-0.147564 -0.353805 0)
(-0.118696 -0.323691 0)
(-0.0868253 -0.287496 0)
(-0.0539589 -0.246324 0)
(-0.0392267 -0.191614 0)
(-0.0333877 -0.121899 0)
(-0.0410781 -0.0454986 0)
(-0.0500197 0.0309094 0)
(-0.050336 0.0979425 0)
(-0.0448785 0.155771 0)
(-0.0412652 0.205953 0)
(-0.037535 0.243851 0)
(-0.0295607 0.26933 0)
(-0.0158609 0.286946 0)
(0.00118355 0.298731 0)
(0.0203525 0.310081 0)
(0.0403126 0.320795 0)
(0.0593897 0.329329 0)
(0.076783 0.336457 0)
(0.0933216 0.338909 0)
(0.108567 0.344483 0)
(0.124192 0.345516 0)
(0.13936 0.347989 0)
(0.153463 0.345439 0)
(0.161812 0.3385 0)
(0.16087 0.312603 0)
(0.157249 0.265041 0)
(0.163908 0.203794 0)
(0.182681 0.135601 0)
(0.189423 0.0591836 0)
(0.212387 -0.0164753 0)
(0.215823 -0.0943485 0)
(0.248019 -0.172301 0)
(0.272883 -0.262202 0)
(0.218655 -0.319911 0)
(-0.213068 -0.46583 0)
(-0.191437 -0.447183 0)
(-0.186039 -0.417675 0)
(-0.16451 -0.391773 0)
(-0.141277 -0.362651 0)
(-0.113633 -0.330994 0)
(-0.0819049 -0.30028 0)
(-0.0460773 -0.267241 0)
(-0.00787608 -0.232719 0)
(0.0182562 -0.191075 0)
(0.0323574 -0.145076 0)
(0.0325025 -0.0940243 0)
(0.0219447 -0.0356658 0)
(0.0147724 0.0247318 0)
(0.014462 0.0827906 0)
(0.0101136 0.140509 0)
(-9.33853e-06 0.196164 0)
(-0.00880634 0.239579 0)
(-0.00542677 0.266531 0)
(0.00749918 0.285781 0)
(0.0254386 0.298523 0)
(0.045163 0.308641 0)
(0.0642434 0.318191 0)
(0.0808442 0.327273 0)
(0.0964522 0.331387 0)
(0.110487 0.338363 0)
(0.125319 0.340157 0)
(0.139671 0.342869 0)
(0.148397 0.339223 0)
(0.143974 0.325011 0)
(0.12368 0.288473 0)
(0.106506 0.236153 0)
(0.116819 0.181597 0)
(0.140732 0.124513 0)
(0.149245 0.0556591 0)
(0.163545 -0.0160114 0)
(0.166037 -0.0926853 0)
(0.181177 -0.170928 0)
(0.186843 -0.242325 0)
(0.1354 -0.274714 0)
(-0.215806 -0.456117 0)
(-0.177604 -0.420883 0)
(-0.16132 -0.386284 0)
(-0.13514 -0.364123 0)
(-0.110805 -0.337894 0)
(-0.0835202 -0.309502 0)
(-0.0519206 -0.280964 0)
(-0.013857 -0.253088 0)
(0.0275111 -0.226578 0)
(0.0582738 -0.200239 0)
(0.0699324 -0.174857 0)
(0.0715025 -0.147243 0)
(0.0637054 -0.109929 0)
(0.0578834 -0.061904 0)
(0.0593482 -0.00881894 0)
(0.0607525 0.0477025 0)
(0.0560653 0.110199 0)
(0.0413699 0.177092 0)
(0.0260914 0.233555 0)
(0.0255812 0.265249 0)
(0.0371758 0.284129 0)
(0.0543697 0.296419 0)
(0.0715427 0.306749 0)
(0.0869087 0.316788 0)
(0.102146 0.322013 0)
(0.116329 0.330034 0)
(0.130926 0.332081 0)
(0.144343 0.333275 0)
(0.144311 0.32653 0)
(0.118147 0.303179 0)
(0.077048 0.259091 0)
(0.055662 0.210011 0)
(0.0654369 0.1562 0)
(0.0828062 0.100789 0)
(0.090722 0.0402002 0)
(0.0920932 -0.0232754 0)
(0.100414 -0.0895617 0)
(0.106344 -0.158569 0)
(0.110375 -0.212878 0)
(0.0849241 -0.230281 0)
(-0.166013 -0.449541 0)
(-0.130174 -0.416724 0)
(-0.116968 -0.379403 0)
(-0.0961235 -0.354562 0)
(-0.0774036 -0.333716 0)
(-0.0566842 -0.313336 0)