/*--------------------------------*- C++ -*----------------------------------*\
| =========                 |                                                 |
| \\      /  F ield         | OpenFOAM: The Open Source CFD Toolbox           |
|  \\    /   O peration     | Version:  v1912                                 |
|   \\  /    A nd           | Website:  www.openfoam.com                      |
|    \\/     M anipulation  |                                                 |
\*---------------------------------------------------------------------------*/
FoamFile
{
    version     2.0;
    format      ascii;
    class       volVectorField;
    location    "6.22";
    object      grad(rho);
}
// * * * * * * * * * * * * * * * * * * * * * * * * * * * * * * * * * * * * * //

dimensions      [1 -4 0 0 0 0 0];


internalField   nonuniform List<vector> 
1900
(
(117513 -0.207658 0)
(-117458 -0.506177 0)
(-7591.07 -0.688325 0)
(-2440.4 -0.388218 0)
(-2062.24 3.22675 0)
(-1118.83 5.6898 0)
(-380.586 8.35001 0)
(-34.3771 -3.34886 0)
(59.4288 49.9423 0)
(916.57 29.1995 0)
(117512 -0.425639 0)
(-117459 -0.763122 0)
(-7590.96 -0.754457 0)
(-2436.48 0.31602 0)
(-2056.17 6.44533 0)
(-1113.71 10.0581 0)
(-389.625 6.56861 0)
(7.21523 -15.7003 0)
(91.9771 9.01879 0)
(-14.229 -36.44 0)
(117511 -4.09273e-08 0)
(-117459 -6.62581e-09 0)
(-7589.99 -7.10543e-10 0)
(-2433.2 -1.9007e-09 0)
(-2052.5 -6.89226e-09 0)
(-1118.71 -9.61009e-09 0)
(-406.344 -5.59552e-09 0)
(-31.9269 1.80833e-08 0)
(38.689 1.87939e-08 0)
(-186.266 1.15463e-08 0)
(117512 0.425639 0)
(-117459 0.763122 0)
(-7590.96 0.754457 0)
(-2436.48 -0.31602 0)
(-2056.17 -6.44533 0)
(-1113.71 -10.0581 0)
(-389.625 -6.56861 0)
(7.21523 15.7003 0)
(91.9771 -9.01879 0)
(-14.229 36.44 0)
(117513 0.207658 0)
(-117458 0.506177 0)
(-7591.07 0.688325 0)
(-2440.4 0.388218 0)
(-2062.24 -3.22675 0)
(-1118.83 -5.6898 0)
(-380.586 -8.35001 0)
(-34.3771 3.34886 0)
(59.4288 -49.9423 0)
(916.57 -29.1995 0)
(-142.394 -751.013 1.26295e-11)
(-2321.99 -544.032 -1.49511e-11)
(-3606.58 -557.103 -1.87567e-11)
(-3855.83 -524.994 0)
(-26083.5 -7371.9 -7.76407e-11)
(-640.704 -949.073 1.24938e-11)
(-1688.48 -663.924 1.49511e-11)
(-3297.41 -620.748 1.87567e-11)
(-6417.49 -102.404 0)
(-24649 -6187.81 0)
(-927.11 9.60584e-09 0)
(-1645.6 6.44708e-09 0)
(-3074.89 6.36528e-09 0)
(-6051.45 1.15732e-08 0)
(-26849.7 1.55431e-08 0)
(-640.704 949.073 1.24938e-11)
(-1688.48 663.924 1.49511e-11)
(-3297.41 620.748 1.87567e-11)
(-6417.49 102.404 0)
(-24649 6187.81 0)
(-142.394 751.013 -3.7617e-11)
(-2321.99 544.032 -1.49511e-11)
(-3606.58 557.103 -1.87567e-11)
(-3855.83 524.994 -4.98523e-11)
(-26083.5 7371.9 7.76407e-11)
(-44811.3 14594.4 1.78717e-11)
(-17214.7 6495.81 -1.01073e-11)
(-7486.85 3450.27 0)
(-1148.1 1811.01 5.10686e-12)
(-1329.47 1701.37 -2.2986e-12)
(-40270.9 18949.2 -9.15564e-12)
(-19601.5 5661.98 5.15146e-12)
(-8693.8 2277.34 0)
(-1583.15 781.651 -3.23176e-12)
(-926.575 876.962 5.94063e-13)
(-41790.5 4.88947e-09 0)
(-21449.6 1.59417e-09 0)
(-9091.12 -3.45403e-10 0)
(-1682.35 3.41049e-09 1.30212e-12)
(-961.976 -1.81791e-10 -1.18813e-12)
(-40270.9 -18949.2 -9.15564e-12)
(-19601.5 -5661.98 5.15146e-12)
(-8693.8 -2277.34 0)
(-1583.15 -781.651 -3.23176e-12)
(-926.575 -876.962 5.94063e-13)
(-44811.3 -14594.4 9.15564e-12)
(-17214.7 -6495.81 -1.95633e-13)
(-7486.85 -3450.27 0)
(-1148.1 -1811.01 5.45417e-14)
(-1329.47 -1701.37 2.2986e-12)
(-3801.76 2150.97 0)
(-3343.42 -798.255 0)
(-419.039 -3645.04 0)
(4067.87 -3668.01 0)
(5746.36 -792.384 0)
(3218.86 1184.63 0)
(789.191 1215.4 0)
(-665.715 1144.21 0)
(-1824.95 798.46 0)
(-2585.57 504.285 0)
(-2851.38 317.307 0)
(-2286.86 161.922 0)
(-1322.01 59.9303 0)
(-745.433 20.7451 0)
(-570.977 12.8109 0)
(-510.967 13.566 0)
(-449.8 14.85 0)
(-350.753 4.99888 0)
(-227.802 -0.271638 0)
(-132.751 -1.63814 0)
(-82.3962 -1.58437 0)
(-62.0306 -1.32248 0)
(-53.1343 -1.19866 0)
(-45.4868 -1.26188 0)
(-35.0846 -1.45484 0)
(-22.6795 -1.70271 0)
(-8.15492 -1.8357 0)
(9.5525 -1.96295 0)
(28.4299 -2.0663 0)
(42.5534 -1.91792 0)
(59.1787 -2.00925 0)
(73.6183 -1.72501 0)
(106.895 -2.54124 0)
(156.257 -0.17518 0)
(232.6 -0.549416 0)
(266.352 4.39509 0)
(389.569 -1.00272 0)
(903.824 -5.96578 0)
(323.57 -17.7386 0)
(7075.28 -40.5951 0)
(-3950.13 2048.85 0)
(-4308.67 396.022 0)
(-1036.51 -708.543 0)
(4184.6 -1654.29 0)
(6331.38 -567.14 0)
(3536.24 762.192 0)
(770.825 719.304 0)
(-800.927 553.744 0)
(-1970.17 314.609 0)
(-2664.52 194.537 0)
(-2895.06 149.562 0)
(-2315.16 78.8304 0)
(-1335.42 25.5394 0)
(-749.185 8.03899 0)
(-571.658 6.27185 0)
(-510.894 5.15817 0)
(-450.501 5.79053 0)
(-352.172 1.6308 0)
(-228.289 -0.395141 0)
(-132.813 -0.790287 0)
(-82.354 -0.69565 0)
(-61.9936 -0.569005 0)
(-53.1288 -0.51917 0)
(-45.5111 -0.55994 0)
(-35.1268 -0.658317 0)
(-22.7169 -0.785567 0)
(-8.18161 -0.863581 0)
(9.52661 -0.940631 0)
(28.4295 -1.0134 0)
(42.5519 -0.972607 0)
(59.1939 -1.04285 0)
(73.5495 -0.9286 0)
(107.016 -1.36294 0)
(156.399 -0.395001 0)
(233.028 -0.621762 0)
(266.447 1.77735 0)
(388.632 -0.344605 0)
(900.959 -1.22872 0)
(316.769 -13.8225 0)
(7087.7 -34.2251 0)
(-3852.08 3.84339e-08 0)
(-4145.57 -2.03958e-08 0)
(-1015.49 6.20433e-08 0)
(4109 -7.73692e-07 0)
(6449.33 9.68591e-07 0)
(3593.1 1.75838e-06 0)
(728.552 2.2555e-06 0)
(-783.445 1.12493e-06 0)
(-1929.44 6.27054e-08 0)
(-2633.58 -1.06452e-07 0)
(-2885.04 -8.2649e-08 0)
(-2322.94 -5.51882e-08 0)
(-1342.6 -3.32421e-08 0)
(-751.038 -3.37992e-08 0)
(-571.815 -1.56481e-08 0)
(-511.107 1.4873e-08 0)
(-450.826 -1.58096e-08 0)
(-352.552 1.41301e-09 0)
(-228.506 1.11103e-08 0)
(-132.838 9.47929e-09 0)
(-82.3318 1.16028e-08 0)
(-61.9793 1.52121e-08 0)
(-53.1317 1.5745e-08 0)
(-45.5273 9.76996e-09 0)
(-35.1503 4.32785e-09 0)
(-22.7392 2.27697e-09 0)
(-8.20003 2.7372e-09 0)
(9.50892 3.55271e-09 0)
(28.4206 1.06824e-08 0)
(42.5448 1.34599e-08 0)
(59.1915 9.08364e-09 0)
(73.5251 -1.63102e-09 0)
(107.05 -9.48736e-09 0)
(156.473 -2.66454e-09 0)
(233.232 1.61971e-08 0)
(266.433 -2.31249e-08 0)
(388.694 -1.65766e-08 0)
(899.903 4.45543e-08 0)
(313.971 1.4202e-07 0)
(7089.17 1.84241e-07 0)
(-3950.13 -2048.85 0)
(-4308.67 -396.022 0)
(-1036.51 708.543 0)
(4184.6 1654.29 0)
(6331.38 567.14 0)
(3536.24 -762.192 0)
(770.825 -719.304 0)
(-800.927 -553.744 0)
(-1970.17 -314.609 0)
(-2664.52 -194.537 0)
(-2895.06 -149.562 0)
(-2315.16 -78.8304 0)
(-1335.42 -25.5394 0)
(-749.185 -8.03899 0)
(-571.658 -6.27185 0)
(-510.894 -5.15817 0)
(-450.501 -5.79053 0)
(-352.172 -1.6308 0)
(-228.289 0.395141 0)
(-132.813 0.790287 0)
(-82.354 0.69565 0)
(-61.9936 0.569005 0)
(-53.1288 0.51917 0)
(-45.5111 0.55994 0)
(-35.1268 0.658317 0)
(-22.7169 0.785567 0)
(-8.18161 0.863581 0)
(9.52661 0.940631 0)
(28.4295 1.0134 0)
(42.5519 0.972607 0)
(59.1939 1.04285 0)
(73.5495 0.9286 0)
(107.016 1.36294 0)
(156.399 0.395001 0)
(233.028 0.621762 0)
(266.447 -1.77735 0)
(388.632 0.344605 0)
(900.959 1.22872 0)
(316.769 13.8225 0)
(7087.7 34.2251 0)
(-3801.76 -2150.97 0)
(-3343.42 798.255 0)
(-419.039 3645.04 0)
(4067.87 3668.01 0)
(5746.36 792.384 0)
(3218.86 -1184.63 0)
(789.191 -1215.4 0)
(-665.715 -1144.21 0)
(-1824.95 -798.46 0)
(-2585.57 -504.285 0)
(-2851.38 -317.307 0)
(-2286.86 -161.922 0)
(-1322.01 -59.9303 0)
(-745.433 -20.7451 0)
(-570.977 -12.8109 0)
(-510.967 -13.566 0)
(-449.8 -14.85 0)
(-350.753 -4.99888 0)
(-227.802 0.271638 0)
(-132.751 1.63814 0)
(-82.3962 1.58437 0)
(-62.0306 1.32248 0)
(-53.1343 1.19866 0)
(-45.4868 1.26188 0)
(-35.0846 1.45484 0)
(-22.6795 1.70271 0)
(-8.15492 1.8357 0)
(9.5525 1.96295 0)
(28.4299 2.0663 0)
(42.5534 1.91792 0)
(59.1787 2.00925 0)
(73.6183 1.72501 0)
(106.895 2.54124 0)
(156.257 0.17518 0)
(232.6 0.549416 0)
(266.352 -4.39509 0)
(389.569 1.00272 0)
(903.824 5.96578 0)
(323.57 17.7386 0)
(7075.28 40.5951 0)
(-2313.7 667.505 0)
(-1789.06 2487.99 0)
(49.6631 4161.17 0)
(2530.18 3706.71 0)
(3963.89 951.218 0)
(2643.79 -782.521 0)
(774.942 -1144.46 0)
(-695.733 -1243.3 0)
(-1736.68 -1025.73 0)
(-2453.99 -760.158 0)
(-2730.82 -548.273 0)
(-2186.43 -304.647 0)
(-1262.38 -113.48 0)
(-723.966 -38.877 0)
(-567.942 -24.4922 0)
(-512.089 -27.3956 0)
(-445.938 -25.0375 0)
(-344.327 -10.5957 0)
(-224.688 -0.678443 0)
(-132.061 2.58302 0)
(-82.5033 2.73824 0)
(-62.1928 2.28528 0)
(-53.1603 2.06254 0)
(-45.3784 2.18366 0)
(-34.8991 2.53748 0)
(-22.5212 2.96515 0)
(-8.04922 3.20374 0)
(9.64132 3.43089 0)
(28.4008 3.56736 0)
(42.5144 3.33015 0)
(59.0905 3.3867 0)
(73.8037 3.02299 0)
(106.183 3.95417 0)
(155.313 0.670542 0)
(230.655 -0.595725 0)
(266.841 -7.44867 0)
(394.048 2.97796 0)
(908.144 15.3488 0)
(330.628 23.4274 0)
(7050.8 26.7194 0)
(-989.95 -49.8797 0)
(-810.289 768.237 0)
(504.03 1406.69 0)
(1799.2 1418.07 0)
(2376.19 66.6943 0)
(1507.75 -1014.94 0)
(352.808 -1416.24 0)
(-535.205 -1547.3 0)
(-1406.71 -1298.89 0)
(-2196.03 -1065.5 0)
(-2477.08 -811.162 0)
(-1921.73 -439.367 0)
(-1097.88 -157.823 0)
(-671.192 -60.9757 0)
(-561.54 -43.7597 0)
(-510.89 -43.0071 0)
(-435.681 -34.3473 0)
(-330.725 -16.1407 0)
(-216.772 -1.96922 0)
(-129.828 3.65812 0)
(-82.6257 4.37881 0)
(-62.5948 3.84366 0)
(-53.2183 3.55086 0)
(-45.0872 3.76908 0)
(-34.431 4.3243 0)
(-22.1223 4.93961 0)
(-7.76279 5.32618 0)
(9.85527 5.69937 0)
(28.3484 5.80541 0)
(42.4001 5.46776 0)
(58.9301 5.49599 0)
(74.0657 5.06264 0)
(105.009 6.10418 0)
(152.379 2.36107 0)
(225.819 -1.32358 0)
(269.534 -9.25741 0)
(409.136 4.97856 0)
(921.213 26.5071 0)
(330.743 31.3583 0)
(7008.75 17.9855 0)
(-1695.73 -296.665 0)
(-385.463 26.6507 0)
(675.865 162.194 0)
(1238.91 -25.2869 0)
(1619.35 -672.8 0)
(1214.78 -1345.29 0)
(261.944 -1485.88 0)
(-582.646 -1480.77 0)
(-1272.4 -1400.2 0)
(-1984 -1273 0)
(-2127.45 -954.045 0)
(-1556.85 -482.024 0)
(-897.745 -177.349 0)
(-614.05 -84.9714 0)
(-550.626 -66.0765 0)
(-503.019 -57.8557 0)
(-420.049 -42.2189 0)
(-313.126 -20.0157 0)
(-205.61 -2.54698 0)
(-125.944 5.10912 0)
(-82.3245 6.5912 0)
(-62.9906 6.17746 0)
(-53.2322 5.91361 0)
(-44.6331 6.25392 0)
(-33.7712 6.97978 0)
(-21.5558 7.72127 0)
(-7.3171 8.26578 0)
(10.1031 8.75282 0)
(28.1776 8.68627 0)
(42.2163 8.16265 0)
(58.7001 8.13865 0)
(74.3897 7.60322 0)
(103.58 8.6456 0)
(148.155 4.52118 0)
(219.459 -0.787803 0)
(272.914 -8.85085 0)
(428.512 6.1011 0)
(933.565 31.4602 0)
(322.416 35.4897 0)
(6964.41 18.4661 0)
(-1747.97 -522.171 0)
(-368.115 149.432 0)
(453.981 -252.05 0)
(994.571 -514.517 0)
(1104.19 -1030.7 0)
(724.236 -1319.72 0)
(222.25 -1521.01 0)
(-452.64 -1456.49 0)
(-1206.49 -1455.2 0)
(-1766.09 -1323.42 0)
(-1714.86 -925.993 0)
(-1173.28 -441.18 0)
(-715.264 -184.673 0)
(-563.965 -107.526 0)
(-535.411 -86.4396 0)
(-487.9 -69.5124 0)
(-399.217 -46.6644 0)
(-292.496 -20.6585 0)
(-192.561 -1.26415 0)
(-121.023 7.61561 0)
(-81.5962 9.71052 0)
(-63.2478 9.54348 0)
(-53.1446 9.40152 0)
(-44.0598 9.85265 0)
(-33.017 10.6582 0)
(-20.883 11.4388 0)
(-6.76875 12.0704 0)
(10.2605 12.4884 0)
(27.7797 12.1236 0)
(41.8724 11.2893 0)
(58.391 11.0244 0)
(74.5542 10.3178 0)
(102.039 10.9245 0)
(143.289 6.90627 0)
(212.933 0.820796 0)
(276.173 -5.98474 0)
(447.981 6.22423 0)
(949.533 30.9847 0)
(318.221 38.4462 0)
(6907.5 23.8575 0)
(-2010.08 -1080.08 0)
(-125.165 -320.22 0)
(36.0595 -710.386 0)
(488.579 -804.69 0)
(843.433 -1119.49 0)
(742.293 -1133.28 0)
(130.149 -1298.59 0)
(-519.227 -1413.66 0)
(-1144.18 -1439.73 0)
(-1474.04 -1228.69 0)
(-1277.29 -782.115 0)
(-842.49 -368.646 0)
(-576.223 -183.38 0)
(-519.389 -122.54 0)
(-513.995 -99.2937 0)
(-464.69 -74.8962 0)
(-372.971 -45.7387 0)
(-269.377 -17.166 0)
(-178.364 2.94657 0)
(-115.368 12.3284 0)
(-80.4667 14.8294 0)
(-63.2884 14.9443 0)
(-52.9343 14.96 0)
(-43.4222 15.4944 0)
(-32.2427 16.3149 0)
(-20.1949 17.0838 0)
(-6.30568 17.6882 0)
(10.1545 17.8447 0)
(27.0221 17.168 0)
(41.157 15.9827 0)
(57.7639 15.3626 0)
(74.2935 14.4202 0)
(100.293 14.4831 0)
(138.419 10.8257 0)
(207.037 5.09324 0)
(278.121 -0.141387 0)
(464.137 9.44525 0)
(964.615 31.1942 0)
(315.548 40.3329 0)
(6860.95 29.2137 0)
(-3113.89 -1126.67 0)
(-11.8658 -727.191 0)
(-12.8717 -904.407 0)
(600.347 -821.349 0)
(787.547 -709.653 0)
(551.645 -995.4 0)
(-47.9343 -1215.02 0)
(-588.644 -1323.59 0)
(-1028.25 -1300.59 0)
(-1132.39 -1014.6 0)
(-886.095 -599.777 0)
(-596.312 -303.416 0)
(-478.108 -177.771 0)
(-482.937 -133.035 0)
(-489.5 -107.126 0)
(-436.292 -75.6423 0)
(-343.587 -40.9924 0)
(-245.581 -10.7132 0)
(-164.139 9.46949 0)
(-109.572 18.757 0)
(-79.0754 21.5349 0)
(-63.122 21.9485 0)
(-52.6145 22.1317 0)
(-42.7542 22.7043 0)
(-31.4854 23.4583 0)
(-19.5597 24.115 0)
(-6.03551 24.5155 0)
(9.75918 24.1662 0)
(25.9854 23.0469 0)
(40.1327 21.3844 0)
(56.8853 20.2094 0)
(73.7067 18.8143 0)
(98.5756 18.1677 0)
(134.24 14.7511 0)
(202.365 9.66167 0)
(280.366 5.42934 0)
(478.177 14.0566 0)
(979.298 31.11 0)
(316.312 38.0888 0)
(6813.4 29.2448 0)
(-3863.87 -700.286 0)
(89.0154 -520.417 0)
(-54.6746 -584.519 0)
(676.251 -665.566 0)
(675.711 -543.248 0)
(255.307 -962.098 0)
(-186.102 -1121.29 0)
(-601.686 -1187.29 0)
(-846.432 -1080.44 0)
(-798.712 -766.026 0)
(-591.966 -443.398 0)
(-435.83 -250.833 0)
(-412.038 -167.881 0)
(-451.313 -135.775 0)
(-458.689 -106.717 0)
(-400.961 -69.1555 0)
(-310.403 -31.1513 0)
(-220.75 0.256745 0)
(-149.965 19.6882 0)
(-103.741 28.5404 0)
(-77.3913 31.4238 0)
(-62.7132 32.0694 0)
(-52.206 32.3659 0)
(-42.1438 32.8887 0)
(-30.8833 33.469 0)
(-19.1762 33.9055 0)
(-6.25634 33.9151 0)
(8.73933 32.8967 0)
(24.3415 31.2324 0)
(38.4227 28.9728 0)
(55.2873 27.0827 0)
(72.3261 25.0326 0)
(96.377 23.5752 0)
(130.222 20.1738 0)
(198.054 15.8495 0)
(282.356 11.8972 0)
(488.884 21.6483 0)
(987.773 33.0376 0)
(313.751 37.1716 0)
(6768.1 32.0011 0)
(-4290.63 -336.549 0)
(99.6918 -309.411 0)
(-152.743 -380.508 0)
(640.118 -523.823 0)
(501.798 -579.276 0)
(-5.37924 -889.037 0)
(-264.938 -1005.11 0)
(-549.274 -1002.52 0)
(-622.299 -820.951 0)
(-518.522 -542.082 0)
(-389.637 -324.471 0)
(-330.814 -206.166 0)
(-367.233 -156.379 0)
(-423.997 -132.391 0)
(-425.303 -99.6841 0)
(-363.475 -57.5206 0)
(-276.698 -18.1262 0)
(-196.59 12.0259 0)
(-136.884 30.1174 0)
(-98.2629 38.4161 0)
(-75.6748 41.3692 0)
(-62.2141 42.2672 0)
(-51.825 42.7226 0)
(-41.6913 43.2569 0)
(-30.5056 43.7668 0)
(-19.1298 44.0609 0)
(-7.00763 43.5457 0)
(7.17408 42.0499 0)
(22.2042 40.0494 0)
(36.1339 37.3726 0)
(53.0884 34.9036 0)
(70.3266 32.3905 0)
(93.8935 30.3735 0)
(126.795 27.217 0)
(194.39 23.8173 0)
(285.954 19.7858 0)
(498.548 30.487 0)
(994.256 38.8707 0)
(315.314 41.2329 0)
(6705.68 37.8665 0)
(-4534.11 -151.134 0)
(46.6551 -213.747 0)
(-261.29 -293.332 0)
(484.712 -417.513 0)
(323.777 -677.737 0)
(-155.041 -789.926 0)
(-295.454 -861.783 0)
(-424.224 -772.341 0)
(-402.741 -570.848 0)
(-320.286 -373.126 0)
(-268.265 -237.167 0)
(-273.85 -170.311 0)
(-340.946 -146 0)
(-396.68 -125.126 0)
(-386.541 -88.2082 0)
(-322.369 -42.7022 0)
(-243.386 -1.98979 0)
(-174.261 25.8146 0)
(-124.534 42.4128 0)
(-92.8989 50.1066 0)
(-73.6803 53.128 0)
(-61.409 54.2298 0)
(-51.2523 54.7608 0)
(-41.1376 55.2162 0)
(-30.1085 55.531 0)
(-19.3892 55.4278 0)
(-8.19426 54.3104 0)
(5.37013 52.472 0)
(19.8343 49.9708 0)
(33.464 46.9515 0)
(50.4863 44.0343 0)
(67.9608 41.1252 0)
(91.3917 38.7851 0)
(123.905 35.9135 0)
(190.893 33.4027 0)
(288.783 29.0558 0)
(507.275 39.3085 0)
(998.128 48.2825 0)
(312.783 47.1021 0)
(6634.5 42.9044 0)
(-4697.98 -111.821 0)
(-37.3355 -193.061 0)
(-349.099 -274.614 0)
(269.692 -381.421 0)
(142.928 -712.167 0)
(-182.733 -692.457 0)
(-247.993 -664.468 0)
(-268.919 -527.418 0)
(-237.6 -372.236 0)
(-196.975 -255.152 0)
(-194.197 -177.079 0)
(-242.962 -145.485 0)
(-323.692 -134.781 0)
(-368.307 -111.406 0)
(-345.876 -70 0)
(-280.391 -24.3602 0)
(-210.673 13.3001 0)
(-153.802 38.6476 0)
(-113.475 53.0516 0)
(-87.9374 59.963 0)
(-71.7015 63.0457 0)
(-60.6407 64.5264 0)
(-50.8745 65.4729 0)
(-40.9491 66.2651 0)
(-30.3017 66.7508 0)
(-20.306 66.5868 0)
(-9.85591 65.5369 0)
(2.99221 63.8898 0)
(16.8844 61.1129 0)
(30.4133 58.1101 0)
(47.474 55.2068 0)
(65.2684 52.3726 0)
(88.8713 50.2173 0)
(121.609 48.0237 0)
(187.781 46.7045 0)
(291.645 42.9132 0)
(517.076 53.7297 0)
(1001.77 64.684 0)
(310.131 61.0722 0)
(6540.2 56.3107 0)
(-4864.35 -153.291 0)
(-110.218 -202.777 0)
(-442.801 -279.106 0)
(63.07 -413.88 0)
(24.0522 -590.774 0)
(-109.077 -525.133 0)
(-136.418 -433.436 0)
(-142.619 -328.568 0)
(-140.375 -236.129 0)
(-132.226 -168.215 0)
(-162.585 -129.138 0)
(-233.091 -121.776 0)
(-308.107 -117.338 0)
(-334.254 -91.615 0)
(-302.66 -45.3025 0)
(-242.098 -0.263774 0)
(-182.669 32.2079 0)
(-135.955 54.4223 0)
(-103.994 66.6549 0)
(-83.2682 72.8295 0)
(-69.2828 75.9067 0)
(-59.0701 77.5854 0)
(-49.5767 78.7343 0)
(-39.9062 79.6608 0)
(-29.7985 80.1657 0)
(-20.5589 80.0077 0)
(-10.7932 79.1302 0)
(1.10698 77.738 0)
(14.2648 74.943 0)
(27.7726 72.0784 0)
(44.9575 69.4577 0)
(63.1527 66.9753 0)
(87.201 65.3722 0)
(120.519 64.0198 0)
(185.968 64.027 0)
(295.553 61.5859 0)
(528.254 72.7076 0)
(1005.2 84.9213 0)
(304.714 77.0458 0)
(6421.3 73.4271 0)
(-5079.69 -156.472 0)
(-158.575 -175.455 0)
(-552.526 -254.568 0)
(-30.6433 -383.599 0)
(35.721 -355.041 0)
(-31.1158 -308.405 0)
(-58.5764 -241.987 0)
(-78.7867 -191.735 0)
(-83.0785 -141.783 0)
(-93.8743 -107.778 0)
(-149.447 -94.333 0)
(-231.59 -98.6137 0)
(-294.628 -92.2891 0)
(-298.891 -61.3893 0)
(-257.847 -15.7931 0)
(-205.7 23.9093 0)
(-157.976 52.7087 0)
(-120.608 70.7871 0)
(-95.7376 80.4891 0)
(-79.022 85.5236 0)
(-67.1185 88.5897 0)
(-57.9158 90.9873 0)
(-48.8747 93.0808 0)
(-39.5698 94.764 0)
(-29.9674 95.7228 0)
(-21.3038 95.857 0)
(-12.0431 95.1726 0)
(-1.04278 93.8577 0)
(11.4306 91.0796 0)
(25.1275 88.4588 0)
(42.5564 86.1954 0)
(61.3314 84.2406 0)
(86.0233 83.424 0)
(120.313 83.1467 0)
(185.436 84.6893 0)
(300.01 84.1575 0)
(539.563 96.1512 0)
(1005.95 108.845 0)
(299.055 95.7297 0)
(6271.68 91.3932 0)
(-5223.43 -69.7234 0)
(-204.747 -87.6271 0)
(-643.376 -159.743 0)
(-33.7492 -235.304 0)
(96.5117 -169.382 0)
(-0.134478 -152.856 0)
(-23.9898 -121.299 0)
(-46.0582 -92.3188 0)
(-59.4712 -63.185 0)
(-86.501 -55.0018 0)
(-153.755 -64.9821 0)
(-231.121 -73.6686 0)
(-272.236 -57.2555 0)
(-260.54 -15.4347 0)
(-220.464 26.8652 0)
(-176.087 62.161 0)
(-137.496 89.2059 0)
(-109.185 106.145 0)
(-89.7935 116.061 0)
(-75.4622 121.576 0)
(-64.0178 124.658 0)
(-54.7424 126.201 0)
(-45.9373 126.648 0)
(-37.3603 126.321 0)
(-28.7453 125.372 0)
(-21.089 124.105 0)
(-12.7198 122.341 0)
(-2.83721 120.205 0)
(9.06223 116.991 0)
(23.0661 114.666 0)
(40.8926 112.612 0)
(60.482 111.081 0)
(86.1469 111.054 0)
(121.739 111.844 0)
(186.942 114.682 0)
(306.598 116.725 0)
(552.044 129.641 0)
(1004.8 140.041 0)
(287.897 119.67 0)
(6098 118.119 0)
(-5252.02 11.1177 0)
(-245.321 -9.43668 0)
(-694.833 -55.0703 0)
(-39.9324 -82.6548 0)
(115.171 -49.5602 0)
(15.2188 -44.6239 0)
(-0.240507 -24.0815 0)
(-22.7859 -11.7324 0)
(-47.1184 0.508154 0)
(-95.6061 -8.7456 0)
(-167.435 -27.5709 0)
(-224.145 -27.0486 0)
(-238.512 1.16641 0)
(-217.83 43.7053 0)
(-183.073 84.3604 0)
(-145.626 119.133 0)
(-115.591 144.907 0)
(-94.7286 162.086 0)
(-80.8675 172.453 0)
(-70.7381 177.887 0)
(-62.6621 180.527 0)
(-55.9982 181.193 0)
(-48.7593 179.786 0)
(-40.7996 176.58 0)
(-32.1028 172.444 0)
(-24.2242 168.461 0)
(-15.8006 164.494 0)
(-6.19835 161.007 0)
(6.09229 157.449 0)
(20.9075 155.261 0)
(39.1018 153.486 0)
(59.8307 152.969 0)
(86.759 154.453 0)
(123.808 157.096 0)
(190.139 162.043 0)
(314.426 167.75 0)
(562.031 181.856 0)
(996.338 186.629 0)
(277.93 153.864 0)
(5891.89 152.397 0)
(-5227.26 84.9128 0)
(-268.528 71.1369 0)
(-713.931 61.8641 0)
(-28.4394 54.6019 0)
(133.16 83.5108 0)
(24.4178 86.135 0)
(7.70574 95.7877 0)
(-22.3627 92.2662 0)
(-56.593 85.1551 0)
(-113.559 64.8118 0)
(-171.392 53.9288 0)
(-203.429 67.3381 0)
(-204.055 99.8543 0)
(-180.371 138.06 0)
(-147.779 174.712 0)
(-117.742 204.477 0)
(-96.1052 226.154 0)
(-82.6404 241.482 0)
(-74.5664 251.83 0)
(-67.6815 257.941 0)
(-60.8322 260.385 0)
(-55.4566 259.523 0)
(-50.3825 256.267 0)
(-44.4354 251.91 0)
(-36.5693 247.423 0)
(-28.7502 243.957 0)
(-19.9025 240.715 0)
(-9.62568 238.466 0)
(3.52511 235.933 0)
(19.2466 233.03 0)
(38.6836 231.069 0)
(61.4145 230.988 0)
(90.124 233.531 0)
(129.052 238.296 0)
(197.209 246.113 0)
(325.691 256.881 0)
(570.237 272.67 0)
(977.823 267.246 0)
(254.91 210.753 0)
(5654.2 195.709 0)
(-5088.76 202.094 0)
(-267.531 209.839 0)
(-710.766 268.038 0)
(-19.0728 260.468 0)
(145.557 269.954 0)
(27.0493 255.97 0)
(5.66778 246.416 0)
(-33.0319 224.872 0)
(-73.5744 199.29 0)
(-125.697 176.236 0)
(-165 170.38 0)
(-179.889 184.68 0)
(-170.361 210.008 0)
(-145.694 237.776 0)
(-119.071 259.188 0)
(-96.0544 272.225 0)
(-79.9321 278.182 0)
(-69.9862 280.424 0)
(-65.0068 281.972 0)
(-62.4937 284.344 0)
(-61.1371 287.491 0)
(-59.9673 291.422 0)
(-56.0958 296.895 0)
(-49.3214 303.816 0)
(-39.7662 310.579 0)
(-30.6887 317.42 0)
(-21.092 322.811 0)
(-10.8062 329.729 0)
(0.853174 335.647 0)
(16.2203 341.004 0)
(37.1349 347.592 0)
(62.2036 354.925 0)
(93.8008 364.675 0)
(135.932 375.499 0)
(208.049 389.144 0)
(340.017 405.255 0)
(572.019 413.469 0)
(936.672 375.433 0)
(208.994 275.504 0)
(5345.37 224.212 0)
(-4792.78 548.642 0)
(-204.982 321.455 0)
(-665.143 517.867 0)
(-26.5926 507.535 0)
(128.825 487.805 0)
(1.73545 444.458 0)
(-22.261 404.642 0)
(-67.7754 356.016 0)
(-103.461 310.643 0)
(-141.418 283.558 0)
(-163.255 276.018 0)
(-165.242 288.948 0)
(-152.89 311.097 0)
(-132.98 332.937 0)
(-114.582 348.279 0)
(-99.4395 356.079 0)
(-88.205 358.773 0)
(-78.9877 359.705 0)
(-70.7888 361.538 0)
(-62.3631 367.199 0)
(-54.0119 379.898 0)
(-46.3946 400.095 0)
(-38.4392 425.072 0)
(-31.2494 451.452 0)
(-23.4598 476.161 0)
(-16.9629 498.233 0)
(-8.04074 515.84 0)
(2.74346 532.343 0)
(14.3902 546.052 0)
(30.7577 561.008 0)
(52.0978 577.326 0)
(77.8759 593.6 0)
(109.95 611.415 0)
(152.631 626.425 0)
(225.883 638.678 0)
(349.132 642.377 0)
(541.5 612.006 0)
(844.875 491.218 0)
(109.188 277.926 0)
(5027.93 282.097 0)
(-4728.56 18438.6 0)
(-297.187 631.212 0)
(-531.453 731.87 0)
(-48.0415 795.987 0)
(84.7735 713.007 0)
(-53.0896 660.188 0)
(-79.5582 606.961 0)
(-123.612 566.879 0)
(-143.398 539.276 0)
(-159.063 539.972 0)
(-159.806 559.48 0)
(-146.086 592.874 0)
(-127.971 630.823 0)
(-109.864 666.689 0)
(-96.77 698.005 0)
(-85.9425 725.163 0)
(-76.4382 749.61 0)
(-67.3217 772.745 0)
(-57.7859 794.695 0)
(-44.8007 817.073 0)
(-29.437 844.161 0)
(-16.4363 875.041 0)
(-6.6059 905.28 0)
(-0.0897717 933 0)
(5.31321 959.358 0)
(7.54693 984.502 0)
(11.7781 1002.99 0)
(18.3074 1020.73 0)
(28.4756 1032.37 0)
(46.3568 1042.93 0)
(68.5418 1051.05 0)
(95.0534 1055.63 0)
(125.432 1058.56 0)
(162.203 1054.07 0)
(223.421 1037.82 0)
(314.315 998.82 0)
(426.357 902.142 0)
(614.741 664.504 0)
(7.47714 321.333 0)
(5403.77 14613 0)
(3780.28 458405 0)
(-17267.8 15212.2 0)
(-506.36 -276.826 0)
(-44.7693 -221.794 0)
(-2.03628 -358.261 0)
(-100.455 -373.348 0)
(-112.177 -402.996 0)
(-133 -380.663 0)
(-129.389 -356.476 0)
(-121.948 -301.006 0)
(-112.277 -237.994 0)
(-96.4926 -171.014 0)
(-81.7591 -106.927 0)
(-68.2404 -47.3464 0)
(-58.235 7.87635 0)
(-49.711 60.0323 0)
(-42.3524 108.192 0)
(-35.5429 149.333 0)
(-28.0735 181.543 0)
(-14.6958 207.124 0)
(1.84863 233.305 0)
(12.5022 259.681 0)
(17.4119 280.036 0)
(20.8622 292.702 0)
(26.1695 301.856 0)
(25.078 311.263 0)
(26.8715 316.528 0)
(31.0625 326.033 0)
(35.7795 330.866 0)
(48.7564 334.569 0)
(64.3388 332.764 0)
(85.1092 329.803 0)
(108.447 321.654 0)
(132.651 315.759 0)
(172.64 294.933 0)
(218.385 257.424 0)
(219.341 153.023 0)
(285.186 -2.79339 0)
(13550.5 12717.1 0)
(473.542 389154 0)
(441011 -460390 0)
(-442300 -35.2506 0)
(-15404.2 6695.48 0)
(-126.516 6221.45 0)
(-61.2696 6111.49 0)
(-96.1976 6231.05 0)
(-86.607 6340.39 0)
(-78.7835 6480.38 0)
(-66.6374 6631.61 0)
(-44.889 6747.18 0)
(-34.5416 6852 0)
(-19.7854 6920.47 0)
(-8.80039 6964.53 0)
(0.764397 6979.39 0)
(6.70407 6974.88 0)
(10.7252 6954.94 0)
(9.61473 6927.8 0)
(3.36231 6899.56 0)
(-2.0959 6871.92 0)
(5.07865 6846.35 0)
(21.2089 6821.57 0)
(28.5959 6799.84 0)
(25.2142 6778.51 0)
(20.9362 6756.06 0)
(23.1994 6732.39 0)
(21.6851 6699.48 0)
(26.0114 6663.56 0)
(32.1245 6606.61 0)
(36.7005 6548.08 0)
(48.1853 6465.33 0)
(63.9489 6360.42 0)
(84.3476 6219.75 0)
(111.899 6048.16 0)
(136.454 5839.36 0)
(167.207 5619.7 0)
(177.566 5341.92 0)
(175.602 5088.3 0)
(12722 5494.84 0)
(375013 1382.95 0)
(-371502 -386871 0)
(441011 460390 0)
(-442300 35.2506 0)
(-15404.2 -6695.48 0)
(-126.516 -6221.45 0)
(-61.2696 -6111.49 0)
(-96.1976 -6231.05 0)
(-86.607 -6340.39 0)
(-78.7835 -6480.38 0)
(-66.6374 -6631.61 0)
(-44.889 -6747.18 0)
(-34.5416 -6852 0)
(-19.7854 -6920.47 0)
(-8.80039 -6964.53 0)
(0.764397 -6979.39 0)
(6.70407 -6974.88 0)
(10.7252 -6954.94 0)
(9.61473 -6927.8 0)
(3.36231 -6899.56 0)
(-2.0959 -6871.92 0)
(5.07865 -6846.35 0)
(21.2089 -6821.57 0)
(28.5959 -6799.84 0)
(25.2142 -6778.51 0)
(20.9362 -6756.06 0)
(23.1994 -6732.39 0)
(21.6851 -6699.48 0)
(26.0114 -6663.56 0)
(32.1245 -6606.61 0)
(36.7005 -6548.08 0)
(48.1853 -6465.33 0)
(63.9489 -6360.42 0)
(84.3476 -6219.75 0)
(111.899 -6048.16 0)
(136.454 -5839.36 0)
(167.207 -5619.7 0)
(177.566 -5341.92 0)
(175.602 -5088.3 0)
(12722 -5494.84 0)
(375013 -1382.95 0)
(-371502 386871 0)
(3780.28 -458405 0)
(-17267.8 -15212.2 0)
(-506.36 276.826 0)
(-44.7693 221.794 0)
(-2.03628 358.261 0)
(-100.455 373.348 0)
(-112.177 402.996 0)
(-133 380.663 0)
(-129.389 356.476 0)
(-121.948 301.006 0)
(-112.277 237.994 0)
(-96.4926 171.014 0)
(-81.7591 106.927 0)
(-68.2404 47.3464 0)
(-58.235 -7.87635 0)
(-49.711 -60.0323 0)
(-42.3524 -108.192 0)
(-35.5429 -149.333 0)
(-28.0735 -181.543 0)
(-14.6958 -207.124 0)
(1.84863 -233.305 0)
(12.5022 -259.681 0)
(17.4119 -280.036 0)
(20.8622 -292.702 0)
(26.1695 -301.856 0)
(25.078 -311.263 0)
(26.8715 -316.528 0)
(31.0625 -326.033 0)
(35.7795 -330.866 0)
(48.7564 -334.569 0)
(64.3388 -332.764 0)
(85.1092 -329.803 0)
(108.447 -321.654 0)
(132.651 -315.759 0)
(172.64 -294.933 0)
(218.385 -257.424 0)
(219.341 -153.023 0)
(285.186 2.79339 0)
(13550.5 -12717.1 0)
(473.542 -389154 0)
(-4728.56 -18438.6 0)
(-297.187 -631.212 0)
(-531.453 -731.87 0)
(-48.0415 -795.987 0)
(84.7735 -713.007 0)
(-53.0896 -660.188 0)
(-79.5582 -606.961 0)
(-123.612 -566.879 0)
(-143.398 -539.276 0)
(-159.063 -539.972 0)
(-159.806 -559.48 0)
(-146.086 -592.874 0)
(-127.971 -630.823 0)
(-109.864 -666.689 0)
(-96.77 -698.005 0)
(-85.9425 -725.163 0)
(-76.4382 -749.61 0)
(-67.3217 -772.745 0)
(-57.7859 -794.695 0)
(-44.8007 -817.073 0)
(-29.437 -844.161 0)
(-16.4363 -875.041 0)
(-6.6059 -905.28 0)
(-0.0897717 -933 0)
(5.31321 -959.358 0)
(7.54693 -984.502 0)
(11.7781 -1002.99 0)
(18.3074 -1020.73 0)
(28.4756 -1032.37 0)
(46.3568 -1042.93 0)
(68.5418 -1051.05 0)
(95.0534 -1055.63 0)
(125.432 -1058.56 0)
(162.203 -1054.07 0)
(223.421 -1037.82 0)
(314.315 -998.82 0)
(426.357 -902.142 0)
(614.741 -664.504 0)
(7.47714 -321.333 0)
(5403.77 -14613 0)
(-4792.78 -548.642 0)
(-204.982 -321.455 0)
(-665.143 -517.867 0)
(-26.5926 -507.535 0)
(128.825 -487.805 0)
(1.73545 -444.458 0)
(-22.261 -404.642 0)
(-67.7754 -356.016 0)
(-103.461 -310.643 0)
(-141.418 -283.558 0)
(-163.255 -276.018 0)
(-165.242 -288.948 0)
(-152.89 -311.097 0)
(-132.98 -332.937 0)
(-114.582 -348.279 0)
(-99.4395 -356.079 0)
(-88.205 -358.773 0)
(-78.9877 -359.705 0)
(-70.7888 -361.538 0)
(-62.3631 -367.199 0)
(-54.0119 -379.898 0)
(-46.3946 -400.095 0)
(-38.4392 -425.072 0)
(-31.2494 -451.452 0)
(-23.4598 -476.161 0)
(-16.9629 -498.233 0)
(-8.04074 -515.84 0)
(2.74346 -532.343 0)
(14.3902 -546.052 0)
(30.7577 -561.008 0)
(52.0978 -577.326 0)
(77.8759 -593.6 0)
(109.95 -611.415 0)
(152.631 -626.425 0)
(225.883 -638.678 0)
(349.132 -642.377 0)
(541.5 -612.006 0)
(844.875 -491.218 0)
(109.188 -277.926 0)
(5027.93 -282.097 0)
(-5088.76 -202.094 0)
(-267.531 -209.839 0)
(-710.766 -268.038 0)
(-19.0728 -260.468 0)
(145.557 -269.954 0)
(27.0493 -255.97 0)
(5.66778 -246.416 0)
(-33.0319 -224.872 0)
(-73.5744 -199.29 0)
(-125.697 -176.236 0)
(-165 -170.38 0)
(-179.889 -184.68 0)
(-170.361 -210.008 0)
(-145.694 -237.776 0)
(-119.071 -259.188 0)
(-96.0544 -272.225 0)
(-79.9321 -278.182 0)
(-69.9862 -280.424 0)
(-65.0068 -281.972 0)
(-62.4937 -284.344 0)
(-61.1371 -287.491 0)
(-59.9673 -291.422 0)
(-56.0958 -296.895 0)
(-49.3214 -303.816 0)
(-39.7662 -310.579 0)
(-30.6887 -317.42 0)
(-21.092 -322.811 0)
(-10.8062 -329.729 0)
(0.853174 -335.647 0)
(16.2203 -341.004 0)
(37.1349 -347.592 0)
(62.2036 -354.925 0)
(93.8008 -364.675 0)
(135.932 -375.499 0)
(208.049 -389.144 0)
(340.017 -405.255 0)
(572.019 -413.469 0)
(936.672 -375.433 0)
(208.994 -275.504 0)
(5345.37 -224.212 0)
(-5227.26 -84.9128 0)
(-268.528 -71.1369 0)
(-713.931 -61.8641 0)
(-28.4394 -54.6019 0)
(133.16 -83.5108 0)
(24.4178 -86.135 0)
(7.70574 -95.7877 0)
(-22.3627 -92.2662 0)
(-56.593 -85.1551 0)
(-113.559 -64.8118 0)
(-171.392 -53.9288 0)
(-203.429 -67.3381 0)
(-204.055 -99.8543 0)
(-180.371 -138.06 0)
(-147.779 -174.712 0)
(-117.742 -204.477 0)
(-96.1052 -226.154 0)
(-82.6404 -241.482 0)
(-74.5664 -251.83 0)
(-67.6815 -257.941 0)
(-60.8322 -260.385 0)
(-55.4566 -259.523 0)
(-50.3825 -256.267 0)
(-44.4354 -251.91 0)
(-36.5693 -247.423 0)
(-28.7502 -243.957 0)
(-19.9025 -240.715 0)
(-9.62568 -238.466 0)
(3.52511 -235.933 0)
(19.2466 -233.03 0)
(38.6836 -231.069 0)
(61.4145 -230.988 0)
(90.124 -233.531 0)
(129.052 -238.296 0)
(197.209 -246.113 0)
(325.691 -256.881 0)
(570.237 -272.67 0)
(977.823 -267.246 0)
(254.91 -210.753 0)
(5654.2 -195.709 0)
(-5252.02 -11.1177 0)
(-245.321 9.43668 0)
(-694.833 55.0703 0)
(-39.9324 82.6548 0)
(115.171 49.5602 0)
(15.2188 44.6239 0)
(-0.240507 24.0815 0)
(-22.7859 11.7324 0)
(-47.1184 -0.508154 0)
(-95.6061 8.7456 0)
(-167.435 27.5709 0)
(-224.145 27.0486 0)
(-238.512 -1.16641 0)
(-217.83 -43.7053 0)
(-183.073 -84.3604 0)
(-145.626 -119.133 0)
(-115.591 -144.907 0)
(-94.7286 -162.086 0)
(-80.8675 -172.453 0)
(-70.7381 -177.887 0)
(-62.6621 -180.527 0)
(-55.9982 -181.193 0)
(-48.7593 -179.786 0)
(-40.7996 -176.58 0)
(-32.1028 -172.444 0)
(-24.2242 -168.461 0)
(-15.8006 -164.494 0)
(-6.19835 -161.007 0)
(6.09229 -157.449 0)
(20.9075 -155.261 0)