/*--------------------------------*- C++ -*----------------------------------*\
| =========                 |                                                 |
| \\      /  F ield         | OpenFOAM: The Open Source CFD Toolbox           |
|  \\    /   O peration     | Version:  v1912                                 |
|   \\  /    A nd           | Website:  www.openfoam.com                      |
|    \\/     M anipulation  |                                                 |
\*---------------------------------------------------------------------------*/
FoamFile
{
    version     2.0;
    format      ascii;
    class       volVectorField;
    location    "6.22";
    object      U;
}
// * * * * * * * * * * * * * * * * * * * * * * * * * * * * * * * * * * * * * //

dimensions      [0 1 -1 0 0 0 0];


internalField   nonuniform List<vector> 
1900
(
(-0.819 -7.27308e-07 0)
(-0.0623033 -9.33832e-07 0)
(0.0885413 8.12665e-06 0)
(0.0857036 1.66661e-05 0)
(0.089263 3.54357e-05 0)
(0.0918771 -8.06819e-05 0)
(0.0941 -0.000212525 0)
(0.0964968 0.000291955 0)
(0.0971042 0.00324674 0)
(0.0881264 0.0117453 0)
(-0.818998 1.03658e-06 0)
(-0.0622964 9.48706e-07 0)
(0.0885531 1.27922e-05 0)
(0.085716 1.72644e-05 0)
(0.0892573 1.37808e-05 0)
(0.0917784 -9.90456e-05 0)
(0.0938668 -0.000238051 0)
(0.0959409 0.000265875 0)
(0.0982754 0.00225313 0)
(0.0992243 0.0106683 0)
(-0.818998 5.39408e-14 0)
(-0.0622932 -8.35187e-15 0)
(0.0885558 -1.1223e-13 0)
(0.085713 -8.30364e-14 0)
(0.0892284 -4.22378e-15 0)
(0.0917234 2.05144e-14 0)
(0.0938026 -8.94459e-14 0)
(0.0957779 -8.03207e-14 0)
(0.0989457 -2.43258e-14 0)
(0.105858 5.43302e-14 0)
(-0.818998 -1.03658e-06 0)
(-0.0622964 -9.48706e-07 0)
(0.0885531 -1.27922e-05 0)
(0.085716 -1.72644e-05 0)
(0.0892573 -1.37808e-05 0)
(0.0917784 9.90456e-05 0)
(0.0938668 0.000238051 0)
(0.0959409 -0.000265875 0)
(0.0982754 -0.00225313 0)
(0.0992243 -0.0106683 0)
(-0.819 7.27308e-07 0)
(-0.0623033 9.33832e-07 0)
(0.0885413 -8.12665e-06 0)
(0.0857036 -1.66661e-05 0)
(0.089263 -3.54357e-05 0)
(0.0918771 8.06819e-05 0)
(0.0941 0.000212525 0)
(0.0964968 -0.000291955 0)
(0.0971042 -0.00324674 0)
(0.0881264 -0.0117453 0)
(0.0900627 0.0374168 0)
(0.125113 0.0504167 0)
(0.171869 0.0734782 0)
(0.247632 0.11525 0)
(0.391553 0.171574 0)
(0.112754 0.0264457 0)
(0.138759 0.0278553 0)
(0.169296 0.0368666 0)
(0.231948 0.0587071 0)
(0.372936 0.1012 0)
(0.123599 5.23319e-14 0)
(0.147736 3.60047e-14 0)
(0.179629 6.37981e-14 0)
(0.242664 5.07176e-14 0)
(0.383187 4.84255e-14 0)
(0.112754 -0.0264457 0)
(0.138759 -0.0278553 0)
(0.169296 -0.0368666 0)
(0.231948 -0.0587071 0)
(0.372936 -0.1012 0)
(0.0900627 -0.0374168 0)
(0.125113 -0.0504167 0)
(0.171869 -0.0734782 0)
(0.247632 -0.11525 0)
(0.391553 -0.171574 0)
(0.844902 0.0274771 0)
(1.11469 -0.0508128 0)
(1.32131 -0.0809833 0)
(1.35366 -0.102506 0)
(1.28558 -0.0926111 0)
(0.820384 -0.0184853 0)
(1.12488 -0.0484594 0)
(1.34905 -0.061587 0)
(1.38962 -0.0633623 0)
(1.319 -0.0568863 0)
(0.817357 1.26992e-14 0)
(1.12867 1.25208e-14 0)
(1.34345 -1.69449e-14 0)
(1.37949 6.26499e-14 0)
(1.31182 -5.50686e-14 0)
(0.820384 0.0184853 0)
(1.12488 0.0484594 0)
(1.34905 0.061587 0)
(1.38962 0.0633623 0)
(1.319 0.0568863 0)
(0.844902 -0.0274771 0)
(1.11469 0.0508128 0)
(1.32131 0.0809833 0)
(1.35366 0.102506 0)
(1.28558 0.0926111 0)
(1.29077 -0.167287 0)
(1.35594 -0.227814 0)
(1.42765 -0.120475 0)
(1.33402 -0.00428936 0)
(1.02258 -0.0193739 0)
(0.79239 -0.0625207 0)
(0.646608 -0.103209 0)
(0.490424 -0.113571 0)
(0.369173 -0.0837977 0)
(0.270497 -0.0540436 0)
(0.170497 -0.0350208 0)
(0.0752173 -0.0244977 0)
(0.0203672 -0.0197441 0)
(0.00273593 -0.0178185 0)
(-0.0020045 -0.0169646 0)
(-0.00379445 -0.0164242 0)
(-0.00384428 -0.0155481 0)
(-0.000191333 -0.0150034 0)
(0.00984083 -0.0148286 0)
(0.025958 -0.014833 0)
(0.0455714 -0.0148294 0)
(0.0666169 -0.0147774 0)
(0.0881307 -0.0147372 0)
(0.10978 -0.0147055 0)
(0.131482 -0.0146762 0)
(0.153243 -0.0146401 0)
(0.174761 -0.0146553 0)
(0.196691 -0.0145321 0)
(0.217663 -0.0146611 0)
(0.238285 -0.0145182 0)
(0.258636 -0.0147259 0)
(0.278442 -0.0144508 0)
(0.297704 -0.0150009 0)
(0.314742 -0.0142603 0)
(0.329157 -0.0154061 0)
(0.338691 -0.0145071 0)
(0.34994 -0.0154986 0)
(0.3473 -0.0154338 0)
(0.304227 -0.0160816 0)
(0.098391 -0.0163689 0)
(1.31934 -0.0830151 0)
(1.40934 -0.120623 0)
(1.45498 -0.0597597 0)
(1.38315 -0.00803885 0)
(1.04841 -0.007887 0)
(0.806161 -0.028172 0)
(0.678242 -0.0505141 0)
(0.521803 -0.0559794 0)
(0.386857 -0.040612 0)
(0.27827 -0.025996 0)
(0.173293 -0.0174252 0)
(0.0759066 -0.0122887 0)
(0.0203122 -0.00984914 0)
(0.00252286 -0.00887842 0)
(-0.00220875 -0.00846265 0)
(-0.00389087 -0.00821671 0)
(-0.00398371 -0.00774997 0)
(-0.000351122 -0.0074893 0)
(0.00973662 -0.00740625 0)
(0.0259054 -0.00741374 0)
(0.0455687 -0.00741253 0)
(0.0666654 -0.00738655 0)
(0.0882284 -0.00736654 0)
(0.109924 -0.00735098 0)
(0.131668 -0.00733674 0)
(0.153469 -0.00731913 0)
(0.175025 -0.0073269 0)
(0.196989 -0.00726551 0)
(0.217994 -0.00733014 0)
(0.238646 -0.00725826 0)
(0.259026 -0.0073623 0)
(0.278856 -0.00722354 0)
(0.298137 -0.00750063 0)
(0.315173 -0.00712135 0)
(0.329608 -0.00769701 0)
(0.339074 -0.00723585 0)
(0.350449 -0.0077232 0)
(0.347811 -0.00771517 0)
(0.304279 -0.00804514 0)
(0.0977498 -0.008154 0)
(1.30065 2.47073e-14 0)
(1.3758 4.61154e-13 0)
(1.42703 4.63659e-13 0)
(1.3785 -9.24152e-12 0)
(1.05048 -2.8926e-11 0)
(0.794352 3.03606e-12 0)
(0.662294 2.7233e-12 0)
(0.504745 -3.33289e-12 0)
(0.375874 2.69398e-13 0)
(0.275872 4.44177e-12 0)
(0.17474 4.16217e-12 0)
(0.076897 3.40853e-12 0)
(0.0204522 4.1642e-12 0)
(0.00248861 5.81415e-12 0)
(-0.00222844 7.08411e-12 0)
(-0.00390316 7.15131e-12 0)
(-0.00394402 4.51695e-12 0)
(-0.000347205 -2.83452e-12 0)
(0.00972848 -1.18184e-11 0)
(0.0259027 -1.19315e-11 0)
(0.0455756 -6.33843e-12 0)
(0.0666813 4.47071e-12 0)
(0.0882526 7.85046e-12 0)
(0.109956 6.66774e-13 0)
(0.131708 -1.18964e-11 0)
(0.153517 -1.63227e-11 0)
(0.175083 -2.116e-11 0)
(0.197058 -1.69682e-11 0)
(0.218078 -4.23021e-12 0)
(0.238749 -7.93575e-12 0)
(0.259154 1.42969e-12 0)
(0.279017 1.20919e-11 0)
(0.298341 3.26642e-12 0)
(0.31543 -1.31232e-12 0)
(0.329951 4.50898e-12 0)
(0.339513 1.14306e-11 0)
(0.351094 4.82009e-12 0)
(0.348771 5.20775e-12 0)
(0.305349 3.97923e-12 0)
(0.0987181 2.52476e-12 0)
(1.31934 0.0830151 0)
(1.40934 0.120623 0)
(1.45498 0.0597597 0)
(1.38315 0.00803885 0)
(1.04841 0.007887 0)
(0.806161 0.028172 0)
(0.678242 0.0505141 0)
(0.521803 0.0559794 0)
(0.386857 0.040612 0)
(0.27827 0.025996 0)
(0.173293 0.0174252 0)
(0.0759066 0.0122887 0)
(0.0203122 0.00984914 0)
(0.00252286 0.00887842 0)
(-0.00220875 0.00846265 0)
(-0.00389087 0.00821671 0)
(-0.00398371 0.00774997 0)
(-0.000351122 0.0074893 0)
(0.00973662 0.00740625 0)
(0.0259054 0.00741374 0)
(0.0455687 0.00741253 0)
(0.0666654 0.00738655 0)
(0.0882284 0.00736654 0)
(0.109924 0.00735098 0)
(0.131668 0.00733674 0)
(0.153469 0.00731913 0)
(0.175025 0.0073269 0)
(0.196989 0.00726551 0)
(0.217994 0.00733014 0)
(0.238646 0.00725826 0)
(0.259026 0.0073623 0)
(0.278856 0.00722354 0)
(0.298137 0.00750063 0)
(0.315173 0.00712135 0)
(0.329608 0.00769701 0)
(0.339074 0.00723585 0)
(0.350449 0.0077232 0)
(0.347811 0.00771517 0)
(0.304279 0.00804514 0)
(0.0977498 0.008154 0)
(1.29077 0.167287 0)
(1.35594 0.227814 0)
(1.42765 0.120475 0)
(1.33402 0.00428936 0)
(1.02258 0.0193739 0)
(0.79239 0.0625207 0)
(0.646608 0.103209 0)
(0.490424 0.113571 0)
(0.369173 0.0837977 0)
(0.270497 0.0540436 0)
(0.170497 0.0350208 0)
(0.0752173 0.0244977 0)
(0.0203672 0.0197441 0)
(0.00273593 0.0178185 0)
(-0.0020045 0.0169646 0)
(-0.00379445 0.0164242 0)
(-0.00384428 0.0155481 0)
(-0.000191333 0.0150034 0)
(0.00984083 0.0148286 0)
(0.025958 0.014833 0)
(0.0455714 0.0148294 0)
(0.0666169 0.0147774 0)
(0.0881307 0.0147372 0)
(0.10978 0.0147055 0)
(0.131482 0.0146762 0)
(0.153243 0.0146401 0)
(0.174761 0.0146553 0)
(0.196691 0.0145321 0)
(0.217663 0.0146611 0)
(0.238285 0.0145182 0)
(0.258636 0.0147259 0)
(0.278442 0.0144508 0)
(0.297704 0.0150009 0)
(0.314742 0.0142603 0)
(0.329157 0.0154061 0)
(0.338691 0.0145071 0)
(0.34994 0.0154986 0)
(0.3473 0.0154338 0)
(0.304227 0.0160816 0)
(0.098391 0.0163689 0)
(1.23148 0.353116 0)
(1.27655 0.336486 0)
(1.29588 0.205678 0)
(1.14374 0.0609407 0)
(0.892135 0.0928351 0)
(0.694424 0.171034 0)
(0.540881 0.224402 0)
(0.413039 0.211272 0)
(0.329739 0.154068 0)
(0.252042 0.104504 0)
(0.160178 0.071556 0)
(0.0690417 0.0510506 0)
(0.0173727 0.0410612 0)
(0.00130292 0.0370812 0)
(-0.00293346 0.035261 0)
(-0.00479339 0.0339504 0)
(-0.00462287 0.0323533 0)
(-0.000513515 0.0313161 0)
(0.00975259 0.0308897 0)
(0.0259384 0.0308529 0)
(0.0455672 0.0308326 0)
(0.0666206 0.0307227 0)
(0.0881464 0.0306386 0)
(0.109813 0.0305727 0)
(0.131536 0.0305116 0)
(0.15332 0.0304372 0)
(0.174862 0.0304718 0)
(0.196817 0.0302161 0)
(0.217816 0.0304824 0)
(0.238472 0.0301907 0)
(0.258852 0.0306129 0)
(0.278694 0.0300588 0)
(0.297997 0.0311476 0)
(0.315184 0.029715 0)
(0.329687 0.0318975 0)
(0.339582 0.0302079 0)
(0.350449 0.0323 0)
(0.347882 0.0316738 0)
(0.305818 0.032117 0)
(0.101527 0.0323957 0)
(1.01723 0.341526 0)
(1.0556 0.342037 0)
(0.999109 0.270544 0)
(0.802226 0.202885 0)
(0.593671 0.258354 0)
(0.453435 0.343984 0)
(0.342515 0.36643 0)
(0.288963 0.322081 0)
(0.259867 0.238817 0)
(0.206978 0.167714 0)
(0.127495 0.119882 0)
(0.0498793 0.0883069 0)
(0.00947641 0.0726945 0)
(-0.00193908 0.0662789 0)
(-0.00516574 0.0631039 0)
(-0.00705413 0.0605247 0)
(-0.00645196 0.0579704 0)
(-0.00141569 0.0563239 0)
(0.00949728 0.0555773 0)
(0.0258961 0.0554676 0)
(0.0455386 0.055404 0)
(0.0665709 0.0551965 0)
(0.0880902 0.055043 0)
(0.109769 0.0549256 0)
(0.131517 0.0548175 0)
(0.153334 0.0546859 0)
(0.174918 0.054753 0)
(0.196906 0.0542924 0)
(0.217956 0.0547644 0)
(0.238677 0.0542465 0)
(0.259112 0.0549783 0)
(0.27903 0.0540174 0)
(0.298386 0.0558521 0)
(0.315871 0.0534922 0)
(0.330553 0.0569652 0)
(0.341161 0.0542939 0)
(0.351196 0.0580522 0)
(0.34806 0.0562428 0)
(0.305522 0.0563602 0)
(0.102038 0.0566011 0)
(0.683313 0.412186 0)
(0.692469 0.366458 0)
(0.574713 0.330827 0)
(0.398383 0.361292 0)
(0.256321 0.439994 0)
(0.19416 0.467541 0)
(0.175031 0.44036 0)
(0.186445 0.370689 0)
(0.185492 0.280499 0)
(0.149041 0.209506 0)
(0.0845587 0.156359 0)
(0.0261848 0.120578 0)
(-8.51639e-05 0.103039 0)
(-0.00628136 0.0952264 0)
(-0.00856023 0.0906613 0)
(-0.0101982 0.0867834 0)
(-0.00885417 0.0834231 0)
(-0.00272029 0.0812944 0)
(0.00904901 0.0802751 0)
(0.0257944 0.080081 0)
(0.0454774 0.0799469 0)
(0.0664681 0.0796266 0)
(0.0879549 0.0793977 0)
(0.109626 0.0792272 0)
(0.131385 0.0790711 0)
(0.153229 0.0788834 0)
(0.174853 0.0789843 0)
(0.196856 0.0783161 0)
(0.217961 0.078987 0)
(0.238749 0.0782614 0)
(0.25923 0.0792626 0)
(0.279214 0.0779597 0)
(0.298592 0.080377 0)
(0.316371 0.0773867 0)
(0.331268 0.0816461 0)
(0.342662 0.078448 0)
(0.351744 0.0835537 0)
(0.347923 0.0808167 0)
(0.305222 0.0813529 0)
(0.103285 0.0820316 0)
(0.272245 0.433852 0)
(0.183134 0.412311 0)
(0.0938424 0.478189 0)
(0.00647671 0.526812 0)
(-0.0144251 0.536818 0)
(0.017359 0.511982 0)
(0.0679156 0.454044 0)
(0.107468 0.376197 0)
(0.117064 0.300056 0)
(0.0889862 0.235765 0)
(0.0403433 0.183325 0)
(0.00284199 0.149327 0)
(-0.00982584 0.132314 0)
(-0.0119246 0.123626 0)
(-0.013128 0.117647 0)
(-0.0141525 0.112611 0)
(-0.0117085 0.108618 0)
(-0.00430659 0.10613 0)
(0.00843631 0.10491 0)
(0.0256082 0.104649 0)
(0.0453617 0.104432 0)
(0.0663104 0.103985 0)
(0.0877564 0.103674 0)
(0.109413 0.103451 0)
(0.13118 0.103251 0)
(0.153048 0.103012 0)
(0.174718 0.103148 0)
(0.196725 0.102276 0)
(0.217895 0.103142 0)
(0.23876 0.102238 0)
(0.259287 0.103469 0)
(0.279343 0.101899 0)
(0.298718 0.104764 0)
(0.316785 0.101394 0)
(0.331906 0.106073 0)
(0.34403 0.102612 0)
(0.35232 0.10866 0)
(0.347812 0.10531 0)
(0.3049 0.106486 0)
(0.104657 0.10785 0)
(-0.106556 0.500614 0)
(-0.194952 0.508063 0)
(-0.224124 0.555507 0)
(-0.208388 0.553146 0)
(-0.144053 0.52758 0)
(-0.060286 0.494317 0)
(0.00335964 0.436952 0)
(0.0443091 0.372761 0)
(0.0536733 0.308586 0)
(0.0315122 0.250672 0)
(4.82063e-05 0.204063 0)
(-0.0185749 0.175301 0)
(-0.0205044 0.160214 0)
(-0.0193311 0.150892 0)
(-0.0191926 0.143732 0)
(-0.0190262 0.137822 0)
(-0.0150852 0.133415 0)
(-0.00621216 0.130693 0)
(0.0076068 0.129391 0)
(0.0252701 0.129063 0)
(0.0451431 0.128756 0)
(0.0660824 0.128175 0)
(0.0875136 0.127779 0)
(0.109181 0.127506 0)
(0.130982 0.127268 0)
(0.152898 0.126982 0)
(0.174647 0.127155 0)
(0.19669 0.126096 0)
(0.217962 0.127143 0)
(0.238947 0.126097 0)
(0.259564 0.127519 0)
(0.279741 0.12576 0)
(0.299157 0.128954 0)
(0.317533 0.125394 0)
(0.332935 0.130268 0)
(0.34568 0.126638 0)
(0.353475 0.133179 0)
(0.348492 0.129573 0)
(0.305562 0.131473 0)
(0.106998 0.133511 0)
(-0.269829 0.495476 0)
(-0.345384 0.509525 0)
(-0.325292 0.533448 0)
(-0.273075 0.513263 0)
(-0.189127 0.497646 0)
(-0.10194 0.470634 0)
(-0.0479604 0.421878 0)
(-0.0124812 0.367571 0)
(-0.00386075 0.312649 0)
(-0.0186796 0.262544 0)
(-0.0318053 0.22447 0)
(-0.0351371 0.20095 0)
(-0.0302494 0.187262 0)
(-0.0265939 0.177268 0)
(-0.0253584 0.169134 0)
(-0.0237849 0.162557 0)
(-0.0182646 0.157854 0)
(-0.00794682 0.154971 0)
(0.00686283 0.153563 0)
(0.0249563 0.153206 0)
(0.0449065 0.152806 0)
(0.0657955 0.152084 0)
(0.087168 0.151603 0)
(0.108798 0.151288 0)
(0.130579 0.151029 0)
(0.152486 0.1507 0)
(0.174257 0.150921 0)
(0.196283 0.149721 0)
(0.217589 0.150936 0)
(0.238623 0.149797 0)
(0.259246 0.15139 0)
(0.279456 0.14953 0)
(0.298797 0.152982 0)
(0.317328 0.149379 0)
(0.332825 0.154321 0)
(0.345884 0.150692 0)
(0.352955 0.157212 0)
(0.34706 0.153856 0)
(0.303903 0.156526 0)
(0.106916 0.159211 0)
(-0.29372 0.472682 0)
(-0.378422 0.486664 0)
(-0.34699 0.503822 0)
(-0.292445 0.478784 0)
(-0.210032 0.478839 0)
(-0.137469 0.448219 0)
(-0.0904863 0.407721 0)
(-0.0628243 0.36025 0)
(-0.0534321 0.313476 0)
(-0.0591736 0.272026 0)
(-0.0578455 0.243073 0)
(-0.0512612 0.224508 0)
(-0.0421688 0.212059 0)
(-0.0364357 0.201784 0)
(-0.0336793 0.193133 0)
(-0.0300378 0.186291 0)
(-0.0224509 0.181548 0)
(-0.0103909 0.178812 0)
(0.00553867 0.17729 0)
(0.0242205 0.176898 0)
(0.0444237 0.176406 0)
(0.0654412 0.175548 0)
(0.0869299 0.174989 0)
(0.108691 0.174644 0)
(0.130613 0.174382 0)
(0.152668 0.174018 0)
(0.174609 0.1743 0)
(0.196813 0.173008 0)
(0.218323 0.174375 0)
(0.239583 0.173192 0)
(0.260398 0.174934 0)
(0.280829 0.173045 0)
(0.300298 0.176707 0)
(0.319143 0.173157 0)
(0.33492 0.178131 0)
(0.34838 0.174573 0)
(0.355022 0.180793 0)
(0.348742 0.178027 0)
(0.305714 0.181587 0)
(0.110526 0.184731 0)
(-0.28721 0.456167 0)
(-0.381505 0.470317 0)
(-0.350243 0.480926 0)
(-0.29942 0.458832 0)
(-0.225118 0.465747 0)
(-0.171179 0.42932 0)
(-0.127993 0.397024 0)
(-0.106928 0.355621 0)
(-0.0938924 0.317701 0)
(-0.0880669 0.28577 0)
(-0.075995 0.263996 0)
(-0.0630024 0.24846 0)
(-0.0511924 0.236495 0)
(-0.0441902 0.225812 0)
(-0.0400428 0.216701 0)
(-0.0345695 0.209622 0)
(-0.0251541 0.204844 0)
(-0.0117305 0.201984 0)
(0.00499113 0.200446 0)
(0.0239365 0.200024 0)
(0.0441059 0.199443 0)
(0.0649812 0.198451 0)
(0.0863214 0.197822 0)
(0.10795 0.19746 0)
(0.129756 0.19722 0)
(0.151707 0.196835 0)
(0.173567 0.1972 0)
(0.195758 0.195871 0)
(0.217263 0.197389 0)
(0.238561 0.196223 0)
(0.259392 0.198106 0)
(0.279886 0.196271 0)
(0.299327 0.200109 0)
(0.318302 0.196704 0)
(0.334152 0.201673 0)
(0.347704 0.198296 0)
(0.353723 0.203802 0)
(0.346993 0.201849 0)
(0.303686 0.206761 0)
(0.110536 0.21022 0)
(-0.271491 0.446808 0)
(-0.376728 0.459118 0)
(-0.355397 0.463398 0)
(-0.306466 0.450757 0)
(-0.241639 0.453943 0)
(-0.199439 0.415055 0)
(-0.161496 0.388265 0)
(-0.142965 0.352183 0)
(-0.124999 0.323338 0)
(-0.110518 0.299615 0)
(-0.092893 0.283002 0)
(-0.0764521 0.269807 0)
(-0.0631751 0.258314 0)
(-0.0550621 0.247641 0)
(-0.0490793 0.23861 0)
(-0.0412312 0.231776 0)
(-0.029624 0.227415 0)
(-0.0146096 0.224543 0)
(0.00320137 0.222999 0)
(0.022814 0.22256 0)
(0.0434042 0.221903 0)
(0.0646032 0.220791 0)
(0.0862453 0.220107 0)
(0.10816 0.21974 0)
(0.130226 0.219535 0)
(0.152412 0.21913 0)
(0.174524 0.219592 0)
(0.196906 0.218261 0)
(0.21866 0.219895 0)
(0.240163 0.218785 0)
(0.261142 0.220785 0)
(0.281785 0.219043 0)
(0.30126 0.223031 0)
(0.320364 0.21982 0)
(0.336251 0.224784 0)
(0.349828 0.221743 0)
(0.355388 0.226374 0)
(0.348045 0.225449 0)
(0.304657 0.231795 0)
(0.113682 0.235501 0)
(-0.251312 0.444166 0)
(-0.36739 0.453616 0)
(-0.362225 0.451171 0)
(-0.314653 0.446566 0)
(-0.258693 0.440946 0)
(-0.224706 0.404873 0)
(-0.19067 0.383582 0)
(-0.169836 0.355159 0)
(-0.145981 0.335543 0)
(-0.125582 0.317287 0)
(-0.104539 0.303802 0)
(-0.0862661 0.291685 0)
(-0.0723935 0.280182 0)
(-0.0634 0.269337 0)
(-0.0555484 0.260306 0)
(-0.045408 0.25364 0)
(-0.0320364 0.249279 0)
(-0.0158216 0.246438 0)
(0.00255407 0.244841 0)
(0.0223127 0.24437 0)
(0.0428224 0.243633 0)
(0.0638587 0.242405 0)
(0.0853383 0.241678 0)
(0.107109 0.241328 0)
(0.129055 0.241186 0)
(0.151172 0.240792 0)
(0.173307 0.241382 0)
(0.195661 0.240099 0)
(0.217581 0.241856 0)
(0.239251 0.240877 0)
(0.260388 0.242992 0)
(0.281222 0.241403 0)
(0.300812 0.245507 0)
(0.320113 0.242532 0)
(0.336134 0.247451 0)
(0.349786 0.244831 0)
(0.355246 0.24848 0)
(0.34711 0.248573 0)
(0.303875 0.256257 0)
(0.115554 0.260252 0)
(-0.230579 0.442873 0)
(-0.358176 0.450272 0)
(-0.368997 0.444626 0)
(-0.325507 0.439812 0)
(-0.277523 0.429453 0)
(-0.247149 0.398916 0)
(-0.214043 0.384049 0)
(-0.189725 0.362018 0)
(-0.163223 0.347869 0)
(-0.140378 0.333166 0)
(-0.117723 0.321825 0)
(-0.0988039 0.310367 0)
(-0.0846137 0.299161 0)
(-0.0744218 0.288674 0)
(-0.0642755 0.280247 0)
(-0.0516478 0.274499 0)
(-0.0364266 0.270365 0)
(-0.0187638 0.267681 0)
(0.000648236 0.266094 0)
(0.0211582 0.265638 0)
(0.042261 0.264854 0)
(0.0638036 0.263526 0)
(0.0857283 0.262753 0)
(0.107872 0.2624 0)
(0.130125 0.262293 0)
(0.152502 0.261864 0)
(0.174878 0.262525 0)
(0.197359 0.261244 0)
(0.219523 0.263044 0)
(0.241365 0.262176 0)
(0.262627 0.264337 0)
(0.283556 0.262885 0)
(0.30314 0.267044 0)
(0.322459 0.264306 0)
(0.338405 0.269147 0)
(0.351912 0.267014 0)
(0.357133 0.269747 0)
(0.347734 0.270874 0)
(0.304544 0.279914 0)
(0.119134 0.284208 0)
(-0.213028 0.441784 0)
(-0.351093 0.447755 0)
(-0.372695 0.440253 0)
(-0.338381 0.429867 0)
(-0.294561 0.426293 0)
(-0.263054 0.400565 0)
(-0.228755 0.392447 0)
(-0.202176 0.374266 0)
(-0.174145 0.364028 0)
(-0.149631 0.351492 0)
(-0.126119 0.341169 0)
(-0.107118 0.330008 0)
(-0.0927841 0.318865 0)
(-0.0812869 0.308503 0)
(-0.0687075 0.300517 0)
(-0.0542367 0.294895 0)
(-0.0376612 0.29093 0)
(-0.0193538 0.288268 0)
(0.00018163 0.286625 0)
(0.02048 0.286146 0)
(0.0411995 0.285296 0)
(0.0623181 0.283866 0)
(0.0838722 0.283062 0)
(0.105729 0.28274 0)
(0.127795 0.282714 0)
(0.150098 0.282299 0)
(0.1725 0.2831 0)
(0.194994 0.28187 0)
(0.2174 0.283743 0)
(0.239467 0.283063 0)
(0.260967 0.285276 0)
(0.282147 0.283992 0)
(0.301929 0.288152 0)
(0.321471 0.285637 0)
(0.337618 0.290324 0)
(0.351251 0.288607 0)
(0.356653 0.290557 0)
(0.346627 0.29241 0)
(0.304451 0.302508 0)
(0.123314 0.307149 0)
(-0.202834 0.441967 0)
(-0.348297 0.446563 0)
(-0.378798 0.437863 0)
(-0.35076 0.426175 0)
(-0.307791 0.428821 0)
(-0.275413 0.405496 0)
(-0.242216 0.400338 0)
(-0.21559 0.384418 0)
(-0.187356 0.376811 0)
(-0.162397 0.365631 0)
(-0.138932 0.355971 0)
(-0.120609 0.344792 0)
(-0.10606 0.334107 0)
(-0.0925089 0.325348 0)
(-0.0779482 0.318798 0)
(-0.0615668 0.313692 0)
(-0.0433201 0.310185 0)
(-0.0235882 0.307707 0)
(-0.00276181 0.306145 0)
(0.0188028 0.305733 0)
(0.0407734 0.304864 0)
(0.0630394 0.303337 0)
(0.0855452 0.302462 0)
(0.108122 0.302101 0)
(0.130706 0.302061 0)
(0.153377 0.301536 0)
(0.176057 0.302384 0)
(0.198677 0.301112 0)
(0.221335 0.3029 0)
(0.243521 0.302332 0)
(0.265104 0.304485 0)
(0.286297 0.303318 0)
(0.306003 0.307392 0)
(0.325427 0.305074 0)
(0.341406 0.309551 0)
(0.354758 0.308239 0)
(0.36003 0.309438 0)
(0.349029 0.311957 0)
(0.307652 0.323049 0)
(0.131327 0.327962 0)
(-0.197947 0.445958 0)
(-0.346821 0.4486 0)
(-0.382442 0.43932 0)
(-0.356854 0.429373 0)
(-0.315173 0.435019 0)
(-0.282463 0.413895 0)
(-0.249664 0.412126 0)
(-0.222529 0.397847 0)
(-0.19381 0.392206 0)
(-0.168905 0.381475 0)
(-0.146111 0.37195 0)
(-0.127895 0.360857 0)
(-0.111608 0.351507 0)
(-0.0961409 0.343081 0)
(-0.0795785 0.336387 0)
(-0.0615915 0.331487 0)
(-0.042417 0.327855 0)
(-0.0224291 0.325058 0)
(-0.001977 0.323184 0)
(0.0187113 0.322608 0)
(0.0395151 0.321668 0)
(0.0606459 0.32017 0)
(0.0822975 0.319501 0)
(0.104348 0.319451 0)
(0.126676 0.319735 0)
(0.149306 0.319395 0)
(0.172075 0.320562 0)
(0.194849 0.319444 0)
(0.217822 0.321296 0)
(0.240297 0.320963 0)
(0.262224 0.323127 0)
(0.283729 0.322135 0)
(0.303707 0.326094 0)
(0.323363 0.323942 0)
(0.339567 0.328169 0)
(0.353002 0.327078 0)
(0.358454 0.327713 0)
(0.346986 0.330767 0)
(0.308086 0.342524 0)
(0.138842 0.347904 0)
(-0.198897 0.448631 0)
(-0.347449 0.450965 0)
(-0.384913 0.442233 0)
(-0.361865 0.434161 0)
(-0.322897 0.440673 0)
(-0.290987 0.421107 0)
(-0.259287 0.420788 0)
(-0.23238 0.4073 0)
(-0.204168 0.402442 0)
(-0.180083 0.391662 0)
(-0.158366 0.382318 0)
(-0.140293 0.372274 0)
(-0.123678 0.363009 0)
(-0.106756 0.355457 0)
(-0.08876 0.349509 0)
(-0.0695723 0.345032 0)
(-0.0493147 0.341512 0)
(-0.0281546 0.338713 0)
(-0.00622199 0.336882 0)
(0.016296 0.336442 0)
(0.0391133 0.33555 0)
(0.0620979 0.333987 0)
(0.0851516 0.333307 0)
(0.108072 0.333367 0)
(0.130847 0.333831 0)
(0.15368 0.33353 0)
(0.176545 0.334949 0)
(0.199348 0.333862 0)
(0.222269 0.335686 0)
(0.244761 0.335461 0)
(0.266656 0.337568 0)
(0.28801 0.336743 0)
(0.307757 0.340535 0)
(0.327132 0.338561 0)
(0.343003 0.342545 0)
(0.355978 0.341725 0)
(0.361108 0.341987 0)
(0.349369 0.345661 0)
(0.313518 0.358187 0)
(0.152322 0.364239 0)
(-0.206778 0.44762 0)
(-0.352061 0.449555 0)
(-0.389368 0.442363 0)
(-0.366765 0.437176 0)
(-0.328509 0.444827 0)
(-0.2965 0.426636 0)
(-0.264997 0.427838 0)
(-0.238112 0.415057 0)
(-0.210551 0.41094 0)
(-0.18746 0.400157 0)
(-0.165888 0.391282 0)
(-0.146903 0.381664 0)
(-0.128131 0.373399 0)
(-0.109181 0.366345 0)
(-0.0895225 0.360652 0)
(-0.0691382 0.356022 0)
(-0.0481639 0.35203 0)
(-0.0268365 0.348606 0)
(-0.00534732 0.346199 0)
(0.0161946 0.345454 0)
(0.0377269 0.344514 0)
(0.0595278 0.343185 0)
(0.08177 0.343041 0)
(0.104267 0.343774 0)
(0.126867 0.344842 0)
(0.149723 0.344849 0)
(0.172703 0.346646 0)
(0.195799 0.345584 0)
(0.219022 0.347352 0)
(0.242155 0.347094 0)
(0.264684 0.349053 0)
(0.286535 0.348235 0)
(0.30676 0.351618 0)
(0.326435 0.349592 0)
(0.342613 0.353093 0)
(0.355607 0.352137 0)
(0.361053 0.351864 0)
(0.350538 0.356249 0)
(0.320337 0.369787 0)
(0.169421 0.377166 0)
(-0.223605 0.443747 0)
(-0.360364 0.446076 0)
(-0.39363 0.435902 0)
(-0.369889 0.432306 0)
(-0.332307 0.44104 0)
(-0.300955 0.424029 0)
(-0.270529 0.426312 0)
(-0.244744 0.413966 0)
(-0.218715 0.410034 0)
(-0.197187 0.399334 0)
(-0.176596 0.390995 0)
(-0.157859 0.382554 0)
(-0.138887 0.37599 0)
(-0.119336 0.370703 0)
(-0.098777 0.366592 0)
(-0.0772372 0.363217 0)
(-0.0548444 0.360377 0)
(-0.0318857 0.358134 0)
(-0.00869484 0.356842 0)
(0.0144676 0.356856 0)
(0.0375772 0.35592 0)
(0.0609179 0.353837 0)
(0.0846625 0.352584 0)
(0.108484 0.352228 0)
(0.132019 0.352376 0)
(0.155326 0.351315 0)
(0.17826 0.352472 0)
(0.200879 0.350454 0)
(0.223359 0.351471 0)
(0.245465 0.35076 0)
(0.267046 0.352329 0)
(0.288082 0.35152 0)
(0.307592 0.35455 0)
(0.326772 0.352529 0)
(0.34261 0.355635 0)
(0.355265 0.354783 0)
(0.360835 0.354668 0)
(0.353671 0.359767 0)
(0.330132 0.377299 0)
(0.190594 0.384595 0)
(-0.261522 0.442775 0)
(-0.381245 0.434133 0)
(-0.400548 0.414217 0)
(-0.372969 0.415779 0)
(-0.336839 0.42744 0)
(-0.306019 0.413142 0)
(-0.277113 0.417655 0)
(-0.252994 0.406542 0)
(-0.227914 0.404186 0)
(-0.206238 0.395552 0)
(-0.184238 0.389562 0)
(-0.163016 0.383226 0)
(-0.141549 0.378146 0)
(-0.12009 0.373504 0)
(-0.0984455 0.369556 0)
(-0.0767067 0.36598 0)
(-0.0547652 0.362764 0)
(-0.0325105 0.360097 0)
(-0.00993984 0.358466 0)
(0.0127719 0.358121 0)
(0.0354809 0.356332 0)
(0.058305 0.352928 0)
(0.0813348 0.350366 0)
(0.104393 0.348937 0)
(0.127449 0.348233 0)
(0.150771 0.346003 0)
(0.17443 0.346556 0)
(0.197786 0.34366 0)
(0.221323 0.343889 0)
(0.244555 0.341952 0)
(0.267288 0.342079 0)
(0.289218 0.340245 0)
(0.309547 0.341817 0)
(0.329327 0.33905 0)
(0.345829 0.341655 0)
(0.359335 0.341637 0)
(0.366247 0.344051 0)
(0.365046 0.355216 0)
(0.350779 0.385028 0)
(0.221706 0.41379 0)
(-0.944037 0.2179 0)
(-0.441426 0.446616 0)
(-0.408225 0.401856 0)
(-0.376377 0.409596 0)
(-0.345934 0.418541 0)
(-0.318989 0.403689 0)
(-0.292156 0.405967 0)
(-0.2695 0.393406 0)
(-0.244578 0.389462 0)
(-0.221746 0.379982 0)
(-0.198017 0.373081 0)
(-0.174663 0.365797 0)
(-0.151144 0.35969 0)
(-0.127809 0.353655 0)
(-0.104559 0.348106 0)
(-0.0815545 0.342587 0)
(-0.0587152 0.337038 0)
(-0.0359226 0.331756 0)
(-0.0129895 0.327544 0)
(0.0100244 0.324973 0)
(0.0330084 0.32124 0)
(0.0561974 0.316202 0)
(0.0797543 0.312486 0)
(0.103414 0.310257 0)
(0.127205 0.308742 0)
(0.151386 0.305557 0)
(0.176053 0.30579 0)
(0.20074 0.30224 0)
(0.225994 0.301908 0)
(0.250865 0.299719 0)
(0.27523 0.299733 0)
(0.298563 0.298639 0)
(0.320184 0.300794 0)
(0.34077 0.300376 0)
(0.357904 0.305777 0)
(0.372357 0.310747 0)
(0.382839 0.319471 0)
(0.395244 0.338673 0)
(0.42692 0.416988 0)
(0.894208 0.224188 0)
(-1.00486 1.01189 0)
(-0.235414 0.923308 0)
(-0.424265 0.291145 0)
(-0.376156 0.284033 0)
(-0.349213 0.28839 0)
(-0.327226 0.266109 0)
(-0.300591 0.259886 0)
(-0.278616 0.241439 0)
(-0.253517 0.231382 0)
(-0.230139 0.217634 0)
(-0.205659 0.2068 0)
(-0.181378 0.196253 0)
(-0.156942 0.187196 0)
(-0.13273 0.178509 0)
(-0.108636 0.170595 0)
(-0.0848712 0.163062 0)
(-0.0613692 0.155787 0)
(-0.0380029 0.148851 0)
(-0.0146331 0.142968 0)
(0.00867734 0.138919 0)
(0.0318883 0.134216 0)
(0.0551845 0.128657 0)
(0.0791822 0.124881 0)
(0.103468 0.122943 0)
(0.127974 0.121847 0)
(0.152937 0.119235 0)
(0.17824 0.120602 0)
(0.203492 0.118489 0)
(0.229066 0.119835 0)
(0.254294 0.119786 0)
(0.279016 0.122208 0)
(0.302746 0.124855 0)
(0.324681 0.13136 0)
(0.345746 0.137854 0)
(0.363411 0.150833 0)
(0.379226 0.165357 0)
(0.389889 0.184054 0)
(0.42559 0.208304 0)
(0.243088 0.868051 0)
(0.989729 0.993899 0)
(-1.00486 -1.01189 0)
(-0.235414 -0.923308 0)
(-0.424265 -0.291145 0)
(-0.376156 -0.284033 0)
(-0.349213 -0.28839 0)
(-0.327226 -0.266109 0)
(-0.300591 -0.259886 0)
(-0.278616 -0.241439 0)
(-0.253517 -0.231382 0)
(-0.230139 -0.217634 0)
(-0.205659 -0.2068 0)
(-0.181378 -0.196253 0)
(-0.156942 -0.187196 0)
(-0.13273 -0.178509 0)
(-0.108636 -0.170595 0)
(-0.0848712 -0.163062 0)
(-0.0613692 -0.155787 0)
(-0.0380029 -0.148851 0)
(-0.0146331 -0.142968 0)
(0.00867734 -0.138919 0)
(0.0318883 -0.134216 0)
(0.0551845 -0.128657 0)
(0.0791822 -0.124881 0)
(0.103468 -0.122943 0)
(0.127974 -0.121847 0)
(0.152937 -0.119235 0)
(0.17824 -0.120602 0)
(0.203492 -0.118489 0)
(0.229066 -0.119835 0)
(0.254294 -0.119786 0)
(0.279016 -0.122208 0)
(0.302746 -0.124855 0)
(0.324681 -0.13136 0)
(0.345746 -0.137854 0)
(0.363411 -0.150833 0)
(0.379226 -0.165357 0)
(0.389889 -0.184054 0)
(0.42559 -0.208304 0)
(0.243088 -0.868051 0)
(0.989729 -0.993899 0)
(-0.944037 -0.2179 0)
(-0.441426 -0.446616 0)
(-0.408225 -0.401856 0)
(-0.376377 -0.409596 0)
(-0.345934 -0.418541 0)
(-0.318989 -0.403689 0)
(-0.292156 -0.405967 0)
(-0.2695 -0.393406 0)
(-0.244578 -0.389462 0)
(-0.221746 -0.379982 0)
(-0.198017 -0.373081 0)
(-0.174663 -0.365797 0)
(-0.151144 -0.35969 0)
(-0.127809 -0.353655 0)
(-0.104559 -0.348106 0)
(-0.0815545 -0.342587 0)
(-0.0587152 -0.337038 0)
(-0.0359226 -0.331756 0)
(-0.0129895 -0.327544 0)
(0.0100244 -0.324973 0)
(0.0330084 -0.32124 0)
(0.0561974 -0.316202 0)
(0.0797543 -0.312486 0)
(0.103414 -0.310257 0)
(0.127205 -0.308742 0)
(0.151386 -0.305557 0)
(0.176053 -0.30579 0)
(0.20074 -0.30224 0)
(0.225994 -0.301908 0)
(0.250865 -0.299719 0)
(0.27523 -0.299733 0)
(0.298563 -0.298639 0)
(0.320184 -0.300794 0)
(0.34077 -0.300376 0)
(0.357904 -0.305777 0)
(0.372357 -0.310747 0)
(0.382839 -0.319471 0)
(0.395244 -0.338673 0)
(0.42692 -0.416988 0)
(0.894208 -0.224188 0)
(-0.261522 -0.442775 0)
(-0.381245 -0.434133 0)
(-0.400548 -0.414217 0)
(-0.372969 -0.415779 0)
(-0.336839 -0.42744 0)
(-0.306019 -0.413142 0)
(-0.277113 -0.417655 0)
(-0.252994 -0.406542 0)
(-0.227914 -0.404186 0)
(-0.206238 -0.395552 0)
(-0.184238 -0.389562 0)
(-0.163016 -0.383226 0)
(-0.141549 -0.378146 0)
(-0.12009 -0.373504 0)
(-0.0984455 -0.369556 0)
(-0.0767067 -0.36598 0)
(-0.0547652 -0.362764 0)
(-0.0325105 -0.360097 0)
(-0.00993984 -0.358466 0)
(0.0127719 -0.358121 0)
(0.0354809 -0.356332 0)
(0.058305 -0.352928 0)
(0.0813348 -0.350366 0)
(0.104393 -0.348937 0)
(0.127449 -0.348233 0)
(0.150771 -0.346003 0)
(0.17443 -0.346556 0)
(0.197786 -0.34366 0)
(0.221323 -0.343889 0)
(0.244555 -0.341952 0)
(0.267288 -0.342079 0)
(0.289218 -0.340245 0)
(0.309547 -0.341817 0)
(0.329327 -0.33905 0)
(0.345829 -0.341655 0)
(0.359335 -0.341637 0)
(0.366247 -0.344051 0)
(0.365046 -0.355216 0)
(0.350779 -0.385028 0)
(0.221706 -0.41379 0)
(-0.223605 -0.443747 0)
(-0.360364 -0.446076 0)
(-0.39363 -0.435902 0)
(-0.369889 -0.432306 0)
(-0.332307 -0.44104 0)
(-0.300955 -0.424029 0)
(-0.270529 -0.426312 0)
(-0.244744 -0.413966 0)
(-0.218715 -0.410034 0)
(-0.197187 -0.399334 0)
(-0.176596 -0.390995 0)
(-0.157859 -0.382554 0)
(-0.138887 -0.37599 0)
(-0.119336 -0.370703 0)
(-0.098777 -0.366592 0)
(-0.0772372 -0.363217 0)
(-0.0548444 -0.360377 0)
(-0.0318857 -0.358134 0)
(-0.00869484 -0.356842 0)
(0.0144676 -0.356856 0)
(0.0375772 -0.35592 0)
(0.0609179 -0.353837 0)
(0.0846625 -0.352584 0)
(0.108484 -0.352228 0)
(0.132019 -0.352376 0)
(0.155326 -0.351315 0)
(0.17826 -0.352472 0)
(0.200879 -0.350454 0)
(0.223359 -0.351471 0)
(0.245465 -0.35076 0)
(0.267046 -0.352329 0)
(0.288082 -0.35152 0)
(0.307592 -0.35455 0)
(0.326772 -0.352529 0)
(0.34261 -0.355635 0)
(0.355265 -0.354783 0)
(0.360835 -0.354668 0)
(0.353671 -0.359767 0)