/*--------------------------------*- C++ -*----------------------------------*\
| =========                 |                                                 |
| \\      /  F ield         | OpenFOAM: The Open Source CFD Toolbox           |
|  \\    /   O peration     | Version:  v1912                                 |
|   \\  /    A nd           | Website:  www.openfoam.com                      |
|    \\/     M anipulation  |                                                 |
\*---------------------------------------------------------------------------*/
FoamFile
{
    version     2.0;
    format      ascii;
    class       volVectorField;
    location    "5.94";
    object      grad(T);
}
// * * * * * * * * * * * * * * * * * * * * * * * * * * * * * * * * * * * * * //

dimensions      [0 -1 0 1 0 0 0];


internalField   nonuniform List<vector> 
1900
(
(0.503932 -1.59022e-06 0)
(-1.31674 1.68305e-05 0)
(0.130959 1.27328e-05 0)
(0.161694 3.0679e-05 0)
(0.109583 -7.09863e-05 0)
(0.0551542 -0.000416978 0)
(0.0173327 -0.000986403 0)
(0.0023263 0.000582747 0)
(0.000333993 0.0016643 0)
(0.0278015 0.000798248 0)
(0.503947 -1.99398e-06 0)
(-1.31673 2.64955e-05 0)
(0.130973 2.53744e-05 0)
(0.16161 5.85461e-05 0)
(0.109136 -9.04902e-05 0)
(0.0542388 -0.000581651 0)
(0.0183324 -0.00135939 0)
(0.004977 0.000507085 0)
(0.000549495 0.00138629 0)
(0.000803861 0.000807391 0)
(0.503957 1.36609e-13 0)
(-1.31671 5.49691e-13 0)
(0.130991 9.06393e-13 0)
(0.161578 6.35342e-13 0)
(0.108943 3.23092e-13 0)
(0.0538853 6.60279e-13 0)
(0.0184214 5.39933e-13 0)
(0.00507198 -2.86229e-13 0)
(0.0006343 -1.25551e-12 0)
(-0.00454164 -8.61941e-13 0)
(0.503947 1.99398e-06 0)
(-1.31673 -2.64955e-05 0)
(0.130973 -2.53744e-05 0)
(0.16161 -5.85461e-05 0)
(0.109136 9.04902e-05 0)
(0.0542388 0.000581651 0)
(0.0183324 0.00135939 0)
(0.004977 -0.000507085 0)
(0.000549495 -0.00138629 0)
(0.000803861 -0.000807391 0)
(0.503932 1.59022e-06 0)
(-1.31674 -1.68305e-05 0)
(0.130959 -1.27328e-05 0)
(0.161694 -3.0679e-05 0)
(0.109583 7.09863e-05 0)
(0.0551542 0.000416978 0)
(0.0173327 0.000986403 0)
(0.0023263 -0.000582747 0)
(0.000333993 -0.0016643 0)
(0.0278015 -0.000798248 0)
(0.006236 -0.0216085 9.55394e-16)
(-0.00534396 -0.0170101 -1.14784e-15)
(0.0952805 -0.0299627 -1.45779e-15)
(0.353504 -0.0576729 0)
(-0.587053 -0.304592 -6.53644e-15)
(-0.00978064 -0.0264432 9.51489e-16)
(-0.000105087 -0.0220756 1.14784e-15)
(0.0761688 -0.0397024 1.45779e-15)
(0.252525 -0.0651398 0)
(-0.51653 -0.333529 0)
(-0.0227848 -6.75662e-13 0)
(-0.00825946 -7.15669e-13 0)
(0.0657575 -7.22801e-13 0)
(0.228135 -5.66742e-13 0)
(-0.633644 -1.16165e-13 0)
(-0.00978064 0.0264432 9.51489e-16)
(-0.000105087 0.0220756 1.14784e-15)
(0.0761688 0.0397024 1.45779e-15)
(0.252525 0.0651398 0)
(-0.51653 0.333529 0)
(0.006236 0.0216085 -2.85837e-15)
(-0.00534396 0.0170101 -1.14784e-15)
(0.0952805 0.0299627 -1.45779e-15)
(0.353504 0.0576729 -4.01313e-15)
(-0.587053 0.304592 6.53644e-15)
(-1.96002 0.463251 2.19888e-15)
(-0.80652 0.32993 -1.57514e-15)
(-0.139809 0.210791 0)
(0.0127387 0.127424 1.14906e-15)
(-0.327919 0.130558 -5.11317e-16)
(-1.75745 0.474147 -1.10642e-15)
(-0.852395 0.215906 7.92539e-16)
(-0.189223 0.104268 0)
(-0.00323947 0.0384196 -7.20851e-16)
(-0.263877 0.0671883 1.29318e-16)
(-1.81343 2.73788e-14 0)
(-0.913409 3.66034e-13 0)
(-0.206129 -1.76685e-13 0)
(-0.00476581 9.21218e-14 2.88803e-16)
(-0.248876 -2.28253e-13 -2.58636e-16)
(-1.75745 -0.474147 -1.10642e-15)
(-0.852395 -0.215906 7.92539e-16)
(-0.189223 -0.104268 0)
(-0.00323947 -0.0384196 -7.20851e-16)
(-0.263877 -0.0671883 1.29318e-16)
(-1.96002 -0.463251 1.10642e-15)
(-0.80652 -0.32993 -9.93641e-18)
(-0.139809 -0.210791 0)
(0.0127387 -0.127424 3.8376e-18)
(-0.327919 -0.130558 5.11317e-16)
(-0.601587 0.585248 0)
(-0.329652 0.141715 0)
(0.162249 -0.257549 0)
(0.328208 -0.156526 0)
(0.143247 0.0639674 0)
(0.0610914 0.070853 0)
(0.0130495 0.08495 0)
(-0.108237 0.0683394 0)
(-0.205737 0.047043 0)
(-0.218267 0.0240823 0)
(-0.15206 0.00993517 0)
(-0.0896461 0.00407355 0)
(-0.0642679 0.00180883 0)
(-0.0580187 0.00138522 0)
(-0.0544534 0.00221996 0)
(-0.0471029 0.00130343 0)
(-0.0344037 0.000381558 0)
(-0.0213504 -2.49396e-05 0)
(-0.0128692 -0.000112138 0)
(-0.00894555 -9.14053e-05 0)
(-0.00734096 -6.28813e-05 0)
(-0.00648339 -5.42329e-05 0)
(-0.00566097 -6.60677e-05 0)
(-0.00468069 -9.01602e-05 0)
(-0.00352933 -0.000118078 0)
(-0.00230483 -0.000145474 0)
(-0.000908002 -0.000165809 0)
(0.00081018 -0.000182037 0)
(0.00286495 -0.000192489 0)
(0.00458819 -0.000178119 0)
(0.00653562 -0.000178472 0)
(0.00801018 -0.000136264 0)
(0.0105099 -0.000216675 0)
(0.0132309 -5.55538e-05 0)
(0.0210649 -0.00026744 0)
(0.0317737 0.000412956 0)
(0.0365654 0.000235528 0)
(-0.00164586 0.000277496 0)
(-0.108758 0.00207234 0)
(-0.0880393 0.0148381 0)
(-0.559795 0.274625 0)
(-0.441349 0.145913 0)
(0.0682575 -0.139926 0)
(0.368178 -0.12955 0)
(0.186411 0.0288657 0)
(0.0647804 0.0451057 0)
(0.0053831 0.034186 0)
(-0.117819 0.0244037 0)
(-0.212627 0.0185443 0)
(-0.222507 0.0116734 0)
(-0.154077 0.00456169 0)
(-0.0903761 0.00171041 0)
(-0.0645182 0.000625892 0)
(-0.0579313 0.000446438 0)
(-0.0544475 0.00101857 0)
(-0.0473033 0.000452566 0)
(-0.03451 8.23109e-05 0)
(-0.0213802 -4.49407e-05 0)
(-0.0128719 -6.37566e-05 0)
(-0.00894118 -5.32772e-05 0)
(-0.00733767 -4.17271e-05 0)
(-0.00648335 -3.80133e-05 0)
(-0.00566374 -4.23608e-05 0)
(-0.00468505 -5.23561e-05 0)
(-0.00353424 -6.4826e-05 0)
(-0.00230926 -7.78844e-05 0)
(-0.000911633 -8.84257e-05 0)
(0.000807136 -9.7823e-05 0)
(0.00286453 -0.000105516 0)
(0.0045884 -0.000102676 0)
(0.00653844 -0.000106427 0)
(0.00800435 -9.09266e-05 0)
(0.0105151 -0.000132299 0)
(0.0132209 -6.68413e-05 0)
(0.021108 -0.000171653 0)
(0.0318282 0.000145673 0)
(0.0365949 0.000121065 0)
(-0.00120795 0.000499594 0)
(-0.105376 0.00266765 0)
(-0.0850527 0.0175073 0)
(-0.564387 1.01225e-11 0)
(-0.450249 -2.44083e-11 0)
(0.0821141 -1.50369e-11 0)
(0.377311 5.74805e-11 0)
(0.194056 3.35452e-11 0)
(0.0626391 1.73571e-11 0)
(0.00702707 -1.34638e-12 0)
(-0.112787 -3.89721e-12 0)
(-0.209441 -4.64236e-12 0)
(-0.222335 -3.92678e-12 0)
(-0.154958 -2.86229e-12 0)
(-0.0907911 -2.28865e-12 0)
(-0.0646356 -2.33991e-12 0)
(-0.0579045 -1.39566e-12 0)
(-0.0544517 8.29907e-13 0)
(-0.0473753 -1.01915e-12 0)
(-0.0345485 -1.37004e-12 0)
(-0.0213929 -1.12363e-12 0)
(-0.0128716 -1.89243e-13 0)
(-0.00893914 -2.58237e-13 0)
(-0.00733651 -3.23289e-13 0)
(-0.00648358 -1.63616e-13 0)
(-0.00566515 -7.88511e-15 0)
(-0.00468723 1.41932e-13 0)
(-0.00353675 -2.83864e-13 0)
(-0.0023117 -9.265e-13 0)
(-0.000913802 -1.44495e-12 0)
(0.000805209 -1.42523e-12 0)
(0.00286354 -9.265e-13 0)
(0.00458792 -7.54999e-13 0)
(0.00653904 -8.39764e-13 0)
(0.00800265 -2.39904e-12 0)
(0.0105169 -4.7764e-12 0)
(0.0132195 -6.66883e-12 0)
(0.0211267 -2.08167e-12 0)
(0.0318589 -1.71895e-12 0)
(0.0366683 -7.73923e-12 0)
(-0.000905032 -7.94425e-13 0)
(-0.10381 1.50349e-11 0)
(-0.0837223 4.9826e-11 0)
(-0.559795 -0.274625 0)
(-0.441349 -0.145913 0)
(0.0682575 0.139926 0)
(0.368178 0.12955 0)
(0.186411 -0.0288657 0)
(0.0647804 -0.0451057 0)
(0.0053831 -0.034186 0)
(-0.117819 -0.0244037 0)
(-0.212627 -0.0185443 0)
(-0.222507 -0.0116734 0)
(-0.154077 -0.00456169 0)
(-0.0903761 -0.00171041 0)
(-0.0645182 -0.000625892 0)
(-0.0579313 -0.000446438 0)
(-0.0544475 -0.00101857 0)
(-0.0473033 -0.000452566 0)
(-0.03451 -8.23109e-05 0)
(-0.0213802 4.49407e-05 0)
(-0.0128719 6.37566e-05 0)
(-0.00894118 5.32772e-05 0)
(-0.00733767 4.17271e-05 0)
(-0.00648335 3.80133e-05 0)
(-0.00566374 4.23608e-05 0)
(-0.00468505 5.2356e-05 0)
(-0.00353424 6.4826e-05 0)
(-0.00230926 7.78844e-05 0)
(-0.000911633 8.84257e-05 0)
(0.000807136 9.78229e-05 0)
(0.00286453 0.000105516 0)
(0.0045884 0.000102676 0)
(0.00653844 0.000106427 0)
(0.00800435 9.09265e-05 0)
(0.0105151 0.000132299 0)
(0.0132209 6.68413e-05 0)
(0.021108 0.000171653 0)
(0.0318282 -0.000145673 0)
(0.0365949 -0.000121065 0)
(-0.00120795 -0.000499594 0)
(-0.105376 -0.00266765 0)
(-0.0850527 -0.0175073 0)
(-0.601587 -0.585248 0)
(-0.329652 -0.141715 0)
(0.162249 0.257549 0)
(0.328208 0.156526 0)
(0.143247 -0.0639674 0)
(0.0610914 -0.070853 0)
(0.0130495 -0.08495 0)
(-0.108237 -0.0683394 0)
(-0.205737 -0.047043 0)
(-0.218267 -0.0240823 0)
(-0.15206 -0.00993517 0)
(-0.0896461 -0.00407355 0)
(-0.0642679 -0.00180883 0)
(-0.0580187 -0.00138522 0)
(-0.0544534 -0.00221996 0)
(-0.0471029 -0.00130343 0)
(-0.0344037 -0.000381558 0)
(-0.0213504 2.49396e-05 0)
(-0.0128692 0.000112138 0)
(-0.00894555 9.14053e-05 0)
(-0.00734096 6.28813e-05 0)
(-0.00648339 5.42329e-05 0)
(-0.00566097 6.60677e-05 0)
(-0.00468069 9.01602e-05 0)
(-0.00352933 0.000118078 0)
(-0.00230483 0.000145474 0)
(-0.000908002 0.000165809 0)
(0.00081018 0.000182037 0)
(0.00286495 0.000192489 0)
(0.00458819 0.000178119 0)
(0.00653562 0.000178472 0)
(0.00801018 0.000136264 0)
(0.0105099 0.000216675 0)
(0.0132309 5.55538e-05 0)
(0.0210649 0.00026744 0)
(0.0317737 -0.000412956 0)
(0.0365654 -0.000235528 0)
(-0.00164586 -0.000277496 0)
(-0.108758 -0.00207234 0)
(-0.0880393 -0.0148381 0)
(-0.0368359 -0.278262 0)
(-0.0418348 0.12948 0)
(0.146659 0.277917 0)
(0.212715 0.0605621 0)
(0.0936906 -0.0771101 0)
(0.0558839 -0.0645597 0)
(-0.00190437 -0.0816546 0)
(-0.105121 -0.0852507 0)
(-0.192833 -0.0734289 0)
(-0.204132 -0.0437721 0)
(-0.143859 -0.0193857 0)
(-0.0861228 -0.00755987 0)
(-0.0631213 -0.00376723 0)
(-0.0580882 -0.00320313 0)
(-0.0543893 -0.00363524 0)
(-0.0463818 -0.00243523 0)
(-0.0337996 -0.000854646 0)
(-0.021105 7.76186e-06 0)
(-0.0128333 0.000216008 0)
(-0.00896702 0.000182599 0)
(-0.0073572 0.000129957 0)
(-0.00648131 0.000115656 0)
(-0.00564439 0.000139494 0)
(-0.00465747 0.000184957 0)
(-0.00350523 0.000236014 0)
(-0.00228443 0.000284908 0)
(-0.000892897 0.000320809 0)
(0.000820351 0.000347725 0)
(0.0028616 0.000362829 0)
(0.00457986 0.000337218 0)
(0.00651545 0.000327034 0)
(0.00802158 0.000261099 0)
(0.0104705 0.000353631 0)
(0.0132412 0.000148052 0)
(0.0208639 0.000315986 0)
(0.0315756 -0.000634944 0)
(0.0367139 -0.000503158 0)
(-0.00185381 -0.000238488 0)
(-0.1106 0.00141653 0)
(-0.0896071 0.00320134 0)
(-0.0217147 -0.0472477 0)
(0.0519659 -0.0149009 0)
(0.104197 0.0422912 0)
(0.0480224 -0.0930458 0)
(0.0492492 -0.0872339 0)
(0.0595045 -0.0857252 0)
(0.0011296 -0.101878 0)
(-0.101981 -0.109137 0)
(-0.172687 -0.0966435 0)
(-0.173769 -0.0605411 0)
(-0.121562 -0.0274589 0)
(-0.0764849 -0.0112007 0)
(-0.0606844 -0.00642642 0)
(-0.0578542 -0.00556956 0)
(-0.0537479 -0.00515118 0)
(-0.0448101 -0.00343499 0)
(-0.0323735 -0.00128092 0)
(-0.0204503 1.96355e-05 0)
(-0.01272 0.000389273 0)
(-0.00901696 0.00036868 0)
(-0.00739675 0.000301082 0)
(-0.00647532 0.000284966 0)
(-0.00560309 0.000323604 0)
(-0.00460013 0.00039413 0)
(-0.00344593 0.000472852 0)
(-0.00223406 0.000548165 0)
(-0.000855569 0.000603025 0)
(0.000845219 0.000644963 0)
(0.00285662 0.00066846 0)
(0.00455816 0.000631102 0)
(0.00647309 0.000612801 0)
(0.00802969 0.000529551 0)
(0.0104221 0.000633614 0)
(0.0131891 0.000433794 0)
(0.0204182 0.000473755 0)
(0.0310906 -0.000676376 0)
(0.0368678 -0.000724738 0)
(0.000315538 -0.000112724 0)
(-0.104456 0.00460668 0)
(-0.0854786 0.0143443 0)
(-0.00566536 -0.146186 0)
(0.0444482 -0.0896274 0)
(0.0713556 -0.138229 0)
(0.0878996 -0.125347 0)
(0.100745 -0.0767569 0)
(0.0417721 -0.0791408 0)
(-0.0244645 -0.114278 0)
(-0.100077 -0.123569 0)
(-0.146004 -0.103675 0)
(-0.137463 -0.0641604 0)
(-0.0963131 -0.0302221 0)
(-0.0658551 -0.0143059 0)
(-0.057695 -0.00941458 0)
(-0.0568593 -0.00795382 0)
(-0.0523324 -0.00662219 0)
(-0.0426523 -0.00423208 0)
(-0.0304706 -0.001601 0)
(-0.0194955 2.3243e-05 0)
(-0.0124969 0.000548183 0)
(-0.009052 0.000568538 0)
(-0.00743787 0.000506876 0)
(-0.0064596 0.000499642 0)
(-0.0055392 0.000557778 0)
(-0.00451365 0.000655468 0)
(-0.00335679 0.000763166 0)
(-0.00215899 0.000866092 0)
(-0.000799619 0.000935018 0)
(0.000883407 0.000991909 0)
(0.00284824 0.00102365 0)
(0.00452623 0.000967955 0)
(0.00641759 0.000941137 0)
(0.00804164 0.00084151 0)
(0.0103782 0.000950628 0)
(0.0130872 0.000750819 0)
(0.0197941 0.000685604 0)
(0.0304207 -0.000589059 0)
(0.0372571 -0.000722638 0)
(0.00328374 0.000376154 0)
(-0.0966682 0.00538693 0)
(-0.0802235 0.0141424 0)
(0.0327868 -0.0995083 0)
(0.0596334 -0.0502227 0)
(0.069776 -0.083974 0)
(0.107259 -0.0666077 0)
(0.0937751 -0.0728459 0)
(0.0233483 -0.0980918 0)
(-0.0416831 -0.11961 0)
(-0.0917638 -0.119706 0)
(-0.115439 -0.0955483 0)
(-0.102987 -0.0589039 0)
(-0.07352 -0.0300112 0)
(-0.056434 -0.0165592 0)
(-0.0545634 -0.0120442 0)
(-0.0551634 -0.0100377 0)
(-0.0501614 -0.00773798 0)
(-0.0399715 -0.00466382 0)
(-0.028273 -0.0016881 0)
(-0.0183793 9.02424e-05 0)
(-0.0121946 0.0007104 0)
(-0.00905676 0.000779307 0)
(-0.00746315 0.00074468 0)
(-0.00642627 0.000759561 0)
(-0.00545293 0.000839725 0)
(-0.00440221 0.000959923 0)
(-0.00324297 0.00108829 0)
(-0.00206846 0.00120712 0)
(-0.000734327 0.00128671 0)
(0.000930631 0.00135029 0)
(0.00283354 0.00137086 0)
(0.00447864 0.00129098 0)
(0.00635124 0.00124148 0)
(0.00803884 0.00112106 0)
(0.0103347 0.00119048 0)
(0.0129337 0.000998046 0)
(0.019127 0.000831207 0)
(0.0297336 -0.000347387 0)
(0.0377979 -0.000638249 0)
(0.00620294 0.000828409 0)
(-0.0911902 0.00514567 0)
(-0.0770416 0.0108354 0)
(0.0418281 -0.0270392 0)
(0.0594177 -0.0211223 0)
(0.0555664 -0.0368437 0)
(0.0986229 -0.0531309 0)
(0.0704059 -0.0702236 0)
(-0.00329112 -0.104923 0)
(-0.0452924 -0.113749 0)
(-0.0768906 -0.104597 0)
(-0.0874134 -0.0815521 0)
(-0.0743094 -0.0500052 0)
(-0.0555082 -0.0279477 0)
(-0.0485415 -0.0175411 0)
(-0.0514106 -0.013754 0)
(-0.0527097 -0.0114152 0)
(-0.0471539 -0.00823074 0)
(-0.0368224 -0.00459789 0)
(-0.0258894 -0.00147609 0)
(-0.0171842 0.000335589 0)
(-0.0118329 0.00099404 0)
(-0.00901897 0.00111008 0)
(-0.00745689 0.00111616 0)
(-0.00636801 0.00116227 0)
(-0.00534612 0.00126475 0)
(-0.00427412 0.00140048 0)
(-0.00311859 0.00153863 0)
(-0.00196779 0.00166126 0)
(-0.00066165 0.00175817 0)
(0.000964502 0.00182276 0)
(0.00279109 0.00181134 0)
(0.00440155 0.00170923 0)
(0.00625384 0.00163191 0)
(0.00799249 0.00149006 0)
(0.0102597 0.00150615 0)
(0.012741 0.00132234 0)
(0.0184976 0.00111202 0)
(0.0290046 0.000161809 0)
(0.0383901 -0.000235844 0)
(0.00885733 0.00159734 0)
(-0.0870252 0.0048972 0)
(-0.0747407 0.00890438 0)
(0.0384885 -0.00238928 0)
(0.0501853 -0.0169735 0)
(0.0389314 -0.0324611 0)
(0.0750929 -0.0479592 0)
(0.0438662 -0.0795634 0)
(-0.0185942 -0.0972226 0)
(-0.0413691 -0.0987223 0)
(-0.0607378 -0.0874431 0)
(-0.0628315 -0.0656788 0)
(-0.0513319 -0.0407527 0)
(-0.0422365 -0.0249233 0)
(-0.0427565 -0.0179334 0)
(-0.0486602 -0.0150252 0)
(-0.049841 -0.0122206 0)
(-0.0435921 -0.00825285 0)
(-0.0334625 -0.00418321 0)
(-0.0235189 -0.00103521 0)
(-0.015999 0.000740119 0)
(-0.0114482 0.00140958 0)
(-0.00893908 0.0015785 0)
(-0.00741285 0.00163665 0)
(-0.00628309 0.00171887 0)
(-0.00522337 0.00183923 0)
(-0.0041383 0.00197813 0)
(-0.00299168 0.00210962 0)
(-0.0018569 0.00222141 0)
(-0.00057869 0.00231857 0)
(0.000981873 0.00236064 0)
(0.00272413 0.0022958 0)
(0.00430574 0.00215293 0)
(0.00614004 0.002022 0)
(0.00791764 0.00183394 0)
(0.0101731 0.0017717 0)
(0.0125539 0.00157128 0)
(0.0180087 0.00134237 0)
(0.0284348 0.000545543 0)
(0.0391812 0.000133434 0)
(0.0111493 0.00239879 0)
(-0.0841489 0.00519923 0)
(-0.0731801 0.00929679 0)
(0.0277742 -0.00201731 0)
(0.0304393 -0.0270581 0)
(0.0257074 -0.0420704 0)
(0.0532335 -0.0449172 0)
(0.0229339 -0.0822262 0)
(-0.0217534 -0.0847309 0)
(-0.0358685 -0.0828083 0)
(-0.0450487 -0.0701876 0)
(-0.0424208 -0.0503126 0)
(-0.0350359 -0.03269 0)
(-0.0335188 -0.0219985 0)
(-0.0390033 -0.0178304 0)
(-0.0459055 -0.0155363 0)
(-0.0461836 -0.0120817 0)
(-0.0394088 -0.00749593 0)
(-0.0298672 -0.00324066 0)
(-0.0211451 -0.000105742 0)
(-0.0148283 0.00154603 0)
(-0.011025 0.00221154 0)
(-0.00880016 0.00242982 0)
(-0.00732163 0.0025396 0)
(-0.0061728 0.00265284 0)
(-0.00509629 0.00278033 0)
(-0.00401356 0.00290815 0)
(-0.00288415 0.00301668 0)
(-0.00176645 0.00310065 0)
(-0.000527481 0.0031711 0)
(0.000942559 0.00317227 0)
(0.00259093 0.00304025 0)
(0.00413771 0.00283666 0)
(0.00594645 0.00262904 0)
(0.00775129 0.0023679 0)
(0.0100066 0.00220636 0)
(0.0123273 0.00195383 0)
(0.0175092 0.00171845 0)
(0.0278397 0.000985657 0)
(0.040176 0.00064069 0)
(0.0137389 0.00293632 0)
(-0.080378 0.0056324 0)
(-0.0707922 0.0107676 0)
(0.0143582 -0.0122216 0)
(0.0115887 -0.0378977 0)
(0.0217217 -0.0443116 0)
(0.0363973 -0.0468303 0)
(0.00550028 -0.0760397 0)
(-0.0191551 -0.0730683 0)
(-0.0273547 -0.066326 0)
(-0.0294238 -0.0522593 0)
(-0.0266974 -0.0369026 0)
(-0.0240474 -0.0258142 0)
(-0.0279173 -0.0195491 0)
(-0.0365292 -0.0173724 0)
(-0.0431205 -0.0152166 0)
(-0.042093 -0.0111317 0)
(-0.0350725 -0.00618204 0)
(-0.0263411 -0.00196453 0)
(-0.0189062 0.000977001 0)
(-0.0137659 0.00249282 0)
(-0.0105966 0.00314999 0)
(-0.00862295 0.00341672 0)
(-0.00719794 0.00357656 0)
(-0.00605111 0.00371736 0)
(-0.00497735 0.00384807 0)
(-0.00391054 0.00396151 0)
(-0.00280618 0.00404419 0)
(-0.0017081 0.00409606 0)
(-0.000509671 0.0041289 0)
(0.00085578 0.00408349 0)
(0.00240072 0.00388499 0)
(0.00390949 0.00361993 0)
(0.00568833 0.00333762 0)
(0.00751033 0.00300798 0)
(0.00977407 0.0027542 0)
(0.0120838 0.00245691 0)
(0.0170757 0.00221158 0)
(0.0273962 0.00156435 0)
(0.0410609 0.0013378 0)
(0.0159595 0.00336587 0)
(-0.0766024 0.00615872 0)
(-0.0682316 0.0125338 0)
(0.00303172 -0.0193746 0)
(-0.000483816 -0.0400401 0)
(0.0170997 -0.0416594 0)
(0.0226592 -0.0542192 0)
(-0.00235005 -0.0613699 0)
(-0.012393 -0.0572938 0)
(-0.0158162 -0.047921 0)
(-0.0166952 -0.0369207 0)
(-0.0169373 -0.0269145 0)
(-0.0183135 -0.0205857 0)
(-0.0253839 -0.0178051 0)
(-0.0348283 -0.0168702 0)
(-0.0398917 -0.0142863 0)
(-0.0374776 -0.00956963 0)
(-0.030575 -0.00444823 0)
(-0.0229685 -0.000250236 0)
(-0.0168498 0.00234661 0)
(-0.0127344 0.00377596 0)
(-0.0101347 0.00444374 0)
(-0.0083891 0.00476823 0)
(-0.00703192 0.00497448 0)
(-0.00591117 0.00512876 0)
(-0.00486102 0.00524207 0)
(-0.00382457 0.00531752 0)
(-0.0027545 0.00535105 0)
(-0.00168481 0.00535637 0)
(-0.000539588 0.00531942 0)
(0.000707511 0.00518946 0)
(0.00214422 0.00491928 0)
(0.00361025 0.00457294 0)
(0.00535675 0.00420671 0)
(0.00718909 0.00379633 0)
(0.00947556 0.00345502 0)
(0.0118044 0.00310267 0)
(0.0166491 0.00284431 0)
(0.0269977 0.00223534 0)
(0.041912 0.00212185 0)
(0.0183845 0.00380967 0)
(-0.0715435 0.00687401 0)
(-0.0646489 0.0149079 0)
(-0.00555579 -0.0183956 0)
(-0.00988572 -0.0341256 0)
(0.0080582 -0.0387092 0)
(0.0174035 -0.0499464 0)
(0.00253749 -0.040878 0)
(-0.00619523 -0.0383997 0)
(-0.00772244 -0.0320474 0)
(-0.00918125 -0.0259069 0)
(-0.0109564 -0.0200398 0)
(-0.0152692 -0.0169877 0)
(-0.0243369 -0.0164597 0)
(-0.0331384 -0.0157218 0)
(-0.0360854 -0.0123438 0)
(-0.0326126 -0.00724784 0)
(-0.026092 -0.00231229 0)
(-0.0197933 0.00145179 0)
(-0.0150265 0.0037265 0)
(-0.0117451 0.00499673 0)
(-0.0096404 0.00564742 0)
(-0.00811151 0.00600809 0)
(-0.00685053 0.00625126 0)
(-0.00579325 0.00642441 0)
(-0.00479545 0.00654112 0)
(-0.00380552 0.00661233 0)
(-0.00276874 0.00664279 0)
(-0.00173858 0.00665142 0)
(-0.000670512 0.00657483 0)
(0.00047019 0.00641227 0)
(0.00180661 0.00613055 0)
(0.00322283 0.00575015 0)
(0.00493996 0.00534807 0)
(0.00678598 0.00491002 0)
(0.00910563 0.0045407 0)
(0.0114953 0.00418541 0)
(0.0162399 0.00395618 0)
(0.0267 0.00342644 0)
(0.042578 0.00345219 0)
(0.0205389 0.00474516 0)
(-0.0659077 0.00790695 0)
(-0.0604899 0.0171917 0)
(-0.0121262 -0.0128982 0)
(-0.0200587 -0.0240985 0)
(0.00185416 -0.0310698 0)
(0.0205693 -0.0324845 0)
(0.00877678 -0.0251225 0)
(-0.00388341 -0.0246339 0)
(-0.00377769 -0.0212343 0)
(-0.0051243 -0.0177391 0)
(-0.00834247 -0.0146793 0)
(-0.0148636 -0.0141588 0)
(-0.024164 -0.0148489 0)
(-0.0308621 -0.0136097 0)
(-0.0317258 -0.00972584 0)
(-0.0278109 -0.00444688 0)
(-0.0221917 0.00021386 0)
(-0.0171493 0.00332364 0)
(-0.0134338 0.00532832 0)
(-0.0108833 0.00644505 0)
(-0.00916012 0.00708036 0)
(-0.00780722 0.00747104 0)
(-0.00663073 0.00773578 0)
(-0.00563185 0.00790492 0)
(-0.00467994 0.00800392 0)
(-0.0037266 0.00805994 0)
(-0.00271683 0.00808739 0)
(-0.0017503 0.00809842 0)
(-0.000770039 0.00799307 0)
(0.000279386 0.00782685 0)
(0.00150618 0.00754973 0)
(0.00285623 0.00716871 0)
(0.00454717 0.00676361 0)
(0.00641108 0.00633048 0)
(0.00877731 0.00598563 0)
(0.0112411 0.00566681 0)
(0.0159177 0.00550358 0)
(0.026512 0.00507595 0)
(0.0431827 0.00520633 0)
(0.0226773 0.00625468 0)
(-0.0595495 0.00955146 0)
(-0.0557018 0.0197996 0)
(-0.0163488 -0.00866601 0)
(-0.0273966 -0.0161319 0)
(-2.28608e-05 -0.0199541 0)
(0.0231346 -0.0181425 0)
(0.0101026 -0.0152326 0)
(-0.00244837 -0.0153449 0)
(-0.00107835 -0.013199 0)
(-0.0028646 -0.0118896 0)
(-0.00750632 -0.0110958 0)
(-0.0154326 -0.0119843 0)
(-0.0238078 -0.0125602 0)
(-0.0282017 -0.0105569 0)
(-0.0272558 -0.00635378 0)
(-0.0230344 -0.00138874 0)
(-0.0186041 0.00256456 0)
(-0.0148648 0.00520466 0)
(-0.0120186 0.00682722 0)
(-0.0100568 0.00773202 0)
(-0.00865172 0.00826373 0)
(-0.00747992 0.00862266 0)
(-0.00643242 0.00891125 0)
(-0.00553486 0.00914811 0)
(-0.00464606 0.00933873 0)
(-0.00372509 0.00948562 0)
(-0.00273167 0.00958488 0)
(-0.00182947 0.00963771 0)
(-0.000932202 0.00955258 0)
(4.2974e-05 0.0094139 0)
(0.0011724 0.00914592 0)
(0.00246529 0.00878847 0)
(0.00413222 0.00840793 0)
(0.00603629 0.00801482 0)
(0.00846609 0.00774512 0)
(0.0110307 0.00753273 0)
(0.0156706 0.00751926 0)
(0.0264136 0.00730172 0)
(0.0437139 0.00768085 0)
(0.024726 0.00875324 0)
(-0.0528553 0.0120635 0)
(-0.0506144 0.0230909 0)
(-0.0193207 -0.00530265 0)
(-0.0309363 -0.00993768 0)
(-8.33006e-05 -0.0111747 0)
(0.0251191 -0.00951806 0)
(0.0114726 -0.00642468 0)
(-0.00192381 -0.00673336 0)
(-0.000448078 -0.00592742 0)
(-0.00309756 -0.00647344 0)
(-0.00843368 -0.00782597 0)
(-0.0162748 -0.0096412 0)
(-0.0227886 -0.00948248 0)
(-0.0248813 -0.00643622 0)
(-0.0228911 -0.00169141 0)
(-0.0192168 0.00250692 0)
(-0.0158381 0.00568483 0)
(-0.0130417 0.00796266 0)
(-0.0109983 0.00935214 0)
(-0.00949902 0.0101994 0)
(-0.00830186 0.0107527 0)
(-0.00718325 0.0111444 0)
(-0.00612439 0.0114293 0)
(-0.00521991 0.0116165 0)
(-0.0043547 0.0117389 0)
(-0.0034894 0.0118242 0)
(-0.00257026 0.0118712 0)
(-0.00178143 0.0118851 0)
(-0.000985712 0.0117894 0)
(-0.000112483 0.0116658 0)
(0.000903482 0.0113973 0)
(0.00214507 0.0110921 0)
(0.00380166 0.010759 0)
(0.00577238 0.0104184 0)
(0.00831274 0.0102452 0)
(0.0110235 0.0101454 0)
(0.0156951 0.0102785 0)
(0.0266677 0.0103231 0)
(0.0445815 0.0109247 0)
(0.0269006 0.0121065 0)
(-0.0457332 0.015114 0)
(-0.0450753 0.0254096 0)
(-0.0208152 0.000888686 0)
(-0.0330551 -0.00115821 0)
(0.000381494 -0.00196319 0)
(0.0277119 -0.000451746 0)
(0.012786 0.000858159 0)
(-0.00196919 -1.84794e-05 0)
(-0.000827878 -0.000460412 0)
(-0.00469411 -0.00224345 0)
(-0.0105589 -0.00467368 0)
(-0.0170289 -0.00609286 0)
(-0.0207193 -0.00479684 0)
(-0.0206939 -0.0010365 0)
(-0.0186378 0.00313971 0)
(-0.0159263 0.00661756 0)
(-0.0133467 0.00934726 0)
(-0.0113309 0.0112768 0)
(-0.00986314 0.0125577 0)
(-0.0087071 0.0133961 0)
(-0.00774111 0.0139083 0)
(-0.00682796 0.0142141 0)
(-0.00597746 0.0144732 0)
(-0.00523651 0.0147057 0)
(-0.00444588 0.0148334 0)
(-0.0035976 0.0148375 0)
(-0.00267307 0.0147623 0)
(-0.00190832 0.0146667 0)
(-0.00114352 0.0144937 0)
(-0.000334859 0.0143181 0)
(0.000619589 0.0140659 0)
(0.00185024 0.0138363 0)
(0.00348303 0.0135602 0)
(0.00554117 0.0133063 0)
(0.00820301 0.0132581 0)
(0.0110629 0.013297 0)
(0.0158418 0.0135758 0)
(0.0270362 0.0137981 0)
(0.0454324 0.0145016 0)
(0.028763 0.016032 0)
(-0.0400359 0.0184197 0)
(-0.0406931 0.0258991 0)
(-0.0212931 0.00893252 0)
(-0.0336845 0.00957541 0)
(0.000597471 0.0104072 0)
(0.0278379 0.0107843 0)
(0.0118902 0.00926343 0)
(-0.00319443 0.00767744 0)
(-0.00259214 0.0059093 0)
(-0.00715763 0.00336893 0)
(-0.0121431 0.00124476 0)
(-0.0163934 0.00136895 0)
(-0.0179161 0.00353764 0)
(-0.0172334 0.00705844 0)
(-0.0155153 0.0105644 0)
(-0.013235 0.013731 0)
(-0.0113483 0.0162431 0)
(-0.00994799 0.0181962 0)
(-0.00895612 0.0197703 0)
(-0.00819754 0.0210231 0)
(-0.00751363 0.0219263 0)
(-0.00663889 0.0224775 0)
(-0.00565063 0.0227687 0)
(-0.00487277 0.0227994 0)
(-0.00422769 0.022549 0)
(-0.00355791 0.0221113 0)
(-0.00273485 0.0216261 0)
(-0.0020403 0.0212401 0)
(-0.00132169 0.0208236 0)
(-0.000524724 0.0204848 0)
(0.000439234 0.0201026 0)
(0.00165774 0.019749 0)
(0.00329092 0.0193714 0)
(0.00548129 0.0190985 0)
(0.00830382 0.0191111 0)
(0.0113296 0.0192646 0)
(0.016178 0.0196426 0)
(0.0275598 0.0201121 0)
(0.0467341 0.0209538 0)
(0.0306763 0.0225225 0)
(-0.0362249 0.0229008 0)
(-0.0378679 0.0253923 0)
(-0.0201957 0.0202521 0)
(-0.031634 0.0248605 0)
(0.00154643 0.0265133 0)
(0.0266097 0.0256595 0)
(0.00979213 0.0208931 0)
(-0.00520136 0.0188539 0)
(-0.00497971 0.0160235 0)
(-0.00918903 0.0136033 0)
(-0.0124861 0.0122812 0)
(-0.0148194 0.0135473 0)
(-0.0152367 0.0161758 0)
(-0.0139228 0.0194775 0)
(-0.0122079 0.0228362 0)
(-0.0104541 0.0257083 0)
(-0.00904398 0.0279345 0)
(-0.00793194 0.0296672 0)
(-0.00713897 0.0310163 0)
(-0.00662953 0.0320791 0)
(-0.00633959 0.0329104 0)
(-0.00601612 0.0334963 0)
(-0.00566729 0.0337867 0)
(-0.00544825 0.0337804 0)
(-0.00510893 0.0335963 0)
(-0.00448694 0.0333666 0)
(-0.00351265 0.0330506 0)
(-0.00268167 0.0327871 0)
(-0.00187133 0.0323995 0)
(-0.0010296 0.0322185 0)
(-8.94677e-05 0.0319189 0)
(0.00114564 0.0316604 0)
(0.00285618 0.0315748 0)
(0.00529034 0.0316445 0)
(0.00836312 0.0320643 0)
(0.011575 0.032604 0)
(0.0166585 0.0333789 0)
(0.0282997 0.0342478 0)
(0.0477552 0.0353801 0)
(0.0306392 0.0366698 0)
(-0.0372704 0.0335042 0)
(-0.0382921 0.0275927 0)
(-0.0168522 -0.00873472 0)
(-0.0276509 0.0424257 0)
(0.0013674 0.0600292 0)
(0.022422 0.0539126 0)
(0.00533198 0.0431907 0)
(-0.00788689 0.0396479 0)
(-0.00765177 0.0348586 0)
(-0.0107638 0.0319394 0)
(-0.0121971 0.0308566 0)
(-0.0126404 0.0321278 0)
(-0.0122015 0.0343685 0)
(-0.0108152 0.0365133 0)
(-0.00951109 0.0378701 0)
(-0.00832211 0.0384919 0)
(-0.0075334 0.0385084 0)
(-0.00697824 0.0383098 0)
(-0.00663184 0.038005 0)
(-0.00637234 0.037664 0)
(-0.00614805 0.0374383 0)
(-0.00579442 0.0374674 0)
(-0.00537681 0.0376571 0)
(-0.00505622 0.0380185 0)
(-0.00462648 0.0385843 0)
(-0.0040838 0.0394689 0)
(-0.00329321 0.040521 0)
(-0.00266767 0.041838 0)
(-0.00186964 0.0431862 0)
(-0.00098787 0.0444334 0)
(-9.86105e-05 0.0456767 0)
(0.00132617 0.0467249 0)
(0.00327568 0.0478229 0)
(0.005953 0.0487735 0)
(0.00922837 0.050009 0)
(0.0125963 0.051212 0)
(0.017762 0.0529497 0)
(0.0294883 0.0542024 0)
(0.0490681 0.0555119 0)
(0.0288686 0.0585242 0)
(-0.0449719 0.0482611 0)
(-0.0435645 -0.00951474 0)
(0.0291043 -0.535159 0)
(0.0346294 -0.078113 0)
(0.0126156 0.0548882 0)
(0.0103835 0.0330533 0)
(-0.00395379 0.0202237 0)
(-0.0132305 0.0140861 0)
(-0.0124079 0.00872753 0)
(-0.0130455 0.00464309 0)
(-0.0123046 0.00272782 0)
(-0.0114352 0.00182038 0)
(-0.0110107 0.00177465 0)
(-0.0105485 0.00145625 0)
(-0.0103012 0.00091693 0)
(-0.009839 -5.96286e-05 0)
(-0.00921944 -0.00121902 0)
(-0.00841702 -0.00227088 0)
(-0.00776132 -0.00296719 0)
(-0.00717558 -0.00312036 0)
(-0.00652904 -0.00265799 0)
(-0.00580536 -0.00170081 0)
(-0.00513621 -0.000874541 0)
(-0.00455468 -2.7918e-05 0)
(-0.0037113 0.00158745 0)
(-0.00262074 0.0039186 0)
(-0.00122964 0.00653102 0)
(-0.000113389 0.00937289 0)
(0.000629685 0.0126963 0)
(0.00137035 0.0154308 0)
(0.00211869 0.0184005 0)
(0.00321384 0.0210495 0)
(0.00483024 0.0236619 0)
(0.00739696 0.0260502 0)
(0.010713 0.0285656 0)
(0.0144087 0.0309217 0)
(0.0195401 0.0334789 0)
(0.0307687 0.0340704 0)
(0.0519198 0.0326241 0)
(0.0236521 0.0261191 0)
(-0.102835 -0.091128 0)
(-0.0939671 -0.488683 0)
(0.423574 -0.526319 0)
(0.54094 -0.547864 0)
(0.108491 -0.146121 0)
(-0.0109821 -0.131209 0)
(-0.0129456 -0.143642 0)
(-0.018965 -0.149178 0)
(-0.0167514 -0.15425 0)
(-0.0165454 -0.158246 0)
(-0.0149171 -0.159662 0)
(-0.0135589 -0.160058 0)
(-0.0125524 -0.158817 0)
(-0.0116417 -0.156483 0)
(-0.0109718 -0.152575 0)
(-0.0103804 -0.14791 0)
(-0.00966425 -0.142496 0)
(-0.00866284 -0.13668 0)
(-0.00745043 -0.130542 0)
(-0.00607439 -0.12422 0)
(-0.00478012 -0.117861 0)
(-0.00407582 -0.111869 0)
(-0.00376476 -0.107569 0)
(-0.00268376 -0.104497 0)
(-0.000823465 -0.100809 0)
(0.000680002 -0.0970286 0)
(0.00196273 -0.0929222 0)
(0.00327338 -0.0890387 0)
(0.00396799 -0.0837982 0)
(0.00450899 -0.0789798 0)
(0.00531574 -0.0732498 0)
(0.0063962 -0.0673318 0)
(0.00809455 -0.0606789 0)
(0.0106784 -0.0536647 0)
(0.0139227 -0.0460829 0)
(0.017331 -0.0390063 0)
(0.0207962 -0.0333129 0)
(0.0286645 -0.032623 0)
(0.041406 -0.0390982 0)
(-0.0903835 -0.0966131 0)
(-0.541054 -0.553299 0)
(-0.426663 -0.474966 0)
(0.00834265 -0.0138529 0)
(0.401001 -0.444753 0)
(0.414119 -0.159072 0)
(0.0127731 -0.127592 0)
(-0.0212692 -0.134421 0)
(-0.0234531 -0.13623 0)
(-0.0211467 -0.139078 0)
(-0.0182603 -0.140791 0)
(-0.0140498 -0.140858 0)
(-0.0106209 -0.139891 0)
(-0.00756649 -0.137809 0)
(-0.00453422 -0.134717 0)
(-0.00203924 -0.130433 0)
(-0.000125961 -0.125447 0)
(0.00160226 -0.119792 0)
(0.0031021 -0.113756 0)
(0.00424499 -0.107583 0)
(0.00504406 -0.101619 0)
(0.00537342 -0.0960448 0)
(0.00411271 -0.0910822 0)
(0.00196701 -0.0875472 0)
(0.00195955 -0.0851342 0)
(0.00348579 -0.0827287 0)
(0.00497901 -0.0806623 0)
(0.00646973 -0.0782675 0)
(0.00867875 -0.0759852 0)
(0.0103227 -0.0726581 0)
(0.0115352 -0.0693907 0)
(0.0133431 -0.0653668 0)
(0.0153277 -0.0610604 0)
(0.0180004 -0.0560983 0)
(0.0214621 -0.0507807 0)
(0.0248383 -0.0449076 0)
(0.0267144 -0.0394532 0)
(0.0256913 -0.0351701 0)
(0.0251938 -0.0343733 0)
(-0.00974342 -0.0387718 0)
(-0.471851 -0.0874528 0)
(-0.46743 -0.434634 0)
(-0.0184824 -0.011051 0)
(0.00834265 0.0138529 0)
(0.401001 0.444753 0)
(0.414119 0.159072 0)
(0.0127731 0.127592 0)
(-0.0212692 0.134421 0)
(-0.0234531 0.13623 0)
(-0.0211467 0.139078 0)
(-0.0182603 0.140791 0)
(-0.0140498 0.140858 0)
(-0.0106209 0.139891 0)
(-0.00756649 0.137809 0)
(-0.00453422 0.134717 0)