/*--------------------------------*- C++ -*----------------------------------*\
| =========                 |                                                 |
| \\      /  F ield         | OpenFOAM: The Open Source CFD Toolbox           |
|  \\    /   O peration     | Version:  v1912                                 |
|   \\  /    A nd           | Website:  www.openfoam.com                      |
|    \\/     M anipulation  |                                                 |
\*---------------------------------------------------------------------------*/
FoamFile
{
    version     2.0;
    format      ascii;
    class       volTensorField;
    location    "2.9";
    object      grad(U);
}
// * * * * * * * * * * * * * * * * * * * * * * * * * * * * * * * * * * * * * //

dimensions      [0 0 -1 0 0 0 0];


internalField   nonuniform List<tensor> 
1900
(
(-2.45996 -2.13796e-05 0 -2.53639e-05 -2.52095e-05 0 0 0 0)
(1.75418 -1.43698e-05 0 -3.51398e-05 -3.21184e-05 0 0 0 0)
(-0.0428785 4.3859e-05 0 -4.91895e-05 -4.41841e-05 0 0 0 0)
(-0.0425121 0.000548339 0 -2.95274e-05 9.7106e-05 0 0 0 0)
(-0.0434228 0.00173364 0 0.000323079 0.00105135 0 0 0 0)
(-0.0486391 0.00232716 0 0.00176988 0.00355977 0 0 0 0)
(-0.0517169 -0.00596119 0 0.0053966 0.00584931 0 0 0 0)
(-0.046622 -0.0273244 0 0.0082356 -0.00514371 0 0 0 0)
(0.028265 -0.0845879 0 -0.00273724 -0.0384867 0 0 0 0)
(0.0201951 -0.252775 0 -0.075793 -0.161715 0 0 0 0)
(-2.46002 -3.59483e-05 0 -3.28189e-05 8.74829e-06 0 0 0 0)
(1.75416 -4.60483e-06 0 -4.40318e-05 1.26313e-05 0 0 0 0)
(-0.0428729 8.53655e-05 0 -5.64497e-05 2.31181e-05 0 0 0 0)
(-0.0421398 0.000547196 0 6.3062e-05 -3.12277e-05 0 0 0 0)
(-0.0416234 0.00172903 0 0.000719752 -0.000525221 0 0 0 0)
(-0.0435655 0.00247079 0 0.00291303 -0.00176486 0 0 0 0)
(-0.0452512 -0.00274228 0 0.00750296 -0.00285238 0 0 0 0)
(-0.0547558 -0.0170116 0 0.0101116 0.00419633 0 0 0 0)
(-0.0557635 -0.0719832 0 -0.00309061 0.024472 0 0 0 0)
(-0.148382 -0.176995 0 -0.113901 0.0887842 0 0 0 0)
(-2.46003 -2.09098e-13 0 -8.40257e-14 3.29224e-05 0 0 0 0)
(1.75416 -2.06807e-14 0 -4.68917e-14 3.89742e-05 0 0 0 0)
(-0.0427714 2.07819e-13 0 -1.28749e-14 4.2132e-05 0 0 0 0)
(-0.0417359 3.56058e-13 0 1.62901e-13 -0.000131757 0 0 0 0)
(-0.0405728 -3.44324e-14 0 -1.39591e-14 -0.00105226 0 0 0 0)
(-0.0418559 -2.18684e-13 0 -6.13929e-14 -0.00358981 0 0 0 0)
(-0.0445183 -7.98789e-14 0 -1.48129e-13 -0.00599385 0 0 0 0)
(-0.0572156 -2.08858e-13 0 -1.48129e-13 0.00189475 0 0 0 0)
(-0.0957481 -9.72921e-14 0 -1.01644e-14 0.0280294 0 0 0 0)
(-0.204013 1.01674e-13 0 1.82146e-13 0.145861 0 0 0 0)
(-2.46002 3.59483e-05 0 3.28189e-05 8.74829e-06 0 0 0 0)
(1.75416 4.60483e-06 0 4.40318e-05 1.26313e-05 0 0 0 0)
(-0.0428729 -8.53655e-05 0 5.64497e-05 2.31181e-05 0 0 0 0)
(-0.0421398 -0.000547196 0 -6.3062e-05 -3.12277e-05 0 0 0 0)
(-0.0416234 -0.00172903 0 -0.000719752 -0.000525221 0 0 0 0)
(-0.0435655 -0.00247079 0 -0.00291303 -0.00176486 0 0 0 0)
(-0.0452512 0.00274228 0 -0.00750296 -0.00285238 0 0 0 0)
(-0.0547558 0.0170116 0 -0.0101116 0.00419633 0 0 0 0)
(-0.0557635 0.0719832 0 0.00309061 0.024472 0 0 0 0)
(-0.148382 0.176995 0 0.113901 0.0887842 0 0 0 0)
(-2.45996 2.13796e-05 0 2.53639e-05 -2.52095e-05 0 0 0 0)
(1.75418 1.43698e-05 0 3.51398e-05 -3.21184e-05 0 0 0 0)
(-0.0428785 -4.3859e-05 0 4.91895e-05 -4.41841e-05 0 0 0 0)
(-0.0425121 -0.000548339 0 2.95274e-05 9.7106e-05 0 0 0 0)
(-0.0434228 -0.00173364 0 -0.000323079 0.00105135 0 0 0 0)
(-0.0486391 -0.00232716 0 -0.00176988 0.00355977 0 0 0 0)
(-0.0517169 0.00596119 0 -0.0053966 0.00584931 0 0 0 0)
(-0.046622 0.0273244 0 -0.0082356 -0.00514371 0 0 0 0)
(0.028265 0.0845879 0 0.00273724 -0.0384867 0 0 0 0)
(0.0201951 0.252775 0 0.075793 -0.161715 0 0 0 0)
(-0.143818 -0.423102 1.42644e-17 -0.243483 0.196179 -2.13966e-17 -6.41435e-17 -7.51529e-17 3.86638e-33)
(-0.291371 -0.498276 0 -0.333952 0.316354 0 1.66745e-16 6.24658e-17 0)
(-0.367104 -0.587796 0 -0.502001 0.337165 0 2.6177e-16 1.13813e-16 0)
(-1.30191 -0.346127 0 -1.20181 0.62167 0 0 0 0)
(0.292479 -2.11391 -5.24259e-16 -4.10716 4.46174 7.86389e-16 1.97191e-15 1.31461e-15 1.42101e-31)
(-0.299048 -0.256006 0 -0.22134 0.258604 0 -1.08141e-16 -3.97033e-17 0)
(-0.507399 -0.340396 0 -0.27572 0.408668 0 -1.66745e-16 -6.24658e-17 0)
(-0.858378 -0.497173 0 -0.57282 0.72334 0 -2.6177e-16 -1.13813e-16 0)
(-1.61723 -0.374026 0 -1.32528 1.26891 0 0 0 0)
(-1.15172 0.339838 0 -1.57443 1.46159 0 0 0 0)
(-0.37609 7.19709e-14 0 4.44385e-14 0.361668 0 0 0 0)
(-0.659057 4.52638e-13 0 -3.50701e-14 0.565414 0 0 0 0)
(-1.15644 1.1015e-13 0 3.25261e-13 1.0727 0 0 0 0)
(-1.98693 -1.9724e-13 0 -5.44154e-14 1.93172 0 0 0 0)
(-1.44083 1.48074e-13 0 1.96834e-13 2.70348 0 0 0 0)
(-0.299048 0.256006 0 0.22134 0.258604 0 -1.08141e-16 3.97033e-17 0)
(-0.507399 0.340396 0 0.27572 0.408668 0 -1.66745e-16 6.24658e-17 0)
(-0.858378 0.497173 0 0.57282 0.72334 0 -2.6177e-16 1.13813e-16 0)
(-1.61723 0.374026 0 1.32528 1.26891 0 0 0 0)
(-1.15172 -0.339838 0 1.57443 1.46159 0 0 0 0)
(-0.143818 0.423102 -1.42644e-17 0.243483 0.196179 -2.13966e-17 2.80425e-16 -1.5456e-16 3.86638e-33)
(-0.291371 0.498276 0 0.333952 0.316354 0 1.66745e-16 -6.24658e-17 0)
(-0.367104 0.587796 0 0.502001 0.337165 0 2.6177e-16 -1.13813e-16 0)
(-1.30191 0.346127 -3.83833e-17 1.20181 0.62167 -5.7575e-17 7.7424e-16 -5.1616e-16 1.04038e-32)
(0.292479 2.11391 5.24259e-16 4.10716 4.46174 7.86389e-16 -1.97191e-15 1.31461e-15 1.42101e-31)
(0.188246 0.543554 3.28932e-18 -0.501936 -1.14186 2.96039e-17 -1.21194e-15 9.85911e-17 -8.91571e-34)
(0.759692 -0.031235 -1.05573e-18 -0.253724 -0.544748 -9.5016e-18 8.12055e-16 -7.29733e-17 -2.86157e-34)
(0.434215 0.0586036 0 0.0560414 -0.308735 0 0 0 0)
(-0.0981613 0.396135 -1.43092e-18 0.699165 0.317497 -1.28783e-17 -4.59362e-16 6.29418e-17 3.87852e-34)
(-1.10789 0.429407 5.01354e-18 2.20212 1.64955 4.51218e-17 2.59217e-16 -2.88019e-17 1.35892e-33)
(0.527567 0.535961 0 -0.60343 -0.612388 0 6.13528e-16 -3.2101e-17 0)
(0.8837 -0.0398465 0 -0.230794 -0.584195 0 -4.09848e-16 2.82836e-17 0)
(0.754192 0.0879952 0 0.219223 -0.509169 0 0 0 0)
(0.758662 0.478703 0 1.0614 -0.656914 0 2.65949e-16 -4.03688e-17 0)
(1.30725 0.382096 0 3.27214 -1.22729 0 -2.35876e-17 1.03798e-17 0)
(0.667158 2.00613e-13 0 8.67909e-13 -0.906994 0 0 0 0)
(1.00122 6.1283e-13 0 2.17535e-12 -0.709879 0 0 0 0)
(0.913722 5.62549e-13 0 4.16213e-12 -0.565092 0 0 0 0)
(1.20537 3.43787e-13 0 6.25099e-12 -1.0936 0 -9.35935e-17 4.56461e-29 0)
(1.93283 -4.01857e-13 0 9.63696e-12 -2.75721 0 4.71751e-17 -5.82715e-29 0)
(0.527567 -0.535961 0 0.60343 -0.612388 0 6.13528e-16 3.2101e-17 0)
(0.8837 0.0398465 0 0.230794 -0.584195 0 -4.09848e-16 -2.82836e-17 0)
(0.754192 -0.0879952 0 -0.219223 -0.509169 0 0 0 0)
(0.758662 -0.478703 0 -1.0614 -0.656914 0 2.65949e-16 4.03688e-17 0)
(1.30725 -0.382096 0 -3.27214 -1.22729 0 -2.35876e-17 -1.03798e-17 0)
(0.188246 -0.543554 0 0.501936 -1.14186 0 -6.13528e-16 -3.2101e-17 0)
(0.759692 0.031235 1.05573e-18 0.253724 -0.544748 -9.5016e-18 7.64132e-18 -1.6406e-17 -2.86157e-34)
(0.434215 -0.0586036 0 -0.0560414 -0.308735 0 0 0 0)
(-0.0981613 -0.396135 1.43092e-18 -0.699165 0.317497 -1.28783e-17 2.10566e-17 -9.56197e-18 3.87852e-34)
(-1.10789 -0.429407 -5.01354e-18 -2.20212 1.64955 4.51218e-17 -2.59217e-16 -2.88019e-17 1.35892e-33)
(0.657811 -0.901544 0 10.2778 -0.0468227 0 0 0 0)
(1.40844 -1.05006 0 5.82819 0.682951 0 0 0 0)
(-0.698532 0.128905 0 3.04406 1.0596 0 0 0 0)
(-0.730768 0.515187 0 0.819466 0.967496 0 0 0 0)
(-0.374417 0.286741 0 0.12222 0.631176 0 0 0 0)
(-0.163991 0.0691236 0 0.0341989 0.488771 0 0 0 0)
(-0.0229924 0.0203853 0 0.0202258 0.445661 0 0 0 0)
(0.0432817 0.0138064 0 0.00342502 0.420523 0 0 0 0)
(0.0949883 0.00526527 0 0.00218393 0.405094 0 0 0 0)
(0.125313 -0.000152934 0 0.00233147 0.404964 0 0 0 0)
(0.151993 0.000909698 0 0.00121149 0.40296 0 0 0 0)
(0.172745 0.000174235 0 0.000758103 0.402472 0 0 0 0)
(0.190366 -0.000260318 0 5.509e-05 0.402852 0 0 0 0)
(0.207567 -0.000621453 0 -0.000532056 0.403882 0 0 0 0)
(0.228992 -0.000904029 0 -0.000771034 0.405507 0 0 0 0)
(0.259049 -0.000974493 0 -0.000707677 0.407391 0 0 0 0)
(0.298989 -0.000860593 0 -0.000484014 0.409127 0 0 0 0)
(0.339285 -0.000269469 0 -0.000260348 0.410502 0 0 0 0)
(0.381509 -0.000797312 0 -3.44623e-05 0.410158 0 0 0 0)
(0.395345 -0.000721407 0 5.20432e-05 0.413291 0 0 0 0)
(0.396553 0.00114155 0 0.000281637 0.412641 0 0 0 0)
(0.38439 0.00100946 0 0.000461731 0.409379 0 0 0 0)
(0.344429 0.000624645 0 0.000723944 0.409095 0 0 0 0)
(0.30849 0.00125848 0 0.00094796 0.407093 0 0 0 0)
(0.274802 0.00149049 0 0.00113979 0.404606 0 0 0 0)
(0.253426 0.00163762 0 0.00122803 0.401737 0 0 0 0)
(0.243536 0.00171134 0 0.00116718 0.39868 0 0 0 0)
(0.240825 0.00177325 0 0.000975458 0.395487 0 0 0 0)
(0.239891 0.00184002 0 0.000712677 0.392144 0 0 0 0)
(0.236929 0.00190068 0 0.000424309 0.388643 0 0 0 0)
(0.23056 0.00194637 0 0.000106164 0.385006 0 0 0 0)
(0.2218 0.00191819 0 -0.000282245 0.381217 0 0 0 0)
(0.213448 0.00197985 0 -0.000789864 0.377579 0 0 0 0)
(0.206793 0.00168161 0 -0.00117318 0.373181 0 0 0 0)
(0.19673 0.00327616 0 -0.00191976 0.370681 0 0 0 0)
(0.17208 0.000792482 0 0.000938008 0.360603 0 0 0 0)
(0.124927 0.00470477 0 -0.004772 0.364727 0 0 0 0)
(0.243996 0.0151255 0 -0.00479596 0.345618 0 0 0 0)
(2.40466 0.026737 0 -0.0124212 0.319478 0 0 0 0)
(2.20836 0.0181626 0 -0.0131586 0.275443 0 0 0 0)
(1.53901 -0.771622 0 9.09892 -1.14485 0 0 0 0)
(-0.0249221 -0.908914 0 5.15106 1.92856 0 0 0 0)
(-1.69235 0.150755 0 2.86495 2.46472 0 0 0 0)
(-1.30132 0.394311 0 0.689546 1.48545 0 0 0 0)
(-0.515341 0.174519 0 -0.0194848 0.693766 0 0 0 0)
(-0.167698 0.0352848 0 -0.0373753 0.499773 0 0 0 0)
(-0.023259 0.00971687 0 -0.0333187 0.456153 0 0 0 0)
(0.0429674 0.00692966 0 -0.0348847 0.429698 0 0 0 0)
(0.0957408 0.00265977 0 -0.0317935 0.408694 0 0 0 0)
(0.125963 -0.000151257 0 -0.0291693 0.411599 0 0 0 0)
(0.15242 0.000512011 0 -0.0272008 0.409219 0 0 0 0)
(0.17324 0.000117033 0 -0.024528 0.408472 0 0 0 0)
(0.190837 -0.000104662 0 -0.0220587 0.40862 0 0 0 0)
(0.20811 -0.000278508 0 -0.0196202 0.409367 0 0 0 0)
(0.229661 -0.000417724 0 -0.0169716 0.410757 0 0 0 0)
(0.259836 -0.000456418 0 -0.0140586 0.412474 0 0 0 0)
(0.299858 -0.000408141 0 -0.0109355 0.414106 0 0 0 0)
(0.340206 -0.000121077 0 -0.00772347 0.415433 0 0 0 0)
(0.382449 -0.000396355 0 -0.00448925 0.415033 0 0 0 0)
(0.396281 -0.000363526 0 -0.00135234 0.418173 0 0 0 0)
(0.397494 0.000573299 0 0.00170932 0.417513 0 0 0 0)
(0.385326 0.000500582 0 0.00487064 0.414249 0 0 0 0)
(0.345326 0.00029747 0 0.00808348 0.414043 0 0 0 0)
(0.309329 0.000607856 0 0.0112652 0.412102 0 0 0 0)
(0.275579 0.000716296 0 0.0144013 0.409717 0 0 0 0)
(0.25414 0.00078428 0 0.0174562 0.406979 0 0 0 0)
(0.244196 0.000816164 0 0.0204242 0.404087 0 0 0 0)
(0.241446 0.000841712 0 0.0233334 0.401096 0 0 0 0)
(0.240483 0.000868596 0 0.0262224 0.397992 0 0 0 0)
(0.237485 0.000891515 0 0.0291015 0.394771 0 0 0 0)
(0.23106 0.000905325 0 0.0319415 0.391458 0 0 0 0)
(0.222209 0.000883158 0 0.0346807 0.38808 0 0 0 0)
(0.213767 0.000893599 0 0.0372181 0.384864 0 0 0 0)
(0.206959 0.000745037 0 0.0396238 0.381274 0 0 0 0)
(0.197126 0.00150923 0 0.0414867 0.379084 0 0 0 0)
(0.171724 0.000227579 0 0.0451143 0.370013 0 0 0 0)
(0.124122 0.00230163 0 0.0436611 0.37636 0 0 0 0)
(0.241912 0.00758865 0 0.0441644 0.35384 0 0 0 0)
(2.39256 0.0160863 0 0.0301498 0.324366 0 0 0 0)
(2.19827 0.0118012 0 -0.00943234 0.261932 0 0 0 0)
(1.63058 -9.59284e-13 0 8.81703e-12 -2.83935 0 0 0 0)
(-0.405077 -4.91735e-13 0 3.18263e-12 2.73334 0 0 0 0)
(-1.99643 3.43253e-13 0 1.19583e-12 3.40943 0 0 0 0)
(-1.56988 7.66166e-13 0 8.6539e-13 1.6969 0 0 0 0)
(-0.585885 3.32705e-13 0 1.27049e-12 0.698542 0 0 0 0)
(-0.168016 -9.71294e-13 0 -7.84568e-13 0.497087 0 0 0 0)
(-0.0222678 -1.67463e-12 0 -2.75979e-14 0.455959 0 0 0 0)
(0.0437254 -4.15397e-12 0 -5.06618e-13 0.430284 0 0 0 0)
(0.096651 -5.34982e-12 0 -9.8761e-13 0.408318 0 0 0 0)
(0.126649 3.35368e-13 0 -2.0107e-13 0.411998 0 0 0 0)
(0.153343 1.01212e-11 0 -1.12974e-11 0.409358 0 0 0 0)
(0.174241 1.97803e-11 0 -2.74057e-11 0.408478 0 0 0 0)
(0.191794 2.36415e-11 0 -2.39017e-11 0.408553 0 0 0 0)
(0.209047 1.01456e-11 0 1.20169e-11 0.409197 0 0 0 0)
(0.23061 -3.4308e-11 0 1.08479e-11 0.410468 0 0 0 0)
(0.260805 -1.44187e-11 0 -1.75472e-10 0.412069 0 0 0 0)
(0.300832 7.91816e-11 0 -5.14771e-10 0.413606 0 0 0 0)
(0.34116 -1.06273e-10 0 -5.33892e-10 0.414875 0 0 0 0)
(0.383362 -2.10464e-10 0 -1.9915e-10 0.414438 0 0 0 0)
(0.397148 1.93033e-10 0 6.21298e-11 0.4176 0 0 0 0)
(0.398363 3.28511e-10 0 2.76133e-10 0.416938 0 0 0 0)
(0.386244 -1.70432e-10 0 1.51139e-10 0.413659 0 0 0 0)
(0.346289 -1.90578e-10 0 -1.55652e-10 0.413496 0 0 0 0)
(0.310328 3.16685e-10 0 -3.83515e-10 0.411614 0 0 0 0)
(0.276603 1.96817e-10 0 -7.91793e-11 0.409317 0 0 0 0)
(0.255178 -1.51084e-10 0 5.92162e-11 0.406689 0 0 0 0)
(0.245246 -1.1774e-10 0 -2.5181e-10 0.403925 0 0 0 0)
(0.242512 9.19562e-12 0 -4.78484e-10 0.401078 0 0 0 0)
(0.241569 2.82497e-11 0 -3.44372e-10 0.398138 0 0 0 0)
(0.238593 -5.13443e-11 0 5.17007e-11 0.395106 0 0 0 0)
(0.232183 -7.81716e-11 0 4.9567e-10 0.392009 0 0 0 0)
(0.223335 -1.05794e-10 0 9.51269e-10 0.388882 0 0 0 0)
(0.214886 -1.38253e-10 0 1.33023e-09 0.385937 0 0 0 0)
(0.208035 -1.85766e-10 0 1.68197e-09 0.382739 0 0 0 0)
(0.198327 -8.80478e-12 0 2.0961e-09 0.380815 0 0 0 0)
(0.172712 2.16911e-10 0 2.56832e-09 0.372363 0 0 0 0)
(0.124651 -4.43703e-11 0 2.06303e-09 0.379251 0 0 0 0)
(0.240065 9.10079e-11 0 1.55161e-09 0.356539 0 0 0 0)
(2.38907 4.95458e-10 0 1.03229e-09 0.327079 0 0 0 0)
(2.19684 2.65366e-10 0 1.05791e-10 0.245946 0 0 0 0)
(1.53901 0.771622 0 -9.09892 -1.14485 0 0 0 0)
(-0.0249221 0.908914 0 -5.15106 1.92856 0 0 0 0)
(-1.69235 -0.150755 0 -2.86495 2.46472 0 0 0 0)
(-1.30132 -0.394311 0 -0.689546 1.48545 0 0 0 0)
(-0.515341 -0.174519 0 0.0194848 0.693766 0 0 0 0)
(-0.167698 -0.0352848 0 0.0373753 0.499773 0 0 0 0)
(-0.023259 -0.00971687 0 0.0333187 0.456153 0 0 0 0)
(0.0429674 -0.00692966 0 0.0348847 0.429698 0 0 0 0)
(0.0957408 -0.00265977 0 0.0317935 0.408694 0 0 0 0)
(0.125963 0.000151257 0 0.0291693 0.411599 0 0 0 0)
(0.15242 -0.000512011 0 0.0272008 0.409219 0 0 0 0)
(0.17324 -0.000117033 0 0.024528 0.408472 0 0 0 0)
(0.190837 0.000104662 0 0.0220587 0.40862 0 0 0 0)
(0.20811 0.000278508 0 0.0196202 0.409367 0 0 0 0)
(0.229661 0.000417724 0 0.0169716 0.410757 0 0 0 0)
(0.259836 0.000456418 0 0.0140586 0.412474 0 0 0 0)
(0.299858 0.000408141 0 0.0109355 0.414106 0 0 0 0)
(0.340206 0.000121077 0 0.00772347 0.415433 0 0 0 0)
(0.382449 0.000396354 0 0.00448925 0.415033 0 0 0 0)
(0.396281 0.000363526 0 0.00135234 0.418173 0 0 0 0)
(0.397494 -0.000573298 0 -0.00170932 0.417513 0 0 0 0)
(0.385326 -0.000500583 0 -0.00487064 0.414249 0 0 0 0)
(0.345326 -0.00029747 0 -0.00808348 0.414043 0 0 0 0)
(0.309329 -0.000607856 0 -0.0112652 0.412102 0 0 0 0)
(0.275579 -0.000716296 0 -0.0144013 0.409717 0 0 0 0)
(0.25414 -0.00078428 0 -0.0174562 0.406979 0 0 0 0)
(0.244196 -0.000816164 0 -0.0204242 0.404087 0 0 0 0)
(0.241446 -0.000841712 0 -0.0233334 0.401096 0 0 0 0)
(0.240483 -0.000868596 0 -0.0262224 0.397992 0 0 0 0)
(0.237485 -0.000891515 0 -0.0291015 0.394771 0 0 0 0)
(0.23106 -0.000905325 0 -0.0319415 0.391458 0 0 0 0)
(0.222209 -0.000883159 0 -0.0346807 0.38808 0 0 0 0)
(0.213767 -0.000893599 0 -0.0372181 0.384864 0 0 0 0)
(0.206959 -0.000745037 0 -0.0396238 0.381274 0 0 0 0)
(0.197126 -0.00150923 0 -0.0414867 0.379084 0 0 0 0)
(0.171724 -0.000227579 0 -0.0451143 0.370013 0 0 0 0)
(0.124122 -0.00230163 0 -0.0436611 0.37636 0 0 0 0)
(0.241912 -0.00758865 0 -0.0441644 0.35384 0 0 0 0)
(2.39256 -0.0160863 0 -0.0301498 0.324366 0 0 0 0)
(2.19827 -0.0118012 0 0.00943234 0.261932 0 0 0 0)
(0.657811 0.901544 0 -10.2778 -0.0468227 0 0 0 0)
(1.40844 1.05006 0 -5.82819 0.682951 0 0 0 0)
(-0.698532 -0.128905 0 -3.04406 1.0596 0 0 0 0)
(-0.730768 -0.515187 0 -0.819466 0.967496 0 0 0 0)
(-0.374417 -0.286741 0 -0.12222 0.631176 0 0 0 0)
(-0.163991 -0.0691236 0 -0.0341989 0.488771 0 0 0 0)
(-0.0229924 -0.0203853 0 -0.0202258 0.445661 0 0 0 0)
(0.0432817 -0.0138064 0 -0.00342502 0.420523 0 0 0 0)
(0.0949883 -0.00526527 0 -0.00218393 0.405094 0 0 0 0)
(0.125313 0.000152934 0 -0.00233147 0.404964 0 0 0 0)
(0.151993 -0.000909698 0 -0.00121149 0.40296 0 0 0 0)
(0.172745 -0.000174235 0 -0.000758103 0.402472 0 0 0 0)
(0.190366 0.000260318 0 -5.509e-05 0.402852 0 0 0 0)
(0.207567 0.000621453 0 0.000532056 0.403882 0 0 0 0)
(0.228992 0.000904029 0 0.000771034 0.405507 0 0 0 0)
(0.259049 0.000974493 0 0.000707677 0.407391 0 0 0 0)
(0.298989 0.000860593 0 0.000484014 0.409127 0 0 0 0)
(0.339285 0.000269469 0 0.000260348 0.410502 0 0 0 0)
(0.381509 0.000797311 0 3.44628e-05 0.410158 0 0 0 0)
(0.395345 0.000721407 0 -5.20429e-05 0.413291 0 0 0 0)
(0.396553 -0.00114155 0 -0.000281637 0.412641 0 0 0 0)
(0.38439 -0.00100946 0 -0.000461732 0.409379 0 0 0 0)
(0.344429 -0.000624646 0 -0.000723945 0.409095 0 0 0 0)
(0.30849 -0.00125848 0 -0.000947961 0.407093 0 0 0 0)
(0.274802 -0.00149049 0 -0.0011398 0.404606 0 0 0 0)
(0.253426 -0.00163762 0 -0.00122803 0.401737 0 0 0 0)
(0.243536 -0.00171134 0 -0.00116718 0.39868 0 0 0 0)
(0.240825 -0.00177325 0 -0.000975456 0.395487 0 0 0 0)
(0.239891 -0.00184002 0 -0.000712675 0.392144 0 0 0 0)
(0.236929 -0.00190068 0 -0.000424307 0.388643 0 0 0 0)
(0.23056 -0.00194637 0 -0.000106163 0.385006 0 0 0 0)
(0.2218 -0.00191819 0 0.000282245 0.381217 0 0 0 0)
(0.213448 -0.00197985 0 0.000789863 0.377579 0 0 0 0)
(0.206793 -0.00168161 0 0.00117318 0.373181 0 0 0 0)
(0.19673 -0.00327616 0 0.00191975 0.370681 0 0 0 0)
(0.17208 -0.000792482 0 -0.000938011 0.360603 0 0 0 0)
(0.124927 -0.00470477 0 0.00477199 0.364727 0 0 0 0)
(0.243996 -0.0151255 0 0.00479596 0.345618 0 0 0 0)
(2.40466 -0.026737 0 0.0124212 0.319478 0 0 0 0)
(2.20836 -0.0181626 0 0.0131586 0.275443 0 0 0 0)
(2.5212 1.17178 0 -3.84546 -0.0240618 0 0 0 0)
(2.85525 1.43974 0 -2.59231 0.333384 0 0 0 0)
(0.300375 0.0024692 0 -1.60938 0.441789 0 0 0 0)
(-0.128219 -0.523285 0 -0.607798 0.515423 0 0 0 0)
(-0.185708 -0.345053 0 -0.267307 0.506271 0 0 0 0)
(-0.108005 -0.112527 0 -0.102099 0.450593 0 0 0 0)
(-0.00426375 -0.0401914 0 -0.0634268 0.415483 0 0 0 0)
(0.0539211 -0.0244249 0 -0.0245886 0.397768 0 0 0 0)
(0.0972969 -0.00940704 0 -0.0186409 0.39048 0 0 0 0)
(0.127324 -0.00118871 0 -0.0140206 0.386655 0 0 0 0)
(0.153902 -0.00161518 0 -0.0112412 0.385151 0 0 0 0)
(0.174537 -0.000118994 0 -0.00922189 0.385091 0 0 0 0)
(0.192191 0.000808767 0 -0.00716276 0.38597 0 0 0 0)
(0.209257 0.0015475 0 -0.00538276 0.387513 0 0 0 0)
(0.230544 0.00205691 0 -0.00409937 0.389529 0 0 0 0)
(0.260565 0.00212822 0 -0.00324091 0.391677 0 0 0 0)
(0.300583 0.00183606 0 -0.00261745 0.393586 0 0 0 0)
(0.340988 0.000595854 0 -0.00201794 0.39507 0 0 0 0)
(0.383341 0.00168222 0 -0.00139431 0.394842 0 0 0 0)
(0.397166 0.00150778 0 -0.000559156 0.398065 0 0 0 0)
(0.398325 -0.00236985 0 -8.54657e-05 0.39743 0 0 0 0)
(0.386132 -0.00213666 0 0.000575998 0.394076 0 0 0 0)
(0.346058 -0.0013533 0 0.0010211 0.393657 0 0 0 0)
(0.310039 -0.00267131 0 0.00135711 0.39153 0 0 0 0)
(0.276302 -0.00318073 0 0.0016343 0.388867 0 0 0 0)
(0.254948 -0.00351534 0 0.00198186 0.385772 0 0 0 0)
(0.245117 -0.00370162 0 0.00249993 0.382435 0 0 0 0)
(0.242449 -0.00386395 0 0.00317464 0.378905 0 0 0 0)
(0.241512 -0.00403813 0 0.00389273 0.375166 0 0 0 0)
(0.238509 -0.00420244 0 0.00457313 0.371206 0 0 0 0)
(0.232081 -0.00436008 0 0.00518963 0.367048 0 0 0 0)
(0.223244 -0.00434515 0 0.00574313 0.362607 0 0 0 0)
(0.214695 -0.00467803 0 0.00640999 0.358337 0 0 0 0)
(0.207859 -0.00398908 0 0.00635001 0.352665 0 0 0 0)
(0.196259 -0.00735615 0 0.00737935 0.349805 0 0 0 0)
(0.173101 -0.00330913 0 0.00240717 0.337813 0 0 0 0)
(0.126789 -0.00892277 0 0.00755066 0.33983 0 0 0 0)
(0.244301 -0.0272575 0 0.00618528 0.32529 0 0 0 0)
(2.38382 -0.0477905 0 0.0160208 0.301237 0 0 0 0)
(2.18706 -0.032068 0 -0.0365812 0.254283 0 0 0 0)
(2.33344 1.08962 0 -0.478588 0.529539 0 0 0 0)
(2.78738 1.29001 0 -0.799717 0.225551 0 0 0 0)
(0.678175 -0.0239328 0 -0.713816 0.163194 0 0 0 0)
(0.2394 -0.448709 0 -0.428604 0.254905 0 0 0 0)
(0.011701 -0.317945 0 -0.24541 0.377385 0 0 0 0)
(0.00245416 -0.133335 0 -0.105368 0.388286 0 0 0 0)
(0.0416562 -0.0606683 0 -0.0524808 0.37 0 0 0 0)
(0.0807339 -0.0322064 0 -0.0180615 0.360767 0 0 0 0)
(0.103934 -0.013753 0 -0.00682054 0.36022 0 0 0 0)
(0.131365 -0.00426308 0 -0.000186348 0.35429 0 0 0 0)
(0.155594 -0.00203928 0 0.0024101 0.35348 0 0 0 0)
(0.175715 0.000585562 0 0.00416449 0.353819 0 0 0 0)
(0.193087 0.0023003 0 0.0056617 0.35523 0 0 0 0)
(0.209612 0.00355433 0 0.00667646 0.357334 0 0 0 0)
(0.230224 0.00429829 0 0.00688557 0.359825 0 0 0 0)
(0.259664 0.00426603 0 0.00625099 0.362376 0 0 0 0)
(0.299312 0.00360733 0 0.00499389 0.364627 0 0 0 0)
(0.33955 0.00130422 0 0.0034289 0.366368 0 0 0 0)
(0.381932 0.0032089 0 0.00179412 0.366376 0 0 0 0)
(0.395629 0.00279343 0 0.000374216 0.369694 0 0 0 0)
(0.396696 -0.00432677 0 -0.00146234 0.36907 0 0 0 0)
(0.384522 -0.00404083 0 -0.00301327 0.3656 0 0 0 0)
(0.344308 -0.00268697 0 -0.00472657 0.364951 0 0 0 0)
(0.308251 -0.00511686 0 -0.00652649 0.362617 0 0 0 0)
(0.274599 -0.00613326 0 -0.00825636 0.35967 0 0 0 0)
(0.253444 -0.00682855 0 -0.00976361 0.356234 0 0 0 0)
(0.243838 -0.00726086 0 -0.0109284 0.352495 0 0 0 0)
(0.241297 -0.00765636 0 -0.0118454 0.348485 0 0 0 0)
(0.240369 -0.00808041 0 -0.0126558 0.344224 0 0 0 0)
(0.237332 -0.00848963 0 -0.0135492 0.339663 0 0 0 0)
(0.230872 -0.008939 0 -0.0144317 0.334916 0 0 0 0)
(0.222203 -0.00901103 0 -0.0153861 0.329787 0 0 0 0)
(0.213364 -0.0101128 0 -0.015882 0.325013 0 0 0 0)
(0.207156 -0.0086655 0 -0.0178064 0.318117 0 0 0 0)
(0.193183 -0.0154002 0 -0.0168951 0.314862 0 0 0 0)
(0.171697 -0.00905517 0 -0.0234643 0.302008 0 0 0 0)
(0.127569 -0.0145105 0 -0.0202144 0.302488 0 0 0 0)
(0.251994 -0.0458105 0 -0.021934 0.294261 0 0 0 0)
(2.37463 -0.0838729 0 -0.00107682 0.275452 0 0 0 0)
(2.16908 -0.0559524 0 -0.0476047 0.251703 0 0 0 0)
(2.21175 0.878849 0 -0.00273603 0.500467 0 0 0 0)
(2.62857 1.08672 0 -0.199062 0.0595575 0 0 0 0)
(0.657992 0.030756 0 -0.269879 0.0502669 0 0 0 0)
(0.323154 -0.316882 0 -0.268133 0.139148 0 0 0 0)
(0.125774 -0.216522 0 -0.175485 0.284509 0 0 0 0)
(0.0779081 -0.119644 0 -0.101731 0.318874 0 0 0 0)
(0.0798682 -0.0667096 0 -0.0487274 0.320504 0 0 0 0)
(0.097921 -0.0338494 0 -0.0280622 0.316778 0 0 0 0)
(0.114522 -0.0156491 0 -0.0125872 0.317814 0 0 0 0)
(0.136219 -0.00768409 0 -0.00435179 0.312402 0 0 0 0)
(0.158094 -0.00206902 0 -9.57577e-06 0.311651 0 0 0 0)
(0.177671 0.00156772 0 0.0034478 0.311865 0 0 0 0)
(0.194611 0.00419624 0 0.00611066 0.313359 0 0 0 0)
(0.210436 0.00597522 0 0.00797096 0.315557 0 0 0 0)
(0.230134 0.00691604 0 0.00859034 0.318153 0 0 0 0)
(0.258742 0.00675619 0 0.00795283 0.32081 0 0 0 0)
(0.297864 0.00568256 0 0.00635684 0.323197 0 0 0 0)
(0.337905 0.00228123 0 0.00428746 0.325058 0 0 0 0)
(0.380397 0.00488764 0 0.00214755 0.325227 0 0 0 0)
(0.394028 0.00410371 0 0.000304426 0.328523 0 0 0 0)
(0.39506 -0.0063152 0 -0.00197587 0.327898 0 0 0 0)
(0.382986 -0.00610586 0 -0.00390265 0.324332 0 0 0 0)
(0.342672 -0.00422766 0 -0.00596667 0.323477 0 0 0 0)
(0.306637 -0.00776059 0 -0.00810884 0.321045 0 0 0 0)
(0.273183 -0.00933185 0 -0.0100765 0.317987 0 0 0 0)
(0.252373 -0.0104294 0 -0.0116496 0.314456 0 0 0 0)
(0.243111 -0.0111693 0 -0.0127244 0.310577 0 0 0 0)
(0.240784 -0.011834 0 -0.0133533 0.30646 0 0 0 0)
(0.23987 -0.0125391 0 -0.013928 0.301985 0 0 0 0)
(0.236798 -0.013172 0 -0.0143686 0.297419 0 0 0 0)
(0.230311 -0.0138771 0 -0.0148638 0.292627 0 0 0 0)
(0.221846 -0.0138885 0 -0.0154258 0.287553 0 0 0 0)
(0.212363 -0.0159238 0 -0.0151382 0.283394 0 0 0 0)
(0.206883 -0.0137706 0 -0.0173805 0.276331 0 0 0 0)
(0.190807 -0.0228793 0 -0.0158055 0.273592 0 0 0 0)
(0.169903 -0.015233 0 -0.0214483 0.262924 0 0 0 0)
(0.128264 -0.0163875 0 -0.0185478 0.262922 0 0 0 0)
(0.262743 -0.0533103 0 -0.018281 0.264625 0 0 0 0)
(2.35908 -0.0888014 0 0.00562907 0.249247 0 0 0 0)
(2.14222 -0.0549539 0 -0.0599322 0.265972 0 0 0 0)
(2.14426 0.664741 0 0.0674577 0.494321 0 0 0 0)
(2.52995 0.856178 0 -0.0655784 0.116666 0 0 0 0)
(0.611616 0.0527633 0 -0.126744 0.0675342 0 0 0 0)
(0.330362 -0.222985 0 -0.172339 0.133414 0 0 0 0)
(0.172052 -0.144755 0 -0.132972 0.240171 0 0 0 0)
(0.124602 -0.098649 0 -0.0913436 0.26778 0 0 0 0)
(0.112646 -0.0626882 0 -0.0523334 0.280035 0 0 0 0)
(0.11556 -0.0347989 0 -0.0329143 0.280124 0 0 0 0)
(0.126782 -0.0179692 0 -0.0182772 0.27936 0 0 0 0)
(0.143486 -0.0102018 0 -0.00873965 0.275978 0 0 0 0)
(0.163109 -0.00255681 0 -0.00225902 0.274694 0 0 0 0)
(0.181612 0.00223175 0 0.00293977 0.274656 0 0 0 0)
(0.197446 0.00585801 0 0.0070493 0.275552 0 0 0 0)
(0.212002 0.00817418 0 0.00963934 0.277309 0 0 0 0)
(0.230207 0.00936018 0 0.0106609 0.279319 0 0 0 0)
(0.257512 0.00912657 0 0.00994175 0.281496 0 0 0 0)
(0.29578 0.00770062 0 0.00795964 0.283489 0 0 0 0)
(0.335494 0.00326004 0 0.00532371 0.285084 0 0 0 0)
(0.378094 0.00654849 0 0.00259019 0.285126 0 0 0 0)
(0.391656 0.00536699 0 0.000198514 0.2883 0 0 0 0)
(0.392642 -0.00836625 0 -0.0026589 0.287711 0 0 0 0)
(0.380676 -0.00830114 0 -0.00514186 0.284134 0 0 0 0)
(0.340255 -0.0058544 0 -0.00777182 0.28335 0 0 0 0)
(0.30429 -0.0104064 0 -0.0104939 0.281165 0 0 0 0)
(0.271187 -0.0124824 0 -0.0129353 0.278495 0 0 0 0)
(0.250892 -0.0139699 0 -0.0148415 0.275444 0 0 0 0)
(0.242196 -0.0149657 0 -0.0159717 0.272234 0 0 0 0)
(0.240137 -0.0159351 0 -0.0167443 0.268668 0 0 0 0)
(0.239391 -0.0167924 0 -0.0169887 0.265304 0 0 0 0)
(0.23643 -0.017508 0 -0.0176103 0.261375 0 0 0 0)
(0.229853 -0.0184469 0 -0.0175704 0.25819 0 0 0 0)
(0.221938 -0.0179084 0 -0.0180738 0.254324 0 0 0 0)
(0.21148 -0.0209261 0 -0.0173934 0.251999 0 0 0 0)
(0.206513 -0.0181103 0 -0.020137 0.2464 0 0 0 0)
(0.189263 -0.0283198 0 -0.0187925 0.24544 0 0 0 0)
(0.169055 -0.019338 0 -0.022889 0.238999 0 0 0 0)
(0.130622 -0.0128721 0 -0.0201982 0.239131 0 0 0 0)
(0.275292 -0.0589876 0 -0.0143182 0.249881 0 0 0 0)
(2.33449 -0.0825745 0 0.00562182 0.229541 0 0 0 0)
(2.10591 -0.0398359 0 -0.0721489 0.279058 0 0 0 0)
(2.08355 0.514927 0 0.0417902 0.45132 0 0 0 0)
(2.44143 0.675452 0 -0.0177792 0.142681 0 0 0 0)
(0.555114 0.0468951 0 -0.0697751 0.0909533 0 0 0 0)
(0.317153 -0.150523 0 -0.122915 0.141911 0 0 0 0)
(0.203824 -0.0870425 0 -0.103235 0.219042 0 0 0 0)
(0.155614 -0.0812298 0 -0.072462 0.238057 0 0 0 0)
(0.136173 -0.0548152 0 -0.0489454 0.254308 0 0 0 0)
(0.130739 -0.034499 0 -0.033011 0.25608 0 0 0 0)
(0.137818 -0.0196442 0 -0.0210416 0.25557 0 0 0 0)
(0.151655 -0.0121811 0 -0.011482 0.253651 0 0 0 0)
(0.169349 -0.00334239 0 -0.004075 0.252575 0 0 0 0)
(0.186641 0.00239465 0 0.002551 0.251866 0 0 0 0)
(0.201067 0.00675247 0 0.00707019 0.252547 0 0 0 0)
(0.213916 0.00960513 0 0.0103292 0.253268 0 0 0 0)
(0.230426 0.0109507 0 0.0114394 0.25448 0 0 0 0)
(0.256139 0.0107751 0 0.0107602 0.255696 0 0 0 0)
(0.293414 0.00914028 0 0.0085871 0.256901 0 0 0 0)
(0.332731 0.00385864 0 0.00567531 0.257896 0 0 0 0)
(0.375458 0.00798695 0 0.00264747 0.257565 0 0 0 0)
(0.388969 0.00659417 0 2.72542e-05 0.260565 0 0 0 0)
(0.389914 -0.0103304 0 -0.00311097 0.26011 0 0 0 0)
(0.378059 -0.0103083 0 -0.00580636 0.256687 0 0 0 0)
(0.337515 -0.00708799 0 -0.00869696 0.256342 0 0 0 0)
(0.301661 -0.0124384 0 -0.0117011 0.254824 0 0 0 0)
(0.268994 -0.0148454 0 -0.0143914 0.253024 0 0 0 0)
(0.249447 -0.016463 0 -0.0163257 0.251134 0 0 0 0)
(0.241277 -0.0176991 0 -0.017593 0.248997 0 0 0 0)
(0.239804 -0.0185122 0 -0.0178637 0.247256 0 0 0 0)
(0.239036 -0.0195668 0 -0.0186445 0.244749 0 0 0 0)
(0.236237 -0.020027 0 -0.0182562 0.243582 0 0 0 0)
(0.229864 -0.0206715 0 -0.0187419 0.241462 0 0 0 0)
(0.222017 -0.0198543 0 -0.019113 0.239746 0 0 0 0)
(0.210375 -0.0235595 0 -0.0179689 0.239946 0 0 0 0)
(0.205534 -0.0200916 0 -0.0217065 0.235804 0 0 0 0)
(0.188155 -0.030011 0 -0.0212104 0.236573 0 0 0 0)
(0.168548 -0.0213122 0 -0.0236297 0.234765 0 0 0 0)
(0.136523 -0.00590174 0 -0.0206987 0.234102 0 0 0 0)
(0.287624 -0.0625514 0 -0.00715954 0.246634 0 0 0 0)
(2.30336 -0.060685 0 0.00114266 0.229874 0 0 0 0)
(2.06728 -0.00723785 0 -0.0840621 0.281812 0 0 0 0)
(2.08685 0.367326 0 0.0486936 0.41641 0 0 0 0)
(2.42245 0.508916 0 0.00212113 0.155601 0 0 0 0)
(0.510303 0.0520216 0 -0.0406728 0.124235 0 0 0 0)
(0.298118 -0.0995542 0 -0.0798104 0.170599 0 0 0 0)
(0.220671 -0.0521048 0 -0.0779486 0.209551 0 0 0 0)
(0.176918 -0.0646653 0 -0.0556721 0.224801 0 0 0 0)
(0.150662 -0.0453205 0 -0.0437268 0.242301 0 0 0 0)
(0.142449 -0.0335829 0 -0.0317178 0.243647 0 0 0 0)
(0.147528 -0.0203102 0 -0.0222604 0.244472 0 0 0 0)
(0.159835 -0.0130878 0 -0.0131049 0.244204 0 0 0 0)
(0.176632 -0.00427753 0 -0.00430295 0.242704 0 0 0 0)
(0.192352 0.00220537 0 0.0017788 0.24345 0 0 0 0)
(0.204941 0.00720988 0 0.00757758 0.242936 0 0 0 0)
(0.216212 0.0100369 0 0.0104417 0.243727 0 0 0 0)
(0.230622 0.0116992 0 0.0119205 0.243964 0 0 0 0)
(0.254763 0.0114594 0 0.0111213 0.244503 0 0 0 0)
(0.29088 0.00982097 0 0.00885844 0.244928 0 0 0 0)
(0.32977 0.00389982 0 0.00575963 0.24535 0 0 0 0)
(0.372652 0.00912058 0 0.00256252 0.24463 0 0 0 0)
(0.386107 0.00781987 0 -0.000125314 0.2475 0 0 0 0)
(0.387021 -0.0121036 0 -0.0034554 0.247249 0 0 0 0)
(0.375293 -0.0119322 0 -0.00619697 0.244036 0 0 0 0)
(0.334575 -0.00764939 0 -0.00924339 0.244257 0 0 0 0)
(0.298803 -0.013604 0 -0.0124729 0.243455 0 0 0 0)
(0.266731 -0.0160384 0 -0.0153311 0.242618 0 0 0 0)
(0.247807 -0.0178503 0 -0.0175263 0.241622 0 0 0 0)
(0.240714 -0.0187025 0 -0.0183838 0.241023 0 0 0 0)
(0.239124 -0.0200286 0 -0.0195069 0.239586 0 0 0 0)
(0.239013 -0.0203333 0 -0.0186815 0.23997 0 0 0 0)
(0.236336 -0.0206755 0 -0.0203669 0.237765 0 0 0 0)
(0.229028 -0.0221427 0 -0.0187731 0.23923 0 0 0 0)
(0.222683 -0.0193695 0 -0.0203351 0.237319 0 0 0 0)
(0.208981 -0.0247251 0 -0.0191682 0.238663 0 0 0 0)
(0.203389 -0.0213606 0 -0.0229589 0.236 0 0 0 0)
(0.18741 -0.0293211 0 -0.0225468 0.237737 0 0 0 0)