/*--------------------------------*- C++ -*----------------------------------*\
| =========                 |                                                 |
| \\      /  F ield         | OpenFOAM: The Open Source CFD Toolbox           |
|  \\    /   O peration     | Version:  v1912                                 |
|   \\  /    A nd           | Website:  www.openfoam.com                      |
|    \\/     M anipulation  |                                                 |
\*---------------------------------------------------------------------------*/
FoamFile
{
    version     2.0;
    format      ascii;
    class       volScalarField;
    location    "0.2";
    object      p;
}
// * * * * * * * * * * * * * * * * * * * * * * * * * * * * * * * * * * * * * //

dimensions      [0 2 -2 0 0 0 0];


internalField   nonuniform List<scalar> 
10000
(
8.754e-06
0.000110462
-0.000111771
-0.000700118
-0.001604
-0.00276709
-0.00413231
-0.00564491
-0.00725525
-0.00891942
-0.0105988
-0.0122599
-0.0138734
-0.0154138
-0.0168594
-0.018191
-0.0193926
-0.0204503
-0.0213526
-0.02209
-0.0226545
-0.0230401
-0.0232419
-0.0232568
-0.0230825
-0.0227181
-0.0221636
-0.0214203
-0.0204898
-0.0193752
-0.0180797
-0.0166078
-0.0149643
-0.0131548
-0.0111853
-0.00906242
-0.00679334
-0.00438566
-0.00184738
0.000813029
0.00358676
0.00646465
0.00943717
0.0124945
0.0156266
0.0188231
0.0220735
0.0253669
0.0286924
0.0320389
0.0353951
0.0387498
0.0420914
0.0454087
0.0486901
0.0519243
0.0550999
0.0582056
0.0612304
0.0641635
0.066994
0.0697117
0.0723064
0.0747685
0.0770887
0.0792581
0.0812687
0.0831126
0.0847828
0.086273
0.0875777
0.088692
0.0896123
0.0903356
0.09086
0.0911849
0.0913106
0.091239
0.0909729
0.090517
0.0898772
0.0890612
0.0880785
0.0869403
0.0856601
0.0842534
0.0827382
0.0811353
0.0794681
0.0777636
0.0760522
0.0743683
0.0727508
0.0712433
0.0698947
0.0687576
0.067886
0.0673316
0.0671368
0.0672478
-8.00416e-05
1.66839e-05
-0.00020023
-0.000725953
-0.00150941
-0.00251107
-0.00368911
-0.00500023
-0.00640332
-0.00786064
-0.0093381
-0.0108052
-0.012235
-0.0136037
-0.0148904
-0.016077
-0.0171477
-0.0180892
-0.0188899
-0.0195402
-0.0200323
-0.0203598
-0.0205177
-0.0205025
-0.0203116
-0.0199437
-0.0193986
-0.0186769
-0.0177801
-0.0167105
-0.0154712
-0.014066
-0.0124993
-0.0107761
-0.0089021
-0.0068834
-0.00472663
-0.0024389
-2.77333e-05
0.00249893
0.00513279
0.00786518
0.0106871
0.0135893
0.0165623
0.0195961
0.0226808
0.0258062
0.0289618
0.0321372
0.0353216
0.0385044
0.0416746
0.0448216
0.0479343
0.0510021
0.0540143
0.0569601
0.0598292
0.0626113
0.0652963
0.0678745
0.0703365
0.0726732
0.0748759
0.0769365
0.0788472
0.0806012
0.0821918
0.0836133
0.0848607
0.0859299
0.0868174
0.0875208
0.0880388
0.088371
0.0885181
0.0884823
0.0882668
0.0878762
0.0873167
0.0865959
0.0857233
0.08471
0.0835689
0.0823152
0.0809662
0.0795415
0.0780633
0.0765567
0.0750495
0.0735729
0.0721611
0.0708515
0.0696845
0.0687014
0.0679415
0.067441
0.0672464
0.067358
0.000144312
0.00023495
1.80626e-05
-0.000475469
-0.00119047
-0.00209403
-0.00315224
-0.00432904
-0.00558944
-0.00690065
-0.00823243
-0.00955725
-0.0108504
-0.0120896
-0.0132556
-0.0143309
-0.0153005
-0.0161516
-0.0168728
-0.0174547
-0.0178897
-0.0181712
-0.0182942
-0.0182549
-0.0180509
-0.0176803
-0.0171428
-0.0164387
-0.0155691
-0.0145361
-0.0133424
-0.0119914
-0.0104872
-0.00883438
-0.00703826
-0.00510456
-0.0030395
-0.00084978
0.00145748
0.00387478
0.00639422
0.00900757
0.0117063
0.0144815
0.0173242
0.0202249
0.0231741
0.026162
0.0291788
0.0322142
0.0352583
0.0383006
0.0413308
0.0443387
0.0473139
0.050246
0.053125
0.0559406
0.058683
0.0613424
0.0639092
0.0663742
0.0687285
0.0709635
0.073071
0.0750435
0.0768736
0.0785549
0.0800812
0.0814474
0.0826487
0.0836814
0.0845425
0.0852299
0.0857425
0.0860803
0.0862443
0.0862366
0.0860607
0.0857213
0.0852245
0.0845779
0.0837907
0.0828737
0.0818394
0.0807024
0.079479
0.078188
0.0768499
0.0754881
0.074128
0.0727977
0.0715277
0.0703504
0.0693001
0.0684115
0.0677164
0.067245
0.067051
0.0671635
0.000731908
0.000761787
0.000512666
1.82976e-05
-0.000670322
-0.0015234
-0.00251138
-0.00360313
-0.00476829
-0.00597807
-0.00720561
-0.00842613
-0.00961708
-0.0107581
-0.011831
-0.0128197
-0.0137099
-0.0144892
-0.0151469
-0.0156741
-0.0160629
-0.0163071
-0.0164019
-0.0163433
-0.0161286
-0.0157563
-0.0152255
-0.0145364
-0.01369
-0.012688
-0.011533
-0.010228
-0.00877681
-0.00718383
-0.00545394
-0.00359255
-0.00160555
0.0005007
0.00271945
0.00504353
0.00746543
0.00997729
0.0125709
0.0152379
0.0179695
0.0207567
0.0235904
0.0264612
0.0293596
0.0322759
0.0352004
0.0381232
0.0410344
0.0439241
0.0467824
0.0495994
0.0523654
0.0550707
0.0577057
0.0602612
0.0627281
0.0650975
0.0673609
0.0695101
0.0715376
0.0734358
0.0751982
0.0768184
0.0782908
0.0796104
0.080773
0.0817751
0.0826138
0.0832876
0.0837953
0.0841373
0.0843145
0.0843292
0.084185
0.0838865
0.0834396
0.0828519
0.0821322
0.0812908
0.0803398
0.0792929
0.0781657
0.0769755
0.0757418
0.0744858
0.0732308
0.0720021
0.0708267
0.0697335
0.0687521
0.0679128
0.0672435
0.0667723
0.0665501
0.0666112
0.00163618
0.00154812
0.00123
0.000706205
1.50855e-05
-0.000816814
-0.00176354
-0.00279833
-0.00389493
-0.0050282
-0.00617442
-0.00731148
-0.00841905
-0.00947859
-0.0104734
-0.0113884
-0.0122105
-0.0129279
-0.0135306
-0.0140098
-0.0143583
-0.0145699
-0.0146399
-0.0145644
-0.0143409
-0.0139674
-0.0134433
-0.0127685
-0.0119439
-0.0109709
-0.00985193
-0.00858979
-0.00718803
-0.00565071
-0.00398245
-0.00218838
-0.000274071
0.00175445
0.00389074
0.00612799
0.00845901
0.0108763
0.013372
0.0159381
0.0185662
0.0212477
0.0239738
0.0267356
0.0295238
0.0323292
0.0351425
0.0379542
0.0407548
0.0435347
0.0462845
0.0489947
0.051656
0.054259
0.0567947
0.059254
0.0616284
0.0639094
0.0660889
0.0681591
0.0701126
0.0719425
0.0736424
0.0752063
0.076629
0.0779058
0.0790327
0.0800064
0.0808244
0.0814852
0.0819879
0.0823329
0.0825212
0.0825554
0.0824386
0.0821756
0.081772
0.0812352
0.0805735
0.0797968
0.0789166
0.0779458
0.0768989
0.075792
0.074643
0.0734713
0.0722981
0.071146
0.070039
0.0690022
0.0680617
0.0672435
0.0665727
0.0660745
0.065789
0.0657424
0.00280404
0.00255699
0.00213935
0.00156052
0.000841234
4.67239e-06
-0.000926358
-0.00192912
-0.00298112
-0.00406053
-0.00514656
-0.00621963
-0.00726158
-0.00825568
-0.0091867
-0.0100409
-0.0108061
-0.0114714
-0.0120273
-0.0124658
-0.0127797
-0.0129635
-0.0130123
-0.0129227
-0.012692
-0.0123184
-0.011801
-0.0111399
-0.0103356
-0.00938971
-0.00830416
-0.00708169
-0.00572559
-0.0042397
-0.00262839
-0.000896506
0.000950656
0.00290736
0.00496748
0.00712449
0.00937154
0.0117015
0.0141067
0.0165796
0.0191121
0.021696
0.0243227
0.0269838
0.0296704
0.0323736
0.0350843
0.0377936
0.0404923
0.0431712
0.0458212
0.0484332
0.0509982
0.0535073
0.0559517
0.0583229
0.0606126
0.0628127
0.0649153
0.0669131
0.0687991
0.0705665
0.0722093
0.0737219
0.0750992
0.0763368
0.077431
0.0783786
0.0791773
0.0798258
0.0803233
0.0806701
0.0808676
0.0809178
0.0808243
0.0805913
0.0802244
0.0797305
0.0791175
0.0783949
0.0775733
0.0766648
0.0756829
0.0746424
0.0735597
0.0724524
0.0713395
0.0702412
0.0691786
0.0681738
0.0672492
0.0664272
0.06573
0.06518
0.0648012
0.0646057
0.00418257
0.00374986
0.00320963
0.0025542
0.00178452
0.000920555
-1.75918e-05
-0.00101083
-0.00204008
-0.00308655
-0.00413213
-0.00515962
-0.00615292
-0.00709706
-0.00797834
-0.00878428
-0.00950368
-0.0101266
-0.0106442
-0.011049
-0.0113344
-0.0114952
-0.0115268
-0.0114258
-0.0111898
-0.010817
-0.0103066
-0.00965845
-0.00887326
-0.00795228
-0.00689746
-0.00571135
-0.00439703
-0.00295817
-0.00139889
0.000276196
0.00206204
0.00395317
0.00594372
0.00802748
0.0101979
0.012448
0.0147707
0.0171585
0.0196038
0.0220986
0.0246348
0.027204
0.029798
0.032408
0.0350254
0.0376415
0.0402475
0.0428345
0.0453938
0.0479167
0.0503944
0.0528183
0.0551802
0.0574716
0.0596847
0.0618116
0.0638448
0.0657774
0.0676023
0.0693135
0.0709049
0.0723711
0.0737075
0.0749097
0.0759742
0.076898
0.0776791
0.0783159
0.0788079
0.0791555
0.0793598
0.079423
0.0793483
0.0791398
0.0788029
0.0783439
0.0777705
0.0770913
0.0763164
0.0754568
0.0745251
0.0735348
0.0725007
0.0714388
0.0703661
0.0693005
0.0682605
0.0672653
0.0663342
0.0654861
0.0647408
0.0641178
0.0636226
0.0632511
0.0057219
0.00508736
0.00440802
0.00365901
0.00282083
0.00191061
0.000946153
-5.67285e-05
-0.00108204
-0.00211375
-0.00313621
-0.00413445
-0.00509427
-0.00600244
-0.0068467
-0.00761583
-0.00829971
-0.00888925
-0.00937645
-0.00975433
-0.0100169
-0.0101593
-0.0101772
-0.0100676
-0.00982812
-0.00945713
-0.00895387
-0.00831825
-0.00755087
-0.00665295
-0.00562635
-0.00447349
-0.00319731
-0.0018013
-0.000289387
0.00133402
0.00306408
0.00489557
0.00682288
0.00884004
0.0109407
0.0131184
0.015366
0.0176766
0.0200426
0.0224565
0.0249105
0.0273965
0.0299064
0.032432
0.0349648
0.0374966
0.0400187
0.0425226
0.045
0.0474424
0.0498413
0.0521885
0.0544759
0.0566956
0.0588398
0.0609009
0.0628719
0.0647458
0.0665162
0.0681768
0.0697221
0.0711469
0.0724466
0.073617
0.0746547
0.075557
0.0763218
0.0769476
0.077434
0.0777812
0.0779903
0.0780634
0.0780035
0.0778144
0.0775012
0.0770698
0.0765273
0.0758818
0.0751425
0.0743196
0.0734246
0.0724699
0.0714687
0.0704355
0.0693853
0.0683339
0.0672975
0.0662927
0.0653359
0.0644432
0.0636319
0.062919
0.0622907
0.0617263
0.00737764
0.00653254
0.00570302
0.00484759
0.00392662
0.00295485
0.0019482
0.00091956
-0.000117848
-0.00115046
-0.00216488
-0.00314819
-0.004088
-0.00497268
-0.00579138
-0.00653411
-0.0071918
-0.00775627
-0.00822029
-0.00857753
-0.00882255
-0.0089508
-0.00895856
-0.00884289
-0.00860166
-0.00823345
-0.00773756
-0.00711395
-0.00636322
-0.0054866
-0.00448584
-0.0033633
-0.0021218
-0.000764668
0.000704298
0.00228088
0.00396045
0.00573797
0.00760805
0.00956496
0.0116026
0.0137147
0.0158946
0.0181353
0.0204298
0.0227706
0.0251503
0.0275612
0.0299954
0.0324449
0.0349016
0.0373574
0.0398041
0.0422334
0.0446372
0.0470074
0.0493357
0.0516142
0.053835
0.0559905
0.0580732
0.0600757
0.0619912
0.0638129
0.0655346
0.0671504
0.0686547
0.0700426
0.0713096
0.0724517
0.0734655
0.0743483
0.0750982
0.0757137
0.0761943
0.0765401
0.0767522
0.0768324
0.0767835
0.0766091
0.0763138
0.0759033
0.0753839
0.0747631
0.0740495
0.0732523
0.072382
0.0714497
0.0704674
0.069448
0.0684048
0.0673516
0.0663026
0.065272
0.0642737
0.0633208
0.0624292
0.0616135
0.0608406
0.0600739
0.00911122
0.00805198
0.00706538
0.0060942
0.0050794
0.00403385
0.00297199
0.00190411
0.000841014
-0.000205952
-0.00122544
-0.00220638
-0.00313807
-0.00401039
-0.00481381
-0.00553954
-0.00617953
-0.00672651
-0.00717401
-0.00751635
-0.00774867
-0.00786686
-0.0078676
-0.00774825
-0.00750692
-0.00714237
-0.00665404
-0.00604196
-0.00530679
-0.00444975
-0.00347257
-0.00237753
-0.00116737
0.000154674
0.00158496
0.00311941
0.00475357
0.00648258
0.00830125
0.010204
0.0121851
0.0142384
0.0163574
0.0185355
0.0207658
0.0230412
0.0253544
0.0276981
0.0300645
0.0324459
0.0348346
0.0372226
0.039602
0.0419649
0.0443033
0.0466092
0.0488748
0.0510923
0.0532541
0.0553528
0.0573811
0.0593319
0.0611984
0.0629741
0.064653
0.0662293
0.0676976
0.069053
0.0702912
0.0714083
0.0724009
0.0732664
0.0740028
0.0746087
0.0750834
0.075427
0.0756404
0.0757252
0.0756839
0.0755199
0.0752374
0.0748415
0.0743381
0.073734
0.073037
0.0722555
0.071399
0.0704775
0.0695017
0.0684831
0.0674333
0.0663646
0.0652891
0.064219
0.0631657
0.0621403
0.0611571
0.0602291
0.0593043
0.0583312
0.0108893
0.00961577
0.00846832
0.00737491
0.00625797
0.005129
0.00400137
0.00288312
0.00178289
0.000710093
-0.000325752
-0.00131525
-0.00224926
-0.00311905
-0.00391636
-0.00463351
-0.00526345
-0.00579979
-0.00623681
-0.00656952
-0.00679358
-0.0069054
-0.00690203
-0.00678119
-0.00654122
-0.00618112
-0.00570048
-0.00509944
-0.00437873
-0.00353959
-0.00258377
-0.0015135
-0.000331477
0.000959175
0.0023549
0.00385176
0.00544543
0.00713121
0.0089041
0.0107587
0.0126895
0.0146904
0.0167553
0.0188777
0.021051
0.0232683
0.0255226
0.0278066
0.030113
0.0324342
0.0347627
0.0370909
0.039411
0.0417152
0.0439959
0.0462453
0.0484559
0.05062
0.0527301
0.0547792
0.0567599
0.0586655
0.0604894
0.0622252
0.0638669
0.065409
0.066846
0.0681734
0.0693866
0.070482
0.0714561
0.0723065
0.0730309
0.0736279
0.0740968
0.0744375
0.0746508
0.074738
0.0747013
0.0745439
0.0742694
0.0738825
0.0733886
0.0727939
0.0721054
0.0713308
0.0704784
0.0695573
0.0685771
0.0675479
0.0664799
0.0653836
0.0642698
0.0631486
0.0620297
0.0609218
0.0598384
0.0587912
0.0577104
0.05653
0.0126833
0.0111974
0.00988756
0.00866763
0.00744248
0.00622266
0.0050208
0.00384305
0.00269616
0.00158783
0.00052598
-0.000481521
-0.00142694
-0.00230284
-0.00310212
-0.00381817
-0.0044449
-0.00497674
-0.00540874
-0.00573653
-0.00595637
-0.00606512
-0.00606027
-0.00593987
-0.00570257
-0.00534757
-0.00487465
-0.0042841
-0.00357672
-0.00275383
-0.00181719
-0.000769023
0.000388017
0.00165086
0.00301604
0.00447971
0.00603767
0.00768536
0.00941791
0.0112301
0.0131166
0.0150714
0.0170888
0.0191623
0.0212856
0.0234519
0.0256545
0.0278863
0.0301401
0.0324088
0.0346848
0.0369607
0.0392291
0.0414824
0.0437131
0.0459136
0.0480765
0.0501943
0.05226
0.0542663
0.0562063
0.0580732
0.0598606
0.0615623
0.0631724
0.0646853
0.0660958
0.0673993
0.0685914
0.0696683
0.0706268
0.071464
0.072178
0.0727671
0.0732304
0.0735678
0.0737798
0.0738675
0.0738328
0.0736785
0.0734078
0.073025
0.072535
0.0719432
0.0712559
0.0704802
0.0696234
0.0686937
0.0676995
0.0666497
0.0655533
0.0644195
0.0632573
0.0620756
0.0608821
0.0596839
0.0584938
0.0573227
0.056084
0.0546978
0.0144684
0.0127734
0.0113012
0.00995214
0.00861448
0.00729816
0.00601541
0.00477075
0.00356932
0.00241734
0.0013213
0.000287698
-0.000676994
-0.00156651
-0.00237485
-0.0030964
-0.00372594
-0.00425874
-0.00469055
-0.00501764
-0.00523683
-0.00534547
-0.00534145
-0.00522319
-0.00498963
-0.00464024
-0.00417496
-0.00359426
-0.00289906
-0.00209074
-0.0011711
-0.000142397
0.000992744
0.00223129
0.00356984
0.00500462
0.00653153
0.00814612
0.00984366
0.0116191
0.0134671
0.0153821
0.0173582
0.0193894
0.0214695
0.0235918
0.0257497
0.0279365
0.0301451
0.0323685
0.0345994
0.0368306
0.0390548
0.0412646
0.0434526
0.0456115
0.047734
0.0498128
0.0518408
0.0538112
0.0557169
0.0575515
0.0593085
0.0609818
0.0625656
0.0640544
0.0654431
0.0667269
0.0679017
0.0689634
0.0699089
0.0707354
0.0714405
0.0720227
0.072481
0.0728149
0.0730246
0.0731113
0.0730763
0.0729222
0.0726517
0.0722686
0.0717772
0.0711826
0.0704903
0.0697065
0.0688379
0.0678915
0.066875
0.0657961
0.0646627
0.0634826
0.0622638
0.0610136
0.0597384
0.0584438
0.0571423
0.0558443
0.0544471
0.052858
0.016223
0.0143231
0.0126895
0.01121
0.00975689
0.0083399
0.00697106
0.00565355
0.00439114
0.00318875
0.00205161
0.00098503
-5.66922e-06
-0.000915293
-0.00173885
-0.00247164
-0.0031093
-0.00364784
-0.00408372
-0.00441382
-0.00463549
-0.00474658
-0.00474539
-0.00463069
-0.00440175
-0.00405827
-0.00360043
-0.00302886
-0.0023446
-0.00154912
-0.000644314
0.000367566
0.00148387
0.00270158
0.00401734
0.00542744
0.00692787
0.00851426
0.010182
0.0119261
0.0137414
0.0156225
0.0175637
0.019559
0.0216023
0.0236874
0.0258076
0.0279564
0.0301269
0.0323122
0.0345053
0.0366991
0.0388863
0.0410599
0.0432125
0.0453369
0.047426
0.0494727
0.0514699
0.0534109
0.0552888
0.0570972
0.0588298
0.0604804
0.0620432
0.0635129
0.0648844
0.0661528
0.0673139
0.0683638
0.0692992
0.0701171
0.0708153
0.0713919
0.0718456
0.072176
0.0723831
0.0724674
0.0724304
0.0722738
0.0720004
0.0716133
0.0711163
0.0705138
0.0698108
0.0690129
0.0681258
0.067156
0.06611
0.0649946
0.0638167
0.0625832
0.0613007
0.0599756
0.058613
0.0572173
0.055801
0.0543743
0.0528192
0.0510307
0.0179285
0.015828
0.0140347
0.0124243
0.0108539
0.00933324
0.00787433
0.00647927
0.00515064
0.00389226
0.00270827
0.00160291
0.000580476
-0.000354817
-0.00119889
-0.00194789
-0.00259824
-0.00314669
-0.00359032
-0.00392663
-0.00415349
-0.00426921
-0.00427251
-0.00416253
-0.00393884
-0.00360141
-0.00315065
-0.00258735
-0.00191271
-0.00112831
-0.000236105
0.000761586
0.00186209
0.00306241
0.00435918
0.00574877
0.00722718
0.00879017
0.0104332
0.0121513
0.0139396
0.0157927
0.0177049
0.0196706
0.0216838
0.0237381
0.0258274
0.0279451
0.0300845
0.0322388
0.0344011
0.0365645
0.0387219
0.0408663
0.0429906
0.0450875
0.0471502
0.0491716
0.0511447
0.0530628
0.0549193
0.0567076
0.0584215
0.0600549
0.0616021
0.0630577
0.0644165
0.0656737
0.0668251
0.0678666
0.0687947
0.0696066
0.0702997
0.070872
0.0713222
0.0716494
0.0718535
0.0719347
0.071894
0.0717331
0.0714541
0.0710597
0.0705533
0.0699387
0.0692203
0.0684029
0.0674918
0.0664925
0.0654108
0.0642527
0.0630241
0.061731
0.0603791
0.0589739
0.0575193
0.056019
0.0544855
0.0529291
0.0512173
0.0492333
0.0195684
0.0172717
0.0153208
0.0135797
0.011891
0.0102645
0.00871253
0.00723623
0.00583719
0.00451827
0.00328266
0.00213367
0.00107467
0.000108996
-0.000760102
-0.00152956
-0.00219653
-0.00275843
-0.00321297
-0.00355821
-0.00379253
-0.00391469
-0.00392383
-0.00381943
-0.00360139
-0.00326994
-0.00282572
-0.00226971
-0.00160327
-0.000828097
5.37673e-05
0.00103994
0.00212771
0.00331404
0.00459561
0.00596878
0.00742962
0.00897392
0.0105972
0.0122947
0.0140615
0.0158922
0.0177815
0.0197238
0.021713
0.0237432
0.0258082
0.0279014
0.0300165
0.0321467
0.0342852
0.0364252
0.0385599
0.0406821
0.0427849
0.0448613
0.0469043
0.0489071
0.0508626
0.0527643
0.0546055
0.0563798
0.0580808
0.0597027
0.0612395
0.0626859
0.0640367
0.065287
0.0664324
0.067469
0.068393
0.0692014
0.0698915
0.0704612
0.070909
0.0712336
0.0714347
0.0715123
0.071467
0.0713001
0.0710134
0.0706091
0.07009
0.0694596
0.0687217
0.0678805
0.0669405
0.0659066
0.064784
0.0635778
0.0622932
0.0609355
0.0595094
0.0580197
0.0564697
0.0548619
0.0532096
0.0515232
0.0496562
0.0474806
0.021128
0.0186395
0.0165333
0.0146621
0.0128546
0.0111209
0.00947364
0.00791326
0.00644046
0.00505732
0.00376619
0.00256956
0.00146996
0.000469968
-0.000427949
-0.00122144
-0.00190833
-0.00248667
-0.00295477
-0.00331119
-0.00355482
-0.00368487
-0.00370086
-0.00360264
-0.00339039
-0.00306465
-0.00262626
-0.00207642
-0.00141664
-0.000648747
0.000225108
0.00120247
0.00228058
0.00345637
0.00472649
0.00608733
0.00753498
0.00906527
0.0106738
0.0123558
0.0141065
0.0159206
0.0177929
0.0197177
0.0216893
0.0237017
0.0257488
0.0278242
0.0299217
0.0320345
0.0341561
0.0362796
0.0383983
0.0405052
0.0425934
0.0446561
0.0466862
0.0486769
0.0506214
0.052513
0.0543451
0.0561113
0.0578053
0.0594211
0.0609529
0.0623951
0.0637425
0.0649902
0.0661337
0.0671688
0.0680919
0.0688996
0.0695891
0.070158
0.0706046
0.0709276
0.0711261
0.0711999
0.0711494
0.0709754
0.0706793
0.0702629
0.0697287
0.0690795
0.0683186
0.0674497
0.0664768
0.0654041
0.0642361
0.0629773
0.0616324
0.0602057
0.0587016
0.057124
0.0554755
0.0537584
0.0519861
0.0501697
0.0481492
0.0457858
0.0225943
0.0199181
0.0176589
0.0156585
0.0137321
0.0118903
0.0101463
0.00849963
0.00695048
0.00550018
0.00415037
0.0029028
0.00175931
0.000721724
-0.000208156
-0.00102864
-0.00173819
-0.00233544
-0.00281923
-0.00318866
-0.00344306
-0.00358208
-0.00360562
-0.00351388
-0.00330735
-0.00298681
-0.00255337
-0.00200841
-0.00135362
-0.00059096
0.0002773
0.00124862
0.00232018
0.00348887
0.00475132
0.00610391
0.00754273
0.00906366
0.0106623
0.012334
0.014074
0.0158771
0.0177381
0.0196514
0.0216115
0.0236123
0.025648
0.0277122
0.0297986
0.0319008
0.0340121
0.0361259
0.0382354
0.0403338
0.0424142
0.0444698
0.0464936
0.0484788
0.0504187
0.0523066
0.0541358
0.0558999
0.0575926
0.0592078
0.0607398
0.0621828
0.0635316
0.0647812
0.0659268
0.0669643
0.0678897
0.0686996
0.069391
0.0699613
0.0704084
0.0707309
0.0709275
0.0709978
0.0709418
0.07076
0.0704533
0.0700232
0.0694718
0.0688014
0.0680147
0.067115
0.0661058
0.0649907
0.0637736
0.0624585
0.0610495
0.0595504
0.0579649
0.0562966
0.0545476
0.0527195
0.0508265
0.0488803
0.046708
0.0441601
0.0239556
0.0210954
0.0186855
0.0165569
0.0145119
0.0125615
0.0107195
0.00898507
0.00735755
0.00583777
0.00442676
0.00312563
0.00193555
0.000857721
-0.000106679
-0.00095657
-0.00169098
-0.00230911
-0.0028103
-0.00319412
-0.00346038
-0.0036091
-0.00364058
-0.00355534
-0.00335418
-0.00303814
-0.00260857
-0.00206705
-0.00141543
-0.000655851
0.000209321
0.00117744
0.00224562
0.00341069
0.00466926
0.00601767
0.00745203
0.00896821
0.0105618
0.0122284
0.0139629
0.0157606
0.017616
0.0195238
0.0214784
0.0234739
0.0255044
0.0275637
0.0296457
0.0317438
0.0338515
0.0359623
0.0380693
0.0401659
0.0422452
0.0443003
0.0463245
0.0483107
0.0502524
0.0521428
0.0539752
0.0557432
0.0574404
0.0590608
0.0605983
0.0620472
0.0634022
0.0646581
0.0658101
0.0668538
0.0677851
0.0686004
0.0692964
0.0698703
0.0703199
0.0706433
0.0708391
0.0709065
0.0708452
0.0706552
0.0703373
0.0698924
0.0693222
0.0686287
0.067814
0.066881
0.0658327
0.0646722
0.063403
0.0620285
0.0605523
0.0589779
0.0573084
0.0555472
0.0536957
0.0517555
0.0497413
0.0476656
0.045343
0.0426135
0.0252011
0.0221603
0.0196017
0.017346
0.0151828
0.0131238
0.0111831
0.00935966
0.00765226
0.00606123
0.00458704
0.00323025
0.00199145
0.000871278
-0.00012967
-0.00101086
-0.00177187
-0.00241238
-0.00293223
-0.00333146
-0.00361028
-0.00376912
-0.00380861
-0.00372963
-0.00353324
-0.00322078
-0.0027938
-0.0022541
-0.00160372
-0.00084493
1.97626e-05
0.000987611
0.00205564
0.00322062
0.00447912
0.00582746
0.00726171
0.00877777
0.0103713
0.0120376
0.0137721
0.0155697
0.0174253
0.0193334
0.0212885
0.0232848
0.0253164
0.0273773
0.0294612
0.0315618
0.0336725
0.0357869
0.0378982
0.0399996
0.0420844
0.0441457
0.0461767
0.0481705
0.0501204
0.0520196
0.0538614
0.0556393
0.0573469
0.0589779
0.0605264
0.0619864
0.0633525
0.0646194
0.0657822
0.0668361
0.067777
0.068601
0.0693046
0.0698848
0.070339
0.0706651
0.0708615
0.070927
0.0708609
0.0706629
0.0703334
0.0698731
0.0692831
0.068565
0.0677207
0.0667524
0.0656628
0.0644546
0.0631307
0.0616943
0.0601485
0.0584963
0.0567407
0.0548846
0.0529293
0.0508759
0.0487403
0.0465354
0.0440636
0.0411551
0.026321
0.0231025
0.0203972
0.0180155
0.0157346
0.0135668
0.0115271
0.00961383
0.00782545
0.00616181
0.00462294
0.00320888
0.00191973
0.000755591
-0.000283457
-0.00119739
-0.00198626
-0.00265025
-0.00318965
-0.00360491
-0.00389666
-0.00406568
-0.00411298
-0.00403973
-0.00384729
-0.00353726
-0.00311141
-0.00257175
-0.0019205
-0.00116008
-0.000293148
0.000677446
0.00174863
0.00291712
0.00417941
0.0055318
0.00697034
0.00849089
0.0100891
0.0117604
0.0135001
0.0153032
0.0171645
0.0190787
0.0210402
0.0230434
0.0250824
0.0271512
0.0292435
0.031353
0.0334733
0.0355978
0.0377199
0.0398328
0.0419298
0.0440039
0.0460483
0.0480562
0.0500207
0.0519349
0.0537923
0.0555862
0.05731
0.0589575
0.0605224
0.0619989
0.0633812
0.0646639
0.0658419
0.0669103
0.0678647
0.0687009
0.0694154
0.0700047
0.070466
0.070797
0.0709957
0.0710605
0.0709906
0.0707852
0.0704443
0.0699683
0.069358
0.0686144
0.0677392
0.0667342
0.0656016
0.0643437
0.0629632
0.0614629
0.0598454
0.0581135
0.05627
0.0543175
0.0522571
0.0500898
0.0478323
0.0454984
0.0428786
0.0397928
0.027306
0.0239124
0.021062
0.0185553
0.0161573
0.0138809
0.0117419
0.0097383
0.00786814
0.00613092
0.00452626
0.00305376
0.00171304
0.000503739
-0.000574531
-0.00152222
-0.00233984
-0.00302801
-0.00358745
-0.00401902
-0.00432373
-0.00450272
-0.00455732
-0.00448901
-0.00429945
-0.00399047
-0.00356408
-0.0030225
-0.00236813
-0.00160354
-0.000731533
0.000244926
0.00132267
0.00249832
0.00376833
0.00512893
0.00657616
0.00810586
0.00971365
0.011395
0.0131451
0.0149591
0.0168318
0.0187578
0.0207318
0.022748
0.0248005
0.0268834
0.0289905
0.0311154
0.0332518
0.0353931
0.0375326
0.0396636
0.0417793
0.0438728
0.0459372
0.0479656
0.0499512
0.0518869
0.0537661
0.055582
0.0573281
0.0589978
0.0605849
0.0620832
0.0634869
0.0647904
0.0659883
0.0670756
0.0680476
0.0688999
0.0696287
0.0702303
0.0707016
0.0710398
0.0712428
0.0713087
0.0712362
0.0710244
0.0706727
0.0701813
0.0695504
0.068781
0.0678741
0.0668314
0.0656545
0.0643457
0.0629071
0.0613411
0.0596503
0.0578372
0.0559043
0.053854
0.0516875
0.0494056
0.0470258
0.044563
0.0417957
0.0385342
0.0281474
0.0245808
0.0215867
0.0189559
0.0164413
0.0140567
0.0118183
0.00972399
0.00777154
0.00596008
0.00428886
0.00275708
0.00136396
0.000108694
-0.00100954
-0.00199162
-0.00283849
-0.00355118
-0.00413082
-0.00457865
-0.00489603
-0.00508446
-0.00514558
-0.00508118
-0.00489318
-0.00458367
-0.00415489
-0.00360925
-0.00294933
-0.00217789
-0.00129784
-0.000312292
0.000775491
0.00196205
0.00324376
0.00461681
0.00607718
0.00762069
0.00924295
0.0109394
0.0127052
0.0145356
0.0164253
0.018369
0.0203613
0.0223964
0.0244687
0.026572
0.0287002
0.030847
0.033006
0.0351706
0.0373341
0.0394898
0.0416309
0.0437504
0.0458414
0.0478969
0.04991
0.0518736
0.053781
0.0556252
0.0573995
0.0590974
0.0607123
0.0622381
0.0636686
0.0649979
0.0662207
0.0673315
0.0683255
0.069198
0.0699449
0.0705622
0.0710465
0.0713948
0.0716045
0.0716736
0.0716002
0.0713832
0.0710218
0.0705155
0.0698644
0.0690691
0.0681303
0.0670493
0.0658274
0.0644666
0.0629687
0.0613359
0.0595705
0.0576748
0.0556512
0.0535022
0.0512286
0.0488313
0.0463288
0.043737
0.0408226
0.0373861
0.0288368
0.0250989
0.0219624
0.0192082
0.0165775
0.0140848
0.0117471
0.00956201
0.00752698
0.00564087
0.00390261
0.00231105
0.000865013
-0.000436687
-0.00159528
-0.00261204
-0.00348832
-0.00422555
-0.00482521
-0.00528892
-0.0056184
-0.00581546
-0.00588207
-0.00582028
-0.00563229
-0.00532044
-0.0048872
-0.00433519
-0.00366716
-0.00288602
-0.00199485
-0.000996862
0.000104555
0.00130586
0.00260333
0.00399311
0.00547113
0.00703316
0.00867479
0.0103914
0.0121783
0.0140305
0.0159428
0.0179099
0.0199265
0.0219867
0.0240848
0.0262148
0.0283704
0.0305456
0.0327336
0.0349281
0.0371223
0.0393094
0.0414825
0.0436346
0.0457589
0.0478481
0.0498952
0.0518932
0.0538351
0.0557139
0.0575228
0.0592549
0.0609036
0.0624625
0.0639253
0.0652859
0.0665386
0.0676778
0.0686984
0.0695954
0.0703644
0.0710012
0.071502
0.0718634
0.0720827
0.0721572
0.0720851
0.0718647
0.0714948
0.0709747
0.0703042
0.0694834
0.0685128
0.0673933
0.0661261
0.0647126
0.0631546
0.0614541
0.0596131
0.0576338
0.0555186
0.0532697
0.0508881
0.0483747
0.0457491
0.0430278
0.0399662
0.0363549
0.0293662
0.0254583
0.0221802
0.0193032
0.016557
0.0139565
0.0115195
0.00924363
0.00712588
0.00516493
0.0033594
0.00170781
0.000208636
-0.00113966
-0.0023387
-0.00339012
-0.00429566
-0.0050571
-0.00567632
-0.00615525
-0.00649595
-0.00670057
-0.00677135
-0.00671064
-0.0065209
-0.0062047
-0.00576474
-0.00520384
-0.00452495
-0.00373113
-0.00282561
-0.00181173
-0.00069298
0.000526986
0.00184438
0.00325525
0.00475548
0.0063408
0.00800677
0.00974874
0.0115619
0.0134414
0.015382
0.0173784
0.0194251
0.0215164
0.0236465
0.0258094
0.027999
0.0302089
0.0324326
0.0346635
0.0368949
0.03912
0.0413319
0.0435234
0.0456875
0.0478171
0.0499049
0.0519439
0.0539269
0.0558467
0.0576964
0.0594689
0.0611574
0.0627554
0.0642563
0.0656537
0.0669417
0.0681145
0.0691665
0.0700926
0.0708881
0.0715484
0.0720694
0.0724475
0.0726794
0.0727622
0.0726938
0.072472
0.0720954
0.071563
0.0708742
0.0700287
0.0690268
0.0678691
0.0665564
0.0650901
0.0634716
0.0617027
0.0597853
0.0577216
0.0555138
0.0531643
0.0506738
0.0480435
0.0452939
0.0424427
0.0392335
0.035447
0.0297278
0.0256506
0.0222317
0.0192325
0.0163709
0.0136628
0.0111268
0.00876016
0.00655971
0.00452389
0.00265106
0.000939434
-0.00061283
-0.00200762
-0.0032469
-0.00433268
-0.00526703
-0.00605209
-0.00669009
-0.00718329
-0.00753408
-0.00774491
-0.00781831
-0.0077569
-0.0075634
-0.00724063
-0.0067915
-0.00621903
-0.00552636
-0.00471672
-0.00379348
-0.00276011
-0.00162022
-0.000377565
0.000963978
0.00240038
0.00392747
0.00554091
0.00723621
0.00900871
0.0108536
0.0127659
0.0147404
0.0167718
0.0188546
0.0209831
0.0231514
0.0253536
0.0275834
0.0298345
0.0321004
0.0343744
0.0366498
0.0389196
0.0411769
0.0434145
0.0456253
0.0478019
0.0499373
0.0520239
0.0540546
0.056022
0.0579189
0.0597382
0.0614729
0.063116
0.0646609
0.0661009
0.0674298
0.0686415
0.0697302
0.0706904
0.0715169
0.0722051
0.0727504
0.0731489
0.0733969
0.0734913
0.0734293
0.0732087
0.0728276
0.0722847
0.0715791
0.0707101
0.0696778
0.0684824
0.0671246
0.0656054
0.0639263
0.0620886
0.0600944
0.0579456
0.0556445
0.0531934
0.0505933
0.0478452
0.0449708
0.0419888
0.038631
0.0346686
0.0299137
0.0256679
0.0221085
0.0189872
0.0160106
0.0131952
0.0105603
0.00810296
0.00581993
0.00370937
0.0017694
-2.06087e-06
-0.00160715
-0.00304809
-0.00432715
-0.0054467
-0.00640914
-0.00721696
-0.0078727
-0.00837897
-0.00873844
-0.00895387
-0.00902809
-0.00896398
-0.0087645
-0.00843272
-0.00797176
-0.00738485
-0.00667531
-0.00584654
-0.00490206
-0.00384548
-0.00268053
-0.00141105
-4.10254e-05
0.00142544
0.00298409
0.00463054
0.00636024
0.0081685
0.0100505
0.0120011
0.0140152
0.0160875
0.0182124
0.0203842
0.0225969
0.0248447
0.0271211
0.0294199
0.0317346
0.0340583
0.0363844
0.0387057
0.0410153
0.0433058
0.0455701
0.0478007
0.0499903
0.0521314
0.0542165
0.0562382
0.0581891
0.0600618
0.061849
0.0635436
0.0651387
0.0666273
0.068003
0.0692593
0.07039
0.0713895
0.0722522
0.0729729
0.073547
0.07397
0.0742379
0.0743473
0.0742951
0.0740785
0.0736955
0.0731443
0.0724237
0.0715328
0.0704713
0.0692392
0.067837
0.0662654
0.0645256
0.0626192
0.0605477
0.0583133
0.0559182
0.0533648
0.050654
0.0477872
0.0447869
0.041673
0.0381654
0.0340256
0.0299161
0.0255018
0.0218021
0.018559
0.0154675
0.0125448
0.00981116
0.00726339
0.00489799
0.00271294
0.000706131
-0.00112478
-0.00278222
-0.00426873
-0.00558688
-0.00673938
-0.00772894
-0.00855839
-0.00923058
-0.00974843
-0.0101149
-0.0103331
-0.0104061
-0.010337
-0.0101292
-0.00978571
-0.00931007
-0.00870567
-0.00797599
-0.00712463
-0.00615525
-0.00507159
-0.00387751
-0.00257696
-0.00117402
0.000327118
0.00192213
0.00360656
0.00537581
0.00722513
0.00914962
0.0111442
0.0132037
0.0153227
0.0174957
0.0197169
0.0219803
0.02428
0.0266095
0.0289627
0.0313327
0.0337129
0.0360963
0.038476
0.0408447
0.0431951
0.0455198
0.0478114
0.0500622
0.0522647
0.0544112
0.056494
0.0585057
0.0604384
0.0622849
0.0640376
0.0656892
0.0672328
0.0686613
0.0699681
0.0711467
0.072191
0.0730951
0.0738535
0.0744611
0.0749131
0.0752053
0.0753336
0.0752947
0.0750855
0.0747035