/*--------------------------------*- C++ -*----------------------------------*\
| =========                 |                                                 |
| \\      /  F ield         | OpenFOAM: The Open Source CFD Toolbox           |
|  \\    /   O peration     | Version:  v1912                                 |
|   \\  /    A nd           | Website:  www.openfoam.com                      |
|    \\/     M anipulation  |                                                 |
\*---------------------------------------------------------------------------*/
FoamFile
{
    version     2.0;
    format      ascii;
    class       volScalarField;
    location    "9.18";
    object      rho;
}
// * * * * * * * * * * * * * * * * * * * * * * * * * * * * * * * * * * * * * //

dimensions      [1 -3 0 0 0 0 0];


internalField   nonuniform List<scalar> 
1900
(
4323.58
11407.1
11823.6
12110.8
12676.6
12961.7
12982
12863.2
12688.1
12488.4
4323.54
11407.1
11823.6
12110.9
12676.7
12961.5
12982.6
12863.1
12687.3
12503.6
4323.52
11407.2
11823.7
12111
12676.9
12961.7
12983.5
12862.4
12663.7
12495
4323.54
11407.1
11823.6
12110.9
12676.7
12961.5
12982.6
12863.1
12687.3
12503.6
4323.58
11407.1
11823.6
12110.8
12676.6
12961.7
12982
12863.2
12688.1
12488.4
12573.4
12364.3
12210.8
11846.9
11697.1
12396.2
12247.5
12115.5
11768.9
11281.7
12361.1
12224.2
12114.5
11814
11356
12396.2
12247.5
12115.5
11768.9
11281.7
12573.4
12364.3
12210.8
11846.9
11697.1
6182.35
4206.9
3253.61
2736.14
2189.29
6824.25
4533.84
3438.55
2880.55
2296.39
7014.28
4491.59
3366
2821.57
2220.3
6824.25
4533.84
3438.55
2880.55
2296.39
6182.35
4206.9
3253.61
2736.14
2189.29
2433.13
2684.35
2792.78
2837.57
2816.42
2767.18
2682.22
2572.97
2463.18
2344.65
2243.07
2161.98
2043.77
1904.14
1864.97
1986.97
2576.24
3008.6
3041.45
3019.88
2947.82
2852.94
2769.7
2710.6
2675.09
2634.29
2574.42
3550.28
4370.59
3731.13
2475.56
2047.56
2070.31
2132.47
2212.38
2313.43
2426.64
2547.16
2670.55
2794.3
2203.68
2408.99
2636.11
2643.22
2608.12
2550.25
2475.75
2388.08
2299.35
2198.19
2118.59
2053.85
1952.59
1834.39
1801.92
1928.54
2501.32
2931.8
2972.42
2959.36
2902.93
2826.81
2756.93
2714.99
2687.49
2636.21
2579.53
3563.64
4375.91
3735.22
2480.99
2049.62
2071.68
2133.47
2213.28
2314.33
2427.61
2548.19
2671.54
2795.16
2163.8
2281.23
2531.95
2575.09
2553.55
2508.16
2442.21
2359.98
2273.49
2173
2097.45
2033.53
1936.52
1821.87
1790.01
1916.71
2487.7
2917.14
2961.49
2946.64
2893.96
2818.86
2755.14
2712.76
2676.24
2629.04
2578.89
3565.66
4383.66
3741.29
2483.09
2050.32
2072.14
2133.75
2213.4
2314.18
2427.25
2547.69
2671.03
2794.79
2203.68
2408.99
2636.11
2643.22
2608.12
2550.25
2475.75
2388.08
2299.35
2198.19
2118.59
2053.85
1952.59
1834.39
1801.92
1928.54
2501.32
2931.8
2972.42
2959.36
2902.93
2826.81
2756.93
2714.99
2687.49
2636.21
2579.53
3563.64
4375.91
3735.22
2480.99
2049.62
2071.68
2133.47
2213.28
2314.33
2427.61
2548.19
2671.54
2795.16
2433.13
2684.35
2792.78
2837.57
2816.42
2767.18
2682.22
2572.97
2463.18
2344.65
2243.07
2161.98
2043.77
1904.14
1864.97
1986.97
2576.24
3008.6
3041.45
3019.88
2947.82
2852.94
2769.7
2710.6
2675.09
2634.29
2574.42
3550.28
4370.59
3731.13
2475.56
2047.56
2070.31
2132.47
2212.38
2313.43
2426.64
2547.16
2670.55
2794.3
3487.85
3392.14
3337.94
3284.35
3226.76
3165.81
3076.77
2972.79
2861.52
2729.63
2590.36
2463.04
2303.71
2114.68
2046.86
2158.16
2787.73
3233.13
3255.36
3202.39
3075.68
2932.4
2804.81
2714.52
2677.19
2670.76
2640.08
3636.72
4413.3
3737.62
2456.03
2041.01
2066.36
2129.12
2209.36
2311.15
2425.12
2546.21
2670.06
2793.8
4429.41
4174.28
3958.95
3738.68
3566.88
3444.91
3334.7
3245.22
3154.62
3040.99
2919.07
2789.79
2618.79
2398.33
2307.39
2412.22
3061.45
3523.85
3539.19
3442.92
3246.11
3028.9
2845.38
2727.64
2655.51
2577.75
2526.37
3534.76
4284.06
3616.66
2391.45
2030.55
2060.73
2123.45
2203.35
2306.35
2422.05
2544.52
2669.24
2792.67
4734.97
4479.49
4244.74
4102.78
3963.83
3795.95
3623.31
3471.83
3334.01
3204.77
3090.97
2969.72
2822.48
2634.88
2493.7
2584.37
3266.69
3751.38
3769.53
3651.13
3401.65
3111.77
2888.39
2754.71
2665.87
2582.89
2535.95
3572.67
4222.51
3491.93
2322.24
2037.95
2067.19
2122.99
2198.29
2301
2418.09
2542.69
2668.48
2791.7
4764.48
4599.92
4385.29
4133.62
3915.35
3733.19
3569.47
3417.95
3263.79
3120.27
2997.09
2852.39
2718.91
2627.12
2595.47
2732.36
3373.95
3714.14
3710.91
3579.24
3312.39
3027.22
2827.22
2702.09
2619.22
2546.94
2553.45
3655.92
4247.27
3430.89
2301.91
2079.97
2106.3
2152.43
2214.95
2303.81
2415.58
2540.38
2667.12
2790.58
4738.3
4547.56
4346.24
4158.56
3976.24
3791.97
3637.53
3472.2
3269.73
3104.52
2952.14
2764.46
2687.47
2658.11
2672.89
2893.54
3467.77
3662.61
3645.95
3504.29
3216.14
2931.11
2755.13
2651.18
2584.66
2519.85
2723.67
4033.79
4540.74
3554.93
2490.37
2291.5
2259.01
2243.27
2266.52
2336.95
2428.74
2539.54
2665.13
2788.73
4671.58
4486.74
4309.67
4134.39
3945.05
3756.74
3586.4
3420.8
3255.54
3112.42
2915.81
2733.72
2704.74
2726.83
2805.27
3130.27
3502.91
3584.86
3556.03
3375.08
3055.56
2820.77
2686.43
2606.4
2618.79
2611.54
3417.16
4850.7
4906.78
3699.22
2788.18
2647.57
2575.86
2496.86
2444.12
2434.84
2478.22
2562.47
2667.9
2786.38
4583.96
4409.02
4248.8
4089.78
3916.31
3745.89
3575.72
3398.69
3242.04
3090.23
2884.96
2777.59
2767.61
2761.33
2845.99
3144.96
3393.89
3420.22
3369.04
3141.89
2861.82
2719.51
2710.9
2731.07
2826.58
3206.82
4509.32
5425.38
4767.86
3506.14
2951.33
2888.56
2840.14
2769.95
2700.56
2646.22
2614.51
2625.63
2686.44
2782.54
4490.28
4325.89
4175.57
4027.46
3870.39
3712.54
3550.3
3377.42
3221.33
3064.05
2876.96
2789.88
2780.5
2797.04
2926.86
3112.5
3193.87
3212.28
3110.25
2853.34
2839.62
2827.23
2975.08
3325
3568.51
3986.69
5044.8
5321.77
4391.89
3273.63
3024.9
3001.1
2973.1
2928.11
2882.74
2846.18
2805.97
2764.74
2749.19
2777.75
4383.36
4233.6
4091.73
3947.22
3799.35
3648.61
3485.08
3314.06
3165.9
3008.55
2860.75
2823.21
2819.47
2846.93
2911.84
3026.15
3061.64
3024.22
2944.11
3008.68
3141.92
3462.86
3763.27
3925.27
4004.66
4375.13
5064.34
4959.15
3906.24
3127.41
3050.98
3052.7
3039.59
3008.35
2979.5
2959.29
2944.05
2913.63
2843.71
2773.13
4245.83
4119.17
3989.3
3849.84
3698.1
3537.98
3373
3212.88
3073.58
2944.93
2864.56
2880.23
2900.51
2923.59
2972.32
3068.12
3135.72
3215.24
3372.64
3579.59
3836.55
4076.05
4187.6
4139.15
4085.81
4383.89
4874.28
4424.55
3456.49
3076.84
3065.67
3074.44
3065.24
3037.63
3011.82
2992.79
2984
2976.36
2909.1
2773.65
4074.07
3950.11
3811.76
3661.36
3507.16
3356.93
3244.25
3188.92
3123.98
3113.85
3150.17
3221.26
3267.27
3356.9
3454.92
3571.16
3650.39
3738.58
3881.56
4074.96
4217.32
4268.05
4235.72
4149.25
4080.55
4269.78
4455.35
3817.65
3184.61
3082.96
3093.5
3105.82
3098.97
3070.25
3037.65
3009.36
2986.21
2971.76
2914.33
2753.69
3861.83
3718.82
3576.5
3472.48
3452.31
3466.73
3484.94
3533.53
3628.69
3738.52
3816.2
3872.7
3963.79
4030.6
4008.65
3970.77
3943.35
3997.54
4133.81
4229.77
4308
4315.6
4242.59
4104.28
3992.5
4012.3
3794.18
3285.83
3088.01
3091.23
3112.85
3125.82
3122.2
3099.21
3065.73
3034.05
2991.55
2951.73
2881.03
2717.92
3590.8
3508.74
3498.52
3574.31
3679.82
3812.21
3929.03
3994.41
4053.98
4075.18
4060.53
4043.32
4043.77
4028.16
4034.47
4043.21
4109.97
4166.28
4246.47
4321.11
4357.46
4311.44
4175.21
3992.76
3737.85
3435.19
3126.73
3004.02
3042.34
3081.07
3106.59
3123.04
3126.98
3113.15
3085.14
3051.16
2991.96
2922.89
2829.69
2678.64
3233.78
3344.13
3510.35
3666.24
3714.96
3700.25
3688.33
3694.16
3718.72
3742.43
3771.88
3852.6
3999.19
4113.88
4171.75
4191.27
4233.63
4306.28
4361.43
4375.6
4326.12
4220.69
4029.18
3700.5
3208.85
2786.13
2738.52
2878.01
3010.98
3056.4
3077.88
3099.17
3112.2
3107.71
3088.94
3054.61
2988.76
2903.73
2792.16
2648.78
2876.61
3102.38
3299.82
3399.72
3432.97
3440.05
3463.72
3502.75
3547.73
3605.44
3729.38
3895.97
4062.31
4180.27
4258.16
4316.94
4361.33
4393.66
4388.27
4332.54
4217.61
4019.67
3687.32
3180.66
2653.71
2460.32
2593.08
2820.29
2974.59
3029.72
3045.01
3064.76
3082.56
3085.82
3078.62
3048.94
2984.08
2891.19
2768.35
2632.89
2718.31
2908.29
3066.26
3164.75
3213.92
3232.31
3256.84
3308.57
3402.26
3527.53
3689.62
3870.8
4046.44
4193.81
4303.02
4372.81
4395.82
4379.47
4320
4196.49
3981.83
3642.83
3152.94
2666.23
2429.04
2423.23
2543.56
2765.5
2933.29
3002.05
3011.33
3029.37
3046.83
3051.58
3047.54
3023.82
2968.86
2878.06
2753.34
2625.77
2660.76
2764.24
2851.6
2908.88
2952.34
2981.82
3042.48
3132.71
3251.08
3398.1
3569.75
3755.7
3947.48
4126.69
4259.78
4324.52
4324.73
4264.8
4135.19
3916.81
3567.46
3100.1
2689.96
2503.32
2454.15
2477.11
2545.97
2718.04
2894.3
2981.85
2988.91
2990.5
2989.05
2985.76
2981.24
2965.82
2936.71
2872.34
2764.16
2637.33
2593.27
2641.18
2698.06
2730.56
2760.42
2800.73
2872.95
2966.4
3076.4
3202.19
3353.04
3533.17
3735.27
3924.66
4066.16
4141
4133.24
4026.56
3801.54
3450.91
3030.91
2715.84
2589.13
2551.03
2548.79
2562.19
2603.29
2694.78
2845.03
2955.83
2975.17
2957.73
2926.51
2905.6
2892.4
2876.83
2871.65
2832.67
2754.96
2643.88
2612.86
2632.51
2640.33
2645.8
2664.98
2702.13
2745.83
2807.63
2886.57
2979.88
3099.85
3252.32
3430.09
3601.88
3729.38
3783.59
3743.99
3564.12
3260.16
2950.3
2754.16
2675.79
2651.09
2654.51
2662.46
2668.6
2679.52
2718.49
2796.19
2881.45
2912.64
2892.17
2840.69
2801.31
2775.11
2757.87
2765.04
2752.95
2720.36
2632.7
2601.86
2599.14
2555.45
2554.46
2589.47
2634.84
2674.74
2723.34
2792.52
2890.26
3007.96
3102
3157.44
3156.41
3085.65
2983.4
2895.04
2819.82
2760.08
2730.51
2729.87
2737.15
2748.06
2757.1
2764.51
2770.37
2772.25
2771.87
2770.46
2771.73
2763.61
2733.55
2692.35
2660.51
2640.69
2630.38
2640.01
2642.89
2631.9
2662.17
2601.86
2599.14
2555.45
2554.46
2589.47
2634.84
2674.74
2723.34
2792.52
2890.26
3007.96
3102
3157.44
3156.41
3085.65
2983.4
2895.04
2819.82
2760.08
2730.51
2729.87
2737.15
2748.06
2757.1
2764.51
2770.37
2772.25
2771.87
2770.46
2771.73
2763.61
2733.55
2692.35
2660.51
2640.69
2630.38
2640.01
2642.89
2631.9
2662.17
2612.86
2632.51
2640.33
2645.8
2664.98
2702.13
2745.83
2807.63
2886.57
2979.88
3099.85
3252.32
3430.09
3601.88
3729.38
3783.59
3743.99
3564.12
3260.16
2950.3
2754.16
2675.79
2651.09
2654.51
2662.46
2668.6
2679.52
2718.49
2796.19
2881.45
2912.64
2892.17
2840.69
2801.31
2775.11
2757.87
2765.04
2752.95
2720.36
2632.7
2593.27
2641.18
2698.06
2730.56
2760.42
2800.73
2872.95
2966.4
3076.4
3202.19
3353.04
3533.17
3735.27
3924.66
4066.16
4141
4133.24
4026.56
3801.54
3450.91
3030.91
2715.84
2589.13
2551.03
2548.79
2562.19
2603.29
2694.78
2845.03
2955.83
2975.17
2957.73
2926.51
2905.6
2892.4
2876.83
2871.65
2832.67
2754.96
2643.88
2660.76
2764.24
2851.6
2908.88
2952.34
2981.82
3042.48
3132.71
3251.08
3398.1
3569.75
3755.7
3947.48
4126.69
4259.78
4324.52
4324.73
4264.8
4135.19
3916.81
3567.46
3100.1
2689.96
2503.32
2454.15
2477.11
2545.97
2718.04
2894.3
2981.85
2988.91
2990.5
2989.05
2985.76
2981.24
2965.82
2936.71
2872.34
2764.16
2637.33
2718.31
2908.29
3066.26
3164.75
3213.92
3232.31
3256.84
3308.57
3402.26
3527.53
3689.62
3870.8
4046.44
4193.81
4303.02
4372.81
4395.82
4379.47
4320
4196.49
3981.83
3642.83
3152.94
2666.23
2429.04
2423.23
2543.56
2765.5
2933.29
3002.05
3011.33
3029.37
3046.83
3051.58
3047.54
3023.82
2968.86
2878.06
2753.34
2625.77
2876.61
3102.38
3299.82
3399.72
3432.97
3440.05
3463.72
3502.75
3547.73
3605.44
3729.38
3895.97
4062.31
4180.27
4258.16
4316.94
4361.33
4393.66
4388.27
4332.54
4217.61
4019.67
3687.32
3180.66
2653.71
2460.32
2593.08
2820.29
2974.59
3029.72
3045.01
3064.76
3082.56
3085.82
3078.62
3048.94
2984.08
2891.19
2768.35
2632.89
3233.78
3344.13
3510.35
3666.24
3714.96
3700.25
3688.33
3694.16
3718.72
3742.43
3771.88
3852.6
3999.19
4113.88
4171.75
4191.27
4233.63
4306.28
4361.43
4375.6
4326.12
4220.69
4029.18
3700.5
3208.85
2786.13
2738.52
2878.01
3010.98
3056.4
3077.88
3099.17
3112.2
3107.71
3088.94
3054.61
2988.76
2903.73
2792.16
2648.78
3590.8
3508.74
3498.52
3574.31
3679.82
3812.21
3929.03
3994.41
4053.98
4075.18
4060.53
4043.32
4043.77
4028.16
4034.47
4043.21
4109.97
4166.28
4246.47
4321.11
4357.46
4311.44
4175.21
3992.76
3737.85
3435.19
3126.73
3004.02
3042.34
3081.07
3106.59
3123.04
3126.98
3113.15
3085.14
3051.16
2991.96
2922.89
2829.69
2678.64
3861.83
3718.82
3576.5
3472.48
3452.31
3466.73
3484.94
3533.53
3628.69
3738.52
3816.2
3872.7
3963.79
4030.6
4008.65
3970.77
3943.35
3997.54
4133.81
4229.77
4308
4315.6
4242.59
4104.28
3992.5
4012.3
3794.18
3285.83
3088.01
3091.23
3112.85
3125.82
3122.2
3099.21
3065.73
3034.05
2991.55
2951.73
2881.03
2717.92
4074.07
3950.11
3811.76
3661.36
3507.16
3356.93
3244.25
3188.92
3123.98
3113.85
3150.17
3221.26
3267.27
3356.9
3454.92
3571.16
3650.39
3738.58
3881.56
4074.96
4217.32
4268.05
4235.72
4149.25
4080.55
4269.78
4455.35
3817.65
3184.61
3082.96
3093.5
3105.82
3098.97
3070.25
3037.65
3009.36
2986.21
2971.76
2914.33
2753.69
4245.83
4119.17
3989.3
3849.84
3698.1
3537.98
3373
3212.88
3073.58
2944.93
2864.56
2880.23
2900.51
2923.59
2972.32
3068.12
3135.72
3215.24
3372.64
3579.59
3836.55
4076.05
4187.6
4139.15
4085.81
4383.89
4874.28
4424.55
3456.49
3076.84
3065.67
3074.44
3065.24
3037.63
3011.82
2992.79
2984
2976.36
2909.1
2773.65
4383.36
4233.6
4091.73
3947.22
3799.35
3648.61
3485.08
3314.06
3165.9
3008.55
2860.75
2823.21
2819.47
2846.93
2911.84
3026.15
3061.64
3024.22
2944.11
3008.68
3141.92
3462.86
3763.27
3925.27
4004.66
4375.13
5064.34
4959.15
3906.24
3127.41
3050.98
3052.7
3039.59
3008.35
2979.5
2959.29
2944.05
2913.63
2843.71
2773.13
4490.28
4325.89
4175.57
4027.46
3870.39
3712.54
3550.3
3377.42
3221.33
3064.05
2876.96
2789.88
2780.5
2797.04
2926.86
3112.5
3193.87
3212.28
3110.25
2853.34
2839.62
2827.23
2975.08
3325
3568.51
3986.69
5044.8
5321.77
4391.89
3273.63
3024.9
3001.1
2973.1
2928.11
2882.74
2846.18
2805.97
2764.74
2749.19
2777.75
4583.96
4409.02
4248.8
4089.78
3916.31
3745.89
3575.72
3398.69
3242.04
3090.23
2884.96
2777.59
2767.61
2761.33
2845.99
3144.96
3393.89
3420.22
3369.04
3141.89
2861.82
2719.51
2710.9
2731.07
2826.58
3206.82
4509.32
5425.38
4767.86
3506.14
2951.33
2888.56
2840.14
2769.95
2700.56
2646.22
2614.51
2625.63
2686.44
2782.54
4671.58
4486.74
4309.67
4134.39
3945.05
3756.74
3586.4
3420.8
3255.54
3112.42
2915.81
2733.72
2704.74
2726.83
2805.27
3130.27
3502.91
3584.86
3556.03
3375.08
3055.56
2820.77
2686.43
2606.4
2618.79
2611.54
3417.16
4850.7
4906.78
3699.22
2788.18
2647.57
2575.86
2496.86
2444.12
2434.84
2478.22
2562.47
2667.9
2786.38
4738.3
4547.56
4346.24
4158.56
3976.24
3791.97
3637.53
3472.2
3269.73
3104.52
2952.14
2764.46
2687.47
2658.11
2672.89
2893.54
3467.77
3662.61
3645.95
3504.29
3216.14
2931.11
2755.13
2651.18
2584.66
2519.85
2723.67
4033.79
4540.74
3554.93
2490.37
2291.5
2259.01
2243.27
2266.52
2336.95
2428.74
2539.54
2665.13
2788.73
4764.48
4599.92
4385.29
4133.62
3915.35
3733.19
3569.47
3417.95
3263.79
3120.27
2997.09
2852.39
2718.91
2627.12
2595.47
2732.36
3373.95
3714.14
3710.91
3579.24
3312.39
3027.22
2827.22
2702.09
2619.22
2546.94
2553.45
3655.92
4247.27
3430.89
2301.91
2079.97
2106.3
2152.43
2214.95
2303.81
2415.58
2540.38
2667.12
2790.58
4734.97
4479.49
4244.74
4102.78
3963.83
3795.95
3623.31
3471.83
3334.01
3204.77
3090.97
2969.72
2822.48
2634.88
2493.7
2584.37
3266.69
3751.38
3769.53
3651.13
3401.65
3111.77
2888.39
2754.71
2665.87
2582.89
2535.95
3572.67
4222.51
3491.93
2322.24
2037.95
2067.19
2122.99
2198.29
2301
2418.09
2542.69
2668.48
2791.7
4429.41
4174.28
3958.95
3738.68
3566.88
3444.91
3334.7
3245.22
3154.62
3040.99
2919.07
2789.79
2618.79
2398.33
2307.39
2412.22
3061.45
3523.85
3539.19
3442.92
3246.11
3028.9
2845.38
2727.64
2655.51
2577.75
2526.37
3534.76
4284.06
3616.66
2391.45
2030.55
2060.73
2123.45
2203.35
2306.35
2422.05
2544.52
2669.24
2792.67
3487.85
3392.14
3337.94
3284.35
3226.76
3165.81
3076.77
2972.79
2861.52
2729.63
2590.36
2463.04
2303.71
2114.68
2046.86
2158.16
2787.73
3233.13
3255.36
3202.39
3075.68
2932.4
2804.81
2714.52
2677.19
2670.76
2640.08
3636.72
4413.3
3737.62
2456.03
2041.01
2066.36
2129.12
2209.36
2311.15
2425.12
2546.21
2670.06
2793.8
)
;

boundaryField
{
    inlet
    {
        type            calculated;
        value           uniform 14000.1;
    }
    outlet
    {
        type            calculated;
        value           nonuniform List<scalar> 
165
(
3504.69
4584.26
4844.25
4847.19
4827.11
4760.2
4670.44
4574.18
4460.94
4309.61
4136.12
3934.24
3626.93
3212.01
2810.28
2622.29
2618.62
2646.88
2665.8
2661.79
2661.79
2675.31
2703.85
2722.99
2730.16
2727.73
2724.57
2719.41
2707.37
2679.71
2630.93
2570.88
2508.86
2459.41
2437.35
2454.54
2517.64
2616.86
2711.77
2761.13
2783.47
2798.36
2806.93
2813.95
2821.11
2828.19
2832.77
2830.69
2815.74
2787.39
2745.93
2704.41
2670.42
2634.95
2610.39
2604.4
2602.18
2609.74
2627.6
2625.19
2854.27
2854.31
2854.05
2853.29
2852.4
2851.62
2849.08
2837.32
2811.5
2773.46
2728.57
2688.59
2653.98
2620.81
2600.63
2599.19
2598.88
2607.27
2626.71
2625.19
2854.84
2855.09
2855.54
2855.09
2854.84
2625.19
2626.71
2607.27
2598.88
2599.19
2600.63
2620.81
2653.98
2688.59
2728.57
2773.46
2811.5
2837.32
2849.08
2851.62
2852.4
2853.29
2854.05
2854.31
2854.27
2661.79
2675.31
2703.85
2722.99
2730.16
2727.73
2724.57
2719.41
2707.37
2679.71
2630.93
2570.88
2508.86
2459.41
2437.35
2454.54
2517.64
2616.86
2711.77
2761.13
2783.47
2798.36
2806.93
2813.95
2821.11
2828.19
2832.77
2830.69
2815.74
2787.39
2745.93
2704.41
2670.42
2634.95
2610.39
2604.4
2602.18
2609.74
2627.6
2625.19
2661.79
2665.8
2646.88
2618.62
2622.29
2810.28
3212.01
3626.93
3934.24
4136.12
4309.61
4460.94
4574.18
4670.44
4760.2
4827.11
4847.19
4844.25
4584.26
3504.69
)
;
    }
    obstacle
    {
        type            calculated;
        value           nonuniform List<scalar> 
40
(
4323.58
11407.1
11823.6
12110.8
12676.6
12961.7
12982
12863.2
12688.1
12488.4
4323.58
11407.1
11823.6
12110.8
12676.6
12961.7
12982
12863.2
12688.1
12488.4
12573.4
12364.3
12210.8
11846.9
11697.1
12573.4
12364.3
12210.8
11846.9
11697.1
6182.35
4206.9
3253.61
2736.14
2189.29
6182.35
4206.9
3253.61
2736.14
2189.29
)
;
    }
    empty
    {
        type            empty;
    }
}


// ************************************************************************* //
