/*--------------------------------*- C++ -*----------------------------------*\
| =========                 |                                                 |
| \\      /  F ield         | OpenFOAM: The Open Source CFD Toolbox           |
|  \\    /   O peration     | Version:  v1912                                 |
|   \\  /    A nd           | Website:  www.openfoam.com                      |
|    \\/     M anipulation  |                                                 |
\*---------------------------------------------------------------------------*/
FoamFile
{
    version     2.0;
    format      ascii;
    class       volVectorField;
    location    "3.6";
    object      grad(T);
}
// * * * * * * * * * * * * * * * * * * * * * * * * * * * * * * * * * * * * * //

dimensions      [0 -1 0 1 0 0 0];


internalField   nonuniform List<vector> 
1900
(
(0.945207 -1.73271e-05 0)
(-0.659462 -1.84801e-05 0)
(0.0917364 1.32518e-05 0)
(0.0566926 -0.000146035 0)
(0.0142789 0.000100848 0)
(-0.00439747 0.000157052 0)
(-0.0132615 -0.000674523 0)
(-0.0133007 -0.00179536 0)
(-0.00218869 -0.00605755 0)
(-0.0325244 -0.0161506 0)
(0.945172 -2.67818e-05 0)
(-0.659431 -3.40288e-05 0)
(0.0916089 4.05793e-05 0)
(0.0567802 -0.000258356 0)
(0.014582 5.34149e-05 0)
(-0.00517284 -0.000215214 0)
(-0.0152139 -0.00159166 0)
(-0.0186837 -0.00200832 0)
(-0.0165439 -0.00494586 0)
(-0.0342581 -0.0152164 0)
(0.945147 1.82146e-13 0)
(-0.659394 -5.20417e-14 0)
(0.0915121 -1.97325e-13 0)
(0.0567054 -1.32273e-13 0)
(0.014322 -6.07153e-14 0)
(-0.00604254 -4.33681e-15 0)
(-0.0150546 7.15573e-14 0)
(-0.0166549 1.88651e-13 0)
(-0.0153968 1.79978e-13 0)
(-0.0329403 1.51788e-14 0)
(0.945172 2.67818e-05 0)
(-0.659431 3.40288e-05 0)
(0.0916089 -4.05793e-05 0)
(0.0567802 0.000258356 0)
(0.014582 -5.34149e-05 0)
(-0.00517284 0.000215214 0)
(-0.0152139 0.00159166 0)
(-0.0186837 0.00200832 0)
(-0.0165439 0.00494586 0)
(-0.0342581 0.0152164 0)
(0.945207 1.73271e-05 0)
(-0.659462 1.84801e-05 0)
(0.0917364 -1.32518e-05 0)
(0.0566926 0.000146035 0)
(0.0142789 -0.000100848 0)
(-0.00439747 -0.000157052 0)
(-0.0132615 0.000674523 0)
(-0.0133007 0.00179536 0)
(-0.00218869 0.00605755 0)
(-0.0325244 0.0161506 0)
(-0.0835561 -0.010365 1.01855e-15)
(-0.179683 -0.0176393 -1.22269e-15)
(-0.400471 -0.0452347 -1.52142e-15)
(-0.733012 -0.037104 0)
(-0.550909 0.183723 -5.9425e-15)
(-0.0811186 -0.00806346 1.01667e-15)
(-0.207637 -0.0194875 1.22269e-15)
(-0.407894 -0.0529998 1.52142e-15)
(-0.608491 -0.0716577 0)
(-0.482941 0.121535 0)
(-0.0895252 -1.17848e-14 0)
(-0.225773 -3.32869e-14 0)
(-0.446892 8.73385e-14 0)
(-0.641647 1.39632e-13 0)
(-0.392576 2.96865e-13 0)
(-0.0811186 0.00806346 1.01667e-15)
(-0.207637 0.0194875 1.22269e-15)
(-0.407894 0.0529998 1.52142e-15)
(-0.608491 0.0716577 0)
(-0.482941 -0.121535 0)
(-0.0835561 0.010365 -3.0519e-15)
(-0.179683 0.0176393 -1.22269e-15)
(-0.400471 0.0452347 -1.52142e-15)
(-0.733012 0.037104 -4.01656e-15)
(-0.550909 -0.183723 5.9425e-15)
(-0.210085 -0.10691 2.56607e-15)
(-0.447356 -0.00509763 -2.05309e-15)
(-0.269812 0.0160089 0)
(-0.193733 0.0166024 1.48348e-15)
(-0.323768 -0.00272754 -6.51133e-16)
(-0.273001 -0.126487 -1.28143e-15)
(-0.416864 -0.00810695 1.02647e-15)
(-0.262366 0.0142941 0)
(-0.200987 -0.00317454 -9.27465e-16)
(-0.120939 -0.0189149 1.6262e-16)
(-0.246661 6.02335e-13 0)
(-0.412561 4.44801e-13 0)
(-0.270392 3.45338e-13 0)
(-0.208502 5.38558e-13 3.70948e-16)
(-0.137501 8.36928e-13 -3.2524e-16)
(-0.273001 0.126487 -1.28143e-15)
(-0.416864 0.00810695 1.02647e-15)
(-0.262366 -0.0142941 0)
(-0.200987 0.00317454 -9.27465e-16)
(-0.120939 0.0189149 1.6262e-16)
(-0.210085 0.10691 1.28143e-15)
(-0.447356 0.00509763 1.53524e-19)
(-0.269812 -0.0160089 0)
(-0.193733 -0.0166024 5.00011e-19)
(-0.323768 0.00272754 6.51133e-16)
(-0.597134 1.55931 0)
(-0.162574 0.703315 0)
(0.312445 0.222477 0)
(0.0561928 0.124461 0)
(-0.112107 0.0700855 0)
(-0.103051 0.0265068 0)
(-0.0616712 0.0106949 0)
(-0.0155144 0.00445416 0)
(0.000874522 0.00351834 0)
(0.00210998 0.00292188 0)
(0.00360182 0.00215611 0)
(0.001564 0.00159518 0)
(-0.00051763 0.00136682 0)
(-0.00232311 0.00124079 0)
(-0.00316095 0.00114875 0)
(-0.00316881 0.00108036 0)
(-0.0027127 0.00102417 0)
(-0.00217408 0.000977233 0)
(-0.00213913 0.000935403 0)
(-0.00243748 0.000912986 0)
(-0.00280524 0.000900142 0)
(-0.00369472 0.000887409 0)
(-0.00466816 0.000883086 0)
(-0.00584517 0.000882234 0)
(-0.00778726 0.000888677 0)
(-0.0105497 0.000902852 0)
(-0.0143643 0.000927542 0)
(-0.019347 0.000962509 0)
(-0.025373 0.00101424 0)
(-0.0320183 0.00106722 0)
(-0.038271 0.00111944 0)
(-0.0429562 0.0011195 0)
(-0.0438655 0.00105118 0)
(-0.0407512 0.00100205 0)
(-0.0327676 0.000746709 0)
(-0.0232737 0.00138558 0)
(-0.0205265 0.0012493 0)
(-0.208198 0.00124116 0)
(-0.55464 -0.00642321 0)
(-0.35718 -0.045283 0)
(-0.440584 0.510025 0)
(-0.286274 0.684538 0)
(0.206245 0.264597 0)
(0.0215509 0.0824697 0)
(-0.122932 0.0425846 0)
(-0.110262 0.0129763 0)
(-0.0638044 0.00419335 0)
(-0.016148 0.00198904 0)
(0.000750799 0.00115115 0)
(0.0020854 0.00121195 0)
(0.00348332 0.000791101 0)
(0.00150581 0.000548935 0)
(-0.000539035 0.000440106 0)
(-0.00233118 0.000393497 0)
(-0.0031656 0.000363123 0)
(-0.00317182 0.000345352 0)
(-0.00271553 0.000332668 0)
(-0.00217755 0.000322288 0)
(-0.00214221 0.000310798 0)
(-0.00243945 0.00030479 0)
(-0.00280795 0.000300477 0)
(-0.00369835 0.000292696 0)
(-0.00467223 0.000285614 0)
(-0.00584967 0.000278303 0)
(-0.00779188 0.000273404 0)
(-0.0105541 0.00027211 0)
(-0.0143679 0.000278148 0)
(-0.0193489 0.000294337 0)
(-0.0253732 0.000328559 0)
(-0.0320171 0.000380896 0)
(-0.0382723 0.000458407 0)
(-0.0429653 0.000549529 0)
(-0.0438757 0.000654261 0)
(-0.0407822 0.000820209 0)
(-0.0327137 0.000961078 0)
(-0.0231926 0.0016617 0)
(-0.0205145 0.00217501 0)
(-0.208833 0.00259552 0)
(-0.557373 0.00205355 0)
(-0.359266 0.017897 0)
(-0.3594 9.14672e-13 0)
(-0.233971 5.59843e-13 0)
(0.137298 4.33681e-13 0)
(-0.0083926 -7.2543e-13 0)
(-0.132324 -2.48381e-13 0)
(-0.114219 1.40749e-12 0)
(-0.0648675 3.62715e-12 0)
(-0.0163994 7.25627e-12 0)
(0.000648458 -9.38328e-13 0)
(0.00200524 6.58801e-12 0)
(0.00340895 1.63222e-12 0)
(0.00146189 -3.80456e-12 0)
(-0.000562849 -7.24838e-12 0)
(-0.00234551 -5.28696e-12 0)
(-0.00317495 -5.42101e-13 0)
(-0.00317767 4.80992e-12 0)
(-0.00271941 7.70572e-12 0)
(-0.00218044 5.24951e-12 0)
(-0.00214422 -1.68544e-12 0)
(-0.00244048 -9.24135e-12 0)
(-0.00280876 -6.47959e-12 0)
(-0.00369904 4.78035e-12 0)
(-0.00467235 4.78626e-12 0)
(-0.00584872 6.86004e-13 0)
(-0.00778906 5.26331e-13 0)
(-0.0105483 -1.10589e-12 0)
(-0.0143578 -3.78091e-12 0)
(-0.0193324 -3.363e-12 0)
(-0.0253478 -7.90482e-13 0)
(-0.0319805 3.15207e-12 0)
(-0.0382219 3.73951e-12 0)
(-0.0428992 2.74205e-12 0)
(-0.0437868 -4.2343e-12 0)
(-0.040662 -1.0913e-11 0)
(-0.0325228 -7.45734e-12 0)
(-0.0229206 -4.00169e-12 0)
(-0.0202548 4.55956e-12 0)
(-0.208234 -2.57606e-11 0)
(-0.550189 2.6216e-11 0)
(-0.352571 -1.20189e-11 0)
(-0.440584 -0.510025 0)
(-0.286274 -0.684538 0)
(0.206245 -0.264597 0)
(0.0215509 -0.0824697 0)
(-0.122932 -0.0425846 0)
(-0.110262 -0.0129763 0)
(-0.0638044 -0.00419335 0)
(-0.016148 -0.00198904 0)
(0.000750799 -0.00115115 0)
(0.0020854 -0.00121195 0)
(0.00348332 -0.000791101 0)
(0.00150581 -0.000548935 0)
(-0.000539035 -0.000440106 0)
(-0.00233118 -0.000393497 0)
(-0.0031656 -0.000363123 0)
(-0.00317182 -0.000345352 0)
(-0.00271553 -0.000332668 0)
(-0.00217755 -0.000322288 0)
(-0.00214221 -0.000310798 0)
(-0.00243945 -0.00030479 0)
(-0.00280795 -0.000300477 0)
(-0.00369835 -0.000292696 0)
(-0.00467223 -0.000285614 0)
(-0.00584967 -0.000278303 0)
(-0.00779188 -0.000273404 0)
(-0.0105541 -0.00027211 0)
(-0.0143679 -0.000278148 0)
(-0.0193489 -0.000294337 0)
(-0.0253732 -0.000328559 0)
(-0.0320171 -0.000380896 0)
(-0.0382723 -0.000458407 0)
(-0.0429653 -0.000549529 0)
(-0.0438757 -0.000654261 0)
(-0.0407822 -0.000820209 0)
(-0.0327137 -0.000961078 0)
(-0.0231926 -0.0016617 0)
(-0.0205145 -0.00217501 0)
(-0.208833 -0.00259552 0)
(-0.557373 -0.00205355 0)
(-0.359266 -0.017897 0)
(-0.597134 -1.55931 0)
(-0.162574 -0.703315 0)
(0.312445 -0.222477 0)
(0.0561928 -0.124461 0)
(-0.112107 -0.0700855 0)
(-0.103051 -0.0265068 0)
(-0.0616712 -0.0106949 0)
(-0.0155144 -0.00445416 0)
(0.000874522 -0.00351834 0)
(0.00210998 -0.00292188 0)
(0.00360182 -0.00215611 0)
(0.001564 -0.00159518 0)
(-0.00051763 -0.00136682 0)
(-0.00232311 -0.00124079 0)
(-0.00316095 -0.00114875 0)
(-0.00316881 -0.00108036 0)
(-0.0027127 -0.00102417 0)
(-0.00217408 -0.000977233 0)
(-0.00213913 -0.000935403 0)
(-0.00243748 -0.000912986 0)
(-0.00280524 -0.000900142 0)
(-0.00369472 -0.000887409 0)
(-0.00466816 -0.000883086 0)
(-0.00584517 -0.000882234 0)
(-0.00778726 -0.000888677 0)
(-0.0105497 -0.000902852 0)
(-0.0143643 -0.000927542 0)
(-0.019347 -0.000962509 0)
(-0.025373 -0.00101424 0)
(-0.0320183 -0.00106722 0)
(-0.038271 -0.00111944 0)
(-0.0429562 -0.0011195 0)
(-0.0438655 -0.00105118 0)
(-0.0407512 -0.00100205 0)
(-0.0327676 -0.000746709 0)
(-0.0232737 -0.00138558 0)
(-0.0205265 -0.0012493 0)
(-0.208198 -0.00124116 0)
(-0.55464 0.00642321 0)
(-0.35718 0.045283 0)
(0.0711791 -1.35771 0)
(0.409255 -0.283481 0)
(0.44655 -0.10205 0)
(0.0770872 -0.159577 0)
(-0.0740033 -0.0951741 0)
(-0.0813458 -0.0471882 0)
(-0.0524378 -0.0205842 0)
(-0.012379 -0.00912704 0)
(0.0015689 -0.00795066 0)
(0.00291147 -0.00583477 0)
(0.00417849 -0.00435814 0)
(0.00193362 -0.00329675 0)
(-0.000341488 -0.00284065 0)
(-0.00220373 -0.00255562 0)
(-0.00307036 -0.00234502 0)
(-0.00309716 -0.00218174 0)
(-0.00265412 -0.00204738 0)
(-0.00212587 -0.00193797 0)
(-0.00210548 -0.00184554 0)
(-0.00241962 -0.00179384 0)
(-0.00279504 -0.00176747 0)
(-0.00369186 -0.00174996 0)
(-0.00467369 -0.00175327 0)
(-0.00585838 -0.00176803 0)
(-0.00781015 -0.00180257 0)
(-0.0105835 -0.00185743 0)
(-0.0144095 -0.00194033 0)
(-0.0194054 -0.00205351 0)
(-0.025439 -0.00220124 0)
(-0.0320817 -0.00237073 0)
(-0.0383066 -0.00254202 0)
(-0.042933 -0.00266114 0)
(-0.0438137 -0.0026038 0)
(-0.040627 -0.00261882 0)
(-0.032892 -0.0024233 0)
(-0.023414 -0.00318848 0)
(-0.0204101 -0.00329047 0)
(-0.204754 -0.00316748 0)
(-0.531349 0.00417673 0)
(-0.337302 0.0131915 0)
(0.436682 -0.427212 0)
(0.740793 0.0443164 0)
(0.359931 -0.0667854 0)
(0.0516149 -0.138652 0)
(-0.0242375 -0.0963792 0)
(-0.042812 -0.0599082 0)
(-0.0299454 -0.0284926 0)
(-0.00502154 -0.01546 0)
(0.00367473 -0.012873 0)
(0.00514208 -0.00885174 0)
(0.00573832 -0.0068261 0)
(0.00282811 -0.00536416 0)
(0.000102092 -0.00466042 0)
(-0.00190952 -0.00419569 0)
(-0.00284924 -0.00385955 0)
(-0.00292042 -0.00358953 0)
(-0.00250921 -0.00337289 0)
(-0.00200542 -0.00319914 0)
(-0.00201828 -0.00305229 0)
(-0.00237182 -0.00296947 0)
(-0.00276843 -0.00292944 0)
(-0.00368257 -0.00290397 0)
(-0.00468261 -0.00291086 0)
(-0.00588559 -0.00293673 0)
(-0.00786114 -0.00299123 0)
(-0.0106643 -0.003087 0)
(-0.014529 -0.00322004 0)
(-0.0195672 -0.00340959 0)
(-0.0256432 -0.00366496 0)
(-0.0323127 -0.00396131 0)
(-0.0385318 -0.00424948 0)
(-0.0430281 -0.00452909 0)
(-0.0438525 -0.00449769 0)
(-0.0406439 -0.00461728 0)
(-0.0332498 -0.00460034 0)
(-0.0240341 -0.00549657 0)
(-0.0205686 -0.00609152 0)
(-0.202849 -0.0058299 0)
(-0.551365 0.00095576 0)
(-0.359153 -0.0209992 0)
(0.525561 -0.0271744 0)
(0.756576 0.0301626 0)
(0.270235 -0.0781401 0)
(0.0485695 -0.105688 0)
(0.00187698 -0.0829169 0)
(-0.0159278 -0.058367 0)
(-0.00960594 -0.0335192 0)
(0.00267259 -0.021792 0)
(0.0079369 -0.0175838 0)
(0.00873848 -0.0121374 0)
(0.00753926 -0.00980346 0)
(0.00402055 -0.0080573 0)
(0.000784492 -0.00705863 0)
(-0.00143198 -0.00637267 0)
(-0.00248624 -0.0058693 0)
(-0.00262821 -0.0054586 0)
(-0.00227792 -0.00513327 0)
(-0.00181693 -0.00488309 0)
(-0.00188416 -0.00467125 0)
(-0.00230124 -0.00455427 0)
(-0.00273192 -0.00450191 0)
(-0.00367395 -0.00446849 0)
(-0.00470527 -0.00448482 0)
(-0.00593582 -0.00452709 0)
(-0.00795495 -0.00462066 0)
(-0.010804 -0.00475491 0)
(-0.0147204 -0.00497435 0)
(-0.0198341 -0.00525511 0)
(-0.0259707 -0.00560354 0)
(-0.032645 -0.00606423 0)
(-0.0388538 -0.00646203 0)
(-0.0431722 -0.00686743 0)
(-0.0438987 -0.00684149 0)
(-0.0407259 -0.00706143 0)
(-0.0337394 -0.00727318 0)
(-0.024851 -0.00836056 0)
(-0.0207314 -0.00921789 0)
(-0.197963 -0.00856678 0)
(-0.545967 0.0025047 0)
(-0.358459 -0.00389623 0)
(0.491934 0.00428686 0)
(0.69168 -0.0211566 0)
(0.229021 -0.0736164 0)
(0.0470118 -0.0851785 0)
(0.0213626 -0.0728863 0)
(0.00478943 -0.0531331 0)
(0.0052996 -0.0362468 0)
(0.0103344 -0.0260787 0)
(0.0129783 -0.020801 0)
(0.0126395 -0.0156757 0)
(0.00967002 -0.0129483 0)
(0.00547313 -0.0109932 0)
(0.00172546 -0.00971583 0)
(-0.000763434 -0.00879598 0)
(-0.00196842 -0.00813651 0)
(-0.00221115 -0.0075518 0)
(-0.00195462 -0.00711589 0)
(-0.00156021 -0.00678905 0)
(-0.00170141 -0.00651177 0)
(-0.00220864 -0.00636206 0)
(-0.00268577 -0.00630195 0)
(-0.0036661 -0.00626103 0)
(-0.00473907 -0.00628784 0)
(-0.00601649 -0.00635743 0)
(-0.00808068 -0.00647798 0)
(-0.0110051 -0.00670424 0)
(-0.015011 -0.00695587 0)
(-0.0201735 -0.00737055 0)
(-0.0264229 -0.00786499 0)
(-0.03314 -0.00845807 0)
(-0.0393058 -0.00894786 0)
(-0.0433938 -0.00957581 0)
(-0.0440394 -0.00968084 0)
(-0.0410599 -0.0100052 0)
(-0.0345017 -0.0105445 0)
(-0.0259081 -0.0118187 0)
(-0.0207673 -0.0128668 0)
(-0.191553 -0.0116648 0)
(-0.546864 0.00441777 0)
(-0.365321 -0.0138625 0)
(0.501043 -0.0328921 0)
(0.681505 -0.0359322 0)
(0.208541 -0.0705337 0)
(0.0492731 -0.0703583 0)
(0.032757 -0.0638289 0)
(0.0193794 -0.0500119 0)
(0.0164647 -0.0380811 0)
(0.0175567 -0.0295852 0)
(0.0179616 -0.0239521 0)
(0.0163057 -0.0194671 0)
(0.0120515 -0.0165141 0)
(0.00713547 -0.0143995 0)
(0.0029018 -0.012883 0)
(8.99131e-05 -0.0117806 0)
(-0.00128731 -0.0108519 0)
(-0.0016447 -0.0101317 0)
(-0.0015429 -0.0095611 0)
(-0.00123478 -0.00915806 0)
(-0.0014727 -0.0088139 0)
(-0.00209904 -0.00863446 0)
(-0.00263456 -0.00857364 0)
(-0.00366036 -0.0085268 0)
(-0.00479816 -0.00857363 0)
(-0.00611905 -0.00867323 0)
(-0.00828915 -0.00886959 0)
(-0.0112645 -0.00911092 0)
(-0.0153625 -0.00957768 0)
(-0.0207102 -0.0100015 0)
(-0.0270187 -0.0106935 0)
(-0.0336885 -0.0115724 0)
(-0.0399309 -0.0121203 0)
(-0.0438786 -0.0130127 0)
(-0.0443125 -0.0132957 0)
(-0.0415582 -0.0139886 0)
(-0.0354869 -0.0148232 0)
(-0.0270889 -0.0165512 0)
(-0.020583 -0.0178017 0)
(-0.181307 -0.0165924 0)
(-0.548085 0.00205319 0)
(-0.376075 -0.0207861 0)
(0.489004 -0.013546 0)
(0.655407 -0.038909 0)
(0.195847 -0.062706 0)
(0.0534728 -0.060847 0)
(0.0409691 -0.0563826 0)
(0.0296009 -0.0478971 0)
(0.0249835 -0.0397018 0)
(0.0239497 -0.0330122 0)
(0.0227285 -0.0278066 0)
(0.0198069 -0.0238018 0)
(0.0145533 -0.0208502 0)
(0.0089722 -0.0186424 0)
(0.00424919 -0.0169991 0)
(0.00119383 -0.015529 0)
(-0.000379544 -0.0143983 0)
(-0.000967292 -0.0134658 0)
(-0.00101635 -0.0127567 0)
(-0.000840173 -0.0122714 0)
(-0.00119686 -0.0118578 0)
(-0.00197711 -0.0116524 0)
(-0.00258202 -0.0115967 0)
(-0.0036661 -0.0115472 0)
(-0.00488018 -0.011626 0)
(-0.00630168 -0.0117774 0)
(-0.00850246 -0.0120446 0)
(-0.0116875 -0.0124424 0)
(-0.0158692 -0.0129127 0)
(-0.0212487 -0.0136814 0)
(-0.0279367 -0.0144373 0)
(-0.0345149 -0.0155155 0)
(-0.0406937 -0.0161528 0)
(-0.0445265 -0.0174133 0)
(-0.0449799 -0.017661 0)
(-0.0425319 -0.0185124 0)
(-0.0369711 -0.019392 0)
(-0.0287782 -0.0214645 0)
(-0.020807 -0.0226532 0)
(-0.17242 -0.0215507 0)
(-0.550906 -0.00283276 0)
(-0.38733 -0.0274276 0)
(0.476602 -0.0231669 0)
(0.634133 -0.0428392 0)
(0.187401 -0.0583239 0)
(0.0553665 -0.0596924 0)
(0.045236 -0.0558207 0)
(0.0354536 -0.0502589 0)
(0.0308084 -0.0440249 0)
(0.0290193 -0.0382235 0)
(0.026837 -0.0334798 0)
(0.0230091 -0.0297517 0)
(0.0170234 -0.0267532 0)
(0.0108466 -0.0243264 0)
(0.00590193 -0.0223371 0)
(0.00259617 -0.0205593 0)
(0.000700876 -0.019144 0)
(-6.28497e-05 -0.0179493 0)
(-0.000391928 -0.0171024 0)
(-0.000368551 -0.0165145 0)
(-0.000876189 -0.0160417 0)
(-0.00184742 -0.0158206 0)
(-0.00253318 -0.0157651 0)
(-0.00368861 -0.0157228 0)
(-0.00502006 -0.0158465 0)
(-0.00652244 -0.0160894 0)
(-0.00892997 -0.0164217 0)
(-0.0121011 -0.0169964 0)
(-0.0165564 -0.0176308 0)
(-0.0221794 -0.018712 0)
(-0.0287861 -0.0195723 0)
(-0.0353416 -0.021417 0)
(-0.0417596 -0.0221456 0)
(-0.0453319 -0.0239841 0)
(-0.0453717 -0.0248821 0)
(-0.0432263 -0.0260856 0)
(-0.0383316 -0.0276526 0)
(-0.0302315 -0.0303079 0)
(-0.0206661 -0.032986 0)
(-0.162207 -0.0319794 0)
(-0.553748 -0.0158296 0)
(-0.399775 -0.0324953 0)
(0.470047 -0.0322851 0)
(0.621529 -0.0476559 0)
(0.179606 -0.0576029 0)
(0.0558849 -0.0609496 0)
(0.0500596 -0.0571793 0)
(0.0409679 -0.0526584 0)
(0.0365813 -0.0473871 0)
(0.0341113 -0.0425176 0)
(0.0308922 -0.0387897 0)
(0.0262889 -0.0358048 0)
(0.0197813 -0.033129 0)
(0.0132278 -0.0309882 0)
(0.00787934 -0.0287899 0)
(0.00427077 -0.0269958 0)
(0.00213558 -0.0252447 0)
(0.00100008 -0.0238992 0)
(0.000366221 -0.0228657 0)
(0.000181972 -0.0221754 0)
(-0.000528144 -0.0216497 0)
(-0.0017106 -0.021414 0)
(-0.00248778 -0.0213562 0)
(-0.00374455 -0.0213386 0)
(-0.00523347 -0.0215291 0)
(-0.00685597 -0.0218473 0)
(-0.00937649 -0.0223518 0)
(-0.0128526 -0.0229416 0)
(-0.0175223 -0.0239338 0)
(-0.0231196 -0.0248566 0)
(-0.0305433 -0.0258836 0)
(-0.0369946 -0.027796 0)
(-0.0431675 -0.0289477 0)
(-0.0471634 -0.0308204 0)
(-0.047005 -0.0321826 0)
(-0.0452016 -0.0336474 0)
(-0.0410399 -0.0360737 0)
(-0.0339178 -0.0392195 0)
(-0.0224176 -0.0435874 0)
(-0.155888 -0.043313 0)
(-0.551403 -0.0320543 0)
(-0.403389 -0.0368939 0)
(0.46179 -0.030775 0)
(0.609736 -0.0493075 0)
(0.174591 -0.0574948 0)
(0.0557747 -0.0618687 0)
(0.0532257 -0.0616234 0)
(0.0448898 -0.0586081 0)
(0.0405805 -0.0540323 0)
(0.0373041 -0.0504194 0)
(0.0333057 -0.0474203 0)
(0.0284638 -0.0449372 0)
(0.0216648 -0.042243 0)
(0.015028 -0.0396704 0)
(0.0097492 -0.0371204 0)
(0.0060124 -0.0347379 0)
(0.00368484 -0.0326772 0)
(0.00222967 -0.0311025 0)
(0.00126922 -0.0299069 0)
(0.000803211 -0.0291315 0)
(-0.000142498 -0.0285582 0)
(-0.00156456 -0.028296 0)
(-0.00246053 -0.0282421 0)
(-0.00385519 -0.028268 0)
(-0.00551028 -0.0285367 0)
(-0.00731529 -0.0289489 0)
(-0.00998448 -0.0295935 0)
(-0.0136255 -0.0304562 0)
(-0.0184018 -0.0315397 0)
(-0.0240583 -0.0331956 0)
(-0.0316185 -0.0344788 0)
(-0.0382943 -0.0368655 0)
(-0.0446741 -0.0386612 0)
(-0.0484492 -0.040459 0)
(-0.0480959 -0.0418015 0)
(-0.0469759 -0.043066 0)
(-0.043701 -0.0453408 0)
(-0.037472 -0.048282 0)
(-0.0246108 -0.0519065 0)
(-0.151093 -0.0523565 0)
(-0.547562 -0.0420897 0)
(-0.404439 -0.0384308 0)
(0.452189 -0.0304714 0)
(0.595781 -0.0510186 0)
(0.167502 -0.0602914 0)
(0.0519065 -0.064804 0)
(0.0532016 -0.0667633 0)
(0.0482828 -0.0646621 0)
(0.0444721 -0.0605585 0)
(0.0404829 -0.0578664 0)
(0.0361751 -0.0551846 0)
(0.0312779 -0.0530736 0)
(0.0248565 -0.0500257 0)
(0.0181642 -0.0472544 0)
(0.0126326 -0.0445097 0)
(0.00855233 -0.0420741 0)
(0.00563876 -0.0401343 0)
(0.00366969 -0.038532 0)
(0.00226557 -0.037378 0)
(0.00148159 -0.0365867 0)
(0.00027694 -0.0360211 0)
(-0.00140594 -0.0357375 0)
(-0.00246077 -0.0356818 0)
(-0.00402844 -0.0357534 0)
(-0.00588963 -0.0360563 0)
(-0.00787439 -0.0365117 0)
(-0.0108289 -0.0371015 0)
(-0.014728 -0.0380154 0)
(-0.0201621 -0.038945 0)
(-0.0259519 -0.040731 0)
(-0.0340797 -0.0420407 0)
(-0.0410249 -0.0447536 0)
(-0.0466304 -0.0468445 0)
(-0.0501896 -0.0483644 0)
(-0.0495171 -0.0496785 0)
(-0.0486122 -0.0507289 0)
(-0.0460662 -0.0524512 0)
(-0.0402447 -0.0551038 0)
(-0.026344 -0.0577763 0)
(-0.146428 -0.0583121 0)
(-0.537984 -0.046195 0)
(-0.399863 -0.037528 0)
(0.44199 -0.0292032 0)
(0.581 -0.0502316 0)
(0.161307 -0.0599594 0)
(0.0495381 -0.062383 0)
(0.0533624 -0.0646828 0)
(0.0508689 -0.0634283 0)
(0.0471291 -0.061416 0)
(0.0424826 -0.0603008 0)
(0.0379242 -0.0589835 0)
(0.0334351 -0.0580746 0)
(0.0272724 -0.0556349 0)
(0.0203434 -0.0535291 0)
(0.0147411 -0.050655 0)
(0.0102286 -0.0483114 0)
(0.0070981 -0.046331 0)
(0.00488583 -0.0447573 0)
(0.00314383 -0.0436851 0)
(0.00211075 -0.0429326 0)
(0.000675788 -0.0424455 0)
(-0.0012376 -0.0421697 0)
(-0.00247588 -0.042103 0)
(-0.0042161 -0.0422057 0)
(-0.00624099 -0.0424894 0)
(-0.00832247 -0.0429138 0)
(-0.0114335 -0.0434526 0)
(-0.015402 -0.0442527 0)
(-0.0210185 -0.0451777 0)
(-0.0270414 -0.0465138 0)
(-0.0354949 -0.0475633 0)
(-0.0429234 -0.0493134 0)
(-0.0481536 -0.0507656 0)
(-0.0511801 -0.0511651 0)
(-0.0503745 -0.0517183 0)
(-0.0496478 -0.0522263 0)
(-0.0479168 -0.053304 0)
(-0.0426034 -0.055459 0)
(-0.0277025 -0.0575936 0)
(-0.139933 -0.0576009 0)
(-0.527534 -0.0444321 0)
(-0.396087 -0.03491 0)
(0.431925 -0.0262278 0)
(0.566143 -0.048548 0)
(0.155792 -0.0591975 0)
(0.0473548 -0.0608446 0)
(0.0521943 -0.0627095 0)
(0.0514308 -0.0620319 0)
(0.0474859 -0.0620222 0)
(0.0428269 -0.0618714 0)
(0.0383203 -0.0614391 0)
(0.0345047 -0.0607127 0)
(0.0292367 -0.0587407 0)
(0.022963 -0.0564056 0)
(0.0176606 -0.0535051 0)
(0.0127191 -0.0512484 0)
(0.00906359 -0.04928 0)
(0.00621939 -0.0479475 0)
(0.0040239 -0.0470873 0)
(0.00267614 -0.0465811 0)
(0.00101207 -0.0462876 0)
(-0.00107594 -0.0461223 0)
(-0.00249541 -0.0460447 0)
(-0.0044007 -0.0460474 0)
(-0.00657198 -0.0461529 0)
(-0.00880263 -0.0463046 0)
(-0.0121191 -0.0466466 0)
(-0.0163903 -0.0471565 0)
(-0.022341 -0.0479041 0)
(-0.0282508 -0.0490414 0)
(-0.0367776 -0.0497045 0)
(-0.0441107 -0.0513674 0)
(-0.0484147 -0.052262 0)
(-0.0511076 -0.0522178 0)
(-0.0505397 -0.052382 0)
(-0.0501402 -0.0527319 0)
(-0.0491813 -0.0535564 0)
(-0.0443783 -0.055291 0)
(-0.028408 -0.0570702 0)
(-0.133745 -0.0569057 0)
(-0.516118 -0.0431987 0)
(-0.390688 -0.0312172 0)
(0.420482 -0.023772 0)
(0.549229 -0.0462122 0)
(0.149457 -0.0577924 0)
(0.0461539 -0.0601527 0)
(0.0522182 -0.0609537 0)
(0.0515312 -0.0599857 0)
(0.0472839 -0.0609883 0)
(0.0430445 -0.0608034 0)
(0.0390408 -0.0604161 0)
(0.0360354 -0.0591542 0)
(0.0314228 -0.0568175 0)
(0.0253886 -0.0546191 0)
(0.0197108 -0.0519396 0)
(0.0143001 -0.049806 0)
(0.010279 -0.0480581 0)
(0.00699881 -0.046899 0)
(0.00446056 -0.0461583 0)
(0.00288136 -0.0457868 0)
(0.00111789 -0.0455902 0)
(-0.00100359 -0.0455012 0)
(-0.00240376 -0.0454108 0)
(-0.00432029 -0.0453218 0)
(-0.00648883 -0.0453088 0)
(-0.00879824 -0.0452842 0)
(-0.0122543 -0.0454465 0)
(-0.0166138 -0.0457821 0)
(-0.022835 -0.0461561 0)
(-0.0287763 -0.0473635 0)
(-0.0377362 -0.0479404 0)
(-0.0453879 -0.049382 0)
(-0.0489731 -0.0504084 0)
(-0.0512957 -0.0508334 0)
(-0.0508698 -0.0512939 0)
(-0.0507795 -0.0520063 0)
(-0.0503829 -0.0530733 0)
(-0.0459894 -0.0547545 0)
(-0.0292584 -0.0565306 0)
(-0.126566 -0.0564735 0)
(-0.502779 -0.04209 0)
(-0.384541 -0.0282243 0)
(0.410301 -0.0200445 0)
(0.53336 -0.0457033 0)
(0.142359 -0.0573733 0)
(0.0443085 -0.0599541 0)
(0.0523553 -0.0607276 0)
(0.0513976 -0.0598105 0)
(0.046698 -0.0604783 0)
(0.0433783 -0.0599053 0)
(0.0399095 -0.0593586 0)
(0.0379725 -0.0573111 0)
(0.0336069 -0.0544649 0)
(0.0276635 -0.0515987 0)
(0.0222986 -0.0480271 0)
(0.0164595 -0.045865 0)
(0.011865 -0.0438279 0)
(0.00805013 -0.0424017 0)
(0.00509559 -0.0414875 0)
(0.00322359 -0.0410054 0)
(0.00128731 -0.0408037 0)
(-0.000903104 -0.0408156 0)
(-0.00232249 -0.0407113 0)
(-0.00430239 -0.040476 0)
(-0.00653576 -0.0404151 0)
(-0.00893535 -0.0404882 0)
(-0.012599 -0.040793 0)
(-0.0170741 -0.0415028 0)
(-0.0238648 -0.0420394 0)
(-0.0299702 -0.0436434 0)
(-0.0387227 -0.0449438 0)
(-0.0464889 -0.046957 0)
(-0.0498133 -0.0485778 0)
(-0.051961 -0.0495261 0)
(-0.05167 -0.0504348 0)
(-0.0518549 -0.051566 0)
(-0.0518296 -0.0529926 0)
(-0.0477099 -0.0547781 0)
(-0.0300645 -0.0566636 0)
(-0.119829 -0.0566237 0)
(-0.488896 -0.0422435 0)
(-0.377326 -0.0236727 0)
(0.395756 -0.0192268 0)
(0.513258 -0.0433699 0)
(0.135725 -0.056476 0)
(0.0429215 -0.0597982 0)
(0.0523565 -0.0602884 0)
(0.0517715 -0.0596019 0)
(0.0471925 -0.0590985 0)
(0.0441234 -0.0578003 0)
(0.0415407 -0.0569423 0)
(0.0407512 -0.0540951 0)
(0.0369275 -0.0504503 0)
(0.0315923 -0.0464317 0)
(0.025236 -0.0420772 0)
(0.0183466 -0.0393549 0)
(0.0136164 -0.0369265 0)
(0.0092541 -0.0351089 0)
(0.00580602 -0.0338575 0)
(0.00354026 -0.033001 0)
(0.00130078 -0.0324129 0)
(-0.000914546 -0.0321936 0)
(-0.00207652 -0.0320574 0)
(-0.00403478 -0.0319952 0)
(-0.00650052 -0.0322748 0)
(-0.00916246 -0.0327175 0)
(-0.0132321 -0.03342 0)
(-0.0178149 -0.0346221 0)
(-0.0248977 -0.0356237 0)
(-0.0315751 -0.0380309 0)
(-0.0409293 -0.0402149 0)
(-0.0488898 -0.0431415 0)
(-0.0514488 -0.0456449 0)
(-0.0530851 -0.0473379 0)
(-0.0528356 -0.0488865 0)
(-0.0532443 -0.0504791 0)
(-0.0534782 -0.0521973 0)
(-0.0495269 -0.0538958 0)
(-0.0310369 -0.0561064 0)
(-0.112671 -0.0554166 0)
(-0.471027 -0.0394238 0)
(-0.366646 -0.0208577 0)
(0.387035 -0.00821836 0)
(0.497465 -0.0386235 0)
(0.126528 -0.0535798 0)
(0.0406348 -0.0568707 0)
(0.0525445 -0.0563084 0)
(0.0525441 -0.0552777 0)
(0.048434 -0.05382 0)
(0.0454561 -0.0518237 0)
(0.04348 -0.0500586 0)
(0.0442284 -0.0470256 0)
(0.0409917 -0.0429138 0)
(0.0357321 -0.0379524 0)
(0.029118 -0.0335002 0)
(0.0214229 -0.0306202 0)
(0.0159566 -0.028128 0)
(0.0110075 -0.0263027 0)
(0.0071268 -0.0249149 0)
(0.00461571 -0.0238479 0)
(0.00206538 -0.0231448 0)
(-0.000560543 -0.02287 0)
(-0.00213128 -0.0226924 0)
(-0.00451188 -0.0226969 0)
(-0.00723188 -0.0231571 0)
(-0.010039 -0.0238794 0)
(-0.0144343 -0.0248243 0)
(-0.0191976 -0.0262056 0)
(-0.0271497 -0.0273625 0)
(-0.0343945 -0.029989 0)
(-0.0436475 -0.0324696 0)
(-0.0517214 -0.0356682 0)
(-0.0538571 -0.0387705 0)
(-0.0550848 -0.0409914 0)
(-0.0546969 -0.0430213 0)
(-0.0550452 -0.0448969 0)
(-0.0551221 -0.0467917 0)
(-0.0514768 -0.0487171 0)
(-0.03153 -0.0508726 0)
(-0.103754 -0.0485426 0)
(-0.455594 -0.0318282 0)
(-0.359435 -0.00579441 0)
(0.366456 0.0254249 0)
(0.469546 -0.0184164 0)
(0.118141 -0.0254338 0)
(0.0402921 -0.0318524 0)
(0.0538916 -0.0340238 0)
(0.0541695 -0.0353103 0)
(0.0505209 -0.0347641 0)
(0.0477481 -0.0338055 0)
(0.0461643 -0.0321709 0)
(0.0476361 -0.0294097 0)
(0.0456707 -0.0269277 0)
(0.0406636 -0.0240217 0)
(0.0323015 -0.0218101 0)
(0.0235234 -0.02146 0)
(0.0177769 -0.0208929 0)
(0.0123503 -0.0209571 0)
(0.00817159 -0.0209923 0)
(0.00524598 -0.0208661 0)
(0.00224312 -0.0205752 0)
(-0.000478601 -0.0199122 0)
(-0.00190971 -0.0198185 0)
(-0.00448251 -0.0203251 0)
(-0.00764007 -0.0204673 0)
(-0.0107691 -0.0204032 0)
(-0.0154736 -0.0200958 0)
(-0.0202608 -0.0199961 0)
(-0.0285436 -0.0194021 0)
(-0.0364964 -0.0200191 0)
(-0.046402 -0.0209509 0)
(-0.0549615 -0.0222537 0)
(-0.0565784 -0.023725 0)
(-0.0571814 -0.0246327 0)
(-0.0565991 -0.0255278 0)
(-0.0568776 -0.0262207 0)
(-0.0571595 -0.0269843 0)
(-0.0534594 -0.027499 0)
(-0.0308687 -0.0270674 0)
(-0.0943187 -0.0232136 0)
(-0.429833 -0.0126111 0)
(-0.341558 0.0313847 0)
(0.344788 -0.0432935 0)
(0.448456 -0.0776569 0)
(0.11358 -0.0733188 0)
(0.0323571 -0.086328 0)
(0.0492123 -0.100726 0)
(0.0518307 -0.113152 0)
(0.049884 -0.123731 0)
(0.047955 -0.132094 0)
(0.0477159 -0.140774 0)
(0.0492809 -0.145905 0)
(0.0461838 -0.152416 0)
(0.0406636 -0.158606 0)
(0.0315865 -0.166602 0)
(0.0223068 -0.178067 0)
(0.0164413 -0.187809 0)
(0.0109117 -0.199023 0)
(0.00721454 -0.20718 0)
(0.00501771 -0.212999 0)
(0.00298458 -0.215967 0)
(0.000168619 -0.209736 0)
(-0.00252916 -0.209796 0)
(-0.00513709 -0.215945 0)
(-0.00730716 -0.212838 0)
(-0.00968105 -0.207206 0)
(-0.014042 -0.198234 0)
(-0.0185291 -0.189486 0)
(-0.0271718 -0.177079 0)
(-0.035887 -0.167724 0)
(-0.0458009 -0.159092 0)
(-0.0543946 -0.152338 0)
(-0.0561496 -0.145599 0)
(-0.0568221 -0.139473 0)
(-0.0562271 -0.13188 0)
(-0.0564487 -0.124634 0)
(-0.056354 -0.116402 0)
(-0.051557 -0.107103 0)
(-0.0274004 -0.0966051 0)
(-0.0898229 -0.0899256 0)
(-0.402981 -0.0916925 0)
(-0.317039 -0.0790307 0)
(0.333343 -0.290104 0)
(0.440612 -0.431765 0)
(0.109785 -0.422034 0)
(0.013882 -0.461664 0)
(0.0280431 -0.492619 0)
(0.0320007 -0.513916 0)
(0.0322673 -0.533692 0)
(0.0313251 -0.547962 0)
(0.0328563 -0.55975 0)
(0.036417 -0.569318 0)
(0.0334314 -0.578265 0)
(0.0269938 -0.582764 0)
(0.013548 -0.585973 0)
(0.00308717 -0.583719 0)
(-0.00241717 -0.58136 0)
(-0.00631591 -0.577682 0)
(-0.00529564 -0.576061 0)
(-0.00322121 -0.573072 0)
(0.00538738 -0.57486 0)
(0.00546785 -0.570484 0)
(-0.00789342 -0.569853 0)
(-0.00741409 -0.573348 0)
(0.00078123 -0.570519 0)
(0.00330365 -0.57265 0)
(0.00160179 -0.572994 0)
(0.000125069 -0.575579 0)
(-0.00757255 -0.57772 0)
(-0.0191633 -0.576238 0)
(-0.0315759 -0.573969 0)
(-0.0419596 -0.56479 0)
(-0.0441813 -0.554609 0)
(-0.0439606 -0.542377 0)
(-0.0422996 -0.528292 0)
(-0.0419632 -0.513578 0)
(-0.0402654 -0.494243 0)
(-0.034382 -0.47722 0)
(-0.0143164 -0.448043 0)
(-0.0895847 -0.417773 0)
(-0.419334 -0.429945 0)
(-0.329357 -0.318404 0)
(0.208279 -0.224101 0)
(0.321323 -0.353884 0)
(0.0847686 -0.347892 0)
(-0.0356607 -0.379845 0)
(-0.0011394 -0.399304 0)
(0.0122511 -0.410128 0)
(0.0170756 -0.419799 0)
(0.0228449 -0.425893 0)
(0.0271366 -0.428599 0)
(0.0314386 -0.431829 0)
(0.0332268 -0.433765 0)
(0.0332366 -0.432041 0)
(0.0306666 -0.427287 0)
(0.0267513 -0.414277 0)
(0.0222585 -0.40273 0)
(0.0160178 -0.38867 0)
(0.0116572 -0.379553 0)
(0.00617563 -0.371077 0)
(0.00547822 -0.369802 0)
(0.00499309 -0.370983 0)
(-0.00528855 -0.370295 0)
(-0.0057782 -0.36828 0)
(-0.00663519 -0.368597 0)
(-0.0120665 -0.375976 0)
(-0.0168643 -0.384547 0)
(-0.0230833 -0.395139 0)
(-0.0278069 -0.408631 0)
(-0.0322721 -0.416137 0)
(-0.0347689 -0.422235 0)
(-0.0357384 -0.41945 0)
(-0.0345522 -0.415779 0)
(-0.031462 -0.409458 0)
(-0.0284745 -0.402809 0)
(-0.0236378 -0.395111 0)
(-0.0213188 -0.383792 0)
(-0.00703781 -0.37545 0)
(0.029885 -0.355416 0)
(-0.0723824 -0.32958 0)
(-0.307225 -0.337564 0)
(-0.209554 -0.21324 0)
(0.208279 0.224101 0)
(0.321323 0.353884 0)
(0.0847686 0.347892 0)
(-0.0356607 0.379845 0)
(-0.0011394 0.399304 0)
(0.0122511 0.410128 0)
(0.0170756 0.419799 0)
(0.0228449 0.425893 0)
(0.0271366 0.428599 0)
(0.0314386 0.431829 0)
(0.0332268 0.433765 0)
(0.0332366 0.432041 0)
(0.0306666 0.427287 0)
(0.0267513 0.414277 0)
(0.0222585 0.40273 0)
(0.0160178 0.38867 0)
(0.0116572 0.379553 0)
(0.00617563 0.371077 0)
(0.00547822 0.369802 0)