/*--------------------------------*- C++ -*----------------------------------*\
| =========                 |                                                 |
| \\      /  F ield         | OpenFOAM: The Open Source CFD Toolbox           |
|  \\    /   O peration     | Version:  v1912                                 |
|   \\  /    A nd           | Website:  www.openfoam.com                      |
|    \\/     M anipulation  |                                                 |
\*---------------------------------------------------------------------------*/
FoamFile
{
    version     2.0;
    format      ascii;
    class       volVectorField;
    location    "1.98";
    object      grad(p);
}
// * * * * * * * * * * * * * * * * * * * * * * * * * * * * * * * * * * * * * //

dimensions      [1 -2 -2 0 0 0 0];


internalField   nonuniform List<vector> 
1900
(
(12332.7 -0.0462579 0)
(-5271.23 0.177495 0)
(194.272 0.491352 0)
(72.9397 0.787362 0)
(55.3546 -0.939265 0)
(143.214 -5.03353 0)
(321.616 -17.1782 0)
(420.178 -40.8444 0)
(509.84 -65.0049 0)
(-35.5352 -69.1181 0)
(12332.8 -0.0197128 0)
(-5270.69 0.464634 0)
(194.882 0.989123 0)
(71.5091 0.786858 0)
(49.5337 -2.99855 0)
(126.975 -11.9518 0)
(285.805 -21.4824 0)
(372.351 -33.2843 0)
(481.567 -23.2849 0)
(601.392 -84.1173 0)
(12333.1 -3.19744e-10 0)
(-5270.22 -6.57252e-10 0)
(194.594 -1.61648e-09 0)
(68.952 5.50671e-10 0)
(42.616 2.00728e-09 0)
(124.73 1.04805e-09 0)
(300.284 5.86198e-10 0)
(418.375 -2.30926e-10 0)
(459.007 5.32907e-10 0)
(500.644 -5.50671e-10 0)
(12332.8 0.0197128 0)
(-5270.69 -0.464634 0)
(194.882 -0.989123 0)
(71.5091 -0.786858 0)
(49.5337 2.99855 0)
(126.975 11.9518 0)
(285.805 21.4824 0)
(372.351 33.2843 0)
(481.567 23.2849 0)
(601.392 84.1173 0)
(12332.7 0.0462579 0)
(-5271.23 -0.177495 0)
(194.272 -0.491352 0)
(72.9397 -0.787362 0)
(55.3546 0.939265 0)
(143.214 5.03353 0)
(321.616 17.1782 0)
(420.178 40.8444 0)
(509.84 65.0049 0)
(-35.5352 69.1181 0)
(75.755 476.239 1.06172e-11)
(661.011 575.211 -1.30502e-11)
(-662.778 617.502 -1.65567e-11)
(-7554.53 1669.02 0)
(-2460.38 10916.1 -6.48227e-11)
(758.027 422.065 1.07032e-11)
(580.273 392.337 1.30502e-11)
(-182.986 263.111 1.65567e-11)
(-3325.84 676.768 0)
(-1458.68 8968.24 0)
(769.26 8.3669e-10 0)
(561.586 1.16866e-09 0)
(-362.917 -1.13489e-09 0)
(-3103.83 2.4223e-09 0)
(3453.91 -5.28678e-10 0)
(758.027 -422.065 1.07032e-11)
(580.273 -392.337 1.30502e-11)
(-182.986 -263.111 1.65567e-11)
(-3325.84 -676.768 0)
(-1458.68 -8968.24 0)
(75.755 -476.239 -3.20236e-11)
(661.011 -575.211 -1.30502e-11)
(-662.778 -617.502 -1.65567e-11)
(-7554.53 -1669.02 -4.46591e-11)
(-2460.38 -10916.1 6.48227e-11)
(12014.5 -3779.47 3.29832e-11)
(1519.53 -573.167 -2.80597e-11)
(1457.99 -75.4602 0)
(1026.02 1933.39 2.20115e-11)
(-9599.42 -1603.01 -9.91971e-12)
(8217.88 -3951.93 -1.64347e-11)
(2390 -425.344 1.40212e-11)
(2376.42 -291.943 0)
(261.909 681.645 -1.37987e-11)
(-9253.71 -7433.19 2.41189e-12)
(9155.95 1.7943e-10 0)
(2391.29 -6.07301e-10 0)
(1848.38 2.63164e-09 0)
(-2346.42 -2.43814e-09 5.5277e-12)
(-11721.5 -9.76477e-09 -4.82378e-12)
(8217.88 3951.93 -1.64347e-11)
(2390 425.344 1.40212e-11)
(2376.42 291.943 0)
(261.909 -681.645 -1.37987e-11)
(-9253.71 7433.19 2.41189e-12)
(12014.5 3779.47 1.64347e-11)
(1519.53 573.167 1.72619e-14)
(1457.99 75.4602 0)
(1026.02 -1933.39 5.82275e-14)
(-9599.42 1603.01 9.91971e-12)
(-28667.5 -7000.5 0)
(-17273.9 7453.12 0)
(2440.4 3681.92 0)
(819.343 1253.95 0)
(153.945 498.712 0)
(832.461 233.279 0)
(1337.89 157.373 0)
(1812.01 81.6393 0)
(2431.68 49.8212 0)
(2877.86 24.5409 0)
(3248.35 15.5025 0)
(3500.32 10.8073 0)
(3634.6 8.88767 0)
(3593.73 8.4804 0)
(3235.95 9.41739 0)
(2394.82 9.09889 0)
(1236.82 5.31033 0)
(361.936 1.89759 0)
(44.834 0.649034 0)
(1.57454 0.552456 0)
(-1.94321 0.551506 0)
(-51.5407 0.551283 0)
(-398.526 0.55023 0)
(-1325.68 0.542425 0)
(-2523.47 0.517918 0)
(-3379.37 0.473226 0)
(-3748.1 0.41266 0)
(-3815.76 0.343435 0)
(-3739.78 0.272906 0)
(-3593.59 0.207123 0)
(-3406.9 0.150154 0)
(-3190.03 0.103991 0)
(-2940.32 0.0688142 0)
(-2643.41 0.0435228 0)
(-2304.52 0.0264688 0)
(-1977.36 0.0156051 0)
(-1749.83 0.0093582 0)
(-2488.94 0.00497375 0)
(49262.9 0.00228587 0)
(-71438.6 0.000137903 0)
(-26713.9 -3491.96 0)
(-17606.8 9686.32 0)
(1351.43 3700.09 0)
(195.016 706.963 0)
(74.241 276.601 0)
(783.673 115.588 0)
(1320.82 37.2191 0)
(1808.94 39.3998 0)
(2424.6 19.3446 0)
(2874.26 6.21548 0)
(3247.01 1.81176 0)
(3499.74 -0.0637419 0)
(3634.45 -0.805946 0)
(3593.92 -0.67912 0)
(3236.07 0.190411 0)
(2394.5 0.207452 0)
(1236.56 -0.96852 0)
(362.023 -0.808301 0)
(44.9198 -0.437036 0)
(1.58786 -0.371078 0)
(-1.943 -0.370247 0)
(-51.5405 -0.369987 0)
(-398.525 -0.369233 0)
(-1325.68 -0.363969 0)
(-2523.46 -0.34755 0)
(-3379.35 -0.318005 0)
(-3748.09 -0.278183 0)
(-3815.75 -0.232637 0)
(-3739.77 -0.18598 0)
(-3593.57 -0.142094 0)
(-3406.89 -0.103704 0)
(-3190.02 -0.072255 0)
(-2940.31 -0.0480384 0)
(-2643.41 -0.0304658 0)
(-2304.51 -0.018524 0)
(-1977.36 -0.0108816 0)
(-1749.83 -0.00645324 0)
(-2488.94 -0.00347545 0)
(49262.9 -0.00162937 0)
(-71438.6 -7.17353e-05 0)
(-23569.8 3.61731e-09 0)
(-15181.6 5.65204e-10 0)
(-171.781 -2.09933e-10 0)
(-176.58 6.45948e-10 0)
(-18.0914 -4.36015e-10 0)
(762.823 -8.7203e-10 0)
(1315.72 -5.81353e-10 0)
(1806.81 1.2919e-10 0)
(2422.02 -1.06581e-09 0)
(2872.75 -1.2919e-09 0)
(3246.52 -5.81353e-10 0)
(3499.56 -1.80865e-09 0)
(3634.42 -1.93784e-09 0)
(3594.02 7.81597e-09 0)
(3236.2 4.75095e-08 0)
(2394.48 1.00703e-07 0)
(1236.52 -7.99199e-07 0)
(362.091 5.71696e-07 0)
(44.9611 -1.30779e-05 0)
(1.59397 -4.5872e-07 0)
(-1.9429 -2.66828e-06 0)
(-51.5405 4.49199e-06 0)
(-398.524 2.18894e-05 0)
(-1325.68 -3.09959e-05 0)
(-2523.46 -1.44083e-05 0)
(-3379.35 -1.49215e-05 0)
(-3748.08 -6.89356e-06 0)
(-3815.74 -3.63071e-06 0)
(-3739.76 6.47627e-07 0)
(-3593.56 4.32155e-06 0)
(-3406.88 4.34339e-06 0)
(-3190.01 6.72283e-06 0)
(-2940.3 4.92776e-06 0)
(-2643.41 4.27301e-06 0)
(-2304.51 2.48835e-06 0)
(-1977.36 1.22777e-06 0)
(-1749.83 -1.0855e-06 0)
(-2488.94 -5.23638e-07 0)
(49262.9 -3.22732e-07 0)
(-71438.6 -8.83657e-08 0)
(-26713.9 3491.96 0)
(-17606.8 -9686.32 0)
(1351.43 -3700.09 0)
(195.016 -706.963 0)
(74.241 -276.601 0)
(783.673 -115.588 0)
(1320.82 -37.2191 0)
(1808.94 -39.3998 0)
(2424.6 -19.3446 0)
(2874.26 -6.21548 0)
(3247.01 -1.81176 0)
(3499.74 0.0637419 0)
(3634.45 0.805946 0)
(3593.92 0.67912 0)
(3236.07 -0.190411 0)
(2394.5 -0.207452 0)
(1236.56 0.968519 0)
(362.023 0.808302 0)
(44.9198 0.437012 0)
(1.58786 0.371077 0)
(-1.94299 0.370242 0)
(-51.5405 0.369995 0)
(-398.525 0.369272 0)
(-1325.68 0.363913 0)
(-2523.46 0.347525 0)
(-3379.35 0.317978 0)
(-3748.09 0.27817 0)
(-3815.75 0.23263 0)
(-3739.77 0.185981 0)
(-3593.57 0.142102 0)
(-3406.89 0.103712 0)
(-3190.02 0.0722674 0)
(-2940.31 0.0480477 0)
(-2643.41 0.0304738 0)
(-2304.51 0.0185287 0)
(-1977.36 0.0108839 0)
(-1749.83 0.00645124 0)
(-2488.94 0.00347447 0)
(49262.9 0.00162875 0)
(-71438.6 7.15476e-05 0)
(-28667.5 7000.5 0)
(-17273.9 -7453.12 0)
(2440.4 -3681.92 0)
(819.343 -1253.95 0)
(153.945 -498.712 0)
(832.461 -233.279 0)
(1337.89 -157.373 0)
(1812.01 -81.6393 0)
(2431.68 -49.8212 0)
(2877.86 -24.5409 0)
(3248.35 -15.5025 0)
(3500.32 -10.8073 0)
(3634.6 -8.88767 0)
(3593.73 -8.4804 0)
(3235.95 -9.41739 0)
(2394.82 -9.09889 0)
(1236.82 -5.31033 0)
(361.936 -1.89759 0)
(44.8339 -0.649023 0)
(1.57455 -0.552456 0)
(-1.94321 -0.551503 0)
(-51.5407 -0.551287 0)
(-398.526 -0.550251 0)
(-1325.68 -0.542398 0)
(-2523.47 -0.517903 0)
(-3379.37 -0.473213 0)
(-3748.1 -0.412654 0)
(-3815.76 -0.343431 0)
(-3739.78 -0.272907 0)
(-3593.59 -0.207127 0)
(-3406.9 -0.150158 0)
(-3190.03 -0.103997 0)
(-2940.32 -0.0688183 0)
(-2643.41 -0.0435263 0)
(-2304.52 -0.0264709 0)
(-1977.36 -0.0156062 0)
(-1749.83 -0.0093573 0)
(-2488.94 -0.00497329 0)
(49262.9 -0.00228562 0)
(-71438.6 -0.00013786 0)
(53246.3 16527.3 0)
(-24692.6 -4763.68 0)
(3980.89 -2351.32 0)
(1469.88 -1839.8 0)
(622.324 -810.838 0)
(941.374 -414.755 0)
(1396.2 -347.322 0)
(1872.84 -165.207 0)
(2452.24 -112.584 0)
(2891.64 -68.3571 0)
(3254.08 -50.7174 0)
(3503.22 -41.8006 0)
(3635.75 -38.471 0)
(3593.8 -37.5704 0)
(3235.83 -37.0781 0)
(2396.71 -33.9231 0)
(1240.77 -25.6813 0)
(365.047 -17.7848 0)
(45.8628 -15.3249 0)
(1.66442 -15.1384 0)
(-1.94201 -15.1366 0)
(-51.5395 -15.135 0)
(-398.518 -15.1074 0)
(-1325.65 -14.9099 0)
(-2523.41 -14.3234 0)
(-3379.27 -13.2982 0)
(-3747.98 -11.9392 0)
(-3815.64 -10.3825 0)
(-3739.66 -8.75282 0)
(-3593.47 -7.15599 0)
(-3406.8 -5.67401 0)
(-3189.95 -4.36292 0)
(-2940.26 -3.25317 0)
(-2643.37 -2.35279 0)
(-2304.49 -1.65857 0)
(-1977.35 -1.14572 0)
(-1749.82 -0.804082 0)
(-2488.94 -0.499568 0)
(49262.9 -0.275973 0)
(-71438.6 -0.0625783 0)
(57705.8 12735.1 0)
(-31487.8 -1619.8 0)
(4431.88 -1620.29 0)
(1954.97 -1559.08 0)
(1276.01 -1046.41 0)
(1220.72 -664.962 0)
(1547.09 -531.62 0)
(2005.59 -325.878 0)
(2513.97 -257.655 0)
(2930.08 -200.116 0)
(3270.87 -181.607 0)
(3510.56 -178.589 0)
(3638.05 -185.761 0)
(3595.04 -196.953 0)
(3239.52 -205.623 0)
(2404.79 -205.188 0)
(1250.25 -195.524 0)
(370.247 -186.859 0)
(46.8325 -184.712 0)
(1.7078 -184.59 0)
(-1.94062 -184.589 0)
(-51.5132 -184.575 0)
(-398.314 -184.247 0)
(-1324.94 -181.995 0)
(-2521.95 -175.592 0)
(-3377.12 -164.857 0)
(-3745.36 -151.063 0)
(-3812.76 -135.472 0)
(-3736.74 -119.054 0)
(-3590.68 -102.58 0)
(-3404.26 -86.6683 0)
(-3187.74 -71.8009 0)
(-2938.41 -58.3283 0)
(-2641.9 -46.4849 0)
(-2303.37 -36.4996 0)
(-1976.55 -28.3402 0)
(-1749.22 -22.2584 0)
(-2488.44 -15.6896 0)
(49263.3 -10.0131 0)
(-71438.3 -5.67645 0)
(63957.3 10878.7 0)
(-38525.9 -445.489 0)
(4039.4 -1210.4 0)
(2022.89 -1309.05 0)
(1483.93 -1197.68 0)
(1437.44 -924.441 0)
(1722.96 -791.442 0)
(2136.85 -653.408 0)
(2573.43 -613.548 0)
(2964.92 -598.61 0)
(3274.83 -619.594 0)
(3499.22 -661.866 0)
(3618.05 -715.375 0)
(3574.66 -770.151 0)
(3227.89 -816.811 0)
(2406.44 -846.35 0)
(1258.43 -855.336 0)
(375.467 -853.639 0)
(48.0495 -852.416 0)
(1.78312 -852.318 0)
(-1.92766 -852.317 0)
(-51.2099 -852.251 0)
(-396.031 -850.725 0)
(-1317.31 -840.656 0)
(-2506.89 -813.194 0)
(-3355.64 -768.991 0)
(-3719.67 -714.138 0)
(-3784.79 -653.56 0)
(-3707.96 -590.394 0)
(-3562.27 -526.809 0)
(-3377.15 -464.459 0)
(-3162.64 -404.661 0)
(-2915.86 -348.492 0)
(-2622.34 -296.912 0)
(-2287.01 -251.233 0)
(-1963.62 -211.721 0)
(-1737.63 -179.18 0)
(-2477.14 -139.647 0)
(49272.6 -100.082 0)
(-71423.5 -120.202 0)
(67759.6 6165.66 0)
(-43137.3 -583.055 0)
(3599.73 -1264.75 0)
(1967.23 -1457.5 0)
(1646.64 -1423.18 0)
(1612.19 -1351.36 0)
(1808.27 -1323.29 0)
(2177.02 -1293.3 0)
(2566.78 -1300.06 0)
(2924.26 -1351.26 0)
(3209.91 -1434.74 0)
(3418.27 -1541.56 0)
(3533.71 -1658.53 0)
(3497.29 -1773.85 0)
(3166.1 -1876.85 0)
(2367.66 -1956.13 0)
(1243.23 -2000.48 0)
(373.061 -2013.74 0)
(48.1048 -2015.22 0)
(1.8028 -2015.26 0)
(-1.87602 -2015.25 0)
(-49.9795 -2015.09 0)
(-387.14 -2011.34 0)
(-1288.78 -1987.55 0)
(-2452.9 -1925.31 0)
(-3281.67 -1829.03 0)
(-3634.12 -1713.63 0)
(-3693.52 -1589.59 0)
(-3614.6 -1462.56 0)
(-3469.33 -1335.84 0)
(-3286.55 -1211.67 0)
(-3075.99 -1091.73 0)
(-2834.58 -977.55 0)
(-2548.18 -870.938 0)
(-2221.27 -774.724 0)
(-1907.11 -689.527 0)
(-1679.76 -611.035 0)
(-2412.22 -513.752 0)
(49282.1 -403.57 0)
(-71226 -877.843 0)
(69336.9 4386.54 0)
(-45686.2 -828.974 0)
(3196.75 -1447.04 0)
(1870.23 -1761.31 0)
(1586.21 -1929.08 0)
(1533.69 -2005.22 0)
(1778.91 -2008.46 0)
(2159.24 -2016.88 0)
(2517.58 -2055.52 0)
(2835.14 -2139.47 0)
(3091.44 -2259.75 0)
(3283.57 -2403.1 0)
(3394.21 -2557.36 0)
(3364.28 -2711.79 0)
(3052.25 -2855.42 0)
(2287.31 -2973.8 0)
(1202.92 -3049.1 0)
(361.266 -3077.57 0)
(46.5848 -3082.06 0)
(1.74483 -3082.26 0)
(-1.76584 -3082.26 0)
(-47.4331 -3081.98 0)
(-369.494 -3075.82 0)
(-1234.41 -3038.36 0)
(-2354.14 -2944.34 0)
(-3151.65 -2804.32 0)
(-3488.94 -2641.79 0)
(-3542.85 -2471.54 0)
(-3463.44 -2300.7 0)
(-3320.5 -2132.87 0)
(-3141.91 -1970.11 0)
(-2937.04 -1813.87 0)
(-2703.1 -1665.66 0)
(-2426.89 -1527.99 0)
(-2112.19 -1404.41 0)
(-1805.89 -1294.76 0)
(-1568.25 -1179.67 0)
(-2277.22 -1050.11 0)
(48921.7 -887.714 0)
(-70188.7 -3001.66 0)
(71187.8 -1100.89 0)
(-48758.8 -1360.5 0)
(2701.29 -1857.44 0)
(1502.72 -2201.57 0)
(1411.6 -2409.17 0)
(1535.69 -2464.61 0)
(1797.03 -2440.12 0)
(2131.67 -2456.52 0)
(2448.65 -2509.89 0)
(2727.45 -2606.74 0)
(2955.87 -2736.44 0)
(3131.47 -2887.74 0)
(3236.24 -3050.01 0)
(3210.08 -3215.24 0)
(2913.61 -3374.83 0)
(2181.03 -3514.47 0)
(1143.23 -3611.26 0)
(341.302 -3651.7 0)
(43.589 -3658.69 0)
(1.61027 -3659.03 0)
(-1.60294 -3659.03 0)
(-43.7784 -3658.65 0)
(-345.109 -3650.69 0)
(-1162.07 -3603.81 0)
(-2227.37 -3490.59 0)
(-2990.12 -3327.65 0)
(-3313.44 -3143.32 0)
(-3364.84 -2953.97 0)
(-3288.24 -2766.96 0)
(-3150.76 -2585.72 0)
(-2979.16 -2412.03 0)
(-2782.6 -2247.12 0)
(-2559.09 -2092.5 0)
(-2296.42 -1951.71 0)
(-1996.53 -1827.5 0)
(-1690.55 -1718.25 0)
(-1444.01 -1589.36 0)
(-2130.88 -1475.19 0)
(47401.5 -1317.1 0)
(-67478.1 -6043.16 0)
(66965.1 -7600.94 0)
(-46415.2 -1818.93 0)
(2386.27 -2184.37 0)
(1338.56 -2385.44 0)
(1332.74 -2488.71 0)
(1503.87 -2558.59 0)
(1786.7 -2564.7 0)
(2092.01 -2594.9 0)
(2372.83 -2657.9 0)
(2616.83 -2758.86 0)
(2820.67 -2887.59 0)
(2981.4 -3035.14 0)
(3078.62 -3194.11 0)
(3051.26 -3359.2 0)
(2763.89 -3524.01 0)
(2059.48 -3674.9 0)
(1070.68 -3785.25 0)
(315.558 -3833.74 0)
(39.5217 -3842.41 0)
(1.4209 -3842.83 0)
(-1.40454 -3842.83 0)
(-39.3967 -3842.4 0)
(-316.641 -3833.33 0)
(-1080.13 -3781.06 0)
(-2088.02 -3658.61 0)
(-2817.01 -3487.38 0)
(-3128.85 -3297.5 0)
(-3180.18 -3104.93 0)
(-3108.58 -2916.5 0)
(-2978.47 -2735.27 0)
(-2815.62 -2562.86 0)
(-2629.13 -2400.17 0)
(-2418.43 -2249.34 0)
(-2171.52 -2114.21 0)
(-1887.22 -1996.16 0)
(-1576.41 -1893.07 0)
(-1334.04 -1766.86 0)
(-2014.86 -1687.36 0)
(44519.9 -1554.86 0)
(-63096.1 -8546.61 0)
(62110.5 -9272.93 0)
(-43539.2 -1883.27 0)
(2155.38 -2163.77 0)
(1209.45 -2325.08 0)
(1244.74 -2442.69 0)
(1462.46 -2502.09 0)
(1762.04 -2519.47 0)
(2041.86 -2559.37 0)
(2290.66 -2632.26 0)
(2506.12 -2735.5 0)
(2689.63 -2861.6 0)
(2836.1 -3003.66 0)
(2923.96 -3157.95 0)
(2892.17 -3320.79 0)
(2609.39 -3486.93 0)
(1929.29 -3643.64 0)
(990.163 -3762.05 0)
(286.218 -3815.23 0)
(34.8272 -3824.76 0)
(1.20348 -3825.21 0)
(-1.18899 -3825.21 0)
(-34.624 -3824.76 0)
(-285.998 -3815.19 0)
(-993.697 -3760.31 0)
(-1944.36 -3634.27 0)
(-2642.15 -3462.08 0)
(-2944.91 -3274.24 0)
(-2997.69 -3085.44 0)
(-2932.02 -2901.63 0)
(-2809.98 -2725.56 0)
(-2656.25 -2558.28 0)
(-2480.48 -2401.59 0)
(-2283.53 -2255.78 0)
(-2052.45 -2127.57 0)
(-1783.42 -2014.29 0)
(-1469.58 -1915.3 0)
(-1245.78 -1807.2 0)
(-1926.59 -1755.62 0)
(40791.7 -1632.7 0)
(-57744 -9743.83 0)
(56214.5 -10762.4 0)
(-39564.6 -1852.4 0)
(1960.53 -2098.09 0)
(1069.78 -2244.85 0)
(1162.17 -2337.9 0)
(1429.88 -2375.89 0)
(1731.49 -2395.56 0)
(1983.32 -2446.58 0)
(2203.1 -2523.82 0)
(2395.83 -2629.3 0)
(2562.26 -2752.02 0)
(2695.82 -2889.83 0)
(2773.02 -3039.79 0)
(2734.25 -3200.04 0)
(2452.78 -3365.98 0)
(1794.36 -3525.31 0)
(905.329 -3647.67 0)
(255.132 -3702.73 0)
(29.9028 -3712.42 0)
(0.981831 -3712.86 0)
(-0.972799 -3712.86 0)
(-29.7383 -3712.43 0)
(-254.534 -3702.84 0)
(-905.796 -3647.36 0)
(-1800.63 -3521.04 0)
(-2470.07 -3351.53 0)
(-2765.91 -3169.23 0)
(-2821.12 -2987.32 0)
(-2761.78 -2810.86 0)
(-2647.61 -2641.84 0)
(-2503.43 -2482.36 0)
(-2337.63 -2331.42 0)
(-2154.37 -2194.59 0)
(-1938.81 -2069.36 0)
(-1682.68 -1962.12 0)
(-1376.85 -1865.18 0)
(-1180.17 -1785.7 0)
(-1846.7 -1749.66 0)
(36822.1 -1615.08 0)
(-52133.3 -10078.1 0)
(49954.4 -11046.6 0)
(-35189.9 -1802.32 0)
(1777.2 -2069.95 0)
(978.362 -2148.94 0)
(1118.47 -2183.64 0)
(1406.9 -2201.84 0)
(1693.92 -2235.98 0)
(1918.26 -2291.52 0)
(2114.58 -2377.57 0)
(2286.21 -2479.68 0)
(2438.58 -2601.25 0)
(2558.79 -2735.53 0)
(2625.03 -2882.61 0)
(2577.85 -3040.18 0)
(2295.95 -3204.47 0)
(1657.85 -3363.63 0)
(819.197 -3486.49 0)
(223.822 -3541.19 0)
(25.0645 -3550.5 0)
(0.773574 -3550.91 0)
(-0.769337 -3550.91 0)
(-24.9681 -3550.51 0)
(-223.298 -3541.32 0)
(-818.508 -3486.79 0)
(-1659.29 -3362.43 0)
(-2303.13 -3197.66 0)
(-2593.93 -3022.69 0)
(-2652.35 -2849.28 0)
(-2599.1 -2681.29 0)
(-2493.43 -2521.29 0)
(-2357.12 -2368.67 0)
(-2203.17 -2229.11 0)
(-2030.99 -2095.28 0)
(-1828.44 -1980.97 0)
(-1586.67 -1871.89 0)
(-1299.57 -1784.13 0)
(-1134.46 -1727.46 0)
(-1762.18 -1705.68 0)
(32766.1 -1547.36 0)
(-46476 -9754.38 0)
(43832.9 -10981.3 0)
(-30914.3 -1728.36 0)
(1626.51 -1997.63 0)
(960.227 -1989.99 0)
(1111.19 -1988.42 0)
(1379.45 -1999.93 0)
(1645.08 -2049.56 0)
(1846.87 -2121.36 0)
(2021.79 -2204.88 0)
(2180.28 -2311.4 0)
(2315.7 -2428.4 0)
(2424.69 -2560.93 0)
(2479.46 -2704.58 0)
(2424.09 -2858.5 0)
(2141.09 -3019.08 0)
(1522.6 -3175.34 0)
(734.229 -3295.87 0)
(193.446 -3348.5 0)
(20.5344 -3357.09 0)
(0.589468 -3357.44 0)
(-0.588096 -3357.44 0)
(-20.4929 -3357.09 0)
(-193.131 -3348.59 0)
(-733.411 -3296.28 0)
(-1522.01 -3175.57 0)
(-2142.69 -3016.92 0)
(-2430.2 -2850.5 0)
(-2492.14 -2686.61 0)
(-2445.72 -2528.65 0)
(-2346.35 -2377.26 0)
(-2221.87 -2236.61 0)
(-2074.18 -2101.03 0)
(-1915.26 -1983.1 0)
(-1723.55 -1866.2 0)
(-1493 -1765.31 0)
(-1237.67 -1684.89 0)
(-1104.57 -1643.28 0)
(-1673.15 -1635.9 0)
(29066.1 -1456.72 0)
(-41242.5 -9334.7 0)
(37707 -10267 0)
(-26533 -1595.02 0)
(1525.08 -1826.38 0)
(987.236 -1776.32 0)
(1108.89 -1772.71 0)
(1347.98 -1787.13 0)
(1576.9 -1859.07 0)
(1768.59 -1932.13 0)
(1931.45 -2027.52 0)
(2070.82 -2128.41 0)
(2198.12 -2245.62 0)
(2292.66 -2372.82 0)
(2338.28 -2511.33 0)
(2274.78 -2658.73 0)
(1990.63 -2812.73 0)
(1391.13 -2963.35 0)
(652.334 -3079.23 0)
(164.832 -3128.56 0)
(16.4529 -3136.2 0)
(0.434642 -3136.49 0)
(-0.434501 -3136.49 0)
(-16.4423 -3136.2 0)
(-164.698 -3128.6 0)
(-651.777 -3079.53 0)
(-1390.1 -2963.97 0)
(-1989.88 -2812.82 0)
(-2275.63 -2656.39 0)
(-2342.21 -2503.87 0)
(-2301 -2357.04 0)
(-2212.01 -2217.84 0)
(-2090.93 -2084.87 0)
(-1958.88 -1964.19 0)
(-1804.71 -1845.35 0)
(-1618.57 -1741.42 0)
(-1411.96 -1638.47 0)
(-1181.98 -1568.65 0)
(-1087.25 -1534.37 0)
(-1582.4 -1529.71 0)
(25347.3 -1349.03 0)
(-36077 -8724.17 0)
(32402.2 -9181.27 0)
(-22780.7 -1420.4 0)
(1451.81 -1611.51 0)
(1011.95 -1560.52 0)
(1100.78 -1569.46 0)
(1296.22 -1584.91 0)
(1505.36 -1665.93 0)
(1684.55 -1744.41 0)
(1832.64 -1838.84 0)
(1970.11 -1940.43 0)
(2080.18 -2051.37 0)
(2168.65 -2170.87 0)
(2203.95 -2298.6 0)
(2133.64 -2434.73 0)
(1847.54 -2578.06 0)
(1265.79 -2719.94 0)
(575.029 -2829.13 0)
(138.555 -2874.27 0)
(12.8967 -2880.85 0)
(0.310135 -2881.08 0)
(-0.310316 -2881.08 0)
(-12.8983 -2880.85 0)
(-138.525 -2874.29 0)
(-574.764 -2829.28 0)
(-1265.01 -2720.45 0)
(-1846.29 -2578.84 0)
(-2132.47 -2435.03 0)
(-2203.67 -2297.02 0)
(-2170.1 -2165.44 0)
(-2084.09 -2039.73 0)
(-1977.45 -1920.01 0)
(-1843.36 -1806.9 0)
(-1700.59 -1698.07 0)
(-1524.19 -1600.75 0)
(-1326.51 -1502.27 0)
(-1137.36 -1450.32 0)
(-1067.04 -1417.05 0)
(-1494.55 -1414.82 0)
(22133.3 -1242.08 0)
(-31535.6 -8050.76 0)
(27490.8 -7865.97 0)
(-19238.5 -1198.87 0)
(1390.06 -1361.18 0)
(1027.76 -1340.71 0)
(1085.38 -1348.04 0)
(1255.02 -1378.35 0)
(1423.21 -1448.02 0)
(1601.98 -1536.04 0)
(1742.56 -1623.36 0)
(1866.01 -1724.26 0)
(1976.06 -1826.28 0)
(2054.42 -1936.4 0)
(2084.01 -2052.26 0)
(2005.48 -2174.58 0)
(1715.79 -2303.63 0)
(1149.19 -2433.38 0)
(503.614 -2533.5 0)
(114.99 -2573.61 0)
(9.89257 -2579.08 0)
(0.214106 -2579.26 0)
(-0.214266 -2579.26 0)
(-9.89641 -2579.08 0)
(-115.001 -2573.62 0)
(-503.539 -2533.55 0)
(-1148.77 -2433.66 0)
(-1714.84 -2304.35 0)
(-2004.06 -2175.64 0)
(-2082.42 -2053.16 0)
(-2053.07 -1936.21 0)
(-1975.5 -1823.79 0)
(-1866.57 -1718.04 0)
(-1745.01 -1611.35 0)
(-1606.05 -1517.18 0)
(-1429.89 -1418.47 0)
(-1266.99 -1340.06 0)
(-1099.86 -1288.92 0)
(-1053.05 -1267.91 0)
(-1413.8 -1254.18 0)
(18952.6 -1093.54 0)
(-27122.1 -7207.42 0)
(23667 -6771.28 0)
(-16512.4 -1029.77 0)
(1315.12 -1175.84 0)
(1024.61 -1181.14 0)
(1064.5 -1187.51 0)
(1199.88 -1200.09 0)
(1353.4 -1261 0)
(1515.58 -1317.12 0)
(1651.26 -1397.81 0)
(1774.57 -1478.6 0)
(1875.76 -1572.83 0)
(1950.89 -1672.88 0)
(1974.43 -1778.77 0)
(1891.42 -1888.85 0)
(1598.16 -2004.07 0)
(1044.28 -2120.63 0)
(439.892 -2210.64 0)
(94.6264 -2245.43 0)
(7.46028 -2249.82 0)
(0.143729 -2249.95 0)
(-0.143809 -2249.95 0)
(-7.46294 -2249.82 0)
(-94.6435 -2245.42 0)
(-439.902 -2210.64 0)
(-1044.14 -2120.74 0)
(-1597.65 -2004.49 0)
(-1890.42 -1889.76 0)
(-1972.95 -1780.15 0)
(-1949.07 -1674.5 0)
(-1873.85 -1574.28 0)
(-1772.73 -1479.12 0)
(-1649.8 -1396.7 0)
(-1514.71 -1313.1 0)
(-1353.51 -1253.61 0)
(-1201.67 -1187.53 0)
(-1067.83 -1166.57 0)
(-1033.57 -1153.37 0)
(-1326.51 -1131.6 0)
(16396.5 -982.617 0)
(-23536.5 -6459.77 0)
(19973.4 -5599.54 0)
(-13846.5 -866.785 0)
(1244.19 -1014.02 0)
(1016.5 -1046.16 0)
(1067.12 -1064.51 0)
(1184.21 -1063.01 0)
(1310.43 -1094.79 0)
(1470.14 -1129.4 0)
(1586.96 -1173.58 0)
(1697.35 -1229.36 0)
(1788.85 -1298.23 0)
(1855.97 -1386.94 0)
(1875.89 -1491.87 0)
(1788.37 -1607.93 0)
(1492.44 -1728.35 0)
(950.13 -1842.31 0)
(383.358 -1923.03 0)
(77.2305 -1951.74 0)
(5.53391 -1955.05 0)
(0.0939767 -1955.14 0)
(-0.0940026 -1955.14 0)
(-5.53508 -1955.05 0)
(-77.2416 -1951.74 0)
(-383.386 -1923.02 0)
(-950.121 -1842.31 0)
(-1492.26 -1728.51 0)
(-1787.87 -1608.45 0)
(-1875 -1492.91 0)
(-1854.68 -1388.61 0)
(-1787.22 -1300.5 0)
(-1695.45 -1232.05 0)
(-1585.03 -1176.52 0)
(-1468.16 -1132.21 0)
(-1308.89 -1097.03 0)
(-1183.12 -1064.09 0)
(-1066.94 -1063.37 0)
(-1019.35 -1042.77 0)
(-1249.25 -1004.01 0)
(13818.2 -853.593 0)
(-19950.3 -5477.12 0)
(17435.8 -4562.89 0)
(-12093.6 -732.996 0)
(1142.27 -892.701 0)
(975.954 -969.699 0)
(1048.27 -1016.82 0)
(1170.7 -1034.31 0)
(1289.42 -1056.9 0)
(1439.66 -1078.65 0)
(1554.94 -1104.04 0)
(1654.45 -1131.24 0)
(1723.91 -1168.84 0)
(1764.29 -1219.57 0)
(1761.48 -1290.4 0)
(1663.54 -1386.18 0)
(1372.3 -1505.44 0)
(856.679 -1630.06 0)
(334.439 -1716.84 0)
(63.7685 -1744.65 0)
(4.18693 -1747.42 0)
(0.0628985 -1747.47 0)
(-0.0629029 -1747.47 0)
(-4.18725 -1747.42 0)
(-63.773 -1744.65 0)
(-334.458 -1716.83 0)
(-856.706 -1630.04 0)
(-1372.28 -1505.47 0)
(-1663.39 -1386.37 0)
(-1761.11 -1290.9 0)
(-1763.66 -1220.54 0)
(-1722.99 -1170.36 0)
(-1653.26 -1133.38 0)
(-1553.59 -1106.84 0)
(-1438.12 -1081.93 0)
(-1287.87 -1060.76 0)
(-1169.23 -1038.12 0)
(-1047.29 -1020.72 0)
(-976.375 -972.876 0)
(-1144.21 -893.569 0)
(12086.1 -731.847 0)
(-17436 -4535.07 0)
(14870.1 -3434.63 0)
(-10309.8 -875.629 0)
(1016.1 -1007.89 0)
(896.902 -1140.74 0)
(1004.86 -1254.85 0)
(1145.58 -1340.71 0)
(1267.7 -1434.17 0)
(1424.71 -1529.56 0)
(1536.27 -1627.32 0)
(1634.91 -1727.55 0)
(1703.73 -1818.46 0)
(1738.83 -1898.01 0)
(1715.35 -1976.06 0)
(1581.15 -2072.11 0)
(1257.43 -2201.84 0)
(746.418 -2349.08 0)
(272.929 -2450.35 0)
(47.7662 -2479.72 0)
(2.81344 -2482.23 0)
(0.0372014 -2482.28 0)
(-0.0372015 -2482.28 0)
(-2.8135 -2482.23 0)
(-47.7677 -2479.72 0)
(-272.939 -2450.35 0)
(-746.443 -2349.07 0)
(-1257.45 -2201.82 0)
(-1581.12 -2072.15 0)
(-1715.2 -1976.23 0)
(-1738.52 -1898.41 0)
(-1703.23 -1819.18 0)
(-1634.24 -1728.68 0)
(-1535.45 -1628.95 0)
(-1423.75 -1531.65 0)
(-1266.67 -1436.85 0)
(-1144.54 -1343.78 0)
(-1004.07 -1258.37 0)
(-896.82 -1144.17 0)
(-1016.99 -1010.55 0)
(10309.1 -877.149 0)
(-14874.9 -3428.01 0)
(13282.3 91572.6 0)
(-9755.13 10431.6 0)
(886.798 11069.6 0)
(737.966 13081.1 0)
(855.576 15020.9 0)
(997.91 17948 0)
(1107.43 20856.5 0)
(1253.53 24446.9 0)
(1364.14 28071.3 0)
(1470.27 32269.4 0)
(1559.64 36437 0)
(1612.42 40904.4 0)
(1593.71 45184.2 0)
(1445.97 48911.2 0)
(1105.41 51376.8 0)
(617.201 52324.5 0)
(208.555 52431.6 0)
(33.048 52414.9 0)
(1.71996 52412.7 0)
(0.0196334 52412.7 0)
(-0.0196326 52412.7 0)
(-1.71994 52412.7 0)
(-33.0483 52414.9 0)
(-208.559 52431.6 0)
(-617.219 52324.5 0)
(-1105.44 51376.8 0)
(-1446 48911.2 0)
(-1593.69 45184.1 0)
(-1612.31 40904.1 0)
(-1559.43 36436.4 0)
(-1469.95 32268.4 0)
(-1363.72 28069.8 0)
(-1253.01 24444.9 0)
(-1106.83 20853.9 0)
(-997.239 17944.8 0)
(-854.935 15017.3 0)
(-737.559 13077.4 0)
(-886.904 11066.4 0)
(9756.52 10429.2 0)
(-13287.4 91571.7 0)
(113165 -117149 0)
(-87885.4 -14069.9 0)
(3569.24 -15824 0)
(4704.47 -18694.1 0)
(5694.75 -21471.8 0)
(6769.04 -25491.6 0)
(7530.29 -29531.9 0)
(8377.1 -34455.3 0)
(9074.31 -39525.9 0)
(9696.43 -45287.7 0)
(10024.7 -51114 0)
(10167.9 -57309.1 0)
(9431.01 -63338.9 0)
(7548.57 -68749.9 0)
(4546.59 -72672.9 0)
(1762.84 -74615.2 0)
(360.05 -75142.7 0)
(29.5768 -75205.2 0)
(0.69418 -75207.7 0)
(0.00297539 -75207.7 0)
(-0.00297486 -75207.7 0)
(-0.69413 -75207.7 0)
(-29.576 -75205.2 0)
(-360.046 -75142.7 0)
(-1762.84 -74615.2 0)
(-4546.61 -72672.9 0)
(-7548.63 -68749.8 0)
(-9431.13 -63338.8 0)
(-10168.1 -57309 0)
(-10024.9 -51113.8 0)
(-9696.65 -45287.5 0)
(-9074.49 -39525.9 0)
(-8377.23 -34455.4 0)
(-7530.33 -29532.2 0)
(-6768.96 -25492.3 0)
(-5694.48 -21472.9 0)
(-4703.98 -18695.7 0)
(-3568.88 -15826.1 0)
(87886.9 -14071.8 0)
(-113167 -117154 0)
(113165 117149 0)
(-87885.4 14069.9 0)
(3569.24 15824 0)
(4704.47 18694.1 0)
(5694.75 21471.8 0)
(6769.04 25491.6 0)
(7530.29 29531.9 0)
(8377.1 34455.3 0)
(9074.31 39525.9 0)
(9696.43 45287.7 0)
(10024.7 51114 0)
(10167.9 57309.1 0)
(9431.01 63338.9 0)
(7548.57 68749.9 0)
(4546.59 72672.9 0)
(1762.84 74615.2 0)
(360.05 75142.7 0)
(29.5768 75205.2 0)
(0.69418 75207.7 0)
(0.00297538 75207.7 0)
(-0.00297486 75207.7 0)
(-0.69413 75207.7 0)
(-29.576 75205.2 0)
(-360.046 75142.7 0)
(-1762.84 74615.2 0)
(-4546.61 72672.9 0)
(-7548.63 68749.8 0)
(-9431.13 63338.8 0)
(-10168.1 57309 0)
(-10024.9 51113.8 0)
(-9696.65 45287.5 0)
(-9074.49 39525.9 0)
(-8377.23 34455.4 0)
(-7530.33 29532.2 0)
(-6768.96 25492.3 0)
(-5694.48 21472.9 0)
(-4703.98 18695.7 0)
(-3568.88 15826.1 0)
(87886.9 14071.8 0)
(-113167 117154 0)
(13282.3 -91572.6 0)
(-9755.13 -10431.6 0)
(886.798 -11069.6 0)
(737.966 -13081.1 0)
(855.576 -15020.9 0)
(997.91 -17948 0)
(1107.43 -20856.5 0)
(1253.53 -24446.9 0)
(1364.14 -28071.3 0)
(1470.27 -32269.4 0)
(1559.64 -36437 0)
(1612.42 -40904.4 0)
(1593.71 -45184.2 0)
(1445.97 -48911.2 0)
(1105.41 -51376.8 0)
(617.201 -52324.5 0)
(208.555 -52431.6 0)
(33.048 -52414.9 0)
(1.71996 -52412.7 0)
(0.0196334 -52412.7 0)
(-0.0196326 -52412.7 0)
(-1.71994 -52412.7 0)
(-33.0483 -52414.9 0)
(-208.559 -52431.6 0)
(-617.219 -52324.5 0)
(-1105.44 -51376.8 0)
(-1446 -48911.2 0)
(-1593.69 -45184.1 0)
(-1612.31 -40904.1 0)
(-1559.43 -36436.4 0)
(-1469.95 -32268.4 0)
(-1363.72 -28069.8 0)
(-1253.01 -24444.9 0)
(-1106.83 -20853.9 0)
(-997.239 -17944.8 0)
(-854.935 -15017.3 0)
(-737.559 -13077.4 0)
(-886.904 -11066.4 0)
(9756.52 -10429.2 0)
(-13287.4 -91571.7 0)
(14870.1 3434.63 0)
(-10309.8 875.629 0)
(1016.1 1007.89 0)
(896.902 1140.74 0)
(1004.86 1254.85 0)
(1145.58 1340.71 0)
(1267.7 1434.17 0)
(1424.71 1529.56 0)
(1536.27 1627.32 0)
(1634.91 1727.55 0)
(1703.73 1818.46 0)
(1738.83 1898.01 0)
(1715.35 1976.06 0)
(1581.15 2072.11 0)
(1257.43 2201.84 0)
(746.418 2349.08 0)
(272.929 2450.35 0)
(47.7662 2479.72 0)
(2.81344 2482.23 0)
(0.0372014 2482.28 0)
(-0.0372015 2482.28 0)
(-2.8135 2482.23 0)
(-47.7677 2479.72 0)
(-272.939 2450.35 0)
(-746.443 2349.07 0)
(-1257.45 2201.82 0)
(-1581.12 2072.15 0)
(-1715.2 1976.23 0)
(-1738.52 1898.41 0)
(-1703.23 1819.18 0)
(-1634.24 1728.68 0)
(-1535.45 1628.95 0)
(-1423.75 1531.65 0)
(-1266.67 1436.85 0)
(-1144.54 1343.78 0)
(-1004.07 1258.37 0)
(-896.82 1144.17 0)
(-1016.99 1010.55 0)
(10309.1 877.149 0)
(-14874.9 3428.01 0)
(17435.8 4562.89 0)
(-12093.6 732.996 0)
(1142.27 892.701 0)
(975.954 969.699 0)
(1048.27 1016.82 0)
(1170.7 1034.31 0)
(1289.42 1056.9 0)
(1439.66 1078.65 0)
(1554.94 1104.04 0)
(1654.45 1131.24 0)
(1723.91 1168.84 0)
(1764.29 1219.57 0)
(1761.48 1290.4 0)
(1663.54 1386.18 0)
(1372.3 1505.44 0)
(856.679 1630.06 0)
(334.439 1716.84 0)
(63.7685 1744.65 0)
(4.18693 1747.42 0)
(0.0628985 1747.47 0)
(-0.0629029 1747.47 0)
(-4.18725 1747.42 0)
(-63.773 1744.65 0)
(-334.458 1716.83 0)
(-856.706 1630.04 0)
(-1372.28 1505.47 0)
(-1663.39 1386.37 0)
(-1761.11 1290.9 0)
(-1763.66 1220.54 0)
(-1722.99 1170.36 0)
(-1653.26 1133.38 0)
(-1553.59 1106.84 0)
(-1438.12 1081.93 0)
(-1287.87 1060.76 0)
(-1169.23 1038.12 0)
(-1047.29 1020.72 0)
(-976.375 972.876 0)
(-1144.21 893.569 0)
(12086.1 731.847 0)
(-17436 4535.07 0)
(19973.4 5599.54 0)
(-13846.5 866.785 0)
(1244.19 1014.02 0)
(1016.5 1046.16 0)
(1067.12 1064.51 0)
(1184.21 1063.01 0)
(1310.43 1094.79 0)
(1470.14 1129.4 0)
(1586.96 1173.58 0)
(1697.35 1229.36 0)
(1788.85 1298.23 0)
(1855.97 1386.94 0)
(1875.89 1491.87 0)
(1788.37 1607.93 0)
(1492.44 1728.35 0)
(950.13 1842.31 0)
(383.358 1923.03 0)
(77.2305 1951.74 0)
(5.53391 1955.05 0)
(0.0939767 1955.14 0)
(-0.0940026 1955.14 0)
(-5.53508 1955.05 0)
(-77.2416 1951.74 0)
(-383.386 1923.02 0)
(-950.121 1842.31 0)
(-1492.26 1728.51 0)
(-1787.87 1608.45 0)
(-1875 1492.91 0)
(-1854.68 1388.61 0)
(-1787.22 1300.5 0)
(-1695.45 1232.05 0)
(-1585.03 1176.52 0)
(-1468.16 1132.21 0)
(-1308.89 1097.03 0)
(-1183.12 1064.09 0)
(-1066.94 1063.37 0)
(-1019.35 1042.77 0)
(-1249.25 1004.01 0)
(13818.2 853.593 0)
(-19950.3 5477.12 0)
(23667 6771.28 0)
(-16512.4 1029.77 0)
(1315.12 1175.84 0)
(1024.61 1181.14 0)
(1064.5 1187.51 0)
(1199.88 1200.09 0)
(1353.4 1261 0)
(1515.58 1317.12 0)
(1651.26 1397.81 0)
(1774.57 1478.6 0)
(1875.76 1572.83 0)
(1950.89 1672.88 0)
(1974.43 1778.77 0)
(1891.42 1888.85 0)
(1598.16 2004.07 0)
(1044.28 2120.63 0)
(439.892 2210.64 0)
(94.6264 2245.43 0)
(7.46028 2249.82 0)
(0.143729 2249.95 0)
(-0.143809 2249.95 0)
(-7.46294 2249.82 0)
(-94.6435 2245.42 0)
(-439.902 2210.64 0)
(-1044.14 2120.74 0)
(-1597.65 2004.49 0)
(-1890.42 1889.76 0)
(-1972.95 1780.15 0)
(-1949.07 1674.5 0)
(-1873.85 1574.28 0)
(-1772.73 1479.12 0)
(-1649.8 1396.7 0)
(-1514.71 1313.1 0)
(-1353.51 1253.61 0)
(-1201.67 1187.53 0)
(-1067.83 1166.57 0)
(-1033.57 1153.37 0)
(-1326.51 1131.6 0)
(16396.5 982.617 0)
(-23536.5 6459.77 0)
(27490.8 7865.97 0)
(-19238.5 1198.87 0)
(1390.06 1361.18 0)
(1027.76 1340.71 0)
(1085.38 1348.04 0)
(1255.02 1378.35 0)
(1423.21 1448.02 0)
(1601.98 1536.04 0)
(1742.56 1623.36 0)