/*--------------------------------*- C++ -*----------------------------------*\
| =========                 |                                                 |
| \\      /  F ield         | OpenFOAM: The Open Source CFD Toolbox           |
|  \\    /   O peration     | Version:  v1912                                 |
|   \\  /    A nd           | Website:  www.openfoam.com                      |
|    \\/     M anipulation  |                                                 |
\*---------------------------------------------------------------------------*/
FoamFile
{
    version     2.0;
    format      ascii;
    class       volVectorField;
    location    "1.98";
    object      U;
}
// * * * * * * * * * * * * * * * * * * * * * * * * * * * * * * * * * * * * * //

dimensions      [0 1 -1 0 0 0 0];


internalField   nonuniform List<vector> 
1900
(
(-0.116917 -2.63e-06 0)
(-0.0474335 -3.5209e-06 0)
(-0.0502037 -6.47112e-06 0)
(-0.0501697 -4.93901e-06 0)
(-0.050574 1.03925e-05 0)
(-0.0514309 0.000100812 0)
(-0.0532967 0.000236278 0)
(-0.0559316 -0.000257156 0)
(-0.0584225 -0.00234831 0)
(-0.0536286 -0.00966694 0)
(-0.11692 -1.95267e-06 0)
(-0.0474419 -4.05584e-06 0)
(-0.050226 -9.56037e-06 0)
(-0.0501817 -1.02202e-05 0)
(-0.0505645 1.58088e-05 0)
(-0.0512892 9.36712e-05 0)
(-0.052775 0.000325829 0)
(-0.0550981 7.50795e-05 0)
(-0.0585406 -0.0013548 0)
(-0.0624357 -0.00809988 0)
(-0.116922 -2.68677e-14 0)
(-0.0474484 -2.66214e-14 0)
(-0.0502382 -4.22046e-14 0)
(-0.0501823 3.80648e-15 0)
(-0.0505425 -2.26457e-14 0)
(-0.051182 -1.02855e-14 0)
(-0.0525888 -1.30847e-14 0)
(-0.0549944 -1.45138e-14 0)
(-0.0588248 -4.95115e-14 0)
(-0.0664987 -2.6161e-14 0)
(-0.11692 1.95267e-06 0)
(-0.0474419 4.05584e-06 0)
(-0.050226 9.56037e-06 0)
(-0.0501817 1.02202e-05 0)
(-0.0505645 -1.58088e-05 0)
(-0.0512892 -9.36712e-05 0)
(-0.052775 -0.000325829 0)
(-0.0550981 -7.50795e-05 0)
(-0.0585406 0.0013548 0)
(-0.0624357 0.00809988 0)
(-0.116917 2.63e-06 0)
(-0.0474335 3.5209e-06 0)
(-0.0502037 6.47112e-06 0)
(-0.0501697 4.93901e-06 0)
(-0.050574 -1.03925e-05 0)
(-0.0514309 -0.000100812 0)
(-0.0532967 -0.000236278 0)
(-0.0559316 0.000257156 0)
(-0.0584225 0.00234831 0)
(-0.0536286 0.00966694 0)
(-0.0569872 -0.0274194 0)
(-0.0768415 -0.0367464 0)
(-0.0964087 -0.0531749 0)
(-0.129608 -0.0717884 0)
(-0.236705 -0.0627225 0)
(-0.0749494 -0.0191216 0)
(-0.0952349 -0.0247517 0)
(-0.12323 -0.0376403 0)
(-0.176738 -0.0522549 0)
(-0.278279 -0.0506362 0)
(-0.0808298 -4.45267e-14 0)
(-0.10037 -3.94139e-14 0)
(-0.1324 5.98562e-15 0)
(-0.191466 -1.33276e-14 0)
(-0.288657 2.54925e-15 0)
(-0.0749494 0.0191216 0)
(-0.0952349 0.0247517 0)
(-0.12323 0.0376403 0)
(-0.176738 0.0522549 0)
(-0.278279 0.0506362 0)
(-0.0569872 0.0274194 0)
(-0.0768415 0.0367464 0)
(-0.0964087 0.0531749 0)
(-0.129608 0.0717884 0)
(-0.236705 0.0627225 0)
(-0.287163 0.0132392 0)
(-0.243882 0.0209464 0)
(-0.22493 0.0221848 0)
(-0.220811 0.0424626 0)
(-0.303205 0.100267 0)
(-0.298949 0.0123521 0)
(-0.252711 0.0132657 0)
(-0.218809 0.0144887 0)
(-0.181923 0.0349548 0)
(-0.143987 0.106951 0)
(-0.306071 6.75394e-15 0)
(-0.255897 3.14522e-14 0)
(-0.213431 4.30085e-14 0)
(-0.155288 9.72036e-14 0)
(-0.0487604 6.77099e-14 0)
(-0.298949 -0.0123521 0)
(-0.252711 -0.0132657 0)
(-0.218809 -0.0144887 0)
(-0.181923 -0.0349548 0)
(-0.143987 -0.106951 0)
(-0.287163 -0.0132392 0)
(-0.243882 -0.0209464 0)
(-0.22493 -0.0221848 0)
(-0.220811 -0.0424626 0)
(-0.303205 -0.100267 0)
(-0.52805 0.106446 0)
(-0.113828 -0.131374 0)
(-0.178428 -0.165112 0)
(-0.28461 -0.0837312 0)
(-0.332517 -0.0273011 0)
(-0.34747 -0.0119298 0)
(-0.342015 -0.00671653 0)
(-0.321297 -0.00325119 0)
(-0.293515 -0.00195134 0)
(-0.258012 -0.00136144 0)
(-0.218404 -0.000911178 0)
(-0.176604 -0.000600234 0)
(-0.134386 -0.00038571 0)
(-0.093372 -0.000238246 0)
(-0.055802 -0.000130278 0)
(-0.0254943 -4.81252e-05 0)
(-0.00716644 -1.60212e-06 0)
(-0.00088312 6.94491e-06 0)
(-3.14276e-05 3.42836e-06 0)
(-1.80858e-07 2.93666e-06 0)
(2.55774e-07 2.93127e-06 0)
(3.8453e-05 2.93097e-06 0)
(0.0010132 2.92894e-06 0)
(0.00789879 2.91261e-06 0)
(0.0274659 2.84877e-06 0)
(0.0594218 2.70546e-06 0)
(0.0989843 2.47327e-06 0)
(0.142514 2.16688e-06 0)
(0.188159 1.816e-06 0)
(0.234974 1.45426e-06 0)
(0.28235 1.1117e-06 0)
(0.329768 8.10555e-07 0)
(0.376634 5.63179e-07 0)
(0.422035 3.72341e-07 0)
(0.464636 2.35372e-07 0)
(0.50306 1.4311e-07 0)
(0.538133 8.87108e-08 0)
(0.570082 4.64462e-08 0)
(0.652092 2.15474e-08 0)
(1.24166 7.53897e-10 0)
(0.018205 0.118719 0)
(0.171651 -0.0951032 0)
(-0.0409263 -0.11623 0)
(-0.252193 -0.0490361 0)
(-0.328027 -0.0140676 0)
(-0.34572 -0.00604443 0)
(-0.342077 -0.00335213 0)
(-0.321289 -0.00156427 0)
(-0.293341 -0.000950925 0)
(-0.257836 -0.000679843 0)
(-0.218288 -0.000459373 0)
(-0.17653 -0.000304517 0)
(-0.134336 -0.000197317 0)
(-0.0933365 -0.000123048 0)
(-0.0557781 -6.73022e-05 0)
(-0.0254824 -2.59118e-05 0)
(-0.00716426 -3.27472e-06 0)
(-0.000884626 3.21272e-06 0)
(-3.16953e-05 1.50995e-06 0)
(-1.84551e-07 1.25037e-06 0)
(2.54732e-07 1.24736e-06 0)
(3.84532e-05 1.24711e-06 0)
(0.0010132 1.24613e-06 0)
(0.00789878 1.23901e-06 0)
(0.0274659 1.21078e-06 0)
(0.0594218 1.14789e-06 0)
(0.0989843 1.04651e-06 0)
(0.142514 9.13329e-07 0)
(0.188159 7.61566e-07 0)
(0.234973 6.06044e-07 0)
(0.28235 4.59817e-07 0)
(0.329768 3.32324e-07 0)
(0.376634 2.28594e-07 0)
(0.422035 1.49421e-07 0)
(0.464635 9.32529e-08 0)
(0.50306 5.59099e-08 0)
(0.538133 3.40555e-08 0)
(0.570082 1.77848e-08 0)
(0.652092 8.2081e-09 0)
(1.24166 2.58387e-10 0)
(0.190828 3.04713e-14 0)
(0.268113 -1.73019e-14 0)
(0.0208407 -1.74238e-14 0)
(-0.236549 -1.60301e-15 0)
(-0.326811 2.64293e-14 0)
(-0.345293 3.83991e-14 0)
(-0.342199 2.29169e-14 0)
(-0.321234 -4.98777e-15 0)
(-0.293265 1.77066e-14 0)
(-0.257777 7.74206e-14 0)
(-0.218252 -4.77124e-15 0)
(-0.176508 -6.04871e-16 0)
(-0.134322 -1.93428e-14 0)
(-0.0933271 -3.6889e-14 0)
(-0.0557718 -1.10647e-13 0)
(-0.0254787 -3.62156e-13 0)
(-0.00716334 2.13023e-12 0)
(-0.000884962 4.14506e-13 0)
(-3.18044e-05 3.73943e-11 0)
(-1.86409e-07 -6.16952e-13 0)
(2.5419e-07 8.03709e-12 0)
(3.84533e-05 -9.15705e-12 0)
(0.0010132 -7.0447e-11 0)
(0.00789878 9.10335e-11 0)
(0.0274659 4.61056e-11 0)
(0.0594218 4.31115e-11 0)
(0.0989843 1.82923e-11 0)
(0.142514 1.22707e-11 0)
(0.188159 -1.47918e-12 0)
(0.234973 -1.64373e-11 0)
(0.28235 -1.48029e-11 0)
(0.329768 -2.77862e-11 0)
(0.376634 -2.02721e-11 0)
(0.422035 -1.91597e-11 0)
(0.464635 -1.17333e-11 0)
(0.50306 -6.99133e-12 0)
(0.538133 6.348e-12 0)
(0.570082 3.06842e-12 0)
(0.652092 1.50549e-12 0)
(1.24166 8.64304e-14 0)
(0.018205 -0.118719 0)
(0.171651 0.0951032 0)
(-0.0409263 0.11623 0)
(-0.252193 0.0490361 0)
(-0.328027 0.0140676 0)
(-0.34572 0.00604443 0)
(-0.342077 0.00335213 0)
(-0.321289 0.00156427 0)
(-0.293341 0.000950925 0)
(-0.257836 0.000679843 0)
(-0.218288 0.000459373 0)
(-0.17653 0.000304517 0)
(-0.134336 0.000197317 0)
(-0.0933365 0.000123048 0)
(-0.0557781 6.73022e-05 0)
(-0.0254824 2.59118e-05 0)
(-0.00716426 3.27473e-06 0)
(-0.000884626 -3.21272e-06 0)
(-3.16954e-05 -1.50983e-06 0)
(-1.84552e-07 -1.25037e-06 0)
(2.54741e-07 -1.24733e-06 0)
(3.84532e-05 -1.24714e-06 0)
(0.0010132 -1.24637e-06 0)
(0.00789878 -1.2387e-06 0)
(0.0274659 -1.21062e-06 0)
(0.0594218 -1.14774e-06 0)
(0.0989843 -1.04644e-06 0)
(0.142514 -9.13287e-07 0)
(0.188159 -7.61573e-07 0)
(0.234973 -6.06101e-07 0)
(0.28235 -4.5987e-07 0)
(0.329768 -3.32421e-07 0)
(0.376634 -2.28663e-07 0)
(0.422035 -1.49486e-07 0)
(0.464635 -9.32914e-08 0)
(0.50306 -5.59312e-08 0)
(0.538133 -3.40326e-08 0)
(0.570082 -1.77753e-08 0)
(0.652092 -8.20335e-09 0)
(1.24166 -2.58083e-10 0)
(-0.52805 -0.106446 0)
(-0.113828 0.131374 0)
(-0.178428 0.165112 0)
(-0.28461 0.0837312 0)
(-0.332517 0.0273011 0)
(-0.34747 0.0119298 0)
(-0.342015 0.00671653 0)
(-0.321297 0.00325119 0)
(-0.293515 0.00195134 0)
(-0.258012 0.00136144 0)
(-0.218404 0.000911178 0)
(-0.176604 0.000600234 0)
(-0.134386 0.00038571 0)
(-0.093372 0.000238246 0)
(-0.055802 0.000130278 0)
(-0.0254943 4.81252e-05 0)
(-0.00716644 1.60212e-06 0)
(-0.00088312 -6.94489e-06 0)
(-3.14277e-05 -3.42821e-06 0)
(-1.8086e-07 -2.93667e-06 0)
(2.55789e-07 -2.93124e-06 0)
(3.84529e-05 -2.931e-06 0)
(0.0010132 -2.92924e-06 0)
(0.00789879 -2.91223e-06 0)
(0.0274659 -2.84857e-06 0)
(0.0594218 -2.70527e-06 0)
(0.0989843 -2.47319e-06 0)
(0.142514 -2.16682e-06 0)
(0.188159 -1.81601e-06 0)
(0.234974 -1.45434e-06 0)
(0.28235 -1.11177e-06 0)
(0.329768 -8.1068e-07 0)
(0.376634 -5.63269e-07 0)
(0.422035 -3.72427e-07 0)
(0.464636 -2.35423e-07 0)
(0.50306 -1.43139e-07 0)
(0.538133 -8.86785e-08 0)
(0.570082 -4.64327e-08 0)
(0.652092 -2.15412e-08 0)
(1.24166 -7.53464e-10 0)
(-1.11883 -0.162054 0)
(-0.433514 0.147492 0)
(-0.344867 0.199957 0)
(-0.335831 0.11802 0)
(-0.348478 0.0483527 0)
(-0.353742 0.0232611 0)
(-0.344098 0.013116 0)
(-0.322582 0.00747332 0)
(-0.294315 0.00445039 0)
(-0.258595 0.00296831 0)
(-0.218774 0.00198131 0)
(-0.176837 0.00134824 0)
(-0.134535 0.000914105 0)
(-0.0934748 0.000602661 0)
(-0.0558864 0.000366445 0)
(-0.0255688 0.000180762 0)
(-0.00721164 6.19272e-05 0)
(-0.000898203 1.81005e-05 0)
(-3.28661e-05 7.84464e-06 0)
(-1.979e-07 7.12013e-06 0)
(2.50853e-07 7.11296e-06 0)
(3.84541e-05 7.11226e-06 0)
(0.00101319 7.1078e-06 0)
(0.00789876 7.06771e-06 0)
(0.0274658 6.91697e-06 0)
(0.0594217 6.57991e-06 0)
(0.0989841 6.03385e-06 0)
(0.142514 5.31208e-06 0)
(0.188159 4.48237e-06 0)
(0.234973 3.62195e-06 0)
(0.28235 2.80059e-06 0)
(0.329768 2.07085e-06 0)
(0.376634 1.46313e-06 0)
(0.422035 9.86515e-07 0)
(0.464635 6.37634e-07 0)
(0.50306 3.97285e-07 0)
(0.538133 2.533e-07 0)
(0.570082 1.3557e-07 0)
(0.652092 6.45415e-08 0)
(1.24166 2.26972e-09 0)
(-1.24555 -0.115827 0)
(-0.601077 0.153656 0)
(-0.471314 0.194076 0)
(-0.400358 0.122412 0)
(-0.380586 0.0651244 0)
(-0.366805 0.0369608 0)
(-0.352234 0.0213626 0)
(-0.327428 0.0136432 0)
(-0.296937 0.00822589 0)
(-0.260179 0.00546024 0)
(-0.219772 0.00373861 0)
(-0.177524 0.00266034 0)
(-0.135052 0.00191275 0)
(-0.0939039 0.00134485 0)
(-0.0562484 0.000897397 0)
(-0.0258292 0.000573366 0)
(-0.00733409 0.000375465 0)
(-0.000921177 0.000291807 0)
(-3.39403e-05 0.000278775 0)
(-2.05389e-07 0.000278304 0)
(2.49507e-07 0.000278301 0)
(3.84489e-05 0.000278296 0)
(0.00101308 0.000278161 0)
(0.00789801 0.00027702 0)
(0.0274636 0.000272848 0)
(0.0594173 0.000263656 0)
(0.0989776 0.000248659 0)
(0.142505 0.000228324 0)
(0.188149 0.000203894 0)
(0.234963 0.00017695 0)
(0.28234 0.000149139 0)
(0.329758 0.000121983 0)
(0.376626 9.6738e-05 0)
(0.422028 7.42832e-05 0)
(0.46463 5.54318e-05 0)
(0.503056 4.02915e-05 0)
(0.53813 3.01471e-05 0)
(0.570079 1.87263e-05 0)
(0.65209 1.04594e-05 0)
(1.24166 7.33762e-07 0)
(-1.25543 -0.0539229 0)
(-0.640246 0.11736 0)
(-0.515271 0.159172 0)
(-0.440684 0.104003 0)
(-0.408462 0.0667985 0)
(-0.384794 0.0446815 0)
(-0.362666 0.0289298 0)
(-0.334563 0.0190419 0)
(-0.300838 0.0133587 0)
(-0.262613 0.00982583 0)
(-0.221305 0.0077426 0)
(-0.178598 0.00641715 0)
(-0.135869 0.00550785 0)
(-0.0945476 0.00482731 0)
(-0.0567415 0.00429403 0)
(-0.0261568 0.00388184 0)
(-0.00747658 0.00361816 0)
(-0.000949191 0.00352184 0)
(-3.55318e-05 0.0035078 0)
(-2.19394e-07 0.00350723 0)
(2.45431e-07 0.00350723 0)
(3.83742e-05 0.00350718 0)
(0.00101155 0.00350582 0)
(0.00788864 0.00349504 0)
(0.0274366 0.00345755 0)
(0.0593666 0.00337761 0)
(0.0989023 0.00324861 0)
(0.142408 0.0030723 0)
(0.188034 0.00285525 0)
(0.234836 0.00260633 0)
(0.282205 0.00233555 0)
(0.329623 0.00205333 0)
(0.376494 0.00176979 0)
(0.421906 0.00149382 0)
(0.46452 0.0012384 0)
(0.502966 0.00100901 0)
(0.53805 0.000845808 0)
(0.569977 0.000598754 0)
(0.652015 0.000382537 0)
(1.24166 5.32256e-05 0)
(-1.25719 -0.0277007 0)
(-0.650617 0.096762 0)
(-0.53442 0.134344 0)
(-0.468366 0.0931869 0)
(-0.430774 0.0688278 0)
(-0.403016 0.0498943 0)
(-0.374286 0.0378313 0)
(-0.342062 0.0293566 0)
(-0.305303 0.0242843 0)
(-0.265174 0.021239 0)
(-0.222825 0.0194729 0)
(-0.179541 0.0184515 0)
(-0.136515 0.0178116 0)
(-0.0950377 0.0173572 0)
(-0.0571083 0.0170018 0)
(-0.0263788 0.0167437 0)
(-0.00756763 0.0166071 0)
(-0.000967044 0.0165644 0)
(-3.65382e-05 0.0165587 0)
(-2.28186e-07 0.0165585 0)
(2.39501e-07 0.0165585 0)
(3.79879e-05 0.0165583 0)
(0.0010041 0.016553 0)
(0.00784564 0.0165133 0)
(0.0273201 0.0163837 0)
(0.0591569 0.0161206 0)
(0.0985963 0.015708 0)
(0.142011 0.0151496 0)
(0.187558 0.0144587 0)
(0.234293 0.0136522 0)
(0.281611 0.0127493 0)
(0.328994 0.0117709 0)
(0.375847 0.0107391 0)
(0.421259 0.00967485 0)
(0.463903 0.00862736 0)
(0.502413 0.00761602 0)
(0.537514 0.00689067 0)
(0.5692 0.00542167 0)
(0.651331 0.00385922 0)
(1.24154 0.00103863 0)
(-1.25175 0.00250972 0)
(-0.649302 0.0872742 0)
(-0.54187 0.119906 0)
(-0.486511 0.0916193 0)
(-0.447444 0.0800277 0)
(-0.415874 0.0654756 0)
(-0.382576 0.056775 0)
(-0.347313 0.0502147 0)
(-0.308409 0.0463873 0)
(-0.26683 0.0442524 0)
(-0.223643 0.0431836 0)
(-0.179949 0.0427096 0)
(-0.13673 0.0425283 0)
(-0.0951454 0.042486 0)
(-0.0571501 0.0425134 0)
(-0.0263944 0.0425738 0)
(-0.00757296 0.0426308 0)
(-0.000967567 0.042658 0)
(-3.65238e-05 0.0426628 0)
(-2.27833e-07 0.042663 0)
(2.28854e-07 0.042663 0)
(3.69454e-05 0.0426625 0)
(0.000984662 0.0426506 0)
(0.0077391 0.0425659 0)
(0.0270485 0.0423047 0)
(0.058693 0.0418028 0)
(0.0979432 0.0410462 0)
(0.141179 0.0400467 0)
(0.186561 0.0388237 0)
(0.233148 0.0373982 0)
(0.280338 0.0357911 0)
(0.327613 0.0340245 0)
(0.374381 0.0321215 0)
(0.419747 0.0301029 0)
(0.462409 0.0280639 0)
(0.500985 0.0260244 0)
(0.536074 0.0246249 0)
(0.566896 0.0209197 0)
(0.649063 0.0161283 0)
(1.24085 0.00742053 0)
(-1.25 0.0353429 0)
(-0.643366 0.0910723 0)
(-0.542342 0.121194 0)
(-0.495243 0.104905 0)
(-0.457371 0.102698 0)
(-0.424238 0.091798 0)
(-0.388834 0.0855822 0)
(-0.351144 0.0807343 0)
(-0.310475 0.0780747 0)
(-0.267737 0.0767782 0)
(-0.223898 0.0763289 0)
(-0.179865 0.0763621 0)
(-0.13649 0.0766439 0)
(-0.0948567 0.0770416 0)
(-0.0568844 0.0774715 0)
(-0.0261969 0.0778533 0)
(-0.00747465 0.0781061 0)
(-0.000945871 0.0782043 0)
(-3.52005e-05 0.0782197 0)
(-2.16677e-07 0.0782204 0)
(2.1266e-07 0.0782204 0)
(3.503e-05 0.0782196 0)
(0.00094944 0.0782002 0)
(0.00755188 0.0780647 0)
(0.0265923 0.0776629 0)
(0.0579502 0.0769259 0)
(0.096937 0.075858 0)
(0.139931 0.0744869 0)
(0.185089 0.0728415 0)
(0.231469 0.0709466 0)
(0.278471 0.068824 0)
(0.325577 0.0664936 0)
(0.372203 0.0639749 0)
(0.417478 0.061282 0)
(0.460156 0.0585633 0)
(0.498719 0.0557986 0)
(0.533763 0.0540846 0)
(0.563176 0.0483935 0)
(0.64524 0.0394471 0)
(1.23879 0.0261374 0)
(-1.24723 0.0803179 0)
(-0.638213 0.114825 0)
(-0.541422 0.141811 0)
(-0.500805 0.132321 0)
(-0.465318 0.133175 0)
(-0.430701 0.124067 0)
(-0.393645 0.119998 0)
(-0.353921 0.116731 0)
(-0.311769 0.115105 0)
(-0.268078 0.114545 0)
(-0.223696 0.114661 0)
(-0.179382 0.11518 0)
(-0.135888 0.115924 0)
(-0.0942298 0.116765 0)
(-0.0563027 0.117593 0)
(-0.0257566 0.118286 0)
(-0.00726153 0.118727 0)
(-0.000901227 0.118892 0)
(-3.26248e-05 0.118917 0)
(-1.94684e-07 0.118918 0)
(1.89776e-07 0.118918 0)
(3.22479e-05 0.118917 0)
(0.00089799 0.118891 0)
(0.00728131 0.118706 0)
(0.0259503 0.118168 0)
(0.0569398 0.117211 0)
(0.0956126 0.115869 0)
(0.138332 0.114191 0)
(0.183238 0.112218 0)
(0.229387 0.109979 0)
(0.276175 0.1075 0)
(0.323081 0.104795 0)
(0.369541 0.101891 0)
(0.414712 0.0987738 0)
(0.457442 0.0956983 0)
(0.495847 0.0924308 0)
(0.530835 0.0908387 0)
(0.559018 0.0842534 0)
(0.641063 0.0714044 0)
(1.23459 0.0587479 0)
(-1.23804 0.126652 0)
(-0.633197 0.146443 0)
(-0.540354 0.172911 0)
(-0.504609 0.165409 0)
(-0.470965 0.167003 0)
(-0.435409 0.15958 0)
(-0.397062 0.157184 0)
(-0.35568 0.155284 0)
(-0.312356 0.154698 0)
(-0.267906 0.154903 0)
(-0.223087 0.155642 0)
(-0.178524 0.156701 0)
(-0.134899 0.157938 0)
(-0.093209 0.15923 0)
(-0.0553674 0.160448 0)
(-0.025069 0.161437 0)
(-0.00694182 0.162049 0)
(-0.000837285 0.162271 0)
(-2.91185e-05 0.162303 0)
(-1.6581e-07 0.162305 0)
(1.62123e-07 0.162305 0)
(2.87734e-05 0.162303 0)
(0.000832262 0.162271 0)
(0.00693359 0.162042 0)
(0.0251344 0.161378 0)
(0.0556837 0.160217 0)
(0.0940056 0.158625 0)
(0.136433 0.156679 0)
(0.181082 0.15443 0)
(0.226997 0.151916 0)
(0.273564 0.149159 0)
(0.320272 0.146188 0)
(0.366551 0.143001 0)
(0.41163 0.139595 0)
(0.454453 0.13632 0)
(0.492571 0.132574 0)
(0.527337 0.131272 0)
(0.555278 0.125109 0)
(0.637641 0.109116 0)
(1.22758 0.100465 0)
(-1.22672 0.179233 0)
(-0.630374 0.183267 0)
(-0.539294 0.207724 0)
(-0.506601 0.200282 0)
(-0.474667 0.201739 0)
(-0.438472 0.196636 0)
(-0.398963 0.195766 0)
(-0.356372 0.195304 0)
(-0.312145 0.195732 0)
(-0.267151 0.196771 0)
(-0.221959 0.198164 0)
(-0.177177 0.199801 0)
(-0.133443 0.201544 0)
(-0.0917632 0.203278 0)
(-0.0540876 0.204863 0)
(-0.0241602 0.20612 0)
(-0.00653501 0.206878 0)
(-0.000759566 0.207144 0)
(-2.50869e-05 0.20718 0)
(-1.34473e-07 0.207182 0)
(1.32433e-07 0.207182 0)
(2.48635e-05 0.207181 0)
(0.000755435 0.207144 0)
(0.00651897 0.20688 0)
(0.0241606 0.206102 0)
(0.0542034 0.204751 0)
(0.0921444 0.202928 0)
(0.134272 0.200737 0)
(0.178666 0.198246 0)
(0.224349 0.19549 0)
(0.270716 0.192515 0)
(0.317198 0.189289 0)
(0.363374 0.185954 0)
(0.408281 0.182233 0)
(0.451209 0.178833 0)
(0.489124 0.174749 0)
(0.523408 0.173467 0)
(0.5521 0.168525 0)
(0.635229 0.150576 0)
(1.21822 0.148878 0)
(-1.21174 0.225248 0)
(-0.62819 0.220834 0)
(-0.538564 0.243515 0)
(-0.507748 0.236585 0)
(-0.476824 0.237482 0)
(-0.439822 0.234727 0)
(-0.399508 0.23568 0)
(-0.355776 0.236218 0)
(-0.311129 0.237876 0)
(-0.265634 0.239608 0)
(-0.220218 0.241704 0)
(-0.175277 0.243895 0)
(-0.131511 0.246128 0)
(-0.0899208 0.248273 0)
(-0.0525062 0.250185 0)
(-0.0230692 0.251671 0)
(-0.00606353 0.252545 0)
(-0.000673724 0.25284 0)
(-2.09044e-05 0.252879 0)
(-1.04202e-07 0.25288 0)
(1.03367e-07 0.25288 0)
(2.07956e-05 0.252879 0)
(0.000671242 0.252841 0)
(0.00604983 0.252549 0)
(0.0230467 0.251674 0)
(0.0525185 0.250152 0)
(0.0900516 0.248115 0)
(0.131874 0.245697 0)
(0.176013 0.242979 0)
(0.221489 0.240022 0)
(0.267616 0.236801 0)
(0.314027 0.233498 0)
(0.359865 0.229779 0)
(0.404929 0.226188 0)
(0.447616 0.222303 0)
(0.485532 0.218164 0)
(0.519719 0.216907 0)
(0.549529 0.213128 0)
(0.633174 0.193678 0)
(1.20453 0.195598 0)
(-1.19499 0.27649 0)
(-0.626945 0.258903 0)
(-0.539374 0.279446 0)
(-0.508785 0.274561 0)
(-0.476873 0.274046 0)
(-0.439889 0.274622 0)
(-0.398201 0.276006 0)
(-0.354577 0.278553 0)
(-0.309017 0.280498 0)
(-0.263544 0.283261 0)
(-0.217857 0.285849 0)
(-0.172896 0.288587 0)
(-0.129164 0.291242 0)
(-0.0877437 0.293743 0)
(-0.0506757 0.295931 0)
(-0.0218347 0.297602 0)
(-0.00554805 0.298562 0)
(-0.000584655 0.298875 0)
(-1.68625e-05 0.298914 0)
(-7.72546e-08 0.298915 0)
(7.70426e-08 0.298915 0)
(1.68263e-05 0.298914 0)
(0.000583566 0.298875 0)
(0.00553979 0.298566 0)
(0.0218118 0.297612 0)
(0.050648 0.295937 0)
(0.087747 0.293702 0)
(0.129258 0.291071 0)
(0.173161 0.288153 0)
(0.218388 0.284962 0)
(0.264458 0.281684 0)
(0.310408 0.277912 0)
(0.356703 0.27467 0)
(0.400888 0.270082 0)
(0.444227 0.266882 0)
(0.4814 0.261791 0)
(0.51661 0.261326 0)
(0.547508 0.2581 0)
(0.631458 0.238324 0)
(1.1903 0.25228 0)
(-1.17376 0.312999 0)
(-0.626325 0.295442 0)
(-0.541446 0.31639 0)
(-0.509358 0.313458 0)
(-0.475546 0.312815 0)
(-0.437844 0.314601 0)
(-0.396854 0.31867 0)
(-0.351469 0.320361 0)
(-0.30685 0.324301 0)
(-0.26056 0.326978 0)
(-0.215089 0.33033 0)
(-0.170065 0.333404 0)
(-0.126476 0.336429 0)
(-0.0852878 0.339213 0)
(-0.0486427 0.341623 0)
(-0.0204908 0.34344 0)
(-0.00500661 0.344462 0)
(-0.00049638 0.344781 0)
(-1.31663e-05 0.344818 0)
(-5.47893e-08 0.344819 0)
(5.47996e-08 0.344819 0)
(1.31631e-05 0.344818 0)
(0.000496111 0.344781 0)
(0.00500311 0.344464 0)
(0.0204758 0.34345 0)
(0.0486106 0.341642 0)
(0.0852456 0.339228 0)
(0.126446 0.336406 0)
(0.170083 0.333275 0)
(0.215203 0.329991 0)
(0.260821 0.326286 0)
(0.307352 0.323077 0)
(0.352236 0.318391 0)
(0.397996 0.31556 0)
(0.439687 0.310422 0)
(0.477536 0.306081 0)
(0.513645 0.305698 0)
(0.546054 0.303216 0)
(0.629344 0.281887 0)
(1.16997 0.295475 0)
(-1.15188 0.368544 0)
(-0.626345 0.334963 0)
(-0.542828 0.354499 0)
(-0.50981 0.354405 0)
(-0.472185 0.351962 0)
(-0.436626 0.357728 0)
(-0.392244 0.358989 0)
(-0.349867 0.364758 0)
(-0.302884 0.366931 0)
(-0.257721 0.371159 0)
(-0.211769 0.374398 0)
(-0.166986 0.377885 0)
(-0.12352 0.381098 0)
(-0.0826197 0.384084 0)
(-0.0464518 0.386655 0)
(-0.0190686 0.38858 0)
(-0.00445513 0.389639 0)
(-0.000412124 0.389955 0)
(-9.94443e-06 0.38999 0)
(-3.71289e-08 0.389991 0)
(3.71755e-08 0.389991 0)
(9.95024e-06 0.38999 0)
(0.000412191 0.389955 0)
(0.00445445 0.38964 0)
(0.0190618 0.388585 0)
(0.0464293 0.386671 0)
(0.0825756 0.384114 0)
(0.123455 0.381137 0)
(0.166909 0.377908 0)
(0.211695 0.374366 0)
(0.257678 0.371005 0)
(0.302882 0.366562 0)
(0.350005 0.364057 0)
(0.392403 0.35778 0)
(0.437221 0.355942 0)
(0.472688 0.349009 0)
(0.511629 0.350582 0)
(0.544897 0.348058 0)
(0.628102 0.327529 0)
(1.1503 0.358115 0)
(-1.12654 0.398764 0)
(-0.624123 0.369876 0)
(-0.54202 0.391668 0)
(-0.507548 0.392724 0)
(-0.468612 0.391711 0)
(-0.430841 0.396354 0)
(-0.390179 0.402335 0)
(-0.344098 0.40485 0)
(-0.300118 0.410275 0)
(-0.253503 0.413501 0)
(-0.208282 0.417487 0)
(-0.163486 0.420966 0)
(-0.120332 0.424348 0)
(-0.0797634 0.427419 0)
(-0.0441277 0.430074 0)
(-0.0175885 0.432057 0)
(-0.0039054 0.433127 0)
(-0.000334109 0.43343 0)
(-7.25176e-06 0.433461 0)
(-2.39716e-08 0.433462 0)
(2.40013e-08 0.433462 0)
(7.25694e-06 0.433461 0)
(0.000334237 0.43343 0)
(0.00390584 0.433127 0)
(0.0175868 0.432059 0)
(0.0441165 0.430083 0)
(0.0797337 0.427444 0)
(0.120276 0.424395 0)
(0.163399 0.421038 0)
(0.208164 0.417579 0)
(0.253352 0.413591 0)
(0.299957 0.410341 0)
(0.34389 0.404824 0)
(0.390033 0.402192 0)
(0.430667 0.395971 0)
(0.46849 0.390953 0)
(0.5079 0.391529 0)
(0.542433 0.389392 0)
(0.624625 0.366925 0)
(1.12556 0.393753 0)
(-1.09892 0.463669 0)
(-0.624033 0.414765 0)
(-0.542439 0.433954 0)
(-0.507856 0.435419 0)
(-0.464964 0.432254 0)
(-0.429579 0.439194 0)
(-0.384574 0.441102 0)
(-0.342189 0.447147 0)
(-0.295601 0.450248 0)
(-0.250383 0.454605 0)
(-0.204833 0.458244 0)
(-0.160369 0.461828 0)
(-0.117279 0.465058 0)
(-0.0769443 0.468053 0)
(-0.0418056 0.470672 0)
(-0.016124 0.472632 0)
(-0.00338339 0.473673 0)
(-0.000265462 0.473954 0)
(-5.12689e-06 0.47398 0)
(-1.48073e-08 0.47398 0)
(1.48191e-08 0.47398 0)
(5.12954e-06 0.47398 0)
(0.000265551 0.473954 0)
(0.00338398 0.473672 0)
(0.0161246 0.472632 0)
(0.0418021 0.470676 0)
(0.0769297 0.468066 0)
(0.117245 0.465091 0)
(0.160307 0.461893 0)
(0.204737 0.45835 0)
(0.250245 0.454756 0)
(0.295425 0.450453 0)
(0.341959 0.447386 0)
(0.384321 0.441387 0)
(0.429276 0.439453 0)
(0.46468 0.432476 0)
(0.507734 0.435508 0)
(0.542396 0.433705 0)
(0.624212 0.414 0)
(1.09874 0.4615 0)
(-1.07252 0.481554 0)
(-0.617902 0.444327 0)
(-0.537465 0.467235 0)
(-0.502732 0.469009 0)
(-0.458332 0.466275 0)
(-0.422483 0.472701 0)
(-0.379091 0.476603 0)
(-0.335628 0.481082 0)
(-0.290966 0.485816 0)
(-0.245391 0.489781 0)
(-0.200441 0.493858 0)
(-0.156147 0.497627 0)
(-0.113634 0.501359 0)
(-0.0738651 0.504717 0)
(-0.0393744 0.50748 0)
(-0.0146458 0.509425 0)
(-0.0028864 0.51039 0)
(-0.000206036 0.510632 0)
(-3.50858e-06 0.510653 0)
(-8.75613e-09 0.510653 0)
(8.75922e-09 0.510653 0)
(3.50948e-06 0.510653 0)
(0.000206076 0.510632 0)
(0.00288678 0.51039 0)
(0.0146468 0.509425 0)
(0.0393746 0.50748 0)
(0.0738607 0.504722 0)
(0.11362 0.501376 0)
(0.156115 0.497666 0)
(0.200385 0.493931 0)
(0.245306 0.489901 0)
(0.290848 0.485998 0)
(0.335468 0.481326 0)
(0.378903 0.476934 0)
(0.422243 0.47309 0)
(0.458101 0.466734 0)
(0.502519 0.469486 0)
(0.537307 0.467672 0)
(0.617917 0.444502 0)
(1.07254 0.481065 0)
(-1.03584 0.547617 0)
(-0.617942 0.491127 0)
(-0.539694 0.511445 0)
(-0.506554 0.513179 0)
(-0.461262 0.509577 0)
(-0.425231 0.514387 0)
(-0.380124 0.51503 0)
(-0.33694 0.518387 0)
(-0.290815 0.520636 0)
(-0.245063 0.523748 0)
(-0.199617 0.527302 0)
(-0.15529 0.531409 0)
(-0.112433 0.535373 0)
(-0.072378 0.538811 0)
(-0.0379543 0.541621 0)
(-0.0136881 0.543577 0)
(-0.00255069 0.54453 0)
(-0.000166386 0.544754 0)
(-2.49733e-06 0.54477 0)
(-5.35823e-09 0.544771 0)
(5.35855e-09 0.544771 0)
(2.49749e-06 0.54477 0)
(0.000166397 0.544754 0)
(0.00255084 0.54453 0)
(0.0136887 0.543577 0)
(0.0379553 0.54162 0)
(0.072378 0.538811 0)
(0.112429 0.535378 0)
(0.155277 0.531425 0)
(0.199591 0.527337 0)
(0.245019 0.523814 0)
(0.290749 0.520744 0)
(0.336841 0.518546 0)
(0.379999 0.515258 0)
(0.425057 0.51468 0)
(0.461071 0.509944 0)
(0.506338 0.513597 0)
(0.539507 0.511881 0)
(0.617868 0.491437 0)
(1.03593 0.547556 0)
(-1.01076 0.537127 0)
(-0.610733 0.513642 0)
(-0.535159 0.540755 0)
(-0.504413 0.545166 0)
(-0.459135 0.543222 0)
(-0.422969 0.547982 0)
(-0.378017 0.548768 0)
(-0.334208 0.550881 0)
(-0.288246 0.552603 0)
(-0.241449 0.554346 0)
(-0.195142 0.55678 0)
(-0.149493 0.55955 0)
(-0.105842 0.562871 0)
(-0.0660837 0.566795 0)
(-0.0331931 0.570853 0)
(-0.011238 0.573969 0)
(-0.00191533 0.57543 0)
(-0.000111436 0.575739 0)
(-1.46428e-06 0.575759 0)
(-2.72931e-09 0.57576 0)
(2.72915e-09 0.57576 0)
(1.46427e-06 0.575759 0)
(0.000111437 0.575739 0)
(0.00191537 0.57543 0)
(0.0112382 0.573969 0)
(0.0331939 0.570852 0)
(0.0660849 0.566794 0)
(0.105843 0.562871 0)
(0.149492 0.559556 0)
(0.195136 0.556796 0)
(0.241437 0.554379 0)
(0.288222 0.552659 0)
(0.334175 0.550969 0)
(0.377968 0.548893 0)
(0.422908 0.548157 0)
(0.45906 0.543437 0)
(0.504327 0.545434 0)
(0.535096 0.541045 0)
(0.610736 0.513867 0)
(1.01084 0.537191 0)
(-0.971717 0.608532 0)
(-0.58543 0.587733 0)
(-0.508985 0.613918 0)
(-0.485328 0.621268 0)
(-0.436901 0.621736 0)
(-0.404404 0.62792 0)
(-0.356527 0.62917 0)
(-0.31453 0.632476 0)
(-0.267785 0.634318 0)
(-0.222587 0.636504 0)
(-0.177031 0.638406 0)
(-0.133285 0.640586 0)
(-0.0920951 0.643358 0)
(-0.0556925 0.647089 0)
(-0.0267302 0.651159 0)
(-0.00847795 0.654273 0)
(-0.00131955 0.655631 0)
(-6.83441e-05 0.655882 0)
(-7.82504e-07 0.655896 0)
(-1.26041e-09 0.655896 0)
(1.26028e-09 0.655896 0)
(7.82476e-07 0.655896 0)
(6.83433e-05 0.655882 0)
(0.00131956 0.655631 0)
(0.00847806 0.654273 0)
(0.0267306 0.651159 0)
(0.0556934 0.647089 0)
(0.0920964 0.643357 0)
(0.133287 0.640585 0)
(0.177033 0.638408 0)
(0.222592 0.636513 0)
(0.267792 0.634336 0)
(0.314544 0.632508 0)
(0.356548 0.629218 0)
(0.404436 0.627994 0)
(0.436945 0.62183 0)
(0.485379 0.621391 0)
(0.509051 0.614059 0)
(0.585506 0.58785 0)
(0.971748 0.608595 0)
(-1.03486 1.03859 0)
(-0.605868 0.974286 0)
(-0.531107 1.01575 0)
(-0.542 1.0406 0)
(-0.472213 1.07803 0)
(-0.451182 1.10526 0)
(-0.381587 1.13252 0)
(-0.343456 1.15783 0)
(-0.279413 1.1774 0)
(-0.234017 1.19752 0)
(-0.176932 1.2115 0)
(-0.128666 1.22432 0)
(-0.0811715 1.23302 0)
(-0.0420411 1.23905 0)
(-0.0152467 1.24233 0)
(-0.00310765 1.24367 0)
(-0.000266864 1.244 0)
(-7.09037e-06 1.24404 0)
(-4.24271e-08 1.24404 0)
(-4.14283e-11 1.24404 0)
(4.13996e-11 1.24404 0)
(4.24242e-08 1.24404 0)
(7.09012e-06 1.24404 0)
(0.00026686 1.244 0)
(0.00310764 1.24367 0)
(0.0152467 1.24233 0)
(0.0420412 1.23905 0)
(0.0811718 1.23302 0)
(0.128666 1.22432 0)
(0.176933 1.2115 0)
(0.234019 1.19752 0)
(0.279415 1.1774 0)
(0.343458 1.15783 0)
(0.381589 1.13252 0)
(0.451184 1.10526 0)
(0.472214 1.07803 0)
(0.541997 1.0406 0)
(0.531106 1.01575 0)
(0.605865 0.97429 0)
(1.03486 1.03859 0)
(-1.03486 -1.03859 0)
(-0.605868 -0.974286 0)
(-0.531107 -1.01575 0)
(-0.542 -1.0406 0)
(-0.472213 -1.07803 0)
(-0.451182 -1.10526 0)
(-0.381587 -1.13252 0)
(-0.343456 -1.15783 0)
(-0.279413 -1.1774 0)
(-0.234017 -1.19752 0)
(-0.176932 -1.2115 0)
(-0.128666 -1.22432 0)
(-0.0811715 -1.23302 0)
(-0.0420411 -1.23905 0)
(-0.0152467 -1.24233 0)
(-0.00310765 -1.24367 0)
(-0.000266864 -1.244 0)
(-7.09037e-06 -1.24404 0)
(-4.24269e-08 -1.24404 0)
(-4.13266e-11 -1.24404 0)
(4.14967e-11 -1.24404 0)
(4.24242e-08 -1.24404 0)
(7.09012e-06 -1.24404 0)
(0.00026686 -1.244 0)
(0.00310764 -1.24367 0)
(0.0152467 -1.24233 0)
(0.0420412 -1.23905 0)
(0.0811718 -1.23302 0)
(0.128666 -1.22432 0)
(0.176933 -1.2115 0)
(0.234019 -1.19752 0)
(0.279415 -1.1774 0)
(0.343458 -1.15783 0)
(0.381589 -1.13252 0)
(0.451184 -1.10526 0)
(0.472214 -1.07803 0)
(0.541997 -1.0406 0)
(0.531106 -1.01575 0)
(0.605865 -0.97429 0)
(1.03486 -1.03859 0)
(-0.971717 -0.608532 0)
(-0.58543 -0.587733 0)
(-0.508985 -0.613918 0)
(-0.485328 -0.621268 0)
(-0.436901 -0.621736 0)
(-0.404404 -0.62792 0)
(-0.356527 -0.62917 0)
(-0.31453 -0.632476 0)
(-0.267785 -0.634318 0)
(-0.222587 -0.636504 0)
(-0.177031 -0.638406 0)
(-0.133285 -0.640586 0)
(-0.0920951 -0.643358 0)
(-0.0556925 -0.647089 0)
(-0.0267302 -0.651159 0)
(-0.00847795 -0.654273 0)
(-0.00131955 -0.655631 0)
(-6.83441e-05 -0.655882 0)
(-7.82504e-07 -0.655896 0)
(-1.26048e-09 -0.655896 0)
(1.26035e-09 -0.655896 0)
(7.82477e-07 -0.655896 0)
(6.83433e-05 -0.655882 0)
(0.00131956 -0.655631 0)
(0.00847806 -0.654273 0)
(0.0267306 -0.651159 0)
(0.0556934 -0.647089 0)
(0.0920964 -0.643357 0)
(0.133287 -0.640585 0)
(0.177033 -0.638408 0)
(0.222592 -0.636513 0)
(0.267792 -0.634336 0)
(0.314544 -0.632508 0)
(0.356548 -0.629218 0)
(0.404436 -0.627994 0)
(0.436945 -0.62183 0)
(0.485379 -0.621391 0)
(0.509051 -0.614059 0)
(0.585506 -0.58785 0)
(0.971748 -0.608595 0)
(-1.01076 -0.537127 0)
(-0.610733 -0.513642 0)
(-0.535159 -0.540755 0)
(-0.504413 -0.545166 0)
(-0.459135 -0.543222 0)
(-0.422969 -0.547982 0)
(-0.378017 -0.548768 0)
(-0.334208 -0.550881 0)
(-0.288246 -0.552603 0)
(-0.241449 -0.554346 0)
(-0.195142 -0.55678 0)
(-0.149493 -0.55955 0)
(-0.105842 -0.562871 0)
(-0.0660837 -0.566795 0)
(-0.0331931 -0.570853 0)
(-0.011238 -0.573969 0)
(-0.00191533 -0.57543 0)
(-0.000111436 -0.575739 0)
(-1.46428e-06 -0.575759 0)
(-2.72941e-09 -0.57576 0)
(2.72921e-09 -0.57576 0)
(1.46427e-06 -0.575759 0)
(0.000111437 -0.575739 0)
(0.00191537 -0.57543 0)
(0.0112382 -0.573969 0)
(0.0331939 -0.570852 0)
(0.0660849 -0.566794 0)
(0.105843 -0.562871 0)
(0.149492 -0.559556 0)
(0.195136 -0.556796 0)