/*--------------------------------*- C++ -*----------------------------------*\
| =========                 |                                                 |
| \\      /  F ield         | OpenFOAM: The Open Source CFD Toolbox           |
|  \\    /   O peration     | Version:  v1912                                 |
|   \\  /    A nd           | Website:  www.openfoam.com                      |
|    \\/     M anipulation  |                                                 |
\*---------------------------------------------------------------------------*/
FoamFile
{
    version     2.0;
    format      ascii;
    class       volTensorField;
    location    "8.7";
    object      grad(U);
}
// * * * * * * * * * * * * * * * * * * * * * * * * * * * * * * * * * * * * * //

dimensions      [0 0 -1 0 0 0 0];


internalField   nonuniform List<tensor> 
1900
(
(1.07122 -7.99653e-06 0 1.40432e-05 1.97428e-06 0 0 0 0)
(0.237785 -9.27655e-06 0 1.28091e-05 4.24352e-06 0 0 0 0)
(-0.153027 -3.8386e-05 0 -3.02844e-05 -1.56125e-05 0 0 0 0)
(-0.0222077 -0.000109463 0 -8.63007e-05 -0.000113174 0 0 0 0)
(-0.00836918 -0.000235751 0 -0.000161574 -0.000299743 0 0 0 0)
(-0.0193875 -0.000255456 0 -0.00029861 -0.000670235 0 0 0 0)
(-0.0272169 -0.000658824 0 -0.000541858 -0.000799091 0 0 0 0)
(-0.0304567 0.0198262 0 -0.001418 -0.00100937 0 0 0 0)
(-0.0818634 0.0606546 0 0.000792921 0.0312951 0 0 0 0)
(-0.0456263 0.203411 0 0.0655134 0.114182 0 0 0 0)
(1.07124 1.42143e-05 0 2.37308e-05 3.29537e-06 0 0 0 0)
(0.237741 -8.3102e-06 0 2.09441e-05 4.70115e-06 0 0 0 0)
(-0.153126 -7.90313e-05 0 -5.85336e-05 1.25719e-05 0 0 0 0)
(-0.0223389 -0.000174668 0 -0.000157152 4.30871e-05 0 0 0 0)
(-0.00858149 -0.00032131 0 -0.000322346 0.000122035 0 0 0 0)
(-0.0197678 -0.000243892 0 -0.000606078 0.000278839 0 0 0 0)
(-0.0283363 0.000319686 0 -0.00113611 0.000377491 0 0 0 0)
(-0.0291219 0.012268 0 -0.000650541 0.000937662 0 0 0 0)
(-0.014932 0.054537 0 0.00906534 -0.0194487 0 0 0 0)
(0.0817482 0.139524 0 0.102364 -0.059717 0 0 0 0)
(1.07126 -2.2851e-13 0 -1.77674e-13 -1.05393e-05 0 0 0 0)
(0.237703 -6.64727e-15 0 -9.40545e-14 -1.78893e-05 0 0 0 0)
(-0.153205 -4.23029e-15 0 -1.32273e-13 6.0811e-06 0 0 0 0)
(-0.0224715 6.14827e-14 0 -6.27482e-14 0.000140173 0 0 0 0)
(-0.0088181 1.78304e-13 0 3.60497e-14 0.000355417 0 0 0 0)
(-0.0202012 8.19005e-14 0 9.25638e-14 0.000782793 0 0 0 0)
(-0.0272614 -3.01185e-14 0 -6.39679e-14 0.000843202 0 0 0 0)
(-0.0202553 -2.1976e-14 0 -3.65918e-14 0.000143422 0 0 0 0)
(0.0211514 -8.30959e-14 0 1.61275e-14 -0.0236928 0 0 0 0)
(0.126233 -6.31382e-14 0 4.55365e-14 -0.108931 0 0 0 0)
(1.07124 -1.42143e-05 0 -2.37308e-05 3.29537e-06 0 0 0 0)
(0.237741 8.3102e-06 0 -2.09441e-05 4.70115e-06 0 0 0 0)
(-0.153126 7.90313e-05 0 5.85336e-05 1.25719e-05 0 0 0 0)
(-0.0223389 0.000174668 0 0.000157152 4.30871e-05 0 0 0 0)
(-0.00858149 0.00032131 0 0.000322346 0.000122035 0 0 0 0)
(-0.0197678 0.000243892 0 0.000606078 0.000278839 0 0 0 0)
(-0.0283363 -0.000319686 0 0.00113611 0.000377491 0 0 0 0)
(-0.0291219 -0.012268 0 0.000650541 0.000937662 0 0 0 0)
(-0.014932 -0.054537 0 -0.00906534 -0.0194487 0 0 0 0)
(0.0817482 -0.139524 0 -0.102364 -0.059717 0 0 0 0)
(1.07122 7.99652e-06 0 -1.40432e-05 1.97428e-06 0 0 0 0)
(0.237785 9.27655e-06 0 -1.28091e-05 4.24352e-06 0 0 0 0)
(-0.153027 3.8386e-05 0 3.02844e-05 -1.56125e-05 0 0 0 0)
(-0.0222077 0.000109463 0 8.63007e-05 -0.000113174 0 0 0 0)
(-0.00836918 0.000235751 0 0.000161574 -0.000299743 0 0 0 0)
(-0.0193875 0.000255456 0 0.00029861 -0.000670235 0 0 0 0)
(-0.0272169 0.000658824 0 0.000541858 -0.000799091 0 0 0 0)
(-0.0304567 -0.0198262 0 0.001418 -0.00100937 0 0 0 0)
(-0.0818634 -0.0606546 0 -0.000792921 0.0312951 0 0 0 0)
(-0.0456263 -0.203411 0 -0.0655134 0.114182 0 0 0 0)
(0.16946 0.433312 -2.21482e-17 0.247669 -0.246533 3.32223e-17 5.81678e-17 7.59708e-17 -6.00329e-33)
(0.509743 0.580227 0 0.279765 -0.465814 0 -1.59983e-16 -4.77177e-17 0)
(0.795279 0.970403 0 0.274615 -0.7892 0 -2.60144e-16 -8.55842e-17 0)
(1.49098 1.5775 0 0.326132 -1.4303 0 0 0 0)
(2.80719 1.82927 2.67118e-16 1.12982 -3.48946 -4.00677e-16 -2.27757e-15 -1.51838e-15 -7.24024e-32)
(0.219056 0.160771 0 0.178836 -0.205231 0 1.02922e-16 3.14222e-17 0)
(0.409348 0.180222 0 0.130307 -0.343506 0 1.59983e-16 4.77177e-17 0)
(0.754936 0.424723 0 0.038929 -0.632027 0 2.60144e-16 8.55842e-17 0)
(1.68967 0.866604 0 -0.0768264 -1.3318 0 0 0 0)
(3.71271 0.575156 0 -0.175589 -3.0927 0 0 0 0)
(0.266929 -1.53034e-13 0 8.59309e-14 -0.285102 0 0 0 0)
(0.427371 8.43643e-14 0 1.35525e-13 -0.369273 0 0 0 0)
(0.743804 8.41857e-14 0 3.59895e-13 -0.630446 0 0 0 0)
(1.59966 -9.09277e-14 0 2.15608e-13 -1.36016 0 0 0 0)
(3.47855 1.45271e-13 0 3.67854e-13 -3.64121 0 0 0 0)
(0.219056 -0.160771 0 -0.178836 -0.205231 0 1.02922e-16 -3.14222e-17 0)
(0.409348 -0.180222 0 -0.130307 -0.343506 0 1.59983e-16 -4.77177e-17 0)
(0.754936 -0.424723 0 -0.038929 -0.632027 0 2.60144e-16 -8.55842e-17 0)
(1.68967 -0.866604 0 0.0768264 -1.3318 0 0 0 0)
(3.71271 -0.575156 0 0.175589 -3.0927 0 0 0 0)
(0.16946 -0.433312 2.21482e-17 -0.247669 -0.246533 3.32223e-17 -2.64011e-16 1.38815e-16 -6.00329e-33)
(0.509743 -0.580227 0 -0.279765 -0.465814 0 -1.59983e-16 4.77177e-17 0)
(0.795279 -0.970403 0 -0.274615 -0.7892 0 -2.60144e-16 8.55842e-17 0)
(1.49098 -1.5775 9.37931e-17 -0.326132 -1.4303 1.4069e-16 -9.33005e-16 6.22003e-16 -2.54227e-32)
(2.80719 -1.82927 -2.67118e-16 -1.12982 -3.48946 -4.00677e-16 2.27757e-15 -1.51838e-15 -7.24024e-32)
(4.24587 -0.785814 -1.85343e-17 0.0250083 4.46452 -1.66809e-16 2.27979e-15 -1.18769e-16 5.02374e-33)
(2.3557 -0.305985 9.04681e-18 0.542557 2.77403 8.14213e-17 -2.5664e-15 1.99796e-16 2.45214e-33)
(1.39489 -0.002208 0 0.734098 2.28786 0 0 0 0)
(1.07007 0.0812443 -5.29087e-18 0.66276 2.10593 -4.76178e-17 2.40512e-15 -2.01594e-16 1.43409e-33)
(0.668925 0.548776 4.73749e-18 0.544969 1.75429 4.26374e-17 -1.14384e-15 1.27093e-16 1.2841e-33)
(4.36456 -0.950452 0 -0.676304 -0.667335 0 -1.14027e-15 -7.84368e-18 0)
(2.6373 -0.200588 0 0.318387 1.00026 0 1.29137e-15 -5.81256e-17 0)
(1.4796 -0.0146362 0 0.445134 1.38652 0 0 0 0)
(1.03569 -0.0679278 0 0.359852 1.40937 0 -1.51839e-15 7.57452e-17 0)
(0.533206 0.243809 0 0.237018 1.40213 0 2.91846e-16 -8.0079e-18 0)
(4.36806 5.18995e-14 0 2.57361e-13 0.813786 0 0 0 0)
(2.61301 -1.07191e-14 0 3.05801e-13 1.8595 0 0 0 0)
(1.37403 -2.25679e-14 0 0 1.98518 0 0 0 0)
(0.963205 4.70712e-14 0 7.08629e-14 1.7691 0 6.11689e-16 -2.22806e-32 0)
(0.529694 -4.33641e-14 0 -1.7119e-13 2.12716 0 -5.83693e-16 -1.60032e-30 0)
(4.36456 0.950452 0 0.676304 -0.667335 0 -1.14027e-15 7.84368e-18 0)
(2.6373 0.200588 0 -0.318387 1.00026 0 1.29137e-15 5.81256e-17 0)
(1.4796 0.0146362 0 -0.445134 1.38652 0 0 0 0)
(1.03569 0.0679278 0 -0.359852 1.40937 0 -1.51839e-15 -7.57452e-17 0)
(0.533206 -0.243809 0 -0.237018 1.40213 0 2.91846e-16 8.0079e-18 0)
(4.24587 0.785814 0 -0.0250083 4.46452 0 1.14027e-15 -7.84368e-18 0)
(2.3557 0.305985 -9.04681e-18 -0.542557 2.77403 8.14213e-17 -1.634e-17 8.35447e-17 2.45214e-33)
(1.39489 0.002208 0 -0.734098 2.28786 0 0 0 0)
(1.07007 -0.0812443 5.29087e-18 -0.66276 2.10593 -4.76178e-17 1.99602e-17 -6.34237e-17 1.43409e-33)
(0.668925 -0.548776 -4.73749e-18 -0.544969 1.75429 4.26374e-17 1.14384e-15 1.27093e-16 1.2841e-33)
(0.177636 0.640568 0 -0.478155 -0.560554 0 0 0 0)
(0.107696 0.112816 0 -0.917007 -0.300081 0 0 0 0)
(0.0935763 -0.223152 0 -1.17593 0.0946861 0 0 0 0)
(0.0983625 -0.131598 0 -0.962978 0.055209 0 0 0 0)
(0.0930368 -0.0244593 0 -0.863444 0.0490535 0 0 0 0)
(0.115697 0.0140029 0 -0.774301 0.0783807 0 0 0 0)
(0.126597 0.0107055 0 -0.631275 0.124042 0 0 0 0)
(0.124753 0.0244536 0 -0.478913 0.214083 0 0 0 0)
(0.136482 0.0447183 0 -0.375126 0.20673 0 0 0 0)
(0.224363 -0.00802727 0 -0.250063 0.188607 0 0 0 0)
(0.155951 -0.00710894 0 -0.116662 0.275137 0 0 0 0)
(-0.0837919 0.0178348 0 -0.094544 0.169777 0 0 0 0)
(-0.63177 0.00828832 0 -0.122589 0.106629 0 0 0 0)
(-1.2726 -0.00972862 0 -0.386034 0.032799 0 0 0 0)
(-0.902121 -0.00591715 0 -0.152605 0.0995208 0 0 0 0)
(-0.189003 0.0173013 0 -0.13807 0.0902092 0 0 0 0)
(-0.021022 -0.0223156 0 0.0125091 0.0735349 0 0 0 0)
(-0.0599179 -0.057842 0 0.111629 0.163018 0 0 0 0)
(-0.221603 -0.0705473 0 0.213724 0.32675 0 0 0 0)
(-0.397751 -0.105571 0 0.304557 0.478589 0 0 0 0)
(-0.491685 -0.0741107 0 0.242659 0.573509 0 0 0 0)
(-0.499419 0.0195221 0 0.000176463 0.589707 0 0 0 0)
(-0.483021 0.0485455 0 -0.134582 0.535382 0 0 0 0)
(-0.479441 0.0293248 0 -0.113539 0.477048 0 0 0 0)
(-0.51899 0.0289798 0 -0.0408563 0.426359 0 0 0 0)
(-0.756827 0.0405805 0 0.0307185 0.337788 0 0 0 0)
(-1.67424 0.0557871 0 0.114042 0.266571 0 0 0 0)
(-2.50855 0.0499745 0 0.107949 0.170784 0 0 0 0)
(-1.98756 0.0176244 0 0.0298741 0.123348 0 0 0 0)
(-0.840373 0.00246568 0 -0.000424959 0.115211 0 0 0 0)
(-0.262191 0.000979891 0 0.0050371 0.114951 0 0 0 0)
(-0.174528 0.000449866 0 0.00780525 0.113071 0 0 0 0)
(-0.136571 -0.0014735 0 0.0100085 0.114396 0 0 0 0)
(-0.100466 -0.00354382 0 0.0111039 0.117499 0 0 0 0)
(-0.0731556 -0.00644327 0 0.00828565 0.123243 0 0 0 0)
(-0.0657888 -0.00817671 0 -0.00292296 0.133269 0 0 0 0)
(-0.0704138 -0.00291628 0 -0.0236207 0.144598 0 0 0 0)
(-0.0585006 0.00524617 0 -0.041789 0.141907 0 0 0 0)
(-0.040431 0.0105261 0 -0.0483079 0.131067 0 0 0 0)
(-0.018064 0.0064804 0 -0.0474902 0.109925 0 0 0 0)
(-0.0636008 0.48659 0 0.0760732 0.16765 0 0 0 0)
(-0.107388 0.191156 0 -0.395898 -0.616977 0 0 0 0)
(0.0659014 -0.10148 0 -0.864485 -0.220156 0 0 0 0)
(0.156347 -0.165558 0 -0.643318 0.150108 0 0 0 0)
(0.124616 -0.113516 0 -0.605146 0.232212 0 0 0 0)
(0.148877 -0.0664409 0 -0.521528 0.234187 0 0 0 0)
(0.168367 -0.0227491 0 -0.400457 0.184076 0 0 0 0)
(0.157263 0.010978 0 -0.310528 0.197387 0 0 0 0)
(0.166627 0.0298782 0 -0.259441 0.100017 0 0 0 0)
(0.255846 -0.000822535 0 -0.177978 0.0436674 0 0 0 0)
(0.176664 0.0135467 0 -0.128951 0.127611 0 0 0 0)
(-0.0795799 0.0277599 0 -0.0994958 0.0681044 0 0 0 0)
(-0.678016 0.00361186 0 -0.115167 0.0663036 0 0 0 0)
(-1.27556 0.0131795 0 -0.315764 0.0396134 0 0 0 0)
(-0.857667 0.0250525 0 -0.126053 0.0997457 0 0 0 0)
(-0.160926 0.0201716 0 -0.091468 0.0599536 0 0 0 0)
(0.0190603 0.0060189 0 0.0115149 0.0402724 0 0 0 0)
(-0.0110764 -0.0132209 0 0.0896239 0.136663 0 0 0 0)
(-0.156741 -0.0392258 0 0.221067 0.239104 0 0 0 0)
(-0.379563 -0.0611315 0 0.308523 0.37917 0 0 0 0)
(-0.561464 -0.0298188 0 0.206211 0.602004 0 0 0 0)
(-0.585387 0.0206019 0 0.0726902 0.633925 0 0 0 0)
(-0.506499 0.0282465 0 0.0267558 0.534896 0 0 0 0)
(-0.452146 0.0161659 0 0.0457585 0.46705 0 0 0 0)
(-0.48467 0.00337549 0 0.122825 0.434092 0 0 0 0)
(-0.745098 0.00824087 0 0.176029 0.367432 0 0 0 0)
(-1.68349 0.0344727 0 0.0831404 0.294597 0 0 0 0)
(-2.52577 0.0305318 0 0.0256321 0.175664 0 0 0 0)
(-2.00076 0.00636082 0 0.00832015 0.12281 0 0 0 0)
(-0.84226 0.000659835 0 0.00172094 0.11508 0 0 0 0)
(-0.260108 0.000588179 0 0.00664994 0.114334 0 0 0 0)
(-0.172826 0.000184857 0 0.0115288 0.111712 0 0 0 0)
(-0.135371 -0.000845251 0 0.0161984 0.112788 0 0 0 0)
(-0.10069 -0.0018807 0 0.0192555 0.116777 0 0 0 0)
(-0.0761352 -0.00328015 0 0.018859 0.124969 0 0 0 0)
(-0.0720969 -0.00411369 0 0.0127528 0.138926 0 0 0 0)
(-0.0773147 -0.00151052 0 0.000796964 0.153077 0 0 0 0)
(-0.0622773 0.00262228 0 -0.00979361 0.14895 0 0 0 0)
(-0.0409396 0.00533122 0 -0.0146172 0.135043 0 0 0 0)
(-0.0177527 0.0032676 0 -0.0166711 0.112767 0 0 0 0)
(-0.0124598 -1.08866e-13 0 -1.57702e-13 0.336028 0 0 0 0)
(-0.165921 -1.51614e-13 0 -7.17545e-13 -0.9585 0 0 0 0)
(0.0215994 -1.41758e-13 0 -1.08814e-12 -0.97817 0 0 0 0)
(0.173807 9.82355e-15 0 -6.93889e-13 -0.260822 0 0 0 0)
(0.128467 8.07516e-14 0 -5.75613e-13 0.16004 0 0 0 0)
(0.175242 8.5791e-14 0 -6.46579e-13 0.519599 0 0 0 0)
(0.187979 -4.50589e-14 0 -6.93889e-13 0.616822 0 0 0 0)
(0.165776 -2.95229e-14 0 -6.15038e-13 0.676 0 0 0 0)
(0.175042 4.9376e-14 0 -4.25796e-13 0.541348 0 0 0 0)
(0.262323 -1.34816e-13 0 -4.17911e-13 0.470587 0 0 0 0)
(0.178782 5.68784e-14 0 -2.12898e-13 0.547003 0 0 0 0)
(-0.0797822 2.94156e-13 0 2.36553e-14 0.377454 0 0 0 0)
(-0.694685 4.58173e-13 0 8.67362e-14 0.356153 0 0 0 0)
(-1.27576 2.2421e-14 0 5.75613e-13 0.352622 0 0 0 0)
(-0.836871 -5.18368e-13 0 4.77049e-13 0.265544 0 0 0 0)
(-0.148983 -1.38044e-13 0 4.45509e-13 0.180386 0 0 0 0)
(0.0316592 -1.0151e-12 0 2.05013e-13 0.126864 0 0 0 0)
(0.00104285 -4.33899e-12 0 -1.82146e-12 0.139006 0 0 0 0)
(-0.157923 -3.93473e-12 0 -6.32386e-12 0.217758 0 0 0 0)
(-0.402073 3.28118e-12 0 -9.37933e-12 0.408683 0 0 0 0)
(-0.560291 6.55136e-12 0 9.94706e-12 0.638037 0 0 0 0)
(-0.551624 1.48154e-12 0 1.20208e-11 0.613687 0 0 0 0)
(-0.490856 -1.76671e-12 0 6.1425e-12 0.496399 0 0 0 0)
(-0.451493 2.84032e-13 0 5.32639e-12 0.419493 0 0 0 0)
(-0.481093 1.89132e-12 0 3.08308e-12 0.385258 0 0 0 0)
(-0.768372 1.09046e-12 0 7.88511e-15 0.396286 0 0 0 0)
(-1.718 -3.06277e-12 0 9.87018e-12 0.328602 0 0 0 0)
(-2.53031 -7.36002e-12 0 9.40496e-12 0.159287 0 0 0 0)
(-1.99452 -2.34396e-12 0 -4.76931e-11 0.118696 0 0 0 0)
(-0.840859 4.66016e-12 0 -6.50344e-11 0.115556 0 0 0 0)
(-0.259338 5.25561e-12 0 -4.75718e-11 0.114159 0 0 0 0)
(-0.17175 3.79704e-12 0 -2.26549e-11 0.111512 0 0 0 0)
(-0.134323 4.36814e-13 0 -5.74824e-12 0.112888 0 0 0 0)
(-0.099692 -1.43292e-12 0 2.14573e-12 0.117323 0 0 0 0)
(-0.0750473 -6.4734e-13 0 5.9296e-12 0.125818 0 0 0 0)
(-0.0710433 -1.70025e-12 0 8.85695e-12 0.139874 0 0 0 0)
(-0.0769728 -2.46074e-12 0 7.48888e-12 0.1541 0 0 0 0)
(-0.0629847 1.81872e-13 0 2.8071e-12 0.150259 0 0 0 0)
(-0.0424318 1.39923e-12 0 -2.48381e-13 0.136072 0 0 0 0)
(-0.0186615 3.13681e-13 0 -7.37257e-13 0.113607 0 0 0 0)
(-0.0636008 -0.48659 0 -0.0760732 0.16765 0 0 0 0)
(-0.107388 -0.191156 0 0.395898 -0.616977 0 0 0 0)
(0.0659014 0.10148 0 0.864485 -0.220156 0 0 0 0)
(0.156347 0.165558 0 0.643318 0.150108 0 0 0 0)
(0.124616 0.113516 0 0.605146 0.232212 0 0 0 0)
(0.148877 0.0664409 0 0.521528 0.234187 0 0 0 0)
(0.168367 0.0227491 0 0.400457 0.184076 0 0 0 0)
(0.157263 -0.010978 0 0.310528 0.197387 0 0 0 0)
(0.166627 -0.0298782 0 0.259441 0.100017 0 0 0 0)
(0.255846 0.000822535 0 0.177978 0.0436674 0 0 0 0)
(0.176664 -0.0135467 0 0.128951 0.127611 0 0 0 0)
(-0.0795799 -0.0277599 0 0.0994958 0.0681044 0 0 0 0)
(-0.678016 -0.00361186 0 0.115167 0.0663036 0 0 0 0)
(-1.27556 -0.0131795 0 0.315764 0.0396134 0 0 0 0)
(-0.857667 -0.0250525 0 0.126053 0.0997457 0 0 0 0)
(-0.160926 -0.0201716 0 0.091468 0.0599536 0 0 0 0)
(0.0190603 -0.0060189 0 -0.0115149 0.0402724 0 0 0 0)
(-0.0110764 0.0132209 0 -0.0896239 0.136663 0 0 0 0)
(-0.156741 0.0392258 0 -0.221067 0.239104 0 0 0 0)
(-0.379563 0.0611315 0 -0.308523 0.37917 0 0 0 0)
(-0.561464 0.0298188 0 -0.206211 0.602004 0 0 0 0)
(-0.585387 -0.0206019 0 -0.0726902 0.633925 0 0 0 0)
(-0.506499 -0.0282465 0 -0.0267558 0.534896 0 0 0 0)
(-0.452146 -0.0161659 0 -0.0457585 0.46705 0 0 0 0)
(-0.48467 -0.00337549 0 -0.122825 0.434092 0 0 0 0)
(-0.745098 -0.00824087 0 -0.176029 0.367432 0 0 0 0)
(-1.68349 -0.0344727 0 -0.0831404 0.294597 0 0 0 0)
(-2.52577 -0.0305318 0 -0.0256321 0.175664 0 0 0 0)
(-2.00076 -0.00636082 0 -0.00832015 0.12281 0 0 0 0)
(-0.84226 -0.000659835 0 -0.00172094 0.11508 0 0 0 0)
(-0.260108 -0.000588179 0 -0.00664994 0.114334 0 0 0 0)
(-0.172826 -0.000184857 0 -0.0115288 0.111712 0 0 0 0)
(-0.135371 0.000845251 0 -0.0161984 0.112788 0 0 0 0)
(-0.10069 0.0018807 0 -0.0192555 0.116777 0 0 0 0)
(-0.0761352 0.00328015 0 -0.018859 0.124969 0 0 0 0)
(-0.0720969 0.00411369 0 -0.0127528 0.138926 0 0 0 0)
(-0.0773147 0.00151052 0 -0.000796964 0.153077 0 0 0 0)
(-0.0622773 -0.00262228 0 0.00979361 0.14895 0 0 0 0)
(-0.0409396 -0.00533122 0 0.0146172 0.135043 0 0 0 0)
(-0.0177527 -0.0032676 0 0.0166711 0.112767 0 0 0 0)
(0.177636 -0.640568 0 0.478155 -0.560554 0 0 0 0)
(0.107696 -0.112816 0 0.917007 -0.300081 0 0 0 0)
(0.0935763 0.223152 0 1.17593 0.0946861 0 0 0 0)
(0.0983625 0.131598 0 0.962978 0.055209 0 0 0 0)
(0.0930368 0.0244593 0 0.863444 0.0490535 0 0 0 0)
(0.115697 -0.0140029 0 0.774301 0.0783807 0 0 0 0)
(0.126597 -0.0107055 0 0.631275 0.124042 0 0 0 0)
(0.124753 -0.0244536 0 0.478913 0.214083 0 0 0 0)
(0.136482 -0.0447183 0 0.375126 0.20673 0 0 0 0)
(0.224363 0.00802727 0 0.250063 0.188607 0 0 0 0)
(0.155951 0.00710894 0 0.116662 0.275137 0 0 0 0)
(-0.0837919 -0.0178348 0 0.094544 0.169777 0 0 0 0)
(-0.63177 -0.00828832 0 0.122589 0.106629 0 0 0 0)
(-1.2726 0.00972862 0 0.386034 0.032799 0 0 0 0)
(-0.902121 0.00591715 0 0.152605 0.0995208 0 0 0 0)
(-0.189003 -0.0173013 0 0.13807 0.0902092 0 0 0 0)
(-0.021022 0.0223156 0 -0.0125091 0.0735349 0 0 0 0)
(-0.0599179 0.057842 0 -0.111629 0.163018 0 0 0 0)
(-0.221603 0.0705473 0 -0.213724 0.32675 0 0 0 0)
(-0.397751 0.105571 0 -0.304557 0.478589 0 0 0 0)
(-0.491685 0.0741107 0 -0.242659 0.573509 0 0 0 0)
(-0.499419 -0.0195221 0 -0.000176463 0.589707 0 0 0 0)
(-0.483021 -0.0485455 0 0.134582 0.535382 0 0 0 0)
(-0.479441 -0.0293248 0 0.113539 0.477048 0 0 0 0)
(-0.51899 -0.0289798 0 0.0408563 0.426359 0 0 0 0)
(-0.756827 -0.0405805 0 -0.0307185 0.337788 0 0 0 0)
(-1.67424 -0.0557871 0 -0.114042 0.266571 0 0 0 0)
(-2.50855 -0.0499745 0 -0.107949 0.170784 0 0 0 0)
(-1.98756 -0.0176244 0 -0.0298741 0.123348 0 0 0 0)
(-0.840373 -0.00246568 0 0.00042496 0.115211 0 0 0 0)
(-0.262191 -0.000979891 0 -0.0050371 0.114951 0 0 0 0)
(-0.174528 -0.000449866 0 -0.00780525 0.113071 0 0 0 0)
(-0.136571 0.0014735 0 -0.0100085 0.114396 0 0 0 0)
(-0.100466 0.00354382 0 -0.0111039 0.117499 0 0 0 0)
(-0.0731556 0.00644327 0 -0.00828565 0.123243 0 0 0 0)
(-0.0657888 0.00817671 0 0.00292296 0.133269 0 0 0 0)
(-0.0704138 0.00291628 0 0.0236207 0.144598 0 0 0 0)
(-0.0585006 -0.00524617 0 0.041789 0.141907 0 0 0 0)
(-0.040431 -0.0105261 0 0.0483079 0.131067 0 0 0 0)
(-0.018064 -0.0064804 0 0.0474902 0.109925 0 0 0 0)
(0.0287587 0.0212964 0 0.927412 -0.161301 0 0 0 0)
(0.0816166 0.129278 0 0.830157 0.224417 0 0 0 0)
(0.0627389 0.183662 0 0.826609 0.0400652 0 0 0 0)
(0.0273765 0.1762 0 0.750282 -0.0878708 0 0 0 0)
(0.042778 0.231023 0 0.706031 -0.0397294 0 0 0 0)
(0.04161 0.206492 0 0.620365 0.0099015 0 0 0 0)
(0.031375 0.146553 0 0.528105 0.121165 0 0 0 0)
(0.0341777 0.0564711 0 0.411968 0.236603 0 0 0 0)
(0.0579309 -0.0286999 0 0.308478 0.264601 0 0 0 0)
(0.130121 0.035402 0 0.207024 0.30208 0 0 0 0)
(0.10306 -0.049241 0 0.0725967 0.394818 0 0 0 0)
(-0.0709922 -0.144936 0 0.041105 0.288009 0 0 0 0)
(-0.548645 -0.0841275 0 0.0567919 0.195595 0 0 0 0)
(-1.26015 -0.0441257 0 0.206673 0.130523 0 0 0 0)
(-0.961807 -0.0248493 0 0.0870134 0.134461 0 0 0 0)
(-0.232035 -0.0397906 0 0.0889087 0.155539 0 0 0 0)
(-0.091224 0.00689029 0 -0.0202722 0.168435 0 0 0 0)
(-0.08082 0.120463 0 -0.0908564 0.200013 0 0 0 0)
(-0.202763 0.200959 0 -0.103156 0.375628 0 0 0 0)
(-0.376683 0.164533 0 -0.108593 0.56192 0 0 0 0)
(-0.451217 0.0483078 0 -0.101121 0.582373 0 0 0 0)
(-0.448155 -0.0457659 0 -0.0608301 0.561461 0 0 0 0)
(-0.462314 -0.0754441 0 -0.0303566 0.527729 0 0 0 0)
(-0.479377 -0.0693383 0 -0.0182969 0.460654 0 0 0 0)
(-0.535476 -0.0611241 0 -0.0135364 0.388048 0 0 0 0)
(-0.8287 -0.071079 0 -0.0356309 0.335817 0 0 0 0)
(-1.74263 -0.114585 0 -0.134034 0.257462 0 0 0 0)
(-2.49289 -0.097891 0 -0.127476 0.142666 0 0 0 0)
(-1.94805 -0.0281963 0 -0.0359296 0.118436 0 0 0 0)
(-0.828861 -0.00383933 0 0.00664751 0.115483 0 0 0 0)
(-0.262863 -0.00147792 0 0.00303504 0.115305 0 0 0 0)
(-0.173975 -0.000226531 0 0.00354836 0.11438 0 0 0 0)
(-0.136054 0.00289619 0 0.00542277 0.116088 0 0 0 0)
(-0.0998694 0.00550739 0 0.00680702 0.118358 0 0 0 0)
(-0.0707818 0.00951539 0 0.00838651 0.121286 0 0 0 0)
(-0.0593767 0.0128113 0 0.0126722 0.12656 0 0 0 0)
(-0.0609143 0.00530337 0 0.0224114 0.134189 0 0 0 0)
(-0.0511586 -0.00807638 0 0.0331852 0.134869 0 0 0 0)
(-0.0379515 -0.019386 0 0.0372721 0.1301 0 0 0 0)
(-0.0179058 -0.0128141 0 0.0351271 0.111574 0 0 0 0)
(0.00606606 0.00961854 0 0.453521 0.668709 0 0 0 0)
(0.0245434 -0.0485917 0 0.401018 0.68627 0 0 0 0)
(0.0331417 -0.0566036 0 0.333417 0.556411 0 0 0 0)
(0.0202339 0.0307878 0 0.32321 0.486242 0 0 0 0)
(-0.00520526 0.00791039 0 0.307259 0.39912 0 0 0 0)
(-0.016032 0.0228043 0 0.279821 0.214768 0 0 0 0)
(-0.0231613 0.123425 0 0.25231 0.169965 0 0 0 0)
(-0.0383182 0.0703719 0 0.211793 0.152097 0 0 0 0)
(-0.0188875 0.00978803 0 0.172671 0.11447 0 0 0 0)
(0.047594 0.11883 0 0.131538 0.176571 0 0 0 0)
(0.0244273 0.023766 0 0.0327768 0.226028 0 0 0 0)
(-0.105886 -0.141658 0 -0.0116962 0.169951 0 0 0 0)
(-0.516797 -0.119379 0 -0.0298121 0.087689 0 0 0 0)
(-1.25015 -0.0203041 0 -0.0789273 0.117475 0 0 0 0)
(-0.983597 0.0465216 0 -0.0254312 0.163857 0 0 0 0)
(-0.269312 0.0274974 0 -0.00253598 0.208368 0 0 0 0)
(-0.156606 0.0734437 0 -0.0473146 0.224072 0 0 0 0)
(-0.128579 0.223921 0 -0.0840078 0.261695 0 0 0 0)
(-0.248798 0.349363 0 -0.153698 0.406465 0 0 0 0)
(-0.407088 0.27318 0 -0.242386 0.547243 0 0 0 0)
(-0.467359 0.0875051 0 -0.290125 0.596567 0 0 0 0)
(-0.458718 -0.0581055 0 -0.295448 0.580146 0 0 0 0)
(-0.453139 -0.131263 0 -0.266827 0.52911 0 0 0 0)
(-0.463266 -0.14247 0 -0.223056 0.458111 0 0 0 0)
(-0.526854 -0.132041 0 -0.19204 0.38576 0 0 0 0)
(-0.834403 -0.150064 0 -0.186676 0.313148 0 0 0 0)
(-1.72608 -0.210385 0 -0.232824 0.226958 0 0 0 0)
(-2.4224 -0.158251 0 -0.163418 0.126836 0 0 0 0)
(-1.8795 -0.0381493 0 -0.0403752 0.115821 0 0 0 0)
(-0.808999 -0.00474572 0 0.0128363 0.114728 0 0 0 0)
(-0.264817 -0.00177643 0 0.00730771 0.116118 0 0 0 0)
(-0.172524 0.000184742 0 0.00783821 0.115869 0 0 0 0)
(-0.133708 0.00454458 0 0.0104391 0.11732 0 0 0 0)
(-0.0979299 0.00750006 0 0.011966 0.118932 0 0 0 0)
(-0.0687767 0.0126992 0 0.0122935 0.120874 0 0 0 0)
(-0.0557124 0.0181251 0 0.0127993 0.12393 0 0 0 0)
(-0.0557407 0.00964317 0 0.0158369 0.128451 0 0 0 0)
(-0.0481173 -0.00766914 0 0.0198923 0.129934 0 0 0 0)
(-0.0398894 -0.028223 0 0.0213818 0.130369 0 0 0 0)
(-0.0202158 -0.0209362 0 0.0181383 0.115021 0 0 0 0)
(-0.0218352 0.0382187 0 0.0281935 0.590223 0 0 0 0)
(-0.0341201 0.0210631 0 0.0259433 0.553681 0 0 0 0)
(-0.012239 -0.00909304 0 0.003187 0.544334 0 0 0 0)
(0.00217037 0.0246285 0 -0.0284915 0.541145 0 0 0 0)
(0.000966042 -0.030579 0 -0.0503849 0.520164 0 0 0 0)
(-0.0113407 -0.0143295 0 -0.0426176 0.493503 0 0 0 0)
(-0.0341788 0.0861605 0 -0.0469149 0.482524 0 0 0 0)
(-0.0425658 0.00299419 0 -0.0411701 0.425651 0 0 0 0)
(-0.0194063 -0.0051158 0 -0.0152618 0.358026 0 0 0 0)
(-0.0046861 0.142903 0 0.0106105 0.383109 0 0 0 0)
(-0.0349654 -0.0556201 0 -0.110326 0.342614 0 0 0 0)
(-0.131305 -0.278245 0 -0.214201 0.311022 0 0 0 0)
(-0.613431 -0.134695 0 -0.28684 0.278405 0 0 0 0)
(-1.25593 0.0292723 0 -0.39742 0.285248 0 0 0 0)
(-0.888194 0.0627385 0 -0.0941116 0.249757 0 0 0 0)
(-0.253122 0.0182353 0 -0.0753161 0.268885 0 0 0 0)
(-0.169733 0.0582776 0 -0.105275 0.265996 0 0 0 0)
(-0.183335 0.296223 0 -0.197307 0.335605 0 0 0 0)
(-0.355382 0.476125 0 -0.336251 0.499874 0 0 0 0)
(-0.508149 0.347722 0 -0.447092 0.591592 0 0 0 0)
(-0.502349 0.0800145 0 -0.463601 0.573001 0 0 0 0)
(-0.425705 -0.11077 0 -0.407392 0.513265 0 0 0 0)
(-0.392555 -0.193042 0 -0.338921 0.456212 0 0 0 0)
(-0.407309 -0.207476 0 -0.273173 0.399576 0 0 0 0)
(-0.500419 -0.200815 0 -0.231924 0.34005 0 0 0 0)
(-0.868001 -0.224107 0 -0.237578 0.271638 0 0 0 0)
(-1.72022 -0.294123 0 -0.331712 0.187904 0 0 0 0)
(-2.30744 -0.204986 0 -0.20524 0.109036 0 0 0 0)
(-1.7782 -0.039864 0 -0.042994 0.116975 0 0 0 0)
(-0.782912 -0.00355285 0 0.0151693 0.119021 0 0 0 0)
(-0.267679 -0.000378346 0 0.00543755 0.121376 0 0 0 0)
(-0.170958 0.000931315 0 0.0045888 0.122519 0 0 0 0)
(-0.132076 0.00584737 0 0.00616296 0.12409 0 0 0 0)
(-0.0980824 0.00893222 0 0.00631608 0.125222 0 0 0 0)
(-0.0699787 0.0143319 0 0.00508024 0.126273 0 0 0 0)
(-0.0559621 0.0201127 0 0.00409512 0.126003 0 0 0 0)
(-0.0540792 0.0110897 0 0.0053438 0.12661 0 0 0 0)
(-0.0458153 -0.00622832 0 0.00764905 0.125059 0 0 0 0)
(-0.0396417 -0.0337574 0 0.0108191 0.128158 0 0 0 0)
(-0.0210313 -0.0276039 0 0.0106748 0.116473 0 0 0 0)
(0.00389767 -0.0255948 0 -0.27093 0.485278 0 0 0 0)
(0.000446201 -0.0928125 0 -0.238982 0.436374 0 0 0 0)
(-0.0193137 -0.0686843 0 -0.211255 0.41264 0 0 0 0)
(-0.0313898 0.00749716 0 -0.208487 0.417037 0 0 0 0)
(-0.0188177 -0.0379986 0 -0.207294 0.404388 0 0 0 0)
(-0.0126882 -0.0134673 0 -0.196325 0.419694 0 0 0 0)
(-0.0217663 0.0580406 0 -0.194688 0.41656 0 0 0 0)
(-0.00781613 -0.049599 0 -0.165324 0.342658 0 0 0 0)
(0.0310101 -0.0312077 0 -0.0971872 0.364062 0 0 0 0)
(-0.0440138 0.103979 0 -0.129486 0.379376 0 0 0 0)
(-0.192209 -0.0456992 0 -0.273672 0.174834 0 0 0 0)
(-0.27598 -0.203533 0 -0.311319 0.221236 0 0 0 0)
(-0.693353 -0.144216 0 -0.44558 0.27383 0 0 0 0)
(-1.06443 -0.04791 0 -0.484194 0.275907 0 0 0 0)
(-0.673207 0.0307532 0 -0.0250094 0.255596 0 0 0 0)
(-0.280069 0.043146 0 -0.0695866 0.277216 0 0 0 0)
(-0.27416 0.137738 0 -0.16093 0.319316 0 0 0 0)
(-0.351156 0.449294 0 -0.341838 0.487952 0 0 0 0)
(-0.4895 0.596041 0 -0.527769 0.643653 0 0 0 0)
(-0.529807 0.343648 0 -0.600809 0.596451 0 0 0 0)
(-0.429103 0.0120268 0 -0.524885 0.487868 0 0 0 0)
(-0.338571 -0.170648 0 -0.428238 0.417493 0 0 0 0)
(-0.3238 -0.240818 0 -0.352649 0.370938 0 0 0 0)
(-0.36016 -0.254409 0 -0.295355 0.330864 0 0 0 0)
(-0.492554 -0.255326 0 -0.269952 0.289 0 0 0 0)
(-0.930563 -0.296677 0 -0.305636 0.226359 0 0 0 0)
(-1.69491 -0.367075 0 -0.427297 0.139954 0 0 0 0)
(-2.14418 -0.2266 0 -0.21006 0.100597 0 0 0 0)
(-1.66711 -0.0285268 0 -0.0274514 0.120875 0 0 0 0)
(-0.762328 -0.000505293 0 0.0236105 0.126398 0 0 0 0)
(-0.275012 0.00159412 0 0.0115099 0.127538 0 0 0 0)
(-0.171824 0.00280016 0 0.010899 0.128447 0 0 0 0)
(-0.132043 0.00714951 0 0.0131114 0.130235 0 0 0 0)
(-0.0989732 0.00960421 0 0.0138751 0.131567 0 0 0 0)
(-0.0709169 0.0134516 0 0.0133333 0.132145 0 0 0 0)
(-0.0554584 0.0184498 0 0.0130425 0.129505 0 0 0 0)
(-0.052316 0.0087334 0 0.0144487 0.127011 0 0 0 0)
(-0.0428412 -0.00617775 0 0.0156023 0.120957 0 0 0 0)
(-0.0369736 -0.0364967 0 0.0187187 0.124033 0 0 0 0)
(-0.0203548 -0.0321964 0 0.019635 0.116189 0 0 0 0)
(0.00895115 -0.00890753 0 -0.385872 0.336673 0 0 0 0)
(0.0233856 -0.0489337 0 -0.386464 0.348864 0 0 0 0)
(0.0171472 -0.0277264 0 -0.373304 0.390048 0 0 0 0)
(0.00598725 0.0166763 0 -0.35197 0.401535 0 0 0 0)
(0.0126863 -0.0280189 0 -0.322153 0.378015 0 0 0 0)
(0.000806429 -0.00260027 0 -0.30466 0.431011 0 0 0 0)
(-0.00430532 0.0119252 0 -0.292323 0.430644 0 0 0 0)
(0.0513897 -0.0475951 0 -0.256055 0.372099 0 0 0 0)
(0.0151286 0.0302677 0 -0.17839 0.428062 0 0 0 0)
(-0.174754 -0.0394433 0 -0.253656 0.383897 0 0 0 0)
(-0.210186 -0.20801 0 -0.356685 0.188455 0 0 0 0)
(-0.296962 -0.182848 0 -0.342225 0.189048 0 0 0 0)
(-0.780019 -0.0820121 0 -0.454441 0.243519 0 0 0 0)
(-0.850652 0.0117008 0 -0.371719 0.271097 0 0 0 0)
(-0.488663 0.0640003 0 -0.0812144 0.341074 0 0 0 0)
(-0.3841 0.0796384 0 -0.156596 0.37713 0 0 0 0)
(-0.432084 0.261351 0 -0.29679 0.471858 0 0 0 0)
(-0.536834 0.608765 0 -0.494166 0.727834 0 0 0 0)
(-0.604936 0.580678 0 -0.643449 0.749461 0 0 0 0)
(-0.505369 0.197603 0 -0.612954 0.548256 0 0 0 0)
(-0.336053 -0.0924362 0 -0.494748 0.407545 0 0 0 0)
(-0.259732 -0.223448 0 -0.409828 0.342209 0 0 0 0)
(-0.264504 -0.27652 0 -0.348106 0.304656 0 0 0 0)
(-0.32762 -0.286434 0 -0.307697 0.27574 0 0 0 0)
(-0.510325 -0.30152 0 -0.304754 0.239734 0 0 0 0)
(-1.01962 -0.367733 0 -0.381557 0.175868 0 0 0 0)
(-1.62812 -0.415312 0 -0.504702 0.0833318 0 0 0 0)
(-1.92214 -0.223372 0 -0.189806 0.0764082 0 0 0 0)
(-1.55303 -0.0150008 0 -0.0137757 0.113847 0 0 0 0)
(-0.745368 0.00286814 0 0.0187743 0.107312 0 0 0 0)
(-0.279929 0.00159609 0 0.00786367 0.10102 0 0 0 0)
(-0.169415 0.0035298 0 0.0103669 0.0990497 0 0 0 0)
(-0.129208 0.00885326 0 0.016053 0.104543 0 0 0 0)
(-0.0978685 0.0107729 0 0.0192244 0.114368 0 0 0 0)
(-0.070781 0.0123453 0 0.018787 0.125776 0 0 0 0)
(-0.0548873 0.0151659 0 0.0161293 0.129756 0 0 0 0)
(-0.0516126 0.00285215 0 0.014695 0.12878 0 0 0 0)
(-0.0417005 -0.00909856 0 0.0137495 0.119401 0 0 0 0)
(-0.0357556 -0.0383513 0 0.0157308 0.121871 0 0 0 0)
(-0.0201483 -0.0351621 0 0.0164924 0.116747 0 0 0 0)
(0.00332763 -0.0138468 0 -0.412085 0.322656 0 0 0 0)
(0.012557 -0.0413784 0 -0.417407 0.318146 0 0 0 0)
(0.0139263 -0.0179287 0 -0.427112 0.351392 0 0 0 0)
(0.017902 -0.00409794 0 -0.426702 0.348193 0 0 0 0)
(0.0267716 -0.0095947 0 -0.41933 0.332282 0 0 0 0)
(0.0160567 0.0372474 0 -0.42022 0.379436 0 0 0 0)
(0.0250714 0.00127061 0 -0.40231 0.34878 0 0 0 0)
(0.101974 -0.0520873 0 -0.383659 0.338746 0 0 0 0)
(0.033322 -0.0198389 0 -0.36323 0.333354 0 0 0 0)
(-0.215825 -0.126915 0 -0.443669 0.22781 0 0 0 0)
(-0.277558 -0.233462 0 -0.407789 0.244402 0 0 0 0)
(-0.370182 -0.150471 0 -0.533249 0.229592 0 0 0 0)
(-0.721775 -0.0651513 0 -0.606399 0.255459 0 0 0 0)
(-0.704773 0.0460979 0 -0.359876 0.312811 0 0 0 0)
(-0.465906 0.132931 0 -0.299426 0.389176 0 0 0 0)
(-0.487805 0.169174 0 -0.413392 0.40318 0 0 0 0)
(-0.599455 0.475689 0 -0.581079 0.690695 0 0 0 0)
(-0.68521 0.716803 0 -0.732377 0.917681 0 0 0 0)
(-0.603968 0.422993 0 -0.734481 0.689225 0 0 0 0)
(-0.386514 0.0141648 0 -0.575847 0.448282 0 0 0 0)
(-0.233364 -0.186527 0 -0.452897 0.338595 0 0 0 0)
(-0.197262 -0.269795 0 -0.383869 0.278054 0 0 0 0)
(-0.225383 -0.30487 0 -0.34283 0.225164 0 0 0 0)
(-0.318384 -0.31697 0 -0.331865 0.186798 0 0 0 0)
(-0.563727 -0.351567 0 -0.362251 0.13825 0 0 0 0)
(-1.12324 -0.447392 0 -0.476085 0.0340368 0 0 0 0)
(-1.51014 -0.462918 0 -0.542224 -0.0346876 0 0 0 0)
(-1.67111 -0.197195 0 -0.147637 0.0329721 0 0 0 0)
(-1.46611 0.00125348 0 -0.0255478 0.00193878 0 0 0 0)
(-0.741476 -0.0128658 0 -0.00822408 -0.0479076 0 0 0 0)
(-0.283114 -0.00636804 0 -0.00342713 -0.0652242 0 0 0 0)
(-0.163933 0.00619454 0 0.0109519 -0.0533801 0 0 0 0)
(-0.123508 0.0219106 0 0.0229518 -0.0182141 0 0 0 0)
(-0.0963388 0.0300649 0 0.0257486 0.0227366 0 0 0 0)
(-0.0738994 0.0282801 0 0.0260633 0.0615676 0 0 0 0)
(-0.0594015 0.0213448 0 0.0250903 0.092009 0 0 0 0)
(-0.0546092 -0.0012447 0 0.0213977 0.115766 0 0 0 0)
(-0.0418431 -0.0128356 0 0.0125175 0.11656 0 0 0 0)