/*--------------------------------*- C++ -*----------------------------------*\
| =========                 |                                                 |
| \\      /  F ield         | OpenFOAM: The Open Source CFD Toolbox           |
|  \\    /   O peration     | Version:  v1912                                 |
|   \\  /    A nd           | Website:  www.openfoam.com                      |
|    \\/     M anipulation  |                                                 |
\*---------------------------------------------------------------------------*/
FoamFile
{
    version     2.0;
    format      ascii;
    class       volVectorField;
    location    "4.78";
    object      grad(p);
}
// * * * * * * * * * * * * * * * * * * * * * * * * * * * * * * * * * * * * * //

dimensions      [1 -2 -2 0 0 0 0];


internalField   nonuniform List<vector> 
1900
(
(137052 -0.378875 0)
(-123568 0.0177606 0)
(-9706.28 0.899263 0)
(-1731.64 0.27153 0)
(-1645.84 1.63447 0)
(-1412.31 8.53474 0)
(-1350.36 22.9518 0)
(-1119.32 32.0619 0)
(-1244.4 -148.094 0)
(-799.402 -170.712 0)
(137052 -0.607638 0)
(-123567 0.212163 0)
(-9706.02 1.53755 0)
(-1730.9 0.978069 0)
(-1637.58 2.74892 0)
(-1390.99 11.4032 0)
(-1326.83 25.7416 0)
(-1290.37 19.9311 0)
(-1447.18 -201.826 0)
(-1565.62 -215.081 0)
(137052 8.73968e-09 0)
(-123566 1.04805e-09 0)
(-9705.51 -2.61124e-09 0)
(-1730.43 -1.95399e-09 0)
(-1635.41 -2.85993e-09 0)
(-1389.32 -6.57252e-10 0)
(-1341.83 -1.13687e-09 0)
(-1346.89 7.63833e-10 0)
(-1479.42 1.42109e-10 0)
(-1571.89 -1.06581e-10 0)
(137052 0.607638 0)
(-123567 -0.212163 0)
(-9706.02 -1.53755 0)
(-1730.9 -0.978069 0)
(-1637.58 -2.74892 0)
(-1390.99 -11.4032 0)
(-1326.83 -25.7416 0)
(-1290.37 -19.9311 0)
(-1447.18 201.826 0)
(-1565.62 215.081 0)
(137052 0.378875 0)
(-123568 -0.0177606 0)
(-9706.28 -0.899263 0)
(-1731.64 -0.27153 0)
(-1645.84 -1.63447 0)
(-1412.31 -8.53474 0)
(-1350.36 -22.9518 0)
(-1119.32 -32.0619 0)
(-1244.4 148.094 0)
(-799.402 170.712 0)
(-1164.63 -825.137 9.35212e-12)
(-2299.76 -834.99 -1.09303e-11)
(-2479.96 -1296.8 -1.36396e-11)
(-1299.05 -1443.07 0)
(-10668.5 -8570.58 -5.77417e-11)
(-1745.65 -886.813 9.20302e-12)
(-2286.98 -934.484 1.09303e-11)
(-2514.61 -1355.69 1.36396e-11)
(-3637.65 -1381.57 0)
(-10176 -7360.57 0)
(-2113.62 2.89623e-10 0)
(-2578.9 1.94776e-11 0)
(-2857.54 7.40149e-10 0)
(-3647.87 2.82602e-09 0)
(-13292.6 2.37905e-09 0)
(-1745.65 886.813 9.20302e-12)
(-2286.98 934.484 1.09303e-11)
(-2514.61 1355.69 1.36396e-11)
(-3637.65 1381.57 0)
(-10176 7360.57 0)
(-1164.63 825.137 -2.77582e-11)
(-2299.76 834.99 -1.09303e-11)
(-2479.96 1296.8 -1.36396e-11)
(-1299.05 1443.07 -3.64967e-11)
(-10668.5 8570.58 5.77417e-11)
(-20314.5 8128.47 1.65943e-11)
(-5642.46 2317.77 -1.26197e-11)
(-5763.4 1179.73 0)
(-6430.62 812.426 7.76358e-12)
(-7730.01 1163.79 -2.97978e-12)
(-16740.1 9014.54 -8.41953e-12)
(-7199.87 1561.02 6.34474e-12)
(-6132.82 497.016 0)
(-6330.88 407.725 -4.8706e-12)
(-7490.62 669.944 7.58753e-13)
(-17893.9 6.28005e-10 0)
(-7793.62 1.51825e-10 0)
(-6157.2 9.86865e-10 0)
(-6380.08 -2.24947e-09 1.95315e-12)
(-7057.02 -7.27164e-10 -1.51751e-12)
(-16740.1 -9014.54 -8.41953e-12)
(-7199.87 -1561.02 6.34474e-12)
(-6132.82 -497.016 0)
(-6330.88 -407.725 -4.8706e-12)
(-7490.62 -669.944 7.58753e-13)
(-20314.5 -8128.47 8.41953e-12)
(-5642.46 -2317.77 -6.98036e-14)
(-5763.4 -1179.73 0)
(-6430.62 -812.426 2.44676e-14)
(-7730.01 -1163.79 2.97978e-12)
(-7990.74 3595.98 0)
(-2702.8 1584.95 0)
(1709.69 1126.63 0)
(367.196 1483.49 0)
(-1184.27 942.967 0)
(-1316.89 406.099 0)
(-1017.24 142.26 0)
(-862.813 83.5149 0)
(-834.634 58.8638 0)
(-771.909 63.9505 0)
(-608.022 24.5025 0)
(-386.121 6.42616 0)
(-230.854 1.11489 0)
(-156.767 0.971125 0)
(-125.791 1.03634 0)
(-107.026 0.749019 0)
(-90.6809 0.256499 0)
(-75.4342 -0.162788 0)
(-62.3443 -0.482847 0)
(-51.0327 -0.679854 0)
(-40.6571 -0.808771 0)
(-31.8612 -0.891287 0)
(-23.8693 -0.934871 0)
(-16.2709 -0.949043 0)
(-9.67251 -0.934063 0)
(-4.49046 -0.911978 0)
(-0.670641 -0.884606 0)
(2.36817 -0.906062 0)
(7.11778 -0.879477 0)
(13.1347 -0.975278 0)
(27.6528 -0.911292 0)
(44.022 -0.506723 0)
(67.0635 -0.18888 0)
(84.9297 1.48397 0)
(107.738 1.45118 0)
(125.237 4.16982 0)
(156.874 -0.772429 0)
(796.858 11.4267 0)
(12195.8 -10.5194 0)
(-14248.2 -1131.95 0)
(-8167.24 2406.49 0)
(-3043.88 2209.74 0)
(1720.11 2065.49 0)
(446.458 1472.86 0)
(-1277.29 748.513 0)
(-1419.8 241.999 0)
(-1060.62 68.7194 0)
(-872.627 33.0032 0)
(-835.055 21.2668 0)
(-774.917 29.3841 0)
(-614.008 7.02568 0)
(-387.753 1.4504 0)
(-231.135 -0.309063 0)
(-156.695 -0.095362 0)
(-125.779 0.0464957 0)
(-107.074 0.00256399 0)
(-90.7445 -0.158037 0)
(-75.4878 -0.277412 0)
(-62.3897 -0.390845 0)
(-51.0659 -0.488356 0)
(-40.6794 -0.563025 0)
(-31.8752 -0.610477 0)
(-23.8792 -0.642544 0)
(-16.279 -0.669281 0)
(-9.68025 -0.691968 0)
(-4.49768 -0.713648 0)
(-0.683232 -0.727852 0)
(2.35594 -0.764583 0)
(7.09847 -0.763561 0)
(13.117 -0.81564 0)
(27.684 -0.777735 0)
(44.0942 -0.523598 0)
(67.2706 -0.101784 0)
(85.1372 1.07246 0)
(108.115 2.13534 0)
(125.134 5.11974 0)
(157.658 5.81683 0)
(796.96 16.0686 0)
(12205.7 12.002 0)
(-14259.4 710.071 0)
(-7421.19 -2.0412e-08 0)
(-2802 1.07147e-08 0)
(1495.33 3.68352e-08 0)
(-15.9253 2.12436e-08 0)
(-1542.34 -6.07999e-09 0)
(-1514.65 6.28184e-09 0)
(-1078.04 -4.92535e-09 0)
(-876.617 -1.56885e-08 0)
(-835.687 -1.46711e-08 0)
(-776.052 5.36944e-10 0)
(-616.148 -1.51717e-08 0)
(-388.254 -7.69485e-09 0)
(-231.304 -6.01135e-09 0)
(-156.664 -2.9108e-09 0)
(-125.763 -2.14374e-09 0)
(-107.085 -2.98347e-09 0)
(-90.7624 -1.78443e-09 0)
(-75.502 -6.58867e-09 0)
(-62.4057 3.12477e-09 0)
(-51.0828 9.43084e-09 0)
(-40.6926 1.33509e-08 0)
(-31.8844 1.65403e-08 0)
(-23.8864 1.81713e-08 0)
(-16.2853 1.86962e-08 0)
(-9.68542 2.3024e-08 0)
(-4.5009 3.06785e-08 0)
(-0.685459 3.5511e-08 0)
(2.35778 3.02627e-08 0)
(7.10293 1.68996e-08 0)
(13.1306 1.73599e-10 0)
(27.7378 -7.59393e-09 0)
(44.2187 2.4546e-09 0)
(67.5278 2.51395e-08 0)
(85.5805 5.71906e-08 0)
(108.916 6.4615e-08 0)
(126.308 9.22979e-08 0)
(160.059 5.84987e-08 0)
(798.657 5.00731e-08 0)
(12397.7 -2.84217e-08 0)
(-14458.3 1.66574e-07 0)
(-8167.24 -2406.49 0)
(-3043.88 -2209.74 0)
(1720.11 -2065.49 0)
(446.458 -1472.86 0)
(-1277.29 -748.513 0)
(-1419.8 -241.999 0)
(-1060.62 -68.7194 0)
(-872.627 -33.0032 0)
(-835.055 -21.2668 0)
(-774.917 -29.3841 0)
(-614.008 -7.02568 0)
(-387.753 -1.4504 0)
(-231.135 0.309063 0)
(-156.695 0.095362 0)
(-125.779 -0.0464957 0)
(-107.074 -0.00256399 0)
(-90.7445 0.158037 0)
(-75.4878 0.277412 0)
(-62.3897 0.390845 0)
(-51.0659 0.488356 0)
(-40.6794 0.563025 0)
(-31.8752 0.610477 0)
(-23.8792 0.642544 0)
(-16.279 0.66928 0)
(-9.68025 0.691968 0)
(-4.49768 0.713648 0)
(-0.683232 0.727852 0)
(2.35594 0.764583 0)
(7.09847 0.763561 0)
(13.117 0.81564 0)
(27.684 0.777735 0)
(44.0942 0.523598 0)
(67.2706 0.101783 0)
(85.1372 -1.07246 0)
(108.115 -2.13534 0)
(125.134 -5.11974 0)
(157.658 -5.81683 0)
(796.96 -16.0686 0)
(12205.7 -12.002 0)
(-14259.4 -710.071 0)
(-7990.74 -3595.98 0)
(-2702.8 -1584.95 0)
(1709.69 -1126.63 0)
(367.196 -1483.49 0)
(-1184.27 -942.967 0)
(-1316.89 -406.099 0)
(-1017.24 -142.26 0)
(-862.813 -83.5149 0)
(-834.634 -58.8638 0)
(-771.909 -63.9505 0)
(-608.022 -24.5025 0)
(-386.121 -6.42616 0)
(-230.854 -1.11489 0)
(-156.767 -0.971125 0)
(-125.791 -1.03634 0)
(-107.026 -0.749019 0)
(-90.6809 -0.256499 0)
(-75.4342 0.162788 0)
(-62.3443 0.482847 0)
(-51.0327 0.679854 0)
(-40.6571 0.808771 0)
(-31.8612 0.891287 0)
(-23.8693 0.934871 0)
(-16.2709 0.949043 0)
(-9.67251 0.934063 0)
(-4.49046 0.911978 0)
(-0.670641 0.884606 0)
(2.36817 0.906062 0)
(7.11778 0.879477 0)
(13.1347 0.975277 0)
(27.6528 0.911292 0)
(44.022 0.506723 0)
(67.0635 0.18888 0)
(84.9297 -1.48397 0)
(107.738 -1.45118 0)
(125.237 -4.16982 0)
(156.874 0.772429 0)
(796.858 -11.4267 0)
(12195.8 10.5194 0)
(-14248.2 1131.95 0)
(7108.24 -2217.86 0)
(-1889.31 -1924.16 0)
(1795.8 -1834.12 0)
(653.31 -1859.85 0)
(-709.023 -1205.41 0)
(-1036.53 -599.664 0)
(-908.429 -277.064 0)
(-831.662 -171.076 0)
(-823.27 -117.794 0)
(-756.841 -99.1002 0)
(-584.845 -48.0241 0)
(-374.97 -14.9801 0)
(-228.037 -4.05801 0)
(-156.561 -2.79537 0)
(-125.625 -2.63687 0)
(-106.641 -1.99051 0)
(-90.2461 -1.07075 0)
(-75.086 -0.268526 0)
(-62.1177 0.285296 0)
(-50.8998 0.615966 0)
(-40.5726 0.833647 0)
(-31.8123 0.979292 0)
(-23.8544 1.05472 0)
(-16.2889 1.07137 0)
(-9.71245 1.02483 0)
(-4.53706 0.959047 0)
(-0.701501 0.890059 0)
(2.33859 0.894343 0)
(7.11956 0.853309 0)
(13.1166 0.999092 0)
(27.4261 0.877795 0)
(43.7246 0.241343 0)
(66.2613 -0.282901 0)
(84.3483 -2.68643 0)
(106.865 -2.63796 0)
(126.41 -5.77923 0)
(154.012 -0.0916501 0)
(803.192 -16.1423 0)
(12934.3 -12.5631 0)
(-14988.8 255.437 0)
(6414.22 579.972 0)
(-2769.25 -1073.06 0)
(1725.49 -1217.09 0)
(819.622 -1493.24 0)
(-224.747 -1170.01 0)
(-572.635 -711.48 0)
(-662.59 -411.396 0)
(-726.038 -256.134 0)
(-771.37 -184.495 0)
(-712.757 -129.989 0)
(-539.388 -67.414 0)
(-349.732 -24.3746 0)
(-220.623 -8.0652 0)
(-155.508 -4.81163 0)
(-125.105 -3.9173 0)
(-105.723 -2.72448 0)
(-89.2548 -1.31253 0)
(-74.3142 -0.122666 0)
(-61.6135 0.673854 0)
(-50.5755 1.17434 0)
(-40.3522 1.52073 0)
(-31.6744 1.75387 0)
(-23.7885 1.87924 0)
(-16.2901 1.91967 0)
(-9.75934 1.86994 0)
(-4.59534 1.79889 0)
(-0.716445 1.727 0)
(2.34862 1.78271 0)
(7.21776 1.78224 0)
(13.168 2.07723 0)
(27.0442 1.9758 0)
(43.063 1.13307 0)
(64.6724 0.318361 0)
(82.972 -2.76401 0)
(105.227 -3.17836 0)
(127.061 -6.97303 0)
(148.422 -3.39722 0)
(781.443 -19.7124 0)
(12061.6 -47.0689 0)
(-14085.1 -1131.82 0)
(6633.08 1317.54 0)
(-3621.02 -367.43 0)
(1390.9 -647.879 0)
(698.676 -1076.59 0)
(44.3116 -875.533 0)
(-305.503 -636.059 0)
(-469.641 -442.187 0)
(-613.012 -309.211 0)
(-701.712 -238.164 0)
(-644.017 -155.357 0)
(-483.071 -83.0674 0)
(-317.779 -33.5342 0)
(-209.186 -13.3911 0)
(-152.564 -7.63919 0)
(-123.613 -5.38455 0)
(-104.131 -3.34309 0)
(-87.7389 -1.33469 0)
(-73.1718 0.266052 0)
(-60.8679 1.34963 0)
(-50.0838 2.04094 0)
(-40.0141 2.52981 0)
(-31.4668 2.85945 0)
(-23.6946 3.03123 0)
(-16.2979 3.0803 0)
(-9.82884 3.00806 0)
(-4.6748 2.92204 0)
(-0.717088 2.84063 0)
(2.39182 2.96609 0)
(7.40337 3.00624 0)
(13.3031 3.47858 0)
(26.5162 3.41126 0)
(42.1274 2.31261 0)
(62.506 1.24883 0)
(80.9787 -2.28802 0)
(102.809 -2.98097 0)
(126.199 -7.31827 0)
(141.736 -6.43629 0)
(761.109 -17.5219 0)
(11862.6 -27.0109 0)
(-13852.8 -459.219 0)
(7329.78 1576.52 0)
(-4663.19 -129.081 0)
(1042.11 -430.761 0)
(600.246 -752.488 0)
(199.768 -629.449 0)
(-155.047 -533.844 0)
(-347.627 -417.725 0)
(-529.434 -338.022 0)
(-623.111 -262.7 0)
(-563.3 -168.818 0)
(-421.995 -89.2025 0)
(-282.59 -39.5556 0)
(-195.669 -18.0136 0)
(-147.793 -10.3784 0)
(-120.965 -6.68151 0)
(-101.821 -3.74031 0)
(-85.7769 -1.20327 0)
(-71.7275 0.721022 0)
(-59.9032 2.04794 0)
(-49.4382 2.92098 0)
(-39.5635 3.55694 0)
(-31.1913 3.9927 0)
(-23.5757 4.21981 0)
(-16.3124 4.28813 0)
(-9.91185 4.21351 0)
(-4.75669 4.14605 0)
(-0.67399 4.0864 0)
(2.50821 4.32818 0)
(7.71162 4.45456 0)
(13.5583 5.10948 0)
(25.9207 5.08067 0)
(40.9793 3.75785 0)
(60.239 2.44587 0)
(78.896 -1.24443 0)
(100.379 -2.30401 0)
(123.731 -6.60155 0)
(138.589 -9.1608 0)
(761.617 -11.3855 0)
(11635.9 -16.2587 0)
(-13616.6 -494.278 0)
(8027.89 1340.6 0)
(-5555.31 -76.8796 0)
(790.161 -279.546 0)
(507.212 -474.018 0)
(255.005 -444.374 0)
(-101.478 -443.397 0)
(-280.941 -387.932 0)
(-463.624 -341.162 0)
(-538.66 -259.732 0)
(-476.828 -167.168 0)
(-358.509 -86.4755 0)
(-249.179 -41.668 0)
(-181.07 -20.817 0)
(-141.644 -12.2486 0)
(-117.217 -7.49586 0)
(-98.8516 -3.8894 0)
(-83.4398 -1.01094 0)
(-70.0389 1.13674 0)
(-58.7479 2.63606 0)
(-48.6296 3.6655 0)
(-38.9814 4.451 0)
(-30.8281 5.01252 0)
(-23.41 5.33031 0)
(-16.3039 5.47569 0)
(-9.96576 5.4916 0)
(-4.79728 5.5635 0)
(-0.541588 5.63541 0)
(2.74659 6.14883 0)
(8.15626 6.53001 0)
(13.9064 7.52172 0)
(25.2138 7.73708 0)
(39.5884 6.45545 0)
(57.6856 5.22589 0)
(76.4016 1.65645 0)
(97.6467 0.58797 0)
(119.592 -2.92293 0)
(137.126 -6.6917 0)
(754.269 -2.43452 0)
(11397.3 -12.7022 0)
(-13360.9 -578.26 0)
(8547.55 1420.23 0)
(-6224.43 -71.4322 0)
(659.416 -211.016 0)
(441.412 -294.057 0)
(229.276 -343.577 0)
(-100.658 -378.513 0)
(-249.11 -364.536 0)
(-405.896 -325.916 0)
(-455.444 -242.337 0)
(-396.344 -153.616 0)
(-301.058 -81.6686 0)
(-219.319 -42.0468 0)
(-167.32 -22.9456 0)
(-134.956 -13.8679 0)
(-112.91 -8.36567 0)
(-95.5714 -4.26802 0)
(-80.9335 -1.14525 0)
(-68.2131 1.15231 0)
(-57.4664 2.76841 0)
(-47.6893 3.91488 0)
(-38.2655 4.84287 0)
(-30.3439 5.54574 0)
(-23.1294 5.98338 0)
(-16.157 6.24853 0)
(-9.82723 6.41484 0)
(-4.61811 6.69687 0)
(-0.109944 6.93426 0)
(3.37029 7.71753 0)
(9.03459 8.32732 0)
(14.7215 9.52156 0)
(24.8932 9.82112 0)
(38.5594 8.39163 0)
(55.6145 6.81466 0)
(74.4268 2.93925 0)
(95.9663 1.37133 0)
(116.716 -1.55417 0)
(139.06 -5.72172 0)
(755.825 3.21151 0)
(11081 -9.02794 0)
(-13047.1 -638.963 0)
(9327.64 790.222 0)
(-7127.24 -73.7535 0)
(575.632 -175.973 0)
(379.471 -230.464 0)
(173.62 -303.024 0)
(-121.674 -339.656 0)
(-230.257 -341.217 0)
(-345.869 -296.55 0)
(-372.625 -214.431 0)
(-322.002 -132.337 0)
(-250.997 -72.1723 0)
(-192.592 -38.9669 0)
(-153.915 -22.2155 0)
(-127.595 -13.3853 0)
(-107.966 -7.77052 0)
(-91.8937 -3.65787 0)
(-78.2165 -0.68209 0)
(-66.2675 1.40488 0)
(-56.0858 2.90548 0)
(-46.6306 4.07651 0)
(-37.4098 5.14111 0)
(-29.729 6.0338 0)
(-22.7327 6.68634 0)
(-15.8882 7.22554 0)
(-9.53372 7.75728 0)
(-4.29675 8.47602 0)
(0.441955 9.10527 0)
(4.089 10.463 0)
(9.89469 11.5359 0)
(15.3459 13.1306 0)
(24.1249 13.8131 0)
(36.6913 12.5526 0)
(52.4315 10.9884 0)
(71.1562 7.14083 0)
(93.3167 5.11595 0)
(112.757 1.8656 0)
(141.719 -2.59216 0)
(751.083 6.33908 0)
(10778.4 -16.0997 0)
(-12736.4 -691.284 0)
(9237.96 46.5414 0)
(-7155.49 -71.3508 0)
(508.405 -148.26 0)
(318.981 -202.328 0)
(124.055 -284.305 0)
(-137.462 -306.723 0)
(-207.572 -305.52 0)
(-283.721 -255.845 0)
(-297.203 -181.926 0)
(-259.258 -111.982 0)
(-211.083 -63.798 0)
(-171.179 -36.4577 0)
(-142.668 -21.5793 0)
(-121.036 -12.7041 0)
(-103.537 -6.88945 0)
(-88.7408 -3.04742 0)
(-76.0548 -0.451819 0)
(-64.756 1.37732 0)
(-54.8919 2.88021 0)
(-45.535 4.16468 0)
(-36.3794 5.38541 0)
(-28.8549 6.44913 0)
(-21.981 7.27643 0)
(-15.125 8.03519 0)
(-8.62223 8.83837 0)
(-3.31913 9.82803 0)
(1.80475 10.627 0)
(5.71254 12.2676 0)
(11.6052 13.3772 0)
(16.9158 14.863 0)
(24.3362 15.4986 0)
(35.8374 14.1034 0)
(50.3995 12.0899 0)
(68.7679 8.25458 0)
(90.8829 6.05783 0)
(109.289 3.44707 0)
(143.371 -0.391728 0)
(742.809 8.61488 0)
(10408.8 -17.6774 0)
(-12365.5 -716.765 0)
(9303.73 -24.5729 0)
(-7314.96 -62.7736 0)
(449.418 -133.41 0)
(248.373 -190.202 0)
(73.0206 -276.565 0)
(-142.117 -281.12 0)
(-181.228 -268.635 0)
(-226.769 -217.011 0)
(-233.994 -152.911 0)
(-208.17 -95.0925 0)
(-178.219 -56.0858 0)
(-151.908 -32.3587 0)
(-131.025 -18.0512 0)
(-113.439 -8.84628 0)
(-98.6605 -3.04313 0)
(-85.6902 0.463388 0)
(-73.9527 2.76906 0)
(-63.0567 4.52172 0)
(-53.3998 6.05558 0)
(-44.2165 7.38601 0)
(-35.2085 8.69533 0)
(-27.9068 9.89552 0)
(-21.2043 10.8924 0)
(-14.383 11.8648 0)
(-7.80607 12.8681 0)
(-2.57319 13.9769 0)
(2.79278 14.7499 0)
(6.73922 16.3302 0)
(12.3958 16.9237 0)
(17.3901 17.5415 0)
(23.3929 17.264 0)
(33.4065 14.9421 0)
(46.7954 11.3438 0)
(65.3435 6.32361 0)
(88.684 2.87763 0)
(106.542 0.934146 0)
(146.699 -1.55115 0)
(734.426 8.82483 0)
(10079.4 -28.9402 0)
(-12028.7 -763.19 0)
(9153.79 -277.503 0)
(-7260.37 -61.1714 0)
(385.61 -129.973 0)
(181.032 -186.539 0)
(36.4424 -262.952 0)
(-129.821 -249.778 0)
(-145.794 -226.249 0)
(-172.204 -177.419 0)
(-179.718 -124.013 0)
(-165.954 -77.4147 0)
(-150.631 -45.7561 0)
(-134.527 -24.7503 0)
(-120.011 -11.4375 0)
(-106.574 -3.26304 0)
(-94.5654 1.91015 0)
(-83.1399 5.35833 0)
(-72.1441 7.71951 0)
(-61.589 9.59052 0)
(-52.1317 11.2023 0)
(-42.9912 12.6346 0)
(-33.9611 14.09 0)
(-26.7377 15.4411 0)
(-20.0833 16.5448 0)
(-13.2211 17.5892 0)
(-6.58691 18.5593 0)
(-1.50583 19.5176 0)
(4.07251 20.1229 0)
(7.80727 21.6613 0)
(12.7724 21.7699 0)
(17.2437 21.663 0)
(21.8313 20.5381 0)
(30.1325 17.4035 0)
(42.0944 12.3906 0)
(60.6095 6.06125 0)
(85.6895 0.420284 0)
(105.021 -2.97933 0)
(150.975 -6.23759 0)
(716.416 2.92374 0)
(9664.85 -46.7603 0)
(-11602.1 -811.024 0)
(8977.37 -440.051 0)
(-7172.79 -67.5633 0)
(328.61 -127.735 0)
(120.23 -176.89 0)
(12.0807 -239.569 0)
(-106.749 -212.777 0)
(-111.501 -182.43 0)
(-128.252 -141.321 0)
(-137.626 -98.3406 0)
(-132.758 -61.0526 0)
(-127.47 -34.9788 0)
(-118.838 -16.2176 0)
(-110.32 -3.90262 0)
(-100.577 5.21372 0)
(-90.3526 11.5676 0)
(-80.0921 16.3407 0)
(-69.8744 19.9447 0)
(-59.7005 22.8585 0)
(-50.4664 25.2585 0)
(-41.4338 27.1696 0)
(-32.5041 28.8019 0)
(-25.5413 30.0034 0)
(-19.1343 30.6203 0)
(-12.4418 30.8967 0)
(-5.94783 30.7927 0)
(-1.06641 30.626 0)
(4.85856 30.0491 0)
(8.32625 30.4386 0)
(12.3974 29.2783 0)
(16.2032 27.8238 0)
(19.2882 25.1871 0)
(25.5553 20.9543 0)
(35.8656 14.3683 0)
(53.8085 6.57323 0)
(79.9722 -0.470565 0)
(100.126 -4.10979 0)
(152.387 -7.79542 0)
(695.377 -2.33059 0)
(9295.08 -78.6722 0)
(-11202.1 -897.45 0)
(8664.64 -653.732 0)
(-6959.41 -73.0333 0)
(280.259 -123.518 0)
(73.2646 -161.772 0)
(1.85959 -206.8 0)
(-74.7598 -174.959 0)
(-76.9365 -142.359 0)
(-91.1728 -108.205 0)
(-102.368 -72.1843 0)
(-104.896 -41.1804 0)
(-107.426 -19.5212 0)
(-104.581 -2.63288 0)
(-99.3587 9.6247 0)
(-91.6662 18.9606 0)
(-83.8431 25.4865 0)
(-75.0675 30.6185 0)
(-65.8633 34.7972 0)
(-56.4684 38.339 0)
(-47.9774 41.2711 0)
(-39.5766 43.4866 0)
(-31.2303 45.2587 0)
(-24.9855 46.4421 0)
(-19.2225 46.8373 0)
(-13.055 46.7108 0)
(-6.84776 46.0108 0)
(-2.22239 45.3212 0)
(3.89196 44.0132 0)
(7.06457 43.531 0)
(10.2527 41.2909 0)
(13.3012 38.5796 0)
(15.2117 34.3602 0)
(19.7071 28.5321 0)
(28.2363 19.7048 0)
(46.3103 9.41503 0)
(75.3949 -0.234503 0)
(97.9623 -4.20678 0)
(152.689 -8.26033 0)
(648.116 -8.12948 0)
(8802.28 -122.27 0)
(-10661.5 -1019.83 0)
(8277.03 -771.002 0)
(-6661.86 -71.9418 0)
(243.098 -116.279 0)
(39.9759 -140.878 0)
(-0.627001 -165.656 0)
(-44.6519 -133.178 0)
(-47.1746 -100.549 0)
(-60.6283 -73.3258 0)
(-73.0383 -44.5092 0)
(-82.0104 -20.831 0)
(-90.3239 -1.84244 0)
(-90.7515 15.7995 0)
(-89.5113 27.8215 0)
(-85.2916 36.9322 0)
(-79.1187 43.3826 0)
(-71.1199 48.8966 0)
(-62.4346 53.8371 0)
(-53.462 58.3487 0)
(-45.506 62.2113 0)
(-37.5911 64.99 0)
(-29.6561 66.8201 0)
(-24.0202 67.5726 0)
(-18.8754 67.1671 0)
(-13.2382 66.0595 0)
(-7.28686 64.2951 0)
(-2.99134 62.8626 0)
(3.13344 60.7443 0)
(5.70293 59.2377 0)
(7.62609 56.0681 0)
(9.52456 51.8907 0)
(9.60605 46.2552 0)
(11.4327 38.7775 0)
(17.4437 27.8043 0)
(34.5943 16.4476 0)
(66.8457 3.92598 0)
(92.392 0.14173 0)
(148.607 -4.47749 0)
(585.513 -11.125 0)
(8320.17 -167.418 0)
(-10101.5 -1133.83 0)
(7852.34 -829.564 0)
(-6328.49 -50.3982 0)
(213.83 -88.6232 0)
(25.6828 -102.461 0)
(9.27982 -108.277 0)
(-12.0203 -83.5102 0)
(-19.2609 -53.8513 0)
(-37.1708 -35.9874 0)
(-51.7817 -11.6604 0)
(-63.7808 8.07399 0)
(-72.1277 24.1448 0)
(-75.9959 39.4197 0)
(-78.9944 48.9959 0)
(-76.6709 57.1396 0)
(-72.3138 62.561 0)
(-64.9932 67.3806 0)
(-56.7549 71.8363 0)
(-48.3988 76.0374 0)
(-41.5776 79.771 0)
(-35.1354 82.5877 0)
(-28.7416 84.6803 0)
(-24.6511 85.8108 0)
(-20.6806 85.6984 0)
(-15.8225 84.7722 0)
(-9.92843 83.0864 0)
(-5.64409 81.9811 0)
(0.398902 80.0377 0)
(2.55849 78.6846 0)
(3.17281 76.139 0)
(3.84512 72.0973 0)
(2.57538 66.5384 0)
(1.92718 60.2094 0)
(6.7183 49.6546 0)
(23.3003 39.4798 0)
(59.682 24.7542 0)
(89.8644 19.5101 0)
(141.832 16.8537 0)
(491.1 4.66114 0)
(7720.4 -185.873 0)
(-9407.57 -1205.81 0)
(7429.07 -957.236 0)
(-5947.86 5.40284 0)
(192.929 -23.1112 0)
(21.0365 -34.6351 0)
(17.6347 -28.0284 0)
(7.79499 -18.9317 0)
(-1.37992 5.59411 0)
(-19.9715 17.8009 0)
(-30.5791 34.263 0)
(-47.5072 47.6951 0)
(-60.118 58.1206 0)
(-66.804 69.7507 0)
(-72.4358 76.3872 0)
(-72.2198 82.5944 0)
(-69.2501 87.0587 0)
(-62.1818 91.8099 0)
(-54.0925 96.3488 0)
(-45.8159 100.738 0)
(-39.1939 104.702 0)
(-32.8603 107.536 0)
(-26.5502 109.266 0)
(-23.0391 109.745 0)
(-19.8762 108.981 0)
(-15.7552 107.652 0)
(-9.97642 105.594 0)
(-5.92917 104.258 0)
(-0.0431642 102.226 0)
(1.946 101.11 0)
(1.27829 99.6948 0)
(0.273089 97.1179 0)
(-1.84954 92.6879 0)
(-4.83713 89.88 0)
(-2.53215 82.1417 0)
(10.5993 75.6158 0)
(47.6022 64.9463 0)
(84.7788 61.7117 0)
(134.298 67.5341 0)
(390.158 55.659 0)
(7153.71 -143.573 0)
(-8760.46 -1215.55 0)
(6935.12 -663.547 0)
(-5428.34 96.6483 0)
(175.248 55.4052 0)
(20.9443 38.471 0)
(24.4122 43.5444 0)
(20.3796 40.1977 0)
(16.136 61.5175 0)
(-9.54432 71.4153 0)
(-22.9746 79.4937 0)
(-40.7908 87.8925 0)
(-50.8741 94.2776 0)
(-58.3936 102.223 0)
(-66.6178 105.681 0)
(-66.3875 111.104 0)
(-63.4334 115.491 0)
(-56.0409 120.568 0)
(-48.1512 124.846 0)
(-40.3496 127.798 0)
(-35.0268 129.515 0)
(-30.7369 130.699 0)
(-26.6129 133.071 0)
(-24.9256 135.972 0)
(-22.6979 137.161 0)
(-19.0871 136.157 0)
(-13.1993 132.628 0)
(-8.88949 129.338 0)
(-2.63459 124.723 0)
(0.119561 122.06 0)
(-0.673733 119.239 0)
(-2.90694 116.815 0)
(-4.39934 111.75 0)
(-8.23551 110.981 0)
(-7.02714 104.192 0)
(6.73013 99.7631 0)
(46.2835 93.8232 0)
(92.3582 95.3594 0)
(136 112.561 0)
(287.67 117.356 0)
(6495.42 -25.8081 0)
(-8097.87 -902.43 0)
(6882.79 -313.06 0)
(-5255.05 223.939 0)
(136.867 178 0)
(9.60691 155.951 0)
(19.2986 137.069 0)
(25.1145 132.514 0)
(28.7026 145.395 0)
(-2.64895 146.596 0)
(-14.7011 156.695 0)
(-33.2609 157.103 0)
(-46.3085 157.992 0)
(-55.8152 152.38 0)
(-63.8781 147.081 0)
(-62.7663 144.301 0)
(-60.1299 141.927 0)
(-53.1669 143.357 0)
(-47.1259 147.811 0)
(-41.3176 154.559 0)
(-36.3976 162.01 0)
(-29.433 166.204 0)
(-21.4691 167.238 0)
(-19.0977 166.016 0)
(-19.6981 162.846 0)
(-20.1235 161.366 0)
(-16.5479 160.066 0)
(-13.5471 162.262 0)
(-7.05625 164.31 0)
(-3.3387 166.565 0)
(-3.77551 169.954 0)
(-6.9432 173.206 0)
(-7.47153 173.792 0)
(-12.1202 176.34 0)
(-13.3424 173.483 0)
(0.607389 167.505 0)
(43.3586 161.309 0)
(102.835 159.388 0)
(155.495 176.471 0)
(256.821 192.051 0)
(6171.01 104.705 0)
(-7865.97 -761.238 0)
(6849.24 10080.5 0)
(-4955.13 1117.68 0)
(109.732 571.059 0)
(-18.4982 547.255 0)
(1.82767 583.974 0)
(28.4028 685.277 0)
(29.7055 772.739 0)
(1.34428 839.926 0)
(-12.8493 899.344 0)
(-39.5408 918.885 0)
(-55.4258 934.743 0)
(-68.9075 927.52 0)
(-74.4027 923.945 0)
(-71.3542 911.509 0)
(-64.3426 900.468 0)
(-50.3708 886.884 0)
(-37.3569 876.046 0)
(-26.6669 857.582 0)
(-23.8051 855.593 0)
(-25.6989 844.376 0)
(-26.7941 845.213 0)
(-29.1575 859.991 0)
(-27.1786 860.861 0)
(-21.7668 883.384 0)
(-12.3362 884.988 0)
(-4.79967 899.177 0)
(1.51191 900.387 0)
(5.55877 897.291 0)
(5.72557 893.665 0)
(0.790904 879.037 0)
(-1.37935 863.376 0)
(-8.53236 823.593 0)
(-15.5402 777.731 0)
(-5.00166 693.462 0)
(38.4614 598.48 0)
(106.969 475.726 0)
(167.475 419.359 0)
(218.513 360.866 0)
(5576.8 856.416 0)
(-7465.22 8798.66 0)
(17673.7 170207 0)
(-14418.7 16848.6 0)
(-412.813 7576.85 0)
(22.0523 8123.93 0)
(152.301 8438.56 0)
(207.016 9135.14 0)
(177.729 9614.84 0)
(119.353 10199.4 0)
(61.3862 10661.2 0)
(0.851104 10996.9 0)
(-37.9874 11323.5 0)
(-66.2205 11574.4 0)
(-79.3069 11817.1 0)
(-85.3898 12031.5 0)
(-83.8593 12245.1 0)
(-76.7014 12417.4 0)
(-75.3625 12577.5 0)
(-61.0265 12705 0)
(-49.1233 12747.9 0)
(-39.4353 12756.4 0)
(-6.42219 12743.8 0)
(-4.01943 12677.4 0)
(2.84445 12649 0)
(3.1266 12364.4 0)
(-1.32967 12152.3 0)
(1.29233 11810.3 0)
(-8.87297 11498.8 0)
(-9.817 11092.2 0)
(-21.3662 10729.8 0)
(-36.1308 10252.6 0)
(-60.8994 9828.99 0)
(-94.6502 9249 0)
(-138.741 8707.59 0)
(-172.126 8016.79 0)
(-166.459 7379.12 0)
(-69.7724 6632.46 0)
(44.8108 6274.29 0)
(677.986 5662.35 0)
(14302 14336.4 0)
(-17170 152868 0)
(187103 -192855 0)
(-161671 -19648.9 0)
(-8297.72 -10120.1 0)
(811.877 -10609.7 0)
(976.268 -10985.5 0)
(1161.91 -11780.8 0)
(1055.25 -12406.1 0)
(1009.65 -13060.3 0)
(755.62 -13577.7 0)
(598.68 -13908.2 0)
(501.123 -14199.8 0)
(406.734 -14388.8 0)
(366.037 -14553.2 0)
(341.074 -14686.3 0)
(307.569 -14818.5 0)
(270.001 -14918.5 0)
(239.737 -15019.1 0)
(137.497 -15089.1 0)
(25.7571 -15098.5 0)
(-29.6233 -15064.8 0)
(-102.949 -15026.8 0)
(-120.489 -14951.3 0)
(-328.804 -14897.6 0)
(-500.479 -14613.1 0)
(-546.244 -14381.5 0)
(-634.478 -14044.8 0)
(-690.437 -13724.4 0)
(-735.462 -13319.1 0)
(-803.351 -12951 0)
(-867.303 -12463.3 0)
(-968.523 -12013.5 0)
(-1089.15 -11395 0)
(-1202.94 -10785 0)
(-1285.17 -10002.7 0)
(-1295.53 -9272.7 0)
(-957.685 -8485.54 0)
(-767.357 -8206.47 0)
(7987.45 -7735.73 0)
(147429 -17198.9 0)
(-168589 -175570 0)
(187103 192855 0)
(-161671 19648.9 0)
(-8297.72 10120.1 0)
(811.877 10609.7 0)
(976.268 10985.5 0)
(1161.91 11780.8 0)
(1055.25 12406.1 0)
(1009.65 13060.3 0)
(755.62 13577.7 0)
(598.68 13908.2 0)
(501.123 14199.8 0)
(406.734 14388.8 0)
(366.037 14553.2 0)
(341.074 14686.3 0)
(307.569 14818.5 0)
(270.001 14918.5 0)
(239.737 15019.1 0)
(137.497 15089.1 0)
(25.7571 15098.5 0)
(-29.6233 15064.8 0)
(-102.949 15026.8 0)
(-120.489 14951.3 0)
(-328.804 14897.6 0)
(-500.479 14613.1 0)
(-546.244 14381.5 0)
(-634.478 14044.8 0)
(-690.437 13724.4 0)
(-735.462 13319.1 0)
(-803.351 12951 0)
(-867.303 12463.3 0)
(-968.523 12013.5 0)
(-1089.15 11395 0)
(-1202.94 10785 0)
(-1285.17 10002.7 0)
(-1295.53 9272.7 0)
(-957.685 8485.54 0)
(-767.357 8206.47 0)
(7987.45 7735.73 0)
(147429 17198.9 0)
(-168589 175570 0)
(17673.7 -170207 0)
(-14418.7 -16848.6 0)
(-412.813 -7576.85 0)
(22.0523 -8123.93 0)
(152.301 -8438.56 0)
(207.016 -9135.14 0)
(177.729 -9614.84 0)
(119.353 -10199.4 0)
(61.3862 -10661.2 0)
(0.851104 -10996.9 0)
(-37.9874 -11323.5 0)
(-66.2205 -11574.4 0)
(-79.3069 -11817.1 0)
(-85.3898 -12031.5 0)
(-83.8593 -12245.1 0)
(-76.7014 -12417.4 0)
(-75.3625 -12577.5 0)
(-61.0265 -12705 0)
(-49.1233 -12747.9 0)
(-39.4353 -12756.4 0)
(-6.42218 -12743.8 0)
(-4.01943 -12677.4 0)
(2.84445 -12649 0)
(3.1266 -12364.4 0)
(-1.32967 -12152.3 0)
(1.29233 -11810.3 0)
(-8.87297 -11498.8 0)
(-9.817 -11092.2 0)
(-21.3662 -10729.8 0)
(-36.1308 -10252.6 0)
(-60.8994 -9828.99 0)
(-94.6502 -9249 0)
(-138.741 -8707.59 0)
(-172.126 -8016.79 0)
(-166.459 -7379.12 0)
(-69.7724 -6632.46 0)
(44.8108 -6274.29 0)
(677.986 -5662.35 0)
(14302 -14336.4 0)
(-17170 -152868 0)
(6849.24 -10080.5 0)
(-4955.13 -1117.68 0)
(109.732 -571.059 0)
(-18.4982 -547.255 0)
(1.82767 -583.974 0)
(28.4028 -685.277 0)
(29.7055 -772.739 0)
(1.34428 -839.926 0)
(-12.8493 -899.344 0)
(-39.5408 -918.885 0)
(-55.4258 -934.743 0)
(-68.9075 -927.52 0)
(-74.4027 -923.945 0)
(-71.3542 -911.509 0)
(-64.3426 -900.468 0)
(-50.3708 -886.884 0)
(-37.3569 -876.046 0)
(-26.6669 -857.582 0)
(-23.8051 -855.593 0)
(-25.6989 -844.376 0)
(-26.7941 -845.213 0)
(-29.1575 -859.991 0)
(-27.1786 -860.861 0)
(-21.7668 -883.384 0)
(-12.3362 -884.988 0)
(-4.79967 -899.177 0)
(1.51191 -900.387 0)
(5.55877 -897.291 0)
(5.72557 -893.665 0)
(0.790904 -879.037 0)
(-1.37935 -863.376 0)
(-8.53236 -823.593 0)
(-15.5402 -777.731 0)
(-5.00166 -693.462 0)
(38.4614 -598.48 0)
(106.969 -475.726 0)
(167.475 -419.359 0)
(218.513 -360.866 0)
(5576.8 -856.416 0)
(-7465.22 -8798.66 0)
(6882.79 313.06 0)
(-5255.05 -223.939 0)
(136.867 -178 0)
(9.60691 -155.951 0)
(19.2986 -137.069 0)
(25.1145 -132.514 0)
(28.7026 -145.395 0)
(-2.64895 -146.596 0)
(-14.7011 -156.695 0)
(-33.2609 -157.103 0)
(-46.3085 -157.992 0)
(-55.8152 -152.38 0)
(-63.8781 -147.081 0)
(-62.7663 -144.301 0)
(-60.1299 -141.927 0)
(-53.1669 -143.357 0)
(-47.1259 -147.811 0)
(-41.3176 -154.559 0)
(-36.3976 -162.01 0)
(-29.433 -166.204 0)
(-21.4691 -167.238 0)
(-19.0977 -166.016 0)
(-19.6981 -162.846 0)
(-20.1235 -161.366 0)
(-16.5479 -160.066 0)
(-13.5471 -162.262 0)
(-7.05625 -164.31 0)
(-3.3387 -166.565 0)
(-3.77551 -169.954 0)
(-6.9432 -173.206 0)
(-7.47153 -173.792 0)
(-12.1202 -176.34 0)
(-13.3424 -173.483 0)
(0.607389 -167.505 0)
(43.3586 -161.309 0)
(102.835 -159.388 0)
(155.495 -176.471 0)
(256.821 -192.051 0)
(6171.01 -104.705 0)
(-7865.97 761.238 0)
(6935.12 663.547 0)
(-5428.34 -96.6483 0)
(175.248 -55.4052 0)
(20.9443 -38.471 0)
(24.4122 -43.5444 0)
(20.3796 -40.1977 0)
(16.136 -61.5175 0)
(-9.54432 -71.4153 0)
(-22.9746 -79.4937 0)
(-40.7908 -87.8925 0)
(-50.8741 -94.2776 0)
(-58.3936 -102.223 0)
(-66.6178 -105.681 0)
(-66.3875 -111.104 0)
(-63.4334 -115.491 0)
(-56.0409 -120.568 0)
(-48.1512 -124.846 0)
(-40.3496 -127.798 0)
(-35.0268 -129.515 0)
(-30.7369 -130.699 0)
(-26.6129 -133.071 0)
(-24.9256 -135.972 0)
(-22.6979 -137.161 0)
(-19.0871 -136.157 0)
(-13.1993 -132.628 0)
(-8.88949 -129.338 0)
(-2.63459 -124.723 0)
(0.119561 -122.06 0)
(-0.673733 -119.239 0)
(-2.90694 -116.815 0)
(-4.39934 -111.75 0)
(-8.23551 -110.981 0)
(-7.02714 -104.192 0)
(6.73013 -99.7631 0)
(46.2835 -93.8232 0)
(92.3582 -95.3594 0)
(136 -112.561 0)
(287.67 -117.356 0)
(6495.42 25.8081 0)
(-8097.87 902.43 0)
(7429.07 957.236 0)
(-5947.86 -5.40284 0)
(192.929 23.1112 0)
(21.0365 34.6351 0)
(17.6347 28.0284 0)
(7.79499 18.9317 0)
(-1.37992 -5.59411 0)
(-19.9715 -17.8009 0)
(-30.5791 -34.263 0)
(-47.5072 -47.6951 0)
(-60.118 -58.1206 0)
(-66.804 -69.7507 0)
(-72.4358 -76.3872 0)
(-72.2198 -82.5944 0)
(-69.2501 -87.0587 0)
(-62.1818 -91.8099 0)
(-54.0925 -96.3488 0)
(-45.8159 -100.738 0)
(-39.1939 -104.702 0)
(-32.8603 -107.536 0)
(-26.5502 -109.266 0)
(-23.0391 -109.745 0)
(-19.8762 -108.981 0)
(-15.7552 -107.652 0)
(-9.97642 -105.594 0)
(-5.92917 -104.258 0)
(-0.0431642 -102.226 0)
(1.946 -101.11 0)
(1.27829 -99.6948 0)
(0.273089 -97.1179 0)
(-1.84954 -92.6879 0)
(-4.83713 -89.88 0)
(-2.53215 -82.1417 0)
(10.5993 -75.6158 0)
(47.6022 -64.9463 0)
(84.7788 -61.7117 0)
(134.298 -67.5341 0)
(390.158 -55.659 0)
(7153.71 143.573 0)
(-8760.46 1215.55 0)
(7852.34 829.564 0)
(-6328.49 50.3982 0)
(213.83 88.6232 0)
(25.6828 102.461 0)
(9.27982 108.277 0)
(-12.0203 83.5102 0)
(-19.2609 53.8513 0)
(-37.1708 35.9874 0)
(-51.7817 11.6604 0)
(-63.7808 -8.07399 0)
(-72.1277 -24.1448 0)
(-75.9959 -39.4197 0)
(-78.9944 -48.9959 0)
(-76.6709 -57.1396 0)
(-72.3138 -62.561 0)
(-64.9932 -67.3806 0)
(-56.7549 -71.8363 0)
(-48.3988 -76.0374 0)