/*--------------------------------*- C++ -*----------------------------------*\
| =========                 |                                                 |
| \\      /  F ield         | OpenFOAM: The Open Source CFD Toolbox           |
|  \\    /   O peration     | Version:  v1912                                 |
|   \\  /    A nd           | Website:  www.openfoam.com                      |
|    \\/     M anipulation  |                                                 |
\*---------------------------------------------------------------------------*/
FoamFile
{
    version     2.0;
    format      ascii;
    class       volVectorField;
    location    "4.78";
    object      U;
}
// * * * * * * * * * * * * * * * * * * * * * * * * * * * * * * * * * * * * * //

dimensions      [0 1 -1 0 0 0 0];


internalField   nonuniform List<vector> 
1900
(
(-0.86434 1.17618e-06 0)
(-0.0875787 9.61166e-07 0)
(-0.00616711 -9.34056e-06 0)
(-0.00209607 -1.84731e-05 0)
(0.00774179 -3.72416e-05 0)
(0.0199864 -8.95206e-05 0)
(0.0341364 -0.000102011 0)
(0.047236 0.000200119 0)
(0.0582604 0.00173216 0)
(0.0587749 0.00758153 0)
(-0.864339 2.8809e-06 0)
(-0.0875815 1.5107e-06 0)
(-0.00617276 -1.61726e-05 0)
(-0.00212869 -2.85166e-05 0)
(0.00766615 -5.74644e-05 0)
(0.0197645 -0.00011929 0)
(0.0336484 -0.000118472 0)
(0.047082 4.99119e-05 0)
(0.0598437 0.0023035 0)
(0.0705423 0.00828336 0)
(-0.864338 -7.27842e-14 0)
(-0.0875841 -6.33138e-14 0)
(-0.00618135 -1.20043e-13 0)
(-0.00215033 1.28294e-13 0)
(0.00762375 -1.76264e-14 0)
(0.0196754 -2.1268e-14 0)
(0.0335554 3.47651e-15 0)
(0.0472587 1.57844e-14 0)
(0.0608869 7.63134e-16 0)
(0.0752262 7.11259e-15 0)
(-0.864339 -2.8809e-06 0)
(-0.0875815 -1.5107e-06 0)
(-0.00617276 1.61726e-05 0)
(-0.00212869 2.85166e-05 0)
(0.00766615 5.74644e-05 0)
(0.0197645 0.00011929 0)
(0.0336484 0.000118472 0)
(0.047082 -4.99119e-05 0)
(0.0598437 -0.0023035 0)
(0.0705423 -0.00828336 0)
(-0.86434 -1.17618e-06 0)
(-0.0875787 -9.61167e-07 0)
(-0.00616711 9.34056e-06 0)
(-0.00209607 1.84731e-05 0)
(0.00774179 3.72416e-05 0)
(0.0199864 8.95206e-05 0)
(0.0341364 0.000102011 0)
(0.047236 -0.000200119 0)
(0.0582604 -0.00173216 0)
(0.0587749 -0.00758153 0)
(0.0656595 0.0230058 0)
(0.0947593 0.031637 0)
(0.134198 0.0485818 0)
(0.185866 0.0852713 0)
(0.297452 0.120116 0)
(0.0846584 0.0191444 0)
(0.105305 0.0195437 0)
(0.128008 0.0272814 0)
(0.174028 0.0445913 0)
(0.276899 0.0742026 0)
(0.0923331 2.19466e-14 0)
(0.112445 3.06999e-15 0)
(0.138097 4.39652e-14 0)
(0.186375 1.46477e-14 0)
(0.289936 1.80295e-14 0)
(0.0846584 -0.0191444 0)
(0.105305 -0.0195437 0)
(0.128008 -0.0272814 0)
(0.174028 -0.0445913 0)
(0.276899 -0.0742026 0)
(0.0656595 -0.0230058 0)
(0.0947593 -0.031637 0)
(0.134198 -0.0485818 0)
(0.185866 -0.0852713 0)
(0.297452 -0.120116 0)
(0.502608 0.0053555 0)
(0.492637 -0.032025 0)
(0.496096 -0.0393458 0)
(0.514612 -0.0418716 0)
(0.545875 -0.0345793 0)
(0.496259 -0.0110699 0)
(0.51208 -0.0245 0)
(0.51325 -0.0249672 0)
(0.528196 -0.0239295 0)
(0.562565 -0.0203256 0)
(0.501011 8.73521e-15 0)
(0.516204 7.31774e-15 0)
(0.510541 -5.60166e-15 0)
(0.522453 1.41242e-14 0)
(0.559103 1.90101e-13 0)
(0.496259 0.0110699 0)
(0.51208 0.0245 0)
(0.51325 0.0249672 0)
(0.528196 0.0239295 0)
(0.562565 0.0203256 0)
(0.502608 -0.0053555 0)
(0.492637 0.032025 0)
(0.496096 0.0393458 0)
(0.514612 0.0418716 0)
(0.545875 0.0345793 0)
(0.519133 -0.0991018 0)
(0.581825 -0.144408 0)
(0.357516 -0.179955 0)
(0.114713 -0.182832 0)
(-0.0519651 -0.117524 0)
(-0.133877 -0.0579862 0)
(-0.17472 -0.037753 0)
(-0.193284 -0.0311804 0)
(-0.207384 -0.0275509 0)
(-0.219356 -0.0249257 0)
(-0.225076 -0.0222928 0)
(-0.218673 -0.0215958 0)
(-0.200771 -0.021492 0)
(-0.176905 -0.0213485 0)
(-0.150495 -0.0212082 0)
(-0.122716 -0.0210801 0)
(-0.0937902 -0.0209777 0)
(-0.063791 -0.0208963 0)
(-0.0328237 -0.0208379 0)
(-0.00116117 -0.02087 0)
(0.031032 -0.0208293 0)
(0.0637696 -0.0207319 0)
(0.0968803 -0.0207162 0)
(0.13016 -0.0207156 0)
(0.163504 -0.0207202 0)
(0.196836 -0.0207307 0)
(0.230118 -0.0207514 0)
(0.263364 -0.0207532 0)
(0.29638 -0.0208241 0)
(0.32902 -0.0207397 0)
(0.361071 -0.0209436 0)
(0.391634 -0.0207021 0)
(0.421077 -0.0210678 0)
(0.448136 -0.0207441 0)
(0.474153 -0.021449 0)
(0.497232 -0.0205191 0)
(0.519553 -0.0226349 0)
(0.532008 -0.0200165 0)
(0.51292 -0.0248895 0)
(1.02229 -0.0262151 0)
(0.649839 -0.0401127 0)
(0.788106 -0.0852562 0)
(0.540372 -0.108528 0)
(0.224414 -0.110986 0)
(-0.0109699 -0.0681478 0)
(-0.127886 -0.0301234 0)
(-0.174618 -0.0186744 0)
(-0.193564 -0.0154457 0)
(-0.207633 -0.0135943 0)
(-0.219815 -0.0124862 0)
(-0.225851 -0.0110936 0)
(-0.219428 -0.0107824 0)
(-0.201413 -0.0107358 0)
(-0.177449 -0.0106667 0)
(-0.15095 -0.010597 0)
(-0.123086 -0.0105331 0)
(-0.0940771 -0.010482 0)
(-0.0639956 -0.0104404 0)
(-0.0329462 -0.0104127 0)
(-0.00120187 -0.0104295 0)
(0.0310722 -0.0104094 0)
(0.063889 -0.0103607 0)
(0.0970765 -0.0103529 0)
(0.130431 -0.0103527 0)
(0.163847 -0.0103551 0)
(0.197247 -0.0103607 0)
(0.230595 -0.0103714 0)
(0.263902 -0.0103725 0)
(0.296974 -0.0104079 0)
(0.329663 -0.0103653 0)
(0.361751 -0.0104659 0)
(0.392342 -0.0103405 0)
(0.421806 -0.0105156 0)
(0.448872 -0.0103424 0)
(0.474886 -0.0106827 0)
(0.497875 -0.0102042 0)
(0.520183 -0.0112206 0)
(0.532414 -0.00988581 0)
(0.513738 -0.0126143 0)
(1.02245 -0.0121898 0)
(0.65959 2.08262e-13 0)
(0.827925 -1.3984e-13 0)
(0.603303 -1.33733e-12 0)
(0.280606 -1.76198e-12 0)
(0.0120012 -2.21897e-12 0)
(-0.127012 -2.5416e-12 0)
(-0.176509 3.98312e-13 0)
(-0.1949 2.33971e-12 0)
(-0.208417 2.24658e-12 0)
(-0.220282 2.05158e-12 0)
(-0.226206 8.94331e-13 0)
(-0.219812 -2.06993e-13 0)
(-0.201733 3.9956e-13 0)
(-0.177695 2.47733e-12 0)
(-0.151137 6.21893e-12 0)
(-0.123227 1.00182e-11 0)
(-0.0941804 9.67085e-12 0)
(-0.0640656 6.56429e-13 0)
(-0.0329851 -1.41944e-11 0)
(-0.00121136 -1.38428e-11 0)
(0.0310913 -1.86528e-12 0)
(0.0639365 1.20266e-11 0)
(0.0971532 4.04935e-12 0)
(0.130539 -1.68278e-11 0)
(0.163989 -2.73601e-11 0)
(0.197428 -2.15e-11 0)
(0.230821 -1.10198e-11 0)
(0.264181 5.01483e-12 0)
(0.297318 6.04122e-12 0)
(0.330087 9.60459e-12 0)
(0.362276 1.05019e-11 0)
(0.393003 -4.21014e-12 0)
(0.422659 1.11545e-11 0)
(0.44998 9.8583e-12 0)
(0.476357 -7.81165e-12 0)
(0.499744 1.63837e-12 0)
(0.522657 1.15009e-11 0)
(0.535257 5.43278e-13 0)
(0.516457 -7.76521e-12 0)
(1.02675 -1.45092e-11 0)
(0.649839 0.0401127 0)
(0.788106 0.0852562 0)
(0.540372 0.108528 0)
(0.224414 0.110986 0)
(-0.0109699 0.0681478 0)
(-0.127886 0.0301234 0)
(-0.174618 0.0186744 0)
(-0.193564 0.0154457 0)
(-0.207633 0.0135943 0)
(-0.219815 0.0124862 0)
(-0.225851 0.0110936 0)
(-0.219428 0.0107824 0)
(-0.201413 0.0107358 0)
(-0.177449 0.0106667 0)
(-0.15095 0.010597 0)
(-0.123086 0.0105331 0)
(-0.0940771 0.010482 0)
(-0.0639956 0.0104404 0)
(-0.0329462 0.0104127 0)
(-0.00120187 0.0104295 0)
(0.0310722 0.0104094 0)
(0.063889 0.0103607 0)
(0.0970765 0.0103529 0)
(0.130431 0.0103527 0)
(0.163847 0.0103551 0)
(0.197247 0.0103607 0)
(0.230595 0.0103714 0)
(0.263902 0.0103725 0)
(0.296974 0.0104079 0)
(0.329663 0.0103653 0)
(0.361751 0.0104659 0)
(0.392342 0.0103405 0)
(0.421806 0.0105156 0)
(0.448872 0.0103424 0)
(0.474886 0.0106827 0)
(0.497875 0.0102042 0)
(0.520183 0.0112206 0)
(0.532414 0.00988581 0)
(0.513738 0.0126143 0)
(1.02245 0.0121898 0)
(0.519133 0.0991018 0)
(0.581825 0.144408 0)
(0.357516 0.179955 0)
(0.114713 0.182832 0)
(-0.0519651 0.117524 0)
(-0.133877 0.0579862 0)
(-0.17472 0.037753 0)
(-0.193284 0.0311804 0)
(-0.207384 0.0275509 0)
(-0.219356 0.0249257 0)
(-0.225076 0.0222928 0)
(-0.218673 0.0215958 0)
(-0.200771 0.021492 0)
(-0.176905 0.0213485 0)
(-0.150495 0.0212082 0)
(-0.122716 0.0210801 0)
(-0.0937902 0.0209777 0)
(-0.063791 0.0208963 0)
(-0.0328237 0.0208379 0)
(-0.00116117 0.02087 0)
(0.031032 0.0208293 0)
(0.0637696 0.0207319 0)
(0.0968803 0.0207162 0)
(0.13016 0.0207156 0)
(0.163504 0.0207202 0)
(0.196836 0.0207307 0)
(0.230118 0.0207514 0)
(0.263364 0.0207532 0)
(0.29638 0.0208241 0)
(0.32902 0.0207397 0)
(0.361071 0.0209436 0)
(0.391634 0.0207021 0)
(0.421077 0.0210678 0)
(0.448136 0.0207441 0)
(0.474153 0.021449 0)
(0.497232 0.0205191 0)
(0.519553 0.0226349 0)
(0.532008 0.0200165 0)
(0.51292 0.0248895 0)
(1.02229 0.0262151 0)
(-0.240714 0.216059 0)
(0.0750103 0.258975 0)
(0.0193653 0.294093 0)
(-0.0551563 0.280339 0)
(-0.118307 0.190191 0)
(-0.150687 0.109015 0)
(-0.184395 0.0778438 0)
(-0.199463 0.0646597 0)
(-0.212065 0.0567441 0)
(-0.222812 0.0509162 0)
(-0.227053 0.0467794 0)
(-0.219732 0.0451438 0)
(-0.201557 0.0447255 0)
(-0.177596 0.0443748 0)
(-0.151098 0.044069 0)
(-0.123212 0.0437965 0)
(-0.0941736 0.0435771 0)
(-0.0640656 0.0434006 0)
(-0.0329976 0.0432779 0)
(-0.00124094 0.0433456 0)
(0.0310413 0.0432629 0)
(0.0638656 0.0430619 0)
(0.0970624 0.0430304 0)
(0.130428 0.0430308 0)
(0.163856 0.0430412 0)
(0.197269 0.0430634 0)
(0.230628 0.0431073 0)
(0.26395 0.04311 0)
(0.29704 0.04326 0)
(0.329748 0.043084 0)
(0.361883 0.0435028 0)
(0.392543 0.0430071 0)
(0.422108 0.0437336 0)
(0.449355 0.043114 0)
(0.475546 0.0444807 0)
(0.498916 0.0426383 0)
(0.521428 0.0467083 0)
(0.535168 0.0414713 0)
(0.515046 0.0531628 0)
(1.02697 0.0525531 0)
(-0.817907 0.12636 0)
(-0.372517 0.313602 0)
(-0.301986 0.380936 0)
(-0.225724 0.348088 0)
(-0.210581 0.250847 0)
(-0.196676 0.172619 0)
(-0.208713 0.134177 0)
(-0.21159 0.113831 0)
(-0.220726 0.0998633 0)
(-0.229392 0.0899347 0)
(-0.230626 0.0840544 0)
(-0.221188 0.0812275 0)
(-0.202292 0.0802804 0)
(-0.178206 0.0795849 0)
(-0.151651 0.0790226 0)
(-0.123672 0.078545 0)
(-0.094527 0.0781627 0)
(-0.0643262 0.077852 0)
(-0.0331861 0.0776381 0)
(-0.00137172 0.0777645 0)
(0.0309582 0.0776174 0)
(0.0638261 0.077257 0)
(0.0970679 0.0772017 0)
(0.130478 0.0772045 0)
(0.163949 0.0772251 0)
(0.197404 0.0772666 0)
(0.230795 0.0773492 0)
(0.264145 0.0773513 0)
(0.297257 0.077629 0)
(0.329973 0.0773075 0)
(0.362134 0.0780531 0)
(0.392839 0.077201 0)
(0.42246 0.0784355 0)
(0.449873 0.0773894 0)
(0.476092 0.0796668 0)
(0.499734 0.0766939 0)
(0.522002 0.0832521 0)
(0.538177 0.0748149 0)
(0.514831 0.0973661 0)
(1.01767 0.0949646 0)
(-0.922407 0.127108 0)
(-0.534227 0.320462 0)
(-0.440178 0.390538 0)
(-0.322914 0.347823 0)
(-0.27246 0.266681 0)
(-0.244907 0.214944 0)
(-0.233351 0.182063 0)
(-0.229182 0.158205 0)
(-0.232289 0.140934 0)
(-0.237433 0.128235 0)
(-0.23504 0.121042 0)
(-0.223047 0.117289 0)
(-0.203152 0.115741 0)
(-0.178828 0.114648 0)
(-0.152193 0.113804 0)
(-0.124121 0.113122 0)
(-0.0948733 0.11258 0)
(-0.0645874 0.112137 0)
(-0.0333872 0.11183 0)
(-0.00153041 0.112014 0)
(0.0308295 0.111802 0)
(0.0637234 0.111281 0)
(0.0969944 0.111202 0)
(0.130433 0.111211 0)
(0.163931 0.111246 0)
(0.197408 0.111311 0)
(0.230806 0.111439 0)
(0.264155 0.111436 0)
(0.297257 0.111857 0)
(0.32994 0.111384 0)
(0.362099 0.112449 0)
(0.392828 0.111298 0)
(0.42249 0.112957 0)
(0.45008 0.111612 0)
(0.476302 0.114587 0)
(0.500232 0.110941 0)
(0.522319 0.11904 0)
(0.540917 0.108853 0)
(0.516808 0.138185 0)
(1.02565 0.14017 0)
(-0.935255 0.17568 0)
(-0.576798 0.325523 0)
(-0.482603 0.380324 0)
(-0.378556 0.337565 0)
(-0.311706 0.290756 0)
(-0.284469 0.248578 0)
(-0.257081 0.223502 0)
(-0.249861 0.197421 0)
(-0.24589 0.179376 0)
(-0.247375 0.165089 0)
(-0.240329 0.157458 0)
(-0.225656 0.153018 0)
(-0.204545 0.150962 0)
(-0.179816 0.149485 0)
(-0.152995 0.148359 0)
(-0.124764 0.147479 0)
(-0.0953691 0.146784 0)
(-0.0649639 0.146212 0)
(-0.0336762 0.145817 0)
(-0.00175256 0.14606 0)
(0.0306595 0.145783 0)
(0.063601 0.145102 0)
(0.0969244 0.145001 0)
(0.130415 0.145018 0)
(0.163962 0.145071 0)
(0.197483 0.145161 0)
(0.230905 0.145343 0)
(0.264269 0.145325 0)
(0.297377 0.145905 0)
(0.330038 0.14527 0)
(0.362213 0.14664 0)
(0.393001 0.14526 0)
(0.422734 0.147238 0)
(0.450569 0.145703 0)
(0.476838 0.149173 0)
(0.501148 0.145196 0)
(0.523003 0.154162 0)
(0.543589 0.143129 0)
(0.515629 0.177108 0)
(1.01481 0.175947 0)
(-0.949526 0.208134 0)
(-0.58606 0.335012 0)
(-0.496873 0.378208 0)
(-0.412216 0.333792 0)
(-0.343765 0.314734 0)
(-0.315146 0.278175 0)
(-0.281968 0.25849 0)
(-0.270271 0.232663 0)
(-0.2617 0.214657 0)
(-0.257444 0.200711 0)
(-0.246174 0.19292 0)
(-0.228745 0.188275 0)
(-0.206391 0.185806 0)
(-0.181133 0.184011 0)
(-0.154028 0.182633 0)
(-0.125574 0.181575 0)
(-0.0959936 0.180738 0)
(-0.065444 0.180042 0)
(-0.0340481 0.17956 0)
(-0.00203827 0.179866 0)
(0.0304439 0.179525 0)
(0.0634506 0.178681 0)
(0.0968455 0.178556 0)
(0.130406 0.178585 0)
(0.16402 0.178656 0)
(0.197599 0.178769 0)
(0.231059 0.179009 0)
(0.264444 0.178955 0)
(0.297571 0.179708 0)
(0.330219 0.178889 0)
(0.36243 0.180536 0)
(0.393322 0.178995 0)
(0.423185 0.181191 0)
(0.451316 0.179516 0)
(0.477733 0.183224 0)
(0.502526 0.17908 0)
(0.52432 0.188439 0)
(0.546925 0.177068 0)
(0.516061 0.216608 0)
(1.01554 0.219989 0)
(-0.945905 0.24861 0)
(-0.584862 0.347184 0)
(-0.501358 0.385629 0)
(-0.430913 0.34623 0)
(-0.367355 0.341658 0)
(-0.336636 0.307756 0)
(-0.303583 0.289773 0)
(-0.287793 0.265695 0)
(-0.276402 0.24812 0)
(-0.266637 0.235296 0)
(-0.251638 0.227754 0)
(-0.231888 0.223015 0)
(-0.208412 0.220253 0)
(-0.182616 0.218207 0)
(-0.155189 0.216621 0)
(-0.126487 0.215409 0)
(-0.0967091 0.214441 0)
(-0.0660059 0.213624 0)
(-0.0344905 0.213058 0)
(-0.00238098 0.21343 0)
(0.030185 0.213026 0)
(0.0632698 0.212015 0)
(0.0967491 0.211865 0)
(0.130389 0.211904 0)
(0.164071 0.211992 0)
(0.197703 0.212121 0)
(0.23119 0.212421 0)
(0.264563 0.212305 0)
(0.297664 0.213245 0)
(0.330236 0.212227 0)
(0.362393 0.214123 0)
(0.39328 0.212489 0)
(0.423104 0.214804 0)
(0.451268 0.213164 0)
(0.477489 0.217019 0)
(0.502308 0.212995 0)
(0.523506 0.222331 0)
(0.546604 0.211408 0)
(0.512386 0.254631 0)
(1.00333 0.254867 0)
(-0.957407 0.293917 0)
(-0.587176 0.363088 0)
(-0.507664 0.397263 0)
(-0.448383 0.363454 0)
(-0.390641 0.365605 0)
(-0.358103 0.333598 0)
(-0.326137 0.316558 0)
(-0.306925 0.295601 0)
(-0.291637 0.279858 0)
(-0.276654 0.268565 0)
(-0.25793 0.261666 0)
(-0.235873 0.25704 0)
(-0.211147 0.254147 0)
(-0.184629 0.251967 0)
(-0.156729 0.250252 0)
(-0.127679 0.24893 0)
(-0.0976381 0.247854 0)
(-0.0667331 0.246934 0)
(-0.0350555 0.246299 0)
(-0.00280707 0.246751 0)
(0.0298781 0.246286 0)
(0.0630759 0.245104 0)
(0.096678 0.24492 0)
(0.13044 0.244964 0)
(0.164238 0.245054 0)
(0.197985 0.245178 0)
(0.231577 0.245531 0)
(0.265039 0.245305 0)
(0.298258 0.246437 0)
(0.330952 0.245186 0)
(0.363316 0.247284 0)
(0.394538 0.24562 0)
(0.424768 0.247991 0)
(0.453532 0.246461 0)
(0.480285 0.250315 0)
(0.50591 0.246449 0)
(0.527395 0.255563 0)
(0.552157 0.245297 0)
(0.51419 0.29401 0)
(1.00271 0.29941 0)
(-0.946612 0.344166 0)
(-0.585535 0.382989 0)
(-0.509661 0.413993 0)
(-0.457939 0.386314 0)
(-0.405437 0.39124 0)
(-0.372683 0.360024 0)
(-0.342026 0.343841 0)
(-0.320479 0.325463 0)
(-0.301726 0.311567 0)
(-0.283004 0.301506 0)
(-0.261726 0.295143 0)
(-0.238218 0.290639 0)
(-0.212764 0.287675 0)
(-0.185854 0.285415 0)
(-0.157714 0.283609 0)
(-0.128494 0.282185 0)
(-0.0983238 0.281006 0)
(-0.0673139 0.279986 0)
(-0.0355445 0.279302 0)
(-0.00321571 0.279845 0)
(0.0295354 0.279322 0)
(0.0627912 0.277961 0)
(0.0964526 0.277735 0)
(0.130253 0.277777 0)
(0.164049 0.27786 0)
(0.197758 0.277955 0)
(0.231295 0.278358 0)
(0.26458 0.277981 0)
(0.297604 0.279308 0)
(0.330057 0.277802 0)
(0.36218 0.280046 0)
(0.393237 0.278375 0)
(0.423301 0.2807 0)
(0.451973 0.279283 0)
(0.478387 0.283101 0)
(0.503701 0.279658 0)
(0.524495 0.28835 0)
(0.549268 0.279124 0)
(0.509488 0.331262 0)
(0.991348 0.334443 0)
(-0.956954 0.385048 0)
(-0.590933 0.404494 0)
(-0.517995 0.432049 0)
(-0.471807 0.407841 0)
(-0.423289 0.413337 0)
(-0.391079 0.383297 0)
(-0.360656 0.369271 0)
(-0.33689 0.353705 0)
(-0.314585 0.342266 0)
(-0.292425 0.333553 0)
(-0.268561 0.327836 0)
(-0.243315 0.323548 0)
(-0.216702 0.320584 0)
(-0.188959 0.318258 0)
(-0.16018 0.316359 0)
(-0.130446 0.314928 0)
(-0.0998619 0.31374 0)
(-0.0685102 0.312679 0)
(-0.0364474 0.311963 0)
(-0.00385484 0.312609 0)
(0.029142 0.312026 0)
(0.0626407 0.310479 0)
(0.0965619 0.310204 0)
(0.130622 0.310242 0)
(0.164671 0.310312 0)
(0.198643 0.31037 0)
(0.232454 0.310845 0)
(0.26597 0.31029 0)
(0.299269 0.311866 0)
(0.331998 0.31014 0)
(0.364462 0.312524 0)
(0.395978 0.310915 0)
(0.42654 0.31319 0)
(0.45579 0.311947 0)
(0.482694 0.315597 0)
(0.508411 0.312636 0)
(0.529193 0.320903 0)
(0.55466 0.312633 0)
(0.511307 0.369144 0)
(0.987796 0.378616 0)
(-0.946796 0.420868 0)
(-0.590921 0.425877 0)
(-0.520558 0.452023 0)
(-0.478998 0.430976 0)
(-0.434508 0.436516 0)
(-0.4031 0.408375 0)
(-0.372462 0.396612 0)
(-0.346642 0.382929 0)
(-0.321359 0.373333 0)
(-0.296619 0.365458 0)
(-0.270939 0.360145 0)
(-0.244573 0.355978 0)
(-0.217309 0.353012 0)
(-0.189196 0.350643 0)
(-0.160233 0.348716 0)
(-0.130467 0.347191 0)
(-0.0999274 0.345907 0)
(-0.0686537 0.344759 0)
(-0.0366775 0.344028 0)
(-0.0041826 0.344809 0)
(0.0287011 0.344182 0)
(0.0620766 0.342446 0)
(0.0958776 0.342113 0)
(0.129796 0.342137 0)
(0.163669 0.342182 0)
(0.197464 0.342179 0)
(0.23111 0.342741 0)
(0.264379 0.341965 0)
(0.297487 0.343816 0)
(0.330055 0.34191 0)
(0.362416 0.344428 0)
(0.393982 0.342948 0)
(0.424658 0.345261 0)
(0.454071 0.344341 0)
(0.481097 0.347828 0)
(0.506732 0.345526 0)
(0.52715 0.353237 0)
(0.552203 0.346158 0)
(0.507942 0.405243 0)
(0.976828 0.415117 0)
(-0.941551 0.458935 0)
(-0.594187 0.44829 0)
(-0.52726 0.47236 0)
(-0.489882 0.452964 0)
(-0.448334 0.457843 0)
(-0.417219 0.432683 0)
(-0.386026 0.423534 0)
(-0.358531 0.411329 0)
(-0.330929 0.40358 0)
(-0.304273 0.396468 0)
(-0.277199 0.39159 0)
(-0.249884 0.387495 0)
(-0.221875 0.384481 0)
(-0.193109 0.382261 0)
(-0.163609 0.380382 0)
(-0.133351 0.378795 0)
(-0.102324 0.377427 0)
(-0.0705586 0.376181 0)
(-0.0380813 0.375413 0)
(-0.00509028 0.376319 0)
(0.0282822 0.37564 0)
(0.0621422 0.373708 0)
(0.0964243 0.373329 0)
(0.130783 0.373375 0)
(0.165031 0.373437 0)
(0.199165 0.373403 0)
(0.233073 0.374132 0)
(0.266498 0.373127 0)
(0.299746 0.375316 0)
(0.332418 0.373282 0)
(0.364888 0.375948 0)
(0.396672 0.374622 0)
(0.427679 0.376986 0)
(0.457503 0.37636 0)
(0.484822 0.379853 0)
(0.510512 0.378497 0)
(0.530999 0.385856 0)
(0.556704 0.379707 0)
(0.510769 0.441341 0)
(0.969221 0.458136 0)
(-0.932037 0.493946 0)
(-0.595109 0.471828 0)
(-0.531074 0.494063 0)
(-0.497185 0.475848 0)
(-0.457964 0.479723 0)
(-0.426543 0.458486 0)
(-0.394737 0.451637 0)
(-0.365846 0.440238 0)
(-0.336451 0.43382 0)
(-0.308204 0.427048 0)
(-0.279814 0.422396 0)
(-0.251409 0.418238 0)
(-0.222505 0.415423 0)
(-0.193312 0.412851 0)
(-0.163538 0.410703 0)
(-0.13313 0.40892 0)
(-0.10208 0.407368 0)
(-0.0704036 0.40595 0)
(-0.0381069 0.405105 0)
(-0.00538012 0.406126 0)
(0.0276784 0.40539 0)
(0.0612257 0.403271 0)
(0.0952543 0.40288 0)
(0.129418 0.403013 0)
(0.163536 0.403172 0)
(0.197628 0.403186 0)
(0.231485 0.404222 0)
(0.264957 0.403038 0)
(0.298309 0.405707 0)
(0.331113 0.403682 0)
(0.363767 0.406584 0)
(0.395848 0.405498 0)
(0.427195 0.408062 0)
(0.457273 0.407859 0)
(0.484783 0.411416 0)
(0.510183 0.410998 0)
(0.53028 0.417971 0)
(0.554992 0.412827 0)
(0.511108 0.47483 0)
(0.957687 0.496011 0)
(-0.921697 0.53089 0)
(-0.596211 0.49651 0)
(-0.535171 0.516793 0)
(-0.504909 0.499296 0)
(-0.468149 0.501546 0)
(-0.436747 0.484381 0)
(-0.404374 0.479309 0)
(-0.374294 0.468453 0)
(-0.343814 0.462933 0)
(-0.314486 0.456188 0)
(-0.285174 0.451768 0)
(-0.256085 0.447738 0)
(-0.226854 0.44466 0)
(-0.197241 0.441971 0)
(-0.167089 0.43969 0)
(-0.136314 0.437756 0)
(-0.104824 0.436073 0)
(-0.0726193 0.434532 0)
(-0.0397007 0.433663 0)
(-0.00631409 0.434852 0)
(0.0274084 0.434077 0)
(0.0615897 0.431762 0)
(0.0961951 0.431344 0)
(0.130824 0.431547 0)
(0.165272 0.431785 0)
(0.199595 0.431798 0)
(0.233511 0.433183 0)
(0.267035 0.431738 0)
(0.300372 0.434947 0)
(0.333168 0.432979 0)
(0.365787 0.436204 0)
(0.397996 0.435409 0)
(0.429611 0.438387 0)
(0.459996 0.438788 0)
(0.488131 0.442354 0)
(0.513611 0.443025 0)
(0.533972 0.449863 0)
(0.558807 0.445741 0)
(0.518813 0.506091 0)
(0.945908 0.537469 0)
(-0.910383 0.564265 0)
(-0.598311 0.521835 0)
(-0.539843 0.540789 0)
(-0.511513 0.523853 0)
(-0.476325 0.524589 0)
(-0.444695 0.510588 0)
(-0.411617 0.506338 0)
(-0.380476 0.495744 0)
(-0.348837 0.49085 0)
(-0.318122 0.484325 0)
(-0.287598 0.480464 0)
(-0.257855 0.475871 0)
(-0.22784 0.472693 0)
(-0.197755 0.469693 0)
(-0.167277 0.467138 0)
(-0.13634 0.464884 0)
(-0.104821 0.462879 0)
(-0.0727185 0.461023 0)
(-0.0400127 0.459985 0)
(-0.00694213 0.461266 0)
(0.0264171 0.460429 0)
(0.0602719 0.457959 0)
(0.094667 0.457632 0)
(0.129187 0.458071 0)
(0.163613 0.458554 0)
(0.198003 0.458704 0)
(0.231911 0.460611 0)
(0.265687 0.458916 0)
(0.299246 0.462782 0)
(0.332433 0.460917 0)
(0.365455 0.464534 0)
(0.398217 0.463962 0)
(0.43063 0.467295 0)
(0.461845 0.468054 0)
(0.490669 0.471785 0)
(0.515952 0.473371 0)
(0.536086 0.480367 0)
(0.560185 0.476906 0)
(0.528216 0.532386 0)
(0.931972 0.573763 0)
(-0.898068 0.603893 0)
(-0.600678 0.545977 0)
(-0.545079 0.561995 0)
(-0.519026 0.545877 0)
(-0.4848 0.545898 0)
(-0.45325 0.533894 0)
(-0.418658 0.531084 0)
(-0.386722 0.521376 0)
(-0.354696 0.516971 0)
(-0.32393 0.509794 0)
(-0.293381 0.506089 0)
(-0.263264 0.501333 0)
(-0.233027 0.498308 0)
(-0.202862 0.495124 0)
(-0.172177 0.49252 0)
(-0.140883 0.490174 0)
(-0.108774 0.488085 0)
(-0.0758316 0.486141 0)
(-0.0420455 0.485139 0)
(-0.00778109 0.486663 0)
(0.0267762 0.4858 0)
(0.0616948 0.483099 0)
(0.0969606 0.482713 0)
(0.132104 0.483209 0)
(0.166898 0.483751 0)
(0.20148 0.483784 0)
(0.235364 0.48611 0)
(0.268975 0.483988 0)
(0.30228 0.488356 0)
(0.335251 0.486428 0)
(0.368189 0.490211 0)
(0.400805 0.489802 0)
(0.433173 0.493569 0)
(0.464331 0.49479 0)
(0.493231 0.499108 0)
(0.518217 0.501443 0)
(0.538275 0.508754 0)
(0.561808 0.505549 0)
(0.54051 0.553914 0)
(0.915456 0.613008 0)
(-0.886312 0.631264 0)
(-0.599947 0.567905 0)
(-0.546168 0.582809 0)
(-0.52194 0.56808 0)
(-0.488964 0.567166 0)
(-0.458086 0.556598 0)
(-0.423973 0.55315 0)
(-0.391342 0.544804 0)
(-0.359101 0.54023 0)
(-0.326839 0.533373 0)
(-0.294608 0.530835 0)
(-0.263471 0.525742 0)
(-0.232264 0.522921 0)
(-0.20151 0.519353 0)
(-0.170345 0.516428 0)
(-0.138826 0.513657 0)
(-0.106803 0.5111 0)
(-0.0743394 0.508675 0)
(-0.0414348 0.507373 0)
(-0.0084112 0.508967 0)
(0.0247838 0.508078 0)
(0.0585719 0.505342 0)
(0.0931219 0.505252 0)
(0.127903 0.50622 0)
(0.162618 0.507218 0)
(0.197407 0.507416 0)
(0.231579 0.510468 0)
(0.265723 0.508039 0)
(0.299618 0.512941 0)
(0.333363 0.510843 0)
(0.367245 0.514649 0)
(0.400738 0.514014 0)
(0.434316 0.517793 0)
(0.466594 0.518672 0)
(0.496687 0.522538 0)
(0.522213 0.52451 0)
(0.541487 0.532222 0)
(0.562685 0.529363 0)
(0.554869 0.567371 0)
(0.899695 0.64136 0)
(-0.87396 0.654262 0)
(-0.605114 0.579839 0)
(-0.554476 0.593719 0)
(-0.530904 0.582583 0)
(-0.498117 0.580469 0)
(-0.46697 0.573042 0)
(-0.432573 0.569108 0)
(-0.399791 0.562238 0)
(-0.367664 0.558054 0)
(-0.336207 0.550431 0)
(-0.304069 0.549007 0)
(-0.273077 0.544001 0)
(-0.242058 0.542024 0)
(-0.211551 0.538596 0)
(-0.18038 0.536062 0)
(-0.148511 0.533603 0)
(-0.115566 0.531383 0)
(-0.0814628 0.529241 0)
(-0.0460806 0.5283 0)
(-0.00991215 0.53039 0)
(0.0266647 0.529488 0)
(0.0633429 0.52632 0)
(0.1 0.525937 0)
(0.136064 0.526722 0)
(0.171354 0.527552 0)
(0.20621 0.527202 0)
(0.240153 0.530456 0)
(0.273775 0.527363 0)
(0.307138 0.532444 0)
(0.340297 0.52995 0)
(0.373799 0.53381 0)
(0.406809 0.532835 0)
(0.440367 0.536833 0)
(0.472558 0.537665 0)
(0.502754 0.541657 0)
(0.528686 0.543075 0)
(0.548023 0.550617 0)
(0.568552 0.546642 0)
(0.565374 0.575475 0)
(0.881962 0.661715 0)
(-0.86083 0.666089 0)
(-0.601412 0.591777 0)
(-0.553294 0.607859 0)
(-0.529721 0.600012 0)
(-0.499392 0.595855 0)
(-0.467718 0.593428 0)
(-0.432736 0.588666 0)
(-0.399211 0.583995 0)
(-0.365223 0.580444 0)
(-0.332079 0.57327 0)
(-0.298919 0.572446 0)
(-0.266931 0.566913 0)
(-0.234801 0.565383 0)
(-0.203466 0.560929 0)
(-0.171646 0.557389 0)
(-0.139639 0.553178 0)
(-0.107175 0.548692 0)
(-0.0745404 0.544086 0)
(-0.0417413 0.541103 0)
(-0.00917258 0.542416 0)
(0.0232688 0.5417 0)
(0.0563898 0.539607 0)
(0.090554 0.541281 0)
(0.125281 0.544421 0)
(0.160074 0.547642 0)
(0.195389 0.548255 0)
(0.230126 0.553397 0)
(0.264875 0.550349 0)
(0.299325 0.556378 0)
(0.333829 0.553541 0)
(0.36841 0.558128 0)
(0.402554 0.556227 0)
(0.437179 0.560614 0)
(0.470327 0.560756 0)
(0.500886 0.564484 0)
(0.526982 0.564189 0)
(0.545162 0.57126 0)
(0.563714 0.566539 0)
(0.566933 0.586708 0)
(0.861793 0.669541 0)
(-1.08653 0.319364 0)
(-0.584724 0.54414 0)
(-0.588483 0.565346 0)
(-0.572581 0.565991 0)
(-0.555513 0.552591 0)
(-0.532236 0.541218 0)
(-0.502612 0.530077 0)
(-0.472179 0.52195 0)
(-0.437164 0.518097 0)
(-0.402535 0.512967 0)
(-0.366526 0.514234 0)
(-0.330719 0.512491 0)
(-0.29395 0.514283 0)
(-0.256829 0.514291 0)
(-0.218757 0.515071 0)
(-0.179784 0.515516 0)
(-0.139257 0.515849 0)
(-0.0984205 0.516901 0)
(-0.056451 0.516977 0)
(-0.0147573 0.520936 0)
(0.0267351 0.520142 0)
(0.0688075 0.51481 0)
(0.111868 0.51405 0)
(0.154121 0.510936 0)
(0.197281 0.510597 0)
(0.238116 0.506493 0)
(0.280231 0.507139 0)
(0.319491 0.501481 0)
(0.359562 0.502776 0)
(0.397522 0.498078 0)
(0.435737 0.499395 0)
(0.471412 0.497587 0)
(0.506222 0.502537 0)
(0.536837 0.507865 0)
(0.562069 0.519345 0)
(0.579152 0.533582 0)
(0.586496 0.547419 0)
(0.595719 0.551424 0)
(0.562033 0.546265 0)
(1.06528 0.340138 0)
(-1.03283 1.03819 0)
(-0.356678 1.07961 0)
(-0.639009 0.903756 0)
(-0.62857 0.921872 0)
(-0.59935 0.938064 0)
(-0.570054 0.950785 0)
(-0.529462 0.962475 0)
(-0.496089 0.972933 0)
(-0.454579 0.980853 0)
(-0.419063 0.988242 0)
(-0.379451 0.994128 0)
(-0.341764 0.999649 0)
(-0.303024 1.00448 0)
(-0.264244 1.00879 0)
(-0.224624 1.01244 0)
(-0.184782 1.01537 0)
(-0.143285 1.01635 0)
(-0.102336 1.02386 0)
(-0.0588577 1.01959 0)
(-0.0175246 1.02947 0)
(0.025922 1.02949 0)
(0.0665935 1.0161 0)
(0.111803 1.02393 0)
(0.150514 1.00855 0)
(0.197762 1.01464 0)
(0.234675 1.00279 0)
(0.281276 1.00319 0)
(0.317588 0.99162 0)
(0.363719 0.98831 0)
(0.400712 0.976836 0)
(0.445087 0.969236 0)
(0.482917 0.957376 0)
(0.525118 0.945886 0)
(0.56185 0.932224 0)
(0.602088 0.91611 0)
(0.631888 0.900335 0)
(0.654217 0.882285 0)
(0.664508 0.860841 0)
(0.349505 1.05666 0)
(1.02154 1.02753 0)
(-1.03283 -1.03819 0)
(-0.356678 -1.07961 0)
(-0.639009 -0.903756 0)
(-0.62857 -0.921872 0)
(-0.59935 -0.938064 0)
(-0.570054 -0.950785 0)
(-0.529462 -0.962475 0)
(-0.496089 -0.972933 0)
(-0.454579 -0.980853 0)
(-0.419063 -0.988242 0)
(-0.379451 -0.994128 0)
(-0.341764 -0.999649 0)
(-0.303024 -1.00448 0)
(-0.264244 -1.00879 0)
(-0.224624 -1.01244 0)
(-0.184782 -1.01537 0)
(-0.143285 -1.01635 0)
(-0.102336 -1.02386 0)
(-0.0588577 -1.01959 0)
(-0.0175246 -1.02947 0)
(0.025922 -1.02949 0)
(0.0665935 -1.0161 0)
(0.111803 -1.02393 0)
(0.150514 -1.00855 0)
(0.197762 -1.01464 0)
(0.234675 -1.00279 0)
(0.281276 -1.00319 0)
(0.317588 -0.99162 0)
(0.363719 -0.98831 0)
(0.400712 -0.976836 0)
(0.445087 -0.969236 0)
(0.482917 -0.957376 0)
(0.525118 -0.945886 0)
(0.56185 -0.932224 0)
(0.602088 -0.91611 0)
(0.631888 -0.900335 0)
(0.654217 -0.882285 0)
(0.664508 -0.860841 0)
(0.349505 -1.05666 0)
(1.02154 -1.02753 0)
(-1.08653 -0.319364 0)
(-0.584724 -0.54414 0)
(-0.588483 -0.565346 0)
(-0.572581 -0.565991 0)
(-0.555513 -0.552591 0)
(-0.532236 -0.541218 0)
(-0.502612 -0.530077 0)
(-0.472179 -0.52195 0)
(-0.437164 -0.518097 0)
(-0.402535 -0.512967 0)
(-0.366526 -0.514234 0)
(-0.330719 -0.512491 0)
(-0.29395 -0.514283 0)
(-0.256829 -0.514291 0)
(-0.218757 -0.515071 0)
(-0.179784 -0.515516 0)
(-0.139257 -0.515849 0)
(-0.0984205 -0.516901 0)
(-0.056451 -0.516977 0)
(-0.0147573 -0.520936 0)
(0.0267351 -0.520142 0)
(0.0688075 -0.51481 0)
(0.111868 -0.51405 0)
(0.154121 -0.510936 0)
(0.197281 -0.510597 0)
(0.238116 -0.506493 0)
(0.280231 -0.507139 0)
(0.319491 -0.501481 0)
(0.359562 -0.502776 0)
(0.397522 -0.498078 0)
(0.435737 -0.499395 0)
(0.471412 -0.497587 0)
(0.506222 -0.502537 0)
(0.536837 -0.507865 0)
(0.562069 -0.519345 0)
(0.579152 -0.533582 0)
(0.586496 -0.547419 0)
(0.595719 -0.551424 0)
(0.562033 -0.546265 0)
(1.06528 -0.340138 0)
(-0.86083 -0.666089 0)
(-0.601412 -0.591777 0)
(-0.553294 -0.607859 0)
(-0.529721 -0.600012 0)
(-0.499392 -0.595855 0)
(-0.467718 -0.593428 0)
(-0.432736 -0.588666 0)
(-0.399211 -0.583995 0)
(-0.365223 -0.580444 0)
(-0.332079 -0.57327 0)
(-0.298919 -0.572446 0)
(-0.266931 -0.566913 0)
(-0.234801 -0.565383 0)
(-0.203466 -0.560929 0)
(-0.171646 -0.557389 0)
(-0.139639 -0.553178 0)
(-0.107175 -0.548692 0)
(-0.0745404 -0.544086 0)
(-0.0417413 -0.541103 0)
(-0.00917258 -0.542416 0)
(0.0232688 -0.5417 0)
(0.0563898 -0.539607 0)
(0.090554 -0.541281 0)
(0.125281 -0.544421 0)
(0.160074 -0.547642 0)
(0.195389 -0.548255 0)
(0.230126 -0.553397 0)
(0.264875 -0.550349 0)
(0.299325 -0.556378 0)
(0.333829 -0.553541 0)
(0.36841 -0.558128 0)
(0.402554 -0.556227 0)
(0.437179 -0.560614 0)
(0.470327 -0.560756 0)
(0.500886 -0.564484 0)
(0.526982 -0.564189 0)
(0.545162 -0.57126 0)
(0.563714 -0.566539 0)
(0.566933 -0.586708 0)
(0.861793 -0.669541 0)
(-0.87396 -0.654262 0)
(-0.605114 -0.579839 0)
(-0.554476 -0.593719 0)
(-0.530904 -0.582583 0)
(-0.498117 -0.580469 0)
(-0.46697 -0.573042 0)
(-0.432573 -0.569108 0)
(-0.399791 -0.562238 0)
(-0.367664 -0.558054 0)
(-0.336207 -0.550431 0)
(-0.304069 -0.549007 0)
(-0.273077 -0.544001 0)
(-0.242058 -0.542024 0)
(-0.211551 -0.538596 0)
(-0.18038 -0.536062 0)
(-0.148511 -0.533603 0)
(-0.115566 -0.531383 0)
(-0.0814628 -0.529241 0)
(-0.0460806 -0.5283 0)
(-0.00991215 -0.53039 0)
(0.0266647 -0.529488 0)
(0.0633429 -0.52632 0)
(0.1 -0.525937 0)
(0.136064 -0.526722 0)
(0.171354 -0.527552 0)
(0.20621 -0.527202 0)
(0.240153 -0.530456 0)
(0.273775 -0.527363 0)
(0.307138 -0.532444 0)
(0.340297 -0.52995 0)
(0.373799 -0.53381 0)
(0.406809 -0.532835 0)
(0.440367 -0.536833 0)
(0.472558 -0.537665 0)
(0.502754 -0.541657 0)
(0.528686 -0.543075 0)
(0.548023 -0.550617 0)
(0.568552 -0.546642 0)
(0.565374 -0.575475 0)
(0.881962 -0.661715 0)
(-0.886312 -0.631264 0)
(-0.599947 -0.567905 0)