/*--------------------------------*- C++ -*----------------------------------*\
| =========                 |                                                 |
| \\      /  F ield         | OpenFOAM: The Open Source CFD Toolbox           |
|  \\    /   O peration     | Version:  v1912                                 |
|   \\  /    A nd           | Website:  www.openfoam.com                      |
|    \\/     M anipulation  |                                                 |
\*---------------------------------------------------------------------------*/
FoamFile
{
    version     2.0;
    format      ascii;
    class       volScalarField;
    location    "1.6";
    object      Ma;
}
// * * * * * * * * * * * * * * * * * * * * * * * * * * * * * * * * * * * * * //

dimensions      [0 0 0 0 0 0 0];


internalField   nonuniform List<scalar> 
1900
(
0.00297961
0.0122211
0.0268398
0.0391638
0.0463223
0.0489555
0.0506555
0.0506467
0.0497846
0.0452235
0.00298037
0.0122243
0.0268452
0.0391658
0.0462859
0.0487882
0.0502227
0.0499838
0.0499455
0.0515024
0.00298112
0.0122256
0.0268438
0.039161
0.0462643
0.0486904
0.0500155
0.0498224
0.0505392
0.0547182
0.00298037
0.0122243
0.0268452
0.0391658
0.0462859
0.0487882
0.0502227
0.0499838
0.0499455
0.0515024
0.00297961
0.0122211
0.0268398
0.0391638
0.0463223
0.0489555
0.0506555
0.0506467
0.0497846
0.0452235
0.0515426
0.0687633
0.0881298
0.117655
0.195083
0.0624133
0.0787455
0.102093
0.145363
0.22496
0.0651599
0.0801737
0.104925
0.151548
0.229957
0.0624133
0.0787455
0.102093
0.145363
0.22496
0.0515426
0.0687633
0.0881298
0.117655
0.195083
0.227064
0.197125
0.185479
0.18904
0.280284
0.236504
0.204807
0.180747
0.153714
0.1508
0.24229
0.207656
0.176646
0.127356
0.0262117
0.236504
0.204807
0.180747
0.153714
0.1508
0.227064
0.197125
0.185479
0.18904
0.280284
0.510344
0.185939
0.250265
0.297473
0.332406
0.335784
0.309548
0.269958
0.22198
0.170852
0.12017
0.0733485
0.0349307
0.0106066
0.00148343
6.32467e-05
5.42135e-07
6.48861e-10
7.36331e-14
2.06587e-16
7.71746e-16
1.05537e-13
8.69663e-10
6.84163e-07
7.5766e-05
0.00170356
0.0118189
0.038239
0.0797016
0.130646
0.187214
0.247438
0.310113
0.374119
0.437975
0.499134
0.553465
0.597379
0.735922
1.54876
0.115962
0.207883
0.125288
0.257566
0.325981
0.335039
0.309907
0.269975
0.221776
0.170664
0.120042
0.0732647
0.0348811
0.0105853
0.00147868
6.29231e-05
5.37962e-07
6.42234e-10
7.38759e-14
3.41638e-16
4.06084e-16
1.07666e-13
8.69661e-10
6.84163e-07
7.5766e-05
0.00170356
0.0118189
0.038239
0.0797016
0.130646
0.187214
0.247438
0.310113
0.374119
0.437975
0.499134
0.553465
0.597379
0.735922
1.54876
0.200722
0.267965
0.0144099
0.238567
0.323937
0.335176
0.310096
0.269986
0.221707
0.170603
0.120005
0.0732398
0.0348644
0.0105771
0.0014768
6.27978e-05
5.36403e-07
6.39762e-10
7.60682e-14
3.30667e-16
2.56448e-16
1.09193e-13
8.69649e-10
6.84163e-07
7.5766e-05
0.00170356
0.0118189
0.038239
0.0797016
0.130646
0.187214
0.247438
0.310113
0.374119
0.437975
0.499134
0.553465
0.597379
0.735922
1.54876
0.115962
0.207883
0.125288
0.257566
0.325981
0.335039
0.309907
0.269975
0.221776
0.170664
0.120042
0.0732647
0.0348811
0.0105853
0.00147868
6.29231e-05
5.37962e-07
6.42222e-10
8.03755e-14
1.41219e-16
1.15486e-16
1.08956e-13
8.69644e-10
6.84163e-07
7.5766e-05
0.00170356
0.0118189
0.038239
0.0797016
0.130646
0.187214
0.247438
0.310113
0.374119
0.437975
0.499134
0.553465
0.597379
0.735922
1.54876
0.510344
0.185939
0.250265
0.297473
0.332406
0.335784
0.309548
0.269958
0.22198
0.170852
0.12017
0.0733485
0.0349307
0.0106066
0.00148343
6.32467e-05
5.42135e-07
6.48836e-10
8.18219e-14
3.92702e-17
1.01402e-16
1.05937e-13
8.69628e-10
6.84163e-07
7.5766e-05
0.00170356
0.0118189
0.038239
0.0797016
0.130646
0.187214
0.247438
0.310113
0.374119
0.437975
0.499134
0.553465
0.597379
0.735922
1.54876
1.30844
0.508146
0.408598
0.357333
0.352075
0.340937
0.310804
0.270801
0.222716
0.171382
0.120539
0.0736213
0.0351277
0.0107063
0.00150621
6.47361e-05
5.60181e-07
6.76401e-10
7.90596e-14
4.24745e-16
4.75377e-16
1.08167e-13
8.69648e-10
6.84163e-07
7.5766e-05
0.00170356
0.0118189
0.038239
0.0797016
0.130646
0.187214
0.247438
0.310113
0.374119
0.437975
0.499134
0.553465
0.597379
0.735922
1.54876
1.56952
0.692748
0.523625
0.423138
0.387292
0.354889
0.3191
0.274866
0.224934
0.172772
0.121545
0.0743635
0.0356045
0.0109179
0.00155082
6.75317e-05
5.92558e-07
7.31657e-10
9.13989e-12
9.13191e-12
9.1309e-12
9.13838e-12
8.69641e-10
6.84163e-07
7.5766e-05
0.00170356
0.0118189
0.038239
0.0797016
0.130646
0.187214
0.247438
0.310113
0.374119
0.437975
0.499134
0.553465
0.597379
0.735922
1.54876
1.58443
0.725142
0.556235
0.460405
0.414381
0.373255
0.329894
0.28079
0.228285
0.174893
0.123013
0.0753688
0.0362002
0.0111631
0.00159878
7.04454e-05
6.3142e-07
2.35263e-08
2.3499e-08
2.3499e-08
2.3499e-08
2.3499e-08
2.35153e-08
6.84566e-07
7.5766e-05
0.00170356
0.0118189
0.038239
0.0797016
0.130646
0.187214
0.247438
0.310113
0.374119
0.437975
0.499134
0.553465
0.597379
0.735922
1.54876
1.57631
0.733326
0.56969
0.487693
0.437073
0.390623
0.340764
0.287457
0.232439
0.177584
0.124804
0.0765028
0.0368042
0.011393
0.00164528
7.3714e-05
7.21077e-06
7.17101e-06
7.171e-06
7.171e-06
7.171e-06
7.171e-06
7.171e-06
7.20356e-06
7.61045e-05
0.00170357
0.0118189
0.0382389
0.0797015
0.130646
0.187214
0.247438
0.310113
0.374119
0.437975
0.499134
0.553465
0.597379
0.735922
1.54876
1.56051
0.733851
0.575619
0.506723
0.455242
0.404757
0.350472
0.293894
0.236599
0.180295
0.126566
0.0776126
0.0374164
0.0116235
0.00172348
0.000370899
0.000362573
0.000362568
0.000362568
0.000362568
0.000362568
0.000362568
0.000362568
0.000362569
0.000370391
0.00174155
0.0118238
0.0382392
0.0797002
0.130644
0.187212
0.247436
0.310111
0.374118
0.437975
0.499134
0.553467
0.597377
0.735918
1.54876
1.55202
0.731367
0.578751
0.520606
0.469488
0.415544
0.358179
0.2993
0.240516
0.183035
0.128346
0.0786843
0.0381017
0.0125782
0.00481322
0.00450132
0.00450063
0.00450063
0.00450063
0.00450063
0.00450063
0.00450063
0.00450063
0.00450063
0.00450121
0.00481011
0.0126341
0.0384791
0.0797965
0.130688
0.187233
0.247448
0.310122
0.374132
0.437996
0.499168
0.553523
0.597329
0.735813
1.5488
1.54986
0.728306
0.581452
0.532414
0.481887
0.425426
0.365465
0.304516
0.244225
0.185887
0.130919
0.0817199
0.0433479
0.0240314
0.0210522
0.0209884
0.0209885
0.0209886
0.0209886
0.0209886
0.0209886
0.0209886
0.0209886
0.0209886
0.0209885
0.0210519
0.0240312
0.0434673
0.0822061
0.132082
0.188145
0.248102
0.310634
0.374567
0.438401
0.499591
0.55408
0.597309
0.735129
1.54952
1.54982
0.726552
0.589321
0.545355
0.493142
0.434409
0.373013
0.311215
0.250727
0.193072
0.140137
0.0954242
0.0656225
0.0549548
0.053777
0.0537597
0.0537601
0.0537601
0.0537601
0.0537601
0.0537601
0.0537601
0.0537601
0.0537601
0.0537598
0.0537778
0.0549528
0.0656194
0.095516
0.140514
0.193976
0.252433
0.314044
0.377394
0.440857
0.501844
0.556321
0.599423
0.734052
1.55316
1.55704
0.730886
0.602231
0.558381
0.505519
0.446005
0.384431
0.323309
0.264508
0.209948
0.162303
0.125818
0.105299
0.0992016
0.0986118
0.0986095
0.0986101
0.0986101
0.0986101
0.0986101
0.0986101
0.0986101
0.0986101
0.0986101
0.0986096
0.0986129
0.0992052
0.105292
0.125792
0.162302
0.210051
0.264826
0.324013
0.38573
0.448074
0.508397
0.562527
0.605564
0.735868
1.56134
1.57052
0.742644
0.617222
0.574054
0.520889
0.461976
0.401745
0.342857
0.287609
0.238227
0.19761
0.169207
0.154869
0.150961
0.150616
0.150619
0.150619
0.150619
0.150619
0.150619
0.150619
0.150619
0.150619
0.150619
0.150619
0.150616
0.150965
0.154877
0.169207
0.197581
0.238155
0.287516
0.342778
0.401708
0.462008
0.521155
0.574574
0.616701
0.744547
1.5725
1.58497
0.761113
0.633855
0.59343
0.540988
0.483778
0.426076
0.370813
0.32023
0.276756
0.242831
0.220572
0.209999
0.207249
0.207022
0.207027
0.207027
0.207027
0.207027
0.207027
0.207027
0.207027
0.207027
0.207027
0.207027
0.207022
0.207252
0.210008
0.220586
0.242835
0.276735
0.320173
0.370695
0.425896
0.483543
0.540868
0.59334
0.633402
0.761523
1.58553
1.59548
0.785555
0.657912
0.618966
0.568073
0.512398
0.458385
0.406819
0.361269
0.323247
0.294786
0.276867
0.268653
0.266574
0.266407
0.266412
0.266412
0.266412
0.266412
0.266412
0.266412
0.266412
0.266412
0.266412
0.266412
0.266408
0.266575
0.268658
0.276879
0.294807
0.323271
0.36128
0.406791
0.458318
0.512271
0.567948
0.618722
0.657704
0.785478
1.59549
1.61159
0.815394
0.689498
0.650232
0.600201
0.548728
0.496755
0.45003
0.40867
0.375421
0.351129
0.336257
0.329582
0.327913
0.327775
0.327778
0.327778
0.327778
0.327778
0.327778
0.327778
0.327778
0.327778
0.327778
0.327778
0.327775
0.327913
0.329583
0.336263
0.351145
0.37545
0.408707
0.450071
0.496799
0.548755
0.600198
0.650164
0.689486
0.815352
1.61151
1.61573
0.850152
0.730682
0.68678
0.640431
0.588504
0.542949
0.49772
0.460957
0.431133
0.410023
0.397285
0.391644
0.390232
0.390105
0.390105
0.390106
0.390106
0.390106
0.390106
0.390106
0.390106
0.390106
0.390106
0.390105
0.390105
0.390232
0.391644
0.397286
0.41003
0.431148
0.460983
0.497764
0.543005
0.588565
0.640475
0.686806
0.730789
0.850219
1.61576
1.63424
0.887731
0.771052
0.728381
0.679185
0.635894
0.588898
0.549695
0.515007
0.48841
0.469546
0.458344
0.453398
0.452125
0.451989
0.451985
0.451986
0.451986
0.451986
0.451986
0.451986
0.451986
0.451986
0.451986
0.451985
0.451989
0.452125
0.453397
0.458344
0.469547
0.488414
0.515018
0.549716
0.58893
0.63593
0.679228
0.728427
0.771145
0.887806
1.63426
1.6311
0.926218
0.819846
0.768768
0.72526
0.67833
0.639454
0.600338
0.569402
0.544481
0.527113
0.516788
0.512172
0.510864
0.510686
0.510677
0.510677
0.510677
0.510677
0.510677
0.510677
0.510677
0.510677
0.510677
0.510677
0.510686
0.510864
0.512171
0.516788
0.527112
0.54448
0.569403
0.600342
0.63946
0.678343
0.725277
0.768796
0.819885
0.926249
1.63111
1.6374
0.967293
0.862608
0.815258
0.769248
0.72664
0.685224
0.648654
0.618508
0.59506
0.578413
0.568515
0.563837
0.562334
0.562108
0.562096
0.562096
0.562096
0.562096
0.562096
0.562096
0.562096
0.562096
0.562096
0.562096
0.562108
0.562334
0.563836
0.568515
0.578413
0.595059
0.618507
0.648652
0.685222
0.726641
0.769252
0.815266
0.862618
0.967301
1.63741
1.61324
0.995787
0.906415
0.859674
0.817492
0.767778
0.727382
0.686722
0.655792
0.632627
0.61762
0.60835
0.604829
0.604732
0.604883
0.604902
0.604902
0.604902
0.604902
0.604902
0.604902
0.604902
0.604902
0.604902
0.604902
0.604883
0.604732
0.604829
0.60835
0.617619
0.632626
0.65579
0.686719
0.72738
0.767777
0.817492
0.859675
0.906416
0.995787
1.61324
1.67996
1.09023
0.995605
0.965063
0.924481
0.884972
0.847514
0.813163
0.784424
0.762305
0.748094
0.742306
0.74203
0.742892
0.743169
0.743193
0.743194
0.743194
0.743194
0.743194
0.743194
0.743194
0.743194
0.743194
0.743193
0.743169
0.742892
0.74203
0.742306
0.748094
0.762304
0.784423
0.813161
0.847512
0.884969
0.924478
0.96506
0.995602
1.09023
1.67996
2.24802
1.6846
1.61832
1.64206
1.63524
1.63849
1.61994
1.61529
1.59978
1.58898
1.57613
1.56561
1.55921
1.55719
1.55694
1.55693
1.55693
1.55693
1.55693
1.55693
1.55693
1.55693
1.55693
1.55693
1.55693
1.55694
1.55719
1.55921
1.56561
1.57613
1.58898
1.59978
1.61529
1.61994
1.63849
1.63524
1.64206
1.61832
1.6846
2.24802
2.24802
1.6846
1.61832
1.64206
1.63524
1.63849
1.61994
1.61529
1.59978
1.58898
1.57613
1.56561
1.55921
1.55719
1.55694
1.55693
1.55693
1.55693
1.55693
1.55693
1.55693
1.55693
1.55693
1.55693
1.55693
1.55694
1.55719
1.55921
1.56561
1.57613
1.58898
1.59978
1.61529
1.61994
1.63849
1.63524
1.64206
1.61832
1.6846
2.24802
1.67996
1.09023
0.995605
0.965063
0.924481
0.884972
0.847514
0.813163
0.784424
0.762305
0.748094
0.742306
0.74203
0.742892
0.743169
0.743193
0.743194
0.743194
0.743194
0.743194
0.743194
0.743194
0.743194
0.743194
0.743193
0.743169
0.742892
0.74203
0.742306
0.748094
0.762304
0.784423
0.813161
0.847512
0.884969
0.924478
0.96506
0.995602
1.09023
1.67996
1.61324
0.995787
0.906415
0.859674
0.817492
0.767778
0.727382
0.686722
0.655792
0.632627
0.61762
0.60835
0.604829
0.604732
0.604883
0.604902
0.604902
0.604902
0.604902
0.604902
0.604902
0.604902
0.604902
0.604902
0.604902
0.604883
0.604732
0.604829
0.60835
0.617619
0.632626
0.65579
0.686719
0.72738
0.767777
0.817492
0.859675
0.906416
0.995787
1.61324
1.6374
0.967293
0.862608
0.815258
0.769248
0.72664
0.685224
0.648654
0.618508
0.59506
0.578413
0.568515
0.563837
0.562334
0.562108
0.562096
0.562096
0.562096
0.562096
0.562096
0.562096
0.562096
0.562096
0.562096
0.562096
0.562108
0.562334
0.563836
0.568515
0.578413
0.595059
0.618507
0.648652
0.685222
0.726641
0.769252
0.815266
0.862618
0.967301
1.63741
1.6311
0.926218
0.819846
0.768768
0.72526
0.67833
0.639454
0.600338
0.569402
0.544481
0.527113
0.516788
0.512172
0.510864
0.510686
0.510677
0.510677
0.510677
0.510677
0.510677
0.510677
0.510677
0.510677
0.510677
0.510677
0.510686
0.510864
0.512171
0.516788
0.527112
0.54448
0.569403
0.600342
0.63946
0.678343
0.725277
0.768796
0.819885
0.926249
1.63111
1.63424
0.887731
0.771052
0.728381
0.679185
0.635894
0.588898
0.549695
0.515007
0.48841
0.469546
0.458344
0.453398
0.452125
0.451989
0.451985
0.451986
0.451986
0.451986
0.451986
0.451986
0.451986
0.451986
0.451986
0.451985
0.451989
0.452125
0.453397
0.458344
0.469547
0.488414
0.515018
0.549716
0.58893
0.63593
0.679228
0.728427
0.771145
0.887806
1.63426
1.61573
0.850152
0.730682
0.68678
0.640431
0.588504
0.542949
0.49772
0.460957
0.431133
0.410023
0.397285
0.391644
0.390232
0.390105
0.390105
0.390106
0.390106
0.390106
0.390106
0.390106
0.390106
0.390106
0.390106
0.390105
0.390105
0.390232
0.391644
0.397286
0.41003
0.431148
0.460983
0.497764
0.543005
0.588565
0.640475
0.686806
0.730789
0.850219
1.61576
1.61159
0.815394
0.689498
0.650232
0.600201
0.548728
0.496755
0.45003
0.40867
0.375421
0.351129
0.336257
0.329582
0.327913
0.327775
0.327778
0.327778
0.327778
0.327778
0.327778
0.327778
0.327778
0.327778
0.327778
0.327778
0.327775
0.327913
0.329583
0.336263
0.351145
0.37545
0.408707
0.450071
0.496799
0.548755
0.600198
0.650164
0.689486
0.815352
1.61151
1.59548
0.785555
0.657912
0.618966
0.568073
0.512398
0.458385
0.406819
0.361269
0.323247
0.294786
0.276867
0.268653
0.266574
0.266407
0.266412
0.266412
0.266412
0.266412
0.266412
0.266412
0.266412
0.266412
0.266412
0.266412
0.266408
0.266575
0.268658
0.276879
0.294807
0.323271
0.36128
0.406791
0.458318
0.512271
0.567948
0.618722
0.657704
0.785478
1.59549
1.58497
0.761113
0.633855
0.59343
0.540988
0.483778
0.426076
0.370813
0.32023
0.276756
0.242831
0.220572
0.209999
0.207249
0.207022
0.207027
0.207027
0.207027
0.207027
0.207027
0.207027
0.207027
0.207027
0.207027
0.207027
0.207022
0.207252
0.210008
0.220586
0.242835
0.276735
0.320173
0.370695
0.425896
0.483543
0.540868
0.59334
0.633402
0.761523
1.58553
1.57052
0.742644
0.617222
0.574054
0.520889
0.461976
0.401745
0.342857
0.287609
0.238227
0.19761
0.169207
0.154869
0.150961
0.150616
0.150619
0.150619
0.150619
0.150619
0.150619
0.150619
0.150619
0.150619
0.150619
0.150619
0.150616
0.150965
0.154877
0.169207
0.197581
0.238155
0.287516
0.342778
0.401708
0.462008
0.521155
0.574574
0.616701
0.744547
1.5725
1.55704
0.730886
0.602231
0.558381
0.505519
0.446005
0.384431
0.323309
0.264508
0.209948
0.162303
0.125818
0.105299
0.0992016
0.0986118
0.0986095
0.0986101
0.0986101
0.0986101
0.0986101
0.0986101
0.0986101
0.0986101
0.0986101
0.0986096
0.0986129
0.0992052
0.105292
0.125792
0.162302
0.210051
0.264826
0.324013
0.38573
0.448074
0.508397
0.562527
0.605564
0.735868
1.56134
1.54982
0.726552
0.589321
0.545355
0.493142
0.434409
0.373013
0.311215
0.250727
0.193072
0.140137
0.0954242
0.0656225
0.0549548
0.053777
0.0537597
0.0537601
0.0537601
0.0537601
0.0537601
0.0537601
0.0537601
0.0537601
0.0537601
0.0537598
0.0537778
0.0549528
0.0656194
0.095516
0.140514
0.193976
0.252433
0.314044
0.377394
0.440857
0.501844
0.556321
0.599423
0.734052
1.55316
1.54986
0.728306
0.581452
0.532414
0.481887
0.425426
0.365465
0.304516
0.244225
0.185887
0.130919
0.0817199
0.0433479
0.0240314
0.0210522
0.0209884
0.0209885
0.0209886
0.0209886
0.0209886
0.0209886
0.0209886
0.0209886
0.0209886
0.0209885
0.0210519
0.0240312
0.0434673
0.0822061
0.132082
0.188145
0.248102
0.310634
0.374567
0.438401
0.499591
0.55408
0.597309
0.735129
1.54952
1.55202
0.731367
0.578751
0.520606
0.469488
0.415544
0.358179
0.2993
0.240516
0.183035
0.128346
0.0786843
0.0381017
0.0125782
0.00481322
0.00450132
0.00450063
0.00450063
0.00450063
0.00450063
0.00450063
0.00450063
0.00450063
0.00450063
0.00450121
0.00481011
0.0126341
0.0384791
0.0797965
0.130688
0.187233
0.247448
0.310122
0.374132
0.437996
0.499168
0.553523
0.597329
0.735813
1.5488
1.56051
0.733851
0.575619
0.506723
0.455242
0.404757
0.350472
0.293894
0.236599
0.180295
0.126566
0.0776126
0.0374164
0.0116235
0.00172348
0.000370899
0.000362573
0.000362568
0.000362568
0.000362568
0.000362568
0.000362568
0.000362568
0.000362569
0.000370391
0.00174155
0.0118238
0.0382392
0.0797002
0.130644
0.187212
0.247436
0.310111
0.374118
0.437975
0.499134
0.553467
0.597377
0.735918
1.54876
1.57631
0.733326
0.56969
0.487693
0.437073
0.390623
0.340764
0.287457
0.232439
0.177584
0.124804
0.0765028
0.0368042
0.011393
0.00164528
7.3714e-05
7.21077e-06
7.17101e-06
7.171e-06
7.171e-06
7.171e-06
7.171e-06
7.171e-06
7.20356e-06
7.61045e-05
0.00170357
0.0118189
0.0382389
0.0797015
0.130646
0.187214
0.247438
0.310113
0.374119
0.437975
0.499134
0.553465
0.597379
0.735922
1.54876
1.58443
0.725142
0.556235
0.460405
0.414381
0.373255
0.329894
0.28079
0.228285
0.174893
0.123013
0.0753688
0.0362002
0.0111631
0.00159878
7.04454e-05
6.3142e-07
2.35262e-08
2.3499e-08
2.3499e-08
2.3499e-08
2.3499e-08
2.35153e-08
6.84566e-07
7.5766e-05
0.00170356
0.0118189
0.038239
0.0797016
0.130646
0.187214
0.247438
0.310113
0.374119
0.437975
0.499134
0.553465
0.597379
0.735922
1.54876
1.56952
0.692748
0.523625
0.423138
0.387292
0.354889
0.3191
0.274866
0.224934
0.172772
0.121545
0.0743635
0.0356045
0.0109179
0.00155082
6.75317e-05
5.92558e-07
7.31711e-10
9.15208e-12
9.15455e-12
9.13764e-12
9.14773e-12
8.69636e-10
6.84163e-07
7.5766e-05
0.00170356
0.0118189
0.038239
0.0797016
0.130646
0.187214
0.247438
0.310113
0.374119
0.437975
0.499134
0.553465
0.597379
0.735922
1.54876
1.30844
0.508146
0.408598
0.357333
0.352075
0.340937
0.310804
0.270801
0.222716
0.171382
0.120539
0.0736213
0.0351277
0.0107063
0.00150621
6.47361e-05
5.60181e-07
6.76414e-10
7.89248e-14
6.4365e-16
7.69062e-16
1.08212e-13
8.69642e-10
6.84163e-07
7.5766e-05
0.00170356
0.0118189
0.038239
0.0797016
0.130646
0.187214
0.247438
0.310113
0.374119
0.437975
0.499134
0.553465
0.597379
0.735922
1.54876
)
;

boundaryField
{
    inlet
    {
        type            calculated;
        value           uniform 0;
    }
    outlet
    {
        type            calculated;
        value           nonuniform List<scalar> 
165
(
1.30844
1.56952
1.58443
1.57631
1.56051
1.55202
1.54986
1.54982
1.55704
1.57052
1.58497
1.59548
1.61159
1.61573
1.63424
1.6311
1.6374
1.61324
1.67996
2.24802
2.24802
1.6846
1.61832
1.64206
1.63524
1.63849
1.61994
1.61529
1.59978
1.58898
1.57613
1.56561
1.55921
1.55719
1.55694
1.55693
1.55693
1.55693
1.55693
1.55693
1.55693
1.55693
1.55693
1.55693
1.55693
1.55694
1.55719
1.55921
1.56561
1.57613
1.58898
1.59978
1.61529
1.61994
1.63849
1.63524
1.64206
1.61832
1.6846
2.24802
1.54876
1.54876
1.54876
1.54876
1.54876
1.5488
1.54952
1.55316
1.56134
1.5725
1.58553
1.59549
1.61151
1.61576
1.63426
1.63111
1.63741
1.61324
1.67996
2.24802
1.54876
1.54876
1.54876
1.54876
1.54876
2.24802
1.67996
1.61324
1.63741
1.63111
1.63426
1.61576
1.61151
1.59549
1.58553
1.5725
1.56134
1.55316
1.54952
1.5488
1.54876
1.54876
1.54876
1.54876
1.54876
2.24802
1.6846
1.61832
1.64206
1.63524
1.63849
1.61994
1.61529
1.59978
1.58898
1.57613
1.56561
1.55921
1.55719
1.55694
1.55693
1.55693
1.55693
1.55693
1.55693
1.55693
1.55693
1.55693
1.55693
1.55693
1.55694
1.55719
1.55921
1.56561
1.57613
1.58898
1.59978
1.61529
1.61994
1.63849
1.63524
1.64206
1.61832
1.6846
2.24802
2.24802
1.67996
1.61324
1.6374
1.6311
1.63424
1.61573
1.61159
1.59548
1.58497
1.57052
1.55704
1.54982
1.54986
1.55202
1.56051
1.57631
1.58443
1.56952
1.30844
)
;
    }
    obstacle
    {
        type            calculated;
        value           nonuniform List<scalar> 
40
(
0.00297961
0.0122211
0.0268398
0.0391638
0.0463223
0.0489552
0.0506546
0.0506464
0.0497386
0.0445412
0.00297961
0.0122211
0.0268398
0.0391638
0.0463223
0.0489552
0.0506546
0.0506464
0.0497386
0.0445412
0.0510562
0.0681315
0.0878416
0.11732
0.185641
0.0510562
0.0681315
0.0878416
0.11732
0.185641
0.226568
0.197051
0.185465
0.188276
0.273394
0.226568
0.197051
0.185465
0.188276
0.273394
)
;
    }
    empty
    {
        type            empty;
    }
}


// ************************************************************************* //
