/*--------------------------------*- C++ -*----------------------------------*\
| =========                 |                                                 |
| \\      /  F ield         | OpenFOAM: The Open Source CFD Toolbox           |
|  \\    /   O peration     | Version:  v1912                                 |
|   \\  /    A nd           | Website:  www.openfoam.com                      |
|    \\/     M anipulation  |                                                 |
\*---------------------------------------------------------------------------*/
FoamFile
{
    version     2.0;
    format      ascii;
    class       volScalarField;
    location    "0.42";
    object      T;
}
// * * * * * * * * * * * * * * * * * * * * * * * * * * * * * * * * * * * * * //

dimensions      [0 0 0 1 0 0 0];


internalField   nonuniform List<scalar> 
4800
(
15.3699
11.7259
11.2723
11.3791
11.4891
11.6294
11.7965
11.9943
12.2166
12.46
12.7194
12.9982
13.2987
13.6156
13.9456
14.2863
14.6425
15.023
15.4374
15.8875
16.364
16.8454
17.3052
17.7162
18.055
18.3091
18.4783
18.5779
18.6286
18.6473
18.6525
18.6532
18.6447
18.6293
18.6112
18.5953
18.5878
18.5886
18.597
18.6029
15.3712
11.7182
11.2666
11.374
11.4861
11.6296
11.801
12.001
12.2226
12.4642
12.7225
13.0005
13.2988
13.613
13.9406
14.2812
14.6391
15.0239
15.4411
15.8899
16.3626
16.8404
17.2983
17.7088
18.0488
18.3047
18.4776
18.5798
18.6302
18.6482
18.6514
18.649
18.6412
18.6272
18.611
18.597
18.5903
18.5903
18.5984
18.6088
15.3711
11.7026
11.257
11.3662
11.4827
11.6314
11.807
12.0085
12.23
12.4697
12.7272
13.0041
13.2994
13.6098
13.9343
14.2746
14.6363
15.026
15.4455
15.8926
16.3606
16.8346
17.291
17.7025
18.0445
18.3039
18.4793
18.582
18.631
18.6476
18.6475
18.6433
18.6379
18.6277
18.6149
18.603
18.596
18.594
18.5982
18.6055
15.3717
11.6807
11.2446
11.3564
11.4791
11.6344
11.8147
12.0178
12.2394
12.4785
12.7355
13.0104
13.301
13.606
13.9269
14.267
14.6338
15.0289
15.4513
15.8974
16.3609
16.8308
17.2851
17.6972
18.0423
18.3048
18.4819
18.5844
18.6307
18.6444
18.6437
18.6389
18.6348
18.63
18.6217
18.6121
18.6044
18.5995
18.5985
18.5992
15.3733
11.6545
11.2317
11.346
11.4766
11.6388
11.823
12.0276
12.25
12.4895
12.7463
13.0187
13.3036
13.6033
13.9203
14.2612
14.6321
15.0322
15.4577
15.9042
16.365
16.8307
17.2831
17.6963
18.0445
18.3103
18.4875
18.5888
18.6301
18.6419
18.6412
18.6365
18.6343
18.6349
18.6316
18.6244
18.6151
18.6059
18.5982
18.5922
15.3755
11.6256
11.2208
11.337
11.4759
11.6431
11.8306
12.037
12.261
12.5019
12.7588
13.0281
13.3078
13.6029
13.9169
14.2585
14.6322
15.0355
15.4635
15.9104
16.3702
16.8346
17.2869
17.7022
18.0531
18.3208
18.4971
18.5957
18.6332
18.6426
18.641
18.6382
18.6384
18.6429
18.644
18.6385
18.6272
18.6137
18.5997
18.5882
15.3778
11.5958
11.213
11.33
11.4746
11.6463
11.8369
12.0458
12.2721
12.5147
12.7709
13.0373
13.3133
13.6045
13.9171
14.2591
14.6337
15.0369
15.465
15.9132
16.376
16.8432
17.2978
17.7156
18.0681
18.3357
18.5107
18.6053
18.6409
18.6474
18.6449
18.6445
18.6466
18.6531
18.6563
18.6512
18.6387
18.6231
18.6053
18.5879
15.3795
11.567
11.208
11.3239
11.4724
11.6485
11.8421
12.0538
12.2825
12.5264
12.7814
13.0449
13.3186
13.6086
13.9222
14.2644
14.6366
15.0361
15.4616
15.9116
16.3798
16.8538
17.3136
17.7343
18.0873
18.352
18.5241
18.6158
18.6517
18.6567
18.6541
18.6557
18.659
18.6645
18.6672
18.6619
18.65
18.6345
18.6143
18.5933
15.3801
11.5405
11.2057
11.3182
11.4705
11.65
11.846
12.0605
12.2914
12.5355
12.7887
13.0498
13.3234
13.6155
13.9317
14.2723
14.638
15.0314
15.4548
15.9065
16.3805
16.8637
17.3324
17.7579
18.1109
18.3712
18.5387
18.6268
18.6637
18.6704
18.6696
18.6714
18.6742
18.6766
18.6777
18.6726
18.6625
18.6478
18.627
18.6057
15.3794
11.5162
11.2053
11.3134
11.4686
11.651
11.8493
12.0665
12.2991
12.5424
12.7928
13.0525
13.3278
13.6235
13.9413
14.2785
14.6367
15.0218
15.44
15.8941
16.3761
16.869
17.3486
17.7808
18.1356
18.3931
18.5561
18.6415
18.6781
18.6891
18.6903
18.6901
18.6888
18.6878
18.6876
18.6826
18.6742
18.6614
18.642
18.6215
15.3768
11.4936
11.2067
11.312
11.4681
11.6525
11.8526
12.0721
12.3055
12.5472
12.7949
13.0537
13.331
13.6308
13.9489
14.2819
14.6323
15.0077
15.419
15.8731
16.3634
16.8672
17.356
17.7956
18.1546
18.4125
18.5749
18.6605
18.6966
18.7109
18.712
18.7081
18.7022
18.6983
18.6968
18.6909
18.6833
18.672
18.6552
18.6377
15.3728
11.4729
11.2094
11.3136
11.4686
11.6555
11.8573
12.0774
12.3105
12.5501
12.7956
13.0541
13.3337
13.6351
13.952
14.2802
14.6239
14.9907
15.3967
15.8478
16.3435
16.8572
17.3546
17.8014
18.1652
18.4265
18.5915
18.6801
18.7173
18.7324
18.7312
18.7235
18.7136
18.7067
18.7012
18.694
18.6859
18.6761
18.6653
18.6515
15.368
11.4549
11.2123
11.3167
11.4716
11.6604
11.8632
12.0836
12.3149
12.5513
12.7946
13.053
13.3341
13.6355
13.9496
14.2732
14.612
14.9728
15.374
15.8236
16.3197
16.8389
17.3446
17.7988
18.1688
18.436
18.6062
18.6986
18.7379
18.7527
18.748
18.7365
18.7224
18.7107
18.7011
18.6933
18.6842
18.6766
18.6702
18.6593
15.3626
11.4402
11.2153
11.3204
11.4756
11.6641
11.8695
12.0898
12.3177
12.5511
12.7924
13.0501
13.3305
13.6303
13.9409
14.2618
14.5991
14.9578
15.3563
15.8035
16.296
16.815
17.3253
17.7867
18.1648
18.4406
18.6183
18.7147
18.7574
18.7714
18.7639
18.7467
18.7276
18.7114
18.6995
18.6884
18.6802
18.6739
18.6671
18.657
15.3571
11.4297
11.2188
11.3254
11.4806
11.6678
11.8734
12.0919
12.3184
12.5502
12.7905
13.0461
13.3226
13.6186
13.9269
14.2476
14.5859
14.947
15.3457
15.7899
16.2767
16.7899
17.2987
17.7653
18.1528
18.4399
18.6264
18.7277
18.7756
18.7888
18.7785
18.7561
18.7308
18.7096
18.6936
18.6787
18.6721
18.6654
18.6561
18.6458
15.3517
11.4239
11.2227
11.3324
11.4879
11.6746
11.8766
12.0915
12.3162
12.5483
12.789
13.043
13.3146
13.6049
13.9119
14.2328
14.5729
14.9402
15.3414
15.7827
16.2624
16.7675
17.271
17.7389
18.1349
18.4336
18.6314
18.7398
18.7908
18.8036
18.7923
18.7653
18.7342
18.7068
18.6849
18.6663
18.6589
18.6508
18.6404
18.6311
15.3468
11.4252
11.227
11.3416
11.4979
11.6816
11.8777
12.0877
12.3097
12.5427
12.7859
13.0405
13.3091
13.5942
13.8978
14.2196
14.5635
14.9353
15.3413
15.7806
16.2533
16.7499
17.2468
17.7128
18.1145
18.4238
18.6322
18.7487
18.8035
18.8168
18.8055
18.7759
18.7397
18.7057
18.6749
18.6521
18.6415
18.6322
18.6248
18.6204
15.3432
11.4362
11.2312
11.3514
11.5079
11.6858
11.8749
12.0787
12.2985
12.5335
12.7806
13.0377
13.3049
13.5872
13.885
14.2074
14.557
14.9347
15.344
15.783
16.2506
16.739
17.2284
17.691
18.0953
18.4125
18.63
18.7541
18.813
18.8287
18.8185
18.7891
18.7484
18.7071
18.6657
18.6369
18.624
18.6153
18.6134
18.6155
15.3411
11.4549
11.2352
11.3602
11.5154
11.6871
11.8679
12.0656
12.2835
12.5214
12.7735
13.034
13.3039
13.5822
13.8764
14.1986
14.5525
14.9358
15.3458
15.7858
16.2519
16.735
17.2185
17.6763
18.0808
18.4023
18.6268
18.7572
18.8209
18.8396
18.8304
18.8021
18.7587
18.7092
18.6597
18.6245
18.6098
18.6031
18.6057
18.6145
15.3402
11.4777
11.2388
11.3669
11.5195
11.685
11.8581
12.051
12.2675
12.5074
12.7645
13.0294
13.3035
13.5791
13.873
14.1948
14.5512
14.938
15.3495
15.7884
16.2531
16.735
17.2163
17.671
18.0707
18.3934
18.6216
18.7592
18.8278
18.8491
18.8417
18.8155
18.7692
18.7124
18.6572
18.6185
18.6011
18.5958
18.6015
18.6164
15.3404
11.5027
11.2413
11.3702
11.5199
11.6797
11.8476
12.0379
12.2533
12.4943
12.7549
13.0249
13.3009
13.5791
13.8751
14.1953
14.5514
14.9387
15.351
15.7893
16.2535
16.7359
17.2176
17.6709
18.0653
18.385
18.6137
18.7569
18.8303
18.8554
18.8509
18.8276
18.7811
18.7227
18.6652
18.622
18.5996
18.5933
18.6002
18.6191
15.3417
11.5267
11.2433
11.3715
11.5168
11.6725
11.8382
12.0284
12.2445
12.4858
12.7465
13.0197
13.2981
13.5824
13.8825
14.2015
14.5518
14.9354
15.347
15.7859
16.2515
16.7358
17.2192
17.6726
18.0649
18.3765
18.6029
18.7474
18.8249
18.8558
18.8579
18.8386
18.7977
18.7434
18.6851
18.6356
18.6052
18.5954
18.6012
18.62
15.3445
11.5489
11.2447
11.3698
11.509
11.6633
11.8307
12.0237
12.2418
12.4818
12.7407
13.0144
13.2956
13.5859
13.8902
14.2074
14.5521
14.928
15.3374
15.7786
16.2474
16.7348
17.2205
17.6746
18.0648
18.3683
18.5891
18.7308
18.8102
18.8499
18.8636
18.8508
18.8208
18.7718
18.714
18.6583
18.6177
18.6001
18.6012
18.6169
15.3483
11.5688
11.2439
11.3641
11.4973
11.6524
11.825
12.0237
12.2433
12.4816
12.7396
13.0115
13.2952
13.5895
13.8944
14.2125
14.5515
14.9213
15.3271
15.7701
16.2435
16.7349
17.2224
17.676
18.0629
18.3615
18.5728
18.7096
18.7902
18.8405
18.867
18.8657
18.8464
18.8053
18.7495
18.6885
18.6376
18.6082
18.5999
18.6078
15.3535
11.5853
11.241
11.3551
11.4831
11.6411
11.8217
12.0273
12.2494
12.4869
12.742
13.0123
13.2978
13.5945
13.9001
14.2166
14.5508
14.9149
15.3194
15.7637
16.2402
16.7341
17.2222
17.6743
18.058
18.3528
18.5562
18.6882
18.7685
18.8274
18.8693
18.8808
18.8684
18.8379
18.7872
18.7246
18.6645
18.6196
18.5981
18.595
15.3601
11.5982
11.2364
11.3443
11.4681
11.6303
11.8204
12.0333
12.2592
12.4981
12.7486
13.0161
13.3004
13.5986
13.9049
14.2194
14.5504
14.9098
15.3116
15.7562
16.2347
16.7301
17.2182
17.6692
18.0509
18.3427
18.5436
18.671
18.7496
18.8135
18.8682
18.8893
18.8864
18.8653
18.8211
18.7611
18.6956
18.6374
18.5985
18.5796
15.3675
11.6084
11.2305
11.3322
11.4534
11.6202
11.8188
12.039
12.2698
12.5104
12.7595
13.0242
13.3059
13.6033
13.9086
14.2225
14.551
14.9071
15.305
15.7488
16.2282
16.7247
17.2134
17.6645
18.0443
18.3348
18.5358
18.6621
18.739
18.8002
18.8618
18.8924
18.8979
18.8833
18.8485
18.7945
18.7265
18.6592
18.6039
18.566
15.3757
11.6161
11.2236
11.3197
11.4403
11.6104
11.8157
12.0423
12.279
12.5219
12.7726
13.0358
13.3154
13.6097
13.9123
14.2242
14.552
14.9076
15.3032
15.7442
16.2225
16.7191
17.208
17.6591
18.0393
18.3309
18.533
18.66
18.7346
18.791
18.8515
18.8897
18.9006
18.8913
18.8675
18.821
18.7551
18.6809
18.6138
18.5595
15.3847
11.6203
11.2156
11.3075
11.4293
11.6019
11.8119
12.043
12.2849
12.5316
12.7858
13.0495
13.3269
13.617
13.9176
14.2295
14.558
14.9129
15.305
15.7412
16.216
16.7114
17.2005
17.6529
18.0369
18.3334
18.5378
18.666
18.7387
18.7868
18.838
18.8808
18.8979
18.8946
18.877
18.838
18.7795
18.7006
18.6247
18.56
15.394
11.6205
11.2071
11.2957
11.4205
11.5961
11.8086
12.0423
12.2871
12.5382
12.7966
13.063
13.3394
13.6265
13.9252
14.2374
14.5673
14.9222
15.3104
15.7397
16.2082
16.7004
17.1898
17.6456
18.0367
18.3416
18.5507
18.68
18.7511
18.7898
18.8245
18.8644
18.8907
18.8963
18.88
18.8486
18.7964
18.7201
18.6374
18.5664
15.403
11.6157
11.1988
11.2848
11.414
11.5933
11.806
12.041
12.2864
12.5408
12.8035
13.0737
13.3511
13.6373
13.9351
14.2476
14.5781
14.9319
15.3167
15.7385
16.1988
16.6864
17.1766
17.6377
18.0376
18.3523
18.5687
18.6989
18.7674
18.7992
18.8167
18.8445
18.8788
18.893
18.8812
18.8545
18.8072
18.7357
18.651
18.5776
15.4115
11.6049
11.1913
11.2761
11.4101
11.5925
11.8067
12.0388
12.284
12.5403
12.8066
13.0804
13.3601
13.647
13.9451
14.2579
14.5886
14.9411
15.321
15.7356
16.1877
16.6705
17.1623
17.6298
18.0388
18.3629
18.5884
18.7203
18.7849
18.81
18.8159
18.8285
18.8642
18.8854
18.8802
18.8565
18.8114
18.7494
18.6661
18.5926
15.4192
11.588
11.1855
11.2709
11.4086
11.5949
11.8072
12.0375
12.2816
12.5383
12.8073
13.0842
13.3663
13.6545
13.953
14.2656
14.5955
14.9458
15.3215
15.7299
16.1753
16.6542
17.1478
17.6218
18.0396
18.3719
18.6047
18.7403
18.802
18.8208
18.8215
18.825
18.8516
18.877
18.8786
18.8545
18.8099
18.7546
18.682
18.6108
15.4262
11.566
11.1816
11.2689
11.4096
11.5978
11.8095
12.0374
12.2801
12.5362
12.8069
13.0861
13.3703
13.6596
13.9578
14.2694
14.598
14.9459
15.318
15.7214
16.1624
16.6396
17.1337
17.6127
18.0384
18.3773
18.6143
18.7549
18.8171
18.8331
18.8333
18.8323
18.8467
18.8686
18.873
18.8503
18.8065
18.7547
18.6962
18.6301
15.4322
11.5418
11.1798
11.2691
11.4129
11.6017
11.8129
12.039
12.2799
12.5347
12.8053
13.0853
13.3709
13.6614
13.9594
14.2695
14.5956
14.9406
15.31
15.7113
16.1517
16.6265
17.1203
17.6019
18.0324
18.3762
18.6172
18.7631
18.8303
18.8483
18.8483
18.8473
18.8497
18.8609
18.8637
18.8448
18.8055
18.7587
18.7118
18.6546
15.4371
11.5182
11.1796
11.2712
11.4173
11.6069
11.8173
12.0418
12.2813
12.5345
12.8036
13.0829
13.3687
13.6598
13.9575
14.2655
14.5882
14.931
15.2998
15.7024
16.1424
16.6162
17.1082
17.589
18.0205
18.3677
18.6141
18.7661
18.8422
18.867
18.8695
18.8654
18.8586
18.855
18.8508
18.8357
18.8041
18.7649
18.723
18.683
15.4415
11.4986
11.1811
11.2745
11.422
11.6122
11.8221
12.0456
12.2841
12.5358
12.8027
13.0802
13.3654
13.6562
13.9527
14.2581
14.5781
14.9196
15.2898
15.6945
16.1358
16.6092
17.0983
17.5754
18.0045
18.3531
18.6054
18.7654
18.8526
18.8883
18.8939
18.886
18.8696
18.8513
18.8362
18.8224
18.8004
18.7704
18.7428
18.7116
15.4446
11.4843
11.1835
11.2781
11.426
11.6169
11.8265
12.0496
12.2876
12.5377
12.8024
13.0772
13.361
13.6511
13.9467
14.2501
14.5681
14.9094
15.2814
15.6889
16.1322
16.605
17.0911
17.5629
17.988
18.3368
18.594
18.761
18.8607
18.9089
18.9183
18.9061
18.8808
18.8515
18.825
18.8062
18.7917
18.7784
18.7653
18.7367
15.4465
11.4768
11.1858
11.2813
11.429
11.62
11.8296
12.0528
12.2901
12.5399
12.8028
13.0751
13.357
13.6463
13.9412
14.2438
14.5611
14.9026
15.2764
15.6862
16.1313
16.6037
17.0867
17.5545
17.9766
18.325
18.5847
18.754
18.8647
18.924
18.938
18.9241
18.8891
18.8521
18.818
18.7909
18.779
18.7868
18.7852
18.7573
15.4473
11.4737
11.1877
11.284
11.4318
11.623
11.8322
12.0546
12.2917
12.5413
12.803
13.0734
13.3536
13.6418
13.9369
14.2403
14.5583
14.9003
15.2746
15.6856
16.1317
16.604
17.0848
17.5495
17.9694
18.3171
18.5781
18.7505
18.8685
18.9328
18.9509
18.939
18.8981
18.8549
18.8156
18.7816
18.7687
18.7877
18.795
18.7677
18.6364
18.6351
18.6381
18.6292
18.6074
18.5769
18.5385
18.4884
18.4267
18.3679
18.3149
18.2669
18.2277
18.2028
18.1882
18.1752
18.1572
18.1328
18.0941
18.0501
18.0184
17.9961
17.9943
18.0187
18.0466
18.0574
18.0541
18.0454
18.0243
17.9919
17.9552
17.9118
17.8653
17.8235
17.7918
17.7837
17.7973
17.8224
17.8509
17.8726
17.885
17.8967
17.9148
17.9428
17.9729
17.9953
18.002
17.992
17.9708
17.9523
17.9376
17.926
17.9037
17.8633
17.8239
17.7964
17.7773
17.7688
17.765
17.7778
17.8175
17.8833
17.9582
18.0117
18.0363
18.0287
17.9947
17.9506
17.9034
17.8714
17.8594
17.8682
17.8877
17.9118
17.9368
17.9577
17.9745
17.9858
17.9919
17.9997
18.6258
18.6259
18.626
18.614
18.5907
18.5594
18.5239
18.4775
18.4236
18.372
18.3223
18.2777
18.2417
18.2171
18.199
18.1807
18.1576
18.13
18.0925
18.0523
18.0241
18.0097
18.0168
18.0421
18.0641
18.0689
18.06
18.0438
18.0205
17.9879
17.9513
17.9088
17.8639
17.8241
17.7972
17.7937
17.8094
17.8338
17.8616
17.8811
17.8937
17.9066
17.9239
17.9488
17.9728
17.9868
17.9869
17.9745
17.9553
17.9354
17.9219
17.912
17.8936
17.8614
17.8268
17.7989
17.7803
17.7743
17.7779
17.7986
17.8426
17.9049
17.9683
18.0122
18.0244
18.015
17.9829
17.9422
17.9014
17.8783
17.8702
17.8734
17.8878
17.9102
17.9349
17.9572
17.9742
17.9843
17.9891
17.9948
18.616
18.616
18.6128
18.5992
18.5776
18.5501
18.5168
18.4747
18.4292
18.3837
18.3377
18.2957
18.2614
18.2332
18.2073
18.1823
18.1556
18.1278
18.0958
18.065
18.0447
18.0363
18.046
18.0623
18.0733
18.0722
18.0605
18.0441
18.0205
17.9888
17.9515
17.9096
17.8675
17.8307
17.808
17.8059
17.8192
17.8405
17.8626
17.8834
17.9018
17.9164
17.932
17.9494
17.9644
17.9696
17.9665
17.9574
17.942
17.9296
17.9184
17.9049
17.8863
17.8639
17.8343
17.8066
17.7885
17.7848
17.796
17.8226
17.8662
17.9189
17.9676
17.9967
18.0052
17.9993
17.978
17.9465
17.9142
17.8933
17.882
17.8775
17.8842
17.9028
17.9273
17.9521
17.9699
17.9791
17.9824
17.9863
18.6019
18.5999
18.5931
18.5795
18.56
18.5372
18.5083
18.4754
18.4387
18.3997
18.3587
18.319
18.2843
18.251
18.2181
18.1859
18.1548
18.1279
18.1054
18.088
18.0771
18.0758
18.0802
18.0841
18.0833
18.0754
18.0611
18.0439
18.022
17.9905
17.9521
17.9111
17.8745
17.8436
17.8257
17.8233
17.8313
17.847
17.8671
17.8917
17.9171
17.9316
17.9412
17.9466
17.9464
17.944
17.9401
17.936
17.9311
17.9218
17.9071
17.8917
17.88
17.8662
17.8425
17.8158
17.7992
17.8006
17.8212
17.8533
17.8922
17.9302
17.9578
17.9746
17.9837
17.9845
17.9739
17.9571
17.9337
17.9091
17.8906
17.8814
17.8852
17.8992
17.9209
17.9444
17.9612
17.9694
17.9709
17.9729
18.5884
18.5814
18.5708
18.5589
18.5454
18.5282
18.5062
18.4805
18.4515
18.4185
18.3826
18.3444
18.3071
18.2675
18.2281
18.1889
18.1553
18.1326
18.1234
18.1188
18.1167
18.1161
18.1093
18.1011
18.0897
18.0775
18.0632
18.0468
18.0239
17.9912
17.9525
17.9148
17.8836
17.8613
17.8482
17.8435
17.8452
17.8552
17.8753
17.9027
17.9285
17.9442
17.9456
17.9385
17.9233
17.9161
17.9172
17.9219
17.9223
17.9156
17.9001
17.8842
17.8772
17.8678
17.8498
17.8269
17.8141
17.8178
17.8444
17.8785
17.9088
17.9298
17.9388
17.9478
17.9605
17.9677
17.9741
17.9712
17.9548
17.9275
17.9039
17.8916
17.8922
17.9018
17.9184
17.9353
17.9482
17.9552
17.9561
17.9572
18.5779
18.5665
18.5568
18.5473
18.5369
18.5239
18.5066
18.4872
18.464
18.4372
18.4065
18.3686
18.3287
18.2831
18.2356
18.191
18.1593
18.1476
18.1499
18.1526
18.1526
18.1478
18.1318
18.1093
18.09
18.0769
18.0653
18.0494
18.0236
17.9887
17.9523
17.9185
17.8966
17.8848
17.8757
17.8677
17.8634
17.8682
17.8859
17.9127
17.9366
17.9485
17.9436
17.9229
17.9023
17.8942
17.8972
17.9083
17.9164
17.9127
17.9001
17.8845
17.8753
17.868
17.8564
17.8405
17.8333
17.8429
17.8709
17.8967
17.9133
17.9181
17.9169
17.9228
17.9367
17.9584
17.9774
17.9813
17.9708
17.9463
17.9185
17.9049
17.905
17.9124
17.9228
17.9315
17.9362
17.9401
17.9401
17.9404
18.5728
18.5603
18.5507
18.5424
18.5337
18.5227
18.5086
18.493
18.4753
18.4544
18.4276
18.3899
18.3473
18.2945
18.2388
18.1937
18.1704
18.1701
18.1782
18.1833
18.1805
18.1672
18.1416
18.1106
18.0863
18.0726
18.0645
18.0483
18.0203
17.9857
17.9499
17.9243
17.9138
17.9105
17.9044
17.8946
17.8848
17.8833
17.8943
17.9177
17.9378
17.9434
17.9345
17.9078
17.8855
17.879
17.8865
17.9048
17.9161
17.9154
17.9035
17.8855
17.8728
17.868
17.8641
17.8606
17.8609
17.8697
17.8888
17.9015
17.9057
17.9011
17.8978
17.9027
17.9203
17.9511
17.9767
17.9849
17.98
17.9657
17.9427
17.9287
17.9264
17.9304
17.9343
17.9348
17.9324
17.9305
17.9258
17.9238
18.5756
18.5619
18.5505
18.5422
18.534
18.5229
18.5101
18.4976
18.4853
18.4696
18.4439
18.4058
18.358
18.299
18.2419
18.2029
18.1895
18.1959
18.205
18.2075
18.1983
18.176
18.1412
18.1074
18.0801
18.0645
18.0578
18.0431
18.0165
17.9814
17.9504
17.9353
17.9341
17.9355
17.9308
17.9199
17.9047
17.8971
17.8992
17.9144
17.9288
17.9282
17.9168
17.8926
17.877
17.8747
17.8879
17.9075
17.918
17.9174
17.9041
17.8847
17.8702
17.8693
17.8768
17.8898
17.8966
17.8939
17.896
17.8933
17.8876
17.8831
17.8816
17.8867
17.9088
17.9401
17.9666
17.9803
17.9844
17.9822
17.9729
17.9616
17.9557
17.9542
17.9524
17.9474
17.9404
17.9335
17.924
17.9195
18.5865
18.5696
18.5562
18.5463
18.5358
18.5228
18.5105
18.5011
18.4924
18.4783
18.4518
18.4132
18.3603
18.2997
18.2494
18.2202
18.2142
18.2212
18.2271
18.2205
18.2031
18.1738
18.136
18.1032
18.0748
18.056
18.0467
18.0332
18.0078
17.9777
17.9564
17.9523
17.9536
17.9554
17.9511
17.9401
17.9198
17.9059
17.8995
17.9021
17.9071
17.9035
17.8927
17.8818
17.8768
17.8816
17.8944
17.9087
17.9181
17.9186
17.9047
17.8841
17.8722
17.8769
17.8991
17.9242
17.9308
17.9134
17.8925
17.8724
17.8622
17.8602
17.8645
17.8772
17.899
17.9235
17.9476
17.9685
17.9851
17.9971
18.0015
17.9968
17.9881
17.9793
17.973
17.965
17.9558
17.9442
17.93
17.9221
18.6005
18.5809
18.5655
18.5518
18.5369
18.5217
18.5101
18.5026
18.4948
18.4796
18.4521
18.4098
18.3562
18.3021
18.2624
18.2438
18.2418
18.2432
18.2387
18.2224
18.1973
18.164
18.1282
18.0976
18.0696
18.0469
18.0339
18.0191
17.9982
17.9789
17.9696
17.9693
17.9698
17.9689
17.9657
17.9552
17.9317
17.9095
17.8933
17.8797
17.8738
17.8712
17.8688
17.8763
17.8851
17.8915
17.9007
17.912
17.9183
17.9158
17.9041
17.8889
17.8841
17.898
17.9257
17.9476
17.9509
17.9237
17.8813
17.8469
17.8356
17.8396
17.8508
17.8699
17.8874
17.9031
17.9238
17.9532
17.983
18.0095
18.0238
18.0248
18.0172
18.0042
17.9909
17.981
17.9689
17.9532
17.9355
17.9251
18.6179
18.5967
18.5761
18.5565
18.538
18.5215
18.5105
18.502
18.4909
18.4725
18.441
18.3983
18.3499
18.3078
18.2797
18.2699
18.2664
18.2581
18.2411
18.216
18.1863
18.1529
18.1206
18.0919
18.0648
18.038
18.0176
18.0031
17.9918
17.9859
17.9851
17.9827
17.9803
17.9741
17.9697
17.9593
17.9356
17.907
17.8777
17.8481
17.8339
17.8345
17.8505
17.876
17.8956
17.902
17.9039
17.9083
17.9092
17.9075
17.905
17.901
17.9086
17.9266
17.9453
17.9566
17.9545
17.9246
17.8732
17.8313
17.8168
17.8228
17.8413
17.8619
17.874
17.8816
17.8983
17.9317
17.975
18.0129
18.0352
18.0412
18.0373
18.025
18.0101
17.9945
17.9767
17.9591
17.9408
17.9281
18.6331
18.6099
18.5852
18.5615
18.5406
18.5235
18.5111
18.4985
18.4806
18.4549
18.4205
18.3822
18.345
18.3154
18.3006
18.2952
18.2845
18.2654
18.238
18.2057
18.1747
18.1455
18.1166
18.0875
18.0578
18.0257
18.0004
17.9901
17.9912
17.9959
17.9979
17.9899
17.9818
17.9711
17.9652
17.9536
17.9304
17.8948
17.852
17.8134
17.7951
17.8022
17.8398
17.8765
17.9001
17.9039
17.901
17.8941
17.8921
17.8967
17.9065
17.9218
17.9369
17.9476
17.9564
17.9558
17.9463
17.9188
17.8731
17.8303
17.8097
17.816
17.8346
17.8518
17.8599
17.8634
17.8757
17.908
17.9568
18.0036
18.0346
18.0481
18.0516
18.0417
18.024
18.0053
17.9822
17.9616
17.9417
17.928
18.6409
18.6183
18.5933
18.5682
18.5463
18.5286
18.5123
18.4919
18.4643
18.4319
18.3973
18.3666
18.3427
18.3287
18.326
18.3175
18.2979
18.2686
18.2326
18.1975
18.1694
18.1432
18.1154
18.0834
18.0469
18.0136
17.9909
17.9847
17.9948
18.0059
18.0049
17.9912
17.9762
17.9622
17.9527
17.9407
17.9156
17.8734
17.8235
17.7858
17.7697
17.7798
17.8276
17.8694
17.8919
17.8935
17.8824
17.8741
17.8759
17.8875
17.9148
17.9439
17.9587
17.9646
17.9642
17.9479
17.9308
17.9101
17.8782
17.8399
17.818
17.8217
17.832
17.8408
17.8457
17.8489
17.8607
17.8898
17.9341
17.9839
18.0233
18.0466
18.0559
18.0543
18.037
18.0127
17.984
17.9604
17.9408
17.9272
18.6394
18.6203
18.5989
18.5767
18.5566
18.5372
18.514
18.4843
18.4484
18.411
18.3796
18.3608
18.3491
18.3511
18.3503
18.3371
18.3097
18.2718
18.2306
18.1959
18.1707
18.1451
18.1154
18.0789
18.0386
18.0069
17.9885
17.9849
17.9999
18.0119
18.0063
17.9879
17.9669
17.9481
17.935
17.9193
17.8919
17.8505
17.8051
17.7743
17.764
17.7752
17.8121
17.852
17.8712
17.8719
17.862
17.8562
17.862
17.8859
17.925
17.9572
17.9709
17.9722
17.9598
17.9324
17.9139
17.903
17.8886
17.8619
17.8406
17.8335
17.8296
17.8298
17.8331
17.8404
17.8551
17.8788
17.9132
17.9577
18.0036
18.0369
18.052
18.0552
18.0418
18.0163
17.9858
17.9607
17.9417
17.9292
18.6325
18.6188
18.6037
18.588
18.5716
18.5485
18.5174
18.4785
18.4345
18.3969
18.3737
18.3668
18.3657
18.3729
18.3705
18.3545
18.3224
18.2779
18.2347
18.202
18.1768
18.1499
18.1165
18.0763
18.0363
18.0092
17.9948
17.9922
18.0075
18.0142
18.0042
17.9812
17.9534
17.9304
17.9119
17.8942
17.8706
17.8382
17.8013
17.7772
17.7704
17.7765
17.7958
17.8232
17.839
17.8422
17.8426
17.8426
17.8574
17.8884
17.9293
17.962
17.975
17.9752
17.9517
17.9155
17.9014
17.8983
17.904
17.8937
17.8693
17.8458
17.8291
17.8216
17.8245
17.8369
17.8544
17.8727
17.8963
17.9332
17.9758
18.0167
18.0384
18.0421
18.0308
18.0089
17.9845
17.9647
17.9477
17.9385
18.6238
18.6176
18.6103
18.6015
18.5865
18.5583
18.523
18.4751
18.4283
18.394
18.3797
18.3798
18.3849
18.3919
18.3876
18.3697
18.3351
18.2876
18.2441
18.2137
18.1858
18.1546
18.1168
18.0775
18.0428
18.0209
18.0107
18.0113
18.0163
18.0116
17.9961
17.9688
17.9384
17.9123
17.8909
17.8747
17.8593
17.8401
17.8156
17.7964
17.786
17.7815
17.7816
17.7898
17.8027
17.812
17.8249
17.8404
17.8617
17.893
17.9271
17.9576
17.9682
17.9615
17.935
17.9037
17.8977
17.8998
17.9208
17.9241
17.9002
17.8618
17.8314
17.8184
17.8192
17.8346
17.8536
17.8684
17.8829
17.9086
17.9472
17.9847
18.0074
18.0133
18.0058
17.9927
17.979
17.9682
17.9577
17.954
18.6198
18.6196
18.6191
18.6137
18.5967
18.565
18.5251
18.4748
18.4303
18.4021
18.3934
18.395
18.4034
18.4074
18.4012
18.3816
18.3454
18.2996
18.2568
18.2232
18.1901
18.155
18.1179
18.0846
18.058
18.0408
18.0355
18.0314
18.0208
18.004
17.9833
17.9568
17.928
17.9024
17.8843
17.8706
17.8619
17.8548
17.8474
17.8303
17.8093
17.7893
17.7701
17.7646
17.7738
17.7939
17.8206
17.847
17.8725
17.8963
17.9213
17.9415
17.9437
17.9328
17.9173
17.9
17.9014
17.9144
17.936
17.9411
17.9217
17.8781
17.8381
17.8191
17.8173
17.8312
17.8493
17.8621
17.8715
17.8871
17.9097
17.9335
17.9534
17.9664
17.9719
17.9732
17.972
17.9689
17.9671
17.9696
18.6202
18.6258
18.6275
18.6208
18.6005
18.5674
18.5236
18.4768
18.4392
18.4181
18.4115
18.4143
18.4173
18.4162
18.4088
18.3874
18.352
18.309
18.2663
18.2266
18.1891
18.1516
18.1204
18.0985
18.0808
18.0688
18.0607
18.0461
18.021
17.9936
17.9698
17.9473
17.9257
17.9054
17.8898
17.8816
17.8821
17.8869
17.8889
17.8736
17.8375
17.7979
17.7659
17.7528
17.7593
17.7868
17.8266
17.8638
17.8867
17.8988
17.9108
17.9143
17.9101
17.9082
17.9116
17.9091
17.9155
17.9333
17.9453
17.9448
17.9289
17.8918
17.8489
17.8246
17.8194
17.8269
17.8416
17.8546
17.8611
17.8635
17.8674
17.8782
17.8956
17.917
17.9377
17.9538
17.9633
17.9677
17.972
17.9775
18.625
18.6327
18.6335
18.6236
18.6002
18.563
18.5209
18.4823
18.4538
18.4388
18.4334
18.4309
18.4273
18.4209
18.4081
18.3858
18.353
18.312
18.2682
18.2242
18.182
18.1471
18.1268
18.115
18.1059
18.0947
18.0783
18.0508
18.0158
17.981
17.9581
17.9456
17.9324
17.9166
17.9051
17.9036
17.9135
17.9268
17.9311
17.9134
17.8669
17.8113
17.7716
17.7539
17.7595
17.7955
17.8486
17.8863
17.9027
17.9019
17.8944
17.8837
17.8798
17.8929
17.9131
17.9247
17.9403
17.9521
17.9499
17.9418
17.9272
17.9005
17.8628
17.8358
17.8247
17.8237
17.8322
17.8425
17.8432
17.8361
17.8306
17.8364
17.8538
17.8789
17.906
17.9307
17.9492
17.9621
17.9726
17.9818
18.6317
18.6381
18.6341
18.6188
18.5916
18.5544
18.5181
18.4889
18.4692
18.4616
18.4542
18.4433
18.4305
18.4163
18.4
18.3775
18.3471
18.3073
18.2619
18.2141
18.1712
18.1444
18.1344
18.1332
18.1287
18.1143
18.0872
18.0497
18.0101
17.972
17.9531
17.9481
17.9401
17.931
17.9274
17.9326
17.9477
17.9594
17.9605
17.9397
17.8914
17.8286
17.787
17.774
17.7843
17.8253
17.8755
17.9057
17.9154
17.9017
17.8773
17.8595
17.8609
17.8832
17.9151
17.9491
17.9672
17.9691
17.9584
17.9358
17.9202
17.9045
17.8782
17.8507
17.8324
17.8232
17.8216
17.8213
17.8167
17.8093
17.8062
17.8141
17.8308
17.8546
17.8822
17.9109
17.9349
17.9551
17.9684
17.9801
18.6358
18.6413
18.632
18.6111
18.5805
18.5446
18.5169
18.4939
18.487
18.4834
18.4706
18.4516
18.4292
18.4073
18.3865
18.3637
18.3334
18.2961
18.2491
18.199
18.1621
18.1475
18.1455
18.1481
18.1429
18.1229
18.0891
18.0461
18.0052
17.9719
17.9512
17.9485
17.9474
17.9461
17.9489
17.9585
17.9706
17.979
17.9747
17.95
17.9056
17.8487
17.8119
17.8041
17.8182
17.8528
17.8942
17.9188
17.9215
17.8994
17.8651
17.8475
17.853
17.8793
17.9277
17.9738
17.9898
17.9838
17.9639
17.9351
17.9132
17.9054
17.8905
17.8671
17.8436
17.8235
17.8072
17.7935
17.7871
17.7879
17.7935
17.8066
17.8234
17.8443
17.8687
17.8931
17.9174
17.9397
17.956
17.9701
18.6352
18.6399
18.6258
18.6015
18.5697
18.5375
18.5165
18.5013
18.5027
18.4973
18.4821
18.4573
18.4264
18.3977
18.3707
18.3445
18.3156
18.2795
18.2327
18.1878
18.1596
18.1527
18.1551
18.1545
18.1468
18.1213
18.0866
18.0459
18.007
17.9775
17.9581
17.9525
17.9546
17.9594
17.967
17.9749
17.9808
17.9809
17.9712
17.9431
17.9064
17.8686
17.8455
17.8407
17.8506
17.8723
17.9034
17.9222
17.9188
17.8946
17.8631
17.8494
17.8577
17.8895
17.948
17.9892
18.0043
17.9964
17.9695
17.9354
17.9111
17.9066
17.8993
17.8817
17.8533
17.8237
17.7906
17.7678
17.7617
17.7702
17.7883
17.8072
17.8269
17.8462
17.8657
17.8861
17.9058
17.9239
17.9366
17.9513
18.6286
18.6291
18.6113
18.5857
18.5586
18.5346
18.519
18.5106
18.5121
18.5041
18.4872
18.458
18.4228
18.3862
18.3518
18.3232
18.296
18.261
18.2217
18.1856
18.1622
18.1575
18.1589
18.1542
18.1433
18.117
18.0845
18.05
18.0162
17.9887
17.9704
17.96
17.9618
17.9691
17.976
17.9779
17.9752
17.9665
17.949
17.9235
17.9005
17.8885
17.8793
17.8734
17.8754
17.8866
17.9017
17.9106
17.9044
17.8874
17.8698
17.8638
17.8767
17.915
17.9632
17.9956
18.0082
18.0034
17.977
17.9425
17.9165
17.9096
17.9041
17.8886
17.8585
17.8196
17.7772
17.7513
17.7457
17.7571
17.7809
17.8091
17.8365
17.8582
17.8747
17.8886
17.8998
17.911
17.9202
17.9334
18.6149
18.6121
18.5934
18.5692
18.5474
18.5311
18.522
18.52
18.5164
18.5045
18.4837
18.4526
18.4143
18.3728
18.3359
18.3068
18.2786
18.2487
18.2194
18.1925
18.1755
18.1688
18.1621
18.1517
18.1355
18.1123
18.086
18.0598
18.0319
18.0054
17.9848
17.9702
17.9668
17.9727
17.9737
17.9691
17.9553
17.9356
17.9147
17.8982
17.8965
17.9056
17.9066
17.899
17.8939
17.8917
17.8876
17.8836
17.8823
17.8811
17.8827
17.8871
17.9062
17.9356
17.9653
17.9904
18.001
17.9977
17.983
17.9546
17.9309
17.9154
17.9043
17.8858
17.8549
17.8123
17.7726
17.7464
17.74
17.7503
17.7776
17.8126
17.847
17.8729
17.8865
17.8922
17.8956
17.8986
17.9021
17.912
18.5959
18.5886
18.573
18.5549
18.5412
18.5331
18.5299
18.527
18.5176
18.4999
18.4725
18.4418
18.4036
18.3623
18.3284
18.2965
18.2684
18.2445
18.2242
18.2086
18.1994
18.1873
18.1697
18.1495
18.1292
18.1108
18.0932
18.0744
18.0518
18.0261
18.0003
17.9792
17.9683
17.9688
17.9638
17.9487
17.9227
17.8956
17.8764
17.873
17.8918
17.9142
17.9232
17.9165
17.9024
17.8837
17.8621
17.8526
17.8592
17.874
17.8913
17.9184
17.935
17.9465
17.9605
17.9737
17.9819
17.9871
17.9859
17.9734
17.9522
17.9276
17.9057
17.8768
17.8428
17.8068
17.7768
17.7536
17.7449
17.7524
17.7784
17.8176
17.8547
17.8803
17.8925
17.8938
17.8899
17.8864
17.8858
17.8927
18.5719
18.5619
18.5524
18.5433
18.5381
18.5361
18.5361
18.5303
18.5153
18.4904
18.4596
18.429
18.3947
18.36
18.3262
18.2931
18.2659
18.2478
18.2385
18.2352
18.2284
18.2089
18.1811
18.1504
18.1265
18.1123
18.1018
18.0891
18.0701
18.0448
18.014
17.986
17.9668
17.9591
17.9459
17.9205
17.8859
17.854
17.8383
17.8479
17.8823
17.9126
17.9314
17.9272
17.9052
17.8674
17.8351
17.826
17.8385
17.8647
17.9072
17.9423
17.9523
17.9485
17.9484
17.9475
17.9566
17.9741
17.9889
17.9945
17.977
17.9452
17.908
17.8674
17.8305
17.8044
17.7841
17.7676
17.7615
17.7656
17.7859
17.8189
17.851
17.8741
17.8854
17.8848
17.8799
17.8764
17.8747
17.8808
18.5457
18.5348
18.5321
18.5326
18.5356
18.5411
18.539
18.5297
18.508
18.4758
18.444
18.4148
18.3856