/*--------------------------------*- C++ -*----------------------------------*\
| =========                 |                                                 |
| \\      /  F ield         | OpenFOAM: The Open Source CFD Toolbox           |
|  \\    /   O peration     | Version:  v1912                                 |
|   \\  /    A nd           | Website:  www.openfoam.com                      |
|    \\/     M anipulation  |                                                 |
\*---------------------------------------------------------------------------*/
FoamFile
{
    version     2.0;
    format      ascii;
    class       volScalarField;
    location    "6.94";
    object      p;
}
// * * * * * * * * * * * * * * * * * * * * * * * * * * * * * * * * * * * * * //

dimensions      [1 -1 -2 0 0 0 0];


internalField   nonuniform List<scalar> 
1900
(
26371.4
9381.84
8532.85
8547.33
8540.47
8541.66
8535.82
8531.04
8517.28
8508.02
26371.4
9381.86
8532.88
8547.35
8540.58
8541.79
8536.51
8529.04
8524.35
8504.13
26371.4
9381.87
8532.89
8547.36
8540.64
8541.91
8536.41
8527.58
8515.69
8493.15
26371.4
9381.86
8532.88
8547.35
8540.58
8541.79
8536.51
8529.04
8524.35
8504.13
26371.4
9381.84
8532.85
8547.33
8540.47
8541.66
8535.82
8531.04
8517.28
8508.02
8630.45
8469.54
8403.57
8232.25
8476.2
8489.57
8381.4
8322.12
8149.83
8036.08
8459.13
8362.81
8308.26
8172.27
8069.51
8489.57
8381.4
8322.12
8149.83
8036.08
8630.45
8469.54
8403.57
8232.25
8476.2
3562.59
2068.41
1464.53
1144
877.442
4026.09
2282.9
1577.6
1231.84
948.285
4136.49
2242.87
1528.9
1196.83
908.915
4026.09
2282.9
1577.6
1231.84
948.285
3562.59
2068.41
1464.53
1144
877.442
845.914
783.625
704.029
578.686
563.896
673.998
1244.34
1422.97
1401.8
1369.35
1305.01
1189.13
1055.17
917.346
759.402
591.029
477.372
430.175
407.249
389.57
373.637
360.344
351.366
346.599
344.514
343.756
343.515
343.866
344.608
346.014
348.06
351.926
356.327
362.806
379.115
438.678
614.505
774.587
905.115
921.687
794.688
754.258
693.207
578.836
562.858
682.718
1262.99
1424.35
1398.39
1366.15
1301.75
1195.23
1064.41
923.468
762.746
592.444
477.795
430.237
407.27
389.645
373.68
360.344
351.34
346.569
344.487
343.732
343.493
343.846
344.589
345.997
348.044
351.918
356.316
362.799
379.094
438.582
614.403
774.974
905.168
921.56
773.097
740.89
688.789
577.103
556.095
683.544
1268.34
1428.71
1400.68
1370.4
1309.53
1196.84
1061
921.343
762.747
593.189
478.07
430.27
407.281
389.679
373.698
360.347
351.332
346.559
344.478
343.724
343.486
343.839
344.582
345.991
348.037
351.914
356.312
362.793
379.088
438.541
614.374
775.108
905.222
921.676
794.688
754.258
693.207
578.836
562.858
682.718
1262.99
1424.35
1398.39
1366.15
1301.75
1195.23
1064.41
923.468
762.746
592.444
477.795
430.237
407.27
389.645
373.68
360.344
351.34
346.569
344.487
343.732
343.493
343.846
344.589
345.997
348.044
351.918
356.316
362.799
379.094
438.582
614.403
774.974
905.168
921.56
845.914
783.625
704.029
578.686
563.896
673.998
1244.34
1422.97
1401.8
1369.35
1305.01
1189.13
1055.17
917.346
759.402
591.029
477.372
430.175
407.249
389.57
373.637
360.344
351.366
346.599
344.514
343.756
343.515
343.866
344.608
346.014
348.06
351.926
356.327
362.806
379.115
438.678
614.505
774.587
905.115
921.687
948.562
846.232
753.335
623.591
600.676
731.029
1192.84
1327.13
1324.8
1317.06
1268.26
1167.45
1042.75
908.126
750.933
584.567
474.902
429.718
407.098
389.27
373.404
360.326
351.474
346.736
344.64
343.865
343.613
343.954
344.69
346.087
348.127
351.951
356.354
362.802
379.197
438.918
614.67
772.848
904.517
921.963
940.536
834.406
736.973
673.746
697.598
839.982
1123.89
1218.96
1258.03
1254.02
1200.07
1105.76
994.944
872.951
724.215
567.521
469.021
428.576
406.615
388.59
372.888
360.242
351.705
347.067
344.953
344.138
343.859
344.177
344.895
346.275
348.295
352.041
356.409
362.799
379.367
439.432
615.138
770.525
903.036
921.76
954.948
860.009
804.416
826.783
870.888
973.783
1088.5
1155.17
1188.71
1163.68
1108.82
1032.68
941.157
829.913
686.583
543.385
461.386
427.031
405.774
387.707
372.295
360.189
352.079
347.607
345.49
344.624
344.301
344.579
345.271
346.623
348.616
352.249
356.55
362.837
379.639
440.278
615.774
768.184
900.783
921.066
959.06
890.099
875.71
904.77
964.216
1028.96
1061.72
1093.57
1086.06
1068.99
1024.85
962.855
884.371
778.637
640.475
516.982
453.989
425.31
404.681
386.736
371.752
360.279
352.663
348.399
346.29
345.365
344.985
345.204
345.86
347.178
349.135
352.639
356.827
363.001
380.072
441.514
616.644
766.235
898.342
920.24
957.642
929.466
928.329
932.443
945.028
965.747
992.705
1008.24
1009.99
981.646
946.569
896.115
824.422
719.188
590.119
492.953
447.69
423.277
403.253
385.677
371.338
360.584
353.506
349.475
347.382
346.393
345.938
346.08
346.691
347.963
349.874
353.235
357.273
363.336
380.681
442.926
617.4
764.393
895.345
918.96
957.489
946.899
895.901
873.721
895.067
926.351
942.118
931.865
922.78
903.828
876.263
832.003
760.267
654.441
543.064
474.884
442.944
421.299
401.801
384.778
371.234
361.25
354.723
350.927
348.85
347.793
347.252
347.305
347.871
349.093
350.955
354.181
358.07
364.048
381.662
445.008
618.985
763.696
893.333
918.25
908.95
934.853
882.683
876.571
882.282
872.178
859.92
856.092
848.118
833.926
811.884
767.506
691.61
590.868
506.474
462.671
438.674
418.779
400.018
383.922
371.3
362.167
356.201
352.644
350.583
349.45
348.819
348.792
349.298
350.462
352.27
355.372
359.129
365.012
382.834
446.802
619.988
762.869
890.832
916.706
957.85
951.802
898.89
856.52
819.65
800.596
790.326
787.797
782.311
772.816
749.94
700.391
621.78
537.195
482.457
454.626
435.149
416.426
398.515
383.485
371.867
363.596
358.161
354.816
352.76
351.547
350.834
350.736
351.167
352.269
354.024
357.02
360.68
366.536
384.575
449.435
622.099
763.181
889.178
915.848
964.772
938.403
880.965
814.67
762.551
735.523
726.942
728.141
725.874
716.901
688.051
632.634
559.766
500.421
468.013
448.526
431.4
413.69
396.985
383.166
372.63
365.205
360.293
357.162
355.128
353.863
353.093
352.935
353.302
354.361
356.077
359.007
362.636
368.541
386.72
452.016
624.061
763.887
887.869
914.641
975.933
942.416
869.07
778.004
706.306
676.115
674.084
677.646
676.173
662.403
625.929
570.107
514.335
479.155
459.229
444.282
428.539
411.655
396.227
383.673
374.267
367.648
363.181
360.212
358.178
356.853
356.016
355.786
356.081
357.092
358.776
361.66
365.3
371.326
389.674
455.513
627.071
765.474
887.068
913.874
987.666
944.952
849.874
737.037
655.008
628.356
631.878
634.42
630.135
608.94
568.52
522.076
487.543
467.384
453.65
440.802
425.846
410.112
396.113
384.864
376.56
370.712
366.668
363.856
361.828
360.449
359.545
359.24
359.459
360.43
362.089
364.961
368.66
374.877
393.306
459.214
629.914
767.721
886.634
912.431
982.222
938.051
830.295
702.142
616.045
594.078
597.893
596.184
585.669
559.314
523.493
493.212
473.8
461.599
451.439
439.398
425.138
410.828
398.324
388.442
381.13
375.866
372.048
369.228
367.073
365.532
364.473
364.026
364.139
365.048
366.692
369.564
373.349
379.83
398.515
464.932
634.724
771.424
887.567
912.505
962.511
923.051
814.324
682.021
592.307
569.532
568.307
562.047
545.906
520.803
495.843
479.533
468.405
459.746
450.789
439.31
425.901
412.739
401.52
392.743
386.242
381.491
377.925
375.162
372.945
371.291
370.131
369.571
369.628
370.591
372.325
375.314
379.3
386.137
405.154
471.483
639.682
776.217
889.373
912.044
948.891
914.862
810.095
676.991
579.636
549.35
541.369
531.229
514.148
497.479
483.99
474.856
468.079
461.697
453.189
441.66
428.721
416.724
406.85
399.224
393.561
389.319
386.005
383.344
381.164
379.576
378.478
378.025
378.191
379.45
381.469
384.802
389.16
396.597
416.51
483.52
650.07
785.279
894.449
914.809
943.43
913.272
814.008
682.305
573.857
534.497
521.838
512.454
501.626
493.998
486.977
481.619
476.837
471.316
462.899
451.783
440.058
429.75
421.531
415.311
410.823
407.549
405.043
403.081
401.527
400.519
399.899
399.824
400.304
401.885
404.123
407.878
412.669
420.983
442.351
510.367
673.562
803.574
901.887
916.704
950.396
923.268
828.892
699.338
578.675
537.222
527.132
523.791
519.177
516.222
512.694
510.496
508.198
504.782
498.877
491.074
483.118
476.448
471.539
468.203
466.583
466.322
466.734
467.506
468.445
469.94
471.084
473.069
475.105
478.186
481.31
486.295
491.299
500.558
523.061
589.52
740.653
851.519
924.204
923.478
946.504
938.494
879.332
771.535
647.89
607.164
601.585
606.194
609.685
615.251
620.137
626.389
631.437
633.999
633.368
630.989
628.585
627.021
626.36
626.432
627.794
630.262
633.028
635.636
637.79
640.139
641.575
643.952
646.02
649.234
651.961
656.27
659.842
667.698
686.855
742.71
864.863
939.978
960.057
922.097
916.813
954.515
949.76
873.184
773.827
740.621
740.635
748.6
756.762
766.423
774.694
782.613
786.897
787.264
784.554
780.678
777.587
776.246
776.509
777.82
779.181
779.046
777.5
775.693
774.083
773.384
772.525
772.613
772.944
774.39
776.099
778.95
782.263
788.899
803.343
844.622
930.235
1003.56
995.92
901.165
1088.87
849.818
984.797
943.448
888.003
866.459
868.014
874.242
882.35
891.899
900.216
907.384
910.374
910.069
907.323
904.121
901.812
900.752
900.434
900.156
899.876
899.302
898.074
896.314
893.979
892.273
890.084
888.615
887.333
886.743
886.277
886.794
887.608
891.058
896.441
916.603
951.079
992.064
862.047
990.055
16947.9
915.893
879.098
886.259
872.16
865.217
869.055
875.436
884.365
892.349
898.704
903.343
905.023
905.093
904.882
905.43
906.487
907.771
908.819
909.442
910.198
911.184
912.028
912.538
912.594
912.987
912.538
912.866
912.706
913.019
912.458
913.137
912.655
914.85
915.695
922.21
921.762
906.126
973.63
13216.6
16947.9
915.893
879.098
886.259
872.16
865.217
869.055
875.436
884.365
892.349
898.704
903.343
905.023
905.093
904.882
905.43
906.487
907.771
908.819
909.442
910.198
911.184
912.028
912.538
912.594
912.987
912.538
912.866
912.706
913.019
912.458
913.137
912.655
914.85
915.695
922.21
921.762
906.126
973.63
13216.6
1088.87
849.818
984.797
943.448
888.003
866.459
868.014
874.242
882.35
891.899
900.216
907.384
910.374
910.069
907.323
904.121
901.812
900.752
900.434
900.156
899.876
899.302
898.074
896.314
893.979
892.273
890.084
888.615
887.333
886.743
886.277
886.794
887.608
891.058
896.441
916.603
951.079
992.064
862.047
990.055
916.813
954.515
949.76
873.184
773.827
740.621
740.635
748.6
756.762
766.423
774.694
782.613
786.897
787.264
784.554
780.678
777.587
776.246
776.509
777.82
779.181
779.046
777.5
775.693
774.083
773.384
772.525
772.613
772.944
774.39
776.099
778.95
782.263
788.899
803.343
844.622
930.235
1003.56
995.92
901.165
946.504
938.494
879.332
771.535
647.89
607.164
601.585
606.194
609.685
615.251
620.137
626.389
631.437
633.999
633.368
630.989
628.585
627.021
626.36
626.432
627.794
630.262
633.028
635.636
637.79
640.139
641.575
643.952
646.02
649.234
651.961
656.27
659.842
667.698
686.855
742.71
864.863
939.978
960.057
922.097
950.396
923.268
828.892
699.338
578.675
537.222
527.132
523.791
519.177
516.222
512.694
510.496
508.198
504.782
498.877
491.074
483.118
476.448
471.539
468.203
466.583
466.322
466.734
467.506
468.445
469.94
471.084
473.069
475.105
478.186
481.31
486.295
491.299
500.558
523.061
589.52
740.653
851.519
924.204
923.478
943.43
913.272
814.008
682.305
573.857
534.497
521.838
512.454
501.626
493.998
486.977
481.619
476.837
471.316
462.899
451.783
440.058
429.75
421.531
415.311
410.823
407.549
405.043
403.081
401.527
400.519
399.899
399.824
400.304
401.885
404.123
407.878
412.669
420.983
442.351
510.367
673.562
803.574
901.887
916.704
948.891
914.862
810.095
676.991
579.636
549.35
541.369
531.229
514.148
497.479
483.99
474.856
468.079
461.697
453.189
441.66
428.721
416.724
406.85
399.224
393.561
389.319
386.005
383.344
381.164
379.576
378.478
378.025
378.191
379.45
381.469
384.802
389.16
396.597
416.51
483.52
650.07
785.279
894.449
914.809
962.511
923.051
814.324
682.021
592.307
569.532
568.307
562.047
545.906
520.803
495.843
479.533
468.405
459.746
450.789
439.31
425.901
412.739
401.52
392.743
386.242
381.491
377.925
375.162
372.945
371.291
370.131
369.571
369.628
370.591
372.325
375.314
379.3
386.137
405.154
471.483
639.682
776.217
889.373
912.044
982.222
938.051
830.295
702.142
616.045
594.078
597.893
596.184
585.669
559.314
523.493
493.212
473.8
461.599
451.439
439.398
425.138
410.828
398.324
388.442
381.13
375.866
372.048
369.228
367.073
365.532
364.473
364.026
364.139
365.048
366.692
369.564
373.349
379.83
398.515
464.932
634.724
771.424
887.567
912.505
987.666
944.952
849.874
737.037
655.008
628.356
631.878
634.42
630.135
608.94
568.52
522.076
487.543
467.384
453.65
440.802
425.846
410.112
396.113
384.864
376.56
370.712
366.668
363.856
361.828
360.449
359.545
359.24
359.459
360.43
362.089
364.961
368.66
374.877
393.306
459.214
629.914
767.721
886.634
912.431
975.933
942.416
869.07
778.004
706.306
676.115
674.084
677.646
676.173
662.403
625.929
570.107
514.335
479.155
459.229
444.282
428.539
411.655
396.227
383.673
374.267
367.648
363.181
360.212
358.178
356.853
356.016
355.786
356.081
357.092
358.776
361.66
365.3
371.326
389.674
455.513
627.071
765.474
887.068
913.874
964.772
938.403
880.965
814.67
762.551
735.523
726.942
728.141
725.874
716.901
688.051
632.634
559.766
500.421
468.013
448.526
431.4
413.69
396.985
383.166
372.63
365.205
360.293
357.162
355.128
353.863
353.093
352.935
353.302
354.361
356.077
359.007
362.636
368.541
386.72
452.016
624.061
763.887
887.869
914.641
957.85
951.802
898.89
856.52
819.65
800.596
790.326
787.797
782.311
772.816
749.94
700.391
621.78
537.195
482.457
454.626
435.149
416.426
398.515
383.485
371.867
363.596
358.161
354.816
352.76
351.547
350.834
350.736
351.167
352.269
354.024
357.02
360.68
366.536
384.575
449.435
622.099
763.181
889.178
915.848
908.95
934.853
882.683
876.571
882.282
872.178
859.92
856.092
848.118
833.926
811.884
767.506
691.61
590.868
506.474
462.671
438.674
418.779
400.018
383.922
371.3
362.167
356.201
352.644
350.583
349.45
348.819
348.792
349.298
350.462
352.27
355.372
359.129
365.012
382.834
446.802
619.988
762.869
890.832
916.706
957.489
946.899
895.901
873.721
895.067
926.351
942.118
931.865
922.78
903.828
876.263
832.003
760.267
654.441
543.064
474.884
442.944
421.299
401.801
384.778
371.234
361.25
354.723
350.927
348.85
347.793
347.252
347.305
347.871
349.093
350.955
354.181
358.07
364.048
381.662
445.008
618.985
763.696
893.333
918.25
957.642
929.466
928.329
932.443
945.028
965.747
992.705
1008.24
1009.99
981.646
946.569
896.115
824.422
719.188
590.119
492.953
447.69
423.277
403.253
385.677
371.338
360.584
353.506
349.475
347.382
346.393
345.938
346.08
346.691
347.963
349.874
353.235
357.273
363.336
380.681
442.926
617.4
764.393
895.345
918.96
959.06
890.099
875.71
904.77
964.216
1028.96
1061.72
1093.57
1086.06
1068.99
1024.85
962.855
884.371
778.637
640.475
516.982
453.989
425.31
404.681
386.736
371.752
360.279
352.663
348.399
346.29
345.365
344.985
345.204
345.86
347.178
349.135
352.639
356.827
363.001
380.072
441.514
616.644
766.235
898.342
920.24
954.948
860.009
804.416
826.783
870.888
973.783
1088.5
1155.17
1188.71
1163.68
1108.82
1032.68
941.157
829.913
686.583
543.385
461.386
427.031
405.774
387.707
372.295
360.189
352.079
347.607
345.49
344.624
344.301
344.579
345.271
346.623
348.616
352.249
356.55
362.837
379.639
440.278
615.774
768.184
900.783
921.066
940.536
834.406
736.973
673.746
697.598
839.982
1123.89
1218.96
1258.03
1254.02
1200.07
1105.76
994.944
872.951
724.215
567.521
469.021
428.576
406.615
388.59
372.888
360.242
351.705
347.067
344.953
344.138
343.859
344.177
344.895
346.275
348.295
352.041
356.409
362.799
379.367
439.432
615.138
770.525
903.036
921.76
948.562
846.232
753.335
623.591
600.676
731.029
1192.84
1327.13
1324.8
1317.06
1268.26
1167.45
1042.75
908.126
750.933
584.567
474.902
429.718
407.098
389.27
373.404
360.326
351.474
346.736
344.64
343.865
343.613
343.954
344.69
346.087
348.127
351.951
356.354
362.802
379.197
438.918
614.67
772.848
904.517
921.963
)
;

boundaryField
{
    inlet
    {
        type            fixedValue;
        value           uniform 10000;
    }
    outlet
    {
        type            fixedValue;
        value           uniform 1000;
    }
    obstacle
    {
        type            zeroGradient;
    }
    empty
    {
        type            empty;
    }
}


// ************************************************************************* //
