/*--------------------------------*- C++ -*----------------------------------*\
| =========                 |                                                 |
| \\      /  F ield         | OpenFOAM: The Open Source CFD Toolbox           |
|  \\    /   O peration     | Version:  v1912                                 |
|   \\  /    A nd           | Website:  www.openfoam.com                      |
|    \\/     M anipulation  |                                                 |
\*---------------------------------------------------------------------------*/
FoamFile
{
    version     2.0;
    format      ascii;
    class       volScalarField;
    location    "6.94";
    object      T;
}
// * * * * * * * * * * * * * * * * * * * * * * * * * * * * * * * * * * * * * //

dimensions      [0 0 0 1 0 0 0];


internalField   nonuniform List<scalar> 
1900
(
1.2357
0.949373
0.918039
0.921741
0.930567
0.942687
0.952114
0.956889
0.958122
0.958072
1.2357
0.949373
0.91804
0.921743
0.930572
0.942682
0.952102
0.956801
0.958406
0.958124
1.2357
0.949374
0.91804
0.921743
0.930575
0.942684
0.952088
0.95673
0.958113
0.957862
1.2357
0.949373
0.91804
0.921743
0.930572
0.942682
0.952102
0.956801
0.958406
0.958124
1.2357
0.949373
0.918039
0.921741
0.930567
0.942687
0.952114
0.956889
0.958122
0.958072
0.961583
0.957174
0.960011
0.96824
1.00764
0.957286
0.954227
0.956337
0.962999
0.989597
0.956514
0.953601
0.955306
0.962532
0.987663
0.957286
0.954227
0.956337
0.962999
0.989597
0.961583
0.957174
0.960011
0.96824
1.00764
0.798748
0.682936
0.619551
0.57543
0.542489
0.818602
0.69942
0.632332
0.588859
0.550031
0.818515
0.693759
0.626034
0.584052
0.541894
0.818602
0.69942
0.632332
0.588859
0.550031
0.798748
0.682936
0.619551
0.57543
0.542489
0.517401
0.497646
0.479134
0.454822
0.456284
0.484579
0.604651
0.626946
0.616612
0.592405
0.566039
0.543129
0.525577
0.506421
0.480146
0.446645
0.419528
0.407024
0.400701
0.395656
0.39096
0.386929
0.384146
0.382645
0.381981
0.381735
0.381654
0.381764
0.381998
0.382443
0.383087
0.384301
0.385671
0.387668
0.392596
0.409779
0.451774
0.486714
0.519477
0.527334
0.523772
0.511295
0.494343
0.465952
0.46363
0.491886
0.614308
0.630575
0.61805
0.592408
0.565787
0.544002
0.526852
0.507371
0.480756
0.44696
0.419637
0.407041
0.400707
0.395678
0.390974
0.386931
0.384139
0.382636
0.381973
0.381728
0.381648
0.381759
0.381993
0.382438
0.383083
0.3843
0.385669
0.387667
0.392591
0.409752
0.451751
0.486803
0.519506
0.527301
0.521348
0.513017
0.499328
0.471066
0.465163
0.495042
0.617709
0.63232
0.618996
0.593073
0.566938
0.544218
0.52636
0.507025
0.48075
0.447129
0.41971
0.40705
0.40071
0.395688
0.39098
0.386932
0.384136
0.382633
0.38197
0.381726
0.381646
0.381757
0.381991
0.382436
0.383081
0.384298
0.385668
0.387666
0.39259
0.40974
0.451743
0.486829
0.519519
0.527325
0.523772
0.511295
0.494343
0.465952
0.46363
0.491886
0.614308
0.630575
0.61805
0.592408
0.565787
0.544002
0.526852
0.507371
0.480756
0.44696
0.419637
0.407041
0.400707
0.395678
0.390974
0.386931
0.384139
0.382636
0.381973
0.381728
0.381648
0.381759
0.381993
0.382438
0.383083
0.3843
0.385669
0.387667
0.392591
0.409752
0.451751
0.486803
0.519506
0.527301
0.517401
0.497646
0.479134
0.454822
0.456284
0.484579
0.604651
0.626946
0.616612
0.592405
0.566039
0.543129
0.525577
0.506421
0.480146
0.446645
0.419528
0.407024
0.400701
0.395656
0.39096
0.386929
0.384146
0.382645
0.381981
0.381735
0.381654
0.381764
0.381998
0.382443
0.383087
0.384301
0.385671
0.387668
0.392596
0.409779
0.451774
0.486714
0.519477
0.527334
0.470154
0.466777
0.46107
0.448619
0.451115
0.483767
0.583678
0.606442
0.598539
0.580276
0.559208
0.540087
0.524092
0.505077
0.478591
0.445195
0.41888
0.406896
0.400655
0.395564
0.390884
0.386918
0.384174
0.382682
0.382015
0.381764
0.38168
0.381787
0.382018
0.38246
0.383103
0.384303
0.385674
0.387661
0.392616
0.409842
0.451801
0.486334
0.519335
0.527429
0.434254
0.434422
0.436235
0.442545
0.455848
0.495763
0.565962
0.582009
0.577203
0.563392
0.546565
0.531819
0.517604
0.499452
0.473541
0.44131
0.417335
0.40658
0.400515
0.395359
0.390721
0.386883
0.384237
0.382778
0.382105
0.381842
0.381749
0.381849
0.382075
0.382511
0.383147
0.384322
0.385683
0.387653
0.39266
0.409978
0.451887
0.485848
0.519075
0.527477
0.437813
0.438189
0.445696
0.46252
0.485632
0.524335
0.560527
0.564633
0.557724
0.544445
0.532126
0.52209
0.509767
0.49215
0.466181
0.435669
0.415318
0.406156
0.400275
0.395097
0.390537
0.38686
0.384347
0.382941
0.382269
0.38199
0.381883
0.38197
0.382188
0.382615
0.383242
0.384381
0.38572
0.38766
0.392738
0.410205
0.452006
0.485378
0.518736
0.527475
0.449114
0.451708
0.463062
0.484278
0.514947
0.546116
0.553064
0.547275
0.535067
0.527468
0.520376
0.512378
0.50076
0.483009
0.4568
0.429302
0.413356
0.405686
0.399966
0.394811
0.390371
0.386884
0.384525
0.383187
0.382519
0.382222
0.382097
0.382166
0.382372
0.382787
0.383403
0.384501
0.385804
0.387709
0.392866
0.410537
0.452165
0.484974
0.518389
0.527489
0.466521
0.473115
0.487995
0.507828
0.526952
0.537962
0.534811
0.525265
0.519576
0.514025
0.509459
0.502217
0.490609
0.471974
0.446035
0.423331
0.411685
0.405133
0.399564
0.394501
0.390245
0.386977
0.384788
0.383525
0.382863
0.382547
0.382399
0.382443
0.382635
0.383035
0.383635
0.384688
0.385943
0.387813
0.393049
0.410914
0.452288
0.484563
0.517919
0.527415
0.488452
0.497977
0.504906
0.514612
0.523877
0.523398
0.515916
0.50791
0.505199
0.502586
0.498721
0.49159
0.479218
0.45931
0.43536
0.41873
0.410426
0.404596
0.399154
0.394239
0.390215
0.387182
0.385167
0.383982
0.383327
0.38299
0.382816
0.382832
0.383009
0.383393
0.383976
0.384985
0.386192
0.388033
0.393344
0.411472
0.452589
0.48437
0.517592
0.527338
0.509129
0.519477
0.515223
0.514961
0.5127
0.503044
0.496114
0.494611
0.493567
0.491587
0.487979
0.480292
0.466415
0.446007
0.426597
0.41558
0.409292
0.403905
0.398647
0.393988
0.390236
0.387465
0.385628
0.38452
0.383873
0.383514
0.383311
0.383302
0.38346
0.383825
0.38439
0.385358
0.386522
0.38833
0.393694
0.411945
0.452755
0.484124
0.517146
0.527173
0.530796
0.525385
0.51389
0.50378
0.491838
0.485755
0.483638
0.483553
0.482758
0.48109
0.476984
0.46792
0.452449
0.43389
0.420611
0.41349
0.408352
0.403257
0.398219
0.393861
0.390408
0.387904
0.386236
0.385199
0.384556
0.384174
0.383946
0.383914
0.384049
0.384394
0.38494
0.385871
0.387002
0.388797
0.394211
0.41264
0.453152
0.48411
0.516869
0.527125
0.532938
0.519722
0.503932
0.489714
0.47908
0.474097
0.472827
0.473159
0.47266
0.470894
0.465464
0.454601
0.439024
0.425068
0.416939
0.411896
0.407346
0.402498
0.397781
0.393767
0.390638
0.388396
0.386894
0.385928
0.385295
0.384898
0.384654
0.384603
0.384718
0.385047
0.38558
0.386487
0.387603
0.389407
0.394842
0.413313
0.453507
0.48413
0.516635
0.527075
0.535831
0.518042
0.497869
0.481781
0.46911
0.46341
0.462956
0.463547
0.463175
0.460447
0.453146
0.441279
0.428423
0.41976
0.41468
0.410781
0.406573
0.401932
0.397563
0.393917
0.39113
0.389139
0.387781
0.38687
0.38624
0.385828
0.385565
0.385492
0.385583
0.385896
0.386416
0.387304
0.388418
0.390248
0.395706
0.41422
0.454062
0.484296
0.516496
0.527164
0.539836
0.518784
0.493812
0.474541
0.459452
0.453882
0.454444
0.454848
0.453955
0.449591
0.4409
0.430265
0.421863
0.416775
0.413235
0.409859
0.405841
0.401498
0.397529
0.394266
0.391814
0.390064
0.388842
0.387985
0.387363
0.386937
0.386655
0.38656
0.386627
0.386926
0.387434
0.388313
0.389438
0.391312
0.396759
0.415162
0.454549
0.484528
0.516392
0.527245
0.540738
0.518907
0.490673
0.467982
0.451376
0.446543
0.447272
0.446845
0.444586
0.438815
0.430575
0.423258
0.418403
0.415292
0.41266
0.409487
0.405648
0.401699
0.398163
0.395311
0.393169
0.391609
0.390467
0.389617
0.388964
0.388493
0.388168
0.388029
0.388064
0.388341
0.38884
0.389711
0.390851
0.392787
0.39826
0.416614
0.455414
0.484988
0.516519
0.527584
0.539203
0.517844
0.488171
0.46392
0.446208
0.441126
0.440785
0.439379
0.435748
0.429934
0.423908
0.419851
0.417035
0.414817
0.412491
0.409465
0.405858
0.402234
0.399075
0.396559
0.394671
0.393277
0.392222
0.3914
0.390735
0.390236
0.389884
0.389713
0.38973
0.39002
0.390541
0.391437
0.392623
0.394641
0.400147
0.418244
0.456256
0.485528
0.51671
0.528
0.537445
0.517352
0.487736
0.462877
0.443413
0.436589
0.43472
0.432375
0.428339
0.4243
0.420958
0.418669
0.416953
0.415321
0.413121
0.410094
0.40663
0.403345
0.400587
0.398424
0.396799
0.395572
0.394607
0.393827
0.393185
0.392714
0.392386
0.39225
0.392298
0.392671
0.393267
0.394248
0.395521
0.397675
0.403329
0.421224
0.458154
0.486756
0.517376
0.52893
0.53691
0.517679
0.488608
0.463927
0.44218
0.433188
0.430168
0.427913
0.425285
0.423431
0.4217
0.420368
0.419173
0.417784
0.415644
0.412774
0.409689
0.406923
0.404682
0.402966
0.401718
0.400803
0.400101
0.39955
0.399111
0.398827
0.39865
0.398631
0.398769
0.399224
0.399863
0.400929
0.402274
0.404583
0.410396
0.427762
0.462601
0.489515
0.518203
0.529472
0.53823
0.519745
0.49133
0.46719
0.443253
0.433806
0.431401
0.4306
0.429509
0.428827
0.427998
0.427486
0.426953
0.426156
0.424754
0.422874
0.42093
0.419282
0.41806
0.417229
0.416843
0.416812
0.416956
0.41719
0.41746
0.417865
0.418169
0.418686
0.419207
0.41999
0.420767
0.421999
0.423202
0.425428
0.430774
0.445707
0.474832
0.497005
0.521069
0.530456
0.537318
0.521929
0.499412
0.479904
0.457421
0.448914
0.447691
0.44867
0.449439
0.450666
0.451748
0.453107
0.454208
0.45479
0.454721
0.454296
0.453854
0.453573
0.453458
0.453483
0.453794
0.454365
0.455008
0.4556
0.456074
0.45657
0.456851
0.457319
0.45771
0.458318
0.458795
0.459563
0.460133
0.461522
0.465077
0.475172
0.495011
0.510339
0.525905
0.529743
0.527525
0.524169
0.512277
0.49756
0.481163
0.475158
0.475218
0.476914
0.478651
0.480791
0.48269
0.484534
0.485681
0.486062
0.485886
0.485494
0.485204
0.485186
0.485434
0.485839
0.486232
0.48635
0.48617
0.485893
0.485604
0.485486
0.485302
0.48531
0.485333
0.485536
0.485725
0.48608
0.4864
0.48726
0.489403
0.495905
0.508974
0.52293
0.531511
0.521057
0.421889
0.494214
0.528201
0.520686
0.512013
0.508592
0.508879
0.510224
0.511802
0.513762
0.5155
0.517079
0.517913
0.518155
0.518006
0.517777
0.517654
0.517729
0.517928
0.518068
0.518112
0.518026
0.517774
0.517407
0.516961
0.516665
0.516294
0.516088
0.515895
0.515818
0.515727
0.515802
0.515846
0.516282
0.51683
0.519498
0.524269
0.530657
0.497581
0.417046
0.321182
0.407686
0.520211
0.528583
0.526697
0.525269
0.52543
0.525738
0.526598
0.527166
0.527547
0.527747
0.527554
0.527179
0.526883
0.526797
0.526811
0.526929
0.527102
0.527182
0.527153
0.527038
0.526883
0.526762
0.526641
0.526583
0.526483
0.526515
0.526513
0.526629
0.526711
0.527043
0.527339
0.528068
0.528421
0.529389
0.528792
0.521441
0.422416
0.321764
0.321182
0.407686
0.520211
0.528583
0.526697
0.525269
0.52543
0.525738
0.526598
0.527166
0.527547
0.527747
0.527554
0.527179
0.526883
0.526797
0.526811
0.526929
0.527102
0.527182
0.527153
0.527038
0.526883
0.526762
0.526641
0.526583
0.526483
0.526515
0.526513
0.526629
0.526711
0.527043
0.527339
0.528068
0.528421
0.529389
0.528792
0.521441
0.422416
0.321764
0.421889
0.494214
0.528201
0.520686
0.512013
0.508592
0.508879
0.510224
0.511802
0.513762
0.5155
0.517079
0.517913
0.518155
0.518006
0.517777
0.517654
0.517729
0.517928
0.518068
0.518112
0.518026
0.517774
0.517407
0.516961
0.516665
0.516294
0.516088
0.515895
0.515818
0.515727
0.515802
0.515846
0.516282
0.51683
0.519498
0.524269
0.530657
0.497581
0.417046
0.527525
0.524169
0.512277
0.49756
0.481163
0.475158
0.475218
0.476914
0.478651
0.480791
0.48269
0.484534
0.485681
0.486062
0.485886
0.485494
0.485204
0.485186
0.485434
0.485839
0.486232
0.48635
0.48617
0.485893
0.485604
0.485486
0.485302
0.48531
0.485333
0.485536
0.485725
0.48608
0.4864
0.48726
0.489403
0.495905
0.508974
0.52293
0.531511
0.521057
0.537318
0.521929
0.499412
0.479904
0.457421
0.448914
0.447691
0.44867
0.449439
0.450666
0.451748
0.453107
0.454208
0.45479
0.454721
0.454296
0.453854
0.453573
0.453458
0.453483
0.453794
0.454365
0.455008
0.4556
0.456074
0.45657
0.456851
0.457319
0.45771
0.458318
0.458795
0.459563
0.460133
0.461522
0.465077
0.475172
0.495011
0.510339
0.525905
0.529743
0.53823
0.519745
0.49133
0.46719
0.443253
0.433806
0.431401
0.4306
0.429509
0.428827
0.427998
0.427486
0.426953
0.426156
0.424754
0.422874
0.42093
0.419282
0.41806
0.417229
0.416843
0.416812
0.416956
0.41719
0.41746
0.417865
0.418169
0.418686
0.419207
0.41999
0.420767
0.421999
0.423202
0.425428
0.430774
0.445707
0.474832
0.497005
0.521069
0.530456
0.53691
0.517679
0.488608
0.463927
0.44218
0.433188
0.430168
0.427913
0.425285
0.423431
0.4217
0.420368
0.419173
0.417784
0.415644
0.412774
0.409689
0.406923
0.404682
0.402966
0.401718
0.400803
0.400101
0.39955
0.399111
0.398827
0.39865
0.398631
0.398769
0.399224
0.399863
0.400929
0.402274
0.404583
0.410396
0.427762
0.462601
0.489515
0.518203
0.529472
0.537445
0.517352
0.487736
0.462877
0.443413
0.436589
0.43472
0.432375
0.428339
0.4243
0.420958
0.418669
0.416953
0.415321
0.413121
0.410094
0.40663
0.403345
0.400587
0.398424
0.396799
0.395572
0.394607
0.393827
0.393185
0.392714
0.392386
0.39225
0.392298
0.392671
0.393267
0.394248
0.395521
0.397675
0.403329
0.421224
0.458154
0.486756
0.517376
0.52893
0.539203
0.517844
0.488171
0.46392
0.446208
0.441126
0.440785
0.439379
0.435748
0.429934
0.423908
0.419851
0.417035
0.414817
0.412491
0.409465
0.405858
0.402234
0.399075
0.396559
0.394671
0.393277
0.392222
0.3914
0.390735
0.390236
0.389884
0.389713
0.38973
0.39002
0.390541
0.391437
0.392623
0.394641
0.400147
0.418244
0.456256
0.485528
0.51671
0.528
0.540738
0.518907
0.490673
0.467982
0.451376
0.446543
0.447272
0.446845
0.444586
0.438815
0.430575
0.423258
0.418403
0.415292
0.41266
0.409487
0.405648
0.401699
0.398163
0.395311
0.393169
0.391609
0.390467
0.389617
0.388964
0.388493
0.388168
0.388029
0.388064
0.388341
0.38884
0.389711
0.390851
0.392787
0.39826
0.416614
0.455414
0.484988
0.516519
0.527584
0.539836
0.518784
0.493812
0.474541
0.459452
0.453882
0.454444
0.454848
0.453955
0.449591
0.4409
0.430265
0.421863
0.416775
0.413235
0.409859
0.405841
0.401498
0.397529
0.394266
0.391814
0.390064
0.388842
0.387985
0.387363
0.386937
0.386655
0.38656
0.386627
0.386926
0.387434
0.388313
0.389438
0.391312
0.396759
0.415162
0.454549
0.484528
0.516392
0.527245
0.535831
0.518042
0.497869
0.481781
0.46911
0.46341
0.462956
0.463547
0.463175
0.460447
0.453146
0.441279
0.428423
0.41976
0.41468
0.410781
0.406573
0.401932
0.397563
0.393917
0.39113
0.389139
0.387781
0.38687
0.38624
0.385828
0.385565
0.385492
0.385583
0.385896
0.386416
0.387304
0.388418
0.390248
0.395706
0.41422
0.454062
0.484296
0.516496
0.527164
0.532938
0.519722
0.503932
0.489714
0.47908
0.474097
0.472827
0.473159
0.47266
0.470894
0.465464
0.454601
0.439024
0.425068
0.416939
0.411896
0.407346
0.402498
0.397781
0.393767
0.390638
0.388396
0.386894
0.385928
0.385295
0.384898
0.384654
0.384603
0.384718
0.385047
0.38558
0.386487
0.387603
0.389407
0.394842
0.413313
0.453507
0.48413
0.516635
0.527075
0.530796
0.525385
0.51389
0.50378
0.491838
0.485755
0.483638
0.483553
0.482758
0.48109
0.476984
0.46792
0.452449
0.43389
0.420611
0.41349
0.408352
0.403257
0.398219
0.393861
0.390408
0.387904
0.386236
0.385199
0.384556
0.384174
0.383946
0.383914
0.384049
0.384394
0.38494
0.385871
0.387002
0.388797
0.394211
0.41264
0.453152
0.48411
0.516869
0.527125
0.509129
0.519477
0.515223
0.514961
0.5127
0.503044
0.496114
0.494611
0.493567
0.491587
0.487979
0.480292
0.466415
0.446007
0.426597
0.41558
0.409292
0.403905
0.398647
0.393988
0.390236
0.387465
0.385628
0.38452
0.383873
0.383514
0.383311
0.383302
0.38346
0.383825
0.38439
0.385358
0.386522
0.38833
0.393694
0.411945
0.452755
0.484124
0.517146
0.527173
0.488452
0.497977
0.504906
0.514612
0.523877
0.523398
0.515916
0.50791
0.505199
0.502586
0.498721
0.49159
0.479218
0.45931
0.43536
0.41873
0.410426
0.404596
0.399154
0.394239
0.390215
0.387182
0.385167
0.383982
0.383327
0.38299
0.382816
0.382832
0.383009
0.383393
0.383976
0.384985
0.386192
0.388033
0.393344
0.411472
0.452589
0.48437
0.517592
0.527338
0.466521
0.473115
0.487995
0.507828
0.526952
0.537962
0.534811
0.525265
0.519576
0.514025
0.509459
0.502217
0.490609
0.471974
0.446035
0.423331
0.411685
0.405133
0.399564
0.394501
0.390245
0.386977
0.384788
0.383525
0.382863
0.382547
0.382399
0.382443
0.382635
0.383035
0.383635
0.384688
0.385943
0.387813
0.393049
0.410914
0.452288
0.484563
0.517919
0.527415
0.449114
0.451708
0.463062
0.484278
0.514947
0.546116
0.553064
0.547275
0.535067
0.527468
0.520376
0.512378
0.50076
0.483009
0.4568
0.429302
0.413356
0.405686
0.399966
0.394811
0.390371
0.386884
0.384525
0.383187
0.382519
0.382222
0.382097
0.382166
0.382372
0.382787
0.383403
0.384501
0.385804
0.387709
0.392866
0.410537
0.452165
0.484974
0.518389
0.527489
0.437813
0.438189
0.445696
0.46252
0.485632
0.524335
0.560527
0.564633
0.557724
0.544445
0.532126
0.52209
0.509767
0.49215
0.466181
0.435669
0.415318
0.406156
0.400275
0.395097
0.390537
0.38686
0.384347
0.382941
0.382269
0.38199
0.381883
0.38197
0.382188
0.382615
0.383242
0.384381
0.38572
0.38766
0.392738
0.410205
0.452006
0.485378
0.518736
0.527475
0.434254
0.434422
0.436235
0.442545
0.455848
0.495763
0.565962
0.582009
0.577203
0.563392
0.546565
0.531819
0.517604
0.499452
0.473541
0.44131
0.417335
0.40658
0.400515
0.395359
0.390721
0.386883
0.384237
0.382778
0.382105
0.381842
0.381749
0.381849
0.382075
0.382511
0.383147
0.384322
0.385683
0.387653
0.39266
0.409978
0.451887
0.485848
0.519075
0.527477
0.470154
0.466777
0.46107
0.448619
0.451115
0.483767
0.583678
0.606442
0.598539
0.580276
0.559208
0.540087
0.524092
0.505077
0.478591
0.445195
0.41888
0.406896
0.400655
0.395564
0.390884
0.386918
0.384174
0.382682
0.382015
0.381764
0.38168
0.381787
0.382018
0.38246
0.383103
0.384303
0.385674
0.387661
0.392616
0.409842
0.451801
0.486334
0.519335
0.527429
)
;

boundaryField
{
    inlet
    {
        type            fixedValue;
        value           uniform 1;
    }
    outlet
    {
        type            zeroGradient;
    }
    obstacle
    {
        type            zeroGradient;
    }
    empty
    {
        type            empty;
    }
}


// ************************************************************************* //
