/*--------------------------------*- C++ -*----------------------------------*\
| =========                 |                                                 |
| \\      /  F ield         | OpenFOAM: The Open Source CFD Toolbox           |
|  \\    /   O peration     | Version:  v1912                                 |
|   \\  /    A nd           | Website:  www.openfoam.com                      |
|    \\/     M anipulation  |                                                 |
\*---------------------------------------------------------------------------*/
FoamFile
{
    version     2.0;
    format      ascii;
    class       volScalarField;
    location    "5.4";
    object      rho;
}
// * * * * * * * * * * * * * * * * * * * * * * * * * * * * * * * * * * * * * //

dimensions      [1 -3 0 0 0 0 0];


internalField   nonuniform List<scalar> 
1900
(
42152.4
16500.6
14065.7
13607.3
13316.4
13191.4
13105.9
13027.4
12955.6
12895.2
42152.4
16500.4
14065.8
13606.9
13316.1
13191.4
13106.9
13031.5
12967.7
12884.1
42152.4
16500.4
14065.8
13607
13316.4
13192.3
13107.7
13028.5
12956
12870.3
42152.4
16500.4
14065.8
13606.9
13316.1
13191.4
13106.9
13031.5
12967.7
12884.1
42152.4
16500.6
14065.7
13607.3
13316.4
13191.4
13105.9
13027.4
12955.6
12895.2
12980.1
12800.3
12685.4
12389.6
12359.7
12821.9
12691.2
12602.1
12316.8
11902.7
12793.9
12673.8
12585.8
12340.8
12005.7
12821.9
12691.2
12602.1
12316.8
11902.7
12980.1
12800.3
12685.4
12389.6
12359.7
7281.79
6016.03
6015.57
5790.61
5394.91
7942.55
6255.09
6162.04
5896
5568.51
8106.18
6194.7
6064.67
5823.3
5488.21
7942.55
6255.09
6162.04
5896
5568.51
7281.79
6016.03
6015.57
5790.61
5394.91
3630.11
2903.39
3415.37
4274.8
4332.67
4050.74
3646.43
3291.36
3028.57
2859.79
2727.97
2601.96
2482.6
2382.12
2313.89
2273.7
2248.24
2228.7
2211.89
2197.17
2184.82
2174.88
2167.04
2161.08
2156.7
2153.76
2151.99
2151.72
2153.36
2158.27
2165.38
2177.65
2191.14
2211.23
2229.95
2264.87
2297.6
2369.39
2697.4
5767.76
4003.67
2882.56
3512.84
4466.28
4434.95
4097.12
3667.21
3300.2
3032.3
2861.33
2728.52
2602.88
2483.38
2382.41
2313.88
2273.61
2248.15
2228.61
2211.81
2197.08
2184.73
2174.79
2166.94
2160.98
2156.6
2153.65
2151.89
2151.61
2153.25
2158.16
2165.27
2177.56
2191.04
2211.19
2229.81
2264.89
2297.51
2369.41
2694.71
5751.79
4062.03
2905.7
3447.73
4408.94
4410.51
4112.3
3678.07
3304.14
3033.61
2861.86
2728.74
2603.34
2483.67
2382.5
2313.87
2273.58
2248.12
2228.59
2211.79
2197.06
2184.71
2174.76
2166.91
2160.95
2156.57
2153.62
2151.85
2151.57
2153.21
2158.12
2165.23
2177.53
2191.01
2211.19
2229.8
2264.98
2297.7
2369.87
2693.61
5744.27
4003.67
2882.56
3512.84
4466.28
4434.95
4097.12
3667.21
3300.2
3032.3
2861.33
2728.52
2602.88
2483.38
2382.41
2313.88
2273.61
2248.15
2228.61
2211.81
2197.08
2184.73
2174.79
2166.94
2160.98
2156.6
2153.65
2151.89
2151.61
2153.25
2158.16
2165.27
2177.56
2191.04
2211.19
2229.81
2264.89
2297.51
2369.41
2694.71
5751.79
3630.11
2903.39
3415.37
4274.8
4332.67
4050.74
3646.43
3291.36
3028.57
2859.79
2727.97
2601.96
2482.6
2382.12
2313.89
2273.7
2248.24
2228.7
2211.89
2197.17
2184.82
2174.88
2167.04
2161.08
2156.7
2153.76
2151.99
2151.72
2153.36
2158.27
2165.38
2177.65
2191.14
2211.23
2229.95
2264.87
2297.6
2369.39
2697.4
5767.76
3025.62
2847.21
3503.24
4042.17
4091.73
3891.9
3575.49
3256.59
3011.1
2852.14
2723.33
2597.04
2478.43
2380.25
2313.63
2273.96
2248.54
2228.96
2212.15
2197.44
2185.13
2175.21
2167.38
2161.43
2157.06
2154.12
2152.37
2152.11
2153.76
2158.65
2165.74
2177.92
2191.41
2211.28
2230.35
2264.63
2297.94
2367.57
2704.08
5968.53
3188.78
2834.04
3200.52
3581.55
3726.74
3607.19
3409.3
3162.13
2966.99
2831.13
2709.61
2584.65
2468.84
2375.87
2312.94
2274.52
2249.22
2229.55
2212.72
2198.08
2185.84
2175.99
2168.2
2162.27
2157.92
2155.02
2153.3
2153.07
2154.75
2159.62
2166.66
2178.66
2192.08
2211.62
2231.14
2264.5
2298.23
2363.08
2700.24
5726.45
3533.13
2824.9
3002.73
3336.23
3410.14
3372.84
3233.26
3053.92
2911.94
2800.32
2687.27
2566.7
2455.93
2369.81
2311.62
2275.02
2250.03
2230.32
2213.51
2198.97
2186.86
2177.1
2169.37
2163.49
2159.18
2156.34
2154.69
2154.54
2156.27
2161.12
2168.1
2179.84
2193.19
2212.37
2232.34
2264.57
2298.33
2358.23
2698.46
5637.13
3802.85
2729.84
2877.24
3138.81
3201.51
3167.65
3069.44
2954.18
2854.49
2764
2658.5
2544.47
2440.95
2362.73
2309.76
2275.29
2250.78
2231.12
2214.39
2199.98
2188.03
2178.4
2170.76
2164.96
2160.73
2157.97
2156.44
2156.44
2158.23
2163.09
2170.02
2181.46
2194.73
2213.59
2233.83
2265.08
2298
2355.4
2703.96
5573.29
3885
2642.36
2814.3
2993.37
3017.77
2995.58
2935.47
2868.15
2798.64
2722.93
2624.88
2518.9
2424.98
2355.2
2307.6
2275.33
2251.4
2231.89
2215.3
2201.08
2189.31
2179.84
2172.32
2166.64
2162.53
2159.91
2158.52
2158.73
2160.63
2165.49
2172.34
2183.46
2196.6
2215.1
2235.44
2265.88
2297.27
2354.03
2706.53
5500.11
3937.89
2595.47
2779.46
2856.9
2876.53
2864.4
2834.64
2797.71
2749.26
2681.81
2590
2492.84
2409.48
2348.15
2305.53
2275.31
2252
2232.73
2216.34
2202.33
2190.78
2181.48
2174.12
2168.61
2164.68
2162.23
2161.04
2161.54
2163.58
2168.49
2175.28
2186.09
2199.1
2217.31
2237.71
2267.67
2297.73
2355.24
2711.86
5426.62
3976
2552.34
2716.58
2731.11
2776.45
2772.86
2761.39
2739.29
2701.26
2638.14
2553.1
2466.65
2394.49
2341.37
2303.37
2275.09
2252.54
2233.64
2217.53
2203.79
2192.47
2183.37
2176.19
2170.86
2167.13
2164.87
2163.88
2164.66
2166.82
2171.69
2178.32
2188.71
2201.44
2219.21
2239.49
2268.87
2297.39
2356.15
2712.36
5339.97
4032.18
2519.09
2649.68
2662.62
2708.76
2707.41
2705.26
2690.74
2656.62
2596.07
2518.56
2443.56
2382.17
2336.37
2302.25
2275.69
2253.94
2235.46
2219.67
2206.2
2195.13
2186.24
2179.26
2174.15
2170.64
2168.6
2167.84
2168.95
2171.22
2176.04
2182.47
2192.4
2204.78
2222.06
2242.16
2270.97
2298.59
2358.4
2713.86
5241.13
4077.54
2490.41
2600.72
2615.79
2662.61
2660.59
2660.79
2647.29
2612.46
2554.92
2486.41
2422.96
2371.37
2332.07
2301.4
2276.64
2255.85
2237.97
2222.62
2209.48
2198.68
2190.02
2183.23
2178.3
2174.97
2173.11
2172.51
2173.85
2176.09
2180.71
2186.78
2196.08
2207.9
2224.52
2244.24
2272.43
2299.16
2359.85
2711.35
5130.92
4111.31
2470.52
2557.31
2578.31
2625.64
2622.13
2621.87
2606.4
2570.07
2517.35
2459
2406.84
2364.16
2330.57
2303.3
2280.36
2260.56
2243.39
2228.56
2215.8
2205.27
2196.8
2190.13
2185.3
2182.03
2180.21
2179.62
2181.02
2183.05
2187.26
2192.75
2201.21
2212.27
2228.06
2247.29
2274.83
2301.09
2362.19
2708.49
5009.91
4150.56
2457.74
2530.27
2554.02
2597.83
2591.14
2587.56
2568.59
2532.09
2485.82
2437.5
2395.3
2360.01
2330.95
2306.57
2285.29
2266.64
2250.28
2236.03
2223.67
2213.43
2205.16
2198.62
2193.88
2190.69
2188.92
2188.31
2189.72
2191.46
2195.18
2199.97
2207.48
2217.61
2232.42
2251.01
2277.81
2303.46
2364.61
2703.37
4884.91
4142.49
2453.31
2514.26
2536.3
2573.63
2563.31
2555.42
2533.84
2499.37
2461.14
2422.56
2389.31
2360.44
2335.73
2313.71
2294.26
2276.92
2261.56
2248.02
2236.13
2226.16
2217.97
2211.39
2206.53
2203.18
2201.29
2200.44
2201.61
2202.87
2205.88
2209.75
2216.06
2225.02
2238.64
2256.47
2282.48
2307.59
2368.64
2699.39
4743.73
4146.79
2452.93
2507.92
2524.24
2552.55
2539.4
2527.85
2506.38
2475.88
2444.87
2414.5
2387.88
2364.14
2342.47
2322.74
2304.74
2288.44
2273.83
2260.84
2249.35
2239.69
2231.74
2225.32
2220.61
2217.36
2215.58
2214.71
2215.79
2216.69
2219.14
2222.21
2227.47
2235.38
2248.05
2265.35
2290.94
2315.79
2376.59
2696.68
4618.82
4082.71
2458.95
2510.69
2520.7
2538.12
2521.65
2506.35
2486.47
2461.25
2437.76
2414.89
2393.89
2373.72
2355.08
2337.42
2320.99
2305.9
2292.25
2280.01
2269
2259.53
2251.47
2244.85
2239.94
2236.53
2234.68
2233.57
2234.35
2234.75
2236.57
2238.82
2243.03
2249.99
2261.8
2278.93
2304.31
2328.86
2390.48
2699.68
4481.54
4024.1
2469.08
2518.85
2520.78
2527.14
2510.73
2494.28
2477.64
2457.89
2440.65
2421.78
2404.63
2387.39
2370.81
2354.6
2339.1
2324.46
2310.89
2298.53
2287.49
2278.42
2271.11
2265.25
2260.94
2257.89
2256.3
2255.21
2256.02
2256.22
2257.74
2259.43
2262.92
2269.25
2280.71
2298.31
2324.5
2349.99
2413.64
2711.5
4388.78
4023.7
2495.81
2540.37
2534.68
2532.97
2516.87
2500.51
2487.05
2471.01
2457.46
2442.42
2428.12
2413.05
2398.44
2383.87
2369.88
2356.61
2344.31
2333.03
2322.66
2313.66
2305.86
2299.25
2294.26
2290.61
2288.64
2287.08
2287.51
2287.19
2288.17
2289.07
2291.7
2297.34
2308.38
2326.57
2353.62
2379.52
2446.81
2737.11
4375.52
4085.55
2533.26
2567.56
2555.19
2546.22
2529.14
2513.98
2503.28
2490.45
2479.28
2466.2
2453.98
2440.62
2428.15
2415.71
2403.72
2391.77
2379.64
2367.64
2356.57
2347.92
2341.39
2335.82
2330.73
2325.93
2322.82
2319.79
2319.28
2318.01
2318.61
2319.06
2321.28
2326.53
2337.34
2356.25
2384.53
2410.34
2479.38
2767.05
4419.7
4293.78
2601.57
2627.12
2606.11
2589.53
2571.47
2557.53
2549.18
2539.91
2531.28
2520.43
2509.5
2496.68
2484.37
2471.82
2460.49
2450.63
2442.45
2435.27
2427.45
2418.98
2409.71
2400.02
2392.48
2386.91
2384.72
2383.2
2383.65
2383.26
2384.34
2385.25
2387.5
2392.51
2403.99
2424.58
2457.35
2485.68
2555.01
2821.13
4585.04
14913.4
3548.97
3086.28
3031.6
3019.25
3000.66
2994.96
2986.87
2981.26
2970.95
2957.25
2941.64
2921.17
2899.32
2873.81
2847.14
2818.8
2791.88
2770.69
2753.4
2745.08
2746.23
2744.13
2751.54
2752.74
2757.93
2758.07
2760.46
2758.57
2757.07
2752.18
2747.01
2741.92
2741.42
2749.76
2773.88
2803.03
2850.07
3654.15
14147.9
176225
14997.5
5705.15
5550.2
5559.57
5613.79
5739.97
5833.16
5918.2
5987.39
6028.61
6052.32
6057.85
6047.25
6024.75
5993.88
5956.18
5913.24
5874.66
5831.46
5798.39
5765.49
5714.06
5656.13
5577.36
5497.85
5406.96
5304.46
5191.82
5067.66
4936.32
4785.07
4645.78
4480.68
4365.78
4311.01
4334.56
4448.89
13566.7
158522
176225
14997.5
5705.15
5550.2
5559.57
5613.79
5739.97
5833.16
5918.2
5987.39
6028.61
6052.32
6057.85
6047.25
6024.75
5993.88
5956.18
5913.24
5874.66
5831.46
5798.39
5765.49
5714.06
5656.13
5577.36
5497.85
5406.96
5304.46
5191.82
5067.66
4936.32
4785.07
4645.78
4480.68
4365.78
4311.01
4334.56
4448.89
13566.7
158522
14913.4
3548.97
3086.28
3031.6
3019.25
3000.66
2994.96
2986.87
2981.26
2970.95
2957.25
2941.64
2921.17
2899.32
2873.81
2847.14
2818.8
2791.88
2770.69
2753.4
2745.08
2746.23
2744.13
2751.54
2752.74
2757.93
2758.07
2760.46
2758.57
2757.07
2752.18
2747.01
2741.92
2741.42
2749.76
2773.88
2803.03
2850.07
3654.15
14147.9
4293.78
2601.57
2627.12
2606.11
2589.53
2571.47
2557.53
2549.18
2539.91
2531.28
2520.43
2509.5
2496.68
2484.37
2471.82
2460.49
2450.63
2442.45
2435.27
2427.45
2418.98
2409.71
2400.02
2392.48
2386.91
2384.72
2383.2
2383.65
2383.26
2384.34
2385.25
2387.5
2392.51
2403.99
2424.58
2457.35
2485.68
2555.01
2821.13
4585.04
4085.55
2533.26
2567.56
2555.19
2546.22
2529.14
2513.98
2503.28
2490.45
2479.28
2466.2
2453.98
2440.62
2428.15
2415.71
2403.72
2391.77
2379.64
2367.64
2356.57
2347.92
2341.39
2335.82
2330.73
2325.93
2322.82
2319.79
2319.28
2318.01
2318.61
2319.06
2321.28
2326.53
2337.34
2356.25
2384.53
2410.34
2479.38
2767.05
4419.7
4023.7
2495.81
2540.37
2534.68
2532.97
2516.87
2500.51
2487.05
2471.01
2457.46
2442.42
2428.12
2413.05
2398.44
2383.87
2369.88
2356.61
2344.31
2333.03
2322.66
2313.66
2305.86
2299.25
2294.26
2290.61
2288.64
2287.08
2287.51
2287.19
2288.17
2289.07
2291.7
2297.34
2308.38
2326.57
2353.62
2379.52
2446.81
2737.11
4375.52
4024.1
2469.08
2518.85
2520.78
2527.14
2510.73
2494.28
2477.64
2457.89
2440.65
2421.78
2404.63
2387.39
2370.81
2354.6
2339.1
2324.46
2310.89
2298.53
2287.49
2278.42
2271.11
2265.25
2260.94
2257.89
2256.3
2255.21
2256.02
2256.22
2257.74
2259.43
2262.92
2269.25
2280.71
2298.31
2324.5
2349.99
2413.64
2711.5
4388.78
4082.71
2458.95
2510.69
2520.7
2538.12
2521.65
2506.35
2486.47
2461.25
2437.76
2414.89
2393.89
2373.72
2355.08
2337.42
2320.99
2305.9
2292.25
2280.01
2269
2259.53
2251.47
2244.85
2239.94
2236.53
2234.68
2233.57
2234.35
2234.75
2236.57
2238.82
2243.03
2249.99
2261.8
2278.93
2304.31
2328.86
2390.48
2699.68
4481.54
4146.79
2452.93
2507.92
2524.24
2552.55
2539.4
2527.85
2506.38
2475.88
2444.87
2414.5
2387.88
2364.14
2342.47
2322.74
2304.74
2288.44
2273.83
2260.84
2249.35
2239.69
2231.74
2225.32
2220.61
2217.36
2215.58
2214.71
2215.79
2216.69
2219.14
2222.21
2227.47
2235.38
2248.05
2265.35
2290.94
2315.79
2376.59
2696.68
4618.82
4142.49
2453.31
2514.26
2536.3
2573.63
2563.31
2555.42
2533.84
2499.37
2461.14
2422.56
2389.31
2360.44
2335.73
2313.71
2294.26
2276.92
2261.56
2248.02
2236.13
2226.16
2217.97
2211.39
2206.53
2203.18
2201.29
2200.44
2201.61
2202.87
2205.88
2209.75
2216.06
2225.02
2238.64
2256.47
2282.48
2307.59
2368.64
2699.39
4743.73
4150.56
2457.74
2530.27
2554.02
2597.83
2591.14
2587.56
2568.59
2532.09
2485.82
2437.5
2395.3
2360.01
2330.95
2306.57
2285.29
2266.64
2250.28
2236.03
2223.67
2213.43
2205.16
2198.62
2193.88
2190.69
2188.92
2188.31
2189.72
2191.46
2195.18
2199.97
2207.48
2217.61
2232.42
2251.01
2277.81
2303.46
2364.61
2703.37
4884.91
4111.31
2470.52
2557.31
2578.31
2625.64
2622.13
2621.87
2606.4
2570.07
2517.35
2459
2406.84
2364.16
2330.57
2303.3
2280.36
2260.56
2243.39
2228.56
2215.8
2205.27
2196.8
2190.13
2185.3
2182.03
2180.21
2179.62
2181.02
2183.05
2187.26
2192.75
2201.21
2212.27
2228.06
2247.29
2274.83
2301.09
2362.19
2708.49
5009.91
4077.54
2490.41
2600.72
2615.79
2662.61
2660.59
2660.79
2647.29
2612.46
2554.92
2486.41
2422.96
2371.37
2332.07
2301.4
2276.64
2255.85
2237.97
2222.62
2209.48
2198.68
2190.02
2183.23
2178.3
2174.97
2173.11
2172.51
2173.85
2176.09
2180.71
2186.78
2196.08
2207.9
2224.52
2244.24
2272.43
2299.16
2359.85
2711.35
5130.92
4032.18
2519.09
2649.68
2662.62
2708.76
2707.41
2705.26
2690.74
2656.62
2596.07
2518.56
2443.56
2382.17
2336.37
2302.25
2275.69
2253.94
2235.46
2219.67
2206.2
2195.13
2186.24
2179.26
2174.15
2170.64
2168.6
2167.84
2168.95
2171.22
2176.04
2182.47
2192.4
2204.78
2222.06
2242.16
2270.97
2298.59
2358.4
2713.86
5241.13
3976
2552.34
2716.58
2731.11
2776.45
2772.86
2761.39
2739.29
2701.26
2638.14
2553.1
2466.65
2394.49
2341.37
2303.37
2275.09
2252.54
2233.64
2217.53
2203.79
2192.47
2183.37
2176.19
2170.86
2167.13
2164.87
2163.88
2164.66
2166.82
2171.69
2178.32
2188.71
2201.44
2219.21
2239.49
2268.87
2297.39
2356.15
2712.36
5339.97
3937.89
2595.47
2779.46
2856.9
2876.53
2864.4
2834.64
2797.71
2749.26
2681.81
2590
2492.84
2409.48
2348.15
2305.53
2275.31
2252
2232.73
2216.34
2202.33
2190.78
2181.48
2174.12
2168.61
2164.68
2162.23
2161.04
2161.54
2163.58
2168.49
2175.28
2186.09
2199.1
2217.31
2237.71
2267.67
2297.73
2355.24
2711.86
5426.62
3885
2642.36
2814.3
2993.37
3017.77
2995.58
2935.47
2868.15
2798.64
2722.93
2624.88
2518.9
2424.98
2355.2
2307.6
2275.33
2251.4
2231.89
2215.3
2201.08
2189.31
2179.84
2172.32
2166.64
2162.53
2159.91
2158.52
2158.73
2160.63
2165.49
2172.34
2183.46
2196.6
2215.1
2235.44
2265.88
2297.27
2354.03
2706.53
5500.11
3802.85
2729.84
2877.24
3138.81
3201.51
3167.65
3069.44
2954.18
2854.49
2764
2658.5
2544.47
2440.95
2362.73
2309.76
2275.29
2250.78
2231.12
2214.39
2199.98
2188.03
2178.4
2170.76
2164.96
2160.73
2157.97
2156.44
2156.44
2158.23
2163.09
2170.02
2181.46
2194.73
2213.59
2233.83
2265.08
2298
2355.4
2703.96
5573.29
3533.13
2824.9
3002.73
3336.23
3410.14
3372.84
3233.26
3053.92
2911.94
2800.32
2687.27
2566.7
2455.93
2369.81
2311.62
2275.02
2250.03
2230.32
2213.51
2198.97
2186.86
2177.1
2169.37
2163.49
2159.18
2156.34
2154.69
2154.54
2156.27
2161.12
2168.1
2179.84
2193.19
2212.37
2232.34
2264.57
2298.33
2358.23
2698.46
5637.13
3188.78
2834.04
3200.52
3581.55
3726.74
3607.19
3409.3
3162.13
2966.99
2831.13
2709.61
2584.65
2468.84
2375.87
2312.94
2274.52
2249.22
2229.55
2212.72
2198.08
2185.84
2175.99
2168.2
2162.27
2157.92
2155.02
2153.3
2153.07
2154.75
2159.62
2166.66
2178.66
2192.08
2211.62
2231.14
2264.5
2298.23
2363.08
2700.24
5726.45
3025.62
2847.21
3503.24
4042.17
4091.73
3891.9
3575.49
3256.59
3011.1
2852.14
2723.33
2597.04
2478.43
2380.25
2313.63
2273.96
2248.54
2228.96
2212.15
2197.44
2185.13
2175.21
2167.38
2161.43
2157.06
2154.12
2152.37
2152.11
2153.76
2158.65
2165.74
2177.92
2191.41
2211.28
2230.35
2264.63
2297.94
2367.57
2704.08
5968.53
)
;

boundaryField
{
    inlet
    {
        type            calculated;
        value           uniform 14000.1;
    }
    outlet
    {
        type            calculated;
        value           nonuniform List<scalar> 
165
(
2565.39
2740.43
2951.82
3060.3
3119.65
3171.74
3228.24
3276.63
3308.12
3323.58
3324.29
3325.44
3314.4
3310.74
3293.57
3256.23
3209.01
3144.9
3788.06
4051
4051
3715.83
3187.8
3255.08
3304.15
3345.49
3369.99
3393.74
3414.15
3430.61
3447.9
3464.44
3480.22
3496.98
3513.07
3528.06
3540.27
3549.68
3555.56
3558.69
3561.98
3567.51
3568.57
3568.53
3563.29
3555.31
3544.8
3535.53
3523.48
3511.44
3496.39
3482.05
3460.6
3438.6
3403.4
3348.11
3291.91
3221.1
3762.11
4065.91
3580.31
3605.53
3585.86
3570.93
3561.46
3554.45
3545.93
3537.72
3527.14
3516.56
3502.7
3489.22
3468.44
3445.49
3410.99
3356.78
3299.46
3220.76
3759.77
4065.91
3611.94
3603.09
3599.69
3603.09
3611.94
4065.91
3759.77
3220.76
3299.46
3356.78
3410.99
3445.49
3468.44
3489.22
3502.7
3516.56
3527.14
3537.72
3545.93
3554.45
3561.46
3570.93
3585.86
3605.53
3580.31
4051
3715.83
3187.8
3255.08
3304.15
3345.49
3369.99
3393.74
3414.15
3430.61
3447.9
3464.44
3480.22
3496.98
3513.07
3528.06
3540.27
3549.68
3555.56
3558.69
3561.98
3567.51
3568.57
3568.53
3563.29
3555.31
3544.8
3535.53
3523.48
3511.44
3496.39
3482.05
3460.6
3438.6
3403.4
3348.11
3291.91
3221.1
3762.11
4065.91
4051
3788.06
3144.9
3209.01
3256.23
3293.57
3310.74
3314.4
3325.44
3324.29
3323.58
3308.12
3276.63
3228.24
3171.74
3119.65
3060.3
2951.82
2740.43
2565.39
)
;
    }
    obstacle
    {
        type            calculated;
        value           nonuniform List<scalar> 
40
(
42152.4
16500.6
14065.7
13607.3
13316.4
13191.4
13105.9
13027.4
12955.6
12895.2
42152.4
16500.6
14065.7
13607.3
13316.4
13191.4
13105.9
13027.4
12955.6
12895.2
12980.1
12800.3
12685.4
12389.6
12359.7
12980.1
12800.3
12685.4
12389.6
12359.7
7281.79
6016.03
6015.57
5790.61
5394.91
7281.79
6016.03
6015.57
5790.61
5394.91
)
;
    }
    empty
    {
        type            empty;
    }
}


// ************************************************************************* //
