/*--------------------------------*- C++ -*----------------------------------*\
| =========                 |                                                 |
| \\      /  F ield         | OpenFOAM: The Open Source CFD Toolbox           |
|  \\    /   O peration     | Version:  v1912                                 |
|   \\  /    A nd           | Website:  www.openfoam.com                      |
|    \\/     M anipulation  |                                                 |
\*---------------------------------------------------------------------------*/
FoamFile
{
    version     2.0;
    format      ascii;
    class       volScalarField;
    location    "8.92";
    object      Ma;
}
// * * * * * * * * * * * * * * * * * * * * * * * * * * * * * * * * * * * * * //

dimensions      [0 0 0 0 0 0 0];


internalField   nonuniform List<scalar> 
1900
(
0.443655
0.107387
0.129088
0.138918
0.13159
0.118694
0.113471
0.110226
0.108679
0.0955294
0.443654
0.107388
0.129091
0.138915
0.131578
0.118636
0.113312
0.109879
0.108706
0.109281
0.443655
0.107389
0.129093
0.138907
0.131554
0.118556
0.113193
0.110157
0.110305
0.11628
0.443654
0.107388
0.129091
0.138915
0.131578
0.118636
0.113312
0.109879
0.108706
0.109281
0.443655
0.107387
0.129088
0.138918
0.13159
0.118694
0.113471
0.110226
0.108679
0.0955294
0.104618
0.145278
0.19854
0.284911
0.433884
0.124869
0.149268
0.181265
0.247814
0.393534
0.132194
0.155187
0.187124
0.251017
0.390573
0.124869
0.149268
0.181265
0.247814
0.393534
0.104618
0.145278
0.19854
0.284911
0.433884
0.949128
1.33981
1.60885
1.78541
1.9733
0.907339
1.33933
1.62996
1.80571
1.99623
0.902764
1.34815
1.63034
1.80037
1.99211
0.907339
1.33933
1.62996
1.80571
1.99623
0.949128
1.33981
1.60885
1.78541
1.9733
2.05152
2.12328
2.14167
2.19295
2.2162
2.2543
2.30564
2.36301
2.41861
2.45848
2.50257
2.58967
2.60941
2.56877
2.29106
1.87032
1.72187
1.69509
1.68923
1.67663
1.62992
1.55905
1.47531
1.41028
1.35771
1.30509
1.25658
0.771816
0.139348
0.370215
0.511297
0.539495
0.555007
0.56668
0.574118
0.583117
0.595897
0.607653
0.614576
0.618381
2.03836
1.99819
1.97807
2.0371
2.07697
2.1295
2.19191
2.25984
2.32709
2.37473
2.4298
2.52448
2.55824
2.51925
2.23296
1.82515
1.68831
1.67323
1.67627
1.67082
1.634
1.57391
1.49942
1.41835
1.35181
1.29699
1.25338
0.777597
0.142085
0.366545
0.509979
0.538119
0.553384
0.565209
0.573372
0.583692
0.59779
0.610193
0.61719
0.620854
2.03579
1.99893
1.93703
1.98913
2.02621
2.08339
2.15144
2.22371
2.29428
2.34461
2.40362
2.50069
2.53937
2.501
2.2119
1.80871
1.6775
1.66642
1.6725
1.67021
1.63185
1.57124
1.49407
1.4179
1.35735
1.30339
1.26032
0.784977
0.142879
0.366356
0.509697
0.537699
0.552753
0.564397
0.57234
0.582392
0.596385
0.608927
0.616234
0.620302
2.03836
1.99819
1.97807
2.0371
2.07697
2.1295
2.19191
2.25984
2.32709
2.37473
2.4298
2.52448
2.55824
2.51925
2.23296
1.82515
1.68831
1.67323
1.67627
1.67082
1.634
1.57391
1.49942
1.41835
1.35181
1.29699
1.25338
0.777597
0.142085
0.366545
0.509979
0.538119
0.553384
0.565209
0.573372
0.583692
0.59779
0.610193
0.61719
0.620854
2.05152
2.12328
2.14167
2.19295
2.2162
2.2543
2.30564
2.36301
2.41861
2.45848
2.50257
2.58967
2.60941
2.56877
2.29106
1.87032
1.72187
1.69509
1.68923
1.67663
1.62992
1.55905
1.47531
1.41028
1.35771
1.30509
1.25658
0.771816
0.139348
0.370215
0.511297
0.539495
0.555007
0.56668
0.574118
0.583117
0.595897
0.607653
0.614576
0.618381
2.49027
2.52203
2.54105
2.56189
2.56482
2.57416
2.59025
2.60825
2.62653
2.6425
2.66532
2.72542
2.73657
2.69457
2.438
1.97803
1.80562
1.75166
1.72393
1.69364
1.63414
1.55507
1.47568
1.41128
1.36199
1.3106
1.26333
0.780127
0.138596
0.381891
0.511802
0.539153
0.555022
0.566704
0.573662
0.581338
0.592156
0.602446
0.608957
0.612974
2.98932
2.99227
3.00247
3.00266
2.99801
2.98796
2.96577
2.94637
2.92737
2.90164
2.89442
2.91857
2.91352
2.85954
2.61377
2.11081
1.91094
1.82279
1.77017
1.71464
1.63376
1.54501
1.4692
1.4105
1.35814
1.30375
1.24899
0.748925
0.126315
0.399707
0.513497
0.539207
0.555287
0.566647
0.573146
0.580062
0.589722
0.599235
0.605947
0.611009
3.12793
3.12796
3.10768
3.08931
3.07983
3.07381
3.06489
3.05437
3.03595
3.01066
2.99999
2.9954
2.98373
2.91827
2.65169
2.13474
1.94065
1.84372
1.78385
1.72404
1.63142
1.53784
1.45496
1.38892
1.33358
1.27957
1.21904
0.708444
0.123884
0.422504
0.514734
0.538378
0.555517
0.56719
0.573903
0.580651
0.589605
0.59828
0.604692
0.610033
3.12124
3.12195
3.11873
3.1082
3.09682
3.08564
3.07904
3.07388
3.0611
3.05521
3.05723
3.03057
2.95232
2.85855
2.54869
2.1219
1.96451
1.86145
1.78324
1.68576
1.57445
1.48276
1.40916
1.35543
1.30681
1.25719
1.18881
0.661068
0.146117
0.445867
0.518837
0.54044
0.558881
0.571383
0.578975
0.586166
0.59449
0.60181
0.607192
0.611944
3.03033
3.03055
3.03684
3.04604
3.04943
3.04808
3.05097
3.04683
3.03653
3.04396
3.04109
2.95948
2.8807
2.75738
2.4261
2.12703
1.98474
1.86097
1.7514
1.62532
1.51016
1.428
1.3696
1.3269
1.28268
1.23555
1.15097
0.595979
0.175811
0.460798
0.515717
0.535328
0.554132
0.566748
0.575494
0.584495
0.593469
0.600176
0.604805
0.608925
2.93043
2.92903
2.93273
2.94097
2.94581
2.94971
2.95631
2.95998
2.96416
2.99231
2.97735
2.87129
2.79044
2.62319
2.31988
2.10397
1.95876
1.82513
1.6888
1.54856
1.44819
1.38327
1.33804
1.29614
1.24569
1.195
1.07383
0.460203
0.228708
0.451939
0.48828
0.508945
0.533342
0.552843
0.566942
0.579951
0.594422
0.604411
0.609863
0.613454
2.8239
2.82302
2.82488
2.83016
2.83468
2.84254
2.85049
2.8544
2.86471
2.89703
2.8619
2.74703
2.65029
2.46008
2.20431
2.03811
1.88926
1.73733
1.58861
1.4737
1.39615
1.34161
1.29172
1.23435
1.1625
1.08102
0.833655
0.187702
0.346124
0.457372
0.45553
0.460525
0.474856
0.495961
0.521368
0.550562
0.578106
0.597376
0.608794
0.613731
2.71167
2.71147
2.71298
2.71536
2.71876
2.72499
2.73182
2.73047
2.73626
2.75222
2.68014
2.60015
2.45728
2.26662
2.08701
1.92371
1.77559
1.62517
1.48532
1.39621
1.32551
1.25742
1.16529
1.04691
0.945441
0.862139
0.55265
0.257671
0.453974
0.478316
0.450137
0.434895
0.43064
0.433432
0.44961
0.484706
0.528377
0.573458
0.602459
0.616759
2.57363
2.57403
2.57552
2.5773
2.58084
2.58632
2.58861
2.58828
2.59418
2.57264
2.49489
2.40069
2.25345
2.06935
1.926
1.77511
1.60478
1.45389
1.3631
1.26002
1.13929
1.00254
0.891727
0.819153
0.77376
0.709239
0.443376
0.36245
0.47807
0.469468
0.436098
0.410312
0.396353
0.387787
0.387906
0.412481
0.452534
0.516765
0.571597
0.612543
2.39662
2.39795
2.40146
2.40668
2.41453
2.42286
2.42671
2.42296
2.40405
2.35195
2.27145
2.15954
2.03503
1.88692
1.70984
1.5233
1.38111
1.21833
1.06771
0.93181
0.82733
0.766981
0.717564
0.693375
0.685383
0.598907
0.390704
0.403157
0.458712
0.439554
0.409375
0.381752
0.356373
0.347685
0.335139
0.352732
0.381234
0.442989
0.51596
0.586318
2.17989
2.18247
2.18961
2.20026
2.21117
2.21886
2.22129
2.20525
2.1605
2.09725
2.01713
1.88462
1.71922
1.54855
1.34401
1.10467
0.93693
0.823283
0.741299
0.699868
0.662451
0.643349
0.641979
0.61746
0.575483
0.47616
0.416668
0.42192
0.421646
0.402767
0.371358
0.342039
0.309298
0.296666
0.279744
0.293767
0.32301
0.380407
0.451527
0.524344
1.91613
1.92054
1.92575
1.92869
1.91641
1.88633
1.84141
1.78035
1.70187
1.60965
1.49549
1.34117
1.12433
0.907263
0.757685
0.673207
0.62863
0.61343
0.596575
0.590061
0.586357
0.567383
0.546362
0.515478
0.48248
0.460546
0.465286
0.423709
0.398259
0.373426
0.340119
0.310416
0.27154
0.248215
0.223169
0.233726
0.272152
0.329986
0.386428
0.44378
1.56075
1.56032
1.51092
1.43518
1.36303
1.28582
1.19768
1.09776
0.993477
0.884926
0.771465
0.667959
0.578306
0.5245
0.509639
0.513417
0.510783
0.517274
0.514348
0.508984
0.496103
0.472021
0.45046
0.442714
0.465933
0.506572
0.493832
0.430481
0.390514
0.358783
0.312049
0.274259
0.227139
0.193962
0.161424
0.171285
0.211645
0.273144
0.320523
0.363386
1.12032
1.0626
0.966867
0.86446
0.780378
0.707683
0.635674
0.558837
0.484238
0.429873
0.409715
0.410724
0.410851
0.41435
0.419544
0.432892
0.436827
0.43508
0.429589
0.414753
0.401456
0.393925
0.392525
0.439319
0.498719
0.52871
0.514335
0.445563
0.38827
0.348616
0.302889
0.257206
0.200955
0.151141
0.100669
0.105529
0.159419
0.23573
0.281994
0.31093
0.715345
0.662606
0.591594
0.519258
0.454189
0.402473
0.368693
0.348671
0.336291
0.335308
0.337137
0.335271
0.340808
0.35244
0.359397
0.35875
0.355888
0.347247
0.338123
0.331459
0.32939
0.344363
0.408445
0.485165
0.52022
0.53657
0.530269
0.47283
0.403283
0.348296
0.292409
0.238123
0.175843
0.110693
0.0430502
0.0505262
0.131049
0.208706
0.254391
0.27373
0.617238
0.586944
0.546047
0.496746
0.455684
0.421354
0.393641
0.370071
0.345054
0.321655
0.30703
0.300186
0.302597
0.301008
0.294838
0.283195
0.271662
0.262638
0.260161
0.266611
0.30568
0.390292
0.466679
0.508111
0.530578
0.545878
0.545357
0.507368
0.437097
0.373482
0.313198
0.255348
0.192917
0.126697
0.0727881
0.0663662
0.148587
0.23136
0.284157
0.295226
0.680368
0.64403
0.601003
0.562801
0.523843
0.486782
0.447785
0.406075
0.362076
0.321571
0.291624
0.273153
0.264011
0.247336
0.226079
0.202078
0.188006
0.19118
0.222027
0.292683
0.389291
0.460183
0.500159
0.52665
0.540611
0.557072
0.560303
0.542853
0.482231
0.408214
0.343665
0.294441
0.236432
0.183404
0.147665
0.153423
0.206032
0.276945
0.331226
0.333651
0.715539
0.690733
0.662647
0.631627
0.594659
0.555445
0.514857
0.470575
0.422519
0.373407
0.326125
0.279821
0.233218
0.184705
0.142437
0.116954
0.142376
0.213557
0.309898
0.403178
0.463704
0.500096
0.521703
0.538085
0.54904
0.564912
0.572216
0.569162
0.533592
0.470531
0.402212
0.350682
0.294609
0.25525
0.219696
0.234297
0.276195
0.339266
0.394006
0.393344
0.748873
0.738841
0.707752
0.676816
0.646434
0.610176
0.573912
0.532931
0.486599
0.433929
0.373575
0.307873
0.230591
0.130583
0.0292906
0.10848
0.228162
0.337713
0.420768
0.468767
0.499987
0.518953
0.532603
0.546372
0.555848
0.570774
0.58024
0.585752
0.574205
0.53444
0.473597
0.41063
0.343296
0.300047
0.262889
0.284383
0.326576
0.38992
0.453045
0.477642
0.72117
0.725461
0.696357
0.678336
0.666718
0.659669
0.654286
0.638695
0.614637
0.572664
0.502322
0.389535
0.235118
0.0659133
0.117622
0.267837
0.379161
0.447865
0.483647
0.504459
0.518084
0.531157
0.543496
0.555773
0.563513
0.576133
0.584641
0.594142
0.598324
0.588687
0.546211
0.470506
0.388607
0.330302
0.282988
0.297725
0.329105
0.388596
0.475736
0.503233
0.72117
0.725461
0.696357
0.678336
0.666718
0.659669
0.654286
0.638695
0.614637
0.572664
0.502322
0.389535
0.235118
0.0659133
0.117622
0.267837
0.379161
0.447865
0.483647
0.504459
0.518084
0.531157
0.543496
0.555773
0.563513
0.576133
0.584641
0.594142
0.598324
0.588687
0.546211
0.470506
0.388607
0.330302
0.282988
0.297725
0.329105
0.388596
0.475736
0.503233
0.748873
0.738841
0.707752
0.676816
0.646434
0.610176
0.573912
0.532931
0.486599
0.433929
0.373575
0.307873
0.230591
0.130583
0.0292906
0.10848
0.228162
0.337713
0.420768
0.468767
0.499987
0.518953
0.532603
0.546372
0.555848
0.570774
0.58024
0.585752
0.574205
0.53444
0.473597
0.41063
0.343296
0.300047
0.262889
0.284383
0.326576
0.38992
0.453045
0.477642
0.715539
0.690733
0.662647
0.631627
0.594659
0.555445
0.514857
0.470575
0.422519
0.373407
0.326125
0.279821
0.233218
0.184705
0.142437
0.116954
0.142376
0.213557
0.309898
0.403178
0.463704
0.500096
0.521703
0.538085
0.54904
0.564912
0.572216
0.569162
0.533592
0.470531
0.402212
0.350682
0.294609
0.25525
0.219696
0.234297
0.276195
0.339266
0.394006
0.393344
0.680368
0.64403
0.601003
0.562801
0.523843
0.486782
0.447785
0.406075
0.362076
0.321571
0.291624
0.273153
0.264011
0.247336
0.226079
0.202078
0.188006
0.19118
0.222027
0.292683
0.389291
0.460183
0.500159
0.52665
0.540611
0.557072
0.560303
0.542853
0.482231
0.408214
0.343665
0.294441
0.236432
0.183404
0.147665
0.153423
0.206032
0.276945
0.331226
0.333651
0.617238
0.586944
0.546047
0.496746
0.455684
0.421354
0.393641
0.370071
0.345054
0.321655
0.30703
0.300186
0.302597
0.301008
0.294838
0.283195
0.271662
0.262638
0.260161
0.266611
0.30568
0.390292
0.466679
0.508111
0.530578
0.545878
0.545357
0.507368
0.437097
0.373482
0.313198
0.255348
0.192917
0.126697
0.0727881
0.0663662
0.148587
0.23136
0.284157
0.295226
0.715345
0.662606
0.591594
0.519258
0.454189
0.402473
0.368693
0.348671
0.336291
0.335308
0.337137
0.335271
0.340808
0.35244
0.359397
0.35875
0.355888
0.347247
0.338123
0.331459
0.32939
0.344363
0.408445
0.485165
0.52022
0.53657
0.530269
0.47283
0.403283
0.348296
0.292409
0.238123
0.175843
0.110693
0.0430502
0.0505262
0.131049
0.208706
0.254391
0.27373
1.12032
1.0626
0.966867
0.86446
0.780378
0.707683
0.635674
0.558837
0.484238
0.429873
0.409715
0.410724
0.410851
0.41435
0.419544
0.432892
0.436827
0.43508
0.429589
0.414753
0.401456
0.393925
0.392525
0.439319
0.498719
0.52871
0.514335
0.445563
0.38827
0.348616
0.302889
0.257206
0.200955
0.151141
0.100669
0.105529
0.159419
0.23573
0.281994
0.31093
1.56075
1.56032
1.51092
1.43518
1.36303
1.28582
1.19768
1.09776
0.993477
0.884926
0.771465
0.667959
0.578306
0.5245
0.509639
0.513417
0.510783
0.517274
0.514348
0.508984
0.496103
0.472021
0.45046
0.442714
0.465933
0.506572
0.493832
0.430481
0.390514
0.358783
0.312049
0.274259
0.227139
0.193962
0.161424
0.171285
0.211645
0.273144
0.320523
0.363386
1.91613
1.92054
1.92575
1.92869
1.91641
1.88633
1.84141
1.78035
1.70187
1.60965
1.49549
1.34117
1.12433
0.907263
0.757685
0.673207
0.62863
0.61343
0.596575
0.590061
0.586357
0.567383
0.546362
0.515478
0.48248
0.460546
0.465286
0.423709
0.398259
0.373426
0.340119
0.310416
0.27154
0.248215
0.223169
0.233726
0.272152
0.329986
0.386428
0.44378
2.17989
2.18247
2.18961
2.20026
2.21117
2.21886
2.22129
2.20525
2.1605
2.09725
2.01713
1.88462
1.71922
1.54855
1.34401
1.10467
0.93693
0.823283
0.741299
0.699868
0.662451
0.643349
0.641979
0.61746
0.575483
0.47616
0.416668
0.42192
0.421646
0.402767
0.371358
0.342039
0.309298
0.296666
0.279744
0.293767
0.32301
0.380407
0.451527
0.524344
2.39662
2.39795
2.40146
2.40668
2.41453
2.42286
2.42671
2.42296
2.40405
2.35195
2.27145
2.15954
2.03503
1.88692
1.70984
1.5233
1.38111
1.21833
1.06771
0.93181
0.82733
0.766981
0.717564
0.693375
0.685383
0.598907
0.390704
0.403157
0.458712
0.439554
0.409375
0.381752
0.356373
0.347685
0.335139
0.352732
0.381234
0.442989
0.51596
0.586318
2.57363
2.57403
2.57552
2.5773
2.58084
2.58632
2.58861
2.58828
2.59418
2.57264
2.49489
2.40069
2.25345
2.06935
1.926
1.77511
1.60478
1.45389
1.3631
1.26002
1.13929
1.00254
0.891727
0.819153
0.77376
0.709239
0.443376
0.36245
0.47807
0.469468
0.436098
0.410312
0.396353
0.387787
0.387906
0.412481
0.452534
0.516765
0.571597
0.612543
2.71167
2.71147
2.71298
2.71536
2.71876
2.72499
2.73182
2.73047
2.73626
2.75222
2.68014
2.60015
2.45728
2.26662
2.08701
1.92371
1.77559
1.62517
1.48532
1.39621
1.32551
1.25742
1.16529
1.04691
0.945441
0.862139
0.55265
0.257671
0.453974
0.478316
0.450137
0.434895
0.43064
0.433432
0.44961
0.484706
0.528377
0.573458
0.602459
0.616759
2.8239
2.82302
2.82488
2.83016
2.83468
2.84254
2.85049
2.8544
2.86471
2.89703
2.8619
2.74703
2.65029
2.46008
2.20431
2.03811
1.88926
1.73733
1.58861
1.4737
1.39615
1.34161
1.29172
1.23435
1.1625
1.08102
0.833655
0.187702
0.346124
0.457372
0.45553
0.460525
0.474856
0.495961
0.521368
0.550562
0.578106
0.597376
0.608794
0.613731
2.93043
2.92903
2.93273
2.94097
2.94581
2.94971
2.95631
2.95998
2.96416
2.99231
2.97735
2.87129
2.79044
2.62319
2.31988
2.10397
1.95876
1.82513
1.6888
1.54856
1.44819
1.38327
1.33804
1.29614
1.24569
1.195
1.07383
0.460203
0.228708
0.451939
0.48828
0.508945
0.533342
0.552843
0.566942
0.579951
0.594422
0.604411
0.609863
0.613454
3.03033
3.03055
3.03684
3.04604
3.04943
3.04808
3.05097
3.04683
3.03653
3.04396
3.04109
2.95948
2.8807
2.75738
2.4261
2.12703
1.98474
1.86097
1.7514
1.62532
1.51016
1.428
1.3696
1.3269
1.28268
1.23555
1.15097
0.595979
0.175811
0.460798
0.515717
0.535328
0.554132
0.566748
0.575494
0.584495
0.593469
0.600176
0.604805
0.608925
3.12124
3.12195
3.11873
3.1082
3.09682
3.08564
3.07904
3.07388
3.0611
3.05521
3.05723
3.03057
2.95232
2.85855
2.54869
2.1219
1.96451
1.86145
1.78324
1.68576
1.57445
1.48276
1.40916
1.35543
1.30681
1.25719
1.18881
0.661068
0.146117
0.445867
0.518837
0.54044
0.558881
0.571383
0.578975
0.586166
0.59449
0.60181
0.607192
0.611944
3.12793
3.12796
3.10768
3.08931
3.07983
3.07381
3.06489
3.05437
3.03595
3.01066
2.99999
2.9954
2.98373
2.91827
2.65169
2.13474
1.94065
1.84372
1.78385
1.72404
1.63142
1.53784
1.45496
1.38892
1.33358
1.27957
1.21904
0.708444
0.123884
0.422504
0.514734
0.538378
0.555517
0.56719
0.573903
0.580651
0.589605
0.59828
0.604692
0.610033
2.98932
2.99227
3.00247
3.00266
2.99801
2.98796
2.96577
2.94637
2.92737
2.90164
2.89442
2.91857
2.91352
2.85954
2.61377
2.11081
1.91094
1.82279
1.77017
1.71464
1.63376
1.54501
1.4692
1.4105
1.35814
1.30375
1.24899
0.748925
0.126315
0.399707
0.513497
0.539207
0.555287
0.566647
0.573146
0.580062
0.589722
0.599235
0.605947
0.611009
2.49027
2.52203
2.54105
2.56189
2.56482
2.57416
2.59025
2.60825
2.62653
2.6425
2.66532
2.72542
2.73657
2.69457
2.438
1.97803
1.80562
1.75166
1.72393
1.69364
1.63414
1.55507
1.47568
1.41128
1.36199
1.3106
1.26333
0.780127
0.138596
0.381891
0.511802
0.539153
0.555022
0.566704
0.573662
0.581338
0.592156
0.602446
0.608957
0.612974
)
;

boundaryField
{
    inlet
    {
        type            calculated;
        value           uniform 0;
    }
    outlet
    {
        type            calculated;
        value           nonuniform List<scalar> 
165
(
2.49027
2.98932
3.12793
3.12124
3.03033
2.93043
2.8239
2.71167
2.57363
2.39662
2.17989
1.91613
1.56075
1.12032
0.715345
0.617238
0.680368
0.715539
0.748873
0.72117
0.72117
0.725461
0.696357
0.678336
0.666718
0.659669
0.654286
0.638695
0.614637
0.572664
0.502322
0.389535
0.235118
0.0659133
0.117622
0.267837
0.379161
0.447865
0.483647
0.504459
0.518084
0.531157
0.543496
0.555773
0.563513
0.576133
0.584641
0.594142
0.598324
0.588687
0.546211
0.470506
0.388607
0.330302
0.282988
0.297725
0.329105
0.388596
0.475736
0.503233
0.612974
0.611009
0.610033
0.611944
0.608925
0.613454
0.613731
0.616759
0.612543
0.586318
0.524344
0.44378
0.363386
0.31093
0.27373
0.295226
0.333651
0.393344
0.477642
0.503233
0.618381
0.620854
0.620302
0.620854
0.618381
0.503233
0.477642
0.393344
0.333651
0.295226
0.27373
0.31093
0.363386
0.44378
0.524344
0.586318
0.612543
0.616759
0.613731
0.613454
0.608925
0.611944
0.610033
0.611009
0.612974
0.72117
0.725461
0.696357
0.678336
0.666718
0.659669
0.654286
0.638695
0.614637
0.572664
0.502322
0.389535
0.235118
0.0659133
0.117622
0.267837
0.379161
0.447865
0.483647
0.504459
0.518084
0.531157
0.543496
0.555773
0.563513
0.576133
0.584641
0.594142
0.598324
0.588687
0.546211
0.470506
0.388607
0.330302
0.282988
0.297725
0.329105
0.388596
0.475736
0.503233
0.72117
0.748873
0.715539
0.680368
0.617238
0.715345
1.12032
1.56075
1.91613
2.17989
2.39662
2.57363
2.71167
2.8239
2.93043
3.03033
3.12124
3.12793
2.98932
2.49027
)
;
    }
    obstacle
    {
        type            calculated;
        value           nonuniform List<scalar> 
40
(
0.443655
0.107387
0.129088
0.138918
0.13159
0.118694
0.11347
0.110226
0.108613
0.0948246
0.443655
0.107387
0.129088
0.138918
0.13159
0.118694
0.11347
0.110226
0.108613
0.0948246
0.102127
0.14186
0.195092
0.281426
0.427046
0.102127
0.14186
0.195092
0.281426
0.427046
0.939025
1.3371
1.60722
1.784
1.97193
0.939025
1.3371
1.60722
1.784
1.97193
)
;
    }
    empty
    {
        type            empty;
    }
}


// ************************************************************************* //
