/*--------------------------------*- C++ -*----------------------------------*\
| =========                 |                                                 |
| \\      /  F ield         | OpenFOAM: The Open Source CFD Toolbox           |
|  \\    /   O peration     | Version:  v1912                                 |
|   \\  /    A nd           | Website:  www.openfoam.com                      |
|    \\/     M anipulation  |                                                 |
\*---------------------------------------------------------------------------*/
FoamFile
{
    version     2.0;
    format      ascii;
    class       volScalarField;
    location    "8.92";
    object      rho;
}
// * * * * * * * * * * * * * * * * * * * * * * * * * * * * * * * * * * * * * //

dimensions      [1 -3 0 0 0 0 0];


internalField   nonuniform List<scalar> 
1900
(
8420.88
11169.4
11773.1
12468.6
12795.7
12781.7
12725.7
12646.1
12543.2
12431.3
8420.89
11169.4
11773
12468.5
12795.6
12781.8
12725.9
12646.1
12557.4
12437
8420.9
11169.4
11773
12468.5
12795.9
12782.6
12726.2
12641.5
12545
12418.8
8420.89
11169.4
11773
12468.5
12795.6
12781.8
12725.9
12646.1
12557.4
12437
8420.88
11169.4
11773.1
12468.6
12795.7
12781.7
12725.7
12646.1
12543.2
12431.3
12520
12320.8
12162.3
11790.4
11623.9
12358.2
12214.7
12073.1
11719.5
11214.6
12325.6
12193.4
12070.2
11760.9
11288.3
12358.2
12214.7
12073.1
11719.5
11214.6
12520
12320.8
12162.3
11790.4
11623.9
6172.68
4207.85
3253.82
2739
2187.28
6804.57
4530.62
3438.41
2883.27
2292.21
6990.53
4487.42
3366.33
2824.07
2216.24
6804.57
4530.62
3438.41
2883.27
2292.21
6172.68
4207.85
3253.82
2739
2187.28
2439.24
2699.78
2775.13
2787.69
2772.07
2711.99
2607.45
2483.62
2346.32
2238.68
2131.23
1969.74
1852.13
1876.52
2196.21
2904.49
3080.58
3073.38
3005.9
2906.84
2829.47
2782
2745.98
2697.99
2651.08
2538.71
2344.84
2675.83
2582.58
1958.25
1890.65
1977.49
2055.69
2114.43
2179.45
2268.95
2379.95
2501.21
2630.64
2759.58
2212.83
2415.11
2614.19
2603.77
2565.25
2496.47
2405.04
2303.66
2189.78
2106.64
2016.51
1879.38
1783.03
1809.92
2130.18
2818.47
3006.63
3005.86
2956.45
2878.35
2824.27
2797.61
2745.53
2701.97
2659.66
2544.14
2342
2666.13
2585.56
1962.14
1890.82
1977.34
2055.67
2114.5
2179.62
2269.3
2380.5
2502.02
2631.57
2760.49
2178.24
2290.48
2516.6
2542.68
2516.66
2458.43
2375.54
2276.14
2162.85
2084.55
1996.32
1862.12
1770.34
1798.12
2118.69
2802.07
2994.06
2992.16
2945
2869.2
2822
2786.08
2731.97
2700.21
2666.41
2555.93
2354.62
2671.1
2587.91
1962.97
1890.77
1977.25
2055.63
2114.49
2179.64
2269.27
2380.28
2501.68
2631.22
2760.22
2212.83
2415.11
2614.19
2603.77
2565.25
2496.47
2405.04
2303.66
2189.78
2106.64
2016.51
1879.38
1783.03
1809.92
2130.18
2818.47
3006.63
3005.86
2956.45
2878.35
2824.27
2797.61
2745.53
2701.97
2659.66
2544.14
2342
2666.13
2585.56
1962.14
1890.82
1977.34
2055.67
2114.5
2179.62
2269.3
2380.5
2502.02
2631.57
2760.49
2439.24
2699.78
2775.13
2787.69
2772.07
2711.99
2607.45
2483.62
2346.32
2238.68
2131.23
1969.74
1852.13
1876.52
2196.21
2904.49
3080.58
3073.38
3005.9
2906.84
2829.47
2782
2745.98
2697.99
2651.08
2538.71
2344.84
2675.83
2582.58
1958.25
1890.65
1977.49
2055.69
2114.43
2179.45
2268.95
2379.95
2501.21
2630.64
2759.58
3463.08
3357.74
3245.75
3194.83
3142.8
3059.55
2969.47
2859.39
2719.26
2580.07
2433.43
2229.98
2053.4
2064.89
2380.13
3127.68
3289.52
3253.55
3135.35
2980.99
2843.66
2771.37
2768.57
2777.66
2748.84
2636.87
2427.82
2719.27
2567.82
1942.79
1889.27
1977.36
2055.08
2113.85
2178.89
2268.12
2379.13
2500.35
2629.77
2758.75
4309.12
4043.37
3762.04
3554.82
3394.09
3262.76
3170.22
3067.29
2952.57
2838.12
2698.36
2506.76
2317.21
2327.92
2654.45
3398.42
3539.39
3479.06
3296.01
3058.74
2871.17
2763.22
2684.87
2639.4
2606.75
2510.91
2332.36
2658.28
2493.94
1917.26
1887.11
1976.66
2053.29
2112.13
2177.19
2266.24
2377.4
2498.86
2628.29
2756.95
4536.28
4301.28
4138.74
3964.44
3773.59
3583.57
3412.47
3249.69
3108.35
2984.66
2842.49
2689.33
2500.06
2489.63
2868.64
3610.05
3733.2
3662.33
3428.46
3113.62
2898.29
2773.63
2686.96
2636.45
2585.12
2471.47
2293.45
2600.54
2384.91
1880.04
1881.46
1973.45
2048.51
2107.69
2173.37
2263.24
2375.33
2497.66
2627.09
2755.37
4564.02
4330.09
4094.27
3895.02
3707.1
3527.01
3345.44
3166.58
3023.67
2875.7
2708.88
2615.23
2573.89
2622.28
3057.88
3583.09
3651.19
3570.48
3318.46
3029.49
2844.25
2731.77
2653.8
2605.43
2542.08
2412.98
2234.25
2510.17
2253.08
1848.82
1882.2
1975.22
2046.7
2104.14
2169.1
2258.94
2372.03
2495.91
2625.58
2753.8
4532.44
4347.23
4156.71
3952.92
3753.93
3571.07
3371.82
3178.79
3024.3
2829.29
2676.69
2645.25
2640.52
2761.14
3271.83
3565.88
3581.67
3477.43
3195.44
2927.04
2781.09
2681.4
2608.83
2557.38
2480.4
2339.41
2167.7
2415.67
2143.77
1855.37
1916.43
2008.54
2074.59
2125.41
2178.51
2257.72
2367.77
2492.73
2622.9
2751.65
4465.5
4293.1
4115.85
3921.21
3734.43
3555.62
3367.93
3204.25
3027.64
2817.49
2752.37
2751.66
2779.66
2968.44
3321.42
3473.75
3470.39
3322.45
3021.85
2818.06
2702.4
2611.82
2558.64
2512.91
2436.13
2300.54
2158.36
2412.92
2161.22
2011.4
2084.94
2144.81
2172.27
2190.65
2223.79
2289.08
2379.95
2492.6
2620.75
2749.73
4384.44
4223.99
4059.11
3880.67
3708.33
3529.32
3350.42
3200.04
3035.75
2851.39
2785.17
2773.05
2823.63
3023.19
3257.02
3326.17
3283.94
3043.7
2800.46
2699.51
2617.25
2557.64
2551.59
2532.64
2474.95
2380.08
2403.83
2724.4
2500.43
2452.67
2505.74
2506.3
2474.93
2422.16
2378.51
2375.66
2427.01
2514.14
2623.22
2747.74
4294.85
4141.2
3983.21
3822.48
3661.14
3493
3324.69
3174.99
3007.98
2858.92
2814.67
2835.17
2923.61
3059.76
3129.07
3119.8
2950.78
2746.26
2642.88
2584.95
2589.5
2615.93
2679.17
2801.47
2882.45
2831.78
2938.91
3002.43
2772.11
2791.4
2827.5
2819.3
2792.65
2732.77
2653.89
2591.92
2563.33
2580.68
2646.63
2745.44
4180.89
4036.42
3886.72
3735.47
3579.1
3416.57
3268.92
3133.08
2981.66
2886.44
2870.91
2869.86
2887.27
2922.6
2923.83
2826.75
2592.72
2545.35
2606.4
2655.33
2794.73
3089.51
3319.47
3398.62
3336.64
3141.38
3068.91
2942.68
2863.97
2932.97
2963.16
2963.24
2962.56
2933.31
2875.47
2815.81
2765.44
2723.91
2712.54
2741.33
4021.15
3891.59
3749.44
3597.99
3436.07
3275.34
3125.18
2989.39
2872.49
2807.15
2783.06
2781.95
2785.89
2760.06
2650.53
2489.66
2577.15
2683.23
2921.86
3279.82
3581.2
3733.45
3774.63
3670.11
3405.8
3055.67
2819.76
2814.1
2912.07
2997.36
3022.19
3019.26
3030.01
3020.66
2982.83
2944.33
2914.41
2878.61
2815.31
2740.62
3810.73
3667.39
3511.77
3356.91
3212.43
3082.4
2967.72
2880.68
2825.16
2774.23
2725.4
2693.72
2669.83
2632.39
2693.14
2791.63
3082.75
3401.85
3713.73
3935.56
4024.21
3958.69
3803.29
3599.75
3236.23
2747.26
2531.72
2737.36
2933.8
3017.1
3050.37
3055.03
3069.91
3068.11
3033.03
2994.28
2966.42
2942.84
2881.7
2742.53
3550.09
3408.45
3276.28
3169.51
3103.71
3063.47
3039.38
3038.49
3056.29
3059.25
3033.63
3022.72
3085.38
3158.44
3283.14
3508.88
3781.56
3990.4
4099.98
4089.09
4030.3
3919.61
3704.24
3376.39
2893.42
2425.17
2378.83
2699.69
2946.67
3032.13
3068.64
3078.39
3094.29
3097.08
3063.98
3021.82
2979.49
2943.88
2886.07
2723.07
3263.78
3201.04
3218.29
3256.45
3273.18
3306.53
3362.1
3440.98
3509.4
3548.83
3588.96
3658.57
3722.85
3738.42
3830.64
3938.36
4051.36
4125.2
4147.35
4088.78
3954.74
3763.78
3481.14
3029.93
2510
2264.62
2325.29
2661.52
2932.79
3035.79
3082.51
3091.38
3106.98
3114.41
3088.98
3043.71
2986.78
2925.98
2844.35
2682.59
2973.93
3104
3243.05
3343.54
3388.12
3419.03
3459.04
3516.5
3579.78
3665.51
3794.89
3920.34
3982.48
4023.45
4062.62
4125.42
4154.63
4154.74
4105.92
3982.32
3787.29
3512.89
3096.41
2600.79
2298.4
2239.05
2310.02
2594.8
2874.27
3002.91
3066.6
3082.28
3102.86
3116.08
3100.62
3056.55
2993.07
2912.59
2806.48
2653.1
2796.85
2983.49
3132.03
3206.33
3254.34
3297.44
3357.71
3450.86
3595.28
3764.82
3933.32
4054.36
4128.04
4185.49
4210.74
4219.44
4177.29
4089.04
3955.41
3770.8
3493.17
3095.24
2648.1
2361.65
2272.95
2264.21
2310.45
2521.85
2791.59
2949.23
3026.12
3049
3073.79
3092.3
3092.49
3058.67
2994.45
2901.64
2777.22
2632.24
2719.22
2855.16
2971.98
3035.17
3106.6
3193.02
3311.97
3455.44
3621.13
3794.03
3970.35
4117.67
4216.01
4256.89
4244.45
4182.8
4076.77
3923.65
3711.83
3426.55
3054.09
2669.23
2429.58
2346.69
2317.29
2321.19
2351.76
2481.17
2715.09
2893.72
2985.85
3013.06
3032.16
3049.55
3057.73
3035.1
2977.22
2883.8
2752.32
2619.11
2655.02
2728.2
2822.76
2900.68
3000.48
3107.58
3236.11
3380.3
3536.5
3709.93
3902.84
4080.74
4189.95
4202.8
4142.53
4020.06
3854.26
3635.48
3345.93
2998.93
2680.21
2499.12
2433.98
2413.93
2409.57
2407.74
2426.14
2489.71
2664.62
2849.22
2951.05
2972.44
2976.73
2986.46
2994.24
2979.08
2938.46
2863.22
2745.06
2620.66
2615.27
2660.38
2743.68
2809.74
2894.5
2992.28
3097.07
3209.69
3341.8
3511.99
3711.3
3886.44
3987.67
3997.33
3911.21
3742.45
3521.87
3253.6
2952.75
2701.02
2569.79
2522.13
2513.52
2516.59
2516.57
2513.46
2515.18
2549.87
2646.12
2806.45
2920.02
2941.86
2923.92
2909.94
2901.16
2884.86
2863.29
2807.69
2724.88
2613.61
2591.77
2626.64
2666.14
2713.97
2776.13
2837.5
2911.01
2996.17
3104.81
3251.95
3421.89
3572.43
3646.86
3632.93
3517.39
3330.63
3111.95
2899.84
2739.69
2651.82
2615.94
2613.17
2621.41
2628.03
2629.4
2627.62
2624.79
2635.33
2675.76
2767.2
2857.93
2889.07
2855.44
2813.64
2779.84
2755.71
2744.69
2721.06
2744.31
2668.68
2538.34
2520.18
2544.28
2621.54
2679.53
2721.65
2775.65
2856.27
2961.01
3052.68
3107.48
3092.98
3011.56
2900.23
2814.74
2757.83
2719.73
2695.47
2689.32
2694.17
2703.71
2713.13
2721.86
2728.95
2733.95
2737.72
2739.54
2740.96
2740.29
2739.62
2743.31
2735.61
2698.34
2664.86
2638.58
2623.41
2623.52
2611.15
2667.02
2662.45
2538.34
2520.18
2544.28
2621.54
2679.53
2721.65
2775.65
2856.27
2961.01
3052.68
3107.48
3092.98
3011.56
2900.23
2814.74
2757.83
2719.73
2695.47
2689.32
2694.17
2703.71
2713.13
2721.86
2728.95
2733.95
2737.72
2739.54
2740.96
2740.29
2739.62
2743.31
2735.61
2698.34
2664.86
2638.58
2623.41
2623.52
2611.15
2667.02
2662.45
2591.77
2626.64
2666.14
2713.97
2776.13
2837.5
2911.01
2996.17
3104.81
3251.95
3421.89
3572.43
3646.86
3632.93
3517.39
3330.63
3111.95
2899.84
2739.69
2651.82
2615.94
2613.17
2621.41
2628.03
2629.4
2627.62
2624.79
2635.33
2675.76
2767.2
2857.93
2889.07
2855.44
2813.64
2779.84
2755.71
2744.69
2721.06
2744.31
2668.68
2615.27
2660.38
2743.68
2809.74
2894.5
2992.28
3097.07
3209.69
3341.8
3511.99
3711.3
3886.44
3987.67
3997.33
3911.21
3742.45
3521.87
3253.6
2952.75
2701.02
2569.79
2522.13
2513.52
2516.59
2516.57
2513.46
2515.18
2549.87
2646.12
2806.45
2920.02
2941.86
2923.92
2909.94
2901.16
2884.86
2863.29
2807.69
2724.88
2613.61
2655.02
2728.2
2822.76
2900.68
3000.48
3107.58
3236.11
3380.3
3536.5
3709.93
3902.84
4080.74
4189.95
4202.8
4142.53
4020.06
3854.26
3635.48
3345.93
2998.93
2680.21
2499.12
2433.98
2413.93
2409.57
2407.74
2426.14
2489.71
2664.62
2849.22
2951.05
2972.44
2976.73
2986.46
2994.24
2979.08
2938.46
2863.22
2745.06
2620.66
2719.22
2855.16
2971.98
3035.17
3106.6
3193.02
3311.97
3455.44
3621.13
3794.03
3970.35
4117.67
4216.01
4256.89
4244.45
4182.8
4076.77
3923.65
3711.83
3426.55
3054.09
2669.23
2429.58
2346.69
2317.29
2321.19
2351.76
2481.17
2715.09
2893.72
2985.85
3013.06
3032.16
3049.55
3057.73
3035.1
2977.22
2883.8
2752.32
2619.11
2796.85
2983.49
3132.03
3206.33
3254.34
3297.44
3357.71
3450.86
3595.28
3764.82
3933.32
4054.36
4128.04
4185.49
4210.74
4219.44
4177.29
4089.04
3955.41
3770.8
3493.17
3095.24
2648.1
2361.65
2272.95
2264.21
2310.45
2521.85
2791.59
2949.23
3026.12
3049
3073.79
3092.3
3092.49
3058.67
2994.45
2901.64
2777.22
2632.24
2973.93
3104
3243.05
3343.54
3388.12
3419.03
3459.04
3516.5
3579.78
3665.51
3794.89
3920.34
3982.48
4023.45
4062.62
4125.42
4154.63
4154.74
4105.92
3982.32
3787.29
3512.89
3096.41
2600.79
2298.4
2239.05
2310.02
2594.8
2874.27
3002.91
3066.6
3082.28
3102.86
3116.08
3100.62
3056.55
2993.07
2912.59
2806.48
2653.1
3263.78
3201.04
3218.29
3256.45
3273.18
3306.53
3362.1
3440.98
3509.4
3548.83
3588.96
3658.57
3722.85
3738.42
3830.64
3938.36
4051.36
4125.2
4147.35
4088.78
3954.74
3763.78
3481.14
3029.93
2510
2264.62
2325.29
2661.52
2932.79
3035.79
3082.51
3091.38
3106.98
3114.41
3088.98
3043.71
2986.78
2925.98
2844.35
2682.59
3550.09
3408.45
3276.28
3169.51
3103.71
3063.47
3039.38
3038.49
3056.29
3059.25
3033.63
3022.72
3085.38
3158.44
3283.14
3508.88
3781.56
3990.4
4099.98
4089.09
4030.3
3919.61
3704.24
3376.39
2893.42
2425.17
2378.83
2699.69
2946.67
3032.13
3068.64
3078.39
3094.29
3097.08
3063.98
3021.82
2979.49
2943.88
2886.07
2723.07
3810.73
3667.39
3511.77
3356.91
3212.43
3082.4
2967.72
2880.68
2825.16
2774.23
2725.4
2693.72
2669.83
2632.39
2693.14
2791.63
3082.75
3401.85
3713.73
3935.56
4024.21
3958.69
3803.29
3599.75
3236.23
2747.26
2531.72
2737.36
2933.8
3017.1
3050.37
3055.03
3069.91
3068.11
3033.03
2994.28
2966.42
2942.84
2881.7
2742.53
4021.15
3891.59
3749.44
3597.99
3436.07
3275.34
3125.18
2989.39
2872.49
2807.15
2783.06
2781.95
2785.89
2760.06
2650.53
2489.66
2577.15
2683.23
2921.86
3279.82
3581.2
3733.45
3774.63
3670.11
3405.8
3055.67
2819.76
2814.1
2912.07
2997.36
3022.19
3019.26
3030.01
3020.66
2982.83
2944.33
2914.41
2878.61
2815.31
2740.62
4180.89
4036.42
3886.72
3735.47
3579.1
3416.57
3268.92
3133.08
2981.66
2886.44
2870.91
2869.86
2887.27
2922.6
2923.83
2826.75
2592.72
2545.35
2606.4
2655.33
2794.73
3089.51
3319.47
3398.62
3336.64
3141.38
3068.91
2942.68
2863.97
2932.97
2963.16
2963.24
2962.56
2933.31
2875.47
2815.81
2765.44
2723.91
2712.54
2741.33
4294.85
4141.2
3983.21
3822.48
3661.14
3493
3324.69
3174.99
3007.98
2858.92
2814.67
2835.17
2923.61
3059.76
3129.07
3119.8
2950.78
2746.26
2642.88
2584.95
2589.5
2615.93
2679.17
2801.47
2882.45
2831.78
2938.91
3002.43
2772.11
2791.4
2827.5
2819.3
2792.65
2732.77
2653.89
2591.92
2563.33
2580.68
2646.63
2745.44
4384.44
4223.99
4059.11
3880.67
3708.33
3529.32
3350.42
3200.04
3035.75
2851.39
2785.17
2773.05
2823.63
3023.19
3257.02
3326.17
3283.94
3043.7
2800.46
2699.51
2617.25
2557.64
2551.59
2532.64
2474.95
2380.08
2403.83
2724.4
2500.43
2452.67
2505.74
2506.3
2474.93
2422.16
2378.51
2375.66
2427.01
2514.14
2623.22
2747.74
4465.5
4293.1
4115.85
3921.21
3734.43
3555.62
3367.93
3204.25
3027.64
2817.49
2752.37
2751.66
2779.66
2968.44
3321.42
3473.75
3470.39
3322.45
3021.85
2818.06
2702.4
2611.82
2558.64
2512.91
2436.13
2300.54
2158.36
2412.92
2161.22
2011.4
2084.94
2144.81
2172.27
2190.65
2223.79
2289.08
2379.95
2492.6
2620.75
2749.73
4532.44
4347.23
4156.71
3952.92
3753.93
3571.07
3371.82
3178.79
3024.3
2829.29
2676.69
2645.25
2640.52
2761.14
3271.83
3565.88
3581.67
3477.43
3195.44
2927.04
2781.09
2681.4
2608.83
2557.38
2480.4
2339.41
2167.7
2415.67
2143.77
1855.37
1916.43
2008.54
2074.59
2125.41
2178.51
2257.72
2367.77
2492.73
2622.9
2751.65
4564.02
4330.09
4094.27
3895.02
3707.1
3527.01
3345.44
3166.58
3023.67
2875.7
2708.88
2615.23
2573.89
2622.28
3057.88
3583.09
3651.19
3570.48
3318.46
3029.49
2844.25
2731.77
2653.8
2605.43
2542.08
2412.98
2234.25
2510.17
2253.08
1848.82
1882.2
1975.22
2046.7
2104.14
2169.1
2258.94
2372.03
2495.91
2625.58
2753.8
4536.28
4301.28
4138.74
3964.44
3773.59
3583.57
3412.47
3249.69
3108.35
2984.66
2842.49
2689.33
2500.06
2489.63
2868.64
3610.05
3733.2
3662.33
3428.46
3113.62
2898.29
2773.63
2686.96
2636.45
2585.12
2471.47
2293.45
2600.54
2384.91
1880.04
1881.46
1973.45
2048.51
2107.69
2173.37
2263.24
2375.33
2497.66
2627.09
2755.37
4309.12
4043.37
3762.04
3554.82
3394.09
3262.76
3170.22
3067.29
2952.57
2838.12
2698.36
2506.76
2317.21
2327.92
2654.45
3398.42
3539.39
3479.06
3296.01
3058.74
2871.17
2763.22
2684.87
2639.4
2606.75
2510.91
2332.36
2658.28
2493.94
1917.26
1887.11
1976.66
2053.29
2112.13
2177.19
2266.24
2377.4
2498.86
2628.29
2756.95
3463.08
3357.74
3245.75
3194.83
3142.8
3059.55
2969.47
2859.39
2719.26
2580.07
2433.43
2229.98
2053.4
2064.89
2380.13
3127.68
3289.52
3253.55
3135.35
2980.99
2843.66
2771.37
2768.57
2777.66
2748.84
2636.87
2427.82
2719.27
2567.82
1942.79
1889.27
1977.36
2055.08
2113.85
2178.89
2268.12
2379.13
2500.35
2629.77
2758.75
)
;

boundaryField
{
    inlet
    {
        type            calculated;
        value           uniform 14000.1;
    }
    outlet
    {
        type            calculated;
        value           nonuniform List<scalar> 
165
(
3485.47
4442.1
4648.41
4679.89
4631.07
4556.5
4469.6
4374.59
4253.36
4082.65
3878.68
3617.45
3283.83
2905.55
2623.88
2599.11
2624.57
2657.42
2696.2
2777.94
2777.94
2731.66
2723.06
2722.05
2717.13
2709.07
2695.63
2669.6
2624.43
2565.74
2504.91
2461.45
2447.46
2475.88
2538.6
2613.34
2680.14
2722.51
2745.99
2761.06
2769.37
2775.67
2782.65
2790.31
2797.46
2803.43
2807.59
2808.15
2803.77
2783.98
2749.76
2701.64
2663.25
2626.73
2606.34
2601.48
2603.45
2616.87
2611.04
2617.74
2824.83
2824.84
2824.54
2823.61
2822.39
2821.26
2819.55
2815.01
2802.29
2773.86
2731.39
2683.58
2647.67
2613.45
2596.45
2596.32
2599.78
2613.69
2609.28
2617.74
2825.48
2825.79
2826.21
2825.79
2825.48
2617.74
2609.28
2613.69
2599.78
2596.32
2596.45
2613.45
2647.67
2683.58
2731.39
2773.86
2802.29
2815.01
2819.55
2821.26
2822.39
2823.61
2824.54
2824.84
2824.83
2777.94
2731.66
2723.06
2722.05
2717.13
2709.07
2695.63
2669.6
2624.43
2565.74
2504.91
2461.45
2447.46
2475.88
2538.6
2613.34
2680.14
2722.51
2745.99
2761.06
2769.37
2775.67
2782.65
2790.31
2797.46
2803.43
2807.59
2808.15
2803.77
2783.98
2749.76
2701.64
2663.25
2626.73
2606.34
2601.48
2603.45
2616.87
2611.04
2617.74
2777.94
2696.2
2657.42
2624.57
2599.11
2623.88
2905.55
3283.83
3617.45
3878.68
4082.65
4253.36
4374.59
4469.6
4556.5
4631.07
4679.89
4648.41
4442.1
3485.47
)
;
    }
    obstacle
    {
        type            calculated;
        value           nonuniform List<scalar> 
40
(
8420.88
11169.4
11773.1
12468.6
12795.7
12781.7
12725.7
12646.1
12543.2
12431.3
8420.88
11169.4
11773.1
12468.6
12795.7
12781.7
12725.7
12646.1
12543.2
12431.3
12520
12320.8
12162.3
11790.4
11623.9
12520
12320.8
12162.3
11790.4
11623.9
6172.68
4207.85
3253.82
2739
2187.28
6172.68
4207.85
3253.82
2739
2187.28
)
;
    }
    empty
    {
        type            empty;
    }
}


// ************************************************************************* //
