/*--------------------------------*- C++ -*----------------------------------*\
| =========                 |                                                 |
| \\      /  F ield         | OpenFOAM: The Open Source CFD Toolbox           |
|  \\    /   O peration     | Version:  v1912                                 |
|   \\  /    A nd           | Website:  www.openfoam.com                      |
|    \\/     M anipulation  |                                                 |
\*---------------------------------------------------------------------------*/
FoamFile
{
    version     2.0;
    format      ascii;
    class       volScalarField;
    location    "7.44";
    object      p;
}
// * * * * * * * * * * * * * * * * * * * * * * * * * * * * * * * * * * * * * //

dimensions      [1 -1 -2 0 0 0 0];


internalField   nonuniform List<scalar> 
1900
(
22399.1
9293.05
8566.11
8512.62
8462.02
8428.38
8397.54
8380.94
8367.79
8363.49
22399.1
9293.06
8566.04
8512.68
8461.97
8428.83
8397.38
8384.09
8372.69
8362.26
22399.1
9293.07
8566
8512.77
8462.14
8429.45
8396.7
8383.59
8365.93
8351.95
22399.1
9293.06
8566.04
8512.68
8461.97
8428.83
8397.38
8384.09
8372.69
8362.26
22399.1
9293.05
8566.11
8512.62
8462.02
8428.38
8397.54
8380.94
8367.79
8363.49
8486.54
8341.77
8288.29
8131.45
8394.58
8356.73
8260.43
8215
8056.73
7962.9
8327.36
8241.79
8202.24
8078.06
7994.91
8356.73
8260.43
8215
8056.73
7962.9
8486.54
8341.77
8288.29
8131.45
8394.58
3527.97
2052.01
1441.71
1117.27
858.579
3988.31
2264.23
1554.05
1204.66
921.118
4097.81
2224.52
1505.98
1170.79
878.28
3988.31
2264.23
1554.05
1204.66
921.118
3527.97
2052.01
1441.71
1117.27
858.579
864.429
842.391
803.301
765.996
688.713
594.893
594.894
781.14
1284.08
1387.51
1367.21
1354.64
1324.29
1233.52
1098.32
949.187
804.777
653.199
492.217
378.903
335.898
320.147
309.12
299.278
291.393
286.481
284.53
284.654
285.574
287.331
289.017
291.524
302.104
356.947
527.405
677.519
765.902
823.857
886.811
945.452
809.673
807.81
803.597
777.895
698.094
591.601
583.98
770.687
1281.35
1392.97
1373.82
1360.38
1329.27
1239.14
1100.27
953.211
809.339
656.445
493.69
379.26
335.906
320.134
309.139
299.275
291.365
286.442
284.49
284.618
285.542
287.305
288.993
291.5
302.08
356.881
527.403
677.598
765.902
823.83
886.813
945.555
801.175
792.138
793.129
778.468
709.223
596.56
588.528
761.241
1283.31
1396.84
1377.09
1363.07
1334.62
1260.01
1117.16
957.504
808.659
655.489
493.674
379.45
335.931
320.133
309.146
299.277
291.357
286.428
284.475
284.606
285.531
287.296
288.984
291.492
302.072
356.857
527.401
677.622
765.907
823.838
886.837
945.514
809.673
807.81
803.597
777.895
698.094
591.601
583.98
770.687
1281.35
1392.97
1373.82
1360.38
1329.27
1239.14
1100.27
953.211
809.339
656.445
493.69
379.26
335.906
320.134
309.139
299.275
291.365
286.442
284.49
284.618
285.542
287.305
288.993
291.5
302.08
356.881
527.403
677.598
765.902
823.83
886.813
945.555
864.429
842.391
803.301
765.996
688.713
594.893
594.894
781.14
1284.08
1387.51
1367.21
1354.64
1324.29
1233.52
1098.32
949.187
804.777
653.199
492.217
378.903
335.898
320.147
309.12
299.278
291.393
286.481
284.53
284.654
285.574
287.331
289.017
291.524
302.104
356.947
527.405
677.519
765.902
823.857
886.811
945.452
954.659
857.954
782.145
736.012
667.996
602.097
615.644
846.831
1248.39
1341.23
1328.17
1320.68
1296.46
1214.14
1081.42
936.004
796.866
647.77
487.611
376.983
335.724
320.187
309.06
299.281
291.501
286.655
284.717
284.819
285.718
287.449
289.122
291.61
302.211
357.13
527.334
676.892
765.86
822.78
886.487
945.584
961.271
862.846
763.131
690.511
631.371
611.525
668.163
930.045
1205.81
1276.99
1276.19
1270.56
1231.14
1146.39
1028.39
901.047
772.558
627.579
473.359
372.246
335.277
320.215
308.955
299.283
291.732
287.059
285.163
285.217
286.065
287.736
289.368
291.812
302.45
357.491
527.284
675.916
765.88
820.929
885.916
945.574
967.195
915.667
852.44
768.61
720.291
732.587
817.569
1012.81
1168.4
1186.88
1192.83
1185.25
1143.96
1070
969.611
857.872
738.325
597.829
453.446
366.161
334.714
320.225
308.91
299.385
292.119
287.68
285.857
285.854
286.635
288.218
289.785
292.157
302.833
358
527.23
675.04
765.493
819.775
886.242
946.265
967.333
903.169
833.341
767.593
757.652
792.152
857.184
1011.78
1091.13
1116.09
1135.53
1108.48
1062.49
995.768
907.292
807.757
696.162
561.204
430.817
360.023
334.205
320.25
308.946
299.624
292.684
288.515
286.78
286.721
287.429
288.908
290.388
292.675
303.393
358.761
527.421
674.558
765.365
819.715
887.064
947.135
963.422
896.238
841.416
811.777
826.628
861.799
923.302
1000.25
1027.18
1064.04
1053.82
1028
987.119
923.068
842.349
753.678
648.7
519.988
408.13
354.671
333.682
320.199
309.007
299.971
293.407
289.539
287.903
287.793
288.429
289.795
291.174
293.357
304.122
359.596
527.371
673.742
764.818
819.765
887.862
947.866
965.503
911.194
885.072
877.398
883.269
904.038
935.408
942.252
974.091
989.53
984.912
956.024
911.438
849.425
779.151
699.899
597.923
477.15
388.555
350.884
333.343
320.18
309.175
300.511
294.367
290.815
289.279
289.129
289.705
290.963
292.239
294.342
305.173
361.077
528.276
673.808
764.986
820.618
889.265
948.756
973.606
943.207
933.214
909.195
885.452
876.358
868.755
891.555
926.909
933.355
911.289
881.403
835.059
780.276
720.595
645.773
543.887
437.208
374.337
348.232
332.802
320.005
309.347
301.143
295.468
292.25
290.817
290.636
291.166
292.327
293.514
295.527
306.422
362.335
528.612
673.472
764.795
821.189
890.324
949.236
969.705
949.446
909.404
863.384
832.965
821.225
840.693
874.073
871.988
859.255
840.205
805.705
764.115
719.815
665.858
589.169
489.071
405.61
365.814
346.815
332.515
320.057
309.887
302.234
297.039
294.124
292.786
292.577
293.047
294.121
295.228
297.193
308.192
364.518
530.179
673.96
765.221
822.33
891.822
950.002
930.813
929.269
867.017
843.858
822.04
820.712
823.166
813.756
807.904
793.16
767.788
735.89
703.754
666.176
611.237
530.1
441.151
385.906
361.263
345.767
332.221
320.328
310.783
303.715
298.998
296.366
295.117
294.878
295.282
296.29
297.352
299.3
310.39
366.7
531.474
674.566
765.928
823.674
893.409
950.667
975.893
947.927
897.936
861.255
825.847
795.29
776.355
762.116
747.137
726.835
701.923
677.816
652.492
614.539
553.383
473.056
407.961
376.484
359.557
345.69
332.698
321.424
312.536
306.028
301.704
299.264
298.046
297.741
298.061
299.01
300.05
302.04
313.298
369.956
534.091
676.111
767.54
825.847
895.679
951.922
990.981
941.857
901.35
862.589
819.634
772.652
735.504
708.719
687.292
666.234
647.031
629.941
605.061
561.32
495.612
429.353
390.883
372.187
358.585
345.476
333.009
322.419
314.179
308.241
304.318
302.07
300.893
300.525
300.783
301.724
302.825
304.916
316.337
372.6
535.736
677.519
769.51
828.396
898.098
952.829
991.258
946.908
915.899
887.022
820.49
750.48
690.616
653.718
630.829
614.446
602.447
587.297
557.325
506.815
446.561
404.233
383.475
370.458
358.52
346.076
334.404
324.74
317.341
312.087
308.643
306.711
305.691
305.429
305.766
306.911
308.187
310.603
322.479
379.408
543.383
684.966
776.019
834.138
902.65
954.934
997.785
958.588
933.541
902.982
823.377
724.646
643.64
603.779
585.506
575.864
566.553
546.525
509.535
461.094
421.017
399.386
387.014
376.989
366.094
354.757
344.568
336.409
330.346
326.201
323.584
322.219
321.575
321.591
322.162
323.616
325.109
327.949
340.656
400.085
568.706
711.109
799.881
850.734
910.526
956.531
1006.24
971.384
950.656
909.298
825.308
702.703
608.611
571.537
559.581
556.174
548.75
525.98
488.521
452.568
432.412
424.658
420.67
415.969
409.5
402.321
396.319
392.394
390.243
389.583
389.854
391.165
392.338
394.487
396.64
399.636
401.52
405.482
421.052
491.192
675.262
807.937
874.07
898.839
935.686
961.497
1013.81
984.683
972.065
929.964
851.737
719.94
623.679
596.854
595.863
599.103
593.705
579.016
561.652
553.427
554.098
558.569
562.856
563.683
561.09
556.793
553.296
551.634
550.909
551.322
552.308
554.359
555.895
558.497
560.689
563.769
565.367
569.668
589.078
669.911
858.715
975.427
1020.84
1007
992.64
973.155
1016.32
1017.95
1042.68
1050.25
1000.65
882.402
774.217
744.966
746.306
747.443
736.278
721.301
711.396
711.39
714.924
718.473
717.937
713.602
706.843
699.71
694.001
689.685
685.972
683.758
682.42
682.464
682.397
683.126
683.836
685.328
686.023
689.261
708.802
778.67
945.988
1060.46
1114.47
1105.23
1064.15
1003.62
1013.95
1060.39
1131.9
1178.3
1145.54
1044.37
922.72
872.179
854.66
841.241
825.469
816.207
812.167
813.472
815.37
814.644
809.754
802.001
792.796
784.267
777.49
772.83
769.642
767.55
766.048
765.755
765.521
765.989
766.599
768.007
769.08
772.338
789.582
843.278
980.84
1096.94
1155.23
1143.17
1089.63
1012.07
1006.21
1077.15
1160.77
1191.5
1161.14
1063.75
952.075
896.67
871.215
858.888
849.997
847.994
848.929
852.481
855.455
855.482
852.328
846.766
840.861
836.351
833.862
830.348
826.985
824.914
824.074
824.668
825.305
826.593
827.914
829.923
831.827
835.667
846.594
884.468
978.744
1089.39
1140.34
1144.47
1089.55
987.696
1135.5
943.151
1118.78
1142.33
1128.54
1048.95
970.179
930.585
911.246
903.829
899.893
900.873
904.238
908.78
911.504
911.468
908.657
904.187
899.663
896.298
895.026
893.286
892.4
892.473
892.994
894.247
895.194
896.582
897.866
899.676
901.443
904.686
909.825
929.991
978.199
1053.41
1089.64
1091.7
934.023
989.554
10503.3
957.446
1006.55
1036.76
1026.15
978.288
935.685
918.062
912.251
913.69
917.008
923.723
930.82
937.104
941.573
944.262
945.299
945.256
944.656
944.177
944.107
944.092
944.497
945.507
946.768
948.197
949.102
950.242
951.08
952.315
953.198
955.092
956.366
960.53
969.342
998.432
1011.72
993.326
984.531
7185.53
10503.3
957.446
1006.55
1036.76
1026.15
978.288
935.685
918.062
912.251
913.69
917.008
923.723
930.82
937.104
941.573
944.262
945.299
945.256
944.656
944.177
944.107
944.092
944.497
945.507
946.768
948.197
949.102
950.242
951.08
952.315
953.198
955.092
956.366
960.53
969.342
998.432
1011.72
993.326
984.531
7185.53
1135.5
943.151
1118.78
1142.33
1128.54
1048.95
970.179
930.585
911.246
903.829
899.893
900.873
904.238
908.78
911.504
911.468
908.657
904.187
899.663
896.298
895.026
893.286
892.4
892.473
892.994
894.247
895.194
896.582
897.866
899.676
901.443
904.686
909.825
929.991
978.199
1053.41
1089.64
1091.7
934.023
989.554
1006.21
1077.15
1160.77
1191.5
1161.14
1063.75
952.075
896.67
871.215
858.888
849.997
847.994
848.929
852.481
855.455
855.482
852.328
846.766
840.861
836.351
833.862
830.348
826.985
824.914
824.074
824.668
825.305
826.593
827.914
829.923
831.827
835.667
846.594
884.468
978.744
1089.39
1140.34
1144.47
1089.55
987.696
1013.95
1060.39
1131.9
1178.3
1145.54
1044.37
922.72
872.179
854.66
841.241
825.469
816.207
812.167
813.472
815.37
814.644
809.754
802.001
792.796
784.267
777.49
772.83
769.642
767.55
766.048
765.755
765.521
765.989
766.599
768.007
769.08
772.338
789.582
843.278
980.84
1096.94
1155.23
1143.17
1089.63
1012.07
1016.32
1017.95
1042.68
1050.25
1000.65
882.402
774.217
744.966
746.306
747.443
736.278
721.301
711.396
711.39
714.924
718.473
717.937
713.602
706.843
699.71
694.001
689.685
685.972
683.758
682.42
682.464
682.397
683.126
683.836
685.328
686.023
689.261
708.802
778.67
945.988
1060.46
1114.47
1105.23
1064.15
1003.62
1013.81
984.683
972.065
929.964
851.737
719.94
623.679
596.854
595.863
599.103
593.705
579.016
561.652
553.427
554.098
558.569
562.856
563.683
561.09
556.793
553.296
551.634
550.909
551.322
552.308
554.359
555.895
558.497
560.689
563.769
565.367
569.668
589.078
669.911
858.715
975.427
1020.84
1007
992.64
973.155
1006.24
971.384
950.656
909.298
825.308
702.703
608.611
571.537
559.581
556.174
548.75
525.98
488.521
452.568
432.412
424.658
420.67
415.969
409.5
402.321
396.319
392.394
390.243
389.583
389.854
391.165
392.338
394.487
396.64
399.636
401.52
405.482
421.052
491.192
675.262
807.937
874.07
898.839
935.686
961.497
997.785
958.588
933.541
902.982
823.377
724.646
643.64
603.779
585.506
575.864
566.553
546.525
509.535
461.094
421.017
399.386
387.014
376.989
366.094
354.757
344.568
336.409
330.346
326.201
323.584
322.219
321.575
321.591
322.162
323.616
325.109
327.949
340.656
400.085
568.706
711.109
799.881
850.734
910.526
956.531
991.258
946.908
915.899
887.022
820.49
750.48
690.616
653.718
630.829
614.446
602.447
587.297
557.325
506.815
446.561
404.233
383.475
370.458
358.52
346.076
334.404
324.74
317.341
312.087
308.643
306.711
305.691
305.429
305.766
306.911
308.187
310.603
322.479
379.408
543.383
684.966
776.019
834.138
902.65
954.934
990.981
941.857
901.35
862.589
819.634
772.652
735.504
708.719
687.292
666.234
647.031
629.941
605.061
561.32
495.612
429.353
390.883
372.187
358.585
345.476
333.009
322.419
314.179
308.241
304.318
302.07
300.893
300.525
300.783
301.724
302.825
304.916
316.337
372.6
535.736
677.519
769.51
828.396
898.098
952.829
975.893
947.927
897.936
861.255
825.847
795.29
776.355
762.116
747.137
726.835
701.923
677.816
652.492
614.539
553.383
473.056
407.961
376.484
359.557
345.69
332.698
321.424
312.536
306.028
301.704
299.264
298.046
297.741
298.061
299.01
300.05
302.04
313.298
369.956
534.091
676.111
767.54
825.847
895.679
951.922
930.813
929.269
867.017
843.858
822.04
820.712
823.166
813.756
807.904
793.16
767.788
735.89
703.754
666.176
611.237
530.1
441.151
385.906
361.263
345.767
332.221
320.328
310.783
303.715
298.998
296.366
295.117
294.878
295.282
296.29
297.352
299.3
310.39
366.7
531.474
674.566
765.928
823.674
893.409
950.667
969.705
949.446
909.404
863.384
832.965
821.225
840.693
874.073
871.988
859.255
840.205
805.705
764.115
719.815
665.858
589.169
489.071
405.61
365.814
346.815
332.515
320.057
309.887
302.234
297.039
294.124
292.786
292.577
293.047
294.121
295.228
297.193
308.192
364.518
530.179
673.96
765.221
822.33
891.822
950.002
973.606
943.207
933.214
909.195
885.452
876.358
868.755
891.555
926.909
933.355
911.289
881.403
835.059
780.276
720.595
645.773
543.887
437.208
374.337
348.232
332.802
320.005
309.347
301.143
295.468
292.25
290.817
290.636
291.166
292.327
293.514
295.527
306.422
362.335
528.612
673.472
764.795
821.189
890.324
949.236
965.503
911.194
885.072
877.398
883.269
904.038
935.408
942.252
974.091
989.53
984.912
956.024
911.438
849.425
779.151
699.899
597.923
477.15
388.555
350.884
333.343
320.18
309.175
300.511
294.367
290.815
289.279
289.129
289.705
290.963
292.239
294.342
305.173
361.077
528.276
673.808
764.986
820.618
889.265
948.756
963.422
896.238
841.416
811.777
826.628
861.799
923.302
1000.25
1027.18
1064.04
1053.82
1028
987.119
923.068
842.349
753.678
648.7
519.988
408.13
354.671
333.682
320.199
309.007
299.971
293.407
289.539
287.903
287.793
288.429
289.795
291.174
293.357
304.122
359.596
527.371
673.742
764.818
819.765
887.862
947.866
967.333
903.169
833.341
767.593
757.652
792.152
857.184
1011.78
1091.13
1116.09
1135.53
1108.48
1062.49
995.768
907.292
807.757
696.162
561.204
430.817
360.023
334.205
320.25
308.946
299.624
292.684
288.515
286.78
286.721
287.429
288.908
290.388
292.675
303.393
358.761
527.421
674.558
765.365
819.715
887.064
947.135
967.195
915.667
852.44
768.61
720.291
732.587
817.569
1012.81
1168.4
1186.88
1192.83
1185.25
1143.96
1070
969.611
857.872
738.325
597.829
453.446
366.161
334.714
320.225
308.91
299.385
292.119
287.68
285.857
285.854
286.635
288.218
289.785
292.157
302.833
358
527.23
675.04
765.493
819.775
886.242
946.265
961.271
862.846
763.131
690.511
631.371
611.525
668.163
930.045
1205.81
1276.99
1276.19
1270.56
1231.14
1146.39
1028.39
901.047
772.558
627.579
473.359
372.246
335.277
320.215
308.955
299.283
291.732
287.059
285.163
285.217
286.065
287.736
289.368
291.812
302.45
357.491
527.284
675.916
765.88
820.929
885.916
945.574
954.659
857.954
782.145
736.012
667.996
602.097
615.644
846.831
1248.39
1341.23
1328.17
1320.68
1296.46
1214.14
1081.42
936.004
796.866
647.77
487.611
376.983
335.724
320.187
309.06
299.281
291.501
286.655
284.717
284.819
285.718
287.449
289.122
291.61
302.211
357.13
527.334
676.892
765.86
822.78
886.487
945.584
)
;

boundaryField
{
    inlet
    {
        type            fixedValue;
        value           uniform 10000;
    }
    outlet
    {
        type            fixedValue;
        value           uniform 1000;
    }
    obstacle
    {
        type            zeroGradient;
    }
    empty
    {
        type            empty;
    }
}


// ************************************************************************* //
