/*--------------------------------*- C++ -*----------------------------------*\
| =========                 |                                                 |
| \\      /  F ield         | OpenFOAM: The Open Source CFD Toolbox           |
|  \\    /   O peration     | Version:  v1912                                 |
|   \\  /    A nd           | Website:  www.openfoam.com                      |
|    \\/     M anipulation  |                                                 |
\*---------------------------------------------------------------------------*/
FoamFile
{
    version     2.0;
    format      ascii;
    class       volScalarField;
    location    "3.78";
    object      p;
}
// * * * * * * * * * * * * * * * * * * * * * * * * * * * * * * * * * * * * * //

dimensions      [1 -1 -2 0 0 0 0];


internalField   nonuniform List<scalar> 
1900
(
26889.7
12996.9
11742
11675.9
11600.2
11492.3
11364.1
11233.1
11089.3
10988.5
26889.5
12996.8
11742.5
11676.9
11602
11494.6
11364.9
11225.8
11046.1
10892.3
26889.4
12996.8
11742.8
11677.1
11601.2
11492.3
11360.3
11221.4
11049
10915.9
26889.5
12996.8
11742.5
11676.9
11602
11494.6
11364.9
11225.8
11046.1
10892.3
26889.7
12996.9
11742
11675.9
11600.2
11492.3
11364.1
11233.1
11089.3
10988.5
10769.3
10651
10464.5
10156.9
9183.64
10687.3
10549.2
10317.8
10058.7
9410.3
10698.1
10553.6
10327.7
10057.9
9359.83
10687.3
10549.2
10317.8
10058.7
9410.3
10769.3
10651
10464.5
10156.9
9183.64
9704.51
8612.06
8071.36
7613.37
7146.94
9590.38
8622.28
8110.05
7657.6
6988.89
9585.04
8620.47
8109.58
7609.53
6888.22
9590.38
8622.28
8110.05
7657.6
6988.89
9704.51
8612.06
8071.36
7613.37
7146.94
5814.77
2793.93
3077.88
3370.43
3225.2
3029.39
2829.31
2696.83
2667.83
2632.77
2608.85
2584.57
2563.13
2543.7
2526.96
2513.17
2502.33
2493.78
2487.26
2481.4
2476.21
2470.73
2464.2
2457.32
2449.4
2440.25
2429.21
2415.31
2397.06
2372.35
2338.61
2295.14
2242.46
2189.76
2139.2
2102.02
2066.9
2044.68
2280.05
11346.9
5890.63
2957.62
3178.14
3414.96
3251.4
3040.16
2833.4
2697.66
2669.28
2633.34
2609.31
2584.87
2563.36
2543.91
2527.15
2513.35
2502.51
2493.96
2487.42
2481.56
2476.36
2470.87
2464.35
2457.45
2449.53
2440.37
2429.33
2415.43
2397.17
2372.46
2338.72
2295.25
2242.56
2189.93
2139.33
2102.4
2067.23
2045.37
2278.76
11335.9
5728.44
3231.98
3299.01
3451.8
3266.07
3045.84
2835.43
2698.55
2670.05
2633.76
2609.61
2585.06
2563.51
2544.02
2527.24
2513.44
2502.59
2494.03
2487.5
2481.63
2476.43
2470.94
2464.41
2457.52
2449.6
2440.44
2429.4
2415.52
2397.28
2372.62
2338.93
2295.55
2242.99
2190.55
2140.24
2103.74
2069.08
2047.75
2280.65
11478
5890.63
2957.62
3178.14
3414.96
3251.4
3040.16
2833.4
2697.66
2669.28
2633.34
2609.31
2584.87
2563.36
2543.91
2527.15
2513.35
2502.51
2493.96
2487.42
2481.56
2476.36
2470.87
2464.35
2457.45
2449.53
2440.37
2429.33
2415.43
2397.17
2372.46
2338.72
2295.25
2242.56
2189.93
2139.33
2102.4
2067.23
2045.37
2278.76
11335.9
5814.77
2793.93
3077.88
3370.43
3225.2
3029.39
2829.31
2696.83
2667.83
2632.77
2608.85
2584.57
2563.13
2543.7
2526.96
2513.17
2502.33
2493.78
2487.26
2481.4
2476.21
2470.73
2464.2
2457.32
2449.4
2440.25
2429.21
2415.31
2397.06
2372.35
2338.61
2295.14
2242.46
2189.76
2139.2
2102.02
2066.9
2044.68
2280.05
11346.9
6290.72
2423.6
2871.38
3187.8
3130.04
2982.08
2805.09
2689.48
2660.52
2628.46
2605.35
2581.97
2561.05
2541.92
2525.35
2511.67
2500.94
2492.48
2486.02
2480.2
2475.05
2469.58
2463.06
2456.17
2448.24
2439.06
2427.97
2414.01
2395.67
2370.89
2337.07
2293.63
2241.09
2188.21
2137.91
2100.05
2065.4
2041.92
2286.23
11944.3
6766.25
2161.68
2681.96
2912.18
2939.43
2861.31
2747.42
2670.02
2644.17
2617.79
2597.13
2576.02
2556.29
2537.8
2521.59
2508.18
2497.67
2489.41
2483.11
2477.41
2472.34
2466.93
2460.43
2453.54
2445.6
2436.37
2425.21
2411.12
2392.6
2367.63
2333.66
2290.08
2237.82
2184.44
2134.11
2095.01
2060.2
2035.12
2263.82
11314.5
7316.58
2086.32
2517.95
2721.92
2770.51
2735.04
2676.35
2638.12
2620.59
2601.36
2584.82
2566.89
2548.74
2531.17
2515.54
2502.57
2492.42
2484.47
2478.43
2472.9
2467.95
2462.62
2456.14
2449.26
2441.29
2431.99
2420.69
2406.4
2387.59
2362.3
2328.13
2284.38
2232.48
2178.39
2127.77
2087.19
2051.89
2025.71
2229.96
11144
8273.18
2057.76
2398.97
2553.66
2624.01
2625.08
2608.4
2597.67
2589.83
2580.81
2569.29
2554.73
2538.51
2522.16
2507.35
2494.98
2485.36
2477.85
2472.15
2466.85
2462.08
2456.85
2450.38
2443.51
2435.48
2426.08
2414.58
2400
2380.82
2355.13
2320.67
2276.57
2225.07
2169.99
2118.51
2076.27
2040.1
2013.62
2192.23
10896.5
7971.51
2015.13
2301.92
2425.77
2502.68
2531.97
2542.81
2552.67
2556.65
2556.34
2550.38
2539.41
2525.44
2510.59
2496.81
2485.28
2476.34
2469.4
2464.15
2459.13
2454.56
2449.45
2443
2436.11
2428.01
2418.42
2406.68
2391.73
2371.92
2345.71
2311
2266.41
2214.82
2158.48
2105.65
2061.69
2024.78
1998.69
2141.8
10618.6
7915.42
1971.2
2209.14
2320.09
2401.77
2450.68
2481.26
2506.17
2521.49
2529.29
2528.3
2521.02
2509.47
2496.33
2483.87
2473.36
2465.29
2459.06
2454.36
2449.67
2445.34
2440.35
2433.89
2426.96
2418.72
2408.95
2396.74
2381.34
2360.86
2333.92
2298.88
2253.39
2201.67
2143.62
2088.99
2043.25
2005.62
1980.01
2071.32
10165.9
7922.19
1929.52
2131.71
2234.95
2319.4
2379.44
2422.77
2458.93
2483.74
2498.95
2502.71
2498.89
2490.03
2478.97
2468.07
2458.87
2451.86
2446.48
2442.43
2438.13
2434.04
2429.18
2422.67
2415.67
2407.22
2397.06
2384.38
2368.18
2346.74
2318.97
2283.92
2236.98
2184.61
2124.97
2069.06
2021.53
1984.24
1960.21
1994.96
9652.22
7628.53
1879.59
2053.2
2150.98
2241.92
2310.38
2364.61
2410.68
2443.83
2465.25
2473.53
2473.04
2466.65
2457.74
2448.62
2440.96
2435.17
2430.78
2427.49
2423.63
2419.8
2415.03
2408.44
2401.3
2392.6
2381.96
2368.62
2351.55
2329.48
2299.82
2264.68
2215.81
2161.86
2099.69
2041.24
1990.34
1951.82
1927.73
1896.76
9039.71
7327.57
1834.42
1995.9
2086.89
2179.18
2250.97
2310.99
2363.73
2402.31
2427.93
2439.41
2441.18
2437.11
2430.61
2423.64
2417.79
2413.46
2410.2
2407.8
2404.44
2400.83
2396.14
2389.42
2382.05
2372.89
2361.68
2347.49
2329.69
2306.6
2276.9
2242.54
2192.42
2137.75
2074.9
2014.15
1961.28
1920.4
1897.38
1819.91
8385.3
6945.3
1782.57
1931.46
2014.49
2101.42
2175.73
2242.78
2302.75
2348.8
2379.49
2395.2
2400.73
2399.59
2395.82
2391.28
2387.32
2384.51
2382.34
2380.92
2378.1
2374.63
2370.02
2363.14
2355.54
2345.88
2334.03
2318.85
2299.58
2275.82
2242.65
2207.53
2153.64
2095.65
2030.28
1966.28
1909.31
1865.09
1842.47
1745.1
7683.69
6513.53
1725
1867.28
1946.09
2028.29
2104.48
2177.53
2242.43
2294.63
2328.69
2347.18
2354.58
2354.55
2352.42
2349.54
2347.18
2345.68
2344.43
2343.96
2341.65
2338.26
2333.78
2326.84
2319.16
2309.37
2297.34
2282.14
2262.64
2239.48
2205.06
2168.53
2111.26
2049.83
1981.94
1914.84
1853.76
1806.15
1782.31
1681.61
6984.02
6050.3
1665.51
1798.56
1872.08
1946.61
2022.19
2097.19
2164.01
2220.53
2256.13
2279.19
2289.64
2294.45
2296.38
2296.59
2296.64
2296.71
2296.46
2296.89
2295.06
2291.7
2287.34
2280.26
2272.24
2261.92
2248.79
2232.27
2210.5
2185.49
2147.68
2108.8
2050.05
1986.78
1917.78
1849.43
1786.29
1737.12
1712.95
1619.63
6300.17
5584.18
1601.98
1725.09
1793.45
1864.71
1939.85
2013.69
2081.66
2140.46
2179.07
2206.37
2220.47
2229.38
2234.34
2237.36
2239.27
2240.4
2240.6
2241.36
2239.66
2236.41
2232.49
2225.82
2218.16
2207.8
2194.2
2176.44
2153.13
2127.41
2086.53
2044.92
1984.5
1919.83
1850.29
1781.32
1717.19
1667.18
1642.9
1557.34
5665.52
5112.79
1541.48
1654.18
1716.05
1784.28
1859.68
1930.5
1998.28
2056.83
2097.74
2129.44
2145.19
2158.48
2168.1
2174.73
2179.79
2183.27
2185.05
2186.97
2185.88
2182.72
2178.59
2171.28
2162.74
2151.15
2136.12
2117.11
2091.74
2065.13
2022.28
1979.11
1917.39
1851.77
1781.7
1712.38
1647.78
1597.37
1573.49
1495.35
5056.69
4668.25
1479.08
1582.43
1640.68
1706.12
1780.41
1849.86
1917.5
1975.35
2020.07
2056.63
2077.15
2094.39
2107.73
2117.9
2125.68
2131.15
2134.1
2136.56
2135.57
2132.69
2128.95
2121.64
2112.73
2100.23
2083.96
2063.46
2036.1
2008.88
1963.5
1917
1853.31
1786.37
1715.76
1646.01
1580.75
1529.94
1505.83
1434.75
4512.8
4211.99
1427.83
1521.44
1572.16
1635.01
1708.09
1776.97
1845.93
1903.06
1952.32
1993.86
2018.51
2042.02
2058.73
2072.05
2082.37
2089.92
2094.56
2098.54
2098.61
2095.99
2091.67
2083.26
2073.34
2059.78
2042.26
2020.82
1991.51
1962.72
1913.47
1863.45
1797.17
1728.43
1656.96
1586.48
1521.27
1469.41
1447.11
1383.85
3987.7
3892.43
1391.86
1472.42
1517.78
1578.66
1650.25
1719.28
1787.77
1847.98
1901.5
1947.75
1975.68
2001.29
2019.67
2034.62
2046.29
2054.92
2060.38
2064.92
2065.09
2062.67
2058.68
2050.07
2039.74
2025.81
2007.81
1986.59
1956.34
1927.57
1877.1
1824.57
1756.49
1686.03
1613.85
1542.78
1476.69
1425.62
1406.23
1352.99
3637.05
3532.84
1393.73
1467.17
1498.26
1551.95
1619.72
1688.48
1757.98
1818.14
1875.26
1920.39
1950.52
1976.91
1994.53
2009.17
2020.89
2029.79
2036.46
2042.83
2044.6
2042.19
2036.78
2026.75
2015.78
2002.1
1984.9
1965.6
1935.78
1908.37
1857.77
1805.01
1737.52
1667.2
1595.48
1524.52
1459.96
1412.02
1398.86
1356.27
3267.8
5122.59
1479.33
1458.23
1464.59
1502.08
1557.76
1614.05
1671.45
1724.73
1785.31
1859.06
1942.95
2049.48
2132.15
2208.59
2262.46
2300.85
2320.9
2335.13
2331.15
2328.78
2329.66
2312.24
2288.25
2247.34
2185.97
2115.23
2010.64
1917.11
1810.18
1727.29
1652.88
1585.63
1520.75
1457.38
1399.9
1362.14
1363.28
1416.76
4879.61
44999.1
5212.31
3663.47
4043.39
4412.2
4952.04
5504.64
6130.88
6773.36
7465.8
8146.51
8820.46
9450.29
10028.5
10534
10951.3
11228.4
11482.4
11596.4
11704.8
11702.2
11583.4
11465.3
11192.6
10919.5
10469.8
9971.05
9360.1
8714.95
8021.61
7311.8
6596.53
5919.41
5262.49
4677.31
4106.46
3718.95
3309.33
4761.69
41783
44999.1
5212.31
3663.47
4043.39
4412.2
4952.04
5504.64
6130.88
6773.36
7465.8
8146.51
8820.46
9450.29
10028.5
10534
10951.3
11228.4
11482.4
11596.4
11704.8
11702.2
11583.4
11465.3
11192.6
10919.5
10469.8
9971.05
9360.1
8714.95
8021.61
7311.8
6596.53
5919.41
5262.49
4677.31
4106.46
3718.95
3309.33
4761.69
41783
5122.59
1479.33
1458.23
1464.59
1502.08
1557.76
1614.05
1671.45
1724.73
1785.31
1859.06
1942.95
2049.48
2132.15
2208.59
2262.46
2300.85
2320.9
2335.13
2331.15
2328.78
2329.66
2312.24
2288.25
2247.34
2185.97
2115.23
2010.64
1917.11
1810.18
1727.29
1652.88
1585.63
1520.75
1457.38
1399.9
1362.14
1363.28
1416.76
4879.61
3532.84
1393.73
1467.17
1498.26
1551.95
1619.72
1688.48
1757.98
1818.14
1875.26
1920.39
1950.52
1976.91
1994.53
2009.17
2020.89
2029.79
2036.46
2042.83
2044.6
2042.19
2036.78
2026.75
2015.78
2002.1
1984.9
1965.6
1935.78
1908.37
1857.77
1805.01
1737.52
1667.2
1595.48
1524.52
1459.96
1412.02
1398.86
1356.27
3267.8
3892.43
1391.86
1472.42
1517.78
1578.66
1650.25
1719.28
1787.77
1847.98
1901.5
1947.75
1975.68
2001.29
2019.67
2034.62
2046.29
2054.92
2060.38
2064.92
2065.09
2062.67
2058.68
2050.07
2039.74
2025.81
2007.81
1986.59
1956.34
1927.57
1877.1
1824.57
1756.49
1686.03
1613.85
1542.78
1476.69
1425.62
1406.23
1352.99
3637.05
4211.99
1427.83
1521.44
1572.16
1635.01
1708.09
1776.97
1845.93
1903.06
1952.32
1993.86
2018.51
2042.02
2058.73
2072.05
2082.37
2089.92
2094.56
2098.54
2098.61
2095.99
2091.67
2083.26
2073.34
2059.78
2042.26
2020.82
1991.51
1962.72
1913.47
1863.45
1797.17
1728.43
1656.96
1586.48
1521.27
1469.41
1447.11
1383.85
3987.7
4668.25
1479.08
1582.43
1640.68
1706.12
1780.41
1849.86
1917.5
1975.35
2020.07
2056.63
2077.15
2094.39
2107.73
2117.9
2125.68
2131.15
2134.1
2136.56
2135.57
2132.69
2128.95
2121.64
2112.73
2100.23
2083.96
2063.46
2036.1
2008.88
1963.5
1917
1853.31
1786.37
1715.76
1646.01
1580.75
1529.94
1505.83
1434.75
4512.8
5112.79
1541.48
1654.18
1716.05
1784.28
1859.68
1930.5
1998.28
2056.83
2097.74
2129.44
2145.19
2158.48
2168.1
2174.73
2179.79
2183.27
2185.05
2186.97
2185.88
2182.72
2178.59
2171.28
2162.74
2151.15
2136.12
2117.11
2091.74
2065.13
2022.28
1979.11
1917.39
1851.77
1781.7
1712.38
1647.78
1597.37
1573.49
1495.35
5056.69
5584.18
1601.98
1725.09
1793.45
1864.71
1939.85
2013.69
2081.66
2140.46
2179.07
2206.37
2220.47
2229.38
2234.34
2237.36
2239.27
2240.4
2240.6
2241.36
2239.66
2236.41
2232.49
2225.82
2218.16
2207.8
2194.2
2176.44
2153.13
2127.41
2086.53
2044.92
1984.5
1919.83
1850.29
1781.32
1717.19
1667.18
1642.9
1557.34
5665.52
6050.3
1665.51
1798.56
1872.08
1946.61
2022.19
2097.19
2164.01
2220.53
2256.13
2279.19
2289.64
2294.45
2296.38
2296.59
2296.64
2296.71
2296.46
2296.89
2295.06
2291.7
2287.34
2280.26
2272.24
2261.92
2248.79
2232.27
2210.5
2185.49
2147.68
2108.8
2050.05
1986.78
1917.78
1849.43
1786.29
1737.12
1712.95
1619.63
6300.17
6513.53
1725
1867.28
1946.09
2028.29
2104.48
2177.53
2242.43
2294.63
2328.69
2347.18
2354.58
2354.55
2352.42
2349.54
2347.18
2345.68
2344.43
2343.96
2341.65
2338.26
2333.78
2326.84
2319.16
2309.37
2297.34
2282.14
2262.64
2239.48
2205.06
2168.53
2111.26
2049.83
1981.94
1914.84
1853.76
1806.15
1782.31
1681.61
6984.02
6945.3
1782.57
1931.46
2014.49
2101.42
2175.73
2242.78
2302.75
2348.8
2379.49
2395.2
2400.73
2399.59
2395.82
2391.28
2387.32
2384.51
2382.34
2380.92
2378.1
2374.63
2370.02
2363.14
2355.54
2345.88
2334.03
2318.85
2299.58
2275.82
2242.65
2207.53
2153.64
2095.65
2030.28
1966.28
1909.31
1865.09
1842.47
1745.1
7683.69
7327.57
1834.42
1995.9
2086.89
2179.18
2250.97
2310.99
2363.73
2402.31
2427.93
2439.41
2441.18
2437.11
2430.61
2423.64
2417.79
2413.46
2410.2
2407.8
2404.44
2400.83
2396.14
2389.42
2382.05
2372.89
2361.68
2347.49
2329.69
2306.6
2276.9
2242.54
2192.42
2137.75
2074.9
2014.15
1961.28
1920.4
1897.38
1819.91
8385.3
7628.53
1879.59
2053.2
2150.98
2241.92
2310.38
2364.61
2410.68
2443.83
2465.25
2473.53
2473.04
2466.65
2457.74
2448.62
2440.96
2435.17
2430.78
2427.49
2423.63
2419.8
2415.03
2408.44
2401.3
2392.6
2381.96
2368.62
2351.55
2329.48
2299.82
2264.68
2215.81
2161.86
2099.69
2041.24
1990.34
1951.82
1927.73
1896.76
9039.71
7922.19
1929.52
2131.71
2234.95
2319.4
2379.44
2422.77
2458.93
2483.74
2498.95
2502.71
2498.89
2490.03
2478.97
2468.07
2458.87
2451.86
2446.48
2442.43
2438.13
2434.04
2429.18
2422.67
2415.67
2407.22
2397.06
2384.38
2368.18
2346.74
2318.97
2283.92
2236.98
2184.61
2124.97
2069.06
2021.53
1984.24
1960.21
1994.96
9652.22
7915.42
1971.2
2209.14
2320.09
2401.77
2450.68
2481.26
2506.17
2521.49
2529.29
2528.3
2521.02
2509.47
2496.33
2483.87
2473.36
2465.29
2459.06
2454.36
2449.67
2445.34
2440.35
2433.89
2426.96
2418.72
2408.95
2396.74
2381.34
2360.86
2333.92
2298.88
2253.39
2201.67
2143.62
2088.99
2043.25
2005.62
1980.01
2071.32
10165.9
7971.51
2015.13
2301.92
2425.77
2502.68
2531.97
2542.81
2552.67
2556.65
2556.34
2550.38
2539.41
2525.44
2510.59
2496.81
2485.28
2476.34
2469.4
2464.15
2459.13
2454.56
2449.45
2443
2436.11
2428.01
2418.42
2406.68
2391.73
2371.92
2345.71
2311
2266.41
2214.82
2158.48
2105.65
2061.69
2024.78
1998.69
2141.8
10618.6
8273.18
2057.76
2398.97
2553.66
2624.01
2625.08
2608.4
2597.67
2589.83
2580.81
2569.29
2554.73
2538.51
2522.16
2507.35
2494.98
2485.36
2477.85
2472.15
2466.85
2462.08
2456.85
2450.38
2443.51
2435.48
2426.08
2414.58
2400
2380.82
2355.13
2320.67
2276.57
2225.07
2169.99
2118.51
2076.27
2040.1
2013.62
2192.23
10896.5
7316.58
2086.32
2517.95
2721.92
2770.51
2735.04
2676.35
2638.12
2620.59
2601.36
2584.82
2566.89
2548.74
2531.17
2515.54
2502.57
2492.42
2484.47
2478.43
2472.9
2467.95
2462.62
2456.14
2449.26
2441.29
2431.99
2420.69
2406.4
2387.59
2362.3
2328.13
2284.38
2232.48
2178.39
2127.77
2087.19
2051.89
2025.71
2229.96
11144
6766.25
2161.68
2681.96
2912.18
2939.43
2861.31
2747.42
2670.02
2644.17
2617.79
2597.13
2576.02
2556.29
2537.8
2521.59
2508.18
2497.67
2489.41
2483.11
2477.41
2472.34
2466.93
2460.43
2453.54
2445.6
2436.37
2425.21
2411.12
2392.6
2367.63
2333.66
2290.08
2237.82
2184.44
2134.11
2095.01
2060.2
2035.12
2263.82
11314.5
6290.72
2423.6
2871.38
3187.8
3130.04
2982.08
2805.09
2689.48
2660.52
2628.46
2605.35
2581.97
2561.05
2541.92
2525.35
2511.67
2500.94
2492.48
2486.02
2480.2
2475.05
2469.58
2463.06
2456.17
2448.24
2439.06
2427.97
2414.01
2395.67
2370.89
2337.07
2293.63
2241.09
2188.21
2137.91
2100.05
2065.4
2041.92
2286.23
11944.3
)
;

boundaryField
{
    inlet
    {
        type            fixedValue;
        value           uniform 10000;
    }
    outlet
    {
        type            fixedValue;
        value           uniform 1000;
    }
    obstacle
    {
        type            zeroGradient;
    }
    empty
    {
        type            empty;
    }
}


// ************************************************************************* //
