/*--------------------------------*- C++ -*----------------------------------*\
| =========                 |                                                 |
| \\      /  F ield         | OpenFOAM: The Open Source CFD Toolbox           |
|  \\    /   O peration     | Version:  v1912                                 |
|   \\  /    A nd           | Website:  www.openfoam.com                      |
|    \\/     M anipulation  |                                                 |
\*---------------------------------------------------------------------------*/
FoamFile
{
    version     2.0;
    format      ascii;
    class       volTensorField;
    location    "1.58";
    object      grad(U);
}
// * * * * * * * * * * * * * * * * * * * * * * * * * * * * * * * * * * * * * //

dimensions      [0 0 -1 0 0 0 0];


internalField   nonuniform List<tensor> 
1900
(
(-0.0573852 5.28587e-07 0 -2.06153e-06 9.24374e-08 0 0 0 0)
(-0.110017 3.06072e-06 0 -1.44813e-05 -5.04982e-06 0 0 0 0)
(-0.138686 5.00784e-05 0 -2.25268e-05 4.92689e-06 0 0 0 0)
(-0.109131 0.000218515 0 2.86222e-06 0.000118476 0 0 0 0)
(-0.0588812 0.000790676 0 0.000183411 0.000515469 0 0 0 0)
(-0.0271038 0.00128929 0 0.000853035 0.00178586 0 0 0 0)
(-0.0101758 -0.00196557 0 0.00224957 0.00291025 0 0 0 0)
(0.00454906 -0.0123302 0 0.00349111 -0.00128992 0 0 0 0)
(0.0315204 -0.03803 0 -0.00115884 -0.0174513 0 0 0 0)
(0.0161877 -0.121189 0 -0.0326719 -0.0706625 0 0 0 0)
(-0.0574018 -5.48597e-06 0 -4.64737e-06 -3.02411e-07 0 0 0 0)
(-0.110037 1.77373e-06 0 -2.24529e-05 -2.26177e-07 0 0 0 0)
(-0.138669 7.34478e-05 0 -1.24494e-05 -3.36313e-06 0 0 0 0)
(-0.108925 0.000292027 0 4.86602e-05 -5.03046e-05 0 0 0 0)
(-0.0580311 0.000876712 0 0.000309287 -0.000221878 0 0 0 0)
(-0.0250377 0.00110549 0 0.00130767 -0.00084098 0 0 0 0)
(-0.00753777 -0.00111022 0 0.00327731 -0.00151117 0 0 0 0)
(0.00114065 -0.0080314 0 0.004392 0.00112459 0 0 0 0)
(-0.00464268 -0.0313426 0 -0.00412505 0.010819 0 0 0 0)
(-0.0636935 -0.07982 0 -0.050976 0.0391546 0 0 0 0)
(-0.0574123 2.95477e-13 0 -1.59047e-13 4.19942e-07 0 0 0 0)
(-0.110024 5.53654e-14 0 6.44626e-13 1.0552e-05 0 0 0 0)
(-0.138615 -1.09226e-12 0 -5.3153e-13 -3.12752e-06 0 0 0 0)
(-0.108809 8.09307e-13 0 -1.28749e-14 -0.000136344 0 0 0 0)
(-0.0576222 -3.44924e-13 0 -6.93212e-14 -0.000587181 0 0 0 0)
(-0.0241358 4.57517e-14 0 -1.13502e-13 -0.00188977 0 0 0 0)
(-0.00709151 -1.13431e-13 0 4.62141e-14 -0.00279816 0 0 0 0)
(-0.00285331 1.89221e-14 0 -9.77137e-14 0.000330669 0 0 0 0)
(-0.0238476 1.24742e-14 0 2.10064e-14 0.0132646 0 0 0 0)
(-0.0851041 2.08076e-14 0 1.53347e-13 0.0630158 0 0 0 0)
(-0.0574018 5.48597e-06 0 4.64737e-06 -3.0241e-07 0 0 0 0)
(-0.110037 -1.77373e-06 0 2.24529e-05 -2.26178e-07 0 0 0 0)
(-0.138669 -7.34478e-05 0 1.24494e-05 -3.36313e-06 0 0 0 0)
(-0.108925 -0.000292027 0 -4.86602e-05 -5.03046e-05 0 0 0 0)
(-0.0580311 -0.000876712 0 -0.000309287 -0.000221878 0 0 0 0)
(-0.0250377 -0.00110549 0 -0.00130767 -0.00084098 0 0 0 0)
(-0.00753777 0.00111022 0 -0.00327731 -0.00151117 0 0 0 0)
(0.00114065 0.0080314 0 -0.004392 0.00112459 0 0 0 0)
(-0.00464268 0.0313426 0 0.00412505 0.010819 0 0 0 0)
(-0.0636935 0.07982 0 0.050976 0.0391546 0 0 0 0)
(-0.0573852 -5.28587e-07 0 2.06153e-06 9.24411e-08 0 0 0 0)
(-0.110017 -3.06072e-06 0 1.44813e-05 -5.04982e-06 0 0 0 0)
(-0.138686 -5.00784e-05 0 2.25268e-05 4.9269e-06 0 0 0 0)
(-0.109131 -0.000218515 0 -2.86222e-06 0.000118476 0 0 0 0)
(-0.0588812 -0.000790676 0 -0.000183411 0.000515469 0 0 0 0)
(-0.0271038 -0.00128929 0 -0.000853035 0.00178586 0 0 0 0)
(-0.0101758 0.00196557 0 -0.00224957 0.00291025 0 0 0 0)
(0.00454906 0.0123302 0 -0.00349111 -0.00128992 0 0 0 0)
(0.0315204 0.03803 0 0.00115884 -0.0174513 0 0 0 0)
(0.0161877 0.121189 0 0.0326719 -0.0706625 0 0 0 0)
(-0.073829 -0.217104 7.70153e-18 -0.119735 0.104848 -1.15523e-17 -3.10291e-17 -3.73712e-17 2.0875e-33)
(-0.173812 -0.262748 0 -0.163185 0.170661 0 8.23714e-17 2.96658e-17 0)
(-0.220144 -0.339447 0 -0.238861 0.207741 0 1.32106e-16 5.49135e-17 0)
(-0.612162 -0.288249 0 -0.533031 0.350887 0 0 0 0)
(-0.00650965 -0.903145 -2.13133e-16 -1.80013 1.98153 3.197e-16 9.92179e-16 6.61453e-16 5.77698e-32)
(-0.152222 -0.122373 0 -0.102234 0.122424 0 -5.26654e-17 -1.84251e-17 0)
(-0.266445 -0.166453 0 -0.121206 0.198558 0 -8.23714e-17 -2.96658e-17 0)
(-0.43698 -0.259868 0 -0.233257 0.357982 0 -1.32106e-16 -5.49135e-17 0)
(-0.803934 -0.241524 0 -0.560208 0.658432 0 0 0 0)
(-0.623318 0.0767765 0 -0.773469 0.945635 0 0 0 0)
(-0.180805 -3.17388e-14 0 1.01153e-13 0.163012 0 0 0 0)
(-0.321011 3.74448e-13 0 6.62766e-14 0.25957 0 0 0 0)
(-0.565969 1.97265e-13 0 2.10817e-13 0.499607 0 0 0 0)
(-0.972826 -1.12994e-13 0 -1.68893e-13 0.951333 0 0 0 0)
(-0.802184 1.40616e-13 0 -2.14582e-13 1.46666 0 0 0 0)
(-0.152222 0.122373 0 0.102234 0.122424 0 -5.26654e-17 1.84251e-17 0)
(-0.266445 0.166453 0 0.121206 0.198558 0 -8.23714e-17 2.96658e-17 0)
(-0.43698 0.259868 0 0.233257 0.357982 0 -1.32106e-16 5.49135e-17 0)
(-0.803934 0.241524 0 0.560208 0.658432 0 0 0 0)
(-0.623318 -0.0767765 0 0.773469 0.945635 0 0 0 0)
(-0.073829 0.217104 -7.70153e-18 0.119735 0.104848 -1.15523e-17 1.3636e-16 -7.42214e-17 2.0875e-33)
(-0.173812 0.262748 0 0.163185 0.170661 0 8.23714e-17 -2.96658e-17 0)
(-0.220144 0.339447 0 0.238861 0.207741 0 1.32106e-16 -5.49135e-17 0)
(-0.612162 0.288249 -2.02531e-17 0.533031 0.350887 -3.03796e-17 4.02506e-16 -2.68337e-16 5.48961e-33)
(-0.00650965 0.903145 2.13133e-16 1.80013 1.98153 3.197e-16 -9.92179e-16 6.61453e-16 5.77698e-32)
(-0.0921833 0.333621 2.30233e-18 -0.28375 -0.695879 2.07209e-17 -6.34046e-16 4.85425e-17 -6.24047e-34)
(0.226272 0.0132685 -7.03119e-19 -0.180291 -0.320099 -6.32807e-18 4.63821e-16 -4.12921e-17 -1.90581e-34)
(0.0732636 0.107432 0 0.0631424 -0.184512 0 0 0 0)
(-0.403181 0.461864 -1.68086e-18 0.565699 0.413032 -1.51278e-17 -3.14872e-16 4.9318e-17 4.55599e-34)
(-1.21097 0.459047 5.39462e-18 2.15948 1.72967 4.85516e-17 2.13704e-16 -2.37449e-17 1.46222e-33)
(0.0704709 0.301087 0 -0.34404 -0.232912 0 3.21296e-16 -1.37924e-17 0)
(0.305275 -0.00113941 0 -0.218631 -0.317732 0 -2.34625e-16 1.58259e-17 0)
(0.317972 0.109798 0 0.13433 -0.306395 0 0 0 0)
(0.429117 0.484794 0 0.852256 -0.557285 0 1.7973e-16 -3.44023e-17 0)
(1.08263 0.371728 0 3.13104 -1.20027 0 -1.35926e-17 9.92215e-18 0)
(0.112823 7.43373e-14 0 -4.02469e-13 -0.450107 0 0 0 0)
(0.36991 9.68053e-14 0 -1.48267e-13 -0.415503 0 0 0 0)
(0.464848 3.13627e-13 0 7.12763e-13 -0.394699 0 0 0 0)
(0.877352 1.4247e-13 0 1.83358e-12 -0.936024 0 -6.16253e-17 2.70087e-29 0)
(1.63062 -2.22499e-13 0 2.50008e-12 -2.63565 0 2.71853e-17 -1.82662e-29 0)
(0.0704709 -0.301087 0 0.34404 -0.232912 0 3.21296e-16 1.37924e-17 0)
(0.305275 0.00113941 0 0.218631 -0.317732 0 -2.34625e-16 -1.58259e-17 0)
(0.317972 -0.109798 0 -0.13433 -0.306395 0 0 0 0)
(0.429117 -0.484794 0 -0.852256 -0.557285 0 1.7973e-16 3.44023e-17 0)
(1.08263 -0.371728 0 -3.13104 -1.20027 0 -1.35926e-17 -9.92215e-18 0)
(-0.0921833 -0.333621 0 0.28375 -0.695879 0 -3.21296e-16 -1.37924e-17 0)
(0.226272 -0.0132685 7.03119e-19 0.180291 -0.320099 -6.32807e-18 5.42977e-18 -9.64033e-18 -1.90581e-34)
(0.0732636 -0.107432 0 -0.0631424 -0.184512 0 0 0 0)
(-0.403181 -0.461864 1.68086e-18 -0.565699 0.413032 -1.51278e-17 1.7037e-17 -1.24392e-17 4.55599e-34)
(-1.21097 -0.459047 -5.39462e-18 -2.15948 1.72967 4.85516e-17 -2.13704e-16 -2.37449e-17 1.46222e-33)
(0.426348 -0.822101 0 10.0096 0.0390923 0 0 0 0)
(1.09061 -0.89428 0 5.13026 0.61968 0 0 0 0)
(-0.602293 0.210546 0 2.46637 0.806092 0 0 0 0)
(-0.499294 0.481296 0 0.646632 0.58437 0 0 0 0)
(-0.164365 0.239397 0 0.15713 0.258054 0 0 0 0)
(0.0724678 0.078805 0 0.028015 0.119265 0 0 0 0)
(0.218391 0.0293038 0 0.000202355 0.0538935 0 0 0 0)
(0.291967 0.00766295 0 0.00338329 0.0341437 0 0 0 0)
(0.334721 0.0047375 0 0.00608497 0.020985 0 0 0 0)
(0.348353 0.00316012 0 0.00500175 0.0136969 0 0 0 0)
(0.337035 0.00253337 0 0.00353624 0.00869223 0 0 0 0)
(0.294435 0.00192122 0 0.00253101 0.00499514 0 0 0 0)
(0.211672 0.00128994 0 0.00165775 0.00228042 0 0 0 0)
(0.106667 0.000653254 0 0.000731995 0.000660598 0 0 0 0)
(0.0305205 0.000201378 0 0.000141696 8.49761e-05 0 0 0 0)
(0.00368274 2.7195e-05 0 7.45371e-06 3.08739e-06 0 0 0 0)
(0.000126215 1.04069e-06 0 6.89987e-08 2.01928e-08 0 0 0 0)
(8.18526e-07 7.30038e-09 0 7.6369e-11 1.40396e-11 0 0 0 0)
(7.04486e-10 6.11358e-12 0 4.8563e-15 6.81654e-15 0 0 0 0)
(5.36648e-14 -3.53341e-15 0 -5.97642e-17 4.80583e-15 0 0 0 0)
(7.61733e-14 4.86556e-17 0 2.666e-16 1.99587e-15 0 0 0 0)
(9.52552e-10 6.84702e-14 0 -1.399e-16 8.45362e-15 0 0 0 0)
(1.04182e-06 4.14015e-13 0 1.146e-13 -2.04089e-13 0 0 0 0)
(0.000152382 -4.30957e-13 0 4.2617e-13 3.22689e-13 0 0 0 0)
(0.0042566 1.76118e-13 0 -1.39435e-12 2.32911e-13 0 0 0 0)
(0.0341552 1.16807e-13 0 9.10645e-13 1.36531e-13 0 0 0 0)
(0.116865 7.57592e-14 0 -5.04339e-13 -4.25627e-13 0 0 0 0)
(0.229242 3.04026e-13 0 2.59716e-13 3.07646e-13 0 0 0 0)
(0.318701 -5.90963e-13 0 2.86328e-13 -2.24473e-15 0 0 0 0)
(0.369905 1.0589e-13 0 -2.95692e-15 5.2309e-14 0 0 0 0)
(0.396077 -3.19599e-13 0 -2.43945e-13 -6.05769e-13 0 0 0 0)
(0.408724 3.70243e-13 0 -5.51957e-14 -1.76685e-13 0 0 0 0)
(0.412243 1.08003e-13 0 -8.67362e-14 -6.29058e-13 0 0 0 0)
(0.406986 -4.03706e-13 0 1.74458e-13 -1.46362e-13 0 0 0 0)
(0.3911 2.6731e-13 0 1.39961e-13 8.21823e-14 0 0 0 0)
(0.359929 1.04464e-13 0 1.97128e-14 -2.70116e-13 0 0 0 0)
(0.297268 -2.56429e-14 0 -6.30809e-14 7.18299e-14 0 0 0 0)
(0.439368 -1.85892e-15 0 -1.47846e-13 -2.7778e-13 0 0 0 0)
(2.51952 -5.51069e-14 0 -3.35117e-14 -4.95724e-13 0 0 0 0)
(2.20756 -1.85441e-13 0 2.36553e-13 -2.10943e-13 0 0 0 0)
(1.13654 -0.712752 0 8.37409 -1.10259 0 0 0 0)
(-0.32006 -0.78133 0 4.41195 1.67753 0 0 0 0)
(-1.46269 0.191667 0 2.2842 1.97149 0 0 0 0)
(-0.941476 0.347627 0 0.541699 0.953782 0 0 0 0)
(-0.272141 0.142347 0 0.0837135 0.31704 0 0 0 0)
(0.0523153 0.0418242 0 0.00308933 0.130856 0 0 0 0)
(0.216591 0.0149868 0 -0.00765556 0.0461476 0 0 0 0)
(0.29415 0.00351909 0 -0.000780364 0.0301236 0 0 0 0)
(0.335516 0.00216276 0 0.00310781 0.0198062 0 0 0 0)
(0.348117 0.00151276 0 0.00289137 0.0138385 0 0 0 0)
(0.336686 0.00127543 0 0.00195535 0.00894325 0 0 0 0)
(0.294162 0.000976121 0 0.00129727 0.00513 0 0 0 0)
(0.211449 0.000649997 0 0.000769841 0.00233907 0 0 0 0)
(0.106514 0.000323265 0 0.000318557 0.000695814 0 0 0 0)
(0.0304544 9.76852e-05 0 6.1394e-05 9.35079e-05 0 0 0 0)
(0.00366996 1.30188e-05 0 3.29804e-06 3.57741e-06 0 0 0 0)
(0.000125522 4.97488e-07 0 3.14811e-08 2.50949e-08 0 0 0 0)
(8.11848e-07 3.52876e-09 0 3.59099e-11 2.08526e-11 0 0 0 0)
(6.96864e-10 3.24152e-12 0 1.11505e-15 7.43414e-15 0 0 0 0)
(5.38177e-14 -2.53932e-15 0 -1.82439e-15 3.22973e-15 0 0 0 0)
(7.63194e-14 1.04526e-15 0 -1.07863e-15 -4.37167e-15 0 0 0 0)
(9.52561e-10 5.40749e-15 0 2.05828e-15 6.30374e-15 0 0 0 0)
(1.04182e-06 3.78294e-13 0 -6.24045e-14 -4.11211e-13 0 0 0 0)
(0.000152382 -4.31296e-13 0 5.7729e-13 -5.69681e-13 0 0 0 0)
(0.0042566 1.06904e-13 0 -1.04562e-12 1.46639e-13 0 0 0 0)
(0.0341552 9.60584e-14 0 6.18192e-13 -9.27809e-13 0 0 0 0)
(0.116865 1.54225e-13 0 -6.58807e-13 -6.81515e-13 0 0 0 0)
(0.229242 3.66088e-13 0 5.6551e-14 -2.47545e-13 0 0 0 0)
(0.318701 -6.50914e-13 0 3.46205e-13 -5.30199e-13 0 0 0 0)
(0.369905 -1.72994e-14 0 -2.13391e-13 -4.77359e-13 0 0 0 0)
(0.396077 -2.76644e-13 0 -3.87356e-13 -1.01638e-12 0 0 0 0)
(0.408724 3.79378e-13 0 -7.98367e-14 -2.25248e-13 0 0 0 0)
(0.412243 1.40667e-13 0 8.57505e-14 -7.82315e-13 0 0 0 0)
(0.406986 -2.83484e-13 0 1.87271e-13 -2.17729e-13 0 0 0 0)
(0.3911 2.20905e-13 0 4.92819e-14 -4.43921e-13 0 0 0 0)
(0.359929 8.74771e-14 0 -3.94255e-15 -2.27062e-13 0 0 0 0)
(0.297268 -2.53712e-14 0 -7.88511e-15 -2.2205e-13 0 0 0 0)
(0.439368 -1.63096e-13 0 -7.0966e-14 -4.13718e-13 0 0 0 0)
(2.51952 -9.26249e-14 0 -1.04478e-13 -8.3261e-13 0 0 0 0)
(2.20756 -8.2802e-14 0 3.94255e-15 -6.30952e-13 0 0 0 0)
(1.18576 -2.3644e-13 0 2.13144e-12 -2.65055 0 0 0 0)
(-0.68099 -1.32625e-13 0 6.09124e-13 2.42816 0 0 0 0)
(-1.72818 5.0833e-14 0 -2.00824e-13 2.72109 0 0 0 0)
(-1.13944 6.15435e-14 0 -2.00085e-13 1.11045 0 0 0 0)
(-0.321051 5.86051e-14 0 2.09941e-13 0.331158 0 0 0 0)
(0.0458877 2.96782e-14 0 -1.29119e-13 0.131816 0 0 0 0)
(0.217265 -1.0953e-13 0 -2.84849e-13 0.0436168 0 0 0 0)
(0.295098 -1.19298e-13 0 -1.21234e-13 0.0287813 0 0 0 0)
(0.33579 2.22771e-13 0 1.80372e-13 0.019423 0 0 0 0)
(0.348018 1.45655e-13 0 4.0904e-14 0.0139123 0 0 0 0)
(0.336571 -2.37118e-13 0 -1.94664e-13 0.00902281 0 0 0 0)
(0.29409 -2.01416e-13 0 -2.32364e-13 0.00514373 0 0 0 0)
(0.211387 2.01277e-14 0 -4.39841e-14 0.00231197 0 0 0 0)
(0.106461 3.57496e-13 0 1.45844e-13 0.000675006 0 0 0 0)
(0.0304288 -2.23431e-13 0 -5.07242e-13 8.95286e-05 0 0 0 0)
(0.00366489 -2.69408e-13 0 3.7016e-13 3.42025e-06 0 0 0 0)
(0.000125255 2.10422e-13 0 -9.91762e-14 2.42601e-08 0 0 0 0)
(8.09367e-07 4.5358e-14 0 8.38191e-14 2.18458e-11 0 0 0 0)
(6.94039e-10 4.83058e-14 0 -1.54409e-14 9.88527e-15 0 0 0 0)
(5.30267e-14 -6.96782e-15 0 -1.72559e-15 -1.69561e-15 0 0 0 0)
(7.73028e-14 9.42913e-16 0 -7.85669e-16 -2.17718e-15 0 0 0 0)
(9.52534e-10 -4.98829e-14 0 2.59092e-15 -6.58922e-15 0 0 0 0)
(1.04182e-06 2.46456e-13 0 -1.44492e-13 -4.3167e-13 0 0 0 0)
(0.000152382 -2.68674e-13 0 5.85033e-13 -1.00169e-12 0 0 0 0)
(0.0042566 7.19353e-14 0 -8.43289e-13 7.38638e-13 0 0 0 0)
(0.0341552 -1.2411e-13 0 7.56843e-13 -1.01675e-12 0 0 0 0)
(0.116865 2.73654e-13 0 -6.6315e-13 -5.63563e-13 0 0 0 0)
(0.229242 3.48046e-13 0 -5.34709e-14 -6.92597e-13 0 0 0 0)
(0.318701 -6.57818e-13 0 2.10927e-13 -1.09855e-12 0 0 0 0)
(0.369905 -3.55444e-14 0 -2.15362e-13 -1.73223e-13 0 0 0 0)
(0.396077 -2.46258e-13 0 -2.29161e-13 -9.74527e-13 0 0 0 0)
(0.408724 4.38334e-13 0 -5.12532e-14 -3.34528e-13 0 0 0 0)
(0.412243 1.1019e-13 0 -4.43537e-14 -7.50808e-13 0 0 0 0)
(0.406986 -3.05264e-13 0 8.87075e-15 -4.64484e-13 0 0 0 0)
(0.3911 2.64595e-13 0 3.15404e-14 -5.89175e-13 0 0 0 0)
(0.359929 1.69008e-13 0 6.50521e-14 -5.59219e-14 0 0 0 0)
(0.297268 -7.99429e-14 0 -9.85638e-14 -1.99968e-13 0 0 0 0)
(0.439368 -1.79476e-13 0 -4.53394e-14 -4.08151e-13 0 0 0 0)
(2.51952 -1.18302e-13 0 -2.36553e-14 -2.94846e-13 0 0 0 0)
(2.20756 -1.26777e-13 0 -3.706e-13 -4.23074e-14 0 0 0 0)
(1.13654 0.712752 0 -8.37409 -1.10259 0 0 0 0)
(-0.32006 0.78133 0 -4.41195 1.67753 0 0 0 0)
(-1.46269 -0.191667 0 -2.2842 1.97149 0 0 0 0)
(-0.941476 -0.347627 0 -0.541699 0.953782 0 0 0 0)
(-0.272141 -0.142347 0 -0.0837135 0.31704 0 0 0 0)
(0.0523153 -0.0418242 0 -0.00308933 0.130856 0 0 0 0)
(0.216591 -0.0149868 0 0.00765556 0.0461476 0 0 0 0)
(0.29415 -0.00351909 0 0.000780364 0.0301236 0 0 0 0)
(0.335516 -0.00216276 0 -0.00310781 0.0198062 0 0 0 0)
(0.348117 -0.00151276 0 -0.00289137 0.0138385 0 0 0 0)
(0.336686 -0.00127543 0 -0.00195535 0.00894325 0 0 0 0)
(0.294162 -0.000976121 0 -0.00129727 0.00513 0 0 0 0)
(0.211449 -0.000649997 0 -0.000769841 0.00233907 0 0 0 0)
(0.106514 -0.000323265 0 -0.000318557 0.000695814 0 0 0 0)
(0.0304544 -9.76852e-05 0 -6.1394e-05 9.35079e-05 0 0 0 0)
(0.00366996 -1.30188e-05 0 -3.29804e-06 3.57741e-06 0 0 0 0)
(0.000125522 -4.97487e-07 0 -3.14812e-08 2.50953e-08 0 0 0 0)
(8.11848e-07 -3.52873e-09 0 -3.56882e-11 2.10744e-11 0 0 0 0)
(6.96839e-10 -3.1141e-12 0 -2.10991e-14 -4.64706e-14 0 0 0 0)
(5.8081e-14 -6.0484e-15 0 9.65116e-17 -4.23037e-15 0 0 0 0)
(7.75752e-14 -3.7834e-16 0 -2.08355e-16 -3.65363e-15 0 0 0 0)
(9.5252e-10 -1.19536e-13 0 -1.47884e-15 -1.04303e-14 0 0 0 0)
(1.04182e-06 8.88092e-14 0 -2.35408e-13 -3.67001e-13 0 0 0 0)
(0.000152382 -9.08422e-14 0 4.21297e-13 -1.27306e-12 0 0 0 0)
(0.0042566 1.02523e-13 0 -7.48869e-13 6.81317e-13 0 0 0 0)
(0.0341552 -2.82764e-13 0 6.75516e-13 -1.05871e-12 0 0 0 0)
(0.116865 2.48525e-13 0 -6.9429e-13 -3.25713e-13 0 0 0 0)
(0.229242 2.10456e-13 0 -3.69614e-14 -1.20431e-12 0 0 0 0)
(0.318701 -4.99824e-13 0 1.99838e-13 -9.81581e-13 0 0 0 0)
(0.369905 1.87795e-14 0 -7.34301e-14 3.9875e-15 0 0 0 0)
(0.396077 -3.23569e-13 0 -1.86286e-13 -8.40585e-13 0 0 0 0)
(0.408724 4.44459e-13 0 0 -3.57439e-13 0 0 0 0)
(0.412243 1.02862e-13 0 -8.1808e-14 -9.57682e-13 0 0 0 0)
(0.406986 -2.36463e-13 0 -7.49085e-14 -1.82808e-13 0 0 0 0)
(0.3911 3.3976e-13 0 2.36553e-14 -1.96464e-13 0 0 0 0)
(0.359929 2.00701e-13 0 9.65926e-14 -2.32158e-13 0 0 0 0)
(0.297268 -1.27838e-13 0 -1.22219e-13 -5.02355e-13 0 0 0 0)
(0.439368 -1.90697e-13 0 -7.0966e-14 -2.97237e-13 0 0 0 0)
(2.51952 1.38023e-14 0 -4.13968e-14 -5.45306e-13 0 0 0 0)
(2.20756 -9.33632e-15 0 -3.19347e-13 2.60823e-13 0 0 0 0)
(0.426348 0.822101 0 -10.0096 0.0390923 0 0 0 0)
(1.09061 0.89428 0 -5.13026 0.61968 0 0 0 0)
(-0.602293 -0.210546 0 -2.46637 0.806092 0 0 0 0)
(-0.499294 -0.481296 0 -0.646632 0.58437 0 0 0 0)
(-0.164365 -0.239397 0 -0.15713 0.258054 0 0 0 0)
(0.0724678 -0.078805 0 -0.028015 0.119265 0 0 0 0)
(0.218391 -0.0293038 0 -0.000202355 0.0538935 0 0 0 0)
(0.291967 -0.00766295 0 -0.00338329 0.0341437 0 0 0 0)
(0.334721 -0.0047375 0 -0.00608497 0.020985 0 0 0 0)
(0.348353 -0.00316012 0 -0.00500175 0.0136969 0 0 0 0)
(0.337035 -0.00253337 0 -0.00353624 0.00869223 0 0 0 0)
(0.294435 -0.00192122 0 -0.00253101 0.00499514 0 0 0 0)
(0.211672 -0.00128994 0 -0.00165775 0.00228042 0 0 0 0)
(0.106667 -0.000653254 0 -0.000731995 0.000660598 0 0 0 0)
(0.0305205 -0.000201378 0 -0.000141696 8.49761e-05 0 0 0 0)
(0.00368274 -2.7195e-05 0 -7.45371e-06 3.08739e-06 0 0 0 0)
(0.000126215 -1.04069e-06 0 -6.89986e-08 2.01928e-08 0 0 0 0)
(8.18526e-07 -7.30043e-09 0 -7.62775e-11 1.4509e-11 0 0 0 0)
(7.04421e-10 -6.08367e-12 0 -3.19061e-16 -3.47279e-14 0 0 0 0)
(5.9104e-14 5.48802e-15 0 8.50114e-16 -1.46421e-15 0 0 0 0)
(7.68445e-14 -8.60702e-16 0 -1.02303e-17 -1.00893e-15 0 0 0 0)
(9.52466e-10 -1.55584e-13 0 -2.08778e-15 -1.56205e-15 0 0 0 0)
(1.04182e-06 -1.20856e-13 0 -1.24351e-13 1.62714e-13 0 0 0 0)
(0.000152382 3.62913e-14 0 -1.47542e-14 -7.79347e-13 0 0 0 0)
(0.0042566 1.34292e-13 0 -5.34593e-14 6.77592e-13 0 0 0 0)
(0.0341552 -4.17064e-13 0 2.35491e-13 -6.73081e-13 0 0 0 0)
(0.116865 2.31298e-13 0 -2.445e-13 3.07047e-13 0 0 0 0)
(0.229242 1.57248e-13 0 6.14792e-14 -7.1466e-13 0 0 0 0)
(0.318701 -3.06312e-13 0 1.16552e-13 -1.03165e-13 0 0 0 0)
(0.369905 5.47252e-15 0 5.91383e-15 5.60729e-13 0 0 0 0)
(0.396077 -3.514e-13 0 -1.79386e-13 -4.74066e-13 0 0 0 0)
(0.408724 4.0427e-13 0 3.44973e-14 1.66267e-13 0 0 0 0)
(0.412243 1.60992e-13 0 7.88511e-14 -6.30978e-13 0 0 0 0)
(0.406986 -8.38189e-14 0 3.94255e-15 3.00835e-13 0 0 0 0)
(0.3911 2.50239e-13 0 -9.85638e-15 2.10084e-13 0 0 0 0)
(0.359929 8.0022e-14 0 -3.94255e-14 -2.69895e-13 0 0 0 0)
(0.297268 -9.8875e-14 0 -4.53394e-14 -4.27973e-13 0 0 0 0)
(0.439368 -1.91971e-13 0 2.75979e-14 -1.40329e-13 0 0 0 0)
(2.51952 4.40426e-14 0 2.36553e-14 -1.70471e-13 0 0 0 0)
(2.20756 1.07734e-13 0 -7.0966e-14 -2.65589e-14 0 0 0 0)
(2.45953 1.02192 0 -4.1068 -0.0572746 0 0 0 0)
(2.78052 1.13185 0 -2.41308 0.117087 0 0 0 0)
(0.354925 -0.191988 0 -1.32495 0.170039 0 0 0 0)
(-0.00422106 -0.536842 0 -0.500755 0.188711 0 0 0 0)
(-0.00871661 -0.321881 0 -0.206562 0.146262 0 0 0 0)
(0.12745 -0.127129 0 -0.066017 0.0927716 0 0 0 0)
(0.229962 -0.0518273 0 -0.0322922 0.0570553 0 0 0 0)
(0.292985 -0.0193704 0 -0.0171773 0.035171 0 0 0 0)
(0.335419 -0.0120115 0 -0.0112416 0.0207269 0 0 0 0)
(0.349443 -0.00731889 0 -0.00767538 0.0125725 0 0 0 0)
(0.337832 -0.00527928 0 -0.00564771 0.00744522 0 0 0 0)
(0.295024 -0.00390531 0 -0.00421642 0.00391686 0 0 0 0)
(0.212319 -0.002629 0 -0.00276074 0.00160639 0 0 0 0)
(0.107288 -0.00131886 0 -0.00118874 0.000410494 0 0 0 0)
(0.0308326 -0.000390229 0 -0.000221856 4.63833e-05 0 0 0 0)
(0.00374401 -4.99181e-05 0 -1.12725e-05 1.38667e-06 0 0 0 0)
(0.000129397 -1.80603e-06 0 -9.9776e-08 6.77378e-09 0 0 0 0)
(8.47408e-07 -1.18341e-08 0 -1.14878e-10 1.68046e-11 0 0 0 0)
(7.35919e-10 -8.78254e-12 0 -1.21385e-14 8.09363e-12 0 0 0 0)
(5.70919e-14 1.76363e-15 0 -1.28602e-15 8.07651e-12 0 0 0 0)
(7.65771e-14 1.18014e-16 0 -2.1668e-16 8.07397e-12 0 0 0 0)
(9.52504e-10 2.48431e-14 0 1.18004e-14 8.08714e-12 0 0 0 0)
(1.04182e-06 -1.56649e-13 0 -7.59244e-14 8.2461e-12 0 0 0 0)
(0.000152382 8.51288e-14 0 -5.20459e-14 8.17999e-12 0 0 0 0)
(0.0042566 1.32448e-13 0 2.44989e-13 8.33453e-12 0 0 0 0)
(0.0341552 -3.59911e-13 0 4.22104e-14 8.13725e-12 0 0 0 0)
(0.116865 2.42361e-13 0 8.54251e-14 8.80781e-12 0 0 0 0)
(0.229242 1.4663e-14 0 -1.33154e-14 7.4337e-12 0 0 0 0)
(0.318701 7.64446e-14 0 -3.13247e-13 7.08756e-12 0 0 0 0)
(0.369905 -1.9849e-13 0 -6.91807e-14 6.55183e-12 0 0 0 0)
(0.396077 -5.38825e-13 0 -2.97105e-13 4.28138e-12 0 0 0 0)
(0.408724 3.92502e-13 0 -3.13024e-13 3.41002e-12 0 0 0 0)
(0.412243 1.20061e-13 0 -2.0531e-13 1.47937e-12 0 0 0 0)
(0.406986 1.14618e-13 0 -3.48135e-14 1.4633e-12 0 0 0 0)
(0.3911 8.52651e-14 0 -1.30923e-14 7.9804e-13 0 0 0 0)
(0.359929 -5.99998e-14 0 -1.77936e-13 3.17734e-13 0 0 0 0)
(0.297268 -8.00526e-14 0 -1.94003e-13 2.73677e-13 0 0 0 0)
(0.439368 -2.76997e-14 0 -5.95102e-15 3.45745e-14 0 0 0 0)
(2.51952 5.02017e-14 0 -2.79698e-14 2.60053e-13 0 0 0 0)
(2.20756 -5.44261e-14 0 -1.02358e-13 1.42506e-14 0 0 0 0)
(2.37654 0.862484 0 -0.568749 0.329443 0 0 0 0)
(2.86513 0.985937 0 -0.762287 -0.217531 0 0 0 0)
(0.727202 -0.151478 0 -0.609672 -0.17744 0 0 0 0)
(0.312947 -0.474423 0 -0.377459 -0.0776057 0 0 0 0)
(0.171102 -0.287617 0 -0.205203 0.0302872 0 0 0 0)
(0.210917 -0.138855 0 -0.104277 0.0481037 0 0 0 0)
(0.259249 -0.0727321 0 -0.0625212 0.0440809 0 0 0 0)
(0.311706 -0.0363924 0 -0.0330949 0.0269925 0 0 0 0)
(0.343504 -0.0226137 0 -0.0189707 0.0167161 0 0 0 0)
(0.353159 -0.0137288 0 -0.0123312 0.00951953 0 0 0 0)
(0.339941 -0.00940182 0 -0.00886753 0.00489955 0 0 0 0)
(0.296902 -0.00648379 0 -0.00627653 0.00206823 0 0 0 0)
(0.214242 -0.00395076 0 -0.00374705 0.000632127 0 0 0 0)
(0.108781 -0.00179961 0 -0.00147318 0.000102996 0 0 0 0)
(0.0314877 -0.00049434 0 -0.00025738 1.83269e-06 0 0 0 0)
(0.00386358 -5.97002e-05 0 -1.2589e-05 -1.08746e-08 0 0 0 0)
(0.000135371 -1.96652e-06 0 -1.16073e-07 3.44672e-08 0 0 0 0)
(8.99186e-07 -1.1389e-08 0 -1.35412e-10 3.0104e-08 0 0 0 0)
(7.9823e-10 -1.30472e-11 0 -2.68631e-14 3.00971e-08 0 0 0 0)
(7.16712e-14 -1.14598e-14 0 4.5395e-16 3.00971e-08 0 0 0 0)
(8.95984e-14 8.86273e-15 0 1.64034e-15 3.00971e-08 0 0 0 0)
(9.52372e-10 -8.64638e-14 0 1.17906e-14 3.00971e-08 0 0 0 0)
(1.04182e-06 -1.21915e-14 0 3.7795e-13 3.00976e-08 0 0 0 0)
(0.000152382 9.53162e-14 0 -4.48274e-13 3.00972e-08 0 0 0 0)
(0.0042566 9.40968e-14 0 4.46233e-13 3.00973e-08 0 0 0 0)
(0.0341552 8.35862e-15 0 -1.44731e-11 3.00667e-08 0 0 0 0)
(0.116865 -4.52603e-13 0 -9.72163e-11 2.9798e-08 0 0 0 0)
(0.229242 -1.42399e-12 0 -3.12954e-10 2.87385e-08 0 0 0 0)
(0.318701 -1.36136e-12 0 -5.9368e-10 2.63889e-08 0 0 0 0)
(0.369905 -2.58929e-12 0 -8.19682e-10 2.27186e-08 0 0 0 0)
(0.396077 -3.27846e-12 0 -9.15446e-10 1.82108e-08 0 0 0 0)
(0.408724 -2.28953e-12 0 -8.74141e-10 1.35562e-08 0 0 0 0)
(0.412243 -1.69299e-12 0 -7.32578e-10 9.36042e-09 0 0 0 0)
(0.406986 -8.46786e-13 0 -5.45947e-10 6.00577e-09 0 0 0 0)
(0.3911 -7.65209e-13 0 -3.62714e-10 3.59922e-09 0 0 0 0)
(0.359929 -3.5019e-13 0 -2.19564e-10 2.06948e-09 0 0 0 0)
(0.297268 -3.81831e-13 0 -1.27109e-10 1.13215e-09 0 0 0 0)
(0.439368 -2.93187e-13 0 -1.00528e-10 5.71941e-10 0 0 0 0)
(2.51952 2.1155e-14 0 -4.99993e-11 1.70973e-10 0 0 0 0)
(2.20756 -4.21755e-14 0 -1.00334e-12 5.09531e-12 0 0 0 0)
(2.27303 0.494838 0 -0.0408073 0.295542 0 0 0 0)
(2.74108 0.643398 0 -0.178835 -0.287576 0 0 0 0)
(0.725759 -0.0571512 0 -0.241406 -0.284705 0 0 0 0)
(0.38554 -0.336668 0 -0.250585 -0.152701 0 0 0 0)
(0.254532 -0.200742 0 -0.168584 -0.0252866 0 0 0 0)
(0.264944 -0.113837 0 -0.11872 0.0063659 0 0 0 0)
(0.298555 -0.0721708 0 -0.0721186 0.0175822 0 0 0 0)
(0.334952 -0.0457401 0 -0.0425371 0.0118541 0 0 0 0)
(0.355427 -0.0288491 0 -0.025885 0.00817213 0 0 0 0)
(0.359178 -0.0187057 0 -0.0169236 0.00429672 0 0 0 0)
(0.343667 -0.0124596 0 -0.0116003 0.00167313 0 0 0 0)
(0.299958 -0.00801755 0 -0.00763183 0.000256085 0 0 0 0)
(0.216948 -0.00452277 0 -0.00416207 -0.000191754 0 0 0 0)
(0.11065 -0.00192623 0 -0.00150952 -0.000108793 0 0 0 0)
(0.0322401 -0.00048949 0 -0.000256456 5.49271e-06 0 0 0 0)
(0.00399192 -5.16509e-05 0 -1.2476e-05 1.28149e-05 0 0 0 0)
(0.000141528 -1.76654e-06 0 -1.14198e-07 1.26228e-05 0 0 0 0)
(9.5926e-07 -1.60453e-08 0 -1.33203e-10 1.26201e-05 0 0 0 0)
(8.66407e-10 -1.53823e-11 0 -3.15164e-14 1.26201e-05 0 0 0 0)
(8.45589e-14 3.77241e-15 0 1.1184e-13 1.26201e-05 0 0 0 0)
(8.75015e-14 -1.41364e-15 0 3.46132e-14 1.26201e-05 0 0 0 0)
(9.52867e-10 5.16018e-13 0 -5.21636e-14 1.26201e-05 0 0 0 0)
(1.04182e-06 -9.81924e-14 0 1.20838e-12 1.26201e-05 0 0 0 0)
(0.000152382 -2.12239e-13 0 -3.95982e-12 1.26201e-05 0 0 0 0)
(0.0042566 -2.92482e-11 0 -2.43836e-10 1.26198e-05 0 0 0 0)
(0.0341552 -2.88826e-10 0 -5.83313e-09 1.26103e-05 0 0 0 0)
(0.116865 -1.27959e-09 0 -4.10914e-08 1.25233e-05 0 0 0 0)
(0.229242 -3.2851e-09 0 -1.28895e-07 1.21899e-05 0 0 0 0)
(0.318701 -5.80097e-09 0 -2.47056e-07 1.14469e-05 0 0 0 0)
(0.369905 -7.88091e-09 0 -3.5255e-07 1.02613e-05 0 0 0 0)
(0.396077 -8.82976e-09 0 -4.167e-07 8.73752e-06 0 0 0 0)
(0.408724 -8.52814e-09 0 -4.30461e-07 7.05311e-06 0 0 0 0)
(0.412243 -7.27574e-09 0 -3.98841e-07 5.39173e-06 0 0 0 0)
(0.406986 -5.55158e-09 0 -3.3572e-07 3.90725e-06 0 0 0 0)
(0.3911 -3.79307e-09 0 -2.56834e-07 2.69251e-06 0 0 0 0)
(0.359929 -2.37742e-09 0 -1.82115e-07 1.80194e-06 0 0 0 0)
(0.297268 -1.44316e-09 0 -1.21035e-07 1.16039e-06 0 0 0 0)
(0.439368 -9.26254e-10 0 -1.18146e-07 6.97581e-07 0 0 0 0)
(2.51952 -5.46183e-10 0 -7.9402e-08 2.48261e-07 0 0 0 0)
(2.20756 -1.599e-10 0 -2.09695e-09 1.4459e-08 0 0 0 0)
(2.24353 0.300571 0 0.00577323 0.198135 0 0 0 0)
(2.67182 0.42679 0 -0.0310873 -0.177711 0 0 0 0)
(0.65806 -0.0215082 0 -0.108341 -0.237051 0 0 0 0)
(0.383121 -0.224438 0 -0.172341 -0.130313 0 0 0 0)
(0.298172 -0.134334 0 -0.138308 -0.0399425 0 0 0 0)
(0.303875 -0.0975449 0 -0.105229 -0.0158889 0 0 0 0)
(0.332662 -0.0674435 0 -0.0690316 -0.0051296 0 0 0 0)
(0.356258 -0.0454603 0 -0.0446394 -0.000926952 0 0 0 0)
(0.368186 -0.0298963 0 -0.0287838 -0.000103319 0 0 0 0)
(0.366925 -0.0199915 0 -0.0188576 -0.000549239 0 0 0 0)
(0.348895 -0.0132955 0 -0.0124198 -0.000700552 0 0 0 0)
(0.304069 -0.00828086 0 -0.0077585 -0.00025057 0 0 0 0)
(0.220142 -0.00430237 0 -0.00406158 0.00035015 0 0 0 0)
(0.112545 -0.00160954 0 -0.00140516 0.000726032 0 0 0 0)
(0.0329304 -0.000377155 0 -0.000219895 0.000817677 0 0 0 0)
(0.0041106 -5.28295e-05 0 -1.01437e-05 0.000827115 0 0 0 0)
(0.000147393 -2.15425e-06 0 -8.46562e-08 0.000827641 0 0 0 0)
(1.00923e-06 -1.39446e-08 0 -9.53218e-11 0.000827651 0 0 0 0)
(9.26697e-10 -1.25239e-11 0 -3.33552e-13 0.000827651 0 0 0 0)
(1.35396e-13 1.51059e-13 0 5.37824e-14 0.000827651 0 0 0 0)
(-6.84415e-14 4.24549e-14 0 2.96362e-15 0.000827651 0 0 0 0)
(9.53503e-10 5.79796e-13 0 -1.13677e-13 0.000827651 0 0 0 0)
(1.04181e-06 -2.45953e-12 0 -1.31678e-12 0.000827651 0 0 0 0)
(0.000152382 -2.91338e-10 0 -1.49839e-10 0.000827651 0 0 0 0)
(0.0042566 -9.49008e-09 0 -1.79495e-08 0.000827635 0 0 0 0)
(0.0341552 -9.3034e-08 0 -4.06741e-07 0.000827146 0 0 0 0)
(0.116864 -4.05106e-07 0 -2.73687e-06 0.00082288 0 0 0 0)
(0.229242 -1.03722e-06 0 -8.34632e-06 0.000807025 0 0 0 0)
(0.318701 -1.85847e-06 0 -1.59566e-05 0.000772091 0 0 0 0)
(0.369904 -2.61086e-06 0 -2.32824e-05 0.000715718 0 0 0 0)
(0.396076 -3.0915e-06 0 -2.87512e-05 0.000640827 0 0 0 0)
(0.408724 -3.22413e-06 0 -3.16457e-05 0.000553444 0 0 0 0)
(0.412243 -3.03146e-06 0 -3.18259e-05 0.000460629 0 0 0 0)
(0.406986 -2.60107e-06 0 -2.9623e-05 0.000369682 0 0 0 0)
(0.3911 -2.02875e-06 0 -2.54907e-05 0.000286435 0 0 0 0)
(0.359929 -1.47641e-06 0 -2.05942e-05 0.000217718 0 0 0 0)
(0.297268 -1.0642e-06 0 -1.50854e-05 0.000161072 0 0 0 0)
(0.439368 -8.7896e-07 0 -1.80708e-05 0.00011321 0 0 0 0)
(2.51952 -6.58282e-07 0 -1.57453e-05 4.74323e-05 0 0 0 0)
(2.20756 -2.253e-07 0 -5.73377e-07 5.89221e-06 0 0 0 0)
(2.23751 0.132659 0 0.014189 0.151999 0 0 0 0)
(2.63112 0.224036 0 0.0142989 -0.112306 0 0 0 0)
(0.589642 -0.0114765 0 -0.0489398 -0.173464 0 0 0 0)
(0.356662 -0.146727 0 -0.115141 -0.0932047 0 0 0 0)
(0.319204 -0.0904794 0 -0.107317 -0.0427747 0 0 0 0)
(0.331702 -0.0802903 0 -0.0811932 -0.0222562 0 0 0 0)
(0.356941 -0.0577529 0 -0.0567236 -0.00954337 0 0 0 0)
(0.373736 -0.0408966 0 -0.0387604 -0.00111977 0 0 0 0)
(0.380272 -0.0284851 0 -0.0265579 0.00340836 0 0 0 0)
(0.374947 -0.0192812 0 -0.0180698 0.00619106 0 0 0 0)
(0.354362 -0.0121718 0 -0.0116364 0.0082906 0 0 0 0)
(0.308012 -0.00700506 0 -0.00675176 0.0101637 0 0 0 0)
(0.22307 -0.00358168 0 -0.00323371 0.0115414 0 0 0 0)
(0.114352 -0.00147571 0 -0.0010037 0.012203 0 0 0 0)
(0.0335844 -0.000392083 0 -0.000135376 0.0124035 0 0 0 0)
(0.00420374 -4.20492e-05 0 -5.43798e-06 0.012449 0 0 0 0)
(0.000151303 -1.25063e-06 0 -4.25273e-08 0.0124512 0 0 0 0)
(1.04084e-06 -6.39323e-09 0 -4.21493e-11 0.0124512 0 0 0 0)
(9.58315e-10 -3.52571e-12 0 -4.18271e-13 0.0124512 0 0 0 0)
(4.08837e-13 -3.54607e-13 0 -4.33154e-13 0.0124512 0 0 0 0)
(-7.38688e-14 -6.40052e-14 0 -5.06477e-13 0.0124512 0 0 0 0)
(9.51595e-10 -1.613e-12 0 -4.025e-13 0.0124512 0 0 0 0)
(1.04167e-06 -9.5462e-11 0 -3.96748e-12 0.0124512 0 0 0 0)
(0.000152365 -1.55167e-08 0 -2.76064e-09 0.0124512 0 0 0 0)
(0.00425621 -4.86071e-07 0 -3.13024e-07 0.012451 0 0 0 0)
(0.0341526 -4.58199e-06 0 -6.75679e-06 0.0124452 0 0 0 0)
(0.116857 -1.93911e-05 0 -4.30907e-05 0.0123974 0 0 0 0)
(0.22923 -4.89455e-05 0 -0.000126037 0.0122281 0 0 0 0)
(0.318687 -8.7992e-05 0 -0.000236803 0.0118659 0 0 0 0)
(0.369892 -0.000126498 0 -0.000348036 0.0112843 0 0 0 0)
(0.396069 -0.000156382 0 -0.000441807 0.0104989 0 0 0 0)
(0.408721 -0.000173654 0 -0.000508531 0.00954939 0 0 0 0)
(0.412245 -0.000177088 0 -0.000543177 0.00848564 0 0 0 0)
(0.406992 -0.000167865 0 -0.000545335 0.00736918 0 0 0 0)
(0.391108 -0.000146441 0 -0.000514007 0.00625432 0 0 0 0)
(0.359939 -0.000120807 0 -0.00045977 0.00524838 0 0 0 0)
(0.29727 -0.000100709 0 -0.000358964 0.00432735 0 0 0 0)