/*--------------------------------*- C++ -*----------------------------------*\
| =========                 |                                                 |
| \\      /  F ield         | OpenFOAM: The Open Source CFD Toolbox           |
|  \\    /   O peration     | Version:  v1912                                 |
|   \\  /    A nd           | Website:  www.openfoam.com                      |
|    \\/     M anipulation  |                                                 |
\*---------------------------------------------------------------------------*/
FoamFile
{
    version     2.0;
    format      ascii;
    class       volScalarField;
    location    "1.58";
    object      rho;
}
// * * * * * * * * * * * * * * * * * * * * * * * * * * * * * * * * * * * * * //

dimensions      [1 -3 0 0 0 0 0];


internalField   nonuniform List<scalar> 
1900
(
14026.3
14134.8
14337
14530.3
14648.4
14706.6
14715.5
14728.5
14729.1
14741.9
14026.3
14134.8
14337
14530.4
14648.4
14706.4
14715.1
14722.4
14715.8
14718.4
14026.3
14134.9
14337
14530.3
14648.4
14706.7
14715.5
14724
14722
14723.4
14026.3
14134.8
14337
14530.4
14648.4
14706.4
14715.1
14722.4
14715.8
14718.4
14026.3
14134.8
14337
14530.3
14648.4
14706.6
14715.5
14728.5
14729.1
14741.9
14678.1
14715.8
14690.2
14579.4
13913.9
14735.5
14769
14730.2
14672.8
14366.2
14734.2
14754
14704.6
14616.3
14296
14735.5
14769
14730.2
14672.8
14366.2
14678.1
14715.8
14690.2
14579.4
13913.9
15559.3
15594.8
15860.2
16138.8
16830.6
15417
15575.2
15868.9
16179
16304.5
15413.1
15585.3
15865.9
16100.5
15799.7
15417
15575.2
15868.9
16179
16304.5
15559.3
15594.8
15860.2
16138.8
16830.6
15994.4
9348.04
9604.81
9794.51
9820.4
10015.7
10316
10757.8
11291
11882.5
12495.1
13084.3
13577.5
13881.8
13985.8
13999.6
14000
14000.1
14000.1
14000.1
14000.1
14000.1
14000.1
14000
13999.5
13983.6
13868.1
13538.5
13011.3
12382.3
11720.2
11059
10417.4
9808.47
9240.13
8710.09
8229.7
7915.03
7876.54
36073.2
14786.1
9384.42
9713.81
9824.86
9843.25
10018.3
10319.7
10759.1
11292
11883.3
12495.7
13084.9
13578
13882.1
13985.9
13999.6
14000
14000.1
14000.1
14000.1
14000.1
14000.1
14000.1
14000
13999.5
13983.6
13868.1
13538.5
13011.3
12382.3
11720.2
11059
10417.4
9808.47
9240.13
8710.09
8229.7
7915.03
7876.54
36073.2
14052.8
9799.75
9778.15
9846.18
9853.19
10019.1
10320.6
10759.6
11292.3
11883.6
12495.9
13085.1
13578.1
13882.2
13985.9
13999.6
14000
14000.1
14000.1
14000.1
14000.1
14000.1
14000.1
14000
13999.5
13983.6
13868.1
13538.5
13011.3
12382.3
11720.2
11059
10417.4
9808.47
9240.13
8710.09
8229.7
7915.03
7876.54
36073.2
14786.1
9384.42
9713.81
9824.86
9843.25
10018.3
10319.7
10759.1
11292
11883.3
12495.7
13084.9
13578
13882.1
13985.9
13999.6
14000
14000.1
14000.1
14000.1
14000.1
14000.1
14000.1
14000
13999.5
13983.6
13868.1
13538.5
13011.3
12382.3
11720.2
11059
10417.4
9808.47
9240.13
8710.09
8229.7
7915.03
7876.54
36073.2
15994.4
9348.04
9604.81
9794.51
9820.4
10015.7
10316
10757.8
11291
11882.5
12495.1
13084.3
13577.5
13881.8
13985.8
13999.6
14000
14000.1
14000.1
14000.1
14000.1
14000.1
14000.1
14000
13999.5
13983.6
13868.1
13538.5
13011.3
12382.3
11720.2
11059
10417.4
9808.47
9240.13
8710.09
8229.7
7915.03
7876.54
36073.2
24123.5
9039.47
9383.91
9625.7
9752.81
9981.49
10303
10751.8
11286.9
11879.3
12492.4
13081.7
13575.3
13880.7
13985.6
13999.6
14000
14000.1
14000.1
14000.1
14000.1
14000.1
14000.1
14000
13999.5
13983.6
13868.1
13538.5
13011.3
12382.3
11720.2
11059
10417.4
9808.47
9240.13
8710.09
8229.7
7915.03
7876.54
36073.2
30671.2
8387.39
8987.28
9312.2
9588.33
9880.96
10259
10728.9
11274.7
11870.4
12484.4
13074.5
13570.1
13878.4
13985.2
13999.5
14000
14000.1
14000.1
14000.1
14000.1
14000.1
14000.1
14000
13999.5
13983.6
13868.1
13538.5
13011.3
12382.3
11720.2
11059
10417.4
9808.47
9240.13
8710.09
8229.7
7915.03
7876.54
36073.2
34056.1
8219.66
8752.67
9104.97
9435.46
9785.05
10203.9
10696.3
11254.2
11854.8
12471.2
13063.9
13563.3
13875.7
13984.7
13999.5
14000
14000.1
14000.1
14000.1
14000.1
14000.1
14000.1
14000
13999.5
13983.6
13868.1
13538.5
13011.3
12382.3
11720.2
11059
10417.4
9808.47
9240.13
8710.09
8229.7
7915.03
7876.54
36073.2
36083.6
8179.16
8579.83
8936.3
9302.16
9696.64
10143.5
10655.4
11225
11832.5
12453.8
13051.4
13555.8
13872.8
13984.2
13999.4
14000
14000
14000
14000
14000
14000
14000
14000
13999.4
13983.6
13868.1
13538.4
13011.3
12382.3
11720.1
11059
10417.4
9808.45
9240.12
8710.09
8229.69
7915.03
7876.54
36073.2
37332.9
8191
8455.51
8795.18
9181.66
9601.98
10071.4
10601.5
11183.2
11799.7
12429.2
13034.9
13546.2
13867.6
13980.8
13996.4
13997
13997
13997
13997
13997
13997
13997
13997
13996.4
13980.6
13865.1
13535.6
13008.6
12379.9
11718.1
11057.3
10416
9807.43
9239.36
8709.54
8229.3
7914.77
7876.41
36073.1
37784
8176.3
8334.68
8637.23
9035.06
9476.09
9971.86
10524.1
11120.8
11745.3
12378
12985.7
13499.8
13823.5
13937.5
13953.2
13953.8
13953.8
13953.8
13953.8
13953.8
13953.8
13953.8
13953.8
13953.2
13937.5
13822.5
13494.4
12969.9
12344.5
11686.5
11029.7
10392.6
9787.88
9223.45
8696.76
8219.15
7906.94
7872
36068.1
37548.6
8105.53
8170.9
8435.24
8850.82
9315.74
9816.02
10362.8
10952
11570.2
12197.4
12799.5
13308.3
13628.4
13740.9
13756.4
13757
13757
13757
13757
13757
13757
13757
13757
13756.4
13741
13628.1
13305.9
12790.9
12177.5
11532.9
10890.4
10267.9
9677.67
9127.21
8613.4
8147.03
7845.44
7833.23
35975.2
36767.8
7985.44
7914.62
8155.83
8556.21
9002.89
9494.43
10032.6
10609.9
11214
11826.6
12413.5
12908.2
13218.2
13326.6
13341.4
13341.9
13341.9
13341.9
13341.9
13341.9
13341.9
13341.9
13341.9
13341.4
13326.7
13218.4
12907.7
12410.5
11818.2
11196.4
10577.5
9978.71
9411.9
8884.32
8392.45
7946.55
7658.09
7703.36
35436.4
35054.1
7656.29
7496.3
7737.82
8133.57
8575.89
9059.7
9587.3
10149.9
10735.1
11326
11890.8
12364.8
12659.8
12761.7
12775.3
12775.8
12775.8
12775.8
12775.8
12775.8
12775.8
12775.8
12775.8
12775.3
12761.7
12660
12365.1
11890.6
11324.2
10729.4
10137.6
9565.29
9024.14
8521.15
8052.75
7628.13
7352.33
7444.45
34082.5
32526.7
7181.02
7039.47
7290.95
7684.44
8120.35
8591.62
9101.95
9644.4
10206.9
10772.9
11311.7
11761.5
12038.4
12132.4
12144.6
12145
12145
12145
12145
12145
12145
12145
12145
12144.6
12132.4
12038.5
11761.8
11312.3
10773.4
10206.6
9642.19
9096.43
8580.57
8101.01
7654.65
7249.47
6986.51
7075.3
32017.4
29811.4
6676.33
6618.09
6863.4
7244.37
7667.43
8122.33
8612.83
9132.14
9669.71
10209.2
10720.9
11144.9
11402.2
11487.5
11498.2
11498.6
11498.6
11498.6
11498.6
11498.6
11498.6
11498.6
11498.6
11498.2
11487.5
11402.3
11145.1
10721.4
10210.2
9671.01
9133.63
8613.89
8122.15
7665.07
7238.86
6852.59
6602.15
6640.01
29608.2
27075.9
6189.4
6217.53
6458.25
6823.24
7228.97
7666.66
8134.94
8630.75
9142.47
9655.29
10139.7
10537.7
10774.9
10851
10860.1
10860.4
10860.4
10860.4
10860.4
10860.4
10860.4
10860.4
10860.4
10860.1
10850.9
10774.9
10537.7
10140
9655.92
9143.66
8632.56
8137.36
7669.69
7232.35
6826.55
6460.1
6217.46
6184.74
27018.2
24557.7
5750.22
5830.18
6080.55
6424.13
6813.23
7229.08
7677.71
8149.1
8636.15
9122.9
9580.87
9953.17
10170.1
10237
10244.6
10244.8
10244.8
10244.8
10244.8
10244.8
10244.8
10244.8
10244.8
10244.6
10237
10170.1
9953.18
9580.95
9123.19
8636.78
8150.19
7679.42
7231.54
6816.39
6427.78
6084.23
5833.6
5752.98
24550.7
21969.7
5357.2
5464.65
5726.88
6054.16
6419.32
6820.31
7244.72
7695.99
8159.03
8621.56
9054.32
9401.73
9598.69
9656.64
9662.78
9662.94
9662.95
9662.95
9662.95
9662.95
9662.95
9662.95
9662.94
9662.78
9656.64
9598.69
9401.72
9054.33
8621.63
8159.24
7696.42
7245.51
6821.51
6420.96
6056.23
5729.33
5467.27
5359.53
21972.4
19726.3
4997.8
5122.42
5398.47
5709.93
6059.43
6435.8
6844.93
7274.21
7717.22
8157.39
8566.71
8890.2
9067.82
9117.32
9122.17
9122.29
9122.29
9122.29
9122.29
9122.29
9122.29
9122.29
9122.29
9122.17
9117.32
9067.82
8890.19
8566.7
8157.39
7717.24
7274.31
6845.14
6436.16
6059.95
5710.7
5399.49
5123.56
4998.77
19728.2
17479.8
4684.01
4809.57
5092.51
5394.72
5725.01
6086.27
6472.31
6883.78
7306.75
7726.86
8114.28
8415.36
8575.41
8617.46
8621.25
8621.33
8621.33
8621.33
8621.33
8621.33
8621.33
8621.33
8621.33
8621.25
8617.46
8575.41
8415.36
8114.27
7726.84
7306.73
6883.76
6472.31
6086.28
5725.08
5394.85
5092.74
4809.84
4684.23
17480.4
15705.2
4411.1
4530.29
4809.66
5107.23
5427.8
5775.15
6145.26
6534.7
6936.77
7338.1
7706.31
7988.21
8132.82
8168.36
8171.28
8171.33
8171.33
8171.33
8171.33
8171.33
8171.33
8171.33
8171.33
8171.28
8168.36
8132.82
7988.21
7706.31
7338.09
6936.75
6534.67
6145.22
5775.1
5427.76
5107.2
4809.63
4530.29
4411.11
15705.3
14000.6
4161.75
4259.28
4534.47
4830.12
5157.5
5518.82
5901.58
6300.6
6697.89
7087.1
7442.56
7706.84
7832.34
7860.76
7862.86
7862.89
7862.89
7862.89
7862.89
7862.89
7862.89
7862.89
7862.89
7862.86
7860.76
7832.34
7706.84
7442.56
7087.1
6697.88
6300.59
5901.56
5518.79
5157.47
4830.08
4534.44
4259.25
4161.74
14000.5
13766.1
4047.59
4157.98
4410.37
4698.54
5025.88
5401.49
5809.32
6251.11
6707.92
7130.67
7463.48
7675.36
7770.32
7789.93
7791.23
7791.25
7791.25
7791.25
7791.25
7791.25
7791.25
7791.25
7791.25
7791.23
7789.93
7770.32
7675.36
7463.48
7130.67
6707.91
6251.11
5809.3
5401.47
5025.85
4698.52
4410.34
4157.96
4047.58
13766.1
79768.2
14135.2
14354.7
16176.5
18109.6
20545.8
22951
25716.7
28356.5
31066.8
33516.5
35443.3
36500.5
36803.8
36837
36837.9
36837.9
36837.9
36837.9
36837.9
36837.9
36837.9
36837.9
36837.9
36837.9
36837
36803.8
36500.5
35443.3
33516.5
31066.8
28356.5
25716.7
22951
20545.8
18109.6
16176.5
14354.7
14135.1
79768.2
79768.2
14135.2
14354.7
16176.5
18109.6
20545.8
22951
25716.7
28356.5
31066.8
33516.5
35443.3
36500.5
36803.8
36837
36837.9
36837.9
36837.9
36837.9
36837.9
36837.9
36837.9
36837.9
36837.9
36837.9
36837
36803.8
36500.5
35443.3
33516.5
31066.8
28356.5
25716.7
22951
20545.8
18109.6
16176.5
14354.7
14135.1
79768.2
13766.1
4047.59
4157.98
4410.37
4698.54
5025.88
5401.49
5809.32
6251.11
6707.92
7130.67
7463.48
7675.36
7770.32
7789.93
7791.23
7791.25
7791.25
7791.25
7791.25
7791.25
7791.25
7791.25
7791.25
7791.23
7789.93
7770.32
7675.36
7463.48
7130.67
6707.91
6251.11
5809.3
5401.47
5025.85
4698.52
4410.34
4157.96
4047.58
13766.1
14000.6
4161.75
4259.28
4534.47
4830.12
5157.5
5518.82
5901.58
6300.6
6697.89
7087.1
7442.56
7706.84
7832.34
7860.76
7862.86
7862.89
7862.89
7862.89
7862.89
7862.89
7862.89
7862.89
7862.89
7862.86
7860.76
7832.34
7706.84
7442.56
7087.1
6697.88
6300.59
5901.56
5518.79
5157.47
4830.08
4534.44
4259.25
4161.74
14000.5
15705.2
4411.1
4530.29
4809.66
5107.23
5427.8
5775.15
6145.26
6534.7
6936.77
7338.1
7706.31
7988.21
8132.82
8168.36
8171.28
8171.33
8171.33
8171.33
8171.33
8171.33
8171.33
8171.33
8171.33
8171.28
8168.36
8132.82
7988.21
7706.31
7338.09
6936.75
6534.67
6145.22
5775.1
5427.76
5107.2
4809.63
4530.29
4411.11
15705.3
17479.8
4684.01
4809.57
5092.51
5394.72
5725.01
6086.27
6472.31
6883.78
7306.75
7726.86
8114.28
8415.36
8575.41
8617.46
8621.25
8621.33
8621.33
8621.33
8621.33
8621.33
8621.33
8621.33
8621.33
8621.25
8617.46
8575.41
8415.36
8114.27
7726.84
7306.73
6883.76
6472.31
6086.28
5725.08
5394.85
5092.74
4809.84
4684.23
17480.4
19726.3
4997.8
5122.42
5398.47
5709.93
6059.43
6435.8
6844.93
7274.21
7717.22
8157.39
8566.71
8890.2
9067.82
9117.32
9122.17
9122.29
9122.29
9122.29
9122.29
9122.29
9122.29
9122.29
9122.29
9122.17
9117.32
9067.82
8890.19
8566.7
8157.39
7717.24
7274.31
6845.14
6436.16
6059.95
5710.7
5399.49
5123.56
4998.77
19728.2
21969.7
5357.2
5464.65
5726.88
6054.16
6419.32
6820.31
7244.72
7695.99
8159.03
8621.56
9054.32
9401.73
9598.69
9656.64
9662.78
9662.94
9662.95
9662.95
9662.95
9662.95
9662.95
9662.95
9662.94
9662.78
9656.64
9598.69
9401.72
9054.33
8621.63
8159.24
7696.42
7245.51
6821.51
6420.96
6056.23
5729.33
5467.27
5359.53
21972.4
24557.7
5750.22
5830.18
6080.55
6424.13
6813.23
7229.08
7677.71
8149.1
8636.15
9122.9
9580.87
9953.17
10170.1
10237
10244.6
10244.8
10244.8
10244.8
10244.8
10244.8
10244.8
10244.8
10244.8
10244.6
10237
10170.1
9953.18
9580.95
9123.19
8636.78
8150.19
7679.42
7231.54
6816.39
6427.78
6084.23
5833.6
5752.98
24550.7
27075.9
6189.4
6217.53
6458.25
6823.24
7228.97
7666.66
8134.94
8630.75
9142.47
9655.29
10139.7
10537.7
10774.9
10851
10860.1
10860.4
10860.4
10860.4
10860.4
10860.4
10860.4
10860.4
10860.4
10860.1
10850.9
10774.9
10537.7
10140
9655.92
9143.66
8632.56
8137.36
7669.69
7232.35
6826.55
6460.1
6217.46
6184.74
27018.2
29811.4
6676.33
6618.09
6863.4
7244.37
7667.43
8122.33
8612.83
9132.14
9669.71
10209.2
10720.9
11144.9
11402.2
11487.5
11498.2
11498.6
11498.6
11498.6
11498.6
11498.6
11498.6
11498.6
11498.6
11498.2
11487.5
11402.3
11145.1
10721.4
10210.2
9671.01
9133.63
8613.89
8122.15
7665.07
7238.86
6852.59
6602.15
6640.01
29608.2
32526.7
7181.02
7039.47
7290.95
7684.44
8120.35
8591.62
9101.95
9644.4
10206.9
10772.9
11311.7
11761.5
12038.4
12132.4
12144.6
12145
12145
12145
12145
12145
12145
12145
12145
12144.6
12132.4
12038.5
11761.8
11312.3
10773.4
10206.6
9642.19
9096.43
8580.57
8101.01
7654.65
7249.47
6986.51
7075.3
32017.4
35054.1
7656.29
7496.3
7737.82
8133.57
8575.89
9059.7
9587.3
10149.9
10735.1
11326
11890.8
12364.8
12659.8
12761.7
12775.3
12775.8
12775.8
12775.8
12775.8
12775.8
12775.8
12775.8
12775.8
12775.3
12761.7
12660
12365.1
11890.6
11324.2
10729.4
10137.6
9565.29
9024.14
8521.15
8052.75
7628.13
7352.33
7444.45
34082.5
36767.8
7985.44
7914.62
8155.83
8556.21
9002.89
9494.43
10032.6
10609.9
11214
11826.6
12413.5
12908.2
13218.2
13326.6
13341.4
13341.9
13341.9
13341.9
13341.9
13341.9
13341.9
13341.9
13341.9
13341.4
13326.7
13218.4
12907.7
12410.5
11818.2
11196.4
10577.5
9978.71
9411.9
8884.32
8392.45
7946.55
7658.09
7703.36
35436.4
37548.6
8105.53
8170.9
8435.24
8850.82
9315.74
9816.02
10362.8
10952
11570.2
12197.4
12799.5
13308.3
13628.4
13740.9
13756.4
13757
13757
13757
13757
13757
13757
13757
13757
13756.4
13741
13628.1
13305.9
12790.9
12177.5
11532.9
10890.4
10267.9
9677.67
9127.21
8613.4
8147.03
7845.44
7833.23
35975.2
37784
8176.3
8334.68
8637.23
9035.06
9476.09
9971.86
10524.1
11120.8
11745.3
12378
12985.7
13499.8
13823.5
13937.5
13953.2
13953.8
13953.8
13953.8
13953.8
13953.8
13953.8
13953.8
13953.8
13953.2
13937.5
13822.5
13494.4
12969.9
12344.5
11686.5
11029.7
10392.6
9787.88
9223.45
8696.76
8219.15
7906.94
7872
36068.1
37332.9
8191
8455.51
8795.18
9181.66
9601.98
10071.4
10601.5
11183.2
11799.7
12429.2
13034.9
13546.2
13867.6
13980.8
13996.4
13997
13997
13997
13997
13997
13997
13997
13997
13996.4
13980.6
13865.1
13535.6
13008.6
12379.9
11718.1
11057.3
10416
9807.43
9239.36
8709.54
8229.3
7914.77
7876.41
36073.1
36083.6
8179.16
8579.83
8936.3
9302.16
9696.64
10143.5
10655.4
11225
11832.5
12453.8
13051.4
13555.8
13872.8
13984.2
13999.4
14000
14000
14000
14000
14000
14000
14000
14000
13999.4
13983.6
13868.1
13538.4
13011.3
12382.3
11720.1
11059
10417.4
9808.45
9240.12
8710.09
8229.69
7915.03
7876.54
36073.2
34056.1
8219.66
8752.67
9104.97
9435.46
9785.05
10203.9
10696.3
11254.2
11854.8
12471.2
13063.9
13563.3
13875.7
13984.7
13999.5
14000
14000.1
14000.1
14000.1
14000.1
14000.1
14000.1
14000
13999.5
13983.6
13868.1
13538.5
13011.3
12382.3
11720.2
11059
10417.4
9808.47
9240.13
8710.09
8229.7
7915.03
7876.54
36073.2
30671.2
8387.39
8987.28
9312.2
9588.33
9880.96
10259
10728.9
11274.7
11870.4
12484.4
13074.5
13570.1
13878.4
13985.2
13999.5
14000
14000.1
14000.1
14000.1
14000.1
14000.1
14000.1
14000
13999.5
13983.6
13868.1
13538.5
13011.3
12382.3
11720.2
11059
10417.4
9808.47
9240.13
8710.09
8229.7
7915.03
7876.54
36073.2
24123.5
9039.47
9383.91
9625.7
9752.81
9981.49
10303
10751.8
11286.9
11879.3
12492.4
13081.7
13575.3
13880.7
13985.6
13999.6
14000
14000.1
14000.1
14000.1
14000.1
14000.1
14000.1
14000
13999.5
13983.6
13868.1
13538.5
13011.3
12382.3
11720.2
11059
10417.4
9808.47
9240.13
8710.09
8229.7
7915.03
7876.54
36073.2
)
;

boundaryField
{
    inlet
    {
        type            calculated;
        value           uniform 14000.1;
    }
    outlet
    {
        type            calculated;
        value           nonuniform List<scalar> 
165
(
1989.96
2267.68
2283.42
2257.72
2219.96
2201.97
2202.69
2213.51
2248.28
2306.15
2371.77
2440.97
2506.19
2577.88
2640.85
2704.3
2728.54
2760.04
3017.29
3243.08
3243.08
3040.04
2767.89
2732.57
2706.51
2640.9
2576.43
2503.04
2437.62
2372.09
2315.25
2272.13
2249.06
2242.41
2241.67
2241.65
2241.65
2241.65
2241.65
2241.65
2241.65
2241.65
2241.65
2241.65
2241.65
2241.67
2242.41
2249.06
2272.13
2315.25
2372.09
2437.62
2503.04
2576.43
2640.9
2706.51
2732.57
2767.89
3040.04
3243.08
2228.07
2228.07
2228.07
2228.07
2228.07
2228.18
2230.23
2242.04
2272.35
2320.15
2378.01
2443.09
2506.59
2577.82
2640.78
2704.26
2728.53
2760.03
3017.29
3243.08
2228.07
2228.07
2228.07
2228.07
2228.07
3243.08
3017.29
2760.03
2728.53
2704.26
2640.78
2577.82
2506.59
2443.09
2378.01
2320.15
2272.35
2242.04
2230.23
2228.18
2228.07
2228.07
2228.07
2228.07
2228.07
3243.08
3040.04
2767.89
2732.57
2706.51
2640.9
2576.43
2503.04
2437.62
2372.09
2315.25
2272.13
2249.06
2242.41
2241.67
2241.65
2241.65
2241.65
2241.65
2241.65
2241.65
2241.65
2241.65
2241.65
2241.65
2241.67
2242.41
2249.06
2272.13
2315.25
2372.09
2437.62
2503.04
2576.43
2640.9
2706.51
2732.57
2767.89
3040.04
3243.08
3243.08
3017.29
2760.04
2728.54
2704.3
2640.85
2577.88
2506.19
2440.97
2371.77
2306.15
2248.28
2213.51
2202.69
2201.97
2219.96
2257.72
2283.42
2267.68
1989.96
)
;
    }
    obstacle
    {
        type            calculated;
        value           nonuniform List<scalar> 
40
(
14026.3
14134.8
14337
14530.3
14648.4
14706.6
14715.5
14728.5
14729.1
14741.9
14026.3
14134.8
14337
14530.3
14648.4
14706.6
14715.5
14728.5
14729.1
14741.9
14678.1
14715.8
14690.2
14579.4
13913.9
14678.1
14715.8
14690.2
14579.4
13913.9
15559.3
15594.8
15860.2
16138.8
16830.6
15559.3
15594.8
15860.2
16138.8
16830.6
)
;
    }
    empty
    {
        type            empty;
    }
}


// ************************************************************************* //
