/*--------------------------------*- C++ -*----------------------------------*\
| =========                 |                                                 |
| \\      /  F ield         | OpenFOAM: The Open Source CFD Toolbox           |
|  \\    /   O peration     | Version:  v1912                                 |
|   \\  /    A nd           | Website:  www.openfoam.com                      |
|    \\/     M anipulation  |                                                 |
\*---------------------------------------------------------------------------*/
FoamFile
{
    version     2.0;
    format      ascii;
    class       volScalarField;
    location    "1.58";
    object      T;
}
// * * * * * * * * * * * * * * * * * * * * * * * * * * * * * * * * * * * * * //

dimensions      [0 0 0 1 0 0 0];


internalField   nonuniform List<scalar> 
1900
(
1.00075
1.00385
1.00958
1.01502
1.01832
1.01993
1.02015
1.02052
1.02062
1.02109
1.00075
1.00385
1.00959
1.01502
1.01832
1.01992
1.02015
1.02035
1.02023
1.02044
1.00075
1.00385
1.00959
1.01502
1.01832
1.01993
1.02016
1.02039
1.0204
1.02059
1.00075
1.00385
1.00959
1.01502
1.01832
1.01992
1.02015
1.02035
1.02023
1.02044
1.00075
1.00385
1.00958
1.01502
1.01832
1.01993
1.02015
1.02052
1.02062
1.02109
1.01945
1.02176
1.02393
1.02512
1.00808
1.02118
1.02332
1.02527
1.02758
1.02036
1.02121
1.02292
1.02449
1.02596
1.01815
1.02118
1.02332
1.02527
1.02758
1.02036
1.01945
1.02176
1.02393
1.02512
1.00808
1.04767
1.0416
1.0401
1.02899
1.00561
1.04398
1.04046
1.03936
1.03451
1.02141
1.04368
1.04038
1.03871
1.03471
1.02338
1.04398
1.04046
1.03936
1.03451
1.02141
1.04767
1.0416
1.0401
1.02899
1.00561
0.892745
0.816251
0.863947
0.872477
0.869225
0.874675
0.885122
0.900214
0.917767
0.936655
0.95565
0.973403
0.987877
0.996633
0.999595
0.999986
1
1
1
1
1
1
1
1
0.999983
0.999533
0.996242
0.98675
0.971245
0.952218
0.931536
0.910135
0.888504
0.867049
0.846554
0.829033
0.816909
0.801216
0.710822
0.62835
0.98689
0.862953
0.880066
0.874752
0.869806
0.874714
0.885277
0.900295
0.91781
0.936679
0.955668
0.97342
0.987891
0.996639
0.999596
0.999986
1
1
1
1
1
1
1
1
0.999983
0.999533
0.996242
0.98675
0.971245
0.952218
0.931536
0.910135
0.888504
0.867049
0.846554
0.829033
0.816909
0.801216
0.710822
0.62835
0.987451
0.894556
0.887672
0.876078
0.870088
0.874748
0.885316
0.900319
0.917824
0.936686
0.955674
0.973426
0.987896
0.996642
0.999597
0.999986
1
1
1
1
1
1
1
1
0.999983
0.999533
0.996242
0.98675
0.971245
0.952218
0.931536
0.910135
0.888504
0.867049
0.846554
0.829033
0.816909
0.801216
0.710822
0.62835
0.98689
0.862953
0.880066
0.874752
0.869806
0.874714
0.885277
0.900295
0.91781
0.936679
0.955668
0.97342
0.987891
0.996639
0.999596
0.999986
1
1
1
1
1
1
1
1
0.999983
0.999533
0.996242
0.98675
0.971245
0.952218
0.931536
0.910135
0.888504
0.867049
0.846554
0.829033
0.816909
0.801216
0.710822
0.62835
0.892745
0.816251
0.863947
0.872477
0.869225
0.874675
0.885122
0.900214
0.917767
0.936655
0.95565
0.973403
0.987877
0.996633
0.999595
0.999986
1
1
1
1
1
1
1
1
0.999983
0.999533
0.996242
0.98675
0.971245
0.952218
0.931536
0.910135
0.888504
0.867049
0.846554
0.829033
0.816909
0.801216
0.710822
0.62835
0.703533
0.75715
0.847946
0.865523
0.867252
0.873655
0.884513
0.899856
0.91759
0.936559
0.955576
0.973328
0.987814
0.996601
0.999589
0.999986
1
1
1
1
1
1
1
1
0.999983
0.999533
0.996242
0.98675
0.971245
0.952218
0.931536
0.910135
0.888504
0.867049
0.846554
0.829033
0.816909
0.801216
0.710822
0.62835
0.617374
0.737917
0.836029
0.854727
0.862222
0.870324
0.882792
0.898923
0.917145
0.936281
0.955337
0.973115
0.987662
0.996534
0.999576
0.999985
1
1
1
1
1
1
1
1
0.999983
0.999533
0.996242
0.98675
0.971245
0.952218
0.931536
0.910135
0.888504
0.867049
0.846554
0.829033
0.816909
0.801216
0.710822
0.62835
0.613117
0.738026
0.83043
0.847949
0.856764
0.866779
0.880819
0.897807
0.916471
0.93579
0.954937
0.972804
0.987467
0.996457
0.999562
0.999984
1
1
1
1
1
1
1
1
0.999983
0.999533
0.996242
0.98675
0.971245
0.952218
0.931536
0.910135
0.888504
0.867049
0.846554
0.829033
0.816909
0.801216
0.710822
0.62835
0.620097
0.73252
0.824546
0.842281
0.851662
0.863399
0.878719
0.896476
0.915541
0.935088
0.954407
0.972431
0.98725
0.996376
0.999548
0.999982
0.999999
0.999999
0.999999
0.999999
0.999999
0.999999
0.999999
0.999999
0.999982
0.999532
0.996241
0.986749
0.971244
0.952217
0.931535
0.910135
0.888503
0.867049
0.846554
0.829033
0.816909
0.801215
0.710822
0.62835
0.630643
0.72614
0.819588
0.837565
0.847067
0.859838
0.876219
0.894703
0.914197
0.934055
0.953654
0.971941
0.986971
0.996225
0.999452
0.999896
0.999912
0.999912
0.999912
0.999912
0.999912
0.999912
0.999912
0.999912
0.999896
0.999445
0.996156
0.986665
0.971164
0.952144
0.93147
0.910079
0.888458
0.867013
0.846526
0.829012
0.816893
0.801205
0.710817
0.628349
0.635797
0.721273
0.815017
0.832109
0.841547
0.855206
0.872752
0.892113
0.912167
0.932337
0.952087
0.97048
0.985626
0.994965
0.998219
0.998667
0.998683
0.998683
0.998683
0.998683
0.998683
0.998683
0.998683
0.998683
0.998667
0.998218
0.994936
0.985469
0.970013
0.951058
0.930469
0.909175
0.88766
0.866324
0.845945
0.828527
0.816494
0.800892
0.710638
0.628317
0.635589
0.7161
0.809182
0.824789
0.83459
0.849357
0.867311
0.886659
0.906636
0.926783
0.946538
0.964924
0.980043
0.989356
0.992596
0.993041
0.993057
0.993057
0.993057
0.993057
0.993057
0.993057
0.993057
0.993057
0.993041
0.992597
0.989349
0.979972
0.964667
0.945919
0.925586
0.904592
0.88341
0.862432
0.842424
0.82536
0.813651
0.798435
0.708974
0.627739
0.632483
0.709592
0.800041
0.813953
0.823311
0.837864
0.855893
0.875299
0.895242
0.915308
0.934965
0.953223
0.968195
0.977384
0.980562
0.980994
0.98101
0.98101
0.98101
0.98101
0.98101
0.98101
0.98101
0.98101
0.980994
0.980564
0.977388
0.968182
0.953132
0.9347
0.914732
0.894148
0.873415
0.852921
0.833426
0.81686
0.80559
0.790791
0.703346
0.624433
0.622701
0.697799
0.783599
0.796986
0.806744
0.821762
0.840035
0.859577
0.879539
0.899497
0.918964
0.936994
0.951717
0.960687
0.963754
0.964165
0.964179
0.964179
0.964179
0.964179
0.964179
0.964179
0.964179
0.964179
0.964165
0.963755
0.960692
0.951726
0.936989
0.918905
0.899308
0.879113
0.858788
0.838719
0.819663
0.803498
0.792505
0.778054
0.692907
0.616105
0.607075
0.682205
0.764608
0.77824
0.788605
0.804041
0.822423
0.841921
0.861771
0.88155
0.900766
0.918493
0.932887
0.941566
0.944481
0.944861
0.944875
0.944875
0.944875
0.944875
0.944875
0.944875
0.944875
0.944875
0.944861
0.944482
0.941569
0.932897
0.918512
0.900783
0.881538
0.861692
0.841716
0.822
0.803278
0.787386
0.776512
0.762411
0.67944
0.60341
0.590278
0.666045
0.746218
0.75968
0.770232
0.785815
0.804168
0.823537
0.843178
0.862707
0.881629
0.899014
0.913028
0.92136
0.924092
0.924436
0.924447
0.924447
0.924447
0.924447
0.924447
0.924447
0.924447
0.924447
0.924436
0.924092
0.921361
0.913034
0.899031
0.881661
0.862754
0.843232
0.823576
0.804159
0.785718
0.770003
0.759216
0.745485
0.664811
0.58873
0.573545
0.650295
0.727987
0.741374
0.75198
0.767512
0.785791
0.804928
0.82433
0.843562
0.862162
0.879181
0.892783
0.900725
0.903248
0.903552
0.903561
0.903561
0.903561
0.903561
0.903561
0.903561
0.903561
0.903561
0.903552
0.903248
0.900725
0.892785
0.87919
0.862184
0.843605
0.824399
0.805023
0.785914
0.767655
0.752127
0.741453
0.727949
0.650045
0.573048
0.558618
0.635538
0.709579
0.723445
0.733933
0.749434
0.767426
0.7864
0.805493
0.824436
0.842703
0.859348
0.872511
0.880027
0.882324
0.882584
0.882592
0.882592
0.882592
0.882592
0.882592
0.882592
0.882592
0.882592
0.882584
0.882323
0.880026
0.872511
0.859351
0.842713
0.82446
0.805536
0.786469
0.76753
0.749573
0.7341
0.723615
0.709728
0.63562
0.55853
0.543085
0.621876
0.691606
0.705863
0.716427
0.73155
0.749495
0.768077
0.786984
0.805613
0.823563
0.839827
0.852529
0.859589
0.861649
0.861867
0.861873
0.861873
0.861873
0.861873
0.861873
0.861873
0.861873
0.861873
0.861867
0.861649
0.859589
0.852529
0.839828
0.823566
0.805621
0.787002
0.768111
0.749548
0.731625
0.716524
0.705981
0.691731
0.621982
0.543097
0.530134
0.608349
0.674346
0.689083
0.699682
0.71475
0.732207
0.750718
0.769319
0.787741
0.805393
0.821288
0.833512
0.840098
0.841918
0.842097
0.842101
0.842101
0.842101
0.842101
0.842101
0.842101
0.842101
0.842101
0.842097
0.841918
0.840097
0.833512
0.821288
0.805393
0.787742
0.769323
0.750727
0.732223
0.714774
0.69972
0.689133
0.674405
0.608404
0.530149
0.517696
0.597551
0.659345
0.674307
0.685251
0.700182
0.717611
0.735774
0.754281
0.772514
0.789968
0.805554
0.81734
0.823485
0.825088
0.825232
0.825236
0.825236
0.825236
0.825236
0.825236
0.825236
0.825236
0.825236
0.825232
0.825088
0.823485
0.81734
0.805554
0.789968
0.772513
0.75428
0.735774
0.717611
0.700186
0.685258
0.674319
0.65936
0.597567
0.517703
0.513097
0.589484
0.648345
0.663299
0.674868
0.690125
0.70768
0.72594
0.744302
0.7624
0.779756
0.795186
0.806637
0.812356
0.813753
0.813868
0.813871
0.813871
0.813871
0.813871
0.813871
0.813871
0.813871
0.813871
0.813868
0.813753
0.812356
0.806637
0.795186
0.779756
0.762399
0.744301
0.725938
0.707678
0.690123
0.674867
0.663299
0.648346
0.589486
0.513099
0.507242
0.57946
0.634953
0.649431
0.661097
0.676591
0.694648
0.713331
0.732145
0.750187
0.767206
0.782294
0.793177
0.798238
0.799386
0.799472
0.799473
0.799473
0.799473
0.799473
0.799473
0.799473
0.799473
0.799473
0.799472
0.799386
0.798238
0.793177
0.782294
0.767206
0.750186
0.732144
0.71333
0.694646
0.676589
0.661095
0.649429
0.634952
0.579459
0.507242
0.463995
0.528438
0.581707
0.592474
0.60119
0.612428
0.626612
0.640798
0.655587
0.67056
0.685257
0.69815
0.707144
0.711139
0.711927
0.711975
0.711976
0.711976
0.711976
0.711976
0.711976
0.711976
0.711976
0.711976
0.711975
0.711927
0.711139
0.707144
0.69815
0.685257
0.67056
0.655587
0.640798
0.626612
0.612427
0.601188
0.592472
0.581705
0.528437
0.463994
0.43169
0.460521
0.505803
0.512341
0.517274
0.530123
0.543389
0.559322
0.574333
0.5902
0.604688
0.616163
0.622485
0.62433
0.624536
0.624543
0.624543
0.624543
0.624543
0.624543
0.624543
0.624543
0.624543
0.624543
0.624543
0.624536
0.62433
0.622485
0.616163
0.604688
0.5902
0.574333
0.559322
0.543389
0.530123
0.517274
0.512341
0.505803
0.460521
0.43169
0.43169
0.460521
0.505803
0.512341
0.517274
0.530123
0.543389
0.559322
0.574333
0.5902
0.604688
0.616163
0.622485
0.62433
0.624536
0.624543
0.624543
0.624543
0.624543
0.624543
0.624543
0.624543
0.624543
0.624543
0.624543
0.624536
0.62433
0.622485
0.616163
0.604688
0.5902
0.574333
0.559322
0.543389
0.530123
0.517274
0.512341
0.505803
0.460521
0.43169
0.463995
0.528438
0.581707
0.592474
0.60119
0.612428
0.626612
0.640798
0.655587
0.67056
0.685257
0.69815
0.707144
0.711139
0.711927
0.711975
0.711976
0.711976
0.711976
0.711976
0.711976
0.711976
0.711976
0.711976
0.711975
0.711927
0.711139
0.707144
0.69815
0.685257
0.67056
0.655587
0.640798
0.626612
0.612427
0.601188
0.592472
0.581705
0.528437
0.463994
0.507242
0.57946
0.634953
0.649431
0.661097
0.676591
0.694648
0.713331
0.732145
0.750187
0.767206
0.782294
0.793177
0.798238
0.799386
0.799472
0.799473
0.799473
0.799473
0.799473
0.799473
0.799473
0.799473
0.799473
0.799472
0.799386
0.798238
0.793177
0.782294
0.767206
0.750186
0.732144
0.71333
0.694646
0.676589
0.661095
0.649429
0.634952
0.579459
0.507242
0.513097
0.589484
0.648345
0.663299
0.674868
0.690125
0.70768
0.72594
0.744302
0.7624
0.779756
0.795186
0.806637
0.812356
0.813753
0.813868
0.813871
0.813871
0.813871
0.813871
0.813871
0.813871
0.813871
0.813871
0.813868
0.813753
0.812356
0.806637
0.795186
0.779756
0.762399
0.744301
0.725938
0.707678
0.690123
0.674867
0.663299
0.648346
0.589486
0.513099
0.517696
0.597551
0.659345
0.674307
0.685251
0.700182
0.717611
0.735774
0.754281
0.772514
0.789968
0.805554
0.81734
0.823485
0.825088
0.825232
0.825236
0.825236
0.825236
0.825236
0.825236
0.825236
0.825236
0.825236
0.825232
0.825088
0.823485
0.81734
0.805554
0.789968
0.772513
0.75428
0.735774
0.717611
0.700186
0.685258
0.674319
0.65936
0.597567
0.517703
0.530134
0.608349
0.674346
0.689083
0.699682
0.71475
0.732207
0.750718
0.769319
0.787741
0.805393
0.821288
0.833512
0.840098
0.841918
0.842097
0.842101
0.842101
0.842101
0.842101
0.842101
0.842101
0.842101
0.842101
0.842097
0.841918
0.840097
0.833512
0.821288
0.805393
0.787742
0.769323
0.750727
0.732223
0.714774
0.69972
0.689133
0.674405
0.608404
0.530149
0.543085
0.621876
0.691606
0.705863
0.716427
0.73155
0.749495
0.768077
0.786984
0.805613
0.823563
0.839827
0.852529
0.859589
0.861649
0.861867
0.861873
0.861873
0.861873
0.861873
0.861873
0.861873
0.861873
0.861873
0.861867
0.861649
0.859589
0.852529
0.839828
0.823566
0.805621
0.787002
0.768111
0.749548
0.731625
0.716524
0.705981
0.691731
0.621982
0.543097
0.558618
0.635538
0.709579
0.723445
0.733933
0.749434
0.767426
0.7864
0.805493
0.824436
0.842703
0.859348
0.872511
0.880027
0.882324
0.882584
0.882592
0.882592
0.882592
0.882592
0.882592
0.882592
0.882592
0.882592
0.882584
0.882323
0.880026
0.872511
0.859351
0.842713
0.82446
0.805536
0.786469
0.76753
0.749573
0.7341
0.723615
0.709728
0.63562
0.55853
0.573545
0.650295
0.727987
0.741374
0.75198
0.767512
0.785791
0.804928
0.82433
0.843562
0.862162
0.879181
0.892783
0.900725
0.903248
0.903552
0.903561
0.903561
0.903561
0.903561
0.903561
0.903561
0.903561
0.903561
0.903552
0.903248
0.900725
0.892785
0.87919
0.862184
0.843605
0.824399
0.805023
0.785914
0.767655
0.752127
0.741453
0.727949
0.650045
0.573048
0.590278
0.666045
0.746218
0.75968
0.770232
0.785815
0.804168
0.823537
0.843178
0.862707
0.881629
0.899014
0.913028
0.92136
0.924092
0.924436
0.924447
0.924447
0.924447
0.924447
0.924447
0.924447
0.924447
0.924447
0.924436
0.924092
0.921361
0.913034
0.899031
0.881661
0.862754
0.843232
0.823576
0.804159
0.785718
0.770003
0.759216
0.745485
0.664811
0.58873
0.607075
0.682205
0.764608
0.77824
0.788605
0.804041
0.822423
0.841921
0.861771
0.88155
0.900766
0.918493
0.932887
0.941566
0.944481
0.944861
0.944875
0.944875
0.944875
0.944875
0.944875
0.944875
0.944875
0.944875
0.944861
0.944482
0.941569
0.932897
0.918512
0.900783
0.881538
0.861692
0.841716
0.822
0.803278
0.787386
0.776512
0.762411
0.67944
0.60341
0.622701
0.697799
0.783599
0.796986
0.806744
0.821762
0.840035
0.859577
0.879539
0.899497
0.918964
0.936994
0.951717
0.960687
0.963754
0.964165
0.964179
0.964179
0.964179
0.964179
0.964179
0.964179
0.964179
0.964179
0.964165
0.963755
0.960692
0.951726
0.936989
0.918905
0.899308
0.879113
0.858788
0.838719
0.819663
0.803498
0.792505
0.778054
0.692907
0.616105
0.632483
0.709592
0.800041
0.813953
0.823311
0.837864
0.855893
0.875299
0.895242
0.915308
0.934965
0.953223
0.968195
0.977384
0.980562
0.980994
0.98101
0.98101
0.98101
0.98101
0.98101
0.98101
0.98101
0.98101
0.980994
0.980564
0.977388
0.968182
0.953132
0.9347
0.914732
0.894148
0.873415
0.852921
0.833426
0.81686
0.80559
0.790791
0.703346
0.624433
0.635589
0.7161
0.809182
0.824789
0.83459
0.849357
0.867311
0.886659
0.906636
0.926783
0.946538
0.964924
0.980043
0.989356
0.992596
0.993041
0.993057
0.993057
0.993057
0.993057
0.993057
0.993057
0.993057
0.993057
0.993041
0.992597
0.989349
0.979972
0.964667
0.945919
0.925586
0.904592
0.88341
0.862432
0.842424
0.82536
0.813651
0.798435
0.708974
0.627739
0.635797
0.721273
0.815017
0.832109
0.841547
0.855206
0.872752
0.892113
0.912167
0.932337
0.952087
0.97048
0.985626
0.994965
0.998219
0.998667
0.998683
0.998683
0.998683
0.998683
0.998683
0.998683
0.998683
0.998683
0.998667
0.998218
0.994936
0.985469
0.970013
0.951058
0.930469
0.909175
0.88766
0.866324
0.845945
0.828527
0.816494
0.800892
0.710638
0.628317
0.630643
0.72614
0.819588
0.837565
0.847067
0.859838
0.876219
0.894703
0.914197
0.934055
0.953654
0.971941
0.986971
0.996225
0.999452
0.999896
0.999912
0.999912
0.999912
0.999912
0.999912
0.999912
0.999912
0.999912
0.999896
0.999445
0.996156
0.986665
0.971164
0.952144
0.93147
0.910079
0.888458
0.867013
0.846526
0.829012
0.816893
0.801205
0.710817
0.628349
0.620097
0.73252
0.824546
0.842281
0.851662
0.863399
0.878719
0.896476
0.915541
0.935088
0.954407
0.972431
0.98725
0.996376
0.999548
0.999982
0.999999
0.999999
0.999999
0.999999
0.999999
0.999999
0.999999
0.999999
0.999982
0.999532
0.996241
0.986749
0.971244
0.952217
0.931535
0.910135
0.888503
0.867049
0.846554
0.829033
0.816909
0.801215
0.710822
0.62835
0.613117
0.738026
0.83043
0.847949
0.856764
0.866779
0.880819
0.897807
0.916471
0.93579
0.954937
0.972804
0.987467
0.996457
0.999562
0.999984
1
1
1
1
1
1
1
1
0.999983
0.999533
0.996242
0.98675
0.971245
0.952218
0.931536
0.910135
0.888504
0.867049
0.846554
0.829033
0.816909
0.801216
0.710822
0.62835
0.617374
0.737917
0.836029
0.854727
0.862222
0.870324
0.882792
0.898923
0.917145
0.936281
0.955337
0.973115
0.987662
0.996534
0.999576
0.999985
1
1
1
1
1
1
1
1
0.999983
0.999533
0.996242
0.98675
0.971245
0.952218
0.931536
0.910135
0.888504
0.867049
0.846554
0.829033
0.816909
0.801216
0.710822
0.62835
0.703533
0.75715
0.847946
0.865523
0.867252
0.873655
0.884513
0.899856
0.91759
0.936559
0.955576
0.973328
0.987814
0.996601
0.999589
0.999986
1
1
1
1
1
1
1
1
0.999983
0.999533
0.996242
0.98675
0.971245
0.952218
0.931536
0.910135
0.888504
0.867049
0.846554
0.829033
0.816909
0.801216
0.710822
0.62835
)
;

boundaryField
{
    inlet
    {
        type            fixedValue;
        value           uniform 1;
    }
    outlet
    {
        type            zeroGradient;
    }
    obstacle
    {
        type            zeroGradient;
    }
    empty
    {
        type            empty;
    }
}


// ************************************************************************* //
