/*--------------------------------*- C++ -*----------------------------------*\
| =========                 |                                                 |
| \\      /  F ield         | OpenFOAM: The Open Source CFD Toolbox           |
|  \\    /   O peration     | Version:  v1912                                 |
|   \\  /    A nd           | Website:  www.openfoam.com                      |
|    \\/     M anipulation  |                                                 |
\*---------------------------------------------------------------------------*/
FoamFile
{
    version     2.0;
    format      ascii;
    class       volScalarField;
    location    "2.26";
    object      p;
}
// * * * * * * * * * * * * * * * * * * * * * * * * * * * * * * * * * * * * * //

dimensions      [1 -1 -2 0 0 0 0];


internalField   nonuniform List<scalar> 
1900
(
13631.9
10826.1
10737.8
10760.1
10799.2
10846.2
10900.1
10962.8
11018.5
11106.1
13631.8
10826
10737.7
10760.2
10799.2
10845.7
10897.6
10952.5
11005.9
11087.5
13631.8
10825.9
10737.8
10760.4
10799.1
10845.1
10897.5
10955.7
11017.2
11078.3
13631.8
10826
10737.7
10760.2
10799.2
10845.7
10897.6
10952.5
11005.9
11087.5
13631.9
10826.1
10737.8
10760.1
10799.2
10846.2
10900.1
10962.8
11018.5
11106.1
11036.4
11107.3
11114.7
10971.5
9926.43
11132.5
11200.8
11182
11143.1
10668.5
11111.9
11161.6
11126.9
11033.7
10526.2
11132.5
11200.8
11182
11143.1
10668.5
11036.4
11107.3
11114.7
10971.5
9926.43
12309.6
12429
12757.3
12845.6
12972.2
12131.6
12393.4
12749.2
13001
12907.7
12123.1
12401.5
12736.6
12883
12393
12131.6
12393.4
12749.2
13001
12907.7
12309.6
12429
12757.3
12845.6
12972.2
10538
4998.35
5397.87
5624.3
5578.11
5613.69
5730.95
5889.26
6109.63
6378.19
6704.72
7076.87
7486.87
7924.64
8380.61
8840.9
9281.95
9656.94
9898.15
9984.71
9983.54
9888.99
9635.32
9246.54
8791.68
8316.63
7843.29
7381.86
6937.68
6514
6113.33
5738.55
5393.76
5083.6
4810.06
4566.43
4345.75
4156.54
3762.28
18961.1
10873.6
5337.7
5598.55
5657.11
5597.96
5624.19
5736.11
5896.14
6116.32
6384.88
6711.78
7084.45
7495.2
7933.54
8389.14
8849.14
9289.94
9664.64
9905.45
9991.64
9990.38
9895.73
9641.77
9252.49
8796.95
8321.12
7846.95
7384.72
6939.85
6515.61
6114.52
5739.36
5394.24
5083.81
4810.06
4566.28
4345.54
4156.28
3762.02
18960.7
10289.9
5771.63
5722.35
5690.23
5606.77
5627.92
5737.65
5897.99
6118.18
6386.7
6713.63
7086.27
7496.84
7934.86
8390.26
8850.28
9291.21
9666.15
9907.19
9993.47
9992.22
9897.54
9643.53
9254.17
8798.53
8322.58
7848.27
7385.88
6940.79
6516.28
6114.9
5739.53
5394.26
5083.74
4809.93
4566.09
4345.33
4156.08
3761.84
18960.4
10873.6
5337.7
5598.55
5657.11
5597.96
5624.19
5736.11
5896.14
6116.32
6384.88
6711.78
7084.45
7495.2
7933.54
8389.14
8849.14
9289.94
9664.64
9905.45
9991.64
9990.38
9895.73
9641.77
9252.49
8796.95
8321.12
7846.95
7384.72
6939.85
6515.61
6114.52
5739.36
5394.24
5083.81
4810.06
4566.28
4345.54
4156.28
3762.02
18960.7
10538
4998.35
5397.87
5624.3
5578.11
5613.69
5730.95
5889.26
6109.63
6378.19
6704.72
7076.87
7486.87
7924.64
8380.61
8840.9
9281.95
9656.94
9898.15
9984.71
9983.54
9888.99
9635.32
9246.54
8791.68
8316.63
7843.29
7381.86
6937.68
6514
6113.33
5738.55
5393.76
5083.6
4810.06
4566.43
4345.75
4156.54
3762.28
18961.1
12267.6
4389.42
5149.52
5441.52
5501.82
5568.61
5693.93
5851.3
6069.84
6337.27
6660.86
7029.66
7435.28
7868.19
8318.82
8774.27
9210.93
9582.42
9821.65
9907.99
9906.96
9813.37
9562.05
9176.95
8726.65
8256.7
7788.76
7332.89
6894.3
6476.13
6080.78
5710.98
5370.76
5064.69
4794.7
4554.18
4335.77
4149.28
3757.36
18958
13705.8
4005.24
4842.73
5128.56
5320.86
5448.59
5589.43
5753.52
5969.9
6237.09
6556.06
6918.71
7316.29
7739.97
8180.69
8626.06
9053.36
9417.53
9652.68
9737.89
9737
9645.45
9399.21
9021.86
8580.91
8121.17
7663.85
7218.74
6790.85
6383.15
5997.91
5637.74
5306.53
5008.8
4746.28
4512.6
4299.76
4120.58
3735.8
18931.9
15320.2
3889.37
4591
4877.57
5102.8
5250.68
5391.69
5557.98
5768.92
6030.96
6339.51
6688.76
7070.48
7476.9
7899.75
8327.42
8738.24
9088.92
9315.95
9398.67
9398.05
9310.5
9074
8710.99
8286.75
7844.72
7405.43
6978.3
6568.11
6177.68
5809.17
5465.05
5149.04
4865.48
4615.84
4394.15
4193.02
4028.41
3660.16
18757.3
16443.2
3777.97
4352.46
4629.63
4819.6
4973.48
5116.63
5288.8
5498.25
5754.54
6053.7
6389.46
6754.86
7142.99
7546.4
7954.33
8346.29
8680.92
8897.46
8976.35
8975.93
8893.57
8669.25
8323.49
7918.76
7496.89
7077.7
6670.26
6279.18
5907.17
5556.28
5228.9
4928.53
4659.24
4422.47
4212.66
4026.01
3874.97
3524.68
18238.7
16497.8
3614.67
4106.09
4325.71
4500.37
4659.01
4808.46
4984.06
5194.71
5446.92
5737.15
6059.94
6409.17
6778.97
7162.75
7550.63
7923.23
8241
8445.92
8520.15
8519.93
8443.48
8232.66
7905.49
7521.32
7120.4
6721.87
6334.49
5962.69
5609.09
5275.67
4964.65
4679.3
4423.36
4198.67
4000.18
3828.31
3685.75
3350.25
17326.1
16549.8
3392.51
3831.03
4028.46
4194.46
4343.99
4495.47
4673.88
4885.26
5133.27
5414.65
5724.62
6058.04
6409.96
6774.66
7143.05
7496.7
7797.49
7990.1
8059.01
8058.92
7988.79
7792.09
7483.86
7120.31
6740.2
6362.07
5994.4
5641.47
5305.83
4989.33
4694.09
4423.02
4179.62
3966.65
3779.41
3620.65
3481.35
3158.62
16148.4
15285.8
3161.79
3563.63
3746.63
3902.82
4041.44
4192.76
4371.77
4582.07
4825.11
5097.21
5394.39
5712.37
6047.13
6393.69
6743.59
7079
7362.92
7542.73
7605.84
7605.83
7542.2
7359.83
7070.48
6727.17
6367.34
6009.02
5660.43
5325.76
5007.42
4707.31
4427.07
4169.7
3938.16
3736.85
3560.65
3412.48
3272.81
2963.32
14864.9
14271.7
2949.03
3312.59
3482.07
3628.11
3756.63
3905.43
4082.82
4290.91
4527.65
4790.21
5074.6
5377.8
5696.37
6025.92
6358.34
6676.17
6943.36
7110.02
7167.01
7167.04
7109.94
6941.89
6671.1
6347.43
6007.15
5667.86
5337.61
5020.41
4718.79
4434.11
4168.55
3923.88
3703.82
3514.02
3348.11
3208.13
3066.53
2771.75
13547.4
13132.6
2744.32
3075.26
3235.44
3369.75
3489.38
3634.74
3809.85
4013.73
4244.31
4496.47
4768.74
5057.82
5361.27
5674.83
5990.64
6291.46
6542.03
6695.35
6746.11
6746.15
6695.46
6541.55
6288.86
5984.11
5662.55
5341.44
5028.64
4728.25
4442.2
4172.94
3920.21
3688.89
3478.86
3300.46
3143.56
3010.11
2866.9
2588.42
12293.6
11919.5
2552.08
2852.04
3002.13
3126
3238.83
3381.87
3552.7
3753.88
3975.61
4218.98
4478.89
4755.01
5044.17
5342.65
5642.55
5926.82
6160.93
6300.91
6345.52
6345.55
6301.07
6160.96
5925.79
5639.16
5335.42
5031.55
4735.4
4450.58
4180.11
3923.74
3685.68
3464.4
3265.87
3096.98
2948.02
2819.64
2676.29
2415.07
11042
10733
2372.41
2643.1
2781.01
2896.76
3005.61
3147.14
3315.71
3509.59
3725.99
3957.95
4207.66
4471.06
4746.99
5031.11
5315.77
5583.95
5801.88
5928.73
5967.43
5967.45
5928.87
5802.09
5583.78
5314.39
5027.45
4739.85
4459.1
4189.51
3932.01
3690.86
3462.23
3255.22
3065.01
2905.22
2763.65
2638.98
2497.74
2254.23
9914.8
9492.8
2199.19
2441.82
2568.61
2681.79
2791.69
2932.58
3096.18
3286.83
3492.24
3717.46
3955.67
4208.29
4471.62
4742.33
5012.48
5265.19
5467.4
5581.57
5614.72
5614.73
5581.66
5467.62
5265.38
5012.21
4740.92
4468.23
4201.93
3945.26
3701.86
3470.25
3256.66
3057.27
2877.92
2726.41
2588.82
2467.24
2328.76
2103.32
8801.2
8360.94
2043.59
2260.76
2379.2
2491.72
2602.3
2741.92
2900.99
3083.22
3283.4
3497.75
3727.37
3968.87
4220.92
4479.14
4735.82
4973.96
5161.21
5263.36
5291.43
5291.43
5263.4
5161.36
4974.23
4736.03
4478.94
4219.79
3966.16
3722.36
3489.51
3271.38
3065.56
2878.84
2708.86
2563.64
2432.38
2313.23
2179.52
1971.29
7840.75
7230.54
1890.93
2086.33
2205.03
2317.44
2436.1
2569.51
2728.06
2902.52
3095.33
3302.67
3523.16
3755.49
3997.02
4244.07
4488.6
4713.42
4886.71
4977.66
5001.16
5001.16
4977.67
4886.79
4713.63
4488.92
4244.36
3997.04
3754.85
3521.41
3299.26
3089.75
2893.82
2716.6
2551.67
2415.54
2284.27
2166.5
2035.63
1843.47
6883.34
6315.35
1765.05
1942.23
2061.06
2174.31
2297.31
2430.03
2583.27
2753.6
2939.48
3138.73
3349.7
3571.19
3801.62
4037.25
4270.17
4482.75
4643.27
4724.06
4743.58
4743.58
4724.06
4643.3
4482.87
4270.43
4037.64
3802.05
3571.52
3349.68
3138.07
2937.89
2750.52
2578.82
2422.43
2288.24
2158.93
2041.98
1915.26
1738.2
6112.81
5446.37
1647.17
1807.96
1925.43
2039.72
2167.68
2298.8
2453.21
2617.88
2799.84
2992.41
3195.74
3408.09
3628
3852.47
4074.07
4275.08
4423.62
4494.91
4510.87
4510.87
4494.9
4423.62
4275.13
4074.23
3852.77
3628.45
3408.65
3196.32
2992.88
2800.03
2617.56
2452.27
2296.57
2164.63
2033.84
1917.21
1795.36
1633.82
5347.48
4836.45
1555.4
1698.36
1809.09
1921.41
2050.8
2180.93
2334.92
2496.63
2675.7
2864.3
3062.94
3269.24
3480.91
3694.18
3901.81
4087.83
4223.26
4286.42
4299.8
4299.8
4286.41
4223.25
4087.84
3901.88
3694.35
3481.22
3269.72
3063.59
2865.11
2676.58
2497.58
2335.8
2181.61
2051.28
1921.01
1807.65
1694.71
1550.73
4791.27
4266.51
1479.49
1602
1700.63
1804.21
1929.16
2054.23
2205.05
2362.4
2539.6
2727.81
2928.27
3137.56
3351.88
3565.3
3768.31
3943.74
4064.9
4117.24
4127.31
4127.31
4117.24
4064.89
3943.74
3768.34
3565.39
3352.08
3137.9
2928.77
2728.48
2540.41
2363.37
2206.07
2055.3
1930.17
1804.95
1700.89
1601.21
1478.02
4255.33
4079.84
1374.6
1482.65
1561.03
1647.15
1756.88
1866.76
2001.5
2141.98
2301.2
2471.73
2654.83
2847.75
3047.48
3247.61
3436.96
3596.09
3699.93
3741.19
3748.34
3748.34
3741.19
3699.92
3596.08
3436.96
3247.65
3047.59
2847.96
2655.17
2472.22
2301.85
2142.81
2002.44
1867.86
1758.05
1648.33
1562.08
1483.14
1374.63
4073.01
31787.1
4128.71
4330.2
4924.13
5522.56
6356.03
7186.81
8225.78
9270.73
10475.2
11692.3
13036.5
14381.2
15763.5
17070.3
18177.4
18911.7
19228.3
19297.8
19303.6
19303.6
19297.8
19228.3
18911.7
18177.4
17070.2
15763.5
14381.1
13036.5
11692.4
10475.3
9271.07
8226.35
7187.62
6357.16
5523.95
4925.86
4332.09
4130.38
31789.1
31787.1
4128.71
4330.2
4924.13
5522.56
6356.03
7186.81
8225.78
9270.73
10475.2
11692.3
13036.5
14381.2
15763.5
17070.3
18177.4
18911.7
19228.3
19297.8
19303.6
19303.6
19297.8
19228.3
18911.7
18177.4
17070.2
15763.5
14381.1
13036.5
11692.4
10475.3
9271.07
8226.35
7187.62
6357.16
5523.95
4925.86
4332.09
4130.38
31789.1
4079.84
1374.6
1482.65
1561.03
1647.15
1756.88
1866.76
2001.5
2141.98
2301.2
2471.73
2654.83
2847.75
3047.48
3247.61
3436.96
3596.09
3699.93
3741.19
3748.34
3748.34
3741.19
3699.92
3596.08
3436.96
3247.65
3047.59
2847.96
2655.17
2472.22
2301.85
2142.81
2002.44
1867.86
1758.05
1648.33
1562.08
1483.14
1374.63
4073.01
4266.51
1479.49
1602
1700.63
1804.21
1929.16
2054.23
2205.05
2362.4
2539.6
2727.81
2928.27
3137.56
3351.88
3565.3
3768.31
3943.74
4064.9
4117.24
4127.31
4127.31
4117.24
4064.89
3943.74
3768.34
3565.39
3352.08
3137.9
2928.77
2728.48
2540.41
2363.37
2206.07
2055.3
1930.17
1804.95
1700.89
1601.21
1478.02
4255.33
4836.45
1555.4
1698.36
1809.09
1921.41
2050.8
2180.93
2334.92
2496.63
2675.7
2864.3
3062.94
3269.24
3480.91
3694.18
3901.81
4087.83
4223.26
4286.42
4299.8
4299.8
4286.41
4223.25
4087.84
3901.88
3694.35
3481.22
3269.72
3063.59
2865.11
2676.58
2497.58
2335.8
2181.61
2051.28
1921.01
1807.65
1694.71
1550.73
4791.27
5446.37
1647.17
1807.96
1925.43
2039.72
2167.68
2298.8
2453.21
2617.88
2799.84
2992.41
3195.74
3408.09
3628
3852.47
4074.07
4275.08
4423.62
4494.91
4510.87
4510.87
4494.9
4423.62
4275.13
4074.23
3852.77
3628.45
3408.65
3196.32
2992.88
2800.03
2617.56
2452.27
2296.57
2164.63
2033.84
1917.21
1795.36
1633.82
5347.48
6315.35
1765.05
1942.23
2061.06
2174.31
2297.31
2430.03
2583.27
2753.6
2939.48
3138.73
3349.7
3571.19
3801.62
4037.25
4270.17
4482.75
4643.27
4724.06
4743.58
4743.58
4724.06
4643.3
4482.87
4270.43
4037.64
3802.05
3571.52
3349.68
3138.07
2937.89
2750.52
2578.82
2422.43
2288.24
2158.93
2041.98
1915.26
1738.2
6112.81
7230.54
1890.93
2086.33
2205.03
2317.44
2436.1
2569.51
2728.06
2902.52
3095.33
3302.67
3523.16
3755.49
3997.02
4244.07
4488.6
4713.42
4886.71
4977.66
5001.16
5001.16
4977.67
4886.79
4713.63
4488.92
4244.36
3997.04
3754.85
3521.41
3299.26
3089.75
2893.82
2716.6
2551.67
2415.54
2284.27
2166.5
2035.63
1843.47
6883.34
8360.94
2043.59
2260.76
2379.2
2491.72
2602.3
2741.92
2900.99
3083.22
3283.4
3497.75
3727.37
3968.87
4220.92
4479.14
4735.82
4973.96
5161.21
5263.36
5291.43
5291.43
5263.4
5161.36
4974.23
4736.03
4478.94
4219.79
3966.16
3722.36
3489.51
3271.38
3065.56
2878.84
2708.86
2563.64
2432.38
2313.23
2179.52
1971.29
7840.75
9492.8
2199.19
2441.82
2568.61
2681.79
2791.69
2932.58
3096.18
3286.83
3492.24
3717.46
3955.67
4208.29
4471.62
4742.33
5012.48
5265.19
5467.4
5581.57
5614.72
5614.73
5581.66
5467.62
5265.38
5012.21
4740.92
4468.23
4201.93
3945.26
3701.86
3470.25
3256.66
3057.27
2877.92
2726.41
2588.82
2467.24
2328.76
2103.32
8801.2
10733
2372.41
2643.1
2781.01
2896.76
3005.61
3147.14
3315.71
3509.59
3725.99
3957.95
4207.66
4471.06
4746.99
5031.11
5315.77
5583.95
5801.88
5928.73
5967.43
5967.45
5928.87
5802.09
5583.78
5314.39
5027.45
4739.85
4459.1
4189.51
3932.01
3690.86
3462.23
3255.22
3065.01
2905.22
2763.65
2638.98
2497.74
2254.23
9914.8
11919.5
2552.08
2852.04
3002.13
3126
3238.83
3381.87
3552.7
3753.88
3975.61
4218.98
4478.89
4755.01
5044.17
5342.65
5642.55
5926.82
6160.93
6300.91
6345.52
6345.55
6301.07
6160.96
5925.79
5639.16
5335.42
5031.55
4735.4
4450.58
4180.11
3923.74
3685.68
3464.4
3265.87
3096.98
2948.02
2819.64
2676.29
2415.07
11042
13132.6
2744.32
3075.26
3235.44
3369.75
3489.38
3634.74
3809.85
4013.73
4244.31
4496.47
4768.74
5057.82
5361.27
5674.83
5990.64
6291.46
6542.03
6695.35
6746.11
6746.15
6695.46
6541.55
6288.86
5984.11
5662.55
5341.44
5028.64
4728.25
4442.2
4172.94
3920.21
3688.89
3478.86
3300.46
3143.56
3010.11
2866.9
2588.42
12293.6
14271.7
2949.03
3312.59
3482.07
3628.11
3756.63
3905.43
4082.82
4290.91
4527.65
4790.21
5074.6
5377.8
5696.37
6025.92
6358.34
6676.17
6943.36
7110.02
7167.01
7167.04
7109.94
6941.89
6671.1
6347.43
6007.15
5667.86
5337.61
5020.41
4718.79
4434.11
4168.55
3923.88
3703.82
3514.02
3348.11
3208.13
3066.53
2771.75
13547.4
15285.8
3161.79
3563.63
3746.63
3902.82
4041.44
4192.76
4371.77
4582.07
4825.11
5097.21
5394.39
5712.37
6047.13
6393.69
6743.59
7079
7362.92
7542.73
7605.84
7605.83
7542.2
7359.83
7070.48
6727.17
6367.34
6009.02
5660.43
5325.76
5007.42
4707.31
4427.07
4169.7
3938.16
3736.85
3560.65
3412.48
3272.81
2963.32
14864.9
16549.8
3392.51
3831.03
4028.46
4194.46
4343.99
4495.47
4673.88
4885.26
5133.27
5414.65
5724.62
6058.04
6409.96
6774.66
7143.05
7496.7
7797.49
7990.1
8059.01
8058.92
7988.79
7792.09
7483.86
7120.31
6740.2
6362.07
5994.4
5641.47
5305.83
4989.33
4694.09
4423.02
4179.62
3966.65
3779.41
3620.65
3481.35
3158.62
16148.4
16497.8
3614.67
4106.09
4325.71
4500.37
4659.01
4808.46
4984.06
5194.71
5446.92
5737.15
6059.94
6409.17
6778.97
7162.75
7550.63
7923.23
8241
8445.92
8520.15
8519.93
8443.48
8232.66
7905.49
7521.32
7120.4
6721.87
6334.49
5962.69
5609.09
5275.67
4964.65
4679.3
4423.36
4198.67
4000.18
3828.31
3685.75
3350.25
17326.1
16443.2
3777.97
4352.46
4629.63
4819.6
4973.48
5116.63
5288.8
5498.25
5754.54
6053.7
6389.46
6754.86
7142.99
7546.4
7954.33
8346.29
8680.92
8897.46
8976.35
8975.93
8893.57
8669.25
8323.49
7918.76
7496.89
7077.7
6670.26
6279.18
5907.17
5556.28
5228.9
4928.53
4659.24
4422.47
4212.66
4026.01
3874.97
3524.68
18238.7
15320.2
3889.37
4591
4877.57
5102.8
5250.68
5391.69
5557.98
5768.92
6030.96
6339.51
6688.76
7070.48
7476.9
7899.75
8327.42
8738.24
9088.92
9315.95
9398.67
9398.05
9310.5
9074
8710.99
8286.75
7844.72
7405.43
6978.3
6568.11
6177.68
5809.17
5465.05
5149.04
4865.48
4615.84
4394.15
4193.02
4028.41
3660.16
18757.3
13705.8
4005.24
4842.73
5128.56
5320.86
5448.59
5589.43
5753.52
5969.9
6237.09
6556.06
6918.71
7316.29
7739.97
8180.69
8626.06
9053.36
9417.53
9652.68
9737.89
9737
9645.45
9399.21
9021.86
8580.91
8121.17
7663.85
7218.74
6790.85
6383.15
5997.91
5637.74
5306.53
5008.8
4746.28
4512.6
4299.76
4120.58
3735.8
18931.9
12267.6
4389.42
5149.52
5441.52
5501.82
5568.61
5693.93
5851.3
6069.84
6337.27
6660.86
7029.66
7435.28
7868.19
8318.82
8774.27
9210.93
9582.42
9821.65
9907.99
9906.96
9813.37
9562.05
9176.95
8726.65
8256.7
7788.76
7332.89
6894.3
6476.13
6080.78
5710.98
5370.76
5064.69
4794.7
4554.18
4335.77
4149.28
3757.36
18958
)
;

boundaryField
{
    inlet
    {
        type            fixedValue;
        value           uniform 10000;
    }
    outlet
    {
        type            fixedValue;
        value           uniform 1000;
    }
    obstacle
    {
        type            zeroGradient;
    }
    empty
    {
        type            empty;
    }
}


// ************************************************************************* //
