/*--------------------------------*- C++ -*----------------------------------*\
| =========                 |                                                 |
| \\      /  F ield         | OpenFOAM: The Open Source CFD Toolbox           |
|  \\    /   O peration     | Version:  v1912                                 |
|   \\  /    A nd           | Website:  www.openfoam.com                      |
|    \\/     M anipulation  |                                                 |
\*---------------------------------------------------------------------------*/
FoamFile
{
    version     2.0;
    format      ascii;
    class       volScalarField;
    location    "2.26";
    object      rho;
}
// * * * * * * * * * * * * * * * * * * * * * * * * * * * * * * * * * * * * * //

dimensions      [1 -3 0 0 0 0 0];


internalField   nonuniform List<scalar> 
1900
(
17667.8
14878.4
14740.7
14753
14788.6
14835.5
14888.9
14949.1
14998.8
15075.7
17667.7
14878.3
14740.6
14753.1
14788.7
14835
14886.5
14939.8
14989.7
15059.4
17667.6
14878.2
14740.7
14753.3
14788.6
14834.3
14886.5
14943.4
15001.6
15050.7
17667.7
14878.3
14740.6
14753.1
14788.7
14835
14886.5
14939.8
14989.7
15059.4
17667.8
14878.4
14740.7
14753
14788.6
14835.5
14888.9
14949.1
14998.8
15075.7
14996.3
15029.2
14978.3
14768
13724.7
15083.1
15114.2
15036.2
14933.7
14464.1
15061.8
15074.9
14983.5
14831
14335.2
15083.1
15114.2
15036.2
14933.7
14464.1
14996.3
15029.2
14978.3
14768
13724.7
16214.7
16623.1
17248.2
17841.2
18874.9
16067.4
16600.6
17251.3
17896.4
18231
16074.2
16617.2
17246.4
17720.2
17415.6
16067.4
16600.6
17251.3
17896.4
18231
16214.7
16623.1
17248.2
17841.2
18874.9
17590.9
9003.35
9018.69
9225.05
9205.46
9271.26
9410.94
9590.47
9844.43
10152.4
10521.5
10935.6
11384.6
11856.2
12339.7
12820.1
13273.9
13654.9
13897.9
13984.7
13983.6
13888.7
13633.1
13237.6
12769
12272.3
11769.1
11270.3
10781.5
10306.9
9849.86
9414.43
9006.77
8634.72
8303.56
8002.62
7708.39
7453.36
7406.9
44188.5
15978.2
9092.3
9184.78
9253.93
9226.75
9283.02
9416.95
9598.5
9852.1
10160
10529.5
10944
11393.6
11865.7
12348.6
12828.6
13282
13662.7
13905.3
13991.7
13990.4
13895.5
13639.6
13243.7
12774.5
12277
11773.1
11273.4
10784
10308.8
9851.24
9415.39
9007.35
8634.97
8303.56
8002.43
7708.12
7453.04
7406.56
44187.9
15043.2
9497.84
9275.76
9286.04
9238.48
9287.3
9418.65
9600.67
9854.24
10162.1
10531.5
10946
11395.4
11867.1
12349.8
12829.8
13283.3
13664.2
13907
13993.5
13992.2
13897.3
13641.4
13245.4
12776.2
12278.5
11774.5
11274.6
10785
10309.5
9851.68
9415.58
9007.37
8634.89
8303.4
8002.2
7707.86
7452.77
7406.3
44187.3
15978.2
9092.3
9184.78
9253.93
9226.75
9283.02
9416.95
9598.5
9852.1
10160
10529.5
10944
11393.6
11865.7
12348.6
12828.6
13282
13662.7
13905.3
13991.7
13990.4
13895.5
13639.6
13243.7
12774.5
12277
11773.1
11273.4
10784
10308.8
9851.24
9415.39
9007.35
8634.97
8303.56
8002.43
7708.12
7453.04
7406.56
44187.9
17590.9
9003.35
9018.69
9225.05
9205.46
9271.26
9410.94
9590.47
9844.43
10152.4
10521.5
10935.6
11384.6
11856.2
12339.7
12820.1
13273.9
13654.9
13897.9
13984.7
13983.6
13888.7
13633.1
13237.6
12769
12272.3
11769.1
11270.3
10781.5
10306.9
9849.86
9414.43
9006.77
8634.72
8303.56
8002.62
7708.39
7453.36
7406.9
44188.5
26559
8415.18
8721.94
9030.6
9129.36
9219.96
9366.07
9546.27
9798.86
10105.9
10472.3
10883.4
11328.5
11795.8
12274.6
12751
13201.2
13579.6
13821.1
13907.9
13906.9
13812.8
13558.9
13166.4
12701.5
12209
11710.6
11216.8
10733.3
10264.1
9812.37
9382.1
8979.31
8611.77
8284.61
7987.27
7695.74
7444.13
7399.83
44183.3
33322.4
7690.63
8318.25
8671.05
8921.22
9077.26
9241.61
9432.23
9683.6
9991.4
10354.1
10760.2
11198.5
11658
12128.4
12596.5
13039.3
13412
13650.6
13736.6
13735.7
13643.3
13393.3
13006.8
12549.4
12065.3
11575.9
11091.6
10617.9
10158.5
9716.51
9295.87
8902.37
8543.68
8224.67
7935.02
7650
7407.53
7369.26
44139
37348.3
7464.51
7994.76
8369.3
8659.53
8839.92
9006.61
9202.28
9449.66
9754.28
10108.5
10503.4
10928.2
11373.4
11829.3
12283.3
12713.3
13075.8
13308.5
13392.9
13392.3
13303
13060.5
12684.9
12240.4
11770.3
11295.6
10826.3
10367.8
9923.65
9496.97
9091.42
8712.68
8368.19
8062.44
7785.53
7513.75
7289.31
7262.42
43840.6
39784.2
7319.22
7695.75
8063.99
8313.56
8503.76
8675.81
8881.56
9130.69
9432.75
9780.71
10165.4
10577.4
11008.1
11448.7
11887.5
12303.2
12653.7
12878.6
12960.1
12959.7
12874.5
12641.5
12279.1
11849.5
11395
10936.1
10482.6
10039.8
9611.17
9199.69
8808.95
8444.4
8113.16
7819.62
7554.35
7298.62
7090.68
7069.44
42944.4
40007.1
7121.61
7387.29
7682.8
7917.02
8116.27
8298.94
8512.64
8767.64
9069.76
9412.6
9788.06
10187.8
10604.4
11029.9
11453.3
11854.3
12192.2
12408.2
12486.1
12485.8
12405.6
12183.4
11835.3
11421.5
10983.2
10540.5
10102.9
9675.64
9262.15
8865.32
8488.57
8137.09
7817.57
7534.87
7280.16
7040.76
6842.39
6815
41336.9
40132.2
6837.79
7035.52
7301.96
7529.17
7720.46
7909.08
8130.52
8391.26
8693.58
9031.57
9398.05
9785.93
10188.7
10599.6
11008.2
11394.9
11719.8
11926
11999.5
11999.4
11924.6
11714
11380.9
10983.1
10561
10134.3
9712.38
9300.37
8901.61
8518.89
8155.49
7816.19
7507.38
7235.09
6990.93
6765.96
6569.55
6526.47
39204.1
37835.5
6510.68
6682.95
6933.25
7151.67
7332.52
7524.72
7751.43
8015.86
8317.53
8650.13
9007.53
9383.72
9773.35
10170.3
10564.8
10937.6
11249.4
11445.1
11513.5
11513.5
11444.6
11246
10928.2
10546.4
10140.3
9729.31
9322.71
8925.54
8541.06
8172.08
7821.36
7493.75
7194.97
6933.2
6699.59
6486.05
6285.68
6223.04
36799.1
35829.3
6194.62
6343.19
6579.91
6788.68
6959.65
7152.57
7381.87
7648.64
7947.98
8274.71
8622.79
8987.76
9364.95
9748.85
10130.1
10489.3
10787.7
10972.2
11035
11035
10972.1
10786
10483.6
10117.7
9727.15
9331.45
8939.75
8556.94
8186.44
7830.43
7492.34
7175.47
6886.5
6635.36
6411.59
6206.57
5999.1
5917.25
34238.2
33512.2
5877.26
6014.45
6243.77
6440.05
6602.31
6794.75
7025.84
7292.39
7589.45
7909
8248.26
8602.42
8968.01
9339.63
9708.05
10053.9
10338.5
10511.1
10568.1
10568.1
10511.3
10337.9
10050.9
9700.48
9325.19
8944.32
8566.96
8198.2
7840.73
7498.14
7170.72
6865.84
6585.07
6344.77
6129.39
5930.83
5716.15
5618.08
31702.5
30966.3
5569.75
5698.53
5919.16
6103.96
6260
6453.54
6683.7
6951.97
7243.04
7557.17
7886.91
8231.27
8585.79
8945.71
9301.63
9634.08
9904.55
10064.9
10115.9
10115.9
10065.1
9904.59
9632.88
9297.63
8937.06
8570.45
8207.02
7851.3
7507.41
7175.46
6861.6
6564.71
6294.51
6062.79
5854.59
5660.65
5440.64
5330.65
29080
28390.5
5272.82
5396.17
5604.89
5780.85
5934.42
6130.17
6362.1
6625.64
6915.15
7220.07
7542.63
7876.97
8221.24
8569.8
8913.45
9232.47
9488.59
9636.48
9681.42
9681.44
9636.64
9488.84
9232.27
8911.79
8565.35
8212.41
7861.93
7519.41
7186.27
6868.56
6561.72
6279.06
6015.41
5792.11
5590.58
5399.49
5177.48
5059.01
26620.8
25623.7
4979
5097.69
5296.13
5471.07
5629.29
5828.54
6058.11
6322.39
6602.24
6903.77
7216.98
7543.27
7877.5
8215.28
8546.94
8852.64
9094.35
9229.75
9268.91
9268.92
9229.85
9094.6
8852.87
8546.61
8213.54
7873.23
7535.14
7203.42
6883.1
6572.57
6280.94
6003.71
5750.73
5535
5335.52
5146.31
4923.34
4802.01
24111.9
23008.8
4706.66
4822.62
5014.77
5191.37
5353.67
5555.14
5782.83
6039.96
6317.7
6609.68
6916.82
7234.05
7559.3
7886.82
8207.11
8499.91
8727.42
8850.6
8884.33
8884.33
8850.65
8727.6
8500.23
8207.37
7886.57
7557.86
7230.53
6910.19
6598.57
6301.2
6015.28
5751.33
5507.24
5296.83
5103.16
4915.14
4694.6
4570.56
21858
20327
4436.54
4551.31
4750.28
4929.86
5107.49
5303.79
5534.89
5785.5
6057.55
6344.77
6644.54
6954.66
7271.3
7589.57
7899.44
8180.16
8394.02
8505.45
8534.14
8534.14
8505.46
8394.12
8180.42
7899.84
7589.95
7271.33
6953.83
6642.2
6340.11
6049.78
5773.15
5518.31
5277.5
5076.77
4879.6
4690.86
4469.95
4347.56
19550.6
18070.3
4209.24
4323.84
4528.53
4712.19
4899.62
5098.32
5325.42
5573.96
5840.35
6120.54
6411.68
6711.71
7018.22
7326.22
7625.69
7895.03
8096.1
8196.59
8220.8
8220.8
8196.59
8096.13
7895.18
7626.02
7326.72
7018.79
6712.14
6411.66
6119.62
5838.08
5569.52
5318.89
5086.94
4885.84
4688.43
4498.5
4279.84
4157.61
17612.6
15884.3
3997.42
4108.3
4315.56
4503.79
4702.3
4901.94
5134.4
5378.25
5642.79
5917.38
6201.8
6493.3
6789.75
7087.14
7375.97
7634.2
7822.92
7912.89
7932.98
7932.98
7912.89
7822.92
7634.27
7376.17
7087.53
6790.36
6494.07
6202.6
5918.05
5643.05
5377.78
5132.99
4898.54
4697.59
4494.51
4302.35
4087.41
3971.88
15658.8
14233.6
3824.71
3923.35
4123.13
4310.39
4514.02
4714.69
4949.47
5191.52
5454.61
5726.22
6006.76
6292.61
6580.59
6865.82
7139.22
7380.8
7554.8
7635.39
7652.42
7652.42
7635.39
7554.79
7380.81
7139.3
6866.05
6581.01
6293.27
6007.67
5727.38
5455.9
5192.95
4950.82
4715.76
4514.78
4309.75
4120.75
3917.18
3815.55
14128.1
12521.9
3670.66
3745.56
3927.85
4104.02
4304.57
4501.47
4736.01
4976.15
5241.47
5517.66
5805.98
6100.86
6396.49
6684.77
6953.79
7182.67
7338.97
7406.03
7418.88
7418.88
7406.03
7338.96
7182.66
6953.82
6684.88
6396.75
6101.32
5806.67
5518.62
5242.66
4977.6
4737.58
4503.17
4306.22
4105.3
3928.38
3744.4
3667.98
12499.9
12540.2
3624.02
3676.61
3835.45
3998.26
4192.83
4390.06
4624.04
4868.59
5138.81
5425.15
5727.21
6039.69
6355.39
6662.56
6943.69
7173.04
7320.21
7378.66
7388.91
7388.91
7378.66
7320.21
7173.03
6943.71
6662.63
6355.57
6040.03
5727.75
5425.91
5139.77
4869.81
4625.41
4391.66
4194.52
3999.93
3836.86
3677.04
3623.64
12526.2
111039
12713.4
12726.7
14513.7
16170.6
18296.1
20382.4
22877.8
25318
28015.2
30649.8
33439.8
36128.4
38782.8
41201.2
43184.8
44469.1
45014.6
45133.3
45143.3
45143.3
45133.3
45014.6
44469.1
43184.7
41201.1
38782.7
36128.3
33439.7
30649.9
28015.6
25318.7
22879
20384.2
18298.6
16173.8
14517.5
12731.1
12717.3
111045
111039
12713.4
12726.7
14513.7
16170.6
18296.1
20382.4
22877.8
25318
28015.2
30649.8
33439.8
36128.4
38782.8
41201.2
43184.8
44469.1
45014.6
45133.3
45143.3
45143.3
45133.3
45014.6
44469.1
43184.7
41201.1
38782.7
36128.3
33439.7
30649.9
28015.6
25318.7
22879
20384.2
18298.6
16173.8
14517.5
12731.1
12717.3
111045
12540.2
3624.02
3676.61
3835.45
3998.26
4192.83
4390.06
4624.04
4868.59
5138.81
5425.15
5727.21
6039.69
6355.39
6662.56
6943.69
7173.04
7320.21
7378.66
7388.91
7388.91
7378.66
7320.21
7173.03
6943.71
6662.63
6355.57
6040.03
5727.75
5425.91
5139.77
4869.81
4625.41
4391.66
4194.52
3999.93
3836.86
3677.04
3623.64
12526.2
12521.9
3670.66
3745.56
3927.85
4104.02
4304.57
4501.47
4736.01
4976.15
5241.47
5517.66
5805.98
6100.86
6396.49
6684.77
6953.79
7182.67
7338.97
7406.03
7418.88
7418.88
7406.03
7338.96
7182.66
6953.82
6684.88
6396.75
6101.32
5806.67
5518.62
5242.66
4977.6
4737.58
4503.17
4306.22
4105.3
3928.38
3744.4
3667.98
12499.9
14233.6
3824.71
3923.35
4123.13
4310.39
4514.02
4714.69
4949.47
5191.52
5454.61
5726.22
6006.76
6292.61
6580.59
6865.82
7139.22
7380.8
7554.8
7635.39
7652.42
7652.42
7635.39
7554.79
7380.81
7139.3
6866.05
6581.01
6293.27
6007.67
5727.38
5455.9
5192.95
4950.82
4715.76
4514.78
4309.75
4120.75
3917.18
3815.55
14128.1
15884.3
3997.42
4108.3
4315.56
4503.79
4702.3
4901.94
5134.4
5378.25
5642.79
5917.38
6201.8
6493.3
6789.75
7087.14
7375.97
7634.2
7822.92
7912.89
7932.98
7932.98
7912.89
7822.92
7634.27
7376.17
7087.53
6790.36
6494.07
6202.6
5918.05
5643.05
5377.78
5132.99
4898.54
4697.59
4494.51
4302.35
4087.41
3971.88
15658.8
18070.3
4209.24
4323.84
4528.53
4712.19
4899.62
5098.32
5325.42
5573.96
5840.35
6120.54
6411.68
6711.71
7018.22
7326.22
7625.69
7895.03
8096.1
8196.59
8220.8
8220.8
8196.59
8096.13
7895.18
7626.02
7326.72
7018.79
6712.14
6411.66
6119.62
5838.08
5569.52
5318.89
5086.94
4885.84
4688.43
4498.5
4279.84
4157.61
17612.6
20327
4436.54
4551.31
4750.28
4929.86
5107.49
5303.79
5534.89
5785.5
6057.55
6344.77
6644.54
6954.66
7271.3
7589.57
7899.44
8180.16
8394.02
8505.45
8534.14
8534.14
8505.46
8394.12
8180.42
7899.84
7589.95
7271.33
6953.83
6642.2
6340.11
6049.78
5773.15
5518.31
5277.5
5076.77
4879.6
4690.86
4469.95
4347.56
19550.6
23008.8
4706.66
4822.62
5014.77
5191.37
5353.67
5555.14
5782.83
6039.96
6317.7
6609.68
6916.82
7234.05
7559.3
7886.82
8207.11
8499.91
8727.42
8850.6
8884.33
8884.33
8850.65
8727.6
8500.23
8207.37
7886.57
7557.86
7230.53
6910.19
6598.57
6301.2
6015.28
5751.33
5507.24
5296.83
5103.16
4915.14
4694.6
4570.56
21858
25623.7
4979
5097.69
5296.13
5471.07
5629.29
5828.54
6058.11
6322.39
6602.24
6903.77
7216.98
7543.27
7877.5
8215.28
8546.94
8852.64
9094.35
9229.75
9268.91
9268.92
9229.85
9094.6
8852.87
8546.61
8213.54
7873.23
7535.14
7203.42
6883.1
6572.57
6280.94
6003.71
5750.73
5535
5335.52
5146.31
4923.34
4802.01
24111.9
28390.5
5272.82
5396.17
5604.89
5780.85
5934.42
6130.17
6362.1
6625.64
6915.15
7220.07
7542.63
7876.97
8221.24
8569.8
8913.45
9232.47
9488.59
9636.48
9681.42
9681.44
9636.64
9488.84
9232.27
8911.79
8565.35
8212.41
7861.93
7519.41
7186.27
6868.56
6561.72
6279.06
6015.41
5792.11
5590.58
5399.49
5177.48
5059.01
26620.8
30966.3
5569.75
5698.53
5919.16
6103.96
6260
6453.54
6683.7
6951.97
7243.04
7557.17
7886.91
8231.27
8585.79
8945.71
9301.63
9634.08
9904.55
10064.9
10115.9
10115.9
10065.1
9904.59
9632.88
9297.63
8937.06
8570.45
8207.02
7851.3
7507.41
7175.46
6861.6
6564.71
6294.51
6062.79
5854.59
5660.65
5440.64
5330.65
29080
33512.2
5877.26
6014.45
6243.77
6440.05
6602.31
6794.75
7025.84
7292.39
7589.45
7909
8248.26
8602.42
8968.01
9339.63
9708.05
10053.9
10338.5
10511.1
10568.1
10568.1
10511.3
10337.9
10050.9
9700.48
9325.19
8944.32
8566.96
8198.2
7840.73
7498.14
7170.72
6865.84
6585.07
6344.77
6129.39
5930.83
5716.15
5618.08
31702.5
35829.3
6194.62
6343.19
6579.91
6788.68
6959.65
7152.57
7381.87
7648.64
7947.98
8274.71
8622.79
8987.76
9364.95
9748.85
10130.1
10489.3
10787.7
10972.2
11035
11035
10972.1
10786
10483.6
10117.7
9727.15
9331.45
8939.75
8556.94
8186.44
7830.43
7492.34
7175.47
6886.5
6635.36
6411.59
6206.57
5999.1
5917.25
34238.2
37835.5
6510.68
6682.95
6933.25
7151.67
7332.52
7524.72
7751.43
8015.86
8317.53
8650.13
9007.53
9383.72
9773.35
10170.3
10564.8
10937.6
11249.4
11445.1
11513.5
11513.5
11444.6
11246
10928.2
10546.4
10140.3
9729.31
9322.71
8925.54
8541.06
8172.08
7821.36
7493.75
7194.97
6933.2
6699.59
6486.05
6285.68
6223.04
36799.1
40132.2
6837.79
7035.52
7301.96
7529.17
7720.46
7909.08
8130.52
8391.26
8693.58
9031.57
9398.05
9785.93
10188.7
10599.6
11008.2
11394.9
11719.8
11926
11999.5
11999.4
11924.6
11714
11380.9
10983.1
10561
10134.3
9712.38
9300.37
8901.61
8518.89
8155.49
7816.19
7507.38
7235.09
6990.93
6765.96
6569.55
6526.47
39204.1
40007.1
7121.61
7387.29
7682.8
7917.02
8116.27
8298.94
8512.64
8767.64
9069.76
9412.6
9788.06
10187.8
10604.4
11029.9
11453.3
11854.3
12192.2
12408.2
12486.1
12485.8
12405.6
12183.4
11835.3
11421.5
10983.2
10540.5
10102.9
9675.64
9262.15
8865.32
8488.57
8137.09
7817.57
7534.87
7280.16
7040.76
6842.39
6815
41336.9
39784.2
7319.22
7695.75
8063.99
8313.56
8503.76
8675.81
8881.56
9130.69
9432.75
9780.71
10165.4
10577.4
11008.1
11448.7
11887.5
12303.2
12653.7
12878.6
12960.1
12959.7
12874.5
12641.5
12279.1
11849.5
11395
10936.1
10482.6
10039.8
9611.17
9199.69
8808.95
8444.4
8113.16
7819.62
7554.35
7298.62
7090.68
7069.44
42944.4
37348.3
7464.51
7994.76
8369.3
8659.53
8839.92
9006.61
9202.28
9449.66
9754.28
10108.5
10503.4
10928.2
11373.4
11829.3
12283.3
12713.3
13075.8
13308.5
13392.9
13392.3
13303
13060.5
12684.9
12240.4
11770.3
11295.6
10826.3
10367.8
9923.65
9496.97
9091.42
8712.68
8368.19
8062.44
7785.53
7513.75
7289.31
7262.42
43840.6
33322.4
7690.63
8318.25
8671.05
8921.22
9077.26
9241.61
9432.23
9683.6
9991.4
10354.1
10760.2
11198.5
11658
12128.4
12596.5
13039.3
13412
13650.6
13736.6
13735.7
13643.3
13393.3
13006.8
12549.4
12065.3
11575.9
11091.6
10617.9
10158.5
9716.51
9295.87
8902.37
8543.68
8224.67
7935.02
7650
7407.53
7369.26
44139
26559
8415.18
8721.94
9030.6
9129.36
9219.96
9366.07
9546.27
9798.86
10105.9
10472.3
10883.4
11328.5
11795.8
12274.6
12751
13201.2
13579.6
13821.1
13907.9
13906.9
13812.8
13558.9
13166.4
12701.5
12209
11710.6
11216.8
10733.3
10264.1
9812.37
9382.1
8979.31
8611.77
8284.61
7987.27
7695.74
7444.13
7399.83
44183.3
)
;

boundaryField
{
    inlet
    {
        type            calculated;
        value           uniform 14000.1;
    }
    outlet
    {
        type            calculated;
        value           nonuniform List<scalar> 
165
(
2164.97
2431.26
2437.85
2419.49
2424.99
2424.94
2475.21
2510.52
2551.83
2597.94
2645.16
2699.28
2751.94
2811.27
2861.34
2916.49
2942.99
2934.93
3073.7
3493.22
3493.22
3079.26
2939.06
2947.46
2928.1
2878.54
2836.08
2781.23
2730.96
2674.44
2621.37
2565.09
2512.19
2460.29
2413.62
2375.74
2351.41
2341.06
2338.79
2338.59
2338.59
2338.79
2341.06
2351.41
2375.74
2413.62
2460.29
2512.2
2565.09
2621.36
2674.43
2730.94
2781.19
2836.01
2878.43
2927.94
2947.21
2938.78
3078.97
3493.17
2330.59
2331.46
2337.26
2354.57
2385.81
2427.74
2475.56
2527.29
2578.79
2633.57
2684.96
2739.62
2787.74
2840.27
2881.26
2928.26
2948.73
2937.47
3075.43
3493.17
2330.48
2330.5
2330.51
2330.5
2330.48
3493.17
3075.43
2937.47
2948.73
2928.26
2881.26
2840.27
2787.74
2739.62
2684.96
2633.57
2578.79
2527.29
2475.56
2427.74
2385.81
2354.57
2337.26
2331.46
2330.59
3493.22
3079.26
2939.06
2947.46
2928.1
2878.54
2836.08
2781.23
2730.96
2674.44
2621.37
2565.09
2512.19
2460.29
2413.62
2375.74
2351.41
2341.06
2338.79
2338.59
2338.59
2338.79
2341.06
2351.41
2375.74
2413.62
2460.29
2512.2
2565.09
2621.36
2674.43
2730.94
2781.19
2836.01
2878.43
2927.94
2947.21
2938.78
3078.97
3493.17
3493.22
3073.7
2934.93
2942.99
2916.49
2861.34
2811.27
2751.94
2699.28
2645.16
2597.94
2551.83
2510.52
2475.21
2424.94
2424.99
2419.49
2437.85
2431.26
2164.97
)
;
    }
    obstacle
    {
        type            calculated;
        value           nonuniform List<scalar> 
40
(
17667.8
14878.4
14740.7
14753
14788.6
14835.5
14888.9
14949.1
14998.8
15075.7
17667.8
14878.4
14740.7
14753
14788.6
14835.5
14888.9
14949.1
14998.8
15075.7
14996.3
15029.2
14978.3
14768
13724.7
14996.3
15029.2
14978.3
14768
13724.7
16214.7
16623.1
17248.2
17841.2
18874.9
16214.7
16623.1
17248.2
17841.2
18874.9
)
;
    }
    empty
    {
        type            empty;
    }
}


// ************************************************************************* //
