/*--------------------------------*- C++ -*----------------------------------*\
| =========                 |                                                 |
| \\      /  F ield         | OpenFOAM: The Open Source CFD Toolbox           |
|  \\    /   O peration     | Version:  v1912                                 |
|   \\  /    A nd           | Website:  www.openfoam.com                      |
|    \\/     M anipulation  |                                                 |
\*---------------------------------------------------------------------------*/
FoamFile
{
    version     2.0;
    format      ascii;
    class       volVectorField;
    location    "7.54";
    object      grad(p);
}
// * * * * * * * * * * * * * * * * * * * * * * * * * * * * * * * * * * * * * //

dimensions      [1 -2 -2 0 0 0 0];


internalField   nonuniform List<vector> 
1900
(
(53563.2 -0.319252 0)
(-64901.5 0.226964 0)
(-3139.35 -0.160136 0)
(-469.672 1.31097 0)
(-407.012 -0.0433529 0)
(-362.9 1.59424 0)
(-359.865 -1.22571 0)
(-274.865 13.1462 0)
(-191.281 38.1626 0)
(649.47 12.0769 0)
(53563.1 -0.584073 0)
(-64901.3 0.438886 0)
(-3138.27 -0.375425 0)
(-469.555 2.27907 0)
(-406.729 0.696214 0)
(-364.082 2.84632 0)
(-348.313 -4.2737 0)
(-235.477 10.7856 0)
(-192.351 3.91117 0)
(-216.451 -45.9229 0)
(53563 -1.20792e-09 0)
(-64901.3 -1.45661e-09 0)
(-3137.51 -1.26121e-09 0)
(-468.6 5.15143e-10 0)
(-406.445 1.24345e-09 0)
(-367.87 1.77636e-11 0)
(-351.926 -7.63833e-10 0)
(-266.68 0 0)
(-247.99 -2.30926e-10 0)
(-349.681 -9.9476e-10 0)
(53563.1 0.584073 0)
(-64901.3 -0.438886 0)
(-3138.27 0.375425 0)
(-469.555 -2.27907 0)
(-406.729 -0.696214 0)
(-364.082 -2.84632 0)
(-348.313 4.2737 0)
(-235.477 -10.7856 0)
(-192.351 -3.91117 0)
(-216.451 45.9229 0)
(53563.2 0.319252 0)
(-64901.5 -0.226964 0)
(-3139.35 0.160136 0)
(-469.672 -1.31097 0)
(-407.012 0.0433529 0)
(-362.9 -1.59424 0)
(-359.865 1.22571 0)
(-274.865 -13.1462 0)
(-191.281 -38.1626 0)
(649.47 -12.0769 0)
(-115.449 -709.227 8.36538e-12)
(-1550.56 -528.103 -9.8249e-12)
(-1477.95 -607.646 -1.23651e-11)
(760.877 -832.902 0)
(-18252.3 -7656.39 -5.38775e-11)
(-586.457 -866.436 8.23723e-12)
(-1029.56 -649.829 9.8249e-12)
(-1399.53 -717.281 1.23651e-11)
(-1889.58 -599.352 0)
(-17460.5 -7084.62 0)
(-882.875 -2.04345e-09 0)
(-1090.19 -1.14918e-09 0)
(-1323.15 -1.62833e-09 0)
(-1855.1 2.69145e-10 0)
(-20108.8 -1.69177e-09 0)
(-586.457 866.436 8.23723e-12)
(-1029.56 649.829 9.8249e-12)
(-1399.53 717.281 1.23651e-11)
(-1889.58 599.352 0)
(-17460.5 7084.62 0)
(-115.449 709.227 -2.48398e-11)
(-1550.56 528.103 -9.8249e-12)
(-1477.95 607.646 -1.23651e-11)
(760.877 832.902 -3.32207e-11)
(-18252.3 7656.39 5.38775e-11)
(-36538.9 10391.2 9.93253e-12)
(-11019.6 4054.92 -4.86013e-12)
(-4972.84 1865.06 0)
(-3134.75 1283.67 2.01407e-12)
(-1303.4 793.608 -6.77893e-13)
(-32697.8 12856 -5.12274e-12)
(-12913.2 3291.44 2.49112e-12)
(-5658.76 1067.59 0)
(-3432.91 786.823 -1.28888e-12)
(-1977.68 222.978 1.77127e-13)
(-33756.7 2.69145e-10 0)
(-14029.1 6.2628e-10 0)
(-5762.48 6.25014e-10 0)
(-3509.78 1.30614e-10 5.2503e-13)
(-1934.13 4.28507e-10 -3.54255e-13)
(-32697.8 -12856 -5.12274e-12)
(-12913.2 -3291.44 2.49112e-12)
(-5658.76 -1067.59 0)
(-3432.91 -786.823 -1.28888e-12)
(-1977.68 -222.978 1.77127e-13)
(-36538.9 -10391.2 5.12274e-12)
(-11019.6 -4054.92 -1.22121e-13)
(-4972.84 -1865.06 0)
(-3134.75 -1283.67 3.86599e-14)
(-1303.4 -793.608 6.77893e-13)
(7.4681 -1196.66 0)
(-177.752 -506.715 0)
(-279.59 227.26 0)
(-341.076 409.499 0)
(-582.514 311.861 0)
(-486.108 26.7049 0)
(120.249 -191.669 0)
(1887.78 -327.595 0)
(2595.59 -249.605 0)
(948.226 153.998 0)
(-71.7194 118.467 0)
(-130.331 175.379 0)
(-226.594 177.899 0)
(-567.649 174.497 0)
(-908.47 121.342 0)
(-1057.54 95.4076 0)
(-1080.95 109.455 0)
(-1118.45 92.4807 0)
(-1135.56 64.1295 0)
(-857.418 32.839 0)
(-399.735 7.08335 0)
(-138.701 -0.355225 0)
(-76.8912 -0.0986296 0)
(-64.8407 0.158426 0)
(-52.4185 -0.580689 0)
(-33.4152 -1.35121 0)
(-13.2741 -1.59753 0)
(0.962539 -1.50364 0)
(8.85911 -1.34779 0)
(10.5433 -1.1042 0)
(20.7465 -0.977633 0)
(79.4603 -1.04749 0)
(445.726 -1.23565 0)
(1038.39 -0.89381 0)
(1058.32 1.90094 0)
(670.246 2.37608 0)
(485.466 1.53539 0)
(441.361 0.565609 0)
(429.103 -0.173938 0)
(582.169 -0.168658 0)
(-431.124 -761.586 0)
(32.7944 -686.894 0)
(-91.4702 -91.555 0)
(-318.417 199.667 0)
(-637.555 322.468 0)
(-567.163 76.89 0)
(86.5539 -75.449 0)
(1871.36 -167.914 0)
(2600.11 -276.091 0)
(982.44 -44.4532 0)
(-45.4736 -88.22 0)
(-99.1723 -4.46771 0)
(-207.125 52.1883 0)
(-561.053 189.481 0)
(-920.17 366.8 0)
(-1059.22 198.201 0)
(-1073.71 85.2903 0)
(-1123.39 43.2013 0)
(-1147.14 25.4768 0)
(-866.583 13.1218 0)
(-403.344 3.00264 0)
(-139.239 -0.233627 0)
(-76.7987 0.0300089 0)
(-64.8985 0.139307 0)
(-52.5709 -0.226372 0)
(-33.5092 -0.606297 0)
(-13.2818 -0.696905 0)
(0.98662 -0.642721 0)
(8.89549 -0.577265 0)
(10.5751 -0.475111 0)
(20.7408 -0.434337 0)
(79.4198 -0.50691 0)
(445.69 -0.626469 0)
(1038.63 -0.641465 0)
(1058.43 0.446396 0)
(670.403 -0.216067 0)
(485.305 1.21531 0)
(440.87 -0.447279 0)
(429.462 -0.88024 0)
(582.231 -0.120501 0)
(-315.495 1.73599e-10 0)
(17.1662 -1.00929e-09 0)
(-21.6814 3.39123e-10 0)
(-220.633 6.13651e-10 0)
(-618.231 6.8632e-10 0)
(-601.866 -2.58379e-10 0)
(49.0339 3.24589e-09 0)
(1829.41 6.02145e-09 0)
(2631.51 -4.14618e-09 0)
(1002.88 -3.48004e-09 0)
(-60.0872 1.82642e-08 0)
(-89.4852 2.17361e-08 0)
(-170.173 6.81071e-09 0)
(-476.125 -1.74164e-08 0)
(-905.934 -1.30966e-08 0)
(-1139.43 2.72913e-09 0)
(-1126.05 1.66574e-08 0)
(-1135.85 2.66857e-08 0)
(-1144.31 1.4114e-08 0)
(-863.956 7.79175e-09 0)
(-403.62 2.22448e-09 0)
(-139.566 -4.35409e-09 0)
(-76.7827 8.19546e-10 0)
(-64.9153 -1.7481e-09 0)
(-52.6354 -1.38071e-09 0)
(-33.5521 -4.4308e-10 0)
(-13.2847 -6.18697e-10 0)
(0.997343 -2.49296e-09 0)
(8.90787 -3.367e-09 0)
(10.5849 -2.99054e-09 0)
(20.7373 -3.41747e-09 0)
(79.4044 -3.88982e-09 0)
(445.687 -1.16271e-09 0)
(1038.71 -1.44127e-09 0)
(1058.44 1.72993e-09 0)
(670.47 -8.579e-10 0)
(485.399 5.2887e-10 0)
(440.751 -1.23134e-09 0)
(429.198 -1.45338e-10 0)
(582.46 -1.35649e-09 0)
(-431.124 761.586 0)
(32.7944 686.894 0)
(-91.4702 91.555 0)
(-318.417 -199.667 0)
(-637.555 -322.468 0)
(-567.163 -76.89 0)
(86.5539 75.449 0)
(1871.36 167.914 0)
(2600.11 276.091 0)
(982.44 44.4532 0)
(-45.4736 88.22 0)
(-99.1723 4.46771 0)
(-207.125 -52.1883 0)
(-561.053 -189.481 0)
(-920.17 -366.8 0)
(-1059.22 -198.201 0)
(-1073.71 -85.2903 0)
(-1123.39 -43.2013 0)
(-1147.14 -25.4768 0)
(-866.583 -13.1218 0)
(-403.344 -3.00264 0)
(-139.239 0.233627 0)
(-76.7987 -0.0300089 0)
(-64.8985 -0.139307 0)
(-52.5709 0.226372 0)
(-33.5092 0.606297 0)
(-13.2818 0.696905 0)
(0.98662 0.642721 0)
(8.89549 0.577265 0)
(10.5751 0.475111 0)
(20.7408 0.434337 0)
(79.4198 0.50691 0)
(445.69 0.626469 0)
(1038.63 0.641465 0)
(1058.43 -0.446396 0)
(670.403 0.216067 0)
(485.305 -1.21531 0)
(440.87 0.447279 0)
(429.462 0.88024 0)
(582.231 0.120501 0)
(7.4681 1196.66 0)
(-177.752 506.715 0)
(-279.59 -227.26 0)
(-341.076 -409.499 0)
(-582.514 -311.861 0)
(-486.108 -26.7049 0)
(120.249 191.669 0)
(1887.78 327.595 0)
(2595.59 249.605 0)
(948.226 -153.998 0)
(-71.7194 -118.467 0)
(-130.331 -175.379 0)
(-226.594 -177.899 0)
(-567.649 -174.497 0)
(-908.47 -121.342 0)
(-1057.54 -95.4076 0)
(-1080.95 -109.455 0)
(-1118.45 -92.4807 0)
(-1135.56 -64.1295 0)
(-857.418 -32.839 0)
(-399.735 -7.08335 0)
(-138.701 0.355225 0)
(-76.8912 0.0986296 0)
(-64.8407 -0.158426 0)
(-52.4185 0.580689 0)
(-33.4152 1.35121 0)
(-13.2741 1.59753 0)
(0.962539 1.50364 0)
(8.85911 1.34779 0)
(10.5433 1.1042 0)
(20.7465 0.977633 0)
(79.4603 1.04749 0)
(445.726 1.23565 0)
(1038.39 0.89381 0)
(1058.32 -1.90094 0)
(670.246 -2.37608 0)
(485.466 -1.53539 0)
(441.361 -0.565609 0)
(429.103 0.173938 0)
(582.169 0.168658 0)
(-646.774 563.906 0)
(-616.946 69.7593 0)
(-448.673 -218.396 0)
(-345.286 -374.627 0)
(-461.079 -356.391 0)
(-345.033 -54.8264 0)
(269.836 159.102 0)
(1888.72 590.836 0)
(2303.25 78.2272 0)
(791.119 -451.347 0)
(-28.5391 -382.093 0)
(-100.425 -328.822 0)
(-184.059 -324.241 0)
(-517.951 -340.087 0)
(-884.088 -294.036 0)
(-1053.7 -244.702 0)
(-1063.49 -175.418 0)
(-1100.68 -122.945 0)
(-1123.12 -97.6585 0)
(-841.398 -58.9445 0)
(-386.695 -13.5349 0)
(-135.356 0.107679 0)
(-77.0141 0.205375 0)
(-64.6628 -0.151973 0)
(-51.8002 0.92139 0)
(-32.9801 2.21814 0)
(-13.1952 2.7505 0)
(0.857808 2.63494 0)
(8.687 2.35093 0)
(10.3797 1.93483 0)
(20.6986 1.65065 0)
(79.5348 1.6737 0)
(445.552 1.89146 0)
(1036.93 0.976711 0)
(1056.52 -3.09217 0)
(670.814 -5.67893 0)
(486.254 0.203275 0)
(441.375 -3.25572 0)
(430.337 -1.72747 0)
(582.087 0.313778 0)
(-612.899 50.1578 0)
(-696.097 208.873 0)
(-617.149 302.189 0)
(-471.795 168.126 0)
(-339.461 104.359 0)
(-65.0093 279.706 0)
(662.22 576.911 0)
(1809.35 885.982 0)
(1748.07 47.3526 0)
(588.89 -445.205 0)
(23.195 -503.778 0)
(-90.6195 -433.207 0)
(-260.258 -492.525 0)
(-565.192 -544.135 0)
(-829.629 -495.336 0)
(-945.288 -377.344 0)
(-972.991 -261.89 0)
(-1053.04 -200.15 0)
(-1080.56 -165.762 0)
(-784.944 -90.763 0)
(-349.822 -18.7881 0)
(-127.255 -0.00998209 0)
(-77.0755 0.355187 0)
(-64.2461 0.213096 0)
(-50.4661 1.55413 0)
(-31.8859 3.35026 0)
(-12.9147 4.20374 0)
(0.63366 4.13043 0)
(8.27675 3.73467 0)
(9.95621 3.13034 0)
(20.5206 2.64924 0)
(79.6524 2.59638 0)
(445.148 2.85791 0)
(1034.38 1.49971 0)
(1052.87 -2.94126 0)
(673.117 -6.17315 0)
(487.379 0.843594 0)
(439.492 -3.64214 0)
(431.881 1.29208 0)
(583.576 2.16181 0)
(-397.162 22.2517 0)
(-374.079 136.581 0)
(-487.938 251.739 0)
(-535.922 255.365 0)
(-353.556 333.154 0)
(110.335 606.731 0)
(854.066 713.958 0)
(1378.41 577.857 0)
(1020.47 -141.049 0)
(260.03 -581.563 0)
(-16.978 -543.017 0)
(-89.5812 -524.227 0)
(-290.953 -607.214 0)
(-520.66 -611.739 0)
(-723.361 -532.39 0)
(-828.747 -415.987 0)
(-892.74 -316.65 0)
(-1008.05 -265.608 0)
(-1017.71 -219.891 0)
(-699.769 -109.905 0)
(-299.242 -20.5842 0)
(-116.909 0.123983 0)
(-76.7991 0.728375 0)
(-63.5075 0.958567 0)
(-48.7771 2.60673 0)
(-30.4268 4.76836 0)
(-12.4434 5.87267 0)
(0.405798 5.88646 0)
(7.72328 5.43127 0)
(9.33378 4.66756 0)
(20.184 3.99852 0)
(79.7359 3.86897 0)
(444.495 4.22505 0)
(1031.35 2.78271 0)
(1049.12 -1.37229 0)
(674.462 -3.97033 0)
(488.693 1.05789 0)
(441.808 -0.565928 0)
(435.93 6.61789 0)
(578.758 6.22556 0)
(-459.842 -18.6484 0)
(-474.955 -90.4442 0)
(-502.685 -100.408 0)
(-393.34 38.4969 0)
(-0.871374 292.095 0)
(301.947 532.987 0)
(634.395 503.936 0)
(985.433 186.886 0)
(630.812 -398.923 0)
(201.539 -569.222 0)
(78.4458 -464.115 0)
(-152.483 -561.648 0)
(-344.587 -593.37 0)
(-493.089 -580.383 0)
(-640.995 -526.794 0)
(-737.393 -440.148 0)
(-828.08 -360.882 0)
(-959.8 -318.151 0)
(-930.519 -253.825 0)
(-592.885 -111.95 0)
(-243.794 -18.7167 0)
(-106.717 0.019135 0)
(-76.2712 0.885264 0)
(-62.4361 1.5932 0)
(-46.7948 3.61847 0)
(-28.7387 6.06591 0)
(-11.8373 7.34721 0)
(0.20831 7.45559 0)
(7.10218 6.99113 0)
(8.57557 6.15088 0)
(19.7511 5.34426 0)
(79.8706 5.13063 0)
(444.101 5.51789 0)
(1028.98 3.43843 0)
(1046.36 -1.09137 0)
(675.459 -3.25878 0)
(490.659 0.613045 0)
(444.85 2.75989 0)
(438.426 8.30266 0)
(571.199 6.96017 0)
(-502.288 -8.90892 0)
(-452.866 10.8131 0)
(-363.686 126.733 0)
(-157.691 331.198 0)
(122.952 482.908 0)
(314.472 415.078 0)
(520.551 392.684 0)
(508.385 37.6649 0)
(291.853 -455.241 0)
(197.209 -440.061 0)
(-9.68002 -541.635 0)
(-214.137 -579.154 0)
(-309.007 -566.716 0)
(-456.504 -558.034 0)
(-588.226 -523.094 0)
(-668.868 -448.786 0)
(-775.179 -385.578 0)
(-904.885 -353.696 0)
(-819.006 -264.024 0)
(-473.21 -98.5518 0)
(-191.345 -14.2144 0)
(-98.0194 0.0600324 0)
(-75.2823 1.02694 0)
(-60.8737 2.3503 0)
(-44.467 4.84796 0)
(-26.8337 7.53412 0)
(-11.1042 8.94116 0)
(0.0626706 9.15071 0)
(6.46601 8.72194 0)
(7.7468 7.88701 0)
(19.2009 7.02295 0)
(79.9032 6.87697 0)
(442.864 7.54011 0)
(1024.98 6.16922 0)
(1042.67 1.31316 0)
(676.104 -1.45761 0)
(494.493 1.67163 0)
(449.218 6.43078 0)
(439.978 10.1553 0)
(564.05 7.18465 0)
(-458.007 23.4841 0)
(-344.245 124.857 0)
(-193.95 281.93 0)
(-50.117 388.817 0)
(79.9581 334.444 0)
(215.004 195.063 0)
(270.707 21.6436 0)
(168.341 -349.591 0)
(170.457 -413.521 0)
(118.286 -436.735 0)
(-55.5893 -528.126 0)
(-176.651 -530.307 0)
(-324.235 -544.774 0)
(-451.053 -557.534 0)
(-535.719 -511.099 0)
(-604.878 -437.235 0)
(-736.449 -397.531 0)
(-842.666 -373.671 0)
(-684.652 -245 0)
(-352.159 -74.3754 0)
(-148.768 -9.73145 0)
(-92.03 -0.220073 0)
(-74.0642 1.03812 0)
(-58.754 3.1485 0)
(-41.7995 6.15566 0)
(-24.7944 9.03735 0)
(-10.2795 10.5315 0)
(-0.00294248 10.8274 0)
(5.88443 10.4619 0)
(6.93836 9.70259 0)
(18.7778 8.88534 0)
(80.369 8.7572 0)
(443.419 9.4165 0)
(1022.98 7.49387 0)
(1039.01 2.85353 0)
(675.804 0.214145 0)
(498.261 2.75706 0)
(453.025 8.35792 0)
(439.152 10.9231 0)
(554.49 6.14869 0)
(-359.341 39.3887 0)
(-203.818 160.738 0)
(-109.325 207.868 0)
(-107.087 122.403 0)
(-63.7558 -22.6715 0)
(13.0462 -161.614 0)
(-4.29735 -344.805 0)
(89.0454 -370.041 0)
(207.878 -288.531 0)
(86.7709 -443.565 0)
(-99.8499 -489.572 0)
(-230.179 -534.961 0)
(-335.243 -559.053 0)
(-424.054 -539.411 0)
(-472.302 -471.543 0)
(-559.429 -418.393 0)
(-713.926 -412.694 0)
(-757.901 -372.667 0)
(-530.594 -196.226 0)
(-246.497 -46.8847 0)
(-119.886 -5.5235 0)
(-87.6415 0.205527 0)
(-72.0362 2.16116 0)
(-55.9422 5.15479 0)
(-38.7923 8.57693 0)
(-22.6169 11.4903 0)
(-9.37927 12.9713 0)
(-0.00437343 13.2631 0)
(5.38211 12.8939 0)
(6.22754 12.1894 0)
(18.2899 11.4515 0)
(80.415 11.4112 0)
(441.647 12.2423 0)
(1018.65 10.2332 0)
(1035.66 5.20244 0)
(676.011 1.37229 0)
(502.341 3.37544 0)
(457.087 9.43159 0)
(437.849 11.2261 0)
(547.599 5.59499 0)
(-265.157 -74.5825 0)
(-181.893 -18.9828 0)
(-230.892 -168.813 0)
(-272.273 -231.312 0)
(-193.731 -259.303 0)
(-95.4155 -282.071 0)
(69.8585 -258.907 0)
(222.569 -193.557 0)
(99.6073 -338.933 0)
(-75.4444 -459.23 0)
(-143.662 -519.781 0)
(-243.606 -541.504 0)
(-328.524 -543.413 0)
(-366.725 -484.689 0)
(-419.102 -423.788 0)
(-548.168 -411.237 0)
(-692.386 -425.201 0)
(-634.069 -329.852 0)
(-370.716 -129.759 0)
(-168.392 -24.8222 0)
(-103.391 -2.12608 0)
(-84.6248 1.69827 0)
(-69.295 4.59215 0)
(-52.5715 8.19493 0)
(-35.6944 11.8019 0)
(-20.5598 14.5953 0)
(-8.57117 15.9735 0)
(-0.077535 16.1729 0)
(4.84986 15.7655 0)
(5.5484 15.1569 0)
(18.0278 14.5945 0)
(81.1311 14.7708 0)
(442.284 15.7003 0)
(1016.2 13.5092 0)
(1030.47 8.55074 0)
(674.043 4.35743 0)
(506.027 6.52381 0)
(460.59 12.3141 0)
(435.455 13.1566 0)
(538.281 6.17958 0)
(-449.504 -85.2806 0)
(-294.622 -60.1921 0)
(-313.933 -167.771 0)
(-194.287 -101.49 0)
(-112.669 -95.916 0)
(13.4277 -100.098 0)
(80.9982 -141.418 0)
(11.9292 -277.313 0)
(-48.1345 -438.671 0)
(-87.5008 -469.569 0)
(-179.132 -507.609 0)
(-252.952 -525.433 0)
(-280.495 -480.474 0)
(-308.778 -418.851 0)
(-401.521 -398.652 0)
(-560.791 -425.482 0)
(-635.5 -410.559 0)
(-473.203 -239.939 0)
(-236.656 -68.4503 0)
(-123.505 -10.3278 0)
(-94.33 0.706531 0)
(-81.1675 3.99875 0)
(-65.7758 7.68527 0)
(-48.9946 11.5014 0)
(-32.6247 14.9221 0)
(-18.5971 17.3377 0)
(-7.85898 18.4353 0)
(-0.204748 18.4108 0)
(4.40299 17.9533 0)
(5.09908 17.4779 0)
(17.9178 17.2044 0)
(81.4806 17.7048 0)
(440.431 18.831 0)
(1011.76 16.1442 0)
(1026.84 10.8273 0)
(674.058 6.79604 0)
(510.008 10.5155 0)
(463.478 16.1325 0)
(431.937 16.1757 0)
(528.966 7.96545 0)
(-405.34 147.011 0)
(-261.384 79.5097 0)
(-270.688 132.635 0)
(-203.031 97.0972 0)
(-192.39 33.0377 0)
(-139.263 -76.6721 0)
(-100.912 -239.115 0)
(-63.8747 -360.946 0)
(-85.6572 -406.305 0)
(-141.876 -463.89 0)
(-197.494 -492.62 0)
(-217.458 -462.984 0)
(-225.817 -404.171 0)
(-287.879 -376.944 0)
(-425.492 -401.151 0)
(-559.642 -429.904 0)
(-513.59 -335.319 0)
(-304.401 -137.31 0)
(-149.454 -30.9094 0)
(-101.75 -4.54734 0)
(-89.585 0.448687 0)
(-77.8998 3.80541 0)
(-62.0652 8.04699 0)
(-45.5978 12.101 0)
(-30.0703 15.4956 0)
(-17.1744 17.7336 0)
(-7.53707 18.6978 0)
(-0.542015 18.6008 0)
(3.95085 18.2315 0)
(4.8267 18.1106 0)
(18.2464 18.3188 0)
(82.6986 19.2101 0)
(440.78 20.3397 0)
(1008.48 16.1771 0)
(1021.46 12.7058 0)
(673.743 10.0411 0)
(515.024 15.0343 0)
(466.045 20.8306 0)
(427.585 19.5616 0)
(515.017 8.86109 0)
(-231.22 127.415 0)
(-308.475 35.0793 0)
(-296.985 106.381 0)
(-290.262 68.9923 0)
(-280.119 50.1335 0)
(-248.828 -107.595 0)
(-192.939 -239.94 0)
(-149.182 -352.578 0)
(-147.334 -423.282 0)
(-170.676 -454.127 0)
(-178.258 -437.152 0)
(-167.719 -382.686 0)
(-197.584 -350.019 0)
(-305.868 -369.637 0)
(-452.555 -413.593 0)
(-497.353 -381.037 0)
(-353.545 -208.416 0)
(-179.863 -59.056 0)
(-108.722 -6.42241 0)
(-93.2868 6.39275 0)
(-86.281 11.5367 0)
(-73.8455 17.6769 0)
(-57.7819 24.2798 0)
(-41.8169 30.1646 0)
(-27.1969 34.9033 0)
(-15.5113 38.2414 0)
(-7.02331 40.1164 0)
(-0.654147 40.9402 0)
(3.93064 41.358 0)
(5.18326 42.3203 0)
(18.9773 43.2398 0)
(83.428 45.2513 0)
(437.509 48.3287 0)
(1004.41 52.0316 0)
(1020.92 61.974 0)
(676.302 62.2136 0)
(520.405 55.8262 0)
(467.841 43.3038 0)
(420.403 30.55 0)
(501.577 11.6741 0)
(-248.755 12.7961 0)
(-281.652 29.115 0)
(-238.008 90.0481 0)
(-257.234 149.137 0)
(-362.556 97.2412 0)
(-418.788 -61.6406 0)
(-336.986 -250.764 0)
(-240.549 -368.297 0)
(-183.514 -407.239 0)
(-155.242 -391.291 0)
(-128.651 -340.237 0)
(-133.494 -300.137 0)
(-213.243 -307.99 0)
(-349.141 -343.87 0)
(-436.478 -345.365 0)
(-361.926 -223.175 0)
(-203.317 -57.3012 0)
(-109.752 25.1765 0)
(-86.3855 52.6941 0)
(-84.4436 64.4736 0)
(-78.7112 75.2565 0)
(-65.6202 87.4502 0)
(-50.0316 99.3087 0)
(-35.3606 110.072 0)
(-22.2872 119.048 0)
(-12.1509 126.513 0)
(-4.93642 131.354 0)
(0.654482 135.884 0)
(5.28081 139.434 0)
(6.64002 143.384 0)
(21.0708 145.221 0)
(87.6025 150.712 0)
(447.314 161.915 0)
(1021.63 202.49 0)
(1031.27 244.169 0)
(667.819 219.399 0)
(496.802 180.599 0)
(441.688 131.139 0)
(397.106 67.1718 0)
(474.329 15.8045 0)
(-190.833 57.0515 0)
(-234.032 98.7967 0)
(-181.327 153.578 0)
(-283.331 203.383 0)
(-483.233 94.7545 0)
(-584.178 -30.035 0)
(-488.444 -225.091 0)
(-299.967 -305.401 0)
(-169.492 -287.35 0)
(-106.111 -219.946 0)
(-90.4196 -146.054 0)
(-136.645 -117.116 0)
(-239.726 -138.575 0)
(-341.885 -146.397 0)
(-336.25 -48.405 0)
(-219.764 138.082 0)
(-114.224 273.758 0)
(-73.8674 340.276 0)
(-70.8537 377.495 0)
(-71.5449 405.813 0)
(-64.1399 432.907 0)
(-50.6679 459.416 0)
(-35.9824 482.831 0)
(-22.7958 503.101 0)
(-11.3536 519.49 0)
(-3.65252 534.478 0)
(2.00669 544.388 0)
(7.13234 555.737 0)
(11.1575 563.394 0)
(10.7601 570.951 0)
(26.0387 572.094 0)
(99.515 584.177 0)
(487.404 618.531 0)
(1083.67 740.49 0)
(1037.22 809.111 0)
(615.043 696.42 0)
(435.355 547.79 0)
(358.539 367.152 0)
(309.263 184.773 0)
(421.618 34.8986 0)
(-98.5736 92.0551 0)
(-188.636 147.221 0)
(-137.225 233.804 0)
(-313.918 299.293 0)
(-587.486 309.665 0)
(-727.003 237.656 0)
(-602.339 91.1918 0)
(-300.544 92.3707 0)
(-101.166 178.361 0)
(-19.0842 282.925 0)
(-29.5606 357.433 0)
(-126.286 392.944 0)
(-241.459 412.577 0)
(-262.25 488.417 0)
(-162.344 650.481 0)
(-51.478 804.263 0)
(-8.4755 897.397 0)
(-9.7873 942.94 0)
(-23.2315 968.985 0)
(-31.0469 987.365 0)
(-27.0581 1002.73 0)
(-17.512 1016.12 0)
(-7.93484 1026.17 0)
(-0.0344473 1035.19 0)
(7.9489 1041.73 0)
(11.8417 1048.63 0)
(15.549 1053.22 0)
(18.9699 1058.55 0)
(19.9418 1060.66 0)
(15.0237 1062.4 0)
(33.8159 1061.2 0)
(132.35 1074.41 0)
(597.942 1117.98 0)
(1205.28 1226.4 0)
(988.807 1243.25 0)
(416.001 1124.43 0)
(179.508 960.511 0)
(91.8715 713.204 0)
(76.934 409.083 0)
(262.645 102.873 0)
(39.7421 94.4917 0)
(-97.4372 296.531 0)
(-34.7854 561.968 0)
(-210.228 744.618 0)
(-542.628 967.897 0)
(-794.708 1035.32 0)
(-628.446 903.787 0)
(-215.967 873.539 0)
(14.1324 917.97 0)
(66.4497 939.556 0)
(15.5986 893.032 0)
(-83.5059 830.632 0)
(-147.724 828.607 0)
(-112.633 925.524 0)
(-31.8894 1033.32 0)
(18.1736 1083.11 0)
(19.4106 1088.19 0)
(-4.88256 1074.5 0)
(-28.0444 1056.57 0)
(-39.0246 1040.35 0)
(-36.4257 1027.05 0)
(-28.0816 1013.98 0)
(-17.6138 1001.2 0)
(-7.80331 990.572 0)
(1.59658 981.061 0)
(7.42303 972.836 0)
(11.5675 966.342 0)
(14.2942 957.994 0)
(14.8657 950.914 0)
(11.281 943.372 0)
(37.6208 939.676 0)
(154.238 939.513 0)
(633.863 943.746 0)
(1204.38 866.313 0)
(938.959 781.723 0)
(342.581 785.309 0)
(39.0803 777.08 0)
(-172.838 723.327 0)
(-278.875 515.029 0)
(-71.7206 190.737 0)
(278.23 42.823 0)
(261.842 387.561 0)
(294.568 733.648 0)
(77.2497 966.232 0)
(-307.354 1145.02 0)
(-788.782 1258.62 0)
(-758.238 1159.26 0)
(-286.877 1038.48 0)
(-37.5492 943.185 0)
(-43.1157 829.88 0)
(-134.524 708.511 0)
(-188.368 640.63 0)
(-150.018 659.233 0)
(-64.9815 724.694 0)
(-10.4926 761.983 0)
(1.39827 759.143 0)
(-16.7715 732.135 0)
(-40.2543 703.628 0)
(-56.1351 679.126 0)
(-59.5018 662.952 0)
(-52.4674 653.746 0)
(-42.4148 648.599 0)
(-30.494 646.89 0)
(-19.444 644.008 0)
(-9.14254 640.479 0)
(-2.34245 635.953 0)
(1.24685 631.892 0)
(4.10304 626.219 0)
(5.85148 622.536 0)
(4.1941 619.08 0)
(30.0969 619.349 0)
(136.272 607.39 0)
(527.405 582.978 0)
(1049.15 370.054 0)
(910.748 220.269 0)
(411.526 281.674 0)
(119.779 316.515 0)
(-160.65 341.274 0)
(-436.289 269.614 0)
(-417.457 119.026 0)
(454.476 -19.5465 0)
(568.267 211.227 0)
(522.843 337.122 0)
(186.183 336.91 0)
(-260.868 359.599 0)
(-780.988 389.842 0)
(-840.582 455.184 0)
(-424.181 405.065 0)
(-186.886 300.649 0)
(-159.691 221.146 0)
(-166.77 204.712 0)
(-130.992 267.658 0)
(-66.7169 361.043 0)
(-13.6186 424.854 0)
(1.30621 453.786 0)
(-10.5895 457.808 0)
(-34.0848 455.034 0)
(-55.9635 453.378 0)
(-67.2416 456.524 0)
(-63.4817 465.541 0)
(-50.257 478.192 0)
(-34.6887 488.186 0)
(-22.0382 497.12 0)
(-13.981 502.983 0)
(-6.16496 508.133 0)
(-0.85151 512.376 0)
(2.18781 516.273 0)
(5.2779 519.874 0)
(7.98565 523.347 0)
(8.21039 527.209 0)
(26.3564 534.163 0)
(119.19 522.8 0)
(405.157 485.257 0)
(854.865 253.538 0)
(853.792 29.9484 0)
(435.327 80.6244 0)
(96.5134 48.9793 0)
(-218.033 54.5509 0)
(-493.041 -9.94266 0)
(-446.229 -94.6351 0)
(462.94 409.777 0)
(605.54 -531.675 0)
(415.681 -238.511 0)
(98.9101 -338.566 0)
(-256.347 -282.05 0)
(-696.673 -236.135 0)
(-743.569 -15.3069 0)
(-435.793 87.52 0)
(-214.78 95.4085 0)
(-135.564 119.644 0)
(-89.7031 177.701 0)
(-37.7217 253.715 0)
(1.46188 314.411 0)
(24.3889 345.967 0)
(21.2631 360.227 0)
(2.60047 365.507 0)
(-21.0405 372.157 0)
(-38.8181 382.321 0)
(-44.4139 399.058 0)
(-38.622 419.666 0)
(-30.6459 443.051 0)
(-24.1746 458.482 0)
(-16.2359 469.004 0)
(-8.83174 478.224 0)
(-0.0909078 486.226 0)
(5.50131 491.752 0)
(8.47255 495.497 0)
(10.9199 498.14 0)
(12.9194 499.8 0)
(14.6166 501.082 0)
(25.8483 504.441 0)
(89.1446 493.978 0)
(267.934 425.798 0)
(610.4 214.047 0)
(744.123 -109.464 0)
(429.865 -152.122 0)
(94.654 -219.9 0)
(-217.429 -217.63 0)
(-580.05 -630.668 0)
(-316.682 -152.724 0)
(337.01 31307.7 0)
(-56.4467 -541.604 0)
(708.93 -690.364 0)
(144.228 -656.887 0)
(-162.161 -647.203 0)
(-523.945 -515.79 0)
(-528.697 -240.047 0)
(-317.492 -39.0742 0)
(-155.93 62.3071 0)
(-80.3906 136.484 0)
(-37.5734 206.12 0)
(0.746804 259.499 0)
(22.1802 292.979 0)
(30.5316 305.651 0)
(20.1356 308.373 0)
(0.906047 311.92 0)
(-17.8823 321.408 0)
(-30.0402 338.769 0)
(-31.2548 359.405 0)
(-21.0889 380.111 0)
(-12.8521 397.025 0)
(-9.67902 411.551 0)
(-3.01409 423.369 0)
(2.61454 433.249 0)
(6.87122 440.496 0)
(8.08266 443.058 0)
(8.34358 443.286 0)
(9.42417 441.683 0)
(10.8205 439.05 0)
(12.6826 435.79 0)
(19.5106 431.641 0)
(43.4067 419.122 0)
(135.405 352.128 0)
(339.066 169.234 0)
(500.939 -202.023 0)
(328.907 -424.841 0)
(33.3874 -504.204 0)
(-613.864 -576.671 0)
(-430.496 -451.225 0)
(308.677 19339.6 0)
(30110.2 -31913.6 0)
(-30228.9 317.44 0)
(304.59 -485.422 0)
(140.502 -734.326 0)
(-120.381 -780.897 0)
(-304.323 -441.122 0)
(-284.188 78.6264 0)
(-144.433 402.437 0)
(-45.6049 557.983 0)
(3.01927 611.577 0)
(28.8384 638.274 0)
(45.9797 620.642 0)
(45.9349 589.784 0)
(39.223 549.957 0)
(27.3046 517.397 0)
(15.1608 500.726 0)
(4.83252 500.724 0)
(-2.20217 514.268 0)
(-4.57596 534.183 0)
(-2.3703 551.451 0)
(-0.349045 558.527 0)
(1.21173 565.151 0)
(4.67305 567.314 0)
(7.67176 563.429 0)
(9.36204 556.64 0)
(8.19043 546.583 0)
(7.14728 539.753 0)
(6.83739 530.508 0)
(7.24065 522.877 0)
(7.47783 511.765 0)
(9.78592 501.956 0)
(12.5229 481.363 0)
(27.1336 443.916 0)
(76.3997 312.691 0)
(171.65 12.7719 0)
(138.673 -385.279 0)
(-51.6552 -472.453 0)
(-166.377 -366.322 0)
(18611.9 337.231 0)
(-18518.2 -19233.9 0)
(30110.2 31913.6 0)
(-30228.9 -317.44 0)
(304.59 485.422 0)
(140.502 734.326 0)
(-120.381 780.897 0)
(-304.323 441.122 0)
(-284.188 -78.6264 0)
(-144.433 -402.437 0)
(-45.6049 -557.983 0)
(3.01927 -611.577 0)
(28.8384 -638.274 0)
(45.9797 -620.642 0)
(45.9349 -589.784 0)
(39.223 -549.957 0)
(27.3046 -517.397 0)
(15.1608 -500.726 0)
(4.83252 -500.724 0)
(-2.20217 -514.268 0)
(-4.57596 -534.183 0)
(-2.3703 -551.451 0)
(-0.349045 -558.527 0)
(1.21173 -565.151 0)
(4.67305 -567.314 0)
(7.67176 -563.429 0)
(9.36204 -556.64 0)
(8.19043 -546.583 0)
(7.14728 -539.753 0)
(6.83739 -530.508 0)
(7.24065 -522.877 0)
(7.47783 -511.765 0)
(9.78592 -501.956 0)
(12.5229 -481.363 0)
(27.1336 -443.916 0)
(76.3997 -312.691 0)
(171.65 -12.7719 0)
(138.673 385.279 0)
(-51.6552 472.453 0)
(-166.377 366.322 0)
(18611.9 -337.231 0)
(-18518.2 19233.9 0)
(337.01 -31307.7 0)
(-56.4467 541.604 0)
(708.93 690.364 0)
(144.228 656.887 0)
(-162.161 647.203 0)
(-523.945 515.79 0)
(-528.697 240.047 0)
(-317.492 39.0742 0)
(-155.93 -62.3071 0)
(-80.3906 -136.484 0)
(-37.5734 -206.12 0)
(0.746804 -259.499 0)
(22.1802 -292.979 0)
(30.5316 -305.651 0)
(20.1356 -308.373 0)
(0.906047 -311.92 0)
(-17.8823 -321.408 0)
(-30.0402 -338.769 0)
(-31.2548 -359.405 0)
(-21.0889 -380.111 0)
(-12.8521 -397.025 0)
(-9.67902 -411.551 0)
(-3.01409 -423.369 0)
(2.61454 -433.249 0)
(6.87122 -440.496 0)
(8.08266 -443.058 0)
(8.34358 -443.286 0)
(9.42417 -441.683 0)
(10.8205 -439.05 0)
(12.6826 -435.79 0)
(19.5106 -431.641 0)
(43.4067 -419.122 0)
(135.405 -352.128 0)
(339.066 -169.234 0)
(500.939 202.023 0)
(328.907 424.841 0)
(33.3874 504.204 0)
(-613.864 576.671 0)
(-430.496 451.225 0)
(308.677 -19339.6 0)
(462.94 -409.777 0)
(605.54 531.675 0)
(415.681 238.511 0)
(98.9101 338.566 0)
(-256.347 282.05 0)
(-696.673 236.135 0)
(-743.569 15.3069 0)
(-435.793 -87.52 0)
(-214.78 -95.4085 0)
(-135.564 -119.644 0)
(-89.7031 -177.701 0)
(-37.7217 -253.715 0)
(1.46188 -314.411 0)
(24.3889 -345.967 0)
(21.2631 -360.227 0)
(2.60047 -365.507 0)
(-21.0405 -372.157 0)
(-38.8181 -382.321 0)
(-44.4139 -399.058 0)
(-38.622 -419.666 0)
(-30.6459 -443.051 0)
(-24.1746 -458.482 0)
(-16.2359 -469.004 0)
(-8.83174 -478.224 0)
(-0.0909078 -486.226 0)
(5.50131 -491.752 0)
(8.47255 -495.497 0)
(10.9199 -498.14 0)
(12.9194 -499.8 0)
(14.6166 -501.082 0)
(25.8483 -504.441 0)
(89.1446 -493.978 0)
(267.934 -425.798 0)
(610.4 -214.047 0)
(744.123 109.464 0)
(429.865 152.122 0)
(94.654 219.9 0)
(-217.429 217.63 0)
(-580.05 630.668 0)
(-316.682 152.724 0)
(454.476 19.5465 0)
(568.267 -211.227 0)
(522.843 -337.122 0)
(186.183 -336.91 0)
(-260.868 -359.599 0)
(-780.988 -389.842 0)
(-840.582 -455.184 0)
(-424.181 -405.065 0)
(-186.886 -300.649 0)
(-159.691 -221.146 0)
(-166.77 -204.712 0)
(-130.992 -267.658 0)
(-66.7169 -361.043 0)
(-13.6186 -424.854 0)
(1.30621 -453.786 0)
(-10.5895 -457.808 0)
(-34.0848 -455.034 0)
(-55.9635 -453.378 0)
(-67.2416 -456.524 0)
(-63.4817 -465.541 0)
(-50.257 -478.192 0)
(-34.6887 -488.186 0)
(-22.0382 -497.12 0)
(-13.981 -502.983 0)
(-6.16496 -508.133 0)
(-0.85151 -512.376 0)
(2.18781 -516.273 0)
(5.2779 -519.874 0)
(7.98565 -523.347 0)
(8.21039 -527.209 0)
(26.3564 -534.163 0)
(119.19 -522.8 0)
(405.157 -485.257 0)
(854.865 -253.538 0)
(853.792 -29.9484 0)
(435.327 -80.6244 0)
(96.5134 -48.9793 0)
(-218.033 -54.5509 0)
(-493.041 9.94266 0)
(-446.229 94.6351 0)
(278.23 -42.823 0)
(261.842 -387.561 0)
(294.568 -733.648 0)
(77.2497 -966.232 0)
(-307.354 -1145.02 0)
(-788.782 -1258.62 0)
(-758.238 -1159.26 0)
(-286.877 -1038.48 0)
(-37.5492 -943.185 0)
(-43.1157 -829.88 0)
(-134.524 -708.511 0)
(-188.368 -640.63 0)
(-150.018 -659.233 0)
(-64.9815 -724.694 0)
(-10.4926 -761.983 0)
(1.39827 -759.143 0)
(-16.7715 -732.135 0)
(-40.2543 -703.628 0)
(-56.1351 -679.126 0)
(-59.5018 -662.952 0)
(-52.4674 -653.746 0)
(-42.4148 -648.599 0)
(-30.494 -646.89 0)
(-19.444 -644.008 0)
(-9.14254 -640.479 0)
(-2.34245 -635.953 0)
(1.24685 -631.892 0)
(4.10304 -626.219 0)
(5.85148 -622.536 0)
(4.1941 -619.08 0)
(30.0969 -619.349 0)
(136.272 -607.39 0)
(527.405 -582.978 0)
(1049.15 -370.054 0)
(910.748 -220.269 0)
(411.526 -281.674 0)
(119.779 -316.515 0)
(-160.65 -341.274 0)
(-436.289 -269.614 0)
(-417.457 -119.026 0)
(39.7421 -94.4917 0)
(-97.4372 -296.531 0)
(-34.7854 -561.968 0)
(-210.228 -744.618 0)
(-542.628 -967.897 0)
(-794.708 -1035.32 0)
(-628.446 -903.787 0)
(-215.967 -873.539 0)
(14.1324 -917.97 0)
(66.4497 -939.556 0)
(15.5986 -893.032 0)
(-83.5059 -830.632 0)
(-147.724 -828.607 0)
(-112.633 -925.524 0)
(-31.8894 -1033.32 0)
(18.1736 -1083.11 0)
(19.4106 -1088.19 0)
(-4.88256 -1074.5 0)
(-28.0444 -1056.57 0)
(-39.0246 -1040.35 0)
(-36.4257 -1027.05 0)
(-28.0816 -1013.98 0)
(-17.6138 -1001.2 0)
(-7.80331 -990.572 0)
(1.59658 -981.061 0)
(7.42303 -972.836 0)
(11.5675 -966.342 0)
(14.2942 -957.994 0)
(14.8657 -950.914 0)
(11.281 -943.372 0)
(37.6208 -939.676 0)
(154.238 -939.513 0)
(633.863 -943.746 0)
(1204.38 -866.313 0)
(938.959 -781.723 0)
(342.581 -785.309 0)
(39.0803 -777.08 0)
(-172.838 -723.327 0)
(-278.875 -515.029 0)
(-71.7206 -190.737 0)
(-98.5736 -92.0551 0)
(-188.636 -147.221 0)
(-137.225 -233.804 0)
(-313.918 -299.293 0)
(-587.486 -309.665 0)
(-727.003 -237.656 0)
(-602.339 -91.1918 0)
(-300.544 -92.3707 0)
(-101.166 -178.361 0)
(-19.0842 -282.925 0)
(-29.5606 -357.433 0)
(-126.286 -392.944 0)
(-241.459 -412.577 0)
(-262.25 -488.417 0)
(-162.344 -650.481 0)
(-51.478 -804.263 0)
(-8.4755 -897.397 0)
(-9.7873 -942.94 0)
(-23.2315 -968.985 0)
(-31.0469 -987.365 0)
(-27.0581 -1002.73 0)
(-17.512 -1016.12 0)
(-7.93484 -1026.17 0)
(-0.0344473 -1035.19 0)
(7.9489 -1041.73 0)