/*--------------------------------*- C++ -*----------------------------------*\
| =========                 |                                                 |
| \\      /  F ield         | OpenFOAM: The Open Source CFD Toolbox           |
|  \\    /   O peration     | Version:  v1912                                 |
|   \\  /    A nd           | Website:  www.openfoam.com                      |
|    \\/     M anipulation  |                                                 |
\*---------------------------------------------------------------------------*/
FoamFile
{
    version     2.0;
    format      ascii;
    class       volScalarField;
    location    "0.00023";
    object      rhoM;
}
// * * * * * * * * * * * * * * * * * * * * * * * * * * * * * * * * * * * * * //

dimensions      [1 -3 0 0 0 0 0];


internalField   nonuniform List<scalar> 
1300
(
0.019924
0.019262
0.023912
0.061774
0.029224
0.033874
0.04051
0.061112
0.0093
0.03255
0.009962
0.028562
0.039186
0.139484
0.047162
0.019262
0.075062
0.052474
0.024574
0.051812
1e-277
1e-277
0.042512
0.125534
0.042512
0.01395
0.05911
0.080374
0.03255
0.038524
1e-277
0.00465
0.019262
0.096972
0.057124
0.01395
0.038524
0.092322
0.028562
0.029886
0.005312
1e-277
0.0279
0.103608
0.038524
0.0186
0.062436
0.057124
0.047162
0.0465
1e-277
1e-277
0.03255
0.104948
0.051812
0.033212
0.096972
0.089674
0.067748
0.033874
1e-277
0.01395
0.0186
0.135496
0.048486
0.038524
0.042512
0.072398
0.073722
0.035198
1e-277
0.00465
0.019924
0.081698
0.047162
0.023912
0.052474
0.047824
0.043174
0.070412
1e-277
1e-277
0.039186
0.089674
0.035198
0.0093
0.033874
0.092984
0.053798
0.033212
1e-277
0.00465
0.047824
0.104948
0.028562
0.0279
0.043174
0.061112
0.048486
0.047162
1e-277
0.00465
0.039186
0.09631
0.03255
0.0093
0.038524
0.092322
0.063098
0.052474
1e-277
1e-277
0.043174
0.097634
0.047162
0.019262
0.043836
0.057786
0.03255
0.033874
1e-277
0.00465
0.01395
0.085686
0.057124
0.038524
0.047824
0.05911
0.038524
0.047162
1e-277
1e-277
0.039186
0.104286
0.0279
0.014612
0.02325
0.072398
0.033212
0.096972
1e-277
1e-277
0.023912
0.126196
0.039186
0.02325
0.05115
0.048486
0.053136
0.033212
1e-277
1e-277
0.024574
0.10561
0.047824
0.028562
0.063098
0.061112
0.023912
0.044498
1e-277
1e-277
0.0093
0.148784
0.047162
0.03255
0.076386
0.038524
0.05115
0.043836
1e-277
1e-277
0.033212
0.092984
0.015274
0.03255
0.050472
0.090998
0.033874
0.037862
1e-277
0.00465
0.0186
0.063098
0.042512
0.019262
0.061774
0.051812
0.023912
0.05911
1e-277
1e-277
0.0093
0.13682
0.047162
0.0186
0.023912
0.057786
0.034536
0.057124
0.01641144484
0.03884744806
0.03501723263
0.04322295505
0.03064172571
0.03939273931
0.02024166058
0.03719839605
0.02298129447
0.03173230782
0.03939273899
0.04267766412
0.03993803024
0.03501723235
0.02681151022
0.02407187633
0.02298129428
0.05251925933
0.03227759875
0.0289926737
0.04322295505
0.03939273931
0.02681150999
0.02024166058
0.05525889322
0.03173230756
0.0645551975
0.03610781449
0.02735680092
0.03173230782
0.02735680114
0.02407187613
0.01969636965
0.03556252356
0.0432229547
0.03227759875
0.01969636965
0.0164114447
0.0235265854
0.01915107873
0.01969636949
0.02298129447
0.02298129447
0.03556252327
0.02735680114
0.03064172596
0.01969636949
0.02407187633
0.03118701689
0.04759846134
0.01586615391
0.01532086298
0.01586615378
0.01586615391
0.03556252356
0.04705317041
0.01149064724
0.02790209207
0.04705317041
0.03173230782
0.06237403378
0.05197396798
0.02407187633
0.03173230782
0.003830215713
0.02681151022
0.03447194171
0.03939273899
0.05088338654
0.03939273931
0.03118701663
0.0235265854
0.03610781449
0.03993802991
0.03610781449
0.01149064724
0.0361078142
0.03173230782
0.01203593816
0.01969636949
0.03665310542
0.03939273931
0.03939273899
0.04322295505
0.03501723263
0.03064172571
0.04540411877
0.03665310542
0.0432229547
0.04267766412
0.05033809561
0.03665310512
0.04322295505
0.03939273931
0.06237403327
0.0470531708
0.02298129447
0.0164114447
0.03993803024
0.01586615391
0.0361078142
0.02407187633
0.02298129447
0.02844738277
0.03610781449
0.02790209207
0.03556252327
0.03118701689
0.02735680114
0.0503380952
0.03939273931
0.04814375266
0.04650787949
0.03556252356
0.02735680114
0.04650787949
0.03501723263
0.02790209207
0.02735680092
0.01532086298
0.06346461564
0.03118701663
0.06400990657
0.05088338654
0.0596343994
0.05142867747
0.05142867747
0.04431353655
0.03830215745
0.03173230782
0.03118701663
0.03556252356
0.02298129447
0.03118701663
0.02953796486
0.03227759875
0.01203593807
0.04376824598
0.0235265854
0.03118701663
0.01203593816
0.02298129447
0.04431353655
0.04322295505
0.03993803024
0.05416831091
0.03501723263
0.03556252356
0.0618155631
0.02735680114
0.05471360229
0.03884744806
0.05580418415
0.03939273931
0.0361078142
0.07604584473
0.05580418415
0.03993802991
0.0470531708
0.04650787987
0.02024166042
0.03227759875
0.0470531708
0.02024166042
0.03118701689
0.03064172596
0.01586615378
0.05306455026
0.03884744838
0.02024166042
0.03610781449
0.02735680114
0.02352658521
0.04322295505
0.03939273931
0.02790209184
0.04322295505
0.03830215745
0.01915107857
0.02735680114
0.05854381803
0.06291932419
0.07112504713
0.04376824598
0.06346461512
0.07112504713
0.04759846173
0.05362301999
0.07440997194
0.0410286121
0.04376824562
0.03939273931
0.04376824598
0.02298129428
0.04048332117
0.05360984119
0.02024166042
0.01586615391
0.02790209207
0.04376824562
0.03118701689
0.02461716726
0.05362301999
0.02681151022
0.04376824598
0.02790209184
0.03665310542
0.06510048843
0.04213237285
0.05525889322
0.05142867747
0.0432229547
0.05251925933
0.05963439989
0.03939273899
0.04814375266
0.06017969082
0.05525889276
0.05142867747
0.05963439989
0.03064172571
0.03610781449
0.04814375266
0.03993802991
0.0470531708
0.03993803024
0.04267766377
0.04431353691
0.05033809561
0.02735680092
0.03173230782
0.02735680114
0.04705317041
0.02078695151
0.03610781449
0.04102861176
0.02407187633
0.04814375266
0.02298129428
0.01258122909
0.0470531708
0.05142867705
0.04759846173
0.05033809561
0.06017969033
0.06017969082
0.06729483138
0.07550055318
0.06346461564
0.07276091992
0.03173230756
0.04322295505
0.03939273931
0.07221562839
0.02735680114
0.05634947508
0.07878547797
0.03227759875
0.03118701689
0.0361078142
0.03227759875
0.05854381803
0.05142867705
0.03118701689
0.06346461564
0.04759846134
0.02790209207
0.04814375266
0.05799852663
0.03118701689
0.0470531708
0.03665310512
0.03884744838
0.02407187633
0.05088338613
0.05471360229
0.0815251125
0.05634947461
0.08699120104
0.0705797562
0.0596343994
0.03884744838
0.05580418415
0.04650787949
0.04267766412
0.07495526287
0.05854381755
0.05033809561
0.05963439989
0.03830215713
0.03173230782
0.04650787987
0.03665310512
0.04048332117
0.05088338654
0.0503380952
0.03501723263
0.04376824598
0.03118701663
0.03939273931
0.03501723263
0.05525889276
0.0519739684
0.03939273931
0.03501723235
0.05634947508
0.05908910896
0.04759846134
0.07331939009
0.05908910896
0.03064172571
0.0705797562
0.05963439989
0.03939273899
0.05471360229
0.05963439989
0.07003446469
0.05908910896
0.04759846173
0.02681150999
0.04868904359
0.06620424952
0.04759846134
0.07878547862
0.07440997194
0.0596343994
0.05580418415
0.02407187633
0.03118701663
0.02461716726
0.03993803024
0.04759846134
0.03993803024
0.03884744838
0.0432229547
0.07440997194
0.06400990657
0.05908910848
0.06729483138
0.07987606048
0.04705317041
0.06674954045
0.05251925933
0.06346461512
0.07878547862
0.03064172596
0.09410634082
0.05088338654
0.05142867747
0.04048332084
0.03501723263
0.05689476601
0.05525889276
0.07824018769
0.06674954045
0.03556252327
0.05416831136
0.0410286121
0.05908910848
0.04322295505
0.05142867747
0.03556252327
0.05033809561
0.03665310542
0.07112504654
0.03939273931
0.03173230782
0.05142867705
0.06620424952
0.08862707383
0.0596343994
0.04650787987
0.07714960583
0.05854381755
0.06729483138
0.07933076955
0.05525889276
0.06400990657
0.07604584473
0.06400990604
0.05251925933
0.05416831136
0.0432229547
0.03556252356
0.05471360229
0.06784012176
0.04759846173
0.07386468101
0.04650787949
0.02407187633
0.03665310542
0.0432229547
0.03501723263
0.04759846173
0.03939273899
0.04596258894
0.04868904359
0.06291932419
0.06620424952
0.07167033806
0.06400990604
0.05854381803
0.08207040343
0.05580418369
0.06620424952
0.09191199864
0.08042135075
0.06182874285
0.05471360229
0.0793307689
0.05471360229
0.05088338654
0.04102861176
0.04267766412
0.06291932471
0.05142867705
0.05908910896
0.0235265854
0.06400990604
0.02790209207
0.0519739684
0.05525889276
0.05689476601
0.03556252356
0.03227759848
0.05142867747
0.07331939009
0.0361078142
0.04814375266
0.05033809561
0.02681150999
0.05908910896
0.07878547862
0.04376824562
0.0705797562
0.07003446527
0.06291932419
0.0579985271
0.03610781449
0.06346461512
0.07276091992
0.06674954045
0.03556252327
0.0815251125
0.0470531708
0.03665310512
0.05580418415
0.0470531708
0.05471360184
0.03447194171
0.05142867747
0.07057975562
0.0519739684
0.05525889322
0.05088338613
0.0470531708
0.05580418415
0.03993802991
0.05908910896
0.03501723263
0.03501723235
0.04376824598
0.07112504713
0.03173230756
0.05416831136
0.07987606048
0.05580418369
0.04923433452
0.03556252356
0.03993802991
0.05142867747
0.06237403378
0.04650787949
0.06291932471
0.04267766412
0.1044932269
0.07167033806
0.05525889322
0.03993802991
0.04759846173
0.0470531708
0.04213237285
0.03939273931
0.03939273931
0.05525889276
0.03173230782
0.04814375266
0.06784012176
0.04376824598
0.03118701689
0.03556252327
0.02735680114
0.04650787987
0.06400990604
0.04759846173
0.05251925933
0.06729483083
0.06674954045
0.05963439989
0.03993802991
0.05471360229
0.03830215745
0.06838541268
0.04322295505
0.09465163253
0.02352658521
0.06291932471
0.07221562899
0.07386468041
0.06182874285
0.04759846173
0.06346461512
0.03501723263
0.0470531708
0.06237403327
0.04322295505
0.01969636965
0.03556252327
0.03939273931
0.0470531708
0.04759846134
0.03610781449
0.03501723263
0.03282288941
0.05580418415
0.08042135141
0.0361078142
0.03939273931
0.05362302043
0.0793307689
0.07824018769
0.06674954045
0.04868904319
0.05471360229
0.07495526287
0.03939273899
0.08207040343
0.03993803024
0.05689476554
0.07276091992
0.06346461564
0.06291932419
0.04322295505
0.02899267393
0.0596343994
0.05908910896
0.0705797562
0.05634947461
0.0470531708
0.05525889322
0.04759846134
0.03556252356
0.03884744838
0.0667495399
0.04979280469
0.03665310542
0.07987605982
0.07276091992
0.05580418415
0.04650787949
0.05251925933
0.0755005538
0.06182874234
0.03939273931
0.03118701689
0.04814375226
0.07112504713
0.0755005538
0.05525889276
0.05854381803
0.05580418415
0.05306454983
0.05033809561
0.06237403378
0.0432229547
0.04322295505
0.03884744838
0.05580418369
0.04979280469
0.028447383
0.02844738277
0.05306455026
0.04650787987
0.05197396798
0.02024166058
0.02790209207
0.04485882747
0.05362302043
0.04759846173
0.05580418369
0.04650787987
0.02790209207
0.05854381755
0.06291932471
0.0519739684
0.08753649125
0.07878547862
0.07495526287
0.05908910848
0.06291932471
0.02325
0.044498
0.019262
0.038524
0.037862
0.019924
0.015274
0.042512
0.014612
0.029224
0.010624
0.02325
0.023912
0.033212
0.033874
0.043174
0.03255
0.033874
0.009962
0.028562
0.0465
0.019924
0.024574
0.037862
0.047162
0.033874
0.0186
0.024574
0.0279
0.019262
0.028562
0.029224
0.028562
0.01395
0.033212
0.042512
0.019924
0.0186
0.033874
0.0279
0.019262
0.028562
0.033212
0.014612
0.0186
0.0186
0.038524
0.0279
0.034536
0.02325
0.019262
0.04981
0.029224
0.02325
0.0279
0.015274
0.051812
0.033874
0.01395
0.01395
0.019262
0.02325
0.04185
0.03255
0.0186
0.01395
0.0372
0.019262
0.019262
0.01395
0.058448
0.014612
0.025236
0.047162
0.039186
0.014612
0.025236
0.014612
0.019262
0.019262
0.052474
0.033212
0.047824
0.01395
0.061774
0.024574
0.024574
0.019262
0.033212
0.033212
0.038524
0.044498
0.051812
0.0372
0.037862
0.038524
0.043836
0.024574
0.043836
0.04185
0.053136
0.058448
0.02325
0.033212
0.047162
0.0186
0.033874
0.071736
0.0186
0.061112
0.042512
0.037862
0.057786
0.019262
0.037862
0.03255
0.033212
0.019924
0.009962
0.03255
0.076386
0.057124
0.029224
0.019262
0.057786
0.028562
0.023912
0.062436
0.039186
0.051812
0.071074
0.092322
0.067748
0.066424
0.073722
0.083684
0.037862
0.061112
0.023912
0.043174
0.043174
0.057124
0.061774
0.080374
0.076386
0.051812
0.033874
0.0372
0.033874
0.053798
0.057786
0.042512
0.043174
0.053136
0.049148
0.05911
0.047162
0.073722
0.053798
0.044498
0.047162
0.070412
0.063098
0.096972
0.061112
0.092322
0.092984
0.075724
0.077048
0.033212
0.071736
0.052474
0.058448
0.09166
0.100298
0.067748
0.047162
0.037862
0.093662
0.06841
0.052474
0.075724
0.075724
0.060434
0.051812
0.047824
0.047824
0.072398
0.075062
0.081698
0.086348
0.053798
0.062436
0.114248
0.07771
0.047824
0.047824
0.079034
0.071074
0.06376
0.03877109213
0.01840305993
0.04600765028
0.00985652069
0.03942608237
0.02300382514
0.01840306011
0.04666264045
0.03877109213
0.02365881577
0.03351533613
0.03351533646
0.02365881577
0.04666264045
0.0282595808
0.02365881577
0.03220535488
0.0341703271
0.04862761282
0.02825958052
0.02760459017
0.03351533646
0.02431380617
0.05060841531
0.02431380641
0.02825958052
0.03811610149
0.04206187589
0.03286034551
0.01905805075
0.009010714917
0.04183103248
0.0508417478
0.02767355263
0.02703214449
0.03346172585
0.04569498247
0.03217890978
0.05212456356
0.05148315568
0.05276597093
0.04054821713
0.03732567543
0.02316819495
0.03668426755
0.08043952407
0.04761920564
0.03346172585
0.04569498247
0.02767355236
0.02380960305
0.02703214475
0.06499922743
0.06113527848
0.02831496051
0.05534710473
0.05985246272
0.07593416661
0.07336853439
0.03796708331
0.008827652989
0.03152516218
0.03719574302
0.03278191652
0.04035281509
0.04476664197
0.04539501899
0.01765530581
0.03152516248
0.02332588651
0.04539501855
0.04035281547
0.04539501899
0.0409811921
0.04098119249
0.02648295897
0.03152516218
0.04160956951
0.036567366
0.03656736565
0.03531061196
0.02395426353
0.05989325194
0.02711133599
0.01891206002
0.04980884501
0.036567366
0.01891206002
0.03531061162
0.04918046846
0.04078106038
0.04449113545
0.03583925473
0.0265715085
0.04943294106
0.01359368679
0.06364249341
0.03151331387
0.03522338964
0.03645511982
0.04449113545
0.0401651953
0.02718737359
0.02595564317
0.04078106038
0.03583925473
0.06179489757
0.0265715085
0.04820121135
0.02595564317
0.0401651953
0.05004880661
0.05808482212
0.0667367038
0.07044677928
0.03954932984
0.05746895757
0.053143017
0.04572286562
0.04881707644
0.02605275888
0.03998490049
0.02544891719
0.03938105917
0.01696594464
0.05210551776
0.03089808677
0.03634725602
0.02969040339
0.03513957297
0.05634700344
0.05331320114
0.03574341466
0.008482972319
0.02120743099
0.04786403156
0.03938105881
0.03513957297
0.07088298763
0.03574341433
0.03029424508
0.03877721747
0.05634700344
0.03150192846
0.04786403156
0.03938105881
0.06907146255
0.05452088452
0.05755468682
0.04362254536
0.01248079875
0.02673843356
0.04635520751
0.03803467501
0.04219494089
0.03387440876
0.03981151131
0.03862695343
0.02555387626
0.03565124506
0.04694748586
0.03387440876
0.02971414251
0.03387440846
0.01723334376
0.03030642128
0.02971414225
0.04753976504
0.01782562253
0.03921923219
0.02198588878
0.03862695378
0.0130730774
0.01782562253
0.04753976504
0.03744239591
0.06002056379
0.04753976504
0.03921923219
0.03565124506
0.05889282878
0.0373200357
0.02041049204
0.02857468886
0.0297369893
0.03790118638
0.03906348709
0.04256443477
0.03381908797
0.02973698957
0.02157279256
0.02565489116
0.03848233674
0.02507374058
0.04372673585
0.0250737408
0.04606538279
0.03848233674
0.05364842966
0.02099164221
0.03848233674
0.05189093267
0.02857468861
0.03848233674
0.03031813992
0.02449259023
0.02449259045
0.01690954399
0.05481072989
0.04664653355
0.01316130625
0.01202044132
0.04578624912
0.02060450145
0.02918856123
0.03319537529
0.04808176568
0.02918856123
0.02003406903
0.03720218909
0.008013627544
0.05379987674
0.01659768764
0.02404088263
0.02404088284
0.03205451045
0.04521581632
0.03262494287
0.02861812906
0.04063857013
0.02861812906
0.01259087384
0.04578624873
0.04407495187
0.04234986773
0.02918856123
0.02861812906
0.03433624012
0.06753161483
0.03205451045
0.01180276743
0.02809989309
0.03203414914
0.02416563752
0.02809989309
0.04889137769
0.03147404648
0.04046276307
0.008428614276
0.02360553486
0.03259425152
0.03596840495
0.02023138171
0.03259425152
0.01573702324
0.02416563752
0.03764871259
0.03315435445
0.03315435445
0.01629712576
0.03708861026
0.03540830229
0.03315435417
0.02865999598
0.04721106972
0.03203414887
0.0393425581
0.02865999598
0.02079148419
0.0393425581
0.007728557857
0.02870037333
0.03642893142
0.003864278928
0.03587879077
0.03642893142
0.01932139464
0.03256465222
0.02428595428
0.01600725607
0.02870037333
0.02318567357
0.02042167535
0.03532865042
0.05685060677
0.0126931175
0.04470762926
0.03974306999
0.02428595428
0.02428595408
0.04360734892
0.03587879107
0.03091423117
0.02373581393
0.02870037356
0.04084335036
0.02428595428
0.03146437178
0.04747162746
0.03532865071
)
;

boundaryField
{
    inlet
    {
        type            zeroGradient;
    }
    outlet
    {
        type            zeroGradient;
    }
    wall
    {
        type            calculated;
        value           uniform 1e-300;
    }
    frontAndBack
    {
        type            empty;
    }
}


// ************************************************************************* //
