/*--------------------------------*- C++ -*----------------------------------*\
| =========                 |                                                 |
| \\      /  F ield         | OpenFOAM: The Open Source CFD Toolbox           |
|  \\    /   O peration     | Version:  v1912                                 |
|   \\  /    A nd           | Website:  www.openfoam.com                      |
|    \\/     M anipulation  |                                                 |
\*---------------------------------------------------------------------------*/
FoamFile
{
    version     2.0;
    format      ascii;
    class       volScalarField;
    location    "0.00021";
    object      rhoM;
}
// * * * * * * * * * * * * * * * * * * * * * * * * * * * * * * * * * * * * * //

dimensions      [1 -3 0 0 0 0 0];


internalField   nonuniform List<scalar> 
1300
(
1e-277
0.00465
0.019262
0.057786
0.023912
0.047162
0.04051
0.039186
0.0372
0.033874
0.0093
0.014612
0.05115
0.126196
0.023912
0.0186
0.042512
0.07306
0.048486
0.023912
1e-277
0.009962
0.029224
0.143472
0.057124
0.00465
0.057124
0.043836
0.033874
0.051812
0.00465
1e-277
0.033212
0.067086
0.081036
0.04185
0.057786
0.067748
0.047824
0.053136
0.00465
0.00465
0.0186
0.107596
0.039186
0.0186
0.02325
0.067086
0.047162
0.023912
1e-277
1e-277
0.034536
0.095648
0.071074
0.01395
0.043174
0.109582
0.10561
0.03255
0.00465
0.00465
0.02325
0.115572
0.057786
0.04185
0.037862
0.061112
0.063098
0.048486
1e-277
1e-277
0.0186
0.081036
0.067748
0.009962
0.07905
0.053136
0.043174
0.047824
1e-277
0.00465
0.038524
0.083022
0.029224
0.0186
0.037862
0.039186
0.03255
0.038524
1e-277
1e-277
0.037862
0.118898
0.019262
0.019924
0.047162
0.063098
0.061774
0.047824
1e-277
1e-277
0.0093
0.104948
0.037862
0.033874
0.052474
0.092984
0.037862
0.035198
1e-277
1e-277
0.039186
0.100298
0.019262
0.019924
0.05446
0.085686
0.024574
0.043174
1e-277
0.00465
0.019262
0.099636
0.043836
0.0093
0.047162
0.077048
0.052474
0.042512
1e-277
0.00465
0.033874
0.13351
0.029224
0.01395
0.058448
0.071736
0.039186
0.029224
1e-277
1e-277
0.019924
0.077048
0.037862
0.0093
0.0279
0.078372
0.090336
0.023912
0.00465
0.00465
0.047824
0.077048
0.047824
0.0093
0.063098
0.052474
0.0465
0.033874
1e-277
0.00465
0.037862
0.130184
0.043836
0.0186
0.033874
0.081698
0.043174
0.033874
1e-277
1e-277
0.033212
0.101622
0.051812
0.014612
0.053136
0.057124
0.033212
0.033874
1e-277
1e-277
0.019262
0.140146
0.033212
0.0186
0.039186
0.042512
0.047824
0.033212
1e-277
0.00465
0.029224
0.057124
0.042512
0.0279
0.014612
0.08236
0.056462
0.063098
0.003830215745
0.03282288941
0.02735680114
0.04485882784
0.02078695134
0.01586615391
0.03173230782
0.02024166042
0.028447383
0.02790209207
0.01532086285
0.01586615391
0.04376824598
0.03830215713
0.00766043149
0.03556252356
0.0432229547
0.03064172596
0.01969636965
0.03118701663
0.02790209207
0.01586615391
0.03282288941
0.01915107873
0.03665310542
0.01586615378
0.03447194171
0.03501723263
0.02407187613
0.03447194171
0.03993803024
0.04705317041
0.02024166058
0.04431353691
0.02352658521
0.03173230782
0.02790209207
0.01586615378
0.03501723263
0.0235265854
0.01203593807
0.01532086298
0.04814375266
0.03939273899
0.02407187633
0.01586615391
0.03173230756
0.01258122909
0.03830215745
0.01586615378
0.028447383
0.01203593816
0.03993802991
0.05854381803
0.0519739684
0.02133224227
0.01969636965
0.03993803024
0.04267766377
0.03993803024
0.05088338654
0.03939273899
0.04650787987
0.03610781449
0.03447194142
0.01586615391
0.02790209207
0.03118701663
0.03556252356
0.04267766412
0.03227759848
0.03118701689
0.02790209207
0.04376824562
0.01149064724
0.03556252356
0.02735680092
0.04868904359
0.03610781449
0.02735680092
0.02681151022
0.01532086298
0.01586615378
0.03118701689
0.01203593816
0.03884744806
0.03501723263
0.05088338654
0.01915107857
0.02735680114
0.05854381803
0.07112504654
0.04322295505
0.03993803024
0.04868904319
0.0235265854
0.03556252356
0.01203593807
0.02298129447
0.02681151022
0.02681150999
0.01532086298
0.03336818061
0.03665310512
0.03939273931
0.02735680114
0.01203593807
0.04322295505
0.03665310542
0.0164114447
0.04322295505
0.03173230782
0.0361078142
0.02681151022
0.06291932471
0.03173230756
0.01203593816
0.03064172596
0.03064172571
0.01969636965
0.08590061918
0.05634947461
0.05525889322
0.08096664234
0.05306454983
0.05033809561
0.02024166058
0.0432229547
0.01969636965
0.01969636965
0.03939273899
0.05471360229
0.04267766412
0.01969636949
0.04376824598
0.04759846173
0.02298129428
0.01532086298
0.03501723263
0.03173230756
0.03118701689
0.02681151022
0.03501723235
0.03173230782
0.03556252356
0.03556252327
0.03556252356
0.03610781449
0.01969636949
0.03227759875
0.04267766412
0.04705317041
0.06400990657
0.07714960583
0.04814375226
0.07933076955
0.05525889322
0.03556252327
0.02024166058
0.028447383
0.02681150999
0.03556252356
0.04650787987
0.04705317041
0.03118701689
0.05854381803
0.02790209184
0.02461716726
0.04596258894
0.03939273899
0.01203593816
0.04596258894
0.02298129428
0.03447194171
0.0421323732
0.03501723235
0.02681151022
0.01586615391
0.05142867705
0.04048332117
0.0519739684
0.04705317041
0.06237403378
0.07112504713
0.05088338613
0.06838541324
0.03227759875
0.03173230756
0.028447383
0.0645551975
0.03501723235
0.02790209207
0.04759846173
0.04267766377
0.05908910896
0.04814375266
0.03939273899
0.03227759875
0.0235265854
0.03556252327
0.03173230782
0.06346461564
0.05142867705
0.03227759875
0.03173230782
0.03173230756
0.028447383
0.02735680114
0.04650787949
0.04267766412
0.05088338654
0.08699120032
0.06237403378
0.04322295505
0.07495526226
0.07003446527
0.07003446527
0.03227759848
0.0755005538
0.04759846173
0.04376824562
0.04759846173
0.05470042305
0.04759846134
0.04048332117
0.03501723263
0.02024166042
0.03118701689
0.03447194171
0.04977962504
0.01969636965
0.02298129447
0.06291932419
0.01532086298
0.03884744838
0.05471360184
0.03227759875
0.04759846173
0.03939273899
0.05963439989
0.0470531708
0.04431353655
0.04814375266
0.04814375266
0.06017969033
0.05908910896
0.04431353691
0.04705317041
0.07495526287
0.0421323732
0.04267766377
0.02790209207
0.03884744838
0.03501723235
0.01969636965
0.03665310542
0.01149064714
0.03501723263
0.05088338654
0.0361078142
0.04048332117
0.02407187633
0.05525889276
0.03447194171
0.01203593816
0.02735680092
0.02790209207
0.05525889322
0.04267766377
0.04322295505
0.04376824598
0.07495526226
0.05251925933
0.03501723263
0.05908910848
0.03064172596
0.0519739684
0.02407187613
0.05088338654
0.05580418415
0.04376824562
0.0470531708
0.0645551975
0.07057975562
0.05908910896
0.05142867747
0.05525889276
0.0755005538
0.05306455026
0.0432229547
0.0519739684
0.04485882784
0.02352658521
0.04759846173
0.05251925933
0.04376824562
0.03227759875
0.0519739684
0.02024166042
0.04322295505
0.03993803024
0.03118701663
0.05471360229
0.03884744838
0.07659113503
0.05908910896
0.07221562899
0.05908910848
0.06291932471
0.07386468101
0.08042135075
0.05471360229
0.07604584473
0.06291932419
0.04322295505
0.05142867747
0.03227759848
0.05088338654
0.04376824598
0.03830215713
0.04376824598
0.04759846173
0.07440997133
0.05525889322
0.04650787987
0.02681150999
0.05142867747
0.0470531708
0.03227759848
0.05088338654
0.0705797562
0.03064172571
0.05525889322
0.03173230782
0.05197396798
0.04322295505
0.0705797562
0.03939273899
0.05525889322
0.0470531708
0.0432229547
0.08699120104
0.05525889322
0.08207040276
0.04814375266
0.0815251125
0.04267766377
0.07167033806
0.05088338654
0.05197396798
0.04376824598
0.05142867747
0.0667495399
0.03447194171
0.04759846173
0.06455519697
0.05251925933
0.04650787987
0.05416831091
0.05525889322
0.03282288968
0.04759846134
0.04267766412
0.05963439989
0.05471360184
0.05471360229
0.0410286121
0.05197396798
0.06674954045
0.04376824598
0.07112504654
0.02735680114
0.05580418415
0.07221562839
0.07604584473
0.04759846173
0.04485882747
0.06346461564
0.04650787987
0.04267766377
0.05033809561
0.05854381803
0.06400990604
0.05580418415
0.05525889322
0.05525889276
0.06072498175
0.0755005538
0.04705317041
0.05525889322
0.02298129447
0.04650787949
0.0470531708
0.04376824598
0.04267766377
0.0519739684
0.0579985271
0.05799852663
0.03993803024
0.0421323732
0.07221562839
0.03665310542
0.07714960583
0.06291932419
0.08918554399
0.07112504713
0.09630068376
0.05362302043
0.05416831136
0.05088338613
0.06072498175
0.07440997194
0.0667495399
0.05471360229
0.07276091992
0.05908910848
0.07878547862
0.05142867747
0.07824018705
0.05854381803
0.05525889322
0.06620424898
0.06072498175
0.04431353691
0.03173230756
0.0519739684
0.04759846173
0.04596258856
0.03884744838
0.03939273931
0.04267766377
0.05525889322
0.07112504713
0.06729483083
0.0645551975
0.04814375266
0.07822700781
0.06784012231
0.08207040343
0.05525889276
0.05963439989
0.05142867747
0.05908910848
0.07221562899
0.09793655734
0.05908910848
0.07604584473
0.0470531708
0.07440997133
0.07112504713
0.03939273931
0.04650787949
0.06674954045
0.05854381803
0.04267766377
0.0585306388
0.03173230782
0.04814375226
0.04868904359
0.06674954045
0.03173230756
0.04431353691
0.07440997194
0.06291932419
0.06072498175
0.08699120104
0.05689476554
0.02790209207
0.05251925933
0.07221562839
0.06729483138
0.05580418415
0.09410634082
0.07221562899
0.08699120104
0.07495526226
0.06838541324
0.03556252356
0.09245728881
0.09082141678
0.05142867747
0.05799852663
0.05033809561
0.04868904359
0.03665310512
0.03830215745
0.0755005538
0.03993802991
0.07221562899
0.03556252356
0.04376824562
0.03173230782
0.05088338654
0.0432229547
0.0235265854
0.07440997194
0.04376824562
0.05142867747
0.05908910896
0.05908910848
0.07276091992
0.04759846173
0.05525889276
0.06893070417
0.0579985271
0.07713642596
0.04759846173
0.0645551975
0.05362301999
0.06674954045
0.03227759875
0.05908910848
0.03993803024
0.0645551975
0.03993802991
0.06674954045
0.0421323732
0.04759846134
0.05088338654
0.05088338654
0.02735680092
0.06182874285
0.04814375266
0.01149064714
0.06784012231
0.03830215745
0.0503380952
0.05963439989
0.05471360229
0.01969636949
0.06346461564
0.0519739684
0.08753649125
0.07987606048
0.06182874285
0.04650787949
0.07167033806
0.06674954045
0.05634947461
0.0470531708
0.06620424952
0.0793307689
0.02790209207
0.04814375266
0.06784012176
0.06017969082
0.02735680114
0.05088338613
0.05580418415
0.02298129447
0.03939273899
0.06346461564
0.06182874285
0.03501723235
0.04431353691
0.06182874285
0.05908910848
0.03884744838
0.03993803024
0.03993802991
0.06346461564
0.04868904359
0.05525889276
0.04322295505
0.07167033806
0.06346461512
0.05689476601
0.09191199864
0.0667495399
0.08370627622
0.04431353691
0.04759846134
0.05854381803
0.03173230782
0.04267766377
0.06017969082
0.06237403378
0.05306454983
0.04322295505
0.0470531708
0.03556252327
0.04759846173
0.06017969082
0.04485882747
0.04814375266
0.05963439989
0.06894388284
0.03556252356
0.02298129447
0.04759846134
0.0941063416
0.06346461564
0.03939273899
0.04322295505
0.05525889322
0.04705317041
0.05362302043
0.06346461564
0.03939273899
0.03993803024
0.028562
0.028562
0.033212
0.0279
0.033212
0.019262
0.014612
0.024574
0.037862
0.028562
0.058448
0.048486
0.058448
0.028562
0.028562
0.037862
0.043174
0.0186
0.051812
0.043836
0.029224
0.028562
0.009962
0.048486
0.029886
0.034536
0.0093
0.04981
0.043174
0.02325
0.029224
0.047162
0.009962
0.053798
0.029224
0.03255
0.025236
0.028562
0.043174
0.0279
0.0279
0.047824
0.048486
0.04185
0.039186
0.0186
0.028562
0.023912
0.037862
0.039186
0.033212
0.038524
0.014612
0.024574
0.033212
0.033874
0.037862
0.019262
0.043836
0.033212
0.019262
0.028562
0.039186
0.033874
0.028562
0.042512
0.03255
0.02325
0.038524
0.0186
0.037862
0.014612
0.047162
0.037862
0.033212
0.029886
0.033212
0.01395
0.02325
0.01395
0.057124
0.033212
0.05446
0.015274
0.047162
0.037862
0.014612
0.019262
0.01395
0.009962
0.047824
0.033874
0.039848
0.03255
0.028562
0.029886
0.035198
0.037862
0.019262
0.033212
0.038524
0.043836
0.043836
0.0465
0.019262
0.04185
0.0465
0.04185
0.023912
0.0465
0.014612
0.033874
0.063098
0.083684
0.039848
0.043836
0.037862
0.019924
0.038524
0.033874
0.051812
0.056462
0.0186
0.037862
0.047162
0.029224
0.056462
0.0186
0.057124
0.033874
0.047162
0.071074
0.056462
0.04981
0.071074
0.066424
0.02325
0.048486
0.051812
0.028562
0.061774
0.063098
0.057124
0.043836
0.058448
0.078372
0.047162
0.061112
0.047824
0.063098
0.0465
0.055122
0.063098
0.06841
0.048486
0.047162
0.048486
0.024574
0.085024
0.04981
0.058448
0.065762
0.073722
0.109598
0.10561
0.069072
0.077048
0.073722
0.067086
0.07306
0.09631
0.029224
0.05115
0.114248
0.066424
0.10096
0.052474
0.067748
0.090998
0.048486
0.072398
0.084362
0.042512
0.067086
0.077048
0.06376
0.03255
0.077048
0.043836
0.057786
0.047162
0.05911
0.086348
0.100298
0.056462
0.033212
0.086348
0.053798
0.08835
0.056462
0.05717415224
0.02300382491
0.01905805075
0.03351533646
0.03286034551
0.01380229508
0.02431380641
0.03351533613
0.04862761282
0.02300382514
0.009856520593
0.02431380641
0.02365881577
0.040081073
0.04140688525
0.02891457144
0.02891457115
0.0282595808
0.03811610149
0.04797262171
0.04271686652
0.03811610149
0.01380229495
0.02891457144
0.01380229508
0.03286034551
0.07163143796
0.03680612022
0.03877109174
0.03746111086
0.01351607238
0.04569498202
0.05662992102
0.02316819517
0.07272712651
0.04054821713
0.04118962501
0.04247244035
0.05985246272
0.03796708331
0.04761920564
0.03668426755
0.06241809424
0.02831496024
0.05534710526
0.03604285967
0.02380960282
0.0508417478
0.06435782018
0.03796708294
0.05020033992
0.04569498247
0.04247244035
0.03217891009
0.03732567543
0.05148315518
0.05598851314
0.0508417478
0.05148315518
0.02767355263
0.03593898898
0.03531061162
0.02648295897
0.02711133599
0.03278191621
0.046023396
0.02269750949
0.05043722202
0.04855209144
0.04539501899
0.03593898864
0.0321535395
0.02269750949
0.03656736565
0.02269750949
0.04160956951
0.0409811921
0.04160956951
0.06683577444
0.03593898864
0.06367870198
0.06619221006
0.02836808976
0.02836809003
0.04539501899
0.06052162895
0.05610780303
0.02269750949
0.05547942549
0.02711133599
0.02162970285
0.04510700053
0.03089744907
0.02224556793
0.04078106001
0.03028158398
0.02162970285
0.04572286562
0.03089744907
0.053143017
0.03274504403
0.03893346512
0.04325940569
0.05375888159
0.0401651953
0.04572286604
0.01730376212
0.03089744907
0.0265715085
0.04016519492
0.01791962736
0.06364249341
0.03089744878
0.02595564341
0.04387527078
0.0587006872
0.03151331416
0.04758534626
0.03583925439
0.05746895757
0.04483022875
0.02665660033
0.04967555663
0.03089808677
0.03089808649
0.01332830029
0.03634725635
0.04726018944
0.02181127268
0.009086814087
0.04058874218
0.04301870367
0.03513957297
0.03393188928
0.02181127268
0.05270935945
0.04301870328
0.03513957297
0.03513957297
0.02665660033
0.02605275888
0.03574341466
0.07876211761
0.03393188959
0.03150192846
0.04241486159
0.04967555663
0.03938105917
0.03998490049
0.01332830029
0.01723334376
0.04576292834
0.016641065
0.04753976504
0.04694748586
0.01782562253
0.0416026625
0.0261461548
0.0249615975
0.05051547376
0.04753976462
0.04753976504
0.04219494126
0.03921923219
0.05110775253
0.03387440876
0.03862695343
0.03862695378
0.03446668753
0.02971414225
0.04397177756
0.02614615503
0.04278721965
0.04219494126
0.03030642128
0.04337949841
0.04753976504
0.03862695378
0.05110775207
0.03505896629
0.01749069434
0.01690954384
0.01690954399
0.05072863196
0.02099164221
0.04722768391
0.03732003603
0.03265678698
0.03323793762
0.04664653355
0.02857468861
0.02915583921
0.02915583921
0.06005512896
0.02565489116
0.03790118638
0.03323793733
0.02857468886
0.03732003603
0.02565489093
0.0460653832
0.04198328479
0.04256443477
0.08512887029
0.03440023833
0.04256443477
0.04664653355
0.03440023833
0.05072863152
0.02915583921
0.01202044142
0.02003406886
0.01202044142
0.03319537529
0.03376580741
0.02918856148
0.00858406003
0.04521581632
0.03319537529
0.02404088284
0.05437030869
0.02861812906
0.01259087384
0.02975899364
0.04063857048
0.02918856148
0.033195375
0.04521581671
0.0412090029
0.04063857013
0.01202044142
0.02117493387
0.02404088263
0.03663175668
0.02575218009
0.0383430536
0.0412090029
0.03319537529
0.04063857013
0.04464538429
0.01180276743
0.06181434991
0.01236287009
0.03203414914
0.02472573996
0.04889137769
0.02416563752
0.003934255777
0.02809989333
0.04214307138
0.02809989309
0.03764871291
0.06125424777
0.05170542775
0.01741733121
0.0365285076
0.02079148419
0.02809989333
0.02809989333
0.02023138154
0.02753979067
0.03315435445
0.03652850729
0.03203414914
0.02809989333
0.0522655304
0.04214307138
0.04889137769
0.03652850729
0.03203414914
0.03201451214
0.03587879077
0.02760009285
0.01545711571
0.02704995227
0.03919292964
0.01545711571
0.04029321001
0.02815023321
0.02097181571
0.03642893112
0.03864278928
0.0270499525
0.03091423117
0.04802176821
0.02870037356
0.03256465222
0.01545711571
0.03974306999
0.03974306966
0.03642893142
0.03146437178
0.03091423117
0.01655739642
0.01655739642
0.03587879077
0.03974306999
0.06844344356
0.06899358334
0.04857190856
)
;

boundaryField
{
    inlet
    {
        type            zeroGradient;
    }
    outlet
    {
        type            zeroGradient;
    }
    wall
    {
        type            calculated;
        value           uniform 1e-300;
    }
    frontAndBack
    {
        type            empty;
    }
}


// ************************************************************************* //
