/*--------------------------------*- C++ -*----------------------------------*\
| =========                 |                                                 |
| \\      /  F ield         | OpenFOAM: The Open Source CFD Toolbox           |
|  \\    /   O peration     | Version:  v1912                                 |
|   \\  /    A nd           | Website:  www.openfoam.com                      |
|    \\/     M anipulation  |                                                 |
\*---------------------------------------------------------------------------*/
FoamFile
{
    version     2.0;
    format      ascii;
    class       volScalarField;
    location    "0.00021";
    object      rhoNMean;
}
// * * * * * * * * * * * * * * * * * * * * * * * * * * * * * * * * * * * * * //

dimensions      [0 -3 0 0 0 0 0];


internalField   nonuniform List<scalar> 
1300
(
1.847619048e+23
1.866666667e+23
4.695238095e+23
1.273333333e+24
7.40952381e+23
5.095238095e+23
7.20952381e+23
7.638095238e+23
6.552380952e+23
6.095238095e+23
2.333333333e+23
2.2e+23
6.952380952e+23
2.201904762e+24
1.08e+24
6.552380952e+23
1.097142857e+24
1.120952381e+24
8.247619048e+23
7.6e+23
1.152380952e+23
1.257142857e+23
6.266666667e+23
2.32952381e+24
1.054285714e+24
6.371428571e+23
1.212380952e+24
1.408571429e+24
9.666666667e+23
9.2e+23
7.428571429e+22
7.428571429e+22
5.580952381e+23
2.157142857e+24
9.904761905e+23
5.971428571e+23
1.233333333e+24
1.65047619e+24
1.057142857e+24
1.015238095e+24
4.476190476e+22
6.095238095e+22
5.933333333e+23
2.12952381e+24
9.685714286e+23
5.104761905e+23
1.147619048e+24
1.493333333e+24
1.160952381e+24
1.063809524e+24
3.428571429e+22
4e+22
5.495238095e+23
2.123809524e+24
9.342857143e+23
4.895238095e+23
1.103809524e+24
1.378095238e+24
1.082857143e+24
9.961904762e+23
2.285714286e+22
4.761904762e+22
5.714285714e+23
2.12e+24
9.095238095e+23
4.323809524e+23
1.055238095e+24
1.31047619e+24
1.02952381e+24
9.438095238e+23
2.571428571e+22
2.476190476e+22
5.914285714e+23
2.115238095e+24
9.228571429e+23
5.047619048e+23
1.06e+24
1.362857143e+24
9.361904762e+23
9.085714286e+23
1.428571429e+22
3.238095238e+22
5.742857143e+23
2.167619048e+24
9.057142857e+23
4.857142857e+23
1.11047619e+24
1.311428571e+24
9.733333333e+23
8.828571429e+23
1.333333333e+22
2.571428571e+22
5.561904762e+23
2.095238095e+24
9.466666667e+23
5.095238095e+23
1.00952381e+24
1.378095238e+24
1.000952381e+24
8.228571429e+23
1.142857143e+22
2.380952381e+22
5.819047619e+23
2.153333333e+24
9.314285714e+23
4.942857143e+23
1.056190476e+24
1.40952381e+24
9.723809524e+23
8.99047619e+23
1.047619048e+22
2.285714286e+22
5.780952381e+23
2.066666667e+24
9.057142857e+23
4.638095238e+23
1.072380952e+24
1.341904762e+24
9.39047619e+23
9.161904762e+23
4.761904762e+21
2e+22
5.295238095e+23
2.144761905e+24
9.295238095e+23
4.676190476e+23
1.034285714e+24
1.375238095e+24
9.638095238e+23
8.99047619e+23
7.619047619e+21
1.428571429e+22
5.666666667e+23
2.160952381e+24
9.257142857e+23
4.761904762e+23
1.040952381e+24
1.377142857e+24
9.495238095e+23
8.8e+23
2.857142857e+21
2e+22
5.60952381e+23
2.057142857e+24
9.038095238e+23
4.685714286e+23
1.01047619e+24
1.383809524e+24
9.933333333e+23
8.6e+23
5.714285714e+21
2.380952381e+22
5.80952381e+23
2.166666667e+24
8.866666667e+23
5.066666667e+23
1.08952381e+24
1.312380952e+24
9.676190476e+23
8.752380952e+23
5.714285714e+21
2.095238095e+22
5.752380952e+23
2.080952381e+24
8.752380952e+23
5.123809524e+23
1.106666667e+24
1.288571429e+24
9.79047619e+23
8.99047619e+23
3.80952381e+21
7.619047619e+21
5.8e+23
2.10952381e+24
9.038095238e+23
5.095238095e+23
1.022857143e+24
1.351428571e+24
9.857142857e+23
8.676190476e+23
3.80952381e+21
1.80952381e+22
5.542857143e+23
2.144761905e+24
8.971428571e+23
4.847619048e+23
9.733333333e+23
1.328571429e+24
9.742857143e+23
8.20952381e+23
1.904761905e+21
1.428571429e+22
5.047619048e+23
1.998095238e+24
8.819047619e+23
5.161904762e+23
1.004761905e+24
1.275238095e+24
9.619047619e+23
9.019047619e+23
6.23660321e+23
5.632554802e+23
5.522727874e+23
5.357987412e+23
5.420745638e+23
5.067730407e+23
5.436435251e+23
5.726692209e+23
5.169712598e+23
5.507038306e+23
5.083419933e+23
5.985570125e+23
5.73453704e+23
5.389366503e+23
5.891432718e+23
5.977725341e+23
5.624710019e+23
5.616865281e+23
6.220913642e+23
5.836519182e+23
5.812984879e+23
6.19737929e+23
5.836519183e+23
5.891432718e+23
6.111086667e+23
6.369964484e+23
6.715135029e+23
7.021081601e+23
7.868318199e+23
7.797715209e+23
7.554526907e+23
6.542549729e+23
5.656089201e+23
5.742381824e+23
5.711002641e+23
5.624710065e+23
5.522727874e+23
5.609020451e+23
5.73453704e+23
5.326608276e+23
5.538417396e+23
5.381521764e+23
6.0953971e+23
5.734536992e+23
5.773760959e+23
5.499193522e+23
5.711002641e+23
5.365832196e+23
5.860053582e+23
6.377809268e+23
6.024794044e+23
6.048328396e+23
6.471946674e+23
6.385654104e+23
5.985570125e+23
6.652376703e+23
6.111086667e+23
6.495481079e+23
6.597463216e+23
7.123063792e+23
9.609860292e+23
8.488056123e+23
7.295649038e+23
6.7778933e+23
6.707290189e+23
6.393498888e+23
6.048328396e+23
5.891432669e+23
5.907122286e+23
5.899277502e+23
5.718847425e+23
5.648244417e+23
5.546262226e+23
5.726692209e+23
5.83651923e+23
5.891432718e+23
5.561951748e+23
5.907122286e+23
6.071862748e+23
5.860053534e+23
6.19737929e+23
6.424878024e+23
5.899277453e+23
6.040483612e+23
5.946346205e+23
6.189534455e+23
6.220913642e+23
6.754358948e+23
7.021081543e+23
6.660221541e+23
1.121019621e+24
1.064537168e+24
9.099949338e+23
8.386074002e+23
8.158575201e+23
7.303493822e+23
7.240735551e+23
7.232890707e+23
6.550394567e+23
6.448412376e+23
6.440567539e+23
6.166000155e+23
6.369964536e+23
5.938501372e+23
6.048328396e+23
6.079707532e+23
5.656089154e+23
6.048328396e+23
5.852208798e+23
5.836519182e+23
6.346430185e+23
6.213068858e+23
6.330740565e+23
6.495481079e+23
6.785738084e+23
6.024793995e+23
6.754358948e+23
6.511170647e+23
6.620997567e+23
6.307206265e+23
1.318708176e+24
1.22378628e+24
1.063752699e+24
1.037080433e+24
9.743221538e+23
8.911674524e+23
8.495900977e+23
7.978145173e+23
8.080127429e+23
7.154442928e+23
7.036771111e+23
6.895565059e+23
6.550394566e+23
6.832806731e+23
6.27582713e+23
6.55823935e+23
6.417033187e+23
6.064017964e+23
6.534704999e+23
6.283671862e+23
6.275827129e+23
6.589618486e+23
6.275827078e+23
6.542549782e+23
6.158155371e+23
6.534704945e+23
6.7778933e+23
6.730824597e+23
6.040483563e+23
6.283671914e+23
1.176717587e+24
1.287329029e+24
1.1798555e+24
1.157105627e+24
1.107683479e+24
1.063752698e+24
9.609860292e+23
9.288224075e+23
8.448832273e+23
8.613572735e+23
8.064437795e+23
7.829094344e+23
7.609440395e+23
7.703577738e+23
7.052460737e+23
6.950478546e+23
7.295648978e+23
6.464101943e+23
6.715135029e+23
6.911254569e+23
6.801427652e+23
6.573928918e+23
6.683755838e+23
6.346430185e+23
6.73866938e+23
6.738669325e+23
6.471946727e+23
6.7778933e+23
6.479791458e+23
6.974012898e+23
1.08258018e+24
1.229277629e+24
1.192407155e+24
1.219863898e+24
1.208881191e+24
1.151614278e+24
1.118666186e+24
1.060614776e+24
1.048847609e+24
1.000994427e+24
9.201931453e+23
8.974432795e+23
8.00167959e+23
8.23702304e+23
8.048748294e+23
8.056593078e+23
7.476079006e+23
7.891852615e+23
7.209356415e+23
7.146598085e+23
7.083839872e+23
7.193666847e+23
7.460389439e+23
6.832806787e+23
6.848496355e+23
6.887720218e+23
6.801427652e+23
6.942633762e+23
7.264269843e+23
6.652376757e+23
1.06296822e+24
1.149260834e+24
1.163381454e+24
1.128864405e+24
1.259087807e+24
1.295173824e+24
1.218294941e+24
1.132002309e+24
1.139847102e+24
1.098269748e+24
1.030020119e+24
1.01433056e+24
9.884427729e+23
9.288224075e+23
8.911674524e+23
8.786157981e+23
8.213488688e+23
8.644951871e+23
7.884007831e+23
7.962455605e+23
7.421165581e+23
8.135040917e+23
7.719267306e+23
7.985990022e+23
7.507458204e+23
7.58590598e+23
7.013236817e+23
7.311338606e+23
7.021081543e+23
7.170132496e+23
1.053554479e+24
1.073950909e+24
1.035511476e+24
1.095131834e+24
1.107683479e+24
1.233200031e+24
1.223001812e+24
1.228493151e+24
1.27242395e+24
1.15553667e+24
1.132786788e+24
1.16024354e+24
1.046494174e+24
1.021390857e+24
1.026097736e+24
9.594170724e+23
9.405895833e+23
8.770468413e+23
9.256845016e+23
8.6449518e+23
8.72339971e+23
8.417453138e+23
8.409608284e+23
8.299781379e+23
8.558659248e+23
8.009524308e+23
8.284091811e+23
7.86047348e+23
7.805559928e+23
7.327028174e+23
1.011192646e+24
1.114743785e+24
9.947186001e+23
1.017468473e+24
1.115528263e+24
1.094347356e+24
1.174364152e+24
1.166519358e+24
1.196329547e+24
1.315570262e+24
1.181424447e+24
1.233984509e+24
1.208881201e+24
1.137493658e+24
1.096700791e+24
1.081011223e+24
1.033942511e+24
9.884427729e+23
1.018252952e+24
9.735376755e+23
9.476498966e+23
9.288224152e+23
9.178397101e+23
8.841071469e+23
9.08425977e+23
8.566503961e+23
8.574348816e+23
8.417453137e+23
8.6449518e+23
8.095816997e+23
1.032373563e+24
1.110036914e+24
1.045709695e+24
1.044140739e+24
1.031589076e+24
1.127295448e+24
1.094347356e+24
1.128864396e+24
1.207312244e+24
1.205743287e+24
1.198682972e+24
1.244967207e+24
1.241829293e+24
1.223001802e+24
1.20417433e+24
1.151614278e+24
1.186915796e+24
1.132002319e+24
1.041787304e+24
1.044925208e+24
9.617705076e+23
1.018252952e+24
9.915806783e+23
9.358827207e+23
9.460809398e+23
9.594170645e+23
9.201931529e+23
9.288224152e+23
8.699865287e+23
9.296068936e+23
1.017468473e+24
1.078657779e+24
1.009623689e+24
1.013546081e+24
1.012761595e+24
1.102976618e+24
1.026097736e+24
1.077873301e+24
1.148476365e+24
1.164165933e+24
1.196329537e+24
1.221432855e+24
1.260656775e+24
1.186131318e+24
1.213588071e+24
1.247320642e+24
1.190838188e+24
1.154752192e+24
1.174364152e+24
1.14612292e+24
1.113174837e+24
1.039433868e+24
1.062968211e+24
1.077088831e+24
1.009623689e+24
1.041002817e+24
9.821669458e+23
9.790290322e+23
1.002563376e+24
9.641239428e+23
1.022959822e+24
1.054338949e+24
1.015115038e+24
9.884427729e+23
1.054338949e+24
1.08728705e+24
1.048847609e+24
1.009623681e+24
1.165734889e+24
1.103761096e+24
1.117881698e+24
1.220648377e+24
1.185346849e+24
1.275561853e+24
1.312432348e+24
1.310078913e+24
1.21907941e+24
1.254380948e+24
1.182993414e+24
1.244182718e+24
1.151614278e+24
1.180639979e+24
1.164950401e+24
1.062183742e+24
1.06296822e+24
1.059830298e+24
1.088071529e+24
1.011977125e+24
1.034726989e+24
1.047278652e+24
1.007270254e+24
1.106114522e+24
1.015115038e+24
9.860893377e+23
1.006485768e+24
1.026882214e+24
1.037080433e+24
9.860893296e+23
1.052770001e+24
1.102976618e+24
1.041002817e+24
1.091209442e+24
1.192407155e+24
1.107683479e+24
1.265363645e+24
1.189269241e+24
1.262225721e+24
1.310863392e+24
1.245751685e+24
1.233200021e+24
1.266932602e+24
1.182993414e+24
1.237906891e+24
1.211234636e+24
1.101407661e+24
1.195545058e+24
1.144553973e+24
1.121804099e+24
1.155536661e+24
1.11160588e+24
1.017468473e+24
1.037864903e+24
9.939341217e+23
1.004132341e+24
9.782445458e+23
1.03864939e+24
1.021390865e+24
1.004132333e+24
1.059045828e+24
1.011977125e+24
9.947185918e+23
1.091993921e+24
1.132786797e+24
1.035511468e+24
1.164165933e+24
1.167303846e+24
1.187700275e+24
1.273208429e+24
1.23869138e+24
1.266932591e+24
1.296742781e+24
1.221432855e+24
1.239475848e+24
1.206527766e+24
1.239475858e+24
1.186131318e+24
1.124942013e+24
1.17514863e+24
1.140631571e+24
1.159459062e+24
1.05826135e+24
1.085718085e+24
1.024528779e+24
1.002563384e+24
1.059045819e+24
1.117097229e+24
9.649084212e+23
1.023744292e+24
1.091209442e+24
1.055907915e+24
9.915806783e+23
1.017468473e+24
1.025313257e+24
1.035511468e+24
1.11160588e+24
1.10219214e+24
1.153967704e+24
1.166519368e+24
1.208881201e+24
1.237122413e+24
1.277130821e+24
1.241044815e+24
1.320277121e+24
1.220648377e+24
1.248889599e+24
1.240260326e+24
1.160243541e+24
1.166519368e+24
1.203389842e+24
1.184562371e+24
1.001778906e+24
1.044925208e+24
1.074735396e+24
9.62554986e+23
1.029235641e+24
1.030804606e+24
1.015899517e+24
1.01511503e+24
1.022175344e+24
1.069244047e+24
1.051985514e+24
1.055123436e+24
1.099838704e+24
1.01040816e+24
1.090424964e+24
1.068459569e+24
1.090424955e+24
1.091209442e+24
1.135140232e+24
1.198682972e+24
1.228493161e+24
1.232415553e+24
1.319492643e+24
1.261441253e+24
1.288897997e+24
1.302234119e+24
1.314785784e+24
1.255949904e+24
1.21907941e+24
1.234768988e+24
1.008839211e+24
1.041787295e+24
1.004132341e+24
9.994254705e+23
9.860893297e+23
1.065321655e+24
1.007270254e+24
9.711842403e+23
1.055123436e+24
9.955030784e+23
1.04414073e+24
1.022175344e+24
1.080226745e+24
1.053554471e+24
1.08258018e+24
1.05826135e+24
1.128864396e+24
1.090424964e+24
1.084149137e+24
1.111605871e+24
1.141416059e+24
1.168088324e+24
1.207312234e+24
1.224570769e+24
1.273208429e+24
1.222217323e+24
1.342242527e+24
1.290466954e+24
1.30144964e+24
1.237122423e+24
9.860893377e+23
1.074735387e+24
9.547102021e+23
9.327448071e+23
9.76675589e+23
1.056692393e+24
9.853048594e+23
9.900117215e+23
9.939341216e+23
1.020606387e+24
1.015899508e+24
1.008839211e+24
1.062183742e+24
1.004132332e+24
9.947186001e+23
1.083364658e+24
1.018252943e+24
1.091209442e+24
1.075519874e+24
1.12180409e+24
1.135924711e+24
1.093562877e+24
1.175933099e+24
1.153183235e+24
1.219863898e+24
1.245751675e+24
1.227708682e+24
1.268501559e+24
1.233984499e+24
1.352440746e+24
1.012761603e+24
1.027666684e+24
9.790290321e+23
1.020606387e+24
1.01511503e+24
9.907962081e+23
9.88442773e+23
9.703997619e+23
1.008839211e+24
9.617705076e+23
9.774600673e+23
9.868738161e+23
1.001778906e+24
1.000994419e+24
9.798135106e+23
1.015899517e+24
1.041787295e+24
1.012761603e+24
1.033158041e+24
1.042571773e+24
1.100623183e+24
1.068459569e+24
1.075519866e+24
1.121804099e+24
1.144553973e+24
1.166519358e+24
1.134355754e+24
1.211234636e+24
1.221432845e+24
1.260656775e+24
6.761904762e+23
6.314285714e+23
6.638095238e+23
6.276190476e+23
6.133333333e+23
5.933333333e+23
6.038095238e+23
5.352380952e+23
5.066666667e+23
4.333333333e+23
7.971428571e+23
7.904761905e+23
7.180952381e+23
7.428571429e+23
7.438095238e+23
7.819047619e+23
7.085714286e+23
6.79047619e+23
6.2e+23
5.476190476e+23
7.047619048e+23
6.819047619e+23
7.142857143e+23
7.20952381e+23
7.142857143e+23
6.914285714e+23
6.828571429e+23
6.866666667e+23
5.780952381e+23
5.114285714e+23
6.638095238e+23
6.333333333e+23
7.085714286e+23
7.133333333e+23
7.019047619e+23
6.857142857e+23
6.266666667e+23
6.485714286e+23
5.752380952e+23
5.40952381e+23
6.019047619e+23
6.514285714e+23
6.333333333e+23
6.504761905e+23
6.771428571e+23
6.571428571e+23
6.914285714e+23
6.40952381e+23
5.714285714e+23
5.723809524e+23
6.857142857e+23
6.942857143e+23
6.028571429e+23
6.704761905e+23
6.342857143e+23
6.39047619e+23
6.380952381e+23
6.028571429e+23
6.133333333e+23
6.2e+23
6.771428571e+23
6.561904762e+23
6.971428571e+23
6.666666667e+23
6.266666667e+23
6.695238095e+23
6.085714286e+23
6.361904762e+23
5.885714286e+23
5.866666667e+23
7.266666667e+23
6.79047619e+23
6.761904762e+23
6.342857143e+23
7.076190476e+23
6.580952381e+23
6.228571429e+23
6.361904762e+23
6.20952381e+23
6.047619048e+23
7.619047619e+23
7.571428571e+23
7.352380952e+23
7.047619048e+23
7.142857143e+23
6.79047619e+23
6.857142857e+23
6.104761905e+23
6.333333333e+23
6.219047619e+23
8.066666667e+23
7.866666667e+23
7.980952381e+23
7.495238095e+23
7.114285714e+23
7.59047619e+23
6.704761905e+23
6.523809524e+23
7.028571429e+23
6.447619048e+23
8.447619048e+23
8.333333333e+23
8.942857143e+23
8.238095238e+23
8.019047619e+23
7.638095238e+23
7.685714286e+23
7.904761905e+23
7.419047619e+23
7.20952381e+23
9.114285714e+23
9.371428571e+23
9.342857143e+23
9.019047619e+23
8.971428571e+23
9.161904762e+23
8.342857143e+23
8.314285714e+23
7.304761905e+23
7.80952381e+23
1.019047619e+24
1.08e+24
9.885714286e+23
9.638095238e+23
1.005714286e+24
9.485714286e+23
8.942857143e+23
9.6e+23
8.723809524e+23
8.59047619e+23
1.054285714e+24
1.059047619e+24
1.095238095e+24
1.036190476e+24
1.059047619e+24
1.041904762e+24
1.006666667e+24
1.022857143e+24
9.961904762e+23
9.676190476e+23
1.1e+24
1.071428571e+24
1.08e+24
1.108571429e+24
1.103809524e+24
1.056190476e+24
1.059047619e+24
1.056190476e+24
1.053333333e+24
1.027619048e+24
1.177142857e+24
1.202857143e+24
1.188571429e+24
1.161904762e+24
1.174285714e+24
1.131428571e+24
1.164761905e+24
1.103809524e+24
1.079047619e+24
1.086666667e+24
1.21047619e+24
1.253333333e+24
1.24e+24
1.207619048e+24
1.132380952e+24
1.208571429e+24
1.17047619e+24
1.203809524e+24
1.160952381e+24
1.180952381e+24
1.26e+24
1.174285714e+24
1.228571429e+24
1.264761905e+24
1.286666667e+24
1.25047619e+24
1.226666667e+24
1.221904762e+24
1.24952381e+24
1.202857143e+24
1.244761905e+24
1.228571429e+24
1.260952381e+24
1.215238095e+24
1.247619048e+24
1.224761905e+24
1.27047619e+24
1.200952381e+24
1.286666667e+24
1.28e+24
1.234285714e+24
1.254285714e+24
1.268571429e+24
1.278095238e+24
1.206666667e+24
1.246666667e+24
1.23047619e+24
1.233333333e+24
1.228571429e+24
1.278095238e+24
5.437053602e+23
6.624347737e+23
6.17204525e+23
6.17204525e+23
6.002431734e+23
6.030700702e+23
6.021277733e+23
5.74801155e+23
6.19089119e+23
6.662039682e+23
6.379350524e+23
6.16262228e+23
6.219160099e+23
6.162622219e+23
6.19089119e+23
6.303966828e+23
6.285120826e+23
6.530118104e+23
6.596078893e+23
6.492426161e+23
6.728000471e+23
6.77511532e+23
6.775115253e+23
7.199148963e+23
7.057804416e+23
7.406454227e+23
7.462992119e+23
7.340493511e+23
7.133188104e+23
6.671462652e+23
6.053281091e+23
7.834200605e+23
7.585056489e+23
7.834200681e+23
7.603511541e+23
7.299002048e+23
7.372822549e+23
7.843428167e+23
7.954158995e+23
7.834200681e+23
7.788062792e+23
7.575828927e+23
8.018751933e+23
7.880338417e+23
7.391277674e+23
8.009524371e+23
7.225181476e+23
8.240213437e+23
8.194075624e+23
7.797290355e+23
8.553950567e+23
8.194075624e+23
8.166392857e+23
8.627771068e+23
8.332489063e+23
8.849232485e+23
9.227562639e+23
9.393658767e+23
9.052238861e+23
8.230985874e+23
5.306535898e+23
7.512319063e+23
7.656960657e+23
7.638880467e+23
8.018564391e+23
7.331517229e+23
7.521359229e+23
7.729281346e+23
7.313437039e+23
7.882963038e+23
7.720241251e+23
7.105514849e+23
7.584639896e+23
7.503278967e+23
7.5755998e+23
7.837762562e+23
7.340557255e+23
8.054724848e+23
8.136085704e+23
7.168795447e+23
7.828722467e+23
7.837762562e+23
8.054724771e+23
7.304396944e+23
7.910083324e+23
8.280727149e+23
8.985854656e+23
8.741772085e+23
9.085295617e+23
7.476158753e+23
5.670459732e+23
7.353877397e+23
7.796882132e+23
7.655120639e+23
7.38931777e+23
7.061494385e+23
7.203255879e+23
7.291856744e+23
7.486778865e+23
7.238696252e+23
7.088074599e+23
7.070354479e+23
7.256416439e+23
6.65393003e+23
7.460198585e+23
7.628540359e+23
6.928592921e+23
7.726001385e+23
7.291856812e+23
7.052634226e+23
7.460198585e+23
7.672840825e+23
7.912063271e+23
8.186726238e+23
7.850042692e+23
7.672840754e+23
8.549990065e+23
8.771492398e+23
8.984134555e+23
7.726001385e+23
5.68137629e+23
7.097376738e+23
7.184248e+23
7.427487352e+23
7.166873695e+23
7.218996479e+23
6.393720106e+23
6.993131302e+23
7.097376803e+23
7.384051753e+23
7.114750977e+23
6.810701852e+23
6.932321528e+23
6.524026842e+23
7.001818486e+23
6.914947289e+23
7.27980625e+23
6.697769296e+23
7.114751042e+23
6.941008584e+23
7.453548711e+23
7.080002563e+23
7.5230456e+23
7.76628502e+23
7.662039584e+23
7.931340222e+23
8.357009161e+23
8.504690195e+23
8.739242348e+23
7.514358549e+23
5.470334731e+23
7.097801854e+23
6.663242616e+23
6.99555267e+23
6.952948755e+23
6.876261882e+23
6.552472598e+23
6.654721786e+23
6.705846469e+23
6.918865735e+23
6.688804868e+23
7.021114982e+23
6.535431057e+23
6.186079407e+23
6.816616487e+23
6.825137258e+23
6.901824132e+23
7.123364229e+23
7.14040577e+23
6.739929491e+23
7.055198064e+23
7.14040577e+23
7.148926477e+23
7.293779641e+23
7.711297401e+23
7.881712743e+23
7.813546648e+23
8.512249838e+23
8.605978238e+23
8.154377473e+23
5.1000103e+23
6.546406606e+23
6.554767336e+23
6.839030206e+23
6.68853804e+23
6.487881956e+23
6.161815723e+23
6.161815669e+23
6.128373033e+23
6.053126979e+23
6.044766254e+23
6.479521283e+23
6.220340431e+23
6.3959145e+23
6.738702134e+23
6.880833569e+23
6.588209969e+23
6.763784152e+23
6.964440295e+23
7.039686287e+23
7.206899801e+23
7.432637962e+23
7.198539065e+23
7.33230989e+23
7.432637962e+23
7.666736728e+23
8.059688409e+23
8.268705224e+23
8.670017434e+23
7.96772101e+23
4.587422259e+23
6.37643482e+23
6.03176272e+23
6.556977433e+23
6.122033946e+23
6.171272878e+23
5.884046082e+23
5.531167399e+23
6.417467274e+23
6.187685838e+23
5.957904349e+23
6.261544157e+23
6.401054315e+23
6.163066345e+23
6.466706154e+23
6.154859918e+23
6.327195941e+23
6.0399692e+23
6.163066398e+23
6.712900493e+23
6.401054315e+23
6.835997749e+23
6.417467219e+23
6.852410709e+23
6.835997749e+23
7.106811524e+23
7.426864301e+23
7.878220695e+23
8.419848295e+23
7.993111413e+23
4.6252183e+23
6.30125554e+23
5.559931406e+23
5.374600359e+23
5.584104974e+23
5.97894073e+23
5.713030967e+23
5.809725377e+23
5.608278636e+23
5.962824986e+23
5.61633646e+23
5.825841169e+23
6.236792621e+23
6.075635137e+23
6.317371337e+23
6.365718566e+23
6.341544898e+23
6.027287959e+23
6.430181539e+23
6.123982367e+23
6.293197722e+23
6.277081979e+23
6.422123613e+23
6.760554275e+23
6.478528769e+23
7.010348235e+23
7.074811268e+23
7.445473361e+23
8.55745957e+23
7.912829914e+23
4.210540481e+23
5.991314131e+23
5.160286454e+23
5.397722948e+23
5.389808353e+23
5.445210246e+23
5.160286454e+23
5.524355698e+23
5.540184844e+23
5.540184844e+23
5.682646692e+23
5.833023185e+23
5.912168683e+23
6.038801429e+23
5.358150199e+23
5.793450436e+23
5.785535839e+23
5.65890309e+23
6.102117878e+23
6.315810669e+23
6.110032427e+23
5.761792237e+23
5.999228681e+23
5.951741432e+23
6.474101717e+23
6.244579722e+23
6.695709111e+23
7.368445842e+23
7.66128412e+23
7.692942383e+23
)
;

boundaryField
{
    inlet
    {
        type            calculated;
        value           nonuniform List<scalar> 
20
(
1.847619048e+23
2.333333333e+23
1.152380952e+23
7.428571429e+22
4.476190476e+22
3.428571429e+22
2.285714286e+22
2.571428571e+22
1.428571429e+22
1.333333333e+22
1.142857143e+22
1.047619048e+22
4.761904762e+21
7.619047619e+21
2.857142857e+21
5.714285714e+21
5.714285714e+21
3.80952381e+21
3.80952381e+21
1.904761905e+21
)
;
    }
    outlet
    {
        type            calculated;
        value           nonuniform List<scalar> 
70
(
4.333333333e+23
5.476190476e+23
5.114285714e+23
5.40952381e+23
5.723809524e+23
6.2e+23
5.866666667e+23
6.047619048e+23
6.219047619e+23
6.447619048e+23
7.20952381e+23
7.80952381e+23
8.59047619e+23
9.676190476e+23
1.027619048e+24
1.086666667e+24
1.180952381e+24
1.202857143e+24
1.28e+24
1.278095238e+24
1.904761905e+21
1.428571429e+22
5.047619048e+23
1.998095238e+24
8.819047619e+23
5.161904762e+23
1.004761905e+24
1.275238095e+24
9.619047619e+23
9.019047619e+23
1.012761603e+24
1.027666684e+24
9.790290321e+23
1.020606387e+24
1.01511503e+24
9.907962081e+23
9.88442773e+23
9.703997619e+23
1.008839211e+24
9.617705076e+23
9.774600673e+23
9.868738161e+23
1.001778906e+24
1.000994419e+24
9.798135106e+23
1.015899517e+24
1.041787295e+24
1.012761603e+24
1.033158041e+24
1.042571773e+24
1.100623183e+24
1.068459569e+24
1.075519866e+24
1.121804099e+24
1.144553973e+24
1.166519358e+24
1.134355754e+24
1.211234636e+24
1.221432845e+24
1.260656775e+24
1.234285714e+24
1.254285714e+24
1.268571429e+24
1.278095238e+24
1.206666667e+24
1.246666667e+24
1.23047619e+24
1.233333333e+24
1.228571429e+24
1.278095238e+24
)
;
    }
    wall
    {
        type            calculated;
        value           uniform 7.619047619e-301;
    }
    frontAndBack
    {
        type            empty;
    }
}


// ************************************************************************* //
