/*--------------------------------*- C++ -*----------------------------------*\
| =========                 |                                                 |
| \\      /  F ield         | OpenFOAM: The Open Source CFD Toolbox           |
|  \\    /   O peration     | Version:  v1912                                 |
|   \\  /    A nd           | Website:  www.openfoam.com                      |
|    \\/     M anipulation  |                                                 |
\*---------------------------------------------------------------------------*/
FoamFile
{
    version     2.0;
    format      ascii;
    class       volScalarField;
    location    "1.64";
    object      p;
}
// * * * * * * * * * * * * * * * * * * * * * * * * * * * * * * * * * * * * * //

dimensions      [1 -1 -2 0 0 0 0];


internalField   nonuniform List<scalar> 
1900
(
10092.6
10256.9
10467.1
10618.2
10692.2
10727.3
10725.8
10732.2
10737.5
10765
10092.7
10257
10467.2
10618.3
10692
10727.5
10726.9
10727.3
10723.3
10744.7
10092.7
10257
10467.2
10618.4
10691.9
10727.5
10726.9
10729.1
10729.3
10748.4
10092.7
10257
10467.2
10618.3
10692
10727.5
10726.9
10727.3
10723.3
10744.7
10092.6
10256.9
10467.1
10618.2
10692.2
10727.3
10725.8
10732.2
10737.5
10765
10708.5
10763.1
10768.2
10696.6
10022.7
10774.1
10821.7
10812.7
10794.7
10491.3
10771.4
10803.1
10783.3
10732.9
10413.7
10774.1
10821.7
10812.7
10794.7
10491.3
10708.5
10763.1
10768.2
10696.6
10022.7
11695.5
11685.1
11868.5
11935.1
12125.9
11547.8
11657.1
11866.4
12032.5
11946.3
11540.8
11663.9
11855.3
11974.4
11584.4
11547.8
11657.1
11866.4
12032.5
11946.3
11695.5
11685.1
11868.5
11935.1
12125.9
10188.9
5382.42
5860.06
6057.42
6045.62
6174.84
6419.88
6778.93
7231.39
7751.1
8310.54
8877.15
9396.42
9779.3
9958.94
9997.37
9999.96
10000
10000
10000
10000
10000
10000
9999.95
9996.9
9953.55
9757.28
9347.61
8797.22
8195.4
7591.45
7008.19
6457.61
5947.97
5486.45
5081.41
4749.97
4489.86
3962.05
16434.9
10422.1
5714.35
6039.76
6091.47
6063.28
6177.9
6424.45
6780.35
7232.27
7751.77
8311.09
8877.67
9396.89
9779.61
9959.04
9997.38
9999.96
10000
10000
10000
10000
10000
10000
9999.95
9996.9
9953.55
9757.28
9347.61
8797.22
8195.4
7591.45
7008.19
6457.61
5947.97
5486.45
5081.41
4749.97
4489.86
3962.05
16434.9
9906.38
6185.33
6136.94
6114.76
6071.06
6179.13
6425.86
6780.83
7232.57
7751.99
8311.26
8877.84
9397.06
9779.73
9959.08
9997.38
9999.96
10000
10000
10000
10000
10000
10000
9999.95
9996.9
9953.55
9757.28
9347.61
8797.22
8195.4
7591.45
7008.19
6457.61
5947.97
5486.45
5081.41
4749.97
4489.86
3962.05
16434.9
10422.1
5714.35
6039.76
6091.47
6063.28
6177.9
6424.45
6780.35
7232.27
7751.77
8311.09
8877.67
9396.89
9779.61
9959.04
9997.38
9999.96
10000
10000
10000
10000
10000
10000
9999.95
9996.9
9953.55
9757.28
9347.61
8797.22
8195.4
7591.45
7008.19
6457.61
5947.97
5486.45
5081.41
4749.97
4489.86
3962.05
16434.9
10188.9
5382.42
5860.06
6057.42
6045.62
6174.84
6419.88
6778.93
7231.39
7751.1
8310.54
8877.15
9396.42
9779.3
9958.94
9997.37
9999.96
10000
10000
10000
10000
10000
10000
9999.95
9996.9
9953.55
9757.28
9347.61
8797.22
8195.4
7591.45
7008.19
6457.61
5947.97
5486.45
5081.41
4749.97
4489.86
3962.05
16434.9
12107.6
4820
5618.09
5903.48
5990.8
6148.27
6405.12
6772.47
7227.2
7748.16
8308.28
8875.03
9394.33
9777.84
9958.45
9997.32
9999.96
10000
10000
10000
10000
10000
10000
9999.95
9996.9
9953.55
9757.28
9347.61
8797.22
8195.4
7591.45
7008.19
6457.61
5947.97
5486.45
5081.41
4749.97
4489.86
3962.05
16434.9
13571.6
4373.01
5315.08
5640.37
5852.88
6066.72
6363.31
6749.84
7215.27
7740.42
8301.7
8868.65
9388.86
9774.58
9957.48
9997.22
9999.96
10000
10000
10000
10000
10000
10000
9999.95
9996.9
9953.55
9757.28
9347.61
8797.22
8195.4
7591.45
7008.19
6457.61
5947.97
5486.45
5081.41
4749.97
4489.86
3962.05
16434.9
15016.5
4298.38
5149.39
5473.12
5720.59
5981.41
6311.77
6719.64
7196.77
7727
8290.18
8858.61
9381.33
9770.56
9956.35
9997.11
9999.95
10000
10000
10000
10000
10000
10000
9999.95
9996.9
9953.54
9757.28
9347.61
8797.22
8195.4
7591.45
7008.19
6457.61
5947.97
5486.45
5081.41
4749.97
4489.86
3962.05
16434.9
16069.1
4249.22
5015.19
5334.33
5601.92
5899.86
6255.75
6681.54
7169.81
7706.03
8272.89
8844.64
9371.62
9765.72
9954.81
9996.6
9999.55
9999.6
9999.6
9999.6
9999.6
9999.6
9999.6
9999.55
9996.49
9953.14
9756.89
9347.25
8796.9
8195.13
7591.23
7008.02
6457.49
5947.88
5486.39
5081.37
4749.94
4489.84
3962.04
16434.9
16894.5
4213.33
4906.3
5212.97
5491.04
5809.08
6184.85
6626.95
7126.58
7670.7
8243.84
8820.93
9352.27
9750.09
9941.86
9984.45
9987.46
9987.51
9987.51
9987.51
9987.51
9987.51
9987.51
9987.46
9984.41
9941.13
9745.2
9336.26
8786.94
8186.4
7583.83
7001.93
6452.62
5944.11
5483.54
5079.25
4748.38
4488.76
3961.47
16434.7
17385.2
4168.6
4793.91
5068.85
5352.69
5689.71
6088.13
6542.14
7043.83
7584.83
8153.52
8727.53
9257.62
9654.87
9846.22
9888.72
9891.73
9891.78
9891.78
9891.78
9891.78
9891.78
9891.78
9891.74
9888.73
9845.97
9652.36
9248.32
8705.92
8113.44
7519.43
6946.16
6405.21
5904.49
5450.96
5052.57
4726.61
4472
3951.18
16422.9
17237.8
4088.99
4657.01
4900.11
5176.7
5507.72
5895.18
6338.1
6828.11
7356.16
7910.56
8469.83
8986.32
9373.24
9559.28
9600.45
9603.35
9603.39
9603.39
9603.39
9603.39
9603.39
9603.39
9603.35
9600.46
9559.31
9372.39
8981.85
8457.63
7885.6
7312.86
6760.83
6240.54
5759.46
5324.2
4941.71
4629.24
4390.08
3895.01
16295.4
16691.7
3953.23
4429.65
4620.2
4875.27
5196.75
5575.17
6003.82
6476.2
6984.39
7516.76
8052.18
8545.31
8913.44
9089.28
9127.78
9130.46
9130.5
9130.5
9130.5
9130.5
9130.5
9130.5
9130.46
9127.8
9089.39
8913.46
8544.04
8047.18
7504.88
6962.22
6439.65
5947.65
5493.33
5082.97
4722.55
4427.81
4206.95
3761.35
15793.9
15505.9
3700.73
4082.21
4262.57
4514.78
4829.97
5197.82
5610.63
6061.99
6545.19
7049.99
7556.27
8020.53
8364.7
8527.19
8562.14
8564.51
8564.55
8564.55
8564.55
8564.55
8564.55
8564.55
8564.51
8562.15
8527.27
8364.94
8020.61
7555.2
7046.24
6536.7
6046.04
5584.29
5158.17
4773.65
4436.03
4159.44
3952.82
3555.4
14815
13925.9
3384.74
3731.64
3912.54
4160.98
4465.84
4817.15
5209.48
5637.1
6093.08
6567.82
7042.41
7475.44
7793.43
7941.08
7972.03
7974.06
7974.09
7974.09
7974.09
7974.09
7974.09
7974.09
7974.06
7972.03
7941.11
7793.61
7475.82
7042.8
6567.65
6091.31
5632.45
5200.55
4802.17
4442.43
4126.5
3867.28
3674.9
3300.9
13536.4
12358.5
3063.73
3417.16
3591
3827.61
4119.43
4452.16
4822.38
5224.3
5652.14
6096.27
6538.76
6940.18
7231.51
7363.84
7390.65
7392.33
7392.35
7392.35
7392.35
7392.35
7392.35
7392.35
7392.33
7390.65
7363.85
7231.59
6940.48
6539.37
6097.11
5652.93
5224.67
4821.68
4449.45
4113.57
3817.66
3576.29
3396.4
3028.36
12183.2
10863.6
2775.13
3126.3
3300
3521.08
3795.79
4110.34
4456.8
4833.32
5232.72
5646.85
6058.08
6428.72
6693.82
6810.97
6833.71
6835.05
6835.07
6835.07
6835.07
6835.07
6835.07
6835.07
6835.05
6833.71
6810.97
6693.84
6428.86
6058.48
5647.59
5233.89
4834.9
4458.58
4112.13
3797.18
3521.89
3299.1
3122.62
2767
10804.5
9584.74
2524.61
2857.59
3035.64
3240.77
3498.99
3791.31
4117.23
4467.76
4840.54
5225.92
5607.6
5948.95
6188.82
6291.33
6310.22
6311.26
6311.27
6311.27
6311.27
6311.27
6311.27
6311.27
6311.26
6310.22
6291.33
6188.82
5948.99
5607.77
5226.33
4841.31
4468.97
4118.89
3793.48
3501.59
3243.61
3038.1
2859.21
2525.06
9572.15
8340.2
2308.15
2614.56
2794.5
2988.35
3225.75
3501.6
3802.87
4132.15
4479.27
4838.48
5192.69
5506.64
5722.68
5811.42
5826.81
5827.59
5827.59
5827.59
5827.59
5827.59
5827.59
5827.59
5827.59
5826.81
5811.42
5722.68
5506.64
5192.73
4838.63
4479.61
4132.74
3803.8
3502.92
3227.46
2990.39
2796.64
2616.65
2309.78
8340.25
7315.1
2114.41
2396.95
2578.74
2761.2
2984.36
3237.37
3521.66
3827.97
4153.76
4489.26
4818.85
5107.79
5301.86
5378.01
5390.32
5390.89
5390.89
5390.89
5390.89
5390.89
5390.89
5390.89
5390.89
5390.32
5378.01
5301.86
5107.78
4818.84
4489.28
4153.84
3828.15
3522
3237.89
2985.07
2762.12
2579.83
2398.11
2115.37
7316.28
6337.95
1950.47
2204.26
2384.93
2561.08
2770.73
3009.89
3273.92
3562.53
3867.87
4183.3
4491.68
4759.35
4934.61
5000.02
5009.82
5010.23
5010.23
5010.23
5010.23
5010.23
5010.23
5010.23
5010.23
5009.82
5000.02
4934.61
4759.34
4491.67
4183.28
3867.87
3562.55
3273.98
3009.99
2770.91
2561.34
2385.29
2204.66
1950.8
6338.55
5658.37
1819.21
2048.36
2221.36
2393.63
2596.36
2825.3
3078.1
3350.67
3638.01
3935.43
4227.27
4477.96
4636.43
4692.46
4700.23
4700.52
4700.52
4700.52
4700.52
4700.52
4700.52
4700.52
4700.52
4700.23
4692.46
4636.43
4477.96
4227.27
3935.42
3637.99
3350.65
3078.08
2825.28
2596.35
2393.64
2221.4
2048.43
1819.28
5658.58
4985.76
1689.21
1889.31
2053.94
2219.43
2420.53
2651.12
2905.51
3181.11
3466.64
3754.68
4030.85
4259.2
4396.65
4441.98
4447.69
4447.88
4447.88
4447.88
4447.88
4447.88
4447.88
4447.88
4447.88
4447.69
4441.98
4396.65
4259.2
4030.85
3754.67
3466.63
3181.09
2905.49
2651.1
2420.5
2219.41
2053.92
1889.31
1689.22
4985.78
4508.81
1503.81
1694.47
1828.77
1968.61
2140.07
2344.65
2570.1
2820.82
3087.37
3356.66
3599.59
3787.99
3893.85
3925.44
3928.96
3929.06
3929.06
3929.06
3929.06
3929.06
3929.06
3929.06
3929.06
3928.96
3925.44
3893.85
3787.99
3599.59
3356.66
3087.37
2820.81
2570.08
2344.63
2140.05
1968.58
1828.74
1694.45
1503.8
4508.81
25210.7
4594.08
5097.55
5820.36
6561.05
7616.48
8715.97
10044.6
11370.2
12829.1
14239.6
15483.6
16306.7
16629.3
16684.3
16687.3
16687.3
16687.3
16687.3
16687.3
16687.3
16687.3
16687.3
16687.3
16687.3
16684.3
16629.3
16306.7
15483.6
14239.6
12829.1
11370.2
10044.6
8715.97
7616.48
6561.04
5820.35
5097.54
4594.08
25210.7
25210.7
4594.08
5097.55
5820.36
6561.05
7616.48
8715.97
10044.6
11370.2
12829.1
14239.6
15483.6
16306.7
16629.3
16684.3
16687.3
16687.3
16687.3
16687.3
16687.3
16687.3
16687.3
16687.3
16687.3
16687.3
16684.3
16629.3
16306.7
15483.6
14239.6
12829.1
11370.2
10044.6
8715.97
7616.48
6561.04
5820.35
5097.54
4594.08
25210.7
4508.81
1503.81
1694.47
1828.77
1968.61
2140.07
2344.65
2570.1
2820.82
3087.37
3356.66
3599.59
3787.99
3893.85
3925.44
3928.96
3929.06
3929.06
3929.06
3929.06
3929.06
3929.06
3929.06
3929.06
3928.96
3925.44
3893.85
3787.99
3599.59
3356.66
3087.37
2820.81
2570.08
2344.63
2140.05
1968.58
1828.74
1694.45
1503.8
4508.81
4985.76
1689.21
1889.31
2053.94
2219.43
2420.53
2651.12
2905.51
3181.11
3466.64
3754.68
4030.85
4259.2
4396.65
4441.98
4447.69
4447.88
4447.88
4447.88
4447.88
4447.88
4447.88
4447.88
4447.88
4447.69
4441.98
4396.65
4259.2
4030.85
3754.67
3466.63
3181.09
2905.49
2651.1
2420.5
2219.41
2053.92
1889.31
1689.22
4985.78
5658.37
1819.21
2048.36
2221.36
2393.63
2596.36
2825.3
3078.1
3350.67
3638.01
3935.43
4227.27
4477.96
4636.43
4692.46
4700.23
4700.52
4700.52
4700.52
4700.52
4700.52
4700.52
4700.52
4700.52
4700.23
4692.46
4636.43
4477.96
4227.27
3935.42
3637.99
3350.65
3078.08
2825.28
2596.35
2393.64
2221.4
2048.43
1819.28
5658.58
6337.95
1950.47
2204.26
2384.93
2561.08
2770.73
3009.89
3273.92
3562.53
3867.87
4183.3
4491.68
4759.35
4934.61
5000.02
5009.82
5010.23
5010.23
5010.23
5010.23
5010.23
5010.23
5010.23
5010.23
5009.82
5000.02
4934.61
4759.34
4491.67
4183.28
3867.87
3562.55
3273.98
3009.99
2770.91
2561.34
2385.29
2204.66
1950.8
6338.55
7315.1
2114.41
2396.95
2578.74
2761.2
2984.36
3237.37
3521.66
3827.97
4153.76
4489.26
4818.85
5107.79
5301.86
5378.01
5390.32
5390.89
5390.89
5390.89
5390.89
5390.89
5390.89
5390.89
5390.89
5390.32
5378.01
5301.86
5107.78
4818.84
4489.28
4153.84
3828.15
3522
3237.89
2985.07
2762.12
2579.83
2398.11
2115.37
7316.28
8340.2
2308.15
2614.56
2794.5
2988.35
3225.75
3501.6
3802.87
4132.15
4479.27
4838.48
5192.69
5506.64
5722.68
5811.42
5826.81
5827.59
5827.59
5827.59
5827.59
5827.59
5827.59
5827.59
5827.59
5826.81
5811.42
5722.68
5506.64
5192.73
4838.63
4479.61
4132.74
3803.8
3502.92
3227.46
2990.39
2796.64
2616.65
2309.78
8340.25
9584.74
2524.61
2857.59
3035.64
3240.77
3498.99
3791.31
4117.23
4467.76
4840.54
5225.92
5607.6
5948.95
6188.82
6291.33
6310.22
6311.26
6311.27
6311.27
6311.27
6311.27
6311.27
6311.27
6311.26
6310.22
6291.33
6188.82
5948.99
5607.77
5226.33
4841.31
4468.97
4118.89
3793.48
3501.59
3243.61
3038.1
2859.21
2525.06
9572.15
10863.6
2775.13
3126.3
3300
3521.08
3795.79
4110.34
4456.8
4833.32
5232.72
5646.85
6058.08
6428.72
6693.82
6810.97
6833.71
6835.05
6835.07
6835.07
6835.07
6835.07
6835.07
6835.07
6835.05
6833.71
6810.97
6693.84
6428.86
6058.48
5647.59
5233.89
4834.9
4458.58
4112.13
3797.18
3521.89
3299.1
3122.62
2767
10804.5
12358.5
3063.73
3417.16
3591
3827.61
4119.43
4452.16
4822.38
5224.3
5652.14
6096.27
6538.76
6940.18
7231.51
7363.84
7390.65
7392.33
7392.35
7392.35
7392.35
7392.35
7392.35
7392.35
7392.33
7390.65
7363.85
7231.59
6940.48
6539.37
6097.11
5652.93
5224.67
4821.68
4449.45
4113.57
3817.66
3576.29
3396.4
3028.36
12183.2
13925.9
3384.74
3731.64
3912.54
4160.98
4465.84
4817.15
5209.48
5637.1
6093.08
6567.82
7042.41
7475.44
7793.43
7941.08
7972.03
7974.06
7974.09
7974.09
7974.09
7974.09
7974.09
7974.09
7974.06
7972.03
7941.11
7793.61
7475.82
7042.8
6567.65
6091.31
5632.45
5200.55
4802.17
4442.43
4126.5
3867.28
3674.9
3300.9
13536.4
15505.9
3700.73
4082.21
4262.57
4514.78
4829.97
5197.82
5610.63
6061.99
6545.19
7049.99
7556.27
8020.53
8364.7
8527.19
8562.14
8564.51
8564.55
8564.55
8564.55
8564.55
8564.55
8564.55
8564.51
8562.15
8527.27
8364.94
8020.61
7555.2
7046.24
6536.7
6046.04
5584.29
5158.17
4773.65
4436.03
4159.44
3952.82
3555.4
14815
16691.7
3953.23
4429.65
4620.2
4875.27
5196.75
5575.17
6003.82
6476.2
6984.39
7516.76
8052.18
8545.31
8913.44
9089.28
9127.78
9130.46
9130.5
9130.5
9130.5
9130.5
9130.5
9130.5
9130.46
9127.8
9089.39
8913.46
8544.04
8047.18
7504.88
6962.22
6439.65
5947.65
5493.33
5082.97
4722.55
4427.81
4206.95
3761.35
15793.9
17237.8
4088.99
4657.01
4900.11
5176.7
5507.72
5895.18
6338.1
6828.11
7356.16
7910.56
8469.83
8986.32
9373.24
9559.28
9600.45
9603.35
9603.39
9603.39
9603.39
9603.39
9603.39
9603.39
9603.35
9600.46
9559.31
9372.39
8981.85
8457.63
7885.6
7312.86
6760.83
6240.54
5759.46
5324.2
4941.71
4629.24
4390.08
3895.01
16295.4
17385.2
4168.6
4793.91
5068.85
5352.69
5689.71
6088.13
6542.14
7043.83
7584.83
8153.52
8727.53
9257.62
9654.87
9846.22
9888.72
9891.73
9891.78
9891.78
9891.78
9891.78
9891.78
9891.78
9891.74
9888.73
9845.97
9652.36
9248.32
8705.92
8113.44
7519.43
6946.16
6405.21
5904.49
5450.96
5052.57
4726.61
4472
3951.18
16422.9
16894.5
4213.33
4906.3
5212.97
5491.04
5809.08
6184.85
6626.95
7126.58
7670.7
8243.84
8820.93
9352.27
9750.09
9941.86
9984.45
9987.46
9987.51
9987.51
9987.51
9987.51
9987.51
9987.51
9987.46
9984.41
9941.13
9745.2
9336.26
8786.94
8186.4
7583.83
7001.93
6452.62
5944.11
5483.54
5079.25
4748.38
4488.76
3961.47
16434.7
16069.1
4249.22
5015.19
5334.33
5601.92
5899.86
6255.75
6681.54
7169.81
7706.03
8272.89
8844.64
9371.62
9765.72
9954.81
9996.6
9999.55
9999.6
9999.6
9999.6
9999.6
9999.6
9999.6
9999.55
9996.49
9953.14
9756.89
9347.25
8796.9
8195.13
7591.23
7008.02
6457.49
5947.88
5486.39
5081.37
4749.94
4489.84
3962.04
16434.9
15016.5
4298.38
5149.39
5473.12
5720.59
5981.41
6311.77
6719.64
7196.77
7727
8290.18
8858.61
9381.33
9770.56
9956.35
9997.11
9999.95
10000
10000
10000
10000
10000
10000
9999.95
9996.9
9953.54
9757.28
9347.61
8797.22
8195.4
7591.45
7008.19
6457.61
5947.97
5486.45
5081.41
4749.97
4489.86
3962.05
16434.9
13571.6
4373.01
5315.08
5640.37
5852.88
6066.72
6363.31
6749.84
7215.27
7740.42
8301.7
8868.65
9388.86
9774.58
9957.48
9997.22
9999.96
10000
10000
10000
10000
10000
10000
9999.95
9996.9
9953.55
9757.28
9347.61
8797.22
8195.4
7591.45
7008.19
6457.61
5947.97
5486.45
5081.41
4749.97
4489.86
3962.05
16434.9
12107.6
4820
5618.09
5903.48
5990.8
6148.27
6405.12
6772.47
7227.2
7748.16
8308.28
8875.03
9394.33
9777.84
9958.45
9997.32
9999.96
10000
10000
10000
10000
10000
10000
9999.95
9996.9
9953.55
9757.28
9347.61
8797.22
8195.4
7591.45
7008.19
6457.61
5947.97
5486.45
5081.41
4749.97
4489.86
3962.05
16434.9
)
;

boundaryField
{
    inlet
    {
        type            fixedValue;
        value           uniform 10000;
    }
    outlet
    {
        type            fixedValue;
        value           uniform 1000;
    }
    obstacle
    {
        type            zeroGradient;
    }
    empty
    {
        type            empty;
    }
}


// ************************************************************************* //
