/*--------------------------------*- C++ -*----------------------------------*\
| =========                 |                                                 |
| \\      /  F ield         | OpenFOAM: The Open Source CFD Toolbox           |
|  \\    /   O peration     | Version:  v1912                                 |
|   \\  /    A nd           | Website:  www.openfoam.com                      |
|    \\/     M anipulation  |                                                 |
\*---------------------------------------------------------------------------*/
FoamFile
{
    version     2.0;
    format      ascii;
    class       volScalarField;
    location    "2.82";
    object      T;
}
// * * * * * * * * * * * * * * * * * * * * * * * * * * * * * * * * * * * * * //

dimensions      [0 0 0 1 0 0 0];


internalField   nonuniform List<scalar> 
1900
(
1.12736
1.02013
1.02473
1.02972
1.03196
1.03342
1.03491
1.03717
1.04024
1.04449
1.12736
1.02013
1.02474
1.02972
1.03197
1.03341
1.03481
1.03662
1.03891
1.04331
1.12736
1.02013
1.02474
1.02971
1.03195
1.03338
1.03479
1.03664
1.03913
1.04303
1.12736
1.02013
1.02474
1.02972
1.03197
1.03341
1.03481
1.03662
1.03891
1.04331
1.12736
1.02013
1.02473
1.02972
1.03196
1.03342
1.03491
1.03717
1.04024
1.04449
1.04348
1.04828
1.05091
1.04369
0.994887
1.04743
1.05168
1.05281
1.05095
1.022
1.047
1.05052
1.05085
1.04499
1.0147
1.04743
1.05168
1.05281
1.05095
1.022
1.04348
1.04828
1.05091
1.04369
0.994887
1.04387
1.01117
0.990456
0.962417
0.918945
1.03753
1.00969
0.991042
0.969741
0.944094
1.0358
1.00934
0.989764
0.970097
0.948924
1.03753
1.00969
0.991042
0.969741
0.944094
1.04387
1.01117
0.990456
0.962417
0.918945
0.813496
0.747674
0.808505
0.825384
0.812829
0.806578
0.806581
0.809397
0.813017
0.818528
0.825341
0.833399
0.842616
0.852854
0.863776
0.874762
0.884872
0.893133
0.898541
0.901951
0.901698
0.897743
0.891812
0.882989
0.872247
0.860432
0.848324
0.83636
0.824723
0.813487
0.802736
0.79258
0.783075
0.77412
0.765401
0.757298
0.751474
0.747857
0.686208
0.581915
0.915015
0.784972
0.822101
0.828241
0.814374
0.807202
0.807105
0.809806
0.813403
0.818882
0.825683
0.833727
0.842929
0.853155
0.864066
0.875044
0.885145
0.893397
0.898799
0.902205
0.901953
0.898002
0.892077
0.883261
0.872526
0.860718
0.848617
0.836661
0.825033
0.81381
0.803075
0.792939
0.783459
0.774534
0.765847
0.757777
0.751948
0.748405
0.686874
0.582547
0.916468
0.809742
0.831614
0.830493
0.81513
0.807493
0.807355
0.810012
0.813581
0.819051
0.825842
0.833877
0.84307
0.853289
0.864194
0.875166
0.885262
0.893511
0.898911
0.902315
0.902063
0.898114
0.892192
0.883379
0.872647
0.860844
0.848748
0.836798
0.825178
0.813963
0.803239
0.793117
0.783653
0.774747
0.766081
0.758039
0.752215
0.748715
0.687349
0.583784
0.915015
0.784972
0.822101
0.828241
0.814374
0.807202
0.807105
0.809806
0.813403
0.818882
0.825683
0.833727
0.842929
0.853155
0.864066
0.875044
0.885145
0.893397
0.898799
0.902205
0.901953
0.898002
0.892077
0.883261
0.872526
0.860718
0.848617
0.836661
0.825033
0.81381
0.803075
0.792939
0.783459
0.774534
0.765847
0.757777
0.751948
0.748405
0.686874
0.582547
0.813496
0.747674
0.808505
0.825384
0.812829
0.806578
0.806581
0.809397
0.813017
0.818528
0.825341
0.833399
0.842616
0.852854
0.863776
0.874762
0.884872
0.893133
0.898541
0.901951
0.901698
0.897743
0.891812
0.882989
0.872247
0.860432
0.848324
0.83636
0.824723
0.813487
0.802736
0.79258
0.783075
0.77412
0.765401
0.757298
0.751474
0.747857
0.686208
0.581915
0.621327
0.700805
0.796443
0.812476
0.806517
0.803131
0.803903
0.80698
0.810953
0.816593
0.823468
0.831596
0.840878
0.851171
0.862138
0.873163
0.883307
0.8916
0.897031
0.900461
0.900206
0.896231
0.890278
0.881428
0.870658
0.858819
0.846684
0.834692
0.82302
0.811742
0.800941
0.790726
0.781146
0.772107
0.763308
0.755122
0.749363
0.745539
0.683817
0.578586
0.547359
0.698696
0.781213
0.790212
0.792604
0.793572
0.79637
0.800035
0.804715
0.810621
0.817671
0.82596
0.835397
0.845826
0.856909
0.868038
0.878281
0.886667
0.89217
0.895649
0.895389
0.891364
0.885345
0.876417
0.865569
0.853655
0.841446
0.829368
0.817595
0.806199
0.795261
0.78489
0.77514
0.765906
0.756976
0.748628
0.742937
0.738831
0.677182
0.571804
0.536495
0.69514
0.762482
0.771779
0.777146
0.781295
0.785564
0.790129
0.795328
0.801566
0.808847
0.817326
0.826936
0.837506
0.848704
0.859933
0.870278
0.878764
0.884351
0.887889
0.88762
0.883536
0.877439
0.868426
0.857503
0.845525
0.833255
0.821109
0.809253
0.797753
0.786696
0.776188
0.766292
0.756899
0.747909
0.739464
0.73377
0.729502
0.669019
0.562833
0.542491
0.684812
0.746101
0.754878
0.7617
0.767761
0.77301
0.778336
0.783954
0.790462
0.797967
0.806623
0.816373
0.827037
0.838294
0.849575
0.859985
0.868551
0.874212
0.87781
0.877535
0.873395
0.867232
0.858158
0.847194
0.835202
0.822934
0.810792
0.798927
0.787414
0.77633
0.765785
0.755865
0.746446
0.737552
0.729148
0.723399
0.719065
0.660616
0.553537
0.530747
0.671963
0.730389
0.739366
0.746846
0.753903
0.759813
0.765609
0.771549
0.778282
0.785998
0.794821
0.804672
0.81538
0.826637
0.837911
0.848339
0.856954
0.862672
0.866327
0.866052
0.861868
0.855663
0.846564
0.835609
0.823665
0.811471
0.799405
0.787622
0.776167
0.765146
0.754643
0.744786
0.735439
0.726737
0.718435
0.712486
0.707917
0.651918
0.544213
0.524835
0.659729
0.715633
0.724927
0.732962
0.740326
0.746603
0.752665
0.758844
0.765808
0.773761
0.782745
0.7927
0.803421
0.814651
0.825888
0.83631
0.844959
0.850727
0.854446
0.854181
0.849961
0.843732
0.83463
0.823715
0.81186
0.799778
0.787846
0.776164
0.764837
0.753888
0.743463
0.733716
0.724469
0.715966
0.707745
0.70148
0.696491
0.643022
0.534802
0.518763
0.648119
0.70198
0.711301
0.719785
0.727186
0.7336
0.739782
0.746175
0.7534
0.761586
0.770788
0.780815
0.791566
0.802754
0.813955
0.824371
0.83306
0.838888
0.842686
0.842438
0.838182
0.831929
0.822822
0.811951
0.800184
0.788237
0.776412
0.764891
0.753613
0.742797
0.732419
0.722771
0.71364
0.705306
0.697093
0.690467
0.685141
0.634164
0.525954
0.512221
0.636996
0.689131
0.698214
0.706992
0.714339
0.720806
0.727047
0.733656
0.741153
0.749659
0.758995
0.769176
0.779914
0.791087
0.802249
0.812674
0.82142
0.827326
0.831223
0.831001
0.826698
0.820408
0.81128
0.800434
0.788758
0.776904
0.76524
0.75375
0.742652
0.73183
0.721508
0.711995
0.702917
0.694685
0.686431
0.679466
0.673852
0.625216
0.516959
0.50694
0.62692
0.677079
0.68572
0.694561
0.701839
0.708306
0.714559
0.721414
0.729201
0.737911
0.747525
0.757721
0.768528
0.779649
0.790795
0.801236
0.810061
0.816068
0.820083
0.819892
0.81553
0.809187
0.800015
0.789185
0.777566
0.765843
0.754218
0.742927
0.731775
0.721114
0.71082
0.701355
0.692397
0.684263
0.675932
0.668653
0.662852
0.616708
0.508771
0.500941
0.616839
0.665121
0.673381
0.682109
0.689403
0.695939
0.70232
0.709384
0.717505
0.72652
0.736236
0.746612
0.757387
0.768514
0.779631
0.79011
0.799031
0.805159
0.80931
0.809155
0.804722
0.798305
0.789075
0.778238
0.766692
0.755021
0.743549
0.732226
0.721237
0.71057
0.70022
0.690943
0.681958
0.673839
0.665403
0.657846
0.651846
0.607748
0.50041
0.495156
0.607827
0.654026
0.662036
0.670381
0.67772
0.684311
0.690694
0.698087
0.706302
0.715568
0.725439
0.735852
0.74667
0.75776
0.768874
0.779397
0.788436
0.794707
0.799006
0.798888
0.794372
0.787865
0.778556
0.767712
0.756207
0.744638
0.733205
0.72201
0.711036
0.700449
0.690256
0.680969
0.672095
0.664041
0.655526
0.64773
0.641614
0.599966
0.493079
0.488912
0.598548
0.642943
0.650762
0.658651
0.666076
0.672772
0.679392
0.686956
0.69557
0.70496
0.715074
0.725551
0.73641
0.747497
0.75862
0.769209
0.778388
0.784825
0.789283
0.789201
0.784587
0.777966
0.768562
0.757692
0.746225
0.734718
0.723332
0.712206
0.701168
0.690731
0.680385
0.671292
0.662364
0.654279
0.645583
0.637549
0.631306
0.591429
0.485713
0.483356
0.590385
0.632737
0.640398
0.648145
0.655686
0.662471
0.669289
0.677172
0.685826
0.695467
0.705527
0.716042
0.726821
0.737857
0.748949
0.759591
0.768911
0.775529
0.780152
0.780102
0.775375
0.768623
0.759124
0.748248
0.736861
0.725463
0.714231
0.703179
0.692335
0.681899
0.671741
0.662634
0.653728
0.645553
0.636708
0.628403
0.622009
0.58442
0.479445
0.477937
0.582399
0.622711
0.630023
0.637579
0.64526
0.652273
0.659377
0.667606
0.676417
0.686247
0.696363
0.706907
0.717657
0.728648
0.739719
0.750417
0.75989
0.766709
0.771502
0.771477
0.766622
0.759713
0.750105
0.739223
0.727913
0.71663
0.705498
0.694556
0.683751
0.673413
0.663234
0.654149
0.645151
0.63681
0.627707
0.619138
0.612666
0.576828
0.473321
0.473522
0.574875
0.612804
0.619628
0.627357
0.635245
0.642705
0.650112
0.658794
0.667803
0.677816
0.688011
0.698568
0.709271
0.720154
0.731102
0.741729
0.751233
0.758172
0.763101
0.763094
0.758134
0.751139
0.741542
0.730779
0.719644
0.708537
0.697516
0.686675
0.67587
0.665597
0.655375
0.646223
0.637069
0.628469
0.619096
0.610265
0.603762
0.570069
0.468589
0.469029
0.567385
0.602412
0.608612
0.616382
0.624619
0.632474
0.640489
0.649532
0.65894
0.6692
0.67963
0.69036
0.701181
0.712104
0.723073
0.733733
0.743336
0.750443
0.755525
0.755529
0.750435
0.7433
0.73364
0.72289
0.711793
0.700712
0.689647
0.678725
0.667783
0.657409
0.646994
0.637688
0.628255
0.619387
0.609782
0.600801
0.594436
0.562805
0.463536
0.466425
0.560365
0.592492
0.597792
0.605724
0.61441
0.622857
0.631586
0.641029
0.651002
0.661604
0.672505
0.683686
0.694993
0.706351
0.71761
0.728414
0.738097
0.745232
0.750259
0.750267
0.74524
0.738095
0.728385
0.717532
0.706192
0.694733
0.683252
0.67195
0.660678
0.650036
0.63935
0.629758
0.620043
0.610883
0.601106
0.59207
0.586222
0.556953
0.461884
0.47135
0.557809
0.587643
0.591297
0.598968
0.607825
0.61649
0.625574
0.635145
0.64542
0.656104
0.667269
0.678671
0.690326
0.702119
0.713465
0.724288
0.734048
0.741389
0.746691
0.7467
0.741402
0.734059
0.724281
0.713421
0.702016
0.690151
0.678363
0.666862
0.655404
0.644661
0.63385
0.624124
0.614331
0.605113
0.595427
0.586877
0.582691
0.554738
0.467192
0.455766
0.530513
0.559304
0.561241
0.566491
0.573412
0.579877
0.58741
0.594521
0.603097
0.611196
0.620251
0.629108
0.638298
0.647305
0.656025
0.664406
0.672476
0.679352
0.685303
0.685312
0.679369
0.672502
0.664435
0.656048
0.647307
0.638264
0.628993
0.620068
0.610801
0.602621
0.593665
0.58637
0.578358
0.57138
0.56376
0.557586
0.554904
0.526618
0.448295
0.391394
0.449066
0.467885
0.46236
0.463951
0.469253
0.474062
0.480466
0.486965
0.494733
0.502369
0.511091
0.519644
0.529005
0.538214
0.547883
0.557403
0.566616
0.574322
0.580143
0.580142
0.574324
0.566619
0.557408
0.547892
0.538226
0.529022
0.519664
0.511113
0.502386
0.494747
0.486964
0.480441
0.474007
0.469125
0.463741
0.461855
0.467245
0.448651
0.390706
0.391394
0.449066
0.467885
0.46236
0.463951
0.469253
0.474062
0.480466
0.486965
0.494733
0.502369
0.511091
0.519644
0.529005
0.538214
0.547883
0.557403
0.566616
0.574322
0.580143
0.580142
0.574324
0.566619
0.557408
0.547892
0.538226
0.529022
0.519664
0.511113
0.502386
0.494747
0.486964
0.480441
0.474007
0.469125
0.463741
0.461855
0.467245
0.448651
0.390706
0.455766
0.530513
0.559304
0.561241
0.566491
0.573412
0.579877
0.58741
0.594521
0.603097
0.611196
0.620251
0.629108
0.638298
0.647305
0.656025
0.664406
0.672476
0.679352
0.685303
0.685312
0.679369
0.672502
0.664435
0.656048
0.647307
0.638264
0.628993
0.620068
0.610801
0.602621
0.593665
0.58637
0.578358
0.57138
0.56376
0.557586
0.554904
0.526618
0.448295
0.47135
0.557809
0.587643
0.591297
0.598968
0.607825
0.61649
0.625574
0.635145
0.64542
0.656104
0.667269
0.678671
0.690326
0.702119
0.713465
0.724288
0.734048
0.741389
0.746691
0.7467
0.741402
0.734059
0.724281
0.713421
0.702016
0.690151
0.678363
0.666862
0.655404
0.644661
0.63385
0.624124
0.614331
0.605113
0.595427
0.586877
0.582691
0.554738
0.467192
0.466425
0.560365
0.592492
0.597792
0.605724
0.61441
0.622857
0.631586
0.641029
0.651002
0.661604
0.672505
0.683686
0.694993
0.706351
0.71761
0.728414
0.738097
0.745232
0.750259
0.750267
0.74524
0.738095
0.728385
0.717532
0.706192
0.694733
0.683252
0.67195
0.660678
0.650036
0.63935
0.629758
0.620043
0.610883
0.601106
0.59207
0.586222
0.556953
0.461884
0.469029
0.567385
0.602412
0.608612
0.616382
0.624619
0.632474
0.640489
0.649532
0.65894
0.6692
0.67963
0.69036
0.701181
0.712104
0.723073
0.733733
0.743336
0.750443
0.755525
0.755529
0.750435
0.7433
0.73364
0.72289
0.711793
0.700712
0.689647
0.678725
0.667783
0.657409
0.646994
0.637688
0.628255
0.619387
0.609782
0.600801
0.594436
0.562805
0.463536
0.473522
0.574875
0.612804
0.619628
0.627357
0.635245
0.642705
0.650112
0.658794
0.667803
0.677816
0.688011
0.698568
0.709271
0.720154
0.731102
0.741729
0.751233
0.758172
0.763101
0.763094
0.758134
0.751139
0.741542
0.730779
0.719644
0.708537
0.697516
0.686675
0.67587
0.665597
0.655375
0.646223
0.637069
0.628469
0.619096
0.610265
0.603762
0.570069
0.468589
0.477937
0.582399
0.622711
0.630023
0.637579
0.64526
0.652273
0.659377
0.667606
0.676417
0.686247
0.696363
0.706907
0.717657
0.728648
0.739719
0.750417
0.75989
0.766709
0.771502
0.771477
0.766622
0.759713
0.750105
0.739223
0.727913
0.71663
0.705498
0.694556
0.683751
0.673413
0.663234
0.654149
0.645151
0.63681
0.627707
0.619138
0.612666
0.576828
0.473321
0.483356
0.590385
0.632737
0.640398
0.648145
0.655686
0.662471
0.669289
0.677172
0.685826
0.695467
0.705527
0.716042
0.726821
0.737857
0.748949
0.759591
0.768911
0.775529
0.780152
0.780102
0.775375
0.768623
0.759124
0.748248
0.736861
0.725463
0.714231
0.703179
0.692335
0.681899
0.671741
0.662634
0.653728
0.645553
0.636708
0.628403
0.622009
0.58442
0.479445
0.488912
0.598548
0.642943
0.650762
0.658651
0.666076
0.672772
0.679392
0.686956
0.69557
0.70496
0.715074
0.725551
0.73641
0.747497
0.75862
0.769209
0.778388
0.784825
0.789283
0.789201
0.784587
0.777966
0.768562
0.757692
0.746225
0.734718
0.723332
0.712206
0.701168
0.690731
0.680385
0.671292
0.662364
0.654279
0.645583
0.637549
0.631306
0.591429
0.485713
0.495156
0.607827
0.654026
0.662036
0.670381
0.67772
0.684311
0.690694
0.698087
0.706302
0.715568
0.725439
0.735852
0.74667
0.75776
0.768874
0.779397
0.788436
0.794707
0.799006
0.798888
0.794372
0.787865
0.778556
0.767712
0.756207
0.744638
0.733205
0.72201
0.711036
0.700449
0.690256
0.680969
0.672095
0.664041
0.655526
0.64773
0.641614
0.599966
0.493079
0.500941
0.616839
0.665121
0.673381
0.682109
0.689403
0.695939
0.70232
0.709384
0.717505
0.72652
0.736236
0.746612
0.757387
0.768514
0.779631
0.79011
0.799031
0.805159
0.80931
0.809155
0.804722
0.798305
0.789075
0.778238
0.766692
0.755021
0.743549
0.732226
0.721237
0.71057
0.70022
0.690943
0.681958
0.673839
0.665403
0.657846
0.651846
0.607748
0.50041
0.50694
0.62692
0.677079
0.68572
0.694561
0.701839
0.708306
0.714559
0.721414
0.729201
0.737911
0.747525
0.757721
0.768528
0.779649
0.790795
0.801236
0.810061
0.816068
0.820083
0.819892
0.81553
0.809187
0.800015
0.789185
0.777566
0.765843
0.754218
0.742927
0.731775
0.721114
0.71082
0.701355
0.692397
0.684263
0.675932
0.668653
0.662852
0.616708
0.508771
0.512221
0.636996
0.689131
0.698214
0.706992
0.714339
0.720806
0.727047
0.733656
0.741153
0.749659
0.758995
0.769176
0.779914
0.791087
0.802249
0.812674
0.82142
0.827326
0.831223
0.831001
0.826698
0.820408
0.81128
0.800434
0.788758
0.776904
0.76524
0.75375
0.742652
0.73183
0.721508
0.711995
0.702917
0.694685
0.686431
0.679466
0.673852
0.625216
0.516959
0.518763
0.648119
0.70198
0.711301
0.719785
0.727186
0.7336
0.739782
0.746175
0.7534
0.761586
0.770788
0.780815
0.791566
0.802754
0.813955
0.824371
0.83306
0.838888
0.842686
0.842438
0.838182
0.831929
0.822822
0.811951
0.800184
0.788237
0.776412
0.764891
0.753613
0.742797
0.732419
0.722771
0.71364
0.705306
0.697093
0.690467
0.685141
0.634164
0.525954
0.524835
0.659729
0.715633
0.724927
0.732962
0.740326
0.746603
0.752665
0.758844
0.765808
0.773761
0.782745
0.7927
0.803421
0.814651
0.825888
0.83631
0.844959
0.850727
0.854446
0.854181
0.849961
0.843732
0.83463
0.823715
0.81186
0.799778
0.787846
0.776164
0.764837
0.753888
0.743463
0.733716
0.724469
0.715966
0.707745
0.70148
0.696491
0.643022
0.534802
0.530747
0.671963
0.730389
0.739366
0.746846
0.753903
0.759813
0.765609
0.771549
0.778282
0.785998
0.794821
0.804672
0.81538
0.826637
0.837911
0.848339
0.856954
0.862672
0.866327
0.866052
0.861868
0.855663
0.846564
0.835609
0.823665
0.811471
0.799405
0.787622
0.776167
0.765146
0.754643
0.744786
0.735439
0.726737
0.718435
0.712486
0.707917
0.651918
0.544213
0.542491
0.684812
0.746101
0.754878
0.7617
0.767761
0.77301
0.778336
0.783954
0.790462
0.797967
0.806623
0.816373
0.827037
0.838294
0.849575
0.859985
0.868551
0.874212
0.87781
0.877535
0.873395
0.867232
0.858158
0.847194
0.835202
0.822934
0.810792
0.798927
0.787414
0.77633
0.765785
0.755865
0.746446
0.737552
0.729148
0.723399
0.719065
0.660616
0.553537
0.536495
0.69514
0.762482
0.771779
0.777146
0.781295
0.785564
0.790129
0.795328
0.801566
0.808847
0.817326
0.826936
0.837506
0.848704
0.859933
0.870278
0.878764
0.884351
0.887889
0.88762
0.883536
0.877439
0.868426
0.857503
0.845525
0.833255
0.821109
0.809253
0.797753
0.786696
0.776188
0.766292
0.756899
0.747909
0.739464
0.73377
0.729502
0.669019
0.562833
0.547359
0.698696
0.781213
0.790212
0.792604
0.793572
0.79637
0.800035
0.804715
0.810621
0.817671
0.82596
0.835397
0.845826
0.856909
0.868038
0.878281
0.886667
0.89217
0.895649
0.895389
0.891364
0.885345
0.876417
0.865569
0.853655
0.841446
0.829368
0.817595
0.806199
0.795261
0.78489
0.77514
0.765906
0.756976
0.748628
0.742937
0.738831
0.677182
0.571804
0.621327
0.700805
0.796443
0.812476
0.806517
0.803131
0.803903
0.80698
0.810953
0.816593
0.823468
0.831596
0.840878
0.851171
0.862138
0.873163
0.883307
0.8916
0.897031
0.900461
0.900206
0.896231
0.890278
0.881428
0.870658
0.858819
0.846684
0.834692
0.82302
0.811742
0.800941
0.790726
0.781146
0.772107
0.763308
0.755122
0.749363
0.745539
0.683817
0.578586
)
;

boundaryField
{
    inlet
    {
        type            fixedValue;
        value           uniform 1;
    }
    outlet
    {
        type            zeroGradient;
    }
    obstacle
    {
        type            zeroGradient;
    }
    empty
    {
        type            empty;
    }
}


// ************************************************************************* //
