/*--------------------------------*- C++ -*----------------------------------*\
| =========                 |                                                 |
| \\      /  F ield         | OpenFOAM: The Open Source CFD Toolbox           |
|  \\    /   O peration     | Version:  v1912                                 |
|   \\  /    A nd           | Website:  www.openfoam.com                      |
|    \\/     M anipulation  |                                                 |
\*---------------------------------------------------------------------------*/
FoamFile
{
    version     2.0;
    format      ascii;
    class       volVectorField;
    location    "6.6";
    object      grad(rho);
}
// * * * * * * * * * * * * * * * * * * * * * * * * * * * * * * * * * * * * * //

dimensions      [1 -4 0 0 0 0 0];


internalField   nonuniform List<vector> 
1900
(
(96735.7 0.211907 0)
(-101170 -0.0990735 0)
(-4604.42 -0.550397 0)
(-1212.66 -1.15642 0)
(-1631.19 -1.71623 0)
(-1320.43 -0.750196 0)
(-776.188 5.01433 0)
(-398.818 12.2925 0)
(-225.373 23.1596 0)
(678.365 -53.3327 0)
(96735.8 0.198707 0)
(-101171 -0.223756 0)
(-4605.48 -0.976819 0)
(-1213.83 -1.51651 0)
(-1630.78 -1.13649 0)
(-1313.7 2.14819 0)
(-763.146 6.56318 0)
(-380.672 0.0633773 0)
(-290.998 -27.0215 0)
(-296.345 -116.28 0)
(96735.6 3.13349e-08 0)
(-101171 2.36611e-08 0)
(-4605.71 1.10667e-08 0)
(-1212.82 8.01137e-09 0)
(-1627.52 4.61853e-09 0)
(-1312.73 -2.78888e-09 0)
(-778.273 -8.56204e-09 0)
(-432.402 -3.32179e-09 0)
(-341.717 -8.88178e-11 0)
(-419.401 1.04805e-09 0)
(96735.8 -0.198707 0)
(-101171 0.223756 0)
(-4605.48 0.976819 0)
(-1213.83 1.51651 0)
(-1630.78 1.13649 0)
(-1313.7 -2.14819 0)
(-763.146 -6.56318 0)
(-380.672 -0.0633773 0)
(-290.998 27.0215 0)
(-296.345 116.28 0)
(96735.7 -0.211907 0)
(-101170 0.0990735 0)
(-4604.42 0.550397 0)
(-1212.66 1.15642 0)
(-1631.19 1.71623 0)
(-1320.43 0.750196 0)
(-776.188 -5.01433 0)
(-398.818 -12.2925 0)
(-225.373 -23.1596 0)
(678.365 53.3327 0)
(-253.187 -830.539 1.25005e-11)
(-2386.63 -615.816 -1.47742e-11)
(-3627.37 -620.667 -1.85251e-11)
(-3823.56 -623.953 0)
(-25692.6 -7378.44 -7.66631e-11)
(-714.411 -993.822 1.23504e-11)
(-1694.11 -738.505 1.47742e-11)
(-3296.84 -682.883 1.85251e-11)
(-6337.29 -176.022 0)
(-24151.6 -6090.76 0)
(-1051.77 -1.94691e-09 0)
(-1735.78 -2.12306e-09 0)
(-3078.88 -6.71068e-09 0)
(-5968.74 -8.30985e-09 0)
(-26361.7 -1.86095e-08 0)
(-714.411 993.822 1.23504e-11)
(-1694.11 738.505 1.47742e-11)
(-3296.84 682.883 1.85251e-11)
(-6337.29 176.022 0)
(-24151.6 6090.76 0)
(-253.187 830.539 -3.72013e-11)
(-2386.63 615.816 -1.47742e-11)
(-3627.37 620.667 -1.85251e-11)
(-3823.56 623.953 -4.9244e-11)
(-25692.6 7378.44 7.66631e-11)
(-43805.6 14761.5 1.76957e-11)
(-15529 6321.26 -1.01415e-11)
(-8533.35 3189.63 0)
(-6647.54 2024.35 4.86165e-12)
(-2755.19 2037.59 -1.70366e-12)
(-39316.3 19118.3 -9.07014e-12)
(-18041.1 5471.3 5.16594e-12)
(-9601.58 1956.23 0)
(-6854.93 1128.38 -3.08513e-12)
(-3764.69 1265.61 4.50786e-13)
(-40886.2 -1.4803e-09 0)
(-19899.1 -1.51825e-10 0)
(-9924.01 -2.38492e-09 0)
(-6926.97 3.45403e-09 1.24765e-12)
(-3756.93 7.66119e-09 -9.01571e-13)
(-39316.3 -19118.3 -9.07014e-12)
(-18041.1 -5471.3 5.16594e-12)
(-9601.58 -1956.23 0)
(-6854.93 -1128.38 -3.08513e-12)
(-3764.69 -1265.61 4.50786e-13)
(-43805.6 -14761.5 9.07014e-12)
(-15529 -6321.26 -1.90376e-13)
(-8533.35 -3189.63 0)
(-6647.54 -2024.35 6.09668e-14)
(-2755.19 -2037.59 1.70366e-12)
(-353.476 -3926.37 0)
(-1782.16 -3491.75 0)
(-1825.62 -2936.63 0)
(311.909 -2604.57 0)
(4383.51 -2318.98 0)
(5166.42 -43.7558 0)
(2132.02 677.49 0)
(760.434 393.655 0)
(-166.657 567.404 0)
(-1214.41 736.775 0)
(-1810.91 561.183 0)
(-2233.63 351.659 0)
(-2618.92 235.316 0)
(-2330.24 143.076 0)
(-1391.25 55.5378 0)
(-689.512 14.3338 0)
(-459.178 7.80693 0)
(-394.989 9.02441 0)
(-348.673 9.46081 0)
(-275.403 2.92087 0)
(-179.744 -1.10805 0)
(-101.996 -2.19929 0)
(-58.0792 -2.1287 0)
(-37.8434 -1.8784 0)
(-26.351 -1.69299 0)
(-16.9789 -1.58443 0)
(-5.45957 -1.5982 0)
(9.50669 -1.66567 0)
(24.1869 -1.58269 0)
(35.1564 -1.47397 0)
(53.1195 -1.62205 0)
(76.9773 -1.09881 0)
(119.188 -1.19675 0)
(153.015 1.31679 0)
(231.057 0.211341 0)
(542.164 -2.72011 0)
(1619.71 -6.68693 0)
(2513.01 0.0315137 0)
(1056.19 3.33133 0)
(3152.9 11.8789 0)
(-1470.23 -1353.35 0)
(-1773.64 -1435.5 0)
(-1718.69 -1195.16 0)
(479.43 -984.795 0)
(4669.48 -719.676 0)
(5348.28 40.4789 0)
(2119.97 349.096 0)
(772.121 205.273 0)
(-57.5299 305.546 0)
(-1192.26 322.848 0)
(-1883.57 226.606 0)
(-2299.33 146.315 0)
(-2656.82 115.947 0)
(-2353.28 70.0353 0)
(-1403.09 24.1281 0)
(-693.241 5.25798 0)
(-459.525 4.05714 0)
(-395.061 3.95136 0)
(-349.225 3.42631 0)
(-276.292 1.07588 0)
(-180.158 -0.57705 0)
(-102.064 -0.966322 0)
(-58.0439 -0.899049 0)
(-37.8028 -0.787726 0)
(-26.3235 -0.717329 0)
(-16.9701 -0.680432 0)
(-5.46987 -0.700671 0)
(9.50429 -0.756034 0)
(24.2031 -0.738548 0)
(35.1484 -0.710255 0)
(53.1532 -0.802808 0)
(76.9917 -0.590418 0)
(119.4 -0.746307 0)
(153.132 0.392691 0)
(230.631 -0.211546 0)
(541.367 -1.49338 0)
(1619.96 -4.26127 0)
(2513.44 0.233293 0)
(1056.98 -1.17103 0)
(3150.75 3.38726 0)
(-1282.36 -3.00124e-08 0)
(-1736.14 -2.64516e-08 0)
(-1694.5 -2.65888e-08 0)
(450.232 4.60319e-08 0)
(4681.77 2.22812e-07 0)
(5477.33 -1.3774e-06 0)
(2179.96 -5.85487e-07 0)
(747.765 -4.10274e-07 0)
(-132.453 -1.2898e-07 0)
(-1237.38 2.41746e-08 0)
(-1862.26 -1.43077e-08 0)
(-2265.82 -1.2927e-08 0)
(-2641.11 -1.57692e-08 0)
(-2356.96 -6.38681e-08 0)
(-1410.09 -5.33392e-08 0)
(-695.35 -1.70772e-08 0)
(-459.558 -2.09691e-08 0)
(-395.173 4.43282e-09 0)
(-349.51 -4.98187e-09 0)
(-276.567 6.14458e-09 0)
(-180.338 1.48487e-08 0)
(-102.09 8.21969e-09 0)
(-58.0272 5.56726e-09 0)
(-37.7905 3.78687e-09 0)
(-26.3198 2.28908e-09 0)
(-16.9741 1.69561e-09 0)
(-5.48156 3.49216e-09 0)
(9.49568 7.30325e-09 0)
(24.2002 9.30569e-09 0)
(35.1377 7.69082e-09 0)
(53.1543 2.82602e-11 0)
(76.9938 -5.54708e-09 0)
(119.474 6.10825e-09 0)
(153.17 -3.15949e-08 0)
(230.509 -2.82602e-08 0)
(540.986 -7.42033e-09 0)
(1620.22 7.31213e-08 0)
(2513.91 3.0303e-08 0)
(1057.11 -2.98993e-08 0)
(3148.66 2.11693e-07 0)
(-1470.23 1353.35 0)
(-1773.64 1435.5 0)
(-1718.69 1195.16 0)
(479.43 984.795 0)
(4669.48 719.676 0)
(5348.28 -40.4789 0)
(2119.97 -349.096 0)
(772.121 -205.273 0)
(-57.5299 -305.546 0)
(-1192.26 -322.848 0)
(-1883.57 -226.606 0)
(-2299.33 -146.315 0)
(-2656.82 -115.947 0)
(-2353.28 -70.0353 0)
(-1403.09 -24.1281 0)
(-693.241 -5.25798 0)
(-459.525 -4.05714 0)
(-395.061 -3.95136 0)
(-349.225 -3.42631 0)
(-276.292 -1.07588 0)
(-180.158 0.57705 0)
(-102.064 0.966322 0)
(-58.0439 0.899049 0)
(-37.8028 0.787726 0)
(-26.3235 0.717329 0)
(-16.9701 0.680432 0)
(-5.46987 0.700671 0)
(9.50429 0.756034 0)
(24.2031 0.738548 0)
(35.1484 0.710255 0)
(53.1532 0.802808 0)
(76.9917 0.590418 0)
(119.4 0.746307 0)
(153.132 -0.392691 0)
(230.631 0.211546 0)
(541.367 1.49338 0)
(1619.96 4.26127 0)
(2513.44 -0.233293 0)
(1056.98 1.17103 0)
(3150.75 -3.38726 0)
(-353.476 3926.37 0)
(-1782.16 3491.75 0)
(-1825.62 2936.63 0)
(311.909 2604.57 0)
(4383.51 2318.98 0)
(5166.42 43.7558 0)
(2132.02 -677.49 0)
(760.434 -393.655 0)
(-166.657 -567.404 0)
(-1214.41 -736.775 0)
(-1810.91 -561.183 0)
(-2233.63 -351.659 0)
(-2618.92 -235.316 0)
(-2330.24 -143.076 0)
(-1391.25 -55.5378 0)
(-689.512 -14.3338 0)
(-459.178 -7.80693 0)
(-394.989 -9.02441 0)
(-348.673 -9.46081 0)
(-275.403 -2.92087 0)
(-179.744 1.10805 0)
(-101.996 2.19929 0)
(-58.0792 2.1287 0)
(-37.8434 1.8784 0)
(-26.351 1.69299 0)
(-16.9789 1.58443 0)
(-5.45957 1.5982 0)
(9.50669 1.66567 0)
(24.1869 1.58269 0)
(35.1564 1.47397 0)
(53.1195 1.62205 0)
(76.9773 1.09881 0)
(119.188 1.19675 0)
(153.015 -1.31679 0)
(231.057 -0.211341 0)
(542.164 2.72011 0)
(1619.71 6.68693 0)
(2513.01 -0.0315137 0)
(1056.19 -3.33133 0)
(3152.9 -11.8789 0)
(-1886.23 3186.66 0)
(-2384.64 2274.66 0)
(-2151.57 3171.02 0)
(285.692 3712.79 0)
(3393.8 3186.76 0)
(3678.95 62.7581 0)
(1831.66 -791.029 0)
(854.687 -687.979 0)
(-146.582 -923.259 0)
(-1162.74 -913.942 0)
(-1726.01 -677.771 0)
(-2170.88 -495.326 0)
(-2569.8 -402.878 0)
(-2267.15 -273.809 0)
(-1336.03 -104.384 0)
(-667.612 -27.3964 0)
(-456.596 -14.0995 0)
(-396.181 -17.3355 0)
(-346.035 -16.5211 0)
(-270.691 -6.2394 0)
(-177.426 1.15843 0)
(-101.503 3.66355 0)
(-58.2044 3.73108 0)
(-38.0291 3.30007 0)
(-26.4761 2.96923 0)
(-17.0193 2.794 0)
(-5.43082 2.82696 0)
(9.49177 2.92951 0)
(24.1016 2.77075 0)
(35.1638 2.61314 0)
(52.9568 2.78518 0)
(76.7415 2.07137 0)
(118.131 1.63598 0)
(152.385 -2.09736 0)
(232.671 -1.20396 0)
(544.771 3.80533 0)
(1618.51 10.046 0)
(2507.64 2.96968 0)
(1050.45 -8.18041 0)
(3165.07 -16.9024 0)
(-2413.88 311.76 0)
(-1474.15 352.107 0)
(-265.001 1740.48 0)
(341.137 2545.48 0)
(1396.91 1963.66 0)
(2130.9 -79.4813 0)
(1569.65 -654.36 0)
(582.471 -1003.37 0)
(-395.169 -1251.06 0)
(-1005.56 -1141.16 0)
(-1453.04 -887.711 0)
(-2002.38 -740.772 0)
(-2431.8 -650.66 0)
(-2076.44 -415.219 0)
(-1183.4 -145.021 0)
(-614.253 -40.6524 0)
(-450.868 -25.0819 0)
(-396.684 -26.7983 0)
(-339.395 -22.0064 0)
(-260.893 -9.27161 0)
(-171.444 1.24735 0)
(-99.7813 5.65044 0)
(-58.3623 6.19879 0)
(-38.4779 5.67027 0)
(-26.7715 5.18282 0)
(-17.0943 4.92534 0)
(-5.3444 4.97254 0)
(9.46053 5.07766 0)
(23.9277 4.80447 0)
(35.1663 4.56268 0)
(52.6847 4.75495 0)
(75.9964 3.89292 0)
(115.738 2.87504 0)
(150.616 -1.99623 0)
(235.88 -1.85782 0)
(551.607 5.38841 0)
(1619.56 15.6928 0)
(2498.33 7.51305 0)
(1040.12 -8.76444 0)
(3178.69 -15.1268 0)
(-2017.93 -22.4441 0)
(-1007.87 777.3 0)
(-37.9599 747.497 0)
(500.756 553.482 0)
(864.298 442.219 0)
(1156.13 -323.608 0)
(941.358 -798.688 0)
(279.686 -1144.76 0)
(-279.36 -1266.2 0)
(-812.605 -1106.4 0)
(-1340.18 -970.533 0)
(-1942.45 -936.717 0)
(-2256.09 -841.328 0)
(-1779.9 -487.015 0)
(-975.082 -158.634 0)
(-552.035 -52.8915 0)
(-443.246 -37.7526 0)
(-393.218 -35.2034 0)
(-329.146 -25.6791 0)
(-248.283 -10.304 0)
(-163.046 2.64593 0)
(-96.7314 8.70074 0)
(-58.1853 9.87028 0)
(-39.0082 9.37233 0)
(-27.194 8.76137 0)
(-17.222 8.41017 0)
(-5.28403 8.42065 0)
(9.32981 8.40803 0)
(23.6054 7.95458 0)
(35.1161 7.54965 0)
(52.3114 7.69962 0)
(74.9299 6.66173 0)
(112.456 5.16233 0)
(147.824 -0.595446 0)
(239.787 -1.53535 0)
(561.684 6.9759 0)
(1620.55 21.7864 0)
(2484.08 10.5117 0)
(1028.63 -10.5695 0)
(3191.78 -16.4894 0)
(-1107.82 -502.886 0)
(-732.209 -37.6415 0)
(-480.68 -282.978 0)
(46.9597 -250.195 0)
(551.718 -309.785 0)
(935.113 -450.009 0)
(778.358 -973.331 0)
(131.955 -1156.25 0)
(-358.206 -1210.84 0)
(-720.642 -1143.94 0)
(-1289.52 -1101.44 0)
(-1877.87 -1097.97 0)
(-1998.45 -911.199 0)
(-1418.57 -460.584 0)
(-765.067 -150.014 0)
(-497.767 -64.8344 0)
(-433.823 -49.8977 0)
(-385.049 -41.2979 0)
(-315.401 -26.59 0)
(-233.598 -8.43459 0)
(-153.13 6.02857 0)
(-92.8197 13.065 0)
(-57.7151 14.6882 0)
(-39.5465 14.2682 0)
(-27.6987 13.58 0)
(-17.4227 13.1336 0)
(-5.34646 13.0148 0)
(9.01141 12.7207 0)
(23.1005 12.0217 0)
(34.9206 11.3631 0)
(51.829 11.2838 0)
(73.5514 10.0726 0)
(108.745 8.05667 0)
(144.162 2.04963 0)
(243.176 -0.0388774 0)
(574.081 8.22567 0)
(1622.96 25.5842 0)
(2467.15 13.0595 0)
(1014.11 -11.2177 0)
(3205.18 -18.5725 0)
(-1671.72 -944.58 0)
(-795.958 -511.702 0)
(-242.784 -345.801 0)
(474.923 -233.859 0)
(671.749 -358.184 0)
(516.712 -707.736 0)
(260.798 -1092.31 0)
(50.811 -1257.45 0)
(-267.5 -1170.84 0)
(-707.177 -1166.57 0)
(-1295.88 -1204.76 0)
(-1759.13 -1175.19 0)
(-1641.88 -849.221 0)
(-1046.39 -372.781 0)
(-593.723 -133.898 0)
(-455.56 -72.9006 0)
(-420.565 -57.526 0)
(-370.757 -42.7918 0)
(-297.478 -23.7599 0)
(-216.85 -3.08762 0)
(-142.328 12.0894 0)
(-88.3867 19.5193 0)
(-57.0259 21.3823 0)
(-40.076 21.0396 0)
(-28.2873 20.306 0)
(-17.7667 19.7637 0)
(-5.6819 19.4217 0)
(8.37281 18.759 0)
(22.2971 17.8189 0)
(34.4051 16.8682 0)
(51.0678 16.4646 0)
(71.8202 15.0969 0)
(104.724 12.835 0)
(140.023 6.94918 0)
(245.738 4.66718 0)
(586.375 12.5385 0)
(1625.21 31.6422 0)
(2448.61 19.9709 0)
(998.153 -6.19538 0)
(3223.05 -9.62402 0)
(-1465.45 -496.816 0)
(-155.204 -48.4788 0)
(-212.94 -0.502011 0)
(35.0263 -399.83 0)
(95.0725 -804.536 0)
(227.681 -1118.59 0)
(248.638 -1103.77 0)
(56.2827 -1114.84 0)
(-270.635 -1124.07 0)
(-753.329 -1190.96 0)
(-1297.83 -1251.69 0)
(-1535.26 -1113.99 0)
(-1225.22 -676.908 0)
(-729.259 -277.857 0)
(-476.091 -122.678 0)
(-424.172 -80.4534 0)
(-404.809 -62.6134 0)
(-352.511 -41.4664 0)
(-277.141 -18.0103 0)
(-199.052 3.86428 0)
(-131.346 19.3813 0)
(-83.8647 26.8112 0)
(-56.2501 28.7722 0)
(-40.5836 28.527 0)
(-28.9282 27.7975 0)
(-18.2748 27.1721 0)
(-6.31465 26.446 0)
(7.46686 25.3366 0)
(21.2785 24.2333 0)
(33.6156 22.9086 0)
(50.1221 22.0755 0)
(70.0537 20.4896 0)
(100.893 18.0989 0)
(136.291 12.8685 0)
(248.562 10.904 0)
(600.075 17.1943 0)
(1630.13 34.2922 0)
(2430.69 22.8316 0)
(985.587 -2.87403 0)
(3224.05 -4.81191 0)
(-1111.79 -240.592 0)
(-317.692 -224.989 0)
(-581.359 -482.624 0)
(-299.873 -912.916 0)
(-20.8753 -1046.69 0)
(228.361 -993.393 0)
(264.411 -962.784 0)
(31.2444 -1017.27 0)
(-340.854 -1091.3 0)
(-830.155 -1200.08 0)
(-1221.7 -1199.29 0)
(-1205.25 -918.243 0)
(-836.151 -478.693 0)
(-512.315 -208.261 0)
(-403.498 -113.607 0)
(-397.679 -83.3538 0)
(-382.996 -62.2732 0)
(-327.776 -36.106 0)
(-253.795 -8.52752 0)
(-180.818 13.657 0)
(-120.216 28.8642 0)
(-79.3373 35.9002 0)
(-55.3726 37.8005 0)
(-41.0153 37.6411 0)
(-29.593 36.9185 0)
(-19.069 36.0806 0)
(-7.45061 34.9129 0)
(6.24054 33.5008 0)
(19.9574 32.1257 0)
(32.3257 30.4013 0)
(48.7367 29.1176 0)
(67.9882 27.2538 0)
(97.3804 24.7786 0)
(133.09 20.4257 0)
(249.907 19.4521 0)
(608.913 23.6975 0)
(1630.65 38.5185 0)
(2412.8 26.75 0)
(971.515 -1.14863 0)
(3231.54 -1.06746 0)
(-1496.06 -408.381 0)
(-388.435 -371.176 0)
(-875.852 -641.892 0)
(-508.528 -913.396 0)
(17.5216 -946.477 0)
(308.537 -795.915 0)
(225.634 -838.838 0)
(-67.5596 -954.179 0)
(-446.806 -1074.36 0)
(-857.39 -1146.51 0)
(-1026.24 -1018.49 0)
(-840.871 -656.437 0)
(-541.056 -323.341 0)
(-377.449 -162.883 0)
(-355.725 -105.684 0)
(-374.705 -82.387 0)
(-359.279 -57.7254 0)
(-300.72 -27.6707 0)
(-229.187 0.636282 0)
(-163.02 23.0077 0)
(-109.911 37.2706 0)
(-75.2533 43.8377 0)
(-54.5725 45.7649 0)
(-41.4336 45.8226 0)
(-30.4319 45.213 0)
(-20.2075 44.2577 0)
(-8.80064 43.0919 0)
(4.78106 41.7878 0)
(18.2918 40.0811 0)
(30.7168 38.193 0)
(47.0891 36.7387 0)
(65.8725 34.9381 0)
(94.3135 32.7353 0)
(131.158 29.4984 0)
(251.715 30.4825 0)
(618.448 32.4986 0)
(1633.07 46.0476 0)
(2392.46 35.635 0)
(958.781 1.36678 0)
(3220.36 6.7883 0)
(-1763.64 -365.496 0)
(-542.712 -380.676 0)
(-1103.86 -606.63 0)
(-593.382 -718.975 0)
(92.3331 -695.103 0)
(332.085 -655.073 0)
(111.902 -782.781 0)
(-195.714 -906.463 0)
(-526.195 -1018.63 0)
(-776.312 -990.519 0)
(-749.447 -749.911 0)
(-535.381 -427.509 0)
(-360.545 -220.245 0)
(-302.573 -129.391 0)
(-325.928 -97.0751 0)
(-351.464 -78.0039 0)
(-330.269 -50.1904 0)
(-271.537 -16.2707 0)
(-204.96 11.6331 0)
(-145.516 33.5538 0)
(-100.143 46.6059 0)
(-71.1518 52.5932 0)
(-53.4599 54.4979 0)
(-41.5472 54.7008 0)
(-31.101 54.1671 0)
(-21.1129 53.2327 0)
(-9.83069 52.2419 0)
(3.33914 50.9659 0)
(16.4934 48.9569 0)
(29.1049 46.9733 0)
(45.6001 45.4697 0)
(64.1304 43.8646 0)
(92.1385 42.1716 0)
(130.919 40.0068 0)
(252.798 42.3726 0)
(623.912 42.7365 0)
(1633.67 55.1911 0)
(2369.74 45.0956 0)
(943.717 3.50206 0)
(3207.33 12.0549 0)
(-2154.75 -351.719 0)
(-620.8 -312.434 0)
(-1201.85 -444.531 0)
(-593.784 -492.149 0)
(79.0998 -467.709 0)
(224.048 -608.584 0)
(-16.6155 -749.076 0)
(-294.829 -846.49 0)
(-527.805 -890.678 0)
(-598.447 -749.713 0)
(-483.7 -485.325 0)
(-330.465 -270.812 0)
(-253.779 -153.887 0)
(-258.758 -106.147 0)
(-306.207 -88.0019 0)
(-329.525 -68.6944 0)
(-299.791 -37.4328 0)
(-241.144 -4.20491 0)
(-181.174 23.276 0)
(-129.319 43.4921 0)
(-91.5642 55.2746 0)
(-67.6483 60.8316 0)
(-52.5414 62.9786 0)
(-41.7523 63.6492 0)
(-31.8466 63.6085 0)
(-22.0627 63.1426 0)
(-10.9851 62.5053 0)
(1.61555 61.3264 0)
(14.4444 59.2956 0)
(27.3564 57.5002 0)
(44.0935 56.136 0)
(62.6944 54.9098 0)
(90.596 53.9058 0)
(131.352 52.7477 0)
(254.345 55.7913 0)
(630.8 56.5802 0)
(1635.34 70.0561 0)
(2342.65 57.6074 0)
(926.941 8.62426 0)
(3175.41 18.1031 0)
(-2518.34 -202.276 0)
(-632.149 -131.319 0)
(-1277.04 -238.888 0)
(-615.717 -350.779 0)
(-19.8676 -386.681 0)
(60.9502 -579.076 0)
(-117.352 -692.162 0)
(-332.167 -738.721 0)
(-432.938 -678.056 0)
(-385.7 -484.872 0)
(-287.96 -289.261 0)
(-215.995 -165.3 0)
(-201.868 -101.05 0)
(-239.084 -79.9587 0)
(-289.838 -73.0511 0)
(-302.734 -50.5517 0)
(-268.125 -15.1197 0)
(-213.036 16.9902 0)
(-158.997 43.9236 0)
(-114.681 62.1198 0)
(-83.4344 72.4647 0)
(-63.7279 77.2384 0)
(-50.7448 78.9914 0)
(-40.9401 79.4076 0)
(-31.5891 79.1985 0)
(-22.176 78.6541 0)
(-11.5809 77.837 0)
(0.246143 76.4271 0)
(12.8064 74.3179 0)
(26.0602 72.6481 0)
(43.1039 71.5025 0)
(61.9813 70.6718 0)
(90.055 70.3719 0)
(132.736 70.1954 0)
(256.491 73.9401 0)
(637.658 76.2996 0)
(1634.66 90.6528 0)
(2310.54 72.3733 0)
(905.649 15.3216 0)
(3138.38 25.0514 0)
(-2597.18 -29.6273 0)
(-656.08 25.0136 0)
(-1413.33 -86.1732 0)
(-736.203 -291.59 0)
(-140.896 -402.847 0)
(-70.3248 -520.439 0)
(-170.455 -586.79 0)
(-281.236 -552.041 0)
(-283.186 -420.239 0)
(-223.79 -264.9 0)
(-175.749 -155.244 0)
(-149.098 -88.0441 0)
(-171.541 -57.5285 0)
(-231.777 -52.9712 0)
(-277.869 -47.2027 0)
(-273.701 -20.1359 0)
(-234.705 16.0103 0)
(-184.248 48.6774 0)
(-137.686 74.0967 0)
(-101.816 90.0675 0)
(-76.9954 98.6869 0)
(-61.359 102.551 0)
(-50.4512 103.745 0)
(-41.5528 103.523 0)
(-32.5727 102.53 0)
(-23.3746 101.148 0)
(-13.131 99.4645 0)
(-1.77564 97.2475 0)
(10.8028 94.6088 0)
(24.6434 92.982 0)
(42.189 91.8756 0)
(61.6049 91.4129 0)
(90.1369 91.8156 0)
(134.791 92.6989 0)
(260.228 97.4913 0)
(646.905 101.156 0)
(1631.56 113.673 0)
(2270.06 85.3245 0)
(881.34 20.6016 0)
(3081.84 29.3413 0)
(-2520.32 11.9951 0)
(-686.639 56.5266 0)
(-1582.13 -42.4082 0)
(-920.876 -281.464 0)
(-240.396 -416.882 0)
(-116.304 -431.335 0)
(-147.805 -417.402 0)
(-171.673 -325.753 0)
(-156.239 -210.978 0)
(-130.342 -124.791 0)
(-117.535 -63.281 0)
(-121.833 -28.5885 0)
(-168.07 -20.6945 0)
(-229.134 -20.5967 0)
(-258.197 -1.75148 0)
(-241.819 31.4668 0)
(-201.814 67.7971 0)
(-157.061 100.515 0)
(-119.112 124.255 0)
(-90.9853 138.805 0)
(-71.4045 145.906 0)
(-58.8536 147.92 0)
(-49.808 146.917 0)
(-42.1108 144.383 0)
(-33.8779 141.17 0)
(-25.1304 137.865 0)
(-15.3399 134.613 0)
(-4.43293 131.413 0)
(8.69605 128.446 0)
(23.4265 126.933 0)
(41.5918 125.926 0)
(61.9234 125.901 0)
(91.2942 127.111 0)
(138.205 129.437 0)
(264.641 135.814 0)
(653.251 142.237 0)
(1619.4 153.356 0)
(2220.86 113.318 0)
(851.702 38.8647 0)
(3025.55 46.9517 0)
(-2469.24 6.8268 0)
(-708.505 27.4125 0)
(-1739.03 -42.1086 0)
(-1097.06 -227.486 0)
(-285.317 -313.488 0)
(-70.8257 -255.417 0)
(-68.7122 -186.295 0)
(-82.3185 -113.322 0)
(-89.5317 -52.3483 0)
(-81.4644 -10.37 0)
(-83.0446 23.0777 0)
(-108.06 36.4508 0)
(-163.84 34.7186 0)
(-213.522 37.8816 0)
(-227.699 59.3594 0)
(-206.681 90.473 0)
(-168.167 122.174 0)
(-129.843 148.453 0)
(-100.788 166.18 0)
(-80.9528 176.711 0)
(-68.2123 181.816 0)
(-60.3845 183.467 0)
(-53.8588 183.203 0)
(-47.0905 181.788 0)
(-38.8543 179.686 0)
(-29.6938 177.53 0)
(-19.3488 175.57 0)
(-7.71782 174.865 0)
(6.48586 174.96 0)
(22.2148 176.365 0)
(41.195 178.493 0)
(62.7466 181.653 0)
(93.5445 186.188 0)
(143.177 192.285 0)
(272.562 203.169 0)
(663.81 215.538 0)
(1603.69 226.959 0)
(2159.73 167.308 0)
(817.388 70.9641 0)
(2919.37 74.2364 0)
(-2436.81 75.2507 0)
(-733.795 94.1568 0)
(-1827.76 51.8393 0)
(-1182.39 -32.8176 0)
(-267.311 -63.0326 0)
(6.26399 -6.06188 0)
(-10.8776 42.6226 0)
(-42.5963 69.6749 0)
(-57.0299 99.5999 0)
(-57.6586 125.109 0)
(-72.4166 139.005 0)
(-110.615 132.668 0)
(-166.691 120.661 0)
(-205.389 123.82 0)
(-207.518 143.765 0)
(-181.289 171.129 0)
(-145.942 197.343 0)
(-114.656 216.856 0)
(-91.8815 229.581 0)
(-75.9176 238.475 0)
(-64.8936 247.578 0)
(-57.5169 257.981 0)
(-51.4263 268.329 0)
(-45.5003 277.68 0)
(-37.981 285.742 0)
(-29.0964 293.29 0)
(-17.9078 299.227 0)
(-5.02029 304.63 0)
(10.1414 308.021 0)
(26.8307 312.17 0)
(46.6871 316.54 0)
(69.3384 322.931 0)
(101.54 330.076 0)
(154.569 340.371 0)
(287.049 355.142 0)
(676.175 370.264 0)
(1572.92 365.797 0)
(2070.54 255.351 0)
(762.014 117.755 0)
(2797.21 94.0954 0)
(-2233.33 106.955 0)
(-731.065 177.972 0)
(-1861.39 266.356 0)
(-1207.75 298.749 0)
(-259.534 281.822 0)
(30.9875 300.77 0)
(4.27056 318.728 0)
(-27.4131 328.676 0)
(-36.1139 347.233 0)
(-43.492 358.094 0)
(-75.76 358.256 0)
(-125.737 348.22 0)
(-172.366 344.043 0)
(-191.259 359.292 0)
(-182.111 389.811 0)
(-155.051 424.145 0)
(-124.103 456.003 0)
(-98.7769 482.587 0)
(-79.956 504.483 0)
(-63.6103 523.256 0)
(-49.4152 541.534 0)
(-40.388 561.627 0)
(-34.8765 583.747 0)
(-30.31 607.161 0)
(-23.8111 630.385 0)
(-16.7 654.394 0)
(-8.42172 672.89 0)
(0.756858 691.348 0)
(13.7522 704.569 0)
(30.4243 719.217 0)
(51.5645 732.251 0)
(75.7899 747.427 0)
(110.35 758.947 0)
(167.332 774.048 0)
(301.367 786.124 0)
(674.077 784.712 0)
(1492.96 718.293 0)
(1920.71 451.391 0)
(661.996 138.424 0)
(2630.34 17.1343 0)
(-2129.21 -35.4506 0)
(-580.19 109.125 0)
(-1711.38 497.456 0)
(-1167.48 806.452 0)
(-265.363 843.042 0)
(41.8281 865.63 0)
(16.0133 895.084 0)
(-15.1284 927.044 0)
(-28.6815 961.644 0)
(-47.0361 986.826 0)
(-81.931 1006.66 0)
(-124.311 1033.25 0)
(-156.023 1077.73 0)
(-161.285 1141.34 0)
(-145.023 1213.01 0)
(-117.504 1286.33 0)
(-89.625 1352.23 0)
(-67.9382 1409.63 0)
(-52.6921 1459.41 0)
(-40.214 1502.2 0)
(-27.9172 1540.82 0)
(-16.8389 1575.72 0)
(-7.54887 1605.2 0)
(-0.558297 1630.08 0)
(7.5345 1651.1 0)
(11.8626 1671.47 0)
(17.703 1684.6 0)
(25.5065 1700.22 0)
(36.997 1712.56 0)
(53.5066 1725.69 0)
(73.8708 1734.24 0)
(95.0637 1738.71 0)
(127.193 1732.69 0)
(180.757 1721.54 0)
(297.325 1691.55 0)
(610.811 1616.01 0)
(1251.72 1381.32 0)
(1511.75 790.893 0)
(343.548 145.211 0)
(2645.19 -178.575 0)
(-2707.52 7661.59 0)
(-217.538 -537.71 0)
(-1189.42 522.774 0)
(-874.735 1214.11 0)
(-202.507 1409.89 0)
(81.1378 1452.65 0)
(63.4511 1513.55 0)
(36.7263 1580.99 0)
(21.4943 1650.31 0)
(-0.10896 1710.06 0)
(-31.0215 1762.15 0)
(-57.2575 1820.56 0)
(-68.2129 1890.35 0)
(-60.8998 1971.69 0)
(-42.3857 2054.76 0)
(-20.8943 2132.64 0)
(-5.28736 2200.44 0)
(4.51083 2257.9 0)
(9.24794 2305.36 0)
(14.8359 2344.01 0)
(21.4304 2376.89 0)
(21.6579 2402.04 0)
(17.5047 2416.6 0)
(13.9163 2422.23 0)
(16.0723 2420.59 0)
(15.5836 2415.45 0)
(19.2877 2404.66 0)
(27.6951 2392.16 0)
(38.2925 2376.04 0)
(51.3153 2356.09 0)
(64.1098 2329.89 0)
(74.3028 2293.75 0)
(93.8065 2247.97 0)
(127.688 2189.11 0)
(199.678 2106.06 0)
(375.124 1966.3 0)
(697.84 1582.37 0)
(729.552 806.381 0)
(-272.219 -446.987 0)
(3321.33 5349.51 0)
(-2690.18 353722 0)
(-7459.41 4668.31 0)
(-23.2563 -567.493 0)
(-312.623 110.162 0)
(-35.5006 454.84 0)
(141.714 465.19 0)
(139.684 501.245 0)
(116.656 541.918 0)
(95.7017 579.117 0)
(60.7404 611.991 0)
(24.5469 641.998 0)
(-0.772252 681.901 0)
(-10.3927 728.016 0)
(-2.85718 775.283 0)
(10.0766 818.942 0)
(22.8818 852.949 0)
(31.0813 878.44 0)
(33.1661 896.217 0)
(30.2896 907.587 0)
(28.7163 915.903 0)
(28.0008 922.685 0)
(21.4252 927.677 0)
(11.9039 931.793 0)
(3.28457 934.893 0)
(1.0073 936.524 0)
(-3.49085 934.937 0)
(-4.74282 932.242 0)
(-2.06558 925.759 0)
(2.23443 916.415 0)
(9.03081 903.217 0)
(13.805 885.987 0)
(16.1248 865.122 0)
(26.3511 838.446 0)
(44.0106 807.874 0)
(82.6216 760.402 0)
(106.162 668.677 0)
(133.983 370.367 0)
(-443.81 -214.763 0)
(4721.47 4041.21 0)
(5097.95 288524 0)
(330623 -345812 0)
(-341624 6698.35 0)
(-5581.81 4723.94 0)
(110.422 4344.73 0)
(139.61 4273.73 0)
(125.856 4144 0)
(137.389 3926.06 0)
(111.766 3766.16 0)
(89.0193 3635.57 0)
(60.4856 3544.43 0)
(36.3467 3509.54 0)
(25.6321 3495.7 0)
(21.7734 3499.75 0)
(26.7197 3493.9 0)
(32.456 3472.61 0)
(36.4407 3435.62 0)
(36.407 3389.44 0)
(32.5982 3338.28 0)
(28.218 3286.88 0)
(29.3849 3241.63 0)
(32.776 3204.08 0)
(30.4348 3180.41 0)
(24.4584 3168.56 0)
(18.475 3160.57 0)
(16.1152 3158.65 0)
(11.4575 3152.87 0)
(10.4431 3153.86 0)
(12.4434 3143.71 0)
(16.57 3135.41 0)
(21.9937 3104.78 0)
(27.4005 3070.39 0)
(28.491 3016.11 0)
(38.6403 2968.87 0)
(52.4813 2882.89 0)
(65.542 2800.81 0)
(-0.728833 2664.49 0)
(-153.475 2700.07 0)
(4266.91 3278.84 0)
(277967 5663.04 0)
(-266893 -277844 0)
(330623 345812 0)
(-341624 -6698.35 0)
(-5581.81 -4723.94 0)
(110.422 -4344.73 0)
(139.61 -4273.73 0)
(125.856 -4144 0)
(137.389 -3926.06 0)
(111.766 -3766.16 0)
(89.0193 -3635.57 0)
(60.4856 -3544.43 0)
(36.3467 -3509.54 0)
(25.6321 -3495.7 0)
(21.7734 -3499.75 0)
(26.7197 -3493.9 0)
(32.456 -3472.61 0)
(36.4407 -3435.62 0)
(36.407 -3389.44 0)
(32.5982 -3338.28 0)
(28.218 -3286.88 0)
(29.3849 -3241.63 0)
(32.776 -3204.08 0)
(30.4348 -3180.41 0)
(24.4584 -3168.56 0)
(18.475 -3160.57 0)
(16.1152 -3158.65 0)
(11.4575 -3152.87 0)
(10.4431 -3153.86 0)
(12.4434 -3143.71 0)
(16.57 -3135.41 0)
(21.9937 -3104.78 0)
(27.4005 -3070.39 0)
(28.491 -3016.11 0)
(38.6403 -2968.87 0)
(52.4813 -2882.89 0)
(65.542 -2800.81 0)
(-0.728833 -2664.49 0)
(-153.475 -2700.07 0)
(4266.91 -3278.84 0)
(277967 -5663.04 0)
(-266893 277844 0)
(-2690.18 -353722 0)
(-7459.41 -4668.31 0)
(-23.2563 567.493 0)
(-312.623 -110.162 0)
(-35.5006 -454.84 0)
(141.714 -465.19 0)
(139.684 -501.245 0)
(116.656 -541.918 0)
(95.7017 -579.117 0)
(60.7404 -611.991 0)
(24.5469 -641.998 0)
(-0.772252 -681.901 0)
(-10.3927 -728.016 0)
(-2.85718 -775.283 0)
(10.0766 -818.942 0)
(22.8818 -852.949 0)
(31.0813 -878.44 0)
(33.1661 -896.217 0)
(30.2896 -907.587 0)
(28.7163 -915.903 0)
(28.0008 -922.685 0)
(21.4252 -927.677 0)
(11.9039 -931.793 0)
(3.28457 -934.893 0)
(1.0073 -936.524 0)
(-3.49085 -934.937 0)
(-4.74282 -932.242 0)
(-2.06558 -925.759 0)
(2.23443 -916.415 0)
(9.03081 -903.217 0)
(13.805 -885.987 0)
(16.1248 -865.122 0)
(26.3511 -838.446 0)
(44.0106 -807.874 0)
(82.6216 -760.402 0)
(106.162 -668.677 0)
(133.983 -370.367 0)
(-443.81 214.763 0)
(4721.47 -4041.21 0)
(5097.95 -288524 0)
(-2707.52 -7661.59 0)
(-217.538 537.71 0)
(-1189.42 -522.774 0)
(-874.735 -1214.11 0)
(-202.507 -1409.89 0)
(81.1378 -1452.65 0)
(63.4511 -1513.55 0)
(36.7263 -1580.99 0)
(21.4943 -1650.31 0)
(-0.10896 -1710.06 0)
(-31.0215 -1762.15 0)
(-57.2575 -1820.56 0)
(-68.2129 -1890.35 0)
(-60.8998 -1971.69 0)
(-42.3857 -2054.76 0)
(-20.8943 -2132.64 0)
(-5.28736 -2200.44 0)
(4.51083 -2257.9 0)
(9.24794 -2305.36 0)
(14.8359 -2344.01 0)
(21.4304 -2376.89 0)
(21.6579 -2402.04 0)
(17.5047 -2416.6 0)
(13.9163 -2422.23 0)
(16.0723 -2420.59 0)
(15.5836 -2415.45 0)
(19.2877 -2404.66 0)
(27.6951 -2392.16 0)
(38.2925 -2376.04 0)
(51.3153 -2356.09 0)
(64.1098 -2329.89 0)
(74.3028 -2293.75 0)
(93.8065 -2247.97 0)
(127.688 -2189.11 0)
(199.678 -2106.06 0)
(375.124 -1966.3 0)
(697.84 -1582.37 0)
(729.552 -806.381 0)
(-272.219 446.987 0)
(3321.33 -5349.51 0)
(-2129.21 35.4506 0)
(-580.19 -109.125 0)
(-1711.38 -497.456 0)
(-1167.48 -806.452 0)
(-265.363 -843.042 0)
(41.8281 -865.63 0)
(16.0133 -895.084 0)
(-15.1284 -927.044 0)
(-28.6815 -961.644 0)
(-47.0361 -986.826 0)
(-81.931 -1006.66 0)
(-124.311 -1033.25 0)
(-156.023 -1077.73 0)
(-161.285 -1141.34 0)
(-145.023 -1213.01 0)
(-117.504 -1286.33 0)
(-89.625 -1352.23 0)
(-67.9382 -1409.63 0)
(-52.6921 -1459.41 0)
(-40.214 -1502.2 0)
(-27.9172 -1540.82 0)
(-16.8389 -1575.72 0)
(-7.54887 -1605.2 0)
(-0.558297 -1630.08 0)
(7.5345 -1651.1 0)
(11.8626 -1671.47 0)
(17.703 -1684.6 0)
(25.5065 -1700.22 0)
(36.997 -1712.56 0)
(53.5066 -1725.69 0)
(73.8708 -1734.24 0)
(95.0637 -1738.71 0)
(127.193 -1732.69 0)
(180.757 -1721.54 0)
(297.325 -1691.55 0)
(610.811 -1616.01 0)
(1251.72 -1381.32 0)
(1511.75 -790.893 0)
(343.548 -145.211 0)
(2645.19 178.575 0)
(-2233.33 -106.955 0)
(-731.065 -177.972 0)
(-1861.39 -266.356 0)
(-1207.75 -298.749 0)
(-259.534 -281.822 0)
(30.9875 -300.77 0)
(4.27056 -318.728 0)
(-27.4131 -328.676 0)
(-36.1139 -347.233 0)
(-43.492 -358.094 0)
(-75.76 -358.256 0)
(-125.737 -348.22 0)
(-172.366 -344.043 0)
(-191.259 -359.292 0)
(-182.111 -389.811 0)
(-155.051 -424.145 0)
(-124.103 -456.003 0)
(-98.7769 -482.587 0)
(-79.956 -504.483 0)
(-63.6103 -523.256 0)
(-49.4152 -541.534 0)
(-40.388 -561.627 0)
(-34.8765 -583.747 0)
(-30.31 -607.161 0)
(-23.8111 -630.385 0)
(-16.7 -654.394 0)
(-8.42172 -672.89 0)
(0.756858 -691.348 0)
(13.7522 -704.569 0)
(30.4243 -719.217 0)
(51.5645 -732.251 0)
(75.7899 -747.427 0)
(110.35 -758.947 0)
(167.332 -774.048 0)
(301.367 -786.124 0)
(674.077 -784.712 0)
(1492.96 -718.293 0)
(1920.71 -451.391 0)
(661.996 -138.424 0)
(2630.34 -17.1343 0)
(-2436.81 -75.2507 0)
(-733.795 -94.1568 0)
(-1827.76 -51.8393 0)
(-1182.39 32.8176 0)
(-267.311 63.0326 0)
(6.26399 6.06188 0)
(-10.8776 -42.6226 0)
(-42.5963 -69.6749 0)
(-57.0299 -99.5999 0)
(-57.6586 -125.109 0)
(-72.4166 -139.005 0)
(-110.615 -132.668 0)
(-166.691 -120.661 0)
(-205.389 -123.82 0)
(-207.518 -143.765 0)
(-181.289 -171.129 0)
(-145.942 -197.343 0)
(-114.656 -216.856 0)
(-91.8815 -229.581 0)
(-75.9176 -238.475 0)
(-64.8936 -247.578 0)
(-57.5169 -257.981 0)
(-51.4263 -268.329 0)
(-45.5003 -277.68 0)
(-37.981 -285.742 0)
(-29.0964 -293.29 0)
(-17.9078 -299.227 0)
(-5.02029 -304.63 0)
(10.1414 -308.021 0)
(26.8307 -312.17 0)
(46.6871 -316.54 0)
(69.3384 -322.931 0)
(101.54 -330.076 0)
(154.569 -340.371 0)
(287.049 -355.142 0)
(676.175 -370.264 0)
(1572.92 -365.797 0)
(2070.54 -255.351 0)
(762.014 -117.755 0)
(2797.21 -94.0954 0)
(-2469.24 -6.8268 0)
(-708.505 -27.4125 0)
(-1739.03 42.1086 0)
(-1097.06 227.486 0)
(-285.317 313.488 0)
(-70.8257 255.417 0)
(-68.7122 186.295 0)
(-82.3185 113.322 0)
(-89.5317 52.3483 0)
(-81.4644 10.37 0)
(-83.0446 -23.0777 0)
(-108.06 -36.4508 0)
(-163.84 -34.7186 0)
(-213.522 -37.8816 0)
(-227.699 -59.3594 0)
(-206.681 -90.473 0)
(-168.167 -122.174 0)
(-129.843 -148.453 0)
(-100.788 -166.18 0)
(-80.9528 -176.711 0)
(-68.2123 -181.816 0)
(-60.3845 -183.467 0)
(-53.8588 -183.203 0)
(-47.0905 -181.788 0)
(-38.8543 -179.686 0)
(-29.6938 -177.53 0)
(-19.3488 -175.57 0)