/*--------------------------------*- C++ -*----------------------------------*\
| =========                 |                                                 |
| \\      /  F ield         | OpenFOAM: The Open Source CFD Toolbox           |
|  \\    /   O peration     | Version:  v1912                                 |
|   \\  /    A nd           | Website:  www.openfoam.com                      |
|    \\/     M anipulation  |                                                 |
\*---------------------------------------------------------------------------*/
FoamFile
{
    version     2.0;
    format      ascii;
    class       volScalarField;
    location    "8.5";
    object      p;
}
// * * * * * * * * * * * * * * * * * * * * * * * * * * * * * * * * * * * * * //

dimensions      [0 2 -2 0 0 0 0];


internalField   nonuniform List<scalar> 
10000
(
2.95941e-06
0.000100903
-0.000122547
-0.000712309
-0.00161846
-0.00278461
-0.00415355
-0.00567041
-0.00728539
-0.0089545
-0.0106391
-0.0123054
-0.0139241
-0.0154698
-0.0169203
-0.0182569
-0.0194631
-0.0205252
-0.0214317
-0.0221728
-0.0227408
-0.0231294
-0.023334
-0.0233512
-0.0231788
-0.022816
-0.0222627
-0.0215201
-0.0205901
-0.0194755
-0.0181798
-0.0167072
-0.0150627
-0.0132518
-0.0112806
-0.00915575
-0.00688441
-0.00447417
-0.00193309
0.000730384
0.00350741
0.00638878
0.00936498
0.0124262
0.0155622
0.0187629
0.0220174
0.0253151
0.028645
0.0319959
0.0353565
0.0387156
0.0420616
0.0453832
0.0486688
0.0519071
0.0550867
0.0581963
0.0612248
0.0641613
0.0669951
0.0697158
0.0723133
0.0747779
0.0771003
0.0792717
0.0812838
0.0831289
0.0848
0.0862907
0.0875955
0.0887096
0.0896292
0.0903514
0.0908744
0.0911974
0.0913209
0.0912466
0.0909776
0.0905184
0.0898749
0.0890549
0.0880679
0.0869253
0.0856403
0.0842287
0.0827085
0.0811005
0.0794283
0.0777187
0.0760024
0.0743139
0.0726921
0.0711808
0.0698289
0.0686892
0.0678159
0.0672603
0.0670651
0.0671763
-9.05805e-05
5.96543e-06
-0.000211535
-0.000738567
-0.00152405
-0.00252842
-0.00370974
-0.00502464
-0.00643187
-0.00789361
-0.00937566
-0.0108475
-0.012282
-0.0136554
-0.0149468
-0.0161378
-0.0172129
-0.0181584
-0.018963
-0.0196169
-0.0201122
-0.0204426
-0.0206031
-0.0205901
-0.0204012
-0.0200349
-0.019491
-0.0187701
-0.0178738
-0.0168044
-0.0155649
-0.0141592
-0.0125917
-0.0108674
-0.00899195
-0.00697153
-0.00481277
-0.0025228
-0.000109154
0.00242022
0.00505701
0.00779252
0.0106178
0.0135234
0.0164999
0.0195374
0.022626
0.0257552
0.0289148
0.0320942
0.0352826
0.0384693
0.0416435
0.0447943
0.0479109
0.0509824
0.0539982
0.0569475
0.0598199
0.0626051
0.0652931
0.067874
0.0703385
0.0726774
0.074882
0.0769442
0.0788564
0.0806113
0.0822026
0.0836245
0.0848719
0.0859407
0.0868275
0.0875299
0.0880465
0.0883769
0.0885219
0.0884836
0.0882652
0.0878715
0.0873086
0.0865842
0.0857076
0.0846901
0.0835446
0.0822865
0.0809329
0.0795035
0.0780208
0.0765096
0.0749981
0.0735173
0.0721017
0.0707887
0.0696187
0.0686333
0.067872
0.0673705
0.0671757
0.0672873
0.000133093
0.000224317
7.03097e-06
-0.000487739
-0.00120463
-0.00211065
-0.00317185
-0.00435209
-0.00561628
-0.00693153
-0.00826753
-0.00959669
-0.0108942
-0.0121379
-0.0133081
-0.0143876
-0.0153613
-0.0162161
-0.0169409
-0.0175263
-0.0179643
-0.0182485
-0.0183741
-0.018337
-0.0181348
-0.0177659
-0.0172296
-0.0165264
-0.0156574
-0.0146246
-0.0134309
-0.0120795
-0.0105747
-0.00892093
-0.00712358
-0.00518838
-0.00312157
-0.000929857
0.00137962
0.00379934
0.0063214
0.00893756
0.0116393
0.0144176
0.0172635
0.0201676
0.0231203
0.0261117
0.0291321
0.0321711
0.0352188
0.0382647
0.0412986
0.04431
0.0472887
0.0502243
0.0531065
0.0559253
0.0586707
0.0613329
0.0639023
0.0663698
0.0687263
0.0709633
0.0730726
0.0750465
0.0768778
0.0785599
0.0800869
0.0814532
0.0826545
0.0836868
0.0845471
0.0852334
0.0857447
0.0860807
0.0862426
0.0862326
0.086054
0.0857116
0.0852116
0.0845615
0.0837706
0.0828496
0.0818113
0.0806701
0.0794425
0.0781472
0.0768049
0.0754389
0.0740749
0.0727408
0.0714673
0.0702868
0.0692338
0.068343
0.0676464
0.0671742
0.0669801
0.067093
0.000721803
0.000752246
0.000502712
7.1184e-06
-0.000683332
-0.00153876
-0.00252955
-0.00362451
-0.00479321
-0.00600678
-0.00723827
-0.00846286
-0.00965791
-0.010803
-0.01188
-0.0128726
-0.0137666
-0.0145495
-0.0152108
-0.0157411
-0.0161328
-0.0163798
-0.016477
-0.0164205
-0.0162077
-0.0158369
-0.0153074
-0.0146192
-0.0137735
-0.0127719
-0.0116169
-0.0103117
-0.00886002
-0.00726627
-0.00553533
-0.00367264
-0.00168409
0.000423934
0.00264466
0.00497092
0.00739518
0.00990957
0.0125059
0.0151757
0.0179103
0.0207006
0.0235374
0.0264114
0.0293131
0.0322327
0.0351605
0.0380867
0.0410012
0.0438942
0.0467557
0.0495758
0.0523448
0.055053
0.0576908
0.0602488
0.0627181
0.0650897
0.0673551
0.0695061
0.0715351
0.0734347
0.0751981
0.076819
0.0782919
0.0796116
0.0807741
0.0817757
0.0826137
0.0832863
0.0837927
0.0841329
0.0843081
0.0843206
0.0841738
0.0838724
0.0834225
0.0828315
0.0821082
0.0812631
0.0803083
0.0792575
0.0781263
0.0769321
0.0756944
0.0744345
0.0731757
0.0719435
0.0707649
0.0696688
0.0686848
0.0678434
0.0671726
0.0667004
0.0664781
0.0665398
0.0016282
0.00154046
0.0012218
0.000696734
3.77609e-06
-0.000830441
-0.00177988
-0.00281773
-0.00391769
-0.00505454
-0.0062045
-0.00734541
-0.00845687
-0.0095203
-0.0105189
-0.0114377
-0.0122634
-0.0129843
-0.0135902
-0.0140725
-0.0144239
-0.0146381
-0.0147104
-0.0146371
-0.0144153
-0.0140435
-0.0135206
-0.0128468
-0.0120229
-0.0110504
-0.00993155
-0.00866931
-0.00726718
-0.00572924
-0.00406012
-0.00226494
-0.00034928
0.0016808
0.00381886
0.00605805
0.00839119
0.0108107
0.0133089
0.0158776
0.0185084
0.0211927
0.0239216
0.0266863
0.0294775
0.032286
0.0351023
0.037917
0.0407206
0.0435036
0.0462563
0.0489694
0.0516333
0.054239
0.0567771
0.0592389
0.0616155
0.0638985
0.0660797
0.0681515
0.0701063
0.0719374
0.0736382
0.0752027
0.0766258
0.0779026
0.0790293
0.0800024
0.0808197
0.0814793
0.0819807
0.082324
0.0825104
0.0825423
0.0824231
0.0821573
0.0817508
0.0812108
0.0805458
0.0797656
0.0788818
0.0779072
0.0768565
0.0757458
0.074593
0.0734177
0.072241
0.0710855
0.0699754
0.0689359
0.0679929
0.0671728
0.0665003
0.066001
0.0657152
0.0656691
0.00279909
0.00255194
0.00213353
0.0015533
0.000832119
-6.78176e-06
-0.000940511
-0.00194627
-0.0030015
-0.00408434
-0.00517395
-0.00625071
-0.00729637
-0.00829418
-0.00922886
-0.0100867
-0.0108553
-0.0115239
-0.012083
-0.0125244
-0.0128411
-0.0130274
-0.0130786
-0.012991
-0.0127621
-0.01239
-0.011874
-0.0112139
-0.0104104
-0.00946503
-0.00837973
-0.00715726
-0.00580092
-0.00431456
-0.00270255
-0.000969735
0.000878577
0.00283664
0.00489831
0.00705705
0.00930599
0.0116379
0.0140454
0.0165206
0.0190555
0.0216419
0.0242713
0.026935
0.0296243
0.0323302
0.0350438
0.0377558
0.0404572
0.0431389
0.0457915
0.0484061
0.0509736
0.053485
0.0559318
0.0583051
0.0605968
0.0627987
0.0649029
0.0669021
0.0687893
0.0705577
0.0722013
0.0737144
0.0750919
0.0763295
0.0774233
0.0783704
0.0791683
0.0798156
0.0803118
0.080657
0.0808525
0.0809006
0.0808047
0.080569
0.0801993
0.0797023
0.0790862
0.0783602
0.0775352
0.0766231
0.0756376
0.0745935
0.0735072
0.0723964
0.0712801
0.0701786
0.069113
0.0681055
0.0671785
0.0663545
0.0656557
0.0651044
0.0647251
0.0645298
0.00418141
0.00374809
0.00320675
0.00254973
0.00177802
0.000911648
-2.92292e-05
-0.00102546
-0.00205789
-0.00310771
-0.00415675
-0.0051878
-0.00618468
-0.0071324
-0.00801719
-0.00882657
-0.00954929
-0.0101754
-0.010696
-0.0111037
-0.0113918
-0.0115551
-0.0115889
-0.01149
-0.0112558
-0.0108845
-0.0103754
-0.00972842
-0.00894408
-0.00802371
-0.00696925
-0.00578324
-0.00446881
-0.0030296
-0.00146976
0.00020608
0.00199288
0.00388517
0.00587707
0.00796235
0.0101344
0.0123864
0.014711
0.0171009
0.0195483
0.0220454
0.0245839
0.0271556
0.029752
0.0323646
0.0349845
0.0376031
0.0402116
0.0428011
0.0453628
0.047888
0.0503679
0.0527941
0.0551579
0.0574513
0.0596661
0.0617947
0.0638294
0.0657632
0.0675892
0.0693011
0.0708932
0.0723598
0.0736963
0.0748985
0.0759626
0.0768858
0.077666
0.0783017
0.0787924
0.0791383
0.0793408
0.0794019
0.0793248
0.0791138
0.0787741
0.0783122
0.0777357
0.0770533
0.076275
0.075412
0.0744768
0.0734831
0.0724456
0.0713803
0.0703043
0.0692355
0.0681926
0.0671947
0.0662611
0.065411
0.064664
0.0640396
0.0635436
0.0631718
0.00572515
0.00508943
0.00440858
0.0036577
0.00281731
0.00190456
0.0009373
-6.86074e-05
-0.00109712
-0.00213214
-0.00315801
-0.00415971
-0.00512302
-0.00603465
-0.00688233
-0.00765479
-0.00834188
-0.00893452
-0.00942466
-0.00980534
-0.0100706
-0.0102153
-0.0102356
-0.010128
-0.00989027
-0.00952085
-0.00901893
-0.00838444
-0.00761797
-0.00672074
-0.0056946
-0.00454196
-0.00326578
-0.00186954
-0.000357208
0.0012668
0.00299765
0.00483011
0.00675856
0.00877703
0.0108792
0.0130584
0.0153078
0.0176202
0.0199882
0.0224041
0.0248602
0.0273484
0.0298606
0.0323884
0.0349235
0.0374575
0.0399819
0.0424881
0.0449677
0.0474121
0.0498131
0.0521623
0.0544515
0.0566729
0.0588187
0.0608813
0.0628536
0.0647286
0.0664999
0.0681612
0.069707
0.0711321
0.0724318
0.0736021
0.0746394
0.0755411
0.0763049
0.0769296
0.0774146
0.0777602
0.0779675
0.0780385
0.0779763
0.0777848
0.0774689
0.0770346
0.0764891
0.0758405
0.075098
0.0742718
0.0733735
0.0724154
0.0714109
0.0703743
0.0693209
0.0682663
0.067227
0.0662195
0.0652603
0.0643653
0.0635521
0.0628377
0.0622082
0.061643
0.00738577
0.0065389
0.00570742
0.00484981
0.00392638
0.0029519
0.00194234
0.000910601
-0.000130046
-0.00116598
-0.0021838
-0.00317052
-0.00411375
-0.00500182
-0.00582385
-0.00656984
-0.00723068
-0.00779817
-0.00826508
-0.00862505
-0.00887265
-0.0090033
-0.00901327
-0.00889963
-0.0086602
-0.00829358
-0.00779906
-0.00717661
-0.00642685
-0.00555098
-0.00455079
-0.00342858
-0.00218719
-0.000829966
0.000639294
0.00221635
0.00389654
0.00567485
0.00754589
0.00950391
0.0115429
0.0136564
0.0158377
0.0180801
0.0203763
0.0227189
0.0251006
0.0275134
0.0299496
0.0324011
0.0348599
0.0373177
0.0397664
0.0421978
0.0446036
0.0469756
0.0493058
0.0515861
0.0538086
0.0559656
0.0580497
0.0600535
0.0619701
0.0637928
0.0655153
0.0671317
0.0686364
0.0700245
0.0712914
0.0724333
0.0734466
0.0743288
0.0750778
0.0756921
0.0761713
0.0765155
0.0767258
0.0768039
0.0767528
0.076576
0.0762782
0.0758648
0.0753425
0.0747187
0.0740019
0.0732015
0.0723279
0.0713923
0.0704068
0.0693841
0.0683377
0.0672814
0.0662294
0.0651961
0.0641951
0.0632398
0.0623461
0.0615287
0.0607542
0.0599862
0.00912462
0.00806296
0.00707394
0.00610024
0.00508269
0.00403421
0.00296928
0.0018982
0.000831792
-0.000218549
-0.00124144
-0.00222578
-0.00316086
-0.00403651
-0.00484321
-0.00557214
-0.00621523
-0.00676519
-0.00721553
-0.00756057
-0.00779542
-0.00791599
-0.00791891
-0.00780158
-0.00756207
-0.00719914
-0.00671222
-0.00610135
-0.0053672
-0.00451097
-0.00353443
-0.00243983
-0.00122992
9.20982e-05
0.00152255
0.00305733
0.00469198
0.00642162
0.00824107
0.0101448
0.012127
0.0141814
0.0163018
0.0184813
0.0207131
0.0229901
0.0253051
0.0276504
0.0300186
0.0324019
0.0347925
0.0371823
0.0395636
0.0419282
0.0442683
0.046576
0.0488432
0.0510624
0.0532257
0.0553258
0.0573553
0.0593072
0.0611747
0.0629513
0.0646309
0.0662076
0.0676762
0.0690318
0.0702698
0.0713866
0.0723787
0.0732435
0.073979
0.0745837
0.075057
0.075399
0.0756106
0.0756934
0.0756499
0.0754836
0.0751985
0.0747999
0.0742936
0.0736865
0.0729864
0.0722018
0.0713421
0.0704173
0.0694383
0.0684164
0.0673634
0.0662915
0.065213
0.06414
0.063084
0.062056
0.0610705
0.0601404
0.0592137
0.0582387
0.0109083
0.00963162
0.00848127
0.00738496
0.00626498
0.00513283
0.00400193
0.00288033
0.0017767
0.000700467
-0.000338819
-0.00133174
-0.00226913
-0.00314223
-0.00394279
-0.0046631
-0.00529611
-0.0058354
-0.00627525
-0.00661062
-0.0068372
-0.00695136
-0.00695017
-0.00683133
-0.0065932
-0.00623476
-0.00575558
-0.0051558
-0.00443616
-0.0035979
-0.00264278
-0.00157305
-0.000391373
0.000899115
0.00229487
0.00379193
0.00538595
0.00707223
0.00884573
0.0107011
0.0126327
0.0146347
0.0167007
0.0188244
0.0209991
0.0232178
0.0254735
0.0277591
0.030067
0.0323899
0.0347201
0.0370499
0.0393717
0.0416775
0.0439598
0.0462108
0.0484228
0.0505883
0.0526998
0.0547501
0.056732
0.0586386
0.0604633
0.0621998
0.0638421
0.0653845
0.0668218
0.0681491
0.0693622
0.0704572
0.0714308
0.0722804
0.0730038
0.0735996
0.0740672
0.0744063
0.0746178
0.074703
0.0746642
0.0745043
0.0742274
0.0738378
0.0733411
0.0727435
0.0720519
0.0712742
0.0704186
0.0694943
0.0685109
0.0674783
0.0664071
0.0653077
0.0641907
0.0630665
0.0619447
0.060834
0.059748
0.0586983
0.0576152
0.0564324
0.0127079
0.0112183
0.00990504
0.00868183
0.00745331
0.00623004
0.0050247
0.00384343
0.00269302
0.00158118
0.000515834
-0.000495126
-0.00144395
-0.00232317
-0.00312569
-0.00384489
-0.00447466
-0.00500943
-0.00544423
-0.00577469
-0.00599704
-0.00610813
-0.00610544
-0.00598705
-0.00575159
-0.00539829
-0.00492688
-0.00433765
-0.00363141
-0.00280946
-0.00187359
-0.000826028
0.000330564
0.00159312
0.00295819
0.00442191
0.00598009
0.00762814
0.00936118
0.011174
0.0130612
0.0150169
0.0170352
0.0191098
0.0212342
0.0234018
0.0256057
0.0278388
0.0300941
0.0323641
0.0346416
0.0369191
0.0391889
0.0414437
0.0436758
0.0458776
0.0480418
0.050161
0.0522278
0.0542352
0.0561762
0.058044
0.0598322
0.0615344
0.0631449
0.0646581
0.0660688
0.0673723
0.0685641
0.0696406
0.0705985
0.0714349
0.0721479
0.0727358
0.0731977
0.0735336
0.0737438
0.0738295
0.0737926
0.073636
0.0733628
0.0729774
0.0724845
0.0718899
0.0711996
0.0704208
0.0695608
0.0686279
0.0676304
0.0665773
0.0654776
0.0643405
0.0631751
0.0619902
0.0607936
0.0595924
0.0583994
0.0572256
0.0559841
0.0545949
0.0144988
0.0127994
0.0113233
0.00997055
0.00862918
0.00730914
0.00602267
0.00477432
0.00356923
0.00241364
0.00131403
0.00027692
-0.000691214
-0.00158408
-0.00239568
-0.00312038
-0.00375295
-0.00428867
-0.00472327
-0.00505303
-0.00527473
-0.00538572
-0.00538388
-0.00526763
-0.00503593
-0.00468824
-0.00422453
-0.00364522
-0.00295122
-0.00214392
-0.00122512
-0.000197092
0.000937519
0.00217568
0.00351398
0.00494868
0.00647566
0.00809048
0.00978837
0.0115643
0.0134128
0.0153285
0.0173054
0.0193376
0.0214186
0.023542
0.0257011
0.027889
0.0300989
0.0323235
0.0345557
0.0367882
0.0390137
0.0412248
0.0434141
0.0455742
0.0476978
0.0497778
0.0518069
0.0537781
0.0556848
0.0575201
0.0592778
0.0609516
0.0625357
0.0640247
0.0654135
0.0666972
0.0678717
0.068933
0.0698778
0.0707034
0.0714075
0.0719885
0.0724454
0.0727777
0.0729857
0.0730704
0.0730333
0.0728768
0.0726038
0.0722181
0.071724
0.0711265
0.0704312
0.0696443
0.0687725
0.0678229
0.0668031
0.0657208
0.064584
0.0634006
0.0621784
0.0609249
0.0596464
0.0583485
0.0570438
0.0557428
0.0543424
0.0527497
0.0162592
0.0143542
0.0127162
0.0112326
0.00977547
0.00835447
0.00698168
0.00566028
0.00439405
0.00318793
0.00204714
0.000976991
-1.71997e-05
-0.000930224
-0.00175708
-0.00249304
-0.00313373
-0.00367519
-0.00411385
-0.00444661
-0.00467081
-0.00478426
-0.00478527
-0.00467261
-0.00444554
-0.00410379
-0.00364755
-0.00307742
-0.00239443
-0.00160006
-0.000696172
0.000314952
0.00143064
0.00264788
0.00396329
0.00537318
0.00687353
0.00846
0.0101279
0.0118724
0.0136882
0.0155698
0.0175116
0.0195076
0.0215518
0.0236378
0.025759
0.0279088
0.0300804
0.0322668
0.034461
0.0366559
0.0388443
0.041019
0.0431727
0.0452982
0.0473884
0.049436
0.0514342
0.053376
0.0552547
0.0570638
0.0587968
0.0604478
0.062011
0.0634808
0.0648522
0.0661205
0.0672813
0.0683307
0.0692654
0.0700825
0.0707796
0.0713549
0.0718072
0.0721361
0.0723413
0.0724237
0.0723846
0.0722257
0.0719498
0.0715601
0.0710603
0.070455
0.069749
0.068948
0.0680577
0.0670846
0.0660352
0.0649164
0.0637351
0.0624981
0.0612121
0.0598835
0.0585174
0.0571182
0.0556984
0.0542683
0.0527095
0.0509169
0.0179703
0.0158641
0.0140659
0.0124511
0.0108763
0.00935134
0.00788824
0.00648909
0.00515648
0.00389424
0.0027065
0.0015975
0.000571511
-0.000367229
-0.00121464
-0.00196684
-0.00262026
-0.00317162
-0.00361804
-0.00395701
-0.0041864
-0.00430451
-0.00431004
-0.00420214
-0.00398035
-0.00364468
-0.00319554
-0.00263372
-0.00196042
-0.0011772
-0.000286012
0.000710834
0.00181065
0.0030104
0.00430674
0.00569599
0.00717421
0.00873712
0.0103802
0.0120986
0.0138872
0.0157406
0.0176534
0.0196196
0.0216334
0.0236886
0.0257787
0.0278972
0.0300376
0.0321928
0.0343561
0.0365205
0.038679
0.0408243
0.0429496
0.0450475
0.0471111
0.0491333
0.0511073
0.0530261
0.0548832
0.0566721
0.0583864
0.0600202
0.0615676
0.0630233
0.064382
0.065639
0.0667899
0.0678309
0.0687584
0.0695693
0.0702613
0.0708324
0.0712812
0.0716068
0.0718091
0.0718883
0.0718456
0.0716824
0.0714009
0.0710039
0.0704947
0.0698772
0.0691558
0.0683354
0.067421
0.0664184
0.0653333
0.0641717
0.0629395
0.0616428
0.0602873
0.0588784
0.0574201
0.055916
0.0543787
0.0528186
0.0511027
0.0491141
0.0196157
0.0173127
0.0153564
0.0136105
0.0119171
0.010286
0.00872964
0.00724905
0.00584585
0.00452292
0.00328345
0.00213073
0.00106812
9.89502e-05
-0.000773525
-0.00154623
-0.00221629
-0.00278114
-0.00323848
-0.00358637
-0.00382323
-0.0039478
-0.0039592
-0.00385692
-0.00364083
-0.00331118
-0.00286861
-0.00231412
-0.00164907
-0.000875144
5.61678e-06
0.000990843
0.00207782
0.00326351
0.00454456
0.0059173
0.00737783
0.00892193
0.0105451
0.0122427
0.0140097
0.0158407
0.0177304
0.0196731
0.0216628
0.0236936
0.0257592
0.0278533
0.0299691
0.0321001
0.0342395
0.0363804
0.0385159
0.0406389
0.0427426
0.0448199
0.0468637
0.0488672
0.0508235
0.0527258
0.0545675
0.0563423
0.0580437
0.0596658
0.0612028
0.0626492
0.0639999
0.0652499
0.0663949
0.0674308
0.0683541
0.0691616
0.0698507
0.0704191
0.0708654
0.0711884
0.0713878
0.0714634
0.071416
0.0712469
0.0709577
0.0705507
0.0700289
0.0693957
0.0686547
0.0678103
0.0668671
0.0658299
0.0647038
0.063494
0.0622058
0.0608443
0.0594145
0.0579209
0.0563669
0.0547552
0.0530988
0.0514083
0.0495368
0.0473561
0.0211806
0.0186851
0.0165731
0.0146967
0.0128842
0.0111457
0.00949379
0.00792892
0.0064518
0.00506451
0.0037694
0.00256893
0.00146566
0.000462115
-0.000439217
-0.00123599
-0.00192601
-0.00250734
-0.00297825
-0.00333735
-0.00358353
-0.003716
-0.00373428
-0.00363821
-0.00342798
-0.00310408
-0.00266739
-0.0021191
-0.00146074
-0.000694157
0.000178519
0.00115484
0.00223205
0.00340709
0.00467661
0.00603694
0.00748418
0.00901416
0.0106225
0.0123044
0.0140552
0.0158695
0.017742
0.0196671
0.0216391
0.0236519
0.0256995
0.0277756
0.0298737
0.0319873
0.0341096
0.0362339
0.0383533
0.0404609
0.0425499
0.0446132
0.0466441
0.0486355
0.0505806
0.0524727
0.0543053
0.0560719
0.0577662
0.0593821
0.060914
0.0623562
0.0637034
0.0649508
0.0660938
0.0671284
0.0680506
0.0688574
0.0695458
0.0701135
0.0705587
0.07088
0.0710767
0.0711486
0.071096
0.0709197
0.0706211
0.0702022
0.0696652
0.0690131
0.0682492
0.0673771
0.0664009
0.0653248
0.0641533
0.0628909
0.0615421
0.0601116
0.0586035
0.0570219
0.0553693
0.0536479
0.0518713
0.0500505
0.0480251
0.045656
0.0226518
0.0199681
0.0177027
0.0156968
0.0137651
0.0119182
0.0101692
0.00851795
0.00696432
0.00550972
0.00415581
0.00290431
0.00175706
0.00071587
-0.000217463
-0.00104126
-0.00175398
-0.00235424
-0.0028409
-0.00321303
-0.00347
-0.00361146
-0.0036373
-0.00354774
-0.00334326
-0.00302463
-0.00259295
-0.00204959
-0.00139626
-0.000634955
0.000232066
0.00120226
0.00227282
0.00344066
0.0047024
0.00605439
0.00749272
0.00901324
0.0106116
0.0122831
0.014023
0.0158261
0.0176872
0.0196008
0.0215611
0.0235623
0.0255983
0.027663
0.02975
0.0318527
0.0339647
0.0360791
0.0381893
0.0402883
0.0423693
0.0444255
0.0464499
0.0484358
0.0503762
0.0522645
0.0540941
0.0558585
0.0575514
0.0591668
0.0606988
0.0621418
0.0634903
0.0647396
0.0658847
0.0669216
0.0678462
0.0686552
0.0693454
0.0699145
0.0703602
0.070681
0.0708758
0.0709442
0.0708861
0.070702
0.0703928
0.0699602
0.069406
0.0687327
0.0679429
0.0670401
0.0660275
0.0649089
0.0636882
0.0623694
0.0609565
0.0594534
0.0578639
0.0561913
0.054438
0.0526054
0.0507078
0.0487569
0.0465793
0.0440252
0.0240177
0.0211495
0.018733
0.0165985
0.0145479
0.0125922
0.0107451
0.00900582
0.00737367
0.00584947
0.00443424
0.00312907
0.00193515
0.000853661
-0.000114233
-0.000967462
-0.00170507
-0.00232624
-0.00283033
-0.00321691
-0.00348577
-0.00363695
-0.00367075
-0.00358771
-0.00338863
-0.00307455
-0.0026468
-0.00210694
-0.00145685
-0.000698665
0.000165218
0.00113215
0.00219924
0.00336336
0.0046211
0.00596881
0.00740259
0.00891829
0.0105115
0.0121777
0.0139121
0.0157096
0.017565
0.019473
0.0214277
0.0234235
0.0254542
0.0275139
0.0295963
0.0316948
0.0338031
0.0359144
0.038022
0.0401191
0.0421989
0.0442546
0.0462792
0.048266
0.0502082
0.0520989
0.0539317
0.0556999
0.0573973
0.0590177
0.0605552
0.062004
0.0633588
0.0646143
0.0657658
0.0668089
0.0677394
0.0685537
0.0692486
0.0698212
0.0702694
0.0705912
0.0707852
0.0708507
0.0707872
0.070595
0.0702746
0.0698272
0.0692542
0.0685577
0.06774
0.0668037
0.065752
0.064588
0.0633151
0.0619369
0.0604567
0.0588782
0.0572045
0.0554388
0.0535828
0.0516379
0.0496189
0.0475382
0.04521
0.0424739
0.0252674
0.0222182
0.0196526
0.0173907
0.0152217
0.013157
0.0112111
0.00938258
0.00767041
0.00607484
0.00459633
0.00323542
0.0019927
0.000868799
-0.000135692
-0.00102025
-0.00178447
-0.00242805
-0.00295084
-0.00335287
-0.00363433
-0.00379566
-0.0038375
-0.00376072
-0.00356644
-0.00325598
-0.00283088
-0.00229292
-0.00164413
-0.000886794
-2.34415e-05
0.000943165
0.00201004
0.00317398
0.00443154
0.00577907
0.00721265
0.00872814
0.0103212
0.0119871
0.0137213
0.0155187
0.0173741
0.0192822
0.0212374
0.0232338
0.0252657
0.0273268
0.029411
0.0315119
0.033623
0.0357378
0.0378496
0.0399515
0.0420367
0.0440985
0.0461299
0.0481241
0.0500744
0.0519739
0.053816
0.0555941
0.0573018
0.0589329
0.0604813
0.0619412
0.063307
0.0645736
0.0657358
0.0667891
0.0677291
0.0685521
0.0692546
0.0698335
0.0702863
0.0706109
0.0708055
0.070869
0.0708008
0.0706006
0.0702687
0.0698058
0.069213
0.0684919
0.0676445
0.066673
0.0655799
0.0643681
0.0630405
0.0616002
0.0600504
0.058394
0.056634
0.0547734
0.0528133
0.050755
0.0486143
0.0464042
0.0439265
0.041011
0.026391
0.0231637
0.020451
0.0180629
0.0157759
0.0136023
0.0115571
0.00963864
0.00784534
0.00617706
0.00463379
0.00321555
0.00192241
0.000754472
-0.000288174
-0.00120551
-0.00199763
-0.0026647
-0.00320706
-0.00362514
-0.00391958
-0.00409114
-0.00414081
-0.0040698
-0.00387948
-0.00357146
-0.00314753
-0.00260967
-0.00196009
-0.00120121
-0.000335685
0.000633615
0.0017036
0.00287097
0.00413224
0.00548371
0.00692146
0.00844135
0.010039
0.0117098
0.0134491
0.0152519
0.0171129
0.019027
0.0209885
0.0229918
0.0250309
0.0270998
0.0291923
0.031302
0.0334226
0.0355475
0.03767
0.0397833
0.0418806
0.0439551
0.0459999
0.0480081
0.0499728
0.0518874
0.053745
0.0555391
0.057263
0.0589105
0.0604753
0.0619516
0.0633336
0.0646159
0.0657934
0.0668611
0.0678147
0.06865
0.0693633
0.0699513
0.0704113
0.0707407
0.0709376
0.0710005
0.0709285
0.0707208
0.0703775
0.0698989
0.0692858
0.0685393
0.0676609
0.0666527
0.0655166
0.0642551
0.0628708
0.0613665
0.0597449
0.0580087
0.0561607
0.0542035
0.0521382
0.0499658
0.047703
0.0453637
0.0427376
0.0396446
0.0273792
0.0239764
0.0211183
0.018605
0.0162006
0.0139183
0.0117736
0.00976468
0.00788949
0.00614754
0.00453841
0.00306166
0.0017169
0.000503749
-0.000578174
-0.00152932
-0.00235021
-0.00304148
-0.00360389
-0.00403831
-0.00434572
-0.00452729
-0.00458432
-0.00451828
-0.00433086
-0.00402392
-0.00359948
-0.00305975
-0.00240712
-0.00164415
-0.000773621
0.00020148
0.00127796
0.00245245
0.00372137
0.00508097
0.0065273
0.00805622
0.00966336
0.0113441
0.0130938
0.0149074
0.0167797
0.0187055
0.0206794
0.0226955
0.024748
0.026831
0.0289382
0.0310633
0.0331999
0.0353414
0.0374812
0.0396125
0.0417285
0.0438224
0.0458871
0.0479158
0.0499015
0.0518375
0.0537169
0.055533
0.0572791
0.0589488
0.0605358
0.0620339
0.0634373
0.0647403
0.0659377
0.0670243
0.0679955
0.068847
0.0695746
0.0701749
0.0706448
0.0709815
0.0711828
0.0712468
0.0711722
0.0709581
0.070604
0.0701099
0.0694763
0.0687039
0.0677939
0.0667479
0.0655676
0.0642551
0.0628126
0.0612426
0.0595476
0.0577301
0.0557926
0.0537375
0.0515659
0.0492787
0.0468935
0.044425
0.0416513
0.0383821
0.0282232
0.0246471
0.0216452
0.0190074
0.0164864
0.0140955
0.0118514
0.00975164
0.00779405
0.00597777
0.00430201
0.00276594
0.00136873
0.000109579
-0.00101235
-0.00199793
-0.00284811
-0.00356393
-0.00414655
-0.00459722
-0.00491733
-0.00510837
-0.00517196
-0.00510988
-0.00492406
-0.00461661
-0.0041898
-0.00364604
-0.00298792
-0.00221817
-0.00133969
-0.000355569
0.000730896
0.00191624
0.00319681
0.00456878
0.00602817
0.00757079
0.00919229
0.0108881
0.0126534
0.0144832
0.0163725
0.0183159
0.0203079
0.022343
0.0244151
0.0265184
0.0286467
0.0307936
0.0329527
0.0351174
0.0372812
0.0394371
0.0415785
0.0436983
0.0457895
0.0478453
0.0498585
0.0518224
0.0537298
0.0555742
0.0573485
0.0590464
0.0606612
0.0621867
0.0636169
0.0649458
0.0661681
0.0672782
0.0682714
0.069143
0.0698888
0.0705049
0.0709878
0.0713345
0.0715426
0.0716097
0.0715343
0.0713151
0.0709512
0.0704423
0.0697885
0.0689902
0.0680483
0.0669639
0.0657386
0.0643741
0.0628723
0.0612354
0.0594657
0.0575655
0.0555373
0.0533833
0.0511045
0.0487018
0.0461937
0.043596
0.0406749
0.0372305
0.0289147
0.025167
0.0220224
0.0192611
0.0166238
0.0141248
0.0117812
0.00959059
0.00755033
0.00565932
0.00391646
0.00232055
0.000870407
-0.0004352
-0.00159751
-0.00261781
-0.00349744
-0.00423782
-0.00484048
-0.00530704
-0.00563925
-0.00583893
-0.00590803
-0.00584861
-0.00566286
-0.00535312
-0.00492187
-0.00437176
-0.00370556
-0.00292617
-0.00203663
-0.00104017
5.98545e-05
0.00125987
0.00255616
0.00394481
0.00542178
0.00698284
0.0086236
0.0103395
0.0121257
0.0139773
0.0158892
0.0178559
0.0198721
0.0219321
0.02403
0.0261599
0.0283156
0.0304907
0.0326789
0.0348734
0.0370677
0.039255
0.0414283
0.0435807
0.0457051
0.0477945
0.0498419
0.05184
0.053782
0.0556609
0.0574698
0.0592018
0.0608504
0.0624091
0.0638716
0.0652318
0.066484
0.0676225
0.0686424
0.0695385
0.0703064
0.070942
0.0714414
0.0718013
0.0720189
0.0720916
0.0720174
0.0717948
0.0714225
0.0708998
0.0702266
0.0694028
0.0684291
0.0673063
0.0660355
0.0646183
0.0630564
0.0613518
0.0595064
0.0575226
0.0554026
0.0531487
0.0507619
0.0482429
0.0456115
0.0428842
0.0398157
0.0361963
0.0294457
0.0255276
0.0222413
0.0193572
0.0166041
0.0139972
0.0115543
0.00927276
0.00714973
0.00518381
0.00337363
0.00171765
0.00021435
-0.00113787
-0.00234063
-0.0033956
-0.00430451
-0.00506915
-0.00569138
-0.00617317
-0.0065166
-0.00672384
-0.00679713
-0.00673882
-0.00655136
-0.00623732
-0.00579941
-0.00524044
-0.0045634
-0.00377136
-0.00286753
-0.00185525
-0.00073798
0.000480626
0.00179676
0.00320646
0.00470558
0.00628987
0.00795487
0.009696
0.0115085
0.0133873
0.0153274
0.0173233
0.0193695
0.0214605
0.0235904
0.0257532
0.0279426
0.0301525
0.0323762
0.0346072
0.0368387
0.0390639
0.0412758
0.0434675
0.0456318
0.0477616
0.0498496
0.0518887
0.0538718
0.0557917
0.0576413
0.0594138
0.0611022
0.0627
0.0642006
0.0655976
0.0668851
0.0680572
0.0691085
0.0700338
0.0708282
0.0714873
0.072007
0.0723835
0.0726138
0.0726948
0.0726243
0.0724004
0.0720215
0.0714865
0.070795
0.0699466
0.0689415
0.0677804
0.0664642
0.0649942
0.0633717
0.0615987
0.059677
0.0576087
0.055396
0.0530414
0.0505456
0.0479096
0.0451541
0.0422968
0.0390805
0.0352857
0.0298081
0.0257207
0.0222934
0.0192868
0.0164184
0.0137038
0.0111618
0.00878947
0.0065837
0.00454288
0.00266536
0.000949318
-0.000607103
-0.00200582
-0.00324883
-0.00433814
-0.00527587
-0.00606414
-0.00670518
-0.00720127
-0.0075548
-0.00776823
-0.00784414
-0.00778515
-0.00759398
-0.00727342
-0.00682638
-0.0062559
-0.0055651
-0.00475727
-0.00383575
-0.00280403
-0.0016657
-0.000424492
0.000915717
0.00235089
0.00387682
0.00548916
0.00718344
0.00895501
0.0107991
0.0127106
0.0146845
0.0167154
0.0187978
0.0209258
0.0230939
0.0252958
0.0275254
0.0297764
0.0320422
0.0343163
0.0365917
0.0388616
0.041119
0.0433567
0.0455676
0.0477445
0.0498799
0.0519667
0.0539974
0.0559649
0.0578618
0.0596811
0.0614156
0.0630586
0.0646032
0.0660428
0.0673712
0.0685823
0.0696702
0.0706296
0.0714552
0.0721422
0.0726862
0.0730832
0.0733296
0.0734222
0.0733582
0.0731355
0.0727521
0.0722067
0.0714983
0.0706264
0.069591
0.0683923
0.067031
0.0655081
0.063825
0.0619832
0.0599846
0.0578311
0.0555251
0.0530689
0.0504633
0.0477095
0.0448291
0.0418409
0.038476
0.034505
0.0299942
0.025738
0.0221701
0.0190415
0.016058
0.013236
0.010595
0.00813204
0.00584368
0.00372812
0.00178344
7.54655e-06
-0.00160172
-0.00304659
-0.00432937
-0.00545244
-0.00641824
-0.00722927
-0.00788806
-0.00839723
-0.00875946
-0.00897751
-0.00905423
-0.00899254
-0.00879541
-0.00846588
-0.00800707
-0.0074222
-0.00671458
-0.00588764
-0.00494492
-0.00389002
-0.00272668
-0.00145872
-9.01175e-05
0.00137503
0.00293247
0.00457779
0.00630643
0.00811369
0.00999475
0.0119446
0.013958
0.0160297
0.0181541
0.0203254
0.0225378
0.0247852
0.0270614
0.0293601
0.0316746
0.0339983
0.0363244
0.0386458
0.0409554
0.043246
0.0455104
0.0477411
0.0499309
0.0520721
0.0541573
0.056179
0.0581299
0.0600025
0.0617896
0.0634841
0.0650789
0.0665672
0.0679424
0.0691981
0.0703282
0.0713268
0.0721885
0.0729082
0.073481
0.0739026
0.074169
0.0742766
0.0742224
0.0740038
0.0736185
0.0730648
0.0723415
0.0714478
0.0703832
0.0691478
0.067742
0.0661667
0.064423
0.0625124
0.0604366
0.0581975
0.0557975
0.0532389
0.0505227
0.04765
0.0446437
0.0415235
0.0380088
0.0338603
0.0299962
0.0255715
0.0218632
0.0186127
0.0155143
0.0125851
0.0098453
0.00729183
0.00492111
0.00273107
0.000719566
-0.00111577
-0.00277739
-0.00426782
-0.00558969
-0.00674569
-0.00773858
-0.00857121
-0.00924645
-0.00976721
-0.0101365
-0.0103573
-0.0104328
-0.0103662
-0.0101606
-0.00981946
-0.00934602
-0.0087437
-0.00801601
-0.00716652
-0.00619891
-0.00511696
-0.00392453
-0.00262556
-0.00122412
0.000275629
0.00186936
0.0035526
0.00532074
0.00716902
0.00909255
0.0110863
0.013145
0.0152634
0.0174357
0.0196564
0.0219194
0.0242187
0.026548
0.0289009
0.0312708
0.0336509
0.0360343
0.038414
0.0407827
0.0431332
0.045458
0.0477496
0.0500006
0.0522032
0.0543498
0.0564327
0.0584443
0.060377
0.0622234
0.0639759
0.0656274
0.0671706
0.0685987
0.069905
0.0710829
0.0721264
0.0730296
0.073787
0.0743934
0.0748441
0.0751347
0.0752614
0.0752205