/*--------------------------------*- C++ -*----------------------------------*\
| =========                 |                                                 |
| \\      /  F ield         | OpenFOAM: The Open Source CFD Toolbox           |
|  \\    /   O peration     | Version:  v1912                                 |
|   \\  /    A nd           | Website:  www.openfoam.com                      |
|    \\/     M anipulation  |                                                 |
\*---------------------------------------------------------------------------*/
FoamFile
{
    version     2.0;
    format      ascii;
    class       volVectorField;
    location    "4.32";
    object      grad(T);
}
// * * * * * * * * * * * * * * * * * * * * * * * * * * * * * * * * * * * * * //

dimensions      [0 -1 0 1 0 0 0];


internalField   nonuniform List<vector> 
1900
(
(0.783057 -1.30301e-06 0)
(-0.80801 2.94869e-05 0)
(0.205052 1.0077e-05 0)
(0.0850617 2.48613e-05 0)
(-0.0147117 7.45063e-05 0)
(-0.0443747 0.000154409 0)
(-0.0509379 0.000352242 0)
(-0.0431847 0.000385356 0)
(-0.0423368 -0.00183155 0)
(-0.057095 -0.00324196 0)
(0.783085 -1.9877e-06 0)
(-0.807998 4.95839e-05 0)
(0.205047 1.97009e-05 0)
(0.0851261 1.91389e-05 0)
(-0.0145822 5.26022e-05 0)
(-0.044097 4.50375e-05 0)
(-0.0507069 0.000105695 0)
(-0.0453685 -0.000243977 0)
(-0.0459642 -0.00312468 0)
(-0.0699985 -0.00479313 0)
(0.783105 -2.36356e-13 0)
(-0.807988 -1.97325e-13 0)
(0.205021 8.67362e-15 0)
(0.0850946 -3.16587e-13 0)
(-0.0146858 -7.22079e-13 0)
(-0.0443216 -1.66967e-13 0)
(-0.0512269 -2.60209e-14 0)
(-0.046415 1.17094e-13 0)
(-0.046886 1.95156e-13 0)
(-0.0719906 -3.68629e-14 0)
(0.783085 1.9877e-06 0)
(-0.807998 -4.95839e-05 0)
(0.205047 -1.97009e-05 0)
(0.0851261 -1.91389e-05 0)
(-0.0145822 -5.26022e-05 0)
(-0.044097 -4.50375e-05 0)
(-0.0507069 -0.000105695 0)
(-0.0453685 0.000243977 0)
(-0.0459642 0.00312468 0)
(-0.0699985 0.00479313 0)
(0.783057 1.30301e-06 0)
(-0.80801 -2.94869e-05 0)
(0.205052 -1.0077e-05 0)
(0.0850617 -2.48613e-05 0)
(-0.0147117 -7.45063e-05 0)
(-0.0443747 -0.000154409 0)
(-0.0509379 -0.000352242 0)
(-0.0431847 -0.000385356 0)
(-0.0423368 0.00183155 0)
(-0.057095 0.00324196 0)
(-0.115136 -0.0134092 9.82574e-16)
(-0.222301 -0.0242854 -1.17293e-15)
(-0.316906 -0.0359582 -1.45888e-15)
(-0.347633 -0.0502586 0)
(-0.478847 -0.16848 -5.98295e-15)
(-0.136455 -0.0165868 9.80151e-16)
(-0.237757 -0.0264676 1.17293e-15)
(-0.322846 -0.0399609 1.45888e-15)
(-0.384841 -0.0553634 0)
(-0.466219 -0.150399 0)
(-0.141239 -6.67806e-14 0)
(-0.246078 -6.41962e-14 0)
(-0.337806 1.807e-13 0)
(-0.393216 1.97128e-13 0)
(-0.52835 3.48494e-13 0)
(-0.136455 0.0165868 9.80151e-16)
(-0.237757 0.0264676 1.17293e-15)
(-0.322846 0.0399609 1.45888e-15)
(-0.384841 0.0553634 0)
(-0.466219 0.150399 0)
(-0.115136 0.0134092 -2.94288e-15)
(-0.222301 0.0242854 -1.17293e-15)
(-0.316906 0.0359582 -1.45888e-15)
(-0.347633 0.0502586 -3.89444e-15)
(-0.478847 0.16848 5.98295e-15)
(-0.668005 0.0823813 2.35383e-15)
(-0.470532 0.0310518 -1.88435e-15)
(-0.393947 0.0268766 0)
(-0.281316 0.0237593 1.31419e-15)
(-0.234945 -0.0177741 -5.72233e-16)
(-0.602821 0.0743287 -1.17816e-15)
(-0.481161 0.0301825 9.42643e-16)
(-0.393855 0.0307467 0)
(-0.298534 0.0188643 -8.21958e-16)
(-0.272088 -0.068279 1.4241e-16)
(-0.614752 3.72352e-13 0)
(-0.480001 1.48267e-13 0)
(-0.397366 5.62179e-14 0)
(-0.32348 -1.41726e-14 3.29011e-16)
(-0.297727 -3.01167e-13 -2.84821e-16)
(-0.602821 -0.0743287 -1.17816e-15)
(-0.481161 -0.0301825 9.42643e-16)
(-0.393855 -0.0307467 0)
(-0.298534 -0.0188643 -8.21958e-16)
(-0.272088 0.068279 1.4241e-16)
(-0.668005 -0.0823813 1.17816e-15)
(-0.470532 -0.0310518 -9.35178e-19)
(-0.393947 -0.0268766 0)
(-0.281316 -0.0237593 7.15553e-19)
(-0.234945 0.0177741 5.72233e-16)
(-0.422596 0.537257 0)
(-0.141424 0.391516 0)
(0.282663 0.173505 0)
(0.090895 0.125716 0)
(-0.0865674 0.0663148 0)
(-0.0972461 0.0263396 0)
(-0.104127 0.0147347 0)
(-0.105372 0.00788235 0)
(-0.0900471 0.00656213 0)
(-0.0648242 0.00146087 0)
(-0.0377555 0.000965632 0)
(-0.0266958 0.00080595 0)
(-0.0215179 0.000763984 0)
(-0.0179141 0.000631604 0)
(-0.0147295 0.000506003 0)
(-0.0120017 0.00041894 0)
(-0.00978547 0.000365051 0)
(-0.00797771 0.000331295 0)
(-0.00658354 0.000307257 0)
(-0.00543797 0.000289212 0)
(-0.004396 0.000272333 0)
(-0.00366418 0.00025796 0)
(-0.00306957 0.000249396 0)
(-0.00247377 0.000245611 0)
(-0.00191252 0.000247181 0)
(-0.00134118 0.000253503 0)
(-0.000815074 0.000264995 0)
(-0.000467566 0.0002753 0)
(-0.000330039 0.000293026 0)
(-0.000511636 0.000269188 0)
(-0.000174766 0.000275987 0)
(0.000399067 0.000247248 0)
(0.00232029 0.000279677 0)
(0.00352279 0.000512455 0)
(0.00445193 0.000516538 0)
(0.00466275 0.000930198 0)
(-0.000699745 0.00107223 0)
(-0.146962 0.00155994 0)
(-0.513643 0.00596617 0)
(-0.369004 -0.0224023 0)
(-0.380376 -0.138665 0)
(-0.103131 0.309591 0)
(0.256614 0.206247 0)
(0.0819071 0.114158 0)
(-0.098552 0.0497844 0)
(-0.104257 0.0137289 0)
(-0.106167 0.00714447 0)
(-0.106398 0.00326761 0)
(-0.0907104 0.00214379 0)
(-0.0651421 0.000142584 0)
(-0.0377547 0.000335227 0)
(-0.026707 0.000231237 0)
(-0.021523 0.000228705 0)
(-0.0179297 0.00018694 0)
(-0.0147426 0.000146839 0)
(-0.0120098 0.000121107 0)
(-0.0097899 0.000107466 0)
(-0.00798028 0.000100583 0)
(-0.00658545 9.60337e-05 0)
(-0.00543998 9.19784e-05 0)
(-0.00439841 8.63793e-05 0)
(-0.00366652 7.98808e-05 0)
(-0.00307149 7.41791e-05 0)
(-0.00247526 6.96495e-05 0)
(-0.00191359 6.67484e-05 0)
(-0.00134175 6.56932e-05 0)
(-0.000815541 6.75652e-05 0)
(-0.000467251 7.13264e-05 0)
(-0.00033355 8.24872e-05 0)
(-0.000515656 8.01687e-05 0)
(-0.000179586 0.000104893 0)
(0.00039907 0.000122258 0)
(0.00235628 0.000226289 0)
(0.00355618 0.000507131 0)
(0.00449959 0.000755583 0)
(0.00475029 0.00133962 0)
(-0.000568568 0.00218253 0)
(-0.145618 0.00327211 0)
(-0.511797 0.0111886 0)
(-0.368413 0.0307138 0)
(-0.318327 -8.10195e-13 0)
(-0.0410858 -6.78119e-13 0)
(0.22581 4.86905e-13 0)
(0.0453787 3.65869e-12 0)
(-0.115783 9.73811e-13 0)
(-0.10965 -1.22219e-13 0)
(-0.10717 -1.47057e-12 0)
(-0.106827 -3.22107e-12 0)
(-0.0909562 -6.34751e-13 0)
(-0.0653503 -2.42073e-12 0)
(-0.0377297 -1.5376e-13 0)
(-0.0267267 -4.73106e-14 0)
(-0.0215308 -7.5697e-13 0)
(-0.0179379 -9.54098e-13 0)
(-0.0147486 -9.14672e-13 0)
(-0.0120132 -9.85638e-14 0)
(-0.00979144 7.21487e-13 0)
(-0.00798103 7.80626e-13 0)
(-0.00658605 1.57702e-13 0)
(-0.00544078 -3.66657e-13 0)
(-0.00439952 1.45874e-13 0)
(-0.00366773 1.21431e-12 0)
(-0.00307255 -3.11462e-13 0)
(-0.00247594 -2.1822e-12 0)
(-0.00191367 -7.54999e-13 0)
(-0.00134094 3.43002e-12 0)
(-0.000813435 8.23797e-12 0)
(-0.000463225 1.24585e-11 0)
(-0.000327467 1.33061e-11 0)
(-0.000505118 1.00772e-11 0)
(-0.000162522 5.63588e-12 0)
(0.000434382 2.31034e-12 0)
(0.00243226 2.32019e-12 0)
(0.00367676 6.26866e-13 0)
(0.00469411 7.94622e-12 0)
(0.00507786 1.702e-11 0)
(-0.000137569 1.1396e-11 0)
(-0.144342 2.48913e-11 0)
(-0.50566 7.95607e-12 0)
(-0.363324 4.69184e-11 0)
(-0.380376 0.138665 0)
(-0.103131 -0.309591 0)
(0.256614 -0.206247 0)
(0.0819071 -0.114158 0)
(-0.098552 -0.0497844 0)
(-0.104257 -0.0137289 0)
(-0.106167 -0.00714447 0)
(-0.106398 -0.00326761 0)
(-0.0907104 -0.00214379 0)
(-0.0651421 -0.000142584 0)
(-0.0377547 -0.000335227 0)
(-0.026707 -0.000231237 0)
(-0.021523 -0.000228705 0)
(-0.0179297 -0.00018694 0)
(-0.0147426 -0.000146839 0)
(-0.0120098 -0.000121107 0)
(-0.0097899 -0.000107466 0)
(-0.00798028 -0.000100583 0)
(-0.00658545 -9.60337e-05 0)
(-0.00543998 -9.19784e-05 0)
(-0.00439841 -8.63793e-05 0)
(-0.00366652 -7.98808e-05 0)
(-0.00307149 -7.41791e-05 0)
(-0.00247526 -6.96495e-05 0)
(-0.00191359 -6.67484e-05 0)
(-0.00134175 -6.56932e-05 0)
(-0.000815541 -6.75652e-05 0)
(-0.000467251 -7.13264e-05 0)
(-0.00033355 -8.24873e-05 0)
(-0.000515656 -8.01687e-05 0)
(-0.000179586 -0.000104893 0)
(0.00039907 -0.000122258 0)
(0.00235628 -0.000226289 0)
(0.00355618 -0.000507131 0)
(0.00449959 -0.000755583 0)
(0.00475029 -0.00133962 0)
(-0.000568568 -0.00218253 0)
(-0.145618 -0.00327211 0)
(-0.511797 -0.0111886 0)
(-0.368413 -0.0307138 0)
(-0.422596 -0.537257 0)
(-0.141424 -0.391516 0)
(0.282663 -0.173505 0)
(0.090895 -0.125716 0)
(-0.0865674 -0.0663148 0)
(-0.0972461 -0.0263396 0)
(-0.104127 -0.0147347 0)
(-0.105372 -0.00788235 0)
(-0.0900471 -0.00656213 0)
(-0.0648242 -0.00146087 0)
(-0.0377555 -0.000965632 0)
(-0.0266958 -0.00080595 0)
(-0.0215179 -0.000763984 0)
(-0.0179141 -0.000631604 0)
(-0.0147295 -0.000506003 0)
(-0.0120017 -0.00041894 0)
(-0.00978547 -0.000365051 0)
(-0.00797771 -0.000331295 0)
(-0.00658354 -0.000307257 0)
(-0.00543797 -0.000289212 0)
(-0.004396 -0.000272333 0)
(-0.00366418 -0.00025796 0)
(-0.00306957 -0.000249396 0)
(-0.00247377 -0.000245611 0)
(-0.00191252 -0.000247181 0)
(-0.00134118 -0.000253503 0)
(-0.000815074 -0.000264995 0)
(-0.000467566 -0.0002753 0)
(-0.000330039 -0.000293026 0)
(-0.000511636 -0.000269188 0)
(-0.000174766 -0.000275987 0)
(0.000399067 -0.000247248 0)
(0.00232029 -0.000279677 0)
(0.00352279 -0.000512455 0)
(0.00445193 -0.000516538 0)
(0.00466275 -0.000930198 0)
(-0.000699745 -0.00107223 0)
(-0.146962 -0.00155994 0)
(-0.513643 -0.00596617 0)
(-0.369004 0.0224023 0)
(-0.0727175 -1.02774 0)
(0.169317 -0.297237 0)
(0.393223 -0.131655 0)
(0.138752 -0.146733 0)
(-0.0500729 -0.0837145 0)
(-0.0800084 -0.044172 0)
(-0.0969485 -0.0277393 0)
(-0.102458 -0.0164245 0)
(-0.0874494 -0.0134332 0)
(-0.0619993 -0.00377214 0)
(-0.037343 -0.00209133 0)
(-0.0265936 -0.0016511 0)
(-0.0214196 -0.00147491 0)
(-0.0177859 -0.00119958 0)
(-0.0146244 -0.000951614 0)
(-0.0119308 -0.000780509 0)
(-0.00974005 -0.000673758 0)
(-0.007947 -0.000604708 0)
(-0.00656125 -0.000553557 0)
(-0.0054204 -0.000514394 0)
(-0.00438159 -0.000479637 0)
(-0.00365482 -0.000451713 0)
(-0.00306595 -0.000435444 0)
(-0.00247558 -0.000428211 0)
(-0.00191978 -0.000431962 0)
(-0.00135358 -0.000445637 0)
(-0.000829754 -0.000469016 0)
(-0.00048447 -0.000490953 0)
(-0.000333775 -0.000519867 0)
(-0.000509615 -0.00049297 0)
(-0.000171397 -0.000493857 0)
(0.000396759 -0.000462054 0)
(0.00223153 -0.000499243 0)
(0.00344621 -0.000792469 0)
(0.00429266 -0.000855463 0)
(0.00450294 -0.00149826 0)
(-0.000811912 -0.00163508 0)
(-0.147135 -0.00183777 0)
(-0.494633 -0.000510865 0)
(-0.349936 0.00797019 0)
(0.286485 -0.520444 0)
(0.555445 0.00556739 0)
(0.368408 -0.0334831 0)
(0.111429 -0.122081 0)
(-0.00730527 -0.0864634 0)
(-0.0525498 -0.0574117 0)
(-0.0812374 -0.0419489 0)
(-0.0931485 -0.0272537 0)
(-0.0792478 -0.0177049 0)
(-0.0554096 -0.00691645 0)
(-0.0359327 -0.00354351 0)
(-0.0261565 -0.00258792 0)
(-0.0211355 -0.00214035 0)
(-0.0174786 -0.00169556 0)
(-0.0143819 -0.00132454 0)
(-0.011772 -0.00107505 0)
(-0.00964042 -0.000919071 0)
(-0.00787834 -0.000815174 0)
(-0.00650847 -0.000735081 0)
(-0.00537616 -0.000672174 0)
(-0.00434333 -0.000616218 0)
(-0.00362662 -0.000571052 0)
(-0.00304887 -0.00054324 0)
(-0.00246945 -0.000528456 0)
(-0.00192542 -0.000530428 0)
(-0.00137024 -0.000547813 0)
(-0.000850871 -0.000581311 0)
(-0.000507504 -0.000611474 0)
(-0.000329979 -0.000651096 0)
(-0.000487655 -0.000608356 0)
(-0.00014678 -0.000602739 0)
(0.000395114 -0.000566432 0)
(0.00204949 -0.000630061 0)
(0.00322058 -0.00106454 0)
(0.00385721 -0.00124205 0)
(0.00399718 -0.00215694 0)
(-0.000966762 -0.00248894 0)
(-0.145786 -0.00256512 0)
(-0.514385 0.00348888 0)
(-0.371057 -0.0186987 0)
(0.434166 -0.117881 0)
(0.63857 0.07871 0)
(0.270217 -0.0370869 0)
(0.0876986 -0.0871865 0)
(0.0122443 -0.074551 0)
(-0.0371126 -0.0608724 0)
(-0.0678872 -0.050593 0)
(-0.0790959 -0.0339007 0)
(-0.0678517 -0.0202517 0)
(-0.0483528 -0.00969211 0)
(-0.0331719 -0.00526975 0)
(-0.0252415 -0.00372779 0)
(-0.0205597 -0.00289039 0)
(-0.0169997 -0.00222815 0)
(-0.0140265 -0.00172453 0)
(-0.0115401 -0.00139248 0)
(-0.00948962 -0.00117841 0)
(-0.0077697 -0.00102829 0)
(-0.00642345 -0.000909082 0)
(-0.00530585 -0.000815846 0)
(-0.00428415 -0.000734779 0)
(-0.0035845 -0.000671042 0)
(-0.00302491 -0.000633668 0)
(-0.00246323 -0.000615797 0)
(-0.00193843 -0.000623234 0)
(-0.00140261 -0.000653911 0)
(-0.0008911 -0.000710102 0)
(-0.000551718 -0.000758585 0)
(-0.00033077 -0.000822113 0)
(-0.000463017 -0.000763317 0)
(-0.000130997 -0.000763581 0)
(0.00037043 -0.000737557 0)
(0.00175153 -0.000849661 0)
(0.00285647 -0.00144258 0)
(0.00323999 -0.00171797 0)
(0.0033014 -0.00277088 0)
(-0.00120525 -0.0032129 0)
(-0.141374 -0.00322222 0)
(-0.51018 0.00307835 0)
(-0.371316 0.00214204 0)
(0.475928 -0.0099923 0)
(0.633301 0.0236976 0)
(0.208544 -0.039034 0)
(0.0753277 -0.0679793 0)
(0.018052 -0.0653787 0)
(-0.029463 -0.0605086 0)
(-0.0552464 -0.0519508 0)
(-0.0639105 -0.0353434 0)
(-0.0559196 -0.0211719 0)
(-0.0409724 -0.0110576 0)
(-0.0301853 -0.00664718 0)
(-0.0238637 -0.00468172 0)
(-0.0196904 -0.00348767 0)
(-0.0163551 -0.00262427 0)
(-0.0135767 -0.00201363 0)
(-0.0112457 -0.00161313 0)
(-0.00928947 -0.0013438 0)
(-0.00761881 -0.00114458 0)
(-0.00630375 -0.000982524 0)
(-0.00520819 -0.000856656 0)
(-0.00420379 -0.000749519 0)
(-0.00352918 -0.000667387 0)
(-0.00299563 -0.000622151 0)
(-0.0024594 -0.000604169 0)
(-0.00196215 -0.00062123 0)
(-0.00145395 -0.000669627 0)
(-0.000951738 -0.000752956 0)
(-0.000615442 -0.000819223 0)
(-0.00033454 -0.000909365 0)
(-0.000431251 -0.000844687 0)
(-0.000121957 -0.000863909 0)
(0.000312164 -0.000872161 0)
(0.00137011 -0.00105985 0)
(0.00238385 -0.00177919 0)
(0.0025772 -0.00220063 0)
(0.00255661 -0.00325989 0)
(-0.00140169 -0.0038941 0)
(-0.139723 -0.00372824 0)
(-0.509216 0.000564016 0)
(-0.371959 -0.000250749 0)
(0.466631 0.0154227 0)
(0.610585 -0.0172175 0)
(0.181874 -0.036842 0)
(0.0623118 -0.0580459 0)
(0.0194433 -0.0599753 0)
(-0.024173 -0.0570864 0)
(-0.0436371 -0.0472452 0)
(-0.0494362 -0.0335302 0)
(-0.044449 -0.0200374 0)
(-0.0343562 -0.0115593 0)
(-0.0270278 -0.00739881 0)
(-0.0221969 -0.00525184 0)
(-0.018577 -0.00384339 0)
(-0.0155793 -0.0028611 0)
(-0.0130521 -0.0021904 0)
(-0.0108946 -0.00173986 0)
(-0.00903811 -0.00141964 0)
(-0.00742156 -0.00117021 0)
(-0.006146 -0.000963119 0)
(-0.00508132 -0.00080327 0)
(-0.00410176 -0.000669649 0)
(-0.00346176 -0.000569578 0)
(-0.00296399 -0.000518037 0)
(-0.00246235 -0.00050223 0)
(-0.00200151 -0.000530498 0)
(-0.00152955 -0.000594291 0)
(-0.00103526 -0.000699561 0)
(-0.000702439 -0.000768417 0)
(-0.000355309 -0.000864329 0)
(-0.000419214 -0.000765016 0)
(-0.000157472 -0.000770599 0)
(0.000181614 -0.000785109 0)
(0.00087749 -0.000983663 0)
(0.00175717 -0.00172005 0)
(0.00181312 -0.00218618 0)
(0.00166951 -0.00308005 0)
(-0.00165656 -0.0037052 0)
(-0.137078 -0.00344902 0)
(-0.506829 -0.000109917 0)
(-0.372102 -0.000869514 0)
(0.444474 0.0318058 0)
(0.582936 -0.0250886 0)
(0.1692 -0.0358434 0)
(0.0530357 -0.0490178 0)
(0.0189765 -0.0554484 0)
(-0.0171958 -0.0514122 0)
(-0.0325468 -0.0410785 0)
(-0.0376921 -0.0298632 0)
(-0.0347477 -0.0186253 0)
(-0.0287934 -0.0116033 0)
(-0.0241072 -0.00784386 0)
(-0.0204376 -0.0055883 0)
(-0.0173866 -0.00406962 0)
(-0.0147623 -0.00302779 0)
(-0.0124962 -0.00231984 0)
(-0.010503 -0.00182275 0)
(-0.00874053 -0.00144986 0)
(-0.00717889 -0.00114774 0)
(-0.00595016 -0.000893463 0)
(-0.00492539 -0.000698741 0)
(-0.0039786 -0.000539161 0)
(-0.00338309 -0.000422889 0)
(-0.00293074 -0.000368005 0)
(-0.0024714 -0.000357729 0)
(-0.00205086 -0.000401422 0)
(-0.00161686 -0.000483995 0)
(-0.00111953 -0.000618267 0)
(-0.000774219 -0.000695432 0)
(-0.000331263 -0.000809657 0)
(-0.00034093 -0.000684966 0)
(-0.00014132 -0.000704218 0)
(0.000106847 -0.000762788 0)
(0.000469169 -0.000996825 0)
(0.00122506 -0.00177292 0)
(0.00126666 -0.00230557 0)
(0.00109282 -0.00303244 0)
(-0.00175724 -0.0035512 0)
(-0.136259 -0.00296928 0)
(-0.50673 0.00291582 0)
(-0.372691 0.00158135 0)
(0.411805 0.00113997 0)
(0.545396 -0.0230003 0)
(0.158814 -0.0330247 0)
(0.0434197 -0.0434412 0)
(0.0171361 -0.0500457 0)
(-0.0103256 -0.0442844 0)
(-0.0228717 -0.0353804 0)
(-0.0277996 -0.0252395 0)
(-0.0268531 -0.0163498 0)
(-0.0239668 -0.0107584 0)
(-0.0212316 -0.00747195 0)
(-0.0185599 -0.00535382 0)
(-0.0161096 -0.00394673 0)
(-0.0138932 -0.0029992 0)
(-0.0118909 -0.00234601 0)
(-0.0100563 -0.00185821 0)
(-0.00838764 -0.00146815 0)
(-0.0068854 -0.00113491 0)
(-0.00571333 -0.000845419 0)
(-0.0047399 -0.000621972 0)
(-0.00383594 -0.000438331 0)
(-0.00329683 -0.000303249 0)
(-0.0029012 -0.000237126 0)
(-0.00249455 -0.000216757 0)
(-0.00212318 -0.000250394 0)
(-0.00173851 -0.000314686 0)
(-0.001239 -0.000425137 0)
(-0.000886869 -0.000420355 0)
(-0.000345224 -0.000452791 0)
(-0.000317609 -0.000219512 0)
(-0.000232464 -0.000178824 0)
(-0.000100353 -0.000225984 0)
(-9.59146e-05 -0.000463795 0)
(0.000496021 -0.00128404 0)
(0.000599407 -0.00195567 0)
(0.000469179 -0.00260667 0)
(-0.00159569 -0.00312748 0)
(-0.130847 -0.00261014 0)
(-0.502444 0.00427934 0)
(-0.373387 0.0043597 0)
(0.421212 -0.0229956 0)
(0.550014 -0.0176675 0)
(0.149503 -0.030349 0)
(0.0366336 -0.0387075 0)
(0.018164 -0.0427924 0)
(-0.00306377 -0.0370369 0)
(-0.0141944 -0.0297755 0)
(-0.0193535 -0.0210527 0)
(-0.0207931 -0.0143529 0)
(-0.0202384 -0.00995654 0)
(-0.0188991 -0.00714406 0)
(-0.0170405 -0.0052369 0)
(-0.0151176 -0.0040061 0)
(-0.0132197 -0.0031648 0)
(-0.0113967 -0.00256094 0)
(-0.00965706 -0.00207493 0)
(-0.00804353 -0.00166282 0)
(-0.00657881 -0.00129582 0)
(-0.00545587 -0.000970522 0)
(-0.00453311 -0.000719525 0)
(-0.00367146 -0.000514254 0)
(-0.0031892 -0.000363086 0)
(-0.00284739 -0.00028819 0)
(-0.00248419 -0.000259954 0)
(-0.00214523 -0.000285855 0)
(-0.00178525 -0.000330982 0)
(-0.00122136 -0.000422774 0)
(-0.000800866 -0.000337139 0)
(-0.000137722 -0.00029735 0)
(-7.69254e-05 -1.1508e-05 0)
(-0.000147556 4.67517e-05 0)
(-0.000167762 -4.28929e-05 0)
(-0.000550414 -0.000329724 0)
(-0.00021256 -0.00123252 0)
(-7.87272e-06 -0.00220429 0)
(-3.63848e-05 -0.00282386 0)
(-0.00176059 -0.00340505 0)
(-0.129121 -0.00277875 0)
(-0.500014 0.0081497 0)
(-0.372614 0.00617199 0)
(0.41694 -0.00574434 0)
(0.53831 -0.0149624 0)
(0.13854 -0.0268047 0)
(0.0314287 -0.0334378 0)
(0.0187459 -0.035393 0)
(0.00221799 -0.0311166 0)
(-0.00746873 -0.0248149 0)
(-0.0129377 -0.0179499 0)
(-0.0161605 -0.0127528 0)
(-0.0170201 -0.00903177 0)
(-0.0166835 -0.00653009 0)
(-0.015536 -0.00479468 0)
(-0.0141129 -0.00376464 0)
(-0.0125005 -0.00306754 0)
(-0.0108407 -0.00257952 0)
(-0.00919081 -0.00217137 0)
(-0.00763687 -0.00180927 0)
(-0.00621827 -0.00147033 0)
(-0.005158 -0.00115708 0)
(-0.00430023 -0.000907516 0)
(-0.00349246 -0.00068541 0)
(-0.00307899 -0.000498858 0)
(-0.00280181 -0.000375712 0)
(-0.0024923 -0.000284991 0)
(-0.00219163 -0.000238738 0)
(-0.00187045 -0.000186312 0)
(-0.00124494 -0.000182174 0)
(-0.000766006 2.19266e-05 0)
(-3.14337e-05 0.000131851 0)
(1.39793e-05 0.000408609 0)
(-0.000262708 0.000446457 0)
(-0.000463139 0.000261569 0)
(-0.00124229 -0.000138104 0)
(-0.00131038 -0.00120665 0)
(-0.000934068 -0.00259741 0)
(-0.000687914 -0.00333057 0)
(-0.00155222 -0.00421055 0)
(-0.119712 -0.0037 0)
(-0.493818 0.00919113 0)
(-0.375293 0.00705565 0)
(0.412329 -0.00641208 0)
(0.52972 -0.0146297 0)
(0.131699 -0.0232282 0)
(0.0283576 -0.0285413 0)
(0.0204008 -0.0287196 0)
(0.00712969 -0.026005 0)
(-0.00150652 -0.0205731 0)
(-0.00773003 -0.0156207 0)
(-0.0121993 -0.0116311 0)
(-0.014242 -0.00847794 0)
(-0.0148161 -0.00632914 0)
(-0.0143756 -0.00478422 0)
(-0.0134533 -0.00393224 0)
(-0.0120777 -0.00330991 0)
(-0.0105331 -0.0028734 0)
(-0.00891482 -0.00248777 0)
(-0.00736799 -0.00213536 0)
(-0.00595033 -0.00179825 0)
(-0.00491352 -0.00148106 0)
(-0.00407859 -0.00122563 0)
(-0.00327766 -0.000985072 0)
(-0.00289076 -0.000770563 0)
(-0.0026413 -0.000618693 0)
(-0.0023522 -0.000492882 0)
(-0.00205014 -0.000415937 0)
(-0.00173074 -0.000318759 0)
(-0.00102069 -0.000285784 0)
(-0.00049826 -5.67176e-05 0)
(0.000234899 2.96325e-05 0)
(0.00022624 0.000234391 0)
(-0.00028925 0.000199449 0)
(-0.000731067 -7.05574e-05 0)
(-0.00196524 -0.000492421 0)
(-0.00258243 -0.00155597 0)
(-0.00205456 -0.00305489 0)
(-0.00159087 -0.00383701 0)
(-0.00211659 -0.00463281 0)
(-0.116207 -0.00428031 0)
(-0.489649 0.00854661 0)
(-0.374671 0.00619339 0)
(0.409021 -0.00416976 0)
(0.522105 -0.0128654 0)
(0.125134 -0.0214738 0)
(0.026137 -0.0251739 0)
(0.0211899 -0.0241504 0)
(0.0100682 -0.0226839 0)
(0.00253796 -0.0185098 0)
(-0.00432088 -0.0147726 0)
(-0.00927742 -0.0117228 0)
(-0.011911 -0.00862976 0)
(-0.0131241 -0.00661491 0)
(-0.0132263 -0.0050223 0)
(-0.0126922 -0.00413007 0)
(-0.0114802 -0.00335067 0)
(-0.0100484 -0.00276625 0)
(-0.00847961 -0.00224219 0)
(-0.00697242 -0.00177678 0)
(-0.00558776 -0.00135647 0)
(-0.0046062 -0.000982937 0)
(-0.00382228 -0.00069921 0)
(-0.00305394 -0.000437675 0)
(-0.00272593 -0.000209532 0)
(-0.00253423 -7.06476e-05 0)
(-0.00229691 1.97931e-05 0)
(-0.00202384 2.55529e-05 0)
(-0.00174503 2.22896e-05 0)
(-0.000992424 -0.0001072 0)
(-0.000462059 -8.4688e-05 0)
(0.000249089 -0.000238844 0)
(0.000177621 -0.000277966 0)
(-0.000556566 -0.000612631 0)
(-0.00112985 -0.00126568 0)
(-0.00267368 -0.00211807 0)
(-0.00377967 -0.0035635 0)
(-0.00313216 -0.00554052 0)
(-0.00220846 -0.00687396 0)
(-0.0019794 -0.00775238 0)
(-0.107012 -0.00774933 0)
(-0.483726 0.00538506 0)
(-0.377561 0.00615737 0)
(0.40395 -0.00380126 0)
(0.513045 -0.0132888 0)
(0.119838 -0.0213442 0)
(0.0257783 -0.023103 0)
(0.0228002 -0.0221942 0)
(0.0125652 -0.0204214 0)
(0.00611714 -0.0169084 0)
(-0.00118986 -0.0138818 0)
(-0.00627981 -0.0112116 0)
(-0.0093198 -0.00814447 0)
(-0.0113398 -0.0063222 0)
(-0.0119812 -0.00472719 0)
(-0.0118424 -0.00388278 0)
(-0.0107635 -0.00299885 0)
(-0.00946495 -0.00228028 0)
(-0.00796133 -0.00159413 0)
(-0.00651448 -0.00100336 0)
(-0.00518535 -0.000502122 0)
(-0.00428016 -8.66503e-05 0)
(-0.00355316 0.000201496 0)
(-0.00280579 0.000464013 0)
(-0.00253708 0.000691868 0)
(-0.00242031 0.000804738 0)
(-0.00225949 0.000844423 0)
(-0.00204773 0.000772395 0)
(-0.00185867 0.000686887 0)
(-0.00112378 0.000432455 0)
(-0.000625118 0.000324748 0)
(4.86495e-05 6.11343e-06 0)
(-0.000133954 -0.000225879 0)
(-0.00124104 -0.000815143 0)
(-0.00218176 -0.00189541 0)
(-0.00417951 -0.0031623 0)
(-0.00588043 -0.00502741 0)
(-0.00524464 -0.00722187 0)
(-0.0037223 -0.00905607 0)
(-0.00296013 -0.0102234 0)
(-0.103547 -0.0109373 0)
(-0.476248 -0.001838 0)
(-0.373927 0.0037229 0)
(0.399878 -0.00301776 0)
(0.5052 -0.0127992 0)
(0.115677 -0.0197788 0)
(0.0253179 -0.0186234 0)
(0.023774 -0.020503 0)
(0.0151618 -0.0194738 0)
(0.00883969 -0.0165782 0)
(0.00116874 -0.0143295 0)
(-0.00374868 -0.0109208 0)
(-0.00719934 -0.00829451 0)
(-0.0098311 -0.00660178 0)
(-0.0108756 -0.0048901 0)
(-0.0110267 -0.00389242 0)
(-0.00993598 -0.00265451 0)
(-0.00869479 -0.00160766 0)
(-0.00724913 -0.000527533 0)
(-0.00592012 0.000430679 0)
(-0.00470438 0.00125085 0)
(-0.00392817 0.0019046 0)
(-0.00329164 0.00232743 0)
(-0.0025814 0.00260172 0)
(-0.0023976 0.00271048 0)
(-0.00238722 0.00258628 0)
(-0.00232808 0.00232648 0)
(-0.00217564 0.00191653 0)
(-0.00207261 0.0015259 0)
(-0.00134139 0.000945651 0)
(-0.000872897 0.000543541 0)
(-0.000281516 -0.000134591 0)
(-0.000613772 -0.000755577 0)
(-0.00216539 -0.00158136 0)
(-0.00339165 -0.00294082 0)
(-0.00569179 -0.00445556 0)
(-0.00769163 -0.0067912 0)
(-0.00701432 -0.00935995 0)
(-0.0051008 -0.0123273 0)
(-0.00379221 -0.0141783 0)
(-0.0989314 -0.0144449 0)
(-0.469599 -0.00565181 0)
(-0.372202 0.00156972 0)
(0.394524 -0.0023989 0)
(0.496893 -0.0170653 0)
(0.114226 -0.0233098 0)
(0.0250805 -0.0211336 0)
(0.0219807 -0.0219178 0)
(0.0163473 -0.0187368 0)
(0.0110743 -0.0162469 0)
(0.00426186 -0.0144098 0)
(-0.000464256 -0.0108555 0)
(-0.00515786 -0.00816425 0)
(-0.00805919 -0.00621201 0)
(-0.00937033 -0.00441184 0)
(-0.00968814 -0.00336963 0)
(-0.00856182 -0.002001 0)
(-0.00741531 -0.00087466 0)
(-0.00599711 0.00033452 0)
(-0.00480076 0.001417 0)
(-0.00376503 0.00232144 0)
(-0.00324273 0.00303619 0)
(-0.00288139 0.00349694 0)
(-0.00243667 0.00380152 0)
(-0.00255195 0.00393423 0)
(-0.00279035 0.00379286 0)
(-0.0029049 0.00348148 0)
(-0.00281921 0.00297644 0)
(-0.00279424 0.00250873 0)
(-0.00207041 0.00182434 0)
(-0.00166608 0.00126228 0)
(-0.00120323 0.000290601 0)
(-0.00152812 -0.000796646 0)
(-0.00334683 -0.00200082 0)
(-0.00495145 -0.00401968 0)
(-0.00788987 -0.00590897 0)
(-0.0106065 -0.00888185 0)
(-0.0105795 -0.0115017 0)
(-0.00836543 -0.016059 0)
(-0.00500073 -0.0196806 0)
(-0.0953307 -0.0198374 0)
(-0.460816 -0.0139741 0)
(-0.366968 -0.000661173 0)
(0.385745 -0.000607558 0)
(0.485049 -0.0163248 0)
(0.111756 -0.0242143 0)
(0.0266592 -0.023744 0)
(0.0260837 -0.0223852 0)
(0.0206265 -0.0153656 0)
(0.0130094 -0.0144001 0)
(0.00636409 -0.0126475 0)
(0.00226974 -0.00798749 0)
(-0.00272472 -0.00704253 0)
(-0.00621514 -0.00585217 0)
(-0.00813654 -0.00433955 0)
(-0.00870353 -0.00329528 0)
(-0.00753174 -0.001966 0)
(-0.00644419 -0.000819809 0)
(-0.0050408 0.000495601 0)
(-0.00400545 0.00172469 0)
(-0.00314407 0.00282655 0)
(-0.00279542 0.00372252 0)
(-0.00255414 0.00422912 0)
(-0.00216001 0.00446811 0)
(-0.00240594 0.00443199 0)
(-0.00282351 0.00406493 0)
(-0.00311481 0.00356095 0)
(-0.00311302 0.00291908 0)
(-0.00318281 0.00244583 0)
(-0.00254252 0.00183664 0)
(-0.00235086 0.00139233 0)
(-0.00226557 0.000620032 0)
(-0.00282187 -0.000339465 0)
(-0.00527122 -0.00121234 0)
(-0.00715769 -0.00320404 0)
(-0.0103771 -0.00473287 0)
(-0.013081 -0.0081371 0)
(-0.0139305 -0.011329 0)
(-0.0129822 -0.0164926 0)
(-0.00743318 -0.0205521 0)
(-0.0934324 -0.0202357 0)
(-0.45112 -0.0121564 0)
(-0.359373 0.00250105 0)
(0.379378 0.00935654 0)
(0.474145 -0.00977018 0)
(0.107076 -0.0202844 0)
(0.026843 -0.0230268 0)
(0.0300544 -0.0196449 0)
(0.024042 -0.0127987 0)
(0.0136936 -0.0114307 0)
(0.0104413 -0.0082684 0)
(0.00493694 -0.00419674 0)
(-0.00310019 -0.00546509 0)
(-0.00545449 -0.00399393 0)
(-0.00690642 -0.00340447 0)
(-0.00740091 -0.0030598 0)
(-0.00617637 -0.00203218 0)
(-0.00504323 -0.00102742 0)
(-0.00354514 0.000404433 0)
(-0.00255458 0.00178817 0)
(-0.00183985 0.00311773 0)
(-0.00189116 0.00406244 0)
(-0.00216292 0.00465177 0)
(-0.00224118 0.00497446 0)
(-0.00294047 0.00479621 0)
(-0.00362971 0.00418047 0)
(-0.00400908 0.00343147 0)
(-0.00389378 0.00253162 0)
(-0.00383731 0.00190528 0)
(-0.0030856 0.00128612 0)
(-0.00283845 0.000844364 0)
(-0.00287205 0.000254566 0)
(-0.00329386 -0.000684913 0)
(-0.00610723 -0.00121079 0)
(-0.00834395 -0.00297072 0)
(-0.0126436 -0.00406944 0)
(-0.0169627 -0.00697279 0)
(-0.0186311 -0.010646 0)
(-0.0172532 -0.01471 0)
(-0.00860771 -0.0196553 0)
(-0.0872402 -0.0180146 0)
(-0.438906 -0.00444834 0)
(-0.352844 0.0161861 0)
(0.367314 0.0352609 0)
(0.456486 0.00235146 0)
(0.0989815 -0.00710009 0)
(0.0272755 -0.0114951 0)
(0.0359399 -0.0101572 0)
(0.0285421 -0.00834319 0)
(0.017375 -0.00701533 0)
(0.013335 -0.00322307 0)
(0.00497111 -0.00422347 0)
(-0.00252928 -0.00431287 0)
(-0.00422945 -0.00302613 0)
(-0.00723639 -0.00382225 0)
(-0.00738115 -0.00428963 0)
(-0.00557326 -0.00411866 0)
(-0.00409619 -0.00383944 0)
(-0.0023276 -0.00301557 0)
(-0.00139081 -0.00224582 0)
(-0.000952502 -0.00151377 0)
(-0.00131717 -0.000911949 0)
(-0.00167529 -0.000290032 0)
(-0.00202082 -0.000137453 0)
(-0.00317105 -0.00046799 0)
(-0.00413862 -0.000848667 0)
(-0.0047037 -0.00112921 0)
(-0.00458371 -0.00147582 0)
(-0.00438303 -0.00163968 0)
(-0.00356486 -0.00154978 0)
(-0.00334491 -0.00183414 0)
(-0.00373924 -0.00171506 0)
(-0.00423394 -0.00249973 0)
(-0.00747391 -0.0023962 0)
(-0.00991239 -0.00366953 0)
(-0.0142337 -0.00424172 0)
(-0.0194185 -0.00545855 0)
(-0.0213863 -0.00746926 0)
(-0.0216639 -0.00842463 0)
(-0.0106176 -0.0108114 0)
(-0.0787785 -0.0100865 0)
(-0.418163 0.00435511 0)
(-0.339489 0.0442116 0)
(0.347665 -0.0945914 0)
(0.433324 -0.070566 0)
(0.0937334 -0.0577903 0)
(0.0238971 -0.0668439 0)
(0.0330917 -0.0782609 0)
(0.0270696 -0.0874797 0)
(0.0186275 -0.0927213 0)
(0.0131316 -0.0955888 0)
(0.00388676 -0.107811 0)
(-0.00194639 -0.114374 0)
(-0.00498171 -0.122509 0)
(-0.00812398 -0.132603 0)
(-0.00768654 -0.136737 0)
(-0.00574254 -0.142235 0)
(-0.00398025 -0.144988 0)
(-0.00200947 -0.148112 0)
(-0.00110738 -0.15022 0)
(-0.000554482 -0.151674 0)
(-0.000711927 -0.152269 0)
(-0.00141658 -0.147979 0)
(-0.00241267 -0.148386 0)
(-0.00362582 -0.152597 0)
(-0.00426689 -0.151676 0)
(-0.00461343 -0.150313 0)
(-0.00438568 -0.147079 0)
(-0.00390858 -0.145099 0)
(-0.003273 -0.139456 0)
(-0.00299772 -0.138117 0)
(-0.00351344 -0.129639 0)
(-0.00395023 -0.126932 0)
(-0.00723449 -0.11598 0)
(-0.0101224 -0.112724 0)
(-0.0143675 -0.10516 0)
(-0.0200729 -0.100195 0)
(-0.0214893 -0.0970421 0)
(-0.0204738 -0.0909903 0)
(-0.0102092 -0.0826052 0)
(-0.0726252 -0.0766483 0)
(-0.386582 -0.0846806 0)
(-0.314437 -0.103789 0)
(0.390466 -0.335106 0)
(0.491949 -0.454737 0)
(0.102568 -0.392432 0)
(0.00754937 -0.429989 0)
(0.0160544 -0.459762 0)
(0.0146075 -0.482741 0)
(0.00956077 -0.497991 0)
(-0.00120567 -0.511539 0)
(-0.0131311 -0.523583 0)
(-0.0166929 -0.530183 0)
(-0.0217957 -0.535159 0)
(-0.0209469 -0.53857 0)
(-0.0166632 -0.539216 0)
(-0.0135249 -0.540386 0)
(-0.00975852 -0.540969 0)
(-0.00736877 -0.541707 0)
(-0.00482333 -0.542145 0)
(-0.00292723 -0.54051 0)
(0.00224335 -0.541187 0)
(0.00206621 -0.538926 0)
(-0.00647144 -0.53834 0)
(-0.00634131 -0.539613 0)
(-0.00193752 -0.536207 0)
(-0.000273306 -0.537353 0)
(0.000441162 -0.532872 0)
(0.00296259 -0.532535 0)
(0.00316326 -0.527731 0)
(0.0061148 -0.525733 0)
(0.00703833 -0.520123 0)
(0.00892802 -0.516984 0)
(0.00621727 -0.511164 0)
(0.000514457 -0.503691 0)
(-0.00215993 -0.495935 0)
(-0.0115956 -0.484815 0)
(-0.0125162 -0.472781 0)
(-0.00775197 -0.458371 0)
(0.00320288 -0.435666 0)
(-0.0807784 -0.403331 0)
(-0.444317 -0.460558 0)
(-0.357903 -0.368327 0)
(0.232384 -0.213888 0)
(0.378083 -0.377935 0)
(0.117582 -0.332051 0)
(-0.0409846 -0.362355 0)
(-0.0177417 -0.382416 0)
(-0.00976905 -0.397426 0)
(-0.00912389 -0.407713 0)
(-0.0115298 -0.416816 0)
(-0.0140784 -0.418426 0)
(-0.0131011 -0.417799 0)
(-0.0130644 -0.414699 0)
(-0.0120334 -0.408738 0)
(-0.00943621 -0.405449 0)
(-0.00743219 -0.401238 0)
(-0.00525325 -0.399126 0)
(-0.0031428 -0.396563 0)