/*--------------------------------*- C++ -*----------------------------------*\
| =========                 |                                                 |
| \\      /  F ield         | OpenFOAM: The Open Source CFD Toolbox           |
|  \\    /   O peration     | Version:  v1912                                 |
|   \\  /    A nd           | Website:  www.openfoam.com                      |
|    \\/     M anipulation  |                                                 |
\*---------------------------------------------------------------------------*/
FoamFile
{
    version     2.0;
    format      ascii;
    class       volScalarField;
    location    "0.98";
    object      p;
}
// * * * * * * * * * * * * * * * * * * * * * * * * * * * * * * * * * * * * * //

dimensions      [1 -1 -2 0 0 0 0];


internalField   nonuniform List<scalar> 
4800
(
751.868
34.4796
11.168
11.0922
10.5602
9.99011
8.09793
5.81322
5.23112
5.30571
5.54557
5.83846
6.15118
6.48741
6.87592
7.37227
8.04664
8.87282
9.68803
10.3403
10.8357
11.1888
11.428
11.3961
11.1135
9.41697
6.76196
6.08246
6.08807
6.28258
6.55886
6.88578
7.22825
7.51019
7.69946
7.81861
7.88154
7.93643
8.02082
8.14712
751.805
34.4666
11.2355
11.1819
10.6483
10.0678
8.12233
5.8103
5.23314
5.31326
5.55396
5.85396
6.18843
6.55419
6.99116
7.53403
8.16094
8.84258
9.52324
10.1295
10.6321
11.0713
11.4087
11.4591
11.2067
9.54103
6.84543
6.12394
6.14023
6.34955
6.64065
6.95106
7.24198
7.48641
7.66216
7.77404
7.8495
7.92579
8.0388
8.19132
751.508
34.4121
11.3299
11.3041
10.7471
10.1572
8.15597
5.80845
5.23917
5.32873
5.57271
5.89021
6.26004
6.68888
7.19388
7.73746
8.25655
8.76046
9.27929
9.83737
10.3963
10.9506
11.4092
11.5405
11.2702
9.6947
6.97655
6.17379
6.22276
6.45121
6.73885
6.9963
7.22289
7.42019
7.58084
7.71049
7.81915
7.93361
8.08807
8.27643
750.933
34.3508
11.4181
11.4464
10.8795
10.2689
8.20223
5.81578
5.24949
5.34567
5.60703
5.95785
6.38659
6.89132
7.42723
7.91602
8.33769
8.71557
9.09949
9.55822
10.1227
10.7442
11.3205
11.5561
11.3595
9.9377
7.22631
6.28385
6.36782
6.58901
6.83587
7.02774
7.17502
7.31724
7.47751
7.64537
7.81436
7.99003
8.17676
8.39456
750.293
34.2848
11.4729
11.583
11.023
10.3843
8.23074
5.81773
5.25524
5.36588
5.65879
6.06987
6.57089
7.11172
7.60938
8.02616
8.36242
8.66671
8.99379
9.39843
9.8881
10.4775
11.1117
11.4446
11.4043
10.2384
7.58988
6.45031
6.54071
6.71209
6.90273
7.00451
7.08145
7.20444
7.38587
7.60307
7.82635
8.06135
8.31557
8.58215
749.661
34.1806
11.4924
11.6919
11.1629
10.4874
8.26147
5.83096
5.26779
5.39189
5.74051
6.22418
6.76657
7.27877
7.71758
8.06244
8.36471
8.6568
8.98061
9.35764
9.78077
10.2626
10.8245
11.2106
11.3426
10.5151
8.02302
6.66328
6.71565
6.796
6.90403
6.94579
7.00782
7.13835
7.34239
7.59796
7.89737
8.20376
8.49296
8.76069
749.124
34.0852
11.4802
11.7499
11.2658
10.5757
8.29404
5.86983
5.30242
5.43616
5.84047
6.37041
6.90559
7.37523
7.74973
8.06425
8.359
8.68217
9.03749
9.41614
9.79443
10.1704
10.5715
10.9402
11.1758
10.7006
8.4343
6.86632
6.84929
6.8305
6.87846
6.9153
6.99898
7.14748
7.36578
7.6594
8.00962
8.34112
8.61022
8.8426
748.401
34.0426
11.4018
11.7168
11.3073
10.6433
8.35346
5.93956
5.37061
5.51832
5.93581
6.46203
6.96801
7.39894
7.74198
8.04454
8.36693
8.73592
9.13636
9.53064
9.87193
10.1645
10.4417
10.7514
10.9861
10.7684
8.72245
6.993
6.88316
6.82149
6.87897
6.95673
7.06891
7.23354
7.4815
7.81345
8.1551
8.42693
8.63285
8.8268
749.033
34.1399
11.2914
11.6064
11.2744
10.6682
8.4475
6.05687
5.4736
5.6115
6.00718
6.49041
6.96816
7.36175
7.68989
8.01589
8.38794
8.80167
9.24551
9.65284
9.97533
10.2115
10.4304
10.7163
10.8794
10.7234
8.85094
7.01191
6.8213
6.80465
6.9332
7.06673
7.22116
7.4272
7.70292
8.00207
8.25722
8.4561
8.61462
8.77035
749.49
34.3386
11.1988
11.4457
11.1736
10.6358
8.55728
6.20209
5.60044
5.70657
6.05163
6.47249
6.8999
7.27849
7.63471
8.00649
8.41772
8.86915
9.33419
9.74327
10.0657
10.2957
10.5348
10.7997
10.9014
10.6115
8.80911
6.92025
6.70263
6.83155
7.05779
7.26163
7.47386
7.70443
7.93273
8.14519
8.32919
8.45544
8.57151
8.71265
750.131
34.6219
11.1648
11.3126
11.0204
10.5571
8.64657
6.3425
5.72298
5.79241
6.06612
6.41624
6.79872
7.18908
7.58988
8.00878
8.45922
8.92972
9.38385
9.78704
10.1158
10.3922
10.6979
10.9525
10.9793
10.5169
8.70744
6.78125
6.55659
6.82493
7.20025
7.52393
7.75702
7.93474
8.09199
8.229
8.34606
8.46581
8.5836
8.71143
750.805
34.9672
11.1796
11.2347
10.8579
10.4375
8.69219
6.43431
5.81011
5.86315
6.0722
6.35915
6.70247
7.09711
7.53523
8.00703
8.49751
8.97469
9.40484
9.79284
10.1344
10.4761
10.8495
11.1046
11.0711
10.4757
8.67905
6.71697
6.45843
6.82672
7.36161
7.76798
7.98122
8.08613
8.16511
8.26602
8.39878
8.54211
8.66829
8.77647
751.467
35.3256
11.2582
11.2255
10.7348
10.2918
8.6531
6.44889
5.82057
5.88945
6.07103
6.31554
6.63355
7.02247
7.48493
8.00457
8.52563
9.00299
9.40992
9.78062
10.141
10.5336
10.945
11.2008
11.1421
10.5195
8.77501
6.74883
6.42979
6.83716
7.42084
7.86535
8.05471
8.12934
8.1821
8.30852
8.48028
8.65362
8.79061
8.87294
752.121
35.6719
11.3771
11.2715
10.6855
10.1487
8.51435
6.37109
5.77089
5.86448
6.03258
6.28064
6.59688
6.9899
7.47433
8.01478
8.54851
9.01568
9.40344
9.76803
10.1465
10.5607
10.9689
11.2132
11.1644
10.6324
8.97684
6.89353
6.49635
6.83797
7.38413
7.82766
8.03499
8.09663
8.18253
8.34145
8.55056
8.75764
8.89646
8.95151
752.46
35.9824
11.4944
11.3356
10.6764
10.0544
8.31442
6.20233
5.63563
5.78348
5.97222
6.25257
6.58195
6.99443
7.49559
8.03918
8.56125
9.00768
9.39189
9.76604
10.1595
10.5586
10.9293
11.1714
11.1694
10.7962
9.26686
7.14244
6.60005
6.82945
7.2512
7.65504
7.92025
8.04939
8.17458
8.38002
8.62128
8.83694
8.95263
8.97935
752.451
36.2459
11.5763
11.3793
10.6743
9.985
8.13433
6.00837
5.4462
5.62223
5.87637
6.20135
6.58015
7.02558
7.53763
8.06823
8.56268
8.98825
9.38547
9.78005
10.1792
10.5423
10.858
11.1171
11.179
11.0018
9.60539
7.37854
6.68739
6.76135
7.06076
7.42688
7.76404
8.01789
8.1983
8.41013
8.64401
8.83752
8.93531
8.95583
752.224
36.4394
11.6241
11.4
10.6661
9.9343
7.99533
5.84516
5.26685
5.39401
5.71836
6.11082
6.55601
7.06396
7.59736
8.10523
8.56804
8.97677
9.38535
9.79792
10.1921
10.5193
10.7912
11.077
11.2211
11.2307
9.87581
7.52653
6.74052
6.65548
6.88309
7.23081
7.6152
7.973
8.21303
8.40007
8.58525
8.74574
8.85187
8.9009
751.871
36.5508
11.6486
11.4113
10.6507
9.88147
7.87815
5.7235
5.14587
5.19536
5.51952
5.96292
6.48544
7.06489
7.64508
8.15835
8.58729
8.97945
9.38668
9.81259
10.1977
10.5019
10.7608
11.0774
11.3082
11.397
10.0191
7.58675
6.72993
6.54315
6.73939
7.08944
7.48692
7.89483
8.20156
8.34455
8.46058
8.58725
8.72826
8.85018
751.476
36.6095
11.655
11.4217
10.6357
9.82738
7.77471
5.63285
5.08431
5.0803
5.34788
5.7696
6.34005
7.00008
7.65727
8.19911
8.62026
9.0024
9.39731
9.80885
10.1938
10.5032
10.7842
11.1199
11.388
11.4654
10.044
7.57143
6.67313
6.4519
6.6318
6.978
7.37426
7.81331
8.13634
8.27127
8.33043
8.4269
8.61208
8.82068
751.335
36.6687
11.6498
11.4364
10.6316
9.78125
7.6897
5.57075
5.0537
5.03131
5.25069
5.60259
6.14701
6.85545
7.61037
8.20921
8.64795
9.03079
9.40545
9.79682
10.1883
10.526
10.8495
11.1783
11.4162
11.4274
9.97434
7.49867
6.60739
6.39416
6.56539
6.89241
7.27511
7.71454
8.03596
8.18888
8.21926
8.29946
8.51425
8.78903
751.389
36.7437
11.6353
11.4491
10.6372
9.74934
7.62701
5.53444
5.05095
5.02002
5.212
5.50617
5.97788
6.66097
7.47646
8.18369
8.65679
9.05134
9.41223
9.79382
10.1978
10.5654
10.9201
11.2214
11.3919
11.3018
9.82967
7.41122
6.54915
6.36378
6.53616
6.84139
7.19614
7.59158
7.91269
8.0806
8.13342
8.22638
8.44526
8.73178
751.635
36.8781
11.6215
11.4572
10.6487
9.73686
7.59189
5.52054
5.06281
5.03769
5.21154
5.46808
5.87563
6.4873
7.27736
8.08673
8.64139
9.06004
9.42949
9.81279
10.2283
10.6118
10.9643
11.221
11.301
11.113
9.65618
7.33161
6.50794
6.37115
6.54165
6.81855
7.14153
7.45593
7.75456
7.97212
8.08885
8.20838
8.40216
8.6636
752.22
37.0826
11.6247
11.4736
10.6659
9.75026
7.59372
5.52745
5.07899
5.06255
5.23583
5.4772
5.84112
6.37821
7.09119
7.9079
8.58794
9.06492
9.47108
9.86118
10.2743
10.6521
10.9768
11.1639
11.1414
10.8874
9.48184
7.27083
6.48557
6.40842
6.58697
6.83036
7.08176
7.32718
7.59619
7.87783
8.09989
8.23179
8.39074
8.59122
753.1
37.3546
11.6464
11.4928
10.6881
9.79287
7.6328
5.54959
5.09325
5.08468
5.27449
5.52339
5.86317
6.34178
6.96445
7.71323
8.4725
9.05964
9.52972
9.93805
10.3333
10.6763
10.9442
11.0354
10.95
10.6689
9.32558
7.22562
6.47763
6.46807
6.65233
6.85654
7.03497
7.21825
7.46489
7.78438
8.10467
8.28902
8.40468
8.52831
754.38
37.6202
11.6942
11.5219
10.7296
9.87343
7.70465
5.58139
5.09962
5.09996
5.323
5.60222
5.93769
6.36094
6.89916
7.56039
8.3229
9.04121
9.59561
10.0341
10.393
10.6689
10.847
10.882
10.7715
10.4793
9.18661
7.18218
6.47414
6.54164
6.72792
6.89841
7.02118
7.15092
7.37077
7.69897
8.07577
8.35251
8.43006
8.49233
754.479
37.7537
11.7882
11.6023
10.8006
9.99098
7.80478
5.61871
5.09627
5.11345
5.38034
5.70652
6.05734
6.43545
6.88179
7.45822
8.19698
9.00151
9.65762
10.1285
10.4344
10.6147
10.7303
10.7547
10.6318
10.321
9.0607
7.12775
6.4652
6.61116
6.79541
6.95432
7.0381
7.12685
7.31157
7.6164
8.01543
8.35238
8.45971
8.48554
754.499
37.7077
11.9153
11.7237
10.9292
10.1626
7.92723
5.6482
5.08238
5.12782
5.44407
5.82793
6.20692
6.54924
6.9087
7.39959
8.10751
8.95374
9.69598
10.1902
10.4367
10.5349
10.6341
10.674
10.5426
10.2044
8.95569
7.06753
6.46353
6.65107
6.8535
7.01542
7.07988
7.13739
7.27869
7.54265
7.90843
8.27809
8.48047
8.51036
754.07
37.4558
12.0395
11.8467
11.1118
10.3886
8.07004
5.66821
5.0615
5.145
5.5117
5.95757
6.36873
6.67848
6.96518
7.38051
8.04777
8.89903
9.68691
10.1938
10.4102
10.4683
10.5695
10.626
10.4904
10.1161
8.86521
7.00605
6.45501
6.66454
6.90362
7.07547
7.13587
7.16793
7.26111
7.4621
7.76441
8.13764
8.45856
8.60401
753.2
36.9425
12.1186
12.0041
11.3269
10.6088
8.22032
5.69099
5.04136
5.17031
5.58238
6.08777
6.52283
6.79685
7.03432
7.39173
8.0076
8.83102
9.6281
10.1607
10.3896
10.4408
10.5455
10.6262
10.4888
10.0859
8.81614
6.94955
6.4349
6.65386
6.93016
7.12064
7.18596
7.19798
7.24986
7.37758
7.61931
7.96285
8.35383
8.68725
752.15
36.1761
12.125
12.1562
11.5359
10.7768
8.35763
5.72571
5.02788
5.20454
5.65674
6.21329
6.64744
6.89027
7.10479
7.419
7.98167
8.74343
9.51394
10.0729
10.3741
10.4563
10.5624
10.6603
10.5209
10.0971
8.80875
6.90925
6.41802
6.64006
6.92921
7.1308
7.20951
7.21567
7.24273
7.32671
7.5081
7.81705
8.26377
8.80007
750.694
35.1445
12.035
12.2378
11.7034
10.8948
8.48451
5.78728
5.03632
5.24227
5.7335
6.32102
6.72657
6.96065
7.1758
7.46641
7.95751
8.63219
9.36132
9.954
10.3562
10.51
10.6145
10.7157
10.5669
10.1296
8.8302
6.88356
6.39796
6.62228
6.91064
7.10135
7.19116
7.2249
7.26111
7.33606
7.47034
7.79461
8.30218
8.93201
749.27
33.985
11.8757
12.2331
11.7919
10.971
8.61887
5.89588
5.08326
5.30052
5.80278
6.38886
6.76825
7.01685
7.24652
7.52757
7.94757
8.52029
9.1931
9.81699
10.3202
10.5936
10.7007
10.7963
10.6295
10.1817
8.88143
6.89057
6.39094
6.61329
6.8745
7.05368
7.15929
7.23061
7.30789
7.41537
7.59017
7.88692
8.34013
8.90623
748.473
32.9053
11.6514
12.1085
11.7701
11.0063
8.77914
6.07653
5.17596
5.38196
5.86276
6.39521
6.774
7.05842
7.31606
7.59979
7.95752
8.42698
9.02372
9.6815
10.2701
10.6623
10.8066
10.8748
10.6934
10.2541
8.96301
6.93053
6.40554
6.62382
6.83924
7.00847
7.13517
7.25404
7.40032
7.59317
7.81651
8.04444
8.35663
8.7746
748.427
31.9845
11.3896
11.866
11.6469
10.9946
8.98064
6.34845
5.31655
5.47619
5.90051
6.3483
6.74327
7.0825
7.3826
7.67649
7.98588
8.36644
8.89256
9.55779
10.216
10.7062
10.9068
10.9346
10.7589
10.3575
9.08732
7.02049
6.45545
6.66097
6.82077
6.99101
7.14291
7.32665
7.56433
7.83412
8.05546
8.20057
8.35509
8.59509
748.784
31.2076
11.169
11.564
11.4343
10.934
9.23863
6.71727
5.48021
5.56515
5.90445
6.28441
6.69209
7.07731
7.43016
7.74806
8.03623
8.36214
8.8185
9.44202
10.1288
10.6857
10.982
11.0046
10.8362
10.5019
9.26591
7.16067
6.5441
6.71095
6.83131
7.01645
7.20577
7.44914
7.74767
8.03563
8.21867
8.32348
8.38311
8.45867
749.622
30.614
11.0241
11.2739
11.1668
10.8503
9.53358
7.12875
5.64423
5.65112
5.88816
6.22906
6.64406
7.06719
7.45164
7.80106
8.10437
8.4148
8.8062
9.34577
9.98549
10.5719
11.0013
11.1383
10.9909
10.7302
9.52414
7.32242
6.6703
6.74099
6.88062
7.09298
7.31983
7.58675
7.883
8.13635
8.30541
8.3682
8.34892
8.34403
750.844
30.195
10.9437
11.0436
10.9026
10.7794
9.84305
7.536
5.8147
5.73077
5.87931
6.19274
6.59724
7.03513
7.44957
7.83231
8.17727
8.51098
8.8655
9.28751
9.80925
10.3549
10.8847
11.2504
11.2334
11.0774
9.82841
7.45129
6.75923
6.77906
6.94809
7.19193
7.44104
7.6963
7.94665
8.15886
8.28332
8.33524
8.32536
8.31185
752.232
29.8763
10.915
10.8967
10.7077
10.7276
10.0944
7.88453
5.97588
5.80134
5.88731
6.18293
6.55817
6.98448
7.41819
7.84673
8.24957
8.6219
8.96273
9.30146
9.66612
10.0984
10.6747
11.2664
11.5084
11.5397
10.1548
7.57361
6.84094
6.83254
7.03807
7.30279
7.55235
7.77959
7.96242
8.0986
8.20497
8.27847
8.32618
8.35236
753.087
29.6248
10.9138
10.8245
10.5987
10.6888
10.2568
8.13263
6.10078
5.84691
5.89995
6.17997
6.52885
6.93318
7.37159
7.8349
8.29732
8.71766
9.05643
9.31789
9.56978
9.89012
10.4592
11.2111
11.7592
11.9723
10.3766
7.67521
6.8893
6.88691
7.12703
7.4061
7.63419
7.79591
7.91824
8.01991
8.11309
8.219
8.34105
8.45217
753.483
29.4645
10.9342
10.8095
10.558
10.6674
10.336
8.26921
6.17465
5.87813
5.91831
6.19356
6.53457
6.91918
7.34519
7.82514
8.32641
8.7922
9.13059
9.35949
9.5487
9.80035
10.3037
11.113
11.8935
12.2443
10.5393
7.78185
6.9523
6.93714
7.19317
7.48164
7.68599
7.81244
7.89739
7.96572
8.04667
8.1612
8.30294
8.43926
8.31215
8.49934
8.72752
9.00176
9.3757
9.91
10.7166
11.9063
12.8323
12.8064
11.5463
8.59151
7.4032
7.45019
7.62972
7.83501
7.93792
7.97827
8.02549
8.11785
8.25868
8.42258
8.56574
8.66183
8.71472
8.75018
8.78893
8.85796
8.95329
9.05142
9.14525
9.27191
9.52827
9.99699
10.4825
10.896
10.6141
9.34891
8.08469
7.74349
7.65597
7.77158
7.97297
8.17245
8.33052
8.40201
8.4073
8.378
8.363
8.39936
8.52426
8.7062
8.85637
8.92418
8.94184
8.89215
8.87657
8.89458
8.92953
8.74302
8.07436
7.13687
6.71199
6.65661
6.74542
6.93381
7.16672
7.4461
7.84035
8.23752
8.53423
8.67909
8.63948
8.52998
8.46724
8.47844
8.57739
8.76413
9.01564
9.50622
8.404
8.65495
8.95675
9.29525
9.70483
10.2026
10.9224
11.8361
12.2586
12.0555
10.7511
8.16687
7.34647
7.42044
7.57839
7.76522
7.86923
7.92566
8.00212
8.13188
8.29647
8.45897
8.58643
8.67492
8.72776
8.76468
8.81388
8.89011
8.99267
9.1116
9.23461
9.40923
9.73491
10.206
10.512
10.7492
10.2475
8.94104
7.92229
7.72918
7.70397
7.85262
8.04799
8.21545
8.33313
8.39508
8.4042
8.40952
8.44817
8.55026
8.73686
8.96948
9.14291
9.16137
9.07439
8.97883
8.92845
8.8975
8.87632
8.60934
7.90616
7.05218
6.74296
6.70758
6.81406
7.00886
7.25786
7.55133
7.85203
8.15847
8.40864
8.53261
8.55466
8.5388
8.52149
8.53907
8.61983
8.76791
8.97915
9.38137
8.51735
8.81359
9.15636
9.49819
9.85452
10.2588
10.8184
11.534
11.9228
11.7882
10.3576
7.89633
7.2533
7.28208
7.426
7.6203
7.76688
7.8781
7.99202
8.13339
8.28892
8.43899
8.56486
8.64972
8.70533
8.7592
8.83019
8.92854
9.04846
9.1711
9.33069
9.56879
9.94565
10.3582
10.5039
10.5745
9.94852
8.59611
7.83626
7.74759
7.79225
7.9452
8.10147
8.21731
8.31059
8.38947
8.43692
8.47578
8.54208
8.67525
8.87152
9.08635
9.26529
9.33799
9.281
9.16646
9.03755
8.91912
8.81933
8.5098
7.81403
7.03159
6.79466
6.76412
6.8721
7.09051
7.39185
7.67495
7.86465
8.00762
8.18292
8.34662
8.47059
8.58243
8.65224
8.67899
8.70181
8.76597
8.92414
9.26629
8.69307
9.04598
9.39326
9.71472
10.0142
10.3052
10.7165
11.2151
11.4002
11.2575
9.85049
7.73282
7.18016
7.13781
7.25191
7.44093
7.63233
7.80071
7.9526
8.09646
8.23718
8.37519
8.50244
8.6102
8.69796
8.77708
8.86965
8.98928
9.13471
9.30679
9.52063
9.80935
10.1886
10.4596
10.4998
10.3215
9.51262
8.22154
7.77667
7.81054
7.89159
8.03128
8.14714
8.22661
8.29626
8.37847
8.46809
8.55793
8.66492
8.80083
8.96192
9.12603
9.28909
9.41645
9.47761
9.42649
9.22492
8.95448
8.70751
8.35416
7.68916
7.03523
6.86835
6.85508
6.98637
7.28207
7.61826
7.84529
7.93064
7.95041
8.02259
8.22298
8.48792
8.70917
8.84709
8.86178
8.8394
8.84724
8.96236
9.27659
8.89625
9.25446
9.57816
9.83709
10.0449
10.2493
10.5217
10.8298
10.8992
10.7482
9.53142
7.69233
7.11869
7.05103
7.15371
7.33804
7.53427
7.71808
7.8765
8.00076
8.11961
8.24808
8.38424
8.52242
8.65983
8.79498
8.94404
9.11779
9.31284
9.5129
9.72957
10.019
10.3998
10.5266
10.4062
10.0897
9.04049
7.92011
7.73565
7.86986
7.98639
8.09893
8.15062
8.18134
8.23678
8.33275
8.46397
8.59517
8.71468
8.82505
8.93427
9.06267
9.20496
9.37398
9.54123
9.59151
9.40153
9.02647
8.66893
8.23397
7.54348
7.04175
6.9643
7.02015
7.26395
7.58662
7.83976
7.98153
8.02693
8.02261
8.06288
8.25922
8.61708
9.00092
9.24269
9.31817
9.21766
9.10302
9.16449
9.46061
9.04517
9.35733
9.64474
9.86829
9.99983
10.1059
10.2514
10.395
10.429
10.3109
9.36378
7.7264
7.10352
7.01874
7.11921
7.30984
7.49678
7.64435
7.75493
7.84798
7.94711
8.07316
8.23007
8.4192
8.63546
8.86131
9.07753
9.2875
9.49855
9.70626
9.916
10.2058
10.5
10.5251
10.286
9.8209
8.56206
7.70202
7.68051
7.89103
8.04499
8.12059
8.12295
8.12155
8.16266
8.27318
8.438
8.60608
8.73184
8.80738
8.85554
8.90504
9.01113
9.22718
9.50789
9.64814
9.52203
9.13676
8.73206
8.1807
7.40995
7.04789
7.11814
7.38542
7.66488
7.84349
7.96223
8.05188
8.13896
8.24359
8.38919
8.5599
8.80854
9.12626
9.42309
9.6121
9.69242
9.74564
9.94383
10.298
9.09798
9.37429
9.62349
9.80963
9.90634
9.94105
9.98886
10.0411
10.059
9.99651
9.27565
7.80238
7.12786
7.04936
7.13732
7.32254
7.49741
7.60988
7.67245
7.72261
7.79391
7.90288
8.0719
8.3191
8.62541
8.94153
9.21853
9.44829
9.65107
9.84908
10.0641
10.3337
10.5139
10.5226
10.22
9.55594
8.16397
7.55774
7.61069
7.86291
8.04131
8.1035
8.08197
8.05756
8.09261
8.21846
8.40768
8.59341
8.70501
8.7413
8.74913
8.77589
8.87813
9.10367
9.42731
9.65561
9.60998
9.29716
8.90208
8.21744
7.39338
7.26581
7.53042
7.82274
7.94093
7.99627
8.02866
8.07906
8.22545
8.4329
8.61218
8.7406
8.85496
9.00014
9.27147
9.58327
9.89488
10.1916
10.626
11.1227
9.05027
9.30017
9.54277
9.71397
9.79115
9.78265
9.78051
9.81211
9.7994
9.76354
9.20413
7.87905
7.17336
7.12902
7.19051
7.36087
7.50282
7.55861
7.57309
7.60099
7.66445
7.78762
7.98563
8.26962
8.62977
9.00026
9.31237
9.55809
9.76003
9.94471
10.15
10.4168
10.5561
10.512
10.1759
9.26263
7.84602
7.45194
7.53954
7.77081
7.97729
8.05417
8.03
8.00958
8.05573
8.19392
8.3944
8.57857
8.67166
8.70937
8.72671
8.74288
8.81639
9.03793
9.37793
9.70383
9.79591
9.63729
9.34676
8.58442
7.77634
7.76498
7.93019
8.07054
8.10611
8.08306
8.06869
8.11607
8.24783
8.48861
8.72067
8.85577
8.91278
8.97087
9.08964
9.38683
9.82916
10.2889
10.8064
11.3521
8.9621
9.19456
9.43585
9.61616
9.70283
9.69439
9.67394
9.68835
9.63193
9.57822
9.11932
7.93201
7.25025
7.2058
7.26139
7.39589
7.49249
7.52076
7.52603
7.55149
7.62164
7.75807
7.98168
8.28495
8.64956
9.00682
9.324
9.59321
9.82276
10.0115
10.2042
10.4848
10.6479
10.522
10.1283
8.95651
7.6142
7.35437
7.45687
7.6564
7.87661
7.98866
7.99703
8.0025
8.07109
8.21475
8.41538
8.6053
8.70568
8.74548
8.75952
8.78702
8.87987
9.10897
9.47599
9.98917
10.3718
10.519
10.393
9.50971
8.34495
8.04824
8.07971
8.15623
8.17788
8.1395
8.09895
8.12306
8.25002
8.45107
8.6788
8.82727
8.84158
8.84358
8.94917
9.22113
9.63811
10.1344
10.6143
11.1205
8.88877
9.1088
9.35347
9.55857
9.66716
9.67823
9.64972
9.63744
9.55885
9.43025
9.01343
7.9447
7.31259
7.2687
7.33695
7.42148
7.48436
7.5056
7.51999
7.56026
7.6528
7.81601
8.06018
8.36267
8.67488
8.94877
9.23836
9.5267
9.79689
10.0529
10.2712
10.5613
10.7427
10.556
10.0605
8.6593
7.4766
7.30675
7.38492
7.56222
7.77892
7.93733
8.00721
8.05049
8.13463
8.27887
8.45059
8.61089
8.74507
8.84554
8.92898
9.01275
9.14495
9.35605
9.71358
10.3373
10.996
11.3267
11.1762
10.0391
8.57943
8.098
8.05042
8.10985
8.16652
8.17978
8.16042
8.14899
8.2045
8.31769
8.46733
8.60155
8.69979
8.77727
8.90213
9.137
9.51205
9.89879
10.3183
10.7151
8.86782
9.06911
9.30619
9.53377
9.66016
9.70102
9.68065
9.63147
9.53398
9.32482
8.9104
7.91672
7.31813
7.27523
7.40806
7.44889
7.49423
7.51879
7.55151
7.62401
7.75417
7.95093
8.20437
8.46873
8.71246
8.92756
9.1634
9.42242
9.69586
9.97789
10.2786
10.6024
10.7607
10.561
9.93569
8.40572
7.4472
7.32511
7.35565
7.50911
7.71463
7.90969
8.05653
8.15164
8.24713
8.39095
8.56683
8.75364
8.94294
9.11076
9.22334
9.29097
9.36997
9.50282
9.84624
10.5056
11.2599
11.6178
11.4358
10.1672
8.64459
8.11475
7.96674
8.00584
8.13034
8.23525
8.26206
8.20826
8.16907
8.17013
8.22002
8.36411
8.58151
8.79885
8.97675
9.17367
9.3898
9.60284
9.9276
10.2275
8.89874
9.06936
9.27298
9.49186
9.66155
9.74695
9.73154
9.64255
9.52673
9.26199
8.83928
7.8665
7.2576
7.23459
7.41977
7.49426
7.53812
7.57193
7.63073
7.74146
7.91097
8.127
8.35577
8.55053
8.70409
8.8789
9.0852
9.30629
9.55305
9.84801
10.2082
10.5467
10.6396
10.4802
9.70053
8.18889
7.50873
7.41204
7.40873
7.53464
7.72753
7.92266
8.14166
8.33112
8.4801
8.62515
8.78338
8.96529
9.14774
9.29015
9.37211
9.42951
9.48633
9.59687
9.93127
10.5629
11.3233
11.703
11.4665
10.1581
8.57653
8.03279
7.87713
7.94494
8.11391
8.27798
8.36112
8.29147
8.16294
8.06793
8.06617
8.19701
8.46457
8.79489
9.10308
9.27706
9.35779
9.45291
9.71652
9.95074
8.94968
9.07011
9.23389
9.42558
9.64175
9.77603
9.76988
9.66287
9.54834
9.25705
8.8086
7.82362
7.14833
7.14701
7.36435
7.55081
7.62405
7.67456
7.75959
7.8997
8.08643
8.28201
8.43704
8.56176
8.70487
8.8696
9.05331
9.23855
9.44946
9.71886
10.0611
10.3687
10.4397
10.2822
9.36873
7.98251
7.53821
7.52277
7.52806
7.63303
7.80792
8.06194
8.33705
8.59287
8.74465
8.83269
8.92875
9.0502
9.18888
9.32414
9.42956
9.48276
9.52958
9.65331
9.99433
10.5861
11.2897
11.5915
11.2456
9.94283
8.42552
7.95399
7.85928
7.97982
8.1517
8.32351
8.40019
8.35257
8.17881
8.03821
8.00683
8.1272
8.40892
8.80436
9.156
9.31002
9.34584
9.44641
9.71372
9.91847
8.97802
9.04684
9.16456
9.34633
9.58944
9.76762
9.78478
9.695
9.59106
9.29806
8.82474
7.80424
7.02446
7.01924
7.26738
7.58746
7.75565
7.83142
7.92113
8.06164
8.22858
8.35986
8.45399
8.5735
8.72253
8.89654
9.07273
9.23391
9.40626
9.624
9.86773
10.0789
10.1497
9.93446
9.01457
7.86024
7.56881
7.58482
7.63408
7.78049
7.98196
8.24102
8.51762
8.76188
8.88169
8.92101
8.97459
9.04696
9.15206
9.27815
9.38592
9.45218
9.52944
9.70284
10.0386
10.5668
11.1074
11.2599
10.8645
9.63115
8.26994
7.92627
7.89477
8.0546
8.23304
8.34866
8.40758
8.36153
8.2191
8.08231
8.06413
8.19014
8.46961
8.84051
9.11874
9.24133
9.34832
9.48511
9.77645
9.95909
8.96652
8.98913
9.08504
9.2782
9.52502
9.72925
9.78316
9.74368
9.66045
9.37258
8.8823
7.81131
6.92847
6.89134
7.15441
7.54659
7.88175
8.02504
8.10188
8.20071
8.29963
8.37427
8.46465
8.59245
8.75712
8.94846
9.13204
9.28394
9.42293
9.57217
9.72128
9.80107
9.81056
9.50693
8.69635
7.7609
7.56039
7.61239
7.73244
7.93109
8.15139
8.37414
8.60287
8.817
8.94848
8.9702
8.97106
8.97803
9.02422
9.11007
9.2499
9.4111
9.55852
9.78727
10.1132
10.5758
10.9156
10.9081
10.562
9.40596
8.18455
7.95334
7.95914
8.12991
8.30061
8.34067
8.35431
8.32624
8.25627
8.20207
8.20212
8.35006
8.60776
8.87847
9.0118
9.11382
9.28355
9.49841
9.83157
9.99318
8.92963
8.93715
9.04118
9.23666
9.46288
9.6359
9.74577
9.80217
9.75487
9.47694
8.96804
7.84196
6.8908
6.79402
7.03497
7.48711
7.91664
8.19599
8.28186
8.30387
8.32821
8.3818
8.48213
8.62564
8.80545
9.0125
9.21556
9.37655
9.47764
9.54399
9.62558
9.66996
9.59518
9.28777
8.53291
7.6487
7.39795
7.48459
7.70029
7.97254
8.22258
8.41622
8.5782
8.74352
8.91349
8.95561
8.90705
8.88344
8.89555
8.97593
9.15586
9.40184
9.63519
9.91929
10.1905
10.5641
10.7389
10.6247
10.3128
9.21659
8.16239
8.00484
8.03219
8.17807
8.30827
8.31079
8.2693
8.25731
8.26938
8.31405
8.42908
8.58545
8.76079
8.83494
8.88137
8.9834
9.17751
9.45987
9.81737
9.94068
8.89791
8.93552
9.04357
9.21094
9.37803
9.51772
9.69032
9.86104
9.873
9.6066
9.08016
7.88899
6.90728
6.75978
6.95142
7.38936
7.90886
8.26602
8.41333
8.37664
8.35932
8.40615
8.52191
8.68003
8.86656
9.08096
9.30603
9.47774
9.53184
9.56601
9.62895
9.65724
9.56078
9.22791
8.52096
7.60027
7.20229
7.22103
7.47473
7.82571
8.13146
8.32747
8.45643
8.58355
8.7399
8.8544
8.84701
8.82072
8.8326
8.92093
9.11637
9.41495
9.74228
10.0413
10.2278
10.4694
10.585
10.4246
10.1047
9.03975
8.16765
8.05749
8.07968
8.18594
8.27457
8.24495
8.19678
8.20675
8.29756
8.47758
8.7063
8.82938
8.82848
8.79783
8.81312
8.91216
9.10612
9.38909
9.72796
9.81518
8.90693
8.97712
9.06623
9.16278
9.2715
9.40398
9.63311
9.89686
9.99149
9.76958
9.21733
7.96838
6.96018
6.77125
6.9361
7.30869
7.82326
8.22453
8.43443
8.44777
8.4265
8.47401
8.59855
8.76165
8.9494
9.16571
9.3834
9.52794
9.59575
9.6465
9.69394
9.70076
9.5786
9.25332
8.59842
7.63319
7.1221
7.01132
7.17611
7.51538
7.87309
8.11993
8.25097
8.35882
8.52896
8.73678
8.84607
8.84732
8.87723
8.98985
9.21065
9.543
9.85953
10.0844
10.1994
10.3495
10.4685
10.2994
9.96329
8.91204
8.16457
8.08581
8.09204
8.15812
8.20406
8.17263
8.15962
8.22352
8.37857
8.67665
8.90074
8.98149
8.89226
8.807
8.80937
8.91301
9.1031
9.3494
9.65913
9.71091
8.9574
9.03486
9.07875
9.11416
9.17497
9.30419
9.57287
9.90896
10.097
9.97343
9.37532
8.08362
7.04034
6.81951
6.94561
7.26738
7.68772
8.11971
8.37961
8.50762
8.5322
8.59666
8.71213
8.87098
9.056
9.24864
9.42529
9.58014
9.6558
9.69426
9.71047
9.717
9.62425
9.34807
8.70097
7.67682
7.09743
6.95398
7.04047
7.2725
7.56693
7.83208
7.98905
8.08426
8.25727
8.5364
8.82369
9.00798
9.09248
9.22411
9.43166
9.67483
9.8868
10.0102
10.13
10.2827
10.393
10.2348
9.8795
8.83575
8.14942
8.07809
8.057
8.09378
8.11931
8.12535
8.17718
8.30989
8.53292
8.77289
8.95853
8.99993
8.9299
8.8757
8.88335
8.98352
9.16095
9.38911
9.64839
9.66613
9.01251
9.09134
9.09914
9.08516
9.11136
9.23491
9.52226
9.90263
10.168
10.1867
9.55185
8.22824
7.14384
6.90346
6.97348
7.236
7.56603
7.97017
8.31489
8.56781
8.68921
8.77176
8.86459
9.00403
9.14174
9.30082
9.46805
9.56679
9.61868
9.63464
9.63871
9.70448
9.65775
9.3997
8.7859
7.72394
7.08665
6.92249
6.9593
7.13906
7.36811
7.57357
7.71337
7.79688
7.95547
8.28659
8.72634
9.10765
9.43499
9.58208
9.67657
9.77148
9.81926
9.90694
10.0726
10.2597
10.3489
10.2326
9.83354
8.78263
8.10133
8.02238
7.98986
8.02728
8.07864
8.13444
8.24258
8.4505
8.68061
8.82472
8.91432
8.93729
8.96531
8.9949
9.02173
9.10891
9.26836
9.48501
9.71288
9.70818
9.00656
9.11942
9.12357
9.09302
9.09936
9.21317
9.50423
9.91394
10.2348
10.3443
9.73685
8.38228
7.26317
7.02058
7.03495
7.22313
7.49599
7.8333
8.25127
8.58627
8.85813
8.96898
9.03589
9.10862
9.17962
9.31825
9.39477
9.44495
9.47679
9.50349
9.59235
9.64816
9.6182
9.41536
8.85117
7.79273
7.11806
6.95825
6.95712
7.07643
7.24742
7.39816
7.50625
7.58362
7.7038
7.99569
8.58393
9.25068
9.70132
9.94282
9.89146
9.77178
9.73026
9.81165
10.0392
10.2806
10.346
10.265
9.80031
8.7169
8.02531
7.93792
7.91745
7.98556
8.09638
8.2152
8.38057
8.6218
8.81716
8.84857
8.8559
8.87332
8.94766
9.06374
9.19458
9.2841
9.41332
9.62712
9.82932
9.8024
8.92539
9.08638
9.12458
9.12419
9.14217
9.25729
9.54174
9.96381
10.2944
10.4356
9.88729
8.53372
7.39301
7.16244
7.13791
7.2641
7.49228
7.77665
8.20627
8.65109
8.99747
9.12556
9.17885
9.16713
9.18114
9.21971
9.21657
9.23726
9.29177
9.38773
9.4955
9.51829
9.52207
9.37283
8.90012
7.87988
7.18195
7.03338
7.00067
7.07171
7.18116
7.2887
7.39322
7.50106
7.60741
7.84732
8.34139
9.13694
9.76615
10.0786
10.043
9.85789
9.72677
9.77274
10.0068
10.303
10.3542
10.2596
9.72854
8.63426
7.95978
7.85002
7.85498
7.97262
8.15892
8.36997
8.59161
8.78333
8.82682
8.82303
8.82893
8.86654
8.95725
9.10692
9.2623
9.39183
9.49323
9.68756
9.87695
9.84388
8.80989
8.99183
9.09929
9.16137
9.23172
9.37143
9.64811
10.0604
10.3621
10.4912
10.02
8.68269
7.52941
7.31669
7.28008
7.37383
7.56446
7.82831
8.22241
8.72559
9.09676
9.25562
9.271
9.17687
9.11792
9.04343
9.00632
9.0453
9.15045
9.19121
9.30599
9.37236
9.4108
9.31637
8.94162
7.98083
7.26274
7.12617
7.05705
7.08204
7.15205
7.24159
7.37
7.53204
7.69251
7.91021
8.22982
8.7206
9.42848
9.89436
10.0851
9.96525
9.84199
9.84563
10.0353
10.3103
10.3768
10.2086
9.60522
8.54789
7.91353
7.78535
7.81993
7.99032
8.25652
8.56581
8.79845
8.8569
8.82656
8.81826
8.85676
8.92056
9.01413
9.1401
9.26601
9.37894
9.48269
9.62692
9.74739
9.69904
8.68664
8.85968
9.03604
9.20071
9.35243
9.5312
9.81008
10.1943
10.4565
10.5718
10.172
8.84855
7.67751
7.48504
7.46666
7.5733
7.75911
8.03039
8.36165
8.78085
9.11807
9.30211
9.30733
9.15533
9.00161
8.89093
8.89147
8.94109
8.96552
8.99535
9.11609
9.25524
9.3231
9.26884
8.97505
8.07309
7.33553
7.20224
7.09742
7.09525
7.14508
7.25114
7.42865
7.65877
7.90592
8.08407
8.20956
8.40566
8.80565
9.44516
9.8687
10.0616
10.0264
10.0352
10.1465
10.3194
10.3608
10.1258
9.4631
8.47075
7.88461
7.75759
7.81637
8.03753
8.38207
8.72556
8.89381
8.87308
8.85039
8.86551
8.9257
9.01996
9.09935
9.17388
9.23279
9.29683
9.35314
9.40272
9.44728
9.37166
8.58282
8.73216
8.96056
9.21965
9.46529
9.70915
9.97361
10.3158
10.5605
10.6826
10.3349
9.00993
7.81799
7.64213
7.66537
7.84186
8.07881
8.30282
8.51777
8.76652
9.04338
9.22189
9.25967
9.12718
8.96445
8.88742
8.88081
8.88215
8.86416
8.88073
9.00102
9.17775
9.27524
9.24236
9.01191
8.16151
7.39475
7.2433
7.12008
7.11339
7.17659
7.32079
7.54424
7.87171
8.15403
8.28264
8.26232
8.27936
8.40739
8.78336
9.41882
9.89629
10.177
10.2915
10.3346
10.3601
10.2993
10.0185
9.32711
8.41725
7.8713
7.76851
7.86746
8.13708
8.50163
8.78478
8.86266
8.87409
8.88793
8.9495
9.04847
9.13916
9.20363
9.22822
9.20184
9.15503
9.13863
9.05868
8.94444
8.77867
8.53576
8.67212
8.92156
9.26565
9.63625
9.8983
10.1111
10.4041
10.6564
10.8103
10.4949
9.16459
7.96822
7.83349
7.92813
8.17864
8.41354
8.53615
8.59917
8.70827
8.86255
9.04398
9.15549
9.14689
9.07215
9.0117
8.95797
8.89156
8.84405
8.85906
8.97205
9.16083
9.26726
9.25522
9.04159
8.23145
7.41761
7.24274
7.13218
7.15471
7.26362
7.45037
7.74096
8.08071
8.33042
8.3819
8.30861
8.23587
8.23756
8.38385
8.7885
9.5371
10.1038
10.4168
10.524
10.4201
10.2197
9.89396
9.2292
8.41564
7.90215
7.83865
7.97983
8.25822
8.55813
8.72767
8.80694
8.86399
8.94878
9.06789
9.18763
9.28606
9.33712
9.30127
9.18475
9.01046
8.83847
8.61495
8.4964
8.38356
8.57264
8.71673
8.99184
9.38999
9.79175
10.0036
10.1826
10.4509
10.7242
10.9187
10.6181
9.27383
8.11936
8.04141
8.19217
8.45583
8.62007