/*--------------------------------*- C++ -*----------------------------------*\
| =========                 |                                                 |
| \\      /  F ield         | OpenFOAM: The Open Source CFD Toolbox           |
|  \\    /   O peration     | Version:  v1912                                 |
|   \\  /    A nd           | Website:  www.openfoam.com                      |
|    \\/     M anipulation  |                                                 |
\*---------------------------------------------------------------------------*/
FoamFile
{
    version     2.0;
    format      ascii;
    class       volVectorField;
    location    "8.68";
    object      grad(p);
}
// * * * * * * * * * * * * * * * * * * * * * * * * * * * * * * * * * * * * * //

dimensions      [1 -2 -2 0 0 0 0];


internalField   nonuniform List<vector> 
1900
(
(-8440.42 -0.20834 0)
(-6172.39 -0.283773 0)
(-899.461 -0.13043 0)
(-376.883 0.737353 0)
(-106.981 -0.0345166 0)
(-14.523 -0.763414 0)
(3.41934 -1.90851 0)
(1.26878 5.59546 0)
(-71.3621 54.7058 0)
(742.41 82.2827 0)
(-8440.91 -0.333397 0)
(-6172.31 -0.429407 0)
(-898.439 -0.0851858 0)
(-376.787 1.66069 0)
(-108.481 0.90666 0)
(-16.397 1.01669 0)
(9.77821 1.22668 0)
(57.8831 -6.17995 0)
(5.32508 -0.874438 0)
(-140.227 10.0332 0)
(-8441.18 2.36255e-09 0)
(-6172.14 -4.9738e-10 0)
(-897.37 7.28306e-10 0)
(-375.891 2.04281e-09 0)
(-107.625 3.90799e-10 0)
(-14.203 -2.36255e-09 0)
(-3.7773 -7.99361e-10 0)
(-0.832338 -2.30926e-10 0)
(-55.149 -1.77636e-11 0)
(-239.255 -1.06581e-10 0)
(-8440.91 0.333397 0)
(-6172.31 0.429407 0)
(-898.439 0.0851858 0)
(-376.787 -1.66069 0)
(-108.481 -0.90666 0)
(-16.397 -1.01669 0)
(9.77821 -1.22668 0)
(57.8831 6.17995 0)
(5.32508 0.874438 0)
(-140.227 -10.0332 0)
(-8440.42 0.20834 0)
(-6172.39 0.283773 0)
(-899.461 0.13043 0)
(-376.883 -0.737353 0)
(-106.981 0.0345166 0)
(-14.523 0.763414 0)
(3.41934 1.90851 0)
(1.26878 -5.59546 0)
(-71.3621 -54.7058 0)
(742.41 -82.2827 0)
(48.8848 -693.449 8.42471e-12)
(-1458.62 -476.602 -9.91254e-12)
(-1406.76 -564.941 -1.24821e-11)
(884.402 -772.871 0)
(-18407.3 -7631.38 -5.44831e-11)
(-458.772 -842.82 8.29941e-12)
(-916.354 -585.769 9.91254e-12)
(-1356.78 -636.069 1.24821e-11)
(-1796.62 -513.267 0)
(-17629.4 -7065.29 0)
(-717.634 -2.25263e-10 0)
(-932.871 9.7388e-11 0)
(-1261.57 -7.6482e-10 0)
(-1782.53 1.00929e-10 0)
(-20285.8 -2.69626e-09 0)
(-458.772 842.82 8.29941e-12)
(-916.354 585.769 9.91254e-12)
(-1356.78 636.069 1.24821e-11)
(-1796.62 513.267 0)
(-17629.4 7065.29 0)
(48.8848 693.449 -2.50235e-11)
(-1458.62 476.602 -9.91254e-12)
(-1406.76 564.941 -1.24821e-11)
(884.402 772.871 -3.35508e-11)
(-18407.3 7631.38 5.44831e-11)
(-36977.7 10531.9 1.00396e-11)
(-11200.4 4094.79 -4.90293e-12)
(-5019.36 1906.12 0)
(-3216.28 1282.99 2.02875e-12)
(-1215.51 664.57 -6.70306e-13)
(-33132.1 13021.5 -5.17839e-12)
(-13113.6 3321.27 2.51312e-12)
(-5717.84 1105.36 0)
(-3584.4 776.583 -1.29797e-12)
(-1910.66 63.5192 1.73058e-13)
(-34200.9 -2.24287e-11 0)
(-14239 1.89782e-10 0)
(-5825.28 7.81268e-10 0)
(-3673.44 -1.45127e-11 5.28542e-13)
(-1881.56 4.25261e-10 -3.46117e-13)
(-33132.1 -13021.5 -5.17839e-12)
(-13113.6 -3321.27 2.51312e-12)
(-5717.84 -1105.36 0)
(-3584.4 -776.583 -1.29797e-12)
(-1910.66 -63.5192 1.73058e-13)
(-36977.7 -10531.9 5.17839e-12)
(-11200.4 -4094.79 -1.23322e-13)
(-5019.36 -1906.12 0)
(-3216.28 -1282.99 3.86395e-14)
(-1215.51 -664.57 6.70306e-13)
(410.178 -1223.51 0)
(161.537 -270.959 0)
(-81.6086 711.399 0)
(-161.823 636.149 0)
(-257.778 457.493 0)
(-335.64 182.452 0)
(-404.385 -22.9208 0)
(-394.599 -159.599 0)
(-374.738 -184.095 0)
(-462.066 -215.547 0)
(-346.767 -185.109 0)
(34.6713 -111.026 0)
(996.393 -79.6112 0)
(2036.36 -72.6373 0)
(1407.04 30.8711 0)
(256.367 -55.9122 0)
(-79.6965 -57.3302 0)
(-123.619 81.4601 0)
(-72.1847 96.2149 0)
(-159.532 -154.027 0)
(-286.04 -339.817 0)
(-397.675 -401.083 0)
(-518.742 -407.387 0)
(-594.449 -351.82 0)
(-768.835 -194.26 0)
(-1244.89 -0.873813 0)
(-1427.13 106.988 0)
(-509.185 61.013 0)
(597.575 12.7671 0)
(744.061 -5.55111 0)
(432.916 -4.24115 0)
(311.789 -3.9031 0)
(321.489 -3.66499 0)
(326.012 -2.44822 0)
(315.269 -0.543013 0)
(308.103 0.682005 0)
(312.147 1.01293 0)
(325.738 0.954812 0)
(331.819 2.92459 0)
(351.628 3.59165 0)
(35.9597 -862.1 0)
(493.754 -893.297 0)
(111.501 232.13 0)
(-256.185 349.652 0)
(-356.162 299.731 0)
(-410.284 178.255 0)
(-433.494 37.9823 0)
(-385.483 -37.3599 0)
(-360.73 -7.4622 0)
(-448.044 -24.9826 0)
(-333.059 -10.0261 0)
(38.776 -7.93437 0)
(998.911 6.54328 0)
(2040.72 46.6906 0)
(1402.35 40.1995 0)
(250.405 -11.0225 0)
(-54.4257 -22.3183 0)
(-102.826 48.986 0)
(-97.0379 8.93526 0)
(-172.977 -130.815 0)
(-268.658 -33.4538 0)
(-392.371 11.9672 0)
(-530.485 72.9785 0)
(-605.598 136.763 0)
(-757.317 122.079 0)
(-1218.1 59.132 0)
(-1421.52 68.7057 0)
(-523.526 24.3265 0)
(589.441 4.06638 0)
(742.24 -2.70481 0)
(433.046 -2.417 0)
(311.739 -2.68471 0)
(321.606 -2.77405 0)
(326.448 -2.05879 0)
(315.792 -0.632701 0)
(308.507 0.376936 0)
(312.462 0.34858 0)
(326.202 -0.46552 0)
(332.177 0.277422 0)
(350.1 0.136568 0)
(74.46 3.75457e-10 0)
(479.858 8.67993e-10 0)
(279.977 7.46877e-10 0)
(-142.157 3.83532e-10 0)
(-307.64 -2.94714e-10 0)
(-411.785 -5.20796e-10 0)
(-467.109 1.97822e-10 0)
(-407.819 7.10543e-10 0)
(-371.137 -1.17078e-10 0)
(-462.812 -1.95803e-10 0)
(-341.808 5.04647e-11 0)
(39.4915 5.24833e-11 0)
(1012.28 -6.66134e-11 0)
(2046.15 -5.2887e-10 0)
(1390.25 4.07755e-10 0)
(238.18 6.25762e-10 0)
(-62.2394 -2.90677e-10 0)
(-114.527 -5.04243e-09 0)
(-124.49 4.30767e-09 0)
(-171.864 4.35046e-08 0)
(-244.504 1.99033e-08 0)
(-366.713 2.60801e-09 0)
(-482.438 7.82404e-09 0)
(-580.165 1.00122e-08 0)
(-791.419 4.11792e-10 0)
(-1260.41 1.01333e-09 0)
(-1437.26 2.79372e-09 0)
(-527.99 3.95946e-09 0)
(589.711 2.18007e-09 0)
(742.175 -3.55271e-09 0)
(432.922 -5.16758e-09 0)
(311.685 -3.33874e-09 0)
(321.671 -8.03398e-10 0)
(326.635 -2.72509e-10 0)
(315.977 -6.54022e-10 0)
(308.388 -9.32587e-10 0)
(311.902 -1.81269e-09 0)
(325.717 -1.82884e-09 0)
(331.994 -4.19866e-10 0)
(351.508 5.40981e-10 0)
(35.9597 862.1 0)
(493.754 893.297 0)
(111.501 -232.13 0)
(-256.185 -349.652 0)
(-356.162 -299.731 0)
(-410.284 -178.255 0)
(-433.494 -37.9823 0)
(-385.483 37.3599 0)
(-360.73 7.4622 0)
(-448.044 24.9826 0)
(-333.059 10.0261 0)
(38.776 7.93437 0)
(998.911 -6.54328 0)
(2040.72 -46.6906 0)
(1402.35 -40.1995 0)
(250.405 11.0225 0)
(-54.4257 22.3183 0)
(-102.826 -48.986 0)
(-97.0379 -8.93526 0)
(-172.977 130.815 0)
(-268.658 33.4538 0)
(-392.371 -11.9672 0)
(-530.485 -72.9785 0)
(-605.598 -136.763 0)
(-757.317 -122.079 0)
(-1218.1 -59.132 0)
(-1421.52 -68.7057 0)
(-523.526 -24.3265 0)
(589.441 -4.06638 0)
(742.24 2.70481 0)
(433.046 2.417 0)
(311.739 2.68471 0)
(321.606 2.77405 0)
(326.448 2.05879 0)
(315.792 0.632701 0)
(308.507 -0.376936 0)
(312.462 -0.34858 0)
(326.202 0.46552 0)
(332.177 -0.277422 0)
(350.1 -0.136568 0)
(410.178 1223.51 0)
(161.537 270.959 0)
(-81.6086 -711.399 0)
(-161.823 -636.149 0)
(-257.778 -457.493 0)
(-335.64 -182.452 0)
(-404.385 22.9208 0)
(-394.599 159.599 0)
(-374.738 184.095 0)
(-462.066 215.547 0)
(-346.767 185.109 0)
(34.6713 111.026 0)
(996.393 79.6112 0)
(2036.36 72.6373 0)
(1407.04 -30.8711 0)
(256.367 55.9122 0)
(-79.6965 57.3302 0)
(-123.619 -81.4601 0)
(-72.1847 -96.2149 0)
(-159.532 154.027 0)
(-286.04 339.817 0)
(-397.675 401.083 0)
(-518.742 407.387 0)
(-594.449 351.82 0)
(-768.835 194.26 0)
(-1244.89 0.873814 0)
(-1427.13 -106.988 0)
(-509.185 -61.013 0)
(597.575 -12.7671 0)
(744.061 5.55111 0)
(432.916 4.24115 0)
(311.789 3.9031 0)
(321.489 3.66499 0)
(326.012 2.44822 0)
(315.269 0.543013 0)
(308.103 -0.682005 0)
(312.147 -1.01293 0)
(325.738 -0.954812 0)
(331.819 -2.92459 0)
(351.628 -3.59165 0)
(-297.019 456.403 0)
(-335.837 -229.089 0)
(-234.219 -486.169 0)
(-206.023 -663.326 0)
(-185.326 -696.271 0)
(-195.24 -588.49 0)
(-252.593 -433.953 0)
(-273.842 -225.21 0)
(-309.44 -77.4396 0)
(-431.195 22.8975 0)
(-382.771 124.721 0)
(-22.6537 91.8526 0)
(977.741 84.0268 0)
(1976.46 86.3287 0)
(1386.45 -146.764 0)
(298.837 -33.2664 0)
(-111.376 -10.044 0)
(-175.099 -95.6995 0)
(21.9399 -132.1 0)
(84.9886 -92.2599 0)
(-93.5887 -13.4248 0)
(-343.852 50.3477 0)
(-574.963 96.6208 0)
(-752.178 86.3237 0)
(-964.138 10.0644 0)
(-1376.09 -87.0715 0)
(-1453.85 -134.112 0)
(-481.004 -77.574 0)
(621.791 -18.6209 0)
(750.803 8.06696 0)
(432.163 6.26388 0)
(311.32 5.0669 0)
(320.828 4.1373 0)
(324.994 2.41203 0)
(314.434 0.378534 0)
(307.998 -0.967215 0)
(312.656 -0.970245 0)
(325.54 -0.143306 0)
(330.936 -2.04931 0)
(352.42 -4.0619 0)
(-496.607 -59.6479 0)
(-480.051 35.6896 0)
(-418.221 47.0523 0)
(-340.584 -8.29865 0)
(-224.516 -75.513 0)
(-158.148 -157.891 0)
(-135.71 -190.224 0)
(-115.803 -163.94 0)
(-170.667 -139.314 0)
(-283.811 -81.0449 0)
(-261.013 45.3515 0)
(26.1964 72.7866 0)
(1001.07 116.815 0)
(1846.09 226.508 0)
(1302.83 -31.7072 0)
(365.341 12.6248 0)
(-122.872 -3.2049 0)
(-213.631 -91.3252 0)
(-119.343 -104.565 0)
(-176.293 -249.875 0)
(-251.817 -406.19 0)
(-320.493 -452.845 0)
(-453.927 -410.382 0)
(-593.279 -320.939 0)
(-831.198 -236.299 0)
(-1313.47 -208.482 0)
(-1403.65 -202.44 0)
(-413.005 -100.621 0)
(667.116 -23.8558 0)
(764.425 9.95977 0)
(430.43 6.46702 0)
(309.991 4.18805 0)
(319.284 2.9524 0)
(322.936 1.38352 0)
(312.46 -0.171607 0)
(306.859 -1.18732 0)
(312.668 -1.37738 0)
(324.804 -1.02234 0)
(328.516 -3.15196 0)
(357.093 -5.14441 0)
(-320.106 28.0651 0)
(-233.017 82.1677 0)
(-276.608 128.329 0)
(-324.131 173.226 0)
(-329.478 168.459 0)
(-305.78 86.0786 0)
(-258.423 13.5926 0)
(-224.784 -49.394 0)
(-229.558 -154.369 0)
(-253.244 -159.099 0)
(-234.533 8.40803 0)
(46.2108 126.401 0)
(1125.87 261.701 0)
(1833.34 241.148 0)
(1180.34 -136.06 0)
(326.303 -217.564 0)
(-211.546 -250.851 0)
(-272.773 -230.694 0)
(-130.844 -158.597 0)
(-205.669 -174.668 0)
(-289.178 -182.283 0)
(-347.892 -205.294 0)
(-447.854 -213.827 0)
(-584.425 -206.541 0)
(-855.771 -218.227 0)
(-1343.46 -269.959 0)
(-1349.91 -275.862 0)
(-308.914 -123.593 0)
(728.351 -27.7187 0)
(780.023 8.98196 0)
(426.601 3.01672 0)
(307.933 -0.470396 0)
(318.126 -2.03755 0)
(321.983 -3.03031 0)
(311.957 -3.42507 0)
(306.836 -2.30046 0)
(312.815 -1.02277 0)
(323.83 -0.735488 0)
(326.964 -2.55256 0)
(360.414 -2.68612 0)
(-390.383 27.7492 0)
(-383.434 -27.2146 0)
(-330.473 -87.8003 0)
(-301.913 -96.4806 0)
(-308.494 -79.8921 0)
(-307.382 -88.6482 0)
(-266.256 -90.3625 0)
(-277.657 -119.532 0)
(-276.383 -205.688 0)
(-126.953 -157.079 0)
(14.1046 15.561 0)
(270.279 229.541 0)
(1111.65 557.186 0)
(1462.79 210.042 0)
(860.797 -275.481 0)
(254.725 -379.388 0)
(-135.524 -444.179 0)
(-124.732 -306.549 0)
(-65.3539 -195.693 0)
(-199.117 -240.1 0)
(-281.329 -242.517 0)
(-350.89 -247.86 0)
(-455.129 -256.117 0)
(-597.519 -264.815 0)
(-892.309 -292.031 0)
(-1369.01 -357.67 0)
(-1262.61 -331.04 0)
(-173.885 -130.516 0)
(794.87 -31.3504 0)
(794.043 0.488848 0)
(421.321 -4.61546 0)
(305.121 -6.79495 0)
(316.818 -8.82553 0)
(321.599 -10.8532 0)
(313.163 -11.2229 0)
(309.174 -8.83604 0)
(314.176 -5.35477 0)
(323.33 -3.19792 0)
(326.637 -3.03337 0)
(362.141 -1.42768 0)
(-319.591 17.8401 0)
(-344.365 76.7513 0)
(-343.355 84.8404 0)
(-316.51 83.6434 0)
(-321.93 78.2121 0)
(-315.869 82.2623 0)
(-288.184 102.156 0)
(-335.916 46.773 0)
(-265.74 65.6892 0)
(-40.0406 185.051 0)
(138.028 225.843 0)
(568.141 362.245 0)
(1107.08 502.229 0)
(1030.95 109.151 0)
(612.345 -181.346 0)
(163.74 -291.642 0)
(-141.356 -388.586 0)
(-33.3231 -203.181 0)
(-66.8122 -205.686 0)
(-250.79 -267.552 0)
(-296.655 -276.447 0)
(-360.997 -293.127 0)
(-464.192 -310.751 0)
(-619.033 -328.316 0)
(-945.249 -370.55 0)
(-1381.06 -440.27 0)
(-1131.01 -347.252 0)
(-20.1217 -114.43 0)
(854.592 -18.0091 0)
(805.786 20.3253 0)
(419.582 26.6333 0)
(303.876 31.2107 0)
(314.215 29.4599 0)
(319.673 19.0972 0)
(313.901 3.02467 0)
(312.491 -7.72637 0)
(318.248 -9.62906 0)
(326.067 -6.18383 0)
(328.67 -4.2117 0)
(364.713 -1.22445 0)
(-299.231 7.67057 0)
(-318.87 30.4576 0)
(-323.832 57.8978 0)
(-308.301 74.6952 0)
(-309.825 69.981 0)
(-284.309 90.5845 0)
(-300.455 107.943 0)
(-312.797 95.5973 0)
(-143.133 160.637 0)
(27.3769 239.443 0)
(184.856 323.041 0)
(536.615 421.333 0)
(867.756 270.265 0)
(804.07 -65.8563 0)
(474.578 -229.252 0)
(55.0207 -491.746 0)
(-50.2799 -398.619 0)
(51.5169 -169.559 0)
(-127.384 -302.141 0)
(-267.305 -316.894 0)
(-305.974 -314.673 0)
(-383.946 -326.899 0)
(-489.039 -335.444 0)
(-655.143 -338.81 0)
(-1000.19 -382.645 0)
(-1346.55 -448.202 0)
(-948.618 -279.388 0)
(143.386 -54.1308 0)
(924.725 58.5992 0)
(837.062 145.475 0)
(431.811 180.407 0)
(307.844 184.729 0)
(305.145 162.388 0)
(296.125 126.033 0)
(287.315 92.2182 0)
(296.98 57.2226 0)
(315.663 18.9951 0)
(328.55 0.288851 0)
(331.416 -3.16613 0)
(367.379 -0.441101 0)
(-282.849 5.56176 0)
(-295.964 15.6392 0)
(-300.726 40.9391 0)
(-304.867 54.0482 0)
(-306.619 54.996 0)
(-279.288 77.1425 0)
(-283.353 76.1765 0)
(-285.138 131.238 0)
(-127.125 201.828 0)
(116.458 250.974 0)
(313.303 332.105 0)
(517.284 347.531 0)
(637.61 205.068 0)
(549.595 -76.8493 0)
(201.942 -389.695 0)
(0.532126 -546.15 0)
(169.115 -231.555 0)
(59.6465 -285.186 0)
(-208.79 -385.436 0)
(-262.866 -338.48 0)
(-306.296 -305.805 0)
(-381.013 -254.117 0)
(-475.669 -197.207 0)
(-664.517 -147.116 0)
(-1050.66 -169.972 0)
(-1281.55 -249.773 0)
(-751.272 -12.5702 0)
(305.575 233.953 0)
(1046.94 573.497 0)
(923.165 810.099 0)
(457.408 832.703 0)
(286.511 768.036 0)
(257.654 645.742 0)
(252.055 497.43 0)
(247.593 352.935 0)
(241.931 218.212 0)
(263.385 125.582 0)
(304.712 57.5891 0)
(327.966 12.2652 0)
(368.189 1.98508 0)
(-278.801 4.09971 0)
(-284.779 9.00037 0)
(-286.819 22.4771 0)
(-294.755 32.6226 0)
(-287.571 55.8477 0)
(-263.899 86.5535 0)
(-248.326 102.416 0)
(-191.715 159.881 0)
(-27.7519 262.484 0)
(152.917 297.241 0)
(277.902 248.167 0)
(414.197 164.324 0)
(458.807 19.7516 0)
(230.934 -256.254 0)
(22.3433 -464.259 0)
(207.41 -276.374 0)
(201.194 -260.504 0)
(-96.7676 -428.799 0)
(-178.74 -325.164 0)
(-190.57 -167.526 0)
(-224.679 -2.72912 0)
(-279.297 196.956 0)
(-385.929 443.646 0)
(-628.899 560.119 0)
(-1099.12 427.005 0)
(-1194.88 329.388 0)
(-482.482 631.096 0)
(708.141 937.079 0)
(1479.92 1470.17 0)
(1086.84 1589.65 0)
(391.277 1507.78 0)
(127.683 1379.02 0)
(44.3787 1225.32 0)
(13.9646 1052.3 0)
(18.2506 837.304 0)
(77.895 600.926 0)
(160.881 384.162 0)
(219.354 191.981 0)
(277.834 66.5515 0)
(353.647 5.93988 0)
(-270.226 5.06086 0)
(-278.255 10.6092 0)
(-277.963 13.5015 0)
(-272.71 8.16142 0)
(-254.649 1.82343 0)
(-234.414 -5.9769 0)
(-212.692 1.64807 0)
(-130.89 58.6092 0)
(5.24019 127.339 0)
(102.662 125.944 0)
(185.22 94.0617 0)
(297.174 71.5252 0)
(232.326 -113.677 0)
(83.185 -449.69 0)
(182.554 -438.481 0)
(196.878 -163.203 0)
(22.2328 -226.513 0)
(-2.66216 -119.498 0)
(42.9825 247.723 0)
(47.8435 693.96 0)
(44.9315 1107.19 0)
(49.1303 1332.08 0)
(-125.712 1349.22 0)
(-680.553 1101.03 0)
(-1273 648.811 0)
(-1084.88 628.6 0)
(-165.679 970.437 0)
(1114.14 1233.43 0)
(1675.78 1481.78 0)
(959.405 1312.38 0)
(254.441 1207.34 0)
(14.3247 1140.8 0)
(-57.1842 1113.85 0)
(-121.854 1097.98 0)
(-187.369 1040.16 0)
(-194.733 930.274 0)
(-130.69 722.376 0)
(-1.34937 444.28 0)
(148.69 207.444 0)
(298.334 23.9823 0)
(-263.701 -13.4008 0)
(-276.645 -27.0652 0)
(-289.178 -43.7807 0)
(-306.008 -72.5458 0)
(-301.195 -77.8831 0)
(-264.068 -64.1426 0)
(-186.089 -10.6213 0)
(-70.5947 57.4006 0)
(37.1346 74.783 0)
(120.85 16.8887 0)
(225.462 -62.8738 0)
(214.012 -189.497 0)
(-43.4543 -384.469 0)
(-82.0581 -223.274 0)
(298.413 46.196 0)
(411.669 230.9 0)
(243.309 693.439 0)
(360.224 1362.14 0)
(605.137 1775.63 0)
(637.641 1924.18 0)
(390.235 1873.11 0)
(-46.0714 1606.33 0)
(-608.577 1028.98 0)
(-1303.83 349.423 0)
(-1554.36 0.654837 0)
(-884.946 341.056 0)
(100.354 644.691 0)
(1200.89 776.781 0)
(1556 699.371 0)
(822.388 544.843 0)
(225.937 530.926 0)
(37.5842 542.53 0)
(3.11731 597.339 0)
(-57.041 673.85 0)
(-143.359 734.748 0)
(-228.333 785.435 0)
(-307.441 780.912 0)
(-276.854 642.223 0)
(-127.18 381.196 0)
(130.637 66.12 0)
(-309.22 -0.023094 0)
(-307.53 -28.1172 0)
(-321.79 -43.6845 0)
(-305.572 -35.2703 0)
(-246.551 16.6463 0)
(-169.598 101.051 0)
(-95.5688 188.426 0)
(-48.5917 215.077 0)
(-33.7985 160.917 0)
(-29.989 94.1568 0)
(-13.6612 136.069 0)
(-12.7264 211.859 0)
(199.777 371.779 0)
(498.189 992.065 0)
(620.213 1619.06 0)
(820.585 1983.99 0)
(1112.33 2279.82 0)
(1040.18 2450.92 0)
(584.585 2204.52 0)
(141.773 1619.25 0)
(-261.357 921.222 0)
(-764.301 343.138 0)
(-1336.91 -248.947 0)
(-1671.48 -684.61 0)
(-1281.07 -394.085 0)
(-464.268 195.643 0)
(254.201 364.216 0)
(1166.83 366.937 0)
(1452.27 196.109 0)
(797.086 132.805 0)
(252.212 167.943 0)
(78.3229 191.672 0)
(69.3612 233.309 0)
(10.5576 284.712 0)
(-79.8415 327.16 0)
(-150.247 380.244 0)
(-268.694 459.724 0)
(-386.53 501.288 0)
(-406.464 393.027 0)
(-132.716 117.164 0)
(-290.818 57.8687 0)
(-318.719 120.47 0)
(-296.071 285.707 0)
(-247.871 502.846 0)
(-169.831 684.06 0)
(-98.5344 864.998 0)
(-76.2094 1069.46 0)
(-97.1034 1291.78 0)
(-79.3881 1484.48 0)
(96.9047 1689.85 0)
(338.884 1906.71 0)
(441.152 2143.11 0)
(708.38 2487.27 0)
(1119.86 2713.25 0)
(1254.27 2751.06 0)
(1048.4 2638.07 0)
(693.256 2138.24 0)
(287.667 1347.78 0)
(-196.291 681.941 0)
(-598.993 189.66 0)
(-839.473 -278.705 0)
(-1173.69 -731.339 0)
(-1598.95 -1009.38 0)
(-1443.69 -797.883 0)
(-706.12 -128.994 0)
(-154.219 254.473 0)
(265.42 306.491 0)
(1038.89 207.83 0)
(1330.38 -6.73694 0)
(795.246 -19.614 0)
(282.664 47.2009 0)
(100.573 70.4585 0)
(92.7735 93.8124 0)
(33.3974 105.049 0)
(-51.2999 114.335 0)
(-100.59 111.798 0)
(-190.8 130.354 0)
(-341.125 185.352 0)
(-497.336 203.174 0)
(-361.002 92.1252 0)
(-137.366 188.213 0)
(-87.9772 528.407 0)
(46.6812 933.261 0)
(78.296 1307.81 0)
(102.432 1607.87 0)
(201.785 1860.52 0)
(315.697 2136.81 0)
(351.338 2464.05 0)
(349.792 2827.49 0)
(376.892 3134.27 0)
(423.112 3193.1 0)
(546.724 3034.46 0)
(749.189 2869 0)
(752.382 2405.23 0)
(547.764 1723.97 0)
(230.05 1084.54 0)
(-131.036 528.579 0)
(-363.163 -9.16828 0)
(-531.419 -409.148 0)
(-783.942 -637.483 0)
(-1148.87 -846.389 0)
(-1468.41 -1132.91 0)
(-1401.04 -1005.57 0)
(-823.112 -341.049 0)
(-266.978 158.736 0)
(-44.6187 281.353 0)
(209.255 294.216 0)
(864.994 152.867 0)
(1233.1 -81.0408 0)
(849.062 -63.4714 0)
(339.009 29.5922 0)
(123.239 73.5697 0)
(102.694 89.7476 0)
(30.3336 83.7946 0)
(-73.3374 81.6635 0)
(-134.81 56.0841 0)
(-197.815 27.4033 0)
(-316.358 22.1673 0)
(-496.301 29.3615 0)
(-417.277 29.1299 0)
(399.743 304.053 0)
(399.236 636.482 0)
(454.99 886.131 0)
(402.208 1015.55 0)
(362.781 1169.4 0)
(411.167 1350.33 0)
(505.375 1506.31 0)
(568.46 1665.1 0)
(566.458 1839.16 0)
(449.224 1952.06 0)
(242.705 1956.03 0)
(128.833 1785.52 0)
(102.027 1439.6 0)
(16.4724 867.427 0)
(-18.3947 372.855 0)
(-103.518 -52.638 0)
(-360.676 -321.65 0)
(-615.96 -526.075 0)
(-801.758 -743.426 0)
(-1020.33 -1006.98 0)
(-1316.89 -1198.52 0)
(-1327.08 -1064.68 0)
(-835.884 -482.361 0)
(-321.723 65.773 0)
(-106.351 254.023 0)
(-23.6657 275.347 0)
(141.606 272.17 0)
(677.283 143.82 0)
(1121.91 -121.309 0)
(901.856 -142.904 0)
(414.722 -52.7919 0)
(158.541 5.53123 0)
(102.627 6.71979 0)
(25.6072 2.91493 0)
(-78.0027 27.7867 0)
(-152.877 33.7598 0)
(-223.483 11.0248 0)
(-339.238 -18.1521 0)
(-490.626 -43.7653 0)
(-417.367 -2.09818 0)
(768.968 132.074 0)
(472.934 146.98 0)
(411.961 164.105 0)
(351.261 153.113 0)
(425.041 238.065 0)
(526.443 351.405 0)
(619.026 426.101 0)
(672.084 466.997 0)
(626.312 515.628 0)
(489.517 587.014 0)
(262.633 631.601 0)
(49.0748 599.099 0)
(-135.522 453.31 0)
(-275.575 181.643 0)
(-338.845 -93.8107 0)
(-439.2 -436.104 0)
(-587.256 -699.694 0)
(-769.602 -878.16 0)
(-994.836 -1058.8 0)
(-1222.49 -1229.36 0)
(-1204.47 -1105.78 0)
(-778.285 -554.781 0)
(-311.69 -13.3712 0)
(-113.506 214.573 0)
(-65.0251 268.051 0)
(-27.1311 268.806 0)
(82.5102 250.364 0)
(485.823 165.241 0)
(956.802 -127.152 0)
(915.088 -223.534 0)
(482.046 -141.115 0)
(180.587 -77.7788 0)
(100.172 -100.988 0)
(50.6344 -106.348 0)
(-43.6141 -76.1574 0)
(-150.963 -59.4805 0)
(-247.839 -70.8943 0)
(-369.156 -70.149 0)
(-480.831 -70.3562 0)
(-373.082 -20.6006 0)
(668.649 -122.239 0)
(430.103 -258.799 0)
(460.901 -266.996 0)
(473.478 -209.754 0)
(553.862 -117.184 0)
(592.365 -79.3015 0)
(616.764 -71.2895 0)
(654.732 -73.1968 0)
(682.111 -21.9478 0)
(560.98 101.534 0)
(254.35 129.755 0)
(-42.9748 70.9268 0)
(-300.249 -101.106 0)
(-510.753 -314.207 0)
(-613.678 -554.643 0)
(-687.369 -780.009 0)
(-786.658 -982.032 0)
(-962.006 -1166.13 0)
(-1140.19 -1253.08 0)
(-1065.61 -1056.97 0)
(-666.839 -539.976 0)
(-274.396 -43.3135 0)
(-94.5059 188.879 0)
(-50.5352 256.434 0)
(-54.0902 273.335 0)
(-40.7095 273.185 0)
(41.8072 251.444 0)
(313.495 205.506 0)
(747.271 -63.7518 0)
(888.401 -251.588 0)
(555.177 -205.3 0)
(197.208 -115.055 0)
(75.0961 -143.525 0)
(49.5352 -162.214 0)
(-32.8393 -172.227 0)
(-147.805 -171.388 0)
(-233.764 -169.421 0)
(-338.72 -141.831 0)
(-442.88 -108.508 0)
(-329.717 -50.4796 0)
(401.786 -217.838 0)
(333.441 -347.161 0)
(459.222 -423.638 0)
(495.625 -452.96 0)
(550.75 -474.628 0)
(570.669 -542.607 0)
(624.908 -588.449 0)
(719.631 -578.066 0)
(794.689 -522.596 0)
(635.704 -477.952 0)
(233.139 -484.028 0)
(-173.391 -520.393 0)
(-506.651 -684.902 0)
(-712.619 -877.482 0)
(-787.709 -1026.71 0)
(-851.048 -1126.82 0)
(-959.333 -1211.24 0)
(-1030.8 -1207.17 0)
(-889.652 -941.983 0)
(-535.315 -452.862 0)
(-227.67 -22.6266 0)
(-75.9339 183.267 0)
(-22.8426 256.179 0)
(-32.1216 271.622 0)
(-48.8833 281.128 0)
(-48.2258 288.049 0)
(17.2919 282.548 0)
(182.089 236.436 0)
(516.33 49.6991 0)
(778.687 -236.455 0)
(613.614 -302.144 0)
(240.115 -210.807 0)
(54.7278 -193.855 0)
(22.9762 -221.303 0)
(-52.4545 -260.804 0)
(-148.259 -250.463 0)
(-219.356 -229.762 0)
(-310.458 -212.292 0)
(-392.801 -148.843 0)
(-219.875 -141.082 0)
(124.196 -334.48 0)
(231.786 -340.079 0)
(358.949 -438.717 0)
(424.343 -562.301 0)
(467.475 -677.817 0)
(482.683 -792.992 0)
(582.595 -878.709 0)
(718.19 -941.045 0)
(778.584 -989.54 0)
(598.146 -1066.26 0)
(213.452 -1132.15 0)
(-236.544 -1197.71 0)
(-644.352 -1327.59 0)
(-840.133 -1395.39 0)
(-853.953 -1362.07 0)
(-865.193 -1270.62 0)
(-864.083 -1090.85 0)
(-702.536 -755.497 0)
(-413.306 -322.028 0)
(-179.686 23.6037 0)
(-53.8413 193.507 0)
(-5.72892 263.237 0)
(-9.36373 274.593 0)
(-26.4939 275.727 0)
(-38.2607 286.338 0)
(-39.3409 301.018 0)
(-7.92922 311.695 0)
(89.1132 269.041 0)
(291.576 145.614 0)
(549.352 -138.611 0)
(579.892 -356.541 0)
(301.56 -360.197 0)
(64.982 -309.522 0)
(-14.9796 -332.573 0)
(-60.9394 -378.392 0)
(-117.892 -351.622 0)
(-196.981 -321.178 0)
(-260.744 -272.661 0)
(-374.259 -19.5005 0)
(-50.3346 -1.87569 0)
(-248.243 -365.185 0)
(232.994 -560.585 0)
(245.08 -429.425 0)
(265.219 -484.384 0)
(328.447 -663.136 0)
(377.082 -788.796 0)
(482.24 -871.615 0)
(612.831 -997.673 0)
(674.031 -1209.12 0)
(498.283 -1525.81 0)
(106.466 -1808.9 0)
(-361.731 -2022.18 0)
(-697.143 -2004.85 0)
(-745.842 -1747.89 0)
(-667.472 -1410.28 0)
(-589.69 -1055.15 0)
(-462.944 -646.546 0)
(-289.931 -231.464 0)
(-138.883 55.4549 0)
(-38.5267 196.379 0)
(3.2495 253.513 0)
(2.20311 261.686 0)
(-10.8063 261.11 0)
(-20.8039 267.747 0)
(-24.5121 282.425 0)
(-23.7905 301.841 0)
(-13.523 319.022 0)
(22.0475 308.406 0)
(123.503 230.112 0)
(294.791 22.7251 0)
(400.086 -296.318 0)
(285.425 -482.19 0)
(81.3477 -497.823 0)
(-43.3898 -491.823 0)
(-70.8111 -483.981 0)
(-93.1247 -450.485 0)
(-143.267 -405.486 0)
(-19.7507 -386.179 0)
(-131.862 -133.56 0)
(-199.276 -89.5865 0)
(-767.909 505.384 0)
(169.881 549.114 0)
(432.379 87.3054 0)
(199.131 -153.91 0)
(174.132 -394.567 0)
(281.785 -675.454 0)
(381.314 -1078.3 0)
(392.954 -1571.59 0)
(269.653 -2122.04 0)
(20.1837 -2550.89 0)
(-264.866 -2660.07 0)
(-425.371 -2386.51 0)
(-380.036 -1843.26 0)
(-267.181 -1268.68 0)
(-186.412 -792.013 0)
(-129.234 -382.579 0)
(-70.3449 -45.959 0)
(-26.0621 170.835 0)
(-1.02094 281.959 0)
(11.1697 316.018 0)
(9.09092 310.348 0)
(1.59192 303.212 0)
(-3.5237 306.41 0)
(-5.95419 318.083 0)
(-5.40624 334.178 0)
(-4.07396 349.13 0)
(-1.60241 363.094 0)
(3.43552 364.826 0)
(16.2833 336.649 0)
(42.0646 219.766 0)
(93.3378 -12.9186 0)
(107.382 -292.278 0)
(55.6989 -420.549 0)
(-1.64072 -434.496 0)
(-21.1048 -373.819 0)
(-42.2511 -339.111 0)
(-135.013 -233.335 0)
(1.2942 -50.3302 0)
(-88.4518 -214.182 0)
(164.697 178.298 0)
(-767.909 -505.384 0)
(169.881 -549.114 0)
(432.379 -87.3054 0)
(199.131 153.91 0)
(174.132 394.567 0)
(281.785 675.454 0)
(381.314 1078.3 0)
(392.954 1571.59 0)
(269.653 2122.04 0)
(20.1837 2550.89 0)
(-264.866 2660.07 0)
(-425.371 2386.51 0)
(-380.036 1843.26 0)
(-267.181 1268.68 0)
(-186.412 792.013 0)
(-129.234 382.579 0)
(-70.3449 45.959 0)
(-26.0621 -170.835 0)
(-1.02094 -281.959 0)
(11.1697 -316.018 0)
(9.09092 -310.348 0)
(1.59192 -303.212 0)
(-3.5237 -306.41 0)
(-5.95419 -318.083 0)
(-5.40624 -334.178 0)
(-4.07396 -349.13 0)
(-1.60241 -363.094 0)
(3.43552 -364.826 0)
(16.2833 -336.649 0)
(42.0646 -219.766 0)
(93.3378 12.9186 0)
(107.382 292.278 0)
(55.6989 420.549 0)
(-1.64072 434.496 0)
(-21.1048 373.819 0)
(-42.2511 339.111 0)
(-135.013 233.335 0)
(1.2942 50.3302 0)
(-88.4518 214.182 0)
(164.697 -178.298 0)
(-248.243 365.185 0)
(232.994 560.585 0)
(245.08 429.425 0)
(265.219 484.384 0)
(328.447 663.136 0)
(377.082 788.796 0)
(482.24 871.615 0)
(612.831 997.673 0)
(674.031 1209.12 0)
(498.283 1525.81 0)
(106.466 1808.9 0)
(-361.731 2022.18 0)
(-697.143 2004.85 0)
(-745.842 1747.89 0)
(-667.472 1410.28 0)
(-589.69 1055.15 0)
(-462.944 646.546 0)
(-289.931 231.464 0)
(-138.883 -55.4549 0)
(-38.5267 -196.379 0)
(3.2495 -253.513 0)
(2.20311 -261.686 0)
(-10.8063 -261.11 0)
(-20.8039 -267.747 0)
(-24.5121 -282.425 0)
(-23.7905 -301.841 0)
(-13.523 -319.022 0)
(22.0475 -308.406 0)
(123.503 -230.112 0)
(294.791 -22.7251 0)
(400.086 296.318 0)
(285.425 482.19 0)
(81.3477 497.823 0)
(-43.3898 491.823 0)
(-70.8111 483.981 0)
(-93.1247 450.485 0)
(-143.267 405.486 0)
(-19.7507 386.179 0)
(-131.862 133.56 0)
(-199.276 89.5865 0)
(124.196 334.48 0)
(231.786 340.079 0)
(358.949 438.717 0)
(424.343 562.301 0)
(467.475 677.817 0)
(482.683 792.992 0)
(582.595 878.709 0)
(718.19 941.045 0)
(778.584 989.54 0)
(598.146 1066.26 0)
(213.452 1132.15 0)
(-236.544 1197.71 0)
(-644.352 1327.59 0)
(-840.133 1395.39 0)
(-853.953 1362.07 0)
(-865.193 1270.62 0)
(-864.083 1090.85 0)
(-702.536 755.497 0)
(-413.306 322.028 0)
(-179.686 -23.6037 0)
(-53.8413 -193.507 0)
(-5.72892 -263.237 0)
(-9.36373 -274.593 0)
(-26.4939 -275.727 0)
(-38.2607 -286.338 0)
(-39.3409 -301.018 0)
(-7.92922 -311.695 0)
(89.1132 -269.041 0)
(291.576 -145.614 0)
(549.352 138.611 0)
(579.892 356.541 0)
(301.56 360.197 0)
(64.982 309.522 0)
(-14.9796 332.573 0)
(-60.9394 378.392 0)
(-117.892 351.622 0)
(-196.981 321.178 0)
(-260.744 272.661 0)
(-374.259 19.5005 0)
(-50.3346 1.87569 0)
(401.786 217.838 0)
(333.441 347.161 0)
(459.222 423.638 0)
(495.625 452.96 0)
(550.75 474.628 0)
(570.669 542.607 0)
(624.908 588.449 0)
(719.631 578.066 0)
(794.689 522.596 0)
(635.704 477.952 0)
(233.139 484.028 0)
(-173.391 520.393 0)
(-506.651 684.902 0)
(-712.619 877.482 0)
(-787.709 1026.71 0)
(-851.048 1126.82 0)
(-959.333 1211.24 0)
(-1030.8 1207.17 0)
(-889.652 941.983 0)
(-535.315 452.862 0)
(-227.67 22.6266 0)
(-75.9339 -183.267 0)
(-22.8426 -256.179 0)
(-32.1216 -271.622 0)
(-48.8833 -281.128 0)
(-48.2258 -288.049 0)
(17.2919 -282.548 0)
(182.089 -236.436 0)
(516.33 -49.6991 0)
(778.687 236.455 0)
(613.614 302.144 0)
(240.115 210.807 0)
(54.7278 193.855 0)
(22.9762 221.303 0)
(-52.4545 260.804 0)
(-148.259 250.463 0)
(-219.356 229.762 0)
(-310.458 212.292 0)
(-392.801 148.843 0)
(-219.875 141.082 0)
(668.649 122.239 0)
(430.103 258.799 0)
(460.901 266.996 0)
(473.478 209.754 0)
(553.862 117.184 0)
(592.365 79.3015 0)
(616.764 71.2895 0)
(654.732 73.1968 0)
(682.111 21.9478 0)
(560.98 -101.534 0)
(254.35 -129.755 0)
(-42.9748 -70.9268 0)
(-300.249 101.106 0)
(-510.753 314.207 0)
(-613.678 554.643 0)
(-687.369 780.009 0)
(-786.658 982.032 0)
(-962.006 1166.13 0)
(-1140.19 1253.08 0)
(-1065.61 1056.97 0)
(-666.839 539.976 0)
(-274.396 43.3135 0)
(-94.5059 -188.879 0)
(-50.5352 -256.434 0)
(-54.0902 -273.335 0)
(-40.7095 -273.185 0)
(41.8072 -251.444 0)
(313.495 -205.506 0)
(747.271 63.7518 0)
(888.401 251.588 0)
(555.177 205.3 0)
(197.208 115.055 0)
(75.0961 143.525 0)
(49.5352 162.214 0)
(-32.8393 172.227 0)
(-147.805 171.388 0)
(-233.764 169.421 0)
(-338.72 141.831 0)
(-442.88 108.508 0)
(-329.717 50.4796 0)
(768.968 -132.074 0)
(472.934 -146.98 0)
(411.961 -164.105 0)
(351.261 -153.113 0)
(425.041 -238.065 0)
(526.443 -351.405 0)
(619.026 -426.101 0)
(672.084 -466.997 0)
(626.312 -515.628 0)
(489.517 -587.014 0)
(262.633 -631.601 0)
(49.0748 -599.099 0)
(-135.522 -453.31 0)
(-275.575 -181.643 0)
(-338.845 93.8107 0)
(-439.2 436.104 0)
(-587.256 699.694 0)
(-769.602 878.16 0)
(-994.836 1058.8 0)
(-1222.49 1229.36 0)
(-1204.47 1105.78 0)
(-778.285 554.781 0)
(-311.69 13.3712 0)
(-113.506 -214.573 0)
(-65.0251 -268.051 0)
(-27.1311 -268.806 0)
(82.5102 -250.364 0)
(485.823 -165.241 0)
(956.802 127.152 0)
(915.088 223.534 0)
(482.046 141.115 0)
(180.587 77.7788 0)
(100.172 100.988 0)
(50.6344 106.348 0)
(-43.6141 76.1574 0)
(-150.963 59.4805 0)
(-247.839 70.8943 0)
(-369.156 70.149 0)
(-480.831 70.3562 0)
(-373.082 20.6006 0)
(399.743 -304.053 0)
(399.236 -636.482 0)
(454.99 -886.131 0)
(402.208 -1015.55 0)
(362.781 -1169.4 0)
(411.167 -1350.33 0)
(505.375 -1506.31 0)
(568.46 -1665.1 0)
(566.458 -1839.16 0)
(449.224 -1952.06 0)
(242.705 -1956.03 0)
(128.833 -1785.52 0)
(102.027 -1439.6 0)
(16.4724 -867.427 0)
(-18.3947 -372.855 0)
(-103.518 52.638 0)
(-360.676 321.65 0)
(-615.96 526.075 0)
(-801.758 743.426 0)
(-1020.33 1006.98 0)
(-1316.89 1198.52 0)
(-1327.08 1064.68 0)
(-835.884 482.361 0)
(-321.723 -65.773 0)
(-106.351 -254.023 0)
(-23.6657 -275.347 0)
(141.606 -272.17 0)
(677.283 -143.82 0)
(1121.91 121.309 0)
(901.856 142.904 0)