/*--------------------------------*- C++ -*----------------------------------*\
| =========                 |                                                 |
| \\      /  F ield         | OpenFOAM: The Open Source CFD Toolbox           |
|  \\    /   O peration     | Version:  v1912                                 |
|   \\  /    A nd           | Website:  www.openfoam.com                      |
|    \\/     M anipulation  |                                                 |
\*---------------------------------------------------------------------------*/
FoamFile
{
    version     2.0;
    format      ascii;
    class       volTensorField;
    location    "8.68";
    object      grad(U);
}
// * * * * * * * * * * * * * * * * * * * * * * * * * * * * * * * * * * * * * //

dimensions      [0 0 -1 0 0 0 0];


internalField   nonuniform List<tensor> 
1900
(
(0.958289 -1.18394e-05 0 1.16185e-05 -3.43621e-06 0 0 0 0)
(0.316611 -8.02681e-06 0 1.64327e-05 4.26184e-07 0 0 0 0)
(-0.135354 -3.24472e-05 0 -1.69006e-05 -1.33458e-05 0 0 0 0)
(-0.00824938 -0.000107944 0 -9.30863e-05 -9.52182e-05 0 0 0 0)
(-0.00615532 -0.000251354 0 -0.000184013 -0.000307319 0 0 0 0)
(-0.0195162 -0.00027385 0 -0.000323579 -0.000717284 0 0 0 0)
(-0.0271621 -0.000481341 0 -0.000508245 -0.00082798 0 0 0 0)
(-0.0310791 0.0198435 0 -0.00131576 -0.000656623 0 0 0 0)
(-0.0817866 0.0610008 0 0.00123727 0.0314637 0 0 0 0)
(-0.0444889 0.204499 0 0.065568 0.115107 0 0 0 0)
(0.958317 8.82938e-06 0 1.98982e-05 5.03882e-06 0 0 0 0)
(0.316583 -1.88278e-06 0 2.7837e-05 6.80059e-06 0 0 0 0)
(-0.135464 -6.31972e-05 0 -3.65206e-05 1.30656e-05 0 0 0 0)
(-0.00841649 -0.000186029 0 -0.000173741 3.92478e-05 0 0 0 0)
(-0.00638582 -0.000370713 0 -0.000358323 0.00012101 0 0 0 0)
(-0.0198404 -0.00024681 0 -0.000649211 0.000290601 0 0 0 0)
(-0.0281542 0.000542002 0 -0.00106867 0.00039486 0 0 0 0)
(-0.0293335 0.0124482 0 -0.000527714 0.000771942 0 0 0 0)
(-0.0149028 0.0547629 0 0.00954637 -0.0194486 0 0 0 0)
(0.0826029 0.140143 0 0.10254 -0.0602288 0 0 0 0)
(0.958336 -2.08015e-13 0 -1.73811e-13 -3.20521e-06 0 0 0 0)
(0.316555 -2.52402e-14 0 -1.03812e-13 -1.44536e-05 0 0 0 0)
(-0.135556 1.1836e-14 0 -1.00153e-13 5.60345e-07 0 0 0 0)
(-0.00857118 6.89112e-14 0 -6.35614e-14 0.000111941 0 0 0 0)
(-0.00663079 1.42234e-13 0 -2.56143e-14 0.000372619 0 0 0 0)
(-0.0202265 6.92957e-14 0 1.12757e-13 0.000853366 0 0 0 0)
(-0.0270406 -6.38748e-15 0 -4.5401e-14 0.000866239 0 0 0 0)
(-0.020464 -1.9051e-14 0 -3.08998e-14 -0.000230638 0 0 0 0)
(0.0212812 -8.76678e-14 0 1.77538e-14 -0.0240301 0 0 0 0)
(0.127351 -6.36924e-14 0 4.5672e-14 -0.109756 0 0 0 0)
(0.958317 -8.82938e-06 0 -1.98982e-05 5.03882e-06 0 0 0 0)
(0.316583 1.88278e-06 0 -2.7837e-05 6.80059e-06 0 0 0 0)
(-0.135464 6.31972e-05 0 3.65206e-05 1.30656e-05 0 0 0 0)
(-0.00841649 0.000186029 0 0.000173741 3.92478e-05 0 0 0 0)
(-0.00638582 0.000370713 0 0.000358323 0.00012101 0 0 0 0)
(-0.0198404 0.00024681 0 0.000649211 0.000290601 0 0 0 0)
(-0.0281542 -0.000542002 0 0.00106867 0.00039486 0 0 0 0)
(-0.0293335 -0.0124482 0 0.000527714 0.000771942 0 0 0 0)
(-0.0149028 -0.0547629 0 -0.00954637 -0.0194486 0 0 0 0)
(0.0826029 -0.140143 0 -0.10254 -0.0602288 0 0 0 0)
(0.958289 1.18394e-05 0 -1.16185e-05 -3.43621e-06 0 0 0 0)
(0.316611 8.02681e-06 0 -1.64327e-05 4.26185e-07 0 0 0 0)
(-0.135354 3.24472e-05 0 1.69006e-05 -1.33458e-05 0 0 0 0)
(-0.00824938 0.000107944 0 9.30863e-05 -9.52182e-05 0 0 0 0)
(-0.00615532 0.000251354 0 0.000184013 -0.000307319 0 0 0 0)
(-0.0195162 0.00027385 0 0.000323579 -0.000717284 0 0 0 0)
(-0.0271621 0.000481341 0 0.000508245 -0.00082798 0 0 0 0)
(-0.0310791 -0.0198435 0 0.00131576 -0.000656623 0 0 0 0)
(-0.0817866 -0.0610008 0 -0.00123727 0.0314637 0 0 0 0)
(-0.0444889 -0.204499 0 -0.065568 0.115107 0 0 0 0)
(0.170713 0.433328 -2.20081e-17 0.247045 -0.245652 3.30122e-17 5.83517e-17 7.59762e-17 -5.96532e-33)
(0.510876 0.579669 0 0.279637 -0.464983 0 -1.60153e-16 -4.79135e-17 0)
(0.796734 0.970281 0 0.274236 -0.789092 0 -2.60426e-16 -8.58045e-17 0)
(1.49188 1.57727 0 0.326191 -1.43055 0 0 0 0)
(2.80919 1.8289 2.66975e-16 1.12975 -3.4907 -4.00463e-16 -2.27927e-15 -1.51951e-15 -7.23638e-32)
(0.220554 0.161262 0 0.179273 -0.206283 0 1.02993e-16 3.15869e-17 0)
(0.410098 0.180065 0 0.131368 -0.344839 0 1.60153e-16 4.79135e-17 0)
(0.755529 0.424865 0 0.0395642 -0.633768 0 2.60426e-16 8.58045e-17 0)
(1.6899 0.867319 0 -0.07525 -1.33443 0 0 0 0)
(3.71304 0.575838 0 -0.175308 -3.09643 0 0 0 0)
(0.268586 -1.5186e-13 0 8.59309e-14 -0.286644 0 0 0 0)
(0.428198 8.65469e-14 0 1.35822e-13 -0.37094 0 0 0 0)
(0.744542 8.13622e-14 0 3.61401e-13 -0.631841 0 0 0 0)
(1.59984 -9.1024e-14 0 2.19715e-13 -1.36213 0 0 0 0)
(3.47856 1.46471e-13 0 3.66241e-13 -3.6438 0 0 0 0)
(0.220554 -0.161262 0 -0.179273 -0.206283 0 1.02993e-16 -3.15869e-17 0)
(0.410098 -0.180065 0 -0.131368 -0.344839 0 1.60153e-16 -4.79135e-17 0)
(0.755529 -0.424865 0 -0.0395642 -0.633768 0 2.60426e-16 -8.58045e-17 0)
(1.6899 -0.867319 0 0.07525 -1.33443 0 0 0 0)
(3.71304 -0.575838 0 0.175308 -3.09643 0 0 0 0)
(0.170713 -0.433328 2.20081e-17 -0.247045 -0.245652 3.30122e-17 -2.64337e-16 1.3915e-16 -5.96532e-33)
(0.510876 -0.579669 0 -0.279637 -0.464983 0 -1.60153e-16 4.79135e-17 0)
(0.796734 -0.970281 0 -0.274236 -0.789092 0 -2.60426e-16 8.58045e-17 0)
(1.49188 -1.57727 9.36252e-17 -0.326191 -1.43055 1.40438e-16 -9.34052e-16 6.22702e-16 -2.53772e-32)
(2.80919 -1.8289 -2.66975e-16 -1.12975 -3.4907 -4.00463e-16 2.27927e-15 -1.51951e-15 -7.23638e-32)
(4.2488 -0.786302 -1.85649e-17 0.0235252 4.47057 -1.67084e-16 2.28117e-15 -1.18746e-16 5.03204e-33)
(2.35632 -0.306771 9.05588e-18 0.542791 2.77629 8.15029e-17 -2.56812e-15 1.99918e-16 2.4546e-33)
(1.39348 -0.00227143 0 0.735092 2.28857 0 0 0 0)
(1.06721 0.081476 -5.29225e-18 0.663348 2.10667 -4.76302e-17 2.40599e-15 -2.01667e-16 1.43447e-33)
(0.668027 0.548518 4.73689e-18 0.547111 1.75302 4.2632e-17 -1.14395e-15 1.27106e-16 1.28394e-33)
(4.36711 -0.951299 0 -0.678957 -0.670589 0 -1.14094e-15 -7.94641e-18 0)
(2.63881 -0.200924 0 0.318827 1.00048 0 1.29224e-15 -5.81526e-17 0)
(1.47839 -0.014505 0 0.446485 1.3874 0 0 0 0)
(1.03346 -0.0682293 0 0.360441 1.40995 0 -1.51895e-15 7.57723e-17 0)
(0.529575 0.244568 0 0.24088 1.40244 0 2.91921e-16 -8.01845e-18 0)
(4.37108 5.04904e-14 0 3.01167e-13 0.813472 0 0 0 0)
(2.61471 -9.28026e-15 0 2.87267e-13 1.86085 0 0 0 0)
(1.37263 -2.48855e-14 0 -4.81868e-14 1.98692 0 0 0 0)
(0.961545 4.98428e-14 0 7.79492e-14 1.76961 0 6.1192e-16 -3.611e-32 0)
(0.525094 -3.9133e-14 0 -1.64849e-13 2.12997 0 -5.83843e-16 -1.79967e-30 0)
(4.36711 0.951299 0 0.678957 -0.670589 0 -1.14094e-15 7.94641e-18 0)
(2.63881 0.200924 0 -0.318827 1.00048 0 1.29224e-15 5.81526e-17 0)
(1.47839 0.014505 0 -0.446485 1.3874 0 0 0 0)
(1.03346 0.0682293 0 -0.360441 1.40995 0 -1.51895e-15 -7.57723e-17 0)
(0.529575 -0.244568 0 -0.24088 1.40244 0 2.91921e-16 8.01845e-18 0)
(4.2488 0.786302 0 -0.0235252 4.47057 0 1.14094e-15 -7.94641e-18 0)
(2.35632 0.306771 -9.05588e-18 -0.542791 2.77629 8.15029e-17 -1.63471e-17 8.36127e-17 2.4546e-33)
(1.39348 0.00227143 0 -0.735092 2.28857 0 0 0 0)
(1.06721 -0.081476 5.29225e-18 -0.663348 2.10667 -4.76302e-17 1.99779e-17 -6.34459e-17 1.43447e-33)
(0.668027 -0.548518 -4.73689e-18 -0.547111 1.75302 4.2632e-17 1.14395e-15 1.27106e-16 1.28394e-33)
(0.176956 0.640529 0 -0.481763 -0.559253 0 0 0 0)
(0.111178 0.114053 0 -0.924381 -0.298113 0 0 0 0)
(0.0950973 -0.222996 0 -1.17293 0.0990615 0 0 0 0)
(0.0980471 -0.13325 0 -0.955321 0.0528522 0 0 0 0)
(0.094735 -0.0245571 0 -0.865583 0.0572404 0 0 0 0)
(0.113279 0.0127561 0 -0.770479 0.078553 0 0 0 0)
(0.124507 0.00913966 0 -0.621973 0.125681 0 0 0 0)
(0.124256 0.0283095 0 -0.470286 0.214267 0 0 0 0)
(0.143805 0.0427005 0 -0.366161 0.200904 0 0 0 0)
(0.233999 -0.0120434 0 -0.234645 0.195343 0 0 0 0)
(0.139023 -0.00232056 0 -0.113322 0.281899 0 0 0 0)
(-0.125983 0.0204105 0 -0.0896248 0.158243 0 0 0 0)
(-0.707248 0.00859526 0 -0.130711 0.0926158 0 0 0 0)
(-1.29329 -0.00980204 0 -0.399165 0.0316448 0 0 0 0)
(-0.824032 -0.00581099 0 -0.123134 0.0977716 0 0 0 0)
(-0.140157 0.0145301 0 -0.106355 0.083938 0 0 0 0)
(-0.0221055 -0.0273547 0 0.0352662 0.0786043 0 0 0 0)
(-0.0802338 -0.0577407 0 0.136423 0.188381 0 0 0 0)
(-0.2538 -0.079366 0 0.243314 0.355001 0 0 0 0)
(-0.419365 -0.111795 0 0.316221 0.497337 0 0 0 0)
(-0.500343 -0.0590101 0 0.199079 0.589463 0 0 0 0)
(-0.50395 0.0298174 0 -0.0395558 0.590132 0 0 0 0)
(-0.485646 0.0441455 0 -0.139307 0.5329 0 0 0 0)
(-0.486617 0.0294222 0 -0.0959737 0.475991 0 0 0 0)
(-0.541055 0.0347095 0 -0.0178009 0.417714 0 0 0 0)
(-0.84088 0.0433448 0 0.0518275 0.320142 0 0 0 0)
(-1.70189 0.0569065 0 0.126007 0.258077 0 0 0 0)
(-2.31865 0.0460169 0 0.0899689 0.156641 0 0 0 0)
(-1.84453 0.0120494 0 0.0204358 0.121053 0 0 0 0)
(-0.869434 0.00151066 0 -0.000158152 0.115998 0 0 0 0)
(-0.289305 0.00102435 0 0.00515463 0.115711 0 0 0 0)
(-0.179601 0.000523793 0 0.00768175 0.113726 0 0 0 0)
(-0.138294 -0.0013156 0 0.00990862 0.114862 0 0 0 0)
(-0.10315 -0.00332347 0 0.0112034 0.117759 0 0 0 0)
(-0.0752454 -0.00622487 0 0.00876045 0.123242 0 0 0 0)
(-0.0665832 -0.0082577 0 -0.00187028 0.132989 0 0 0 0)
(-0.0708563 -0.0033507 0 -0.0224276 0.144726 0 0 0 0)
(-0.0595122 0.00488448 0 -0.0411624 0.142732 0 0 0 0)
(-0.0419437 0.010624 0 -0.0482441 0.132339 0 0 0 0)
(-0.0188914 0.00668023 0 -0.0476772 0.110592 0 0 0 0)
(-0.0667363 0.485566 0 0.0661017 0.16863 0 0 0 0)
(-0.102812 0.190747 0 -0.402282 -0.616696 0 0 0 0)
(0.0696074 -0.0984818 0 -0.873419 -0.223426 0 0 0 0)
(0.155923 -0.165599 0 -0.638929 0.149851 0 0 0 0)
(0.125144 -0.115012 0 -0.61099 0.23462 0 0 0 0)
(0.14889 -0.0671343 0 -0.523437 0.234266 0 0 0 0)
(0.167386 -0.0227601 0 -0.396056 0.190771 0 0 0 0)
(0.156418 0.013513 0 -0.308371 0.202848 0 0 0 0)
(0.174845 0.0279679 0 -0.255466 0.0934576 0 0 0 0)
(0.263658 -0.00264529 0 -0.171863 0.0560654 0 0 0 0)
(0.15899 0.0166764 0 -0.134868 0.134857 0 0 0 0)
(-0.122193 0.0275511 0 -0.0952468 0.0640423 0 0 0 0)
(-0.758952 0.00501025 0 -0.122763 0.0646956 0 0 0 0)
(-1.28923 0.0154094 0 -0.333653 0.0344961 0 0 0 0)
(-0.770052 0.0241055 0 -0.0975417 0.0983901 0 0 0 0)
(-0.114474 0.0181488 0 -0.0718776 0.0544714 0 0 0 0)
(0.0188084 0.00519162 0 0.0265953 0.0484429 0 0 0 0)
(-0.0243595 -0.0151547 0 0.115729 0.148503 0 0 0 0)
(-0.190552 -0.0478093 0 0.257944 0.246927 0 0 0 0)
(-0.423074 -0.0612962 0 0.311623 0.421324 0 0 0 0)
(-0.583224 -0.0193956 0 0.167111 0.631222 0 0 0 0)
(-0.578712 0.0240812 0 0.0569474 0.624171 0 0 0 0)
(-0.494843 0.0256216 0 0.0307866 0.528725 0 0 0 0)
(-0.451388 0.0141605 0 0.0649993 0.472421 0 0 0 0)
(-0.510817 0.00242417 0 0.154922 0.427586 0 0 0 0)
(-0.836983 0.0133097 0 0.168542 0.353107 0 0 0 0)
(-1.7147 0.037947 0 0.0684941 0.278588 0 0 0 0)
(-2.33673 0.0260461 0 0.0194495 0.157491 0 0 0 0)
(-1.85554 0.00376532 0 0.00547569 0.120405 0 0 0 0)
(-0.870242 0.000382219 0 0.00177582 0.116071 0 0 0 0)
(-0.287312 0.000621617 0 0.00640809 0.115212 0 0 0 0)
(-0.177913 0.000219556 0 0.0111633 0.11255 0 0 0 0)
(-0.137018 -0.000765649 0 0.0159111 0.113412 0 0 0 0)
(-0.103217 -0.00177215 0 0.0192153 0.117072 0 0 0 0)
(-0.0780059 -0.00317373 0 0.0191636 0.124836 0 0 0 0)
(-0.0727675 -0.00415183 0 0.013448 0.13847 0 0 0 0)
(-0.0778757 -0.00172541 0 0.00150722 0.153222 0 0 0 0)
(-0.0635003 0.00244382 0 -0.00942696 0.149988 0 0 0 0)
(-0.0425674 0.00538529 0 -0.0145036 0.136432 0 0 0 0)
(-0.0186045 0.00336865 0 -0.0166157 0.113468 0 0 0 0)
(-0.0169266 -1.04272e-13 0 -2.44438e-13 0.331709 0 0 0 0)
(-0.162137 -1.47437e-13 0 -7.64855e-13 -0.94728 0 0 0 0)
(0.0262546 -1.43175e-13 0 -1.15123e-12 -0.979677 0 0 0 0)
(0.17439 5.94289e-15 0 -7.01774e-13 -0.270218 0 0 0 0)
(0.128333 7.57161e-14 0 -5.99268e-13 0.158817 0 0 0 0)
(0.175806 8.22692e-14 0 -4.96762e-13 0.52049 0 0 0 0)
(0.187072 -3.59635e-14 0 -6.15038e-13 0.620365 0 0 0 0)
(0.165155 -2.63356e-14 0 -6.62349e-13 0.676966 0 0 0 0)
(0.183516 2.91851e-14 0 -4.49451e-13 0.527462 0 0 0 0)
(0.269082 -1.20371e-13 0 -2.91749e-13 0.484687 0 0 0 0)
(0.161312 8.98343e-14 0 -1.97128e-13 0.545649 0 0 0 0)
(-0.122461 3.08958e-13 0 -7.88511e-15 0.370036 0 0 0 0)
(-0.776603 4.4256e-13 0 1.57702e-13 0.356235 0 0 0 0)
(-1.28595 -6.36546e-14 0 6.54464e-13 0.335591 0 0 0 0)
(-0.747879 -5.21758e-13 0 4.21853e-13 0.250295 0 0 0 0)
(-0.104044 -1.41338e-13 0 3.98198e-13 0.169866 0 0 0 0)
(0.0324711 -1.54444e-12 0 4.33681e-14 0.125522 0 0 0 0)
(-0.0129324 -4.65105e-12 0 -2.21571e-12 0.134173 0 0 0 0)
(-0.196813 -2.65826e-12 0 -7.6525e-12 0.22971 0 0 0 0)
(-0.445789 4.10793e-12 0 -5.9848e-12 0.462862 0 0 0 0)
(-0.57443 5.94462e-12 0 1.19065e-11 0.651122 0 0 0 0)
(-0.543608 1.11292e-12 0 9.8485e-12 0.596207 0 0 0 0)
(-0.483304 -1.57644e-12 0 6.07153e-12 0.485564 0 0 0 0)
(-0.450505 2.65401e-13 0 5.51563e-12 0.420058 0 0 0 0)
(-0.510933 1.67947e-12 0 1.40355e-12 0.38821 0 0 0 0)
(-0.866023 1.07113e-12 0 4.33681e-13 0.403392 0 0 0 0)
(-1.74526 -3.29924e-12 0 1.10963e-11 0.296706 0 0 0 0)
(-2.33698 -7.29803e-12 0 8.94565e-12 0.142507 0 0 0 0)
(-1.84967 -2.3756e-12 0 -4.62567e-11 0.117639 0 0 0 0)
(-0.869163 4.43826e-12 0 -6.56553e-11 0.11662 0 0 0 0)
(-0.286574 5.29985e-12 0 -4.92119e-11 0.115011 0 0 0 0)
(-0.176836 3.90876e-12 0 -2.37825e-11 0.112346 0 0 0 0)
(-0.135952 5.66575e-13 0 -6.24796e-12 0.113501 0 0 0 0)
(-0.102204 -1.43257e-12 0 1.83723e-12 0.11761 0 0 0 0)
(-0.0769231 -6.26205e-13 0 5.64179e-12 0.125685 0 0 0 0)
(-0.0717196 -1.63741e-12 0 8.68347e-12 0.13943 0 0 0 0)
(-0.0775108 -2.53645e-12 0 7.66432e-12 0.154229 0 0 0 0)
(-0.0641699 7.27816e-14 0 3.05351e-12 0.151292 0 0 0 0)
(-0.044035 1.4228e-12 0 -1.16305e-13 0.137427 0 0 0 0)
(-0.0195058 3.54068e-13 0 -6.97832e-13 0.114268 0 0 0 0)
(-0.0667363 -0.485566 0 -0.0661017 0.16863 0 0 0 0)
(-0.102812 -0.190747 0 0.402282 -0.616696 0 0 0 0)
(0.0696074 0.0984818 0 0.873419 -0.223426 0 0 0 0)
(0.155923 0.165599 0 0.638929 0.149851 0 0 0 0)
(0.125144 0.115012 0 0.61099 0.23462 0 0 0 0)
(0.14889 0.0671343 0 0.523437 0.234266 0 0 0 0)
(0.167386 0.0227601 0 0.396056 0.190771 0 0 0 0)
(0.156418 -0.013513 0 0.308371 0.202848 0 0 0 0)
(0.174845 -0.0279679 0 0.255466 0.0934576 0 0 0 0)
(0.263658 0.00264529 0 0.171863 0.0560654 0 0 0 0)
(0.15899 -0.0166764 0 0.134868 0.134857 0 0 0 0)
(-0.122193 -0.0275511 0 0.0952468 0.0640423 0 0 0 0)
(-0.758952 -0.00501025 0 0.122763 0.0646956 0 0 0 0)
(-1.28923 -0.0154094 0 0.333653 0.0344961 0 0 0 0)
(-0.770052 -0.0241055 0 0.0975417 0.0983901 0 0 0 0)
(-0.114474 -0.0181488 0 0.0718776 0.0544714 0 0 0 0)
(0.0188084 -0.00519162 0 -0.0265953 0.0484429 0 0 0 0)
(-0.0243595 0.0151547 0 -0.115729 0.148503 0 0 0 0)
(-0.190552 0.0478093 0 -0.257944 0.246927 0 0 0 0)
(-0.423074 0.0612962 0 -0.311623 0.421324 0 0 0 0)
(-0.583224 0.0193956 0 -0.167111 0.631222 0 0 0 0)
(-0.578712 -0.0240812 0 -0.0569474 0.624171 0 0 0 0)
(-0.494843 -0.0256216 0 -0.0307866 0.528725 0 0 0 0)
(-0.451388 -0.0141605 0 -0.0649993 0.472421 0 0 0 0)
(-0.510817 -0.00242417 0 -0.154922 0.427586 0 0 0 0)
(-0.836983 -0.0133097 0 -0.168542 0.353107 0 0 0 0)
(-1.7147 -0.037947 0 -0.0684941 0.278588 0 0 0 0)
(-2.33673 -0.0260461 0 -0.0194495 0.157491 0 0 0 0)
(-1.85554 -0.00376532 0 -0.00547569 0.120405 0 0 0 0)
(-0.870242 -0.000382219 0 -0.00177582 0.116071 0 0 0 0)
(-0.287312 -0.000621617 0 -0.00640809 0.115212 0 0 0 0)
(-0.177913 -0.000219556 0 -0.0111633 0.11255 0 0 0 0)
(-0.137018 0.000765649 0 -0.0159111 0.113412 0 0 0 0)
(-0.103217 0.00177215 0 -0.0192153 0.117072 0 0 0 0)
(-0.0780059 0.00317373 0 -0.0191636 0.124836 0 0 0 0)
(-0.0727675 0.00415183 0 -0.013448 0.13847 0 0 0 0)
(-0.0778757 0.00172541 0 -0.00150722 0.153222 0 0 0 0)
(-0.0635003 -0.00244382 0 0.00942696 0.149988 0 0 0 0)
(-0.0425674 -0.00538529 0 0.0145036 0.136432 0 0 0 0)
(-0.0186045 -0.00336865 0 0.0166157 0.113468 0 0 0 0)
(0.176956 -0.640529 0 0.481763 -0.559253 0 0 0 0)
(0.111178 -0.114053 0 0.924381 -0.298113 0 0 0 0)
(0.0950973 0.222996 0 1.17293 0.0990615 0 0 0 0)
(0.0980471 0.13325 0 0.955321 0.0528522 0 0 0 0)
(0.094735 0.0245571 0 0.865583 0.0572404 0 0 0 0)
(0.113279 -0.0127561 0 0.770479 0.078553 0 0 0 0)
(0.124507 -0.00913966 0 0.621973 0.125681 0 0 0 0)
(0.124256 -0.0283095 0 0.470286 0.214267 0 0 0 0)
(0.143805 -0.0427005 0 0.366161 0.200904 0 0 0 0)
(0.233999 0.0120434 0 0.234645 0.195343 0 0 0 0)
(0.139023 0.00232056 0 0.113322 0.281899 0 0 0 0)
(-0.125983 -0.0204105 0 0.0896248 0.158243 0 0 0 0)
(-0.707248 -0.00859526 0 0.130711 0.0926158 0 0 0 0)
(-1.29329 0.00980204 0 0.399165 0.0316448 0 0 0 0)
(-0.824032 0.00581099 0 0.123134 0.0977716 0 0 0 0)
(-0.140157 -0.0145301 0 0.106355 0.083938 0 0 0 0)
(-0.0221055 0.0273547 0 -0.0352662 0.0786043 0 0 0 0)
(-0.0802338 0.0577407 0 -0.136423 0.188381 0 0 0 0)
(-0.2538 0.079366 0 -0.243314 0.355001 0 0 0 0)
(-0.419365 0.111795 0 -0.316221 0.497337 0 0 0 0)
(-0.500343 0.0590101 0 -0.199079 0.589463 0 0 0 0)
(-0.50395 -0.0298174 0 0.0395558 0.590132 0 0 0 0)
(-0.485646 -0.0441455 0 0.139307 0.5329 0 0 0 0)
(-0.486617 -0.0294222 0 0.0959737 0.475991 0 0 0 0)
(-0.541055 -0.0347095 0 0.0178009 0.417714 0 0 0 0)
(-0.84088 -0.0433448 0 -0.0518275 0.320142 0 0 0 0)
(-1.70189 -0.0569065 0 -0.126007 0.258077 0 0 0 0)
(-2.31865 -0.0460169 0 -0.0899689 0.156641 0 0 0 0)
(-1.84453 -0.0120494 0 -0.0204358 0.121053 0 0 0 0)
(-0.869434 -0.00151066 0 0.000158152 0.115998 0 0 0 0)
(-0.289305 -0.00102435 0 -0.00515463 0.115711 0 0 0 0)
(-0.179601 -0.000523793 0 -0.00768175 0.113726 0 0 0 0)
(-0.138294 0.0013156 0 -0.00990862 0.114862 0 0 0 0)
(-0.10315 0.00332347 0 -0.0112034 0.117759 0 0 0 0)
(-0.0752454 0.00622487 0 -0.00876045 0.123242 0 0 0 0)
(-0.0665832 0.0082577 0 0.00187028 0.132989 0 0 0 0)
(-0.0708563 0.0033507 0 0.0224276 0.144726 0 0 0 0)
(-0.0595122 -0.00488448 0 0.0411624 0.142732 0 0 0 0)
(-0.0419437 -0.010624 0 0.0482441 0.132339 0 0 0 0)
(-0.0188914 -0.00668023 0 0.0476772 0.110592 0 0 0 0)
(0.0316264 0.0268237 0 0.919832 -0.156577 0 0 0 0)
(0.0833113 0.133518 0 0.828136 0.227768 0 0 0 0)
(0.059543 0.174664 0 0.81668 0.0424253 0 0 0 0)
(0.0300513 0.17677 0 0.744881 -0.0829574 0 0 0 0)
(0.044357 0.235722 0 0.696992 -0.037888 0 0 0 0)
(0.0372553 0.202439 0 0.610828 0.0113134 0 0 0 0)
(0.0286635 0.144774 0 0.519929 0.129226 0 0 0 0)
(0.0331407 0.0507802 0 0.401574 0.237146 0 0 0 0)
(0.0629243 -0.0228036 0 0.297625 0.260703 0 0 0 0)
(0.139353 0.042585 0 0.192371 0.308353 0 0 0 0)
(0.0911092 -0.061914 0 0.0609558 0.398398 0 0 0 0)
(-0.106904 -0.15454 0 0.035394 0.276923 0 0 0 0)
(-0.62457 -0.0802765 0 0.0585166 0.177105 0 0 0 0)
(-1.28929 -0.0413261 0 0.185408 0.135321 0 0 0 0)
(-0.891309 -0.0258943 0 0.0830799 0.130355 0 0 0 0)
(-0.184138 -0.034356 0 0.06892 0.15783 0 0 0 0)
(-0.0861727 0.0226912 0 -0.0401071 0.170356 0 0 0 0)
(-0.0902573 0.139291 0 -0.0998577 0.221 0 0 0 0)
(-0.230204 0.205121 0 -0.103492 0.415538 0 0 0 0)
(-0.399617 0.149979 0 -0.108166 0.574192 0 0 0 0)
(-0.455886 0.0317992 0 -0.0990989 0.58124 0 0 0 0)
(-0.452895 -0.0529293 0 -0.0547694 0.563659 0 0 0 0)
(-0.470088 -0.0758006 0 -0.0271852 0.521525 0 0 0 0)
(-0.486872 -0.0687674 0 -0.0167719 0.448184 0 0 0 0)
(-0.568566 -0.0628545 0 -0.0123093 0.382022 0 0 0 0)
(-0.922684 -0.0787176 0 -0.0500466 0.32804 0 0 0 0)
(-1.75343 -0.118585 0 -0.148194 0.241023 0 0 0 0)
(-2.29141 -0.0889063 0 -0.107011 0.134451 0 0 0 0)
(-1.81174 -0.0196807 0 -0.0245805 0.117786 0 0 0 0)
(-0.861589 -0.00242853 0 0.00644767 0.116061 0 0 0 0)
(-0.289924 -0.00158102 0 0.00257599 0.11579 0 0 0 0)
(-0.178944 -0.000400147 0 0.00336927 0.114666 0 0 0 0)
(-0.137751 0.00265952 0 0.00527811 0.116234 0 0 0 0)
(-0.102573 0.00523507 0 0.00666534 0.118469 0 0 0 0)
(-0.072997 0.00919891 0 0.00819571 0.121386 0 0 0 0)
(-0.0603546 0.0128805 0 0.0122721 0.126491 0 0 0 0)
(-0.0613451 0.00595777 0 0.0218161 0.134248 0 0 0 0)
(-0.0519174 -0.00739162 0 0.0328079 0.135312 0 0 0 0)
(-0.0392021 -0.0194887 0 0.0373104 0.131094 0 0 0 0)
(-0.0186285 -0.0131811 0 0.0354472 0.112196 0 0 0 0)
(0.00772246 0.00502034 0 0.446354 0.67658 0 0 0 0)
(0.0267199 -0.0550417 0 0.390275 0.684369 0 0 0 0)
(0.0339353 -0.0505141 0 0.325323 0.55463 0 0 0 0)
(0.0191728 0.0325202 0 0.317655 0.499518 0 0 0 0)
(-0.00742933 0.00216649 0 0.296773 0.397954 0 0 0 0)
(-0.0165777 0.0328869 0 0.271632 0.217671 0 0 0 0)
(-0.0257437 0.125947 0 0.244091 0.184619 0 0 0 0)
(-0.0411057 0.0559758 0 0.205865 0.154477 0 0 0 0)
(-0.0144205 0.0152484 0 0.167319 0.117858 0 0 0 0)
(0.0566882 0.128354 0 0.122885 0.186874 0 0 0 0)
(0.0134478 0.00647812 0 0.0243661 0.223166 0 0 0 0)
(-0.138564 -0.161732 0 -0.0174807 0.157668 0 0 0 0)
(-0.607024 -0.106611 0 -0.0404298 0.0800625 0 0 0 0)
(-1.27176 -0.00783104 0 -0.110425 0.13613 0 0 0 0)
(-0.900208 0.0445026 0 1.97985e-05 0.168139 0 0 0 0)
(-0.23528 0.0346477 0 -0.0103399 0.215184 0 0 0 0)
(-0.150391 0.0907288 0 -0.0560469 0.224738 0 0 0 0)
(-0.135939 0.250277 0 -0.0954447 0.276338 0 0 0 0)
(-0.27446 0.352281 0 -0.174574 0.431902 0 0 0 0)
(-0.42572 0.250996 0 -0.262279 0.563387 0 0 0 0)
(-0.472727 0.0634516 0 -0.301173 0.601711 0 0 0 0)
(-0.462028 -0.0749672 0 -0.298937 0.577193 0 0 0 0)
(-0.457374 -0.138447 0 -0.263163 0.520678 0 0 0 0)
(-0.472146 -0.142754 0 -0.218359 0.44686 0 0 0 0)
(-0.558367 -0.135392 0 -0.191394 0.373823 0 0 0 0)
(-0.927958 -0.160249 0 -0.188959 0.298968 0 0 0 0)
(-1.72914 -0.210382 0 -0.238224 0.210937 0 0 0 0)
(-2.21414 -0.141774 0 -0.13685 0.12044 0 0 0 0)
(-1.75278 -0.0256783 0 -0.0269599 0.115182 0 0 0 0)
(-0.847472 -0.0029418 0 0.0125277 0.114921 0 0 0 0)
(-0.29194 -0.00207033 0 0.00668487 0.116075 0 0 0 0)
(-0.177349 -0.000162032 0 0.00757908 0.11579 0 0 0 0)
(-0.13541 0.0042598 0 0.0102606 0.117196 0 0 0 0)
(-0.100649 0.00726308 0 0.0118422 0.118857 0 0 0 0)
(-0.0710481 0.0123603 0 0.0122177 0.120849 0 0 0 0)
(-0.0567981 0.0181726 0 0.0126606 0.123901 0 0 0 0)
(-0.0561675 0.0104526 0 0.0155479 0.128511 0 0 0 0)
(-0.048654 -0.00657855 0 0.0195968 0.130123 0 0 0 0)
(-0.0408705 -0.0281455 0 0.0213772 0.131106 0 0 0 0)
(-0.0208277 -0.0214052 0 0.0183584 0.115668 0 0 0 0)
(-0.0224137 0.0343298 0 0.0234247 0.589202 0 0 0 0)
(-0.0333185 0.0160028 0 0.0210026 0.550525 0 0 0 0)
(-0.010436 -0.00346545 0 -0.00388175 0.545852 0 0 0 0)
(0.00253913 0.0257908 0 -0.0370275 0.54315 0 0 0 0)
(7.38009e-06 -0.0358765 0 -0.0562212 0.522935 0 0 0 0)
(-0.0135109 -0.0031389 0 -0.0473698 0.498358 0 0 0 0)
(-0.0347124 0.0838782 0 -0.0537728 0.486377 0 0 0 0)
(-0.0408396 -0.013553 0 -0.0421031 0.422537 0 0 0 0)
(-0.0170377 0.00841542 0 -0.0140282 0.358694 0 0 0 0)
(0.00159842 0.144063 0 0.00645426 0.390901 0 0 0 0)
(-0.0441527 -0.0900583 0 -0.134255 0.334979 0 0 0 0)
(-0.169344 -0.292439 0 -0.22231 0.309417 0 0 0 0)
(-0.714134 -0.101031 0 -0.306787 0.280872 0 0 0 0)
(-1.25032 0.0435473 0 -0.38911 0.280707 0 0 0 0)
(-0.794863 0.0502843 0 -0.0683529 0.256669 0 0 0 0)
(-0.238166 0.0201849 0 -0.0832052 0.267939 0 0 0 0)
(-0.168183 0.0816221 0 -0.112831 0.267934 0 0 0 0)
(-0.204475 0.338922 0 -0.221903 0.357835 0 0 0 0)
(-0.390971 0.481731 0 -0.365203 0.527479 0 0 0 0)
(-0.521612 0.313613 0 -0.467838 0.599794 0 0 0 0)
(-0.491211 0.0451039 0 -0.466712 0.567152 0 0 0 0)
(-0.416268 -0.131015 0 -0.402008 0.505567 0 0 0 0)
(-0.392441 -0.201395 0 -0.330896 0.448359 0 0 0 0)
(-0.417713 -0.210283 0 -0.266054 0.390511 0 0 0 0)
(-0.540234 -0.205368 0 -0.229962 0.328556 0 0 0 0)
(-0.96781 -0.23568 0 -0.248684 0.258569 0 0 0 0)
(-1.70322 -0.290622 0 -0.338138 0.171903 0 0 0 0)
(-2.08782 -0.181179 0 -0.166693 0.106627 0 0 0 0)
(-1.66779 -0.0249988 0 -0.027155 0.115748 0 0 0 0)
(-0.829168 -0.0015677 0 0.0145694 0.118255 0 0 0 0)
(-0.294693 -0.000743479 0 0.00470316 0.120742 0 0 0 0)
(-0.175499 0.000679654 0 0.00427451 0.121886 0 0 0 0)
(-0.133643 0.00561444 0 0.0060144 0.123453 0 0 0 0)
(-0.100687 0.0087553 0 0.00633856 0.124657 0 0 0 0)
(-0.0722084 0.0140596 0 0.0052793 0.125916 0 0 0 0)
(-0.0571454 0.0202641 0 0.00432776 0.125874 0 0 0 0)
(-0.0546612 0.0119541 0 0.0053914 0.126726 0 0 0 0)
(-0.0463001 -0.0048906 0 0.00744717 0.125138 0 0 0 0)
(-0.0403954 -0.0334185 0 0.0107932 0.128671 0 0 0 0)
(-0.0215375 -0.0280581 0 0.0108261 0.117092 0 0 0 0)
(0.00538845 -0.0322501 0 -0.273887 0.483296 0 0 0 0)
(0.000406415 -0.096815 0 -0.240555 0.43422 0 0 0 0)
(-0.0219847 -0.0576206 0 -0.21561 0.414461 0 0 0 0)
(-0.0312634 0.0104367 0 -0.214489 0.417834 0 0 0 0)
(-0.0173955 -0.0409972 0 -0.211621 0.405612 0 0 0 0)
(-0.0142183 -0.00234171 0 -0.200616 0.424721 0 0 0 0)
(-0.0206684 0.0528835 0 -0.197959 0.412902 0 0 0 0)
(-0.00280635 -0.0670641 0 -0.163956 0.342353 0 0 0 0)
(0.0323711 -0.0152373 0 -0.0893956 0.380174 0 0 0 0)
(-0.0591665 0.105501 0 -0.148678 0.364265 0 0 0 0)
(-0.206998 -0.0720425 0 -0.290013 0.161034 0 0 0 0)
(-0.304822 -0.213871 0 -0.321952 0.236795 0 0 0 0)
(-0.767759 -0.134277 0 -0.467755 0.294741 0 0 0 0)
(-1.042 -0.0311543 0 -0.438194 0.260015 0 0 0 0)
(-0.605427 0.0321995 0 -0.0222879 0.265156 0 0 0 0)
(-0.278141 0.0455029 0 -0.0828447 0.280357 0 0 0 0)
(-0.284045 0.177356 0 -0.185316 0.338531 0 0 0 0)
(-0.379134 0.500385 0 -0.377783 0.527711 0 0 0 0)
(-0.511451 0.585441 0 -0.556292 0.656407 0 0 0 0)
(-0.523538 0.289226 0 -0.601165 0.584017 0 0 0 0)
(-0.409291 -0.0273492 0 -0.512204 0.474994 0 0 0 0)
(-0.331151 -0.18944 0 -0.418263 0.409236 0 0 0 0)
(-0.326364 -0.24932 0 -0.345103 0.363131 0 0 0 0)
(-0.374882 -0.258201 0 -0.291792 0.322772 0 0 0 0)
(-0.541629 -0.262536 0 -0.27358 0.278765 0 0 0 0)
(-1.0322 -0.311205 0 -0.322617 0.211543 0 0 0 0)
(-1.65013 -0.356799 0 -0.42587 0.125734 0 0 0 0)
(-1.91447 -0.195887 0 -0.164171 0.103158 0 0 0 0)
(-1.57811 -0.0144732 0 -0.0127527 0.120806 0 0 0 0)
(-0.816773 0.00187065 0 0.0229476 0.125605 0 0 0 0)
(-0.30186 0.00142855 0 0.0110528 0.127398 0 0 0 0)
(-0.176086 0.0024507 0 0.0107736 0.128542 0 0 0 0)
(-0.133421 0.00692949 0 0.0129467 0.130268 0 0 0 0)
(-0.101357 0.00963645 0 0.0138151 0.131259 0 0 0 0)
(-0.0729858 0.0135336 0 0.0134563 0.131966 0 0 0 0)
(-0.0566901 0.0189527 0 0.0132681 0.12965 0 0 0 0)
(-0.0531615 0.00974326 0 0.0147683 0.127181 0 0 0 0)
(-0.0434486 -0.00470458 0 0.0156244 0.121077 0 0 0 0)
(-0.0376144 -0.0358989 0 0.0187547 0.124405 0 0 0 0)
(-0.020796 -0.0325625 0 0.0197693 0.116757 0 0 0 0)
(0.00970608 -0.0129616 0 -0.388955 0.337365 0 0 0 0)
(0.0228397 -0.0503293 0 -0.390545 0.353919 0 0 0 0)
(0.0146825 -0.0192557 0 -0.376618 0.396129 0 0 0 0)
(0.00638242 0.0172631 0 -0.353979 0.400808 0 0 0 0)
(0.0133756 -0.0292404 0 -0.324415 0.381764 0 0 0 0)
(-0.000345814 0.0038863 0 -0.30789 0.438904 0 0 0 0)
(0.000614447 0.00450521 0 -0.293586 0.423968 0 0 0 0)
(0.0637766 -0.0450909 0 -0.254136 0.37257 0 0 0 0)
(-0.00231548 0.0295305 0 -0.180731 0.439099 0 0 0 0)
(-0.191724 -0.0671085 0 -0.273319 0.365566 0 0 0 0)
(-0.211125 -0.212892 0 -0.3674 0.174569 0 0 0 0)
(-0.340623 -0.163594 0 -0.360019 0.196578 0 0 0 0)
(-0.82615 -0.0786548 0 -0.470466 0.25659 0 0 0 0)
(-0.821047 0.0150386 0 -0.326955 0.276307 0 0 0 0)
(-0.452436 0.0698863 0 -0.0907734 0.353018 0 0 0 0)
(-0.395266 0.0908913 0 -0.175111 0.384579 0 0 0 0)
(-0.452396 0.319981 0 -0.334646 0.511072 0 0 0 0)
(-0.561961 0.645239 0 -0.531069 0.766114 0 0 0 0)
(-0.60623 0.53599 0 -0.659907 0.728303 0 0 0 0)
(-0.479127 0.138797 0 -0.59888 0.521045 0 0 0 0)
(-0.314959 -0.123321 0 -0.482221 0.393266 0 0 0 0)
(-0.255243 -0.238811 0 -0.402473 0.332829 0 0 0 0)
(-0.270569 -0.284715 0 -0.343884 0.29662 0 0 0 0)
(-0.34879 -0.291581 0 -0.308867 0.267817 0 0 0 0)
(-0.569938 -0.312552 0 -0.314684 0.228703 0 0 0 0)
(-1.11456 -0.383147 0 -0.404382 0.159238 0 0 0 0)
(-1.55054 -0.395066 0 -0.485517 0.0756162 0 0 0 0)
(-1.68973 -0.185928 0 -0.143114 0.0885448 0 0 0 0)
(-1.48748 -0.00336828 0 -0.00123282 0.11736 0 0 0 0)
(-0.806228 0.00478477 0 0.0188861 0.1131 0 0 0 0)
(-0.306424 0.00208702 0 0.00803832 0.107815 0 0 0 0)
(-0.173674 0.00344528 0 0.0104156 0.105872 0 0 0 0)
(-0.130712 0.00823284 0 0.0156032 0.110434 0 0 0 0)
(-0.100196 0.010392 0 0.0182611 0.118995 0 0 0 0)
(-0.0727356 0.012509 0 0.0176601 0.128692 0 0 0 0)
(-0.0558811 0.0156529 0 0.0153533 0.130817 0 0 0 0)
(-0.0523906 0.00369322 0 0.0146585 0.129171 0 0 0 0)
(-0.0424587 -0.00756536 0 0.0137842 0.119813 0 0 0 0)
(-0.0364011 -0.0375814 0 0.0157781 0.122204 0 0 0 0)
(-0.0205598 -0.0354279 0 0.0166009 0.11725 0 0 0 0)
(0.00385664 -0.0162988 0 -0.415598 0.323247 0 0 0 0)
(0.0122952 -0.0401883 0 -0.421492 0.322216 0 0 0 0)
(0.0132514 -0.0124365 0 -0.430573 0.35631 0 0 0 0)
(0.019041 -0.00340537 0 -0.428913 0.346938 0 0 0 0)
(0.0270172 -0.00428629 0 -0.42306 0.337223 0 0 0 0)
(0.0154901 0.0383269 0 -0.423628 0.382048 0 0 0 0)
(0.0311313 -0.0110387 0 -0.40432 0.343078 0 0 0 0)
(0.105945 -0.0524829 0 -0.386624 0.339348 0 0 0 0)
(0.0138857 -0.0219864 0 -0.380481 0.323964 0 0 0 0)
(-0.239048 -0.14941 0 -0.45341 0.227182 0 0 0 0)
(-0.290545 -0.234885 0 -0.424906 0.253852 0 0 0 0)
(-0.404139 -0.134833 0 -0.560415 0.228522 0 0 0 0)
(-0.735897 -0.0574478 0 -0.603061 0.256555 0 0 0 0)
(-0.67611 0.0617672 0 -0.332967 0.337527 0 0 0 0)
(-0.459105 0.136534 0 -0.323727 0.391814 0 0 0 0)
(-0.513145 0.197809 0 -0.447705 0.431082 0 0 0 0)
(-0.627059 0.545018 0 -0.620086 0.761794 0 0 0 0)
(-0.692568 0.709717 0 -0.757824 0.914088 0 0 0 0)
(-0.576796 0.349284 0 -0.722879 0.643321 0 0 0 0)
(-0.352313 -0.0336282 0 -0.555927 0.422195 0 0 0 0)
(-0.220026 -0.208721 0 -0.442747 0.325405 0 0 0 0)
(-0.197844 -0.282572 0 -0.378612 0.269289 0 0 0 0)
(-0.236162 -0.311968 0 -0.341251 0.22161 0 0 0 0)
(-0.346744 -0.323648 0 -0.334856 0.186775 0 0 0 0)
(-0.633671 -0.367166 0 -0.374336 0.137094 0 0 0 0)
(-1.19682 -0.458726 0 -0.496087 0.0317864 0 0 0 0)
(-1.39836 -0.424922 0 -0.492678 -0.0159205 0 0 0 0)
(-1.44779 -0.155661 0 -0.106645 0.0576897 0 0 0 0)
(-1.422 0.00918951 0 -0.00976787 0.0346545 0 0 0 0)
(-0.807839 -0.00732742 0 -0.00618098 -0.0090912 0 0 0 0)
(-0.310023 -0.00553678 0 -0.00499417 -0.0296007 0 0 0 0)
(-0.168796 0.00497466 0 0.00746799 -0.024318 0 0 0 0)
(-0.125861 0.0195747 0 0.0185348 0.00280798 0 0 0 0)
(-0.0993751 0.02723 0 0.0222773 0.0373316 0 0 0 0)
(-0.0757878 0.024926 0 0.0238306 0.0714661 0 0 0 0)
(-0.0595825 0.0194141 0 0.0232763 0.0975565 0 0 0 0)