/*--------------------------------*- C++ -*----------------------------------*\
| =========                 |                                                 |
| \\      /  F ield         | OpenFOAM: The Open Source CFD Toolbox           |
|  \\    /   O peration     | Version:  v1912                                 |
|   \\  /    A nd           | Website:  www.openfoam.com                      |
|    \\/     M anipulation  |                                                 |
\*---------------------------------------------------------------------------*/
FoamFile
{
    version     2.0;
    format      ascii;
    class       volScalarField;
    location    "8.68";
    object      p;
}
// * * * * * * * * * * * * * * * * * * * * * * * * * * * * * * * * * * * * * //

dimensions      [1 -1 -2 0 0 0 0];


internalField   nonuniform List<scalar> 
1900
(
9713.34
8598.58
8478.86
8418.68
8403.48
8397.29
8400.58
8397.97
8400.83
8383.7
9713.3
8598.52
8478.84
8418.83
8403.48
8397.14
8400.2
8399.09
8411.78
8400.16
9713.27
8598.49
8478.84
8419.02
8403.67
8397.49
8400.83
8396.74
8400.66
8385.71
9713.3
8598.52
8478.84
8418.83
8403.48
8397.14
8400.2
8399.09
8411.78
8400.16
9713.34
8598.58
8478.86
8418.68
8403.48
8397.29
8400.58
8397.97
8400.83
8383.7
8514.75
8374.36
8323.07
8169.53
8442.3
8387.16
8301.92
8255.27
8101.51
8014.95
8359.67
8285.33
8246.74
8124.36
8046.65
8387.16
8301.92
8255.27
8101.51
8014.95
8514.75
8374.36
8323.07
8169.53
8442.3
3551.07
2063.14
1441.68
1123.36
845.763
4014.47
2276.06
1556.04
1210.6
896.271
4124.01
2235.84
1508
1176.17
850.591
4014.47
2276.06
1556.04
1210.6
896.271
3551.07
2063.14
1441.68
1123.36
845.763
895.656
947.724
940.079
925.281
895.578
854.392
803.277
743.186
694.762
640.134
567.694
544.773
577.228
818.781
1137.23
1205.72
1207.73
1183.8
1173.73
1163.95
1129.86
1085.29
1020.5
942.633
857.028
731.203
514.684
338.742
374.658
503.075
579.275
622.127
665.016
710.537
754.67
797.236
839.398
883.076
928.976
974.326
840.247
918.33
976.029
948.993
905.578
851.049
792.75
731.838
686.742
632.637
563.53
541.046
574.194
815.746
1135.39
1201.39
1204.25
1186.43
1175.98
1159.74
1128.41
1085.86
1020.51
939.976
853.966
731.714
518.989
340.797
375.019
502.893
579.135
621.981
664.863
710.423
754.636
797.266
839.476
883.193
929.181
974.541
826.688
876.26
958.649
953.253
919.556
868.653
806.315
740.198
694.165
638.135
566.892
544.138
577.752
822.516
1140.44
1204.83
1205.94
1187.72
1174.45
1153.48
1127.19
1086.24
1026.34
953.574
866.794
735.934
520.18
340.688
374.983
502.859
579.081
621.913
664.795
710.372
754.619
797.266
839.426
883.039
928.998
974.337
840.247
918.33
976.029
948.993
905.578
851.049
792.75
731.838
686.742
632.637
563.53
541.046
574.194
815.746
1135.39
1201.39
1204.25
1186.43
1175.98
1159.74
1128.41
1085.86
1020.51
939.976
853.966
731.714
518.989
340.797
375.019
502.893
579.135
621.981
664.863
710.423
754.636
797.266
839.476
883.193
929.181
974.541
895.656
947.724
940.079
925.281
895.578
854.392
803.277
743.186
694.762
640.134
567.694
544.773
577.228
818.781
1137.23
1205.72
1207.73
1183.8
1173.73
1163.95
1129.86
1085.29
1020.5
942.633
857.028
731.203
514.684
338.742
374.658
503.075
579.275
622.127
665.016
710.537
754.67
797.236
839.398
883.076
928.976
974.326
987.235
931.084
894.88
866.674
838.224
815.71
784.533
746.246
709.226
661.151
590.648
555.889
584.418
824.767
1127.94
1206.04
1210.12
1175.41
1161.97
1181.45
1185.34
1155.71
1090.78
997.594
883.936
732.456
505.51
332.648
373.234
503.641
579.705
622.485
665.318
710.713
754.691
797.183
839.391
883.163
928.914
974.17
967.495
895.938
835.481
780.927
741.821
719.185
698.33
681.865
666.484
634.931
588.436
563.153
595.64
838.447
1103.31
1196.73
1203.78
1162.94
1145.03
1130.12
1096.55
1060.87
1008.42
936.037
845.266
707.457
484.063
321.453
370.487
504.91
580.704
623.278
665.951
711.081
754.759
797.008
839.145
882.992
928.466
973.334
971.429
940.542
907.349
864.475
818.213
773.869
734.123
702.802
672.308
639.674
602.666
575.177
615.374
884.792
1119.54
1209.39
1209.27
1151.21
1134.26
1115.23
1077.7
1035.7
982.033
912.545
821.316
677.208
451.864
305.984
366.912
506.28
581.419
623.595
666.1
711.08
754.646
796.868
839.026
882.892
928.079
972.807
974.933
917.712
869.488
826.832
786.462
741.996
701.932
668.775
625.577
592.77
590.664
596.649
664.991
902.352
1067.26
1139.07
1137.31
1101.8
1103.01
1083.83
1048.25
1006.46
951.754
881.303
787.436
635.918
410.96
288.701
363.141
507.29
581.503
623.154
665.411
710.278
753.851
796.398
838.874
882.797
927.789
972.622
978.782
933.33
884.082
838.908
797.042
750.377
710.177
671.126
617.801
598.048
606.789
636.005
763.028
940.453
1046.54
1108.85
1091.57
1069.98
1082.4
1051.6
1013.44
970.022
914.162
842.369
743.928
582.425
364.138
271.397
358.604
506.41
580.196
621.795
663.761
708.204
751.671
794.526
837.607
882.045
927.275
972.429
979.66
938.051
891.971
848.997
807.188
763.795
729.003
681.17
642.984
641.809
650.513
692.644
798.082
931.277
1019.2
1061.79
1034.33
1047.96
1048.5
1012.93
974.99
928.785
869.405
794.3
689.24
519.247
318.938
258.377
358.369
512.676
588.561
631.424
673.218
715.339
754.652
794.351
836.322
881.158
926.673
972.297
980.815
941.401
899.425
858.702
815.586
774.382
738.782
696.46
660.369
661.5
692.395
747.659
834.648
923.001
985.787
978.535
985.933
1025.04
1002.34
967.625
930.048
883.394
825.269
752.584
642.527
463.652
290.1
257.052
374.133
544.96
628.003
670.748
706.794
741.602
776.109
809.69
842.64
882.121
926.436
972.312
981.134
942.195
902.82
863.32
821.762
784.238
749.19
715.948
696.469
708.317
738.521
784.74
852.425
910.912
915.932
917.056
972.97
972.384
946.359
923.231
893.952
861.444
817.145
755.314
644.198
453.057
315.607
320.375
510.346
727.353
809.227
834.954
844.34
847.158
848.18
852.177
869.601
896.419
929.924
972.823
981.901
943.787
905.381
867.347
830.386
797.318
765.922
738.828
729.928
740.269
758.16
791.204
839.883
855.094
862.758
905.296
916.9
911.41
916.168
923.231
929.325
935.587
942.836
901.016
755.684
550.94
457.34
505.378
763.729
966.217
1027.57
1036.19
1031.5
1020.46
997.995
968.936
944.443
932.996
944.072
973.886
982.475
945.007
906.398
865.483
822.246
782.654
749.627
731.48
730.213
741.692
763.447
803.694
822.301
791.744
799.735
873.807
912.944
940.718
1012.01
1107.13
1187.36
1214.44
1174.69
1047.09
816.133
619.636
572.773
647.234
903.017
1075.13
1129.17
1137.27
1139.51
1138.12
1123.82
1098.7
1061.03
1014.15
984.896
979.179
978.35
936.614
893.779
848.122
809.747
780.321
763.108
754.039
749.745
744.744
741.498
740.988
737.998
795.926
875
966.485
1100.66
1272.38
1386.71
1433.14
1425.7
1361.26
1215.52
993.613
755.857
641.32
628.183
711.225
949.062
1110.6
1168.26
1179.96
1189.8
1199.03
1192.7
1177.08
1151.38
1103.19
1045.09
991.408
982.469
937.556
894.822
856.136
826.657
809.433
799.56
788.475
772.857
766.643
799.505
859.837
920.822
1054.64
1228.78
1399.57
1517.1
1590.21
1596.2
1536.23
1431.48
1305.38
1108.72
865.665
711.7
671.481
669.29
744.472
954.986
1110.33
1173.68
1188.06
1201.34
1213.57
1210.52
1199.46
1182.86
1146.99
1089.05
1010.23
993.685
968.539
969.492
981.376
991.023
1009.54
1046.51
1096.36
1143.13
1192.55
1246.78
1308.91
1397.13
1514.94
1604.03
1665.57
1667.29
1629.54
1567.43
1483.4
1351.84
1167.46
948.03
782.174
721.674
708.755
709.404
766.3
947.277
1105.4
1180.77
1198.63
1214.66
1226.87
1223
1206.7
1185.93
1152.3
1098.93
1015.82
1032.35
1077.58
1142.14
1202.71
1252.74
1302.47
1365.81
1441.45
1522.14
1597.22
1645.68
1663.97
1681.11
1692.03
1685.64
1686.97
1657.17
1587.78
1487.78
1367.3
1207.19
1005.15
842.239
775.287
753.765
746.04
747.257
784.982
933.51
1093.51
1181.52
1207.56
1225.12
1235.78
1232.16
1214.33
1190.12
1152.87
1096.83
1017.95
1074.26
1137.21
1204.32
1250.5
1300.91
1367.38
1445.68
1537.61
1630.51
1709.85
1765.13
1782.07
1778.62
1744.81
1702.84
1651.62
1582.06
1490.13
1370.42
1216.55
1034.23
885.319
820.204
799.604
788.99
781.722
781.529
804.412
915.13
1067.53
1166.78
1200.1
1216.44
1227.64
1230.37
1215.65
1188.85
1147.49
1087.33
1015.26
1067.35
1116.53
1185.62
1243.28
1315.83
1395.59
1478.73
1565.2
1658.78
1752.78
1813.05
1822.73
1801.23
1740.16
1660.78
1571.4
1471.75
1355.07
1207.2
1041.52
914.155
858.138
838.696
832.149
824.799
817.274
813.604
828.771
899.815
1034.27
1144.12
1186.94
1198.36
1207.6
1211.98
1198.56
1171.33
1134.28
1078.18
1012.49
1041.87
1068.62
1133.56
1194.91
1269.86
1346.37
1426.79
1518.22
1624.69
1736.76
1799.51
1800.87
1751.83
1661.54
1555.86
1444.92
1321.82
1181.1
1038.35
936.45
891.139
873.841
870.257
867.559
861.423
854.116
848.161
858.871
898.236
1000.86
1112.37
1169.61
1178.41
1184.66
1184.72
1170.23
1143.95
1109.91
1058.58
1001.89
1009.62
1024.54
1073.36
1123.25
1190.05
1251.8
1322.79
1412.02
1520.29
1626.13
1684.78
1684.83
1619.73
1507.63
1388.7
1272.79
1150.77
1035.17
957.572
921.51
908.159
906.703
906.583
904.128
899.297
893.607
888.479
891.426
912.985
971.61
1064.06
1131.08
1146.99
1148.95
1142.87
1132.19
1110.45
1078.02
1038.74
975.101
953.229
978.504
1017.3
1045.9
1090.24
1136.22
1193.94
1268.84
1362.46
1454.2
1499.49
1483.48
1400.02
1291.76
1194.91
1108.21
1032.74
980.898
953.013
942.705
942.418
943.598
943.024
940.627
937.303
933.886
930.761
930.167
936.824
964.13
1017.89
1074.15
1096.38
1096.52
1084.45
1077.05
1058.84
1037.65
1053.41
1001.39
912.844
875.981
959.562
994.885
1014.32
1042.77
1091.81
1147.63
1199.88
1221.79
1205.43
1148.95
1088.45
1044.44
1014.97
993.176
979.435
973.831
972.268
973.55
975.34
976.05
975.777
975.081
974.14
973.595
973.02
973.154
973.964
977.632
985.532
1003.3
1015.06
1018.62
1014.61
1012.81
1002.99
975.685
1003.35
951.36
912.844
875.981
959.562
994.885
1014.32
1042.77
1091.81
1147.63
1199.88
1221.79
1205.43
1148.95
1088.45
1044.44
1014.97
993.176
979.435
973.831
972.268
973.55
975.34
976.05
975.777
975.081
974.14
973.595
973.02
973.154
973.964
977.632
985.532
1003.3
1015.06
1018.62
1014.61
1012.81
1002.99
975.685
1003.35
951.36
953.229
978.504
1017.3
1045.9
1090.24
1136.22
1193.94
1268.84
1362.46
1454.2
1499.49
1483.48
1400.02
1291.76
1194.91
1108.21
1032.74
980.898
953.013
942.705
942.418
943.598
943.024
940.627
937.303
933.886
930.761
930.167
936.824
964.13
1017.89
1074.15
1096.38
1096.52
1084.45
1077.05
1058.84
1037.65
1053.41
1001.39
1009.62
1024.54
1073.36
1123.25
1190.05
1251.8
1322.79
1412.02
1520.29
1626.13
1684.78
1684.83
1619.73
1507.63
1388.7
1272.79
1150.77
1035.17
957.572
921.51
908.159
906.703
906.583
904.128
899.297
893.607
888.479
891.426
912.985
971.61
1064.06
1131.08
1146.99
1148.95
1142.87
1132.19
1110.45
1078.02
1038.74
975.101
1041.87
1068.62
1133.56
1194.91
1269.86
1346.37
1426.79
1518.22
1624.69
1736.76
1799.51
1800.87
1751.83
1661.54
1555.86
1444.92
1321.82
1181.1
1038.35
936.45
891.139
873.841
870.257
867.559
861.423
854.116
848.161
858.871
898.236
1000.86
1112.37
1169.61
1178.41
1184.66
1184.72
1170.23
1143.95
1109.91
1058.58
1001.89
1067.35
1116.53
1185.62
1243.28
1315.83
1395.59
1478.73
1565.2
1658.78
1752.78
1813.05
1822.73
1801.23
1740.16
1660.78
1571.4
1471.75
1355.07
1207.2
1041.52
914.155
858.138
838.696
832.149
824.799
817.274
813.604
828.771
899.815
1034.27
1144.12
1186.94
1198.36
1207.6
1211.98
1198.56
1171.33
1134.28
1078.18
1012.49
1074.26
1137.21
1204.32
1250.5
1300.91
1367.38
1445.68
1537.61
1630.51
1709.85
1765.13
1782.07
1778.62
1744.81
1702.84
1651.62
1582.06
1490.13
1370.42
1216.55
1034.23
885.319
820.204
799.604
788.99
781.722
781.529
804.412
915.13
1067.53
1166.78
1200.1
1216.44
1227.64
1230.37
1215.65
1188.85
1147.49
1087.33
1015.26
1032.35
1077.58
1142.14
1202.71
1252.74
1302.47
1365.81
1441.45
1522.14
1597.22
1645.68
1663.97
1681.11
1692.03
1685.64
1686.97
1657.17
1587.78
1487.78
1367.3
1207.19
1005.15
842.239
775.287
753.765
746.04
747.257
784.982
933.51
1093.51
1181.52
1207.56
1225.12
1235.78
1232.16
1214.33
1190.12
1152.87
1096.83
1017.95
993.685
968.539
969.492
981.376
991.023
1009.54
1046.51
1096.36
1143.13
1192.55
1246.78
1308.91
1397.13
1514.94
1604.03
1665.57
1667.29
1629.54
1567.43
1483.4
1351.84
1167.46
948.03
782.174
721.674
708.755
709.404
766.3
947.277
1105.4
1180.77
1198.63
1214.66
1226.87
1223
1206.7
1185.93
1152.3
1098.93
1015.82
982.469
937.556
894.822
856.136
826.657
809.433
799.56
788.475
772.857
766.643
799.505
859.837
920.822
1054.64
1228.78
1399.57
1517.1
1590.21
1596.2
1536.23
1431.48
1305.38
1108.72
865.665
711.7
671.481
669.29
744.472
954.986
1110.33
1173.68
1188.06
1201.34
1213.57
1210.52
1199.46
1182.86
1146.99
1089.05
1010.23
978.35
936.614
893.779
848.122
809.747
780.321
763.108
754.039
749.745
744.744
741.498
740.988
737.998
795.926
875
966.485
1100.66
1272.38
1386.71
1433.14
1425.7
1361.26
1215.52
993.613
755.857
641.32
628.183
711.225
949.062
1110.6
1168.26
1179.96
1189.8
1199.03
1192.7
1177.08
1151.38
1103.19
1045.09
991.408
982.475
945.007
906.398
865.483
822.246
782.654
749.627
731.48
730.213
741.692
763.447
803.694
822.301
791.744
799.735
873.807
912.944
940.718
1012.01
1107.13
1187.36
1214.44
1174.69
1047.09
816.133
619.636
572.773
647.234
903.017
1075.13
1129.17
1137.27
1139.51
1138.12
1123.82
1098.7
1061.03
1014.15
984.896
979.179
981.901
943.787
905.381
867.347
830.386
797.318
765.922
738.828
729.928
740.269
758.16
791.204
839.883
855.094
862.758
905.296
916.9
911.41
916.168
923.231
929.325
935.587
942.836
901.016
755.684
550.94
457.34
505.378
763.729
966.217
1027.57
1036.19
1031.5
1020.46
997.995
968.936
944.443
932.996
944.072
973.886
981.134
942.195
902.82
863.32
821.762
784.238
749.19
715.948
696.469
708.317
738.521
784.74
852.425
910.912
915.932
917.056
972.97
972.384
946.359
923.231
893.952
861.444
817.145
755.314
644.198
453.057
315.607
320.375
510.346
727.353
809.227
834.954
844.34
847.158
848.18
852.177
869.601
896.419
929.924
972.823
980.815
941.401
899.425
858.702
815.586
774.382
738.782
696.46
660.369
661.5
692.395
747.659
834.648
923.001
985.787
978.535
985.933
1025.04
1002.34
967.625
930.048
883.394
825.269
752.584
642.527
463.652
290.1
257.052
374.133
544.96
628.003
670.748
706.794
741.602
776.109
809.69
842.64
882.121
926.436
972.312
979.66
938.051
891.971
848.997
807.188
763.795
729.003
681.17
642.984
641.809
650.513
692.644
798.082
931.277
1019.2
1061.79
1034.33
1047.96
1048.5
1012.93
974.99
928.785
869.405
794.3
689.24
519.247
318.938
258.377
358.369
512.676
588.561
631.424
673.218
715.339
754.652
794.351
836.322
881.158
926.673
972.297
978.782
933.33
884.082
838.908
797.042
750.377
710.177
671.126
617.801
598.048
606.789
636.005
763.028
940.453
1046.54
1108.85
1091.57
1069.98
1082.4
1051.6
1013.44
970.022
914.162
842.369
743.928
582.425
364.138
271.397
358.604
506.41
580.196
621.795
663.761
708.204
751.671
794.526
837.607
882.045
927.275
972.429
974.933
917.712
869.488
826.832
786.462
741.996
701.932
668.775
625.577
592.77
590.664
596.649
664.991
902.352
1067.26
1139.07
1137.31
1101.8
1103.01
1083.83
1048.25
1006.46
951.754
881.303
787.436
635.918
410.96
288.701
363.141
507.29
581.503
623.154
665.411
710.278
753.851
796.398
838.874
882.797
927.789
972.622
971.429
940.542
907.349
864.475
818.213
773.869
734.123
702.802
672.308
639.674
602.666
575.177
615.374
884.792
1119.54
1209.39
1209.27
1151.21
1134.26
1115.23
1077.7
1035.7
982.033
912.545
821.316
677.208
451.864
305.984
366.912
506.28
581.419
623.595
666.1
711.08
754.646
796.868
839.026
882.892
928.079
972.807
967.495
895.938
835.481
780.927
741.821
719.185
698.33
681.865
666.484
634.931
588.436
563.153
595.64
838.447
1103.31
1196.73
1203.78
1162.94
1145.03
1130.12
1096.55
1060.87
1008.42
936.037
845.266
707.457
484.063
321.453
370.487
504.91
580.704
623.278
665.951
711.081
754.759
797.008
839.145
882.992
928.466
973.334
987.235
931.084
894.88
866.674
838.224
815.71
784.533
746.246
709.226
661.151
590.648
555.889
584.418
824.767
1127.94
1206.04
1210.12
1175.41
1161.97
1181.45
1185.34
1155.71
1090.78
997.594
883.936
732.456
505.51
332.648
373.234
503.641
579.705
622.485
665.318
710.713
754.691
797.183
839.391
883.163
928.914
974.17
)
;

boundaryField
{
    inlet
    {
        type            fixedValue;
        value           uniform 10000;
    }
    outlet
    {
        type            fixedValue;
        value           uniform 1000;
    }
    obstacle
    {
        type            zeroGradient;
    }
    empty
    {
        type            empty;
    }
}


// ************************************************************************* //
