/*--------------------------------*- C++ -*----------------------------------*\
| =========                 |                                                 |
| \\      /  F ield         | OpenFOAM: The Open Source CFD Toolbox           |
|  \\    /   O peration     | Version:  v1912                                 |
|   \\  /    A nd           | Website:  www.openfoam.com                      |
|    \\/     M anipulation  |                                                 |
\*---------------------------------------------------------------------------*/
FoamFile
{
    version     2.0;
    format      ascii;
    class       volVectorField;
    location    "4.94";
    object      grad(T);
}
// * * * * * * * * * * * * * * * * * * * * * * * * * * * * * * * * * * * * * //

dimensions      [0 -1 0 1 0 0 0];


internalField   nonuniform List<vector> 
1900
(
(0.576045 9.09077e-06 0)
(-0.979413 -1.39063e-05 0)
(0.218135 3.20239e-05 0)
(0.115799 5.13254e-05 0)
(0.00818778 0.000131338 0)
(-0.0217325 0.0002618 0)
(-0.0271274 0.000376946 0)
(-0.0176844 0.000494913 0)
(-0.0225077 -0.00389332 0)
(-0.0127951 -0.00312087 0)
(0.57604 1.49415e-05 0)
(-0.97939 -1.66131e-05 0)
(0.218201 5.07556e-05 0)
(0.115899 0.000112447 0)
(0.00839826 0.000234962 0)
(-0.0214869 0.000359237 0)
(-0.0268943 0.000368646 0)
(-0.0219547 -4.90019e-05 0)
(-0.0261235 -0.00549966 0)
(-0.0377459 -0.00442247 0)
(0.576043 2.60209e-14 0)
(-0.979377 2.4503e-13 0)
(0.218264 -5.85469e-14 0)
(0.115984 2.19009e-13 0)
(0.00843457 8.41341e-13 0)
(-0.0215989 7.50268e-13 0)
(-0.0275356 1.17094e-13 0)
(-0.0235527 -2.05998e-13 0)
(-0.0268812 -4.90059e-13 0)
(-0.0382086 -4.68375e-13 0)
(0.57604 -1.49415e-05 0)
(-0.97939 1.66131e-05 0)
(0.218201 -5.07556e-05 0)
(0.115899 -0.000112447 0)
(0.00839826 -0.000234962 0)
(-0.0214869 -0.000359237 0)
(-0.0268943 -0.000368646 0)
(-0.0219547 4.90019e-05 0)
(-0.0261235 0.00549966 0)
(-0.0377459 0.00442247 0)
(0.576045 -9.09077e-06 0)
(-0.979413 1.39063e-05 0)
(0.218135 -3.20239e-05 0)
(0.115799 -5.13254e-05 0)
(0.00818778 -0.000131338 0)
(-0.0217325 -0.0002618 0)
(-0.0271274 -0.000376946 0)
(-0.0176844 -0.000494913 0)
(-0.0225077 0.00389332 0)
(-0.0127951 0.00312087 0)
(-0.049882 -0.0255172 9.68639e-16)
(-0.135384 -0.0250713 -1.15762e-15)
(-0.135384 -0.0342427 -1.45225e-15)
(0.0686516 -0.0539932 0)
(-0.344176 -0.301562 -6.29339e-15)
(-0.0698102 -0.0275921 9.64028e-16)
(-0.129508 -0.0273599 1.15762e-15)
(-0.14266 -0.0365932 1.45225e-15)
(-0.027459 -0.0478982 0)
(-0.312458 -0.280612 0)
(-0.0802841 -2.33732e-13 0)
(-0.138419 -9.74831e-14 0)
(-0.149223 6.62568e-14 0)
(-0.0375489 2.17662e-13 0)
(-0.435722 1.35525e-13 0)
(-0.0698102 0.0275921 9.64028e-16)
(-0.129508 0.0273599 1.15762e-15)
(-0.14266 0.0365932 1.45225e-15)
(-0.027459 0.0478982 0)
(-0.312458 0.280612 0)
(-0.049882 0.0255172 -2.8967e-15)
(-0.135384 0.0250713 -1.15762e-15)
(-0.135384 0.0342427 -1.45225e-15)
(0.0686516 0.0539932 -3.93362e-15)
(-0.344176 0.301562 6.29339e-15)
(-1.04384 0.326106 2.3271e-15)
(-0.506038 0.132164 -1.84513e-15)
(-0.476519 0.0765671 0)
(-0.508766 0.0547845 1.25628e-15)
(-0.521028 0.0713916 -5.23905e-16)
(-0.903262 0.324559 -1.16846e-15)
(-0.559581 0.0951121 9.24557e-16)
(-0.494591 0.0345306 0)
(-0.504159 0.0290252 -7.86426e-16)
(-0.552214 0.049096 1.31883e-16)
(-0.943323 2.02603e-13 0)
(-0.582491 1.39e-13 0)
(-0.499321 1.60623e-14 0)
(-0.50394 -1.59441e-13 3.1492e-16)
(-0.565171 5.07229e-14 -2.63767e-16)
(-0.903262 -0.324559 -1.16846e-15)
(-0.559581 -0.0951121 9.24557e-16)
(-0.494591 -0.0345306 0)
(-0.504159 -0.0290252 -7.86426e-16)
(-0.552214 -0.049096 1.31883e-16)
(-1.04384 -0.326106 1.16846e-15)
(-0.506038 -0.132164 -3.98035e-18)
(-0.476519 -0.0765671 0)
(-0.508766 -0.0547845 1.64993e-18)
(-0.521028 -0.0713916 5.23905e-16)
(-0.451109 0.0642543 0)
(-0.0550435 -0.0879413 0)
(0.302249 -0.14185 0)
(0.179355 0.0180552 0)
(-0.0534637 0.0772831 0)
(-0.139572 0.0608496 0)
(-0.12749 0.0216463 0)
(-0.0919212 0.00853233 0)
(-0.0840399 0.00530959 0)
(-0.0854212 0.00490625 0)
(-0.0792942 0.00508503 0)
(-0.0610809 0.00194905 0)
(-0.0389111 0.000382361 0)
(-0.024151 5.31692e-05 0)
(-0.017538 5.72177e-05 0)
(-0.0146311 6.29431e-05 0)
(-0.0126897 2.57793e-05 0)
(-0.0108403 -2.49812e-05 0)
(-0.00910383 -6.40487e-05 0)
(-0.00750409 -9.00753e-05 0)
(-0.00600336 -0.00010736 0)
(-0.00471546 -0.000117524 0)
(-0.00355015 -0.000121536 0)
(-0.00245776 -0.00012157 0)
(-0.00152264 -0.000119299 0)
(-0.000780828 -0.000118288 0)
(-0.000167349 -0.000116709 0)
(0.000393566 -0.000121818 0)
(0.00130175 -0.000120741 0)
(0.0024422 -0.00012621 0)
(0.00468218 -0.000116278 0)
(0.007014 -4.82455e-05 0)
(0.0100141 -3.33392e-05 0)
(0.0121215 0.000221576 0)
(0.0154 0.00020182 0)
(0.0196319 0.000541567 0)
(0.0283841 -5.54419e-05 0)
(-0.094791 0.00303813 0)
(-0.437812 0.00717697 0)
(-0.324777 -0.0133215 0)
(-0.515843 -0.0839267 0)
(-0.08194 -0.165374 0)
(0.332643 -0.0808825 0)
(0.226961 0.0373358 0)
(-0.0381633 0.0608552 0)
(-0.14593 0.0385664 0)
(-0.134355 0.011532 0)
(-0.0940316 0.00327037 0)
(-0.0844278 0.00174597 0)
(-0.0852719 0.00144663 0)
(-0.0794737 0.00225613 0)
(-0.0615769 0.000616526 0)
(-0.0390474 2.76386e-05 0)
(-0.0241604 -3.46746e-05 0)
(-0.0175325 -1.51669e-05 0)
(-0.0146318 -7.14294e-06 0)
(-0.0126947 -1.62946e-05 0)
(-0.0108469 -3.46636e-05 0)
(-0.00910907 -5.39913e-05 0)
(-0.00750662 -6.05507e-05 0)
(-0.00600525 -6.58081e-05 0)
(-0.00471684 -7.02121e-05 0)
(-0.00355116 -7.37557e-05 0)
(-0.00245862 -7.6948e-05 0)
(-0.00152365 -7.99978e-05 0)
(-0.000782044 -8.36772e-05 0)
(-0.000169414 -8.73161e-05 0)
(0.000391294 -9.40156e-05 0)
(0.00129936 -9.7459e-05 0)
(0.00244036 -0.000103159 0)
(0.00468855 -0.000101258 0)
(0.00702162 -6.2524e-05 0)
(0.0100475 -3.27755e-05 0)
(0.0121629 0.000167269 0)
(0.0154475 0.000312023 0)
(0.0196273 0.000622577 0)
(0.02872 0.000738569 0)
(-0.093221 0.00311877 0)
(-0.434964 0.0096606 0)
(-0.32312 0.0288329 0)
(-0.521037 -1.27739e-12 0)
(-0.054158 4.0214e-13 0)
(0.36122 7.6249e-12 0)
(0.220588 5.28894e-12 0)
(-0.0531057 -6.34751e-13 0)
(-0.153921 1.43903e-13 0)
(-0.137758 -3.37088e-13 0)
(-0.094768 -1.69136e-12 0)
(-0.0845705 -1.93185e-13 0)
(-0.0852728 -1.30104e-13 0)
(-0.0795357 -2.196e-12 0)
(-0.0617292 -1.21825e-12 0)
(-0.0391005 -1.84709e-12 0)
(-0.0241635 -1.03295e-12 0)
(-0.01753 -7.98367e-13 0)
(-0.0146314 -1.91214e-13 0)
(-0.0126977 7.33315e-13 0)
(-0.0108513 2.11518e-12 0)
(-0.00911136 2.99634e-13 0)
(-0.00750752 -2.03041e-13 0)
(-0.00600617 2.66122e-13 0)
(-0.00471777 1.03295e-12 0)
(-0.00355211 1.24585e-12 0)
(-0.00245958 1.21036e-12 0)
(-0.0015246 8.27936e-13 0)
(-0.000782957 5.75613e-13 0)
(-0.000170357 4.53394e-14 0)
(0.000390615 -7.54999e-13 0)
(0.00129909 -2.04421e-12 0)
(0.0024411 -4.45114e-12 0)
(0.004694 -5.56491e-12 0)
(0.00703392 -4.26584e-12 0)
(0.010081 -2.39116e-12 0)
(0.0122218 6.42636e-13 0)
(0.0155324 -7.49085e-14 0)
(0.0197559 4.53394e-14 0)
(0.0291103 5.81527e-12 0)
(-0.0921955 9.02056e-12 0)
(-0.430331 2.08699e-11 0)
(-0.319199 1.71462e-11 0)
(-0.515843 0.0839267 0)
(-0.08194 0.165374 0)
(0.332643 0.0808825 0)
(0.226961 -0.0373358 0)
(-0.0381633 -0.0608552 0)
(-0.14593 -0.0385664 0)
(-0.134355 -0.011532 0)
(-0.0940316 -0.00327037 0)
(-0.0844278 -0.00174597 0)
(-0.0852719 -0.00144663 0)
(-0.0794737 -0.00225613 0)
(-0.0615769 -0.000616526 0)
(-0.0390474 -2.76386e-05 0)
(-0.0241604 3.46746e-05 0)
(-0.0175325 1.51669e-05 0)
(-0.0146318 7.14294e-06 0)
(-0.0126947 1.62946e-05 0)
(-0.0108469 3.46636e-05 0)
(-0.00910907 5.39913e-05 0)
(-0.00750662 6.05507e-05 0)
(-0.00600525 6.58081e-05 0)
(-0.00471684 7.02121e-05 0)
(-0.00355116 7.37557e-05 0)
(-0.00245862 7.6948e-05 0)
(-0.00152365 7.99978e-05 0)
(-0.000782044 8.36772e-05 0)
(-0.000169414 8.73161e-05 0)
(0.000391294 9.40155e-05 0)
(0.00129936 9.7459e-05 0)
(0.00244036 0.000103159 0)
(0.00468855 0.000101258 0)
(0.00702162 6.2524e-05 0)
(0.0100475 3.27755e-05 0)
(0.0121629 -0.000167269 0)
(0.0154475 -0.000312023 0)
(0.0196273 -0.000622577 0)
(0.02872 -0.00073857 0)
(-0.093221 -0.00311877 0)
(-0.434964 -0.0096606 0)
(-0.32312 -0.0288329 0)
(-0.451109 -0.0642543 0)
(-0.0550435 0.0879413 0)
(0.302249 0.14185 0)
(0.179355 -0.0180552 0)
(-0.0534637 -0.0772831 0)
(-0.139572 -0.0608496 0)
(-0.12749 -0.0216463 0)
(-0.0919212 -0.00853233 0)
(-0.0840399 -0.00530959 0)
(-0.0854212 -0.00490625 0)
(-0.0792942 -0.00508503 0)
(-0.0610809 -0.00194905 0)
(-0.0389111 -0.000382361 0)
(-0.024151 -5.31692e-05 0)
(-0.017538 -5.72177e-05 0)
(-0.0146311 -6.29431e-05 0)
(-0.0126897 -2.57793e-05 0)
(-0.0108403 2.49812e-05 0)
(-0.00910383 6.40487e-05 0)
(-0.00750409 9.00753e-05 0)
(-0.00600336 0.00010736 0)
(-0.00471546 0.000117524 0)
(-0.00355015 0.000121536 0)
(-0.00245776 0.00012157 0)
(-0.00152264 0.000119299 0)
(-0.000780828 0.000118288 0)
(-0.000167349 0.000116709 0)
(0.000393566 0.000121818 0)
(0.00130175 0.000120741 0)
(0.0024422 0.00012621 0)
(0.00468218 0.000116278 0)
(0.007014 4.82455e-05 0)
(0.0100141 3.33392e-05 0)
(0.0121215 -0.000221576 0)
(0.0154 -0.00020182 0)
(0.0196319 -0.000541567 0)
(0.0283841 5.54419e-05 0)
(-0.094791 -0.00303813 0)
(-0.437812 -0.00717697 0)
(-0.324777 0.0133215 0)
(-0.148295 -0.409469 0)
(0.0162444 -0.108482 0)
(0.301297 -0.0188305 0)
(0.14455 -0.100516 0)
(-0.0473159 -0.114396 0)
(-0.118381 -0.0823772 0)
(-0.109477 -0.0361149 0)
(-0.0862243 -0.0178225 0)
(-0.0826016 -0.0117215 0)
(-0.0849584 -0.0103125 0)
(-0.0778261 -0.00816209 0)
(-0.0592006 -0.00373332 0)
(-0.0380159 -0.000981771 0)
(-0.0239674 -0.000221217 0)
(-0.0175322 -0.000165949 0)
(-0.0146129 -0.000161754 0)
(-0.0126454 -8.78159e-05 0)
(-0.0107983 1.35237e-05 0)
(-0.0090743 8.96644e-05 0)
(-0.00748238 0.000145095 0)
(-0.00599023 0.000180886 0)
(-0.00470956 0.000201007 0)
(-0.0035498 0.000208313 0)
(-0.00246102 0.000207478 0)
(-0.00152687 0.000201534 0)
(-0.000785075 0.000197109 0)
(-0.000169586 0.000191851 0)
(0.000391198 0.0001971 0)
(0.00129935 0.000194413 0)
(0.00243542 0.000202889 0)
(0.004647 0.000180538 0)
(0.0069784 7.64174e-05 0)
(0.00991696 1.5655e-05 0)
(0.0120632 -0.000284241 0)
(0.0153018 -0.000200725 0)
(0.0197835 -0.000586362 0)
(0.0275424 0.000144206 0)
(-0.0959423 -0.00327412 0)
(-0.421409 0.00031461 0)
(-0.308346 0.00938739 0)
(0.0820183 -0.502635 0)
(0.283163 -0.0423512 0)
(0.310437 -0.0420902 0)
(0.105929 -0.122351 0)
(-0.0392812 -0.127657 0)
(-0.0755016 -0.0891576 0)
(-0.0749418 -0.0486823 0)
(-0.0714696 -0.0272762 0)
(-0.0775743 -0.0194325 0)
(-0.0822394 -0.0155201 0)
(-0.0737415 -0.0110743 0)
(-0.05517 -0.0052452 0)
(-0.0360067 -0.00160847 0)
(-0.0234634 -0.00041302 0)
(-0.0174839 -0.000216449 0)
(-0.0145655 -0.000157425 0)
(-0.0125446 -3.39715e-05 0)
(-0.0106918 0.000112075 0)
(-0.00899287 0.000237911 0)
(-0.00742782 0.000322873 0)
(-0.00595652 0.000378026 0)
(-0.00469219 0.000409904 0)
(-0.0035441 0.000423162 0)
(-0.00246255 0.000425307 0)
(-0.00153037 0.000420671 0)
(-0.000787881 0.000418851 0)
(-0.000166159 0.000416935 0)
(0.000397304 0.000433802 0)
(0.00130862 0.000441112 0)
(0.00243247 0.000467397 0)
(0.00457918 0.000444018 0)
(0.00687419 0.00029466 0)
(0.00971865 0.00017699 0)
(0.0119443 -0.000171277 0)
(0.0151615 -9.86549e-05 0)
(0.0198829 -0.000520877 0)
(0.0262455 -0.000135435 0)
(-0.0940094 -0.00327498 0)
(-0.434406 0.00576865 0)
(-0.324845 -0.00895201 0)
(0.295252 -0.237631 0)
(0.460042 0.0387263 0)
(0.224207 -0.0402303 0)
(0.0620945 -0.122908 0)
(-0.0153297 -0.107046 0)
(-0.0422785 -0.0763659 0)
(-0.0498455 -0.0499258 0)
(-0.0580382 -0.0327287 0)
(-0.0712731 -0.0258892 0)
(-0.0769042 -0.0197673 0)
(-0.0679248 -0.0134642 0)
(-0.0500789 -0.00649933 0)
(-0.0333594 -0.00230569 0)
(-0.022626 -0.000741891 0)
(-0.0172859 -0.000340104 0)
(-0.0144371 -0.000168729 0)
(-0.0123857 2.89893e-05 0)
(-0.0105363 0.000233947 0)
(-0.00887116 0.000403645 0)
(-0.00734736 0.000517953 0)
(-0.00590636 0.000593317 0)
(-0.00466606 0.000637635 0)
(-0.00353496 0.00065679 0)
(-0.00246342 0.000661673 0)
(-0.00153309 0.000659058 0)
(-0.000788675 0.000662261 0)
(-0.000155179 0.000665558 0)
(0.000414496 0.000699412 0)
(0.00133173 0.000720287 0)
(0.00243822 0.00076897 0)
(0.00448054 0.00074811 0)
(0.00672108 0.00055401 0)
(0.00946796 0.000405453 0)
(0.0117976 5.53704e-07 0)
(0.0149649 4.89835e-05 0)
(0.019748 -0.000398989 0)
(0.0248884 -0.000435697 0)
(-0.0902529 -0.00240025 0)
(-0.42688 0.00585755 0)
(-0.322531 0.00915831 0)
(0.348326 -0.0465068 0)
(0.473386 0.00727996 0)
(0.15468 -0.0532044 0)
(0.0415431 -0.100674 0)
(0.00556851 -0.079484 0)
(-0.0204582 -0.0626844 0)
(-0.0328915 -0.0457865 0)
(-0.048307 -0.0354396 0)
(-0.0650843 -0.0296101 0)
(-0.0702663 -0.0225642 0)
(-0.060956 -0.0145172 0)
(-0.0444172 -0.00718821 0)
(-0.0304587 -0.00283138 0)
(-0.0215692 -0.00111019 0)
(-0.0169315 -0.000529187 0)
(-0.0142098 -0.000228903 0)
(-0.0121565 5.30911e-05 0)
(-0.0103308 0.000316635 0)
(-0.00871919 0.000520906 0)
(-0.00724505 0.000659458 0)
(-0.00584119 0.000753405 0)
(-0.00463103 0.000811067 0)
(-0.00352094 0.000838747 0)
(-0.00246036 0.000850799 0)
(-0.0015298 0.000856943 0)
(-0.000781618 0.000873628 0)
(-0.000130359 0.000889636 0)
(0.000450043 0.00094841 0)
(0.00137564 0.00099032 0)
(0.00245928 0.00106512 0)
(0.00437204 0.00104957 0)
(0.006544 0.000828768 0)
(0.00918532 0.000653223 0)
(0.0116008 0.000195578 0)
(0.0147764 0.000153553 0)
(0.0194159 -0.000276619 0)
(0.024317 -0.00075399 0)
(-0.087945 -0.000994738 0)
(-0.423268 0.00444441 0)
(-0.321664 0.00512737 0)
(0.347083 -0.0194913 0)
(0.453588 -0.0257557 0)
(0.120179 -0.04752 0)
(0.0367705 -0.0692585 0)
(0.0212781 -0.0552451 0)
(-0.00980641 -0.049753 0)
(-0.0235915 -0.0403504 0)
(-0.0424499 -0.0359839 0)
(-0.0588659 -0.030922 0)
(-0.0623601 -0.0234762 0)
(-0.0531079 -0.0142568 0)
(-0.0388181 -0.00722537 0)
(-0.0275024 -0.00309793 0)
(-0.0204075 -0.00139406 0)
(-0.0164366 -0.000700263 0)
(-0.013876 -0.000290028 0)
(-0.01186 6.63445e-05 0)
(-0.0100855 0.000361921 0)
(-0.00854081 0.000586462 0)
(-0.00712331 0.00074042 0)
(-0.00576027 0.000850693 0)
(-0.00458382 0.000924514 0)
(-0.00349667 0.000967733 0)
(-0.00244588 0.000998255 0)
(-0.00151109 0.00102859 0)
(-0.000757171 0.00107546 0)
(-8.31168e-05 0.00112091 0)
(0.000511519 0.00122755 0)
(0.0014442 0.00131042 0)
(0.00249532 0.00143136 0)
(0.00425278 0.00144893 0)
(0.00633915 0.00123867 0)
(0.0088578 0.00107678 0)
(0.0113161 0.000634227 0)
(0.0145099 0.000540486 0)
(0.0188735 0.000136925 0)
(0.0241964 -0.000459795 0)
(-0.0852436 0.000390375 0)
(-0.42098 0.00386336 0)
(-0.321873 0.00206648 0)
(0.34229 -0.0241217 0)
(0.446376 -0.0337218 0)
(0.112759 -0.0353498 0)
(0.034099 -0.0397702 0)
(0.0243647 -0.0391692 0)
(-0.00610523 -0.0401275 0)
(-0.0196231 -0.0370134 0)
(-0.0392214 -0.0355908 0)
(-0.0530314 -0.0307719 0)
(-0.0542071 -0.0227307 0)
(-0.0452961 -0.0135082 0)
(-0.0336641 -0.00696604 0)
(-0.0248394 -0.00330574 0)
(-0.0192588 -0.0016676 0)
(-0.0158676 -0.000881492 0)
(-0.0134711 -0.000366722 0)
(-0.0115283 3.75482e-05 0)
(-0.00982957 0.00035022 0)
(-0.00835446 0.000579071 0)
(-0.00699043 0.000741179 0)
(-0.00566379 0.000866713 0)
(-0.00451824 0.000958912 0)
(-0.00344988 0.001022 0)
(-0.00240172 0.00107708 0)
(-0.0014554 0.00113753 0)
(-0.000692652 0.00121866 0)
(1.61978e-05 0.00129351 0)
(0.000632663 0.0014421 0)
(0.00157204 0.00155289 0)
(0.00259275 0.00169551 0)
(0.00418635 0.00172333 0)
(0.00618538 0.00150251 0)
(0.00860286 0.00131148 0)
(0.011084 0.000852084 0)
(0.0142972 0.000661189 0)
(0.018452 0.000249487 0)
(0.0245612 -0.000392847 0)
(-0.083779 0.00144444 0)
(-0.421653 0.00521359 0)
(-0.323396 0.00153228 0)
(0.337832 -0.0194671 0)
(0.442768 -0.0291564 0)
(0.11435 -0.0282038 0)
(0.0330901 -0.0268744 0)
(0.0209338 -0.0309883 0)
(-0.00772907 -0.0346958 0)
(-0.0192197 -0.0356424 0)
(-0.0364353 -0.0346233 0)
(-0.0464735 -0.0291702 0)
(-0.0457242 -0.0205446 0)
(-0.0379165 -0.0120137 0)
(-0.0289866 -0.00627588 0)
(-0.0223966 -0.0031343 0)
(-0.0180714 -0.00161186 0)
(-0.0151831 -0.000788095 0)
(-0.0129903 -0.000251744 0)
(-0.0111691 0.000126264 0)
(-0.00956364 0.00041729 0)
(-0.00816406 0.000628285 0)
(-0.00684613 0.000789289 0)
(-0.00555045 0.000928152 0)
(-0.00443418 0.00104282 0)
(-0.0033828 0.00113609 0)
(-0.00233456 0.00123206 0)
(-0.00137466 0.00134178 0)
(-0.000606859 0.00147224 0)
(0.0001322 0.00159324 0)
(0.00076146 0.00181028 0)
(0.00168839 0.00195958 0)
(0.00265956 0.00212321 0)
(0.0040668 0.00216918 0)
(0.00594228 0.00195011 0)
(0.00823103 0.00172845 0)
(0.0106895 0.00128193 0)
(0.0139292 0.00108795 0)
(0.0178578 0.000692273 0)
(0.0253479 5.49083e-05 0)
(-0.079841 0.00211411 0)
(-0.420896 0.00622462 0)
(-0.325421 0.00301095 0)
(0.332953 -0.00275182 0)
(0.437957 -0.0179747 0)
(0.114958 -0.0213677 0)
(0.0314157 -0.0214569 0)
(0.0168277 -0.0277844 0)
(-0.0105902 -0.0316154 0)
(-0.0195532 -0.0339495 0)
(-0.0329846 -0.0321323 0)
(-0.0394646 -0.0261256 0)
(-0.0376745 -0.0177843 0)
(-0.0315462 -0.0104199 0)
(-0.0251076 -0.00560612 0)
(-0.020345 -0.0029118 0)
(-0.0169979 -0.00146099 0)
(-0.014557 -0.000633395 0)
(-0.01259 -0.000124733 0)
(-0.0108836 0.000236463 0)
(-0.0093458 0.000517656 0)
(-0.00799599 0.000729969 0)
(-0.00670146 0.000897031 0)
(-0.00541948 0.00104892 0)
(-0.00431787 0.00118258 0)
(-0.00326752 0.0012998 0)
(-0.0022035 0.00142621 0)
(-0.00122395 0.0015679 0)
(-0.000450344 0.00172162 0)
(0.000341944 0.00185903 0)
(0.000985682 0.00211183 0)
(0.00187359 0.00225068 0)
(0.00279473 0.00237962 0)
(0.00401954 0.00238897 0)
(0.00576067 0.00212735 0)
(0.00795898 0.00182714 0)
(0.0104668 0.00134884 0)
(0.013729 0.00115885 0)
(0.0174565 0.000842238 0)
(0.0259314 0.00033458 0)
(-0.0778336 0.00243098 0)
(-0.420789 0.00703845 0)
(-0.326492 0.00479125 0)
(0.323162 0.00458573 0)
(0.424829 -0.00993313 0)
(0.110995 -0.016651 0)
(0.0269067 -0.0189426 0)
(0.0111447 -0.0272503 0)
(-0.01367 -0.0302659 0)
(-0.0197177 -0.0321711 0)
(-0.0288959 -0.0290846 0)
(-0.0326472 -0.0227339 0)
(-0.0305896 -0.0150846 0)
(-0.0261812 -0.00884766 0)
(-0.0217515 -0.00474986 0)
(-0.0184022 -0.00234045 0)
(-0.0158758 -0.000949015 0)
(-0.0138954 -0.00011793 0)
(-0.0121521 0.000462422 0)
(-0.01055 0.000875862 0)
(-0.00908808 0.00116957 0)
(-0.00779848 0.00138852 0)
(-0.00653878 0.00156026 0)
(-0.00527529 0.00172204 0)
(-0.00419242 0.00187037 0)
(-0.00314803 0.00200365 0)
(-0.00207621 0.00214526 0)
(-0.00108999 0.00228633 0)
(-0.000326316 0.00242101 0)
(0.000508224 0.00254031 0)
(0.00113887 0.00275984 0)
(0.00194644 0.00282244 0)
(0.00279283 0.00283162 0)
(0.0038237 0.00270671 0)
(0.00540088 0.00230986 0)
(0.00748082 0.00182666 0)
(0.0100455 0.00117971 0)
(0.013441 0.000786908 0)
(0.0170635 0.000394999 0)
(0.0268789 2.07513e-05 0)
(-0.0733809 0.00225009 0)
(-0.418621 0.00780964 0)
(-0.327586 0.00684411 0)
(0.318962 0.00255591 0)
(0.417493 -0.00766637 0)
(0.106276 -0.0148307 0)
(0.0212018 -0.0186315 0)
(0.00591614 -0.0273546 0)
(-0.015332 -0.0285883 0)
(-0.018415 -0.0289718 0)
(-0.0238905 -0.0248824 0)
(-0.0259737 -0.0187093 0)
(-0.0242933 -0.0120287 0)
(-0.0215873 -0.00686842 0)
(-0.018837 -0.00343913 0)
(-0.0166823 -0.00139976 0)
(-0.0148562 -0.000161803 0)
(-0.0131969 0.00071285 0)
(-0.0116323 0.00134545 0)
(-0.0102022 0.00179145 0)
(-0.00885179 0.00211428 0)
(-0.0076195 0.00236255 0)
(-0.00638007 0.0025607 0)
(-0.00512065 0.00274709 0)
(-0.0040465 0.0029161 0)
(-0.00300263 0.0030601 0)
(-0.0019311 0.00319946 0)
(-0.000958226 0.00331309 0)
(-0.000205593 0.00341323 0)
(0.000668448 0.00350044 0)
(0.00125755 0.00367252 0)
(0.00194276 0.00366132 0)
(0.00268321 0.00356661 0)
(0.00351676 0.00332425 0)
(0.00491263 0.00280983 0)
(0.00686993 0.00213507 0)
(0.00946485 0.00134561 0)
(0.0129728 0.000751375 0)
(0.0167182 0.000242569 0)
(0.027719 -0.000221217 0)
(-0.070328 0.00155986 0)
(-0.416362 0.00795391 0)
(-0.327423 0.00979761 0)
(0.313312 0.00326742 0)
(0.408075 -0.00677631 0)
(0.100428 -0.014418 0)
(0.0148383 -0.0185985 0)
(0.00154998 -0.0268312 0)
(-0.0152284 -0.0260335 0)
(-0.0161466 -0.0246717 0)
(-0.0190065 -0.0202373 0)
(-0.020261 -0.0146646 0)
(-0.0191793 -0.0091083 0)
(-0.0179039 -0.00497035 0)
(-0.0164817 -0.00212718 0)
(-0.0152441 -0.00021277 0)
(-0.0138401 0.00126983 0)
(-0.012443 0.00231329 0)
(-0.0111127 0.0030579 0)
(-0.00980918 0.00362187 0)
(-0.00853775 0.00407148 0)
(-0.0073683 0.00442971 0)
(-0.00616821 0.0047004 0)
(-0.00493281 0.00491514 0)
(-0.0038908 0.00506415 0)
(-0.00287498 0.00513822 0)
(-0.00183242 0.00516407 0)
(-0.000883989 0.00513865 0)
(-0.000145774 0.00511382 0)
(0.000758083 0.00503446 0)
(0.00129389 0.00504853 0)
(0.00184438 0.00485712 0)
(0.00246802 0.00458594 0)
(0.00309445 0.00415597 0)
(0.00425494 0.00348079 0)
(0.00606984 0.00258045 0)
(0.00871209 0.00160913 0)
(0.0123781 0.000882461 0)
(0.0161263 0.000397473 0)
(0.0281483 -6.65525e-05 0)
(-0.0655031 0.0012966 0)
(-0.410683 0.00899316 0)
(-0.325809 0.0121309 0)
(0.309283 0.00222629 0)
(0.40045 -0.00715351 0)
(0.0948839 -0.0144677 0)
(0.00923999 -0.0182882 0)
(-0.00124855 -0.0250913 0)
(-0.013251 -0.0226469 0)
(-0.0128296 -0.0197041 0)
(-0.0142473 -0.0153265 0)
(-0.0152493 -0.0104305 0)
(-0.0149515 -0.00596772 0)
(-0.01486 -0.00269191 0)
(-0.0142525 -0.000149871 0)
(-0.0134089 0.001805 0)
(-0.012422 0.00326298 0)
(-0.0114738 0.00431173 0)
(-0.0103714 0.0051004 0)
(-0.00922544 0.00571181 0)
(-0.00807332 0.0062082 0)
(-0.00701344 0.00661284 0)
(-0.00591229 0.00692069 0)
(-0.00477013 0.00716013 0)
(-0.00383154 0.00731396 0)
(-0.00290634 0.0073659 0)
(-0.00193068 0.00734797 0)
(-0.00100665 0.00727029 0)
(-0.000305995 0.00719892 0)
(0.000605532 0.00703456 0)
(0.00108666 0.00696787 0)
(0.00149699 0.00664557 0)
(0.00200756 0.00623917 0)
(0.00245179 0.00562578 0)
(0.00339439 0.00478899 0)
(0.00506633 0.00366214 0)
(0.00782861 0.00240723 0)
(0.0118052 0.00143306 0)
(0.0158037 0.000858785 0)
(0.0285854 0.000304815 0)
(-0.0615977 0.00111802 0)
(-0.405922 0.00978919 0)
(-0.324399 0.0152181 0)
(0.304273 0.00323798 0)
(0.391988 -0.00550499 0)
(0.0896983 -0.0129414 0)
(0.00460094 -0.0159369 0)
(-0.00265019 -0.0209184 0)
(-0.0100372 -0.0174073 0)
(-0.00909238 -0.0137954 0)
(-0.0100701 -0.0101133 0)
(-0.0112426 -0.00622032 0)
(-0.0117221 -0.0027286 0)
(-0.0122976 0.000160762 0)
(-0.0121483 0.00263079 0)
(-0.0119553 0.00435883 0)
(-0.0114245 0.00566782 0)
(-0.0106724 0.00668716 0)
(-0.00976357 0.0075128 0)
(-0.00874166 0.00819721 0)
(-0.00766949 0.00878889 0)
(-0.00668172 0.00928323 0)
(-0.00564082 0.00964772 0)
(-0.00455385 0.00989398 0)
(-0.00369251 0.0100036 0)
(-0.0028422 0.00997633 0)
(-0.00192455 0.00987028 0)
(-0.00102762 0.00971 0)
(-0.00037294 0.00960075 0)
(0.000535436 0.00938616 0)
(0.000919052 0.00921609 0)
(0.00114218 0.00880772 0)
(0.00148531 0.00830865 0)
(0.00169699 0.00759928 0)
(0.0023627 0.00663528 0)
(0.0037747 0.00529335 0)
(0.00656407 0.00386722 0)
(0.0108859 0.0026345 0)
(0.0150391 0.00212947 0)
(0.0283981 0.00140157 0)
(-0.0563636 0.00159733 0)
(-0.397096 0.0120834 0)
(-0.320578 0.0179414 0)
(0.300858 0.00831361 0)
(0.384859 -0.00029657 0)
(0.0848313 -0.00909976 0)
(0.00155301 -0.0112952 0)
(-0.00266549 -0.0144864 0)
(-0.00638703 -0.0111463 0)
(-0.00580077 -0.00772548 0)
(-0.00694763 -0.00474755 0)
(-0.00813313 -0.00129281 0)
(-0.0088025 0.00153977 0)
(-0.00969554 0.00373368 0)
(-0.010207 0.00572225 0)
(-0.0104823 0.0071094 0)
(-0.0101783 0.00833235 0)
(-0.00969593 0.00915934 0)
(-0.00891622 0.00983738 0)
(-0.00799576 0.0104022 0)
(-0.00702679 0.0108983 0)
(-0.00618584 0.011331 0)
(-0.00532375 0.011682 0)
(-0.00442723 0.0119768 0)
(-0.00375218 0.0121733 0)
(-0.00303478 0.0122304 0)
(-0.00218734 0.0121907 0)
(-0.00126637 0.0120792 0)
(-0.000618055 0.0120395 0)
(0.000234858 0.0118686 0)
(0.000529252 0.0117214 0)
(0.000622551 0.0113993 0)
(0.000843061 0.0109447 0)
(0.000839273 0.0103628 0)
(0.00117232 0.00956755 0)
(0.00239893 0.0083757 0)
(0.00526644 0.00722646 0)
(0.0101307 0.00605637 0)
(0.0146156 0.00585129 0)
(0.0280727 0.00509002 0)
(-0.0513043 0.00436491 0)
(-0.390172 0.0154914 0)
(-0.318754 0.0228262 0)
(0.295976 0.0157399 0)
(0.375208 0.00782831 0)
(0.0790997 -0.000675411 0)
(-0.000589841 -0.00269461 0)
(-0.00250673 -0.00424745 0)
(-0.00352207 -0.00185969 0)
(-0.00292631 0.00105325 0)
(-0.00387137 0.00293907 0)
(-0.00518387 0.0054561 0)
(-0.00687842 0.00727634 0)
(-0.00826722 0.00864345 0)
(-0.00889537 0.0101254 0)
(-0.00944014 0.0112141 0)
(-0.00944907 0.0121991 0)
(-0.00922206 0.0128573 0)
(-0.00856592 0.0134363 0)
(-0.00771937 0.0139401 0)
(-0.00677445 0.0144097 0)
(-0.00592647 0.0148452 0)
(-0.00501852 0.0151969 0)
(-0.00408043 0.0154626 0)
(-0.0034481 0.0156081 0)
(-0.00282546 0.0156229 0)
(-0.00207023 0.015564 0)
(-0.00117328 0.0154146 0)
(-0.00057588 0.0153406 0)
(0.000228859 0.0151543 0)
(0.000466803 0.0150274 0)
(0.000393772 0.0148032 0)
(0.000486508 0.0144184 0)
(0.000369911 0.0139969 0)
(0.000447828 0.0135302 0)
(0.00151874 0.0127219 0)
(0.00432908 0.0120003 0)
(0.00956079 0.0111827 0)
(0.0141078 0.0117812 0)
(0.0269658 0.0120508 0)
(-0.0463405 0.0113132 0)
(-0.379306 0.0213693 0)
(-0.31351 0.0321049 0)
(0.293234 0.0313065 0)
(0.369041 0.0193327 0)
(0.074691 0.0097144 0)
(-0.00188913 0.00690589 0)
(-0.00186092 0.00642208 0)
(-0.00127907 0.00731874 0)
(-0.00117651 0.00982418 0)
(-0.00270488 0.0108434 0)
(-0.00395358 0.012407 0)
(-0.00573106 0.013444 0)
(-0.00695005 0.0143239 0)
(-0.00772989 0.0155362 0)
(-0.00848405 0.0163393 0)
(-0.0085948 0.0173028 0)
(-0.00850368 0.0180414 0)
(-0.00787284 0.0187989 0)
(-0.00705777 0.0194224 0)
(-0.00615463 0.0198119 0)
(-0.00542726 0.0199525 0)
(-0.00472872 0.0200103 0)
(-0.004031 0.020366 0)
(-0.00359776 0.020928 0)
(-0.00307727 0.0212453 0)
(-0.00238806 0.0211618 0)
(-0.00148166 0.0206963 0)
(-0.000868914 0.0202945 0)
(-6.69477e-05 0.0197265 0)
(0.00019095 0.0193634 0)
(3.57339e-05 0.0189292 0)
(6.60758e-05 0.0185516 0)
(-1.65835e-05 0.0179956 0)
(-5.63093e-05 0.0177192 0)
(0.000924603 0.0169707 0)
(0.00378315 0.0163501 0)
(0.00991953 0.0154314 0)
(0.0154522 0.0162672 0)
(0.0276217 0.017657 0)
(-0.0423247 0.0184188 0)
(-0.370136 0.0270118 0)
(-0.308409 0.0467695 0)
(0.284438 0.0631763 0)
(0.354401 0.0392049 0)
(0.0671248 0.0307292 0)
(-0.00376244 0.0263302 0)
(-0.00210889 0.0247557 0)
(-0.000243684 0.0238704 0)
(0.0004702 0.0257191 0)
(-0.00138249 0.025976 0)
(-0.0026779 0.0268192 0)
(-0.00503122 0.0265858 0)
(-0.0062511 0.0265202 0)
(-0.00695327 0.025969 0)
(-0.00773773 0.0253086 0)
(-0.00780889 0.0247896 0)
(-0.00778041 0.0243963 0)
(-0.00723509 0.024623 0)
(-0.00674314 0.025485 0)
(-0.00626361 0.0269199 0)
(-0.00573529 0.028607 0)
(-0.00462012 0.0297804 0)
(-0.0031961 0.0299634 0)
(-0.0026007 0.0292908 0)
(-0.00260018 0.0283544 0)
(-0.00259925 0.0279198 0)
(-0.00200907 0.0278518 0)
(-0.00151044 0.0284926 0)
(-0.000668353 0.0292819 0)
(-0.000301491 0.0298567 0)
(-0.000388504 0.0308672 0)
(-0.000413193 0.0316462 0)
(-0.000432257 0.0320669 0)
(-0.000539808 0.0326995 0)
(0.000199491 0.0326267 0)
(0.00284577 0.032465 0)
(0.00948083 0.0317747 0)
(0.0162525 0.0323002 0)
(0.0290392 0.034453 0)
(-0.0373258 0.0347741 0)
(-0.351986 0.0368657 0)
(-0.294471 0.0746942 0)
(0.270135 -0.141226 0)
(0.337774 -0.0410255 0)
(0.0622844 -0.0173199 0)
(-0.00764541 -0.0286752 0)
(-0.0042312 -0.0356758 0)
(-0.000350618 -0.0431126 0)
(0.00085246 -0.0489143 0)
(-0.00164481 -0.0562875 0)
(-0.00336594 -0.0623202 0)
(-0.0060192 -0.068779 0)
(-0.00754437 -0.0726814 0)
(-0.00889745 -0.0780275 0)
(-0.00962064 -0.0815851 0)
(-0.00947389 -0.0858806 0)
(-0.00866419 -0.089423 0)
(-0.00682373 -0.092673 0)
(-0.00484439 -0.0949578 0)
(-0.00314622 -0.0961378 0)
(-0.00267081 -0.0955248 0)
(-0.00342161 -0.0927046 0)
(-0.00450277 -0.0928124 0)
(-0.00514829 -0.095393 0)
(-0.00439842 -0.0953497 0)
(-0.00287235 -0.0938592 0)
(-0.000929673 -0.090738 0)
(0.000509163 -0.08791 0)
(0.00124758 -0.0830882 0)
(0.00171861 -0.0806659 0)
(0.00176011 -0.0752867 0)
(0.00122219 -0.0717608 0)
(0.000998445 -0.066315 0)
(0.000483132 -0.0617772 0)
(0.000698616 -0.0556934 0)
(0.00296209 -0.0501128 0)
(0.00976071 -0.0433569 0)
(0.0180331 -0.0379184 0)
(0.0300056 -0.0307767 0)
(-0.0399997 -0.0322138 0)
(-0.331668 -0.0492438 0)
(-0.271956 -0.112955 0)
(0.380995 -0.362817 0)
(0.473802 -0.429177 0)
(0.0790259 -0.32903 0)
(-0.0214508 -0.364671 0)
(-0.0160212 -0.386819 0)
(-0.0130008 -0.398138 0)
(-0.0122257 -0.414026 0)
(-0.0143009 -0.423236 0)
(-0.0147151 -0.432754 0)
(-0.0150156 -0.440999 0)
(-0.0151633 -0.446275 0)
(-0.0155332 -0.450816 0)
(-0.0153052 -0.45305 0)
(-0.0153618 -0.454893 0)
(-0.0143258 -0.455606 0)
(-0.0125687 -0.456775 0)
(-0.0100819 -0.457382 0)
(-0.00680993 -0.45743 0)
(-0.00242701 -0.457336 0)
(-0.0020064 -0.455728 0)
(-0.00578671 -0.45436 0)
(-0.00504573 -0.45372 0)
(-0.00112211 -0.449709 0)
(0.00184471 -0.450661 0)
(0.00372372 -0.447132 0)
(0.00586123 -0.446796 0)
(0.00631234 -0.444309 0)
(0.00721629 -0.443195 0)
(0.00819284 -0.439741 0)
(0.0082323 -0.437069 0)
(0.00918828 -0.430787 0)
(0.00969556 -0.426038 0)
(0.0114397 -0.416636 0)
(0.0147337 -0.40997 0)
(0.0212319 -0.398649 0)
(0.0283752 -0.390161 0)
(0.0345363 -0.372168 0)
(-0.0551214 -0.347482 0)
(-0.429791 -0.445653 0)
(-0.355865 -0.363849 0)
(0.206188 -0.180898 0)
(0.370331 -0.362301 0)
(0.124445 -0.288273 0)
(-0.0633322 -0.315168 0)
(-0.0364816 -0.331734 0)
(-0.0265688 -0.336401 0)
(-0.0233326 -0.345814 0)
(-0.0196914 -0.347927 0)
(-0.0204829 -0.351408 0)
(-0.0190492 -0.353912 0)
(-0.0170048 -0.355594 0)
(-0.015426 -0.355823 0)
(-0.0135488 -0.355483 0)
(-0.0119368 -0.354001 0)
(-0.0104784 -0.351929 0)
(-0.00853532 -0.350008 0)
(-0.00547533 -0.347743 0)
(-0.00310134 -0.345228 0)
(-0.00103073 -0.343894 0)
(-0.000554216 -0.343779 0)
(-0.00256757 -0.342387 0)
(-0.000665726 -0.340438 0)
(-0.00145068 -0.337842 0)
(-0.000389801 -0.340779 0)
(0.00279448 -0.340161 0)
(0.00323003 -0.341743 0)
(0.00471753 -0.342892 0)
(0.00612066 -0.343398 0)
(0.00766324 -0.344028 0)
(0.00985007 -0.343948 0)
(0.0116286 -0.34235 0)
(0.0141197 -0.341415 0)
(0.0161823 -0.337759 0)
(0.0202946 -0.336494 0)
(0.0288493 -0.331988 0)
(0.043552 -0.328589 0)
(0.0711332 -0.316238 0)
(-0.110813 -0.290611 0)
(-0.34744 -0.374031 0)
(-0.193127 -0.205152 0)
(0.206188 0.180898 0)
(0.370331 0.362301 0)
(0.124445 0.288273 0)
(-0.0633322 0.315168 0)
(-0.0364816 0.331734 0)
(-0.0265688 0.336401 0)
(-0.0233326 0.345814 0)