/*--------------------------------*- C++ -*----------------------------------*\
| =========                 |                                                 |
| \\      /  F ield         | OpenFOAM: The Open Source CFD Toolbox           |
|  \\    /   O peration     | Version:  v1912                                 |
|   \\  /    A nd           | Website:  www.openfoam.com                      |
|    \\/     M anipulation  |                                                 |
\*---------------------------------------------------------------------------*/
FoamFile
{
    version     2.0;
    format      ascii;
    class       volVectorField;
    location    "0.98";
    object      grad(p);
}
// * * * * * * * * * * * * * * * * * * * * * * * * * * * * * * * * * * * * * //

dimensions      [1 -2 -2 0 0 0 0];


internalField   nonuniform List<vector> 
1900
(
(-0.00341451 -5.65242e-06 0)
(-0.0118128 -1.38927e-05 0)
(-0.01544 8.26141e-05 0)
(-0.00513238 0.000207222 0)
(1.06164 0.000222705 0)
(40.8111 0.0159303 0)
(378.817 0.99522 0)
(1254.07 16.7451 0)
(2050.58 113.16 0)
(1446.68 300.401 0)
(-0.00343405 -1.02943e-05 0)
(-0.0117245 -2.64144e-05 0)
(-0.0152189 0.000140274 0)
(-0.00499228 0.000374566 0)
(1.07737 0.000583157 0)
(41.8061 0.0833913 0)
(395.546 3.5619 0)
(1366.24 38.4905 0)
(2334.24 162.322 0)
(2262.31 299.518 0)
(-0.00345122 4.45866e-09 0)
(-0.0116622 1.24345e-10 0)
(-0.0150391 1.86517e-09 0)
(-0.00468949 5.32907e-11 0)
(1.14466 1.35003e-09 0)
(44.3724 -7.28306e-10 0)
(417.224 -1.15463e-09 0)
(1412.83 1.19016e-09 0)
(2311.61 2.55795e-09 0)
(2107.98 9.23706e-10 0)
(-0.00343405 1.03051e-05 0)
(-0.0117245 2.64138e-05 0)
(-0.0152189 -0.000140268 0)
(-0.00499229 -0.000374566 0)
(1.07737 -0.000583154 0)
(41.8061 -0.0833913 0)
(395.546 -3.5619 0)
(1366.24 -38.4905 0)
(2334.24 -162.322 0)
(2262.31 -299.518 0)
(-0.0034145 5.6588e-06 0)
(-0.0118128 1.3892e-05 0)
(-0.01544 -8.26108e-05 0)
(-0.00513238 -0.000207222 0)
(1.06164 -0.000222703 0)
(40.8111 -0.0159303 0)
(378.817 -0.99522 0)
(1254.07 -16.7451 0)
(2050.58 -113.16 0)
(1446.68 -300.401 0)
(736.239 867.002 1.02681e-11)
(1015.8 997.775 -1.2729e-11)
(577.572 996.147 -1.62076e-11)
(-3039.06 1137.03 0)
(749.502 6065.78 -6.67357e-11)
(1349.77 776.345 1.04247e-11)
(724.819 786.008 1.2729e-11)
(167.854 773.506 1.62076e-11)
(-1403.93 736.203 0)
(822.424 5614.57 0)
(1476.81 3.05714e-10 0)
(1056.35 1.14918e-09 0)
(580.544 -7.40149e-10 0)
(-901.851 4.03717e-10 0)
(3516.8 -1.58603e-10 0)
(1349.77 -776.345 1.04247e-11)
(724.819 -786.008 1.2729e-11)
(167.854 -773.506 1.62076e-11)
(-1403.93 -736.203 0)
(822.424 -5614.57 0)
(736.239 -867.002 -3.11175e-11)
(1015.8 -997.775 -1.2729e-11)
(577.572 -996.147 -1.62076e-11)
(-3039.06 -1137.03 -4.41316e-11)
(749.502 -6065.78 6.67357e-11)
(7780.73 -3101.73 3.21953e-11)
(544.306 -395.43 -2.70739e-11)
(1189.36 -141.054 0)
(2039.35 850.035 2.11328e-11)
(-6904.06 -4318.98 -9.69054e-12)
(5647.1 -3173.33 -1.6051e-11)
(1227.82 -316.08 1.3531e-11)
(1635.91 -237.688 0)
(157.365 530.461 -1.3228e-11)
(-7505.02 -8130.67 2.3289e-12)
(6025.9 -1.88401e-09 0)
(1236.35 -6.07301e-10 0)
(1498.03 1.25003e-09 0)
(-1538.37 -5.22458e-10 5.29758e-12)
(-9305.24 -2.80477e-09 -4.6578e-12)
(5647.1 3173.33 -1.6051e-11)
(1227.82 316.08 1.3531e-11)
(1635.91 237.688 0)
(157.365 -530.461 -1.3228e-11)
(-7505.02 8130.67 2.3289e-12)
(7780.73 3101.73 1.6051e-11)
(544.306 395.43 1.19091e-14)
(1189.36 141.054 0)
(2039.35 -850.035 2.56003e-14)
(-6904.06 4318.98 9.69054e-12)
(-23182.1 -7324.78 0)
(-13953.5 7874.95 0)
(1734.07 3658.94 0)
(2241.45 861.126 0)
(3670.11 540.043 0)
(4522.72 129.969 0)
(5130.81 87.8929 0)
(4541.87 74.9979 0)
(2914.57 43.4792 0)
(1124.73 10.4636 0)
(202.759 0.686403 0)
(11.8164 0.00781047 0)
(0.146431 9.10674e-06 0)
(0.000263257 -8.07435e-10 0)
(4.93343e-08 -3.22974e-11 0)
(-1.61487e-11 0 0)
(0 0 0)
(1.61487e-11 0 0)
(0 -9.68922e-11 0)
(-1.61487e-11 3.22974e-11 0)
(0 -3.22974e-11 0)
(0 6.45948e-11 0)
(1.61487e-11 0 0)
(0 -9.68922e-11 0)
(-1.61487e-11 3.22974e-11 0)
(-6.33594e-08 -3.22974e-11 0)
(-0.000328402 4.81231e-09 0)
(-0.179515 3.87569e-10 0)
(-14.2131 -6.2011e-09 0)
(-239.457 7.493e-09 0)
(-1308.62 -4.39245e-09 0)
(-3361.23 3.22974e-09 0)
(-5260.86 -4.23096e-09 0)
(-6113.79 3.81109e-09 0)
(-6108.73 -1.03352e-09 0)
(-5624.11 -8.39732e-10 0)
(-4843.48 -1.69561e-09 0)
(-4668.92 2.58379e-10 0)
(31494.7 -1.35649e-09 0)
(-59405.6 -2.84217e-09 0)
(-20493.4 -5030.49 0)
(-13434.4 10695.9 0)
(608.442 2360.34 0)
(1714.16 486.88 0)
(3570.92 122.549 0)
(4494.23 45.2747 0)
(5134.62 23.952 0)
(4542.45 27.7645 0)
(2909.59 20.0874 0)
(1120.49 5.34707 0)
(201.651 0.348704 0)
(11.7455 0.00327709 0)
(0.14575 9.77481e-07 0)
(0.000262994 7.4284e-10 0)
(4.95442e-08 0 0)
(0 0 0)
(0 0 0)
(0 0 0)
(2.4223e-11 -3.22974e-11 0)
(0 -3.22974e-11 0)
(0 0 0)
(-1.61487e-11 -3.22974e-11 0)
(-8.07435e-12 0 0)
(2.4223e-11 -3.22974e-11 0)
(0 -3.22974e-11 0)
(-6.20514e-08 6.45948e-11 0)
(-0.000328402 5.94272e-09 0)
(-0.179515 9.68922e-10 0)
(-14.2131 -5.68434e-09 0)
(-239.457 6.71786e-09 0)
(-1308.62 -2.09933e-09 0)
(-3361.23 1.55028e-09 0)
(-5260.86 -3.22974e-09 0)
(-6113.79 3.55271e-09 0)
(-6108.73 -1.00122e-09 0)
(-5624.11 -9.68922e-11 0)
(-4843.48 1.2919e-10 0)
(-4668.92 3.06825e-10 0)
(31494.7 8.7203e-10 0)
(-59405.6 1.42109e-09 0)
(-17653.4 -4.65083e-09 0)
(-11803.4 -3.55271e-10 0)
(-1235.82 -1.61487e-10 0)
(1590.46 5.49056e-10 0)
(3541.64 1.2596e-09 0)
(4494.03 2.68068e-09 0)
(5125.72 4.87691e-09 0)
(4540.74 -1.2273e-09 0)
(2908.04 4.81231e-09 0)
(1118.99 -1.32419e-09 0)
(201.204 3.58501e-09 0)
(11.715 -4.16636e-09 0)
(0.145478 3.03596e-09 0)
(0.000262973 -3.61731e-09 0)
(4.91163e-08 3.22974e-11 0)
(-1.61487e-11 0 0)
(0 0 0)
(0 0 0)
(0 0 0)
(0 -3.22974e-11 0)
(0 0 0)
(0 -3.22974e-11 0)
(0 -6.45948e-11 0)
(0 0 0)
(3.22974e-11 -3.22974e-11 0)
(-6.16234e-08 0 0)
(-0.000328402 2.71298e-09 0)
(-0.179515 -3.45582e-09 0)
(-14.2131 -3.6819e-09 0)
(-239.457 5.32907e-09 0)
(-1308.62 -1.77636e-09 0)
(-3361.23 -3.16514e-09 0)
(-5260.86 -4.00488e-09 0)
(-6113.79 4.39245e-09 0)
(-6108.73 -3.55271e-10 0)
(-5624.11 9.68922e-11 0)
(-4843.48 8.23584e-10 0)
(-4668.92 -2.90677e-10 0)
(31494.7 3.22974e-11 0)
(-59405.6 4.13407e-09 0)
(-20493.4 5030.49 0)
(-13434.4 -10695.9 0)
(608.442 -2360.34 0)
(1714.16 -486.88 0)
(3570.92 -122.549 0)
(4494.23 -45.2747 0)
(5134.62 -23.952 0)
(4542.45 -27.7645 0)
(2909.59 -20.0874 0)
(1120.49 -5.34707 0)
(201.651 -0.348704 0)
(11.7455 -0.0032771 0)
(0.14575 -9.78514e-07 0)
(0.000262993 -4.32785e-09 0)
(5.05777e-08 0 0)
(-8.07435e-12 0 0)
(0 0 0)
(0 0 0)
(0 0 0)
(0 0 0)
(0 0 0)
(-2.4223e-11 0 0)
(0 0 0)
(2.4223e-11 0 0)
(0 0 0)
(-6.12359e-08 -6.45948e-11 0)
(-0.000328403 1.64717e-09 0)
(-0.179515 -2.97136e-09 0)
(-14.2131 -2.68068e-09 0)
(-239.457 1.2919e-09 0)
(-1308.62 -2.26082e-09 0)
(-3361.23 -2.09933e-09 0)
(-5260.86 -4.45704e-09 0)
(-6113.79 4.81231e-09 0)
(-6108.73 -2.26082e-10 0)
(-5624.11 -6.13651e-10 0)
(-4843.48 -1.09811e-09 0)
(-4668.92 6.78245e-10 0)
(31494.7 4.19866e-10 0)
(-59405.6 -1.87325e-09 0)
(-23182.1 7324.78 0)
(-13953.5 -7874.95 0)
(1734.07 -3658.94 0)
(2241.45 -861.126 0)
(3670.11 -540.043 0)
(4522.72 -129.969 0)
(5130.81 -87.8929 0)
(4541.87 -74.9979 0)
(2914.57 -43.4792 0)
(1124.73 -10.4636 0)
(202.759 -0.686403 0)
(11.8164 -0.00781047 0)
(0.146431 -9.11081e-06 0)
(0.000263257 2.26082e-09 0)
(5.03678e-08 -6.45948e-11 0)
(0 0 0)
(0 0 0)
(0 0 0)
(0 0 0)
(1.61487e-11 3.22974e-11 0)
(-1.61487e-11 0 0)
(0 0 0)
(0 6.45948e-11 0)
(0 0 0)
(1.61487e-11 3.22974e-11 0)
(-6.11632e-08 0 0)
(-0.000328403 0 0)
(-0.179515 9.68922e-10 0)
(-14.2131 -3.22974e-09 0)
(-239.457 2.06703e-09 0)
(-1308.62 2.03474e-09 0)
(-3361.23 -3.32663e-09 0)
(-5260.86 -3.00366e-09 0)
(-6113.79 2.64839e-09 0)
(-6108.73 3.22974e-11 0)
(-5624.11 -9.68922e-11 0)
(-4843.48 1.17885e-09 0)
(-4668.92 1.04967e-09 0)
(31494.7 2.08318e-09 0)
(-59405.6 -1.2919e-10 0)
(55700.8 13079.9 0)
(-19723.9 -5847.53 0)
(3706.51 -3112.47 0)
(3060.87 -1315.81 0)
(3914.87 -958.132 0)
(4744.91 -388.374 0)
(5173.51 -242.769 0)
(4570.98 -148.344 0)
(2944.32 -67.6704 0)
(1142.43 -14.7264 0)
(206.929 -0.976638 0)
(12.094 -0.0126762 0)
(0.149862 -2.15787e-05 0)
(0.000268403 -1.08227e-09 0)
(4.94625e-08 0 0)
(0 9.75016e-12 0)
(0 0 0)
(0 0 0)
(0 0 0)
(0 -9.75016e-12 0)
(0 0 0)
(0 0 0)
(0 0 0)
(0 0 0)
(0 -9.75016e-12 0)
(-6.13285e-08 0 0)
(-0.000328402 -3.80256e-10 0)
(-0.179515 2.63254e-10 0)
(-14.2131 5.65509e-10 0)
(-239.457 -5.75259e-09 0)
(-1308.62 8.19988e-09 0)
(-3361.23 -6.59111e-09 0)
(-5260.86 -2.9933e-09 0)
(-6113.79 2.52529e-09 0)
(-6108.73 -1.61853e-09 0)
(-5624.11 3.51006e-10 0)
(-4843.48 9.65266e-10 0)
(-4668.92 -2.92505e-11 0)
(31494.7 -9.89641e-10 0)
(-59405.6 -5.65509e-10 0)
(59001.9 10048.9 0)
(-26462.8 -2752.34 0)
(5043.32 -2197.17 0)
(3878.05 -1484.43 0)
(4432.58 -1019.75 0)
(5092.92 -584.191 0)
(5339.22 -377.706 0)
(4694.99 -212.092 0)
(3027.37 -85.8757 0)
(1179.5 -17.647 0)
(214.701 -1.19042 0)
(12.6087 -0.0168511 0)
(0.156807 -3.3793e-05 0)
(0.000281292 -7.50762e-09 0)
(5.19001e-08 0 0)
(0 -9.75016e-12 0)
(0 0 0)
(0 0 0)
(0 0 0)
(0 0 0)
(0 0 0)
(0 0 0)
(0 0 0)
(0 0 0)
(0 9.75016e-12 0)
(-6.1426e-08 0 0)
(-0.000328403 -7.60512e-10 0)
(-0.179515 1.71603e-09 0)
(-14.2131 6.28885e-09 0)
(-239.457 -1.06472e-08 0)
(-1308.62 1.07739e-08 0)
(-3361.23 -5.18708e-09 0)
(-5260.86 -5.16758e-10 0)
(-6113.79 1.40402e-09 0)
(-6108.73 -2.82755e-10 0)
(-5624.11 -2.92505e-11 0)
(-4843.48 -3.1688e-10 0)
(-4668.92 1.41377e-10 0)
(31494.7 -6.82511e-11 0)
(-59405.6 -2.55454e-09 0)
(62732.1 4781.12 0)
(-31524.6 -997.406 0)
(4928.32 -1467.23 0)
(4195.47 -1291.11 0)
(4782.37 -954.041 0)
(5363.61 -637.167 0)
(5532.08 -414.707 0)
(4852.2 -228.284 0)
(3131.7 -89.2168 0)
(1224.04 -18.0447 0)
(223.918 -1.23519 0)
(13.2411 -0.01825 0)
(0.166101 -3.90339e-05 0)
(0.000300967 -7.93663e-09 0)
(5.66874e-08 0 0)
(0 0 0)
(0 0 0)
(0 0 0)
(0 0 0)
(0 0 0)
(0 0 0)
(0 0 0)
(0 0 0)
(0 0 0)
(0 -9.75016e-12 0)
(-6.20598e-08 9.75016e-12 0)
(-0.000328401 -1.93053e-09 0)
(-0.179515 -2.53504e-10 0)
(-14.2131 8.89214e-09 0)
(-239.457 -1.2412e-08 0)
(-1308.62 1.23242e-08 0)
(-3361.23 -2.56429e-09 0)
(-5260.86 6.0451e-10 0)
(-6113.79 -3.02255e-10 0)
(-6108.73 -9.75016e-11 0)
(-5624.11 -3.12005e-10 0)
(-4843.48 -7.02011e-10 0)
(-4668.92 -3.46131e-10 0)
(31494.7 5.80134e-10 0)
(-59405.6 -4.77758e-09 0)
(62648.1 -53.0803 0)
(-32483.9 -820.549 0)
(4760.29 -1209.17 0)
(4372.58 -1114.87 0)
(5062.74 -851.512 0)
(5612.64 -586.628 0)
(5733.23 -367.763 0)
(5008.64 -192.52 0)
(3229.96 -71.2322 0)
(1264.28 -13.725 0)
(232.072 -0.904514 0)
(13.7989 -0.0130256 0)
(0.174393 -2.74457e-05 0)
(0.000318907 -5.52834e-09 0)
(5.95442e-08 0 0)
(0 0 0)
(0 0 0)
(0 0 0)
(0 0 0)
(0 0 0)
(0 0 0)
(0 0 0)
(0 0 0)
(0 0 0)
(0 0 0)
(-6.32883e-08 -9.75016e-12 0)
(-0.000328403 1.75503e-10 0)
(-0.179515 -3.56856e-09 0)
(-14.2131 7.96588e-09 0)
(-239.457 -1.36502e-08 0)
(-1308.62 1.24802e-08 0)
(-3361.23 -3.29555e-09 0)
(-5260.86 1.95003e-11 0)
(-6113.79 -7.89763e-10 0)
(-6108.73 1.18952e-09 0)
(-5624.11 3.60756e-10 0)
(-4843.48 -4.77758e-10 0)
(-4668.92 3.31505e-10 0)
(31494.7 5.36259e-11 0)
(-59405.6 -1.01402e-09 0)
(61890.2 -1172.02 0)
(-32638.7 -726.492 0)
(4644.7 -999.819 0)
(4540.13 -875.299 0)
(5291.4 -660.337 0)
(5829.76 -444.06 0)
(5911.85 -262.042 0)
(5137.94 -126.646 0)
(3303.99 -42.4262 0)
(1291.81 -7.28016 0)
(237.131 -0.423426 0)
(14.1127 -0.00540278 0)
(0.178653 -1.02532e-05 0)
(0.000327415 -4.61182e-09 0)
(6.20208e-08 0 0)
(0 0 0)
(0 0 0)
(0 0 0)
(0 0 0)
(0 0 0)
(0 0 0)
(0 0 0)
(0 0 0)
(0 0 0)
(0 0 0)
(-6.1894e-08 0 0)
(-0.000328404 3.31505e-10 0)
(-0.179515 -2.73004e-10 0)
(-14.2131 6.82511e-11 0)
(-239.457 -9.36015e-09 0)
(-1308.62 7.16637e-09 0)
(-3361.23 -2.04753e-09 0)
(-5260.86 1.85253e-09 0)
(-6113.79 1.00427e-09 0)
(-6108.73 1.09202e-09 0)
(-5624.11 -1.95003e-11 0)
(-4843.48 4.72883e-10 0)
(-4668.92 1.48202e-09 0)
(31494.7 2.92505e-10 0)
(-59405.6 2.73004e-10 0)
(60818.6 -1544.04 0)
(-32318 -560.804 0)
(4616.9 -675.899 0)
(4699.72 -560.944 0)
(5478.3 -400.759 0)
(5996.45 -253.306 0)
(6039.1 -137.333 0)
(5220.27 -59.39 0)
(3344.99 -17.1351 0)
(1304.76 -2.39893 0)
(239.082 -0.105685 0)
(14.2069 -0.000933323 0)
(0.1796 -2.10658e-06 0)
(0.000328787 -9.77395e-07 0)
(6.39903e-08 -9.79774e-07 0)
(0 -9.79345e-07 0)
(0 -9.77083e-07 0)
(0 -9.77609e-07 0)
(0 -9.7681e-07 0)
(0 -9.77219e-07 0)
(0 -9.76712e-07 0)
(0 -9.77346e-07 0)
(0 -9.77609e-07 0)
(0 -9.7681e-07 0)
(0 -9.77141e-07 0)
(-6.29763e-08 -9.76683e-07 0)
(-0.000328403 -9.81539e-07 0)
(-0.179515 -9.8267e-07 0)
(-14.2131 -9.76732e-07 0)
(-239.457 -9.80437e-07 0)
(-1308.62 -9.66865e-07 0)
(-3361.23 -9.14107e-07 0)
(-5260.86 -7.78755e-07 0)
(-6113.79 -5.80027e-07 0)
(-6108.73 -3.7621e-07 0)
(-5624.11 -2.18287e-07 0)
(-4843.48 -1.1356e-07 0)
(-4668.92 -4.70396e-08 0)
(31494.7 -1.07057e-08 0)
(-59405.6 -9.57465e-09 0)
(59861.9 -1110.88 0)
(-31802.1 -291.063 0)
(4644.57 -304.986 0)
(4805.26 -241.058 0)
(5587.85 -159.926 0)
(6083.61 -93.4872 0)
(6098.72 -45.728 0)
(5253.77 -17.1512 0)
(3358.91 -4.01087 0)
(1308.22 -0.391648 0)
(239.442 -0.00912044 0)
(14.2145 -0.00246532 0)
(0.179551 -0.00254966 0)
(0.0003285 -0.00255005 0)
(6.01585e-08 -0.00255005 0)
(2.57404e-09 -0.00255005 0)
(1.66728e-09 -0.00255005 0)
(2.82755e-10 -0.00255005 0)
(3.80256e-10 -0.00255005 0)
(1.07252e-10 -0.00255006 0)
(-1.36502e-10 -0.00255006 0)
(-8.77514e-10 -0.00255005 0)
(5.26509e-10 -0.00255005 0)
(4.58257e-10 -0.00255005 0)
(1.26752e-10 -0.00255005 0)
(-6.61353e-08 -0.00255005 0)
(-0.00032841 -0.00255006 0)
(-0.179515 -0.00255004 0)
(-14.2131 -0.00255007 0)
(-239.457 -0.00254855 0)
(-1308.62 -0.00252361 0)
(-3361.23 -0.00239145 0)
(-5260.86 -0.002079 0)
(-6113.79 -0.00162879 0)
(-6108.73 -0.00115279 0)
(-5624.11 -0.000749879 0)
(-4843.48 -0.000445387 0)
(-4668.92 -0.00021484 0)
(31494.7 -6.02468e-05 0)
(-59405.6 -3.33005e-05 0)
(59467.6 -390.71 0)
(-31541.4 -80.7993 0)
(4665.09 -73.468 0)
(4839.5 -55.7625 0)
(5620.5 -34.0302 0)
(6106.5 -18.3781 0)
(6112.66 -8.21721 0)
(5260.47 -3.05541 0)
(3361.14 -1.14305 0)
(1308.62 -0.77329 0)
(239.457 -0.76238 0)
(14.2132 -0.764179 0)
(0.179518 -0.764222 0)
(0.000328413 -0.764222 0)
(6.55211e-08 -0.764222 0)
(1.11152e-09 -0.764222 0)
(2.00853e-09 -0.764222 0)
(-4.68983e-09 -0.764222 0)
(-5.73309e-09 -0.764222 0)
(-2.12553e-09 -0.764222 0)
(1.16027e-09 -0.764222 0)
(5.25533e-09 -0.764222 0)
(6.3961e-09 -0.764222 0)
(-2.04753e-10 -0.764222 0)
(-6.72761e-09 -0.764222 0)
(-6.76368e-08 -0.764222 0)
(-0.000328393 -0.764222 0)
(-0.179515 -0.764222 0)
(-14.2131 -0.764217 0)
(-239.457 -0.763799 0)
(-1308.62 -0.756923 0)
(-3361.23 -0.721858 0)
(-5260.86 -0.641162 0)
(-6113.79 -0.525552 0)
(-6108.73 -0.399775 0)
(-5624.11 -0.286169 0)
(-4843.48 -0.190874 0)
(-4668.92 -0.110752 0)
(31494.7 -0.0417151 0)
(-59405.6 -0.0412506 0)
(59407.5 -61.4979 0)
(-31496.4 -13.149 0)
(4668.7 -15.2927 0)
(4843.27 -17.4316 0)
(5623.88 -19.6301 0)
(6108.48 -23.0936 0)
(6113.48 -27.4502 0)
(5260.59 -31.8701 0)
(3361.11 -35.148 0)
(1308.59 -36.6502 0)
(239.451 -36.9606 0)
(14.2128 -36.9804 0)
(0.17951 -36.9806 0)
(0.000328378 -36.9806 0)
(6.127e-08 -36.9806 0)
(3.64656e-09 -36.9806 0)
(4.66058e-09 -36.9806 0)
(3.92931e-09 -36.9806 0)
(3.33455e-09 -36.9806 0)
(3.06155e-09 -36.9806 0)
(-9.06765e-10 -36.9806 0)
(-4.58257e-09 -36.9806 0)
(-5.34309e-09 -36.9806 0)
(-4.77758e-10 -36.9806 0)
(6.92261e-09 -36.9806 0)
(-5.9632e-08 -36.9806 0)
(-0.000328386 -36.9806 0)
(-0.17951 -36.9806 0)
(-14.2127 -36.9804 0)
(-239.45 -36.9608 0)
(-1308.58 -36.6499 0)
(-3361.12 -35.1281 0)
(-5260.67 -31.7511 0)
(-6113.56 -27.0071 0)
(-6108.5 -21.7916 0)
(-5623.91 -16.8629 0)
(-4843.31 -12.3768 0)
(-4668.78 -8.4031 0)
(31494.7 -4.13256 0)
(-59405.5 -6.40277 0)
(59395.7 -184.061 0)
(-31496.9 -84.9161 0)
(4660.96 -137.964 0)
(4835.32 -180.011 0)
(5615.05 -227.736 0)
(6098.96 -277.623 0)
(6104.21 -329.183 0)
(5253.06 -376.358 0)
(3356.53 -411.023 0)
(1306.87 -427.315 0)
(239.139 -430.79 0)
(14.1939 -431.018 0)
(0.179262 -431.021 0)
(0.000327919 -431.021 0)
(6.63693e-08 -431.021 0)
(-2.52529e-09 -431.021 0)
(-1.05594e-08 -431.021 0)
(-8.77514e-09 -431.021 0)
(-5.08958e-09 -431.021 0)
(-3.69531e-09 -431.021 0)
(-1.46252e-09 -431.021 0)
(2.34979e-09 -431.021 0)
(8.19013e-09 -431.021 0)
(8.21938e-09 -431.021 0)
(3.48081e-09 -431.021 0)
(-6.11627e-08 -431.021 0)
(-0.000327916 -431.021 0)
(-0.179263 -431.021 0)
(-14.194 -431.018 0)
(-239.138 -430.79 0)
(-1306.86 -427.316 0)
(-3356.51 -411.023 0)
(-5253.03 -376.334 0)
(-6104.19 -329.065 0)
(-6098.95 -277.455 0)
(-5615.04 -227.508 0)
(-4835.33 -179.705 0)
(-4660.98 -137.641 0)
(31496.6 -84.5948 0)
(-59395.5 -182.154 0)
(59148.3 -1441.08 0)
(-31452 -537.202 0)
(4577.06 -739.588 0)
(4756.76 -889.67 0)
(5529.82 -1068.96 0)
(6010.73 -1253.65 0)
(6018.34 -1443.3 0)
(5181.72 -1620.06 0)
(3312 -1754.31 0)
(1289.54 -1820.04 0)
(235.882 -1834.65 0)
(13.9896 -1835.65 0)
(0.176471 -1835.66 0)
(0.00032231 -1835.66 0)
(6.95186e-08 -1835.66 0)
(2.92505e-11 -1835.66 0)
(7.34187e-09 -1835.66 0)
(7.79038e-09 -1835.66 0)
(3.79281e-09 -1835.66 0)
(5.33334e-09 -1835.66 0)
(6.1816e-09 -1835.66 0)
(3.83181e-09 -1835.66 0)
(1.46252e-10 -1835.66 0)
(-4.67033e-09 -1835.66 0)
(-6.21085e-09 -1835.66 0)
(-7.10884e-08 -1835.66 0)
(-0.000322309 -1835.66 0)
(-0.176471 -1835.66 0)
(-13.9896 -1835.65 0)
(-235.882 -1834.65 0)
(-1289.54 -1820.04 0)
(-3311.99 -1754.32 0)
(-5181.69 -1620.08 0)
(-6018.27 -1443.32 0)
(-6010.63 -1253.67 0)
(-5529.71 -1068.98 0)
(-4756.71 -889.682 0)
(-4577.13 -739.596 0)
(31451.9 -537.21 0)
(-59148.5 -1440.8 0)
(57489.3 -4716.94 0)
(-30820.9 -1532.52 0)
(4321.31 -1879.6 0)
(4517.93 -2147.3 0)
(5264.3 -2486.81 0)
(5738.24 -2842.35 0)
(5751.12 -3209.45 0)
(4953.35 -3558.69 0)
(3163.82 -3832.96 0)
(1229.45 -3972.73 0)
(224.096 -4005.09 0)
(13.2176 -4007.39 0)
(0.1655 -4007.42 0)
(0.000299541 -4007.42 0)
(5.33236e-08 -4007.42 0)
(-4.94333e-09 -4007.42 0)
(-6.81536e-09 -4007.42 0)
(-3.66606e-09 -4007.42 0)
(-1.12127e-09 -4007.42 0)
(-3.3053e-09 -4007.42 0)
(-5.37234e-09 -4007.42 0)
(-6.44485e-09 -4007.42 0)
(-3.10055e-09 -4007.42 0)
(9.26265e-10 -4007.42 0)
(2.88605e-09 -4007.42 0)
(-5.20658e-08 -4007.42 0)
(-0.000299542 -4007.42 0)
(-0.1655 -4007.42 0)
(-13.2176 -4007.39 0)
(-224.096 -4005.09 0)
(-1229.45 -3972.73 0)
(-3163.82 -3832.97 0)
(-4953.34 -3558.7 0)
(-5751.11 -3209.49 0)
(-5738.22 -2842.42 0)
(-5264.28 -2486.95 0)
(-4517.92 -2147.48 0)
(-4321.32 -1879.79 0)
(30820.9 -1532.63 0)
(-57489.4 -4717 0)
(53126.1 -8620 0)
(-28717.8 -2556.42 0)
(3984.63 -2919.62 0)
(4171.63 -3239.26 0)
(4860.04 -3654.87 0)
(5314.36 -4110.95 0)
(5328.04 -4586.9 0)
(4580.89 -5048.8 0)
(2913.02 -5422.29 0)
(1123.67 -5619.84 0)
(202.484 -5667.29 0)
(11.7457 -5670.76 0)
(0.143902 -5670.81 0)
(0.000253749 -5670.81 0)
(5.24266e-08 -5670.81 0)
(4.03657e-09 -5670.81 0)
(1.78428e-09 -5670.81 0)
(6.53261e-10 -5670.81 0)
(4.68008e-10 -5670.81 0)
(9.45765e-10 -5670.81 0)
(1.56978e-09 -5670.81 0)
(3.45156e-09 -5670.81 0)
(3.68556e-09 -5670.81 0)
(1.53077e-09 -5670.81 0)
(-2.34004e-10 -5670.81 0)
(-4.83998e-08 -5670.81 0)
(-0.000253739 -5670.81 0)
(-0.143902 -5670.81 0)
(-11.7457 -5670.76 0)
(-202.484 -5667.29 0)
(-1123.67 -5619.84 0)
(-2913.02 -5422.29 0)
(-4580.89 -5048.8 0)
(-5328.04 -4586.91 0)
(-5314.36 -4110.97 0)
(-4860.04 -3654.9 0)
(-4171.63 -3239.3 0)
(-3984.63 -2919.66 0)
(28717.8 -2556.44 0)
(-53126.1 -8620.03 0)
(46719.3 -10663.9 0)
(-25327.8 -3028.99 0)
(3663.29 -3376.02 0)
(3809.42 -3691.96 0)
(4424.31 -4108.2 0)
(4840.1 -4578.57 0)
(4847.38 -5080.74 0)
(4148.34 -5574.34 0)
(2613.55 -5982.66 0)
(993.363 -6204.75 0)
(175.029 -6259.35 0)
(9.8298 -6263.38 0)
(0.115467 -6263.44 0)
(0.000193603 -6263.44 0)
(3.31895e-08 -6263.44 0)
(-3.3638e-09 -6263.44 0)
(-3.3053e-09 -6263.44 0)
(-9.26265e-10 -6263.44 0)
(1.65753e-10 -6263.44 0)
(-5.36259e-10 -6263.44 0)
(-2.92505e-11 -6263.44 0)
(-1.11152e-09 -6263.44 0)
(-7.80013e-11 -6263.44 0)
(1.06277e-09 -6263.44 0)
(1.36502e-10 -6263.44 0)
(-3.3053e-08 -6263.44 0)
(-0.000193609 -6263.44 0)
(-0.115467 -6263.44 0)
(-9.8298 -6263.38 0)
(-175.029 -6259.35 0)
(-993.363 -6204.75 0)
(-2613.55 -5982.66 0)
(-4148.34 -5574.34 0)
(-4847.38 -5080.74 0)
(-4840.1 -4578.57 0)
(-4424.31 -4108.2 0)
(-3809.42 -3691.96 0)
(-3663.29 -3376.02 0)
(25327.8 -3028.99 0)
(-46719.3 -10663.9 0)
(39931.1 -11020.9 0)
(-21694.9 -2959.21 0)
(3345.78 -3329.27 0)
(3466.07 -3648.08 0)
(4005.66 -4024.18 0)
(4377.2 -4481.4 0)
(4368.49 -4959.72 0)
(3711.76 -5439.94 0)
(2305.54 -5843.72 0)
(857.039 -6066.46 0)
(145.982 -6121.25 0)
(7.80759 -6125.22 0)
(0.0860605 -6125.28 0)
(0.000133705 -6125.28 0)
(2.35466e-08 -6125.28 0)
(-3.90006e-10 -6125.28 0)
(-1.85253e-10 -6125.28 0)
(8.09263e-10 -6125.28 0)
(7.31262e-10 -6125.28 0)
(2.04753e-10 -6125.28 0)
(-3.90006e-11 -6125.28 0)
(-5.55759e-10 -6125.28 0)
(6.82511e-10 -6125.28 0)
(2.03778e-09 -6125.28 0)
(1.08227e-09 -6125.28 0)
(-2.02608e-08 -6125.28 0)
(-0.000133708 -6125.28 0)
(-0.0860604 -6125.28 0)
(-7.80759 -6125.22 0)
(-145.982 -6121.25 0)
(-857.039 -6066.46 0)
(-2305.54 -5843.72 0)
(-3711.76 -5439.94 0)
(-4368.49 -4959.72 0)
(-4377.2 -4481.4 0)
(-4005.66 -4024.18 0)
(-3466.07 -3648.07 0)
(-3345.78 -3329.26 0)
(21694.9 -2959.21 0)
(-39931.1 -11020.9 0)
(33247.6 -9565.24 0)
(-17915.9 -2653.38 0)
(2999.48 -3033.61 0)
(3139.77 -3321.41 0)
(3621.29 -3655.87 0)
(3938.58 -4054.81 0)
(3923.7 -4485.67 0)
(3296.48 -4926.23 0)
(2009.81 -5308.73 0)
(725.925 -5522.59 0)
(118.397 -5574.36 0)
(5.94876 -5577.95 0)
(0.0604462 -5577.99 0)
(8.51507e-05 -5577.99 0)
(1.20609e-08 -5577.99 0)
(4.38757e-10 -5577.99 0)
(-4.58257e-10 -5577.99 0)
(-5.07008e-10 -5577.99 0)
(0 -5577.99 0)
(6.72761e-10 -5577.99 0)
(3.21755e-10 -5577.99 0)
(-3.90006e-11 -5577.99 0)
(2.43754e-10 -5577.99 0)
(4.87508e-11 -5577.99 0)
(2.34004e-10 -5577.99 0)
(-1.14369e-08 -5577.99 0)
(-8.51521e-05 -5577.99 0)
(-0.0604462 -5577.99 0)
(-5.94876 -5577.95 0)
(-118.397 -5574.36 0)
(-725.925 -5522.59 0)
(-2009.81 -5308.73 0)
(-3296.48 -4926.23 0)
(-3923.7 -4485.67 0)
(-3938.58 -4054.81 0)
(-3621.29 -3655.87 0)
(-3139.77 -3321.41 0)
(-2999.48 -3033.61 0)
(17915.9 -2653.38 0)
(-33247.6 -9565.24 0)
(28156.8 -7956.05 0)
(-15400.8 -2232.12 0)
(2702.04 -2624.65 0)
(2866.44 -2859.83 0)
(3298.93 -3144.84 0)
(3577.57 -3487.3 0)
(3528.76 -3843.6 0)
(2918.63 -4209.13 0)
(1730.86 -4535.16 0)
(601.068 -4724.73 0)
(92.6415 -4771.13 0)
(4.30468 -4774.24 0)
(0.0396127 -4774.28 0)
(4.96196e-05 -4774.28 0)
(6.56186e-09 -4774.28 0)
(5.31384e-10 -4774.28 0)
(-1.00914e-09 -4774.28 0)
(-2.43754e-11 -4774.28 0)
(2.73004e-10 -4774.28 0)
(-1.21877e-10 -4774.28 0)
(2.92505e-10 -4774.28 0)
(-9.26265e-11 -4774.28 0)
(4.97258e-10 -4774.28 0)
(1.56003e-10 -4774.28 0)
(-4.09507e-10 -4774.28 0)
(-5.06521e-09 -4774.28 0)
(-4.96214e-05 -4774.28 0)
(-0.0396127 -4774.28 0)
(-4.30468 -4774.24 0)
(-92.6415 -4771.13 0)
(-601.068 -4724.73 0)
(-1730.86 -4535.16 0)
(-2918.63 -4209.13 0)
(-3528.76 -3843.6 0)
(-3577.57 -3487.3 0)
(-3298.93 -3144.84 0)
(-2866.44 -2859.83 0)
(-2702.04 -2624.65 0)
(15400.8 -2232.12 0)
(-28156.8 -7956.05 0)
(23429.9 -6925.52 0)
(-12778.3 -2153.96 0)
(2394.59 -2417.95 0)
(2638.5 -2748.94 0)
(3016.64 -3062.91 0)
(3265.23 -3405.32 0)
(3228.11 -3719.46 0)
(2630.07 -4048.57 0)
(1512.96 -4386.02 0)
(498.539 -4600.04 0)
(70.6894 -4650.94 0)
(2.91198 -4654 0)
(0.0229852 -4654.04 0)
(2.40946e-05 -4654.04 0)
(2.87142e-09 -4654.04 0)
(3.3638e-10 -4654.04 0)
(-6.4351e-10 -4654.04 0)
(4.09507e-10 -4654.04 0)
(-2.77879e-10 -4654.04 0)
(4.04632e-10 -4654.04 0)
(5.80134e-10 -4654.04 0)
(-9.75016e-11 -4654.04 0)
(7.99513e-10 -4654.04 0)
(-3.41256e-11 -4654.04 0)
(5.26509e-10 -4654.04 0)
(-2.07191e-09 -4654.04 0)
(-2.4098e-05 -4654.04 0)
(-0.0229852 -4654.04 0)
(-2.91198 -4654 0)
(-70.6894 -4650.94 0)
(-498.539 -4600.04 0)
(-1512.96 -4386.02 0)
(-2630.07 -4048.57 0)
(-3228.11 -3719.46 0)
(-3265.23 -3405.32 0)
(-3016.64 -3062.91 0)
(-2638.5 -2748.94 0)
(-2394.59 -2417.95 0)
(12778.3 -2153.96 0)
(-23429.9 -6925.52 0)
(19407.5 47691.8 0)
(-11057.1 11936.6 0)
(2128.69 13775.5 0)
(2244.93 16757.6 0)
(2666.42 19595.1 0)
(2944.89 23756.9 0)
(2908.9 27734.6 0)
(2276.31 31181 0)
(1199.44 33028.7 0)
(345.779 33447.6 0)
(40.6448 33463.3 0)
(1.31953 33462.3 0)
(0.00793244 33462.2 0)
(6.21367e-06 33462.2 0)
(-6.2401e-10 33462.2 0)
(-1.75015e-09 33462.2 0)
(-1.12127e-10 33462.2 0)
(-3.90006e-11 33462.2 0)
(-4.38757e-11 33462.2 0)
(8.92139e-10 33462.2 0)
(5.65509e-10 33462.2 0)
(4.38757e-11 33462.2 0)
(0 33462.2 0)
(6.58136e-10 33462.2 0)
(3.99756e-10 33462.2 0)
(-2.73004e-10 33462.2 0)
(-6.21434e-06 33462.2 0)
(-0.00793244 33462.2 0)
(-1.31953 33462.3 0)
(-40.6448 33463.3 0)
(-345.779 33447.6 0)
(-1199.44 33028.7 0)
(-2276.31 31181 0)
(-2908.9 27734.6 0)
(-2944.89 23756.9 0)
(-2666.42 19595.1 0)
(-2244.93 16757.6 0)
(-2128.69 13775.5 0)
(11057.1 11936.6 0)
(-19407.5 47691.8 0)
(80889.9 -83489.3 0)
(-45461.3 -20593 0)
(7040.36 -24838 0)
(8246.53 -30108 0)
(9761.34 -35725.4 0)
(11108.7 -43004.8 0)
(10382.3 -50309.4 0)
(7731.64 -56797.5 0)
(3697.11 -60695 0)
(917.272 -61878.9 0)
(84.8133 -62005.7 0)
(1.93372 -62009.1 0)
(0.00723597 -62009.1 0)
(3.07686e-06 -62009.1 0)
(7.99513e-10 -62009.1 0)
(2.04753e-09 -62009.1 0)
(1.67703e-09 -62009.1 0)
(5.85009e-10 -62009.1 0)
(1.89153e-09 -62009.1 0)
(1.81353e-09 -62009.1 0)
(2.92505e-09 -62009.1 0)
(-1.15052e-09 -62009.1 0)
(2.34004e-10 -62009.1 0)
(1.73553e-09 -62009.1 0)
(-3.74406e-09 -62009.1 0)
(5.85009e-10 -62009.1 0)
(-3.08686e-06 -62009.1 0)
(-0.00723594 -62009.1 0)
(-1.93372 -62009.1 0)
(-84.8133 -62005.7 0)
(-917.272 -61878.9 0)
(-3697.11 -60695 0)
(-7731.64 -56797.5 0)
(-10382.3 -50309.4 0)
(-11108.7 -43004.8 0)
(-9761.34 -35725.4 0)
(-8246.53 -30108 0)
(-7040.36 -24838 0)
(45461.3 -20593 0)
(-80889.9 -83489.3 0)
(80889.9 83489.3 0)
(-45461.3 20593 0)
(7040.36 24838 0)
(8246.53 30108 0)
(9761.34 35725.4 0)
(11108.7 43004.8 0)
(10382.3 50309.4 0)
(7731.64 56797.5 0)
(3697.11 60695 0)
(917.272 61878.9 0)
(84.8133 62005.7 0)
(1.93372 62009.1 0)
(0.00723596 62009.1 0)
(3.086e-06 62009.1 0)
(3.31505e-10 62009.1 0)
(6.2401e-10 62009.1 0)
(-5.44059e-09 62009.1 0)
(-3.86106e-09 62009.1 0)
(-5.14808e-09 62009.1 0)
(-2.80805e-09 62009.1 0)
(-5.46009e-10 62009.1 0)
(-6.63011e-10 62009.1 0)
(9.55515e-10 62009.1 0)
(-3.12005e-10 62009.1 0)
(9.75016e-10 62009.1 0)
(2.12553e-09 62009.1 0)
(-3.07524e-06 62009.1 0)
(-0.00723596 62009.1 0)
(-1.93372 62009.1 0)
(-84.8133 62005.7 0)
(-917.272 61878.9 0)
(-3697.11 60695 0)
(-7731.64 56797.5 0)
(-10382.3 50309.4 0)
(-11108.7 43004.8 0)
(-9761.34 35725.4 0)
(-8246.53 30108 0)
(-7040.36 24838 0)
(45461.3 20593 0)
(-80889.9 83489.3 0)
(19407.5 -47691.8 0)
(-11057.1 -11936.6 0)
(2128.69 -13775.5 0)
(2244.93 -16757.6 0)
(2666.42 -19595.1 0)
(2944.89 -23756.9 0)
(2908.9 -27734.6 0)
(2276.31 -31181 0)
(1199.44 -33028.7 0)
(345.779 -33447.6 0)
(40.6448 -33463.3 0)
(1.31953 -33462.3 0)
(0.00793244 -33462.2 0)
(6.21575e-06 -33462.2 0)
(-1.50152e-09 -33462.2 0)
(-1.57465e-09 -33462.2 0)
(3.60756e-10 -33462.2 0)
(7.60512e-10 -33462.2 0)
(2.92505e-11 -33462.2 0)
(3.90006e-10 -33462.2 0)
(-3.51006e-10 -33462.2 0)
(-9.4089e-10 -33462.2 0)
(-2.48629e-10 -33462.2 0)
(2.82755e-10 -33462.2 0)
(8.53139e-10 -33462.2 0)
(-4.87508e-12 -33462.2 0)
(-6.21416e-06 -33462.2 0)
(-0.00793244 -33462.2 0)
(-1.31953 -33462.3 0)
(-40.6448 -33463.3 0)
(-345.779 -33447.6 0)
(-1199.44 -33028.7 0)
(-2276.31 -31181 0)
(-2908.9 -27734.6 0)
(-2944.89 -23756.9 0)
(-2666.42 -19595.1 0)
(-2244.93 -16757.6 0)
(-2128.69 -13775.5 0)
(11057.1 -11936.6 0)
(-19407.5 -47691.8 0)
(23429.9 6925.52 0)
(-12778.3 2153.96 0)
(2394.59 2417.95 0)
(2638.5 2748.94 0)
(3016.64 3062.91 0)
(3265.23 3405.32 0)
(3228.11 3719.46 0)
(2630.07 4048.57 0)
(1512.96 4386.02 0)
(498.539 4600.04 0)
(70.6894 4650.94 0)
(2.91198 4654 0)
(0.0229852 4654.04 0)
(2.40983e-05 4654.04 0)
(1.51615e-09 4654.04 0)
(-7.31262e-11 4654.04 0)
(-7.26387e-10 4654.04 0)
(7.11762e-10 4654.04 0)
(-5.65509e-10 4654.04 0)
(-2.92505e-11 4654.04 0)
(-1.70628e-10 4654.04 0)
(-6.53261e-10 4654.04 0)
(8.33638e-10 4654.04 0)
(-1.02377e-10 4654.04 0)
(5.36259e-11 4654.04 0)
(-1.5844e-09 4654.04 0)
(-2.40976e-05 4654.04 0)
(-0.0229852 4654.04 0)
(-2.91198 4654 0)
(-70.6894 4650.94 0)
(-498.539 4600.04 0)
(-1512.96 4386.02 0)
(-2630.07 4048.57 0)
(-3228.11 3719.46 0)
(-3265.23 3405.32 0)
(-3016.64 3062.91 0)
(-2638.5 2748.94 0)
(-2394.59 2417.95 0)
(12778.3 2153.96 0)
(-23429.9 6925.52 0)
(28156.8 7956.05 0)
(-15400.8 2232.12 0)
(2702.04 2624.65 0)
(2866.44 2859.83 0)
(3298.93 3144.84 0)
(3577.57 3487.3 0)
(3528.76 3843.6 0)
(2918.63 4209.13 0)
(1730.86 4535.16 0)
(601.068 4724.73 0)
(92.6415 4771.13 0)
(4.30468 4774.24 0)
(0.0396127 4774.28 0)
(4.96241e-05 4774.28 0)
(4.98233e-09 4774.28 0)
(5.85009e-11 4774.28 0)
(-1.09202e-09 4774.28 0)
(2.8763e-10 4774.28 0)
(-4.53382e-10 4774.28 0)
(-5.36259e-11 4774.28 0)
(-3.21755e-10 4774.28 0)
(-8.53139e-10 4774.28 0)
(8.33638e-10 4774.28 0)
(4.48507e-10 4774.28 0)
(8.14138e-10 4774.28 0)
(-5.69409e-09 4774.28 0)
(-4.96227e-05 4774.28 0)
(-0.0396127 4774.28 0)
(-4.30468 4774.24 0)
(-92.6415 4771.13 0)
(-601.068 4724.73 0)
(-1730.86 4535.16 0)
(-2918.63 4209.13 0)
(-3528.76 3843.6 0)
(-3577.57 3487.3 0)
(-3298.93 3144.84 0)
(-2866.44 2859.83 0)
(-2702.04 2624.65 0)
(15400.8 2232.12 0)
(-28156.8 7956.05 0)
(33247.6 9565.24 0)
(-17915.9 2653.38 0)
(2999.48 3033.61 0)
(3139.77 3321.41 0)
(3621.29 3655.87 0)
(3938.58 4054.81 0)
(3923.7 4485.67 0)
(3296.48 4926.23 0)
(2009.81 5308.73 0)
(725.925 5522.59 0)
(118.397 5574.36 0)
(5.94876 5577.95 0)
(0.0604462 5577.99 0)
(8.51549e-05 5577.99 0)
(1.14759e-08 5577.99 0)
(2.73004e-10 5577.99 0)
(-1.44302e-09 5577.99 0)
(-1.11152e-09 5577.99 0)
(-5.46009e-10 5577.99 0)
(9.75016e-11 5577.99 0)
(1.17002e-10 5577.99 0)
(5.75259e-10 5577.99 0)
(-1.07252e-10 5577.99 0)
(7.80013e-11 5577.99 0)
(7.31262e-10 5577.99 0)
(-1.13394e-08 5577.99 0)
(-8.51516e-05 5577.99 0)
(-0.0604462 5577.99 0)
(-5.94876 5577.95 0)
(-118.397 5574.36 0)
(-725.925 5522.59 0)
(-2009.81 5308.73 0)
(-3296.48 4926.23 0)
(-3923.7 4485.67 0)
(-3938.58 4054.81 0)
(-3621.29 3655.87 0)
(-3139.77 3321.41 0)
(-2999.48 3033.61 0)
(17915.9 2653.38 0)
(-33247.6 9565.24 0)
(39931.1 11020.9 0)