/*--------------------------------*- C++ -*----------------------------------*\
| =========                 |                                                 |
| \\      /  F ield         | OpenFOAM: The Open Source CFD Toolbox           |
|  \\    /   O peration     | Version:  v1912                                 |
|   \\  /    A nd           | Website:  www.openfoam.com                      |
|    \\/     M anipulation  |                                                 |
\*---------------------------------------------------------------------------*/
FoamFile
{
    version     2.0;
    format      ascii;
    class       volVectorField;
    location    "0.72";
    object      U;
}
// * * * * * * * * * * * * * * * * * * * * * * * * * * * * * * * * * * * * * //

dimensions      [0 1 -1 0 0 0 0];


internalField   nonuniform List<vector> 
1900
(
(0 0 0)
(3.70135e-18 1.01633e-16 0)
(7.83034e-13 1.30746e-14 0)
(4.5035e-10 7.12245e-12 0)
(2.4796e-08 4.0375e-10 0)
(2.0535e-07 3.71373e-09 0)
(4.27893e-07 9.78612e-09 0)
(3.10606e-07 1.03653e-08 0)
(-3.42917e-05 -1.67764e-06 0)
(-0.000793124 -6.25212e-05 0)
(0 0 0)
(7.2912e-17 -2.53764e-17 0)
(1.0579e-12 5.15724e-14 0)
(5.51747e-10 2.87869e-11 0)
(2.78347e-08 1.31108e-09 0)
(2.1388e-07 8.36708e-09 0)
(4.24714e-07 1.31914e-08 0)
(2.32262e-07 -1.83331e-08 0)
(-4.79216e-05 -5.61915e-06 0)
(-0.00118177 -0.000168995 0)
(0 0 0)
(1.02411e-16 0 0)
(1.32452e-12 4.28862e-16 0)
(6.44835e-10 -1.94003e-16 0)
(3.02577e-08 -8.56277e-15 0)
(2.18429e-07 2.78786e-15 0)
(4.19925e-07 1.44896e-14 0)
(1.42929e-07 -1.15661e-14 0)
(-5.92926e-05 -1.90669e-14 0)
(-0.00142003 -5.25608e-15 0)
(-2.72797e-17 0 0)
(1.91746e-16 -8.24734e-18 0)
(1.05721e-12 -5.70093e-14 0)
(5.51745e-10 -2.87885e-11 0)
(2.78347e-08 -1.31113e-09 0)
(2.1388e-07 -8.36707e-09 0)
(4.24714e-07 -1.31914e-08 0)
(2.32262e-07 1.83331e-08 0)
(-4.79216e-05 5.61915e-06 0)
(-0.00118177 0.000168995 0)
(0 0 0)
(9.75724e-17 -1.35003e-16 0)
(7.71538e-13 -1.74979e-14 0)
(4.50357e-10 -7.1232e-12 0)
(2.4796e-08 -4.03773e-10 0)
(2.0535e-07 -3.71373e-09 0)
(4.27893e-07 -9.78613e-09 0)
(3.10606e-07 -1.03653e-08 0)
(-3.42917e-05 1.67764e-06 0)
(-0.000793124 6.25212e-05 0)
(-0.00456864 -0.000524163 0)
(-0.0152698 -0.0023625 0)
(-0.0327258 -0.00763586 0)
(-0.053074 -0.0212354 0)
(-0.0972701 -0.0303748 0)
(-0.00670108 -0.00116061 0)
(-0.0202157 -0.00362512 0)
(-0.039926 -0.0079579 0)
(-0.0655238 -0.0160582 0)
(-0.105346 -0.0208789 0)
(-0.00774173 -1.5897e-14 0)
(-0.0218082 -1.68178e-14 0)
(-0.0419363 1.41185e-14 0)
(-0.0689359 -1.60781e-14 0)
(-0.108693 9.29136e-15 0)
(-0.00670108 0.00116061 0)
(-0.0202157 0.00362512 0)
(-0.039926 0.0079579 0)
(-0.0655238 0.0160582 0)
(-0.105346 0.0208789 0)
(-0.00456864 0.000524163 0)
(-0.0152698 0.0023625 0)
(-0.0327258 0.00763586 0)
(-0.053074 0.0212354 0)
(-0.0972701 0.0303748 0)
(-0.129201 0.00409213 0)
(-0.111414 0.00824715 0)
(-0.103389 0.0105004 0)
(-0.111561 0.0257708 0)
(-0.171227 0.0590668 0)
(-0.132149 0.00403917 0)
(-0.116569 0.00555227 0)
(-0.10346 0.00612608 0)
(-0.0904105 0.0224661 0)
(-0.0529524 0.0724948 0)
(-0.133775 4.57625e-15 0)
(-0.117945 5.46139e-15 0)
(-0.102671 -7.74561e-15 0)
(-0.075485 1.16728e-14 0)
(0.0107564 8.74052e-15 0)
(-0.132149 -0.00403917 0)
(-0.116569 -0.00555227 0)
(-0.10346 -0.00612608 0)
(-0.0904105 -0.0224661 0)
(-0.0529524 -0.0724948 0)
(-0.129201 -0.00409213 0)
(-0.111414 -0.00824715 0)
(-0.103389 -0.0105004 0)
(-0.111561 -0.0257708 0)
(-0.171227 -0.0590668 0)
(-0.341588 0.0350372 0)
(-0.149546 -0.125221 0)
(-0.189224 -0.0920242 0)
(-0.179969 -0.0340377 0)
(-0.132475 -0.00780517 0)
(-0.0736982 -0.000823056 0)
(-0.026798 1.53863e-05 0)
(-0.00466569 1.33142e-05 0)
(-0.00025498 1.41048e-06 0)
(-2.80076e-06 3.32257e-08 0)
(-4.18321e-09 7.10085e-11 0)
(-6.06472e-13 9.04301e-15 0)
(3.80842e-18 5.95193e-17 0)
(-6.77534e-17 -1.10734e-16 0)
(-1.45859e-18 4.77538e-17 0)
(1.57142e-16 -1.10734e-16 0)
(-1.76396e-17 -4.24479e-17 0)
(-5.75662e-17 -9.13552e-17 0)
(-1.23622e-16 1.99551e-16 0)
(3.48741e-17 -4.89073e-17 0)
(4.66718e-17 6.52866e-17 0)
(5.91022e-17 -1.38186e-16 0)
(1.80558e-17 1.25959e-16 0)
(-1.86081e-16 4.93226e-16 0)
(-5.96307e-17 7.38224e-18 0)
(1.83362e-16 5.76737e-18 0)
(1.13996e-16 8.53571e-18 0)
(1.69813e-19 -9.91988e-18 0)
(7.40091e-13 5.27853e-15 0)
(5.06091e-09 -1.51105e-16 0)
(3.38341e-06 1.5087e-14 0)
(0.000308646 -4.53929e-14 0)
(0.00567799 4.64139e-14 0)
(0.0330142 -9.72462e-14 0)
(0.0936074 1.03236e-13 0)
(0.178348 -3.67758e-14 0)
(0.273335 4.36354e-14 0)
(0.366812 1.38437e-14 0)
(0.462762 2.46571e-14 0)
(1.10882 7.62931e-15 0)
(0.0457613 0.0520509 0)
(0.02438 -0.0912304 0)
(-0.121886 -0.0605319 0)
(-0.167127 -0.0189411 0)
(-0.133251 -0.00385352 0)
(-0.0742881 -8.83618e-05 0)
(-0.0268828 6.72675e-05 0)
(-0.00467446 1.16133e-05 0)
(-0.000256188 1.04187e-06 0)
(-2.83349e-06 2.08752e-08 0)
(-4.28163e-09 4.79276e-11 0)
(-6.28776e-13 5.10689e-15 0)
(-3.85595e-17 1.85479e-16 0)
(-1.15387e-16 0 0)
(-2.1014e-18 -2.30695e-19 0)
(1.3972e-16 1.56873e-17 0)
(1.92859e-17 0 0)
(-4.98184e-17 4.26785e-17 0)
(-1.77335e-16 4.10637e-16 0)
(2.28519e-17 1.81095e-16 0)
(6.2083e-17 1.09349e-16 0)
(1.28695e-16 2.98058e-16 0)
(5.26499e-17 3.39121e-16 0)
(-2.83909e-16 7.08003e-16 0)
(-1.65459e-16 3.61268e-16 0)
(1.39064e-16 -9.87374e-17 0)
(1.42107e-16 -3.26203e-16 0)
(8.17349e-17 4.22172e-17 0)
(7.45543e-13 2.08915e-14 0)
(5.06091e-09 -8.29786e-15 0)
(3.38341e-06 8.19892e-15 0)
(0.000308646 -5.67064e-14 0)
(0.00567799 1.33741e-14 0)
(0.0330142 -7.47625e-14 0)
(0.0936074 9.93254e-14 0)
(0.178348 -4.1537e-14 0)
(0.273335 2.77207e-14 0)
(0.366812 4.74429e-16 0)
(0.462762 -1.0582e-14 0)
(1.10882 -1.52471e-14 0)
(0.158444 2.87174e-14 0)
(0.0922569 1.0493e-14 0)
(-0.0945706 -2.14896e-14 0)
(-0.164891 -2.36457e-14 0)
(-0.133482 2.45344e-14 0)
(-0.0745499 6.39649e-14 0)
(-0.0269353 1.20967e-14 0)
(-0.00468129 -4.95567e-14 0)
(-0.00025672 2.27138e-14 0)
(-2.84635e-06 2.43208e-14 0)
(-4.32147e-09 -1.06307e-14 0)
(-6.37942e-13 -1.22038e-16 0)
(-5.10748e-17 9.297e-17 0)
(-1.75193e-16 2.55149e-16 0)
(-9.16912e-18 -7.31303e-17 0)
(1.76772e-16 0 0)
(1.01121e-17 0 0)
(-3.18231e-18 4.0833e-17 0)
(-9.18773e-17 3.92643e-16 0)
(-5.78149e-17 2.90214e-16 0)
(6.48763e-17 2.33925e-16 0)
(1.44128e-16 5.5113e-16 0)
(3.03011e-17 5.30598e-16 0)
(-2.13281e-16 4.83767e-16 0)
(-2.41577e-16 5.9081e-16 0)
(-3.54268e-17 2.39231e-16 0)
(2.58299e-16 -1.33342e-16 0)
(1.6051e-16 1.83864e-16 0)
(7.53453e-13 9.73694e-15 0)
(5.06089e-09 -2.09879e-14 0)
(3.38341e-06 6.27677e-15 0)
(0.000308646 -4.86033e-14 0)
(0.00567799 -1.20584e-14 0)
(0.0330142 -5.26178e-14 0)
(0.0936074 6.44876e-14 0)
(0.178348 -3.03265e-14 0)
(0.273335 1.7398e-14 0)
(0.366812 -1.05063e-14 0)
(0.462762 -9.88803e-15 0)
(1.10882 -3.34858e-14 0)
(0.0457613 -0.0520509 0)
(0.02438 0.0912304 0)
(-0.121886 0.0605319 0)
(-0.167127 0.0189411 0)
(-0.133251 0.00385352 0)
(-0.0742881 8.83618e-05 0)
(-0.0268828 -6.72675e-05 0)
(-0.00467446 -1.16133e-05 0)
(-0.000256188 -1.04187e-06 0)
(-2.83349e-06 -2.08752e-08 0)
(-4.28163e-09 -4.79509e-11 0)
(-6.28568e-13 -4.66603e-15 0)
(-4.21155e-18 1.04043e-16 0)
(-5.0169e-17 4.2148e-16 0)
(-4.57143e-17 7.35917e-17 0)
(9.40212e-17 0 0)
(-2.30062e-18 0 0)
(-1.81686e-17 0 0)
(1.22912e-18 1.34264e-16 0)
(-4.39396e-17 1.04505e-16 0)
(5.47105e-17 8.62799e-17 0)
(1.78062e-16 1.53181e-16 0)
(9.23476e-18 2.39923e-17 0)
(-2.59407e-16 1.17654e-16 0)
(-1.8504e-16 3.78109e-16 0)
(6.43894e-18 4.547e-16 0)
(1.89737e-16 3.57577e-17 0)
(3.59761e-16 -3.76033e-17 0)
(7.54142e-13 -5.26907e-15 0)
(5.06088e-09 -1.10902e-14 0)
(3.38341e-06 -5.31546e-15 0)
(0.000308646 -6.32583e-14 0)
(0.00567799 -3.62088e-14 0)
(0.0330142 -2.21626e-14 0)
(0.0936074 4.15626e-14 0)
(0.178348 -1.48959e-14 0)
(0.273335 1.09176e-14 0)
(0.366812 -1.60396e-14 0)
(0.462762 -9.54971e-15 0)
(1.10882 -1.07038e-14 0)
(-0.341588 -0.0350372 0)
(-0.149546 0.125221 0)
(-0.189224 0.0920242 0)
(-0.179969 0.0340377 0)
(-0.132475 0.00780517 0)
(-0.0736982 0.000823056 0)
(-0.026798 -1.53863e-05 0)
(-0.00466569 -1.33142e-05 0)
(-0.00025498 -1.41048e-06 0)
(-2.80076e-06 -3.32257e-08 0)
(-4.18321e-09 -7.10024e-11 0)
(-6.06616e-13 -7.41153e-15 0)
(1.05491e-17 1.19961e-17 0)
(1.02056e-17 1.43492e-16 0)
(-3.84075e-17 1.66562e-16 0)
(2.81464e-17 0 0)
(-5.76083e-17 0 0)
(5.98757e-18 0 0)
(1.49976e-18 -7.61293e-17 0)
(-1.50651e-19 -7.82056e-17 0)
(3.45467e-19 0 0)
(4.76713e-17 -4.59083e-17 0)
(-1.1695e-19 -3.97718e-16 0)
(-1.13203e-16 -1.31496e-16 0)
(-8.64585e-17 1.07735e-16 0)
(-1.82353e-17 3.02441e-16 0)
(1.12163e-16 0 0)
(1.94931e-16 -3.94027e-16 0)
(7.50298e-13 -5.76922e-15 0)
(5.06089e-09 7.58017e-15 0)
(3.38341e-06 -1.61932e-14 0)
(0.000308646 -5.73809e-14 0)
(0.00567799 -6.31086e-14 0)
(0.0330142 2.08813e-14 0)
(0.0936074 3.23239e-14 0)
(0.178348 -8.3257e-15 0)
(0.273335 -1.94739e-14 0)
(0.366812 -1.85278e-14 0)
(0.462762 -2.65058e-14 0)
(1.10882 -1.59181e-14 0)
(-0.951776 -0.0669457 0)
(-0.348964 0.140077 0)
(-0.2655 0.0998233 0)
(-0.202301 0.0468743 0)
(-0.13808 0.0153628 0)
(-0.0750784 0.00418757 0)
(-0.0270832 0.000764083 0)
(-0.00468691 5.60437e-05 0)
(-0.000253495 9.05178e-07 0)
(-2.74696e-06 3.26538e-10 0)
(-4.0493e-09 -6.5729e-12 0)
(-5.82566e-13 8.4652e-16 0)
(-7.94588e-17 1.04117e-16 0)
(-1.39894e-17 -2.17288e-17 0)
(8.3578e-18 7.41706e-17 0)
(-3.39732e-17 7.04795e-17 0)
(-1.57502e-17 0 0)
(-1.35767e-17 -5.5715e-19 0)
(-4.37087e-18 -6.4699e-17 0)
(-8.34762e-19 9.05369e-18 0)
(3.47178e-18 0 0)
(2.23775e-20 -6.5883e-17 0)
(-2.45847e-19 -2.06424e-16 0)
(-4.49911e-17 -1.95769e-16 0)
(2.5724e-17 -4.35273e-17 0)
(-1.96308e-17 8.27368e-17 0)
(3.9773e-18 -7.89063e-17 0)
(7.59015e-17 -2.00226e-16 0)
(7.50277e-13 -2.83339e-15 0)
(5.06091e-09 2.76344e-14 0)
(3.38341e-06 3.04476e-15 0)
(0.000308646 -4.65984e-14 0)
(0.00567799 -8.17951e-14 0)
(0.0330142 9.06078e-14 0)
(0.0936074 -4.15292e-16 0)
(0.178348 1.4411e-14 0)
(0.273335 -2.63042e-14 0)
(0.366812 -1.80725e-14 0)
(0.462762 -4.01903e-17 0)
(1.10882 -5.07064e-15 0)
(-1.10685 0.022177 0)
(-0.43885 0.0919251 0)
(-0.325477 0.0714479 0)
(-0.234329 0.0412838 0)
(-0.153638 0.0174 0)
(-0.0814892 0.00628569 0)
(-0.0288902 0.00154295 0)
(-0.00494563 0.000192894 0)
(-0.000265489 7.78921e-06 0)
(-2.86283e-06 6.47341e-08 0)
(-4.20343e-09 7.49819e-11 0)
(-6.03251e-13 7.27728e-15 0)
(-1.31774e-16 1.17698e-17 0)
(-3.29121e-18 3.80951e-17 0)
(9.79587e-18 1.03073e-16 0)
(-6.09176e-17 2.31635e-16 0)
(-3.71381e-17 8.57314e-17 0)
(-7.87475e-17 0 0)
(-1.96238e-17 4.3388e-17 0)
(-2.1727e-18 1.75433e-16 0)
(9.52519e-18 4.63827e-17 0)
(8.93328e-20 0 0)
(1.43437e-18 -5.74561e-17 0)
(-6.60413e-17 -5.83614e-17 0)
(2.97912e-17 -4.61738e-17 0)
(-5.31127e-17 0 0)
(5.66899e-17 -4.25523e-17 0)
(5.64193e-17 -1.4472e-16 0)
(7.42795e-13 -4.04616e-15 0)
(5.06094e-09 -1.25421e-15 0)
(3.38341e-06 5.16668e-15 0)
(0.000308646 -6.78336e-14 0)
(0.00567799 -7.53882e-14 0)
(0.0330142 1.18589e-13 0)
(0.0936074 -7.31471e-14 0)
(0.178348 5.39615e-14 0)
(0.273335 -5.69867e-15 0)
(0.366812 -1.39298e-14 0)
(0.462762 1.19681e-14 0)
(1.10882 1.87512e-14 0)
(-1.11374 0.0189129 0)
(-0.456077 0.0454753 0)
(-0.35117 0.0409356 0)
(-0.256731 0.0261476 0)
(-0.167132 0.0122442 0)
(-0.0879105 0.00476932 0)
(-0.0310212 0.00126532 0)
(-0.00531962 0.000173087 0)
(-0.000287468 7.8827e-06 0)
(-3.12709e-06 7.47817e-08 0)
(-4.6364e-09 9.85763e-11 0)
(-6.69736e-13 1.08783e-14 0)
(4.26146e-17 3.93487e-17 0)
(1.16355e-16 1.53495e-16 0)
(-9.45151e-17 5.77347e-17 0)
(-8.53595e-17 6.11472e-17 0)
(-4.58219e-17 1.27169e-16 0)
(-1.4137e-16 5.11185e-17 0)
(-5.79689e-17 0 0)
(-2.63299e-18 4.83328e-17 0)
(2.52226e-17 0 0)
(1.23909e-18 1.02376e-17 0)
(3.68463e-18 1.14634e-16 0)
(-3.78922e-17 1.90127e-17 0)
(-1.96391e-18 4.61738e-17 0)
(-8.84215e-18 -1.70627e-17 0)
(1.40044e-17 7.03402e-17 0)
(-6.59318e-17 -2.53503e-17 0)
(7.41179e-13 -1.73072e-15 0)
(5.06092e-09 -1.17836e-14 0)
(3.38341e-06 -9.35047e-15 0)
(0.000308646 -5.1065e-14 0)
(0.00567799 -2.1895e-14 0)
(0.0330142 8.51318e-14 0)
(0.0936074 -7.78091e-14 0)
(0.178348 8.04566e-14 0)
(0.273335 1.95153e-14 0)
(0.366812 2.12141e-15 0)
(0.462762 2.09949e-14 0)
(1.10882 5.29047e-14 0)
(-1.11147 0.0130423 0)
(-0.460859 0.0193202 0)
(-0.362117 0.0179863 0)
(-0.268202 0.0117375 0)
(-0.174776 0.00559186 0)
(-0.091806 0.00217729 0)
(-0.0324027 0.000568796 0)
(-0.00557461 7.56458e-05 0)
(-0.000303014 3.32915e-06 0)
(-3.32073e-06 3.05285e-08 0)
(-4.96458e-09 3.91095e-11 0)
(-7.25754e-13 1.10954e-14 0)
(1.17888e-16 -6.92955e-17 0)
(2.67684e-17 4.78452e-17 0)
(-8.54727e-17 0 0)
(-7.01555e-17 -8.9144e-17 0)
(8.43018e-18 -1.49734e-16 0)
(-3.91581e-17 -5.11185e-17 0)
(-1.82972e-17 0 0)
(1.94617e-17 0 0)
(7.00714e-17 0 0)
(2.34458e-18 0 0)
(9.74844e-18 4.48506e-17 0)
(-6.33758e-17 0 0)
(-6.10275e-18 8.07867e-18 0)
(-1.74514e-17 1.05162e-16 0)
(6.34807e-17 9.4019e-18 0)
(5.4425e-18 0 0)
(7.37849e-13 -1.02613e-15 0)
(5.06092e-09 1.30867e-14 0)
(3.38341e-06 -7.98858e-15 0)
(0.000308646 2.56615e-14 0)
(0.00567799 -6.38555e-15 0)
(0.0330142 6.26203e-14 0)
(0.0936074 -4.70015e-14 0)
(0.178348 7.57931e-14 0)
(0.273335 2.565e-14 0)
(0.366812 -1.88864e-14 0)
(0.462762 2.51628e-14 0)
(1.10882 2.86368e-14 0)
(-1.10924 0.00622374 0)
(-0.46232 0.00539166 0)
(-0.365854 0.00471236 0)
(-0.272356 0.00306495 0)
(-0.177666 0.00140789 0)
(-0.09328 0.000516479 0)
(-0.032913 0.000122575 0)
(-0.00566339 1.4374e-05 0)
(-0.000308012 5.45045e-07 0)
(-3.37812e-06 4.24979e-09 0)
(-5.05508e-09 4.61587e-12 0)
(-7.48598e-13 1.33612e-15 0)
(1.80084e-16 -1.66449e-17 0)
(5.94606e-17 0 0)
(-1.4977e-16 -5.11185e-17 0)
(-5.41887e-17 -1.47018e-16 0)
(1.44426e-17 -3.36379e-17 0)
(3.4346e-17 0 0)
(-3.74036e-17 0 0)
(4.41089e-17 0 0)
(9.84669e-17 0 0)
(2.84546e-18 0 0)
(1.3869e-17 -9.38101e-17 0)
(-8.17774e-17 1.81074e-18 0)
(-1.09004e-17 3.92791e-17 0)
(-4.2947e-17 1.43188e-16 0)
(4.19778e-17 4.5547e-17 0)
(6.62412e-18 0 0)
(7.38117e-13 5.58403e-16 0)
(5.06096e-09 3.05368e-14 0)
(3.38341e-06 6.88062e-15 0)
(0.000308646 7.38274e-14 0)
(0.00567799 -9.34851e-14 0)
(0.0330142 5.56799e-14 0)
(0.0936074 -3.47001e-14 0)
(0.178348 5.29884e-14 0)
(0.273335 2.27377e-14 0)
(0.366812 -5.06817e-14 0)
(0.462762 2.76849e-14 0)
(1.10882 2.77433e-14 0)
(-1.10886 0.00120067 0)
(-0.462705 0.000678148 0)
(-0.366717 0.000512029 0)
(-0.273255 0.000334334 0)
(-0.178292 0.000144274 0)
(-0.0935824 4.80019e-05 0)
(-0.0330075 9.76972e-06 0)
(-0.00567727 9.21488e-07 0)
(-0.000308629 2.58575e-08 0)
(-3.38341e-06 1.31973e-10 0)
(-5.06113e-09 8.17372e-14 0)
(-7.4358e-13 -5.16798e-15 0)
(3.44931e-17 5.4531e-17 0)
(6.80887e-17 -3.12004e-17 0)
(-3.41257e-17 6.45597e-17 0)
(-1.87275e-17 2.62557e-17 0)
(-5.19977e-17 0 0)
(4.35523e-17 0 0)
(-5.194e-17 0 0)
(4.98676e-17 -6.18436e-17 0)
(-4.58288e-17 0 0)
(-4.33807e-17 -6.38633e-17 0)
(5.79338e-17 -7.8001e-17 0)
(-1.51683e-18 -9.05369e-17 0)
(4.79999e-17 -5.30685e-17 0)
(-4.77607e-17 -1.33716e-16 0)
(3.56246e-17 -4.62434e-17 0)
(1.38834e-17 4.61042e-17 0)
(7.38964e-13 -2.0141e-16 0)
(5.06098e-09 -3.64355e-15 0)
(3.38341e-06 2.2634e-14 0)
(0.000308646 1.02559e-13 0)
(0.00567799 -9.78385e-14 0)
(0.0330142 8.45413e-14 0)
(0.0936074 -3.46853e-15 0)
(0.178348 2.16944e-14 0)
(0.273335 1.67831e-14 0)
(0.366812 -2.88092e-14 0)
(0.462762 3.68673e-14 0)
(1.10882 6.8296e-14 0)
(-1.10882 6.69977e-05 0)
(-0.462759 2.54351e-05 0)
(-0.366809 1.52054e-05 0)
(-0.273333 1.01196e-05 0)
(-0.178347 4.06491e-06 0)
(-0.0936069 1.20089e-06 0)
(-0.033014 2.01224e-07 0)
(-0.00567798 1.38322e-08 0)
(-0.000308646 2.15395e-10 0)
(-3.38341e-06 4.46195e-13 0)
(-5.06093e-09 6.71575e-16 0)
(-7.38938e-13 -2.45299e-15 0)
(-4.7559e-17 -5.69686e-17 0)
(8.3477e-18 -1.63593e-16 0)
(1.00473e-16 -1.1143e-17 0)
(-2.78014e-17 1.8957e-16 0)
(-1.74891e-16 9.38101e-17 0)
(-4.8722e-17 -3.2245e-17 0)
(6.32425e-17 0 0)
(8.21241e-18 6.18436e-17 0)
(-1.81894e-18 0 0)
(-5.43422e-17 6.38633e-17 0)
(-4.72463e-17 4.93078e-17 0)
(-2.58682e-18 0 0)
(-1.9017e-18 5.04221e-17 0)
(1.33335e-17 -4.53381e-17 0)
(-2.67182e-17 0 0)
(1.05685e-16 -4.61738e-17 0)
(7.3812e-13 3.74335e-16 0)
(5.06096e-09 -1.49952e-14 0)
(3.38341e-06 1.60596e-14 0)
(0.000308646 4.55907e-14 0)
(0.00567799 -2.71857e-14 0)
(0.0330142 7.85307e-14 0)
(0.0936074 -2.59785e-14 0)
(0.178348 -3.8448e-15 0)
(0.273335 -1.32777e-15 0)
(0.366812 8.95981e-16 0)
(0.462762 4.41259e-14 0)
(1.10882 6.93729e-14 0)
(-1.10882 7.06219e-07 0)
(-0.462762 1.90478e-07 0)
(-0.366812 8.19915e-08 0)
(-0.273335 5.61857e-08 0)
(-0.178348 2.07748e-08 0)
(-0.0936074 5.29601e-09 0)
(-0.0330142 7.02004e-10 0)
(-0.00567799 3.19053e-11 0)
(-0.000308646 -8.09505e-13 0)
(-3.38341e-06 -2.2208e-13 0)
(-5.06097e-09 3.67116e-14 0)
(-7.37174e-13 2.2669e-16 0)
(4.18228e-18 2.66735e-16 0)
(3.04065e-17 2.30242e-16 0)
(1.12598e-16 2.79968e-16 0)
(1.61458e-17 3.66883e-16 0)
(-7.54192e-17 2.66944e-16 0)
(2.43361e-17 1.67284e-16 0)
(1.27486e-16 3.07686e-16 0)
(2.54598e-17 3.82971e-16 0)
(3.49171e-18 3.6751e-16 0)
(-5.26711e-17 3.75101e-16 0)
(-1.59605e-16 2.59284e-16 0)
(-3.71162e-17 2.77182e-16 0)
(-3.01337e-18 2.82336e-16 0)
(3.33031e-17 3.69042e-16 0)
(-6.31064e-17 3.73012e-16 0)
(2.67218e-17 1.9946e-16 0)
(7.51307e-13 1.30871e-14 0)
(5.06094e-09 -1.44685e-15 0)
(3.38341e-06 4.91276e-14 0)
(0.000308646 -4.68775e-14 0)
(0.00567799 -6.55631e-15 0)
(0.0330142 3.96555e-14 0)
(0.0936074 -2.14453e-14 0)
(0.178348 9.88633e-16 0)
(0.273335 -2.60848e-14 0)
(0.366812 -1.5795e-15 0)
(0.462762 6.49012e-15 0)
(1.10882 1.90652e-14 0)
(-1.10882 1.02412e-09 0)
(-0.462762 5.14577e-10 0)
(-0.366812 8.93068e-10 0)
(-0.273335 1.32085e-09 0)
(-0.178348 1.29542e-09 0)
(-0.0936074 6.59814e-10 0)
(-0.0330142 1.18096e-10 0)
(-0.00567799 1.0171e-11 0)
(-0.000308646 5.66996e-12 0)
(-3.38341e-06 6.30095e-12 0)
(-5.06092e-09 6.16754e-12 0)
(-7.53614e-13 6.21525e-12 0)
(8.99708e-16 6.19818e-12 0)
(3.13586e-15 6.20269e-12 0)
(6.8011e-15 6.20644e-12 0)
(-1.20216e-15 6.21701e-12 0)
(-1.08e-14 6.20109e-12 0)
(1.04261e-15 6.19487e-12 0)
(2.63962e-15 6.20112e-12 0)
(-9.61568e-16 6.20184e-12 0)
(-3.102e-16 6.19825e-12 0)
(-7.91597e-16 6.20093e-12 0)
(-7.84544e-17 6.19615e-12 0)
(2.38464e-15 6.20135e-12 0)
(-8.86884e-16 6.20202e-12 0)
(-5.1481e-16 6.19942e-12 0)
(-2.71041e-15 6.20083e-12 0)
(-2.22818e-15 6.19285e-12 0)
(7.59187e-13 6.19879e-12 0)
(5.06094e-09 6.20381e-12 0)
(3.38341e-06 6.19432e-12 0)
(0.000308646 6.0886e-12 0)
(0.00567799 6.223e-12 0)
(0.0330142 5.84246e-12 0)
(0.0936074 5.08961e-12 0)
(0.178348 3.84272e-12 0)
(0.273335 2.46353e-12 0)
(0.366812 1.28011e-12 0)
(0.462762 3.17154e-13 0)
(1.10882 1.077e-13 0)
(-1.10882 1.33901e-09 0)
(-0.462762 2.53245e-09 0)
(-0.366812 7.16089e-09 0)
(-0.273335 1.18722e-08 0)
(-0.178348 1.67176e-08 0)
(-0.0936074 2.08713e-08 0)
(-0.0330142 2.34471e-08 0)
(-0.00567799 2.43255e-08 0)
(-0.000308646 2.44568e-08 0)
(-3.38341e-06 2.44625e-08 0)
(-5.06103e-09 2.4463e-08 0)
(-8.44336e-13 2.44629e-08 0)
(3.74972e-15 2.44628e-08 0)
(2.62512e-14 2.44628e-08 0)
(-9.26837e-16 2.44629e-08 0)
(-1.41724e-14 2.44628e-08 0)
(1.09845e-14 2.44628e-08 0)
(1.67546e-14 2.44629e-08 0)
(1.27039e-15 2.44629e-08 0)
(-4.25571e-15 2.44629e-08 0)
(5.26986e-15 2.44629e-08 0)
(2.69753e-14 2.44629e-08 0)
(1.27802e-15 2.44629e-08 0)
(-2.19879e-14 2.44629e-08 0)
(-1.65622e-14 2.44629e-08 0)
(-1.85489e-14 2.44629e-08 0)
(-1.11602e-14 2.44628e-08 0)
(-4.72698e-15 2.44628e-08 0)
(7.44657e-13 2.44628e-08 0)
(5.06097e-09 2.44629e-08 0)
(3.38341e-06 2.44627e-08 0)
(0.000308646 2.44571e-08 0)
(0.00567799 2.43274e-08 0)
(0.0330142 2.34872e-08 0)
(0.0936074 2.11089e-08 0)
(0.178348 1.71912e-08 0)
(0.273335 1.2354e-08 0)
(0.366812 7.48101e-09 0)
(0.462762 2.64006e-09 0)
(1.10882 1.30889e-09 0)
(-1.10882 1.30829e-06 0)
(-0.462762 2.00396e-06 0)
(-0.366812 4.43364e-06 0)
(-0.273335 6.23897e-06 0)
(-0.178348 7.91149e-06 0)
(-0.0936072 9.15961e-06 0)
(-0.0330141 9.9017e-06 0)
(-0.00567797 1.01658e-05 0)
(-0.000308645 1.02078e-05 0)
(-3.38339e-06 1.02099e-05 0)
(-5.06099e-09 1.02099e-05 0)
(-7.25609e-13 1.02099e-05 0)
(-2.58902e-14 1.02099e-05 0)
(-6.26231e-14 1.02099e-05 0)
(-2.06724e-14 1.02099e-05 0)
(-2.50729e-15 1.02099e-05 0)
(-5.26804e-14 1.02099e-05 0)
(-5.15718e-14 1.02099e-05 0)
(2.12574e-14 1.02099e-05 0)
(5.89648e-14 1.02099e-05 0)
(-5.12923e-15 1.02099e-05 0)
(-9.66184e-14 1.02099e-05 0)
(-3.99627e-14 1.02099e-05 0)
(7.8128e-15 1.02099e-05 0)
(7.948e-15 1.02099e-05 0)
(-1.53142e-14 1.02099e-05 0)
(-2.65107e-14 1.02099e-05 0)
(-1.24905e-14 1.02099e-05 0)
(8.09104e-13 1.02099e-05 0)
(5.061e-09 1.02099e-05 0)
(3.38339e-06 1.02099e-05 0)
(0.000308645 1.02078e-05 0)
(0.00567797 1.01658e-05 0)
(0.0330141 9.90172e-06 0)
(0.0936072 9.15969e-06 0)
(0.178348 7.91166e-06 0)
(0.273335 6.23913e-06 0)
(0.366812 4.43374e-06 0)
(0.462762 2.004e-06 0)
(1.10882 1.30832e-06 0)
(-1.10881 0.000166914 0)
(-0.462733 0.000206763 0)
(-0.36677 0.000366566 0)
(-0.273307 0.000452206 0)
(-0.178324 0.000531073 0)
(-0.0935917 0.000585801 0)
(-0.0330071 0.000618277 0)
(-0.00567646 0.000630126 0)
(-0.000308542 0.000632102 0)
(-3.38197e-06 0.000632202 0)
(-5.05857e-09 0.000632203 0)
(-7.14795e-13 0.000632203 0)
(1.3089e-13 0.000632203 0)
(1.54559e-13 0.000632203 0)
(9.71727e-15 0.000632203 0)
(-7.14368e-14 0.000632203 0)
(2.19224e-14 0.000632203 0)
(1.49901e-13 0.000632203 0)
(6.82697e-14 0.000632203 0)
(-9.68278e-15 0.000632203 0)
(-1.63033e-14 0.000632203 0)
(-2.05973e-14 0.000632203 0)
(-8.2217e-14 0.000632203 0)
(-4.69312e-14 0.000632203 0)
(7.71018e-14 0.000632203 0)
(1.0445e-13 0.000632203 0)
(5.74993e-14 0.000632203 0)
(2.20977e-14 0.000632203 0)
(7.34642e-13 0.000632203 0)
(5.05825e-09 0.000632203 0)
(3.38197e-06 0.000632202 0)
(0.000308542 0.000632102 0)
(0.00567646 0.000630126 0)
(0.0330071 0.000618277 0)
(0.0935917 0.000585801 0)
(0.178324 0.000531073 0)
(0.273307 0.000452206 0)
(0.36677 0.000366566 0)
(0.462733 0.000206763 0)
(1.10881 0.000166914 0)
(-1.10851 0.00397396 0)
(-0.462267 0.0042261 0)
(-0.366172 0.00626992 0)
(-0.272931 0.00701319 0)
(-0.178019 0.00777125 0)
(-0.093392 0.00826724 0)
(-0.0329154 0.00856886 0)
(-0.00565546 0.00868412 0)
(-0.000307012 0.00870456 0)
(-3.35987e-06 0.00870566 0)
(-5.0156e-09 0.00870567 0)
(-8.7184e-13 0.00870567 0)
(-1.06574e-13 0.00870567 0)
(-4.87008e-14 0.00870567 0)
(1.14155e-14 0.00870567 0)
(6.81179e-14 0.00870567 0)
(5.39981e-14 0.00870567 0)
(-3.67666e-14 0.00870567 0)
(-2.99609e-14 0.00870567 0)
(-4.14535e-15 0.00870567 0)
(-1.10285e-14 0.00870567 0)
(-1.15097e-14 0.00870567 0)
(5.50928e-14 0.00870567 0)
(3.80557e-14 0.00870567 0)
(-9.18158e-14 0.00870567 0)
(-1.73663e-13 0.00870567 0)
(-9.27738e-14 0.00870567 0)
(-3.39981e-14 0.00870567 0)
(7.06308e-13 0.00870567 0)
(5.01623e-09 0.00870567 0)
(3.35987e-06 0.00870566 0)
(0.000307012 0.00870456 0)
(0.00565546 0.00868412 0)
(0.0329154 0.00856886 0)
(0.093392 0.00826724 0)
(0.178019 0.00777125 0)
(0.272931 0.00701319 0)
(0.366172 0.00626992 0)
(0.462267 0.0042261 0)
(1.10851 0.00397396 0)
(-1.10615 0.0274803 0)
(-0.460236 0.0265158 0)
(-0.363873 0.0348378 0)
(-0.271406 0.0365582 0)
(-0.17678 0.0389663 0)
(-0.0925626 0.040483 0)
(-0.0325152 0.041455 0)
(-0.00555759 0.0418514 0)
(-0.000299457 0.0419262 0)
(-3.24611e-06 0.0419304 0)
(-4.79183e-09 0.0419305 0)
(-6.53382e-13 0.0419305 0)
(3.88425e-14 0.0419305 0)
(-8.10479e-15 0.0419305 0)
(-4.46726e-14 0.0419305 0)
(-7.11181e-14 0.0419305 0)
(-9.06047e-14 0.0419305 0)
(-9.70361e-14 0.0419305 0)
(-5.5907e-14 0.0419305 0)
(1.46293e-14 0.0419305 0)
(2.34683e-14 0.0419305 0)
(-2.53751e-15 0.0419305 0)
(-7.41575e-14 0.0419305 0)
(-9.66522e-14 0.0419305 0)
(5.53802e-15 0.0419305 0)
(8.41315e-14 0.0419305 0)
(8.5072e-14 0.0419305 0)
(3.64225e-14 0.0419305 0)
(6.86765e-13 0.0419305 0)
(4.79165e-09 0.0419305 0)
(3.24611e-06 0.0419304 0)
(0.000299457 0.0419262 0)
(0.00555759 0.0418514 0)
(0.0325152 0.041455 0)
(0.0925626 0.040483 0)
(0.17678 0.0389663 0)
(0.271406 0.0365582 0)
(0.363873 0.0348378 0)
(0.460236 0.0265158 0)
(1.10615 0.0274803 0)
(-1.09863 0.0862857 0)
(-0.456544 0.0784684 0)
(-0.360194 0.0964742 0)
(-0.268499 0.0976352 0)
(-0.174362 0.1017 0)
(-0.0908405 0.10424 0)
(-0.0316277 0.105973 0)
(-0.00532733 0.106725 0)
(-0.000280993 0.106874 0)
(-2.96327e-06 0.106882 0)
(-4.23325e-09 0.106882 0)
(-5.1889e-13 0.106882 0)
(7.74098e-14 0.106882 0)
(4.99307e-14 0.106882 0)
(1.37399e-14 0.106882 0)
(1.97122e-14 0.106882 0)
(4.11144e-14 0.106882 0)
(7.42175e-14 0.106882 0)
(6.68877e-14 0.106882 0)
(2.6835e-14 0.106882 0)
(4.74659e-15 0.106882 0)
(2.54707e-14 0.106882 0)
(6.01574e-14 0.106882 0)
(6.33754e-14 0.106882 0)
(1.81853e-14 0.106882 0)
(-4.48507e-14 0.106882 0)
(-5.47812e-14 0.106882 0)
(-2.64861e-14 0.106882 0)
(5.7505e-13 0.106882 0)
(4.23353e-09 0.106882 0)
(2.96327e-06 0.106882 0)
(0.000280993 0.106874 0)
(0.00532733 0.106725 0)
(0.0316277 0.105973 0)
(0.0908405 0.10424 0)
(0.174362 0.1017 0)
(0.268499 0.0976352 0)
(0.360194 0.0964742 0)
(0.456544 0.0784684 0)
(1.09863 0.0862857 0)
(-1.08301 0.167941 0)
(-0.453153 0.152722 0)
(-0.357218 0.182498 0)
(-0.264621 0.180351 0)
(-0.171247 0.18563 0)
(-0.0884449 0.18884 0)
(-0.0303155 0.1912 0)
(-0.00497119 0.19228 0)
(-0.000251976 0.192496 0)
(-2.52271e-06 0.192508 0)
(-3.38646e-09 0.192508 0)
(-4.63043e-13 0.192508 0)
(6.71699e-16 0.192508 0)
(2.52877e-14 0.192508 0)
(3.00834e-14 0.192508 0)
(2.12711e-14 0.192508 0)
(3.1234e-14 0.192508 0)
(2.68304e-14 0.192508 0)
(2.30112e-14 0.192508 0)
(1.61893e-14 0.192508 0)
(1.79463e-14 0.192508 0)
(1.09389e-14 0.192508 0)
(-1.76995e-14 0.192508 0)
(-4.97811e-14 0.192508 0)
(-5.52239e-14 0.192508 0)
(-4.67221e-14 0.192508 0)
(-5.35729e-14 0.192508 0)
(-5.267e-14 0.192508 0)
(4.31932e-13 0.192508 0)
(3.38648e-09 0.192508 0)
(2.52271e-06 0.192508 0)
(0.000251976 0.192496 0)
(0.00497119 0.19228 0)
(0.0303155 0.1912 0)
(0.0884449 0.18884 0)
(0.171247 0.18563 0)
(0.264621 0.180351 0)
(0.357218 0.182498 0)
(0.453153 0.152722 0)
(1.08301 0.167941 0)
(-1.06921 0.270765 0)
(-0.448455 0.231501 0)
(-0.349921 0.274702 0)
(-0.25846 0.271713 0)
(-0.166137 0.27788 0)
(-0.0846786 0.28178 0)
(-0.0282973 0.284576 0)
(-0.00444956 0.285881 0)
(-0.000212192 0.28614 0)
(-1.96353e-06 0.286154 0)
(-2.39893e-09 0.286154 0)
(-2.71026e-13 0.286154 0)
(4.0513e-15 0.286154 0)
(3.81319e-15 0.286154 0)
(-4.19908e-14 0.286154 0)
(-6.72035e-14 0.286154 0)
(-5.11767e-14 0.286154 0)
(-5.45586e-14 0.286154 0)
(-4.2873e-14 0.286154 0)
(-1.58689e-14 0.286154 0)
(1.22402e-14 0.286154 0)
(3.82395e-14 0.286154 0)
(3.6048e-14 0.286154 0)
(3.73096e-14 0.286154 0)
(2.35923e-14 0.286154 0)
(-1.54995e-14 0.286154 0)
(-1.06539e-14 0.286154 0)
(-1.45588e-14 0.286154 0)
(2.43927e-13 0.286154 0)
(2.3992e-09 0.286154 0)
(1.96353e-06 0.286154 0)
(0.000212192 0.28614 0)
(0.00444956 0.285881 0)
(0.0282973 0.284576 0)
(0.0846786 0.28178 0)
(0.166137 0.27788 0)
(0.25846 0.271713 0)
(0.349921 0.274702 0)
(0.448455 0.231501 0)
(1.06921 0.270765 0)
(-1.03139 0.316912 0)
(-0.455823 0.311278 0)
(-0.364616 0.374976 0)
(-0.261123 0.360481 0)
(-0.167733 0.367539 0)
(-0.0832808 0.370676 0)
(-0.0267171 0.374269 0)
(-0.00391688 0.376235 0)
(-0.000168317 0.37664 0)
(-1.35929e-06 0.376661 0)
(-1.41186e-09 0.376661 0)
(-1.1795e-13 0.376661 0)
(2.50511e-14 0.376661 0)
(1.1062e-14 0.376661 0)
(-3.62377e-14 0.376661 0)
(-2.55765e-14 0.376661 0)
(7.12208e-15 0.376661 0)
(1.53853e-14 0.376661 0)
(4.24977e-14 0.376661 0)
(4.04327e-14 0.376661 0)
(3.25173e-14 0.376661 0)
(1.93491e-14 0.376661 0)
(-1.6844e-14 0.376661 0)
(-2.94461e-14 0.376661 0)
(-4.83965e-14 0.376661 0)
(-6.55922e-14 0.376661 0)
(-3.34727e-14 0.376661 0)
(-3.2216e-14 0.376661 0)
(8.69115e-14 0.376661 0)
(1.41191e-09 0.376661 0)
(1.35929e-06 0.376661 0)
(0.000168317 0.37664 0)
(0.00391688 0.376235 0)
(0.0267171 0.374269 0)
(0.0832808 0.370676 0)
(0.167733 0.367539 0)
(0.261123 0.360481 0)
(0.364616 0.374976 0)
(0.455823 0.311278 0)
(1.03139 0.316912 0)
(-0.946818 0.453816 0)
(-0.403811 0.411773 0)
(-0.302372 0.464549 0)
(-0.21996 0.457203 0)
(-0.140285 0.462041 0)
(-0.0674356 0.465536 0)
(-0.020115 0.469084 0)
(-0.00259406 0.470791 0)
(-9.29951e-05 0.471099 0)
(-6.02929e-07 0.471113 0)
(-4.91833e-10 0.471113 0)
(1.43869e-15 0.471113 0)
(2.99677e-14 0.471113 0)
(1.71048e-14 0.471113 0)
(5.99153e-15 0.471113 0)
(-2.85251e-14 0.471113 0)
(-5.77329e-14 0.471113 0)
(-4.88022e-14 0.471113 0)
(-3.18909e-14 0.471113 0)
(-1.18896e-14 0.471113 0)
(1.56247e-14 0.471113 0)
(3.47218e-14 0.471113 0)
(2.65306e-14 0.471113 0)
(5.37286e-15 0.471113 0)
(1.06636e-15 0.471113 0)
(-3.62137e-15 0.471113 0)
(4.06567e-15 0.471113 0)
(-1.19273e-14 0.471113 0)
(3.62737e-15 0.471113 0)
(4.91901e-10 0.471113 0)
(6.02929e-07 0.471113 0)
(9.29951e-05 0.471099 0)
(0.00259406 0.470791 0)
(0.020115 0.469084 0)
(0.0674356 0.465536 0)
(0.140285 0.462041 0)
(0.21996 0.457203 0)
(0.302372 0.464549 0)
(0.403811 0.411773 0)
(0.946818 0.453816 0)
(-0.99713 1.01028 0)
(-0.444112 0.959685 0)
(-0.306433 1.04175 0)
(-0.257315 1.08019 0)
(-0.154262 1.09457 0)
(-0.0736391 1.10928 0)
(-0.0205363 1.11594 0)
(-0.00237128 1.11776 0)
(-7.17726e-05 1.11794 0)
(-3.6923e-07 1.11794 0)
(-2.23942e-10 1.11794 0)
(3.74454e-14 1.11794 0)
(4.3037e-14 1.11794 0)
(4.89857e-14 1.11794 0)
(6.69123e-16 1.11794 0)
(-8.29704e-14 1.11794 0)
(-9.37368e-14 1.11794 0)
(-6.35281e-14 1.11794 0)
(-4.98419e-14 1.11794 0)
(-1.01702e-14 1.11794 0)
(1.83124e-14 1.11794 0)
(4.63899e-14 1.11794 0)
(2.78309e-14 1.11794 0)
(8.4212e-15 1.11794 0)
(3.1518e-14 1.11794 0)
(9.32791e-15 1.11794 0)
(-3.3874e-15 1.11794 0)
(-1.65837e-14 1.11794 0)
(-2.21609e-14 1.11794 0)
(2.24163e-10 1.11794 0)
(3.6923e-07 1.11794 0)
(7.17726e-05 1.11794 0)
(0.00237128 1.11776 0)
(0.0205363 1.11594 0)
(0.0736391 1.10928 0)
(0.154262 1.09457 0)
(0.257315 1.08019 0)
(0.306433 1.04175 0)
(0.444112 0.959685 0)
(0.99713 1.01028 0)
(-0.99713 -1.01028 0)
(-0.444112 -0.959685 0)
(-0.306433 -1.04175 0)
(-0.257315 -1.08019 0)
(-0.154262 -1.09457 0)
(-0.0736391 -1.10928 0)
(-0.0205363 -1.11594 0)
(-0.00237128 -1.11776 0)
(-7.17726e-05 -1.11794 0)
(-3.6923e-07 -1.11794 0)
(-2.24105e-10 -1.11794 0)
(-2.22838e-14 -1.11794 0)
(-2.49933e-14 -1.11794 0)
(-1.2144e-14 -1.11794 0)
(-1.38865e-14 -1.11794 0)
(-7.25604e-15 -1.11794 0)
(4.29544e-14 -1.11794 0)
(4.92954e-14 -1.11794 0)