/*--------------------------------*- C++ -*----------------------------------*\
| =========                 |                                                 |
| \\      /  F ield         | OpenFOAM: The Open Source CFD Toolbox           |
|  \\    /   O peration     | Version:  v1912                                 |
|   \\  /    A nd           | Website:  www.openfoam.com                      |
|    \\/     M anipulation  |                                                 |
\*---------------------------------------------------------------------------*/
FoamFile
{
    version     2.0;
    format      ascii;
    class       volVectorField;
    location    "3.26";
    object      grad(p);
}
// * * * * * * * * * * * * * * * * * * * * * * * * * * * * * * * * * * * * * //

dimensions      [1 -2 -2 0 0 0 0];


internalField   nonuniform List<vector> 
1900
(
(66582.6 0.0395066 0)
(-49506.8 0.127831 0)
(-3270.55 1.05525 0)
(849.117 2.22397 0)
(666.896 4.22886 0)
(566.275 -0.611438 0)
(447.215 -19.7417 0)
(351.853 -73.6014 0)
(179.068 -286.424 0)
(-1348.81 -553.44 0)
(66582.8 0.209891 0)
(-49505.7 0.298259 0)
(-3268.46 1.38717 0)
(852.29 1.06415 0)
(664.06 -0.141842 0)
(542.305 -8.83522 0)
(374.225 -24.377 0)
(85.1711 -56.1207 0)
(-300.77 -256.402 0)
(-783.345 -562.299 0)
(66583.1 5.29354e-09 0)
(-49505.6 8.88178e-10 0)
(-3269.79 1.10134e-09 0)
(847.588 9.76996e-10 0)
(656.996 1.26121e-09 0)
(542.04 1.77636e-10 0)
(399.93 -5.68434e-10 0)
(119.828 7.10543e-11 0)
(-327.11 4.26326e-10 0)
(-825.579 -8.17124e-10 0)
(66582.8 -0.209891 0)
(-49505.7 -0.298259 0)
(-3268.46 -1.38717 0)
(852.29 -1.06415 0)
(664.06 0.141842 0)
(542.305 8.83522 0)
(374.225 24.377 0)
(85.1711 56.1207 0)
(-300.77 256.402 0)
(-783.345 562.299 0)
(66582.6 -0.0395066 0)
(-49506.8 -0.127831 0)
(-3270.55 -1.05525 0)
(849.117 -2.22397 0)
(666.896 -4.22886 0)
(566.275 0.611438 0)
(447.215 19.7417 0)
(351.853 73.6014 0)
(179.068 286.424 0)
(-1348.81 553.44 0)
(-1735.52 114.467 1.12557e-11)
(-1579.52 -25.3858 -1.35989e-11)
(-5264.39 -585.999 -1.69199e-11)
(-18601.9 1418.99 0)
(-11018.9 15993.5 -5.78238e-11)
(-1050.91 101.954 1.12764e-11)
(-2296.8 -177.009 1.35989e-11)
(-4347.94 -846.255 1.69199e-11)
(-10909.4 -81.0532 0)
(-8230.1 12500.6 0)
(-1169.9 -9.33231e-10 0)
(-2535.12 -5.25895e-10 0)
(-5388.19 -3.20731e-09 0)
(-11549.8 -1.78309e-09 0)
(-1107.9 -7.08428e-09 0)
(-1050.91 -101.954 1.12764e-11)
(-2296.8 177.009 1.35989e-11)
(-4347.94 846.255 1.69199e-11)
(-10909.4 81.0532 0)
(-8230.1 -12500.6 0)
(-1735.52 -114.467 -3.38085e-11)
(-1579.52 25.3858 -1.35989e-11)
(-5264.39 585.999 -1.69199e-11)
(-18601.9 -1418.99 -4.41505e-11)
(-11018.9 -15993.5 5.78238e-11)
(12212.5 -3949.4 3.16441e-11)
(-2478.1 -178.025 -2.56367e-11)
(-86.8284 777.205 0)
(-2270.44 770.294 1.95983e-11)
(-11944.4 -2561 -8.49542e-12)
(6851.59 -4314.63 -1.57626e-11)
(-1279.4 47.1607 1.28156e-11)
(231.928 267.118 0)
(-3689.38 -291.99 -1.22612e-11)
(-11608.4 -6200.98 2.05788e-12)
(8331.73 -3.94746e-09 0)
(-1363.17 -1.06278e-09 0)
(-297.421 4.27641e-09 0)
(-5166.59 -3.25085e-09 4.90098e-12)
(-12768.2 -8.7779e-09 -4.11577e-12)
(6851.59 4314.63 -1.57626e-11)
(-1279.4 -47.1607 1.28156e-11)
(231.928 -267.118 0)
(-3689.38 291.99 -1.22612e-11)
(-11608.4 6200.98 2.05788e-12)
(12212.5 3949.4 1.57626e-11)
(-2478.1 178.025 5.36152e-15)
(-86.8284 -777.205 0)
(-2270.44 -770.294 2.31987e-14)
(-11944.4 2561 8.49542e-12)
(-27019.4 -2626.64 0)
(-16387.3 6613.26 0)
(1446.34 3713.26 0)
(-345.999 1803.34 0)
(-1601.29 889.453 0)
(-1161.77 328.385 0)
(-393.578 142.823 0)
(86.6041 108.994 0)
(270.89 93.5197 0)
(458.193 73.8322 0)
(603.138 65.8216 0)
(671.329 59.4046 0)
(657.803 55.99 0)
(570.451 52.7163 0)
(441.506 49.2501 0)
(305.183 45.9733 0)
(188.901 43.3501 0)
(98.571 41.4716 0)
(29.8515 40.3749 0)
(-17.5136 39.747 0)
(-57.845 39.5614 0)
(-112.002 39.7021 0)
(-196.859 40.1028 0)
(-314.6 40.9853 0)
(-467.358 42.146 0)
(-647.986 43.5205 0)
(-823.804 44.8707 0)
(-957.18 46.1062 0)
(-1020.14 47.0591 0)
(-1012.26 47.6765 0)
(-957.229 48.0494 0)
(-887.265 47.9154 0)
(-815.657 47.6378 0)
(-736.613 45.485 0)
(-602.762 41.9154 0)
(-448.788 46.4244 0)
(-319.176 43.494 0)
(359.693 56.5403 0)
(50471.7 236.324 0)
(-63820.9 1325.31 0)
(-25032.8 -1556.62 0)
(-16424.1 8306.59 0)
(633.701 3704.39 0)
(-903.241 1001.21 0)
(-1741.31 443.283 0)
(-1231.54 140.789 0)
(-412.167 63.2434 0)
(81.966 44.2 0)
(269.329 38.0964 0)
(456.339 31.5119 0)
(601.98 27.5058 0)
(670.491 24.0839 0)
(657.256 21.9898 0)
(569.932 20.2302 0)
(440.989 18.5175 0)
(304.74 17.0081 0)
(188.576 15.8658 0)
(98.3686 15.1034 0)
(29.7385 14.6944 0)
(-17.5694 14.4613 0)
(-57.8549 14.3948 0)
(-111.984 14.4439 0)
(-196.796 14.5821 0)
(-314.478 14.9495 0)
(-467.194 15.5161 0)
(-647.796 16.2932 0)
(-823.612 17.2296 0)
(-957.011 18.2985 0)
(-1020.02 19.4203 0)
(-1012.19 20.5706 0)
(-957.219 21.7842 0)
(-887.28 23.0612 0)
(-815.804 24.6018 0)
(-737.05 25.8282 0)
(-602.467 26.6099 0)
(-448.55 32.047 0)
(-317.85 33.882 0)
(380.092 44.6828 0)
(50716.2 138.62 0)
(-64094.1 4078.17 0)
(-22615.3 5.45826e-09 0)
(-14856.8 1.84095e-09 0)
(-678.864 2.97136e-09 0)
(-1294.68 1.09973e-08 0)
(-1851.59 5.13529e-09 0)
(-1272.33 -3.61731e-09 0)
(-421.676 -1.87648e-08 0)
(79.2886 -3.28788e-08 0)
(267.199 6.60482e-09 0)
(455.113 5.40012e-08 0)
(600.977 1.10554e-07 0)
(669.724 1.64345e-07 0)
(656.681 1.59097e-07 0)
(569.441 -8.91408e-09 0)
(440.568 -3.56353e-07 0)
(304.411 -7.1781e-07 0)
(188.347 -6.99077e-07 0)
(98.2302 -2.11209e-07 0)
(29.6647 1.64248e-07 0)
(-17.6008 6.38423e-07 0)
(-57.85 4.4199e-07 0)
(-111.947 -4.53197e-07 0)
(-196.712 -8.80023e-07 0)
(-314.328 -5.23961e-07 0)
(-466.967 8.02429e-08 0)
(-647.487 8.53782e-08 0)
(-823.22 -4.47658e-07 0)
(-956.542 -1.2257e-06 0)
(-1019.48 -1.92568e-06 0)
(-1011.58 -2.13323e-06 0)
(-956.505 -1.81038e-06 0)
(-886.445 -1.02589e-06 0)
(-814.852 -3.08731e-07 0)
(-736.029 8.29397e-08 0)
(-600.953 -2.95844e-08 0)
(-446.672 4.29798e-08 0)
(-315.5 2.2714e-07 0)
(390.163 -4.20819e-07 0)
(51645.1 1.03037e-06 0)
(-65047.6 1.77758e-05 0)
(-25032.8 1556.62 0)
(-16424.1 -8306.59 0)
(633.701 -3704.39 0)
(-903.241 -1001.21 0)
(-1741.31 -443.283 0)
(-1231.54 -140.789 0)
(-412.167 -63.2434 0)
(81.966 -44.2 0)
(269.329 -38.0964 0)
(456.339 -31.5119 0)
(601.98 -27.5058 0)
(670.491 -24.0839 0)
(657.256 -21.9898 0)
(569.932 -20.2302 0)
(440.989 -18.5175 0)
(304.74 -17.0081 0)
(188.576 -15.8658 0)
(98.3686 -15.1034 0)
(29.7385 -14.6944 0)
(-17.5694 -14.4613 0)
(-57.8549 -14.3948 0)
(-111.984 -14.4439 0)
(-196.796 -14.5821 0)
(-314.478 -14.9495 0)
(-467.194 -15.5161 0)
(-647.796 -16.2932 0)
(-823.612 -17.2296 0)
(-957.011 -18.2985 0)
(-1020.02 -19.4203 0)
(-1012.19 -20.5706 0)
(-957.219 -21.7842 0)
(-887.28 -23.0612 0)
(-815.804 -24.6018 0)
(-737.05 -25.8282 0)
(-602.467 -26.6099 0)
(-448.55 -32.047 0)
(-317.85 -33.882 0)
(380.092 -44.6828 0)
(50716.2 -138.62 0)
(-64094.1 -4078.17 0)
(-27019.4 2626.64 0)
(-16387.3 -6613.26 0)
(1446.34 -3713.26 0)
(-345.999 -1803.34 0)
(-1601.29 -889.453 0)
(-1161.77 -328.385 0)
(-393.578 -142.823 0)
(86.6041 -108.994 0)
(270.89 -93.5197 0)
(458.193 -73.8322 0)
(603.138 -65.8216 0)
(671.329 -59.4046 0)
(657.803 -55.99 0)
(570.451 -52.7163 0)
(441.506 -49.2501 0)
(305.183 -45.9733 0)
(188.901 -43.3501 0)
(98.571 -41.4716 0)
(29.8515 -40.3749 0)
(-17.5136 -39.747 0)
(-57.845 -39.5614 0)
(-112.002 -39.7021 0)
(-196.859 -40.1028 0)
(-314.6 -40.9853 0)
(-467.358 -42.146 0)
(-647.986 -43.5205 0)
(-823.804 -44.8707 0)
(-957.18 -46.1062 0)
(-1020.14 -47.0591 0)
(-1012.26 -47.6765 0)
(-957.229 -48.0494 0)
(-887.265 -47.9154 0)
(-815.657 -47.6378 0)
(-736.613 -45.485 0)
(-602.762 -41.9154 0)
(-448.788 -46.4244 0)
(-319.176 -43.494 0)
(359.693 -56.5403 0)
(50471.7 -236.324 0)
(-63820.9 -1325.31 0)
(38510.9 7692.16 0)
(-20443.5 -4638.93 0)
(2711.23 -2623.74 0)
(223.742 -2501.2 0)
(-978.011 -1360.38 0)
(-843.873 -640.667 0)
(-296.042 -302.536 0)
(107.53 -243.865 0)
(289.58 -189.44 0)
(471.57 -152.34 0)
(609.691 -133.937 0)
(675.689 -122.857 0)
(660.819 -116.115 0)
(573.559 -109.168 0)
(444.621 -101.977 0)
(307.929 -95.3454 0)
(191.024 -90.0458 0)
(100.001 -86.2044 0)
(30.6897 -83.9184 0)
(-17.1236 -82.5604 0)
(-57.8382 -82.1579 0)
(-112.302 -82.5218 0)
(-197.528 -83.4642 0)
(-315.62 -85.4006 0)
(-468.594 -87.9508 0)
(-649.286 -90.9686 0)
(-825.011 -94.1353 0)
(-958.189 -97.0825 0)
(-1020.87 -99.5978 0)
(-1012.73 -101.451 0)
(-957.357 -102.666 0)
(-887.039 -103.172 0)
(-814.45 -102.892 0)
(-733.965 -100.48 0)
(-602.716 -94.997 0)
(-449.266 -100.937 0)
(-322.663 -102.556 0)
(282.72 -117.733 0)
(50203 -410.371 0)
(-63430.3 -2295.67 0)
(39816.7 4868.41 0)
(-24153 -1788.18 0)
(2828.05 -1991.16 0)
(565.9 -2156.03 0)
(-142.625 -1436.75 0)
(-312.863 -855.87 0)
(-63.5066 -489.776 0)
(184.367 -386.816 0)
(349.065 -305.586 0)
(504.506 -251.387 0)
(628.035 -226.091 0)
(686.164 -210.074 0)
(669.376 -199.173 0)
(582.408 -187.627 0)
(453.155 -176.218 0)
(315.208 -165.78 0)
(196.571 -157.599 0)
(103.709 -151.639 0)
(32.9135 -148.156 0)
(-16.0263 -146.05 0)
(-57.8114 -145.448 0)
(-113.099 -146.062 0)
(-199.275 -147.545 0)
(-318.376 -150.626 0)
(-472.061 -154.585 0)
(-653.248 -159.449 0)
(-829.048 -164.247 0)
(-961.902 -169.161 0)
(-1023.96 -172.963 0)
(-1014.97 -175.569 0)
(-958.82 -177.187 0)
(-887.604 -177.656 0)
(-813.71 -176.229 0)
(-730.426 -173.6 0)
(-603.227 -166.701 0)
(-455.815 -175.258 0)
(-333.491 -183.146 0)
(104.348 -196.92 0)
(48517 -612.149 0)
(-61422.6 -4445.99 0)
(41479.2 5491.33 0)
(-27053.7 -796.374 0)
(2356.76 -1646.81 0)
(757.993 -1608.6 0)
(274.868 -1321.11 0)
(68.6654 -931.224 0)
(155.956 -661.427 0)
(285.021 -527.074 0)
(420.084 -444.898 0)
(548.174 -383.71 0)
(649.501 -354.918 0)
(701.629 -334.157 0)
(682.45 -317.368 0)
(595.679 -300.54 0)
(465.674 -283.441 0)
(325.871 -268.798 0)
(204.65 -257.071 0)
(109.101 -248.621 0)
(36.0756 -243.682 0)
(-14.5143 -240.688 0)
(-57.8499 -239.916 0)
(-114.323 -240.934 0)
(-201.925 -243.209 0)
(-322.403 -247.693 0)
(-477.095 -253.64 0)
(-658.597 -260.032 0)
(-834.371 -267.795 0)
(-966.587 -273.276 0)
(-1027.04 -279.265 0)
(-1016.8 -282.161 0)
(-959.368 -282.934 0)
(-886.116 -283.412 0)
(-810.542 -279.835 0)
(-724.783 -277.465 0)
(-604.314 -270.786 0)
(-465.114 -286.276 0)
(-343.537 -300.516 0)
(-130.683 -315.019 0)
(46108.5 -816.901 0)
(-58556.1 -5979.26 0)
(44340.9 588.156 0)
(-31031.5 -812.669 0)
(2045.36 -1440.18 0)
(879.755 -1361.52 0)
(510.12 -1241.5 0)
(322.833 -987.726 0)
(325.947 -810.864 0)
(393.021 -683.364 0)
(487.215 -604.384 0)
(591.214 -552.448 0)
(675.786 -521.118 0)
(722.349 -497.651 0)
(701.771 -476.33 0)
(615.101 -451.41 0)
(483.743 -430.114 0)
(340.618 -409.858 0)
(216.014 -394.781 0)
(116.611 -383.562 0)
(40.5584 -377.04 0)
(-12.3979 -372.994 0)
(-58.0484 -372.108 0)
(-116.272 -373.761 0)
(-205.789 -377.039 0)
(-328.429 -383.343 0)
(-483.952 -390.782 0)
(-666.888 -400.98 0)
(-841.81 -408.002 0)
(-972.956 -419.391 0)
(-1032.53 -423.283 0)
(-1018.5 -428.036 0)
(-960.026 -428.732 0)
(-884.618 -428.93 0)
(-807.98 -422.419 0)
(-721.705 -424.687 0)
(-611.718 -421.669 0)
(-484.464 -447.627 0)
(-361.189 -468.252 0)
(-393.259 -490.274 0)
(43058.8 -986.059 0)
(-54873.6 -7039.99 0)
(41262.8 -3930.24 0)
(-29008.2 -839.347 0)
(1827.86 -1291.57 0)
(949.446 -1279.61 0)
(635.07 -1217.62 0)
(483.646 -1072.46 0)
(449.25 -949.51 0)
(483.993 -852.449 0)
(546.24 -786.341 0)
(628.412 -746.99 0)
(702.306 -719.753 0)
(744.788 -698.222 0)
(727.009 -669.622 0)
(640.214 -644.609 0)
(505.714 -615.177 0)
(359.919 -593.001 0)
(229.99 -574.21 0)
(126.197 -560.954 0)
(46.2601 -553.077 0)
(-9.76211 -548.089 0)
(-58.5897 -547.212 0)
(-119.075 -549.581 0)
(-211.158 -553.915 0)
(-335.647 -561.348 0)
(-494.092 -571.554 0)
(-675.191 -580.24 0)
(-852.112 -594.357 0)
(-981.313 -599.156 0)
(-1035.37 -609.012 0)
(-1022.05 -610.943 0)
(-960.228 -607.989 0)
(-880.032 -609.906 0)
(-806.453 -601 0)
(-724.061 -605.238 0)
(-626.42 -607.123 0)
(-510.002 -637.771 0)
(-384.633 -667.295 0)
(-629.661 -691.379 0)
(39796.9 -1055.95 0)
(-50822 -7630.14 0)
(39744.7 -2417.34 0)
(-28488.8 -852.659 0)
(1621.11 -1185.01 0)
(951.017 -1264.87 0)
(709.733 -1213.05 0)
(581.191 -1143.68 0)
(537.958 -1064.25 0)
(550.257 -1001.85 0)
(588.839 -961.673 0)
(655.381 -940.231 0)
(722.78 -922.06 0)
(770.657 -902.705 0)
(753.435 -879.677 0)
(667.566 -847.877 0)
(533.475 -821.214 0)
(380.095 -794.794 0)
(246.895 -775.383 0)
(136.976 -760.766 0)
(52.9564 -752.208 0)
(-6.74557 -746.588 0)
(-59.4868 -745.783 0)
(-122.731 -748.708 0)
(-217.128 -753.618 0)
(-345.426 -762.029 0)
(-502.156 -771.464 0)
(-688.862 -784.036 0)
(-860.039 -791.016 0)
(-987.078 -802.264 0)
(-1043.88 -802.061 0)
(-1017.52 -802.124 0)
(-959.027 -793.957 0)
(-877.883 -788.195 0)
(-803.481 -774.051 0)
(-727.606 -770.537 0)
(-643.068 -772.264 0)
(-542.449 -788.609 0)
(-412.847 -825.042 0)
(-767.782 -844.481 0)
(36372.3 -992.931 0)
(-46503.4 -7789.63 0)
(38111.7 -3363.57 0)
(-27820.7 -865.103 0)
(1430.64 -1127.92 0)
(922.433 -1238.31 0)
(751.859 -1217.87 0)
(627.027 -1184.69 0)
(585.922 -1137.7 0)
(582.844 -1108.13 0)
(605.617 -1093.1 0)
(666.584 -1087.03 0)
(738.467 -1079.44 0)
(785.63 -1068.25 0)
(779.844 -1048.41 0)
(696.551 -1023.23 0)
(556.867 -996.355 0)
(404.084 -972.681 0)
(262.781 -953.616 0)
(148.53 -939.462 0)
(59.9222 -931.093 0)
(-3.57075 -925.382 0)
(-60.6322 -924.595 0)
(-126.625 -927.551 0)
(-223.995 -932.274 0)
(-352.844 -939.902 0)
(-515.299 -948.713 0)
(-694.032 -957.445 0)
(-869.678 -963.53 0)
(-991.956 -966.427 0)
(-1035.24 -959.086 0)
(-1014.24 -948.991 0)
(-946.806 -929.4 0)
(-860.85 -913.049 0)
(-789.436 -890.221 0)
(-722.339 -872.786 0)
(-643.835 -866.978 0)
(-560.862 -869.014 0)
(-438.474 -897.085 0)
(-791.445 -912.923 0)
(33104.3 -890.936 0)
(-42358.8 -7707.6 0)
(35669.8 -4281.36 0)
(-26334.5 -848.326 0)
(1261.47 -1048.85 0)
(864.34 -1154.3 0)
(761.408 -1167.85 0)
(658.444 -1153.25 0)
(611.731 -1129.39 0)
(593.234 -1130.15 0)
(609.171 -1135.94 0)
(668.545 -1144.68 0)
(740.877 -1146.38 0)
(800.56 -1146.38 0)
(796.816 -1132.86 0)
(717.728 -1119.2 0)
(582.19 -1096.07 0)
(421.281 -1078.85 0)
(278.906 -1062.5 0)
(158.679 -1050.66 0)
(66.5237 -1043.35 0)
(-0.483663 -1038.15 0)
(-61.5763 -1037.18 0)
(-130.131 -1039.34 0)
(-229.03 -1042.79 0)
(-361.267 -1047.62 0)
(-519.061 -1053.68 0)
(-703.14 -1054.75 0)
(-868.694 -1058.34 0)
(-982.797 -1045.87 0)
(-1027.08 -1031.45 0)
(-988.911 -1004.74 0)
(-924.391 -973.898 0)
(-840.129 -945.411 0)
(-764.683 -914.218 0)
(-705.207 -885.211 0)
(-639.433 -870.219 0)
(-571.462 -867.484 0)
(-455.159 -878.724 0)
(-761.857 -888.939 0)
(29824.7 -807.945 0)
(-38217.5 -7428.16 0)
(33168.6 -4534.81 0)
(-24705.8 -801.779 0)
(1135.79 -954.024 0)
(807.762 -1040.82 0)
(752.869 -1070.71 0)
(664.092 -1078.76 0)
(608.187 -1076.21 0)
(576.53 -1096.06 0)
(591.611 -1112.77 0)
(656.525 -1126.05 0)
(736.835 -1136.02 0)
(798.655 -1135.75 0)
(806.034 -1136.48 0)
(732.005 -1120.63 0)
(595.744 -1110.98 0)
(436.433 -1095.58 0)
(289.947 -1085.2 0)
(166.984 -1075.99 0)
(71.9794 -1070.43 0)
(2.37282 -1066.06 0)
(-61.7758 -1064.69 0)
(-132.028 -1065.43 0)
(-231.977 -1066.53 0)
(-363.342 -1068.42 0)
(-522.174 -1067.62 0)
(-698.525 -1068.67 0)
(-861.113 -1056.53 0)
(-966.037 -1049.53 0)
(-995.611 -1017.37 0)
(-958.786 -989.058 0)
(-889.63 -949.383 0)
(-803.34 -915.313 0)
(-731.426 -880.387 0)
(-679.94 -850.22 0)
(-626.753 -832.11 0)
(-569.057 -827.15 0)
(-459.149 -828.664 0)
(-723.24 -832.364 0)
(26802.9 -749.3 0)
(-34422.1 -7026.38 0)
(30527.3 -4669.52 0)
(-22883.9 -741.772 0)
(1031.12 -858.281 0)
(751.896 -921.637 0)
(724.847 -967.588 0)
(653.141 -986.673 0)
(595.06 -996.034 0)
(558.007 -1018.32 0)
(580.273 -1034.17 0)
(646.137 -1049.8 0)
(731.529 -1058.86 0)
(800.123 -1066.05 0)
(811.386 -1065.85 0)
(742.299 -1063.75 0)
(606.335 -1054.96 0)
(446.118 -1048.01 0)
(297.781 -1040.58 0)
(172.919 -1034.08 0)
(76.0918 -1029.86 0)
(5.04174 -1026.05 0)
(-60.9678 -1024.19 0)
(-131.898 -1023.64 0)
(-231.909 -1022.8 0)
(-362.32 -1021.53 0)
(-519.307 -1018.68 0)
(-692.45 -1010.89 0)
(-850.248 -1001.98 0)
(-945.062 -980.694 0)
(-968.81 -953.192 0)
(-923.397 -918.097 0)
(-853.328 -877.946 0)
(-773.642 -843.944 0)
(-701.957 -812.489 0)
(-658.686 -784.79 0)
(-617.201 -768.073 0)
(-568.141 -765.133 0)
(-460.184 -765.991 0)
(-685.378 -768.437 0)
(23856 -693.023 0)
(-30724.6 -6622.7 0)
(27954 -4662.22 0)
(-21033.1 -667.802 0)
(962.467 -764.572 0)
(702.43 -808.511 0)
(690.198 -868.406 0)
(636.681 -889.714 0)
(577.689 -911.376 0)
(539.782 -932.82 0)
(561.28 -946.434 0)
(632.731 -963.088 0)
(721.172 -969.191 0)
(791.919 -980.228 0)
(808.247 -982.152 0)
(742.501 -983.965 0)
(610.92 -976.483 0)
(450.292 -971.506 0)
(303.366 -965.542 0)
(177.305 -960.639 0)
(79.7164 -957.134 0)
(7.8409 -953.34 0)
(-59.4505 -951.035 0)
(-130.69 -949.846 0)
(-229.943 -947.933 0)
(-359.373 -945.266 0)
(-511.925 -941.646 0)
(-682.433 -934.462 0)
(-832.012 -925.208 0)
(-919.02 -905.026 0)
(-935.29 -876.041 0)
(-886.275 -840.838 0)
(-818.174 -805.282 0)
(-740.264 -769.928 0)
(-674.423 -741.903 0)
(-637.138 -716.894 0)
(-607.811 -702.271 0)
(-567.052 -700.925 0)
(-462.332 -701.806 0)
(-652.925 -702.996 0)
(21161.5 -634.421 0)
(-27372.4 -6164.87 0)
(25391.1 -4618.5 0)
(-19128 -611.126 0)
(895.526 -707.367 0)
(651.838 -744.691 0)
(646.597 -796.765 0)
(611.733 -817.026 0)
(553.522 -844.828 0)
(524.224 -860.393 0)
(551.105 -868.244 0)
(624.207 -875.775 0)
(715.012 -881.715 0)
(787.634 -888.011 0)
(807.785 -894.434 0)
(747.762 -894.367 0)
(618.341 -893.659 0)
(456.662 -891.084 0)
(308.253 -889.467 0)
(181.021 -886.457 0)
(83.1254 -883.86 0)
(10.9197 -879.833 0)
(-57.6008 -877.164 0)
(-128.909 -875.748 0)
(-227.495 -872.735 0)
(-356.262 -868.837 0)
(-508.896 -861.919 0)
(-676.61 -855.441 0)
(-821.882 -840.973 0)
(-897.682 -827.521 0)
(-906.957 -795.301 0)
(-855.211 -768.578 0)
(-784.996 -733.827 0)
(-712.568 -705.445 0)
(-650.852 -682.777 0)
(-620.495 -664.353 0)
(-601.813 -654.493 0)
(-567.693 -654.408 0)
(-462.18 -655.8 0)
(-620.444 -656.286 0)
(18592.7 -593.17 0)
(-24172.5 -5721.33 0)
(22914.6 -4595.41 0)
(-17264.2 -568.138 0)
(833.758 -660.335 0)
(616.283 -703.627 0)
(620.493 -740.457 0)
(590.365 -755.367 0)
(535.899 -786.004 0)
(517.218 -793.116 0)
(546.457 -796.327 0)
(619.75 -801.15 0)
(709.382 -803.8 0)
(779.662 -813.314 0)
(802.123 -821.055 0)
(743.248 -824.269 0)
(614.083 -822.692 0)
(454.332 -817.654 0)
(307.824 -816.061 0)
(182.709 -813.508 0)
(86.0991 -811.907 0)
(14.293 -807.754 0)
(-55.5134 -804.825 0)
(-126.423 -803.193 0)
(-223.284 -799.061 0)
(-348.95 -795.113 0)
(-499.016 -789.241 0)
(-662.248 -786.385 0)
(-805.107 -776.053 0)
(-875.009 -761.109 0)
(-878.49 -731.824 0)
(-827.037 -704.703 0)
(-757.337 -674.99 0)
(-691.071 -651.916 0)
(-634.825 -634.888 0)
(-609.882 -621.632 0)
(-598.228 -615.564 0)
(-568.312 -615.062 0)
(-464.142 -615.809 0)
(-592.572 -615.041 0)
(16280.7 -554.496 0)
(-21287.6 -5303.26 0)
(20415.3 -4459.72 0)
(-15336 -545.752 0)
(764.964 -639.25 0)
(574.629 -688.443 0)
(596.737 -721.795 0)
(567.842 -733.953 0)
(517.146 -756.065 0)
(514.276 -757.284 0)
(543.364 -756.679 0)
(617.006 -752.162 0)
(703.29 -750.963 0)
(771.006 -755.414 0)
(797.229 -755.445 0)
(746.184 -753.594 0)
(624.716 -740.743 0)
(463.052 -732.22 0)
(312.248 -727.267 0)
(185.023 -725.465 0)
(88.6699 -725.855 0)
(17.7443 -723.836 0)
(-53.2058 -720.665 0)
(-123.355 -716.67 0)
(-219.709 -710.497 0)
(-346.799 -706.221 0)
(-500.486 -704.529 0)
(-663.903 -706.631 0)
(-797.525 -708.831 0)
(-855.061 -701.184 0)
(-852.602 -683.203 0)
(-800.443 -663.117 0)
(-734.128 -641.288 0)
(-673.924 -625.48 0)
(-621.669 -614.128 0)
(-601.874 -605.962 0)
(-595.482 -602.772 0)
(-567.929 -600.753 0)
(-462.16 -599.253 0)
(-561.361 -594.464 0)
(14075 -532.396 0)
(-18527.8 -4859.17 0)
(18091.1 -4411.2 0)
(-13582.7 -523.937 0)
(696.256 -619.025 0)
(536.74 -670.147 0)
(576.638 -699.377 0)
(557.342 -716.369 0)
(513.416 -728.96 0)
(516.627 -725.039 0)
(551.393 -717.765 0)
(625.258 -702.349 0)
(706.248 -688.478 0)
(775.343 -681.667 0)
(803.877 -672.047 0)
(757.415 -663.661 0)
(634.68 -641.473 0)
(467.318 -621.334 0)
(314.334 -604.984 0)
(184.069 -594.483 0)
(87.6683 -588.799 0)
(19.2943 -583.857 0)
(-48.6074 -580.555 0)
(-116.624 -579.215 0)
(-213.216 -578.745 0)
(-343.199 -583.253 0)
(-499.411 -592.901 0)
(-666.394 -608.643 0)
(-799.858 -621.086 0)
(-850.313 -624.411 0)
(-841.808 -617.35 0)
(-786.646 -611.211 0)
(-721.067 -603.416 0)
(-664.899 -598.623 0)
(-616.017 -596.601 0)
(-598.939 -595.691 0)
(-593.208 -594.299 0)
(-564.92 -588.941 0)
(-458.082 -584.195 0)
(-528.147 -573.55 0)
(12171 -506.806 0)
(-16092.1 -4525.72 0)
(15659.6 -3909.41 0)
(-11681.7 -450.915 0)
(624.071 -562.166 0)
(497.198 -629.04 0)
(552.196 -656.31 0)
(539.335 -676.15 0)
(508.791 -681.257 0)
(525.064 -669.164 0)
(565.229 -653.971 0)
(645.228 -636.754 0)
(723.219 -613.331 0)
(786.84 -601.578 0)
(814.581 -577.94 0)
(775.646 -557.065 0)
(665.504 -525.126 0)
(498.215 -497.63 0)
(338.122 -470.781 0)
(200.619 -452.43 0)
(98.9097 -441.851 0)
(25.6888 -434.18 0)
(-48.7329 -430.853 0)
(-121.612 -432.304 0)
(-223.6 -436.559 0)
(-360.439 -449.514 0)
(-524.952 -469.431 0)
(-691.063 -495.307 0)
(-812.72 -515.849 0)
(-851.462 -535.597 0)
(-839.882 -541.329 0)
(-787.015 -544.917 0)
(-721.998 -545.112 0)
(-667.357 -546.974 0)
(-618.843 -550.336 0)
(-599.656 -553.036 0)
(-588.978 -551.951 0)
(-558.191 -545.377 0)
(-447.328 -537.732 0)
(-486.786 -507.123 0)
(10266.5 -423.021 0)
(-13678.3 -3833.21 0)
(13889.4 -3326.73 0)
(-10357.1 -255.964 0)
(524.608 -380.072 0)
(446.019 -492.808 0)
(531.241 -534.814 0)
(533.301 -557.443 0)
(520.149 -543.897 0)
(542.921 -526.35 0)
(582.624 -507.619 0)
(664.42 -490.695 0)
(740.144 -473.612 0)
(809.448 -461.09 0)
(846.772 -433.439 0)
(808.308 -413.801 0)
(691.953 -388.656 0)
(519.687 -369.717 0)
(357.89 -352.052 0)
(211.948 -339.27 0)
(105.255 -329.444 0)
(29.892 -317.633 0)
(-46.8 -314.912 0)
(-122.122 -321.704 0)
(-229.8 -326.617 0)
(-374.876 -336.295 0)
(-543.539 -349.928 0)
(-711.124 -369.355 0)
(-838.683 -386.622 0)
(-874.866 -402.522 0)
(-850.789 -413.558 0)
(-790.291 -418.712 0)
(-723.05 -421.527 0)
(-669.934 -421.598 0)
(-621.859 -425.175 0)
(-600.495 -424.983 0)
(-585.827 -422.915 0)
(-551.219 -413.951 0)
(-421.219 -386.855 0)
(-417.606 -314.788 0)
(8965.9 -213.762 0)
(-11990.6 -3006.53 0)
(12207.2 1036.95 0)
(-8842.21 -41.1569 0)
(395.84 -293.516 0)
(348.083 -446.185 0)
(489.911 -537.634 0)
(530.583 -594.26 0)
(538.754 -621.375 0)
(560.023 -643.944 0)
(599.588 -664.183 0)
(677.999 -684.976 0)
(751.747 -716.566 0)
(825.553 -748.311 0)
(860.151 -763.652 0)
(818.8 -698.504 0)
(707.984 -509.975 0)
(533.488 -223.878 0)
(367.462 93.0019 0)
(222.405 379.48 0)
(119.76 562.078 0)
(39.6924 655.856 0)
(-52.6559 658.291 0)
(-132.891 568.936 0)
(-237.66 390.96 0)
(-382.902 108.41 0)
(-556.81 -202.892 0)
(-726.423 -484.66 0)
(-844.681 -668.918 0)
(-877.418 -733.958 0)
(-855.483 -717.974 0)
(-794.695 -678.922 0)
(-724.779 -641.829 0)
(-670.872 -605.5 0)
(-622.105 -574.525 0)
(-597.477 -541.374 0)
(-578.347 -506.933 0)
(-523.443 -465.457 0)
(-351.771 -393.857 0)
(-319.988 -280.428 0)
(7672.64 -60.4314 0)
(-10575.1 1751.33 0)
(14848.9 142180 0)
(-11639.2 11641.4 0)
(134.308 8496.41 0)
(210.779 9853.89 0)
(388.551 11262.3 0)
(452.605 13338.9 0)
(472.271 15439 0)
(501.669 17915.4 0)
(543.084 20502.8 0)
(613.942 23420.7 0)
(679.113 26448.3 0)
(764.075 29775.5 0)
(894.768 33140.7 0)
(1052.76 36744.8 0)
(1149.32 40272.8 0)
(1100.74 43926.5 0)
(939.308 47263.8 0)
(663.967 50232.9 0)
(371.581 52107.8 0)
(122.606 53723.4 0)
(-130.559 53731 0)
(-379.732 52116.7 0)
(-673.58 50246.9 0)
(-947.133 47279.3 0)
(-1115.04 43943.7 0)
(-1160.2 40290.3 0)
(-1078.92 36760.9 0)
(-922.138 33153.3 0)
(-797.754 29785.3 0)
(-716.915 26453.3 0)
(-652.297 23415.4 0)
(-605.077 20507.3 0)
(-560.065 17900 0)
(-535.361 15412.5 0)
(-512.67 13262.9 0)
(-442.255 11122.6 0)
(-242.918 9652.94 0)
(-96.3054 8181.7 0)
(10923.8 11035.6 0)
(-13620 137484 0)
(160435 -167031 0)
(-137664 -14866.9 0)
(-1326.7 -12093.8 0)
(3013.44 -13629.5 0)
(3848.16 -15439.6 0)
(4555.31 -18026.1 0)
(4948.89 -20636.5 0)
(5439.75 -23651.9 0)
(5904.66 -26802.2 0)
(6407.25 -30342.9 0)
(6875.5 -34088.3 0)
(7274.65 -38182.6 0)
(7575.97 -42430.4 0)
(7691.54 -46973 0)
(7628.56 -51504.6 0)
(7270.26 -56082.1 0)
(6444.53 -60191.5 0)
(4890.22 -63744.6 0)
(3483.37 -65955.3 0)
(1603.94 -67745 0)
(-1601.01 -67747 0)
(-3490.33 -65948.1 0)
(-4899.16 -63730.9 0)
(-6456.92 -60165.1 0)
(-7291.6 -56047.5 0)
(-7648.03 -51441.2 0)
(-7722.15 -46906.8 0)
(-7599.3 -42308 0)
(-7311.84 -38063.8 0)
(-6933.05 -33892.4 0)
(-6454.63 -30125.2 0)
(-5985.71 -26517.3 0)
(-5531.61 -23285.7 0)
(-5065.87 -20195.7 0)
(-4712.19 -17473.1 0)
(-4002.18 -14773.7 0)
(-3185.77 -12861 0)
(1012.36 -11215.6 0)
(132273 -13811.6 0)
(-153694 -159816 0)
(160435 167031 0)
(-137664 14866.9 0)
(-1326.7 12093.8 0)
(3013.44 13629.5 0)
(3848.16 15439.6 0)
(4555.31 18026.1 0)
(4948.89 20636.5 0)
(5439.75 23651.9 0)
(5904.66 26802.2 0)
(6407.25 30342.9 0)
(6875.5 34088.3 0)
(7274.65 38182.6 0)
(7575.97 42430.4 0)
(7691.54 46973 0)
(7628.56 51504.6 0)
(7270.26 56082.1 0)
(6444.53 60191.5 0)
(4890.22 63744.6 0)
(3483.37 65955.3 0)
(1603.94 67745 0)
(-1601.01 67747 0)
(-3490.33 65948.1 0)
(-4899.16 63730.9 0)
(-6456.92 60165.1 0)
(-7291.6 56047.5 0)
(-7648.03 51441.2 0)
(-7722.15 46906.8 0)
(-7599.3 42308 0)
(-7311.84 38063.8 0)
(-6933.05 33892.4 0)
(-6454.63 30125.2 0)
(-5985.71 26517.3 0)
(-5531.61 23285.7 0)
(-5065.87 20195.7 0)
(-4712.19 17473.1 0)
(-4002.18 14773.7 0)
(-3185.77 12861 0)
(1012.36 11215.6 0)
(132273 13811.6 0)
(-153694 159816 0)
(14848.9 -142180 0)
(-11639.2 -11641.4 0)
(134.308 -8496.41 0)
(210.779 -9853.89 0)
(388.551 -11262.3 0)
(452.605 -13338.9 0)
(472.271 -15439 0)
(501.669 -17915.4 0)
(543.084 -20502.8 0)
(613.942 -23420.7 0)
(679.113 -26448.3 0)
(764.075 -29775.5 0)
(894.768 -33140.7 0)
(1052.76 -36744.8 0)
(1149.32 -40272.8 0)
(1100.74 -43926.5 0)
(939.308 -47263.8 0)
(663.967 -50232.9 0)
(371.581 -52107.8 0)
(122.606 -53723.4 0)
(-130.559 -53731 0)
(-379.732 -52116.7 0)
(-673.58 -50246.9 0)
(-947.133 -47279.3 0)
(-1115.04 -43943.7 0)
(-1160.2 -40290.3 0)
(-1078.92 -36760.9 0)
(-922.138 -33153.3 0)
(-797.754 -29785.3 0)
(-716.915 -26453.3 0)
(-652.297 -23415.4 0)
(-605.077 -20507.3 0)
(-560.065 -17900 0)
(-535.361 -15412.5 0)
(-512.67 -13262.9 0)
(-442.255 -11122.6 0)
(-242.918 -9652.94 0)
(-96.3054 -8181.7 0)
(10923.8 -11035.6 0)
(-13620 -137484 0)
(12207.2 -1036.95 0)
(-8842.21 41.1569 0)
(395.84 293.516 0)
(348.083 446.185 0)
(489.911 537.634 0)
(530.583 594.26 0)
(538.754 621.375 0)
(560.023 643.944 0)
(599.588 664.183 0)
(677.999 684.976 0)
(751.747 716.566 0)
(825.553 748.311 0)
(860.151 763.652 0)
(818.8 698.504 0)
(707.984 509.975 0)
(533.488 223.878 0)
(367.462 -93.0019 0)
(222.405 -379.48 0)
(119.76 -562.078 0)
(39.6924 -655.856 0)
(-52.6559 -658.291 0)
(-132.891 -568.936 0)
(-237.66 -390.96 0)
(-382.902 -108.41 0)
(-556.81 202.892 0)
(-726.423 484.66 0)
(-844.681 668.918 0)
(-877.418 733.958 0)
(-855.483 717.974 0)
(-794.695 678.922 0)
(-724.779 641.829 0)
(-670.872 605.5 0)
(-622.105 574.525 0)
(-597.477 541.374 0)
(-578.347 506.933 0)
(-523.443 465.457 0)
(-351.771 393.857 0)
(-319.988 280.428 0)
(7672.64 60.4314 0)
(-10575.1 -1751.33 0)
(13889.4 3326.73 0)
(-10357.1 255.964 0)
(524.608 380.072 0)
(446.019 492.808 0)
(531.241 534.814 0)
(533.301 557.443 0)
(520.149 543.897 0)
(542.921 526.35 0)
(582.624 507.619 0)
(664.42 490.695 0)
(740.144 473.612 0)
(809.448 461.09 0)
(846.772 433.439 0)
(808.308 413.801 0)
(691.953 388.656 0)
(519.687 369.717 0)
(357.89 352.052 0)
(211.948 339.27 0)
(105.255 329.444 0)
(29.892 317.633 0)
(-46.8 314.912 0)
(-122.122 321.704 0)
(-229.8 326.617 0)
(-374.876 336.295 0)
(-543.539 349.928 0)
(-711.124 369.355 0)
(-838.683 386.622 0)
(-874.866 402.522 0)
(-850.789 413.558 0)
(-790.291 418.712 0)
(-723.05 421.527 0)
(-669.934 421.598 0)
(-621.859 425.175 0)
(-600.495 424.983 0)
(-585.827 422.915 0)
(-551.219 413.951 0)
(-421.219 386.855 0)
(-417.606 314.788 0)
(8965.9 213.762 0)
(-11990.6 3006.53 0)
(15659.6 3909.41 0)
(-11681.7 450.915 0)
(624.071 562.166 0)
(497.198 629.04 0)
(552.196 656.31 0)
(539.335 676.15 0)
(508.791 681.257 0)
(525.064 669.164 0)
(565.229 653.971 0)
(645.228 636.754 0)
(723.219 613.331 0)
(786.84 601.578 0)
(814.581 577.94 0)
(775.646 557.065 0)
(665.504 525.126 0)
(498.215 497.63 0)
(338.122 470.781 0)
(200.619 452.43 0)
(98.9097 441.851 0)
(25.6888 434.18 0)
(-48.7329 430.853 0)
(-121.612 432.304 0)
(-223.6 436.559 0)
(-360.439 449.514 0)
(-524.952 469.431 0)
(-691.063 495.307 0)
(-812.72 515.849 0)
(-851.462 535.597 0)
(-839.882 541.329 0)
(-787.015 544.917 0)
(-721.998 545.112 0)
(-667.357 546.974 0)
(-618.843 550.336 0)
(-599.656 553.036 0)
(-588.978 551.951 0)
(-558.191 545.377 0)
(-447.328 537.732 0)
(-486.786 507.123 0)
(10266.5 423.021 0)
(-13678.3 3833.21 0)
(18091.1 4411.2 0)
(-13582.7 523.937 0)
(696.256 619.025 0)
(536.74 670.147 0)
(576.638 699.377 0)
(557.342 716.369 0)
(513.416 728.96 0)
(516.627 725.039 0)
(551.393 717.765 0)
(625.258 702.349 0)
(706.248 688.478 0)
(775.343 681.667 0)
(803.877 672.047 0)
(757.415 663.661 0)
(634.68 641.473 0)
(467.318 621.334 0)
(314.334 604.984 0)
(184.069 594.483 0)
(87.6683 588.799 0)
(19.2943 583.857 0)
(-48.6074 580.555 0)
(-116.624 579.215 0)
(-213.216 578.745 0)
(-343.199 583.253 0)
(-499.411 592.901 0)
(-666.394 608.643 0)
(-799.858 621.086 0)
(-850.313 624.411 0)
(-841.808 617.35 0)
(-786.646 611.211 0)
(-721.067 603.416 0)
(-664.899 598.623 0)
(-616.017 596.601 0)
(-598.939 595.691 0)
(-593.208 594.299 0)
(-564.92 588.941 0)
(-458.082 584.195 0)
(-528.147 573.55 0)
(12171 506.806 0)
(-16092.1 4525.72 0)
(20415.3 4459.72 0)
(-15336 545.752 0)
(764.964 639.25 0)
(574.629 688.443 0)
(596.737 721.795 0)
(567.842 733.953 0)
(517.146 756.065 0)
(514.276 757.284 0)
(543.364 756.679 0)
(617.006 752.162 0)
(703.29 750.963 0)
(771.006 755.414 0)
(797.229 755.445 0)
(746.184 753.594 0)
(624.716 740.743 0)
(463.052 732.22 0)
(312.248 727.267 0)
(185.023 725.465 0)
(88.6699 725.855 0)
(17.7443 723.836 0)
(-53.2058 720.665 0)
(-123.355 716.67 0)
(-219.709 710.497 0)