/*--------------------------------*- C++ -*----------------------------------*\
| =========                 |                                                 |
| \\      /  F ield         | OpenFOAM: The Open Source CFD Toolbox           |
|  \\    /   O peration     | Version:  v1912                                 |
|   \\  /    A nd           | Website:  www.openfoam.com                      |
|    \\/     M anipulation  |                                                 |
\*---------------------------------------------------------------------------*/
FoamFile
{
    version     2.0;
    format      ascii;
    class       volScalarField;
    location    "0.06";
    object      normU;
}
// * * * * * * * * * * * * * * * * * * * * * * * * * * * * * * * * * * * * * //

dimensions      [0 -1 0 0 0 0 0];


internalField   nonuniform List<scalar> 
4800
(
0
0
3.73399e-14
3.73399e-14
3.73399e-14
3.73399e-14
3.73399e-14
5.28066e-14
0
3.73399e-14
3.73399e-14
5.28066e-14
3.73399e-14
3.73399e-14
3.73399e-14
0
0
0
0
0
3.73399e-14
3.73399e-14
0
0
0
3.73399e-14
7.46798e-14
3.73399e-14
8.34946e-14
0
7.46798e-14
3.73399e-14
0
0
0
3.73399e-14
3.73399e-14
1.05613e-13
0
0.956218
0
3.73399e-14
3.73399e-14
3.73399e-14
0
3.73399e-14
0
0
5.28066e-14
3.73399e-14
0
0
0
3.73399e-14
3.73399e-14
0
3.73399e-14
0
0
0
0
3.73399e-14
0
3.73399e-14
3.73399e-14
8.34946e-14
3.73399e-14
5.28066e-14
0
3.73399e-14
3.73399e-14
7.46798e-14
3.73399e-14
0
0
0
3.73399e-14
3.73399e-14
7.46798e-14
5.87187e-07
0
7.46798e-14
0
0
0
0
0
0
0
0
0
0
7.46798e-14
0
7.46798e-14
8.34946e-14
0
7.46798e-14
0
0
7.46798e-14
7.46798e-14
5.28066e-14
3.73399e-14
3.73399e-14
3.73399e-14
7.46798e-14
8.34946e-14
0
7.46798e-14
7.46798e-14
3.73399e-14
7.46798e-14
0
0
3.73399e-14
3.73399e-14
7.46798e-14
0
4.37053e-13
3.73399e-14
3.73399e-14
3.73399e-14
3.73399e-14
0
3.73399e-14
3.73399e-14
0
5.28066e-14
3.73399e-14
5.28066e-14
3.73399e-14
3.73399e-14
3.73399e-14
5.28066e-14
3.73399e-14
5.28066e-14
3.73399e-14
0
3.73399e-14
3.73399e-14
3.73399e-14
3.73399e-14
0
8.34946e-14
8.34946e-14
5.28066e-14
5.28066e-14
8.34946e-14
0
8.34946e-14
3.73399e-14
3.73399e-14
0
0
0
7.46798e-14
3.73399e-14
1.18079e-13
2.01082e-13
3.73399e-14
5.28066e-14
3.73399e-14
5.28066e-14
5.28066e-14
5.28066e-14
3.73399e-14
5.28066e-14
3.73399e-14
3.73399e-14
5.28066e-14
0
3.73399e-14
0
3.73399e-14
0
5.28066e-14
5.28066e-14
0
3.73399e-14
3.73399e-14
3.73399e-14
8.34946e-14
5.28066e-14
3.73399e-14
0
3.73399e-14
5.28066e-14
3.73399e-14
0
3.73399e-14
3.73399e-14
7.46798e-14
3.73399e-14
3.73399e-14
0
0
3.73399e-14
5.28066e-14
7.46798e-14
5.28066e-14
0
3.73399e-14
5.28066e-14
0
3.73399e-14
5.28066e-14
3.73399e-14
3.73399e-14
5.28066e-14
5.28066e-14
5.28066e-14
0
3.73399e-14
5.28066e-14
0
5.28066e-14
7.46798e-14
3.73399e-14
0
0
5.28066e-14
7.46798e-14
3.73399e-14
3.73399e-14
0
5.28066e-14
0
8.34946e-14
3.73399e-14
7.46798e-14
0
3.73399e-14
3.73399e-14
3.73399e-14
3.73399e-14
8.34946e-14
7.46798e-14
7.46798e-14
8.34946e-14
3.73399e-14
0
0
0
3.73399e-14
3.73399e-14
3.73399e-14
5.28066e-14
3.73399e-14
0
0
5.28066e-14
0
3.73399e-14
3.73399e-14
0
3.73399e-14
3.73399e-14
5.28066e-14
0
0
3.73399e-14
3.73399e-14
3.73399e-14
7.46798e-14
8.34946e-14
8.34946e-14
3.73399e-14
7.46798e-14
3.73399e-14
1.05613e-13
3.73399e-14
8.34946e-14
0
3.73399e-14
3.73399e-14
8.34946e-14
0
3.73399e-14
3.73399e-14
3.73399e-14
0
5.28066e-14
5.28066e-14
0
0
0
3.73399e-14
3.73399e-14
7.46798e-14
8.34946e-14
3.73399e-14
3.73399e-14
5.28066e-14
0
0
3.73399e-14
7.46798e-14
5.28066e-14
3.73399e-14
0
3.73399e-14
7.46798e-14
8.34946e-14
8.34946e-14
8.34946e-14
0
0
0
3.73399e-14
7.46798e-14
0
3.73399e-14
0
5.28066e-14
0
3.73399e-14
3.73399e-14
8.34946e-14
3.73399e-14
5.28066e-14
0
3.73399e-14
5.28066e-14
0
3.73399e-14
3.73399e-14
0
5.28066e-14
0
3.73399e-14
5.28066e-14
0
3.73399e-14
3.73399e-14
3.73399e-14
3.73399e-14
3.73399e-14
3.73399e-14
3.73399e-14
3.73399e-14
7.46798e-14
3.73399e-14
1.18079e-13
3.73399e-14
7.46798e-14
1.18079e-13
8.34946e-14
0
0
7.46798e-14
3.73399e-14
3.73399e-14
0
0
3.73399e-14
3.73399e-14
3.73399e-14
0
5.28066e-14
5.28066e-14
0
5.28066e-14
5.28066e-14
5.28066e-14
5.28066e-14
5.28066e-14
3.73399e-14
7.46798e-14
3.73399e-14
0
0
3.73399e-14
3.73399e-14
3.73399e-14
3.73399e-14
0
3.73399e-14
0
3.73399e-14
3.73399e-14
0
5.28066e-14
5.28066e-14
3.73399e-14
3.73399e-14
3.73399e-14
5.28066e-14
8.34946e-14
7.46798e-14
8.34946e-14
0
3.73399e-14
0
8.34946e-14
0
5.28066e-14
7.46798e-14
3.73399e-14
3.73399e-14
3.73399e-14
0
5.28066e-14
3.73399e-14
3.73399e-14
7.46798e-14
3.73399e-14
3.73399e-14
8.34946e-14
5.28066e-14
3.73399e-14
8.34946e-14
0
0
7.46798e-14
0
3.73399e-14
0
8.34946e-14
3.73399e-14
0
5.28066e-14
0
7.46798e-14
3.73399e-14
3.73399e-14
8.34946e-14
5.28066e-14
5.28066e-14
3.73399e-14
8.34946e-14
3.73399e-14
3.73399e-14
5.28066e-14
3.73399e-14
3.73399e-14
3.73399e-14
0
5.28066e-14
8.34946e-14
3.73399e-14
5.28066e-14
0
5.28066e-14
0
3.73399e-14
5.28066e-14
7.46798e-14
8.34946e-14
8.34946e-14
5.28066e-14
3.73399e-14
5.28066e-14
3.73399e-14
5.28066e-14
0
3.73399e-14
3.73399e-14
1.34631e-13
7.46798e-14
5.28066e-14
3.73399e-14
3.73399e-14
8.34946e-14
3.73399e-14
3.73399e-14
7.46798e-14
5.28066e-14
3.73399e-14
7.46798e-14
3.73399e-14
0
1.05613e-13
0
3.73399e-14
7.46798e-14
0
7.46798e-14
8.34946e-14
3.73399e-14
0
3.73399e-14
7.46798e-14
0
0
3.73399e-14
0
3.73399e-14
3.73399e-14
5.28066e-14
5.28066e-14
3.73399e-14
3.73399e-14
3.73399e-14
5.28066e-14
3.73399e-14
0
3.73399e-14
3.73399e-14
0
3.73399e-14
3.73399e-14
3.73399e-14
3.73399e-14
3.73399e-14
3.73399e-14
0
5.28066e-14
3.73399e-14
7.46798e-14
1.18079e-13
0
8.34946e-14
3.73399e-14
0
0
3.73399e-14
3.73399e-14
3.73399e-14
3.73399e-14
8.34946e-14
0
3.73399e-14
7.46798e-14
3.73399e-14
8.34946e-14
0
0
3.73399e-14
3.73399e-14
3.73399e-14
3.73399e-14
5.28066e-14
0
8.34946e-14
3.73399e-14
5.28066e-14
3.73399e-14
3.73399e-14
3.73399e-14
3.73399e-14
5.28066e-14
3.73399e-14
8.34946e-14
3.73399e-14
3.73399e-14
7.46798e-14
5.28066e-14
3.73399e-14
5.28066e-14
8.34946e-14
5.28066e-14
8.34946e-14
3.73399e-14
3.73399e-14
0
7.46798e-14
0
3.73399e-14
5.28066e-14
3.73399e-14
5.28066e-14
8.34946e-14
3.73399e-14
3.73399e-14
0
3.73399e-14
3.73399e-14
5.28066e-14
3.73399e-14
5.28066e-14
7.46798e-14
3.73399e-14
3.73399e-14
5.28066e-14
0
5.28066e-14
3.73399e-14
3.73399e-14
3.73399e-14
5.28066e-14
3.73399e-14
3.73399e-14
8.34946e-14
0
3.73399e-14
7.46798e-14
3.73399e-14
1.1202e-13
1.1202e-13
0
3.73399e-14
8.34946e-14
0
7.46798e-14
5.28066e-14
8.34946e-14
3.73399e-14
0
3.73399e-14
5.28066e-14
3.73399e-14
0
0
0
3.73399e-14
5.28066e-14
3.73399e-14
3.73399e-14
3.73399e-14
5.28066e-14
0
3.73399e-14
3.73399e-14
3.73399e-14
3.73399e-14
3.73399e-14
3.73399e-14
3.73399e-14
5.28066e-14
5.28066e-14
3.73399e-14
5.28066e-14
3.73399e-14
7.46798e-14
3.73399e-14
0
5.28066e-14
8.34946e-14
0
7.46798e-14
0
8.34946e-14
0
8.34946e-14
3.73399e-14
3.73399e-14
3.73399e-14
0
0
3.73399e-14
1.1202e-13
7.46798e-14
5.28066e-14
3.73399e-14
5.28066e-14
3.73399e-14
0
3.73399e-14
3.73399e-14
5.28066e-14
3.73399e-14
8.34946e-14
0
1.18079e-13
3.73399e-14
1.1202e-13
1.18079e-13
3.73399e-14
3.73399e-14
3.73399e-14
0
3.73399e-14
7.46798e-14
0
0
0
8.34946e-14
8.34946e-14
3.73399e-14
3.73399e-14
3.73399e-14
0
3.73399e-14
7.46798e-14
7.46798e-14
0
0
5.28066e-14
3.73399e-14
5.28066e-14
5.28066e-14
0
0
1.1202e-13
3.73399e-14
0
0
0
0
3.73399e-14
0
3.73399e-14
3.73399e-14
3.73399e-14
3.73399e-14
3.73399e-14
0
0
0
0
3.73399e-14
3.73399e-14
7.46798e-14
1.18079e-13
3.73399e-14
7.46798e-14
0
1.1202e-13
0
3.73399e-14
3.73399e-14
8.34946e-14
0
3.73399e-14
8.34946e-14
8.34946e-14
3.73399e-14
7.46798e-14
3.73399e-14
1.18079e-13
0
3.73399e-14
3.73399e-14
3.73399e-14
1.1202e-13
7.46798e-14
0
0
0
7.46798e-14
8.34946e-14
7.46798e-14
0
0
0
7.46798e-14
0
0
3.73399e-14
0
1.18079e-13
3.73399e-14
7.46798e-14
3.73399e-14
3.73399e-14
1.05613e-13
0
7.46798e-14
7.46798e-14
7.46798e-14
7.46798e-14
0
1.05613e-13
7.46798e-14
3.73399e-14
3.73399e-14
8.34946e-14
0
7.46798e-14
5.28066e-14
3.73399e-14
3.73399e-14
3.73399e-14
7.46798e-14
0
3.73399e-14
0
0
0
0
3.73399e-14
3.73399e-14
3.73399e-14
0
0
3.73399e-14
0
0
0
3.73399e-14
1.18079e-13
7.46798e-14
7.46798e-14
1.1202e-13
3.73399e-14
0
0
3.73399e-14
7.46798e-14
0
0
1.05613e-13
0
7.46798e-14
0
0
3.73399e-14
3.73399e-14
3.73399e-14
3.73399e-14
0
0
0
0
0
0
0
3.73399e-14
3.73399e-14
0
3.73399e-14
8.34946e-14
7.46798e-14
3.73399e-14
3.73399e-14
7.46798e-14
7.46798e-14
0
3.73399e-14
3.73399e-14
0
0
1.1202e-13
7.46798e-14
0
3.73399e-14
3.73399e-14
0
3.73399e-14
8.34946e-14
0
8.34946e-14
0
1.1202e-13
0
0
3.73399e-14
5.28066e-14
3.73399e-14
0
0
3.73399e-14
3.73399e-14
3.73399e-14
3.73399e-14
3.73399e-14
3.73399e-14
0
3.73399e-14
3.73399e-14
1.1202e-13
8.34946e-14
5.28066e-14
3.73399e-14
3.73399e-14
3.73399e-14
3.73399e-14
0
3.73399e-14
0
1.18079e-13
5.28066e-14
5.28066e-14
8.34946e-14
1.05613e-13
0
0
3.73399e-14
1.1202e-13
8.34946e-14
0
7.46798e-14
1.05613e-13
3.73399e-14
0
0
5.28066e-14
8.34946e-14
7.46798e-14
3.73399e-14
7.46798e-14
0
7.46798e-14
0
0
3.73399e-14
0
0
8.34946e-14
0
8.34946e-14
3.73399e-14
7.46798e-14
3.73399e-14
0
3.73399e-14
7.46798e-14
0
3.73399e-14
0
1.18079e-13
3.73399e-14
1.4936e-13
5.28066e-14
8.34946e-14
1.4936e-13
3.73399e-14
7.46798e-14
1.18079e-13
7.46798e-14
5.28066e-14
1.1202e-13
8.34946e-14
1.05613e-13
3.73399e-14
0
8.34946e-14
7.46798e-14
7.46798e-14
3.73399e-14
3.73399e-14
3.73399e-14
0
0
3.73399e-14
3.73399e-14
3.73399e-14
3.73399e-14
3.73399e-14
3.73399e-14
3.73399e-14
0
0
3.73399e-14
0
0
0
8.34946e-14
5.28066e-14
0
0
5.28066e-14
5.28066e-14
7.46798e-14
1.34631e-13
8.34946e-14
1.1202e-13
1.34631e-13
1.1202e-13
3.73399e-14
1.18079e-13
3.73399e-14
0
3.73399e-14
3.73399e-14
3.73399e-14
3.73399e-14
8.34946e-14
8.34946e-14
3.73399e-14
3.73399e-14
3.73399e-14
3.73399e-14
8.34946e-14
5.28066e-14
3.73399e-14
5.28066e-14
3.73399e-14
8.34946e-14
1.18079e-13
8.34946e-14
1.4936e-13
7.46798e-14
5.28066e-14
0
3.73399e-14
8.34946e-14
0
8.34946e-14
7.46798e-14
3.73399e-14
8.34946e-14
1.18079e-13
1.18079e-13
8.34946e-14
2.24039e-13
8.34946e-14
1.53956e-13
3.73399e-14
1.867e-13
0
7.46798e-14
3.73399e-14
8.34946e-14
3.73399e-14
0
5.28066e-14
3.73399e-14
0
1.18079e-13
8.34946e-14
7.46798e-14
7.46798e-14
0
5.28066e-14
3.73399e-14
3.73399e-14
5.28066e-14
5.28066e-14
7.46798e-14
1.05613e-13
1.53956e-13
2.36158e-13
8.34946e-14
1.1202e-13
8.34946e-14
8.34946e-14
3.73399e-14
7.46798e-14
7.46798e-14
5.28066e-14
7.46798e-14
1.18079e-13
3.73399e-14
5.28066e-14
7.46798e-14
0
1.4936e-13
1.4936e-13
3.73399e-14
7.46798e-14
0
8.34946e-14
3.73399e-14
0
8.34946e-14
7.46798e-14
8.34946e-14
5.28066e-14
0
0
0
5.28066e-14
5.28066e-14
5.28066e-14
3.73399e-14
1.05613e-13
3.73399e-14
5.28066e-14
3.73399e-14
1.4936e-13
1.4936e-13
7.46798e-14
3.73399e-14
0
0
1.1202e-13
3.73399e-14
7.46798e-14
1.1202e-13
0
1.34631e-13
5.28066e-14
1.5842e-13
8.34946e-14
7.46798e-14
1.1202e-13
3.73399e-14
1.1202e-13
5.28066e-14
8.34946e-14
0
3.73399e-14
7.46798e-14
5.28066e-14
0
1.18079e-13
3.73399e-14
3.73399e-14
0
0
0
0
3.73399e-14
0
3.73399e-14
0
8.34946e-14
1.1202e-13
5.28066e-14
0
5.28066e-14
3.73399e-14
5.28066e-14
5.28066e-14
3.73399e-14
5.28066e-14
5.28066e-14
3.73399e-14
3.73399e-14
3.73399e-14
3.73399e-14
7.46798e-14
0
0
5.28066e-14
5.28066e-14
0
3.73399e-14
3.73399e-14
3.73399e-14
0
0
8.34946e-14
1.05613e-13
3.73399e-14
8.34946e-14
3.73399e-14
8.34946e-14
0
3.73399e-14
0
0
0
3.73399e-14
7.46798e-14
0
0
3.73399e-14
3.73399e-14
0
0
3.73399e-14
0
0
3.73399e-14
3.73399e-14
0
0
3.73399e-14
3.73399e-14
0
7.46798e-14
1.18079e-13
7.46798e-14
7.46798e-14
0
1.1202e-13
3.73399e-14
0
3.73399e-14
7.46798e-14
3.73399e-14
7.46798e-14
1.05613e-13
7.46798e-14
1.18079e-13
3.73399e-14
3.73399e-14
1.1202e-13
0
7.46798e-14
0
8.34946e-14
5.28066e-14
7.46798e-14
5.28066e-14
5.28066e-14
0
3.73399e-14
7.46798e-14
0
0
0
0
8.34946e-14
0
0
3.73399e-14
3.73399e-14
1.05613e-13
3.73399e-14
1.05613e-13
0
7.46798e-14
7.46798e-14
0
7.46798e-14
7.46798e-14
7.46798e-14
0
0
7.46798e-14
7.46798e-14
0
8.34946e-14
3.73399e-14
3.73399e-14
0
3.73399e-14
3.73399e-14
0
1.1202e-13
3.73399e-14
7.46798e-14
1.34631e-13
8.34946e-14
3.73399e-14
7.46798e-14
0
0
3.73399e-14
0
0
3.73399e-14
0
5.28066e-14
7.46798e-14
5.28066e-14
0
0
1.18079e-13
0
0
1.34631e-13
0
8.34946e-14
7.46798e-14
8.34946e-14
3.73399e-14
0
1.05613e-13
0
7.46798e-14
3.73399e-14
0
1.1202e-13
7.46798e-14
0
1.18079e-13
7.46798e-14
0
7.46798e-14
3.73399e-14
7.46798e-14
3.73399e-14
0
0
0
7.46798e-14
0
0
7.46798e-14
0
7.46798e-14
0
7.46798e-14
0
3.73399e-14
7.46798e-14
8.34946e-14
3.73399e-14
3.73399e-14
3.73399e-14
5.28066e-14
7.46798e-14
0
1.1202e-13
7.46798e-14
1.05613e-13
0
1.05613e-13
3.73399e-14
7.46798e-14
0
0
0
3.73399e-14
3.73399e-14
5.28066e-14
5.28066e-14
0
3.73399e-14
0
3.73399e-14
3.73399e-14
3.73399e-14
0
7.46798e-14
0
0
0
7.46798e-14
3.73399e-14
0
0
3.73399e-14
3.73399e-14
3.73399e-14
3.73399e-14
3.73399e-14
3.73399e-14
8.34946e-14
3.73399e-14
7.46798e-14
7.46798e-14
0
3.73399e-14
0
0
8.34946e-14
7.46798e-14
0
1.05613e-13
7.46798e-14
0
7.46798e-14
3.73399e-14
8.34946e-14
5.28066e-14
0
3.73399e-14
7.46798e-14
0
0
3.73399e-14
3.73399e-14
7.46798e-14
0
3.73399e-14
0
3.73399e-14
0
3.73399e-14
0
0
0
3.73399e-14
0
0
0
3.73399e-14
7.46798e-14
8.34946e-14
0
0
3.73399e-14
8.34946e-14
3.73399e-14
3.73399e-14
7.46798e-14
0
7.46798e-14
8.34946e-14
0
0
0
0
3.73399e-14
3.73399e-14
3.73399e-14
0
3.73399e-14
3.73399e-14
3.73399e-14
3.73399e-14
0
0
7.46798e-14
3.73399e-14
0
3.73399e-14
3.73399e-14
3.73399e-14
3.73399e-14
3.73399e-14
3.73399e-14
0
3.73399e-14
3.73399e-14
0
3.73399e-14
8.34946e-14
8.34946e-14
3.73399e-14
1.1202e-13
3.73399e-14
3.73399e-14
5.28066e-14
7.46798e-14
3.73399e-14
7.46798e-14
3.73399e-14
3.73399e-14
8.34946e-14
7.46798e-14
5.28066e-14
5.28066e-14
3.73399e-14
0
0
0
0
0
0
0
0
0
0
0
0
3.73399e-14
0
5.28066e-14
0
0
0
0
0
3.73399e-14
0
5.28066e-14
8.34946e-14
7.46798e-14
8.34946e-14
1.18079e-13
3.73399e-14
0
0
7.46798e-14
0
3.73399e-14
0
7.46798e-14
1.05613e-13
7.46798e-14
0
3.73399e-14
7.46798e-14
3.73399e-14
0
0
0
0
0
0
0
0
3.73399e-14
3.73399e-14
0
0
5.28066e-14
3.73399e-14
5.28066e-14
3.73399e-14
0
3.73399e-14
3.73399e-14
0
0
3.73399e-14
3.73399e-14
8.34946e-14
0
3.73399e-14
7.46798e-14
0
3.73399e-14
0
3.73399e-14
3.73399e-14
0
0
0
0
5.28066e-14
5.28066e-14
3.73399e-14
3.73399e-14
3.73399e-14
3.73399e-14
3.73399e-14
5.28066e-14
3.73399e-14
3.73399e-14
5.28066e-14
8.34946e-14
1.18079e-13
1.18079e-13
5.28066e-14
8.34946e-14
8.34946e-14
7.46798e-14
5.28066e-14
5.28066e-14
7.46798e-14
3.73399e-14
7.46798e-14
3.73399e-14
3.73399e-14
3.73399e-14
3.73399e-14
8.34946e-14
0
7.46798e-14
7.46798e-14
3.73399e-14
0
8.34946e-14
3.73399e-14
3.73399e-14
3.73399e-14
8.34946e-14
8.34946e-14
1.1202e-13
3.73399e-14
3.73399e-14
3.73399e-14
0
3.73399e-14
0
0
3.73399e-14
0
5.28066e-14
8.34946e-14
3.73399e-14
7.46798e-14
7.46798e-14
0
3.73399e-14
1.18079e-13
3.73399e-14
7.46798e-14
5.28066e-14
0
3.73399e-14
0
3.73399e-14
3.73399e-14
0
7.46798e-14
7.46798e-14
8.34946e-14
1.18079e-13
3.73399e-14
0
3.73399e-14
7.46798e-14
3.73399e-14
0
0
7.46798e-14
7.46798e-14
5.28066e-14
3.73399e-14
0
8.34946e-14
3.73399e-14
0
0
0
0
0
0
0
3.73399e-14
7.46798e-14
7.46798e-14
3.73399e-14
7.46798e-14
3.73399e-14
1.4936e-13
0
3.73399e-14
7.46798e-14
3.73399e-14
7.46798e-14
7.46798e-14
0
8.34946e-14
5.28066e-14
8.34946e-14
5.28066e-14
0
3.73399e-14
3.73399e-14
3.73399e-14
0
3.73399e-14
3.73399e-14
0
3.73399e-14
3.73399e-14
7.46798e-14
0
3.73399e-14
5.28066e-14
10.7308
11.2615
13.0412
12.7483
10.6421
10.6018
10.05
8.90498
6.12122
4.42846
4.15275
4.04344
1.30838
1.41984
1.71193
1.51662
0.918212
2.49372
1.84174
0.203613
0.445047
0.489233
0.776948
0.990337
0.956256
0.892587
0.716685
0.712425
0.870919
0.841903
0.978725
0.829099
0.635711
0.417988
0.175713
0.302284
0.385364
0.338418
0.329869
0.355117
0.291338
0.282193
0.302557
0.2734
0.219651
0.19843
0.172283
0.116859
0.0923227
0.121432
0.205102
0.238266
0.332769
0.514961
0.793064
0.627452
0.324984
0.2767
0.279986
0.254685
0.20012
0.148444
0.148072
0.154826
0.139162
0.147076
0.213162
0.323295
0.519905
0.726758
0.54898
0.37624
0.398769
0.391624
0.33956
0.255895
0.224995
0.18441
0.142896
0.133053
0.990548
2.36388
3.18214
5.28902
6.82617
7.77701
8.7178
11.5068
11.8055
11.8028
11.6259
12.1101
11.1034
9.2636
9.68949
8.1794
10.5363
7.68754
4.28382
2.64569
2.14392
2.40853
1.90691
1.53529
1.53234
1.68111
1.88515
1.32188
1.06705
1.51777
1.76661
1.86939
1.59573
1.13865
0.860087
0.858083
0.929433
1.03738
1.16486
1.12769
1.02529
1.02149
1.02954
1.01073
0.89022
0.676722
0.491261
0.442122
0.437201
0.516617
0.615362
0.731219
0.870726
1.01867
1.06327
0.777679
0.88177
0.842183
0.855434
0.739029
0.615678
0.575301
0.586513
0.627408
0.623402
0.609755
0.617785
0.647811
0.74332
0.907688
0.927362
0.898555
0.841162
0.818218
0.850067
0.855463
0.856801
0.777766
0.69079
0.645623
8.66493e-07
0.00246716
0.0179475
0.260369
1.0954
1.67057
2.698
4.90582
6.1772
8.01932
8.86603
9.56813
12.518
11.6761
12.1696
12.4235
12.7068
15.5958
9.06945
5.88595
4.48536
2.09317
0.681226
0.197225
0.493521
0.511548
1.10219
1.04253
0.310064
0.504143
1.11558
1.23526
1.34343
1.31583
1.14797
1.20006
1.32216
1.36942
1.40847
1.42125
1.28759
1.23707
1.34922
1.45456
1.37457
1.21561
1.01826
0.893155
0.866766
0.973914
1.16845
1.25404
1.37871
1.37083
1.29154
1.16644
1.18669
1.25077
1.33049
1.32675
1.22316
1.09967
1.10797
1.16546
1.22565
1.2216
1.24914
1.2885
1.3254
1.43016
1.34314
1.28979
1.32113
1.39454
1.53794
1.50078
1.56161
1.57491
1.53908
1.42535
1.08946e-10
5.06673e-07
5.48754e-08
1.08258e-06
1.05151e-06
1.56301e-05
6.78468e-06
0.00188007
0.0051254
0.127518
0.398859
1.28175
2.83986
3.71557
4.20618
7.79607
5.96671
9.38572
11.6766
9.58759
8.34927
4.24751
4.00515
3.22474
1.04515
0.39421
0.507901
0.363831
0.402442
0.475359
0.509198
0.0917186
0.059003
0.408498
0.559746
0.610002
0.725355
0.706186
0.544752
0.517573
0.589644
0.632543
0.83515
1.03634
1.17207
1.07549
0.871101
0.825415
0.824966
0.906127
1.10687
1.15034
1.17613
1.12084
0.985698
0.924629
1.00717
1.06814
1.1723
1.21154
1.17157
1.10358
1.15161
1.25262
1.39572
1.44521
1.49509
1.57079
1.63823
1.50882
1.33895
1.27193
1.42338
1.47986
1.62972
1.54318
1.85548
1.92945
1.97794
1.94175
2.52056e-13
1.13183e-10
6.04676e-11
5.51579e-10
6.44383e-10
7.22802e-10
9.42962e-09
1.88426e-09
4.19405e-08
2.4187e-08
2.53867e-07
1.02385e-06
0.000325105
0.00199046
0.121674
1.36742
2.48298
2.92038
8.397
9.65771
12.2499
12.5487
11.1417
9.43739
4.72214
4.40154
1.97814
0.475306
1.15263
0.25638
0.228934
0.943084
1.11878
0.95998
0.521243
0.206855
0.139475
0.0852376
0.174185
0.325441
0.247978
0.167439
0.0735702
0.257177
0.416767
0.471426
0.354667
0.132581
0.279022
0.336231
0.308472
0.378919
0.437068
0.435141
0.426983
0.617549
0.542744
0.468045
0.452433
0.457075
0.504463
0.557594
0.654025
0.822652
1.0251
1.16789
1.2549
1.35402
1.3744
1.29857
1.17327
0.932738
1.15586
1.14522
1.06851
1.1222
1.59274
1.75247
1.84434
1.92056
1.13962e-13
1.9073e-13
1.3826e-13
1.94994e-13
4.62167e-13
2.12591e-13
1.26037e-12
3.37996e-12
7.01836e-12
4.44976e-12
4.4041e-12
4.76134e-10
4.97494e-07
8.24465e-07
2.06276e-06
1.87645e-06
0.00369428
0.0599509
0.937878
2.31788
4.91539
9.52386
9.33456
11.9257
12.6557
11.5033
10.0457
6.2575
7.25905
1.69615
0.285226
1.12944
0.337437
0.696032
0.716612
0.591568
0.545111
0.576642
0.532255
0.467081
0.5232
0.588257
0.673094
0.60521
0.492619
0.335993
0.248028
0.172274
0.211245
0.258573
0.428081
0.470051
0.565288
0.693808
0.736193
0.688215
0.589683
0.409481
0.320533
0.237051
0.150143
0.13282
0.240694
0.390617
0.498291
0.587255
0.718975
0.755201
0.80139
1.00043
0.754648
0.570114
0.65781
0.577142
0.422499
0.643539
0.862503
1.17584
1.29003
1.42719
1.87352e-14
9.4597e-15
1.11141e-13
9.01922e-14
4.81319e-14
1.26016e-13
7.86975e-14
1.24344e-13
1.12007e-13
2.99122e-14
8.09657e-14
4.45081e-13
5.35874e-10
2.19249e-10
3.38722e-10
8.54512e-10
1.48706e-06
8.45566e-07
1.96493e-06
0.00388642
0.0246601
0.717553
1.72055
4.25668
9.19904
9.72966
12.8258
13.4414
14.3739
11.7396
5.96353
6.74356
2.29517
0.909584
1.52953
0.312418
0.497135
1.22328
1.00321
0.500427
0.491458
0.548929
0.606452
0.731378
0.679531
0.528974
0.406573
0.220927
0.245074
0.192816
0.28758
0.422719
0.614993
0.936757
0.907557
0.83991
0.739914
0.652911
0.497607
0.371617
0.289818
0.287273
0.312869
0.313133
0.24445
0.272227
0.424404
0.581108
0.81472
0.765615
0.325206
0.309536
0.403389
0.35917
0.385875
0.522608
0.511083
0.521805
0.624009
0.746147
7.55238e-14
1.13566e-13
8.49311e-14
9.01953e-14
7.7614e-14
9.54713e-14
1.10438e-13
4.91504e-14
1.69171e-13
1.87334e-13
1.06757e-13
1.71964e-13
4.08722e-13
2.87589e-13
1.43659e-13
1.01696e-12
1.01141e-09
4.88118e-10
1.38887e-09
2.37661e-06
2.78719e-07
9.3072e-07
0.00252476
0.000689038
0.414127
1.18335
4.16909
7.8491
7.20251
13.4903
13.3694
12.9553
11.6812
8.33092
7.03971
2.53399
1.62286
2.5943
0.745846
0.361873
0.162723
0.222599
0.274463
0.428792
0.510165
0.467837
0.408844
0.447992
0.4808
0.269468
0.237588
0.194518
0.18869
0.463221
0.929239
0.757753
0.576959
0.562974
0.454846
0.318818
0.308846
0.319373
0.440617
0.410288
0.292481
0.345823
0.534219
0.773226
0.778597
0.342134
0.247315
0.29926
0.484161
0.5996
0.52064
0.5898
0.563083
0.316655
0.210651
0.222546
7.55238e-14
4.21766e-14
1.21607e-13
4.27552e-14
8.61043e-14
7.81538e-14
2.01233e-13
1.96751e-14
9.93006e-15
8.03903e-14
1.65628e-13
1.11273e-13
5.09532e-14
1.39614e-13
4.62446e-14
2.42985e-13
8.96809e-13
7.73785e-13
8.82464e-13
1.23131e-09
1.56634e-09
4.5604e-10
8.83716e-07
4.71959e-07
5.32989e-07
0.00125543
0.00309637
0.213507
0.691319
4.05677
7.03573
8.11538
13.3632
13.7577
13.386
11.6752
8.15382
7.57847
3.95951
2.03615
1.58359
1.2602
0.0998766
0.222154
0.108557
0.105354
0.210292
0.464441
0.610205
0.409352
0.261298
0.224928
0.227757
0.301883
0.691999
0.697765
0.473142
0.465778
0.383692
0.256931
0.191658
0.198089
0.317457
0.440097
0.439767
0.555081
0.769437
0.775052
0.394254
0.163706
0.251328
0.334945
0.496336
0.714254
0.710128
0.656512
0.628596
0.492501
0.222578
0.0831034
9.36758e-15
5.33496e-14
7.65565e-14
1.01631e-13
4.30571e-14
1.74487e-13
4.36602e-14
1.27791e-13
9.8999e-14
2.99122e-14
8.58073e-14
1.01155e-14
6.11364e-14
1.33438e-13
2.9827e-13
2.50898e-13
3.49388e-13
3.46436e-13
2.59294e-13
3.75865e-13
1.42037e-12
2.9771e-13
3.27291e-10
2.92252e-10
7.71027e-10
2.76539e-07
3.28686e-07
1.71866e-07
0.000746946
0.0014079
0.130633
0.725479
3.79194
5.82603
7.95605
13.4328
13.8598
12.356
11.9413
7.68283
6.6032
2.78573
2.16256
2.78384
1.3248
0.756899
0.438736
0.0203765
0.417032
0.525201
0.313898
0.321374
0.263726
0.145264
0.519299
0.65631
0.319753
0.40328
0.392261
0.280305
0.295946
0.375369
0.488114
0.55492
0.569918
0.756003
0.832136
0.497405
0.213501
0.270818
0.27248
0.428362
0.589573
0.76961
0.871863
0.908539
1.00398
0.844306
0.414028
0.18683
3.74703e-14
1.88763e-14
3.79809e-14
3.82487e-14
7.70147e-14
5.4839e-14
3.51405e-13
7.92526e-14
9.75057e-14
5.64029e-14
1.34735e-13
8.15534e-14
7.96047e-16
1.89267e-13
1.25801e-13
1.71816e-13
8.65552e-14
1.95014e-13
1.34803e-13
2.56165e-13
2.43203e-13
2.27748e-13
4.98583e-13
4.87542e-13
1.64523e-12
1.18385e-10
3.78267e-10
2.21441e-10
2.91125e-09
2.35918e-07
1.79945e-06
0.00107784
0.00340182
0.095849
0.81293
3.81822
6.40202
8.38797
13.1416
13.8155
13.6701
10.2841
8.53967
5.0014
4.67209
1.71559
1.94794
0.769198
0.0892655
0.419031
0.458797
0.25639
0.229992
0.27977
0.671817
0.669924
0.489102
0.395879
0.404356
0.496396
0.579776
0.652977
0.674672
0.566738
0.608708
0.75301
0.611357
0.157355
0.101905
0.247298
0.313881
0.378464
0.465724
0.656435
0.896088
1.02393
1.26997
1.15817
0.86576
0.38877
9.36758e-15
3.88849e-14
9.49522e-15
7.70816e-14
1.29154e-13
6.20676e-14
2.92936e-14
4.91504e-14
4.94995e-14
1.3959e-13
1.2703e-13
1.27954e-13
4.55684e-14
1.31449e-13
1.27906e-13
5.20895e-14
1.83313e-13
8.72159e-14
1.13287e-13
1.07393e-13
8.72569e-14
2.24855e-13
1.8428e-13
1.93513e-13
1.84211e-13
2.9726e-13
1.52293e-13
1.15453e-12
2.38482e-12
2.9818e-10
2.00313e-09
2.33971e-06
5.45557e-07
5.12467e-05
0.00134433
0.00870418
0.139641
0.97886
3.37999
7.03755
9.44516
13.7283
14.2515
11.9533
9.87974
7.31595
3.50359
2.8667
3.25289
1.03462
0.39518
0.449312
0.448641
0.574611
0.796425
0.740009
0.638895
0.438126
0.464453
0.62165
0.944162
0.787488
0.709091
0.640377
0.584933
0.619543
0.379617
0.0898403
0.170496
0.00954123
0.168668
0.232102
0.191271
0.408766
0.726178
0.973462
1.02325
1.11774
1.03739
0.616858
9.36758e-14
3.88919e-14
1.02267e-13
8.55104e-14
8.22513e-14
4.84726e-14
1.1875e-13
9.83007e-14
3.95996e-14
6.38438e-14
1.34735e-13
5.06019e-14
8.21496e-14
0
1.7334e-13
1.95735e-13
3.14895e-13
1.12428e-13
7.68658e-14
1.21501e-13
1.08237e-13
1.70374e-13
1.76241e-13
2.08185e-13
1.41282e-13
5.03618e-14
2.7243e-13
2.46522e-13
4.61712e-13
2.2414e-12
3.10084e-12
2.50488e-11
2.78626e-09
6.30226e-07
1.03937e-05
1.67084e-05
2.98069e-05
0.000939495
0.0125509
0.239277
1.09618
4.87124
6.85253
11.3889
12.6796
14.9708
11.8138
8.43978
8.44396
2.92414
0.628353
1.55912
0.776413
0.461966
0.631944
0.727514
0.523435
0.389079
0.473503
0.74599
0.891451
0.847541
0.864345
0.78936
0.568998
0.55359
0.353876
0.201353
0.223478
0.151172
0.0227554
0.181742
0.155502
0.220913
0.445485
0.803675
0.738707
0.979224
1.04802
0.648855
7.55238e-14
3.77311e-14
3.91498e-14
8.55104e-14
7.76104e-14
1.94015e-14
4.88121e-14
1.21594e-13
7.91992e-14
1.62312e-13
8.03405e-14
3.03875e-14
1.01894e-14
8.27585e-14
5.84953e-14
2.53692e-13
1.52838e-13
3.50289e-13
2.57761e-13
9.60524e-14
1.4721e-13
0
3.39369e-13
1.25373e-13
3.90127e-13
3.18472e-13
4.08802e-13
5.15003e-13
3.90463e-13
4.65425e-13
6.90184e-13
2.51582e-13
4.6999e-11
1.43332e-09
1.03776e-08
2.60141e-07
1.4547e-07
1.40222e-05
3.87178e-05
0.000100664
0.000780244
0.0453977
0.358558
1.89504
5.18571
8.80568
13.4043
14.1178
13.0539
11.0877
8.57668
2.74475
1.79863
2.31843
1.66658
1.30487
0.826026
0.925771
0.741597
0.809416
0.703159
0.760276
0.755946
0.709275
0.446206
0.376846
0.470573
0.176475
0.099807
0.241157
0.0750151
0.109327
0.258946
0.208384
0.140829
0.388961
0.574144
0.724162
1.06002
0.570234
3.74703e-14
3.77311e-14
3.79881e-14
3.82414e-14
7.70111e-14
9.69334e-15
8.73104e-14
8.39882e-14
9.75027e-14
1.99566e-14
8.09695e-14
4.04695e-14
3.05786e-14
1.37712e-13
4.26431e-14
5.20958e-14
1.11581e-13
9.97738e-14
9.10562e-14
1.93302e-13
8.72569e-14
2.54394e-13
1.16861e-13
3.25888e-13
1.34496e-13
6.36996e-14
1.47566e-13
1.66636e-13
3.26379e-13
1.31644e-13
2.41892e-13
2.47084e-13
5.05772e-13
5.40175e-11
1.46498e-10
3.17141e-10
4.70572e-09
1.69128e-08
9.70834e-07
1.23506e-06
2.93331e-05
1.11815e-05
0.000229335
0.00228986
0.0908733
0.754109
3.53185
7.28401
9.22709
14.8557
15.8289
11.4791
9.66331
4.68388
2.81185
3.2696
1.61477
1.00416
0.822156
0.823516
0.704811
0.438733
0.561566
0.571435
0.353467
0.207507
0.655439
0.340533
0.0218155
0.311866
0.268436
0.0982408
0.252277
0.224701
0.206817
0.318544
0.462332
0.555032
0.880964
0.651452
4.18931e-14
3.77239e-14
9.49522e-14
3.94183e-14
6.94168e-14
4.33499e-14
3.90449e-14
1.1959e-13
5.93994e-14
8.22244e-14
5.0219e-14
0
4.20195e-14
3.08038e-14
8.33725e-14
8.39957e-14
1.18753e-13
1.19657e-13
2.142e-13
6.87631e-14
1.26673e-13
1.15944e-13
3.29793e-13
1.419e-13
4.19704e-13
3.84806e-13
4.55325e-13
3.53298e-13
4.34371e-13
7.45037e-13
7.49843e-13
3.55978e-13
2.87419e-13
1.80563e-13
3.57119e-13
1.41325e-11
8.44909e-12
3.88577e-10
1.89233e-09
5.58717e-08
2.79765e-08
2.84878e-07
8.17149e-06
1.68664e-05
3.43077e-05
0.000308453
0.0247785
0.239412
1.42856
6.13188
8.08578
13.3775
14.4997
12.313
9.83989
4.91386
3.15662
5.36665
2.89576
2.32113
0.686383
0.595301
0.820577
0.759766
0.477058
0.105508
0.435785
0.635658
0.187056
0.255707
0.449167
0.158795
0.198292
0.380282
0.263288
0.238217
0.292535
0.4691
0.661765
0.677257
1.09645e-13
2.35774e-14
3.79881e-14
0
1.44396e-14
6.20723e-14
5.52178e-14
6.39001e-14
6.93036e-14
1.64441e-13
1.66312e-13
3.03464e-14
4.20195e-14
1.26967e-13
9.24927e-14
1.96082e-13
3.01714e-13
1.37491e-13
1.17226e-13
4.29559e-14
1.62786e-13
1.37965e-13
9.34453e-14
3.10452e-13
2.99339e-13
1.79538e-13
4.13386e-13
3.00403e-13
3.46177e-13
2.52855e-13
4.70256e-13
3.75876e-13
2.5492e-13
2.43444e-13
9.26776e-14
6.92914e-14
4.20208e-13
3.741e-13
1.0343e-10
3.38968e-11
4.02265e-11
6.99373e-10
9.97362e-09
1.18246e-06
1.26425e-06
1.88305e-05
1.56448e-05
0.000226728
0.00334644
0.126515
0.829626
4.45265
5.96915
11.1357
13.3538
11.7412
9.82495
7.45933
6.91234
5.30146
1.81223
1.27272
1.5916
0.460836
0.507329
0.38008
0.205299
0.741858
0.45982
0.217909
0.421786
0.324506
0.0783985
0.467908
0.320952
0.169525
0.161728
0.283496
0.529253
0.581491
1.03043e-13
4.24394e-14
6.64707e-14
4.78076e-14
1.44591e-14
4.362e-14
5.36922e-14
4.05377e-14
9.93006e-15
2.49268e-14
9.03967e-14
3.03566e-14
4.07654e-14
5.13285e-14
6.62171e-14
4.29618e-14
4.72621e-14
8.52665e-14
5.32909e-14
1.32834e-13
8.45498e-16
4.4971e-14
4.69939e-14
9.41882e-14
1.45201e-13
2.70762e-13
2.76187e-13
3.97479e-13
5.66979e-13
7.78473e-13
7.99622e-13
5.52019e-13
3.51002e-13
3.17799e-13
2.44061e-13
3.44939e-13
3.07271e-13
3.00857e-13
1.55616e-13
1.07916e-13
4.15816e-12
4.83093e-12
7.82039e-10
2.97566e-10
7.39696e-08
6.63734e-08
3.40543e-07
2.04435e-05
1.65162e-05
0.000122024
0.000886509
0.0566754
0.385776
2.44321
4.12051
8.97274
11.4546
8.88536
10.1361
8.14308
8.03296
5.29799
1.44653
2.28039
2.47523
2.0019
0.944217
0.329939
0.673555
0.415425
0.498588
0.61458
0.20691
0.306207
0.505314
0.206387
0.195259
0.214323
0.37998
0.474991
7.55238e-14
8.95972e-14
5.2229e-14
4.51023e-14
4.81378e-14
9.20991e-14
9.27348e-14
1.47651e-14
4.08256e-14
8.51934e-14
1.00426e-14
1.02382e-14
4.35364e-14
5.13285e-14
4.87832e-14
1.09391e-13
5.77533e-14
4.51807e-14
5.86364e-14
5.36949e-14
1.36904e-13
8.52115e-16
5.18828e-14
5.54295e-14
2.79232e-14
1.13961e-14
9.51407e-14
1.25511e-13
5.44377e-14
1.6384e-13
4.70255e-13
3.35584e-13
2.42316e-13
6.01876e-14
1.82136e-14
7.96249e-14
6.17961e-14
1.74556e-13
1.2968e-13
1.19267e-13
2.7665e-13
2.6822e-13
2.42454e-12
2.62336e-11
1.65638e-10
2.56388e-10
6.33992e-10
2.11806e-08
6.6098e-07
8.71565e-06
1.18629e-05
2.33831e-05
1.86554e-05
0.016015
0.142064
1.14145
2.87929
5.83456
7.65262
8.76335
11.6447
10.9442
7.72996
5.07981
4.10201
6.17071
1.18212