/*--------------------------------*- C++ -*----------------------------------*\
| =========                 |                                                 |
| \\      /  F ield         | OpenFOAM: The Open Source CFD Toolbox           |
|  \\    /   O peration     | Version:  v1912                                 |
|   \\  /    A nd           | Website:  www.openfoam.com                      |
|    \\/     M anipulation  |                                                 |
\*---------------------------------------------------------------------------*/
FoamFile
{
    version     2.0;
    format      ascii;
    class       volVectorField;
    location    "3.96";
    object      grad(p);
}
// * * * * * * * * * * * * * * * * * * * * * * * * * * * * * * * * * * * * * //

dimensions      [1 -2 -2 0 0 0 0];


internalField   nonuniform List<vector> 
1900
(
(110325 1.10075 0)
(-86226.1 0.874072 0)
(-7205.97 1.14842 0)
(-1662.45 2.422 0)
(-1859.8 5.0619 0)
(-1746.95 7.9877 0)
(-1641.21 10.6075 0)
(-1590.99 -2.46878 0)
(-1356.64 -155.876 0)
(-1616.59 -381.091 0)
(110327 1.95884 0)
(-86226 1.13343 0)
(-7204.42 0.643251 0)
(-1658.54 1.16506 0)
(-1854.23 -1.53458 0)
(-1741.4 -4.9578 0)
(-1651.66 -3.70019 0)
(-1757.47 -0.16371 0)
(-1735.26 -137.976 0)
(-1909.34 -359.834 0)
(110328 4.36984e-09 0)
(-86227.4 -5.59552e-09 0)
(-7205.94 1.81188e-09 0)
(-1664.63 7.28306e-10 0)
(-1865.92 -8.17124e-10 0)
(-1749.11 -2.78888e-09 0)
(-1636.41 -7.4607e-10 0)
(-1725.26 -4.61853e-10 0)
(-1716.31 2.14939e-09 0)
(-1911.89 9.05942e-10 0)
(110327 -1.95884 0)
(-86226 -1.13343 0)
(-7204.42 -0.643251 0)
(-1658.54 -1.16506 0)
(-1854.23 1.53458 0)
(-1741.4 4.9578 0)
(-1651.66 3.70019 0)
(-1757.47 0.16371 0)
(-1735.26 137.976 0)
(-1909.34 359.834 0)
(110325 -1.10075 0)
(-86226.1 -0.874072 0)
(-7205.97 -1.14842 0)
(-1662.45 -2.422 0)
(-1859.8 -5.0619 0)
(-1746.95 -7.9877 0)
(-1641.21 -10.6075 0)
(-1590.99 2.46878 0)
(-1356.64 155.876 0)
(-1616.59 381.091 0)
(-1867.66 -472.322 1.03356e-11)
(-2239.42 -822.973 -1.22412e-11)
(-3337.68 -1137.75 -1.52082e-11)
(-6229.93 -1281.84 0)
(-6925.73 -80.1401 -6.01718e-11)
(-2241.22 -454.298 1.02503e-11)
(-2661.86 -872.834 1.22412e-11)
(-3267.09 -1091.64 1.52082e-11)
(-5227 -1166.04 0)
(-6041.83 -275.158 0)
(-2524.35 -5.47066e-10 0)
(-2979.86 7.40149e-10 0)
(-3574.03 -2.26979e-09 0)
(-5867.09 2.45595e-09 0)
(-6242.55 -1.11022e-09 0)
(-2241.22 454.298 1.02503e-11)
(-2661.86 872.834 1.22412e-11)
(-3267.09 1091.64 1.52082e-11)
(-5227 1166.04 0)
(-6041.83 275.158 0)
(-1867.66 472.322 -3.08361e-11)
(-2239.42 822.973 -1.22412e-11)
(-3337.68 1137.75 -1.52082e-11)
(-6229.93 1281.84 -4.06479e-11)
(-6925.73 80.1401 6.01718e-11)
(-7964.14 -1071.33 2.4776e-11)
(-9471.37 453.87 -1.85119e-11)
(-6784.92 724.368 0)
(-6117.32 565.532 1.19777e-11)
(-8464.11 -1538.87 -4.92939e-12)
(-7803.69 -1256.97 -1.23719e-11)
(-8984.27 371.882 9.2628e-12)
(-6712.15 560.75 0)
(-7053.9 -4.69497 -7.49668e-12)
(-8615.54 -2571.41 1.2014e-12)
(-7697.12 2.4223e-09 0)
(-9028.2 3.03651e-10 0)
(-6961.58 1.67767e-09 0)
(-7488.03 1.19004e-09 2.99862e-12)
(-8916.82 3.84358e-09 -2.4028e-12)
(-7803.69 1256.97 -1.23719e-11)
(-8984.27 -371.882 9.2628e-12)
(-6712.15 -560.75 0)
(-7053.9 4.69497 -7.49668e-12)
(-8615.54 2571.41 1.2014e-12)
(-7964.14 1071.33 1.23719e-11)
(-9471.37 -453.87 -1.36691e-14)
(-6784.92 -724.368 0)
(-6117.32 -565.532 1.7032e-14)
(-8464.11 1538.87 4.92939e-12)
(-14391 -1339.08 0)
(-8056.11 3510.61 0)
(2116.62 2009.84 0)
(748.686 1482.32 0)
(-953.32 784.388 0)
(-1309.69 394.286 0)
(-1394.27 213.115 0)
(-976.011 57.9 0)
(-533.564 50.1862 0)
(-385.356 25.026 0)
(-285.213 20.0539 0)
(-244.395 14.6113 0)
(-202.238 11.5477 0)
(-165.178 9.33008 0)
(-132.847 8.0857 0)
(-105.987 7.37344 0)
(-84.0379 6.86882 0)
(-65.9306 6.45087 0)
(-53.2709 6.08632 0)
(-44.9099 5.8029 0)
(-38.8425 5.55765 0)
(-37.7271 5.37118 0)
(-38.1959 5.27046 0)
(-38.3769 5.21311 0)
(-38.691 5.20875 0)
(-38.6143 5.26151 0)
(-40.1139 5.38721 0)
(-45.9539 5.59042 0)
(-59.8015 5.87557 0)
(-86.2197 6.02248 0)
(-121.948 6.26839 0)
(-164.179 5.93514 0)
(-188.086 5.58027 0)
(-200.797 7.86889 0)
(-191.8 6.87604 0)
(-185.458 14.1692 0)
(-164.695 12.7248 0)
(807.751 21.2654 0)
(29288.2 -14.8855 0)
(-36433.1 -2751.09 0)
(-13354.9 -977.633 0)
(-7954.45 4673.6 0)
(1772.35 2514.5 0)
(599.411 1052.95 0)
(-1059.01 486.745 0)
(-1378.94 202.621 0)
(-1429.55 89.5571 0)
(-990.139 25.9569 0)
(-535.972 16.7489 0)
(-387.567 9.40971 0)
(-285.934 7.31753 0)
(-245.045 4.64613 0)
(-202.567 3.46636 0)
(-165.377 2.6865 0)
(-132.938 2.30538 0)
(-106.03 2.13392 0)
(-84.0682 2.03656 0)
(-65.9626 1.95421 0)
(-53.3043 1.86789 0)
(-44.9456 1.78752 0)
(-38.8822 1.6943 0)
(-37.7658 1.59754 0)
(-38.2339 1.51249 0)
(-38.4166 1.42678 0)
(-38.7312 1.34991 0)
(-38.6535 1.29218 0)
(-40.1492 1.27095 0)
(-45.9813 1.3135 0)
(-59.834 1.45409 0)
(-86.2438 1.68228 0)
(-121.992 2.1761 0)
(-164.213 2.82176 0)
(-187.814 4.29064 0)
(-200.524 7.38183 0)
(-190.903 11.0149 0)
(-184.504 19.4475 0)
(-163.81 26.868 0)
(807.123 35.7727 0)
(29299.5 29.7242 0)
(-36447.4 1612.68 0)
(-12228.2 2.19622e-09 0)
(-7040.21 -2.4546e-09 0)
(1063.34 -6.8632e-09 0)
(158.794 5.03839e-09 0)
(-1200.69 5.37106e-08 0)
(-1425.24 7.36623e-08 0)
(-1445.66 3.23378e-08 0)
(-997.192 -2.95763e-08 0)
(-538.377 -5.58826e-08 0)
(-388.1 -1.12395e-08 0)
(-286.599 1.04967e-09 0)
(-245.516 6.44333e-09 0)
(-202.808 1.68431e-08 0)
(-165.515 1.30401e-08 0)
(-133.008 -3.81109e-09 0)
(-106.066 -2.3133e-08 0)
(-84.0901 -2.83652e-08 0)
(-65.9797 -3.31129e-08 0)
(-53.3194 -2.96248e-08 0)
(-44.9604 -6.68556e-09 0)
(-38.8977 2.12032e-08 0)
(-37.78 3.83289e-08 0)
(-38.2456 1.40494e-08 0)
(-38.4242 -4.12599e-09 0)
(-38.7301 2.22287e-08 0)
(-38.6373 5.17081e-08 0)
(-40.1077 4.75579e-08 0)
(-45.9006 2.19057e-08 0)
(-59.6942 -1.75213e-09 0)
(-86.0097 -5.73279e-09 0)
(-121.616 -9.54388e-09 0)
(-163.563 -1.46388e-08 0)
(-186.759 -1.4114e-08 0)
(-198.841 -2.54342e-09 0)
(-188.29 1.28947e-07 0)
(-180.846 2.97378e-08 0)
(-159.946 -2.67019e-08 0)
(808.582 -6.68475e-08 0)
(29747 -2.69917e-07 0)
(-36910.9 1.03087e-06 0)
(-13354.9 977.633 0)
(-7954.45 -4673.6 0)
(1772.35 -2514.5 0)
(599.411 -1052.95 0)
(-1059.01 -486.745 0)
(-1378.94 -202.621 0)
(-1429.55 -89.5571 0)
(-990.139 -25.9569 0)
(-535.972 -16.7489 0)
(-387.567 -9.40971 0)
(-285.934 -7.31753 0)
(-245.045 -4.64613 0)
(-202.567 -3.46636 0)
(-165.377 -2.6865 0)
(-132.938 -2.30538 0)
(-106.03 -2.13392 0)
(-84.0682 -2.03656 0)
(-65.9626 -1.95421 0)
(-53.3043 -1.86789 0)
(-44.9456 -1.78752 0)
(-38.8822 -1.6943 0)
(-37.7658 -1.59754 0)
(-38.2339 -1.5125 0)
(-38.4166 -1.42678 0)
(-38.7312 -1.34991 0)
(-38.6535 -1.29218 0)
(-40.1492 -1.27095 0)
(-45.9813 -1.3135 0)
(-59.834 -1.4541 0)
(-86.2438 -1.68228 0)
(-121.992 -2.1761 0)
(-164.213 -2.82176 0)
(-187.814 -4.29064 0)
(-200.524 -7.38183 0)
(-190.903 -11.0149 0)
(-184.504 -19.4475 0)
(-163.81 -26.868 0)
(807.123 -35.7727 0)
(29299.5 -29.7242 0)
(-36447.4 -1612.68 0)
(-14391 1339.08 0)
(-8056.11 -3510.61 0)
(2116.62 -2009.84 0)
(748.686 -1482.32 0)
(-953.32 -784.388 0)
(-1309.69 -394.286 0)
(-1394.27 -213.115 0)
(-976.011 -57.9 0)
(-533.564 -50.1862 0)
(-385.356 -25.026 0)
(-285.213 -20.0539 0)
(-244.395 -14.6113 0)
(-202.238 -11.5477 0)
(-165.178 -9.33008 0)
(-132.847 -8.0857 0)
(-105.987 -7.37344 0)
(-84.0379 -6.86882 0)
(-65.9306 -6.45087 0)
(-53.2709 -6.08632 0)
(-44.9099 -5.8029 0)
(-38.8425 -5.55765 0)
(-37.7271 -5.37118 0)
(-38.1959 -5.27046 0)
(-38.3769 -5.21311 0)
(-38.691 -5.20875 0)
(-38.6143 -5.26151 0)
(-40.1139 -5.38722 0)
(-45.9539 -5.59042 0)
(-59.8015 -5.87558 0)
(-86.2197 -6.02248 0)
(-121.948 -6.26839 0)
(-164.179 -5.93514 0)
(-188.086 -5.58027 0)
(-200.797 -7.86889 0)
(-191.8 -6.87604 0)
(-185.458 -14.1692 0)
(-164.695 -12.7248 0)
(807.751 -21.2654 0)
(29288.2 14.8855 0)
(-36433.1 2751.09 0)
(20126.4 3405.85 0)
(-9937.61 -2732.22 0)
(2646.58 -1843.68 0)
(1195.51 -1886.04 0)
(-498.72 -1124.19 0)
(-1100.66 -700.559 0)
(-1259.35 -392.579 0)
(-904.273 -125.46 0)
(-518.136 -100.32 0)
(-371.222 -48.1348 0)
(-280.235 -39.3002 0)
(-240.461 -29.505 0)
(-199.635 -23.1666 0)
(-163.435 -18.8325 0)
(-131.815 -16.3884 0)
(-105.315 -14.9137 0)
(-83.5247 -13.8176 0)
(-65.5087 -12.9089 0)
(-52.9364 -12.1338 0)
(-44.6552 -11.5431 0)
(-38.6573 -11.0646 0)
(-37.6304 -10.7364 0)
(-38.1785 -10.5966 0)
(-38.4238 -10.5574 0)
(-38.808 -10.6427 0)
(-38.8107 -10.8544 0)
(-40.3963 -11.2258 0)
(-46.3194 -11.7672 0)
(-60.1426 -12.4869 0)
(-86.5181 -12.9874 0)
(-121.988 -13.4638 0)
(-163.821 -13.214 0)
(-188.713 -12.2191 0)
(-201.022 -15.7386 0)
(-193.817 -14.8859 0)
(-187.069 -24.4539 0)
(-167.237 -23.8252 0)
(823.715 -35.3367 0)
(31051.7 -47.7341 0)
(-38198.8 669.55 0)
(20802.1 3575.37 0)
(-12105.8 -1137.08 0)
(2647.85 -1106.41 0)
(1202.41 -1520.97 0)
(-54.7163 -1243.27 0)
(-716.779 -910.921 0)
(-912.427 -529.759 0)
(-732.848 -214.611 0)
(-467.323 -142.762 0)
(-334.134 -75.6746 0)
(-269.93 -59.8883 0)
(-230.958 -44.6222 0)
(-193.349 -34.81 0)
(-159.58 -28.6738 0)
(-129.624 -25.2063 0)
(-103.871 -23.0145 0)
(-82.3811 -21.3254 0)
(-64.5343 -19.9116 0)
(-52.1342 -18.704 0)
(-44.0162 -17.7817 0)
(-38.1644 -17.0243 0)
(-37.3279 -16.4928 0)
(-38.0327 -16.2441 0)
(-38.3962 -16.133 0)
(-38.9145 -16.1945 0)
(-39.071 -16.436 0)
(-40.8421 -16.9221 0)
(-46.9731 -17.6352 0)
(-60.7944 -18.6917 0)
(-87.0011 -19.4285 0)
(-122.145 -20.0688 0)
(-163.171 -19.9297 0)
(-190.182 -18.3834 0)
(-203.246 -23.6473 0)
(-199.117 -24.9801 0)
(-193.209 -36.7797 0)
(-173.82 -40.1695 0)
(776.151 -50.922 0)
(29021.9 -158.439 0)
(-36085.5 -2711.48 0)
(22476 4677.93 0)
(-14449.1 -296.929 0)
(2276.65 -836.093 0)
(1063.62 -1191.71 0)
(89.1485 -1122.95 0)
(-413.098 -888.573 0)
(-588.358 -574.832 0)
(-531.349 -292.642 0)
(-384.252 -175.508 0)
(-291.362 -109.772 0)
(-250.312 -82.1442 0)
(-216.295 -61.0351 0)
(-184.267 -47.9924 0)
(-154.181 -40.191 0)
(-126.362 -35.5111 0)
(-101.575 -32.331 0)
(-80.5346 -29.8081 0)
(-62.9826 -27.715 0)
(-50.884 -25.9562 0)
(-43.0366 -24.6437 0)
(-37.4153 -23.5759 0)
(-36.8785 -22.8359 0)
(-37.8318 -22.5143 0)
(-38.376 -22.3797 0)
(-39.0999 -22.5036 0)
(-39.5119 -22.8585 0)
(-41.5519 -23.5899 0)
(-48.0247 -24.6382 0)
(-61.8706 -26.2271 0)
(-87.8451 -27.131 0)
(-122.471 -28.0159 0)
(-162.196 -28.135 0)
(-192.296 -26.3396 0)
(-207.379 -33.2489 0)
(-206.471 -37.1428 0)
(-201.706 -50.4023 0)
(-180.865 -56.4405 0)
(709.747 -63.6698 0)
(28487.9 -178.047 0)
(-35433.3 -1284.22 0)
(25023.8 2640.05 0)
(-17419.3 -167.327 0)
(1785.6 -649.268 0)
(925.987 -1025.19 0)
(237.4 -967.505 0)
(-188.593 -780.037 0)
(-338.166 -544.864 0)
(-348.045 -325.449 0)
(-291.103 -198.276 0)
(-244.165 -136.964 0)
(-222.965 -99.3596 0)
(-198.048 -74.9143 0)
(-173.262 -59.7717 0)
(-147.553 -50.6306 0)
(-122.05 -44.7642 0)
(-98.3751 -40.5142 0)
(-77.933 -37.0852 0)
(-60.8224 -34.2469 0)
(-49.1746 -31.9034 0)
(-41.7224 -30.2 0)
(-36.4223 -28.8347 0)
(-36.3049 -27.9124 0)
(-37.5931 -27.5591 0)
(-38.386 -27.4529 0)
(-39.3759 -27.6762 0)
(-40.1177 -28.2336 0)
(-42.5571 -29.3032 0)
(-49.5143 -30.7296 0)
(-63.1966 -33.1248 0)
(-88.7248 -34.2904 0)
(-123.112 -35.4632 0)
(-161.556 -36.1436 0)
(-195.11 -35.3706 0)
(-213.656 -44.2445 0)
(-215.647 -51.794 0)
(-211.805 -65.8816 0)
(-186.605 -72.7865 0)
(658.967 -74.5198 0)
(27845.7 -198.38 0)
(-34676.4 -1343.59 0)
(24858.8 -75.3846 0)
(-17618.8 -233.572 0)
(1449.98 -566.452 0)
(756.957 -825.441 0)
(325.385 -824 0)
(-5.82587 -665.414 0)
(-150.3 -487.075 0)
(-197.364 -322.27 0)
(-202.621 -210.279 0)
(-196.043 -152.677 0)
(-190.518 -111.693 0)
(-178.147 -86.3245 0)
(-160.866 -70.4848 0)
(-139.719 -60.2479 0)
(-116.613 -53.2579 0)
(-94.1754 -47.9161 0)
(-74.4952 -43.5041 0)
(-57.9892 -39.8503 0)
(-46.9843 -36.8902 0)
(-40.0795 -34.7999 0)
(-35.2109 -33.1567 0)
(-35.6493 -32.0957 0)
(-37.3891 -31.7743 0)
(-38.4889 -31.7603 0)
(-39.8522 -32.1628 0)
(-41.0797 -32.9737 0)
(-43.9571 -34.5742 0)
(-51.7073 -36.4421 0)
(-65.3019 -39.4405 0)
(-90.0985 -40.9053 0)
(-124.257 -42.3737 0)
(-162.107 -44.2923 0)
(-200.102 -44.7248 0)
(-223.205 -55.498 0)
(-227.322 -66.3037 0)
(-221.935 -80.8755 0)
(-189.189 -87.2008 0)
(588.721 -84.2037 0)
(27264.9 -269.67 0)
(-33947.4 -1765.47 0)
(24726 468.524 0)
(-17892.5 -252.403 0)
(1215.25 -535.756 0)
(677.805 -669.217 0)
(391.607 -674.715 0)
(136.081 -561.839 0)
(-7.49993 -427.638 0)
(-81.314 -305.018 0)
(-127.677 -218.56 0)
(-149.165 -161.189 0)
(-159.026 -122.394 0)
(-158.338 -97.1828 0)
(-148.134 -80.9041 0)
(-130.952 -69.5055 0)
(-110.167 -61.3633 0)
(-88.9761 -54.7974 0)
(-70.1605 -49.2814 0)
(-54.449 -44.7425 0)
(-44.3079 -41.1393 0)
(-38.1246 -38.6733 0)
(-33.8164 -36.7777 0)
(-34.9727 -35.6277 0)
(-37.2699 -35.4274 0)
(-38.7604 -35.5821 0)
(-40.5451 -36.3287 0)
(-42.4414 -37.5833 0)
(-45.8993 -39.8719 0)
(-54.2037 -42.4783 0)
(-67.4975 -46.4542 0)
(-91.5514 -48.2625 0)
(-126.376 -49.8571 0)
(-163.821 -53.6229 0)
(-205.908 -55.4603 0)
(-234.451 -67.6806 0)
(-240.102 -81.3203 0)
(-231.942 -95.1587 0)
(-189.812 -100.481 0)
(483.132 -92.1364 0)
(26225.6 -333.719 0)
(-32715.3 -2358.33 0)
(25067.1 -624.176 0)
(-18586.6 -257.007 0)
(1048.32 -476.53 0)
(623.051 -565.858 0)
(428.858 -553.684 0)
(232.266 -478.602 0)
(97.1812 -372.662 0)
(4.11107 -279.986 0)
(-64.022 -213.072 0)
(-103.374 -161.967 0)
(-128.839 -127.983 0)
(-138.165 -105.205 0)
(-134.195 -89.7659 0)
(-120.889 -78.4339 0)
(-102.44 -69.7736 0)
(-82.5328 -62.2041 0)
(-64.8059 -55.7057 0)
(-50.1432 -50.3201 0)
(-41.1358 -46.1133 0)
(-35.8765 -43.3077 0)
(-32.276 -41.1936 0)
(-34.3481 -40.0027 0)
(-37.3451 -39.9641 0)
(-39.3574 -40.3141 0)
(-41.7807 -41.3003 0)
(-44.494 -42.9564 0)
(-48.6741 -45.4971 0)
(-58.0503 -48.045 0)
(-70.8757 -52.1137 0)
(-93.3776 -53.9895 0)
(-129.422 -54.5804 0)
(-167.507 -59.6374 0)
(-213.649 -62.1883 0)
(-248.124 -76.8052 0)
(-253.801 -93.5806 0)
(-240.399 -110.16 0)
(-186.277 -116.297 0)
(363.964 -108.543 0)
(25081.1 -463.207 0)
(-31353.2 -2886 0)
(23876.9 -1723.62 0)
(-17750.3 -250.388 0)
(917.635 -410.795 0)
(603.456 -478.307 0)
(475.691 -455.619 0)
(310.52 -407.467 0)
(183.894 -330.367 0)
(72.4735 -260.203 0)
(-13.9501 -207.138 0)
(-67.1709 -166.554 0)
(-104.327 -138.676 0)
(-121.51 -118.557 0)
(-122.337 -104.098 0)
(-111.687 -92.3359 0)
(-94.527 -82.5522 0)
(-75.4197 -73.7709 0)
(-58.7086 -66.1646 0)
(-45.2055 -59.8484 0)
(-37.5505 -55.0515 0)
(-33.3838 -51.9269 0)
(-30.6316 -49.6255 0)
(-33.788 -48.4693 0)
(-37.57 -48.673 0)
(-40.048 -49.3583 0)
(-43.0913 -50.7627 0)
(-46.4855 -52.827 0)
(-50.8029 -56.1931 0)
(-60.5798 -59.0912 0)
(-73.2258 -63.5179 0)
(-93.9283 -64.4908 0)
(-131.818 -63.3132 0)
(-171.153 -68.9336 0)
(-222.452 -70.3786 0)
(-264.701 -83.1825 0)
(-272.243 -101.281 0)
(-253.832 -118.364 0)
(-188.254 -122.068 0)
(148.837 -114.701 0)
(23549.1 -544.365 0)
(-29487.9 -3433.31 0)
(23164.9 -1652.96 0)
(-17321.5 -252.624 0)
(828.692 -365.242 0)
(579.857 -426.579 0)
(497.122 -420.609 0)
(352.964 -382.86 0)
(239.091 -322.032 0)
(122.858 -264.511 0)
(26.2215 -213.482 0)
(-37.4015 -176.587 0)
(-82.5873 -152.83 0)
(-104.845 -133.288 0)
(-108.928 -120.369 0)
(-100.127 -109.424 0)
(-84.5499 -99.8949 0)
(-66.7411 -91.151 0)
(-51.3897 -83.2826 0)
(-39.4342 -76.6842 0)
(-33.5023 -71.7171 0)
(-30.6478 -68.4869 0)
(-28.9442 -66.0716 0)
(-33.4303 -64.8815 0)
(-38.2017 -65.0584 0)
(-41.3712 -65.5193 0)
(-45.1233 -66.7594 0)
(-49.7269 -68.3711 0)
(-54.7106 -71.3758 0)
(-65.1087 -73.9371 0)
(-76.0789 -77.5521 0)
(-93.1803 -81.1006 0)
(-133.704 -80.7478 0)
(-174.315 -91.662 0)
(-227.379 -99.315 0)
(-277.904 -117.536 0)
(-287.702 -142.36 0)
(-260.429 -164.162 0)
(-182.747 -169.12 0)
(-42.9776 -162.511 0)
(21883.2 -551.525 0)
(-27520.2 -3802.01 0)
(22040.6 -2283.61 0)
(-16509.4 -267.15 0)
(750.005 -333.904 0)
(550.103 -379.097 0)
(517.821 -387.431 0)
(405.512 -363.161 0)
(297.939 -311.03 0)
(177.076 -264.493 0)
(70.7771 -218.288 0)
(-8.72466 -187.512 0)
(-62.603 -170.895 0)
(-90.2289 -155.111 0)
(-99.3409 -146.477 0)
(-91.9577 -137.205 0)
(-76.9184 -128.692 0)
(-59.4114 -120.428 0)
(-44.7678 -112.68 0)
(-34.0606 -106.141 0)
(-29.6514 -101.188 0)
(-27.9435 -97.9733 0)
(-27.1573 -95.561 0)
(-32.8117 -94.3049 0)
(-38.1847 -94.2922 0)
(-41.6872 -94.0973 0)
(-45.8393 -94.5979 0)
(-50.934 -94.9836 0)
(-56.1665 -96.3209 0)
(-66.5315 -96.7906 0)
(-80.1289 -96.306 0)
(-97.0078 -99.7289 0)
(-141.996 -96.7776 0)
(-189.045 -108.566 0)
(-247.385 -119.797 0)
(-306.181 -143.17 0)
(-317.173 -173.41 0)
(-279.619 -201.381 0)
(-186.663 -213.773 0)
(-219.663 -209.388 0)
(20042 -505.133 0)
(-25292.7 -4182.21 0)
(20706.9 -2662.98 0)
(-15442.7 -283.391 0)
(720.816 -324.764 0)
(528.276 -340.912 0)
(512.478 -381.187 0)
(426.587 -374.337 0)
(334.17 -335.269 0)
(212.229 -302.759 0)
(100.404 -261.945 0)
(8.2684 -239.314 0)
(-51.3651 -222.212 0)
(-81.3146 -205.387 0)
(-91.6734 -192.974 0)
(-82.9893 -179.323 0)
(-68.383 -168.25 0)
(-51.311 -158.32 0)
(-37.6214 -150.118 0)
(-28.3598 -143.525 0)
(-25.6321 -138.487 0)
(-25.2257 -135.373 0)
(-25.4092 -133.279 0)
(-32.2076 -131.972 0)
(-38.0016 -131.847 0)
(-41.6657 -131.643 0)
(-45.9774 -132.412 0)
(-51.3873 -134.151 0)
(-56.4519 -136.878 0)
(-65.0943 -139.884 0)
(-78.9104 -142.786 0)
(-93.6348 -151.114 0)
(-142.22 -151.074 0)
(-196.498 -165.163 0)
(-260.725 -177.881 0)
(-329.567 -203.742 0)
(-343.797 -234.024 0)
(-299.324 -263.55 0)
(-190.463 -280.523 0)
(-323.743 -277.45 0)
(18054.9 -418.26 0)
(-23003.3 -4427.42 0)
(19201.4 -2939.6 0)
(-14256.2 -339.532 0)
(694.576 -394.484 0)
(495.731 -405.016 0)
(485.611 -447.593 0)
(449.761 -430.429 0)
(366.914 -396.925 0)
(247.734 -361.534 0)
(131.915 -311.821 0)
(29.5635 -295.279 0)
(-29.9101 -274.078 0)
(-62.0537 -254.635 0)
(-74.2248 -239.31 0)
(-68.1333 -223.013 0)
(-56.6792 -209.627 0)
(-41.9383 -198.651 0)
(-30.5111 -190.68 0)
(-22.8525 -185.112 0)
(-21.7953 -181.115 0)
(-22.9251 -178.8 0)
(-23.8804 -176.986 0)
(-31.4319 -174.845 0)
(-37.8668 -173.396 0)
(-42.2316 -171.984 0)
(-48.2564 -172.174 0)
(-55.2377 -174.358 0)
(-61.6917 -178.906 0)
(-72.2247 -184.453 0)
(-90.9504 -190.987 0)
(-104.995 -207.02 0)
(-155.533 -215.427 0)
(-214.876 -238.831 0)
(-284.561 -263.975 0)
(-360.283 -299.077 0)
(-374.807 -331.463 0)
(-324.426 -362.406 0)
(-200.057 -383.203 0)
(-352.391 -387.631 0)
(16042.9 -407.493 0)
(-20623.2 -4495.49 0)
(17547 -3120.99 0)
(-12990.1 -384.144 0)
(657.713 -447.179 0)
(477.098 -481.908 0)
(487.99 -500.951 0)
(475.412 -479.071 0)
(400.56 -466.193 0)
(294.238 -425.506 0)
(164.25 -379.862 0)
(44.6392 -360.792 0)
(-12.1994 -334.158 0)
(-47.8105 -314.19 0)
(-61.2006 -293.742 0)
(-54.3863 -271.489 0)
(-44.9071 -251.87 0)
(-33.0524 -235.484 0)
(-24.5752 -223.039 0)
(-19.1429 -214.205 0)
(-19.5497 -207.066 0)
(-21.2467 -203.096 0)
(-21.5978 -202.105 0)
(-28.7487 -201.652 0)
(-35.2442 -203.103 0)
(-40.4876 -205.46 0)
(-48.265 -210.164 0)
(-57.8749 -216.83 0)
(-66.1798 -225.849 0)
(-76.7355 -236.064 0)
(-100.658 -244.468 0)
(-117.186 -267.977 0)
(-172.873 -283.628 0)
(-243.281 -312.092 0)
(-318.78 -345.242 0)
(-394.6 -378.224 0)
(-404.823 -406.124 0)
(-349.183 -427.145 0)
(-214.771 -444.247 0)
(-347.15 -448.399 0)
(14096.4 -412.225 0)
(-18278.6 -4411.81 0)
(15823.7 -3151.23 0)
(-11679.6 -414.364 0)
(600.367 -480.981 0)
(443.915 -518.789 0)
(488.344 -535.692 0)
(483.255 -525.619 0)
(418.532 -525.111 0)
(330.926 -490.987 0)
(194.276 -462.599 0)
(73.6049 -431.365 0)
(14.9977 -388.284 0)
(-23.1068 -364.629 0)
(-33.0766 -335.005 0)
(-27.7842 -303.425 0)
(-21.9833 -278.557 0)
(-14.1554 -257.013 0)
(-10.0063 -240.908 0)
(-7.46061 -229.913 0)
(-11.09 -221.613 0)
(-18.1441 -217.153 0)
(-22.4892 -215.942 0)
(-32.3942 -215.566 0)
(-41.5361 -218.488 0)
(-49.0354 -223.849 0)
(-59.2126 -232.996 0)
(-70.3527 -244.893 0)
(-80.227 -259.041 0)
(-90.1663 -276.881 0)
(-121.702 -292.034 0)
(-142.731 -320.811 0)
(-198.045 -343.553 0)
(-274.25 -372.292 0)
(-348.288 -404.586 0)
(-418.951 -430.638 0)
(-421.949 -450.88 0)
(-361.163 -464.513 0)
(-220.539 -475.151 0)
(-321.533 -477.395 0)
(12223.6 -425.72 0)
(-15974.6 -4161.79 0)
(14111 -3161.43 0)
(-10417 -396.768 0)
(557.086 -461.468 0)
(424.377 -497.883 0)
(481.407 -509.48 0)
(485.608 -508.995 0)
(433.932 -499.575 0)
(354.477 -468.02 0)
(221.704 -465.988 0)
(116.252 -436.48 0)
(52.1101 -393.954 0)
(3.5306 -365.722 0)
(-2.22203 -334.799 0)
(0.00872888 -303.13 0)
(-0.182588 -278.505 0)
(3.22797 -256.795 0)
(1.53867 -240.014 0)
(-0.550005 -227.632 0)
(-7.25337 -217.515 0)
(-15.7818 -211.824 0)
(-20.0681 -210.856 0)
(-31.2018 -212.362 0)
(-43.2259 -217.81 0)
(-54.4678 -225.043 0)
(-68.5446 -235.298 0)
(-82.9734 -246.945 0)
(-97.0039 -259.696 0)
(-108.528 -275.799 0)
(-142.99 -287.816 0)
(-166.832 -311.796 0)
(-222.482 -333.009 0)
(-302.095 -359.53 0)
(-375.005 -389.2 0)
(-439.21 -409.27 0)
(-437.467 -425.794 0)
(-372.571 -433.717 0)
(-227.184 -443.199 0)
(-299.516 -437.425 0)
(10546 -388.322 0)
(-13857.9 -3872.57 0)
(12394.9 -2681.76 0)
(-9077.81 -293.935 0)
(502.929 -371.953 0)
(397.649 -416.473 0)
(477.636 -433.989 0)
(492.799 -441.507 0)
(458.017 -428.776 0)
(363.292 -400.282 0)
(224.669 -400.785 0)
(143.019 -364.841 0)
(83.1824 -342.591 0)
(33.8977 -323.435 0)
(27.2397 -301.957 0)
(26.4622 -280.786 0)
(22.6667 -261.309 0)
(22.9364 -243.784 0)
(18.096 -228.659 0)
(14.2202 -216.691 0)
(4.14353 -205.728 0)
(-11.7279 -199.947 0)
(-23.0072 -199.782 0)
(-39.0945 -202.156 0)
(-53.756 -209.271 0)
(-65.8878 -217.692 0)
(-80.3182 -226.637 0)
(-93.8636 -234.945 0)
(-108.033 -240.796 0)
(-117.264 -248.191 0)
(-156.39 -251.395 0)
(-186.28 -265.99 0)
(-244.043 -275.796 0)
(-328.398 -290.953 0)
(-396.219 -312.704 0)
(-454.213 -326.428 0)
(-445.507 -339.644 0)
(-377.936 -345.192 0)
(-224.112 -348.643 0)
(-268.651 -330.551 0)
(8913.38 -271.635 0)
(-11868.6 -3136.67 0)
(11243.6 -2306.19 0)
(-8191.17 -97.0303 0)
(439.003 -162.593 0)
(364.597 -229.165 0)
(457.283 -262.464 0)
(490.631 -281.381 0)
(473.659 -280.2 0)
(381.45 -270.454 0)
(255.856 -261.502 0)
(172.33 -240.978 0)
(92.0102 -238.179 0)
(42.6865 -234.77 0)
(38.876 -224.315 0)
(39.179 -219.229 0)
(35.4742 -212.347 0)
(34.6908 -203.799 0)
(27.6465 -194.153 0)
(21.5468 -184.181 0)
(8.88103 -173.366 0)
(-10.052 -166.524 0)
(-22.1968 -166.607 0)
(-40.3455 -171.146 0)
(-58.1962 -178.527 0)
(-71.202 -184.49 0)
(-85.1707 -187.938 0)
(-96.618 -188.236 0)
(-109.768 -183.508 0)
(-118.742 -181.445 0)
(-160.142 -173.301 0)
(-190.345 -175.334 0)
(-246.538 -173.774 0)
(-337.661 -174.427 0)
(-409.19 -183.23 0)
(-465.17 -187.436 0)
(-455.548 -193.662 0)
(-381.243 -192.326 0)
(-213.076 -179.835 0)
(-225.309 -154.49 0)
(7841.88 -79.6461 0)
(-10573.6 -2604.76 0)
(10079.1 5806.56 0)
(-7012.17 452.224 0)
(375.599 16.9354 0)
(301.41 -126.494 0)
(427.319 -206.002 0)
(475.708 -264.002 0)
(468.546 -314.618 0)
(381.31 -349.422 0)
(253.073 -307.281 0)
(165.494 -196.66 0)
(89.1641 21.6701 0)
(47.2578 259.928 0)
(42.2158 521.52 0)
(37.9945 678.535 0)
(37.5352 820.08 0)
(40.4696 901.144 0)
(37.0008 957.024 0)
(34.2506 972.92 0)
(21.1586 994.848 0)
(-5.214 975.222 0)
(-27.4613 973.987 0)
(-50.5817 995.902 0)
(-66.6144 977.015 0)
(-74.956 965.074 0)
(-83.9278 917.196 0)
(-89.5948 835.977 0)
(-101.489 730.523 0)
(-107.428 538.738 0)
(-150.501 359.905 0)
(-186.736 86.0731 0)
(-243.169 -103.608 0)
(-337.511 -230.164 0)
(-408.755 -288.236 0)
(-464.265 -286.31 0)
(-450.22 -268.058 0)
(-364.613 -240.255 0)
(-187.652 -197.164 0)
(-172.105 -132.404 0)
(6552.21 329.896 0)
(-9281.83 5513.31 0)
(17274.7 160063 0)
(-13770.3 15191.7 0)
(-118.67 8233.42 0)
(149.766 9540.14 0)
(324.775 10680.7 0)
(385.966 12395.2 0)
(391.346 14145.8 0)
(388.52 16090.4 0)
(403.063 18065.5 0)
(489.32 20092 0)
(531.995 22002 0)
(524.36 23846.6 0)
(442.261 25555.5 0)
(326.882 27048.7 0)
(249.988 28301.1 0)
(166.654 29305.6 0)
(96.8128 29967.4 0)
(57.9957 30649.6 0)
(11.099 30957.5 0)
(-30.1546 31230.1 0)
(-2.26803 31224.9 0)
(-37.4279 30914.3 0)
(-87.904 30607.8 0)
(-128.846 29842 0)
(-209.573 29228.6 0)
(-276.503 28086 0)
(-396.198 26890.5 0)
(-475.883 25258.3 0)
(-596.346 23518.7 0)
(-637.004 21620 0)
(-551.275 19585.9 0)
(-515.575 17493.2 0)
(-463.294 15400 0)
(-445.725 13337.8 0)
(-411.168 11468.6 0)
(-312.927 9629.22 0)
(-109.147 8409.13 0)
(282.586 6931.4 0)
(13282.3 13366.9 0)
(-16204.3 147152 0)
(178961 -185105 0)
(-153321 -18535.4 0)
(-5070.47 -11709.1 0)
(2659.66 -13150.5 0)
(3178.54 -14624.5 0)
(3814.83 -16786 0)
(4029.42 -18983.8 0)
(4158.52 -21373.6 0)
(4109.15 -23702.4 0)
(3958.85 -26056.1 0)
(3707.24 -28318.5 0)
(3471.48 -30455.3 0)
(3127.88 -32465.1 0)
(2683.77 -34160.1 0)
(2212.38 -35589.4 0)
(1646.24 -36715.4 0)
(1332.08 -37470.7 0)
(988.335 -38198.2 0)
(580.596 -38556.5 0)
(252.442 -38812.3 0)
(-331.832 -38787.2 0)
(-645.28 -38465.6 0)
(-1099.92 -38078.7 0)
(-1403.94 -37232.9 0)
(-1776.11 -36488 0)
(-2342.7 -35172.3 0)
(-2826.33 -33770 0)
(-3356.62 -31828.2 0)
(-3656.44 -29792.9 0)
(-3976.55 -27414.9 0)
(-4219.96 -25005.2 0)
(-4371.19 -22463.6 0)
(-4412.99 -19934.1 0)
(-4252.68 -17403.3 0)
(-4023.98 -15058.4 0)
(-3312.84 -12800.8 0)
(-2787.36 -11295.8 0)
(4605.43 -9794.98 0)
(141673 -16368.2 0)
(-163963 -170598 0)
(178961 185105 0)
(-153321 18535.4 0)
(-5070.47 11709.1 0)
(2659.66 13150.5 0)
(3178.54 14624.5 0)
(3814.83 16786 0)
(4029.42 18983.8 0)
(4158.52 21373.6 0)
(4109.15 23702.4 0)
(3958.85 26056.1 0)
(3707.24 28318.5 0)
(3471.48 30455.3 0)
(3127.88 32465.1 0)
(2683.77 34160.1 0)
(2212.38 35589.4 0)
(1646.24 36715.4 0)
(1332.08 37470.7 0)
(988.335 38198.2 0)
(580.596 38556.5 0)
(252.442 38812.3 0)
(-331.832 38787.2 0)
(-645.28 38465.6 0)
(-1099.92 38078.7 0)
(-1403.94 37232.9 0)
(-1776.11 36488 0)
(-2342.7 35172.3 0)
(-2826.33 33770 0)
(-3356.62 31828.2 0)
(-3656.44 29792.9 0)
(-3976.55 27414.9 0)
(-4219.96 25005.2 0)
(-4371.19 22463.6 0)
(-4412.99 19934.1 0)
(-4252.68 17403.3 0)
(-4023.98 15058.4 0)
(-3312.84 12800.8 0)
(-2787.36 11295.8 0)
(4605.43 9794.98 0)
(141673 16368.2 0)
(-163963 170598 0)
(17274.7 -160063 0)
(-13770.3 -15191.7 0)
(-118.67 -8233.42 0)
(149.766 -9540.14 0)
(324.775 -10680.7 0)
(385.966 -12395.2 0)
(391.346 -14145.8 0)
(388.52 -16090.4 0)
(403.063 -18065.5 0)
(489.32 -20092 0)
(531.995 -22002 0)
(524.36 -23846.6 0)
(442.261 -25555.5 0)
(326.882 -27048.7 0)
(249.988 -28301.1 0)
(166.654 -29305.6 0)
(96.8128 -29967.4 0)
(57.9957 -30649.6 0)
(11.099 -30957.5 0)
(-30.1546 -31230.1 0)
(-2.26803 -31224.9 0)
(-37.4279 -30914.3 0)
(-87.904 -30607.8 0)
(-128.846 -29842 0)
(-209.573 -29228.6 0)
(-276.503 -28086 0)
(-396.198 -26890.5 0)
(-475.883 -25258.3 0)
(-596.346 -23518.7 0)
(-637.004 -21620 0)
(-551.275 -19585.9 0)
(-515.575 -17493.2 0)
(-463.294 -15400 0)
(-445.725 -13337.8 0)
(-411.168 -11468.6 0)
(-312.927 -9629.22 0)
(-109.147 -8409.13 0)
(282.586 -6931.4 0)
(13282.3 -13366.9 0)
(-16204.3 -147152 0)
(10079.1 -5806.56 0)
(-7012.17 -452.224 0)
(375.599 -16.9354 0)
(301.41 126.494 0)
(427.319 206.002 0)
(475.708 264.002 0)
(468.546 314.618 0)
(381.31 349.422 0)
(253.073 307.281 0)
(165.494 196.66 0)
(89.1641 -21.6701 0)
(47.2578 -259.928 0)
(42.2158 -521.52 0)
(37.9945 -678.535 0)
(37.5352 -820.08 0)
(40.4696 -901.144 0)
(37.0008 -957.024 0)
(34.2506 -972.92 0)
(21.1586 -994.848 0)
(-5.214 -975.222 0)
(-27.4613 -973.987 0)
(-50.5817 -995.902 0)
(-66.6144 -977.015 0)
(-74.956 -965.074 0)
(-83.9278 -917.196 0)
(-89.5948 -835.977 0)
(-101.489 -730.523 0)
(-107.428 -538.738 0)
(-150.501 -359.905 0)
(-186.736 -86.0731 0)
(-243.169 103.608 0)
(-337.511 230.164 0)
(-408.755 288.236 0)
(-464.265 286.31 0)
(-450.22 268.058 0)
(-364.613 240.255 0)
(-187.652 197.164 0)
(-172.105 132.404 0)
(6552.21 -329.896 0)
(-9281.83 -5513.31 0)
(11243.6 2306.19 0)
(-8191.17 97.0303 0)
(439.003 162.593 0)
(364.597 229.165 0)
(457.283 262.464 0)
(490.631 281.381 0)
(473.659 280.2 0)
(381.45 270.454 0)
(255.856 261.502 0)
(172.33 240.978 0)
(92.0102 238.179 0)
(42.6865 234.77 0)
(38.876 224.315 0)
(39.179 219.229 0)
(35.4742 212.347 0)
(34.6908 203.799 0)
(27.6465 194.153 0)
(21.5468 184.181 0)
(8.88103 173.366 0)
(-10.052 166.524 0)
(-22.1968 166.607 0)
(-40.3455 171.146 0)
(-58.1962 178.527 0)
(-71.202 184.49 0)
(-85.1707 187.938 0)
(-96.618 188.236 0)
(-109.768 183.508 0)
(-118.742 181.445 0)
(-160.142 173.301 0)
(-190.345 175.334 0)
(-246.538 173.774 0)
(-337.661 174.427 0)
(-409.19 183.23 0)
(-465.17 187.436 0)
(-455.548 193.662 0)
(-381.243 192.326 0)
(-213.076 179.835 0)
(-225.309 154.49 0)
(7841.88 79.6461 0)
(-10573.6 2604.76 0)
(12394.9 2681.76 0)
(-9077.81 293.935 0)
(502.929 371.953 0)
(397.649 416.473 0)
(477.636 433.989 0)
(492.799 441.507 0)
(458.017 428.776 0)
(363.292 400.282 0)
(224.669 400.785 0)
(143.019 364.841 0)
(83.1824 342.591 0)
(33.8977 323.435 0)
(27.2397 301.957 0)
(26.4622 280.786 0)
(22.6667 261.309 0)
(22.9364 243.784 0)
(18.096 228.659 0)
(14.2202 216.691 0)
(4.14353 205.728 0)
(-11.7279 199.947 0)
(-23.0072 199.782 0)
(-39.0945 202.156 0)
(-53.756 209.271 0)
(-65.8878 217.692 0)
(-80.3182 226.637 0)
(-93.8636 234.945 0)
(-108.033 240.796 0)
(-117.264 248.191 0)
(-156.39 251.395 0)
(-186.28 265.99 0)
(-244.043 275.796 0)
(-328.398 290.953 0)
(-396.219 312.704 0)
(-454.213 326.428 0)
(-445.507 339.644 0)
(-377.936 345.192 0)
(-224.112 348.643 0)
(-268.651 330.551 0)
(8913.38 271.635 0)
(-11868.6 3136.67 0)
(14111 3161.43 0)
(-10417 396.768 0)
(557.086 461.468 0)
(424.377 497.883 0)
(481.407 509.48 0)
(485.608 508.995 0)
(433.932 499.575 0)
(354.477 468.02 0)
(221.704 465.988 0)
(116.252 436.48 0)
(52.1101 393.954 0)
(3.5306 365.722 0)
(-2.22203 334.799 0)
(0.00872854 303.13 0)
(-0.182588 278.505 0)
(3.22797 256.795 0)
(1.53867 240.014 0)
(-0.550005 227.632 0)
(-7.25337 217.515 0)
(-15.7818 211.824 0)
(-20.0681 210.856 0)
(-31.2018 212.362 0)
(-43.2259 217.81 0)
(-54.4678 225.043 0)
(-68.5446 235.298 0)
(-82.9734 246.945 0)
(-97.0039 259.696 0)
(-108.528 275.799 0)
(-142.99 287.816 0)
(-166.832 311.796 0)
(-222.482 333.009 0)
(-302.095 359.53 0)
(-375.005 389.2 0)
(-439.21 409.27 0)
(-437.467 425.794 0)
(-372.571 433.717 0)
(-227.184 443.199 0)
(-299.516 437.425 0)
(10546 388.322 0)
(-13857.9 3872.57 0)
(15823.7 3151.23 0)
(-11679.6 414.364 0)
(600.367 480.981 0)
(443.915 518.789 0)
(488.344 535.692 0)
(483.255 525.619 0)
(418.532 525.111 0)
(330.926 490.987 0)
(194.276 462.599 0)
(73.6049 431.365 0)