/*--------------------------------*- C++ -*----------------------------------*\
| =========                 |                                                 |
| \\      /  F ield         | OpenFOAM: The Open Source CFD Toolbox           |
|  \\    /   O peration     | Version:  v1912                                 |
|   \\  /    A nd           | Website:  www.openfoam.com                      |
|    \\/     M anipulation  |                                                 |
\*---------------------------------------------------------------------------*/
FoamFile
{
    version     2.0;
    format      ascii;
    class       volTensorField;
    location    "2.56";
    object      grad(U);
}
// * * * * * * * * * * * * * * * * * * * * * * * * * * * * * * * * * * * * * //

dimensions      [0 0 -1 0 0 0 0];


internalField   nonuniform List<tensor> 
1900
(
(-1.87245 -1.11659e-05 0 -2.44497e-05 -2.3224e-05 0 0 0 0)
(1.30354 -3.23484e-07 0 -1.44005e-05 -2.17022e-05 0 0 0 0)
(-0.034722 6.18674e-05 0 -1.66967e-05 -4.66884e-06 0 0 0 0)
(-0.0429113 0.000373258 0 6.21477e-06 0.000123826 0 0 0 0)
(-0.0437595 0.00130906 0 0.000238735 0.000767025 0 0 0 0)
(-0.0449659 0.0019279 0 0.00127136 0.00268513 0 0 0 0)
(-0.0426708 -0.00475655 0 0.00422337 0.00457682 0 0 0 0)
(-0.0364435 -0.021642 0 0.00658667 -0.00422869 0 0 0 0)
(0.0216672 -0.068327 0 -0.00160777 -0.030447 0 0 0 0)
(0.0108888 -0.210471 0 -0.0632249 -0.130821 0 0 0 0)
(-1.87249 -3.37603e-05 0 -3.11561e-05 3.81657e-06 0 0 0 0)
(1.30355 1.88787e-05 0 -1.19758e-05 7.34931e-06 0 0 0 0)
(-0.0347014 8.36611e-05 0 -1.31437e-05 4.14006e-06 0 0 0 0)
(-0.0426559 0.000398436 0 6.38408e-05 -5.45181e-05 0 0 0 0)
(-0.0424943 0.00125224 0 0.000520662 -0.000369118 0 0 0 0)
(-0.0409812 0.0018819 0 0.0021553 -0.00136358 0 0 0 0)
(-0.0373555 -0.00215727 0 0.00584109 -0.00229702 0 0 0 0)
(-0.0422747 -0.0133818 0 0.00783593 0.00339297 0 0 0 0)
(-0.0481444 -0.0582658 0 -0.00260125 0.019345 0 0 0 0)
(-0.131884 -0.14701 0 -0.0926368 0.07172 0 0 0 0)
(-1.87249 -3.63923e-13 0 -3.14419e-14 3.88149e-05 0 0 0 0)
(1.30356 2.50206e-14 0 1.28749e-14 2.87057e-05 0 0 0 0)
(-0.0346462 2.74587e-13 0 -9.06664e-14 1.05756e-06 0 0 0 0)
(-0.0423775 2.86127e-13 0 1.34712e-13 -0.000138617 0 0 0 0)
(-0.041668 7.77653e-16 0 1.27123e-13 -0.000795814 0 0 0 0)
(-0.0396454 -2.75648e-14 0 3.21195e-14 -0.0026431 0 0 0 0)
(-0.0369902 -3.30775e-14 0 -1.24141e-13 -0.00455961 0 0 0 0)
(-0.0448859 -1.17706e-13 0 -1.14654e-13 0.00167144 0 0 0 0)
(-0.0788056 -1.65868e-13 0 -5.09575e-14 0.0222041 0 0 0 0)
(-0.177665 -9.15064e-14 0 1.3417e-14 0.118203 0 0 0 0)
(-1.87249 3.37603e-05 0 3.11561e-05 3.81657e-06 0 0 0 0)
(1.30355 -1.88787e-05 0 1.19758e-05 7.34931e-06 0 0 0 0)
(-0.0347014 -8.36611e-05 0 1.31437e-05 4.14006e-06 0 0 0 0)
(-0.0426559 -0.000398436 0 -6.38408e-05 -5.45181e-05 0 0 0 0)
(-0.0424943 -0.00125224 0 -0.000520662 -0.000369118 0 0 0 0)
(-0.0409812 -0.0018819 0 -0.0021553 -0.00136358 0 0 0 0)
(-0.0373555 0.00215727 0 -0.00584109 -0.00229702 0 0 0 0)
(-0.0422747 0.0133818 0 -0.00783593 0.00339297 0 0 0 0)
(-0.0481444 0.0582658 0 0.00260125 0.019345 0 0 0 0)
(-0.131884 0.14701 0 0.0926368 0.07172 0 0 0 0)
(-1.87245 1.11659e-05 0 2.44497e-05 -2.3224e-05 0 0 0 0)
(1.30354 3.23484e-07 0 1.44005e-05 -2.17022e-05 0 0 0 0)
(-0.034722 -6.18674e-05 0 1.66967e-05 -4.66884e-06 0 0 0 0)
(-0.0429113 -0.000373258 0 -6.21477e-06 0.000123826 0 0 0 0)
(-0.0437595 -0.00130906 0 -0.000238735 0.000767025 0 0 0 0)
(-0.0449659 -0.0019279 0 -0.00127136 0.00268513 0 0 0 0)
(-0.0426708 0.00475655 0 -0.00422337 0.00457682 0 0 0 0)
(-0.0364435 0.021642 0 -0.00658667 -0.00422869 0 0 0 0)
(0.0216672 0.068327 0 0.00160777 -0.030447 0 0 0 0)
(0.0108888 0.210471 0 0.0632249 -0.130821 0 0 0 0)
(-0.137873 -0.359156 1.2517e-17 -0.207795 0.16844 -1.87755e-17 -5.3295e-17 -6.32647e-17 3.39274e-33)
(-0.273337 -0.444042 0 -0.292395 0.282868 0 1.42557e-16 5.18686e-17 0)
(-0.364593 -0.543383 0 -0.434049 0.311395 0 2.26377e-16 9.66388e-17 0)
(-1.13216 -0.389328 0 -1.01842 0.593851 0 0 0 0)
(0.165861 -1.78328 -4.34909e-16 -3.43806 3.77475 6.52364e-16 1.72456e-15 1.14971e-15 1.17882e-31)
(-0.272154 -0.213282 0 -0.185429 0.213937 0 -9.08436e-17 -3.28276e-17 0)
(-0.461881 -0.290467 0 -0.227354 0.340413 0 -1.42557e-16 -5.18686e-17 0)
(-0.770715 -0.438919 0 -0.464117 0.617738 0 -2.26377e-16 -9.66388e-17 0)
(-1.42492 -0.358792 0 -1.07347 1.10693 0 0 0 0)
(-1.06307 0.245 0 -1.3193 1.37615 0 0 0 0)
(-0.334383 -3.07203e-14 0 -2.50427e-14 0.298802 0 0 0 0)
(-0.575443 3.36505e-13 0 -9.12418e-14 0.467342 0 0 0 0)
(-1.01668 1.29855e-13 0 1.23102e-13 0.903731 0 0 0 0)
(-1.73499 -9.31415e-14 0 -2.85424e-13 1.65887 0 0 0 0)
(-1.32955 2.23694e-13 0 -3.43653e-13 2.4232 0 0 0 0)
(-0.272154 0.213282 0 0.185429 0.213937 0 -9.08436e-17 3.28276e-17 0)
(-0.461881 0.290467 0 0.227354 0.340413 0 -1.42557e-16 5.18686e-17 0)
(-0.770715 0.438919 0 0.464117 0.617738 0 -2.26377e-16 9.66388e-17 0)
(-1.42492 0.358792 0 1.07347 1.10693 0 0 0 0)
(-1.06307 -0.245 0 1.3193 1.37615 0 0 0 0)
(-0.137873 0.359156 -1.2517e-17 0.207795 0.16844 -1.87755e-17 2.34982e-16 -1.2892e-16 3.39274e-33)
(-0.273337 0.444042 0 0.292395 0.282868 0 1.42557e-16 -5.18686e-17 0)
(-0.364593 0.543383 0 0.434049 0.311395 0 2.26377e-16 -9.66388e-17 0)
(-1.13216 0.389328 -3.81111e-17 1.01842 0.593851 -5.71666e-17 6.85816e-16 -4.57211e-16 1.033e-32)
(0.165861 1.78328 4.34909e-16 3.43806 3.77475 6.52364e-16 -1.72456e-15 1.14971e-15 1.17882e-31)
(0.0242934 0.512097 3.27369e-18 -0.473507 -1.07719 2.94632e-17 -1.08421e-15 8.64415e-17 -8.87335e-34)
(0.541805 -0.011367 -8.79951e-19 -0.1925 -0.483616 -7.91956e-18 7.54881e-16 -6.86666e-17 -2.38511e-34)
(0.277449 0.0788952 0 0.138536 -0.299927 0 0 0 0)
(-0.289399 0.484524 -1.61011e-18 0.695718 0.345487 -1.4491e-17 -4.69399e-16 6.48885e-17 4.36421e-34)
(-1.29615 0.566808 5.83685e-18 2.32761 1.81319 5.25316e-17 2.82132e-16 -3.1348e-17 1.58208e-33)
(0.322941 0.489781 0 -0.566272 -0.497702 0 5.49234e-16 -2.7e-17 0)
(0.68725 -0.0169812 0 -0.215119 -0.559427 0 -3.80339e-16 2.70508e-17 0)
(0.576055 0.0995665 0 0.288075 -0.469564 0 0 0 0)
(0.582449 0.504813 0 1.08589 -0.69285 0 2.72103e-16 -4.18418e-17 0)
(1.2008 0.428494 0 3.44399 -1.39257 0 -2.70775e-17 1.10039e-17 0)
(0.422075 2.78887e-13 0 -2.43672e-13 -0.797622 0 0 0 0)
(0.79227 4.01758e-13 0 1.2927e-12 -0.677546 0 0 0 0)
(0.75415 5.32407e-13 0 3.77463e-12 -0.615155 0 0 0 0)
(1.06823 1.78204e-13 0 5.44936e-12 -1.11435 0 -9.576e-17 4.94822e-29 0)
(1.86008 -3.86671e-13 0 7.22167e-12 -2.923 0 5.4155e-17 -3.7191e-29 0)
(0.322941 -0.489781 0 0.566272 -0.497702 0 5.49234e-16 2.7e-17 0)
(0.68725 0.0169812 0 0.215119 -0.559427 0 -3.80339e-16 -2.70508e-17 0)
(0.576055 -0.0995665 0 -0.288075 -0.469564 0 0 0 0)
(0.582449 -0.504813 0 -1.08589 -0.69285 0 2.72103e-16 4.18418e-17 0)
(1.2008 -0.428494 0 -3.44399 -1.39257 0 -2.70775e-17 -1.10039e-17 0)
(0.0242934 -0.512097 0 0.473507 -1.07719 0 -5.49234e-16 -2.7e-17 0)
(0.541805 0.011367 8.79951e-19 0.1925 -0.483616 -7.91956e-18 5.79747e-18 -1.45649e-17 -2.38511e-34)
(0.277449 -0.0788952 0 -0.138536 -0.299927 0 0 0 0)
(-0.289399 -0.484524 1.61011e-18 -0.695718 0.345487 -1.4491e-17 2.09528e-17 -1.04049e-17 4.36421e-34)
(-1.29615 -0.566808 -5.83685e-18 -2.32761 1.81319 5.25316e-17 -2.82132e-16 -3.1348e-17 1.58208e-33)
(0.630857 -0.876074 0 10.3328 -0.216694 0 0 0 0)
(1.46816 -1.07813 0 5.70217 0.570728 0 0 0 0)
(-0.647045 0.137682 0 2.91881 0.889763 0 0 0 0)
(-0.66825 0.506662 0 0.753587 0.776475 0 0 0 0)
(-0.295471 0.273314 0 0.121594 0.440236 0 0 0 0)
(-0.0927809 0.0674155 0 0.0339461 0.304724 0 0 0 0)
(0.0152623 0.0180877 0 0.00826491 0.265695 0 0 0 0)
(0.0833378 0.00897214 0 -0.00499597 0.246485 0 0 0 0)
(0.131558 0.00282362 0 -0.0014604 0.236404 0 0 0 0)
(0.165491 -0.00148389 0 -0.000431844 0.236281 0 0 0 0)
(0.196196 -0.00145633 0 -0.00138639 0.237317 0 0 0 0)
(0.221528 -0.00225954 0 -0.00221172 0.239694 0 0 0 0)
(0.239425 -0.00290779 0 -0.00297461 0.243654 0 0 0 0)
(0.249766 -0.00315272 0 -0.00333591 0.248249 0 0 0 0)
(0.253225 -0.00317532 0 -0.00327788 0.253103 0 0 0 0)
(0.251713 -0.00294933 0 -0.0029093 0.25773 0 0 0 0)
(0.24932 -0.00251387 0 -0.00236865 0.26184 0 0 0 0)
(0.249681 -0.00188565 0 -0.0017805 0.265159 0 0 0 0)
(0.265109 -0.00142941 0 -0.0011449 0.267425 0 0 0 0)
(0.238331 -0.000467049 0 -0.000182855 0.26951 0 0 0 0)
(0.24056 0.00101215 0 0.000732946 0.268849 0 0 0 0)
(0.270077 0.00175241 0 0.00169528 0.266233 0 0 0 0)
(0.256566 0.00216668 0 0.0021981 0.263307 0 0 0 0)
(0.258902 0.00271033 0 0.00258554 0.259505 0 0 0 0)
(0.264452 0.00319433 0 0.0028953 0.254916 0 0 0 0)
(0.270872 0.00365051 0 0.00318473 0.249623 0 0 0 0)
(0.275427 0.00409465 0 0.00347635 0.24363 0 0 0 0)
(0.277694 0.00451767 0 0.00377605 0.236946 0 0 0 0)
(0.277815 0.00491539 0 0.00408595 0.229581 0 0 0 0)
(0.275528 0.00528317 0 0.00441104 0.221543 0 0 0 0)
(0.26995 0.00562496 0 0.00475939 0.212851 0 0 0 0)
(0.26025 0.00592498 0 0.00514371 0.20352 0 0 0 0)
(0.247109 0.0062746 0 0.00556008 0.193667 0 0 0 0)
(0.233835 0.00641787 0 0.00600644 0.183103 0 0 0 0)
(0.223566 0.00699791 0 0.00625078 0.172753 0 0 0 0)
(0.211052 0.005289 0 0.00700539 0.160376 0 0 0 0)
(0.169637 0.00942819 0 0.00659074 0.15501 0 0 0 0)
(0.322067 0.0163341 0 0.0121797 0.131354 0 0 0 0)
(2.3873 0.0303177 0 0.0149868 0.103684 0 0 0 0)
(2.1335 0.0219481 0 0.00468647 0.0476629 0 0 0 0)
(1.47447 -0.755548 0 9.42803 -1.4693 0 0 0 0)
(-0.0467296 -0.917522 0 5.13719 1.72035 0 0 0 0)
(-1.63339 0.15206 0 2.75665 2.23676 0 0 0 0)
(-1.20771 0.390164 0 0.659879 1.24707 0 0 0 0)
(-0.422807 0.166448 0 0.0291694 0.495112 0 0 0 0)
(-0.104127 0.034848 0 -0.0055119 0.307554 0 0 0 0)
(0.0130364 0.00917333 0 -0.0185177 0.263372 0 0 0 0)
(0.0849763 0.00459221 0 -0.0169053 0.245378 0 0 0 0)
(0.13327 0.00131713 0 -0.0120208 0.23253 0 0 0 0)
(0.166308 -0.000810161 0 -0.0103781 0.235672 0 0 0 0)
(0.196501 -0.000713458 0 -0.00958361 0.237631 0 0 0 0)
(0.221603 -0.00114863 0 -0.00868921 0.240678 0 0 0 0)
(0.23937 -0.00148103 0 -0.00811294 0.245398 0 0 0 0)
(0.249728 -0.00159406 0 -0.00755743 0.250673 0 0 0 0)
(0.253269 -0.0016008 0 -0.0068256 0.256235 0 0 0 0)
(0.251855 -0.00148669 0 -0.00581224 0.261588 0 0 0 0)
(0.249535 -0.00126795 0 -0.00453548 0.266374 0 0 0 0)
(0.249927 -0.000953104 0 -0.0031421 0.27023 0 0 0 0)
(0.265387 -0.000728958 0 -0.00180105 0.272856 0 0 0 0)
(0.238614 -0.000242483 0 -0.000451889 0.275144 0 0 0 0)
(0.240827 0.000515254 0 0.000633551 0.274461 0 0 0 0)
(0.270292 0.000893402 0 0.00191947 0.271664 0 0 0 0)
(0.256701 0.00110209 0 0.00307534 0.268437 0 0 0 0)
(0.258994 0.00137675 0 0.00424335 0.264216 0 0 0 0)
(0.264504 0.00161998 0 0.00537749 0.25912 0 0 0 0)
(0.270887 0.00184879 0 0.00644755 0.253236 0 0 0 0)
(0.275404 0.00206984 0 0.00741947 0.246572 0 0 0 0)
(0.277632 0.00227707 0 0.00826409 0.23916 0 0 0 0)
(0.277719 0.00246736 0 0.00896224 0.231042 0 0 0 0)
(0.275412 0.00263788 0 0.00950855 0.222264 0 0 0 0)
(0.269837 0.00279097 0 0.00991238 0.212881 0 0 0 0)
(0.260167 0.00291922 0 0.0101989 0.202928 0 0 0 0)
(0.247092 0.00307106 0 0.0103907 0.192514 0 0 0 0)
(0.23387 0.00311506 0 0.0105322 0.181359 0 0 0 0)
(0.22373 0.003377 0 0.0104938 0.170453 0 0 0 0)
(0.211098 0.0024507 0 0.0107594 0.157304 0 0 0 0)
(0.170299 0.00454763 0 0.0100527 0.152272 0 0 0 0)
(0.323273 0.00789798 0 0.0122583 0.124894 0 0 0 0)
(2.38666 0.0161182 0 0.0119897 0.0961235 0 0 0 0)
(2.13242 0.012163 0 0.00136519 0.0206771 0 0 0 0)
(1.56258 -5.58586e-13 0 7.11877e-12 -3.12652 0 0 0 0)
(-0.472607 -3.42912e-13 0 2.6149e-12 2.49351 0 0 0 0)
(-1.94953 1.55547e-13 0 1.10025e-12 3.18145 0 0 0 0)
(-1.4617 2.34718e-13 0 5.61814e-14 1.44809 0 0 0 0)
(-0.489039 4.64952e-15 0 -2.50352e-13 0.499067 0 0 0 0)
(-0.106654 -1.05457e-13 0 -5.14503e-13 0.303767 0 0 0 0)
(0.0119478 3.43157e-13 0 -4.69164e-13 0.259487 0 0 0 0)
(0.0852278 2.68232e-12 0 3.5621e-12 0.2407 0 0 0 0)
(0.133457 4.98878e-12 0 1.2492e-11 0.227916 0 0 0 0)
(0.1662 8.223e-15 0 1.48615e-11 0.231645 0 0 0 0)
(0.196687 -1.85215e-11 0 -8.62138e-12 0.233486 0 0 0 0)
(0.221956 -4.55675e-11 0 -6.68361e-11 0.23655 0 0 0 0)
(0.239754 -4.94131e-11 0 -1.18033e-10 0.241382 0 0 0 0)
(0.25014 -1.11174e-12 0 -7.14519e-11 0.246732 0 0 0 0)
(0.253733 9.14646e-11 0 1.11247e-10 0.252342 0 0 0 0)
(0.25238 7.18547e-11 0 3.52966e-10 0.257738 0 0 0 0)
(0.250097 4.69744e-10 0 -1.23307e-10 0.262563 0 0 0 0)
(0.250477 4.92989e-10 0 -8.84152e-11 0.266455 0 0 0 0)
(0.265891 -2.68113e-10 0 -1.57262e-10 0.269115 0 0 0 0)
(0.239039 -6.63247e-10 0 -5.48539e-10 0.271466 0 0 0 0)
(0.24125 -8.82894e-10 0 -1.9685e-09 0.270782 0 0 0 0)
(0.270787 -6.1738e-10 0 3.71477e-10 0.267924 0 0 0 0)
(0.257242 1.30878e-09 0 1.35097e-09 0.26464 0 0 0 0)
(0.259572 2.22643e-09 0 8.79906e-10 0.260347 0 0 0 0)
(0.265093 7.77083e-10 0 1.11617e-09 0.255175 0 0 0 0)
(0.271466 -9.86417e-11 0 -2.55537e-11 0.24921 0 0 0 0)
(0.275956 -4.94111e-10 0 -1.75311e-09 0.242464 0 0 0 0)
(0.278143 -8.90912e-10 0 -2.04651e-09 0.23498 0 0 0 0)
(0.278178 -8.48562e-10 0 -1.30248e-09 0.22681 0 0 0 0)
(0.275805 -5.30653e-10 0 -1.30594e-10 0.218017 0 0 0 0)
(0.270151 -5.56933e-11 0 8.26472e-10 0.208674 0 0 0 0)
(0.260389 1.2875e-10 0 1.60497e-09 0.198829 0 0 0 0)
(0.247206 4.49979e-10 0 2.1852e-09 0.188605 0 0 0 0)
(0.233865 7.11306e-10 0 2.64304e-09 0.177715 0 0 0 0)
(0.223632 6.8097e-10 0 2.45097e-09 0.167188 0 0 0 0)
(0.210923 -2.7852e-11 0 1.74313e-09 0.154498 0 0 0 0)
(0.170073 -6.22779e-10 0 5.43347e-10 0.15034 0 0 0 0)
(0.322631 -1.44552e-10 0 1.62112e-10 0.123233 0 0 0 0)
(2.38413 -7.64921e-10 0 -2.81658e-10 0.0960413 0 0 0 0)
(2.13041 -8.3573e-10 0 2.22265e-10 0.0124209 0 0 0 0)
(1.47447 0.755548 0 -9.42803 -1.4693 0 0 0 0)
(-0.0467296 0.917522 0 -5.13719 1.72035 0 0 0 0)
(-1.63339 -0.15206 0 -2.75665 2.23676 0 0 0 0)
(-1.20771 -0.390164 0 -0.659879 1.24707 0 0 0 0)
(-0.422807 -0.166448 0 -0.0291694 0.495112 0 0 0 0)
(-0.104127 -0.034848 0 0.0055119 0.307554 0 0 0 0)
(0.0130364 -0.00917333 0 0.0185177 0.263372 0 0 0 0)
(0.0849763 -0.00459221 0 0.0169053 0.245378 0 0 0 0)
(0.13327 -0.00131713 0 0.0120208 0.23253 0 0 0 0)
(0.166308 0.000810161 0 0.0103781 0.235672 0 0 0 0)
(0.196501 0.000713458 0 0.00958361 0.237631 0 0 0 0)
(0.221603 0.00114863 0 0.00868921 0.240678 0 0 0 0)
(0.23937 0.00148103 0 0.00811294 0.245398 0 0 0 0)
(0.249728 0.00159406 0 0.00755743 0.250673 0 0 0 0)
(0.253269 0.0016008 0 0.0068256 0.256235 0 0 0 0)
(0.251855 0.00148669 0 0.00581224 0.261588 0 0 0 0)
(0.249535 0.00126795 0 0.00453548 0.266374 0 0 0 0)
(0.249927 0.000953105 0 0.0031421 0.27023 0 0 0 0)
(0.265387 0.000728957 0 0.00180105 0.272856 0 0 0 0)
(0.238614 0.000242482 0 0.000451888 0.275144 0 0 0 0)
(0.240827 -0.000515256 0 -0.000633555 0.274461 0 0 0 0)
(0.270292 -0.000893402 0 -0.00191947 0.271664 0 0 0 0)
(0.256701 -0.00110208 0 -0.00307533 0.268437 0 0 0 0)
(0.258994 -0.00137675 0 -0.00424334 0.264216 0 0 0 0)
(0.264504 -0.00161997 0 -0.00537748 0.25912 0 0 0 0)
(0.270887 -0.00184879 0 -0.00644755 0.253236 0 0 0 0)
(0.275404 -0.00206984 0 -0.00741947 0.246572 0 0 0 0)
(0.277632 -0.00227708 0 -0.00826409 0.23916 0 0 0 0)
(0.277719 -0.00246736 0 -0.00896225 0.231042 0 0 0 0)
(0.275412 -0.00263788 0 -0.00950855 0.222264 0 0 0 0)
(0.269837 -0.00279097 0 -0.00991239 0.212881 0 0 0 0)
(0.260167 -0.00291922 0 -0.0101989 0.202928 0 0 0 0)
(0.247092 -0.00307106 0 -0.0103907 0.192514 0 0 0 0)
(0.23387 -0.00311506 0 -0.0105322 0.181359 0 0 0 0)
(0.22373 -0.00337699 0 -0.0104938 0.170453 0 0 0 0)
(0.211098 -0.0024507 0 -0.0107594 0.157304 0 0 0 0)
(0.170299 -0.00454763 0 -0.0100527 0.152272 0 0 0 0)
(0.323273 -0.00789798 0 -0.0122583 0.124894 0 0 0 0)
(2.38666 -0.0161182 0 -0.0119897 0.0961235 0 0 0 0)
(2.13242 -0.012163 0 -0.00136519 0.0206771 0 0 0 0)
(0.630857 0.876074 0 -10.3328 -0.216694 0 0 0 0)
(1.46816 1.07813 0 -5.70217 0.570728 0 0 0 0)
(-0.647045 -0.137682 0 -2.91881 0.889763 0 0 0 0)
(-0.66825 -0.506662 0 -0.753587 0.776475 0 0 0 0)
(-0.295471 -0.273314 0 -0.121594 0.440236 0 0 0 0)
(-0.0927809 -0.0674155 0 -0.0339461 0.304724 0 0 0 0)
(0.0152623 -0.0180877 0 -0.00826491 0.265695 0 0 0 0)
(0.0833378 -0.00897214 0 0.00499597 0.246485 0 0 0 0)
(0.131558 -0.00282362 0 0.0014604 0.236404 0 0 0 0)
(0.165491 0.00148389 0 0.000431844 0.236281 0 0 0 0)
(0.196196 0.00145633 0 0.00138639 0.237317 0 0 0 0)
(0.221528 0.00225954 0 0.00221172 0.239694 0 0 0 0)
(0.239425 0.00290779 0 0.00297461 0.243654 0 0 0 0)
(0.249766 0.00315272 0 0.00333591 0.248249 0 0 0 0)
(0.253225 0.00317532 0 0.00327788 0.253103 0 0 0 0)
(0.251713 0.00294933 0 0.0029093 0.25773 0 0 0 0)
(0.24932 0.00251387 0 0.00236865 0.26184 0 0 0 0)
(0.249681 0.00188565 0 0.00178051 0.265159 0 0 0 0)
(0.265109 0.00142941 0 0.0011449 0.267425 0 0 0 0)
(0.238331 0.000467048 0 0.000182855 0.26951 0 0 0 0)
(0.24056 -0.00101215 0 -0.000732948 0.268849 0 0 0 0)
(0.270077 -0.00175241 0 -0.00169528 0.266233 0 0 0 0)
(0.256566 -0.00216668 0 -0.0021981 0.263307 0 0 0 0)
(0.258902 -0.00271032 0 -0.00258554 0.259505 0 0 0 0)
(0.264452 -0.00319433 0 -0.0028953 0.254916 0 0 0 0)
(0.270872 -0.00365051 0 -0.00318472 0.249623 0 0 0 0)
(0.275427 -0.00409465 0 -0.00347635 0.24363 0 0 0 0)
(0.277694 -0.00451767 0 -0.00377605 0.236946 0 0 0 0)
(0.277815 -0.00491539 0 -0.00408595 0.229581 0 0 0 0)
(0.275528 -0.00528317 0 -0.00441104 0.221543 0 0 0 0)
(0.26995 -0.00562496 0 -0.00475939 0.212851 0 0 0 0)
(0.26025 -0.00592498 0 -0.00514371 0.20352 0 0 0 0)
(0.247109 -0.0062746 0 -0.00556008 0.193667 0 0 0 0)
(0.233835 -0.00641787 0 -0.00600644 0.183103 0 0 0 0)
(0.223566 -0.00699791 0 -0.00625078 0.172753 0 0 0 0)
(0.211052 -0.005289 0 -0.0070054 0.160376 0 0 0 0)
(0.169637 -0.00942819 0 -0.00659074 0.15501 0 0 0 0)
(0.322067 -0.0163341 0 -0.0121797 0.131354 0 0 0 0)
(2.3873 -0.0303177 0 -0.0149868 0.103684 0 0 0 0)
(2.1335 -0.0219481 0 -0.00468647 0.0476629 0 0 0 0)
(2.51862 1.18369 0 -3.66919 -0.101513 0 0 0 0)
(2.85225 1.42587 0 -2.50037 0.215785 0 0 0 0)
(0.330258 -0.0396255 0 -1.53765 0.297464 0 0 0 0)
(-0.0768341 -0.53744 0 -0.570114 0.351668 0 0 0 0)
(-0.118629 -0.338801 0 -0.218705 0.339179 0 0 0 0)
(-0.0461581 -0.106677 0 -0.0907158 0.291403 0 0 0 0)
(0.0348899 -0.0353977 0 -0.0438322 0.258757 0 0 0 0)
(0.0929712 -0.0179012 0 -0.01399 0.240665 0 0 0 0)
(0.132386 -0.00597607 0 -0.00897434 0.234914 0 0 0 0)
(0.167207 0.000603872 0 -0.00463084 0.230056 0 0 0 0)
(0.197971 0.00199554 0 -0.000291319 0.229366 0 0 0 0)
(0.222685 0.00383912 0 0.0025753 0.230548 0 0 0 0)
(0.240012 0.0051977 0 0.00430765 0.233168 0 0 0 0)
(0.249874 0.00571908 0 0.00502242 0.236415 0 0 0 0)
(0.253052 0.00572713 0 0.0050489 0.239817 0 0 0 0)
(0.251449 0.00527585 0 0.00468478 0.243028 0 0 0 0)
(0.249076 0.00448721 0 0.00409313 0.245875 0 0 0 0)
(0.249442 0.00337833 0 0.00327732 0.248215 0 0 0 0)
(0.264707 0.00264833 0 0.00210152 0.249839 0 0 0 0)
(0.237764 0.000875967 0 0.00030258 0.251703 0 0 0 0)
(0.239956 -0.00199599 0 -0.00148345 0.251116 0 0 0 0)
(0.269621 -0.00337636 0 -0.003352 0.248723 0 0 0 0)
(0.256299 -0.00409166 0 -0.00456775 0.246291 0 0 0 0)
(0.258663 -0.00509833 0 -0.0056113 0.243137 0 0 0 0)
(0.264189 -0.00599795 0 -0.00656257 0.239338 0 0 0 0)
(0.27054 -0.00684524 0 -0.00751107 0.234983 0 0 0 0)
(0.275006 -0.0076807 0 -0.00848586 0.230098 0 0 0 0)
(0.277177 -0.00849859 0 -0.00948324 0.224712 0 0 0 0)
(0.27721 -0.00929895 0 -0.0104874 0.218849 0 0 0 0)
(0.274855 -0.010074 0 -0.0114763 0.212534 0 0 0 0)
(0.269246 -0.0108193 0 -0.0124188 0.205799 0 0 0 0)
(0.25957 -0.0114773 0 -0.0132735 0.198684 0 0 0 0)
(0.246532 -0.0121742 0 -0.0139629 0.191335 0 0 0 0)
(0.233478 -0.0124149 0 -0.0144415 0.183584 0 0 0 0)
(0.223293 -0.0134465 0 -0.0143357 0.176441 0 0 0 0)
(0.210937 -0.0102983 0 -0.0151741 0.166929 0 0 0 0)
(0.167818 -0.0171092 0 -0.0141788 0.164384 0 0 0 0)
(0.3194 -0.0303393 0 -0.0204564 0.147578 0 0 0 0)
(2.39062 -0.0521969 0 -0.0230123 0.123295 0 0 0 0)
(2.13762 -0.0359896 0 -0.00968266 0.0799487 0 0 0 0)
(2.32712 1.0965 0 -0.457286 0.443293 0 0 0 0)
(2.78 1.27613 0 -0.756164 0.0796341 0 0 0 0)
(0.688958 -0.0593201 0 -0.668395 0.0240455 0 0 0 0)
(0.285593 -0.449961 0 -0.406984 0.129139 0 0 0 0)
(0.0716663 -0.296272 0 -0.219027 0.26642 0 0 0 0)
(0.0507322 -0.12386 0 -0.0981711 0.283089 0 0 0 0)
(0.0786731 -0.057698 0 -0.0470795 0.263909 0 0 0 0)
(0.111762 -0.0271594 0 -0.0224551 0.251269 0 0 0 0)
(0.140133 -0.0113563 0 -0.0105461 0.246514 0 0 0 0)
(0.172939 -0.00339101 0 -0.00352482 0.239795 0 0 0 0)
(0.202188 0.00164122 0 0.0016583 0.237978 0 0 0 0)
(0.225339 0.00507604 0 0.00508984 0.237981 0 0 0 0)
(0.241468 0.00733349 0 0.00710924 0.239006 0 0 0 0)
(0.250422 0.0081844 0 0.00796656 0.240587 0 0 0 0)
(0.252993 0.0081787 0 0.00805318 0.242327 0 0 0 0)
(0.250934 0.00753939 0 0.00765798 0.244056 0 0 0 0)
(0.248095 0.00645449 0 0.00685092 0.245674 0 0 0 0)
(0.24789 0.00490534 0 0.00551358 0.247082 0 0 0 0)
(0.262458 0.00413736 0 0.0034864 0.248081 0 0 0 0)
(0.23518 0.00147836 0 0.000627998 0.249845 0 0 0 0)
(0.237363 -0.00335613 0 -0.00219467 0.24942 0 0 0 0)
(0.267349 -0.00553175 0 -0.00500252 0.24725 0 0 0 0)
(0.254532 -0.0065176 0 -0.00687788 0.245536 0 0 0 0)
(0.257108 -0.00812955 0 -0.00839483 0.243319 0 0 0 0)
(0.262762 -0.00954831 0 -0.00968632 0.240694 0 0 0 0)
(0.269196 -0.0108415 0 -0.0108816 0.237762 0 0 0 0)
(0.273753 -0.0120695 0 -0.0120205 0.234578 0 0 0 0)
(0.276043 -0.0132227 0 -0.0130934 0.231191 0 0 0 0)
(0.27622 -0.0143003 0 -0.0140787 0.227644 0 0 0 0)
(0.274028 -0.0152897 0 -0.0149619 0.223971 0 0 0 0)
(0.268596 -0.0161856 0 -0.0157206 0.22022 0 0 0 0)
(0.259126 -0.0168855 0 -0.0163396 0.216416 0 0 0 0)
(0.246293 -0.0176616 0 -0.0167316 0.21272 0 0 0 0)
(0.233667 -0.0175554 0 -0.0170063 0.208795 0 0 0 0)
(0.223007 -0.0195899 0 -0.0165611 0.205869 0 0 0 0)
(0.211264 -0.0142208 0 -0.0185571 0.199245 0 0 0 0)
(0.165522 -0.023957 0 -0.0171642 0.199948 0 0 0 0)
(0.314985 -0.0484195 0 -0.0231136 0.190089 0 0 0 0)
(2.3959 -0.0837552 0 -0.0244148 0.168746 0 0 0 0)
(2.14414 -0.0561883 0 -0.0179354 0.139861 0 0 0 0)
(2.23061 0.833254 0 -0.0187725 0.48364 0 0 0 0)
(2.64882 1.02187 0 -0.157712 -0.0228811 0 0 0 0)
(0.66674 0.00807949 0 -0.225629 -0.0198657 0 0 0 0)
(0.356193 -0.303879 0 -0.237288 0.0877312 0 0 0 0)
(0.178954 -0.190449 0 -0.158087 0.239299 0 0 0 0)
(0.119537 -0.109097 0 -0.0926266 0.272037 0 0 0 0)
(0.107853 -0.0660611 0 -0.0489723 0.273603 0 0 0 0)
(0.128176 -0.0346637 0 -0.0305195 0.26527 0 0 0 0)
(0.150628 -0.0170324 0 -0.0149212 0.2607 0 0 0 0)
(0.178967 -0.00762135 0 -0.00564255 0.2554 0 0 0 0)
(0.206273 0.000247768 0 0.000761399 0.253006 0 0 0 0)
(0.227938 0.00482913 0 0.00513828 0.252143 0 0 0 0)
(0.242784 0.00770858 0 0.00769321 0.251963 0 0 0 0)
(0.250784 0.00891976 0 0.00884091 0.252301 0 0 0 0)
(0.252755 0.00907032 0 0.0090544 0.2529 0 0 0 0)
(0.25029 0.00850107 0 0.00867625 0.253666 0 0 0 0)
(0.24701 0.00740301 0 0.00780342 0.254514 0 0 0 0)
(0.2462 0.00569751 0 0.00631058 0.255328 0 0 0 0)
(0.259999 0.00531058 0 0.00400985 0.25593 0 0 0 0)
(0.232289 0.00216678 0 0.000731295 0.257715 0 0 0 0)
(0.234531 -0.00449644 0 -0.00271634 0.257499 0 0 0 0)
(0.265108 -0.00711918 0 -0.00597723 0.255465 0 0 0 0)
(0.25303 -0.00788005 0 -0.00806071 0.254398 0 0 0 0)
(0.255957 -0.00976508 0 -0.00959653 0.25304 0 0 0 0)
(0.261793 -0.0113521 0 -0.01079 0.251507 0 0 0 0)
(0.268291 -0.0127382 0 -0.011855 0.249896 0 0 0 0)
(0.272875 -0.0140132 0 -0.0128842 0.248253 0 0 0 0)
(0.275194 -0.0151808 0 -0.0138862 0.246614 0 0 0 0)
(0.275409 -0.016256 0 -0.0148507 0.244988 0 0 0 0)
(0.273272 -0.017228 0 -0.0157497 0.24339 0 0 0 0)
(0.267918 -0.0180997 0 -0.0165703 0.241814 0 0 0 0)
(0.258596 -0.0187042 0 -0.0172447 0.240282 0 0 0 0)
(0.245889 -0.0195187 0 -0.0176326 0.238978 0 0 0 0)
(0.233642 -0.0190168 0 -0.0181267 0.237237 0 0 0 0)
(0.221799 -0.0226484 0 -0.01767 0.236943 0 0 0 0)
(0.210356 -0.0160038 0 -0.0214383 0.231143 0 0 0 0)
(0.163428 -0.025933 0 -0.0202702 0.233654 0 0 0 0)
(0.312413 -0.0604072 0 -0.0234658 0.231821 0 0 0 0)
(2.39561 -0.100598 0 -0.0213705 0.212995 0 0 0 0)
(2.14386 -0.0638236 0 -0.0315104 0.213875 0 0 0 0)
(2.19323 0.608394 0 0.0595555 0.441485 0 0 0 0)
(2.58066 0.79093 0 -0.0268417 0.0834975 0 0 0 0)
(0.612276 0.0472699 0 -0.0864892 0.0528435 0 0 0 0)
(0.350678 -0.20022 0 -0.141497 0.131993 0 0 0 0)
(0.211067 -0.118668 0 -0.116693 0.23475 0 0 0 0)
(0.155879 -0.0908039 0 -0.0902996 0.257491 0 0 0 0)
(0.138522 -0.0642185 0 -0.0542427 0.269798 0 0 0 0)
(0.144575 -0.0395927 0 -0.0368009 0.266659 0 0 0 0)
(0.164105 -0.0208676 0 -0.0210276 0.263971 0 0 0 0)
(0.188051 -0.0108051 0 -0.00935962 0.261636 0 0 0 0)
(0.212577 -0.00149718 0 -0.00106534 0.259922 0 0 0 0)
(0.232019 0.00407065 0 0.00453202 0.259321 0 0 0 0)
(0.245036 0.0074857 0 0.0078527 0.259101 0 0 0 0)
(0.251734 0.00908699 0 0.00945318 0.259267 0 0 0 0)
(0.252834 0.0094937 0 0.00992637 0.259675 0 0 0 0)
(0.249729 0.00909564 0 0.00965801 0.260272 0 0 0 0)
(0.245815 0.0080565 0 0.00879471 0.260965 0 0 0 0)
(0.244235 0.00626897 0 0.00721525 0.261639 0 0 0 0)
(0.257081 0.00643686 0 0.00469086 0.262174 0 0 0 0)
(0.228699 0.00299028 0 0.000956934 0.264062 0 0 0 0)
(0.230898 -0.00552369 0 -0.00318074 0.264027 0 0 0 0)
(0.262199 -0.00851948 0 -0.00708076 0.26201 0 0 0 0)
(0.251044 -0.00885465 0 -0.00959465 0.261175 0 0 0 0)
(0.254478 -0.0109154 0 -0.0113832 0.260111 0 0 0 0)
(0.260586 -0.0125784 0 -0.0127063 0.258932 0 0 0 0)
(0.267178 -0.0139767 0 -0.0138573 0.257728 0 0 0 0)
(0.271796 -0.0152317 0 -0.0149692 0.25654 0 0 0 0)
(0.274148 -0.0163699 0 -0.0160682 0.255376 0 0 0 0)
(0.274424 -0.017407 0 -0.0171119 0.254259 0 0 0 0)
(0.272371 -0.0183479 0 -0.0181173 0.253135 0 0 0 0)
(0.267155 -0.0191806 0 -0.0189302 0.252124 0 0 0 0)
(0.258103 -0.0196181 0 -0.0196284 0.251054 0 0 0 0)
(0.245443 -0.0205957 0 -0.0198163 0.250436 0 0 0 0)
(0.233631 -0.0195168 0 -0.0205991 0.248891 0 0 0 0)
(0.219816 -0.0254622 0 -0.0200234 0.249502 0 0 0 0)
(0.208759 -0.0173904 0 -0.0254468 0.24314 0 0 0 0)
(0.163568 -0.0233035 0 -0.0245227 0.246453 0 0 0 0)
(0.313925 -0.0683269 0 -0.0198641 0.251328 0 0 0 0)
(2.38814 -0.101048 0 -0.0166515 0.234698 0 0 0 0)
(2.13437 -0.0553399 0 -0.0461246 0.261891 0 0 0 0)
(2.14735 0.488284 0 0.0337291 0.434679 0 0 0 0)
(2.50808 0.64736 0 0.00342563 0.153317 0 0 0 0)
(0.556255 0.054812 0 -0.0415191 0.10964 0 0 0 0)
(0.327087 -0.128587 0 -0.0938875 0.168474 0 0 0 0)
(0.228289 -0.0695144 0 -0.0908139 0.233706 0 0 0 0)
(0.179717 -0.075323 0 -0.0716531 0.247759 0 0 0 0)
(0.159406 -0.0572273 0 -0.0524895 0.263382 0 0 0 0)
(0.160183 -0.0402787 0 -0.036194 0.265512 0 0 0 0)
(0.177072 -0.021872 0 -0.022302 0.265553 0 0 0 0)
(0.198204 -0.0115234 0 -0.0100246 0.265928 0 0 0 0)
(0.219659 -0.00198364 0 -0.00113415 0.265858 0 0 0 0)
(0.236532 0.00403782 0 0.00488123 0.266054 0 0 0 0)
(0.247526 0.00765707 0 0.00834289 0.266381 0 0 0 0)
(0.252782 0.00947324 0 0.0100289 0.266813 0 0 0 0)
(0.252952 0.0100381 0 0.010537 0.267375 0 0 0 0)
(0.2492 0.00974447 0 0.0103285 0.268034 0 0 0 0)
(0.244656 0.00872046 0 0.00955394 0.268746 0 0 0 0)
(0.242246 0.00686252 0 0.00801731 0.269439 0 0 0 0)
(0.253968 0.00764575 0 0.00539471 0.270055 0 0 0 0)
(0.224704 0.00395174 0 0.00124316 0.272049 0 0 0 0)
(0.226785 -0.0064734 0 -0.0034545 0.272162 0 0 0 0)
(0.258927 -0.00986752 0 -0.00792989 0.270151 0 0 0 0)
(0.248884 -0.00971081 0 -0.010748 0.269377 0 0 0 0)
(0.252958 -0.011926 0 -0.0126566 0.268384 0 0 0 0)
(0.259409 -0.0136479 0 -0.0139773 0.267278 0 0 0 0)
(0.266111 -0.0150434 0 -0.0150827 0.266156 0 0 0 0)
(0.270744 -0.0162799 0 -0.0161565 0.265047 0 0 0 0)
(0.273129 -0.0173787 0 -0.0172013 0.26399 0 0 0 0)
(0.273435 -0.0184159 0 -0.0182662 0.262906 0 0 0 0)
(0.27152 -0.0192854 0 -0.0191278 0.261981 0 0 0 0)
(0.266462 -0.0201043 0 -0.0200132 0.260908 0 0 0 0)
(0.257742 -0.0203305 0 -0.0204492 0.260119 0 0 0 0)
(0.244954 -0.0216033 0 -0.0204433 0.259685 0 0 0 0)
(0.233443 -0.0199169 0 -0.0217482 0.257775 0 0 0 0)
(0.217127 -0.02819 0 -0.021107 0.258826 0 0 0 0)
(0.20602 -0.0189422 0 -0.0273079 0.252882 0 0 0 0)
(0.168807 -0.0180432 0 -0.0261352 0.256155 0 0 0 0)
(0.319998 -0.0717352 0 -0.0135522 0.263645 0 0 0 0)
(2.3703 -0.0904182 0 -0.0123732 0.251587 0 0 0 0)
(2.11546 -0.0376188 0 -0.061862 0.287572 0 0 0 0)
(2.16403 0.337264 0 0.050773 0.459444 0 0 0 0)
(2.50815 0.477711 0 0.0109996 0.185479 0 0 0 0)
(0.518501 0.0618755 0 -0.0206734 0.152436 0 0 0 0)
(0.303176 -0.080666 0 -0.0578126 0.200359 0 0 0 0)
(0.232493 -0.0422659 0 -0.065997 0.231418 0 0 0 0)
(0.19281 -0.0622062 0 -0.0558181 0.240511 0 0 0 0)
(0.172691 -0.0471112 0 -0.0471053 0.257622 0 0 0 0)
(0.173665 -0.0375009 0 -0.0334513 0.262566 0 0 0 0)
(0.189323 -0.0204671 0 -0.0208596 0.265058 0 0 0 0)
(0.20845 -0.010511 0 -0.00931003 0.267511 0 0 0 0)
(0.22694 -0.00137543 0 -0.000185762 0.26841 0 0 0 0)
(0.241151 0.0045743 0 0.00549364 0.269558 0 0 0 0)
(0.249996 0.00821726 0 0.00897043 0.270207 0 0 0 0)
(0.253848 0.0100444 0 0.0105659 0.270918 0 0 0 0)
(0.253123 0.0106702 0 0.0111345 0.271566 0 0 0 0)
(0.248781 0.0104171 0 0.0110549 0.272263 0 0 0 0)
(0.243588 0.00940983 0 0.0104494 0.273004 0 0 0 0)
(0.240227 0.0075305 0 0.00900155 0.273761 0 0 0 0)
(0.250553 0.00895188 0 0.00628539 0.274506 0 0 0 0)
(0.220171 0.00502072 0 0.00161891 0.276558 0 0 0 0)
(0.222059 -0.00735189 0 -0.00365925 0.276791 0 0 0 0)
(0.25517 -0.0112037 0 -0.00879742 0.27482 0 0 0 0)
(0.24649 -0.010558 0 -0.0119384 0.274061 0 0 0 0)
(0.251366 -0.0129376 0 -0.0139638 0.273086 0 0 0 0)
(0.258248 -0.0147256 0 -0.0152743 0.271988 0 0 0 0)
(0.265078 -0.0161266 0 -0.0163385 0.270865 0 0 0 0)
(0.269754 -0.0173185 0 -0.017341 0.269788 0 0 0 0)
(0.272115 -0.0184334 0 -0.0184026 0.268683 0 0 0 0)
(0.272567 -0.0193432 0 -0.0192462 0.267798 0 0 0 0)
(0.270687 -0.0202734 0 -0.0203862 0.266542 0 0 0 0)
(0.265882 -0.0209747 0 -0.0205918 0.266165 0 0 0 0)
(0.257688 -0.0207968 0 -0.0215551 0.264671 0 0 0 0)
(0.244192 -0.0228544 0 -0.020823 0.265054 0 0 0 0)
(0.232992 -0.0203443 0 -0.0228546 0.262567 0 0 0 0)
(0.214458 -0.0301771 0 -0.0221769 0.263874 0 0 0 0)
(0.203913 -0.0199639 0 -0.0280057 0.259344 0 0 0 0)
(0.176824 -0.0129326 0 -0.0250747 0.262353 0 0 0 0)
(0.327186 -0.0727294 0 -0.00996378 0.2692 0 0 0 0)