/*--------------------------------*- C++ -*----------------------------------*\
| =========                 |                                                 |
| \\      /  F ield         | OpenFOAM: The Open Source CFD Toolbox           |
|  \\    /   O peration     | Version:  v1912                                 |
|   \\  /    A nd           | Website:  www.openfoam.com                      |
|    \\/     M anipulation  |                                                 |
\*---------------------------------------------------------------------------*/
FoamFile
{
    version     2.0;
    format      ascii;
    class       volVectorField;
    location    "0.48";
    object      U;
}
// * * * * * * * * * * * * * * * * * * * * * * * * * * * * * * * * * * * * * //

dimensions      [0 1 -1 0 0 0 0];


internalField   nonuniform List<vector> 
4800
(
(-6.11352 -0.00358832 0)
(-1.15821 -0.00570042 0)
(0.489299 0.00771189 0)
(0.104238 0.00752889 0)
(-0.280849 -0.000566835 0)
(-0.408875 -0.00877289 0)
(-0.366804 -0.00958489 0)
(-0.234269 -0.0110386 0)
(-0.000268841 -0.0099369 0)
(0.26143 -0.00709539 0)
(0.475126 -0.00129101 0)
(0.597937 0.00201793 0)
(0.668019 0.00306017 0)
(0.697611 0.00410774 0)
(0.68433 0.00493435 0)
(0.508076 0.00554138 0)
(0.0412 0.00662588 0)
(-0.362533 0.00801822 0)
(-0.442295 0.0091657 0)
(-0.388318 0.00964405 0)
(-0.288108 0.00987384 0)
(-0.15545 0.0100058 0)
(-0.00919198 0.0101526 0)
(0.142325 0.0098486 0)
(0.292667 0.00847175 0)
(0.434308 0.00453946 0)
(0.567449 -0.00359209 0)
(0.695289 -0.0114173 0)
(0.82411 -0.0164699 0)
(0.917837 -0.0185787 0)
(0.899393 -0.018435 0)
(0.64223 -0.0120934 0)
(-0.0571094 0.00191258 0)
(-0.428839 0.00815699 0)
(-0.448663 0.0097455 0)
(-0.408467 0.00997141 0)
(-0.319326 0.00949423 0)
(-0.219297 0.00877151 0)
(-0.132186 0.0100498 0)
(-0.0549536 0.0131787 0)
(-6.11172 -0.00929045 0)
(-1.1565 -0.0190557 0)
(0.483517 0.0243621 0)
(0.0929357 0.0270475 0)
(-0.293444 0.00512785 0)
(-0.418984 -0.0183727 0)
(-0.3678 -0.0204434 0)
(-0.233304 -0.0260603 0)
(0.00387119 -0.0254901 0)
(0.266637 -0.0189501 0)
(0.478328 -0.00915262 0)
(0.598635 -0.00444301 0)
(0.667217 -0.00320191 0)
(0.696551 -0.00317462 0)
(0.684443 -0.00232028 0)
(0.510172 -0.000220739 0)
(0.0466629 0.00306243 0)
(-0.354385 0.00974234 0)
(-0.434487 0.0159118 0)
(-0.380929 0.0185862 0)
(-0.281166 0.0201565 0)
(-0.148941 0.021275 0)
(-0.00304948 0.0222511 0)
(0.147792 0.023149 0)
(0.296834 0.022777 0)
(0.433412 0.018056 0)
(0.56213 0.00901127 0)
(0.685601 0.000263049 0)
(0.808106 -0.00839366 0)
(0.893973 -0.0248698 0)
(0.877309 -0.047301 0)
(0.639909 -0.0569127 0)
(-0.0277998 -0.0243449 0)
(-0.421212 0.0122275 0)
(-0.447001 0.020978 0)
(-0.410028 0.0256395 0)
(-0.322628 0.0268851 0)
(-0.221716 0.0262546 0)
(-0.134566 0.0306702 0)
(-0.057372 0.0324787 0)
(-6.11344 -0.0142177 0)
(-1.15584 -0.0269228 0)
(0.467114 0.0284889 0)
(0.0684825 0.0321663 0)
(-0.31516 0.00650052 0)
(-0.433023 -0.0218641 0)
(-0.37152 -0.0273325 0)
(-0.234585 -0.0345774 0)
(0.00605774 -0.0342076 0)
(0.271286 -0.0263501 0)
(0.483271 -0.0149919 0)
(0.600914 -0.00916695 0)
(0.666104 -0.0087702 0)
(0.692892 -0.0122264 0)
(0.68193 -0.0138787 0)
(0.512269 -0.0106007 0)
(0.0549595 -4.02042e-05 0)
(-0.346471 0.0138506 0)
(-0.428449 0.0227753 0)
(-0.375236 0.0269111 0)
(-0.275774 0.0294262 0)
(-0.144184 0.0314887 0)
(0.00103842 0.0328898 0)
(0.15023 0.0325921 0)
(0.293392 0.0280336 0)
(0.423615 0.0179092 0)
(0.548272 0.00510442 0)
(0.670925 -0.00689357 0)
(0.786943 -0.0179613 0)
(0.866272 -0.0388392 0)
(0.848183 -0.0700657 0)
(0.640846 -0.0870708 0)
(0.0323623 -0.0420168 0)
(-0.404193 0.0187493 0)
(-0.439943 0.0344528 0)
(-0.408297 0.0435274 0)
(-0.323238 0.0463374 0)
(-0.219958 0.0475241 0)
(-0.129218 0.0552215 0)
(-0.0512369 0.0602089 0)
(-6.11399 -0.0150596 0)
(-1.15513 -0.0283054 0)
(0.448983 0.0336021 0)
(0.0419533 0.0370771 0)
(-0.338057 0.00955278 0)
(-0.447487 -0.0220451 0)
(-0.376758 -0.0297423 0)
(-0.235702 -0.0377058 0)
(0.0109072 -0.0358726 0)
(0.279255 -0.0257677 0)
(0.490685 -0.0151421 0)
(0.603474 -0.00964321 0)
(0.661794 -0.011391 0)
(0.684231 -0.0188088 0)
(0.675086 -0.0253273 0)
(0.51477 -0.0276604 0)
(0.0737682 -0.0128589 0)
(-0.329757 0.0116958 0)
(-0.416605 0.0245721 0)
(-0.364889 0.0304942 0)
(-0.266242 0.0341409 0)
(-0.136283 0.036832 0)
(0.00674916 0.0383528 0)
(0.152307 0.036375 0)
(0.289112 0.0300136 0)
(0.415037 0.0198265 0)
(0.53597 0.00531771 0)
(0.654547 -0.0129886 0)
(0.763299 -0.0324005 0)
(0.830847 -0.060017 0)
(0.812603 -0.0952951 0)
(0.638095 -0.115668 0)
(0.112548 -0.062945 0)
(-0.370496 0.0225724 0)
(-0.427722 0.0485077 0)
(-0.402985 0.062469 0)
(-0.32252 0.0677964 0)
(-0.217373 0.0701866 0)
(-0.122829 0.0787682 0)
(-0.0423024 0.0836813 0)
(-6.11525 -0.0143884 0)
(-1.15523 -0.027174 0)
(0.432844 0.0331685 0)
(0.019012 0.036075 0)
(-0.357818 0.0135399 0)
(-0.462579 -0.0148428 0)
(-0.384773 -0.0244207 0)
(-0.236629 -0.0338803 0)
(0.0165138 -0.0337192 0)
(0.286999 -0.0260459 0)
(0.497711 -0.0139755 0)
(0.603834 -0.0106699 0)
(0.655808 -0.0178954 0)
(0.673815 -0.0270149 0)
(0.665465 -0.0368178 0)
(0.517407 -0.0425209 0)
(0.103806 -0.0252153 0)
(-0.304681 0.00944532 0)
(-0.401612 0.0252221 0)
(-0.353968 0.0320077 0)
(-0.256915 0.0364938 0)
(-0.129301 0.0378061 0)
(0.0109426 0.0381926 0)
(0.152665 0.035459 0)
(0.284787 0.026487 0)
(0.406704 0.0132501 0)
(0.524623 -0.00384898 0)
(0.636784 -0.025576 0)
(0.736165 -0.0524877 0)
(0.788242 -0.0854145 0)
(0.775542 -0.119509 0)
(0.636221 -0.138863 0)
(0.205879 -0.082575 0)
(-0.313413 0.0234077 0)
(-0.410982 0.0639255 0)
(-0.392878 0.082018 0)
(-0.319861 0.0911772 0)
(-0.215222 0.0937781 0)
(-0.117494 0.100179 0)
(-0.0359785 0.104044 0)
(-6.1174 -0.0118868 0)
(-1.15607 -0.024892 0)
(0.422637 0.027866 0)
(0.00565106 0.0301683 0)
(-0.370079 0.0231208 0)
(-0.47466 0.00292843 0)
(-0.392919 -0.0061715 0)
(-0.239664 -0.0183213 0)
(0.0191717 -0.0221793 0)
(0.291899 -0.0187497 0)
(0.50234 -0.0119574 0)
(0.602065 -0.00957558 0)
(0.647767 -0.0166841 0)
(0.662716 -0.0284554 0)
(0.653649 -0.041839 0)
(0.519763 -0.0506022 0)
(0.141527 -0.0288743 0)
(-0.273602 0.015157 0)
(-0.386659 0.0347671 0)
(-0.346424 0.0415386 0)
(-0.250153 0.0395902 0)
(-0.12529 0.0381828 0)
(0.0122567 0.0381435 0)
(0.150003 0.0349635 0)
(0.275232 0.0254066 0)
(0.391445 0.0103074 0)
(0.505458 -0.0118236 0)
(0.611098 -0.0433885 0)
(0.701168 -0.083394 0)
(0.747934 -0.126468 0)
(0.746655 -0.14895 0)
(0.642573 -0.157146 0)
(0.306977 -0.0975547 0)
(-0.228616 0.0215808 0)
(-0.38962 0.0807267 0)
(-0.379043 0.101149 0)
(-0.316072 0.114257 0)
(-0.21486 0.116611 0)
(-0.114863 0.119197 0)
(-0.0323586 0.120166 0)
(-6.11961 -0.00795407 0)
(-1.15724 -0.020158 0)
(0.419926 0.0208569 0)
(0.00356596 0.028626 0)
(-0.37269 0.0354656 0)
(-0.484608 0.0266193 0)
(-0.402219 0.0204312 0)
(-0.247149 0.00724131 0)
(0.0147417 -0.00241531 0)
(0.290962 -0.00831526 0)
(0.503772 -0.0104136 0)
(0.599733 -0.0120563 0)
(0.641387 -0.0197355 0)
(0.65398 -0.0303782 0)
(0.644716 -0.0418208 0)
(0.527193 -0.0459674 0)
(0.184821 -0.0175393 0)
(-0.238863 0.0337513 0)
(-0.373362 0.0545488 0)
(-0.342427 0.0549994 0)
(-0.247461 0.0525 0)
(-0.12446 0.0481146 0)
(0.0111757 0.044716 0)
(0.143561 0.0380012 0)
(0.26229 0.021966 0)
(0.371696 0.000421965 0)
(0.479631 -0.0271202 0)
(0.57439 -0.066406 0)
(0.650609 -0.113451 0)
(0.705198 -0.156408 0)
(0.726771 -0.174173 0)
(0.661117 -0.171373 0)
(0.409163 -0.109701 0)
(-0.117276 0.0155388 0)
(-0.361673 0.0952412 0)
(-0.361819 0.119888 0)
(-0.311255 0.135633 0)
(-0.217357 0.13758 0)
(-0.116392 0.135683 0)
(-0.0323597 0.132697 0)
(-6.12053 -0.00466776 0)
(-1.15796 -0.0142876 0)
(0.428702 0.0134972 0)
(0.015575 0.0231695 0)
(-0.362856 0.0468121 0)
(-0.485092 0.0490045 0)
(-0.409857 0.0491099 0)
(-0.257678 0.0360733 0)
(0.00339203 0.0202405 0)
(0.280456 0.0026727 0)
(0.498108 -0.0123813 0)
(0.595951 -0.0217665 0)
(0.636928 -0.0290681 0)
(0.650037 -0.0356581 0)
(0.642208 -0.0396366 0)
(0.540562 -0.0305319 0)
(0.232355 0.00503659 0)
(-0.200083 0.0600169 0)
(-0.359629 0.0824195 0)
(-0.341993 0.0858865 0)
(-0.249155 0.0801026 0)
(-0.12923 0.0707646 0)
(0.00375812 0.060252 0)
(0.129918 0.0468839 0)
(0.24154 0.0243017 0)
(0.341897 -0.0049738 0)
(0.441553 -0.0434263 0)
(0.528013 -0.0932022 0)
(0.599862 -0.143983 0)
(0.670397 -0.182721 0)
(0.718107 -0.195182 0)
(0.686471 -0.183667 0)
(0.505637 -0.125062 0)
(0.0158785 0.00131845 0)
(-0.323193 0.102442 0)
(-0.341379 0.135298 0)
(-0.304521 0.152516 0)
(-0.222102 0.155272 0)
(-0.122845 0.149661 0)
(-0.0371342 0.14267 0)
(-6.12262 -0.000130567 0)
(-1.16019 -0.00536582 0)
(0.446786 -0.00573195 0)
(0.0423571 0.00252108 0)
(-0.343259 0.0513279 0)
(-0.482698 0.0684536 0)
(-0.417788 0.0730926 0)
(-0.273476 0.0612339 0)
(-0.0189921 0.0399733 0)
(0.257611 0.0112064 0)
(0.481227 -0.0171958 0)
(0.589508 -0.0356218 0)
(0.634216 -0.0423534 0)
(0.6506 -0.0429464 0)
(0.646755 -0.0353574 0)
(0.564174 -0.0197255 0)
(0.287007 0.0246112 0)
(-0.158465 0.0881412 0)
(-0.349767 0.118277 0)
(-0.349992 0.120064 0)
(-0.259298 0.112617 0)
(-0.141824 0.0994358 0)
(-0.0144484 0.0792876 0)
(0.105571 0.0546587 0)
(0.211603 0.0229602 0)
(0.303955 -0.0156039 0)
(0.3926 -0.0626283 0)
(0.476487 -0.112953 0)
(0.555505 -0.158126 0)
(0.640506 -0.188651 0)
(0.705269 -0.202422 0)
(0.710329 -0.189004 0)
(0.590224 -0.144263 0)
(0.163258 -0.025524 0)
(-0.267153 0.101351 0)
(-0.319333 0.143444 0)
(-0.295764 0.161478 0)
(-0.227452 0.167434 0)
(-0.134237 0.160322 0)
(-0.0477849 0.149988 0)
(-6.12666 0.00441358 0)
(-1.16438 0.00469705 0)
(0.472714 -0.0296006 0)
(0.0843342 -0.022097 0)
(-0.309013 0.0464733 0)
(-0.473291 0.0801578 0)
(-0.423217 0.0926955 0)
(-0.291222 0.0811928 0)
(-0.0501942 0.0561391 0)
(0.222189 0.0170475 0)
(0.452507 -0.0219656 0)
(0.578758 -0.0486909 0)
(0.63051 -0.0558071 0)
(0.653971 -0.0544819 0)
(0.656873 -0.0473438 0)
(0.596356 -0.0243337 0)
(0.348889 0.0299191 0)
(-0.106433 0.103051 0)
(-0.337392 0.144407 0)
(-0.356755 0.149153 0)
(-0.276503 0.142157 0)
(-0.163577 0.123026 0)
(-0.0447579 0.0931237 0)
(0.0694774 0.0593782 0)
(0.171463 0.0210581 0)
(0.260315 -0.0225658 0)
(0.341037 -0.0693392 0)
(0.425907 -0.113438 0)
(0.51935 -0.149358 0)
(0.614597 -0.176849 0)
(0.691996 -0.193408 0)
(0.723628 -0.1873 0)
(0.652583 -0.161474 0)
(0.312919 -0.0639425 0)
(-0.184588 0.0839421 0)
(-0.296362 0.145448 0)
(-0.285266 0.163918 0)
(-0.231626 0.172025 0)
(-0.148213 0.166517 0)
(-0.0627115 0.155519 0)
(-6.13062 0.00834853 0)
(-1.16943 0.0151752 0)
(0.502697 -0.0538392 0)
(0.136181 -0.0516646 0)
(-0.25574 0.0313634 0)
(-0.455143 0.0825752 0)
(-0.426481 0.101026 0)
(-0.310349 0.0926014 0)
(-0.0872085 0.0674701 0)
(0.176895 0.0233764 0)
(0.413145 -0.0222978 0)
(0.562821 -0.0578485 0)
(0.623973 -0.0692933 0)
(0.655648 -0.0696398 0)
(0.664809 -0.0676522 0)
(0.630185 -0.0500008 0)
(0.420841 0.00576802 0)
(-0.03237 0.0939876 0)
(-0.321181 0.152193 0)
(-0.364453 0.160596 0)
(-0.301097 0.154672 0)
(-0.193783 0.132097 0)
(-0.0814427 0.0984809 0)
(0.0288412 0.060919 0)
(0.130612 0.0239201 0)
(0.219505 -0.0159216 0)
(0.301248 -0.0556182 0)
(0.38611 -0.0936118 0)
(0.482443 -0.12808 0)
(0.586881 -0.155314 0)
(0.677283 -0.175806 0)
(0.724827 -0.179202 0)
(0.686591 -0.171325 0)
(0.442392 -0.106307 0)
(-0.0654419 0.0459263 0)
(-0.269835 0.137954 0)
(-0.272819 0.161801 0)
(-0.233324 0.171118 0)
(-0.160886 0.169891 0)
(-0.0782312 0.161397 0)
(-6.13348 0.0124371 0)
(-1.17548 0.0264755 0)
(0.531886 -0.0765971 0)
(0.191811 -0.0834364 0)
(-0.183965 0.00746233 0)
(-0.42685 0.076912 0)
(-0.426898 0.0996213 0)
(-0.328151 0.0958566 0)
(-0.125404 0.0745554 0)
(0.126584 0.031121 0)
(0.366471 -0.0189166 0)
(0.535381 -0.0599963 0)
(0.612344 -0.0788791 0)
(0.651049 -0.0862967 0)
(0.664971 -0.0883117 0)
(0.655057 -0.0837445 0)
(0.494481 -0.0402083 0)
(0.066939 0.056765 0)
(-0.296441 0.139724 0)
(-0.37083 0.155222 0)
(-0.325598 0.151218 0)
(-0.226003 0.130335 0)
(-0.118314 0.0997653 0)
(-0.00990525 0.0641114 0)
(0.0926056 0.0284097 0)
(0.183839 -0.00645816 0)
(0.268272 -0.0381109 0)
(0.354396 -0.0681137 0)
(0.450506 -0.0966913 0)
(0.553193 -0.126808 0)
(0.651526 -0.152992 0)
(0.71198 -0.168625 0)
(0.693784 -0.172256 0)
(0.531474 -0.143864 0)
(0.0828734 -0.0147096 0)
(-0.230231 0.115826 0)
(-0.254901 0.153174 0)
(-0.231499 0.168006 0)
(-0.170117 0.171051 0)
(-0.0915719 0.168413 0)
(-6.13621 0.015308 0)
(-1.18319 0.036413 0)
(0.559556 -0.0936608 0)
(0.248429 -0.108382 0)
(-0.0990327 -0.0171275 0)
(-0.387657 0.0633374 0)
(-0.421866 0.0906509 0)
(-0.340606 0.0934364 0)
(-0.160022 0.079526 0)
(0.0768417 0.0407963 0)
(0.315859 -0.0074863 0)
(0.496762 -0.0523237 0)
(0.593138 -0.082595 0)
(0.638935 -0.0977769 0)
(0.658641 -0.109952 0)
(0.664409 -0.113969 0)
(0.558621 -0.0916905 0)
(0.188811 0.000114232 0)
(-0.249639 0.111911 0)
(-0.371272 0.142272 0)
(-0.34473 0.142097 0)
(-0.254592 0.12794 0)
(-0.149984 0.103742 0)
(-0.041819 0.0737094 0)
(0.0629439 0.0429464 0)
(0.156774 0.0121997 0)
(0.241762 -0.0168734 0)
(0.328225 -0.0423761 0)
(0.423111 -0.0665007 0)
(0.523369 -0.0917301 0)
(0.620662 -0.11924 0)
(0.68089 -0.147413 0)
(0.678948 -0.167671 0)
(0.573391 -0.166934 0)
(0.227637 -0.0834868 0)
(-0.156506 0.0692808 0)
(-0.230984 0.136136 0)
(-0.221891 0.16006 0)
(-0.173032 0.172079 0)
(-0.101217 0.176072 0)
(-6.13902 0.015498 0)
(-1.19232 0.0423513 0)
(0.583696 -0.102986 0)
(0.30246 -0.122277 0)
(-0.00780223 -0.0365448 0)
(-0.339208 0.0472598 0)
(-0.412162 0.0776279 0)
(-0.34478 0.0874627 0)
(-0.188657 0.0799575 0)
(0.0318214 0.0489782 0)
(0.264953 0.00455355 0)
(0.451419 -0.0412535 0)
(0.565787 -0.0790906 0)
(0.61863 -0.104955 0)
(0.647833 -0.124 0)
(0.66026 -0.136429 0)
(0.601223 -0.133616 0)
(0.313853 -0.0644424 0)
(-0.167499 0.0686046 0)
(-0.357073 0.131333 0)
(-0.357601 0.139254 0)
(-0.278886 0.13026 0)
(-0.177731 0.111151 0)
(-0.0705339 0.0829948 0)
(0.036121 0.0567136 0)
(0.133255 0.031785 0)
(0.21984 0.00642929 0)
(0.30557 -0.0160189 0)
(0.39712 -0.038544 0)
(0.491652 -0.063221 0)
(0.58168 -0.0907474 0)
(0.638591 -0.123587 0)
(0.645658 -0.154789 0)
(0.573629 -0.171428 0)
(0.331782 -0.141357 0)
(-0.0404104 -0.00262776 0)
(-0.194676 0.106284 0)
(-0.201031 0.147633 0)
(-0.166413 0.169518 0)
(-0.105275 0.181514 0)
(-6.14146 0.0150417 0)
(-1.20202 0.0444569 0)
(0.603324 -0.102395 0)
(0.350243 -0.122256 0)
(0.0766138 -0.0478627 0)
(-0.284311 0.0284325 0)
(-0.39544 0.0637411 0)
(-0.34307 0.0776677 0)
(-0.209229 0.0752484 0)
(-0.00554929 0.0531028 0)
(0.219537 0.0150978 0)
(0.408198 -0.026331 0)
(0.53051 -0.06502 0)
(0.589912 -0.099898 0)
(0.627897 -0.127001 0)
(0.646758 -0.145201 0)
(0.620454 -0.153115 0)
(0.410136 -0.117301 0)
(-0.0475645 0.00392945 0)
(-0.319871 0.105801 0)
(-0.358756 0.130278 0)
(-0.296969 0.132482 0)
(-0.199649 0.120136 0)
(-0.0918342 0.0995264 0)
(0.0154162 0.0744711 0)
(0.114373 0.0528884 0)
(0.202433 0.0309144 0)
(0.287228 0.0117748 0)
(0.375166 -0.00797073 0)
(0.461836 -0.0332519 0)
(0.540976 -0.0631711 0)
(0.592376 -0.100076 0)
(0.599107 -0.139638 0)
(0.544633 -0.172524 0)
(0.38095 -0.176422 0)
(0.0876985 -0.0836895 0)
(-0.127814 0.0526668 0)
(-0.165895 0.12673 0)
(-0.147682 0.163667 0)
(-0.101456 0.187035 0)
(-6.14318 0.0142002 0)
(-1.21075 0.0420428 0)
(0.618391 -0.0894737 0)
(0.38896 -0.105851 0)
(0.143484 -0.0485564 0)
(-0.229206 0.0116541 0)
(-0.371402 0.0490053 0)
(-0.338638 0.0647765 0)
(-0.220899 0.0659991 0)
(-0.0339943 0.0491926 0)
(0.182504 0.0189609 0)
(0.37114 -0.0140076 0)
(0.496565 -0.0455585 0)
(0.558164 -0.0802078 0)
(0.599265 -0.111031 0)
(0.624667 -0.136066 0)
(0.618897 -0.150907 0)
(0.468836 -0.143095 0)
(0.0829615 -0.0574147 0)
(-0.255931 0.0595521 0)
(-0.341544 0.109259 0)
(-0.304283 0.125215 0)
(-0.21566 0.122267 0)
(-0.108977 0.109521 0)
(-0.00198666 0.0892939 0)
(0.0994588 0.0740184 0)
(0.188925 0.0553984 0)
(0.272152 0.0395617 0)
(0.353762 0.0212577 0)
(0.432114 -0.00433865 0)
(0.499614 -0.0369117 0)
(0.542948 -0.0785443 0)
(0.544417 -0.125262 0)
(0.499498 -0.166865 0)
(0.385614 -0.187628 0)
(0.184334 -0.144993 0)
(-0.0214178 -0.0232202 0)
(-0.112743 0.0869731 0)
(-0.114081 0.148793 0)
(-0.0879096 0.184409 0)
(-6.1442 0.012473 0)
(-1.21719 0.0355641 0)
(0.629002 -0.0685376 0)
(0.416465 -0.0795145 0)
(0.188209 -0.0410317 0)
(-0.181614 -0.000319161 0)
(-0.345967 0.0329188 0)
(-0.330271 0.0488643 0)
(-0.225119 0.0540133 0)
(-0.0530057 0.0412697 0)
(0.155044 0.018358 0)
(0.34176 -0.0058277 0)
(0.466638 -0.0293019 0)
(0.526544 -0.0570691 0)
(0.568377 -0.0823124 0)
(0.595456 -0.108108 0)
(0.597012 -0.131988 0)
(0.490957 -0.140717 0)
(0.180675 -0.0981872 0)
(-0.173573 0.000648633 0)
(-0.301778 0.0687252 0)
(-0.292831 0.100575 0)
(-0.219377 0.11512 0)
(-0.118832 0.114067 0)
(-0.0114419 0.103563 0)
(0.0894072 0.0924327 0)
(0.177828 0.0789328 0)
(0.259664 0.0658864 0)
(0.333938 0.0496779 0)
(0.401754 0.0235823 0)
(0.455365 -0.0140019 0)
(0.487707 -0.0617832 0)
(0.485562 -0.113233 0)
(0.448214 -0.158839 0)
(0.367558 -0.187453 0)
(0.236362 -0.173379 0)
(0.085182 -0.0923974 0)
(-0.0244158 0.0224443 0)
(-0.0681107 0.114494 0)
(-0.0609907 0.168648 0)
(-6.14496 0.0117689 0)
(-1.22132 0.0281585 0)
(0.629743 -0.0376761 0)
(0.42685 -0.0417408 0)
(0.209148 -0.0235731 0)
(-0.149294 -0.00758242 0)
(-0.322816 0.0139629 0)
(-0.31785 0.0291111 0)
(-0.221715 0.0368796 0)
(-0.0630729 0.0339395 0)
(0.136126 0.021 0)
(0.320005 0.00249831 0)
(0.44218 -0.0138421 0)
(0.498794 -0.0334409 0)
(0.538868 -0.0513446 0)
(0.562628 -0.0745084 0)
(0.563674 -0.102171 0)
(0.485074 -0.123871 0)
(0.234681 -0.112741 0)
(-0.0936201 -0.0491107 0)
(-0.250099 0.0155927 0)
(-0.261983 0.0597991 0)
(-0.203783 0.0923065 0)
(-0.114722 0.108978 0)
(-0.0137916 0.109931 0)
(0.084798 0.105707 0)
(0.171541 0.0993998 0)
(0.247515 0.08906 0)
(0.315194 0.0750449 0)
(0.368805 0.0480854 0)
(0.405956 0.00501813 0)
(0.426936 -0.048018 0)
(0.425244 -0.102877 0)
(0.396603 -0.149864 0)
(0.341577 -0.178192 0)
(0.257884 -0.176148 0)
(0.158159 -0.130372 0)
(0.0700756 -0.0434472 0)
(0.00703849 0.0541862 0)
(-0.0217288 0.131343 0)
(-6.14578 0.0103874 0)
(-1.22365 0.0229569 0)
(0.625906 -0.00665981 0)
(0.426419 -0.00984335 0)
(0.212247 -0.0218374 0)
(-0.136146 -0.0188792 0)
(-0.305775 -0.0100329 0)
(-0.304079 0.00376813 0)
(-0.214584 0.0150731 0)
(-0.0658648 0.0215362 0)
(0.12715 0.0208269 0)
(0.307709 0.0162265 0)
(0.422041 0.00475975 0)
(0.478409 -0.0071104 0)
(0.512934 -0.0201127 0)
(0.529012 -0.040751 0)
(0.526154 -0.071174 0)
(0.461486 -0.101939 0)
(0.251071 -0.109899 0)
(-0.0347382 -0.0803851 0)
(-0.196782 -0.0341512 0)
(-0.216539 0.0129766 0)
(-0.169137 0.0566401 0)
(-0.0934669 0.0906911 0)
(-0.00433481 0.108344 0)
(0.086202 0.114179 0)
(0.168981 0.114595 0)
(0.239403 0.108649 0)
(0.29514 0.0953141 0)
(0.331044 0.0656836 0)
(0.351238 0.0194843 0)
(0.362596 -0.0363593 0)
(0.36441 -0.0934189 0)
(0.346801 -0.139365 0)
(0.314463 -0.164383 0)
(0.263941 -0.166354 0)
(0.199776 -0.139974 0)
(0.137564 -0.0856796 0)
(0.0886058 -0.0111608 0)
(0.0449921 0.0684262 0)
(-6.14679 0.00657272 0)
(-1.22302 0.0124524 0)
(0.610634 0.0214887 0)
(0.405293 0.0249006 0)
(0.19069 -0.021607 0)
(-0.143251 -0.0428976 0)
(-0.298697 -0.0424564 0)
(-0.292408 -0.0296756 0)
(-0.205856 -0.0137134 0)
(-0.0604159 0.00353386 0)
(0.128937 0.0170469 0)
(0.303235 0.0262195 0)
(0.406307 0.0250768 0)
(0.462763 0.0206936 0)
(0.488863 0.0103161 0)
(0.495826 -0.00871471 0)
(0.487088 -0.041642 0)
(0.425347 -0.0787779 0)
(0.244415 -0.10187 0)
(-0.00221471 -0.0985909 0)
(-0.14991 -0.0721875 0)
(-0.166674 -0.0311981 0)
(-0.122701 0.0157739 0)
(-0.0555683 0.0606121 0)
(0.0195056 0.0948686 0)
(0.097399 0.114946 0)
(0.171153 0.12305 0)
(0.232715 0.122682 0)
(0.273019 0.107042 0)
(0.286437 0.0744169 0)
(0.29467 0.0282945 0)
(0.297354 -0.0278287 0)
(0.304052 -0.0840705 0)
(0.299085 -0.127116 0)
(0.287642 -0.150074 0)
(0.262114 -0.152902 0)
(0.221297 -0.137684 0)
(0.175697 -0.106919 0)
(0.144265 -0.0622105 0)
(0.111914 -0.00392888 0)
(-6.14685 0.00107636 0)
(-1.22024 0.00558752 0)
(0.586657 0.0494895 0)
(0.367883 0.0589849 0)
(0.141729 -0.0140202 0)
(-0.170023 -0.0663452 0)
(-0.298507 -0.0825214 0)
(-0.278995 -0.071182 0)
(-0.190382 -0.0492798 0)
(-0.0417327 -0.0189459 0)
(0.14399 0.0138025 0)
(0.309072 0.0380745 0)
(0.399507 0.046976 0)
(0.450894 0.0487722 0)
(0.465195 0.039436 0)
(0.463097 0.0201118 0)
(0.446204 -0.0151122 0)
(0.382073 -0.0575751 0)
(0.221538 -0.0942018 0)
(0.00906679 -0.110074 0)
(-0.111525 -0.0974447 0)
(-0.120173 -0.0659556 0)
(-0.0746599 -0.0220093 0)
(-0.00905437 0.0245869 0)
(0.0578947 0.0689293 0)
(0.121321 0.103762 0)
(0.179688 0.122741 0)
(0.224208 0.127242 0)
(0.245495 0.107065 0)
(0.239369 0.0746351 0)
(0.239263 0.0288356 0)
(0.234702 -0.0242632 0)
(0.247212 -0.0741261 0)
(0.255148 -0.1145 0)
(0.259825 -0.134074 0)
(0.254254 -0.137643 0)
(0.229304 -0.131554 0)
(0.194254 -0.112817 0)
(0.176202 -0.0899076 0)
(0.158262 -0.0571179 0)
(-6.14606 -0.00349669 0)
(-1.21548 0.0031505 0)
(0.553876 0.0732174 0)
(0.313061 0.0832242 0)
(0.0666372 -0.0216374 0)
(-0.207644 -0.100276 0)
(-0.297042 -0.126592 0)
(-0.260391 -0.114934 0)
(-0.161406 -0.0882158 0)
(-0.00320807 -0.043215 0)
(0.179335 0.00977772 0)
(0.322147 0.051011 0)
(0.404305 0.068573 0)
(0.4419 0.0744702 0)
(0.443601 0.0672261 0)
(0.431289 0.0462054 0)
(0.402453 0.00864603 0)
(0.330389 -0.0396592 0)
(0.183312 -0.0879843 0)
(0.00641492 -0.117793 0)
(-0.0824845 -0.113943 0)
(-0.0799912 -0.0885879 0)
(-0.0307029 -0.0498035 0)
(0.0383196 -0.00784587 0)
(0.104427 0.0367283 0)
(0.157425 0.0784966 0)
(0.195855 0.108888 0)
(0.215277 0.114513 0)
(0.21546 0.0973272 0)
(0.193323 0.0670525 0)
(0.188246 0.0225085 0)
(0.179614 -0.0238898 0)
(0.194736 -0.0655654 0)
(0.219775 -0.0970099 0)
(0.229979 -0.119482 0)
(0.240265 -0.124163 0)
(0.226679 -0.125012 0)
(0.199106 -0.116819 0)
(0.191576 -0.101313 0)
(0.189376 -0.0834815 0)
(-6.14425 -0.00596968 0)
(-1.20862 0.00551563 0)
(0.512078 0.0908887 0)
(0.23893 0.0967399 0)
(-0.0388556 -0.033709 0)
(-0.257578 -0.130961 0)
(-0.293275 -0.163453 0)
(-0.243415 -0.155335 0)
(-0.118598 -0.125512 0)
(0.0567619 -0.0644515 0)
(0.234057 0.00786126 0)
(0.346567 0.0604964 0)
(0.416236 0.0863649 0)
(0.435809 0.0958478 0)
(0.425065 0.0919571 0)
(0.398272 0.0696783 0)
(0.353318 0.0292615 0)
(0.269918 -0.0244697 0)
(0.132067 -0.0814519 0)
(-0.00603877 -0.122411 0)
(-0.0606191 -0.121764 0)
(-0.0450884 -0.10143 0)
(0.00821997 -0.0679561 0)
(0.0808733 -0.0324335 0)
(0.151231 0.006237 0)
(0.201411 0.0477243 0)
(0.217994 0.081124 0)
(0.208101 0.0935781 0)
(0.188144 0.0799179 0)
(0.151699 0.054597 0)
(0.141894 0.014257 0)
(0.134554 -0.0241872 0)
(0.152217 -0.0567127 0)
(0.182961 -0.0800712 0)
(0.208109 -0.100642 0)
(0.221559 -0.110694 0)
(0.216773 -0.114909 0)
(0.199648 -0.113198 0)
(0.194057 -0.104037 0)
(0.205044 -0.092729 0)
(-6.14269 -0.00887929 0)
(-1.20246 0.0133234 0)
(0.456062 0.0947805 0)
(0.140555 0.090946 0)
(-0.160658 -0.054689 0)
(-0.308913 -0.152101 0)
(-0.297236 -0.189596 0)
(-0.21994 -0.186616 0)
(-0.0597249 -0.14801 0)
(0.135353 -0.0734172 0)
(0.295644 0.00964481 0)
(0.385893 0.0642089 0)
(0.434477 0.0996236 0)
(0.435884 0.112423 0)
(0.409283 0.113533 0)
(0.363295 0.0921983 0)
(0.298349 0.0503178 0)
(0.200725 -0.00986852 0)
(0.0707866 -0.0762696 0)
(-0.0247612 -0.123006 0)
(-0.0448039 -0.123778 0)
(-0.0152267 -0.108561 0)
(0.0443682 -0.0780404 0)
(0.120307 -0.0465076 0)
(0.195472 -0.0149309 0)
(0.243536 0.0174903 0)
(0.247405 0.0425389 0)
(0.215822 0.0631332 0)
(0.167058 0.0607752 0)
(0.117042 0.0430425 0)
(0.100772 0.00989025 0)
(0.0985771 -0.0220129 0)
(0.117409 -0.0468738 0)
(0.151391 -0.0639234 0)
(0.187866 -0.0797556 0)
(0.199501 -0.0942756 0)
(0.200324 -0.103203 0)
(0.193842 -0.104057 0)
(0.193408 -0.0988103 0)
(0.209006 -0.0920288 0)
(-6.14244 -0.00978924 0)
(-1.19864 0.0294488 0)
(0.379699 0.0809509 0)
(0.0163012 0.0599473 0)
(-0.272764 -0.0857125 0)
(-0.35361 -0.171121 0)
(-0.307103 -0.204813 0)
(-0.184446 -0.196857 0)
(0.0163348 -0.146313 0)
(0.223709 -0.0625386 0)
(0.356006 0.0172369 0)
(0.432674 0.067451 0)
(0.458218 0.103883 0)
(0.44095 0.125242 0)
(0.394917 0.128289 0)
(0.326545 0.110782 0)
(0.23728 0.0692105 0)
(0.121856 0.00234346 0)
(0.0051514 -0.0724578 0)
(-0.0465181 -0.119138 0)
(-0.0344592 -0.125471 0)
(0.0111736 -0.113584 0)
(0.0779142 -0.0870299 0)
(0.15556 -0.0587929 0)
(0.230778 -0.0333154 0)
(0.275139 -0.0105031 0)
(0.277532 0.00621409 0)
(0.236634 0.029967 0)
(0.162437 0.0420278 0)
(0.0936541 0.0343129 0)
(0.0667398 0.0107922 0)
(0.0700966 -0.0136679 0)
(0.0887674 -0.0344613 0)
(0.126274 -0.0474775 0)
(0.167079 -0.0597554 0)
(0.174692 -0.0754822 0)
(0.180101 -0.0874732 0)
(0.182721 -0.09191 0)
(0.188972 -0.0898216 0)
(0.207241 -0.0867642 0)
(-6.14399 -0.00421753 0)
(-1.19964 0.0555798 0)
(0.283775 0.0421759 0)
(-0.116605 -0.00156526 0)
(-0.363824 -0.123299 0)
(-0.391618 -0.18518 0)
(-0.309263 -0.206603 0)
(-0.13464 -0.182886 0)
(0.103319 -0.120251 0)
(0.308094 -0.0341715 0)
(0.413917 0.0330829 0)
(0.474705 0.0771583 0)
(0.483153 0.109237 0)
(0.451687 0.13309 0)
(0.385609 0.1405 0)
(0.291434 0.126912 0)
(0.170446 0.0827666 0)
(0.0335482 0.00642425 0)
(-0.0595704 -0.0725725 0)
(-0.0682804 -0.111893 0)
(-0.0282607 -0.124612 0)
(0.0352924 -0.115677 0)
(0.109659 -0.0925366 0)
(0.187577 -0.0685918 0)
(0.259082 -0.0483716 0)
(0.300961 -0.0322818 0)
(0.304113 -0.018663 0)
(0.263372 0.00519953 0)
(0.173485 0.0298801 0)
(0.0814988 0.0305578 0)
(0.0415645 0.0165376 0)
(0.0469592 -0.000833149 0)
(0.0650464 -0.0190886 0)
(0.105042 -0.0312556 0)
(0.144145 -0.041598 0)
(0.150352 -0.0566578 0)
(0.159673 -0.0692668 0)
(0.16922 -0.0772475 0)
(0.181761 -0.0791674 0)
(0.204218 -0.0775986 0)
(-6.14811 0.00535442 0)
(-1.20806 0.0808147 0)
(0.173682 -0.0157769 0)
(-0.236232 -0.0764521 0)
(-0.421088 -0.159549 0)
(-0.424186 -0.188321 0)
(-0.296966 -0.186553 0)
(-0.0710389 -0.149711 0)
(0.193473 -0.0791481 0)
(0.381251 0.00011812 0)
(0.465318 0.0526936 0)
(0.509693 0.0903289 0)
(0.506925 0.11733 0)
(0.465514 0.140045 0)
(0.381197 0.150851 0)
(0.255817 0.138233 0)
(0.0948712 0.0866462 0)
(-0.0569412 0.00242047 0)
(-0.116412 -0.0704414 0)
(-0.0903078 -0.105358 0)
(-0.0242987 -0.12067 0)
(0.0562441 -0.115145 0)
(0.137781 -0.0954872 0)
(0.215815 -0.0749299 0)
(0.283771 -0.0576449 0)
(0.323368 -0.0441013 0)
(0.328204 -0.0305566 0)
(0.2922 -0.00535719 0)
(0.193162 0.0230849 0)
(0.0771963 0.0345458 0)
(0.0218472 0.0259566 0)
(0.0271944 0.0126577 0)
(0.0451552 -0.00216637 0)
(0.0864291 -0.0128389 0)
(0.119004 -0.0252309 0)
(0.125969 -0.0410486 0)
(0.139659 -0.0525582 0)
(0.154972 -0.0628612 0)
(0.172981 -0.0684669 0)
(0.199828 -0.0685758 0)
(-6.14956 0.0177824 0)
(-1.22086 0.103974 0)
(0.0643642 -0.0668626 0)
(-0.323237 -0.131116 0)
(-0.452213 -0.180298 0)
(-0.438133 -0.167959 0)
(-0.26476 -0.155881 0)
(0.00169865 -0.103873 0)
(0.277752 -0.0349861 0)
(0.439738 0.0300315 0)
(0.510305 0.0710239 0)
(0.53874 0.104025 0)
(0.528174 0.128793 0)
(0.48141 0.150202 0)
(0.381072 0.16269 0)
(0.214276 0.144099 0)
(0.00805531 0.0756061 0)
(-0.139647 -0.0137851 0)
(-0.163054 -0.0723478 0)
(-0.109157 -0.103401 0)
(-0.0226941 -0.11315 0)
(0.0730756 -0.109046 0)
(0.162055 -0.0922066 0)
(0.241257 -0.0746436 0)
(0.306827 -0.0590296 0)
(0.345096 -0.0447708 0)
(0.351809 -0.0281792 0)
(0.321491 -0.00150753 0)
(0.217888 0.0275316 0)
(0.0771479 0.045368 0)
(0.00431555 0.0394831 0)
(0.00915172 0.0280187 0)
(0.0290943 0.016383 0)
(0.0691653 0.00605671 0)
(0.0916026 -0.010298 0)
(0.101141 -0.027581 0)
(0.118831 -0.0400481 0)
(0.13757 -0.0527949 0)
(0.161956 -0.0605473 0)
(0.193498 -0.0618528 0)
(-6.13838 0.0356896 0)
(-1.23362 0.124675 0)
(-0.0317989 -0.0901838 0)
(-0.376923 -0.138804 0)
(-0.465664 -0.168363 0)
(-0.43033 -0.143044 0)
(-0.218814 -0.110621 0)
(0.0729355 -0.0537223 0)
(0.346606 0.00314843 0)
(0.48591 0.0513439 0)
(0.548388 0.0849672 0)
(0.565787 0.114727 0)
(0.550768 0.140249 0)
(0.500386 0.161843 0)
(0.379425 0.171991 0)
(0.155819 0.13869 0)
(-0.0878299 0.0481046 0)
(-0.206017 -0.0352525 0)
(-0.198136 -0.0760593 0)
(-0.121984 -0.102222 0)
(-0.0193582 -0.106095 0)
(0.0877411 -0.100521 0)
(0.183724 -0.0847535 0)
(0.264951 -0.0684824 0)
(0.32956 -0.0531125 0)
(0.36776 -0.0363418 0)
(0.375289 -0.0156928 0)
(0.350057 0.0111407 0)
(0.24559 0.0383266 0)
(0.0814882 0.0611723 0)
(-0.0113626 0.0576153 0)
(-0.00785762 0.0478381 0)
(0.0145869 0.0360488 0)
(0.0500775 0.0226525 0)
(0.0631522 0.00208792 0)
(0.0751803 -0.0173584 0)
(0.0948959 -0.0331911 0)
(0.119359 -0.0465227 0)
(0.149346 -0.0566756 0)
(0.188278 -0.0574025 0)
(-6.11928 0.0424238 0)
(-1.24676 0.134135 0)
(-0.109416 -0.0836727 0)
(-0.407258 -0.130154 0)
(-0.460713 -0.153946 0)
(-0.40219 -0.110582 0)
(-0.162783 -0.0691862 0)
(0.136864 -0.0159576 0)
(0.399776 0.0260025 0)
(0.525564 0.0610978 0)
(0.583844 0.0891639 0)
(0.596782 0.117148 0)
(0.580199 0.145664 0)
(0.524112 0.169304 0)
(0.364355 0.172181 0)
(0.0773234 0.114073 0)
(-0.180455 0.00857952 0)
(-0.257747 -0.0568414 0)
(-0.22153 -0.0888686 0)
(-0.126805 -0.104611 0)
(-0.0106133 -0.100515 0)
(0.10191 -0.0899406 0)
(0.204116 -0.0744528 0)
(0.288207 -0.0582925 0)
(0.353855 -0.0419086 0)
(0.392166 -0.0216019 0)
(0.399639 0.00271131 0)
(0.37717 0.0293679 0)
(0.274039 0.0536435 0)
(0.0908299 0.0798002 0)
(-0.0235006 0.0817346 0)
(-0.0249142 0.072792 0)
(-0.00228873 0.0555933 0)
(0.0264748 0.0362675 0)
(0.0340404 0.010467 0)
(0.0473393 -0.0128804 0)
(0.0692547 -0.0308813 0)
(0.0997138 -0.0447939 0)
(0.13815 -0.0540257 0)
(0.187222 -0.0539116 0)
(-6.09486 0.0360441 0)
(-1.26167 0.132418 0)
(-0.173345 -0.0745023 0)
(-0.42061 -0.114294 0)
(-0.442634 -0.129833 0)
(-0.359567 -0.0847974 0)
(-0.107183 -0.0453142 0)
(0.189794 0.00163505 0)
(0.441037 0.0357466 0)
(0.561015 0.0651865 0)
(0.618374 0.0897658 0)
(0.631957 0.117447 0)
(0.615345 0.147507 0)
(0.54531 0.171752 0)
(0.33225 0.159747 0)
(-0.0277885 0.0699336 0)
(-0.258155 -0.0375009 0)
(-0.294418 -0.0837861 0)
(-0.229827 -0.108098 0)
(-0.123082 -0.110727 0)
(0.003948 -0.101865 0)
(0.123185 -0.083655 0)
(0.225531 -0.0650151 0)
(0.312403 -0.0463631 0)
(0.380819 -0.0277145 0)
(0.419014 -0.00315583 0)
(0.425085 0.024798 0)
(0.401979 0.0514913 0)
(0.300154 0.0728343 0)
(0.10632 0.100811 0)
(-0.0307118 0.11184 0)