/*--------------------------------*- C++ -*----------------------------------*\
| =========                 |                                                 |
| \\      /  F ield         | OpenFOAM: The Open Source CFD Toolbox           |
|  \\    /   O peration     | Version:  v1912                                 |
|   \\  /    A nd           | Website:  www.openfoam.com                      |
|    \\/     M anipulation  |                                                 |
\*---------------------------------------------------------------------------*/
FoamFile
{
    version     2.0;
    format      ascii;
    class       volVectorField;
    location    "3.16";
    object      grad(rho);
}
// * * * * * * * * * * * * * * * * * * * * * * * * * * * * * * * * * * * * * //

dimensions      [1 -4 0 0 0 0 0];


internalField   nonuniform List<vector> 
1900
(
(65283.6 -0.0127183 0)
(-47184.9 0.0527601 0)
(-4789.68 0.533945 0)
(324.567 0.692856 0)
(569.589 3.12986 0)
(657.543 4.61041 0)
(551.12 -6.59651 0)
(349.197 -68.2956 0)
(166 -231.654 0)
(-1236.76 -416.887 0)
(65283.6 0.0453363 0)
(-47184.3 0.120487 0)
(-4789.04 0.579808 0)
(327.162 -0.817618 0)
(573.507 -1.241 0)
(647.816 -2.12036 0)
(478.214 -5.78476 0)
(124.14 -47.0523 0)
(-182.592 -168.473 0)
(-654.351 -460.674 0)
(65283.8 3.58824e-09 0)
(-47184.3 -9.23706e-10 0)
(-4790.62 -1.7053e-09 0)
(322.746 3.89022e-09 0)
(568.286 8.08242e-09 0)
(652.999 2.46914e-09 0)
(506.188 -2.41585e-09 0)
(186.509 -2.80664e-09 0)
(-247.622 -4.42313e-09 0)
(-838.885 -2.13163e-10 0)
(65283.6 -0.0453363 0)
(-47184.3 -0.120487 0)
(-4789.04 -0.579808 0)
(327.162 0.817618 0)
(573.507 1.241 0)
(647.816 2.12036 0)
(478.214 5.78476 0)
(124.14 47.0523 0)
(-182.592 168.473 0)
(-654.351 460.674 0)
(65283.6 0.0127183 0)
(-47184.9 -0.0527601 0)
(-4789.68 -0.533945 0)
(324.567 -0.692856 0)
(569.589 -3.12986 0)
(657.543 -4.61041 0)
(551.12 6.59651 0)
(349.197 68.2956 0)
(166 231.654 0)
(-1236.76 416.887 0)
(-1645.02 207.124 1.50992e-11)
(-1214.54 111.121 -1.82801e-11)
(-3783.87 -303.824 -2.29319e-11)
(-16479.4 2017.42 0)
(-7015.07 19072.8 -8.52896e-11)
(-986.21 92.8133 1.51366e-11)
(-1778.19 -182.808 1.82801e-11)
(-2580.24 -753.966 2.29319e-11)
(-7742.74 611.702 0)
(-3750.8 15549.7 0)
(-1155.67 2.18827e-09 0)
(-1977.75 2.99955e-09 0)
(-3256.38 -2.76322e-09 0)
(-7939.85 -4.30632e-09 0)
(4629.05 -1.49087e-08 0)
(-986.21 -92.8133 1.51366e-11)
(-1778.19 182.808 1.82801e-11)
(-2580.24 753.966 2.29319e-11)
(-7742.74 -611.702 0)
(-3750.8 -15549.7 0)
(-1645.02 -207.124 -4.53725e-11)
(-1214.54 -111.121 -1.82801e-11)
(-3783.87 303.824 -2.29319e-11)
(-16479.4 -2017.42 -6.11016e-11)
(-7015.07 -19072.8 8.52896e-11)
(21715.1 -3299.13 4.55169e-11)
(5030.57 -28.7884 -3.92142e-11)
(5314.09 982.665 0)
(2688.54 510.825 3.16994e-11)
(-9909.27 -7122.63 -1.42927e-11)
(15392.6 -3148.21 -2.27088e-11)
(6150.51 398.851 1.96067e-11)
(5477.67 223.519 0)
(-805.659 -1259.16 -1.98123e-11)
(-15477.9 -14139.3 3.41309e-12)
(16913.4 -1.59693e-08 0)
(5848.32 -1.20701e-08 0)
(4601.35 -1.06581e-08 0)
(-3662.12 -3.59915e-08 7.90974e-12)
(-17297.7 -5.74459e-08 -6.82618e-12)
(15392.6 3148.21 -2.27088e-11)
(6150.51 -398.851 1.96067e-11)
(5477.67 -223.519 0)
(-805.659 1259.16 -1.98123e-11)
(-15477.9 14139.3 3.41309e-12)
(21715.1 3299.13 2.27088e-11)
(5030.57 28.7884 8.67012e-16)
(5314.09 -982.665 0)
(2688.54 -510.825 1.53844e-14)
(-9909.27 7122.63 1.42927e-11)
(-39226.3 -54129.5 0)
(-29719.4 6205.57 0)
(-279.767 4755.62 0)
(-818.39 2042.4 0)
(-1804.16 1003.79 0)
(-1235.83 418.713 0)
(-318.617 227.828 0)
(183.211 182.669 0)
(433.665 151.676 0)
(714.477 123.449 0)
(943.064 113.836 0)
(1097.29 106.904 0)
(1155.12 103.062 0)
(1094.79 98.2878 0)
(926.984 92.7375 0)
(695.464 87.4081 0)
(462.482 83.0587 0)
(258.044 79.8075 0)
(107.464 77.9685 0)
(3.22059 76.8348 0)
(-99.7692 76.6366 0)
(-212.223 77.2353 0)
(-381.533 78.3055 0)
(-618.389 80.3296 0)
(-895.745 82.6897 0)
(-1185.1 85.2053 0)
(-1421.58 87.478 0)
(-1558.45 89.2401 0)
(-1583.62 90.2086 0)
(-1521.9 90.52 0)
(-1415.83 90.7809 0)
(-1308.25 90.9336 0)
(-1216.61 91.3177 0)
(-1126.43 88.2518 0)
(-957.694 82.0523 0)
(-746.225 82.0031 0)
(-492.936 73.8707 0)
(2428.28 101.874 0)
(142375 674.795 0)
(-169018 4452.77 0)
(-36978.7 -19575.2 0)
(-25144.8 8692.23 0)
(-795.909 4158.2 0)
(-1499.72 1008.91 0)
(-1936.31 444.955 0)
(-1295.22 175.761 0)
(-336.933 100.928 0)
(176.293 77.8561 0)
(429.994 64.7627 0)
(711.779 54.2756 0)
(941.756 49.3618 0)
(1096.4 45.4495 0)
(1154.44 43.0426 0)
(1093.93 40.4398 0)
(926.045 37.5505 0)
(694.629 34.8869 0)
(461.838 32.7886 0)
(257.626 31.3001 0)
(107.227 30.4972 0)
(3.11613 30.0277 0)
(-99.7359 29.9583 0)
(-212.093 30.223 0)
(-381.287 30.7156 0)
(-618.028 31.6949 0)
(-895.336 32.9673 0)
(-1184.7 34.4879 0)
(-1421.24 36.1212 0)
(-1558.24 37.7191 0)
(-1583.56 39.1369 0)
(-1521.93 40.4235 0)
(-1415.86 41.8991 0)
(-1308.23 43.6834 0)
(-1216.85 45.9965 0)
(-1127.29 47.3057 0)
(-958.2 47.357 0)
(-747.168 51.1374 0)
(-491.275 50.4902 0)
(2490.33 66.0143 0)
(142986 336.281 0)
(-169724 7925.17 0)
(-33178.3 -9.75381e-09 0)
(-22815.1 2.32541e-09 0)
(-2514.92 -3.22974e-10 0)
(-1898.61 1.1401e-08 0)
(-2046.53 1.42109e-08 0)
(-1335.91 3.7142e-09 0)
(-347.099 -1.96691e-08 0)
(172.69 -2.39324e-08 0)
(426.805 -4.09208e-08 0)
(709.997 8.33273e-09 0)
(940.496 1.20889e-07 0)
(1095.45 2.76207e-07 0)
(1153.67 4.43863e-07 0)
(1093.19 4.88175e-07 0)
(925.368 2.00244e-07 0)
(694.078 -5.67142e-07 0)
(461.439 -1.28408e-06 0)
(257.378 -1.39098e-06 0)
(107.094 -1.07005e-06 0)
(3.06383 1.95205e-07 0)
(-99.7124 1.1765e-06 0)
(-212.002 9.34138e-07 0)
(-381.105 4.49386e-07 0)
(-617.734 5.57808e-07 0)
(-894.933 4.98252e-07 0)
(-1184.19 -7.00983e-07 0)
(-1420.64 -2.18841e-06 0)
(-1557.57 -2.94717e-06 0)
(-1582.83 -2.65265e-06 0)
(-1521.1 -1.47996e-06 0)
(-1414.88 -1.96627e-07 0)
(-1307.06 7.24495e-07 0)
(-1215.55 5.57001e-07 0)
(-1126.04 -6.89517e-07 0)
(-956.579 -2.88551e-06 0)
(-745.313 -4.60383e-06 0)
(-488.609 -6.18269e-06 0)
(2511.42 -7.52042e-06 0)
(144661 -1.59226e-07 0)
(-171511 8.07724e-05 0)
(-36978.7 19575.2 0)
(-25144.8 -8692.23 0)
(-795.909 -4158.2 0)
(-1499.72 -1008.91 0)
(-1936.31 -444.955 0)
(-1295.22 -175.761 0)
(-336.933 -100.928 0)
(176.293 -77.8561 0)
(429.994 -64.7627 0)
(711.779 -54.2756 0)
(941.756 -49.3618 0)
(1096.4 -45.4495 0)
(1154.44 -43.0426 0)
(1093.93 -40.4398 0)
(926.045 -37.5505 0)
(694.629 -34.8869 0)
(461.838 -32.7886 0)
(257.626 -31.3001 0)
(107.227 -30.4972 0)
(3.11613 -30.0277 0)
(-99.7359 -29.9583 0)
(-212.093 -30.223 0)
(-381.287 -30.7156 0)
(-618.028 -31.6949 0)
(-895.336 -32.9673 0)
(-1184.7 -34.4879 0)
(-1421.24 -36.1212 0)
(-1558.24 -37.7191 0)
(-1583.56 -39.1369 0)
(-1521.93 -40.4235 0)
(-1415.86 -41.8991 0)
(-1308.23 -43.6834 0)
(-1216.85 -45.9965 0)
(-1127.29 -47.3057 0)
(-958.2 -47.357 0)
(-747.168 -51.1374 0)
(-491.275 -50.4902 0)
(2490.33 -66.0143 0)
(142986 -336.281 0)
(-169724 -7925.17 0)
(-39226.3 54129.5 0)
(-29719.4 -6205.57 0)
(-279.767 -4755.62 0)
(-818.39 -2042.4 0)
(-1804.16 -1003.79 0)
(-1235.83 -418.713 0)
(-318.617 -227.828 0)
(183.211 -182.669 0)
(433.665 -151.676 0)
(714.477 -123.449 0)
(943.064 -113.836 0)
(1097.29 -106.904 0)
(1155.12 -103.062 0)
(1094.79 -98.2878 0)
(926.984 -92.7375 0)
(695.464 -87.4081 0)
(462.482 -83.0587 0)
(258.044 -79.8075 0)
(107.464 -77.9685 0)
(3.22059 -76.8348 0)
(-99.7692 -76.6365 0)
(-212.223 -77.2353 0)
(-381.533 -78.3055 0)
(-618.389 -80.3296 0)
(-895.745 -82.6897 0)
(-1185.1 -85.2053 0)
(-1421.58 -87.478 0)
(-1558.45 -89.2401 0)
(-1583.62 -90.2086 0)
(-1521.9 -90.52 0)
(-1415.83 -90.7809 0)
(-1308.25 -90.9336 0)
(-1216.61 -91.3177 0)
(-1126.43 -88.2518 0)
(-957.694 -82.0523 0)
(-746.225 -82.0031 0)
(-492.936 -73.8706 0)
(2428.28 -101.874 0)
(142375 -674.795 0)
(-169018 -4452.77 0)
(92177.9 62537.9 0)
(-56792.4 -6857.99 0)
(1218.74 -3849.08 0)
(65.9189 -3088.76 0)
(-1070.62 -1706.78 0)
(-877.149 -840.92 0)
(-210.047 -481.605 0)
(216.062 -402.02 0)
(462.898 -306.362 0)
(732.395 -255.537 0)
(950.622 -233.746 0)
(1102.13 -221.209 0)
(1159.05 -212.301 0)
(1099.41 -201.656 0)
(931.784 -190.105 0)
(699.734 -179.357 0)
(465.861 -170.628 0)
(260.336 -164.095 0)
(108.817 -160.315 0)
(3.83086 -157.911 0)
(-99.9486 -157.493 0)
(-212.99 -158.827 0)
(-382.944 -161.155 0)
(-620.361 -165.404 0)
(-897.921 -170.54 0)
(-1187.23 -176.212 0)
(-1423.38 -181.786 0)
(-1559.71 -186.522 0)
(-1584.29 -190.021 0)
(-1522.31 -192.442 0)
(-1416.16 -194.817 0)
(-1308.55 -197.695 0)
(-1215.45 -200.605 0)
(-1122.48 -200.348 0)
(-954.864 -193.116 0)
(-743.127 -197.461 0)
(-501.819 -198.25 0)
(2185.14 -238.292 0)
(140963 -1065.45 0)
(-167245 -6997.33 0)
(107407 29506.4 0)
(-79174.8 -4134.9 0)
(2548.86 -3111.73 0)
(771.816 -2839.24 0)
(-31.4038 -1937.48 0)
(-247.546 -1196.48 0)
(46.1035 -785.287 0)
(334.465 -640.207 0)
(559.145 -515.859 0)
(774.845 -441.797 0)
(972.09 -409.593 0)
(1115.36 -389.817 0)
(1171.86 -373.866 0)
(1113.7 -355.484 0)
(945.898 -336.574 0)
(711.943 -319.148 0)
(475.377 -305.146 0)
(266.754 -294.667 0)
(112.698 -288.64 0)
(5.61239 -284.73 0)
(-100.556 -284.178 0)
(-215.34 -286.577 0)
(-387.115 -290.503 0)
(-626.374 -297.544 0)
(-904.993 -306.048 0)
(-1194.8 -315.683 0)
(-1430.56 -324.902 0)
(-1565.71 -333.349 0)
(-1588.96 -339.104 0)
(-1526.31 -343.523 0)
(-1420.71 -347.896 0)
(-1313.66 -353.329 0)
(-1219.78 -358.103 0)
(-1121.34 -362.252 0)
(-956.43 -354.806 0)
(-752.833 -368.984 0)
(-527.519 -384.22 0)
(1723 -427.588 0)
(136618 -1480.27 0)
(-162002 -11404.5 0)
(113534 15673.8 0)
(-88224.4 -1884.48 0)
(2467.29 -2546.41 0)
(1197.47 -2275.28 0)
(512.404 -1916.75 0)
(233.144 -1417.12 0)
(325.999 -1086.77 0)
(475.693 -894.538 0)
(654.093 -781.336 0)
(834.796 -699.594 0)
(1000.71 -659.935 0)
(1136.56 -632.504 0)
(1192.13 -607.366 0)
(1135.35 -580.826 0)
(966.799 -552.918 0)
(730.019 -528.305 0)
(489.451 -508.156 0)
(276.241 -493.173 0)
(118.393 -484.487 0)
(8.13089 -478.827 0)
(-101.728 -478.228 0)
(-219.085 -481.989 0)
(-393.512 -487.945 0)
(-635.34 -498.166 0)
(-915.401 -510.685 0)
(-1205.4 -523.887 0)
(-1440.4 -537.966 0)
(-1573.39 -547.982 0)
(-1594.09 -557.136 0)
(-1530.79 -562.086 0)
(-1425.61 -567.425 0)
(-1318.39 -575.994 0)
(-1224.05 -580.184 0)
(-1119.3 -588.659 0)
(-961.351 -582.956 0)
(-771.472 -612.881 0)
(-558.293 -640.835 0)
(1128.94 -692.289 0)
(130386 -1906.39 0)
(-154483 -14847.1 0)
(120440 1800.7 0)
(-96732.5 -1496.01 0)
(2172.26 -2166.37 0)
(1378.59 -2067.1 0)
(795.554 -1915.7 0)
(552.249 -1592.53 0)
(549.68 -1366.72 0)
(628.791 -1192.29 0)
(746.999 -1082.61 0)
(891.832 -1016.63 0)
(1036.74 -973.555 0)
(1166.01 -941.522 0)
(1221.66 -910.871 0)
(1166.17 -874.426 0)
(996.509 -840.223 0)
(755.076 -807.744 0)
(509.232 -782.211 0)
(289.563 -762.823 0)
(126.522 -751.473 0)
(11.6436 -744.028 0)
(-103.602 -743.485 0)
(-224.704 -748.756 0)
(-402.705 -756.905 0)
(-648.287 -770.409 0)
(-929.779 -786.068 0)
(-1221.09 -804.58 0)
(-1453.77 -819.255 0)
(-1584.19 -835.774 0)
(-1602.55 -842.084 0)
(-1536.22 -850.611 0)
(-1434.12 -856.635 0)
(-1325.96 -866.662 0)
(-1231.99 -869.46 0)
(-1124.01 -884.203 0)
(-979.771 -884.39 0)
(-808.607 -927.256 0)
(-604.039 -966.16 0)
(503.47 -1027.4 0)
(122978 -2149.14 0)
(-145400 -16826.6 0)
(113634 -8397.13 0)
(-92047.2 -1505.27 0)
(1916.97 -2003.25 0)
(1439.02 -2049.34 0)
(969.717 -1943.49 0)
(762.166 -1754.59 0)
(711.682 -1595.52 0)
(749.471 -1471.28 0)
(823.36 -1388.01 0)
(939.885 -1340.17 0)
(1073.09 -1303.72 0)
(1196.96 -1275.83 0)
(1256.79 -1240.18 0)
(1203.43 -1205.68 0)
(1031.06 -1164.71 0)
(785.922 -1130.57 0)
(532.738 -1101.16 0)
(305.861 -1079.47 0)
(136.504 -1066.43 0)
(15.828 -1057.79 0)
(-106.284 -1057.44 0)
(-232.017 -1063.85 0)
(-414.377 -1073.6 0)
(-663.443 -1088.54 0)
(-948.33 -1107.09 0)
(-1237.38 -1124.07 0)
(-1470.46 -1144.17 0)
(-1595.39 -1152.08 0)
(-1608.39 -1161.66 0)
(-1544.81 -1162.63 0)
(-1441.08 -1163.57 0)
(-1330.75 -1171.69 0)
(-1240.95 -1165.91 0)
(-1133.69 -1173.37 0)
(-1002.84 -1175.62 0)
(-850.268 -1210.86 0)
(-654.794 -1257.71 0)
(-11.0157 -1317.33 0)
(115161 -2088.28 0)
(-135674 -17974 0)
(110319 -5577.91 0)
(-90571.1 -1485.1 0)
(1647.98 -1905.14 0)
(1436.18 -2019.03 0)
(1079.59 -1937.06 0)
(887.571 -1842.91 0)
(822.687 -1741.6 0)
(828.751 -1669.51 0)
(873.338 -1624.21 0)
(973.06 -1599.19 0)
(1098.75 -1575.93 0)
(1227.24 -1552.96 0)
(1289.26 -1528.78 0)
(1238.89 -1494.27 0)
(1068.88 -1461.22 0)
(816.315 -1426.46 0)
(558.472 -1398.93 0)
(323.035 -1377.2 0)
(147.41 -1364.12 0)
(20.304 -1355.19 0)
(-109.442 -1354.91 0)
(-240.273 -1361.51 0)
(-426.496 -1371.16 0)
(-680.559 -1385.72 0)
(-964.015 -1401.21 0)
(-1256.83 -1418.6 0)
(-1480.77 -1427.17 0)
(-1601.04 -1433.92 0)
(-1612.71 -1425.32 0)
(-1538.07 -1417.98 0)
(-1442.85 -1405.46 0)
(-1328.21 -1396.48 0)
(-1233.61 -1376.15 0)
(-1133.36 -1363.56 0)
(-1015.89 -1357.64 0)
(-887.713 -1369.28 0)
(-706.646 -1416.54 0)
(-296.902 -1469.59 0)
(106927 -1813.44 0)
(-125501 -18349.9 0)
(106475 -8135 0)
(-88508 -1476.26 0)
(1402.45 -1815.51 0)
(1408.25 -1931.45 0)
(1139.43 -1890.29 0)
(950.522 -1844.43 0)
(878.779 -1788.21 0)
(862.595 -1761.23 0)
(891.123 -1746.76 0)
(986.401 -1737.7 0)
(1117.64 -1725.9 0)
(1242.4 -1712.91 0)
(1313.35 -1696.22 0)
(1268.53 -1676.17 0)
(1096.39 -1649.4 0)
(845.954 -1623.71 0)
(580.208 -1600.35 0)
(339.399 -1581.97 0)
(157.717 -1570.52 0)
(24.7016 -1562.23 0)
(-112.377 -1561.69 0)
(-247.676 -1567.07 0)
(-437.707 -1574.56 0)
(-692.395 -1584.95 0)
(-980.014 -1595.82 0)
(-1262.4 -1603.01 0)
(-1485.23 -1604.47 0)
(-1593.6 -1593.41 0)
(-1593.03 -1571.64 0)
(-1525.67 -1548.48 0)
(-1420.36 -1518.17 0)
(-1302.5 -1494.74 0)
(-1209.23 -1460.22 0)
(-1115.85 -1430.94 0)
(-1008.35 -1416 0)
(-907.03 -1416.48 0)
(-751.45 -1452.12 0)
(-393.478 -1497.73 0)
(98894.5 -1585.55 0)
(-115662 -18376.2 0)
(100623 -10505 0)
(-84481.4 -1452.17 0)
(1209.34 -1666.76 0)
(1364.11 -1777.67 0)
(1163.45 -1773.52 0)
(985.944 -1757.02 0)
(902.856 -1732.22 0)
(868.687 -1741.1 0)
(896.01 -1747.07 0)
(993.168 -1750.65 0)
(1122.64 -1743.55 0)
(1255.84 -1740.6 0)
(1324.67 -1730.76 0)
(1284 -1722.66 0)
(1119.44 -1705.04 0)
(863.58 -1688.04 0)
(598.689 -1671.09 0)
(351.785 -1657.27 0)
(166.432 -1648.33 0)
(28.8137 -1641.13 0)
(-114.105 -1639.91 0)
(-252.674 -1643.05 0)
(-443.726 -1646.89 0)
(-701.049 -1651.66 0)
(-981.417 -1655.62 0)
(-1265.16 -1653.54 0)
(-1471.52 -1646.48 0)
(-1569.41 -1620.89 0)
(-1569.42 -1590.94 0)
(-1486.55 -1551.1 0)
(-1391.05 -1512.54 0)
(-1272.36 -1477.32 0)
(-1172.13 -1435.77 0)
(-1090.75 -1398.3 0)
(-1001.96 -1378.12 0)
(-922.522 -1377.56 0)
(-784.947 -1397.31 0)
(-425.48 -1431.91 0)
(90662.5 -1458.97 0)
(-105673 -18049.6 0)
(94474.5 -11506.5 0)
(-79991.2 -1385.04 0)
(1088.8 -1515.66 0)
(1305.38 -1618.36 0)
(1159.32 -1645.42 0)
(990.319 -1653.4 0)
(894.127 -1650.09 0)
(848.294 -1674.23 0)
(881.916 -1686.32 0)
(989.784 -1687.17 0)
(1127.32 -1686.63 0)
(1254.73 -1677.17 0)
(1330.63 -1679.06 0)
(1293.31 -1667.19 0)
(1129.76 -1660.32 0)
(878.673 -1644.38 0)
(609.86 -1632.92 0)
(361.333 -1621.79 0)
(173.265 -1614.8 0)
(32.8143 -1608.17 0)
(-114.227 -1606.06 0)
(-254.408 -1607.24 0)
(-446.003 -1607.83 0)
(-700.799 -1609.27 0)
(-981.826 -1607.25 0)
(-1253.6 -1606.04 0)
(-1453.76 -1587.8 0)
(-1540.08 -1570.14 0)
(-1525.78 -1526.24 0)
(-1450.12 -1493.29 0)
(-1349.27 -1446.35 0)
(-1228.52 -1412.07 0)
(-1133.08 -1371.34 0)
(-1060.3 -1338.27 0)
(-988.373 -1319.62 0)
(-925.526 -1320.42 0)
(-803.824 -1332.13 0)
(-452.888 -1357.61 0)
(82881.1 -1373.4 0)
(-96275.4 -17554.2 0)
(87757.3 -12254 0)
(-74853.9 -1298.26 0)
(984.495 -1378.55 0)
(1239.06 -1456.05 0)
(1129.69 -1514.43 0)
(981.448 -1533.45 0)
(882.78 -1540.81 0)
(833.776 -1562.59 0)
(883.544 -1569.65 0)
(992.863 -1573.71 0)
(1132.26 -1569.53 0)
(1263.13 -1569.78 0)
(1334.29 -1566.02 0)
(1302.07 -1567.95 0)
(1141.43 -1556.65 0)
(889.986 -1546.98 0)
(620.451 -1534.61 0)
(369.24 -1524.32 0)
(179.558 -1517.21 0)
(37.2334 -1509.87 0)
(-113.213 -1506.92 0)
(-254.378 -1507.54 0)
(-445.68 -1507.32 0)
(-700.485 -1507.58 0)
(-978.3 -1507.87 0)
(-1246.42 -1500.93 0)
(-1436.93 -1492.27 0)
(-1510.08 -1461.53 0)
(-1495.37 -1429.41 0)
(-1409.56 -1388.62 0)
(-1312.78 -1344.38 0)
(-1200.08 -1311.2 0)
(-1101.01 -1276.43 0)
(-1040.91 -1247.04 0)
(-984.756 -1232.02 0)
(-934.578 -1236.88 0)
(-820.787 -1247.94 0)
(-465.251 -1270.3 0)
(75054.9 -1289.41 0)
(-86859.1 -16997 0)
(80992.6 -12701.1 0)
(-69511.2 -1197.08 0)
(936.749 -1256.27 0)
(1174.44 -1311.39 0)
(1084.74 -1395.6 0)
(964.898 -1416.8 0)
(866.043 -1437.49 0)
(820.51 -1454.51 0)
(871.204 -1456.76 0)
(989.893 -1463.02 0)
(1131.1 -1454.04 0)
(1258.12 -1458.28 0)
(1332.4 -1457.89 0)
(1302.34 -1460.15 0)
(1149.97 -1451.5 0)
(899.905 -1438.12 0)
(631.698 -1424.16 0)
(378.102 -1412.04 0)
(187.186 -1403.53 0)
(42.7301 -1394.43 0)
(-111.978 -1390.79 0)
(-254.787 -1392.16 0)
(-446.05 -1392.74 0)
(-701.333 -1395.3 0)
(-975.418 -1398.05 0)
(-1238.56 -1398.55 0)
(-1415.79 -1388.15 0)
(-1479.51 -1364.41 0)
(-1455.51 -1328.92 0)
(-1368.18 -1291.41 0)
(-1274.66 -1253.12 0)
(-1163.04 -1216.81 0)
(-1071.25 -1186.5 0)
(-1017.5 -1159.8 0)
(-978.581 -1147.21 0)
(-940.873 -1154.72 0)
(-836.033 -1165 0)
(-492.846 -1182.2 0)
(67726.3 -1202.43 0)
(-78095.4 -16249.9 0)
(73964 -13021.1 0)
(-63825.2 -1123.38 0)
(874.337 -1187.87 0)
(1104.8 -1234.77 0)
(1028.12 -1305.9 0)
(941.077 -1322.82 0)
(846.442 -1349.07 0)
(815.206 -1354.12 0)
(875.344 -1347.42 0)
(995.483 -1342.47 0)
(1136.83 -1336.61 0)
(1259.43 -1335.13 0)
(1332.48 -1344.55 0)
(1308.23 -1347.15 0)
(1162.65 -1348.02 0)
(916.33 -1337.71 0)
(645.586 -1327.88 0)
(389.116 -1316.22 0)
(196.53 -1307.17 0)
(49.5185 -1296.18 0)
(-111.034 -1291.96 0)
(-256.261 -1294.43 0)
(-448.7 -1295.12 0)
(-705.603 -1297.92 0)
(-981.43 -1298.19 0)
(-1236.88 -1298.58 0)
(-1404.04 -1281.89 0)
(-1453 -1262.05 0)
(-1425.02 -1220.1 0)
(-1336.52 -1193.08 0)
(-1240.89 -1152.92 0)
(-1135.88 -1125.42 0)
(-1046.07 -1101.76 0)
(-1003.05 -1084.33 0)
(-979.86 -1079.19 0)
(-951.719 -1089.16 0)
(-847.268 -1100.84 0)
(-501.32 -1115.75 0)
(60535.1 -1133.48 0)
(-69511.8 -15476.6 0)
(66975.6 -13220.2 0)
(-58108.3 -1066.09 0)
(829.403 -1122.73 0)
(1060.7 -1177.84 0)
(999.893 -1225.05 0)
(923.304 -1232.94 0)
(835.883 -1263.56 0)
(822.095 -1257.93 0)
(882.431 -1246.54 0)
(1000.32 -1241.72 0)
(1138.17 -1234.73 0)
(1250.46 -1241.28 0)
(1320.82 -1252.39 0)
(1299 -1263.9 0)
(1159.06 -1265.47 0)
(919.314 -1255.86 0)
(652.406 -1244.59 0)
(398.061 -1233.32 0)
(206.497 -1225 0)
(57.3871 -1213.2 0)
(-110.285 -1208.53 0)
(-257.831 -1211.19 0)
(-449.419 -1210.77 0)
(-704.294 -1213.5 0)
(-976.049 -1216.41 0)
(-1222.86 -1217.14 0)
(-1380.59 -1203.05 0)
(-1419.96 -1176.05 0)
(-1389.05 -1137.73 0)
(-1303.45 -1105.97 0)
(-1209.46 -1070.97 0)
(-1113.74 -1046.85 0)
(-1031.65 -1031.03 0)
(-995.757 -1019.7 0)
(-983.244 -1019.77 0)
(-961.738 -1029.42 0)
(-861.652 -1040.21 0)
(-524.299 -1051.73 0)
(53887.6 -1069.5 0)
(-61596.2 -14677.7 0)
(59817.5 -13073.6 0)
(-52167.7 -1032.23 0)
(766.651 -1093.89 0)
(1006.19 -1160.46 0)
(975.019 -1201.07 0)
(903.971 -1206.22 0)
(822.362 -1224.06 0)
(831.607 -1211.49 0)
(890.965 -1196.14 0)
(1006.86 -1177.33 0)
(1137.25 -1165.13 0)
(1242.42 -1166.99 0)
(1310.69 -1165.97 0)
(1295.62 -1171.81 0)
(1170.4 -1160.99 0)
(936.45 -1148.3 0)
(667.309 -1135.55 0)
(407.996 -1128.93 0)
(215.911 -1125.36 0)
(65.3878 -1117.12 0)
(-109.096 -1112.14 0)
(-258.419 -1111.07 0)
(-450.92 -1105.79 0)
(-711.039 -1104.45 0)
(-984.941 -1109.18 0)
(-1224 -1114.55 0)
(-1364.44 -1112.67 0)
(-1390.06 -1095.32 0)
(-1357.48 -1071.21 0)
(-1272.19 -1049.23 0)
(-1183.92 -1024.57 0)
(-1097.4 -1011.94 0)
(-1019.92 -1003.45 0)
(-992.197 -1000.02 0)
(-989.22 -1005.96 0)
(-971.411 -1014.38 0)
(-868.767 -1020.73 0)
(-529.552 -1023.88 0)
(47404.6 -1031.05 0)
(-53882.3 -13788.3 0)
(53036.1 -13000.9 0)
(-46564.2 -997.939 0)
(705.836 -1062.14 0)
(957.413 -1139.07 0)
(955.798 -1177.4 0)
(901.147 -1192.75 0)
(830.797 -1198.14 0)
(848.999 -1175.29 0)
(915.352 -1147.16 0)
(1030.2 -1114.7 0)
(1148.14 -1081.18 0)
(1249.65 -1069.9 0)
(1316.18 -1052.64 0)
(1303.8 -1046.51 0)
(1181.72 -1024.69 0)
(943.83 -996.205 0)
(671.068 -968.442 0)
(407.887 -950.615 0)
(217.879 -941.219 0)
(70.1199 -930.455 0)
(-104.456 -925.419 0)
(-251.706 -926.892 0)
(-443.039 -927.166 0)
(-707.561 -937.099 0)
(-985.78 -956.284 0)
(-1226.22 -979.101 0)
(-1362.07 -988.855 0)
(-1380.01 -988.772 0)
(-1344.64 -980.667 0)
(-1258.51 -978.917 0)
(-1173.53 -975.176 0)
(-1093.38 -978.834 0)
(-1020.16 -984.61 0)
(-998.183 -994.196 0)
(-997.089 -1004.09 0)
(-975.967 -1006.51 0)
(-870.798 -1004.88 0)
(-534.246 -995.764 0)
(41587.4 -990.833 0)
(-46916.2 -13029 0)
(45980.3 -11900 0)
(-40663 -858.808 0)
(630.653 -980.301 0)
(895.129 -1096.2 0)
(923.287 -1139.07 0)
(883.989 -1160.15 0)
(839.19 -1151.43 0)
(880.727 -1115.54 0)
(949.347 -1074.35 0)
(1070.44 -1040.39 0)
(1180.43 -994.064 0)
(1269.92 -972.058 0)
(1333.23 -936.199 0)
(1322.55 -907.932 0)
(1218.87 -866.617 0)
(990.656 -825.068 0)
(711.241 -779.717 0)
(434.229 -747.004 0)
(235.338 -729.723 0)
(80.6136 -715.967 0)
(-105.662 -711.093 0)
(-260.102 -716.067 0)
(-460.756 -724.267 0)
(-739.098 -749.386 0)
(-1025.41 -785.951 0)
(-1255.39 -822.937 0)
(-1373.76 -851.482 0)
(-1382.17 -877.417 0)
(-1347.99 -888.057 0)
(-1266.9 -901.294 0)
(-1183.84 -909.187 0)
(-1106.49 -921.842 0)
(-1034.72 -936.262 0)
(-1010.96 -951.767 0)
(-1001.09 -960.263 0)
(-972.173 -957.615 0)
(-858.41 -948.176 0)
(-516.019 -899.478 0)
(35808.9 -833.992 0)
(-39979.4 -11496.1 0)
(40549.1 -11242.9 0)
(-36041.5 -550.975 0)
(477.076 -760.003 0)
(804.415 -954.518 0)
(894.176 -1012.99 0)
(889.234 -1033.08 0)
(873.783 -991.986 0)
(923.286 -949.145 0)
(987.77 -904.889 0)
(1107.57 -865.051 0)
(1213.98 -828.972 0)
(1305.41 -794.645 0)
(1377.97 -750.109 0)
(1370.85 -703.326 0)
(1261.57 -657.152 0)
(1027.57 -611.946 0)
(746.293 -567.675 0)
(456.063 -532.113 0)
(247.787 -507.169 0)
(88.0723 -486.222 0)
(-104.552 -482.342 0)
(-264.4 -496.483 0)
(-475.146 -514.573 0)
(-767.002 -545.399 0)
(-1056.66 -584.829 0)
(-1289.37 -627.268 0)
(-1414.56 -663.858 0)
(-1415.25 -702.61 0)
(-1367.65 -728.966 0)
(-1278.87 -749.933 0)
(-1193.33 -765.505 0)
(-1119.47 -777.576 0)
(-1049 -795.161 0)
(-1021.31 -806.071 0)
(-1002.72 -812.466 0)
(-964.319 -803.723 0)
(-814.775 -762.061 0)
(-424.215 -631.407 0)
(31376.1 -467.685 0)
(-34843.2 -9948.76 0)
(34901.6 1950.11 0)
(-30561.4 303.579 0)
(241.785 -229.152 0)
(651.34 -489.865 0)
(847.582 -592.769 0)
(904.231 -616.134 0)
(920.073 -583.686 0)
(964.657 -551.146 0)
(1030.38 -506.985 0)
(1143.6 -470.636 0)
(1248.27 -440.951 0)
(1345.91 -410.091 0)
(1421.23 -358.116 0)
(1412.12 -196.911 0)
(1306.93 216.836 0)
(1076.88 863.268 0)
(788.171 1628.25 0)
(492.535 2368.57 0)
(279.561 2889.03 0)
(104.538 3097.63 0)
(-115.55 3100.3 0)
(-291.161 2896.54 0)
(-507.893 2381.51 0)
(-806.799 1647.46 0)
(-1104.31 890.639 0)
(-1331.54 252.643 0)
(-1446.37 -158.333 0)
(-1444.91 -319.163 0)
(-1393.59 -369.052 0)
(-1302.11 -381.914 0)
(-1210.48 -407.775 0)
(-1135.07 -414.654 0)
(-1062.18 -439.336 0)
(-1027.64 -445.877 0)
(-998.826 -454.346 0)
(-923.601 -440.419 0)
(-692.36 -352.491 0)
(-232.348 -140.183 0)
(26830.4 350.89 0)
(-30251.2 5294.01 0)
(42382.6 509941 0)
(-38141.6 38434.7 0)
(-287.515 29115.9 0)
(454.021 34064.6 0)
(772.498 38925.6 0)
(897.987 45299.1 0)
(936.408 51741.8 0)
(997.198 59026.5 0)
(1065.35 66452.4 0)
(1171.2 74558.5 0)
(1272.33 82742 0)
(1385.23 91520.1 0)
(1583.4 100177 0)
(1924.89 109240 0)
(2283.2 117930 0)
(2387.65 126748 0)
(2196.86 134906 0)
(1671 142279 0)
(950.334 147438 0)
(291.662 151476 0)
(-298.326 151487 0)
(-957.054 147450 0)
(-1678.81 142297 0)
(-2203.66 134927 0)
(-2400.76 126771 0)
(-2300.2 117954 0)
(-1965.58 109266 0)
(-1618.31 100199 0)
(-1428.12 91538 0)
(-1316.19 82745.1 0)
(-1224.88 74542.1 0)
(-1149.88 66446.3 0)
(-1079.08 58982.4 0)
(-1035.78 51687 0)
(-997.464 45152.7 0)
(-866.168 38684.9 0)
(-525.457 33684 0)
(253.589 28520.1 0)
(36612.7 37080.1 0)
(-39468.7 499731 0)
(558942 -581232 0)
(-493902 -42362.2 0)
(-3969.37 -33764.4 0)
(10104.3 -38780 0)
(11673.5 -44344.9 0)
(13254.4 -51847.7 0)
(14148.3 -59399.7 0)
(15140.3 -67899.3 0)
(15997.6 -76615.8 0)
(16840.8 -86123.4 0)
(17593.1 -95870.4 0)
(18147 -106296 0)
(18496.6 -116752 0)
(18519.7 -127753 0)
(18178.8 -138583 0)
(17435.1 -149583 0)
(15753.6 -159719 0)
(12569.1 -168715 0)
(9142.66 -174895 0)
(4005.89 -179497 0)
(-3995.2 -179503 0)
(-9146.85 -174893 0)
(-12575.8 -168709 0)
(-15767.6 -159702 0)
(-17459.6 -149555 0)
(-18200.6 -138526 0)
(-18556.4 -127684 0)
(-18528.1 -116613 0)
(-18212.5 -106155 0)
(-17679.9 -95612.3 0)
(-16916.6 -85838.1 0)
(-16129 -76213.1 0)
(-15284.8 -67372.5 0)
(-14354.4 -58739.5 0)
(-13528.1 -50968 0)
(-11975.2 -43246 0)
(-10487.5 -37427.5 0)
(3040.24 -32119.4 0)
(480907 -40047.4 0)
(-543067 -564524 0)
(558942 581232 0)
(-493902 42362.2 0)
(-3969.37 33764.4 0)
(10104.3 38780 0)
(11673.5 44344.9 0)
(13254.4 51847.7 0)
(14148.3 59399.7 0)
(15140.3 67899.3 0)
(15997.6 76615.8 0)
(16840.8 86123.4 0)
(17593.1 95870.4 0)
(18147 106296 0)
(18496.6 116752 0)
(18519.7 127753 0)
(18178.8 138583 0)
(17435.1 149583 0)
(15753.6 159719 0)
(12569.1 168715 0)
(9142.66 174895 0)
(4005.89 179497 0)
(-3995.2 179503 0)
(-9146.85 174893 0)
(-12575.8 168709 0)
(-15767.6 159702 0)
(-17459.6 149555 0)
(-18200.6 138526 0)
(-18556.4 127684 0)
(-18528.1 116613 0)
(-18212.5 106155 0)
(-17679.9 95612.3 0)
(-16916.6 85838.1 0)
(-16129 76213.1 0)
(-15284.8 67372.5 0)
(-14354.4 58739.5 0)
(-13528.1 50968 0)
(-11975.2 43246 0)
(-10487.5 37427.5 0)
(3040.24 32119.4 0)
(480907 40047.4 0)
(-543067 564524 0)
(42382.6 -509941 0)
(-38141.6 -38434.7 0)
(-287.515 -29115.9 0)
(454.021 -34064.6 0)
(772.498 -38925.6 0)
(897.987 -45299.1 0)
(936.408 -51741.8 0)
(997.198 -59026.5 0)
(1065.35 -66452.4 0)
(1171.2 -74558.5 0)
(1272.33 -82742 0)
(1385.23 -91520.1 0)
(1583.4 -100177 0)
(1924.89 -109240 0)
(2283.2 -117930 0)
(2387.65 -126748 0)
(2196.86 -134906 0)
(1671 -142279 0)
(950.334 -147438 0)
(291.662 -151476 0)
(-298.326 -151487 0)
(-957.054 -147450 0)
(-1678.81 -142297 0)
(-2203.66 -134927 0)
(-2400.76 -126771 0)
(-2300.2 -117954 0)
(-1965.58 -109266 0)
(-1618.31 -100199 0)
(-1428.12 -91538 0)
(-1316.19 -82745.1 0)
(-1224.88 -74542.1 0)
(-1149.88 -66446.3 0)
(-1079.08 -58982.4 0)
(-1035.78 -51687 0)
(-997.464 -45152.7 0)
(-866.168 -38684.9 0)
(-525.457 -33684 0)
(253.589 -28520.1 0)
(36612.7 -37080.1 0)
(-39468.7 -499731 0)
(34901.6 -1950.11 0)
(-30561.4 -303.579 0)
(241.785 229.152 0)
(651.34 489.865 0)
(847.582 592.769 0)
(904.231 616.134 0)
(920.073 583.686 0)
(964.657 551.146 0)
(1030.38 506.985 0)
(1143.6 470.636 0)
(1248.27 440.951 0)
(1345.91 410.091 0)
(1421.23 358.116 0)
(1412.12 196.911 0)
(1306.93 -216.836 0)
(1076.88 -863.268 0)
(788.171 -1628.25 0)
(492.535 -2368.57 0)
(279.561 -2889.03 0)
(104.538 -3097.63 0)
(-115.55 -3100.3 0)
(-291.161 -2896.54 0)
(-507.893 -2381.51 0)
(-806.799 -1647.46 0)
(-1104.31 -890.639 0)
(-1331.54 -252.643 0)
(-1446.37 158.333 0)
(-1444.91 319.163 0)
(-1393.59 369.052 0)
(-1302.11 381.914 0)
(-1210.48 407.775 0)
(-1135.07 414.654 0)
(-1062.18 439.336 0)
(-1027.64 445.877 0)
(-998.826 454.346 0)
(-923.601 440.419 0)
(-692.36 352.491 0)
(-232.348 140.183 0)
(26830.4 -350.89 0)
(-30251.2 -5294.01 0)
(40549.1 11242.9 0)
(-36041.5 550.975 0)
(477.076 760.003 0)
(804.415 954.518 0)
(894.176 1012.99 0)
(889.234 1033.08 0)
(873.783 991.986 0)
(923.286 949.145 0)
(987.77 904.889 0)
(1107.57 865.051 0)
(1213.98 828.972 0)
(1305.41 794.645 0)
(1377.97 750.109 0)
(1370.85 703.326 0)
(1261.57 657.152 0)
(1027.57 611.946 0)
(746.293 567.675 0)
(456.063 532.113 0)
(247.787 507.169 0)
(88.0723 486.222 0)
(-104.552 482.342 0)
(-264.4 496.483 0)
(-475.146 514.573 0)
(-767.002 545.399 0)
(-1056.66 584.829 0)
(-1289.37 627.268 0)
(-1414.56 663.858 0)
(-1415.25 702.61 0)
(-1367.65 728.966 0)
(-1278.87 749.933 0)
(-1193.33 765.505 0)
(-1119.47 777.576 0)
(-1049 795.161 0)
(-1021.31 806.071 0)
(-1002.72 812.466 0)
(-964.319 803.723 0)
(-814.775 762.061 0)
(-424.215 631.407 0)
(31376.1 467.685 0)
(-34843.2 9948.76 0)
(45980.3 11900 0)
(-40663 858.808 0)
(630.653 980.301 0)
(895.129 1096.2 0)
(923.287 1139.07 0)
(883.989 1160.15 0)
(839.19 1151.43 0)
(880.727 1115.54 0)
(949.347 1074.35 0)
(1070.44 1040.39 0)
(1180.43 994.064 0)
(1269.92 972.058 0)
(1333.23 936.199 0)
(1322.55 907.932 0)
(1218.87 866.617 0)
(990.656 825.068 0)
(711.241 779.717 0)
(434.229 747.004 0)
(235.338 729.723 0)
(80.6136 715.967 0)
(-105.662 711.093 0)
(-260.102 716.067 0)
(-460.756 724.267 0)
(-739.098 749.386 0)
(-1025.41 785.951 0)
(-1255.39 822.937 0)
(-1373.76 851.482 0)
(-1382.17 877.417 0)
(-1347.99 888.057 0)
(-1266.9 901.294 0)
(-1183.84 909.187 0)
(-1106.49 921.842 0)
(-1034.72 936.262 0)
(-1010.96 951.767 0)
(-1001.09 960.263 0)
(-972.173 957.615 0)
(-858.41 948.176 0)
(-516.019 899.478 0)
(35808.9 833.992 0)
(-39979.4 11496.1 0)
(53036.1 13000.9 0)
(-46564.2 997.939 0)
(705.836 1062.14 0)
(957.413 1139.07 0)
(955.798 1177.4 0)
(901.147 1192.75 0)
(830.797 1198.14 0)
(848.999 1175.29 0)
(915.352 1147.16 0)
(1030.2 1114.7 0)
(1148.14 1081.18 0)
(1249.65 1069.9 0)
(1316.18 1052.64 0)
(1303.8 1046.51 0)
(1181.72 1024.69 0)
(943.83 996.205 0)
(671.068 968.442 0)
(407.887 950.615 0)
(217.879 941.219 0)
(70.1199 930.455 0)
(-104.456 925.419 0)
(-251.706 926.892 0)
(-443.039 927.166 0)
(-707.561 937.099 0)
(-985.78 956.284 0)
(-1226.22 979.101 0)
(-1362.07 988.855 0)
(-1380.01 988.772 0)
(-1344.64 980.667 0)
(-1258.51 978.917 0)
(-1173.53 975.176 0)
(-1093.38 978.834 0)
(-1020.16 984.61 0)
(-998.183 994.196 0)
(-997.089 1004.09 0)
(-975.967 1006.51 0)
(-870.798 1004.88 0)
(-534.246 995.764 0)
(41587.4 990.833 0)
(-46916.2 13029 0)
(59817.5 13073.6 0)
(-52167.7 1032.23 0)
(766.651 1093.89 0)
(1006.19 1160.46 0)
(975.019 1201.07 0)
(903.971 1206.22 0)
(822.362 1224.06 0)
(831.607 1211.49 0)
(890.965 1196.14 0)
(1006.86 1177.33 0)
(1137.25 1165.13 0)
(1242.42 1166.99 0)
(1310.69 1165.97 0)
(1295.62 1171.81 0)
(1170.4 1160.99 0)
(936.45 1148.3 0)
(667.309 1135.55 0)
(407.996 1128.93 0)
(215.911 1125.36 0)
(65.3878 1117.12 0)
(-109.096 1112.14 0)
(-258.419 1111.07 0)
(-450.92 1105.79 0)
(-711.039 1104.45 0)
(-984.941 1109.18 0)