/*--------------------------------*- C++ -*----------------------------------*\
| =========                 |                                                 |
| \\      /  F ield         | OpenFOAM: The Open Source CFD Toolbox           |
|  \\    /   O peration     | Version:  v1912                                 |
|   \\  /    A nd           | Website:  www.openfoam.com                      |
|    \\/     M anipulation  |                                                 |
\*---------------------------------------------------------------------------*/
FoamFile
{
    version     2.0;
    format      ascii;
    class       volVectorField;
    location    "1.66";
    object      grad(rho);
}
// * * * * * * * * * * * * * * * * * * * * * * * * * * * * * * * * * * * * * //

dimensions      [1 -4 0 0 0 0 0];


internalField   nonuniform List<vector> 
1900
(
(2147.6 0.114141 0)
(1853.7 0.273255 0)
(1667.24 0.517009 0)
(961.018 0.41018 0)
(443.114 -0.91366 0)
(132.438 2.63837 0)
(10.3384 5.689 0)
(53.0343 -22.6035 0)
(179.433 -69.9706 0)
(-205.237 -91.9794 0)
(2147.99 0.185847 0)
(1854.11 0.354013 0)
(1667.38 0.827073 0)
(959.588 0.838153 0)
(445.342 -1.8695 0)
(139.041 2.29862 0)
(-14.9035 5.17111 0)
(-22.6253 -14.1256 0)
(110.057 -40.669 0)
(290.435 -76.8972 0)
(2148.14 -4.40536e-09 0)
(1854.34 8.89955e-09 0)
(1667.73 5.25802e-09 0)
(958.322 -1.97176e-09 0)
(444.574 -8.98837e-09 0)
(139.479 -9.166e-09 0)
(-6.08586 -5.13367e-09 0)
(7.19417 -1.77636e-10 0)
(116.661 2.73559e-09 0)
(231.694 7.10543e-11 0)
(2147.99 -0.185847 0)
(1854.11 -0.354013 0)
(1667.38 -0.827073 0)
(959.588 -0.838153 0)
(445.342 1.8695 0)
(139.041 -2.29862 0)
(-14.9035 -5.17111 0)
(-22.6253 14.1256 0)
(110.057 40.669 0)
(290.435 76.8972 0)
(2147.6 -0.114141 0)
(1853.7 -0.273255 0)
(1667.24 -0.517009 0)
(961.018 -0.41018 0)
(443.114 0.91366 0)
(132.438 -2.63837 0)
(10.3384 -5.689 0)
(53.0343 22.6035 0)
(179.433 69.9706 0)
(-205.237 91.9794 0)
(-206.55 345.286 1.44088e-11)
(-10.6069 375.212 -1.75601e-11)
(-1263.28 344.3 -2.21908e-11)
(-6605.14 1118.56 0)
(-1753.73 8463.78 -8.97704e-11)
(291.706 323.386 1.44712e-11)
(-173.336 247.086 1.75601e-11)
(-939.462 104.64 2.21908e-11)
(-3216.87 428.441 0)
(-893.675 7132.47 0)
(264.454 4.82706e-10 0)
(-215.846 1.09075e-09 0)
(-1097.1 -4.29286e-09 0)
(-3077.35 -1.88401e-09 0)
(2892.87 -5.92119e-09 0)
(291.706 -323.386 1.44712e-11)
(-173.336 -247.086 1.75601e-11)
(-939.462 -104.64 2.21908e-11)
(-3216.87 -428.441 0)
(-893.675 -7132.47 0)
(-206.55 -345.286 -4.33512e-11)
(-10.6069 -375.212 -1.75601e-11)
(-1263.28 -344.3 -2.21908e-11)
(-6605.14 -1118.56 -5.99584e-11)
(-1753.73 -8463.78 8.97704e-11)
(10452.2 -3138.13 4.26664e-11)
(2145.11 -387.983 -3.63924e-11)
(3180.54 132.506 0)
(5598.19 612.986 2.88683e-11)
(-723.929 -7053.89 -1.34602e-11)
(7527.68 -3176.02 -2.1286e-11)
(2935.49 -182.935 1.81904e-11)
(3523.54 41.0063 0)
(2415.17 -629.109 -1.80495e-11)
(-7285.76 -14159.2 3.20533e-12)
(8239.55 -8.07435e-09 0)
(2936.59 -6.75623e-09 0)
(2968.73 -1.97373e-10 0)
(-704.693 -8.47543e-09 7.21221e-12)
(-10403.1 -1.51146e-08 -6.41065e-12)
(7527.68 3176.02 -2.1286e-11)
(2935.49 182.935 1.81904e-11)
(3523.54 -41.0063 0)
(2415.17 629.109 -1.80495e-11)
(-7285.76 14159.2 3.20533e-12)
(10452.2 3138.13 2.1286e-11)
(2145.11 387.983 1.16848e-14)
(3180.54 -132.506 0)
(5598.19 -612.986 1.84611e-14)
(-723.929 7053.89 1.34602e-11)
(-28767.4 -63675.7 0)
(-24025.9 2393.62 0)
(1673.32 2710.93 0)
(863.921 1344.12 0)
(614.431 628.707 0)
(1544.42 217.336 0)
(2413.86 160.323 0)
(3202.46 51.5735 0)
(3804.85 34.9948 0)
(4164.58 27.3163 0)
(4290.96 21.1794 0)
(4117.95 18.7377 0)
(3468.18 17.9569 0)
(2258 13.0614 0)
(947.269 4.96106 0)
(202.219 0.640775 0)
(15.6729 0.0180257 0)
(0.293634 7.53088e-05 0)
(0.000901739 3.55271e-08 0)
(3.19179e-07 2.5192e-09 0)
(-4.47836e-07 2.5192e-09 0)
(-0.00117602 5.74894e-09 0)
(-0.360715 7.55759e-09 0)
(-18.32 1.24668e-08 0)
(-227.44 5.11591e-08 0)
(-1036.68 1.03352e-08 0)
(-2426.21 3.66898e-08 0)
(-3688.78 2.49336e-08 0)
(-4377.86 1.40171e-08 0)
(-4616.96 1.40171e-08 0)
(-4620.83 6.87935e-09 0)
(-4498.99 4.78001e-09 0)
(-4290.58 8.17124e-09 0)
(-4016.57 7.52529e-09 0)
(-3718.92 3.32663e-09 0)
(-3386.82 4.23096e-09 0)
(-2719.49 -1.13041e-09 0)
(-1409.31 -1.2596e-09 0)
(106366 -7.07313e-09 0)
(-146796 -5.34845e-08 0)
(-27264.1 -25177 0)
(-19046.7 5555.77 0)
(1653.81 2209.71 0)
(537.474 619.63 0)
(522.133 380.573 0)
(1486.67 59.8339 0)
(2406.06 85.634 0)
(3186.58 23.0634 0)
(3802.5 14.2573 0)
(4163.64 11.7309 0)
(4290.27 9.53381 0)
(4117.59 8.58367 0)
(3467.46 8.07907 0)
(2256.7 5.62548 0)
(946.149 2.16176 0)
(201.776 0.291596 0)
(15.6133 0.00853083 0)
(0.291905 3.44388e-05 0)
(0.000894908 -8.78489e-09 0)
(3.20116e-07 -1.2919e-10 0)
(-4.50904e-07 -1.93784e-10 0)
(-0.00117602 -1.66655e-08 0)
(-0.360715 9.75381e-09 0)
(-18.32 -3.57855e-08 0)
(-227.44 -6.18818e-08 0)
(-1036.68 -1.99598e-08 0)
(-2426.21 0 0)
(-3688.78 -1.59549e-08 0)
(-4377.86 -2.51274e-08 0)
(-4616.96 -1.82157e-08 0)
(-4620.83 1.64717e-09 0)
(-4498.99 4.55393e-09 0)
(-4290.58 5.16758e-09 0)
(-4016.57 4.42474e-09 0)
(-3718.92 -5.07069e-09 0)
(-3386.82 5.58745e-09 0)
(-2719.49 -2.58379e-09 0)
(-1409.31 6.45948e-11 0)
(106366 -1.64717e-09 0)
(-146796 2.58379e-09 0)
(-23979.2 -8.6557e-09 0)
(-16058.9 -5.0061e-09 0)
(237.357 -2.26082e-10 0)
(331.81 4.87691e-09 0)
(451.581 -1.2919e-10 0)
(1458.62 -2.68068e-09 0)
(2403.17 -1.93784e-10 0)
(3181.7 1.71176e-09 0)
(3801.55 -2.58379e-09 0)
(4163.21 -4.78001e-09 0)
(4290.04 1.93784e-10 0)
(4117.53 1.93784e-10 0)
(3467.32 3.22974e-09 0)
(2256.28 -7.75138e-10 0)
(945.718 -5.16758e-10 0)
(201.592 3.87569e-09 0)
(15.5881 3.10055e-09 0)
(0.291152 6.45948e-10 0)
(0.00089172 -1.47922e-08 0)
(3.21666e-07 0 0)
(-4.52632e-07 0 0)
(-0.00117602 -3.81109e-09 0)
(-0.360715 2.07349e-08 0)
(-18.32 -2.70652e-08 0)
(-227.44 -1.62779e-08 0)
(-1036.68 -2.13809e-08 0)
(-2426.21 1.195e-08 0)
(-3688.78 -1.13041e-08 0)
(-4377.86 -5.23218e-09 0)
(-4616.96 8.7203e-09 0)
(-4620.83 4.84461e-10 0)
(-4498.99 5.29677e-09 0)
(-4290.58 4.52164e-10 0)
(-4016.57 6.2657e-09 0)
(-3718.92 7.13772e-09 0)
(-3386.82 3.81109e-09 0)
(-2719.49 -1.2919e-10 0)
(-1409.31 0 0)
(106366 3.87569e-10 0)
(-146796 3.59147e-08 0)
(-27264.1 25177 0)
(-19046.7 -5555.77 0)
(1653.81 -2209.71 0)
(537.474 -619.63 0)
(522.133 -380.573 0)
(1486.67 -59.8339 0)
(2406.06 -85.634 0)
(3186.58 -23.0634 0)
(3802.5 -14.2573 0)
(4163.64 -11.7309 0)
(4290.27 -9.53381 0)
(4117.59 -8.58367 0)
(3467.46 -8.07907 0)
(2256.7 -5.62548 0)
(946.149 -2.16176 0)
(201.776 -0.291596 0)
(15.6133 -0.00853083 0)
(0.291905 -3.44361e-05 0)
(0.000894908 -1.72468e-08 0)
(3.24427e-07 1.2919e-10 0)
(-4.52018e-07 0 0)
(-0.00117602 1.39525e-08 0)
(-0.360715 3.84339e-08 0)
(-18.32 -2.20914e-08 0)
(-227.44 3.42998e-08 0)
(-1036.68 -2.55149e-08 0)
(-2426.21 2.37063e-08 0)
(-3688.78 4.52164e-10 0)
(-4377.86 1.51152e-08 0)
(-4616.96 3.17806e-08 0)
(-4620.83 2.13163e-09 0)
(-4498.99 1.44369e-08 0)
(-4290.58 -7.75138e-10 0)
(-4016.57 1.21115e-08 0)
(-3718.92 1.66655e-08 0)
(-3386.82 3.22974e-10 0)
(-2719.49 -2.90677e-09 0)
(-1409.31 1.97014e-09 0)
(106366 2.22852e-09 0)
(-146796 1.44692e-08 0)
(-28767.4 63675.7 0)
(-24025.9 -2393.62 0)
(1673.32 -2710.93 0)
(863.921 -1344.12 0)
(614.431 -628.707 0)
(1544.42 -217.336 0)
(2413.86 -160.323 0)
(3202.46 -51.5735 0)
(3804.85 -34.9948 0)
(4164.58 -27.3163 0)
(4290.96 -21.1794 0)
(4117.95 -18.7377 0)
(3468.18 -17.9569 0)
(2258 -13.0614 0)
(947.269 -4.96106 0)
(202.219 -0.640775 0)
(15.6729 -0.0180257 0)
(0.293634 -7.53069e-05 0)
(0.000901738 -3.39769e-08 0)
(3.2672e-07 -2.5192e-09 0)
(-4.48643e-07 -2.58379e-09 0)
(-0.00117601 -3.6819e-09 0)
(-0.360715 -1.56965e-08 0)
(-18.32 -1.30481e-08 0)
(-227.44 -1.82157e-08 0)
(-1036.68 -2.83571e-08 0)
(-2426.21 -2.64193e-08 0)
(-3688.78 -1.87325e-08 0)
(-4377.86 -2.07349e-08 0)
(-4616.96 -2.28666e-08 0)
(-4620.83 -7.4607e-09 0)
(-4498.99 -7.07313e-09 0)
(-4290.58 -6.33029e-09 0)
(-4016.57 -9.68922e-10 0)
(-3718.92 5.81353e-10 0)
(-3386.82 -1.32419e-09 0)
(-2719.49 1.64717e-09 0)
(-1409.31 1.74406e-09 0)
(106366 4.58623e-09 0)
(-146796 3.01012e-08 0)
(106453 73389.9 0)
(-54932.1 -4407.86 0)
(2289.58 -2759.25 0)
(1466.14 -2145.52 0)
(1122.22 -987.55 0)
(1713.7 -525.702 0)
(2501.01 -270.861 0)
(3246.83 -125.864 0)
(3815 -73.0674 0)
(4171.21 -49.6929 0)
(4294.86 -39.2834 0)
(4119.19 -36.2651 0)
(3470.2 -32.9704 0)
(2263.34 -22.3949 0)
(952.645 -7.98773 0)
(204.364 -0.979261 0)
(15.9463 -0.0273634 0)
(0.301213 -0.00014262 0)
(0.000934247 -2.5742e-05 0)
(3.41451e-07 -2.56854e-05 0)
(-4.56619e-07 -2.56854e-05 0)
(-0.00117603 -2.5697e-05 0)
(-0.360715 -2.57042e-05 0)
(-18.32 -2.56904e-05 0)
(-227.44 -2.56941e-05 0)
(-1036.68 -2.54785e-05 0)
(-2426.21 -2.45536e-05 0)
(-3688.78 -2.23436e-05 0)
(-4377.86 -1.89426e-05 0)
(-4616.96 -1.48624e-05 0)
(-4620.83 -1.07294e-05 0)
(-4498.99 -7.15865e-06 0)
(-4290.58 -4.3943e-06 0)
(-4016.57 -2.49968e-06 0)
(-3718.92 -1.32763e-06 0)
(-3386.82 -6.66443e-07 0)
(-2719.49 -3.19844e-07 0)
(-1409.31 -1.43825e-07 0)
(106366 -5.84034e-08 0)
(-146796 1.2839e-07 0)
(126608 38918.3 0)
(-80833.2 -3038.32 0)
(3522.94 -2264.49 0)
(2248.27 -1919.31 0)
(1903.05 -1208.38 0)
(2144.27 -722.168 0)
(2752.43 -399.64 0)
(3369.27 -220.025 0)
(3872.81 -125.703 0)
(4193.58 -84.9205 0)
(4301.8 -70.1154 0)
(4123.37 -62.7973 0)
(3480.46 -50.7052 0)
(2279.21 -30.3786 0)
(965.024 -9.97908 0)
(208.739 -1.19588 0)
(16.4698 -0.0555436 0)
(0.315914 -0.0231784 0)
(0.000996988 -0.0230347 0)
(3.73314e-07 -0.0230347 0)
(-4.5543e-07 -0.0230347 0)
(-0.00117601 -0.0230347 0)
(-0.360715 -0.0230347 0)
(-18.32 -0.0230344 0)
(-227.44 -0.0230213 0)
(-1036.68 -0.0228577 0)
(-2426.21 -0.0221327 0)
(-3688.78 -0.0204848 0)
(-4377.86 -0.0179408 0)
(-4616.96 -0.0148149 0)
(-4620.83 -0.0115214 0)
(-4498.99 -0.00843587 0)
(-4290.58 -0.00581514 0)
(-4016.57 -0.00378014 0)
(-3718.92 -0.00232705 0)
(-3386.82 -0.00138337 0)
(-2719.49 -0.000798796 0)
(-1409.31 -0.000421406 0)
(106366 -0.00019896 0)
(-146796 -1.57652e-06 0)
(138916 21235.7 0)
(-94617.3 -765.221 0)
(3367.9 -1458.28 0)
(2483.85 -1394.51 0)
(2275.82 -1112.54 0)
(2493.03 -728.432 0)
(2984.89 -472.423 0)
(3510.8 -295.705 0)
(3945.19 -191.654 0)
(4224.78 -140.528 0)
(4316.18 -115.713 0)
(4137.89 -96.2296 0)
(3501.44 -70.3943 0)
(2302.59 -38.8231 0)
(980.766 -13.7722 0)
(213.927 -4.12024 0)
(17.0764 -2.8938 0)
(0.33254 -2.86004 0)
(0.00107278 -2.85989 0)
(4.09799e-07 -2.85989 0)
(-4.55644e-07 -2.85989 0)
(-0.00117604 -2.85989 0)
(-0.360714 -2.85989 0)
(-18.32 -2.85986 0)
(-227.439 -2.85833 0)
(-1036.68 -2.84006 0)
(-2426.21 -2.76248 0)
(-3688.78 -2.59253 0)
(-4377.86 -2.33498 0)
(-4616.95 -2.01616 0)
(-4620.83 -1.66871 0)
(-4498.99 -1.32385 0)
(-4290.58 -1.00669 0)
(-4016.56 -0.734657 0)
(-3718.92 -0.515863 0)
(-3386.82 -0.353936 0)
(-2719.49 -0.237871 0)
(-1409.31 -0.146454 0)
(106366 -0.0803269 0)
(-146796 -0.0164776 0)
(146396 12563.3 0)
(-102702 -167.965 0)
(2916.54 -1132.53 0)
(2581.43 -1215.09 0)
(2544.91 -1031.85 0)
(2761.12 -769.009 0)
(3169.43 -569.669 0)
(3639.83 -410.641 0)
(4022.34 -303.601 0)
(4266.76 -240.75 0)
(4344.49 -200.406 0)
(4167.04 -168.721 0)
(3535.78 -137.61 0)
(2333.77 -104.836 0)
(998.465 -80.1564 0)
(219.222 -71.5303 0)
(17.6841 -70.5198 0)
(0.348587 -70.4932 0)
(0.00113883 -70.4931 0)
(4.39401e-07 -70.4931 0)
(-4.55371e-07 -70.4931 0)
(-0.00117594 -70.4931 0)
(-0.360685 -70.4931 0)
(-18.3185 -70.4923 0)
(-227.421 -70.4557 0)
(-1036.59 -70.04 0)
(-2425.97 -68.3613 0)
(-3688.37 -64.8534 0)
(-4377.31 -59.7105 0)
(-4616.31 -53.4081 0)
(-4620.17 -46.4408 0)
(-4498.36 -39.27 0)
(-4290.02 -32.2958 0)
(-4016.09 -25.8565 0)
(-3718.56 -20.1837 0)
(-3386.56 -15.5455 0)
(-2719.29 -11.813 0)
(-1409.16 -8.31287 0)
(106366 -5.18988 0)
(-146796 -3.21354 0)
(151278 7719.29 0)
(-107815 -91.9518 0)
(2358.85 -1046.38 0)
(2580.87 -1267.84 0)
(2705.68 -1139.69 0)
(2938.4 -950.798 0)
(3330.23 -766.253 0)
(3767.2 -648.653 0)
(4108.9 -591.621 0)
(4324.22 -570.564 0)
(4385.59 -562.316 0)
(4198.4 -553.998 0)
(3563 -543.302 0)
(2357.95 -531.349 0)
(1012.86 -521.676 0)
(223.213 -518.211 0)
(18.0758 -517.837 0)
(0.358334 -517.828 0)
(0.00117745 -517.828 0)
(4.69646e-07 -517.828 0)
(-4.5385e-07 -517.828 0)
(-0.00117332 -517.828 0)
(-0.359963 -517.828 0)
(-18.284 -517.822 0)
(-227.004 -517.551 0)
(-1034.67 -514.625 0)
(-2421.21 -503.419 0)
(-3680.44 -481.21 0)
(-4366.83 -450.045 0)
(-4604.16 -412.838 0)
(-4607.2 -371.952 0)
(-4485.36 -329.342 0)
(-4277.65 -286.682 0)
(-4004.89 -245.532 0)
(-3708.98 -207.119 0)
(-3378.76 -173.68 0)
(-2712.52 -144.549 0)
(-1402.93 -113.11 0)
(106371 -78.5226 0)
(-146788 -111.737 0)
(154178 1696.53 0)
(-111149 -438.506 0)
(1783.42 -1202.32 0)
(2491.52 -1499.99 0)
(2850.42 -1488.23 0)
(3120.98 -1435.99 0)
(3460.58 -1379.27 0)
(3808.11 -1364.7 0)
(4097.59 -1392.7 0)
(4295 -1445.06 0)
(4360.45 -1504.76 0)
(4185.37 -1558.73 0)
(3557.61 -1602.65 0)
(2354.61 -1636.38 0)
(1011.13 -1656.06 0)
(222.921 -1661.84 0)
(18.0534 -1662.46 0)
(0.357663 -1662.47 0)
(0.00117385 -1662.47 0)
(4.59622e-07 -1662.47 0)
(-4.46967e-07 -1662.47 0)
(-0.00115457 -1662.47 0)
(-0.354874 -1662.47 0)
(-18.0521 -1662.45 0)
(-224.339 -1661.54 0)
(-1022.97 -1652.15 0)
(-2393.77 -1618.08 0)
(-3636.94 -1554.13 0)
(-4311.42 -1468.61 0)
(-4541.06 -1370.1 0)
(-4539.71 -1264.1 0)
(-4416.19 -1154.38 0)
(-4209.25 -1043.9 0)
(-3939.43 -935.465 0)
(-3649.32 -831.378 0)
(-3326.26 -738.011 0)
(-2660.93 -654.145 0)
(-1345.53 -553.115 0)
(106367 -416.064 0)
(-146608 -1112.79 0)
(152651 -5169.92 0)
(-110609 -1075.24 0)
(1335.97 -1803.6 0)
(2305.36 -2186.15 0)
(2767.35 -2302.4 0)
(3043.4 -2357.06 0)
(3398.93 -2405.38 0)
(3754.26 -2460.36 0)
(4031.47 -2531.9 0)
(4216.23 -2619.9 0)
(4276.05 -2721.85 0)
(4104.07 -2831.41 0)
(3488.18 -2937.38 0)
(2306.48 -3025.08 0)
(988.324 -3077.54 0)
(217.051 -3093.88 0)
(17.4687 -3095.65 0)
(0.343059 -3095.69 0)
(0.00111366 -3095.69 0)
(4.31503e-07 -3095.69 0)
(-4.24327e-07 -3095.69 0)
(-0.00109574 -3095.69 0)
(-0.339544 -3095.69 0)
(-17.3855 -3095.65 0)
(-217.077 -3093.79 0)
(-992.79 -3075.59 0)
(-2326.76 -3013.07 0)
(-3536.41 -2901.98 0)
(-4189.49 -2760.54 0)
(-4407.09 -2603.96 0)
(-4399.32 -2440.33 0)
(-4273.17 -2274.25 0)
(-4066.7 -2108.88 0)
(-3800.1 -1946.94 0)
(-3518.71 -1790.66 0)
(-3207.97 -1647.82 0)
(-2534.35 -1523.72 0)
(-1173.5 -1371.82 0)
(105832 -1092.89 0)
(-145267 -4567.99 0)
(148028 -11940.3 0)
(-107905 -2106.07 0)
(712.908 -2843.87 0)
(2010.85 -3088.34 0)
(2685.72 -3151.52 0)
(3021.75 -3161.01 0)
(3361.04 -3180.51 0)
(3686.19 -3242.2 0)
(3943.85 -3335.03 0)
(4111.95 -3449.38 0)
(4156.63 -3580.58 0)
(3977.67 -3724.95 0)
(3370.98 -3871.79 0)
(2219.55 -3999.76 0)
(944.83 -4079.69 0)
(205.473 -4105.25 0)
(16.3051 -4108.04 0)
(0.31426 -4108.11 0)
(0.000997187 -4108.11 0)
(3.79164e-07 -4108.11 0)
(-3.68205e-07 -4108.11 0)
(-0.000986528 -4108.11 0)
(-0.3118 -4108.11 0)
(-16.2242 -4108.05 0)
(-205.016 -4105.29 0)
(-945.181 -4079.25 0)
(-2226.48 -3994.23 0)
(-3393.6 -3850.94 0)
(-4024.24 -3676.56 0)
(-4232.49 -3490.3 0)
(-4221.99 -3301.15 0)
(-4096.79 -3113.63 0)
(-3893.84 -2930.47 0)
(-3632.77 -2754.15 0)
(-3361.07 -2586.47 0)
(-3069.03 -2431.56 0)
(-2394.97 -2299.41 0)
(-930.364 -2173.34 0)
(103288 -1880.66 0)
(-140960 -10207 0)
(138697 -18507.2 0)
(-101843 -3177.48 0)
(389.421 -3434.44 0)
(2008.89 -3404.27 0)
(2697.32 -3391.28 0)
(3015.46 -3405.87 0)
(3320.69 -3451.77 0)
(3605.36 -3533.42 0)
(3831.83 -3646.36 0)
(3979.61 -3784.38 0)
(4010.49 -3939.56 0)
(3823.45 -4106.7 0)
(3223.37 -4277.68 0)
(2106.15 -4430.5 0)
(886.666 -4528.38 0)
(189.723 -4560.2 0)
(14.7088 -4563.69 0)
(0.274925 -4563.77 0)
(0.000840555 -4563.77 0)
(3.04751e-07 -4563.77 0)
(-3.05609e-07 -4563.77 0)
(-0.000836594 -4563.77 0)
(-0.273839 -4563.77 0)
(-14.664 -4563.69 0)
(-189.331 -4560.27 0)
(-885.769 -4528.65 0)
(-2106.75 -4429.34 0)
(-3230.29 -4269.37 0)
(-3841.96 -4081.84 0)
(-4045.33 -3886.73 0)
(-4036.36 -3692.45 0)
(-3915.97 -3502.78 0)
(-3720.29 -3320.64 0)
(-3468.6 -3147.68 0)
(-3207.85 -2988.35 0)
(-2931.34 -2840.92 0)
(-2285.51 -2710.73 0)
(-769.974 -2620.38 0)
(98090 -2575.97 0)
(-133184 -15289.8 0)
(126374 -21288.1 0)
(-93380.2 -3723.75 0)
(494.364 -3326.89 0)
(2052.44 -3279.91 0)
(2684.18 -3310.67 0)
(2963.46 -3356.78 0)
(3238.12 -3440.92 0)
(3498.68 -3548.95 0)
(3702.03 -3681.78 0)
(3829.41 -3834.38 0)
(3846.03 -4004.18 0)
(3651.85 -4184.92 0)
(3058.96 -4368.38 0)
(1977.96 -4534 0)
(819.846 -4642.01 0)
(171.453 -4677.42 0)
(12.86 -4681.27 0)
(0.230095 -4681.36 0)
(0.000667233 -4681.36 0)
(2.28904e-07 -4681.36 0)
(-2.28612e-07 -4681.36 0)
(-0.000666597 -4681.36 0)
(-0.229831 -4681.36 0)
(-12.8443 -4681.27 0)
(-171.252 -4677.46 0)
(-819.018 -4642.36 0)
(-1976.62 -4534.5 0)
(-3058.73 -4366.72 0)
(-3655.52 -4175.98 0)
(-3857.27 -3981.28 0)
(-3852 -3789.37 0)
(-3738.5 -3603.81 0)
(-3551.66 -3425.92 0)
(-3312.57 -3261.42 0)
(-3065.47 -3109.98 0)
(-2801.51 -2974.12 0)
(-2182.45 -2838.98 0)
(-800.5 -2771.05 0)
(91078.8 -3045.74 0)
(-123076 -18021.2 0)
(113646 -21534.4 0)
(-84534.9 -3681.47 0)
(817.127 -3100.62 0)
(2024.52 -3047.41 0)
(2623.25 -3142.28 0)
(2889.94 -3222.6 0)
(3135.5 -3318.37 0)
(3373.26 -3447.84 0)
(3556.77 -3592.9 0)
(3668.93 -3756.49 0)
(3672.7 -3932.24 0)
(3472.49 -4117.58 0)
(2886.98 -4305.05 0)
(1842.47 -4475.95 0)
(748.461 -4588.95 0)
(151.895 -4625.95 0)
(10.9083 -4629.88 0)
(0.184281 -4629.98 0)
(0.000498455 -4629.98 0)
(1.55203e-07 -4629.98 0)
(-1.57368e-07 -4629.98 0)
(-0.000498748 -4629.98 0)
(-0.184315 -4629.98 0)
(-10.9066 -4629.89 0)
(-151.832 -4625.97 0)
(-748.007 -4589.15 0)
(-1841.14 -4476.67 0)
(-2884.81 -4305.89 0)
(-3470.54 -4116.72 0)
(-3672.77 -3926.44 0)
(-3672.61 -3740.49 0)
(-3565.74 -3560.1 0)
(-3390.35 -3391.64 0)
(-3164.15 -3230.61 0)
(-2931 -3093.04 0)
(-2670.2 -2956.07 0)
(-2089.83 -2809.78 0)
(-969.209 -2806.36 0)
(83394.5 -3178.37 0)
(-112071 -19298.2 0)
(101062 -20381.1 0)
(-75616.7 -3313.56 0)
(1105.37 -2924.22 0)
(2012.3 -2814.24 0)
(2515.36 -2936.13 0)
(2793.77 -3040.29 0)
(3021.08 -3161.4 0)
(3234.14 -3290.15 0)
(3404.6 -3445.46 0)
(3502.41 -3609.89 0)
(3498.06 -3785.77 0)
(3292.59 -3968.45 0)
(2713.62 -4153.96 0)
(1704.39 -4325.4 0)
(675.301 -4439.87 0)
(132.002 -4476.91 0)
(8.97797 -4480.71 0)
(0.141176 -4480.79 0)
(0.000350127 -4480.79 0)
(9.92176e-08 -4480.79 0)
(-1.00105e-07 -4480.79 0)
(-0.000350408 -4480.79 0)
(-0.141248 -4480.79 0)
(-8.98011 -4480.71 0)
(-132.001 -4476.91 0)
(-675.149 -4439.95 0)
(-1703.66 -4325.86 0)
(-2711.87 -4155.15 0)
(-3289.86 -3970.25 0)
(-3494.72 -3787.09 0)
(-3498.98 -3608.55 0)
(-3402.34 -3438.92 0)
(-3234.15 -3274.98 0)
(-3024.82 -3132.3 0)
(-2800.91 -2990.71 0)
(-2528.55 -2861.08 0)
(-2038.19 -2717.07 0)
(-1155.69 -2788.93 0)
(75186.7 -3070.61 0)
(-100513 -19181.1 0)
(89821.5 -19315.1 0)
(-67712.8 -2924.62 0)
(1298.29 -2725.18 0)
(2013.04 -2613.44 0)
(2405.42 -2714.64 0)
(2672.87 -2845.26 0)
(2894.73 -2965.94 0)
(3099.53 -3108.82 0)
(3248.66 -3252.66 0)
(3341 -3413.79 0)
(3327.18 -3581.34 0)
(3117.69 -3756.43 0)
(2543.01 -3935.84 0)
(1566.96 -4104.47 0)
(602.46 -4217.58 0)
(112.543 -4253.33 0)
(7.16833 -4256.81 0)
(0.103408 -4256.88 0)
(0.000231109 -4256.88 0)
(5.78964e-08 -4256.88 0)
(-5.92517e-08 -4256.88 0)
(-0.000231224 -4256.88 0)
(-0.103448 -4256.88 0)
(-7.17012 -4256.81 0)
(-112.556 -4253.33 0)
(-602.449 -4217.59 0)
(-1566.7 -4104.66 0)
(-2542.12 -3936.58 0)
(-3115.86 -3758.13 0)
(-3324.23 -3584.07 0)
(-3337.1 -3417.32 0)
(-3244.29 -3256.49 0)
(-3094.88 -3111.39 0)
(-2890.22 -2965.6 0)
(-2669.64 -2839.41 0)
(-2406.51 -2702.56 0)
(-2020.31 -2591.38 0)
(-1309.89 -2686.06 0)
(67598.4 -2852.28 0)
(-89704.1 -18844.7 0)
(78649.3 -18064.8 0)
(-59630.1 -2607.77 0)
(1405.22 -2504.46 0)
(2022.45 -2408.78 0)
(2291.98 -2491.22 0)
(2551.61 -2617.92 0)
(2767.1 -2751.98 0)
(2957.84 -2887.47 0)
(3110.72 -3027.53 0)
(3185.68 -3173.92 0)
(3167.88 -3328.3 0)
(2950.99 -3490.73 0)
(2378.23 -3660.29 0)
(1432.89 -3822.64 0)
(531.859 -3931.59 0)
(94.2031 -3964.87 0)
(5.55639 -3967.9 0)
(0.0724858 -3967.96 0)
(0.000143526 -3967.96 0)
(2.99525e-08 -3967.96 0)
(-3.21755e-08 -3967.96 0)
(-0.000143552 -3967.96 0)
(-0.0724984 -3967.96 0)
(-5.55717 -3967.9 0)
(-94.2122 -3964.87 0)
(-531.883 -3931.58 0)
(-1432.86 -3822.67 0)
(-2377.94 -3660.58 0)
(-2950.17 -3491.66 0)
(-3166.3 -3330.27 0)
(-3183.32 -3177.35 0)
(-3107.53 -3032.54 0)
(-2953.83 -2893.87 0)
(-2762.73 -2759.71 0)
(-2547.44 -2626.64 0)
(-2289.53 -2499.74 0)
(-2022.28 -2413.96 0)
(-1407.1 -2503.88 0)
(59615.7 -2601.24 0)
(-78655.3 -17943.1 0)
(68947.8 -16698.2 0)
(-52718.3 -2339.36 0)
(1490.04 -2309.46 0)
(2025.79 -2233.79 0)
(2203.89 -2295.67 0)
(2421.59 -2393.03 0)
(2634.98 -2525.76 0)
(2834.01 -2651.66 0)
(2972.62 -2788.92 0)
(3051.16 -2925.19 0)
(3021.89 -3065.37 0)
(2797.77 -3211.52 0)
(2223.17 -3364.29 0)
(1305.53 -3513.33 0)
(465.405 -3613.69 0)
(77.5506 -3643.17 0)
(4.19072 -3645.66 0)
(0.0487871 -3645.71 0)
(8.42687e-05 -3645.71 0)
(1.59708e-08 -3645.71 0)
(-1.6936e-08 -3645.71 0)
(-8.42712e-05 -3645.71 0)
(-0.0487888 -3645.71 0)
(-4.1909 -3645.66 0)
(-77.554 -3643.17 0)
(-465.423 -3613.69 0)
(-1305.55 -3513.31 0)
(-2223.15 -3364.34 0)
(-2797.56 -3211.84 0)
(-3021.35 -3066.3 0)
(-3050.19 -2927.1 0)
(-2971.12 -2792.08 0)
(-2831.98 -2656.42 0)
(-2632.71 -2532.46 0)
(-2419.12 -2401.49 0)
(-2201.57 -2305.62 0)
(-2024.3 -2243.54 0)
(-1490.35 -2318.55 0)
(52720.6 -2347.26 0)
(-68964.1 -16689.7 0)
(59409.4 -14816.5 0)
(-45764.5 -2033.93 0)
(1506.96 -2082.24 0)
(2035.74 -2076.01 0)
(2138.52 -2107.99 0)
(2329.88 -2180.15 0)
(2517.89 -2263.2 0)
(2704.25 -2378.6 0)
(2847.13 -2500.42 0)
(2919.28 -2642.61 0)
(2891.97 -2779.51 0)
(2662.94 -2908.92 0)
(2087.4 -3042.8 0)
(1192.56 -3181.52 0)
(406.739 -3273.05 0)
(63.3968 -3298.25 0)
(3.11419 -3300.2 0)
(0.0320368 -3300.22 0)
(4.77086e-05 -3300.22 0)
(8.56064e-09 -3300.22 0)
(-9.0969e-09 -3300.22 0)
(-4.77099e-05 -3300.22 0)
(-0.0320362 -3300.22 0)
(-3.11419 -3300.2 0)
(-63.3973 -3298.25 0)
(-406.746 -3273.05 0)
(-1192.58 -3181.5 0)
(-2087.44 -3042.77 0)
(-2662.96 -2908.96 0)
(-2891.91 -2779.76 0)
(-2919.07 -2643.27 0)
(-2846.7 -2501.73 0)
(-2703.65 -2380.83 0)
(-2517.07 -2266.58 0)
(-2328.85 -2184.62 0)
(-2137.32 -2113.68 0)
(-2034.74 -2082.53 0)
(-1507.05 -2089.1 0)
(45767.2 -2039.98 0)
(-59417.8 -14824.3 0)
(52103.1 -12995.2 0)
(-40447.1 -1842.54 0)
(1449.49 -1959.23 0)
(2000.97 -2000.85 0)
(2103.54 -2032.61 0)
(2272.02 -2031.42 0)
(2443.74 -2024.16 0)
(2605.42 -2018.83 0)
(2718.21 -2029.42 0)
(2782.21 -2074.46 0)
(2765.26 -2159.56 0)
(2544.06 -2275.78 0)
(1960.48 -2430.63 0)
(1083.64 -2593.12 0)
(352.919 -2692.02 0)
(51.3962 -2716.31 0)
(2.28993 -2717.93 0)
(0.0207383 -2717.96 0)
(2.64826e-05 -2717.96 0)
(3.89031e-09 -2717.96 0)
(-5.13833e-09 -2717.96 0)
(-2.64843e-05 -2717.96 0)
(-0.0207379 -2717.96 0)
(-2.2899 -2717.93 0)
(-51.3959 -2716.31 0)
(-352.92 -2692.02 0)
(-1083.65 -2593.12 0)
(-1960.51 -2430.6 0)
(-2544.11 -2275.74 0)
(-2765.33 -2159.55 0)
(-2782.26 -2074.53 0)
(-2718.22 -2029.69 0)
(-2605.38 -2019.42 0)
(-2443.63 -2025.11 0)
(-2271.78 -2032.86 0)
(-2103.18 -2034.59 0)
(-2000.62 -2003.44 0)
(-1449.36 -1962.12 0)
(40448.5 -1844.93 0)
(-52105.8 -13000.7 0)
(44771.2 -7450.63 0)
(-35129.9 -1337.38 0)
(1354.41 -1388.47 0)
(1965.03 -1490.99 0)
(2109.06 -1551.62 0)
(2338.03 -1541.51 0)
(2530.01 -1464.3 0)
(2699.18 -1367.59 0)
(2793.53 -1222.43 0)
(2793.88 -1062.74 0)
(2697.97 -961.897 0)
(2401.73 -1014.84 0)
(1781.59 -1195.03 0)
(940.667 -1391.97 0)
(288.034 -1502.91 0)
(38.4293 -1526.75 0)
(1.52608 -1528.12 0)
(0.0120514 -1528.13 0)
(1.32178e-05 -1528.13 0)
(2.29129e-09 -1528.13 0)
(-3.29555e-09 -1528.13 0)
(-1.32207e-05 -1528.13 0)
(-0.0120512 -1528.13 0)
(-1.52607 -1528.12 0)
(-38.429 -1526.75 0)
(-288.034 -1502.91 0)
(-940.669 -1391.97 0)
(-1781.6 -1195.02 0)
(-2401.76 -1014.81 0)
(-2698.02 -961.85 0)
(-2793.94 -1062.69 0)
(-2793.59 -1222.39 0)
(-2699.23 -1367.59 0)
(-2530.02 -1464.35 0)
(-2337.99 -1541.65 0)
(-2108.97 -1551.93 0)
(-1964.9 -1491.47 0)
(-1354.31 -1389.08 0)
(35130 -1337.91 0)
(-44771.5 -7452.55 0)
(41751.7 263348 0)
(-34605.4 37212.8 0)
(1301.46 37730.8 0)
(1843.75 43687.7 0)
(2054.86 49731.4 0)
(2356.17 57581.1 0)
(2611.34 65296.6 0)
(2838.49 74259.4 0)
(3011.97 82734.7 0)
(3033.27 91734.7 0)
(2811.43 100045 0)
(2319.4 107133 0)
(1597.06 111682 0)
(786.955 113350 0)
(223.042 113549 0)
(27.1051 113540 0)
(0.961596 113539 0)
(0.0066555 113539 0)
(6.28099e-06 113539 0)
(1.87203e-09 113539 0)
(-2.03778e-09 113539 0)
(-6.28432e-06 113539 0)
(-0.00665542 113539 0)
(-0.961588 113539 0)
(-27.105 113540 0)
(-223.042 113549 0)
(-786.956 113350 0)
(-1597.07 111682 0)
(-2319.42 107133 0)
(-2811.47 100045 0)
(-3033.33 91734.8 0)
(-3012.03 82734.8 0)
(-2838.54 74259.6 0)
(-2611.37 65296.8 0)
(-2356.18 57581.2 0)
(-2054.83 49731.4 0)
(-1843.68 43687.6 0)
(-1301.38 37730.7 0)
(34605.5 37212.6 0)
(-41751.8 263348 0)
(330764 -341940 0)
(-252543 -44484.8 0)
(7593.92 -47690 0)
(13529.2 -55800.6 0)
(15497.2 -64029 0)
(17337.2 -74667.3 0)
(18601.8 -85417.6 0)
(19503.1 -97690 0)
(19633.4 -109620 0)
(19474.5 -122169 0)
(17536.6 -133923 0)
(13616.2 -144108 0)
(7772.07 -151083 0)
(2739.27 -154181 0)
(471.247 -154865 0)
(28.816 -154923 0)
(0.426079 -154924 0)
(0.000895906 -154924 0)
(-1.15013e-07 -154924 0)
(-9.63316e-09 -154924 0)
(4.29007e-09 -154924 0)
(9.85546e-08 -154924 0)
(-0.00089591 -154924 0)
(-0.426081 -154924 0)
(-28.816 -154923 0)
(-471.247 -154865 0)
(-2739.26 -154181 0)
(-7772.07 -151083 0)
(-13616.2 -144108 0)
(-17536.6 -133923 0)
(-19474.5 -122169 0)
(-19633.4 -109620 0)
(-19503.2 -97689.9 0)
(-18601.9 -85417.4 0)
(-17337.3 -74667.1 0)
(-15497.3 -64028.8 0)
(-13529.2 -55800.3 0)
(-7593.89 -47689.8 0)
(252543 -44484.6 0)
(-330764 -341940 0)
(330764 341940 0)
(-252543 44484.8 0)
(7593.92 47690 0)
(13529.2 55800.6 0)
(15497.2 64029 0)
(17337.2 74667.3 0)
(18601.8 85417.6 0)
(19503.1 97690 0)
(19633.4 109620 0)
(19474.5 122169 0)
(17536.6 133923 0)
(13616.2 144108 0)
(7772.07 151083 0)
(2739.27 154181 0)
(471.247 154865 0)
(28.816 154923 0)
(0.426078 154924 0)
(0.000895877 154924 0)
(-1.38725e-07 154924 0)
(-2.28544e-08 154924 0)
(-7.80013e-11 154924 0)
(1.14233e-07 154924 0)
(-0.000895932 154924 0)
(-0.426081 154924 0)
(-28.816 154923 0)
(-471.247 154865 0)
(-2739.26 154181 0)
(-7772.07 151083 0)
(-13616.2 144108 0)
(-17536.6 133923 0)
(-19474.5 122169 0)
(-19633.4 109620 0)
(-19503.2 97689.9 0)
(-18601.9 85417.4 0)
(-17337.3 74667.1 0)
(-15497.3 64028.8 0)
(-13529.2 55800.3 0)
(-7593.89 47689.8 0)
(252543 44484.6 0)
(-330764 341940 0)
(41751.7 -263348 0)
(-34605.4 -37212.8 0)
(1301.46 -37730.8 0)
(1843.75 -43687.7 0)
(2054.86 -49731.4 0)
(2356.17 -57581.1 0)
(2611.34 -65296.6 0)
(2838.49 -74259.4 0)
(3011.97 -82734.7 0)
(3033.27 -91734.7 0)
(2811.43 -100045 0)
(2319.4 -107133 0)
(1597.06 -111682 0)
(786.955 -113350 0)
(223.042 -113549 0)
(27.1051 -113540 0)
(0.961596 -113539 0)
(0.0066555 -113539 0)
(6.28173e-06 -113539 0)
(1.38452e-09 -113539 0)
(-2.77879e-09 -113539 0)
(-6.2836e-06 -113539 0)
(-0.00665543 -113539 0)
(-0.961588 -113539 0)
(-27.105 -113540 0)
(-223.042 -113549 0)
(-786.956 -113350 0)
(-1597.07 -111682 0)
(-2319.42 -107133 0)
(-2811.47 -100045 0)
(-3033.33 -91734.8 0)
(-3012.03 -82734.8 0)
(-2838.54 -74259.6 0)
(-2611.37 -65296.8 0)
(-2356.18 -57581.2 0)
(-2054.83 -49731.4 0)
(-1843.68 -43687.6 0)
(-1301.38 -37730.7 0)
(34605.5 -37212.6 0)
(-41751.8 -263348 0)
(44771.2 7450.63 0)
(-35129.9 1337.38 0)
(1354.41 1388.47 0)
(1965.03 1490.99 0)
(2109.06 1551.62 0)
(2338.03 1541.51 0)
(2530.01 1464.3 0)
(2699.18 1367.59 0)
(2793.53 1222.43 0)
(2793.88 1062.74 0)
(2697.97 961.897 0)
(2401.73 1014.84 0)
(1781.59 1195.03 0)
(940.667 1391.97 0)
(288.034 1502.91 0)
(38.4293 1526.75 0)
(1.52608 1528.12 0)
(0.0120514 1528.13 0)
(1.32195e-05 1528.13 0)
(2.12553e-09 1528.13 0)
(-3.2468e-09 1528.13 0)
(-1.32185e-05 1528.13 0)
(-0.0120512 1528.13 0)
(-1.52607 1528.12 0)
(-38.429 1526.75 0)
(-288.034 1502.91 0)
(-940.669 1391.97 0)
(-1781.6 1195.02 0)
(-2401.76 1014.81 0)
(-2698.02 961.85 0)
(-2793.94 1062.69 0)
(-2793.59 1222.39 0)
(-2699.23 1367.59 0)
(-2530.02 1464.35 0)
(-2337.99 1541.65 0)
(-2108.97 1551.93 0)
(-1964.9 1491.47 0)
(-1354.31 1389.08 0)
(35130 1337.91 0)
(-44771.5 7452.55 0)
(52103.1 12995.2 0)
(-40447.1 1842.54 0)
(1449.49 1959.23 0)
(2000.97 2000.85 0)
(2103.54 2032.61 0)
(2272.02 2031.42 0)
(2443.74 2024.16 0)
(2605.42 2018.83 0)
(2718.21 2029.42 0)
(2782.21 2074.46 0)
(2765.26 2159.56 0)
(2544.06 2275.78 0)
(1960.48 2430.63 0)
(1083.64 2593.12 0)
(352.919 2692.02 0)
(51.3962 2716.31 0)
(2.28993 2717.93 0)
(0.0207383 2717.96 0)
(2.6482e-05 2717.96 0)
(3.90981e-09 2717.96 0)
(-5.41134e-09 2717.96 0)
(-2.64812e-05 2717.96 0)
(-0.0207379 2717.96 0)
(-2.2899 2717.93 0)
(-51.3959 2716.31 0)
(-352.92 2692.02 0)
(-1083.65 2593.12 0)
(-1960.51 2430.6 0)
(-2544.11 2275.74 0)
(-2765.33 2159.55 0)
(-2782.26 2074.53 0)
(-2718.22 2029.69 0)
(-2605.38 2019.42 0)
(-2443.63 2025.11 0)
(-2271.78 2032.86 0)
(-2103.18 2034.59 0)
(-2000.62 2003.44 0)
(-1449.36 1962.12 0)
(40448.5 1844.93 0)
(-52105.8 13000.7 0)
(59409.4 14816.5 0)
(-45764.5 2033.93 0)
(1506.96 2082.24 0)
(2035.74 2076.01 0)
(2138.52 2107.99 0)
(2329.88 2180.15 0)
(2517.89 2263.2 0)
(2704.25 2378.6 0)
(2847.13 2500.42 0)
(2919.28 2642.61 0)
(2891.97 2779.51 0)
(2662.94 2908.92 0)
(2087.4 3042.8 0)
(1192.56 3181.52 0)
(406.739 3273.05 0)
(63.3968 3298.25 0)
(3.11419 3300.2 0)
(0.0320368 3300.22 0)
(4.77108e-05 3300.22 0)
(9.1554e-09 3300.22 0)
(-8.23888e-09 3300.22 0)
(-4.77073e-05 3300.22 0)
(-0.0320362 3300.22 0)
(-3.11419 3300.2 0)
(-63.3973 3298.25 0)
(-406.746 3273.05 0)
(-1192.58 3181.5 0)
(-2087.44 3042.77 0)
(-2662.96 2908.96 0)
(-2891.91 2779.76 0)
(-2919.07 2643.27 0)
(-2846.7 2501.73 0)
(-2703.65 2380.83 0)
(-2517.07 2266.58 0)
(-2328.85 2184.62 0)
(-2137.32 2113.68 0)
(-2034.74 2082.53 0)
(-1507.05 2089.1 0)
(45767.2 2039.98 0)
(-59417.8 14824.3 0)
(68947.8 16698.2 0)
(-52718.3 2339.36 0)
(1490.04 2309.46 0)
(2025.79 2233.79 0)
(2203.89 2295.67 0)
(2421.59 2393.03 0)
(2634.98 2525.76 0)
(2834.01 2651.66 0)
(2972.62 2788.92 0)
(3051.16 2925.19 0)
(3021.89 3065.37 0)
(2797.77 3211.52 0)
(2223.17 3364.29 0)
(1305.53 3513.33 0)
(465.405 3613.69 0)