/*--------------------------------*- C++ -*----------------------------------*\
| =========                 |                                                 |
| \\      /  F ield         | OpenFOAM: The Open Source CFD Toolbox           |
|  \\    /   O peration     | Version:  v1912                                 |
|   \\  /    A nd           | Website:  www.openfoam.com                      |
|    \\/     M anipulation  |                                                 |
\*---------------------------------------------------------------------------*/
FoamFile
{
    version     2.0;
    format      ascii;
    class       volScalarField;
    location    "1.66";
    object      p;
}
// * * * * * * * * * * * * * * * * * * * * * * * * * * * * * * * * * * * * * //

dimensions      [1 -1 -2 0 0 0 0];


internalField   nonuniform List<scalar> 
1900
(
10130.1
10301.2
10504.5
10639.2
10700.1
10729.4
10726.7
10731.5
10738.8
10770.7
10130.1
10301.2
10504.6
10639.3
10699.9
10730
10728
10727
10724.1
10751.5
10130.2
10301.2
10504.7
10639.4
10699.7
10729.9
10727.9
10728.7
10730
10754.7
10130.1
10301.2
10504.6
10639.3
10699.9
10730
10728
10727
10724.1
10751.5
10130.1
10301.2
10504.5
10639.2
10700.1
10729.4
10726.7
10731.5
10738.8
10770.7
10715.6
10770.9
10776.9
10704.9
10025.1
10782.4
10830.5
10821.8
10804.4
10499.7
10778.7
10810.8
10791.7
10741.5
10420.9
10782.4
10830.5
10821.8
10804.4
10499.7
10715.6
10770.9
10776.9
10704.9
10025.1
11714.9
11714.3
11899.6
11960.6
12139.8
11566.6
11686.1
11897.5
12059.8
11964.3
11559.6
11693
11885.8
12001
11597.2
11566.6
11686.1
11897.5
12059.8
11964.3
11714.9
11714.3
11899.6
11960.6
12139.8
10187.1
5361.62
5838.32
6041.45
6028.64
6149.07
6388.44
6735.55
7177.67
7687.87
8240.02
8804
9330.72
9736.58
9944.43
9995.69
9999.92
10000
10000
10000
10000
10000
10000
9999.9
9994.97
9937.5
9711.53
9278.7
8721.34
8122.46
7525.55
6950.77
6409.03
5907.99
5454.66
5057.61
4733.6
4476.32
3950.89
16516.5
10422.4
5692.22
6018.03
6075.22
6046.03
6152.18
6393.26
6737.01
7178.52
7688.52
8240.55
8804.49
9331.19
9736.9
9944.55
9995.71
9999.92
10000
10000
10000
10000
10000
10000
9999.9
9994.97
9937.5
9711.53
9278.7
8721.34
8122.46
7525.55
6950.77
6409.03
5907.99
5454.66
5057.61
4733.6
4476.32
3950.89
16516.5
9904.59
6160.84
6116.16
6098.78
6053.72
6153.45
6394.78
6737.51
7178.82
7688.73
8240.72
8804.65
9331.35
9737.03
9944.6
9995.72
9999.92
10000
10000
10000
10000
10000
10000
9999.9
9994.97
9937.5
9711.53
9278.7
8721.34
8122.46
7525.55
6950.77
6409.03
5907.99
5454.66
5057.61
4733.6
4476.32
3950.89
16516.5
10422.4
5692.22
6018.03
6075.22
6046.03
6152.18
6393.26
6737.01
7178.52
7688.52
8240.55
8804.49
9331.19
9736.9
9944.55
9995.71
9999.92
10000
10000
10000
10000
10000
10000
9999.9
9994.97
9937.5
9711.53
9278.7
8721.34
8122.46
7525.55
6950.77
6409.03
5907.99
5454.66
5057.61
4733.6
4476.32
3950.89
16516.5
10187.1
5361.62
5838.32
6041.45
6028.64
6149.07
6388.44
6735.55
7177.67
7687.87
8240.02
8804
9330.72
9736.58
9944.43
9995.69
9999.92
10000
10000
10000
10000
10000
10000
9999.9
9994.97
9937.5
9711.53
9278.7
8721.34
8122.46
7525.55
6950.77
6409.03
5907.99
5454.66
5057.61
4733.6
4476.32
3950.89
16516.5
12102.1
4798.68
5597
5887.49
5974.28
6123.03
6372.89
6729.12
7173.5
7684.96
8237.81
8801.99
9328.7
9735.04
9943.84
9995.62
9999.92
10000
10000
10000
10000
10000
10000
9999.9
9994.97
9937.5
9711.53
9278.7
8721.34
8122.46
7525.55
6950.77
6409.03
5907.99
5454.66
5057.61
4733.6
4476.32
3950.89
16516.5
13585.1
4357.93
5297.98
5625.66
5836.32
6043.02
6330.58
6706.31
7161.4
7677.31
8231.53
8795.88
9323.25
9731.53
9942.64
9995.47
9999.91
10000
10000
10000
10000
10000
10000
9999.9
9994.97
9937.5
9711.53
9278.7
8721.34
8122.46
7525.55
6950.77
6409.03
5907.99
5454.66
5057.61
4733.6
4476.32
3950.89
16516.5
15051.6
4286.96
5135.25
5459.87
5703.87
5957.47
6278.03
6675.68
7142.77
7664.12
8220.33
8785.99
9315.56
9727.07
9941.2
9995.3
9999.9
9999.99
9999.99
9999.99
9999.99
9999.99
9999.99
9999.89
9994.96
9937.5
9711.52
9278.69
8721.34
8122.46
7525.55
6950.77
6409.03
5907.99
5454.66
5057.61
4733.6
4476.32
3950.89
16516.5
16101.1
4239.02
5002.24
5320.43
5583.52
5874.24
6220.49
6636.64
7115.35
7642.81
8202.55
8771.33
9305
9721.34
9939
9994.38
9999.15
9999.24
9999.24
9999.24
9999.24
9999.24
9999.24
9999.14
9994.21
9936.75
9710.8
9278.02
8720.75
8121.96
7525.15
6950.46
6408.79
5907.82
5454.54
5057.53
4733.55
4476.29
3950.88
16516.5
16916.9
4201.32
4890.69
5195.35
5469.08
5779.85
6146.39
6579.61
7070.1
7605.1
8170.17
8742.98
9279.89
9699.56
9920.03
9976.37
9981.24
9981.34
9981.34
9981.34
9981.34
9981.34
9981.34
9981.24
9976.32
9918.99
9693.58
9261.89
8706.14
8109.14
7514.22
6941.4
6401.5
5902.1
5450.17
5054.22
4731.06
4474.55
3949.91
16515.9
17451.7
4153.02
4772.65
5046.55
5327.32
5657.18
6044.18
6484.9
6973.86
7503.33
8062.24
8630.44
9164.48
9582.17
9801.48
9857.56
9862.4
9862.5
9862.5
9862.5
9862.5
9862.5
9862.5
9862.4
9857.56
9801.1
9578.97
9153.62
8606.44
8019.2
7434.55
6872.03
6342.09
5852.01
5408.53
5019.71
4702.55
4452.37
3935.79
16498.4
17287.5
4068.7
4632.86
4872.84
5138.81
5456.42
5831.29
6261.66
6738.59
7253.76
7796.72
8348.57
8867.38
9272.99
9485.55
9539.67
9544.31
9544.4
9544.4
9544.4
9544.4
9544.4
9544.4
9544.31
9539.69
9485.54
9271.82
8862
8334.84
7769.66
7207.7
6667.71
6159.63
5690.33
5266.16
4894.09
4591.37
4358.24
3869
16337.4
16699.3
3918.53
4394.73
4578.45
4823.56
5133.72
5500.29
5916.83
6376.63
6872.1
7392.77
7920.28
8414.96
8800.37
9001
9051.53
9055.8
9055.89
9055.89
9055.89
9055.89
9055.89
9055.89
9055.8
9051.55
9001.12
8800.3
8413.27
7914.4
7379.4
6847.7
6337.21
5857.35
5414.68
5015.2
4664.75
4379.23
4166.14
3723.2
15773.7
15465.4
3661.11
4045.18
4217.32
4460.32
4765.55
5122.51
5523.52
5962.74
6433.97
6927.84
7426.7
7892.48
8252.96
8438.46
8484.35
8488.14
8488.21
8488.21
8488.21
8488.21
8488.21
8488.21
8488.14
8484.36
8438.56
8253.2
7892.43
7425.19
6923.21
6424.07
5944.84
5494.54
5079.37
4705
4376.56
4108.38
3909.58
3512.05
14745.2
13866
3347.33
3696.62
3868.74
4108.53
4404.02
4745.4
5127.02
5543.48
5988.45
6453.31
6921.37
7356.26
7689.83
7858.75
7899.49
7902.74
7902.8
7902.8
7902.8
7902.8
7902.8
7902.8
7902.74
7899.5
7858.8
7690.05
7356.65
6921.63
6452.79
5986.04
5537.73
5116.41
4728.15
4377.73
4070.16
3818.79
3633.71
3257.52
13447.5
12292.6
3028.33
3383.01
3549.9
3778.6
4062.11
4385.8
4746.48
5138.41
5556.37
5991.66
6428.55
6832.31
7138.62
7290.52
7325.97
7328.67
7328.71
7328.71
7328.71
7328.71
7328.71
7328.71
7328.67
7325.97
7290.54
7138.73
6832.66
6429.18
5992.46
5556.97
5138.33
4745.05
4382
4054.65
3766.42
3532.96
3357.88
2989.71
12095.2
10792.2
2744.72
3092.62
3262.84
3476.61
3743.83
4050.37
4388.24
4755.94
5146.52
5552.84
5959.35
6332.82
6612.39
6747.49
6777.74
6779.91
6779.95
6779.95
6779.95
6779.95
6779.95
6779.95
6779.91
6777.74
6747.49
6612.43
6333
5959.8
5553.65
5147.71
4757.47
4389.86
4051.83
3744.61
3476.56
3260.88
3087.32
2734.6
10722.3
9516.99
2498.23
2826.85
3002.38
3201.39
3452.93
3737.95
4056.36
4398.92
4763.94
5142.43
5520.21
5864.89
6118.8
6237.71
6263.04
6264.74
6264.76
6264.76
6264.76
6264.76
6264.76
6264.76
6264.74
6263.04
6237.71
6118.81
5864.95
5520.42
5142.9
4764.79
4400.22
4058.1
3740.15
3455.51
3204.14
3004.63
2828.04
2498.06
9500.43
8282.19
2285.84
2587.7
2765.3
2954.14
3185.73
3454.93
3749.31
4071.59
4411.74
4764.97
5116.06
5433.87
5663.57
5767.24
5788.07
5789.35
5789.37
5789.37
5789.37
5789.37
5789.37
5789.37
5789.35
5788.07
5767.24
5663.57
5433.87
5116.12
4765.15
4412.14
4072.27
3750.36
3456.4
3187.6
2956.36
2767.55
2589.83
2287.45
8281.41
7266.11
2096.54
2374.75
2554.05
2732.32
2950.37
3197.32
3475.29
3775.09
4094.65
4424.92
4752.21
5045.63
5253.13
5342.85
5359.71
5360.66
5360.67
5360.67
5360.67
5360.67
5360.67
5360.67
5360.66
5359.71
5342.85
5253.13
5045.62
4752.21
4424.96
4094.76
3775.33
3475.71
3197.95
2951.21
2733.39
2555.28
2376.05
2097.61
7267.29
6297.37
1935.1
2185
2363.52
2536.15
2741.86
2975.64
3234.18
3516.96
3816.54
4127.35
4434.3
4707.27
4895.85
4973.63
4987.21
4987.91
4987.91
4987.91
4987.91
4987.91
4987.91
4987.91
4987.91
4987.21
4973.63
4895.85
4707.26
4434.29
4127.34
3816.54
3516.99
3234.27
2975.78
2742.1
2536.49
2363.97
2185.5
1935.51
6298.09
5626.33
1807.09
2032.59
2203.13
2372.06
2571.4
2795.71
3043.99
3311.9
3594.53
3887.78
4178.71
4434.76
4606
4673.21
4684.13
4684.63
4684.64
4684.64
4684.64
4684.64
4684.64
4684.64
4684.63
4684.13
4673.21
4606
4434.76
4178.7
3887.77
3594.51
3311.88
3043.97
2795.7
2571.41
2372.1
2203.2
2032.69
1807.18
5626.6
4957.27
1678.84
1876.04
2038.24
2199.99
2397.86
2623.53
2873.27
3144.58
3426.73
3712.38
3987.54
4220.96
4370.46
4425.4
4433.52
4433.85
4433.86
4433.86
4433.86
4433.86
4433.86
4433.86
4433.85
4433.52
4425.4
4370.46
4220.96
3987.54
3712.37
3426.72
3144.56
2873.25
2623.5
2397.83
2199.98
2038.23
1876.04
1678.85
4957.3
4491.4
1496.52
1684.16
1816.84
1953.15
2121.84
2321.83
2542.41
2787.83
3048.74
3314.09
3559.37
3756.53
3874.33
3913.59
3918.74
3918.92
3918.92
3918.92
3918.92
3918.92
3918.92
3918.92
3918.92
3918.74
3913.59
3874.33
3756.53
3559.37
3314.09
3048.73
2787.82
2542.39
2321.8
2121.81
1953.12
1816.81
1684.14
1496.51
4491.4
25417.2
4576.07
5068.47
5787.79
6518.92
7564.5
8654.46
9970.46
11284.9
12740
14156
15431.9
16316
16693.7
16767.2
16771.9
16772
16772
16772
16772
16772
16772
16772
16772
16771.9
16767.2
16693.7
16316
15431.9
14156
12740
11285
9970.46
8654.46
7564.49
6518.91
5787.77
5068.45
4576.06
25417.2
25417.2
4576.07
5068.47
5787.79
6518.92
7564.5
8654.46
9970.46
11284.9
12740
14156
15431.9
16316
16693.7
16767.2
16771.9
16772
16772
16772
16772
16772
16772
16772
16772
16771.9
16767.2
16693.7
16316
15431.9
14156
12740
11285
9970.46
8654.46
7564.49
6518.91
5787.77
5068.45
4576.06
25417.2
4491.4
1496.52
1684.16
1816.84
1953.15
2121.84
2321.83
2542.41
2787.83
3048.74
3314.09
3559.37
3756.53
3874.33
3913.59
3918.74
3918.92
3918.92
3918.92
3918.92
3918.92
3918.92
3918.92
3918.92
3918.74
3913.59
3874.33
3756.53
3559.37
3314.09
3048.73
2787.82
2542.39
2321.8
2121.81
1953.12
1816.81
1684.14
1496.51
4491.4
4957.27
1678.84
1876.04
2038.24
2199.99
2397.86
2623.53
2873.27
3144.58
3426.73
3712.38
3987.54
4220.96
4370.46
4425.4
4433.52
4433.85
4433.86
4433.86
4433.86
4433.86
4433.86
4433.86
4433.85
4433.52
4425.4
4370.46
4220.96
3987.54
3712.37
3426.72
3144.56
2873.25
2623.5
2397.83
2199.98
2038.23
1876.04
1678.85
4957.3
5626.33
1807.09
2032.59
2203.13
2372.06
2571.4
2795.71
3043.99
3311.9
3594.53
3887.78
4178.71
4434.76
4606
4673.21
4684.13
4684.63
4684.64
4684.64
4684.64
4684.64
4684.64
4684.64
4684.63
4684.13
4673.21
4606
4434.76
4178.7
3887.77
3594.51
3311.88
3043.97
2795.7
2571.41
2372.1
2203.2
2032.69
1807.18
5626.6
6297.37
1935.1
2185
2363.52
2536.15
2741.86
2975.64
3234.18
3516.96
3816.54
4127.35
4434.3
4707.27
4895.85
4973.63
4987.21
4987.91
4987.91
4987.91
4987.91
4987.91
4987.91
4987.91
4987.91
4987.21
4973.63
4895.85
4707.26
4434.29
4127.34
3816.54
3516.99
3234.27
2975.78
2742.1
2536.49
2363.97
2185.5
1935.51
6298.09
7266.11
2096.54
2374.75
2554.05
2732.32
2950.37
3197.32
3475.29
3775.09
4094.65
4424.92
4752.21
5045.63
5253.13
5342.85
5359.71
5360.66
5360.67
5360.67
5360.67
5360.67
5360.67
5360.67
5360.66
5359.71
5342.85
5253.13
5045.62
4752.21
4424.96
4094.76
3775.33
3475.71
3197.95
2951.21
2733.39
2555.28
2376.05
2097.61
7267.29
8282.19
2285.84
2587.7
2765.3
2954.14
3185.73
3454.93
3749.31
4071.59
4411.74
4764.97
5116.06
5433.87
5663.57
5767.24
5788.07
5789.35
5789.37
5789.37
5789.37
5789.37
5789.37
5789.37
5789.35
5788.07
5767.24
5663.57
5433.87
5116.12
4765.15
4412.14
4072.27
3750.36
3456.4
3187.6
2956.36
2767.55
2589.83
2287.45
8281.41
9516.99
2498.23
2826.85
3002.38
3201.39
3452.93
3737.95
4056.36
4398.92
4763.94
5142.43
5520.21
5864.89
6118.8
6237.71
6263.04
6264.74
6264.76
6264.76
6264.76
6264.76
6264.76
6264.76
6264.74
6263.04
6237.71
6118.81
5864.95
5520.42
5142.9
4764.79
4400.22
4058.1
3740.15
3455.51
3204.14
3004.63
2828.04
2498.06
9500.43
10792.2
2744.72
3092.62
3262.84
3476.61
3743.83
4050.37
4388.24
4755.94
5146.52
5552.84
5959.35
6332.82
6612.39
6747.49
6777.74
6779.91
6779.95
6779.95
6779.95
6779.95
6779.95
6779.95
6779.91
6777.74
6747.49
6612.43
6333
5959.8
5553.65
5147.71
4757.47
4389.86
4051.83
3744.61
3476.56
3260.88
3087.32
2734.6
10722.3
12292.6
3028.33
3383.01
3549.9
3778.6
4062.11
4385.8
4746.48
5138.41
5556.37
5991.66
6428.55
6832.31
7138.62
7290.52
7325.97
7328.67
7328.71
7328.71
7328.71
7328.71
7328.71
7328.71
7328.67
7325.97
7290.54
7138.73
6832.66
6429.18
5992.46
5556.97
5138.33
4745.05
4382
4054.65
3766.42
3532.96
3357.88
2989.71
12095.2
13866
3347.33
3696.62
3868.74
4108.53
4404.02
4745.4
5127.02
5543.48
5988.45
6453.31
6921.37
7356.26
7689.83
7858.75
7899.49
7902.74
7902.8
7902.8
7902.8
7902.8
7902.8
7902.8
7902.74
7899.5
7858.8
7690.05
7356.65
6921.63
6452.79
5986.04
5537.73
5116.41
4728.15
4377.73
4070.16
3818.79
3633.71
3257.52
13447.5
15465.4
3661.11
4045.18
4217.32
4460.32
4765.55
5122.51
5523.52
5962.74
6433.97
6927.84
7426.7
7892.48
8252.96
8438.46
8484.35
8488.14
8488.21
8488.21
8488.21
8488.21
8488.21
8488.21
8488.14
8484.36
8438.56
8253.2
7892.43
7425.19
6923.21
6424.07
5944.84
5494.54
5079.37
4705
4376.56
4108.38
3909.58
3512.05
14745.2
16699.3
3918.53
4394.73
4578.45
4823.56
5133.72
5500.29
5916.83
6376.63
6872.1
7392.77
7920.28
8414.96
8800.37
9001
9051.53
9055.8
9055.89
9055.89
9055.89
9055.89
9055.89
9055.89
9055.8
9051.55
9001.12
8800.3
8413.27
7914.4
7379.4
6847.7
6337.21
5857.35
5414.68
5015.2
4664.75
4379.23
4166.14
3723.2
15773.7
17287.5
4068.7
4632.86
4872.84
5138.81
5456.42
5831.29
6261.66
6738.59
7253.76
7796.72
8348.57
8867.38
9272.99
9485.55
9539.67
9544.31
9544.4
9544.4
9544.4
9544.4
9544.4
9544.4
9544.31
9539.69
9485.54
9271.82
8862
8334.84
7769.66
7207.7
6667.71
6159.63
5690.33
5266.16
4894.09
4591.37
4358.24
3869
16337.4
17451.7
4153.02
4772.65
5046.55
5327.32
5657.18
6044.18
6484.9
6973.86
7503.33
8062.24
8630.44
9164.48
9582.17
9801.48
9857.56
9862.4
9862.5
9862.5
9862.5
9862.5
9862.5
9862.5
9862.4
9857.56
9801.1
9578.97
9153.62
8606.44
8019.2
7434.55
6872.03
6342.09
5852.01
5408.53
5019.71
4702.55
4452.37
3935.79
16498.4
16916.9
4201.32
4890.69
5195.35
5469.08
5779.85
6146.39
6579.61
7070.1
7605.1
8170.17
8742.98
9279.89
9699.56
9920.03
9976.37
9981.24
9981.34
9981.34
9981.34
9981.34
9981.34
9981.34
9981.24
9976.32
9918.99
9693.58
9261.89
8706.14
8109.14
7514.22
6941.4
6401.5
5902.1
5450.17
5054.22
4731.06
4474.55
3949.91
16515.9
16101.1
4239.02
5002.24
5320.43
5583.52
5874.24
6220.49
6636.64
7115.35
7642.81
8202.55
8771.33
9305
9721.34
9939
9994.38
9999.15
9999.24
9999.24
9999.24
9999.24
9999.24
9999.24
9999.14
9994.21
9936.75
9710.8
9278.02
8720.75
8121.96
7525.15
6950.46
6408.79
5907.82
5454.54
5057.53
4733.55
4476.29
3950.88
16516.5
15051.6
4286.96
5135.25
5459.87
5703.87
5957.47
6278.03
6675.68
7142.77
7664.12
8220.33
8785.99
9315.56
9727.07
9941.2
9995.3
9999.9
9999.99
9999.99
9999.99
9999.99
9999.99
9999.99
9999.89
9994.96
9937.5
9711.52
9278.69
8721.34
8122.46
7525.55
6950.77
6409.03
5907.99
5454.66
5057.61
4733.6
4476.32
3950.89
16516.5
13585.1
4357.93
5297.98
5625.66
5836.32
6043.02
6330.58
6706.31
7161.4
7677.31
8231.53
8795.88
9323.25
9731.53
9942.64
9995.47
9999.91
10000
10000
10000
10000
10000
10000
9999.9
9994.97
9937.5
9711.53
9278.7
8721.34
8122.46
7525.55
6950.77
6409.03
5907.99
5454.66
5057.61
4733.6
4476.32
3950.89
16516.5
12102.1
4798.68
5597
5887.49
5974.28
6123.03
6372.89
6729.12
7173.5
7684.96
8237.81
8801.99
9328.7
9735.04
9943.84
9995.62
9999.92
10000
10000
10000
10000
10000
10000
9999.9
9994.97
9937.5
9711.53
9278.7
8721.34
8122.46
7525.55
6950.77
6409.03
5907.99
5454.66
5057.61
4733.6
4476.32
3950.89
16516.5
)
;

boundaryField
{
    inlet
    {
        type            fixedValue;
        value           uniform 10000;
    }
    outlet
    {
        type            fixedValue;
        value           uniform 1000;
    }
    obstacle
    {
        type            zeroGradient;
    }
    empty
    {
        type            empty;
    }
}


// ************************************************************************* //
