/*--------------------------------*- C++ -*----------------------------------*\
| =========                 |                                                 |
| \\      /  F ield         | OpenFOAM: The Open Source CFD Toolbox           |
|  \\    /   O peration     | Version:  v1912                                 |
|   \\  /    A nd           | Website:  www.openfoam.com                      |
|    \\/     M anipulation  |                                                 |
\*---------------------------------------------------------------------------*/
FoamFile
{
    version     2.0;
    format      ascii;
    class       volVectorField;
    location    "1.66";
    object      U;
}
// * * * * * * * * * * * * * * * * * * * * * * * * * * * * * * * * * * * * * //

dimensions      [0 1 -1 0 0 0 0];


internalField   nonuniform List<vector> 
1900
(
(-0.00924535 -2.51917e-07 0)
(-0.0212537 -1.34886e-06 0)
(-0.0353114 -1.17739e-06 0)
(-0.0443861 1.01703e-05 0)
(-0.0489373 4.18781e-05 0)
(-0.0499936 0.00019495 0)
(-0.051049 0.000260719 0)
(-0.0512348 -0.000126112 0)
(-0.0506714 -0.0021313 0)
(-0.0457963 -0.00818272 0)
(-0.00924711 -9.61515e-07 0)
(-0.0212586 -2.64004e-06 0)
(-0.0353205 -2.47562e-06 0)
(-0.0443865 8.31029e-06 0)
(-0.0489069 4.75948e-05 0)
(-0.049856 0.000175756 0)
(-0.0506881 0.000196125 0)
(-0.0505769 -2.97539e-06 0)
(-0.0505758 -0.00132955 0)
(-0.0528931 -0.00664326 0)
(-0.00924808 -2.17594e-13 0)
(-0.0212603 2.78165e-13 0)
(-0.0353256 -1.74497e-13 0)
(-0.0443873 5.87324e-14 0)
(-0.0488813 -4.74548e-14 0)
(-0.0497448 -3.53975e-15 0)
(-0.0505005 -4.08085e-14 0)
(-0.0504565 -3.4749e-14 0)
(-0.0512711 -3.66011e-14 0)
(-0.0564784 -1.68006e-14 0)
(-0.00924711 9.61515e-07 0)
(-0.0212586 2.64004e-06 0)
(-0.0353205 2.47562e-06 0)
(-0.0443865 -8.31029e-06 0)
(-0.0489069 -4.75948e-05 0)
(-0.049856 -0.000175756 0)
(-0.0506881 -0.000196125 0)
(-0.0505769 2.97539e-06 0)
(-0.0505758 0.00132955 0)
(-0.0528931 0.00664326 0)
(-0.00924535 2.51917e-07 0)
(-0.0212537 1.34886e-06 0)
(-0.0353114 1.17739e-06 0)
(-0.0443861 -1.01703e-05 0)
(-0.0489373 -4.18781e-05 0)
(-0.0499936 -0.00019495 0)
(-0.051049 -0.000260719 0)
(-0.0512348 0.000126112 0)
(-0.0506714 0.0021313 0)
(-0.0457963 0.00818272 0)
(-0.0480178 -0.0231873 0)
(-0.064083 -0.0310778 0)
(-0.0798362 -0.0444292 0)
(-0.106624 -0.0599298 0)
(-0.194201 -0.054449 0)
(-0.0628439 -0.0156842 0)
(-0.0789822 -0.0205567 0)
(-0.101303 -0.0310806 0)
(-0.145037 -0.0433094 0)
(-0.22983 -0.0424988 0)
(-0.0675054 -2.27765e-14 0)
(-0.083027 -2.29984e-14 0)
(-0.108873 1.8957e-14 0)
(-0.157626 -6.00122e-15 0)
(-0.238616 6.37383e-15 0)
(-0.0628439 0.0156842 0)
(-0.0789822 0.0205567 0)
(-0.101303 0.0310806 0)
(-0.145037 0.0433094 0)
(-0.22983 0.0424988 0)
(-0.0480178 0.0231873 0)
(-0.064083 0.0310778 0)
(-0.0798362 0.0444292 0)
(-0.106624 0.0599298 0)
(-0.194201 0.054449 0)
(-0.239476 0.0106287 0)
(-0.20705 0.0174207 0)
(-0.194621 0.0191595 0)
(-0.194567 0.0390903 0)
(-0.272825 0.0933315 0)
(-0.249113 0.010265 0)
(-0.215167 0.0112736 0)
(-0.190041 0.0123039 0)
(-0.159084 0.0326623 0)
(-0.12028 0.101726 0)
(-0.255329 8.73879e-15 0)
(-0.218272 1.91753e-14 0)
(-0.185927 2.17431e-14 0)
(-0.135112 7.5687e-14 0)
(-0.0308928 5.23547e-14 0)
(-0.249113 -0.010265 0)
(-0.215167 -0.0112736 0)
(-0.190041 -0.0123039 0)
(-0.159084 -0.0326623 0)
(-0.12028 -0.101726 0)
(-0.239476 -0.0106287 0)
(-0.20705 -0.0174207 0)
(-0.194621 -0.0191595 0)
(-0.194567 -0.0390903 0)
(-0.272825 -0.0933315 0)
(-0.483061 0.0921493 0)
(-0.10242 -0.133676 0)
(-0.171476 -0.159766 0)
(-0.26906 -0.0788143 0)
(-0.312737 -0.026269 0)
(-0.319814 -0.0109559 0)
(-0.301056 -0.00423068 0)
(-0.268652 -0.00258787 0)
(-0.227644 -0.00170042 0)
(-0.182066 -0.00120361 0)
(-0.135057 -0.000798471 0)
(-0.089469 -0.000497328 0)
(-0.0489411 -0.00026882 0)
(-0.0189489 -0.00010936 0)
(-0.00396729 -2.56887e-05 0)
(-0.000307061 -2.2668e-06 0)
(-5.75891e-06 -4.61028e-08 0)
(-1.77052e-08 -1.28183e-10 0)
(-6.34327e-12 5.50648e-14 0)
(-1.63318e-16 5.29329e-15 0)
(7.4613e-16 7.07403e-15 0)
(8.89752e-12 6.51953e-14 0)
(2.31065e-08 2.11054e-14 0)
(7.08506e-06 2.91657e-13 0)
(0.000359633 3.41966e-13 0)
(0.00447404 2.70216e-13 0)
(0.020838 4.70697e-14 0)
(0.0530913 3.25354e-13 0)
(0.0965898 1.74443e-13 0)
(0.146098 2.08098e-13 0)
(0.198682 4.29076e-14 0)
(0.252825 -8.24219e-14 0)
(0.307494 1.41766e-13 0)
(0.361715 -4.0563e-14 0)
(0.414332 1.1315e-13 0)
(0.463502 3.03033e-14 0)
(0.506732 1.08998e-13 0)
(0.5406 3.5613e-14 0)
(0.62721 7.26232e-14 0)
(1.22918 1.90807e-14 0)
(0.0389822 0.108671 0)
(0.168155 -0.0969695 0)
(-0.0420767 -0.110825 0)
(-0.238285 -0.0459248 0)
(-0.307698 -0.0137068 0)
(-0.31902 -0.00551802 0)
(-0.301334 -0.00202086 0)
(-0.268664 -0.00123299 0)
(-0.227461 -0.000833665 0)
(-0.181886 -0.000605541 0)
(-0.134934 -0.000403015 0)
(-0.0893857 -0.000250264 0)
(-0.0488859 -0.000134025 0)
(-0.0189196 -5.36832e-05 0)
(-0.00395765 -1.24e-05 0)
(-0.000305834 -1.08945e-06 0)
(-5.72309e-06 -2.26876e-08 0)
(-1.75583e-08 -7.0647e-11 0)
(-6.33114e-12 2.65837e-14 0)
(-1.62344e-16 9.3616e-16 0)
(7.95486e-16 1.32234e-15 0)
(8.91634e-12 4.89186e-14 0)
(2.31065e-08 -1.1077e-14 0)
(7.08506e-06 2.0911e-13 0)
(0.000359633 9.18838e-14 0)
(0.00447404 2.27262e-13 0)
(0.020838 -4.90902e-14 0)
(0.0530913 2.23757e-13 0)
(0.0965898 9.1118e-14 0)
(0.146098 7.42218e-14 0)
(0.198682 6.60797e-15 0)
(0.252825 -9.36355e-14 0)
(0.307494 1.07136e-13 0)
(0.361715 -3.79394e-14 0)
(0.414332 5.64873e-14 0)
(0.463502 1.72215e-14 0)
(0.506732 7.65594e-14 0)
(0.5406 1.97969e-14 0)
(0.62721 1.19997e-14 0)
(1.22918 -1.30999e-14 0)
(0.197744 2.14871e-14 0)
(0.255671 -1.26376e-14 0)
(0.015597 -1.07948e-14 0)
(-0.224485 -7.09609e-16 0)
(-0.306174 5.55227e-15 0)
(-0.319159 2.00652e-14 0)
(-0.301493 1.4876e-14 0)
(-0.268664 -1.57369e-14 0)
(-0.227398 -1.70383e-14 0)
(-0.181829 5.76639e-14 0)
(-0.134897 1.9039e-14 0)
(-0.0893619 -1.17155e-14 0)
(-0.0488687 -3.1183e-14 0)
(-0.0189089 -1.31619e-14 0)
(-0.00395385 8.07483e-14 0)
(-0.000305351 -8.56595e-14 0)
(-5.70943e-06 -7.81414e-15 0)
(-1.75023e-08 -2.0674e-14 0)
(-6.32246e-12 3.97937e-14 0)
(-3.17593e-16 4.34629e-16 0)
(4.91605e-16 2.7891e-16 0)
(8.92748e-12 7.23505e-15 0)
(2.31065e-08 -6.21651e-14 0)
(7.08506e-06 1.25651e-13 0)
(0.000359633 -1.12594e-13 0)
(0.00447404 1.6764e-13 0)
(0.020838 -1.2181e-13 0)
(0.0530913 1.59526e-13 0)
(0.0965898 -1.78881e-14 0)
(0.146098 -3.52916e-14 0)
(0.198682 -3.77056e-14 0)
(0.252825 -1.09333e-13 0)
(0.307494 8.03423e-14 0)
(0.361715 -5.80219e-14 0)
(0.414332 -1.01835e-14 0)
(0.463502 9.54232e-15 0)
(0.506732 5.43624e-14 0)
(0.5406 -2.52407e-15 0)
(0.62721 -1.62545e-15 0)
(1.22918 -3.78937e-14 0)
(0.0389822 -0.108671 0)
(0.168155 0.0969695 0)
(-0.0420767 0.110825 0)
(-0.238285 0.0459248 0)
(-0.307698 0.0137068 0)
(-0.31902 0.00551802 0)
(-0.301334 0.00202086 0)
(-0.268664 0.00123299 0)
(-0.227461 0.000833665 0)
(-0.181886 0.000605541 0)
(-0.134934 0.000403015 0)
(-0.0893857 0.000250264 0)
(-0.0488859 0.000134025 0)
(-0.0189196 5.36832e-05 0)
(-0.00395765 1.24e-05 0)
(-0.000305834 1.08945e-06 0)
(-5.72309e-06 2.26876e-08 0)
(-1.75583e-08 7.06077e-11 0)
(-6.35817e-12 3.78494e-14 0)
(-3.75176e-16 -4.83075e-16 0)
(5.61163e-16 -4.89073e-16 0)
(8.9231e-12 -3.81145e-14 0)
(2.31064e-08 -1.57559e-13 0)
(7.08506e-06 6.48169e-14 0)
(0.000359633 -2.47123e-13 0)
(0.00447404 1.19747e-13 0)
(0.020838 -2.19707e-13 0)
(0.0530913 8.49382e-14 0)
(0.0965898 -1.2439e-13 0)
(0.146098 -1.6703e-13 0)
(0.198682 -7.86771e-14 0)
(0.252825 -1.71441e-13 0)
(0.307494 3.79969e-14 0)
(0.361715 -9.90196e-14 0)
(0.414332 -7.52536e-14 0)
(0.463502 1.00001e-14 0)
(0.506732 4.34039e-14 0)
(0.5406 -2.25688e-14 0)
(0.62721 -1.55977e-14 0)
(1.22918 -1.74354e-14 0)
(-0.483061 -0.0921493 0)
(-0.10242 0.133676 0)
(-0.171476 0.159766 0)
(-0.26906 0.0788143 0)
(-0.312737 0.026269 0)
(-0.319814 0.0109559 0)
(-0.301056 0.00423068 0)
(-0.268652 0.00258787 0)
(-0.227644 0.00170042 0)
(-0.182066 0.00120361 0)
(-0.135057 0.000798471 0)
(-0.089469 0.000497328 0)
(-0.0489411 0.00026882 0)
(-0.0189489 0.00010936 0)
(-0.00396729 2.56887e-05 0)
(-0.000307061 2.2668e-06 0)
(-5.75891e-06 4.61028e-08 0)
(-1.77052e-08 1.28177e-10 0)
(-6.39731e-12 -3.79724e-15 0)
(-4.20714e-16 -5.36527e-15 0)
(6.99855e-16 -5.45201e-15 0)
(8.90191e-12 -7.18031e-14 0)
(2.31064e-08 -2.5861e-13 0)
(7.08506e-06 -6.6346e-15 0)
(0.000359633 -3.51193e-13 0)
(0.00447404 4.50158e-14 0)
(0.020838 -3.41406e-13 0)
(0.0530913 -8.4247e-15 0)
(0.0965898 -2.46718e-13 0)
(0.146098 -3.07027e-13 0)
(0.198682 -1.14474e-13 0)
(0.252825 -2.334e-13 0)
(0.307494 -1.3044e-14 0)
(0.361715 -1.16802e-13 0)
(0.414332 -1.09576e-13 0)
(0.463502 1.45927e-15 0)
(0.506732 5.02643e-15 0)
(0.5406 -4.06492e-14 0)
(0.62721 -6.33902e-14 0)
(1.22918 -1.49765e-14 0)
(-1.09475 -0.129478 0)
(-0.415314 0.158102 0)
(-0.326994 0.193819 0)
(-0.316787 0.111823 0)
(-0.328628 0.0456124 0)
(-0.324874 0.0207332 0)
(-0.302157 0.00950142 0)
(-0.269422 0.00598837 0)
(-0.228329 0.0036939 0)
(-0.182578 0.00246186 0)
(-0.135409 0.00161684 0)
(-0.0897232 0.00100879 0)
(-0.0491383 0.000546647 0)
(-0.0190776 0.000217886 0)
(-0.00401331 4.82819e-05 0)
(-0.000312761 3.96509e-06 0)
(-5.91575e-06 7.41893e-08 0)
(-1.83398e-08 2.02871e-10 0)
(-6.71637e-12 1.21151e-13 0)
(-2.84277e-16 5.13228e-14 0)
(9.71029e-16 5.17923e-14 0)
(8.94205e-12 9.68479e-14 0)
(2.31065e-08 2.18883e-13 0)
(7.08506e-06 3.67672e-14 0)
(0.000359633 2.79807e-13 0)
(0.00447404 9.37419e-14 0)
(0.020838 1.67552e-13 0)
(0.0530913 2.39528e-13 0)
(0.0965898 1.46317e-13 0)
(0.146098 3.38025e-13 0)
(0.198682 -4.0105e-14 0)
(0.252825 2.89526e-14 0)
(0.307494 6.27936e-14 0)
(0.361715 1.16032e-14 0)
(0.414332 9.27957e-14 0)
(0.463502 -2.143e-15 0)
(0.506732 1.30998e-14 0)
(0.5406 -1.04812e-14 0)
(0.62721 5.88741e-15 0)
(1.22918 -9.15712e-14 0)
(-1.2316 -0.0904421 0)
(-0.580034 0.152588 0)
(-0.446159 0.187983 0)
(-0.379055 0.113179 0)
(-0.360013 0.0573596 0)
(-0.336729 0.0318367 0)
(-0.309528 0.0167934 0)
(-0.273193 0.0106749 0)
(-0.230434 0.00644463 0)
(-0.183884 0.0041426 0)
(-0.136345 0.00263836 0)
(-0.0904423 0.00156324 0)
(-0.0496588 0.000781583 0)
(-0.0193694 0.000285604 0)
(-0.004106 5.86411e-05 0)
(-0.000323569 4.2512e-06 0)
(-6.20236e-06 7.61282e-08 0)
(-1.9646e-08 8.07715e-10 0)
(-7.34546e-12 4.86464e-10 0)
(-8.66677e-16 4.86321e-10 0)
(4.34874e-16 4.86319e-10 0)
(8.95074e-12 4.8633e-10 0)
(2.31064e-08 4.8619e-10 0)
(7.08506e-06 4.86357e-10 0)
(0.000359633 4.86106e-10 0)
(0.00447404 4.84079e-10 0)
(0.020838 4.7271e-10 0)
(0.0530913 4.42081e-10 0)
(0.0965898 3.87997e-10 0)
(0.146098 3.16656e-10 0)
(0.198682 2.38674e-10 0)
(0.252825 1.66286e-10 0)
(0.307494 1.06804e-10 0)
(0.361715 6.35232e-11 0)
(0.414332 3.51235e-11 0)
(0.463502 1.85614e-11 0)
(0.506732 9.51549e-12 0)
(0.5406 4.14797e-12 0)
(0.62721 1.37256e-12 0)
(1.22918 -4.4624e-13 0)
(-1.24168 -0.0367326 0)
(-0.619406 0.107363 0)
(-0.490393 0.148354 0)
(-0.418698 0.0914083 0)
(-0.385355 0.0543364 0)
(-0.353492 0.0344046 0)
(-0.319287 0.0215125 0)
(-0.278775 0.0135349 0)
(-0.233586 0.00851656 0)
(-0.185871 0.00538237 0)
(-0.137742 0.00329379 0)
(-0.0914554 0.00184681 0)
(-0.0503369 0.000870007 0)
(-0.0197203 0.000291446 0)
(-0.00420798 5.38774e-05 0)
(-0.00033546 5.08068e-06 0)
(-6.54635e-06 5.50917e-07 0)
(-2.10869e-08 4.3646e-07 0)
(-8.06742e-12 4.36082e-07 0)
(-1.68521e-15 4.36082e-07 0)
(3.12747e-15 4.36082e-07 0)
(8.95006e-12 4.36082e-07 0)
(2.31067e-08 4.36083e-07 0)
(7.08505e-06 4.3608e-07 0)
(0.000359633 4.35976e-07 0)
(0.00447404 4.34477e-07 0)
(0.020838 4.26679e-07 0)
(0.0530913 4.05699e-07 0)
(0.0965897 3.68171e-07 0)
(0.146098 3.16462e-07 0)
(0.198682 2.56838e-07 0)
(0.252825 1.96554e-07 0)
(0.307494 1.4171e-07 0)
(0.361715 9.63267e-08 0)
(0.414332 6.19738e-08 0)
(0.463502 3.86019e-08 0)
(0.506732 2.34941e-08 0)
(0.5406 1.23926e-08 0)
(0.62721 4.93734e-09 0)
(1.22918 1.71512e-10 0)
(-1.24281 -0.0146098 0)
(-0.629285 0.0786509 0)
(-0.510462 0.113708 0)
(-0.446702 0.0719528 0)
(-0.406199 0.0501914 0)
(-0.369641 0.0337389 0)
(-0.329437 0.0224152 0)
(-0.285051 0.0145294 0)
(-0.237513 0.00937118 0)
(-0.188433 0.00590217 0)
(-0.139481 0.00351044 0)
(-0.0926254 0.00187322 0)
(-0.0510643 0.000852371 0)
(-0.020085 0.000329445 0)
(-0.00432077 0.000117222 0)
(-0.000347461 5.94237e-05 0)
(-6.85074e-06 5.42159e-05 0)
(-2.23759e-08 5.4116e-05 0)
(-8.70955e-12 5.41157e-05 0)
(3.05608e-14 5.41157e-05 0)
(5.3272e-14 5.41157e-05 0)
(8.89244e-12 5.41157e-05 0)
(2.31061e-08 5.41157e-05 0)
(7.08485e-06 5.41156e-05 0)
(0.000359625 5.41053e-05 0)
(0.00447395 5.39633e-05 0)
(0.0208377 5.32466e-05 0)
(0.0530905 5.13463e-05 0)
(0.0965885 4.79265e-05 0)
(0.146096 4.30826e-05 0)
(0.19868 3.7218e-05 0)
(0.252823 3.08652e-05 0)
(0.307492 2.45502e-05 0)
(0.361713 1.87352e-05 0)
(0.414331 1.37448e-05 0)
(0.463501 9.87128e-06 0)
(0.506731 6.98896e-06 0)
(0.540599 4.34294e-06 0)
(0.62721 2.03147e-06 0)
(1.22918 1.44808e-07 0)
(-1.24019 0.0134312 0)
(-0.629221 0.0607981 0)
(-0.519744 0.0867403 0)
(-0.465294 0.0576346 0)
(-0.422697 0.0456744 0)
(-0.382536 0.0319279 0)
(-0.338306 0.0220524 0)
(-0.290929 0.0148461 0)
(-0.24145 0.00997917 0)
(-0.191147 0.00667934 0)
(-0.141398 0.00445055 0)
(-0.0939392 0.00298047 0)
(-0.0518406 0.00207373 0)
(-0.0204217 0.00158098 0)
(-0.00440261 0.00137854 0)
(-0.000355588 0.00133665 0)
(-7.04726e-06 0.00133382 0)
(-2.31536e-08 0.00133377 0)
(-9.25624e-12 0.00133377 0)
(-7.3174e-15 0.00133377 0)
(2.94901e-14 0.00133377 0)
(8.87893e-12 0.00133377 0)
(2.30818e-08 0.00133377 0)
(7.0792e-06 0.00133377 0)
(0.0003594 0.00133357 0)
(0.00447173 0.00133091 0)
(0.0208291 0.00131811 0)
(0.0530716 0.00128522 0)
(0.0965582 0.00122653 0)
(0.146056 0.00114227 0)
(0.198632 0.00103681 0)
(0.252771 0.000916535 0)
(0.307439 0.000788465 0)
(0.361662 0.000660149 0)
(0.414285 0.000538273 0)
(0.463463 0.000433482 0)
(0.5067 0.000346585 0)
(0.540558 0.000249331 0)
(0.627175 0.000134129 0)
(1.22918 2.03549e-05 0)
(-1.23884 0.0318631 0)
(-0.625206 0.0507441 0)
(-0.523072 0.0705775 0)
(-0.476813 0.0514241 0)
(-0.434759 0.0438872 0)
(-0.392057 0.03254 0)
(-0.345401 0.0247331 0)
(-0.295993 0.0192254 0)
(-0.244885 0.0154717 0)
(-0.19339 0.0130075 0)
(-0.142789 0.0114845 0)
(-0.0947452 0.0106075 0)
(-0.0522458 0.0101307 0)
(-0.0205651 0.00991848 0)
(-0.00442978 0.00987155 0)
(-0.000357643 0.00987128 0)
(-7.08479e-06 0.00987181 0)
(-2.32523e-08 0.00987182 0)
(-9.22527e-12 0.00987182 0)
(-9.20397e-14 0.00987182 0)
(-8.40263e-14 0.00987182 0)
(8.69796e-12 0.00987182 0)
(2.28833e-08 0.00987182 0)
(7.03257e-06 0.0098718 0)
(0.000357628 0.00987056 0)
(0.00445517 0.00985527 0)
(0.0207689 0.00978601 0)
(0.0529447 0.00961659 0)
(0.0963578 0.00932233 0)
(0.145786 0.00890209 0)
(0.198304 0.008369 0)
(0.252398 0.00774306 0)
(0.307038 0.00704651 0)
(0.36125 0.00630773 0)
(0.413885 0.00555365 0)
(0.463103 0.00485966 0)
(0.506395 0.004245 0)
(0.540055 0.00344902 0)
(0.626661 0.00207831 0)
(1.22912 0.000639393 0)
(-1.23683 0.0398298 0)
(-0.620158 0.0483554 0)
(-0.524042 0.0666157 0)
(-0.485701 0.0541429 0)
(-0.444416 0.0497837 0)
(-0.399205 0.0423576 0)
(-0.350123 0.0379113 0)
(-0.29885 0.0352471 0)
(-0.246557 0.0336823 0)
(-0.194308 0.0328515 0)
(-0.143214 0.0325199 0)
(-0.094857 0.0325356 0)
(-0.052205 0.0327435 0)
(-0.0204999 0.0329697 0)
(-0.00439919 0.0331028 0)
(-0.000353018 0.0331412 0)
(-6.9328e-06 0.0331448 0)
(-2.25043e-08 0.0331449 0)
(-8.63481e-12 0.0331449 0)
(9.26729e-14 0.0331449 0)
(1.03987e-13 0.0331449 0)
(8.62312e-12 0.0331449 0)
(2.21504e-08 0.0331449 0)
(6.86426e-06 0.0331448 0)
(0.000351448 0.0331412 0)
(0.00440037 0.0330992 0)
(0.020582 0.0329202 0)
(0.0525724 0.0325078 0)
(0.0957908 0.0318216 0)
(0.145034 0.0308642 0)
(0.197385 0.0296585 0)
(0.251336 0.0282344 0)
(0.305863 0.0266205 0)
(0.359991 0.0248597 0)
(0.412595 0.0229879 0)
(0.461885 0.0211999 0)
(0.505376 0.0195715 0)
(0.538107 0.0174659 0)
(0.624212 0.0114422 0)
(1.22866 0.00615364 0)
(-1.23257 0.054228 0)
(-0.614623 0.0593184 0)
(-0.525183 0.080404 0)
(-0.492138 0.0720492 0)
(-0.450034 0.0707263 0)
(-0.402707 0.0677264 0)
(-0.352206 0.0664447 0)
(-0.299867 0.0659401 0)
(-0.246857 0.0660929 0)
(-0.194167 0.066689 0)
(-0.142824 0.0675179 0)
(-0.0943675 0.0684111 0)
(-0.0517565 0.0692265 0)
(-0.0202105 0.0698227 0)
(-0.00429661 0.0701215 0)
(-0.000339916 0.0701988 0)
(-6.55031e-06 0.0702057 0)
(-2.07799e-08 0.0702059 0)
(-7.85567e-12 0.0702059 0)
(-5.77e-14 0.0702059 0)
(-8.73606e-14 0.0702059 0)
(7.56836e-12 0.0702059 0)
(2.05615e-08 0.0702059 0)
(6.5001e-06 0.0702057 0)
(0.000338278 0.0701991 0)
(0.00428738 0.0701226 0)
(0.0202154 0.0698101 0)
(0.0518813 0.0691276 0)
(0.094785 0.068044 0)
(0.143739 0.0665813 0)
(0.195826 0.0647765 0)
(0.24954 0.0626671 0)
(0.303862 0.0602786 0)
(0.357819 0.0576569 0)
(0.4103 0.0548267 0)
(0.459605 0.0521071 0)
(0.503366 0.0495967 0)
(0.535103 0.0468529 0)
(0.619316 0.0338205 0)
(1.22696 0.0253634 0)
(-1.22632 0.0836863 0)
(-0.609828 0.0900394 0)
(-0.52705 0.109157 0)
(-0.494546 0.104782 0)
(-0.451993 0.104616 0)
(-0.403664 0.104059 0)
(-0.352374 0.10488 0)
(-0.29947 0.10611 0)
(-0.246052 0.107643 0)
(-0.193111 0.109351 0)
(-0.141679 0.111093 0)
(-0.093277 0.1127 0)
(-0.050867 0.114023 0)
(-0.0196734 0.114938 0)
(-0.00411724 0.115387 0)
(-0.000318213 0.115501 0)
(-5.94583e-06 0.115511 0)
(-1.81723e-08 0.115511 0)
(-6.66879e-12 0.115511 0)
(-6.29877e-14 0.115511 0)
(9.13035e-15 0.115511 0)
(6.68183e-12 0.115511 0)
(1.80895e-08 0.115511 0)
(5.92334e-06 0.115511 0)
(0.000317292 0.115502 0)
(0.00410919 0.11539 0)
(0.0196536 0.114944 0)
(0.050864 0.114003 0)
(0.0933625 0.112567 0)
(0.141965 0.110692 0)
(0.193739 0.108433 0)
(0.24717 0.105835 0)
(0.301239 0.102922 0)
(0.354971 0.0997349 0)
(0.407277 0.0963019 0)
(0.456525 0.0930876 0)
(0.500335 0.090277 0)
(0.532053 0.0869434 0)
(0.614045 0.0696725 0)
(1.22277 0.0614524 0)
(-1.21686 0.123751 0)
(-0.607185 0.128729 0)
(-0.526744 0.143973 0)
(-0.494615 0.144552 0)
(-0.451371 0.145149 0)
(-0.402568 0.146549 0)
(-0.350872 0.149014 0)
(-0.297669 0.151604 0)
(-0.244115 0.154273 0)
(-0.191133 0.156846 0)
(-0.139782 0.159264 0)
(-0.0916015 0.161411 0)
(-0.0495758 0.163144 0)
(-0.0189227 0.16433 0)
(-0.00387375 0.164907 0)
(-0.000289675 0.165051 0)
(-5.18074e-06 0.165063 0)
(-1.50156e-08 0.165063 0)
(-5.01737e-12 0.165063 0)
(5.03052e-14 0.165063 0)
(-9.5227e-16 0.165063 0)
(5.09638e-12 0.165063 0)
(1.50026e-08 0.165063 0)
(5.17537e-06 0.165063 0)
(0.000289359 0.165051 0)
(0.00386974 0.164909 0)
(0.0189059 0.164339 0)
(0.0495428 0.163159 0)
(0.0915692 0.161408 0)
(0.139791 0.159183 0)
(0.191235 0.156561 0)
(0.244377 0.153598 0)
(0.298169 0.150294 0)
(0.351694 0.146749 0)
(0.403783 0.142883 0)
(0.453026 0.139511 0)
(0.496889 0.136866 0)
(0.528237 0.132449 0)
(0.610206 0.114497 0)
(1.21458 0.10865 0)
(-1.20429 0.172351 0)
(-0.606459 0.169837 0)
(-0.523471 0.184917 0)
(-0.49251 0.189191 0)
(-0.448778 0.19048 0)
(-0.399926 0.193382 0)
(-0.347989 0.196862 0)
(-0.294837 0.200467 0)
(-0.241306 0.203855 0)
(-0.188479 0.207056 0)
(-0.137347 0.209959 0)
(-0.089501 0.212501 0)
(-0.0479757 0.214556 0)
(-0.0180012 0.215965 0)
(-0.00358005 0.216647 0)
(-0.000256346 0.216814 0)
(-4.32825e-06 0.216827 0)
(-1.17001e-08 0.216828 0)
(-3.75371e-12 0.216828 0)
(-7.22605e-14 0.216828 0)
(-7.49128e-14 0.216828 0)
(3.55231e-12 0.216828 0)
(1.17069e-08 0.216828 0)
(4.32921e-06 0.216827 0)
(0.000256323 0.216814 0)
(0.00357887 0.216648 0)
(0.0179924 0.215971 0)
(0.047948 0.214575 0)
(0.089448 0.212538 0)
(0.13727 0.210002 0)
(0.18839 0.207071 0)
(0.241231 0.203788 0)
(0.294804 0.200219 0)
(0.348035 0.196296 0)
(0.400083 0.192273 0)
(0.449174 0.188691 0)
(0.493099 0.186407 0)
(0.524141 0.181005 0)
(0.608037 0.163152 0)
(1.20322 0.164832 0)
(-1.18626 0.219382 0)
(-0.606467 0.214452 0)
(-0.521396 0.233029 0)
(-0.489002 0.237761 0)
(-0.445371 0.239686 0)
(-0.396163 0.242737 0)
(-0.344661 0.247397 0)
(-0.291234 0.251166 0)
(-0.238002 0.255157 0)
(-0.185342 0.258694 0)
(-0.13452 0.261958 0)
(-0.0870714 0.264803 0)
(-0.0461245 0.267118 0)
(-0.0169406 0.268714 0)
(-0.0032492 0.269481 0)
(-0.000220367 0.269662 0)
(-3.46291e-06 0.269676 0)
(-8.58178e-09 0.269677 0)
(-2.34376e-12 0.269677 0)
(8.16618e-14 0.269677 0)
(5.03645e-14 0.269677 0)
(2.46481e-12 0.269677 0)
(8.5885e-09 0.269677 0)
(3.46463e-06 0.269676 0)
(0.000220421 0.269662 0)
(0.00324928 0.269481 0)
(0.0169379 0.268717 0)
(0.0461104 0.267131 0)
(0.0870345 0.264836 0)
(0.134449 0.262022 0)
(0.185231 0.2588 0)
(0.237851 0.255305 0)
(0.29104 0.251329 0)
(0.34444 0.24755 0)
(0.395918 0.242801 0)
(0.445213 0.239642 0)
(0.488878 0.237319 0)
(0.521431 0.232231 0)
(0.606867 0.212528 0)
(1.18568 0.216721 0)
(-1.16864 0.284817 0)
(-0.605896 0.262502 0)
(-0.519042 0.283458 0)
(-0.484931 0.28838 0)
(-0.44029 0.289582 0)
(-0.39253 0.294377 0)
(-0.340039 0.298168 0)
(-0.287545 0.30303 0)
(-0.234147 0.306919 0)
(-0.18189 0.310835 0)
(-0.131367 0.314322 0)
(-0.0843662 0.317425 0)
(-0.0440578 0.319962 0)
(-0.0157667 0.321715 0)
(-0.00289404 0.322543 0)
(-0.000183836 0.322731 0)
(-2.64996e-06 0.322745 0)
(-5.91768e-09 0.322745 0)
(-1.46507e-12 0.322745 0)
(-8.73612e-16 0.322745 0)
(-2.02365e-14 0.322745 0)
(1.4796e-12 0.322745 0)
(5.92048e-09 0.322745 0)
(2.65091e-06 0.322745 0)
(0.000183879 0.322731 0)
(0.00289437 0.322543 0)
(0.0157667 0.321715 0)
(0.0440531 0.319967 0)
(0.0843486 0.317443 0)
(0.131327 0.314367 0)
(0.181817 0.310927 0)
(0.234033 0.307072 0)
(0.287381 0.303258 0)
(0.339829 0.29849 0)
(0.392278 0.294784 0)
(0.440029 0.290059 0)
(0.484658 0.288797 0)
(0.518836 0.283808 0)
(0.60581 0.262508 0)
(1.16845 0.284064 0)
(-1.14293 0.328844 0)
(-0.605235 0.311312 0)
(-0.518289 0.33677 0)
(-0.480354 0.338894 0)
(-0.436494 0.341613 0)
(-0.386814 0.344181 0)
(-0.33693 0.350614 0)
(-0.282852 0.353912 0)
(-0.230425 0.358649 0)
(-0.178114 0.362438 0)
(-0.127989 0.366175 0)
(-0.0814256 0.369472 0)
(-0.0418131 0.372204 0)
(-0.0145111 0.374081 0)
(-0.00252925 0.374946 0)
(-0.000148802 0.375133 0)
(-1.9396e-06 0.375146 0)
(-3.83763e-09 0.375146 0)
(-8.52699e-13 0.375146 0)
(-1.16459e-15 0.375146 0)
(-2.11531e-14 0.375146 0)
(7.77865e-13 0.375146 0)
(3.8382e-09 0.375146 0)
(1.93991e-06 0.375146 0)
(0.000148821 0.375133 0)
(0.00252947 0.374946 0)
(0.0145117 0.374081 0)
(0.0418127 0.372205 0)
(0.0814203 0.369478 0)
(0.127973 0.366195 0)
(0.178081 0.362487 0)
(0.230366 0.35874 0)
(0.282765 0.354067 0)
(0.336809 0.350853 0)
(0.386665 0.344504 0)
(0.436309 0.342026 0)
(0.480134 0.339347 0)
(0.518128 0.337312 0)
(0.605152 0.311709 0)
(1.14293 0.328853 0)
(-1.11833 0.402031 0)
(-0.603384 0.360126 0)
(-0.515129 0.385495 0)
(-0.477044 0.389051 0)
(-0.429487 0.388985 0)
(-0.38375 0.395608 0)
(-0.330788 0.398962 0)
(-0.279187 0.404511 0)
(-0.225948 0.408468 0)
(-0.174264 0.412668 0)
(-0.124372 0.416452 0)
(-0.0782958 0.419918 0)
(-0.0394314 0.422768 0)
(-0.0132098 0.424691 0)
(-0.00217016 0.425549 0)
(-0.00011703 0.425723 0)
(-1.36171e-06 0.425734 0)
(-2.35136e-09 0.425734 0)
(-5.21421e-13 0.425734 0)
(-2.88708e-14 0.425734 0)
(-1.79161e-14 0.425734 0)
(4.29689e-13 0.425734 0)
(2.35133e-09 0.425734 0)
(1.36175e-06 0.425734 0)
(0.000117034 0.425723 0)
(0.00217024 0.425549 0)
(0.0132102 0.424691 0)
(0.0394321 0.422768 0)
(0.0782957 0.419918 0)
(0.124369 0.416457 0)
(0.174255 0.412685 0)
(0.225929 0.408505 0)
(0.279156 0.404581 0)
(0.330747 0.399074 0)
(0.383686 0.395769 0)
(0.42941 0.3892 0)
(0.476935 0.389325 0)
(0.515063 0.385832 0)
(0.603374 0.360394 0)
(1.11835 0.4021 0)
(-1.08988 0.431434 0)
(-0.601648 0.403342 0)
(-0.51443 0.434581 0)
(-0.471784 0.433566 0)
(-0.426198 0.435945 0)
(-0.377051 0.439192 0)
(-0.327966 0.446108 0)
(-0.274523 0.450218 0)
(-0.22258 0.455437 0)
(-0.170716 0.45963 0)
(-0.121073 0.463555 0)
(-0.0753224 0.466989 0)
(-0.037169 0.46974 0)
(-0.0119965 0.471547 0)
(-0.00184901 0.472331 0)
(-9.0745e-05 0.472483 0)
(-9.33813e-07 0.472491 0)
(-1.3913e-09 0.472491 0)
(-1.52521e-13 0.472491 0)
(5.95067e-14 0.472491 0)
(2.66724e-14 0.472491 0)
(2.49836e-13 0.472491 0)
(1.39137e-09 0.472491 0)
(9.33798e-07 0.472491 0)
(9.07447e-05 0.472483 0)
(0.00184902 0.472331 0)
(0.0119967 0.471546 0)
(0.0371695 0.46974 0)
(0.0753235 0.466988 0)
(0.121074 0.463555 0)
(0.170716 0.459631 0)
(0.222579 0.455444 0)
(0.27452 0.450234 0)
(0.327959 0.446137 0)
(0.377043 0.43924 0)
(0.426178 0.436017 0)
(0.471763 0.43367 0)
(0.514421 0.434712 0)
(0.601663 0.403441 0)
(1.0899 0.431482 0)
(-1.05662 0.504883 0)
(-0.600681 0.452139 0)
(-0.513485 0.480438 0)
(-0.472437 0.480656 0)
(-0.424805 0.480568 0)
(-0.377394 0.48482 0)
(-0.326033 0.488327 0)
(-0.273374 0.492541 0)
(-0.220506 0.496863 0)
(-0.168505 0.50112 0)
(-0.118584 0.505027 0)
(-0.0729288 0.508377 0)
(-0.0352936 0.510886 0)
(-0.0109535 0.512498 0)
(-0.00158019 0.513223 0)
(-7.0367e-05 0.513359 0)
(-6.37153e-07 0.513367 0)
(-8.13519e-10 0.513367 0)
(-1.07303e-13 0.513367 0)
(-1.19764e-14 0.513367 0)
(-1.2867e-14 0.513367 0)
(1.39382e-13 0.513367 0)
(8.13542e-10 0.513367 0)
(6.37141e-07 0.513367 0)
(7.03662e-05 0.513359 0)
(0.00158019 0.513223 0)
(0.0109535 0.512498 0)
(0.0352938 0.510886 0)
(0.0729295 0.508376 0)
(0.118586 0.505026 0)
(0.168508 0.501118 0)
(0.220509 0.49686 0)
(0.273378 0.492538 0)
(0.326038 0.488325 0)
(0.377399 0.484823 0)
(0.42481 0.480578 0)
(0.472442 0.480675 0)
(0.513494 0.480464 0)
(0.600692 0.452163 0)
(1.05662 0.504902 0)
(-1.03372 0.496957 0)
(-0.595342 0.481157 0)
(-0.511194 0.51856 0)
(-0.471093 0.519837 0)
(-0.42503 0.521318 0)
(-0.373722 0.521589 0)
(-0.323771 0.524857 0)
(-0.268732 0.525584 0)
(-0.215845 0.528115 0)
(-0.16379 0.530743 0)
(-0.11475 0.534389 0)
(-0.0694279 0.538241 0)
(-0.0320811 0.542326 0)
(-0.00924304 0.545453 0)
(-0.00120535 0.546684 0)
(-4.72846e-05 0.546876 0)
(-3.70219e-07 0.546884 0)
(-4.03641e-10 0.546884 0)
(-2.62246e-14 0.546884 0)
(1.6353e-15 0.546884 0)
(-1.28134e-14 0.546884 0)
(9.71675e-14 0.546884 0)
(4.03603e-10 0.546884 0)
(3.70214e-07 0.546884 0)
(4.72842e-05 0.546876 0)
(0.00120535 0.546684 0)
(0.00924302 0.545453 0)
(0.0320811 0.542326 0)
(0.0694282 0.53824 0)
(0.114751 0.534388 0)
(0.163791 0.530741 0)
(0.215848 0.528111 0)
(0.268736 0.52558 0)
(0.323775 0.524851 0)
(0.373728 0.521583 0)
(0.425037 0.521313 0)
(0.471101 0.519834 0)
(0.511202 0.518559 0)
(0.595346 0.481159 0)
(1.03372 0.49696 0)
(-0.982802 0.589429 0)
(-0.564222 0.568146 0)
(-0.475543 0.600977 0)
(-0.445135 0.605797 0)
(-0.395755 0.607459 0)
(-0.349938 0.609007 0)
(-0.299565 0.61124 0)
(-0.24842 0.612164 0)
(-0.196758 0.613571 0)
(-0.145965 0.615264 0)
(-0.0970448 0.618207 0)
(-0.0544437 0.622803 0)
(-0.0233947 0.628174 0)
(-0.00628598 0.631942 0)
(-0.000744877 0.63324 0)
(-2.58479e-05 0.633411 0)
(-1.75245e-07 0.633417 0)
(-1.62523e-10 0.633417 0)
(-2.84145e-14 0.633417 0)
(-1.0887e-14 0.633417 0)
(-1.33424e-14 0.633417 0)
(3.11901e-14 0.633417 0)
(1.6255e-10 0.633417 0)
(1.75244e-07 0.633417 0)
(2.58478e-05 0.633411 0)
(0.000744874 0.63324 0)
(0.00628597 0.631942 0)
(0.0233947 0.628174 0)
(0.0544437 0.622803 0)
(0.097045 0.618206 0)
(0.145965 0.615263 0)
(0.196759 0.613569 0)
(0.248421 0.612161 0)
(0.299566 0.611236 0)
(0.349939 0.609002 0)
(0.395757 0.607454 0)
(0.445138 0.605792 0)
(0.475545 0.600973 0)
(0.564222 0.568144 0)
(0.982802 0.589429 0)
(-1.03915 1.04397 0)
(-0.583969 0.985099 0)
(-0.489763 1.03945 0)
(-0.49814 1.06256 0)
(-0.421884 1.09635 0)
(-0.389997 1.12572 0)
(-0.314416 1.15032 0)
(-0.267424 1.1761 0)
(-0.199433 1.19329 0)
(-0.145508 1.20986 0)
(-0.0902555 1.22034 0)
(-0.045473 1.22719 0)
(-0.0153222 1.23048 0)
(-0.00266332 1.23167 0)
(-0.000171321 1.23192 0)
(-2.92913e-06 1.23194 0)
(-9.82167e-09 1.23194 0)
(-4.83123e-12 1.23194 0)
(2.06212e-14 1.23194 0)
(-1.65457e-14 1.23194 0)
(-2.08303e-14 1.23194 0)
(-3.43795e-14 1.23194 0)
(4.78901e-12 1.23194 0)
(9.82152e-09 1.23194 0)
(2.92913e-06 1.23194 0)
(0.000171321 1.23192 0)
(0.00266332 1.23167 0)
(0.0153222 1.23048 0)
(0.045473 1.22719 0)
(0.0902555 1.22034 0)
(0.145508 1.20986 0)
(0.199433 1.19329 0)
(0.267424 1.1761 0)
(0.314416 1.15032 0)
(0.389997 1.12572 0)
(0.421885 1.09635 0)
(0.49814 1.06256 0)
(0.489763 1.03945 0)
(0.583969 0.985099 0)
(1.03915 1.04397 0)
(-1.03915 -1.04397 0)
(-0.583969 -0.985099 0)
(-0.489763 -1.03945 0)
(-0.49814 -1.06256 0)
(-0.421884 -1.09635 0)
(-0.389997 -1.12572 0)
(-0.314416 -1.15032 0)
(-0.267424 -1.1761 0)
(-0.199433 -1.19329 0)
(-0.145508 -1.20986 0)
(-0.0902555 -1.22034 0)
(-0.045473 -1.22719 0)
(-0.0153222 -1.23048 0)
(-0.00266332 -1.23167 0)
(-0.000171321 -1.23192 0)
(-2.92913e-06 -1.23194 0)
(-9.82148e-09 -1.23194 0)
(-4.69872e-12 -1.23194 0)
(1.96793e-13 -1.23194 0)
(9.00142e-14 -1.23194 0)
(3.75253e-14 -1.23194 0)
(-9.97902e-15 -1.23194 0)
(4.79767e-12 -1.23194 0)
(9.82164e-09 -1.23194 0)
(2.92913e-06 -1.23194 0)
(0.000171321 -1.23192 0)
(0.00266332 -1.23167 0)
(0.0153222 -1.23048 0)
(0.045473 -1.22719 0)
(0.0902555 -1.22034 0)
(0.145508 -1.20986 0)
(0.199433 -1.19329 0)
(0.267424 -1.1761 0)
(0.314416 -1.15032 0)
(0.389997 -1.12572 0)
(0.421885 -1.09635 0)
(0.49814 -1.06256 0)
(0.489763 -1.03945 0)
(0.583969 -0.985099 0)
(1.03915 -1.04397 0)
(-0.982802 -0.589429 0)
(-0.564222 -0.568146 0)
(-0.475543 -0.600977 0)
(-0.445135 -0.605797 0)
(-0.395755 -0.607459 0)
(-0.349938 -0.609007 0)
(-0.299565 -0.61124 0)
(-0.24842 -0.612164 0)
(-0.196758 -0.613571 0)
(-0.145965 -0.615264 0)
(-0.0970448 -0.618207 0)
(-0.0544437 -0.622803 0)
(-0.0233947 -0.628174 0)
(-0.00628598 -0.631942 0)
(-0.000744877 -0.63324 0)
(-2.58479e-05 -0.633411 0)
(-1.75245e-07 -0.633417 0)
(-1.62541e-10 -0.633417 0)
(2.29882e-14 -0.633417 0)
(1.80625e-14 -0.633417 0)
(7.49704e-15 -0.633417 0)
(7.1787e-14 -0.633417 0)
(1.62515e-10 -0.633417 0)
(1.75244e-07 -0.633417 0)
(2.58478e-05 -0.633411 0)
(0.000744874 -0.63324 0)
(0.00628597 -0.631942 0)
(0.0233947 -0.628174 0)
(0.0544437 -0.622803 0)
(0.097045 -0.618206 0)
(0.145965 -0.615263 0)
(0.196759 -0.613569 0)
(0.248421 -0.612161 0)
(0.299566 -0.611236 0)
(0.349939 -0.609002 0)
(0.395757 -0.607454 0)
(0.445138 -0.605792 0)
(0.475545 -0.600973 0)
(0.564222 -0.568144 0)
(0.982802 -0.589429 0)
(-1.03372 -0.496957 0)
(-0.595342 -0.481157 0)
(-0.511194 -0.51856 0)
(-0.471093 -0.519837 0)
(-0.42503 -0.521318 0)