/*--------------------------------*- C++ -*----------------------------------*\
| =========                 |                                                 |
| \\      /  F ield         | OpenFOAM: The Open Source CFD Toolbox           |
|  \\    /   O peration     | Version:  v1912                                 |
|   \\  /    A nd           | Website:  www.openfoam.com                      |
|    \\/     M anipulation  |                                                 |
\*---------------------------------------------------------------------------*/
FoamFile
{
    version     2.0;
    format      ascii;
    class       volScalarField;
    location    "2.44";
    object      p;
}
// * * * * * * * * * * * * * * * * * * * * * * * * * * * * * * * * * * * * * //

dimensions      [1 -1 -2 0 0 0 0];


internalField   nonuniform List<scalar> 
1900
(
14802.2
10943.5
10791.4
10839
10890.5
10951.1
11017.5
11089.6
11147.9
11229
14802.3
10943.6
10791.5
10839
10890.4
10950.6
11015.5
11077.9
11127.1
11198.1
14802.3
10943.6
10791.5
10838.8
10889.8
10949.9
11015.8
11081.4
11137.8
11189.7
14802.3
10943.6
10791.5
10839
10890.4
10950.6
11015.5
11077.9
11127.1
11198.1
14802.2
10943.5
10791.4
10839
10890.5
10951.1
11017.5
11089.6
11147.9
11229
11142.8
11215.2
11217.4
11039.6
9840.24
11241.7
11314.5
11290
11242
10692.8
11222.2
11273.7
11228.7
11115.3
10523.6
11241.7
11314.5
11290
11242
10692.8
11142.8
11215.2
11217.4
11039.6
9840.24
12470.6
12642.9
13021.7
13117.9
13224.6
12286.4
12606.3
13014
13289.7
13186.2
12276.4
12613.9
12999.6
13154.9
12635.3
12286.4
12606.3
13014
13289.7
13186.2
12470.6
12642.9
13021.7
13117.9
13224.6
10641.3
4913.04
5294.62
5516.33
5438.01
5453.08
5537.07
5671.97
5845.85
6063.77
6329.27
6637.47
6984.01
7361.42
7762.85
8181.77
8609.65
9027.68
9385.62
9613.24
9607.2
9364.11
8994.45
8565.6
8126.45
7693.84
7273.91
6869.6
6482.89
6115.48
5769.35
5447.42
5153.32
4889.19
4652.44
4435.66
4239.23
4091.01
3730.77
19694.9
11011.4
5261.47
5504.38
5555.57
5465.29
5473.16
5554
5692.41
5866.99
6085.87
6352.79
6662.25
7010.19
7389.27
7792.73
8213.88
8643.96
9064.01
9423.66
9652.44
9646.46
9402.33
9031.22
8600.71
8159.9
7725.68
7304.2
6898.38
6510.2
6141.32
5793.71
5470.25
5174.54
4908.71
4670.19
4451.44
4253.37
4102.12
3738.77
19695.8
10430.5
5690.91
5636.75
5592.49
5476.59
5480.43
5559.78
5699.45
5874.39
6093.79
6361.24
6671.1
7019.46
7399.08
7803.24
8225.18
8656.05
9076.86
9437.15
9666.37
9660.42
9415.92
9044.3
8613.24
8171.91
7737.21
7315.29
6909.06
6520.5
6151.23
5803.22
5479.3
5183.05
4916.51
4677.14
4457.29
4258.28
4105.67
3740.9
19695.5
11011.4
5261.47
5504.38
5555.57
5465.29
5473.16
5554
5692.41
5866.99
6085.87
6352.79
6662.25
7010.19
7389.27
7792.73
8213.88
8643.96
9064.01
9423.66
9652.44
9646.46
9402.33
9031.22
8600.71
8159.9
7725.68
7304.2
6898.38
6510.2
6141.32
5793.71
5470.25
5174.54
4908.71
4670.19
4451.44
4253.37
4102.12
3738.77
19695.8
10641.3
4913.04
5294.62
5516.33
5438.01
5453.08
5537.07
5671.97
5845.85
6063.77
6329.27
6637.47
6984.01
7361.42
7762.85
8181.77
8609.65
9027.68
9385.62
9613.24
9607.2
9364.11
8994.45
8565.6
8126.45
7693.84
7273.91
6869.6
6482.89
6115.48
5769.35
5447.42
5153.32
4889.19
4652.44
4435.66
4239.23
4091.01
3730.77
19694.9
12292.5
4284.99
5033.29
5303.15
5328.26
5366
5457.42
5584.12
5755.45
5968.85
6228.64
6531.15
6871.14
7241.21
7634.59
8045.04
8464.31
8874.1
9225.08
9448.42
9442.58
9204.14
8841.15
8419.96
7988.71
7564.01
7151.93
6755.4
6376.37
6016.52
5677.8
5363.07
5075.85
4818.24
4587.5
4376.46
4185.43
4044.51
3692.39
19617.7
13564
3879.68
4686.02
4924
5076.19
5168.46
5276.86
5403.6
5568.52
5775.58
6026.29
6318.33
6645.79
7001.84
7380.22
7775.09
8178.6
8573.17
8911.24
9126.79
9121.64
8892.41
8542.69
8136.75
7721.24
7312.29
6915.83
6534.66
6170.67
5825.46
5500.89
5199.7
4925.26
4679.56
4459.76
4258.93
4079.02
3950.24
3612.62
19402.3
14819.4
3703.95
4352.82
4605.59
4780.41
4896.7
5015.25
5146.61
5307.31
5508.39
5750.4
6031.14
6344.78
6685.03
7046.22
7422.93
7807.7
8183.81
8506
8711.81
8707.56
8489.96
8156.78
7769.57
7373.11
6982.95
6604.78
6241.34
5894.45
5565.62
5256.66
4970.16
4709.33
4475.98
4267.49
4077.35
3911.34
3793.01
3472
18807.4
16134
3561.86
4073.23
4293.66
4459.95
4604.45
4728.26
4864.93
5025.17
5223.51
5459.92
5731.59
6033.14
6358.93
6703.9
7063.15
7429.69
7787.73
8094.29
8290.3
8286.99
8081.28
7764.73
7396.18
7018.51
6646.68
6286.23
5939.8
5609.17
5295.82
5001.44
4728.47
4479.92
4257.44
4059.14
3878.91
3725.64
3612.69
3303.02
17858.4
15567.8
3351.83
3799.34
3999.75
4165.31
4309.82
4436.02
4575.7
4738.26
4935.17
5166.67
5429.75
5719.55
6031.18
6360.21
6702.22
7050.79
7391.04
7682.2
7868.32
7865.92
7672.26
7372.34
7022.33
6663.21
6309.39
5966.27
5636.45
5321.66
5023.31
4743.03
4483.02
4246.15
4033.93
3845.84
3675.75
3533.16
3420.14
3121.86
16682.5
15170.3
3139.25
3543.24
3731.91
3890.78
4024.86
4150.95
4292.13
4456.64
4652.41
4879.19
5133.84
5412.19
5710.04
6023.6
6348.97
6680.24
7003.37
7279.61
7455.82
7454.22
7272.51
6988.92
6657.01
6315.92
5979.56
5653.19
5339.4
5039.86
4756.01
4489.2
4241.63
4015.84
3813.44
3635.75
3475.55
3340.79
3224.64
2938.56
15406.4
14230.3
2939.61
3304.57
3480.16
3630.97
3754.33
3878.4
4019.98
4185.28
4379.49
4600.95
4847.17
5114.16
5398.65
5697.36
6006.89
6321.75
6628.57
6890.42
7056.67
7055.73
6885.77
6618.11
6303.77
5980.11
5660.56
5350.32
5051.92
4767.13
4497.02
4243.39
4007.35
3792.43
3599.45
3432.09
3281.01
3151.75
3031.43
2759.13
14130.9
13360.9
2751.66
3079.82
3243.26
3385.85
3500.33
3621.44
3761.89
3927.17
4118.27
4334.49
4571.7
4827.72
5099.27
5383.93
5678.57
5978
6269.34
6517.25
6673.43
6672.98
6514.54
6262.35
5964.95
5658.01
5354.58
5059.75
4776.16
4505.23
4248.77
4006.88
3782.73
3577.55
3393.83
3236.45
3093.32
2968.09
2843.96
2586.58
12852
12351
2570.52
2868.08
3022.04
3156.14
3263.47
3381.13
3519.51
3682.6
3871.35
4080.27
4309.4
4554.24
4813.72
5085.14
5365.89
5650.83
5927.42
6161.75
6307.75
6307.62
6160.43
5923.2
5642.06
5351.11
5063
4782.9
4513.18
4256.02
4011.31
3782.52
3567.4
3373.36
3197.77
3049.55
2913.46
2791.68
2665.11
2423.35
11663.8
11264.2
2400.14
2669.24
2815.35
2940.89
3042.48
3156.81
3291.98
3454.41
3636.81
3841.26
4060.41
4295.66
4543.46
4802.73
5070.51
5341.83
5604.29
5825.31
5961.07
5961.11
5824.86
5602.08
5336.48
5060.67
4787.11
4520.76
4264.55
4019.19
3787.83
3567.87
3365.26
3178.98
3011.52
2872.15
2741.52
2622.63
2495.07
2269.14
10481.3
10221
2244.97
2488.57
2625.99
2740.99
2837.35
2949.59
3081.86
3240.55
3420.5
3615.6
3828.13
4052.91
4290.65
4538.56
4794.38
5052.89
5301.81
5509.79
5635.35
5635.46
5509.8
5300.91
5050.03
4788.44
4528.38
4275.07
4030.69
3798.03
3575.7
3369.29
3173.29
2997.9
2838.25
2704.93
2580.3
2464.99
2338.84
2128.22
9420.73
9129.39
2096.38
2316.16
2443.56
2551.19
2645.66
2756.89
2888.16
3044.13
3217.21
3408.48
3611.88
3829.15
4057.16
4295.09
4539.9
4786.5
5022.57
5217.89
5333.42
5333.53
5218.08
5022.4
4785.27
4536.78
4289.12
4047.34
3814.46
3591.22
3380.6
3180.92
2995.9
2828.4
2674.4
2548.84
2427.12
2314.09
2189.91
1994.04
8369.95
8126.66
1966.49
2164.9
2280.61
2383.44
2475.83
2589.38
2715.27
2869.71
3037.17
3221.18
3417.83
3626.43
3846.01
4074.58
4309.44
4545.1
4769.17
4952.37
5058.19
5058.28
4952.58
4769.33
4544.81
4308.14
4071.58
3840.52
3617.59
3404.85
3202.77
3013.34
2836.59
2676.05
2531.48
2408.86
2291.39
2181.56
2061.39
1879.34
7470.5
7108.27
1835.96
2014.13
2122.64
2223.68
2320.71
2434.36
2562.66
2710.8
2875.67
3053.51
3244.02
3445.46
3657.09
3877.28
4103.1
4328.87
4541.94
4713.72
4810.22
4810.27
4713.88
4542.19
4329.03
4102.83
3876.15
3654.54
3440.85
3236.77
3042.61
2861.24
2689.68
2538.39
2396.62
2278.66
2161.82
2053.12
1936.21
1767.27
6581.13
6220.26
1721.43
1881.59
1985.63
2087.87
2191.92
2306.56
2435.55
2581.29
2740.89
2913.3
3096.33
3289.48
3491.84
3702.21
3918.11
4133.91
4336.52
4497.58
4585.37
4585.39
4497.68
4336.73
4134.2
3918.32
3702.1
3491.07
3287.63
3092.98
2907.77
2733.24
2569.4
2421.94
2284.5
2167.22
2050.28
1941.69
1828.56
1672.32
5845.96
5356.92
1610.79
1754.52
1855.22
1957.67
2068.35
2183.05
2314.8
2456.7
2614.38
2782.1
2960.27
3147.11
3341.77
3543.08
3749.1
3954.97
4147.4
4298.14
4377.46
4377.46
4298.18
4147.54
3955.23
3749.44
3543.39
3341.89
3146.78
2959.23
2779.92
2611.01
2450.92
2307.93
2171.54
2054.91
1937.04
1829.45
1721.69
1578.98
5118.02
4725.17
1520.96
1646.9
1740.71
1841.28
1954.52
2069.21
2201.96
2340.93
2497.8
2663.22
2839.82
3024.42
3215.91
3411.95
3609.72
3804.38
3983.28
4121.27
4192.47
4192.46
4121.28
3983.35
3804.55
3610
3412.35
3216.37
3024.85
2840.07
2663.12
2497.26
2339.45
2199.99
2065.26
1949.58
1833.01
1729.06
1630.24
1503.55
4587.45
4181.85
1454.64
1560.16
1642.47
1735.37
1844.99
1956.09
2086.88
2222.6
2379.17
2544.71
2723.84
2912.41
3109.12
3310.34
3510.71
3701.61
3873.03
4000.81
4063.05
4063.05
4000.81
3873.06
3701.71
3510.92
3310.67
3109.56
2912.92
2724.35
2545.12
2379.38
2222.39
2086.33
1954.58
1842.87
1731.63
1636.72
1551.61
1445.6
4131.26
4049.55
1364.26
1454.36
1517.16
1594.69
1691.81
1790.55
1908.88
2030.63
2172.39
2322.29
2485.33
2657.9
2839.53
3027.07
3216.39
3400.38
3557.69
3666.17
3715.07
3715.06
3666.17
3557.69
3400.42
3216.51
3027.32
2839.9
2658.39
2485.92
2322.95
2173.03
2031.18
1909.32
1790.6
1691.6
1593.72
1515.11
1450.22
1359.13
4014.55
33617.2
4046.98
4189.27
4715.18
5284.15
6072.55
6865.27
7836.83
8812.56
9949.36
11097.8
12374.5
13655.6
15017.7
16365
17663.1
18777.4
19560
19938.9
20039.7
20039.7
19938.9
19560
18777.3
17663.1
16365
15017.8
13655.9
12375.1
11098.7
9950.66
8814.32
7838.99
6867.87
6075.56
5287.43
4718.61
4191.71
4048.9
33600.1
33617.2
4046.98
4189.27
4715.18
5284.15
6072.55
6865.27
7836.83
8812.56
9949.36
11097.8
12374.5
13655.6
15017.7
16365
17663.1
18777.4
19560
19938.9
20039.7
20039.7
19938.9
19560
18777.3
17663.1
16365
15017.8
13655.9
12375.1
11098.7
9950.66
8814.32
7838.99
6867.87
6075.56
5287.43
4718.61
4191.71
4048.9
33600.1
4049.55
1364.26
1454.36
1517.16
1594.69
1691.81
1790.55
1908.88
2030.63
2172.39
2322.29
2485.33
2657.9
2839.53
3027.07
3216.39
3400.38
3557.69
3666.17
3715.07
3715.06
3666.17
3557.69
3400.42
3216.51
3027.32
2839.9
2658.39
2485.92
2322.95
2173.03
2031.18
1909.32
1790.6
1691.6
1593.72
1515.11
1450.22
1359.13
4014.55
4181.85
1454.64
1560.16
1642.47
1735.37
1844.99
1956.09
2086.88
2222.6
2379.17
2544.71
2723.84
2912.41
3109.12
3310.34
3510.71
3701.61
3873.03
4000.81
4063.05
4063.05
4000.81
3873.06
3701.71
3510.92
3310.67
3109.56
2912.92
2724.35
2545.12
2379.38
2222.39
2086.33
1954.58
1842.87
1731.63
1636.72
1551.61
1445.6
4131.26
4725.17
1520.96
1646.9
1740.71
1841.28
1954.52
2069.21
2201.96
2340.93
2497.8
2663.22
2839.82
3024.42
3215.91
3411.95
3609.72
3804.38
3983.28
4121.27
4192.47
4192.46
4121.28
3983.35
3804.55
3610
3412.35
3216.37
3024.85
2840.07
2663.12
2497.26
2339.45
2199.99
2065.26
1949.58
1833.01
1729.06
1630.24
1503.55
4587.45
5356.92
1610.79
1754.52
1855.22
1957.67
2068.35
2183.05
2314.8
2456.7
2614.38
2782.1
2960.27
3147.11
3341.77
3543.08
3749.1
3954.97
4147.4
4298.14
4377.46
4377.46
4298.18
4147.54
3955.23
3749.44
3543.39
3341.89
3146.78
2959.23
2779.92
2611.01
2450.92
2307.93
2171.54
2054.91
1937.04
1829.45
1721.69
1578.98
5118.02
6220.26
1721.43
1881.59
1985.63
2087.87
2191.92
2306.56
2435.55
2581.29
2740.89
2913.3
3096.33
3289.48
3491.84
3702.21
3918.11
4133.91
4336.52
4497.58
4585.37
4585.39
4497.68
4336.73
4134.2
3918.32
3702.1
3491.07
3287.63
3092.98
2907.77
2733.24
2569.4
2421.94
2284.5
2167.22
2050.28
1941.69
1828.56
1672.32
5845.96
7108.27
1835.96
2014.13
2122.64
2223.68
2320.71
2434.36
2562.66
2710.8
2875.67
3053.51
3244.02
3445.46
3657.09
3877.28
4103.1
4328.87
4541.94
4713.72
4810.22
4810.27
4713.88
4542.19
4329.03
4102.83
3876.15
3654.54
3440.85
3236.77
3042.61
2861.24
2689.68
2538.39
2396.62
2278.66
2161.82
2053.12
1936.21
1767.27
6581.13
8126.66
1966.49
2164.9
2280.61
2383.44
2475.83
2589.38
2715.27
2869.71
3037.17
3221.18
3417.83
3626.43
3846.01
4074.58
4309.44
4545.1
4769.17
4952.37
5058.19
5058.28
4952.58
4769.33
4544.81
4308.14
4071.58
3840.52
3617.59
3404.85
3202.77
3013.34
2836.59
2676.05
2531.48
2408.86
2291.39
2181.56
2061.39
1879.34
7470.5
9129.39
2096.38
2316.16
2443.56
2551.19
2645.66
2756.89
2888.16
3044.13
3217.21
3408.48
3611.88
3829.15
4057.16
4295.09
4539.9
4786.5
5022.57
5217.89
5333.42
5333.53
5218.08
5022.4
4785.27
4536.78
4289.12
4047.34
3814.46
3591.22
3380.6
3180.92
2995.9
2828.4
2674.4
2548.84
2427.12
2314.09
2189.91
1994.04
8369.95
10221
2244.97
2488.57
2625.99
2740.99
2837.35
2949.59
3081.86
3240.55
3420.5
3615.6
3828.13
4052.91
4290.65
4538.56
4794.38
5052.89
5301.81
5509.79
5635.35
5635.46
5509.8
5300.91
5050.03
4788.44
4528.38
4275.07
4030.69
3798.03
3575.7
3369.29
3173.29
2997.9
2838.25
2704.93
2580.3
2464.99
2338.84
2128.22
9420.73
11264.2
2400.14
2669.24
2815.35
2940.89
3042.48
3156.81
3291.98
3454.41
3636.81
3841.26
4060.41
4295.66
4543.46
4802.73
5070.51
5341.83
5604.29
5825.31
5961.07
5961.11
5824.86
5602.08
5336.48
5060.67
4787.11
4520.76
4264.55
4019.19
3787.83
3567.87
3365.26
3178.98
3011.52
2872.15
2741.52
2622.63
2495.07
2269.14
10481.3
12351
2570.52
2868.08
3022.04
3156.14
3263.47
3381.13
3519.51
3682.6
3871.35
4080.27
4309.4
4554.24
4813.72
5085.14
5365.89
5650.83
5927.42
6161.75
6307.75
6307.62
6160.43
5923.2
5642.06
5351.11
5063
4782.9
4513.18
4256.02
4011.31
3782.52
3567.4
3373.36
3197.77
3049.55
2913.46
2791.68
2665.11
2423.35
11663.8
13360.9
2751.66
3079.82
3243.26
3385.85
3500.33
3621.44
3761.89
3927.17
4118.27
4334.49
4571.7
4827.72
5099.27
5383.93
5678.57
5978
6269.34
6517.25
6673.43
6672.98
6514.54
6262.35
5964.95
5658.01
5354.58
5059.75
4776.16
4505.23
4248.77
4006.88
3782.73
3577.55
3393.83
3236.45
3093.32
2968.09
2843.96
2586.58
12852
14230.3
2939.61
3304.57
3480.16
3630.97
3754.33
3878.4
4019.98
4185.28
4379.49
4600.95
4847.17
5114.16
5398.65
5697.36
6006.89
6321.75
6628.57
6890.42
7056.67
7055.73
6885.77
6618.11
6303.77
5980.11
5660.56
5350.32
5051.92
4767.13
4497.02
4243.39
4007.35
3792.43
3599.45
3432.09
3281.01
3151.75
3031.43
2759.13
14130.9
15170.3
3139.25
3543.24
3731.91
3890.78
4024.86
4150.95
4292.13
4456.64
4652.41
4879.19
5133.84
5412.19
5710.04
6023.6
6348.97
6680.24
7003.37
7279.61
7455.82
7454.22
7272.51
6988.92
6657.01
6315.92
5979.56
5653.19
5339.4
5039.86
4756.01
4489.2
4241.63
4015.84
3813.44
3635.75
3475.55
3340.79
3224.64
2938.56
15406.4
15567.8
3351.83
3799.34
3999.75
4165.31
4309.82
4436.02
4575.7
4738.26
4935.17
5166.67
5429.75
5719.55
6031.18
6360.21
6702.22
7050.79
7391.04
7682.2
7868.32
7865.92
7672.26
7372.34
7022.33
6663.21
6309.39
5966.27
5636.45
5321.66
5023.31
4743.03
4483.02
4246.15
4033.93
3845.84
3675.75
3533.16
3420.14
3121.86
16682.5
16134
3561.86
4073.23
4293.66
4459.95
4604.45
4728.26
4864.93
5025.17
5223.51
5459.92
5731.59
6033.14
6358.93
6703.9
7063.15
7429.69
7787.73
8094.29
8290.3
8286.99
8081.28
7764.73
7396.18
7018.51
6646.68
6286.23
5939.8
5609.17
5295.82
5001.44
4728.47
4479.92
4257.44
4059.14
3878.91
3725.64
3612.69
3303.02
17858.4
14819.4
3703.95
4352.82
4605.59
4780.41
4896.7
5015.25
5146.61
5307.31
5508.39
5750.4
6031.14
6344.78
6685.03
7046.22
7422.93
7807.7
8183.81
8506
8711.81
8707.56
8489.96
8156.78
7769.57
7373.11
6982.95
6604.78
6241.34
5894.45
5565.62
5256.66
4970.16
4709.33
4475.98
4267.49
4077.35
3911.34
3793.01
3472
18807.4
13564
3879.68
4686.02
4924
5076.19
5168.46
5276.86
5403.6
5568.52
5775.58
6026.29
6318.33
6645.79
7001.84
7380.22
7775.09
8178.6
8573.17
8911.24
9126.79
9121.64
8892.41
8542.69
8136.75
7721.24
7312.29
6915.83
6534.66
6170.67
5825.46
5500.89
5199.7
4925.26
4679.56
4459.76
4258.93
4079.02
3950.24
3612.62
19402.3
12292.5
4284.99
5033.29
5303.15
5328.26
5366
5457.42
5584.12
5755.45
5968.85
6228.64
6531.15
6871.14
7241.21
7634.59
8045.04
8464.31
8874.1
9225.08
9448.42
9442.58
9204.14
8841.15
8419.96
7988.71
7564.01
7151.93
6755.4
6376.37
6016.52
5677.8
5363.07
5075.85
4818.24
4587.5
4376.46
4185.43
4044.51
3692.39
19617.7
)
;

boundaryField
{
    inlet
    {
        type            fixedValue;
        value           uniform 10000;
    }
    outlet
    {
        type            fixedValue;
        value           uniform 1000;
    }
    obstacle
    {
        type            zeroGradient;
    }
    empty
    {
        type            empty;
    }
}


// ************************************************************************* //
