/*--------------------------------*- C++ -*----------------------------------*\
| =========                 |                                                 |
| \\      /  F ield         | OpenFOAM: The Open Source CFD Toolbox           |
|  \\    /   O peration     | Version:  v1912                                 |
|   \\  /    A nd           | Website:  www.openfoam.com                      |
|    \\/     M anipulation  |                                                 |
\*---------------------------------------------------------------------------*/
FoamFile
{
    version     2.0;
    format      ascii;
    class       volTensorField;
    location    "7.62";
    object      grad(U);
}
// * * * * * * * * * * * * * * * * * * * * * * * * * * * * * * * * * * * * * //

dimensions      [0 0 -1 0 0 0 0];


internalField   nonuniform List<tensor> 
1900
(
(-2.74174 -1.74966e-05 0 2.42008e-05 9.21468e-06 0 0 0 0)
(3.37067 1.12539e-05 0 8.12106e-06 -4.27786e-05 0 0 0 0)
(0.40921 -1.83307e-05 0 -5.34089e-05 4.61429e-06 0 0 0 0)
(-0.0136988 -0.000159428 0 -4.32795e-05 -0.000102233 0 0 0 0)
(-0.00449672 -0.000283809 0 -8.43339e-05 -0.000317888 0 0 0 0)
(-0.0160007 -0.000440411 0 -0.000453309 -0.000731659 0 0 0 0)
(-0.0120668 0.00103923 0 -0.00128448 -0.000761025 0 0 0 0)
(-0.00770191 0.0156529 0 -0.00101186 0.00166395 0 0 0 0)
(-0.0487301 0.0585012 0 0.00541877 0.0248864 0 0 0 0)
(-0.0312676 0.208394 0 0.0583106 0.112924 0 0 0 0)
(-2.7417 -1.60674e-05 0 2.8015e-05 3.02029e-06 0 0 0 0)
(3.37059 -1.58543e-05 0 1.33941e-05 1.44763e-05 0 0 0 0)
(0.409159 -4.11232e-05 0 -9.76928e-05 -8.2336e-06 0 0 0 0)
(-0.0137297 -0.000163075 0 -8.66971e-05 3.2807e-05 0 0 0 0)
(-0.00490675 -0.000345618 0 -0.000176454 0.000151194 0 0 0 0)
(-0.0172008 -2.72594e-06 0 -0.00075554 0.000316616 0 0 0 0)
(-0.0126254 0.00135637 0 -0.00172411 0.000591605 0 0 0 0)
(-0.00099865 0.00999453 0 -3.46589e-05 -0.000722618 0 0 0 0)
(0.0105923 0.0527589 0 0.0105189 -0.0150613 0 0 0 0)
(0.0924269 0.145502 0 0.0917311 -0.0592238 0 0 0 0)
(-2.74169 -1.83775e-13 0 1.72388e-13 -2.44699e-05 0 0 0 0)
(3.37054 6.33987e-14 0 3.55415e-14 5.66046e-05 0 0 0 0)
(0.40911 -2.67431e-14 0 -2.1806e-13 7.23861e-06 0 0 0 0)
(-0.0137775 -8.529e-14 0 -1.07065e-14 0.000138851 0 0 0 0)
(-0.00516557 7.2797e-14 0 -8.40257e-15 0.000333388 0 0 0 0)
(-0.0175483 2.58417e-13 0 2.88669e-14 0.000830088 0 0 0 0)
(-0.0113459 3.67604e-14 0 -1.3146e-14 0.00033884 0 0 0 0)
(0.00454106 -1.49808e-13 0 -5.1093e-14 -0.00188266 0 0 0 0)
(0.0430357 -7.68894e-14 0 1.06523e-13 -0.0196502 0 0 0 0)
(0.145041 -2.44625e-14 0 7.31836e-14 -0.1074 0 0 0 0)
(-2.7417 1.60674e-05 0 -2.8015e-05 3.02029e-06 0 0 0 0)
(3.37059 1.58543e-05 0 -1.33941e-05 1.44763e-05 0 0 0 0)
(0.409159 4.11232e-05 0 9.76928e-05 -8.2336e-06 0 0 0 0)
(-0.0137297 0.000163075 0 8.66971e-05 3.2807e-05 0 0 0 0)
(-0.00490675 0.000345618 0 0.000176454 0.000151194 0 0 0 0)
(-0.0172008 2.72594e-06 0 0.00075554 0.000316616 0 0 0 0)
(-0.0126254 -0.00135637 0 0.00172411 0.000591605 0 0 0 0)
(-0.00099865 -0.00999453 0 3.46589e-05 -0.000722618 0 0 0 0)
(0.0105923 -0.0527589 0 -0.0105189 -0.0150613 0 0 0 0)
(0.0924269 -0.145502 0 -0.0917311 -0.0592238 0 0 0 0)
(-2.74174 1.74966e-05 0 -2.42008e-05 9.21468e-06 0 0 0 0)
(3.37067 -1.12539e-05 0 -8.12106e-06 -4.27786e-05 0 0 0 0)
(0.40921 1.83307e-05 0 5.34089e-05 4.61429e-06 0 0 0 0)
(-0.0136988 0.000159428 0 4.32795e-05 -0.000102233 0 0 0 0)
(-0.00449672 0.000283809 0 8.43339e-05 -0.000317888 0 0 0 0)
(-0.0160007 0.000440411 0 0.000453309 -0.000731659 0 0 0 0)
(-0.0120668 -0.00103923 0 0.00128448 -0.000761025 0 0 0 0)
(-0.00770191 -0.0156529 0 0.00101186 0.00166395 0 0 0 0)
(-0.0487301 -0.0585012 0 -0.00541877 0.0248864 0 0 0 0)
(-0.0312676 -0.208394 0 -0.0583106 0.112924 0 0 0 0)
(0.17113 0.416944 -2.09063e-17 0.239975 -0.233395 3.13595e-17 5.75744e-17 7.39248e-17 -5.66667e-33)
(0.512615 0.56645 0 0.289546 -0.457264 0 -1.5883e-16 -4.71323e-17 0)
(0.801301 0.972126 0 0.289291 -0.785845 0 -2.59569e-16 -8.46198e-17 0)
(1.49538 1.5886 0 0.339548 -1.43826 0 0 0 0)
(2.79723 1.84411 2.69109e-16 1.1337 -3.50003 -4.03663e-16 -2.27729e-15 -1.51819e-15 -7.2942e-32)
(0.23719 0.161586 0 0.181501 -0.205632 0 1.00938e-16 3.17502e-17 0)
(0.426104 0.170271 0 0.142941 -0.336022 0 1.5883e-16 4.71323e-17 0)
(0.754061 0.415906 0 0.0572021 -0.62304 0 2.59569e-16 8.46198e-17 0)
(1.68311 0.863862 0 -0.0652619 -1.32175 0 0 0 0)
(3.70163 0.577603 0 -0.174831 -3.08392 0 0 0 0)
(0.291442 -1.15945e-13 0 1.4019e-13 -0.291561 0 0 0 0)
(0.448256 1.86663e-13 0 5.61717e-14 -0.371282 0 0 0 0)
(0.748271 1.83536e-13 0 2.59004e-13 -0.627072 0 0 0 0)
(1.59177 -1.58738e-13 0 9.34303e-14 -1.34824 0 0 0 0)
(3.46041 7.42089e-14 0 2.08128e-13 -3.63554 0 0 0 0)
(0.23719 -0.161586 0 -0.181501 -0.205632 0 1.00938e-16 -3.17502e-17 0)
(0.426104 -0.170271 0 -0.142941 -0.336022 0 1.5883e-16 -4.71323e-17 0)
(0.754061 -0.415906 0 -0.0572021 -0.62304 0 2.59569e-16 -8.46198e-17 0)
(1.68311 -0.863862 0 0.0652619 -1.32175 0 0 0 0)
(3.70163 -0.577603 0 0.174831 -3.08392 0 0 0 0)
(0.17113 -0.416944 2.09063e-17 -0.239975 -0.233395 3.13595e-17 -2.5945e-16 1.37425e-16 -5.66667e-33)
(0.512615 -0.56645 0 -0.289546 -0.457264 0 -1.5883e-16 4.71323e-17 0)
(0.801301 -0.972126 0 -0.289291 -0.785845 0 -2.59569e-16 8.46198e-17 0)
(1.49538 -1.5886 9.52443e-17 -0.339548 -1.43826 1.42866e-16 -9.30822e-16 6.20548e-16 -2.5816e-32)
(2.79723 -1.84411 -2.69109e-16 -1.1337 -3.50003 -4.03663e-16 2.27729e-15 -1.51819e-15 -7.2942e-32)
(4.22284 -0.782231 -1.85023e-17 0.0204054 4.45916 -1.66521e-16 2.27498e-15 -1.18412e-16 5.01507e-33)
(2.32117 -0.30807 9.02776e-18 0.541223 2.76768 8.12499e-17 -2.55812e-15 1.9907e-16 2.44698e-33)
(1.38061 0.00207601 0 0.730104 2.26043 0 0 0 0)
(1.03741 0.0778118 -5.37215e-18 0.66707 2.11747 -4.83494e-17 2.39389e-15 -1.99984e-16 1.45612e-33)
(0.738328 0.481657 4.51929e-18 0.482664 1.72451 4.06736e-17 -1.13342e-15 1.25935e-16 1.22496e-33)
(4.34379 -0.948055 0 -0.679692 -0.666859 0 -1.1378e-15 -7.94143e-18 0)
(2.60369 -0.199976 0 0.317474 0.995495 0 1.28721e-15 -5.78584e-17 0)
(1.46659 -0.0115372 0 0.445233 1.39046 0 0 0 0)
(0.978518 -0.0612053 0 0.362196 1.38674 0 -1.51146e-15 7.46919e-17 0)
(0.576098 0.193276 0 0.168974 1.41552 0 2.88261e-16 -7.84201e-18 0)
(4.34486 1.98122e-14 0 1.14991e-13 0.806341 0 0 0 0)
(2.57944 -1.46557e-14 0 2.03867e-13 1.85129 0 0 0 0)
(1.36136 -1.378e-14 0 5.62179e-14 1.97529 0 0 0 0)
(0.900207 3.08364e-14 0 9.9208e-14 1.74934 0 6.08949e-16 9.13505e-31 0)
(0.565093 -9.2401e-14 0 -1.7119e-13 2.0831 0 -5.76522e-16 -2.13514e-30 0)
(4.34379 0.948055 0 0.679692 -0.666859 0 -1.1378e-15 7.94143e-18 0)
(2.60369 0.199976 0 -0.317474 0.995495 0 1.28721e-15 5.78584e-17 0)
(1.46659 0.0115372 0 -0.445233 1.39046 0 0 0 0)
(0.978518 0.0612053 0 -0.362196 1.38674 0 -1.51146e-15 -7.46919e-17 0)
(0.576098 -0.193276 0 -0.168974 1.41552 0 2.88261e-16 7.84201e-18 0)
(4.22284 0.782231 0 -0.0204054 4.45916 0 1.1378e-15 -7.94143e-18 0)
(2.32117 0.30807 -9.02776e-18 -0.541223 2.76768 8.12499e-17 -1.62999e-17 8.33536e-17 2.44698e-33)
(1.38061 -0.00207601 0 -0.730104 2.26043 0 0 0 0)
(1.03741 -0.0778118 5.37215e-18 -0.66707 2.11747 -4.83494e-17 2.009e-17 -6.37714e-17 1.45612e-33)
(0.738328 -0.481657 -4.51929e-18 -0.482664 1.72451 4.06736e-17 1.13342e-15 1.25935e-16 1.22496e-33)
(0.347791 0.540897 0 -0.349718 -0.304549 0 0 0 0)
(0.194816 0.123803 0 -0.652715 -0.188171 0 0 0 0)
(0.107743 -0.125794 0 -0.641985 0.116453 0 0 0 0)
(0.116235 -0.113709 0 -0.592729 0.211377 0 0 0 0)
(0.188097 -0.132084 0 -0.484042 0.154541 0 0 0 0)
(0.257292 0.0172871 0 -0.306271 0.268916 0 0 0 0)
(0.0883345 0.180145 0 -0.0565953 0.0530503 0 0 0 0)
(-0.702914 0.119839 0 0.0636356 -0.141343 0 0 0 0)
(-1.61007 -0.054865 0 0.5616 0.075387 0 0 0 0)
(-1.04257 -0.145004 0 0.20309 0.136992 0 0 0 0)
(-0.223029 -0.113082 0 0.14258 0.358586 0 0 0 0)
(-0.432341 -0.147359 0 0.07889 0.604905 0 0 0 0)
(-0.70355 -0.11235 0 0.0736807 0.865197 0 0 0 0)
(-0.834098 -0.0114442 0 0.079064 0.974495 0 0 0 0)
(-0.833431 0.0755518 0 0.112063 0.877256 0 0 0 0)
(-0.753949 0.0955464 0 0.154834 0.703472 0 0 0 0)
(-0.660902 0.0848202 0 0.122046 0.494085 0 0 0 0)
(-0.65908 0.0660913 0 0.100456 0.378305 0 0 0 0)
(-0.800746 0.0482554 0 0.0848197 0.303591 0 0 0 0)
(-0.882417 0.0365723 0 0.0595791 0.230704 0 0 0 0)
(-0.593562 0.0209636 0 0.0244484 0.171056 0 0 0 0)
(-0.182142 0.00676457 0 0.00537975 0.150797 0 0 0 0)
(-0.00774168 0.00231328 0 0.00291031 0.145818 0 0 0 0)
(0.0215329 0.00203149 0 0.00307332 0.142545 0 0 0 0)
(0.0301216 0.00172663 0 0.00217705 0.139464 0 0 0 0)
(0.0464012 0.000630198 0 0.00159493 0.137341 0 0 0 0)
(0.07187 0.000211307 0 0.00136927 0.137384 0 0 0 0)
(0.0914985 -0.000349119 0 0.00155266 0.136293 0 0 0 0)
(0.0985583 -0.000263943 0 0.00177365 0.138394 0 0 0 0)
(0.103004 -0.000701678 0 0.00201542 0.137196 0 0 0 0)
(0.0804033 -0.000468688 0 0.00228771 0.140787 0 0 0 0)
(-0.105327 -0.000336274 0 0.00256082 0.139094 0 0 0 0)
(-0.70611 -0.000895778 0 0.00368437 0.142462 0 0 0 0)
(-1.02041 -0.000428647 0 0.00378902 0.143371 0 0 0 0)
(-0.608724 -0.000325089 0 0.00583123 0.145216 0 0 0 0)
(-0.21919 -0.00026791 0 0.00983125 0.144351 0 0 0 0)
(-0.120078 -0.00427108 0 0.0146108 0.147425 0 0 0 0)
(-0.132695 -0.0170948 0 0.0113561 0.15092 0 0 0 0)
(-0.177506 -0.00041508 0 -0.0230318 0.18772 0 0 0 0)
(-0.107048 0.0128152 0 -0.0431281 0.154326 0 0 0 0)
(0.118196 0.367058 0 -0.0140325 0.312898 0 0 0 0)
(0.0635474 0.150306 0 -0.490685 -0.290431 0 0 0 0)
(0.10417 -0.00977773 0 -0.57958 -0.112673 0 0 0 0)
(0.12237 -0.111767 0 -0.614818 0.141987 0 0 0 0)
(0.229744 -0.158258 0 -0.583318 0.278201 0 0 0 0)
(0.306797 -0.0251665 0 -0.404029 0.596027 0 0 0 0)
(0.109401 0.112822 0 -0.35234 0.218777 0 0 0 0)
(-0.629339 0.13389 0 -0.349574 -0.0232219 0 0 0 0)
(-1.52937 -0.0127156 0 -0.0890312 -0.19317 0 0 0 0)
(-1.05711 -0.10264 0 0.0448499 0.165376 0 0 0 0)
(-0.268658 -0.0474189 0 -0.0252115 0.305282 0 0 0 0)
(-0.465189 -0.0711332 0 -0.0705513 0.554097 0 0 0 0)
(-0.704685 -0.0539922 0 -0.0584006 0.811827 0 0 0 0)
(-0.791801 -0.00504519 0 0.034448 0.9403 0 0 0 0)
(-0.764519 0.0380762 0 0.184511 0.851167 0 0 0 0)
(-0.721019 0.0357331 0 0.304685 0.68059 0 0 0 0)
(-0.673357 0.0339298 0 0.25585 0.522726 0 0 0 0)
(-0.677319 0.0415499 0 0.0979628 0.389021 0 0 0 0)
(-0.819281 0.0300792 0 0.0341107 0.295537 0 0 0 0)
(-0.900689 0.0184303 0 0.0238967 0.223143 0 0 0 0)
(-0.603604 0.00932064 0 0.0118196 0.16982 0 0 0 0)
(-0.184116 0.00318519 0 0.00299053 0.151081 0 0 0 0)
(-0.00771105 0.00114576 0 0.00181248 0.146567 0 0 0 0)
(0.0215228 0.00102242 0 0.00209427 0.143129 0 0 0 0)
(0.0300548 0.000884558 0 0.00139548 0.139584 0 0 0 0)
(0.0465116 0.00032548 0 0.00121977 0.137193 0 0 0 0)
(0.0720319 9.03491e-05 0 0.00144665 0.137417 0 0 0 0)
(0.0916721 -0.000181804 0 0.00180515 0.136467 0 0 0 0)
(0.0987377 -0.000129493 0 0.00214281 0.138617 0 0 0 0)
(0.103197 -0.000346292 0 0.00250051 0.137374 0 0 0 0)
(0.0806209 -0.00022053 0 0.00292227 0.141029 0 0 0 0)
(-0.104921 -0.000142529 0 0.00344385 0.138985 0 0 0 0)
(-0.70542 -0.000364272 0 0.00473066 0.142185 0 0 0 0)
(-1.01928 -0.000115751 0 0.00646245 0.142065 0 0 0 0)
(-0.607049 -0.000115847 0 0.0102769 0.143659 0 0 0 0)
(-0.217051 -0.000209218 0 0.0162668 0.143182 0 0 0 0)
(-0.119953 -0.0025179 0 0.0241587 0.14458 0 0 0 0)
(-0.139349 -0.00896404 0 0.0237055 0.157864 0 0 0 0)
(-0.185931 2.75184e-05 0 0.00402419 0.203343 0 0 0 0)
(-0.10988 0.00677087 0 -0.00687742 0.159291 0 0 0 0)
(0.147317 2.42832e-14 0 1.81357e-13 0.609734 0 0 0 0)
(0.0302932 9.48641e-14 0 6.07153e-13 -0.247139 0 0 0 0)
(0.071632 -3.82075e-13 0 4.88877e-13 -0.423621 0 0 0 0)
(0.115148 -3.71305e-13 0 5.51957e-13 -0.179918 0 0 0 0)
(0.249417 -3.52236e-13 0 6.46579e-13 0.34478 0 0 0 0)
(0.324486 1.98604e-13 0 6.93889e-13 0.908106 0 0 0 0)
(0.104176 8.43193e-13 0 -2.52323e-13 0.5178 0 0 0 0)
(-0.626315 6.9731e-13 0 -4.49451e-13 0.132456 0 0 0 0)
(-1.49533 1.44486e-12 0 6.27654e-12 -0.402695 0 0 0 0)
(-1.02401 -9.08738e-14 0 2.89383e-12 0.219876 0 0 0 0)
(-0.2566 -3.28888e-12 0 -3.61926e-12 0.302957 0 0 0 0)
(-0.441996 -3.17185e-14 0 -9.56069e-12 0.545881 0 0 0 0)
(-0.673005 5.10749e-12 0 -1.32076e-11 0.791998 0 0 0 0)
(-0.763433 2.1142e-12 0 -9.35568e-12 0.917078 0 0 0 0)
(-0.754816 -2.60129e-12 0 -4.1318e-12 0.826683 0 0 0 0)
(-0.733196 -2.19924e-12 0 -1.02506e-12 0.655304 0 0 0 0)
(-0.721039 1.06977e-14 0 9.45227e-12 0.581018 0 0 0 0)
(-0.723586 -1.29535e-12 0 2.95849e-11 0.422036 0 0 0 0)
(-0.822293 -5.26563e-12 0 4.03205e-11 0.295362 0 0 0 0)
(-0.888901 -1.13449e-12 0 2.02066e-11 0.215242 0 0 0 0)
(-0.599644 5.22886e-12 0 -1.53503e-11 0.168654 0 0 0 0)
(-0.185053 3.2936e-12 0 -2.76787e-11 0.151163 0 0 0 0)
(-0.00800241 2.77908e-12 0 -1.30922e-11 0.146756 0 0 0 0)
(0.0214116 9.25429e-13 0 3.72177e-12 0.143285 0 0 0 0)
(0.0298672 -3.30009e-12 0 1.81047e-11 0.139726 0 0 0 0)
(0.0464161 -2.95684e-12 0 2.16155e-11 0.137204 0 0 0 0)
(0.0720403 -3.27037e-12 0 6.12426e-12 0.137489 0 0 0 0)
(0.091701 -1.32049e-13 0 -2.24834e-11 0.136583 0 0 0 0)
(0.0987605 4.28855e-12 0 -4.58396e-11 0.138739 0 0 0 0)
(0.103231 -2.29268e-14 0 -5.21363e-11 0.137473 0 0 0 0)
(0.0806777 -1.58581e-12 0 -4.9415e-11 0.141119 0 0 0 0)
(-0.104801 2.29129e-12 0 -4.59268e-11 0.138989 0 0 0 0)
(-0.705232 1.98e-12 0 -2.98594e-11 0.142099 0 0 0 0)
(-1.01879 -1.96634e-12 0 3.1469e-12 0.141494 0 0 0 0)
(-0.605872 -1.95121e-12 0 8.99099e-12 0.142895 0 0 0 0)
(-0.215151 2.64588e-12 0 -4.51028e-12 0.14229 0 0 0 0)
(-0.117914 6.38849e-13 0 -4.63891e-12 0.144334 0 0 0 0)
(-0.138552 -4.20802e-12 0 4.92721e-12 0.159601 0 0 0 0)
(-0.186403 -9.22784e-13 0 7.58153e-12 0.205961 0 0 0 0)
(-0.110219 1.67749e-12 0 4.71135e-12 0.159412 0 0 0 0)
(0.118196 -0.367058 0 0.0140325 0.312898 0 0 0 0)
(0.0635474 -0.150306 0 0.490685 -0.290431 0 0 0 0)
(0.10417 0.00977773 0 0.57958 -0.112673 0 0 0 0)
(0.12237 0.111767 0 0.614818 0.141987 0 0 0 0)
(0.229744 0.158258 0 0.583318 0.278201 0 0 0 0)
(0.306797 0.0251665 0 0.404029 0.596027 0 0 0 0)
(0.109401 -0.112822 0 0.35234 0.218777 0 0 0 0)
(-0.629339 -0.13389 0 0.349574 -0.0232219 0 0 0 0)
(-1.52937 0.0127156 0 0.0890312 -0.19317 0 0 0 0)
(-1.05711 0.10264 0 -0.0448499 0.165376 0 0 0 0)
(-0.268658 0.0474189 0 0.0252115 0.305282 0 0 0 0)
(-0.465189 0.0711332 0 0.0705513 0.554097 0 0 0 0)
(-0.704685 0.0539922 0 0.0584006 0.811827 0 0 0 0)
(-0.791801 0.00504519 0 -0.034448 0.9403 0 0 0 0)
(-0.764519 -0.0380762 0 -0.184511 0.851167 0 0 0 0)
(-0.721019 -0.0357331 0 -0.304685 0.68059 0 0 0 0)
(-0.673357 -0.0339298 0 -0.25585 0.522726 0 0 0 0)
(-0.677319 -0.0415499 0 -0.0979628 0.389021 0 0 0 0)
(-0.819281 -0.0300792 0 -0.0341107 0.295537 0 0 0 0)
(-0.900689 -0.0184303 0 -0.0238967 0.223143 0 0 0 0)
(-0.603604 -0.00932064 0 -0.0118196 0.16982 0 0 0 0)
(-0.184116 -0.00318519 0 -0.00299053 0.151081 0 0 0 0)
(-0.00771105 -0.00114576 0 -0.00181248 0.146567 0 0 0 0)
(0.0215228 -0.00102242 0 -0.00209427 0.143129 0 0 0 0)
(0.0300548 -0.000884558 0 -0.00139548 0.139584 0 0 0 0)
(0.0465116 -0.00032548 0 -0.00121977 0.137193 0 0 0 0)
(0.0720319 -9.03492e-05 0 -0.00144665 0.137417 0 0 0 0)
(0.0916721 0.000181804 0 -0.00180515 0.136467 0 0 0 0)
(0.0987377 0.000129493 0 -0.00214281 0.138617 0 0 0 0)
(0.103197 0.000346292 0 -0.00250051 0.137374 0 0 0 0)
(0.0806209 0.00022053 0 -0.00292227 0.141029 0 0 0 0)
(-0.104921 0.000142529 0 -0.00344385 0.138985 0 0 0 0)
(-0.70542 0.000364272 0 -0.00473066 0.142185 0 0 0 0)
(-1.01928 0.000115751 0 -0.00646245 0.142065 0 0 0 0)
(-0.607049 0.000115847 0 -0.0102769 0.143659 0 0 0 0)
(-0.217051 0.000209218 0 -0.0162668 0.143182 0 0 0 0)
(-0.119953 0.0025179 0 -0.0241587 0.14458 0 0 0 0)
(-0.139349 0.00896404 0 -0.0237055 0.157864 0 0 0 0)
(-0.185931 -2.75184e-05 0 -0.00402419 0.203343 0 0 0 0)
(-0.10988 -0.00677087 0 0.00687742 0.159291 0 0 0 0)
(0.347791 -0.540897 0 0.349718 -0.304549 0 0 0 0)
(0.194816 -0.123803 0 0.652715 -0.188171 0 0 0 0)
(0.107743 0.125794 0 0.641985 0.116453 0 0 0 0)
(0.116235 0.113709 0 0.592729 0.211377 0 0 0 0)
(0.188097 0.132084 0 0.484042 0.154541 0 0 0 0)
(0.257292 -0.0172871 0 0.306271 0.268916 0 0 0 0)
(0.0883345 -0.180145 0 0.0565953 0.0530503 0 0 0 0)
(-0.702914 -0.119839 0 -0.0636356 -0.141343 0 0 0 0)
(-1.61007 0.054865 0 -0.5616 0.075387 0 0 0 0)
(-1.04257 0.145004 0 -0.20309 0.136992 0 0 0 0)
(-0.223029 0.113082 0 -0.14258 0.358586 0 0 0 0)
(-0.432341 0.147359 0 -0.07889 0.604905 0 0 0 0)
(-0.70355 0.11235 0 -0.0736807 0.865197 0 0 0 0)
(-0.834098 0.0114442 0 -0.079064 0.974495 0 0 0 0)
(-0.833431 -0.0755518 0 -0.112063 0.877256 0 0 0 0)
(-0.753949 -0.0955464 0 -0.154834 0.703472 0 0 0 0)
(-0.660902 -0.0848202 0 -0.122046 0.494085 0 0 0 0)
(-0.65908 -0.0660913 0 -0.100456 0.378305 0 0 0 0)
(-0.800746 -0.0482554 0 -0.0848197 0.303591 0 0 0 0)
(-0.882417 -0.0365723 0 -0.0595791 0.230704 0 0 0 0)
(-0.593562 -0.0209636 0 -0.0244484 0.171056 0 0 0 0)
(-0.182142 -0.00676457 0 -0.00537975 0.150797 0 0 0 0)
(-0.00774168 -0.00231328 0 -0.00291031 0.145818 0 0 0 0)
(0.0215329 -0.00203149 0 -0.00307332 0.142545 0 0 0 0)
(0.0301216 -0.00172663 0 -0.00217705 0.139464 0 0 0 0)
(0.0464012 -0.000630198 0 -0.00159493 0.137341 0 0 0 0)
(0.07187 -0.000211307 0 -0.00136927 0.137384 0 0 0 0)
(0.0914985 0.000349119 0 -0.00155266 0.136293 0 0 0 0)
(0.0985583 0.000263943 0 -0.00177365 0.138394 0 0 0 0)
(0.103004 0.000701678 0 -0.00201542 0.137196 0 0 0 0)
(0.0804033 0.000468688 0 -0.00228771 0.140787 0 0 0 0)
(-0.105327 0.000336274 0 -0.00256082 0.139094 0 0 0 0)
(-0.70611 0.000895778 0 -0.00368437 0.142462 0 0 0 0)
(-1.02041 0.000428647 0 -0.00378902 0.143371 0 0 0 0)
(-0.608724 0.000325089 0 -0.00583123 0.145216 0 0 0 0)
(-0.21919 0.00026791 0 -0.00983125 0.144351 0 0 0 0)
(-0.120078 0.00427108 0 -0.0146108 0.147425 0 0 0 0)
(-0.132695 0.0170948 0 -0.0113561 0.15092 0 0 0 0)
(-0.177506 0.00041508 0 0.0230318 0.18772 0 0 0 0)
(-0.107048 -0.0128152 0 0.0431281 0.154326 0 0 0 0)
(0.0389253 0.00719235 0 0.435491 0.232573 0 0 0 0)
(0.0950992 0.0831323 0 0.259595 0.447369 0 0 0 0)
(0.0624118 0.126259 0 0.213153 0.437884 0 0 0 0)
(0.0303897 0.133414 0 0.118096 0.297582 0 0 0 0)
(0.0982112 0.224614 0 0.00581723 0.294816 0 0 0 0)
(0.0959102 0.0105912 0 -0.144994 0.372856 0 0 0 0)
(-0.0982733 -0.292323 0 -0.496897 0.279172 0 0 0 0)
(-0.932045 -0.136126 0 -0.753894 0.117813 0 0 0 0)
(-1.52354 0.138572 0 -1.05978 0.162202 0 0 0 0)
(-0.811072 0.2313 0 -0.365513 0.110996 0 0 0 0)
(-0.243509 0.265005 0 -0.438251 0.295986 0 0 0 0)
(-0.459952 0.300781 0 -0.511017 0.578341 0 0 0 0)
(-0.706106 0.21835 0 -0.574904 0.839256 0 0 0 0)
(-0.766971 0.00521108 0 -0.509472 0.892857 0 0 0 0)
(-0.732369 -0.164751 0 -0.344459 0.793927 0 0 0 0)
(-0.689205 -0.206927 0 -0.185605 0.638253 0 0 0 0)
(-0.653648 -0.179056 0 -0.108193 0.488672 0 0 0 0)
(-0.675058 -0.132666 0 -0.0870838 0.383599 0 0 0 0)
(-0.81507 -0.101649 0 -0.0851516 0.300655 0 0 0 0)
(-0.883948 -0.0805894 0 -0.0849458 0.221902 0 0 0 0)
(-0.581218 -0.0459819 0 -0.046406 0.167392 0 0 0 0)
(-0.172889 -0.0148773 0 -0.0105584 0.149635 0 0 0 0)
(-0.00622888 -0.0049719 0 -0.00450732 0.144574 0 0 0 0)
(0.021971 -0.00384155 0 -0.00420104 0.141728 0 0 0 0)
(0.0309049 -0.00317564 0 -0.00298673 0.139298 0 0 0 0)
(0.0471459 -0.00127782 0 -0.000909133 0.137393 0 0 0 0)
(0.0722456 -0.000607552 0 0.000653902 0.137376 0 0 0 0)
(0.0916193 0.000621737 0 0.00105288 0.136132 0 0 0 0)
(0.0986548 0.000540297 0 0.00124751 0.138104 0 0 0 0)
(0.103098 0.00143628 0 0.00145185 0.136928 0 0 0 0)
(0.0805304 0.00112399 0 0.00168479 0.140299 0 0 0 0)
(-0.105328 0.000969526 0 0.00205061 0.139066 0 0 0 0)
(-0.705393 0.0024326 0 0.00203081 0.142265 0 0 0 0)
(-1.01933 0.00148174 0 0.00529174 0.143655 0 0 0 0)
(-0.608903 0.000488659 0 0.00703512 0.145249 0 0 0 0)
(-0.220086 0.00152687 0 0.00503715 0.142598 0 0 0 0)
(-0.120765 0.00461141 0 0.00502776 0.151471 0 0 0 0)
(-0.12343 0.0248385 0 0.000520764 0.142419 0 0 0 0)
(-0.161496 0.00159706 0 0.0213622 0.168211 0 0 0 0)
(-0.100549 -0.0207293 0 0.0340306 0.150817 0 0 0 0)
(0.0199681 -0.0665024 0 -0.0581984 0.878693 0 0 0 0)
(0.0340352 -0.0369232 0 -0.119194 0.865555 0 0 0 0)
(-0.00430151 -0.0187943 0 -0.194431 0.823229 0 0 0 0)
(-0.0375285 -0.0347231 0 -0.193559 0.742817 0 0 0 0)
(-0.0172279 0.155003 0 -0.16705 0.601371 0 0 0 0)
(-0.140603 -0.0473117 0 -0.282726 0.422563 0 0 0 0)
(-0.398358 -0.36576 0 -0.545943 0.326189 0 0 0 0)
(-1.12246 -0.223822 0 -0.794593 0.348903 0 0 0 0)
(-1.28221 0.00340972 0 -0.665284 0.286267 0 0 0 0)
(-0.567788 0.22765 0 -0.297607 0.276695 0 0 0 0)
(-0.352259 0.481967 0 -0.554018 0.388715 0 0 0 0)
(-0.549218 0.588603 0 -0.780504 0.6569 0 0 0 0)
(-0.70069 0.358588 0 -0.851722 0.786496 0 0 0 0)
(-0.648028 -0.0288938 0 -0.726661 0.706229 0 0 0 0)
(-0.575533 -0.273066 0 -0.544585 0.600221 0 0 0 0)
(-0.560992 -0.329976 0 -0.388716 0.495431 0 0 0 0)
(-0.569853 -0.279681 0 -0.27799 0.409182 0 0 0 0)
(-0.628309 -0.211571 0 -0.20609 0.339793 0 0 0 0)
(-0.791005 -0.175442 0 -0.175851 0.269485 0 0 0 0)
(-0.844259 -0.141386 0 -0.150872 0.199418 0 0 0 0)
(-0.5285 -0.077187 0 -0.0704614 0.158383 0 0 0 0)
(-0.146729 -0.024402 0 -0.0159117 0.146976 0 0 0 0)
(-0.00242671 -0.00850678 0 -0.00701335 0.142721 0 0 0 0)
(0.0227633 -0.00614534 0 -0.00656875 0.140197 0 0 0 0)
(0.0328738 -0.0051272 0 -0.00492819 0.13812 0 0 0 0)
(0.0495101 -0.00213551 0 -0.00178726 0.136452 0 0 0 0)
(0.0735593 -0.00121357 0 0.000844126 0.136583 0 0 0 0)
(0.0920058 0.00090442 0 0.00167774 0.135233 0 0 0 0)
(0.0988909 0.000881926 0 0.0019873 0.137004 0 0 0 0)
(0.103375 0.00242366 0 0.00229079 0.135905 0 0 0 0)
(0.0809121 0.00217801 0 0.00263962 0.138902 0 0 0 0)
(-0.104994 0.00189096 0 0.00314677 0.13818 0 0 0 0)
(-0.703371 0.00449392 0 0.0034563 0.14079 0 0 0 0)
(-1.01616 0.00273893 0 0.00805209 0.142102 0 0 0 0)
(-0.608873 -0.000781597 0 0.0110606 0.143201 0 0 0 0)
(-0.220644 0.0055894 0 0.0080211 0.138705 0 0 0 0)
(-0.124061 0.00391636 0 0.00974702 0.153614 0 0 0 0)
(-0.121922 0.0290728 0 0.000586938 0.137996 0 0 0 0)
(-0.153799 0.00787431 0 0.00755789 0.155593 0 0 0 0)
(-0.0983245 -0.025332 0 0.0115083 0.149742 0 0 0 0)
(-0.0198525 -0.00546759 0 -0.358469 0.529228 0 0 0 0)
(-0.0361792 0.0296855 0 -0.366704 0.590404 0 0 0 0)
(-0.00924893 0.00798423 0 -0.367531 0.617896 0 0 0 0)
(0.0567751 -0.0803766 0 -0.314872 0.667428 0 0 0 0)
(0.0122864 -0.0839945 0 -0.221751 0.587982 0 0 0 0)
(-0.269205 -0.254584 0 -0.433681 0.373839 0 0 0 0)
(-0.591527 -0.363304 0 -0.497506 0.39649 0 0 0 0)
(-1.04705 -0.174596 0 -0.628272 0.387027 0 0 0 0)
(-1.04462 0.0689889 0 -0.325323 0.452332 0 0 0 0)
(-0.703852 0.330022 0 -0.384258 0.535605 0 0 0 0)
(-0.708846 0.631384 0 -0.693517 0.741814 0 0 0 0)
(-0.74683 0.684097 0 -0.952871 0.887117 0 0 0 0)
(-0.654222 0.265885 0 -0.930433 0.709018 0 0 0 0)
(-0.471003 -0.17429 0 -0.746508 0.520437 0 0 0 0)
(-0.406712 -0.367883 0 -0.573513 0.418313 0 0 0 0)
(-0.432305 -0.391019 0 -0.437971 0.363925 0 0 0 0)
(-0.477663 -0.329035 0 -0.331327 0.3278 0 0 0 0)
(-0.576632 -0.267283 0 -0.261667 0.284256 0 0 0 0)
(-0.761859 -0.236919 0 -0.237151 0.226165 0 0 0 0)
(-0.782391 -0.187652 0 -0.197802 0.17086 0 0 0 0)
(-0.451165 -0.0965169 0 -0.0834415 0.148594 0 0 0 0)
(-0.111748 -0.0299692 0 -0.0194112 0.143858 0 0 0 0)
(0.00277432 -0.0115044 0 -0.0094088 0.140572 0 0 0 0)
(0.0239803 -0.00827591 0 -0.00889116 0.138024 0 0 0 0)
(0.0355125 -0.00678455 0 -0.00670873 0.136189 0 0 0 0)
(0.0527083 -0.00275893 0 -0.00299191 0.134813 0 0 0 0)
(0.0755846 -0.00178167 0 0.000304671 0.135147 0 0 0 0)
(0.0927209 0.00102739 0 0.00150204 0.133754 0 0 0 0)
(0.0992456 0.00118744 0 0.00189256 0.13531 0 0 0 0)
(0.103726 0.00326583 0 0.00224019 0.134364 0 0 0 0)
(0.0813553 0.00331647 0 0.0026089 0.136864 0 0 0 0)
(-0.104541 0.00278828 0 0.00306515 0.136711 0 0 0 0)
(-0.700666 0.00621248 0 0.0033456 0.138729 0 0 0 0)
(-1.01201 0.00380563 0 0.00808985 0.1402 0 0 0 0)
(-0.608933 -0.0027851 0 0.010602 0.141781 0 0 0 0)
(-0.221351 0.0115605 0 0.00602156 0.137421 0 0 0 0)
(-0.127929 0.00392816 0 0.00809871 0.15402 0 0 0 0)
(-0.12554 0.0267456 0 -0.000785209 0.138425 0 0 0 0)
(-0.150972 0.0129154 0 0.00094131 0.148018 0 0 0 0)
(-0.0967426 -0.0263676 0 0.00381744 0.146697 0 0 0 0)
(0.0120323 -0.00755063 0 -0.58695 0.455193 0 0 0 0)
(0.0253025 0.0485201 0 -0.55796 0.46087 0 0 0 0)
(0.0456457 0.0554283 0 -0.548708 0.47345 0 0 0 0)
(0.102951 -0.0635489 0 -0.537762 0.460679 0 0 0 0)
(-0.131717 -0.12791 0 -0.586344 0.4279 0 0 0 0)
(-0.40633 -0.231841 0 -0.742414 0.332366 0 0 0 0)
(-0.585873 -0.353052 0 -0.762174 0.359989 0 0 0 0)
(-0.956537 -0.170011 0 -0.832874 0.434197 0 0 0 0)
(-1.04707 0.146584 0 -0.659202 0.578411 0 0 0 0)
(-0.922593 0.506606 0 -0.86126 0.772429 0 0 0 0)
(-0.900195 0.820696 0 -1.02467 1.03969 0 0 0 0)
(-0.777519 0.557 0 -1.06547 0.858477 0 0 0 0)
(-0.501831 0.00524298 0 -0.869699 0.51943 0 0 0 0)
(-0.304086 -0.309028 0 -0.673113 0.35551 0 0 0 0)
(-0.278216 -0.423888 0 -0.539444 0.280765 0 0 0 0)
(-0.327613 -0.417198 0 -0.438814 0.258762 0 0 0 0)
(-0.399959 -0.356453 0 -0.353985 0.248329 0 0 0 0)
(-0.537558 -0.30951 0 -0.302974 0.22188 0 0 0 0)
(-0.729463 -0.284714 0 -0.289229 0.176141 0 0 0 0)
(-0.696138 -0.216137 0 -0.225968 0.140358 0 0 0 0)
(-0.356596 -0.103207 0 -0.0851511 0.139487 0 0 0 0)
(-0.0753886 -0.0321329 0 -0.0218564 0.140648 0 0 0 0)
(0.00771074 -0.0141294 0 -0.0122741 0.138417 0 0 0 0)
(0.0253652 -0.0103688 0 -0.0111182 0.135819 0 0 0 0)
(0.0385586 -0.00822063 0 -0.00799715 0.134169 0 0 0 0)
(0.0562685 -0.00313886 0 -0.00352968 0.133014 0 0 0 0)
(0.0778899 -0.00223405 0 0.000403471 0.133522 0 0 0 0)
(0.0935359 0.00106089 0 0.00203938 0.132116 0 0 0 0)
(0.0996022 0.0014696 0 0.00267919 0.133471 0 0 0 0)
(0.104065 0.00392103 0 0.00326066 0.132665 0 0 0 0)
(0.0817071 0.00443931 0 0.00388446 0.134599 0 0 0 0)
(-0.104284 0.00368863 0 0.00451893 0.134792 0 0 0 0)
(-0.698529 0.00785584 0 0.0055798 0.136197 0 0 0 0)
(-1.00917 0.00567977 0 0.0122516 0.137551 0 0 0 0)
(-0.610866 -0.00345956 0 0.0157139 0.139524 0 0 0 0)
(-0.223056 0.0173832 0 0.0114679 0.136273 0 0 0 0)
(-0.130621 0.00488405 0 0.0149939 0.150933 0 0 0 0)
(-0.128819 0.0232895 0 0.00919042 0.139653 0 0 0 0)
(-0.149364 0.0158455 0 0.0112322 0.144753 0 0 0 0)
(-0.0955529 -0.0266054 0 0.0131349 0.144164 0 0 0 0)
(0.00808339 3.04845e-06 0 -0.780759 0.486874 0 0 0 0)
(0.000672136 0.0472785 0 -0.794983 0.500949 0 0 0 0)
(0.0102139 0.00780037 0 -0.839491 0.418965 0 0 0 0)
(0.020507 -0.12427 0 -0.90891 0.312531 0 0 0 0)
(-0.184924 -0.207642 0 -1.07738 0.258027 0 0 0 0)
(-0.438641 -0.320026 0 -1.04139 0.230253 0 0 0 0)
(-0.678697 -0.265176 0 -1.14897 0.367716 0 0 0 0)
(-0.947818 0.0358839 0 -1.2331 0.65082 0 0 0 0)
(-1.07198 0.394921 0 -1.23015 0.836642 0 0 0 0)
(-1.05603 0.774529 0 -1.32631 1.12304 0 0 0 0)
(-0.905629 0.714303 0 -1.29787 1.03817 0 0 0 0)
(-0.597499 0.182754 0 -1.05075 0.596407 0 0 0 0)
(-0.276134 -0.218791 0 -0.756973 0.348108 0 0 0 0)
(-0.152757 -0.404275 0 -0.585901 0.214642 0 0 0 0)
(-0.180934 -0.461113 0 -0.494199 0.167033 0 0 0 0)
(-0.25359 -0.422276 0 -0.425038 0.171698 0 0 0 0)
(-0.346762 -0.364575 0 -0.364165 0.179304 0 0 0 0)
(-0.514231 -0.336846 0 -0.335885 0.164056 0 0 0 0)
(-0.687654 -0.315477 0 -0.328805 0.1286 0 0 0 0)
(-0.585734 -0.222973 0 -0.228184 0.117283 0 0 0 0)
(-0.254476 -0.0962372 0 -0.0751008 0.134278 0 0 0 0)
(-0.041521 -0.0310001 0 -0.0218803 0.138049 0 0 0 0)
(0.013122 -0.0161579 0 -0.0149105 0.136132 0 0 0 0)
(0.0281017 -0.0123698 0 -0.013253 0.133395 0 0 0 0)
(0.0428251 -0.0094871 0 -0.00955435 0.131957 0 0 0 0)
(0.0608034 -0.0033827 0 -0.00482568 0.131036 0 0 0 0)
(0.0809511 -0.00264736 0 -0.000861544 0.131707 0 0 0 0)
(0.0949138 0.000978636 0 0.00073855 0.13031 0 0 0 0)
(0.100422 0.00171672 0 0.00122331 0.131511 0 0 0 0)
(0.104888 0.00435305 0 0.00167254 0.130849 0 0 0 0)
(0.0825678 0.00536577 0 0.00217724 0.132226 0 0 0 0)
(-0.102907 0.00432767 0 0.00243519 0.132607 0 0 0 0)
(-0.693215 0.00887133 0 0.00292323 0.133502 0 0 0 0)
(-1.00224 0.0070122 0 0.00905004 0.134666 0 0 0 0)
(-0.609688 -0.00401636 0 0.0125494 0.13692 0 0 0 0)
(-0.222045 0.0225547 0 0.00771464 0.135102 0 0 0 0)
(-0.130123 0.00718526 0 0.0105505 0.147266 0 0 0 0)
(-0.129164 0.02079 0 0.0057841 0.139589 0 0 0 0)
(-0.147171 0.017262 0 0.00850927 0.142984 0 0 0 0)
(-0.0949091 -0.0269353 0 0.0093535 0.142086 0 0 0 0)
(-0.0016749 0.0060124 0 -1.06713 0.410166 0 0 0 0)
(-0.0312946 -0.0169191 0 -1.08846 0.377883 0 0 0 0)
(-0.0641381 -0.126138 0 -1.15198 0.286539 0 0 0 0)
(-0.126286 -0.218635 0 -1.26706 0.264605 0 0 0 0)
(-0.259379 -0.207196 0 -1.41529 0.299001 0 0 0 0)
(-0.475314 -0.12614 0 -1.46686 0.412166 0 0 0 0)
(-0.770615 0.0522222 0 -1.61023 0.683499 0 0 0 0)
(-1.03477 0.281863 0 -1.73243 0.905896 0 0 0 0)
(-1.13689 0.601636 0 -1.78852 1.12752 0 0 0 0)
(-0.987851 0.700809 0 -1.6141 1.15015 0 0 0 0)
(-0.634659 0.313211 0 -1.25756 0.679782 0 0 0 0)
(-0.256291 -0.107973 0 -0.856038 0.336393 0 0 0 0)
(-0.0538838 -0.36264 0 -0.604891 0.154402 0 0 0 0)
(-0.0508678 -0.483518 0 -0.502199 0.0725865 0 0 0 0)
(-0.123203 -0.46527 0 -0.455767 0.0788988 0 0 0 0)
(-0.202307 -0.405374 0 -0.406393 0.108084 0 0 0 0)
(-0.314048 -0.363817 0 -0.366089 0.123384 0 0 0 0)
(-0.503484 -0.35837 0 -0.362811 0.107585 0 0 0 0)
(-0.625679 -0.329785 0 -0.349776 0.0819192 0 0 0 0)
(-0.45166 -0.210665 0 -0.205452 0.10195 0 0 0 0)
(-0.157794 -0.083196 0 -0.0624546 0.130899 0 0 0 0)
(-0.0173871 -0.0303466 0 -0.023169 0.1355 0 0 0 0)
(0.0160243 -0.0186148 0 -0.0179579 0.13319 0 0 0 0)
(0.0305266 -0.0143918 0 -0.0146516 0.130456 0 0 0 0)
(0.0466794 -0.0104936 0 -0.00957383 0.12928 0 0 0 0)
(0.0646452 -0.00337989 0 -0.00390084 0.128529 0 0 0 0)
(0.0832518 -0.00293378 0 0.000645157 0.129247 0 0 0 0)
(0.095545 0.000871767 0 0.00269457 0.127815 0 0 0 0)
(0.100502 0.00198945 0 0.00346561 0.128917 0 0 0 0)
(0.104985 0.00461016 0 0.0041579 0.128371 0 0 0 0)
(0.082442 0.00613339 0 0.00486002 0.129267 0 0 0 0)
(-0.103565 0.00491842 0 0.0052207 0.129683 0 0 0 0)
(-0.692154 0.00983956 0 0.00669045 0.130402 0 0 0 0)
(-0.999891 0.00897303 0 0.0144565 0.131798 0 0 0 0)
(-0.612153 -0.00303933 0 0.0177544 0.134421 0 0 0 0)