/*--------------------------------*- C++ -*----------------------------------*\
| =========                 |                                                 |
| \\      /  F ield         | OpenFOAM: The Open Source CFD Toolbox           |
|  \\    /   O peration     | Version:  v1912                                 |
|   \\  /    A nd           | Website:  www.openfoam.com                      |
|    \\/     M anipulation  |                                                 |
\*---------------------------------------------------------------------------*/
FoamFile
{
    version     2.0;
    format      ascii;
    class       volVectorField;
    location    "6.52";
    object      grad(rho);
}
// * * * * * * * * * * * * * * * * * * * * * * * * * * * * * * * * * * * * * //

dimensions      [1 -4 0 0 0 0 0];


internalField   nonuniform List<vector> 
1900
(
(101155 0.264098 0)
(-104891 0.450143 0)
(-5021.3 0.0946071 0)
(-1457.53 -1.29748 0)
(-1743.62 -2.83247 0)
(-1282.83 -1.91725 0)
(-672.783 1.31421 0)
(-274.661 14.6116 0)
(-99.1407 26.5094 0)
(731.696 -47.7866 0)
(101156 0.471011 0)
(-104891 0.649617 0)
(-5023.05 -0.283808 0)
(-1460.46 -2.34806 0)
(-1744.24 -3.59449 0)
(-1278.68 1.51199 0)
(-656.254 5.9119 0)
(-249.466 5.72626 0)
(-161.539 -27.3344 0)
(-255.981 -121.342 0)
(101156 2.359e-08 0)
(-104892 2.34479e-08 0)
(-5024.3 7.2653e-09 0)
(-1460.84 5.48894e-09 0)
(-1739.76 2.66454e-09 0)
(-1273.32 -6.62581e-09 0)
(-668.569 -1.22569e-08 0)
(-307.908 -6.51923e-09 0)
(-226.209 1.95399e-10 0)
(-381.256 7.79821e-09 0)
(101156 -0.471011 0)
(-104891 -0.649617 0)
(-5023.05 0.283808 0)
(-1460.46 2.34806 0)
(-1744.24 3.59449 0)
(-1278.68 -1.51199 0)
(-656.254 -5.9119 0)
(-249.466 -5.72626 0)
(-161.539 27.3344 0)
(-255.981 121.342 0)
(101155 -0.264098 0)
(-104891 -0.450143 0)
(-5021.3 -0.0946071 0)
(-1457.53 1.29748 0)
(-1743.62 2.83247 0)
(-1282.83 1.91725 0)
(-672.783 -1.31421 0)
(-274.661 -14.6116 0)
(-99.1407 -26.5094 0)
(731.696 47.7866 0)
(-273.321 -837.553 1.25371e-11)
(-2442.03 -625.435 -1.48142e-11)
(-3706.13 -645.178 -1.8567e-11)
(-3938.4 -672.869 0)
(-25800.8 -7424.95 -7.67443e-11)
(-750.902 -1008.3 1.23858e-11)
(-1761.96 -752.205 1.48142e-11)
(-3398.3 -715.427 1.8567e-11)
(-6452.1 -226.725 0)
(-24232.4 -6106.96 0)
(-1079.17 8.30254e-09 0)
(-1802.88 9.83619e-09 0)
(-3186.06 7.69755e-09 0)
(-6081.7 4.50818e-09 0)
(-26454.9 -1.2001e-08 0)
(-750.902 1008.3 1.23858e-11)
(-1761.96 752.205 1.48142e-11)
(-3398.3 715.427 1.8567e-11)
(-6452.1 226.725 0)
(-24232.4 6106.96 0)
(-273.321 837.553 -3.73086e-11)
(-2442.03 625.435 -1.48142e-11)
(-3706.13 645.178 -1.8567e-11)
(-3938.4 672.869 -4.93412e-11)
(-25800.8 7424.95 7.67443e-11)
(-43773.4 14769.5 1.77207e-11)
(-15691.5 6280.75 -1.01819e-11)
(-9083.87 3286.96 0)
(-6358.69 1845.86 4.7127e-12)
(-2063.86 2184.31 -1.7273e-12)
(-39281.1 19127.8 -9.08273e-12)
(-18170.3 5425.55 5.18554e-12)
(-10213.6 2080.84 0)
(-6528.68 901.808 -2.98697e-12)
(-2836.11 1499.18 4.59559e-13)
(-40863.2 5.83147e-10 0)
(-20016.3 3.03651e-10 0)
(-10560.3 2.30268e-10 0)
(-6559.09 1.19004e-09 1.20565e-12)
(-2803.19 2.31134e-09 -9.19119e-13)
(-39281.1 -19127.8 -9.08273e-12)
(-18170.3 -5425.55 5.18554e-12)
(-10213.6 -2080.84 0)
(-6528.68 -901.808 -2.98697e-12)
(-2836.11 -1499.18 4.59559e-13)
(-43773.4 -14769.5 9.08273e-12)
(-15691.5 -6280.75 -1.89156e-13)
(-9083.87 -3286.96 0)
(-6358.69 -1845.86 5.55913e-14)
(-2063.86 -2184.31 1.7273e-12)
(-461.252 -3077.59 0)
(-2224.35 -3233.74 0)
(-1835.12 -2866.17 0)
(1195.81 -3247.77 0)
(5103.08 -2327.01 0)
(4856.54 353.87 0)
(1738.4 712.029 0)
(522.923 547.978 0)
(-562.908 821.432 0)
(-1450.71 774.919 0)
(-2002.83 496.535 0)
(-2496.8 308.122 0)
(-2638.1 203.974 0)
(-1938.54 103.716 0)
(-1012.91 33.0487 0)
(-566.527 9.82679 0)
(-446.132 7.99907 0)
(-397.905 12.3605 0)
(-338.927 7.3171 0)
(-246.557 1.16544 0)
(-150.139 -1.6248 0)
(-84.9948 -2.03249 0)
(-53.0548 -1.83391 0)
(-38.6904 -1.63954 0)
(-28.692 -1.54633 0)
(-18.8538 -1.51132 0)
(-6.43881 -1.55113 0)
(9.60444 -1.64942 0)
(25.3941 -1.59399 0)
(36.7066 -1.49279 0)
(53.5787 -1.6645 0)
(74.9552 -1.23177 0)
(118.225 -1.44774 0)
(159.371 1.12809 0)
(207.257 -0.00197251 0)
(420.033 -1.00302 0)
(1263.72 -4.59798 0)
(2258.11 -5.03521 0)
(1044.38 0.799014 0)
(3847.09 5.57033 0)
(-1561.47 -884.144 0)
(-2340.71 -1243.4 0)
(-1773.31 -1185.12 0)
(1305.32 -985.126 0)
(5374.51 -802.953 0)
(5088.39 -30.8469 0)
(1789.63 351.802 0)
(608.44 298.992 0)
(-485.011 387.525 0)
(-1514.7 333.6 0)
(-2097.52 202.552 0)
(-2552.56 134.58 0)
(-2668.44 102.219 0)
(-1956.37 48.2019 0)
(-1021.04 14.0808 0)
(-568.699 3.52869 0)
(-445.73 2.90869 0)
(-397.925 5.61396 0)
(-340.002 2.95556 0)
(-247.335 0.457448 0)
(-150.408 -0.786758 0)
(-84.9933 -0.881384 0)
(-53.0158 -0.770894 0)
(-38.6646 -0.691958 0)
(-28.6801 -0.664472 0)
(-18.8536 -0.66017 0)
(-6.45351 -0.689269 0)
(9.59651 -0.756514 0)
(25.4059 -0.753831 0)
(36.6947 -0.732043 0)
(53.602 -0.83562 0)
(74.9539 -0.658878 0)
(118.42 -0.852872 0)
(159.472 0.220428 0)
(207.034 -0.339419 0)
(419.592 -0.913865 0)
(1263.32 -2.10934 0)
(2258.27 -2.41938 0)
(1045.2 0.117474 0)
(3845.46 -0.175101 0)
(-1383.17 -7.55759e-09 0)
(-2311.9 -2.64435e-08 0)
(-1759.99 -3.05937e-08 0)
(1306.99 7.18698e-08 0)
(5380.69 -4.83896e-08 0)
(5192.46 -2.72316e-07 0)
(1834.35 -3.98082e-07 0)
(533.315 -1.1443e-07 0)
(-552.84 -4.14376e-08 0)
(-1504.52 3.39123e-10 0)
(-2060.72 1.90878e-08 0)
(-2525.99 3.61327e-08 0)
(-2663.23 -4.34481e-08 0)
(-1964.18 -6.77519e-08 0)
(-1025.91 -4.20189e-08 0)
(-569.777 -4.6589e-09 0)
(-445.525 -1.93381e-08 0)
(-397.891 -6.7663e-09 0)
(-340.427 9.77804e-09 0)
(-247.646 1.06662e-08 0)
(-150.528 1.35003e-08 0)
(-84.9902 8.21565e-09 0)
(-52.9997 7.56567e-09 0)
(-38.6595 5.89024e-09 0)
(-28.6828 3.64961e-09 0)
(-18.861 2.52323e-09 0)
(-6.46684 3.06825e-09 0)
(9.58566 6.38681e-09 0)
(25.4012 1.02786e-08 0)
(36.6828 9.65692e-09 0)
(53.6 1.86921e-09 0)
(74.9502 -5.42193e-09 0)
(118.481 4.42474e-09 0)
(159.521 -2.36013e-08 0)
(206.927 -3.02465e-08 0)
(419.518 -1.35407e-08 0)
(1263.28 -3.23781e-09 0)
(2258.76 8.35776e-08 0)
(1045.03 -7.60604e-09 0)
(3843.88 1.19121e-07 0)
(-1561.47 884.144 0)
(-2340.71 1243.4 0)
(-1773.31 1185.12 0)
(1305.32 985.126 0)
(5374.51 802.953 0)
(5088.39 30.8469 0)
(1789.63 -351.802 0)
(608.44 -298.992 0)
(-485.011 -387.525 0)
(-1514.7 -333.6 0)
(-2097.52 -202.552 0)
(-2552.56 -134.58 0)
(-2668.44 -102.219 0)
(-1956.37 -48.2019 0)
(-1021.04 -14.0808 0)
(-568.699 -3.52869 0)
(-445.73 -2.90869 0)
(-397.925 -5.61396 0)
(-340.002 -2.95556 0)
(-247.335 -0.457448 0)
(-150.408 0.786758 0)
(-84.9933 0.881384 0)
(-53.0158 0.770894 0)
(-38.6646 0.691958 0)
(-28.6801 0.664472 0)
(-18.8536 0.66017 0)
(-6.45351 0.689269 0)
(9.59651 0.756514 0)
(25.4059 0.753831 0)
(36.6947 0.732043 0)
(53.602 0.83562 0)
(74.9539 0.658878 0)
(118.42 0.852872 0)
(159.472 -0.220428 0)
(207.034 0.339419 0)
(419.592 0.913865 0)
(1263.32 2.10934 0)
(2258.27 2.41938 0)
(1045.2 -0.117474 0)
(3845.46 0.175101 0)
(-461.252 3077.59 0)
(-2224.35 3233.74 0)
(-1835.12 2866.17 0)
(1195.81 3247.77 0)
(5103.08 2327.01 0)
(4856.54 -353.87 0)
(1738.4 -712.029 0)
(522.923 -547.978 0)
(-562.908 -821.432 0)
(-1450.71 -774.919 0)
(-2002.83 -496.535 0)
(-2496.8 -308.122 0)
(-2638.1 -203.974 0)
(-1938.54 -103.716 0)
(-1012.91 -33.0487 0)
(-566.527 -9.82679 0)
(-446.132 -7.99907 0)
(-397.905 -12.3605 0)
(-338.927 -7.3171 0)
(-246.557 -1.16544 0)
(-150.139 1.6248 0)
(-84.9948 2.03249 0)
(-53.0548 1.83391 0)
(-38.6904 1.63954 0)
(-28.692 1.54633 0)
(-18.8538 1.51132 0)
(-6.43881 1.55113 0)
(9.60444 1.64942 0)
(25.3941 1.59399 0)
(36.7066 1.49279 0)
(53.5787 1.6645 0)
(74.9552 1.23177 0)
(118.225 1.44774 0)
(159.371 -1.12809 0)
(207.257 0.00197247 0)
(420.033 1.00302 0)
(1263.72 4.59798 0)
(2258.11 5.03521 0)
(1044.38 -0.799015 0)
(3847.09 -5.57033 0)
(-1877.45 2690.53 0)
(-2607.86 2238.2 0)
(-1693.04 3521.7 0)
(1093.73 3941.6 0)
(3429.13 2812.22 0)
(3450.15 -499.549 0)
(1727.11 -826.174 0)
(638.692 -868.348 0)
(-537.298 -1009.64 0)
(-1384.89 -870.21 0)
(-1914.2 -627.42 0)
(-2433.51 -485.425 0)
(-2575.31 -378.895 0)
(-1869.77 -197.858 0)
(-971.555 -60.3515 0)
(-555.498 -19.6045 0)
(-446.854 -16.7443 0)
(-397.52 -20.8151 0)
(-334.223 -13.4492 0)
(-242.625 -3.09775 0)
(-148.713 2.29081 0)
(-84.8605 3.4846 0)
(-53.2172 3.22375 0)
(-38.8151 2.86765 0)
(-28.7468 2.69821 0)
(-18.8503 2.65681 0)
(-6.38388 2.75197 0)
(9.61421 2.91732 0)
(25.3214 2.79859 0)
(36.7252 2.63993 0)
(53.4652 2.84407 0)
(74.8165 2.28632 0)
(117.165 2.11244 0)
(158.681 -1.84114 0)
(208.112 -1.21552 0)
(421.965 1.31915 0)
(1265.39 7.47416 0)
(2255.07 10.22 0)
(1039.5 -2.07973 0)
(3852.13 -6.71138 0)
(-2100.72 222.545 0)
(-1217.75 384.413 0)
(-269.853 2082.78 0)
(566.881 2278.42 0)
(1721.05 1549.39 0)
(2104.59 -318.114 0)
(1389.07 -802.913 0)
(284.048 -1172.37 0)
(-578.435 -1272.71 0)
(-1117.68 -1072.97 0)
(-1679.56 -864.86 0)
(-2291.26 -760.845 0)
(-2394.67 -594.758 0)
(-1668.46 -284.427 0)
(-863.315 -83.6073 0)
(-530.42 -32.607 0)
(-446.911 -28.9784 0)
(-394.936 -29.1375 0)
(-324.377 -18.9289 0)
(-233.498 -5.28246 0)
(-144.56 3.08711 0)
(-84.1679 5.56157 0)
(-53.5622 5.46399 0)
(-39.13 4.97783 0)
(-28.8659 4.71605 0)
(-18.8039 4.66324 0)
(-6.21723 4.83127 0)
(9.64412 5.05239 0)
(25.1657 4.82543 0)
(36.7404 4.56728 0)
(53.2988 4.79262 0)
(74.3246 4.15573 0)
(114.816 3.56812 0)
(156.534 -1.57878 0)
(209.844 -2.22009 0)
(427.371 2.81719 0)
(1271.39 11.6081 0)
(2250.54 15.2197 0)
(1030.68 -2.44888 0)
(3853.06 -5.77321 0)
(-1863.84 -6.98871 0)
(-815.276 601.896 0)
(132.095 456.491 0)
(579.736 482.035 0)
(927.019 178.405 0)
(1183.39 -436.758 0)
(903.912 -926.542 0)
(185.979 -1263.62 0)
(-441.513 -1225.53 0)
(-991.871 -1091.71 0)
(-1613.43 -1023.89 0)
(-2173.23 -979.548 0)
(-2116.21 -727.422 0)
(-1377.2 -315.447 0)
(-728.892 -96.2996 0)
(-502.855 -47.599 0)
(-443.511 -42.0231 0)
(-387.836 -36.2078 0)
(-311.235 -22.1566 0)
(-221.41 -5.68937 0)
(-138.264 4.9076 0)
(-82.57 8.64595 0)
(-53.7797 8.89324 0)
(-39.5359 8.36686 0)
(-29.0499 8.01954 0)
(-18.7393 7.9365 0)
(-6.00888 8.13486 0)
(9.60859 8.29639 0)
(24.854 7.88687 0)
(36.6936 7.44895 0)
(53.0686 7.62507 0)
(73.6365 6.86465 0)
(111.639 5.94593 0)
(153.104 -0.0897942 0)
(212.348 -2.19893 0)
(435.29 4.76175 0)
(1277.34 16.1818 0)
(2241.52 18.669 0)
(1019.27 -4.51096 0)
(3855.59 -7.49043 0)
(-1161.76 -551.912 0)
(-771.124 -94.9358 0)
(-385.355 -253.677 0)
(298.907 -229.261 0)
(835.671 -314.812 0)
(1039.82 -616.778 0)
(592.279 -1084.36 0)
(-4.0716 -1245.94 0)
(-412.78 -1233.16 0)
(-923.366 -1187.68 0)
(-1571.47 -1174.43 0)
(-2005.57 -1095.65 0)
(-1754.72 -725.674 0)
(-1060.28 -288.508 0)
(-605.207 -103.342 0)
(-478.117 -62.7895 0)
(-435.934 -53.2745 0)
(-375.792 -40.6375 0)
(-294.968 -22.2446 0)
(-207.418 -3.56546 0)
(-130.746 8.42172 0)
(-80.3271 12.9658 0)
(-53.8312 13.5166 0)
(-39.9719 13.0132 0)
(-29.2806 12.6037 0)
(-18.6928 12.467 0)
(-5.87042 12.5879 0)
(9.40515 12.5003 0)
(24.3491 11.8349 0)
(36.4881 11.1261 0)
(52.7357 11.055 0)
(72.7065 10.1245 0)
(108.115 8.76222 0)
(148.686 2.54911 0)
(214.519 -0.912911 0)
(445.083 6.04626 0)
(1284.79 19.5394 0)
(2230.59 21.5415 0)
(1005.47 -5.6659 0)
(3856.88 -6.71517 0)
(-1774.81 -746.766 0)
(-527.887 -296.194 0)
(2.65465 -174.602 0)
(520.824 -229.81 0)
(553.593 -515.395 0)
(441.827 -936.934 0)
(297.624 -1225.76 0)
(42.5836 -1232.97 0)
(-385.371 -1210.51 0)
(-935.273 -1246.04 0)
(-1524.73 -1266.68 0)
(-1740.79 -1084.41 0)
(-1338.43 -617.089 0)
(-777.502 -237.168 0)
(-511.381 -105.75 0)
(-454.609 -73.4701 0)
(-422.164 -59.2201 0)
(-357.935 -40.2996 0)
(-275.511 -18.3152 0)
(-191.858 1.77399 0)
(-122.333 14.4604 0)
(-77.6604 19.3653 0)
(-53.7341 20.111 0)
(-40.4156 19.6578 0)
(-29.5762 19.2049 0)
(-18.7545 18.9915 0)
(-5.97678 18.9251 0)
(8.88296 18.4711 0)
(23.5297 17.5385 0)
(35.9421 16.5135 0)
(52.1034 16.0928 0)
(71.4271 14.9682 0)
(104.339 13.3112 0)
(143.78 7.36022 0)
(215.718 3.53866 0)
(454.999 10.5089 0)
(1292.28 24.2878 0)
(2217.23 28.2924 0)
(992.037 -0.264587 0)
(3860.49 1.71433 0)
(-1205.19 -480.868 0)
(-219.766 -68.564 0)
(-321.384 -226.402 0)
(-29.4936 -689.356 0)
(154.261 -1011.73 0)
(355.286 -1110.2 0)
(307.005 -1066.92 0)
(10.6322 -1133.4 0)
(-425.367 -1188.76 0)
(-977.497 -1268.53 0)
(-1415.73 -1245.56 0)
(-1379.6 -928.651 0)
(-938.281 -462.567 0)
(-567.538 -193.823 0)
(-447.461 -108.186 0)
(-433.28 -81.8847 0)
(-403.97 -61.8047 0)
(-336.374 -36.8758 0)
(-254.425 -11.6936 0)
(-175.834 9.16284 0)
(-113.795 21.797 0)
(-74.882 26.7467 0)
(-53.5493 27.6175 0)
(-40.8451 27.2505 0)
(-29.9227 26.7875 0)
(-18.9623 26.4833 0)
(-6.37183 26.0746 0)
(8.06893 25.1178 0)
(22.4627 23.9414 0)
(35.095 22.5058 0)
(51.2466 21.6118 0)
(70.026 20.1888 0)
(100.784 18.2515 0)
(139.269 12.9613 0)
(217.553 9.49272 0)
(465.078 15.3547 0)
(1301.93 28.0982 0)
(2206.94 29.8212 0)
(979.861 1.44371 0)
(3851.56 5.96706 0)
(-1574.18 -521.463 0)
(-282.674 -464.356 0)
(-595.563 -683.175 0)
(-235.947 -974.054 0)
(148.052 -1014.12 0)
(388.642 -897.7 0)
(275.272 -941.032 0)
(-74.8245 -1056.65 0)
(-515.591 -1168.79 0)
(-990.011 -1233.57 0)
(-1197.21 -1092.16 0)
(-986.263 -694.239 0)
(-630.321 -330.194 0)
(-436.008 -162.917 0)
(-403.513 -107.369 0)
(-409.914 -84.0304 0)
(-378.792 -58.7257 0)
(-309.646 -29.5031 0)
(-231.147 -1.51211 0)
(-159.586 19.4045 0)
(-105.389 31.4452 0)
(-72.0516 36.1356 0)
(-53.2486 37.0232 0)
(-41.2154 36.7453 0)
(-30.3156 36.2892 0)
(-19.4414 35.8034 0)
(-7.29263 34.8583 0)
(6.82736 33.4446 0)
(21.0127 32.0184 0)
(33.6972 30.1292 0)
(49.8706 28.7011 0)
(68.1889 26.8849 0)
(97.3746 24.684 0)
(135.34 20.1158 0)
(218.025 17.6417 0)
(472.928 22.3578 0)
(1306.22 34.2015 0)
(2191.55 31.5719 0)
(969.05 3.21354 0)
(3847.55 8.54551 0)
(-1999.36 -503.478 0)
(-375.598 -479.413 0)
(-812.548 -699.553 0)
(-348.403 -837.392 0)
(227.838 -801.173 0)
(425.716 -727.065 0)
(153.831 -867.866 0)
(-208.842 -1004.18 0)
(-595.851 -1121.45 0)
(-903.654 -1096.85 0)
(-896.005 -837.978 0)
(-645.347 -472.919 0)
(-426.28 -238.982 0)
(-352.815 -139.554 0)
(-371.443 -103.884 0)
(-386.405 -81.4208 0)
(-351.425 -51.4945 0)
(-281.241 -19.4305 0)
(-207.296 8.58969 0)
(-144.075 28.901 0)
(-97.6718 40.1193 0)
(-69.5068 44.5252 0)
(-52.9617 45.5331 0)
(-41.5524 45.4892 0)
(-30.8304 45.1425 0)
(-20.3411 44.5025 0)
(-8.64483 43.3745 0)
(5.33226 41.9566 0)
(19.2679 40.2153 0)
(31.8983 38.1156 0)
(48.1202 36.4368 0)
(66.1549 34.5577 0)
(94.2607 32.4485 0)
(132.482 28.8077 0)
(219.713 27.9053 0)
(481.036 31.7779 0)
(1310.81 42.5272 0)
(2177.07 39.6518 0)
(957.672 7.93923 0)
(3828.45 12.856 0)
(-2432.05 -416.607 0)
(-471.62 -405.606 0)
(-940.524 -575.194 0)
(-333.872 -630.187 0)
(254.367 -524.52 0)
(324.375 -675.525 0)
(8.23031 -834.395 0)
(-319.189 -942.357 0)
(-604.883 -999.396 0)
(-716.846 -863.091 0)
(-595.977 -570.743 0)
(-409.048 -314.342 0)
(-309.078 -175.369 0)
(-305.822 -119.961 0)
(-347.494 -98.0322 0)
(-359.43 -75.2214 0)
(-319.056 -41.6564 0)
(-251.746 -6.64764 0)
(-184.573 20.4011 0)
(-129.202 39.512 0)
(-90.3329 49.6776 0)
(-66.8346 53.7467 0)
(-52.3197 54.8606 0)
(-41.5918 54.9853 0)
(-31.2664 54.6511 0)
(-21.1452 53.8698 0)
(-9.74595 52.8362 0)
(3.78304 51.4487 0)
(17.3114 49.2661 0)
(30.0561 47.0184 0)
(46.4421 45.2373 0)
(64.3456 43.4517 0)
(91.8337 41.7003 0)
(130.962 39.011 0)
(220.887 39.3168 0)
(487.018 41.6201 0)
(1313.8 52.4195 0)
(2158.22 49.975 0)
(943.228 11.7743 0)
(3808.14 17.1302 0)
(-2829.72 -275.03 0)
(-528.418 -245.841 0)
(-1028.96 -385.258 0)
(-299.572 -453.643 0)
(184.148 -398.383 0)
(127.109 -658.268 0)
(-103.297 -783.655 0)
(-367.843 -847.423 0)
(-519.468 -803.324 0)
(-490.588 -594.963 0)
(-367.211 -361.432 0)
(-264.35 -209.991 0)
(-238.967 -132.676 0)
(-278.29 -105.114 0)
(-328.331 -89.4605 0)
(-332.079 -63.5843 0)
(-285.345 -28.0317 0)
(-221.441 5.62233 0)
(-162.814 31.7276 0)
(-115.864 48.8697 0)
(-83.9548 57.9431 0)
(-64.5122 61.8822 0)
(-51.7681 63.4228 0)
(-41.7544 64.0707 0)
(-31.9054 64.186 0)
(-22.09 63.7975 0)
(-10.9779 63.1383 0)
(1.89199 61.8982 0)
(14.9986 59.6366 0)
(28.016 57.5476 0)
(44.6832 55.883 0)
(62.7465 54.4275 0)
(89.9815 53.2921 0)
(130.186 51.657 0)
(222.228 52.8573 0)
(493.662 55.2176 0)
(1318.86 66.9544 0)
(2137.91 64.7519 0)
(926.021 20.7018 0)
(3767.55 24.4924 0)
(-3061.21 -100.283 0)
(-577.839 -61.4923 0)
(-1140.77 -215.93 0)
(-346.519 -341.483 0)
(57.1825 -425.216 0)
(-46.8876 -601.136 0)
(-174.046 -692.883 0)
(-338.142 -683.245 0)
(-361.603 -553.367 0)
(-291.023 -365.318 0)
(-225.005 -219.965 0)
(-188.609 -133.927 0)
(-208.014 -94.9735 0)
(-264.179 -85.691 0)
(-307.475 -74.8618 0)
(-300.235 -43.8687 0)
(-252.366 -5.66537 0)
(-194.16 25.5415 0)
(-142.898 49.9338 0)
(-103.94 65.0265 0)
(-77.7936 72.97 0)
(-61.5542 76.5022 0)
(-50.2108 77.943 0)
(-40.8564 78.5344 0)
(-31.5297 78.6166 0)
(-22.1548 78.2856 0)
(-11.5762 77.6092 0)
(0.408664 76.2812 0)
(13.119 74.0209 0)
(26.4389 72.1292 0)
(43.4355 70.7253 0)
(61.849 69.6674 0)
(89.164 69.2277 0)
(130.543 68.6523 0)
(224.318 70.8292 0)
(500.602 74.233 0)
(1322.99 87.0642 0)
(2113.65 81.3414 0)
(904.433 28.9243 0)
(3717.18 33.5637 0)
(-3046.07 -6.9119 0)
(-639.86 36.4424 0)
(-1298.77 -106.201 0)
(-501.248 -299.065 0)
(-66.0625 -480.215 0)
(-130.825 -515.777 0)
(-182.421 -538.279 0)
(-233.401 -451.8 0)
(-213.102 -313.082 0)
(-169.31 -199.891 0)
(-144.234 -121.379 0)
(-143.903 -75.9707 0)
(-192.485 -62.2642 0)
(-258.91 -61.529 0)
(-288.029 -48.2112 0)
(-265.399 -13.8695 0)
(-218.459 23.1528 0)
(-167.863 53.9605 0)
(-124.765 75.939 0)
(-93.665 88.8992 0)
(-72.8963 95.5915 0)
(-59.7201 98.7147 0)
(-49.8098 99.987 0)
(-41.1053 100.239 0)
(-32.1451 99.8031 0)
(-23.0608 98.9058 0)
(-12.9093 97.5799 0)
(-1.56587 95.6114 0)
(10.9975 92.9653 0)
(24.8403 91.194 0)
(42.3109 89.9203 0)
(61.3034 89.2669 0)
(89.0033 89.5382 0)
(131.729 90.0605 0)
(227.605 93.4851 0)
(509.306 97.8073 0)
(1325.71 110.531 0)
(2081.88 96.1173 0)
(879.981 34.2615 0)
(3646.68 38.5704 0)
(-2988.67 -17.7496 0)
(-673.518 25.2494 0)
(-1464.08 -81.8274 0)
(-706.933 -289.583 0)
(-151.649 -452.033 0)
(-102.84 -389.011 0)
(-112.396 -328.511 0)
(-121.134 -237.545 0)
(-118.854 -152.435 0)
(-106.291 -91.6485 0)
(-105.591 -47.5162 0)
(-131.644 -30.0848 0)
(-194.097 -32.8649 0)
(-250.637 -28.1561 0)
(-261.548 -0.0944397 0)
(-231.466 37.5148 0)
(-187.003 74.1461 0)
(-143.293 105.173 0)
(-109.23 126.122 0)
(-85.0024 138.293 0)
(-68.335 143.973 0)
(-57.3185 145.475 0)
(-48.7422 144.47 0)
(-41.0336 142.116 0)
(-32.8142 139.107 0)
(-24.2971 135.993 0)
(-14.7508 132.777 0)
(-4.03809 129.465 0)
(8.86223 126.115 0)
(23.5046 124.229 0)
(41.5785 122.797 0)
(61.4807 122.359 0)
(89.9287 123.244 0)
(134.346 125.034 0)
(231.783 129.954 0)
(517.029 136.492 0)
(1321.36 149.312 0)
(2040.15 124.543 0)
(848.979 50.2061 0)
(3575.9 54.9797 0)
(-2988.49 -7.82843 0)
(-701.607 5.10306 0)
(-1602.16 -76.3538 0)
(-857.991 -197.798 0)
(-161.875 -266.397 0)
(-11.7939 -185.714 0)
(-36.4631 -118.473 0)
(-63.7279 -71.4259 0)
(-72.5101 -30.5171 0)
(-68.2065 1.87665 0)
(-84.909 23.5495 0)
(-129.785 24.5249 0)
(-190.626 20.8016 0)
(-227.331 32.8364 0)
(-224.746 64.6316 0)
(-193.858 100.672 0)
(-153.261 134.098 0)
(-117.777 159.378 0)
(-92.8494 175.42 0)
(-76.4636 184.334 0)
(-65.9755 188.455 0)
(-59.2409 189.619 0)
(-53.0471 188.902 0)
(-46.2731 186.772 0)
(-38.0448 183.66 0)
(-29.1601 180.286 0)
(-19.2002 177.087 0)
(-7.98647 174.86 0)
(5.95179 173.351 0)
(21.6433 173.023 0)
(40.5086 173.517 0)
(61.7343 175.272 0)
(91.581 178.706 0)
(138.195 183.554 0)
(238.647 192.364 0)
(527.961 203.952 0)
(1314.2 218.417 0)
(1986.38 177.665 0)
(812.947 83.3416 0)
(3462.39 86.072 0)
(-2960.25 71.002 0)
(-739.551 81.9683 0)
(-1659.6 37.4083 0)
(-890.065 6.03307 0)
(-140.004 -7.14952 0)
(39.7045 31.778 0)
(-2.26406 61.5688 0)
(-36.3765 79.5953 0)
(-48.2168 104.507 0)
(-54.1906 120.595 0)
(-83.7659 122.667 0)
(-134.292 110.166 0)
(-186.088 102.655 0)
(-208.401 113.796 0)
(-196.18 137.634 0)
(-164.526 165.669 0)
(-130.431 189.571 0)
(-103.474 205.958 0)
(-85.1817 216.142 0)
(-72.4414 222.591 0)
(-63.2418 227.942 0)
(-56.8876 233.688 0)
(-51.4863 240.117 0)
(-46.0849 246.757 0)
(-39.0637 252.883 0)
(-30.6316 259.082 0)
(-19.9797 263.644 0)
(-7.63806 268.827 0)
(7.09191 271.995 0)
(23.6643 275.52 0)
(43.7457 279.403 0)
(66.481 284.934 0)
(97.9094 291.559 0)
(147.508 300.839 0)
(251.44 314.023 0)
(542.135 329.402 0)
(1296.03 336.897 0)
(1909.99 256.165 0)
(760.716 127.867 0)
(3319.26 114.764 0)
(-2782.37 116.851 0)
(-733.979 180.168 0)
(-1675.33 258.261 0)
(-900.929 288.177 0)
(-137.066 271.339 0)
(54.4256 280.474 0)
(9.61537 291.102 0)
(-22.3509 296.063 0)
(-33.0011 307.684 0)
(-50.7075 305.444 0)
(-94.9585 292.92 0)
(-149.069 278.406 0)
(-187.129 277.132 0)
(-193.624 294.949 0)
(-174.76 321.89 0)
(-143.809 350.192 0)
(-114.438 373.194 0)
(-92.1729 390.646 0)
(-76.8208 404.54 0)
(-65.093 416.907 0)
(-55.2817 429.775 0)
(-47.5083 443.873 0)
(-40.4532 459.03 0)
(-33.9715 475.152 0)
(-26.1682 491.812 0)
(-18.7908 509.042 0)
(-9.80936 523.629 0)
(0.0615903 538.419 0)
(12.401 550.164 0)
(28.7815 562.635 0)
(49.5803 574.66 0)
(73.4487 588.314 0)
(106.908 600.821 0)
(159.842 616.073 0)
(266.17 630.948 0)
(550.003 639.908 0)
(1243.62 609.424 0)
(1784.95 412.743 0)
(676.688 138.243 0)
(3130.72 49.9767 0)
(-2639.69 49.8766 0)
(-603.283 145.104 0)
(-1555.52 482.185 0)
(-877.463 702.148 0)
(-147.426 717.646 0)
(58.7485 724.166 0)
(12.7581 736.148 0)
(-20.3974 746.062 0)
(-39.1768 756.686 0)
(-68.4172 756.184 0)
(-109.821 756.126 0)
(-149.507 773.058 0)
(-170.147 813.162 0)
(-165.27 872.273 0)
(-142.945 936.511 0)
(-115.088 995.179 0)
(-91.448 1046.64 0)
(-73.2679 1091.13 0)
(-59.8759 1129.75 0)
(-48.1234 1164.49 0)
(-37.2568 1199.67 0)
(-28.6968 1235.55 0)
(-21.3445 1268.06 0)
(-14.4945 1295.75 0)
(-6.40554 1319.68 0)
(0.0280959 1342.9 0)
(8.32886 1358.73 0)
(17.932 1375.05 0)
(30.4274 1388.72 0)
(47.2693 1403.9 0)
(68.4904 1416.26 0)
(91.6911 1426.07 0)
(124.66 1428.09 0)
(176.539 1425.61 0)
(274.408 1407.81 0)
(521.393 1359.02 0)
(1077.13 1193.13 0)
(1455.94 720.165 0)
(411.141 125.924 0)
(3118.64 -143.758 0)
(-3149.54 9332.01 0)
(-317.391 -425.157 0)
(-1138.54 514.854 0)
(-674.03 1050.1 0)
(-115.849 1213.01 0)
(72.2543 1230.84 0)
(30.7151 1280.09 0)
(-2.5594 1331.86 0)
(-23.247 1382.25 0)
(-51.2468 1428.55 0)
(-78.6982 1475.91 0)
(-94.1069 1537.2 0)
(-91.5215 1611.04 0)
(-74.7607 1694.63 0)
(-56.3233 1778.47 0)
(-37.6834 1854.49 0)
(-21.9741 1922.63 0)
(-12.0884 1982.11 0)
(-6.13461 2032.76 0)
(2.28912 2075.25 0)
(13.1983 2113.19 0)
(18.3873 2146.08 0)
(17.563 2170.55 0)
(15.7737 2187.08 0)
(19.261 2196.67 0)
(18.8434 2203.54 0)
(21.1716 2201.44 0)
(28.9551 2198.6 0)
(40.1991 2189.66 0)
(55.3271 2178.44 0)
(70.948 2160.85 0)
(84.8443 2134.27 0)
(106.466 2096.54 0)
(140.301 2045.41 0)
(201.999 1971.77 0)
(343.127 1854.14 0)
(628.003 1536.82 0)
(756.553 848.368 0)
(-155.82 -374.564 0)
(3847.63 6579.45 0)
(-2156.29 374857 0)
(-9099.81 6172.56 0)
(-133.902 -513.736 0)
(-204.691 57.625 0)
(26.7368 345.143 0)
(123.383 329.663 0)
(110.107 364.038 0)
(78.0476 411.239 0)
(53.9962 449.345 0)
(21.8366 495.261 0)
(-5.12003 543.09 0)
(-19.2865 602.106 0)
(-18.4489 664.255 0)
(-3.92985 722.324 0)
(11.1044 774.041 0)
(23.829 819.206 0)
(31.5359 854.812 0)
(32.863 882.149 0)
(29.8735 902.603 0)
(29.3763 918.426 0)
(30.9957 931.346 0)
(26.5755 940.338 0)
(18.167 945.664 0)
(10.6805 948.782 0)
(9.45329 949.401 0)
(4.62391 946.273 0)
(3.57375 941.748 0)
(6.58087 935.369 0)
(10.9931 925.915 0)
(19.5032 913.376 0)
(25.9269 896.381 0)
(29.7187 875.656 0)
(39.0375 847.658 0)
(56.305 815.587 0)
(90.0866 769.257 0)
(102.263 691.16 0)
(107.934 437.879 0)
(-385.939 -101.187 0)
(5933.82 5179 0)
(5006.86 308726 0)
(352207 -368342 0)
(-362038 6369.21 0)
(-7031.11 5409.86 0)
(153.617 4914.56 0)
(146.297 4703.9 0)
(90.4622 4613.64 0)
(109.325 4426.3 0)
(79.6453 4306.32 0)
(57.7194 4225.99 0)
(39.0898 4177.47 0)
(24.2618 4172.51 0)
(22.6516 4172.56 0)
(24.3247 4177.7 0)
(31.0328 4164.42 0)
(37.0361 4132.72 0)
(40.1504 4085.72 0)
(38.6796 4031.33 0)
(33.9648 3973.74 0)
(28.8238 3916.88 0)
(29.9873 3866.99 0)
(34.3132 3825.41 0)
(32.185 3797.32 0)
(25.7 3780.73 0)
(19.3743 3768.25 0)
(16.8435 3761.81 0)
(11.4693 3751.99 0)
(10.6643 3750.2 0)
(13.6974 3735.09 0)
(19.0058 3721.22 0)
(26.8667 3682.57 0)
(34.5992 3636.14 0)
(37.8929 3567.55 0)
(48.5817 3502.96 0)
(64.7512 3404.52 0)
(82.0956 3302.15 0)
(23.7994 3150.57 0)
(-135.531 3165.7 0)
(5325.27 3815.09 0)
(297441 5682.91 0)
(-287142 -298983 0)
(352207 368342 0)
(-362038 -6369.21 0)
(-7031.11 -5409.86 0)
(153.617 -4914.56 0)
(146.297 -4703.9 0)
(90.4622 -4613.64 0)
(109.325 -4426.3 0)
(79.6453 -4306.32 0)
(57.7194 -4225.99 0)
(39.0898 -4177.47 0)
(24.2618 -4172.51 0)
(22.6516 -4172.56 0)
(24.3247 -4177.7 0)
(31.0328 -4164.42 0)
(37.0361 -4132.72 0)
(40.1504 -4085.72 0)
(38.6796 -4031.33 0)
(33.9648 -3973.74 0)
(28.8238 -3916.88 0)
(29.9873 -3866.99 0)
(34.3132 -3825.41 0)
(32.185 -3797.32 0)
(25.7 -3780.73 0)
(19.3743 -3768.25 0)
(16.8435 -3761.81 0)
(11.4693 -3751.99 0)
(10.6643 -3750.2 0)
(13.6974 -3735.09 0)
(19.0058 -3721.22 0)
(26.8667 -3682.57 0)
(34.5992 -3636.14 0)
(37.8929 -3567.55 0)
(48.5817 -3502.96 0)
(64.7512 -3404.52 0)
(82.0956 -3302.15 0)
(23.7994 -3150.57 0)
(-135.531 -3165.7 0)
(5325.27 -3815.09 0)
(297441 -5682.91 0)
(-287142 298983 0)
(-2156.29 -374857 0)
(-9099.81 -6172.56 0)
(-133.902 513.736 0)
(-204.691 -57.625 0)
(26.7368 -345.143 0)
(123.383 -329.663 0)
(110.107 -364.038 0)
(78.0476 -411.239 0)
(53.9962 -449.345 0)
(21.8366 -495.261 0)
(-5.12003 -543.09 0)
(-19.2865 -602.106 0)
(-18.4489 -664.255 0)
(-3.92985 -722.324 0)
(11.1044 -774.041 0)
(23.829 -819.206 0)
(31.5359 -854.812 0)
(32.863 -882.149 0)
(29.8735 -902.603 0)
(29.3763 -918.426 0)
(30.9957 -931.346 0)
(26.5755 -940.338 0)
(18.167 -945.664 0)
(10.6805 -948.782 0)
(9.45329 -949.401 0)
(4.62391 -946.273 0)
(3.57375 -941.748 0)
(6.58087 -935.369 0)
(10.9931 -925.915 0)
(19.5032 -913.376 0)
(25.9269 -896.381 0)
(29.7187 -875.656 0)
(39.0375 -847.658 0)
(56.305 -815.587 0)
(90.0866 -769.257 0)
(102.263 -691.16 0)
(107.934 -437.879 0)
(-385.939 101.187 0)
(5933.82 -5179 0)
(5006.86 -308726 0)
(-3149.54 -9332.01 0)
(-317.391 425.157 0)
(-1138.54 -514.854 0)
(-674.03 -1050.1 0)
(-115.849 -1213.01 0)
(72.2543 -1230.84 0)
(30.7151 -1280.09 0)
(-2.5594 -1331.86 0)
(-23.247 -1382.25 0)
(-51.2468 -1428.55 0)
(-78.6982 -1475.91 0)
(-94.1069 -1537.2 0)
(-91.5215 -1611.04 0)
(-74.7607 -1694.63 0)
(-56.3233 -1778.47 0)
(-37.6834 -1854.49 0)
(-21.9741 -1922.63 0)
(-12.0884 -1982.11 0)
(-6.13461 -2032.76 0)
(2.28912 -2075.25 0)
(13.1983 -2113.19 0)
(18.3873 -2146.08 0)
(17.563 -2170.55 0)
(15.7737 -2187.08 0)
(19.261 -2196.67 0)
(18.8434 -2203.54 0)
(21.1716 -2201.44 0)
(28.9551 -2198.6 0)
(40.1991 -2189.66 0)
(55.3271 -2178.44 0)
(70.948 -2160.85 0)
(84.8443 -2134.27 0)
(106.466 -2096.54 0)
(140.301 -2045.41 0)
(201.999 -1971.77 0)
(343.127 -1854.14 0)
(628.003 -1536.82 0)
(756.553 -848.368 0)
(-155.82 374.564 0)
(3847.63 -6579.45 0)
(-2639.69 -49.8766 0)
(-603.283 -145.104 0)
(-1555.52 -482.185 0)
(-877.463 -702.148 0)
(-147.426 -717.646 0)
(58.7485 -724.166 0)
(12.7581 -736.148 0)
(-20.3974 -746.062 0)
(-39.1768 -756.686 0)
(-68.4172 -756.184 0)
(-109.821 -756.126 0)
(-149.507 -773.058 0)
(-170.147 -813.162 0)
(-165.27 -872.273 0)
(-142.945 -936.511 0)
(-115.088 -995.179 0)
(-91.448 -1046.64 0)
(-73.2679 -1091.13 0)
(-59.8759 -1129.75 0)
(-48.1234 -1164.49 0)
(-37.2568 -1199.67 0)
(-28.6968 -1235.55 0)
(-21.3445 -1268.06 0)
(-14.4945 -1295.75 0)
(-6.40554 -1319.68 0)
(0.028096 -1342.9 0)
(8.32886 -1358.73 0)
(17.932 -1375.05 0)
(30.4274 -1388.72 0)
(47.2693 -1403.9 0)
(68.4904 -1416.26 0)
(91.6911 -1426.07 0)
(124.66 -1428.09 0)
(176.539 -1425.61 0)
(274.408 -1407.81 0)
(521.393 -1359.02 0)
(1077.13 -1193.13 0)
(1455.94 -720.165 0)
(411.141 -125.924 0)
(3118.64 143.758 0)
(-2782.37 -116.851 0)
(-733.979 -180.168 0)
(-1675.33 -258.261 0)
(-900.929 -288.177 0)
(-137.066 -271.339 0)
(54.4256 -280.474 0)
(9.61537 -291.102 0)
(-22.3509 -296.063 0)
(-33.0011 -307.684 0)
(-50.7075 -305.444 0)
(-94.9585 -292.92 0)
(-149.069 -278.406 0)
(-187.129 -277.132 0)
(-193.624 -294.949 0)
(-174.76 -321.89 0)
(-143.809 -350.192 0)
(-114.438 -373.194 0)
(-92.1729 -390.646 0)
(-76.8208 -404.54 0)
(-65.093 -416.907 0)
(-55.2817 -429.775 0)
(-47.5083 -443.873 0)
(-40.4532 -459.03 0)
(-33.9715 -475.152 0)
(-26.1682 -491.812 0)
(-18.7908 -509.042 0)
(-9.80936 -523.629 0)
(0.0615904 -538.419 0)
(12.401 -550.164 0)
(28.7815 -562.635 0)
(49.5803 -574.66 0)
(73.4487 -588.314 0)
(106.908 -600.821 0)
(159.842 -616.073 0)
(266.17 -630.948 0)
(550.003 -639.908 0)
(1243.62 -609.424 0)
(1784.95 -412.743 0)
(676.688 -138.243 0)
(3130.72 -49.9767 0)
(-2960.25 -71.002 0)
(-739.551 -81.9683 0)
(-1659.6 -37.4083 0)
(-890.065 -6.03307 0)
(-140.004 7.14952 0)
(39.7045 -31.778 0)
(-2.26406 -61.5688 0)
(-36.3765 -79.5953 0)
(-48.2168 -104.507 0)
(-54.1906 -120.595 0)
(-83.7659 -122.667 0)
(-134.292 -110.166 0)
(-186.088 -102.655 0)
(-208.401 -113.796 0)
(-196.18 -137.634 0)
(-164.526 -165.669 0)
(-130.431 -189.571 0)
(-103.474 -205.958 0)
(-85.1817 -216.142 0)
(-72.4414 -222.591 0)
(-63.2418 -227.942 0)
(-56.8876 -233.688 0)
(-51.4863 -240.117 0)
(-46.0849 -246.757 0)
(-39.0637 -252.883 0)
(-30.6316 -259.082 0)
(-19.9797 -263.644 0)
(-7.63806 -268.827 0)
(7.09191 -271.995 0)
(23.6643 -275.52 0)
(43.7457 -279.403 0)
(66.481 -284.934 0)
(97.9094 -291.559 0)
(147.508 -300.839 0)
(251.44 -314.023 0)
(542.135 -329.402 0)
(1296.03 -336.897 0)
(1909.99 -256.165 0)
(760.716 -127.867 0)
(3319.26 -114.764 0)
(-2988.49 7.82843 0)
(-701.607 -5.10306 0)
(-1602.16 76.3538 0)
(-857.991 197.798 0)
(-161.875 266.397 0)
(-11.7939 185.714 0)
(-36.4631 118.473 0)
(-63.7279 71.4259 0)
(-72.5101 30.5171 0)
(-68.2065 -1.87665 0)
(-84.909 -23.5495 0)
(-129.785 -24.5249 0)
(-190.626 -20.8016 0)
(-227.331 -32.8364 0)
(-224.746 -64.6316 0)
(-193.858 -100.672 0)
(-153.261 -134.098 0)
(-117.777 -159.378 0)
(-92.8494 -175.42 0)
(-76.4636 -184.334 0)
(-65.9755 -188.455 0)
(-59.2409 -189.619 0)
(-53.0471 -188.902 0)
(-46.2731 -186.772 0)
(-38.0448 -183.66 0)
(-29.1601 -180.286 0)
(-19.2002 -177.087 0)