/*--------------------------------*- C++ -*----------------------------------*\
| =========                 |                                                 |
| \\      /  F ield         | OpenFOAM: The Open Source CFD Toolbox           |
|  \\    /   O peration     | Version:  v1912                                 |
|   \\  /    A nd           | Website:  www.openfoam.com                      |
|    \\/     M anipulation  |                                                 |
\*---------------------------------------------------------------------------*/
FoamFile
{
    version     2.0;
    format      ascii;
    class       volScalarField;
    location    "9.08";
    object      Ma;
}
// * * * * * * * * * * * * * * * * * * * * * * * * * * * * * * * * * * * * * //

dimensions      [0 0 0 0 0 0 0];


internalField   nonuniform List<scalar> 
1900
(
1.03433
0.155039
0.11279
0.129969
0.135819
0.131466
0.124637
0.117064
0.111047
0.0970551
1.03434
0.155043
0.112791
0.129961
0.135785
0.1314
0.124523
0.116628
0.111178
0.111619
1.03435
0.155046
0.112791
0.129951
0.135744
0.131335
0.124434
0.116845
0.11301
0.118744
1.03434
0.155043
0.112791
0.129961
0.135785
0.1314
0.124523
0.116628
0.111178
0.111619
1.03433
0.155039
0.11279
0.129969
0.135819
0.131466
0.124637
0.117064
0.111047
0.0970551
0.106928
0.14896
0.203096
0.289546
0.437967
0.12811
0.153089
0.184958
0.251202
0.396533
0.135574
0.159386
0.191237
0.254924
0.393651
0.12811
0.153089
0.184958
0.251202
0.396533
0.106928
0.14896
0.203096
0.289546
0.437967
0.953021
1.34208
1.60845
1.78301
1.96765
0.909555
1.34168
1.62999
1.80372
1.98984
0.904747
1.35061
1.63059
1.79859
1.98496
0.909555
1.34168
1.62999
1.80372
1.98984
0.953021
1.34208
1.60845
1.78301
1.96765
2.04228
2.11773
2.12975
2.1771
2.2027
2.23674
2.28296
2.33837
2.39939
2.45439
2.49167
2.53796
2.62298
2.62793
2.57452
2.26376
1.86324
1.73839
1.71317
1.70875
1.70218
1.66416
1.60023
1.52479
1.45216
1.40348
1.38336
0.860983
0.387717
0.0213351
0.483728
0.5774
0.593245
0.599179
0.607769
0.619098
0.631633
0.641014
0.646057
0.647499
2.0342
1.99257
1.96185
2.02666
2.06275
2.10955
2.1683
2.23366
2.30501
2.36957
2.41288
2.46792
2.55801
2.57774
2.52522
2.20515
1.81886
1.70257
1.68806
1.6926
1.69254
1.66211
1.60815
1.54136
1.47175
1.40819
1.37692
0.854589
0.389015
0.0182563
0.48117
0.575678
0.59169
0.598068
0.607722
0.620451
0.633969
0.643685
0.648703
0.649992
2.03378
1.99591
1.92608
1.97851
2.01339
2.06471
2.12866
2.19804
2.27255
2.33939
2.38467
2.44275
2.53469
2.5597
2.50754
2.18435
1.80333
1.69061
1.68009
1.68781
1.69036
1.66007
1.60268
1.53511
1.4644
1.40634
1.38086
0.8605
0.394267
0.0176749
0.480562
0.575079
0.590968
0.597154
0.606519
0.619
0.632492
0.642404
0.64775
0.64947
2.0342
1.99257
1.96185
2.02666
2.06275
2.10955
2.1683
2.23366
2.30501
2.36957
2.41288
2.46792
2.55801
2.57774
2.52522
2.20515
1.81886
1.70257
1.68806
1.6926
1.69254
1.66211
1.60815
1.54136
1.47175
1.40819
1.37692
0.854589
0.389015
0.0182563
0.48117
0.575678
0.59169
0.598068
0.607722
0.620451
0.633969
0.643685
0.648703
0.649992
2.04228
2.11773
2.12975
2.1771
2.2027
2.23674
2.28296
2.33837
2.39939
2.45439
2.49167
2.53796
2.62298
2.62793
2.57452
2.26376
1.86324
1.73839
1.71317
1.70875
1.70218
1.66416
1.60023
1.52479
1.45216
1.40348
1.38336
0.860983
0.387717
0.0213351
0.483728
0.5774
0.593245
0.599179
0.607769
0.619098
0.631633
0.641014
0.646057
0.647499
2.49446
2.53026
2.54999
2.55668
2.56938
2.57236
2.58283
2.5998
2.62399
2.64885
2.67055
2.70047
2.76441
2.7605
2.70713
2.41787
1.97607
1.82835
1.77807
1.753
1.72665
1.67477
1.60029
1.52215
1.45362
1.40591
1.38744
0.875083
0.403926
0.0414399
0.489035
0.578005
0.593497
0.599414
0.607097
0.61661
0.627241
0.635576
0.640574
0.64236
3.03487
3.03405
3.04152
3.04387
3.03405
3.01925
2.99743
2.97109
2.9547
2.9411
2.92375
2.92875
2.96066
2.94571
2.88625
2.61626
2.12497
1.94463
1.86109
1.81165
1.75978
1.67868
1.58693
1.50702
1.44782
1.4051
1.37285
0.846848
0.38742
0.079213
0.502521
0.579519
0.593914
0.599849
0.606874
0.615115
0.624396
0.632175
0.637656
0.640637
3.18831
3.19142
3.18293
3.16489
3.14888
3.13612
3.12279
3.10813
3.09665
3.07643
3.05049
3.04125
3.03943
3.02485
2.95897
2.67883
2.16771
1.98082
1.88638
1.82899
1.77401
1.68971
1.59479
1.51283
1.44368
1.39195
1.33093
0.806978
0.366149
0.129551
0.516038
0.579687
0.593087
0.600236
0.607872
0.615999
0.624201
0.630896
0.636169
0.639654
3.18394
3.18838
3.19496
3.1832
3.16788
3.15436
3.14261
3.13526
3.13
3.11722
3.10836
3.10884
3.08112
3.00812
2.91411
2.60192
2.16676
2.0113
1.91057
1.83914
1.75483
1.64466
1.54804
1.47015
1.41049
1.36895
1.27581
0.764399
0.333462
0.179475
0.528099
0.578739
0.591094
0.600614
0.61077
0.620573
0.628805
0.634272
0.638412
0.641474
3.10732
3.10792
3.11277
3.11822
3.12496
3.12535
3.12102
3.12606
3.12118
3.10869
3.11441
3.10221
3.02042
2.93793
2.81926
2.49162
2.16998
2.03331
1.91779
1.82077
1.7053
1.58418
1.49665
1.42979
1.37855
1.33854
1.19725
0.6697
0.239997
0.238532
0.516587
0.556105
0.573656
0.588577
0.600977
0.613987
0.625568
0.631965
0.635657
0.638327
3.01099
3.00994
3.00923
3.01598
3.02635
3.03194
3.0363
3.04067
3.04233
3.04155
3.07348
3.03701
2.94325
2.85903
2.69234
2.37674
2.15805
2.02025
1.89624
1.77621
1.63979
1.52437
1.44274
1.38154
1.32613
1.2785
0.997894
0.44153
0.0539842
0.332896
0.491457
0.502871
0.518968
0.542584
0.568795
0.597631
0.617722
0.63173
0.639592
0.642772
2.90609
2.9054
2.9039
2.90781
2.91449
2.92048
2.92949
2.93537
2.9387
2.95177
2.98752
2.93862
2.83538
2.74019
2.55368
2.27319
2.1083
1.96934
1.83854
1.70211
1.55505
1.45365
1.36518
1.29473
1.2022
1.09721
0.668583
0.255446
0.187838
0.436812
0.477429
0.468826
0.46793
0.477529
0.502067
0.539845
0.581749
0.615744
0.634491
0.643
2.79965
2.79888
2.79794
2.79979
2.8032
2.808
2.81711
2.82482
2.82477
2.83515
2.84675
2.77439
2.68532
2.56962
2.36416
2.17676
2.02857
1.8936
1.73972
1.57395
1.43231
1.31475
1.19178
1.05528
0.954427
0.847231
0.511778
0.239055
0.294441
0.469975
0.457045
0.441008
0.431637
0.427182
0.438701
0.467369
0.515288
0.572327
0.617623
0.644777
2.67303
2.67251
2.67276
2.67425
2.67661
2.68207
2.69062
2.69577
2.69934
2.71301
2.69333
2.61185
2.51975
2.36451
2.19043
2.04803
1.90216
1.71615
1.53433
1.33172
1.16436
1.01169
0.898706
0.838548
0.805235
0.709565
0.440693
0.232663
0.372413
0.461973
0.43052
0.406606
0.392892
0.382683
0.381988
0.40512
0.440314
0.505221
0.57328
0.630955
2.51404
2.51438
2.51686
2.522
2.53055
2.5424
2.55231
2.55231
2.54931
2.53538
2.48675
2.39287
2.28825
2.15837
2.00674
1.81077
1.60372
1.35389
1.10216
0.945494
0.840465
0.779683
0.741695
0.730259
0.73567
0.630719
0.344114
0.265881
0.419017
0.430725
0.397748
0.372499
0.350417
0.33958
0.328655
0.350909
0.377727
0.439515
0.511474
0.587887
2.3219
2.32392
2.3316
2.3423
2.35423
2.36467
2.36422
2.34921
2.30442
2.24139
2.15523
2.04434
1.92185
1.75103
1.55511
1.28307
1.01411
0.837305
0.745294
0.705247
0.681962
0.667949
0.676359
0.672062
0.648841
0.515353
0.301299
0.347439
0.415761
0.396213
0.360286
0.332519
0.302004
0.288567
0.272535
0.293534
0.32559
0.385581
0.447769
0.513591
2.09751
2.1005
2.10761
2.10567
2.0743
2.01821
1.96046
1.88656
1.81565
1.70608
1.59386
1.46646
1.28957
1.07039
0.874486
0.71146
0.632636
0.608729
0.600677
0.599935
0.605829
0.605389
0.601796
0.585362
0.552811
0.433745
0.360277
0.403282
0.401659
0.368604
0.33032
0.300522
0.262104
0.239033
0.214035
0.231616
0.274147
0.33216
0.382222
0.432986
1.77825
1.77725
1.73173
1.65112
1.55931
1.46148
1.35552
1.24377
1.14303
1.05099
0.949079
0.829184
0.70085
0.590312
0.531965
0.510201
0.503136
0.507779
0.52071
0.530751
0.533798
0.522975
0.512014
0.507411
0.479401
0.43554
0.436926
0.424095
0.389134
0.352285
0.304665
0.264075
0.216559
0.184061
0.152369
0.167909
0.213653
0.272655
0.316016
0.35344
1.35447
1.29462
1.1897
1.07037
0.972876
0.893995
0.817507
0.731654
0.638317
0.548746
0.478504
0.44189
0.428747
0.41817
0.411054
0.416509
0.428642
0.44352
0.451037
0.453744
0.449599
0.446253
0.440545
0.437839
0.457844
0.508688
0.483798
0.42811
0.379377
0.339989
0.293652
0.245713
0.190606
0.141487
0.0911285
0.103629
0.164926
0.235001
0.276223
0.30195
0.877479
0.812151
0.735512
0.657467
0.578374
0.505624
0.44423
0.394866
0.358548
0.339257
0.332777
0.336358
0.33797
0.341272
0.348044
0.359672
0.369374
0.373793
0.374909
0.375401
0.376607
0.373548
0.381666
0.44348
0.514921
0.545106
0.515405
0.448565
0.391887
0.341032
0.287359
0.230921
0.168937
0.102626
0.0332189
0.0542071
0.13842
0.211928
0.25437
0.270706
0.640129
0.614379
0.581391
0.532417
0.483933
0.443515
0.413047
0.385808
0.359483
0.336137
0.315932
0.300129
0.297121
0.299929
0.303275
0.303607
0.304376
0.303441
0.304345
0.302839
0.306679
0.33749
0.422856
0.510299
0.550319
0.56481
0.547534
0.486173
0.418927
0.365569
0.312901
0.254931
0.191483
0.126518
0.0760013
0.0787065
0.157801
0.23516
0.28056
0.288875
0.666219
0.650188
0.6158
0.578451
0.544133
0.509041
0.475599
0.440432
0.401874
0.361778
0.32364
0.290371
0.273121
0.265013
0.25568
0.242638
0.23414
0.230754
0.23497
0.255085
0.317402
0.4223
0.50575
0.549373
0.569839
0.581016
0.574845
0.532271
0.463844
0.397533
0.343037
0.295933
0.23758
0.186731
0.153258
0.162528
0.213127
0.279965
0.328011
0.330526
0.705292
0.693896
0.675917
0.648381
0.614748
0.579556
0.544249
0.508712
0.470438
0.4267
0.379941
0.331805
0.287449
0.24225
0.200306
0.169041
0.156672
0.174491
0.234085
0.332914
0.441061
0.510103
0.546268
0.567338
0.577523
0.590862
0.592081
0.575429
0.525532
0.459805
0.404555
0.353903
0.294991
0.253195
0.220669
0.237552
0.280238
0.337983
0.385953
0.388518
0.730643
0.728395
0.710634
0.688247
0.663956
0.635534
0.604738
0.571639
0.534686
0.493101
0.445743
0.388966
0.325963
0.254513
0.159641
0.0694394
0.114103
0.237239
0.363467
0.461093
0.514758
0.545122
0.561399
0.573975
0.582496
0.596693
0.604557
0.604914
0.579514
0.528881
0.469927
0.405785
0.339354
0.294099
0.261375
0.280692
0.324449
0.382423
0.439439
0.462271
0.69884
0.704146
0.68908
0.676186
0.669011
0.663188
0.662922
0.657454
0.646934
0.627586
0.594153
0.53513
0.438141
0.290586
0.113911
0.0841729
0.26764
0.406243
0.486963
0.525059
0.546999
0.559551
0.569826
0.581182
0.588826
0.601769
0.611223
0.62036
0.620918
0.597332
0.537451
0.4586
0.378757
0.322032
0.279141
0.29091
0.326307
0.3834
0.45899
0.507279
0.69884
0.704146
0.68908
0.676186
0.669011
0.663188
0.662922
0.657454
0.646934
0.627586
0.594153
0.53513
0.438141
0.290586
0.113911
0.0841729
0.26764
0.406243
0.486963
0.525059
0.546999
0.559551
0.569826
0.581182
0.588826
0.601769
0.611223
0.62036
0.620918
0.597332
0.537451
0.4586
0.378757
0.322032
0.279141
0.29091
0.326307
0.3834
0.45899
0.507279
0.730643
0.728395
0.710634
0.688247
0.663956
0.635534
0.604738
0.571639
0.534686
0.493101
0.445743
0.388966
0.325963
0.254513
0.159641
0.0694394
0.114103
0.237239
0.363467
0.461093
0.514758
0.545122
0.561399
0.573975
0.582496
0.596693
0.604557
0.604914
0.579514
0.528881
0.469927
0.405785
0.339354
0.294099
0.261375
0.280692
0.324449
0.382423
0.439439
0.462271
0.705292
0.693896
0.675917
0.648381
0.614748
0.579556
0.544249
0.508712
0.470438
0.4267
0.379941
0.331805
0.287449
0.24225
0.200306
0.169041
0.156672
0.174491
0.234085
0.332914
0.441061
0.510103
0.546268
0.567338
0.577523
0.590862
0.592081
0.575429
0.525532
0.459805
0.404555
0.353903
0.294991
0.253195
0.220669
0.237552
0.280238
0.337983
0.385953
0.388518
0.666219
0.650188
0.6158
0.578451
0.544133
0.509041
0.475599
0.440432
0.401874
0.361778
0.32364
0.290371
0.273121
0.265013
0.25568
0.242638
0.23414
0.230754
0.23497
0.255085
0.317402
0.4223
0.50575
0.549373
0.569839
0.581016
0.574845
0.532271
0.463844
0.397533
0.343037
0.295933
0.23758
0.186731
0.153258
0.162528
0.213127
0.279965
0.328011
0.330526
0.640129
0.614379
0.581391
0.532417
0.483933
0.443515
0.413047
0.385808
0.359483
0.336137
0.315932
0.300129
0.297121
0.299929
0.303275
0.303607
0.304376
0.303441
0.304345
0.302839
0.306679
0.33749
0.422856
0.510299
0.550319
0.56481
0.547534
0.486173
0.418927
0.365569
0.312901
0.254931
0.191483
0.126518
0.0760013
0.0787065
0.157801
0.23516
0.28056
0.288875
0.877479
0.812151
0.735512
0.657467
0.578374
0.505624
0.44423
0.394866
0.358548
0.339257
0.332777
0.336358
0.33797
0.341272
0.348044
0.359672
0.369374
0.373793
0.374909
0.375401
0.376607
0.373548
0.381666
0.44348
0.514921
0.545106
0.515405
0.448565
0.391887
0.341032
0.287359
0.230921
0.168937
0.102626
0.0332189
0.0542071
0.13842
0.211928
0.25437
0.270706
1.35447
1.29462
1.1897
1.07037
0.972876
0.893995
0.817507
0.731654
0.638317
0.548746
0.478504
0.44189
0.428747
0.41817
0.411054
0.416509
0.428642
0.44352
0.451037
0.453744
0.449599
0.446253
0.440545
0.437839
0.457844
0.508688
0.483798
0.42811
0.379377
0.339989
0.293652
0.245713
0.190606
0.141487
0.0911285
0.103629
0.164926
0.235001
0.276223
0.30195
1.77825
1.77725
1.73173
1.65112
1.55931
1.46148
1.35552
1.24377
1.14303
1.05099
0.949079
0.829184
0.70085
0.590312
0.531965
0.510201
0.503136
0.507779
0.52071
0.530751
0.533798
0.522975
0.512014
0.507411
0.479401
0.43554
0.436926
0.424095
0.389134
0.352285
0.304665
0.264075
0.216559
0.184061
0.152369
0.167909
0.213653
0.272655
0.316016
0.35344
2.09751
2.1005
2.10761
2.10567
2.0743
2.01821
1.96046
1.88656
1.81565
1.70608
1.59386
1.46646
1.28957
1.07039
0.874486
0.71146
0.632636
0.608729
0.600677
0.599935
0.605829
0.605389
0.601796
0.585362
0.552811
0.433745
0.360277
0.403282
0.401659
0.368604
0.33032
0.300522
0.262104
0.239033
0.214035
0.231616
0.274147
0.33216
0.382222
0.432986
2.3219
2.32392
2.3316
2.3423
2.35423
2.36467
2.36422
2.34921
2.30442
2.24139
2.15523
2.04434
1.92185
1.75103
1.55511
1.28307
1.01411
0.837305
0.745294
0.705247
0.681962
0.667949
0.676359
0.672062
0.648841
0.515353
0.301299
0.347439
0.415761
0.396213
0.360286
0.332519
0.302004
0.288567
0.272535
0.293534
0.32559
0.385581
0.447769
0.513591
2.51404
2.51438
2.51686
2.522
2.53055
2.5424
2.55231
2.55231
2.54931
2.53538
2.48675
2.39287
2.28825
2.15837
2.00674
1.81077
1.60372
1.35389
1.10216
0.945494
0.840465
0.779683
0.741695
0.730259
0.73567
0.630719
0.344114
0.265881
0.419017
0.430725
0.397748
0.372499
0.350417
0.33958
0.328655
0.350909
0.377727
0.439515
0.511474
0.587887
2.67303
2.67251
2.67276
2.67425
2.67661
2.68207
2.69062
2.69577
2.69934
2.71301
2.69333
2.61185
2.51975
2.36451
2.19043
2.04803
1.90216
1.71615
1.53433
1.33172
1.16436
1.01169
0.898706
0.838548
0.805235
0.709565
0.440693
0.232663
0.372413
0.461973
0.43052
0.406606
0.392892
0.382683
0.381988
0.40512
0.440314
0.505221
0.57328
0.630955
2.79965
2.79888
2.79794
2.79979
2.8032
2.808
2.81711
2.82482
2.82477
2.83515
2.84675
2.77439
2.68532
2.56962
2.36416
2.17676
2.02857
1.8936
1.73972
1.57395
1.43231
1.31475
1.19178
1.05528
0.954427
0.847231
0.511778
0.239055
0.294441
0.469975
0.457045
0.441008
0.431637
0.427182
0.438701
0.467369
0.515288
0.572327
0.617623
0.644777
2.90609
2.9054
2.9039
2.90781
2.91449
2.92048
2.92949
2.93537
2.9387
2.95177
2.98752
2.93862
2.83538
2.74019
2.55368
2.27319
2.1083
1.96934
1.83854
1.70211
1.55505
1.45365
1.36518
1.29473
1.2022
1.09721
0.668583
0.255446
0.187838
0.436812
0.477429
0.468826
0.46793
0.477529
0.502067
0.539845
0.581749
0.615744
0.634491
0.643
3.01099
3.00994
3.00923
3.01598
3.02635
3.03194
3.0363
3.04067
3.04233
3.04155
3.07348
3.03701
2.94325
2.85903
2.69234
2.37674
2.15805
2.02025
1.89624
1.77621
1.63979
1.52437
1.44274
1.38154
1.32613
1.2785
0.997894
0.44153
0.0539842
0.332896
0.491457
0.502871
0.518968
0.542584
0.568795
0.597631
0.617722
0.63173
0.639592
0.642772
3.10732
3.10792
3.11277
3.11822
3.12496
3.12535
3.12102
3.12606
3.12118
3.10869
3.11441
3.10221
3.02042
2.93793
2.81926
2.49162
2.16998
2.03331
1.91779
1.82077
1.7053
1.58418
1.49665
1.42979
1.37855
1.33854
1.19725
0.6697
0.239997
0.238532
0.516587
0.556105
0.573656
0.588577
0.600977
0.613987
0.625568
0.631965
0.635657
0.638327
3.18394
3.18838
3.19496
3.1832
3.16788
3.15436
3.14261
3.13526
3.13
3.11722
3.10836
3.10884
3.08112
3.00812
2.91411
2.60192
2.16676
2.0113
1.91057
1.83914
1.75483
1.64466
1.54804
1.47015
1.41049
1.36895
1.27581
0.764399
0.333462
0.179475
0.528099
0.578739
0.591094
0.600614
0.61077
0.620573
0.628805
0.634272
0.638412
0.641474
3.18831
3.19142
3.18293
3.16489
3.14888
3.13612
3.12279
3.10813
3.09665
3.07643
3.05049
3.04125
3.03943
3.02485
2.95897
2.67883
2.16771
1.98082
1.88638
1.82899
1.77401
1.68971
1.59479
1.51283
1.44368
1.39195
1.33093
0.806978
0.366149
0.129551
0.516038
0.579687
0.593087
0.600236
0.607872
0.615999
0.624201
0.630896
0.636169
0.639654
3.03487
3.03405
3.04152
3.04387
3.03405
3.01925
2.99743
2.97109
2.9547
2.9411
2.92375
2.92875
2.96066
2.94571
2.88625
2.61626
2.12497
1.94463
1.86109
1.81165
1.75978
1.67868
1.58693
1.50702
1.44782
1.4051
1.37285
0.846848
0.38742
0.079213
0.502521
0.579519
0.593914
0.599849
0.606874
0.615115
0.624396
0.632175
0.637656
0.640637
2.49446
2.53026
2.54999
2.55668
2.56938
2.57236
2.58283
2.5998
2.62399
2.64885
2.67055
2.70047
2.76441
2.7605
2.70713
2.41787
1.97607
1.82835
1.77807
1.753
1.72665
1.67477
1.60029
1.52215
1.45362
1.40591
1.38744
0.875083
0.403926
0.0414399
0.489035
0.578005
0.593497
0.599414
0.607097
0.61661
0.627241
0.635576
0.640574
0.64236
)
;

boundaryField
{
    inlet
    {
        type            calculated;
        value           uniform 0;
    }
    outlet
    {
        type            calculated;
        value           nonuniform List<scalar> 
165
(
2.49446
3.03487
3.18831
3.18394
3.10732
3.01099
2.90609
2.79965
2.67303
2.51404
2.3219
2.09751
1.77825
1.35447
0.877479
0.640129
0.666219
0.705292
0.730643
0.69884
0.69884
0.704146
0.68908
0.676186
0.669011
0.663188
0.662922
0.657454
0.646934
0.627586
0.594153
0.53513
0.438141
0.290586
0.113911
0.0841729
0.26764
0.406243
0.486963
0.525059
0.546999
0.559551
0.569826
0.581182
0.588826
0.601769
0.611223
0.62036
0.620918
0.597332
0.537451
0.4586
0.378757
0.322032
0.279141
0.29091
0.326307
0.3834
0.45899
0.507279
0.64236
0.640637
0.639654
0.641474
0.638327
0.642772
0.643
0.644777
0.630955
0.587887
0.513591
0.432986
0.35344
0.30195
0.270706
0.288875
0.330526
0.388518
0.462271
0.507279
0.647499
0.649992
0.64947
0.649992
0.647499
0.507279
0.462271
0.388518
0.330526
0.288875
0.270706
0.30195
0.35344
0.432986
0.513591
0.587887
0.630955
0.644777
0.643
0.642772
0.638327
0.641474
0.639654
0.640637
0.64236
0.69884
0.704146
0.68908
0.676186
0.669011
0.663188
0.662922
0.657454
0.646934
0.627586
0.594153
0.53513
0.438141
0.290586
0.113911
0.0841729
0.26764
0.406243
0.486963
0.525059
0.546999
0.559551
0.569826
0.581182
0.588826
0.601769
0.611223
0.62036
0.620918
0.597332
0.537451
0.4586
0.378757
0.322032
0.279141
0.29091
0.326307
0.3834
0.45899
0.507279
0.69884
0.730643
0.705292
0.666219
0.640129
0.877479
1.35447
1.77825
2.09751
2.3219
2.51404
2.67303
2.79965
2.90609
3.01099
3.10732
3.18394
3.18831
3.03487
2.49446
)
;
    }
    obstacle
    {
        type            calculated;
        value           nonuniform List<scalar> 
40
(
1.03433
0.155039
0.11279
0.129969
0.135819
0.131466
0.124637
0.117062
0.110973
0.0963027
1.03433
0.155039
0.11279
0.129969
0.135819
0.131466
0.124637
0.117062
0.110973
0.0963027
0.104325
0.145336
0.199519
0.285959
0.431023
0.104325
0.145336
0.199519
0.285959
0.431023
0.942681
1.33936
1.60684
1.7816
1.9663
0.942681
1.33936
1.60684
1.7816
1.9663
)
;
    }
    empty
    {
        type            empty;
    }
}


// ************************************************************************* //
