/*--------------------------------*- C++ -*----------------------------------*\
| =========                 |                                                 |
| \\      /  F ield         | OpenFOAM: The Open Source CFD Toolbox           |
|  \\    /   O peration     | Version:  v1912                                 |
|   \\  /    A nd           | Website:  www.openfoam.com                      |
|    \\/     M anipulation  |                                                 |
\*---------------------------------------------------------------------------*/
FoamFile
{
    version     2.0;
    format      ascii;
    class       volScalarField;
    location    "8.26";
    object      p;
}
// * * * * * * * * * * * * * * * * * * * * * * * * * * * * * * * * * * * * * //

dimensions      [1 -1 -2 0 0 0 0];


internalField   nonuniform List<scalar> 
1900
(
14581.2
8905.61
8463.09
8412.05
8374.23
8351.54
8348.95
8370.17
8389.1
8415.58
14581.2
8905.56
8463
8412.08
8374.36
8352.4
8349.96
8367.26
8396.57
8403.87
14581.2
8905.54
8462.97
8412.17
8374.57
8352.84
8349.28
8363.91
8386.09
8387.97
14581.2
8905.56
8463
8412.08
8374.36
8352.4
8349.96
8367.26
8396.57
8403.87
14581.2
8905.61
8463.09
8412.05
8374.23
8351.54
8348.95
8370.17
8389.1
8415.58
8565.16
8401.08
8333.28
8160.95
8387.92
8399.88
8296.19
8237.84
8062.06
7947.71
8370.37
8276.76
8230.98
8092.26
7983.87
8399.88
8296.19
8237.84
8062.06
7947.71
8565.16
8401.08
8333.28
8160.95
8387.92
3499.98
2029.03
1418.97
1103.69
835.103
3963.34
2241.46
1531.81
1189.48
883.919
4075.07
2202.93
1484.49
1155.49
839.947
3963.34
2241.46
1531.81
1189.48
883.919
3499.98
2029.03
1418.97
1103.69
835.103
880.171
906.575
885.909
861.249
830.3
785.803
737.866
673.815
584.348
561.198
605.573
913.979
1218.18
1268.05
1248.25
1219.57
1206.15
1189.44
1156.57
1087.99
984.5
855.348
691.846
484.106
307.208
245.913
235.335
230.031
227.429
245.926
372.039
524.708
606.603
660.69
714.878
770.416
822.078
873.64
926.671
970.323
828.133
877.412
909.066
885.764
842.433
781.526
727.924
662.835
577.269
555.676
600.72
913.514
1220.97
1267.93
1246.37
1215.53
1200.9
1186.31
1158.75
1090.78
986.605
856.506
694.539
486.685
308.052
245.982
235.321
230.017
227.419
245.91
372.03
524.65
606.51
660.592
714.786
770.405
822.099
873.685
926.814
970.516
810.241
841.503
891.958
888.39
857.059
797.271
738.028
669.019
580.159
559.293
604.148
909.735
1224.14
1271.27
1246.73
1216.17
1201.29
1184.58
1158.71
1110.36
1007.13
866.568
696.409
486.366
307.832
245.974
235.316
230.013
227.417
245.907
372.038
524.627
606.462
660.542
714.745
770.403
822.112
873.66
926.718
970.351
828.133
877.412
909.066
885.764
842.433
781.526
727.924
662.835
577.269
555.676
600.72
913.514
1220.97
1267.93
1246.37
1215.53
1200.9
1186.31
1158.75
1090.78
986.605
856.506
694.539
486.685
308.052
245.982
235.321
230.017
227.419
245.91
372.03
524.65
606.51
660.592
714.786
770.405
822.099
873.685
926.814
970.516
880.171
906.575
885.909
861.249
830.3
785.803
737.866
673.815
584.348
561.198
605.573
913.979
1218.18
1268.05
1248.25
1219.57
1206.15
1189.44
1156.57
1087.99
984.5
855.348
691.846
484.106
307.208
245.913
235.335
230.031
227.429
245.926
372.039
524.708
606.603
660.69
714.878
770.416
822.078
873.64
926.671
970.323
973.691
903.928
842.96
812.434
780.124
748.605
720.312
673.971
601.724
570.573
616.266
936.086
1200.61
1267.95
1264.04
1259.15
1252.58
1226.86
1171.05
1083.79
974.127
847.294
687.467
479.769
304.436
245.584
235.396
230.097
227.479
245.967
371.989
524.883
606.914
660.961
715.049
770.352
821.842
873.493
926.424
970.25
968.572
883.561
801.103
748.453
707.02
679.468
660.156
628.755
587.787
576.942
642.276
967.738
1181.66
1241.29
1206.15
1192.12
1185.56
1163.85
1122.22
1047.53
944.663
819.901
662.03
459.567
296.761
244.921
235.547
230.262
227.62
246.071
371.847
525.327
607.76
661.847
715.793
770.715
821.632
872.861
925.536
969.633
970.054
937.655
897.663
847.146
796.499
748.24
698.157
658.31
618.958
610.829
712.126
1014.69
1175.53
1217.56
1174.19
1167.08
1157.26
1127.44
1080.19
1007.6
909.907
787.886
629.103
431.881
286.781
244.209
235.817
230.56
227.895
246.288
371.628
525.846
608.916
663.164
717.013
771.574
821.877
872.383
924.913
969.559
969.758
914.422
867.997
819.258
770.858
719.808
653.776
623.627
631.679
651.891
779.206
985.219
1112.23
1155.82
1132.9
1146.48
1123.92
1084.65
1033.51
961.221
865.016
744.234
586.342
399.35
276.573
243.759
236.263
231.043
228.388
246.759
371.75
526.894
610.724
665.135
718.901
773.006
822.696
872.323
924.674
969.847
975.95
927.106
878.179
827.492
781.519
728.874
664.314
647.495
668.09
734.465
877.872
1015.51
1109.65
1108.14
1104.21
1112.19
1078.04
1036.82
982.915
908.011
811.855
692.632
536.93
365.06
267.571
243.7
236.91
231.684
229.105
247.356
371.57
527.448
612.026
666.565
720.328
774.06
823.297
872.04
924.288
970.013
977.671
932.976
886.149
836.837
789.526
736.427
701.885
705.311
725.871
780.127
896.712
1007.78
1048.47
1041.05
1080.94
1063.18
1025.45
983.218
925.833
848.851
753.721
636.218
483.529
332.227
260.705
243.922
237.523
232.276
229.841
248.096
371.908
528.315
613.247
667.608
721.376
774.833
823.864
871.884
923.986
970.197
977.705
933.371
887.093
839.213
798.831
764.107
746.208
756.061
784.116
829.127
908.113
961.333
965.487
1017.11
1025.3
995.055
966.506
924.611
863.575
785.621
692.606
575.986
428.263
303.747
255.631
243.775
237.536
232.262
230.003
247.938
370.214
526.847
612.367
666.691
720.594
774.106
823.462
871.346
923.526
970.211
977.335
933.697
889.984
850.174
818.022
789.53
774.076
777.295
795.852
839.367
888.523
899.282
932.888
960.148
950.685
937.004
907.381
860.614
796.537
719.184
628.176
512.672
376.298
283.111
252.74
243.66
237.531
232.364
230.365
248.272
370.087
529.361
617.717
672.321
724.481
775.807
823.507
870.985
923.327
970.455
978.367
937.35
892.745
849.359
815.197
793.939
787.953
791.582
807.882
836.149
842.176
848.697
885.53
902.955
897.389
878.096
843.273
791.623
729.151
658.146
571.519
456.182
339.361
275.429
257.481
249.974
243.962
238.981
237.377
256.068
382.356
549.785
642.56
696.805
747.645
794.647
835.222
874.461
924.031
970.681
979.288
934.745
885.701
848.765
825.986
812.991
801.786
790.063
790.852
791.919
788.18
823.072
857.033
850.863
839.778
817.936
784.346
742.354
690.628
628.751
548.077
434.073
337.396
303.466
294.113
289.274
284.85
281.58
281.659
309.078
473.517
675.3
769.826
805.42
829.68
849.422
869.618
896.843
932.25
972.188
984.293
924.983
880.753
847.663
818.936
789.272
760.343
755.826
768.683
772.858
785.595
800.769
794.644
797.63
801.635
800.241
788.798
769.213
747.401
704.848
615.831
512.548
454.89
438.782
433.792
430.232
425.794
422.783
426.157
478.071
697.016
905.691
986.035
997.777
1000.59
990.42
967.128
950.2
956.105
975.033
977.172
908.046
851.194
802.913
760.123
742.919
750.282
756.932
753.476
753.662
756.025
775.228
809.945
851.81
895.552
933.375
958.208
960.67
929.147
847.295
723.691
626.021
590.565
579.481
571.761
565.213
557.807
552.833
559.461
626.831
849.59
1037.5
1112.17
1119.64
1128.34
1125.31
1095.2
1050.67
1014.27
985.894
962.594
918.122
874.428
856.632
850.209
845.885
826.057
806.829
806.732
828.238
885.115
966.88
1057.05
1129.23
1164.34
1165.67
1139.83
1085.53
987.497
851.547
734.267
681.174
664.238
654.174
644.812
637.127
628.852
623.707
633.079
699.645
905.25
1084.07
1166.65
1179.3
1195.57
1201.83
1178.18
1133.58
1078.4
1007.17
1016.16
1014.75
1028.19
1055.58
1091.57
1134.04
1178.04
1221.67
1237.95
1246.8
1270.48
1296.61
1311.99
1304.18
1268.35
1208.99
1136.95
1045.7
921.346
804.22
743.228
723.789
713.783
704.741
695.57
688.298
680.446
675.614
685.998
741.108
916.061
1084.61
1171.82
1187.27
1204.97
1216.27
1199.24
1160.32
1108.72
1023.8
1066.72
1121.98
1200.75
1275.29
1351.66
1428.6
1513.28
1574.81
1576.32
1528.85
1461.07
1397.78
1336.68
1278.59
1224.29
1162.46
1073.79
959.316
854.332
797.067
777.321
769.598
761.894
753.379
744.782
738.372
731.56
727.062
737.222
778.132
921.352
1086.32
1182.8
1200.63
1214.48
1220.1
1201.14
1159
1103.99
1020.45
1098.57
1163.33
1258.43
1335.84
1413.48
1490.58
1579.68
1641.81
1642.74
1584.57
1482.12
1376.04
1290.4
1220.91
1155.64
1079.86
985.568
896.21
845.651
826.563
821.9
816.724
809.259
801.036
793.144
787.633
781.994
777.903
784.989
813.981
919.734
1075.21
1181.54
1208.27
1215.42
1220.1
1202.65
1157.15
1096.73
1018.27
1073.47
1135.96
1224.36
1299.51
1382.73
1473.56
1578.68
1646.54
1643.58
1561.14
1422.38
1301.21
1219.25
1152.17
1077.67
994.797
923.179
882.912
867.549
864.668
863.058
858.461
851.348
843.98
837.217
832.842
828.594
825.472
827.224
849.19
913.972
1042.59
1153.64
1191.85
1195.72
1199.5
1185.98
1140.65
1073.49
1005.71
1038.04
1070.55
1153.06
1220.45
1306.86
1396.91
1494.19
1549.32
1538.12
1442.9
1303.4
1199.67
1131.46
1069.31
1001.4
945.47
913.549
901.942
901.714
903.098
902.228
898.169
891.908
885.626
879.988
876.45
873.301
871.085
870.28
883.06
919.087
1006.06
1106.39
1153.01
1154.85
1153.78
1139.32
1113.56
1059.04
981.994
1013.77
962.179
1072.24
1124.58
1203.06
1280.53
1354.82
1388.6
1365.53
1273.42
1173.37
1107.42
1059.32
1014.96
975.408
948.877
937.942
937.995
941.008
942.839
942.369
939.543
935.356
931.3
927.812
925.557
923.616
922.307
921.595
925.542
941.374
986.245
1053.2
1098.34
1100.37
1095.06
1073.34
1060.28
1015.73
877.175
2461.15
906.599
1007.83
1035.97
1088.7
1126.22
1148.24
1143.33
1105.82
1057.02
1023.5
1003.76
987.358
975.306
969.594
968.557
969.918
971.684
972.581
973.037
973.119
972.562
971.632
970.962
970.53
970.544
970.349
970.434
970.549
971.468
973.362
980.878
997.654
1019.1
1019.52
1018.48
1006.73
985.04
882.45
1015.68
2461.15
906.599
1007.83
1035.97
1088.7
1126.22
1148.24
1143.33
1105.82
1057.02
1023.5
1003.76
987.358
975.306
969.594
968.557
969.918
971.684
972.581
973.037
973.119
972.562
971.632
970.962
970.53
970.544
970.349
970.434
970.549
971.468
973.362
980.878
997.654
1019.1
1019.52
1018.48
1006.73
985.04
882.45
1015.68
1013.77
962.179
1072.24
1124.58
1203.06
1280.53
1354.82
1388.6
1365.53
1273.42
1173.37
1107.42
1059.32
1014.96
975.408
948.877
937.942
937.995
941.008
942.839
942.369
939.543
935.356
931.3
927.812
925.557
923.616
922.307
921.595
925.542
941.374
986.245
1053.2
1098.34
1100.37
1095.06
1073.34
1060.28
1015.73
877.175
1038.04
1070.55
1153.06
1220.45
1306.86
1396.91
1494.19
1549.32
1538.12
1442.9
1303.4
1199.67
1131.46
1069.31
1001.4
945.47
913.549
901.942
901.714
903.098
902.228
898.169
891.908
885.626
879.988
876.45
873.301
871.085
870.28
883.06
919.087
1006.06
1106.39
1153.01
1154.85
1153.78
1139.32
1113.56
1059.04
981.994
1073.47
1135.96
1224.36
1299.51
1382.73
1473.56
1578.68
1646.54
1643.58
1561.14
1422.38
1301.21
1219.25
1152.17
1077.67
994.797
923.179
882.912
867.549
864.668
863.058
858.461
851.348
843.98
837.217
832.842
828.594
825.472
827.224
849.19
913.972
1042.59
1153.64
1191.85
1195.72
1199.5
1185.98
1140.65
1073.49
1005.71
1098.57
1163.33
1258.43
1335.84
1413.48
1490.58
1579.68
1641.81
1642.74
1584.57
1482.12
1376.04
1290.4
1220.91
1155.64
1079.86
985.568
896.21
845.651
826.563
821.9
816.724
809.259
801.036
793.144
787.633
781.994
777.903
784.989
813.981
919.734
1075.21
1181.54
1208.27
1215.42
1220.1
1202.65
1157.15
1096.73
1018.27
1066.72
1121.98
1200.75
1275.29
1351.66
1428.6
1513.28
1574.81
1576.32
1528.85
1461.07
1397.78
1336.68
1278.59
1224.29
1162.46
1073.79
959.316
854.332
797.067
777.321
769.598
761.894
753.379
744.782
738.372
731.56
727.062
737.222
778.132
921.352
1086.32
1182.8
1200.63
1214.48
1220.1
1201.14
1159
1103.99
1020.45
1016.16
1014.75
1028.19
1055.58
1091.57
1134.04
1178.04
1221.67
1237.95
1246.8
1270.48
1296.61
1311.99
1304.18
1268.35
1208.99
1136.95
1045.7
921.346
804.22
743.228
723.789
713.783
704.741
695.57
688.298
680.446
675.614
685.998
741.108
916.061
1084.61
1171.82
1187.27
1204.97
1216.27
1199.24
1160.32
1108.72
1023.8
962.594
918.122
874.428
856.632
850.209
845.885
826.057
806.829
806.732
828.238
885.115
966.88
1057.05
1129.23
1164.34
1165.67
1139.83
1085.53
987.497
851.547
734.267
681.174
664.238
654.174
644.812
637.127
628.852
623.707
633.079
699.645
905.25
1084.07
1166.65
1179.3
1195.57
1201.83
1178.18
1133.58
1078.4
1007.17
977.172
908.046
851.194
802.913
760.123
742.919
750.282
756.932
753.476
753.662
756.025
775.228
809.945
851.81
895.552
933.375
958.208
960.67
929.147
847.295
723.691
626.021
590.565
579.481
571.761
565.213
557.807
552.833
559.461
626.831
849.59
1037.5
1112.17
1119.64
1128.34
1125.31
1095.2
1050.67
1014.27
985.894
984.293
924.983
880.753
847.663
818.936
789.272
760.343
755.826
768.683
772.858
785.595
800.769
794.644
797.63
801.635
800.241
788.798
769.213
747.401
704.848
615.831
512.548
454.89
438.782
433.792
430.232
425.794
422.783
426.157
478.071
697.016
905.691
986.035
997.777
1000.59
990.42
967.128
950.2
956.105
975.033
979.288
934.745
885.701
848.765
825.986
812.991
801.786
790.063
790.852
791.919
788.18
823.072
857.033
850.863
839.778
817.936
784.346
742.354
690.628
628.751
548.077
434.073
337.396
303.466
294.113
289.274
284.85
281.58
281.659
309.078
473.517
675.3
769.826
805.42
829.68
849.422
869.618
896.843
932.25
972.188
978.367
937.35
892.745
849.359
815.197
793.939
787.953
791.582
807.882
836.149
842.176
848.697
885.53
902.955
897.389
878.096
843.273
791.623
729.151
658.146
571.519
456.182
339.361
275.429
257.481
249.974
243.962
238.981
237.377
256.068
382.356
549.785
642.56
696.805
747.645
794.647
835.222
874.461
924.031
970.681
977.335
933.697
889.984
850.174
818.022
789.53
774.076
777.295
795.852
839.367
888.523
899.282
932.888
960.148
950.685
937.004
907.381
860.614
796.537
719.184
628.176
512.672
376.298
283.111
252.74
243.66
237.531
232.364
230.365
248.272
370.087
529.361
617.717
672.321
724.481
775.807
823.507
870.985
923.327
970.455
977.705
933.371
887.093
839.213
798.831
764.107
746.208
756.061
784.116
829.127
908.113
961.333
965.487
1017.11
1025.3
995.055
966.506
924.611
863.575
785.621
692.606
575.986
428.263
303.747
255.631
243.775
237.536
232.262
230.003
247.938
370.214
526.847
612.367
666.691
720.594
774.106
823.462
871.346
923.526
970.211
977.671
932.976
886.149
836.837
789.526
736.427
701.885
705.311
725.871
780.127
896.712
1007.78
1048.47
1041.05
1080.94
1063.18
1025.45
983.218
925.833
848.851
753.721
636.218
483.529
332.227
260.705
243.922
237.523
232.276
229.841
248.096
371.908
528.315
613.247
667.608
721.376
774.833
823.864
871.884
923.986
970.197
975.95
927.106
878.179
827.492
781.519
728.874
664.314
647.495
668.09
734.465
877.872
1015.51
1109.65
1108.14
1104.21
1112.19
1078.04
1036.82
982.915
908.011
811.855
692.632
536.93
365.06
267.571
243.7
236.91
231.684
229.105
247.356
371.57
527.448
612.026
666.565
720.328
774.06
823.297
872.04
924.288
970.013
969.758
914.422
867.997
819.258
770.858
719.808
653.776
623.627
631.679
651.891
779.206
985.219
1112.23
1155.82
1132.9
1146.48
1123.92
1084.65
1033.51
961.221
865.016
744.234
586.342
399.35
276.573
243.759
236.263
231.043
228.388
246.759
371.75
526.894
610.724
665.135
718.901
773.006
822.696
872.323
924.674
969.847
970.054
937.655
897.663
847.146
796.499
748.24
698.157
658.31
618.958
610.829
712.126
1014.69
1175.53
1217.56
1174.19
1167.08
1157.26
1127.44
1080.19
1007.6
909.907
787.886
629.103
431.881
286.781
244.209
235.817
230.56
227.895
246.288
371.628
525.846
608.916
663.164
717.013
771.574
821.877
872.383
924.913
969.559
968.572
883.561
801.103
748.453
707.02
679.468
660.156
628.755
587.787
576.942
642.276
967.738
1181.66
1241.29
1206.15
1192.12
1185.56
1163.85
1122.22
1047.53
944.663
819.901
662.03
459.567
296.761
244.921
235.547
230.262
227.62
246.071
371.847
525.327
607.76
661.847
715.793
770.715
821.632
872.861
925.536
969.633
973.691
903.928
842.96
812.434
780.124
748.605
720.312
673.971
601.724
570.573
616.266
936.086
1200.61
1267.95
1264.04
1259.15
1252.58
1226.86
1171.05
1083.79
974.127
847.294
687.467
479.769
304.436
245.584
235.396
230.097
227.479
245.967
371.989
524.883
606.914
660.961
715.049
770.352
821.842
873.493
926.424
970.25
)
;

boundaryField
{
    inlet
    {
        type            fixedValue;
        value           uniform 10000;
    }
    outlet
    {
        type            fixedValue;
        value           uniform 1000;
    }
    obstacle
    {
        type            zeroGradient;
    }
    empty
    {
        type            empty;
    }
}


// ************************************************************************* //
