/*--------------------------------*- C++ -*----------------------------------*\
| =========                 |                                                 |
| \\      /  F ield         | OpenFOAM: The Open Source CFD Toolbox           |
|  \\    /   O peration     | Version:  v1912                                 |
|   \\  /    A nd           | Website:  www.openfoam.com                      |
|    \\/     M anipulation  |                                                 |
\*---------------------------------------------------------------------------*/
FoamFile
{
    version     2.0;
    format      ascii;
    class       volScalarField;
    location    "8.4";
    object      p;
}
// * * * * * * * * * * * * * * * * * * * * * * * * * * * * * * * * * * * * * //

dimensions      [1 -1 -2 0 0 0 0];


internalField   nonuniform List<scalar> 
1900
(
13011
8852.3
8475.51
8425.23
8385.67
8352.56
8333.76
8333.94
8361.9
8402.21
13011
8852.37
8475.56
8425.32
8385.6
8352.22
8334.62
8336.14
8365.08
8396.04
13011
8852.43
8475.6
8425.36
8385.59
8352.26
8334.17
8336.02
8356.17
8380.94
13011
8852.37
8475.56
8425.32
8385.6
8352.22
8334.62
8336.14
8365.08
8396.04
13011
8852.3
8475.51
8425.23
8385.67
8352.56
8333.76
8333.94
8361.9
8402.21
8565.89
8427.38
8379.25
8223.46
8481.67
8417.59
8335.42
8296.65
8135.1
8042.79
8387.01
8315.64
8289.89
8163.6
8076.16
8417.59
8335.42
8296.65
8135.1
8042.79
8565.89
8427.38
8379.25
8223.46
8481.67
3537.68
2048.32
1430.29
1112.24
838.551
4006.98
2263.21
1544.42
1198.72
887.645
4119.99
2224.19
1496.58
1164.44
842.85
4006.98
2263.21
1544.42
1198.72
887.645
3537.68
2048.32
1430.29
1112.24
838.551
886.181
921.432
905.98
881.274
851.065
808.977
755.256
703.383
630.464
559.201
559.16
653.227
1029.96
1223.61
1251.93
1229.01
1199.39
1179.69
1154.26
1118.56
1060.58
974.447
861.728
705.729
487.414
295.099
233.294
225.388
229.195
310.9
473.468
571.646
627.171
678.011
731.143
782.496
829.654
877.147
927.239
971.716
834.17
897.305
930.824
905.649
863.338
804.458
743.836
694.107
621.547
554.866
553.835
651.192
1026.33
1225.29
1249.37
1224.52
1194.1
1172.42
1147.42
1113.52
1058.35
974.881
863.702
709.409
490.534
295.963
233.352
225.38
229.189
310.907
473.449
571.563
627.074
677.916
731.079
782.51
829.713
877.233
927.409
971.924
817.674
858.255
912.83
908.351
877.061
822.003
753.989
702.059
625.936
557.983
557.427
655.123
1027.18
1230.64
1251.67
1224.11
1193.44
1171.66
1148.35
1112.68
1070.47
994.418
875.727
712.092
490.379
295.684
233.332
225.377
229.19
310.922
473.449
571.523
627.025
677.871
731.051
782.52
829.728
877.179
927.286
971.75
834.17
897.305
930.824
905.649
863.338
804.458
743.836
694.107
621.547
554.866
553.835
651.192
1026.33
1225.29
1249.37
1224.52
1194.1
1172.42
1147.42
1113.52
1058.35
974.881
863.702
709.409
490.534
295.963
233.352
225.38
229.189
310.907
473.449
571.563
627.074
677.916
731.079
782.51
829.713
877.233
927.409
971.924
886.181
921.432
905.98
881.274
851.065
808.977
755.256
703.383
630.464
559.201
559.16
653.227
1029.96
1223.61
1251.93
1229.01
1199.39
1179.69
1154.26
1118.56
1060.58
974.447
861.728
705.729
487.414
295.099
233.294
225.388
229.195
310.9
473.468
571.646
627.171
678.011
731.143
782.496
829.654
877.147
927.239
971.716
979.099
918.232
859.687
826.528
801.946
767.654
736.746
702.958
646.321
579.081
570.006
663.472
1034.64
1215.26
1250.72
1236.72
1238.61
1246.74
1228.59
1175.43
1084.2
974.307
851.85
696.515
481.456
292.426
233.039
225.422
229.212
310.804
473.511
571.94
627.492
678.226
731.19
782.367
829.457
877.041
927.016
971.566
968.853
892.666
811.311
755.726
718.406
688.024
671.529
651.554
616.39
577.15
578.953
694.833
1036.22
1192.85
1232.93
1193.3
1173.42
1161.18
1136.59
1098.44
1035.37
943.585
827.776
673.07
460.234
284.103
232.428
225.527
229.274
310.567
473.69
572.788
628.481
679.038
731.675
782.396
829.08
876.448
926.17
970.778
973.806
940.267
900.642
851.724
801.587
756.504
715.396
671.923
635.933
597.642
605.286
770.012
1062.45
1194.36
1219.77
1167.68
1155.48
1140.06
1109.01
1066.09
1000.87
911.497
797.722
640.726
430.753
273.503
231.837
225.785
229.473
310.282
473.867
573.964
629.96
680.36
732.645
782.895
829.083
875.938
925.432
970.471
969.505
911.849
866.289
822.349
774.492
730.865
682.509
624.381
610.976
616.361
651.533
818.779
1019.97
1125.42
1147.92
1117.02
1130.53
1110.81
1073.41
1025.09
958.94
871.299
757.399
597.573
395.424
262.88
231.55
226.26
229.894
310.267
474.447
575.661
631.969
682.157
734.052
783.896
829.608
875.752
924.998
970.561
975.969
925.715
879.267
832.228
784.081
742.606
687.435
635.694
633.138
657.677
739.699
897.9
1027.06
1110.94
1103.77
1093.23
1102.66
1069.43
1029.94
980.702
912.812
823.805
707.924
545.724
357.794
253.649
231.493
226.756
230.269
309.79
474.037
576.188
632.751
682.738
734.403
784.141
829.688
875.323
924.507
970.618
978.056
933.236
889.072
843.368
799.172
755.168
700.612
677.378
684.701
708.633
780.553
909.19
1013.85
1056.32
1038.67
1072.9
1061.4
1025.23
984.969
931.542
859.763
768.858
650.585
487.691
321.632
246.383
231.299
226.857
230.262
309.158
473.305
576.07
632.723
682.444
733.922
783.662
829.451
874.859
924.089
970.713
978.898
935.968
893.42
847.833
804.448
764.18
726.988
713.037
735.425
771.53
828.448
915.559
972.816
968.621
1012.97
1033.87
1003.98
972.931
932.218
874.347
799.295
706.947
586.064
427.465
291.113
241.24
230.626
226.353
229.498
307.025
471.635
577.09
635.023
684.064
734.029
782.649
828.443
874.137
923.654
970.721
978.483
936.093
894.761
853.438
817.764
786.075
760.209
753.046
766.06
791.366
842.32
894.331
901.284
939.146
976.793
962.737
945.639
916.936
870.906
808.505
733.432
643.43
523.075
374.388
273.065
242.303
234.342
230.264
233.478
312.501
482.321
592.881
653.151
701.738
749.99
794.146
832.916
874.75
923.748
970.995
979.193
939.258
899.661
858.833
820.597
788.069
768.204
764.752
773.828
800.786
840.075
849.243
855.925
895.931
910.538
909.815
889.837
856.892
811.62
757.989
692.252
605.909
485.816
348.702
277.792
261.14
255.215
252.184
257.428
354.059
557.759
683.385
739.382
770.86
799.538
827.109
855.686
886.405
926.454
971.272
979.092
938.932
891.572
843.953
808.167
787.898
781.893
781.494
783.285
792.457
796.83
793.759
834.838
867.422
864.542
850.71
841.6
827.855
804.053
770.49
729.009
651.929
522.665
418.004
381.493
373.362
368.997
367.859
383.908
540.396
788.355
906.767
944.19
945.772
944.483
934.212
921.296
922.506
941.826
973.49
979.68
932.259
884.052
846.221
820.321
803.084
785.551
764.448
756.979
763.72
757.42
769.401
801.597
815.5
839.523
872.378
902.718
930.31
951.829
947.983
895.241
779.385
635.774
554.754
533.376
525.476
518.201
516.311
545.079
733.981
969.515
1069.89
1103.65
1101.02
1099.48
1083.15
1045.49
1003.56
981.587
978.783
984.624
922.766
873.855
833.287
792.387
748.96
716.045
718.172
738.562
755.322
768.997
799.629
844.959
922.632
1023.03
1116.25
1174.26
1187.93
1161.95
1092.76
962.767
795.569
675.471
634.004
620.763
611.351
602.051
600.351
634.084
816.937
1033.79
1127.59
1165.88
1165.34
1173.12
1171.51
1147.37
1100.73
1046.22
993.939
980.361
928.693
887.026
863.369
853.691
863.105
872.565
866.308
863.705
895.836
969.553
1079.09
1193.23
1284.41
1343.68
1361.51
1337.04
1274.51
1177.71
1051.99
891.895
757.345
700.406
683.628
672.903
663.428
653.877
653.603
685.602
847.179
1050.24
1148.39
1195.67
1200.92
1211.7
1212.83
1191.45
1150.85
1092.69
1013.65
1019.09
1029.63
1051.02
1090.1
1143.47
1208.94
1276.83
1338.04
1390.06
1410.8
1419.49
1439.04
1458.71
1458.97
1431.59
1372.03
1301.06
1219.28
1101.51
949.778
819.595
756.907
738.304
728.836
719.089
709.77
700.307
700.741
726.512
856.574
1044.29
1148.29
1202.47
1210.46
1219.65
1220.65
1201.35
1160.53
1105.36
1021.91
1070.16
1128.01
1206.92
1281.02
1358.4
1440.25
1525.37
1612.71
1663.16
1659.63
1611.92
1549.67
1500.46
1448.79
1386.6
1312.63
1222.97
1115.59
987.501
870.569
809.49
788.938
781.416
773.74
764.248
755.326
746.28
745.713
766.565
864.177
1035.39
1147.59
1207.58
1216.33
1223.53
1221.28
1199.73
1155.57
1096.39
1016.44
1098.43
1157.12
1247.13
1319.66
1396.7
1474.13
1559.74
1655.6
1711.37
1710.5
1659.93
1566.66
1468.1
1380.71
1301.25
1220.77
1122.63
1006.99
906.233
853.229
834.055
828.588
823.164
815.833
806.922
799.075
791.148
788.633
805.841
869.376
1013.26
1135.06
1200.94
1211.59
1214.15
1212.81
1192.87
1149.89
1090.55
1015.94
1068.41
1117.2
1200.25
1272.23
1354.1
1438.16
1534.15
1639.27
1705.38
1703.13
1629.96
1503.28
1381.96
1287.17
1203.15
1112.45
1012.34
930.389
887.456
871.307
868.17
865.872
860.887
854.127
846.507
840.391
834.221
830.767
842.331
879.277
984.501
1106.9
1177.45
1192.22
1190.72
1187.94
1170.09
1129.6
1070.09
1004.36
1031.13
1052.95
1123.94
1188.05
1270.95
1352.81
1450.08
1544.14
1599.45
1588.95
1498.01
1364.38
1255.66
1174.4
1095.11
1014.31
951.219
917.293
904.474
903.658
904.515
902.573
897.954
892.201
886.176
881.647
877.381
874.711
878.078
902.665
961.049
1061.35
1136.22
1156.01
1150.87
1146.23
1129.04
1097.93
1049.07
976.049
986.62
967.534
1053
1093.77
1158.46
1230.05
1317.33
1394.52
1428.95
1400.91
1304.17
1201.56
1130.58
1074.22
1020.63
976.914
949.559
939
939.065
942
943.127
941.398
937.831
933.875
930.088
927.329
924.934
923.488
923.653
932.841
959.227
1017.84
1077.05
1101.86
1094.86
1089.44
1070.48
1049.72
1024.25
907.916
1668.56
881.659
998.732
1016.47
1063.32
1110.5
1156.44
1174
1163.2
1114.81
1061.69
1026.84
1006.54
989.6
976.645
971.073
969.428
970.517
972.138
973.415
974.047
973.782
972.9
972.064
971.386
971.223
970.954
971.066
971.218
972.662
976.132
986.615
1006.19
1020.43
1016.63
1016.61
1005.75
979.184
913.525
845.906
1668.56
881.659
998.732
1016.47
1063.32
1110.5
1156.44
1174
1163.2
1114.81
1061.69
1026.84
1006.54
989.6
976.645
971.073
969.428
970.517
972.138
973.415
974.047
973.782
972.9
972.064
971.386
971.223
970.954
971.066
971.218
972.662
976.132
986.615
1006.19
1020.43
1016.63
1016.61
1005.75
979.184
913.525
845.906
986.62
967.534
1053
1093.77
1158.46
1230.05
1317.33
1394.52
1428.95
1400.91
1304.17
1201.56
1130.58
1074.22
1020.63
976.914
949.559
939
939.065
942
943.127
941.398
937.831
933.875
930.088
927.329
924.934
923.488
923.653
932.841
959.227
1017.84
1077.05
1101.86
1094.86
1089.44
1070.48
1049.72
1024.25
907.916
1031.13
1052.95
1123.94
1188.05
1270.95
1352.81
1450.08
1544.14
1599.45
1588.95
1498.01
1364.38
1255.66
1174.4
1095.11
1014.31
951.219
917.293
904.474
903.658
904.515
902.573
897.954
892.201
886.176
881.647
877.381
874.711
878.078
902.665
961.049
1061.35
1136.22
1156.01
1150.87
1146.23
1129.04
1097.93
1049.07
976.049
1068.41
1117.2
1200.25
1272.23
1354.1
1438.16
1534.15
1639.27
1705.38
1703.13
1629.96
1503.28
1381.96
1287.17
1203.15
1112.45
1012.34
930.389
887.456
871.307
868.17
865.872
860.887
854.127
846.507
840.391
834.221
830.767
842.331
879.277
984.501
1106.9
1177.45
1192.22
1190.72
1187.94
1170.09
1129.6
1070.09
1004.36
1098.43
1157.12
1247.13
1319.66
1396.7
1474.13
1559.74
1655.6
1711.37
1710.5
1659.93
1566.66
1468.1
1380.71
1301.25
1220.77
1122.63
1006.99
906.233
853.229
834.055
828.588
823.164
815.833
806.922
799.075
791.148
788.633
805.841
869.376
1013.26
1135.06
1200.94
1211.59
1214.15
1212.81
1192.87
1149.89
1090.55
1015.94
1070.16
1128.01
1206.92
1281.02
1358.4
1440.25
1525.37
1612.71
1663.16
1659.63
1611.92
1549.67
1500.46
1448.79
1386.6
1312.63
1222.97
1115.59
987.501
870.569
809.49
788.938
781.416
773.74
764.248
755.326
746.28
745.713
766.565
864.177
1035.39
1147.59
1207.58
1216.33
1223.53
1221.28
1199.73
1155.57
1096.39
1016.44
1019.09
1029.63
1051.02
1090.1
1143.47
1208.94
1276.83
1338.04
1390.06
1410.8
1419.49
1439.04
1458.71
1458.97
1431.59
1372.03
1301.06
1219.28
1101.51
949.778
819.595
756.907
738.304
728.836
719.089
709.77
700.307
700.741
726.512
856.574
1044.29
1148.29
1202.47
1210.46
1219.65
1220.65
1201.35
1160.53
1105.36
1021.91
980.361
928.693
887.026
863.369
853.691
863.105
872.565
866.308
863.705
895.836
969.553
1079.09
1193.23
1284.41
1343.68
1361.51
1337.04
1274.51
1177.71
1051.99
891.895
757.345
700.406
683.628
672.903
663.428
653.877
653.603
685.602
847.179
1050.24
1148.39
1195.67
1200.92
1211.7
1212.83
1191.45
1150.85
1092.69
1013.65
984.624
922.766
873.855
833.287
792.387
748.96
716.045
718.172
738.562
755.322
768.997
799.629
844.959
922.632
1023.03
1116.25
1174.26
1187.93
1161.95
1092.76
962.767
795.569
675.471
634.004
620.763
611.351
602.051
600.351
634.084
816.937
1033.79
1127.59
1165.88
1165.34
1173.12
1171.51
1147.37
1100.73
1046.22
993.939
979.68
932.259
884.052
846.221
820.321
803.084
785.551
764.448
756.979
763.72
757.42
769.401
801.597
815.5
839.523
872.378
902.718
930.31
951.829
947.983
895.241
779.385
635.774
554.754
533.376
525.476
518.201
516.311
545.079
733.981
969.515
1069.89
1103.65
1101.02
1099.48
1083.15
1045.49
1003.56
981.587
978.783
979.092
938.932
891.572
843.953
808.167
787.898
781.893
781.494
783.285
792.457
796.83
793.759
834.838
867.422
864.542
850.71
841.6
827.855
804.053
770.49
729.009
651.929
522.665
418.004
381.493
373.362
368.997
367.859
383.908
540.396
788.355
906.767
944.19
945.772
944.483
934.212
921.296
922.506
941.826
973.49
979.193
939.258
899.661
858.833
820.597
788.069
768.204
764.752
773.828
800.786
840.075
849.243
855.925
895.931
910.538
909.815
889.837
856.892
811.62
757.989
692.252
605.909
485.816
348.702
277.792
261.14
255.215
252.184
257.428
354.059
557.759
683.385
739.382
770.86
799.538
827.109
855.686
886.405
926.454
971.272
978.483
936.093
894.761
853.438
817.764
786.075
760.209
753.046
766.06
791.366
842.32
894.331
901.284
939.146
976.793
962.737
945.639
916.936
870.906
808.505
733.432
643.43
523.075
374.388
273.065
242.303
234.342
230.264
233.478
312.501
482.321
592.881
653.151
701.738
749.99
794.146
832.916
874.75
923.748
970.995
978.898
935.968
893.42
847.833
804.448
764.18
726.988
713.037
735.425
771.53
828.448
915.559
972.816
968.621
1012.97
1033.87
1003.98
972.931
932.218
874.347
799.295
706.947
586.064
427.465
291.113
241.24
230.626
226.353
229.498
307.025
471.635
577.09
635.023
684.064
734.029
782.649
828.443
874.137
923.654
970.721
978.056
933.236
889.072
843.368
799.172
755.168
700.612
677.378
684.701
708.633
780.553
909.19
1013.85
1056.32
1038.67
1072.9
1061.4
1025.23
984.969
931.542
859.763
768.858
650.585
487.691
321.632
246.383
231.299
226.857
230.262
309.158
473.305
576.07
632.723
682.444
733.922
783.662
829.451
874.859
924.089
970.713
975.969
925.715
879.267
832.228
784.081
742.606
687.435
635.694
633.138
657.677
739.699
897.9
1027.06
1110.94
1103.77
1093.23
1102.66
1069.43
1029.94
980.702
912.812
823.805
707.924
545.724
357.794
253.649
231.493
226.756
230.269
309.79
474.037
576.188
632.751
682.738
734.403
784.141
829.688
875.323
924.507
970.618
969.505
911.849
866.289
822.349
774.492
730.865
682.509
624.381
610.976
616.361
651.533
818.779
1019.97
1125.42
1147.92
1117.02
1130.53
1110.81
1073.41
1025.09
958.94
871.299
757.399
597.573
395.424
262.88
231.55
226.26
229.894
310.267
474.447
575.661
631.969
682.157
734.052
783.896
829.608
875.752
924.998
970.561
973.806
940.267
900.642
851.724
801.587
756.504
715.396
671.923
635.933
597.642
605.286
770.012
1062.45
1194.36
1219.77
1167.68
1155.48
1140.06
1109.01
1066.09
1000.87
911.497
797.722
640.726
430.753
273.503
231.837
225.785
229.473
310.282
473.867
573.964
629.96
680.36
732.645
782.895
829.083
875.938
925.432
970.471
968.853
892.666
811.311
755.726
718.406
688.024
671.529
651.554
616.39
577.15
578.953
694.833
1036.22
1192.85
1232.93
1193.3
1173.42
1161.18
1136.59
1098.44
1035.37
943.585
827.776
673.07
460.234
284.103
232.428
225.527
229.274
310.567
473.69
572.788
628.481
679.038
731.675
782.396
829.08
876.448
926.17
970.778
979.099
918.232
859.687
826.528
801.946
767.654
736.746
702.958
646.321
579.081
570.006
663.472
1034.64
1215.26
1250.72
1236.72
1238.61
1246.74
1228.59
1175.43
1084.2
974.307
851.85
696.515
481.456
292.426
233.039
225.422
229.212
310.804
473.511
571.94
627.492
678.226
731.19
782.367
829.457
877.041
927.016
971.566
)
;

boundaryField
{
    inlet
    {
        type            fixedValue;
        value           uniform 10000;
    }
    outlet
    {
        type            fixedValue;
        value           uniform 1000;
    }
    obstacle
    {
        type            zeroGradient;
    }
    empty
    {
        type            empty;
    }
}


// ************************************************************************* //
