/*--------------------------------*- C++ -*----------------------------------*\
| =========                 |                                                 |
| \\      /  F ield         | OpenFOAM: The Open Source CFD Toolbox           |
|  \\    /   O peration     | Version:  v1912                                 |
|   \\  /    A nd           | Website:  www.openfoam.com                      |
|    \\/     M anipulation  |                                                 |
\*---------------------------------------------------------------------------*/
FoamFile
{
    version     2.0;
    format      ascii;
    class       volScalarField;
    location    "8";
    object      T;
}
// * * * * * * * * * * * * * * * * * * * * * * * * * * * * * * * * * * * * * //

dimensions      [0 0 0 1 0 0 0];


internalField   nonuniform List<scalar> 
1900
(
1.27265
1.0187
0.940563
0.925983
0.925229
0.929001
0.936951
0.945463
0.950457
0.951818
1.27265
1.0187
0.940569
0.925982
0.925226
0.928993
0.93695
0.945465
0.950573
0.951533
1.27265
1.01871
0.940574
0.925985
0.925229
0.928998
0.936963
0.945355
0.950158
0.950911
1.27265
1.0187
0.940569
0.925982
0.925226
0.928993
0.93695
0.945465
0.950573
0.951533
1.27265
1.0187
0.940563
0.925983
0.925229
0.929001
0.936951
0.945463
0.950457
0.951818
0.95592
0.950971
0.953488
0.9611
0.999398
0.950817
0.947803
0.949462
0.955551
0.981372
0.94986
0.947308
0.948665
0.955447
0.979763
0.950817
0.947803
0.949462
0.955551
0.981372
0.95592
0.950971
0.953488
0.9611
0.999398
0.79215
0.677473
0.613338
0.568
0.536917
0.811946
0.693808
0.626221
0.581423
0.542773
0.811899
0.688231
0.620009
0.576721
0.533492
0.811946
0.693808
0.626221
0.581423
0.542773
0.79215
0.677473
0.613338
0.568
0.536917
0.505283
0.488136
0.479684
0.472822
0.467181
0.462142
0.452006
0.437595
0.437122
0.452697
0.520633
0.563953
0.582876
0.593516
0.597691
0.594148
0.576677
0.545584
0.517767
0.496599
0.472174
0.43588
0.389239
0.359871
0.352407
0.349704
0.347436
0.345412
0.343884
0.344053
0.350469
0.390393
0.435695
0.455858
0.467965
0.482261
0.498964
0.511276
0.515246
0.512648
0.522656
0.522223
0.518649
0.510776
0.499637
0.487901
0.472064
0.452986
0.450579
0.467696
0.535877
0.575985
0.591332
0.598125
0.600031
0.595694
0.577801
0.545925
0.517847
0.4967
0.472689
0.436565
0.38963
0.35993
0.3524
0.3497
0.347432
0.345403
0.343871
0.344039
0.350456
0.39039
0.435691
0.455846
0.46794
0.482225
0.498938
0.511239
0.515195
0.512586
0.523552
0.526496
0.52684
0.523376
0.514003
0.499927
0.481162
0.459559
0.456408
0.472476
0.540319
0.581081
0.594532
0.599621
0.600588
0.595944
0.57891
0.549679
0.521122
0.498051
0.472971
0.436443
0.389543
0.359932
0.3524
0.349699
0.347431
0.3454
0.343867
0.344034
0.350452
0.390392
0.435691
0.455838
0.467927
0.482209
0.498928
0.511229
0.51517
0.512536
0.522656
0.522223
0.518649
0.510776
0.499637
0.487901
0.472064
0.452986
0.450579
0.467696
0.535877
0.575985
0.591332
0.598125
0.600031
0.595694
0.577801
0.545925
0.517847
0.4967
0.472689
0.436565
0.38963
0.35993
0.3524
0.3497
0.347432
0.345403
0.343871
0.344039
0.350456
0.39039
0.435691
0.455846
0.46794
0.482225
0.498938
0.511239
0.515195
0.512586
0.505283
0.488136
0.479684
0.472822
0.467181
0.462142
0.452006
0.437595
0.437122
0.452697
0.520633
0.563953
0.582876
0.593516
0.597691
0.594148
0.576677
0.545584
0.517767
0.496599
0.472174
0.43588
0.389239
0.359871
0.352407
0.349704
0.347436
0.345412
0.343884
0.344053
0.350469
0.390393
0.435695
0.455858
0.467965
0.482261
0.498964
0.511276
0.515246
0.512648
0.412191
0.409109
0.407448
0.405909
0.406393
0.406624
0.404359
0.40103
0.402815
0.423604
0.492384
0.540735
0.567546
0.585937
0.592826
0.589129
0.571689
0.542866
0.517519
0.496763
0.471812
0.434654
0.38794
0.359583
0.352421
0.349726
0.347456
0.345454
0.34394
0.344116
0.350512
0.390361
0.435675
0.455877
0.468011
0.482322
0.49898
0.511354
0.515394
0.512878
0.355253
0.353463
0.351937
0.351417
0.352527
0.354496
0.356722
0.361582
0.369549
0.403457
0.463847
0.51211
0.543949
0.571477
0.582197
0.578131
0.560537
0.534291
0.511681
0.491896
0.467083
0.429901
0.38474
0.358979
0.352458
0.34978
0.347514
0.345555
0.344074
0.344273
0.350619
0.390283
0.435624
0.455926
0.468134
0.482487
0.499095
0.511458
0.515535
0.513084
0.354333
0.356463
0.357268
0.356885
0.355803
0.354588
0.355879
0.35996
0.367895
0.405858
0.453405
0.500356
0.533287
0.562347
0.570633
0.564212
0.546091
0.524079
0.505192
0.486053
0.460589
0.423048
0.380315
0.358208
0.352539
0.349878
0.347617
0.345713
0.344279
0.344513
0.350797
0.390204
0.435559
0.455973
0.468291
0.482677
0.499286
0.51159
0.515701
0.513344
0.354737
0.354377
0.353881
0.352827
0.349858
0.348483
0.352557
0.35993
0.375957
0.412834
0.456128
0.501184
0.53439
0.5587
0.559613
0.549275
0.531251
0.513321
0.497028
0.478208
0.452215
0.414471
0.375284
0.357467
0.352662
0.350017
0.347771
0.345935
0.344558
0.344836
0.351061
0.390227
0.435602
0.45611
0.468544
0.482894
0.49952
0.511743
0.515887
0.513645
0.356352
0.355999
0.355314
0.354665
0.352601
0.353702
0.360305
0.372874
0.395066
0.428114
0.470443
0.506891
0.53858
0.552116
0.546349
0.532568
0.516874
0.502681
0.487794
0.468893
0.442146
0.404464
0.370306
0.356904
0.352832
0.350204
0.347985
0.346229
0.344918
0.345242
0.351389
0.390204
0.435583
0.456211
0.468765
0.483027
0.499665
0.51184
0.516046
0.513943
0.361384
0.361172
0.360606
0.361107
0.36279
0.36755
0.376591
0.391725
0.415559
0.450113
0.486046
0.517872
0.541428
0.539926
0.529434
0.516488
0.504354
0.492343
0.477735
0.458402
0.43056
0.393778
0.366181
0.356671
0.353096
0.350485
0.34831
0.346647
0.345408
0.345785
0.351892
0.390468
0.435803
0.456482
0.469136
0.483282
0.49988
0.511966
0.516191
0.514229
0.373087
0.37306
0.373624
0.376018
0.380472
0.387889
0.399016
0.414795
0.439928
0.473244
0.503694
0.527507
0.531478
0.52395
0.51346
0.5031
0.493333
0.481779
0.466853
0.446791
0.417664
0.383541
0.363302
0.356658
0.353385
0.350794
0.348669
0.347105
0.345942
0.346365
0.352374
0.390449
0.435732
0.456536
0.469316
0.483379
0.499962
0.512033
0.516325
0.5145
0.394671
0.395113
0.396373
0.399119
0.40374
0.411909
0.42467
0.444139
0.471354
0.496317
0.512966
0.521287
0.517262
0.508833
0.49987
0.491795
0.482578
0.470636
0.455281
0.433982
0.40381
0.374963
0.361609
0.356721
0.353571
0.351004
0.348949
0.347484
0.346398
0.346869
0.352833
0.390529
0.435656
0.45649
0.469376
0.483414
0.500024
0.512124
0.516496
0.514824
0.42709
0.42685
0.427759
0.430953
0.436562
0.444674
0.456767
0.475369
0.493312
0.502256
0.510089
0.509125
0.501574
0.494995
0.488629
0.48118
0.471265
0.458755
0.442775
0.4199
0.39044
0.369064
0.360576
0.356565
0.353484
0.350977
0.349025
0.347693
0.346707
0.347232
0.353084
0.390235
0.435562
0.456741
0.469689
0.483525
0.500054
0.51225
0.516735
0.515204
0.463605
0.461422
0.462328
0.464034
0.466433
0.471972
0.482754
0.492974
0.496185
0.500235
0.499183
0.492992
0.488448
0.483424
0.477386
0.46918
0.458948
0.44677
0.429927
0.405437
0.3804
0.366959
0.361621
0.358164
0.355273
0.352995
0.351281
0.350173
0.34934
0.349985
0.355888
0.393065
0.438736
0.460107
0.473115
0.486309
0.501854
0.513122
0.517324
0.515849
0.494786
0.49414
0.491616
0.48885
0.488978
0.49269
0.494777
0.493446
0.492477
0.487948
0.483669
0.480464
0.477248
0.47306
0.46706
0.459336
0.450234
0.438578
0.421252
0.397268
0.379046
0.372071
0.368894
0.366435
0.364406
0.362959
0.361904
0.361455
0.360974
0.362014
0.36864
0.408534
0.455719
0.475426
0.485082
0.494142
0.507077
0.516538
0.518925
0.516849
0.518774
0.51746
0.511058
0.507775
0.505049
0.499849
0.492874
0.486058
0.479719
0.475201
0.473198
0.472346
0.471043
0.468137
0.464168
0.46066
0.456145
0.446386
0.429502
0.41429
0.408369
0.406789
0.405857
0.404863
0.403988
0.403532
0.403154
0.403323
0.403055
0.404618
0.413208
0.4556
0.497283
0.510102
0.514563
0.516744
0.522125
0.525164
0.523919
0.519311
0.532157
0.526881
0.518367
0.51023
0.503516
0.49689
0.489791
0.480905
0.475595
0.475729
0.477674
0.481069
0.484203
0.486849
0.489388
0.490044
0.485511
0.473199
0.458228
0.449704
0.447423
0.446163
0.444634
0.443058
0.441694
0.440908
0.44038
0.440271
0.439853
0.441576
0.450757
0.488554
0.523166
0.5332
0.537505
0.538989
0.541518
0.541059
0.53437
0.52483
0.534634
0.529055
0.522643
0.518028
0.516501
0.516254
0.514734
0.510629
0.508875
0.511076
0.515413
0.518335
0.519252
0.519146
0.517149
0.511029
0.498154
0.481957
0.471526
0.467801
0.465998
0.464179
0.462147
0.460314
0.458837
0.458009
0.457451
0.457143
0.456719
0.458546
0.46671
0.497947
0.528523
0.537863
0.543536
0.546409
0.549985
0.551748
0.546291
0.534641
0.538376
0.538668
0.54105
0.544492
0.552226
0.562475
0.567636
0.565495
0.556776
0.546794
0.540028
0.535255
0.531064
0.526246
0.518408
0.506617
0.492773
0.483042
0.479259
0.477655
0.476242
0.474561
0.472824
0.471399
0.470347
0.46987
0.469551
0.469402
0.469124
0.470934
0.477507
0.502351
0.530981
0.541802
0.547055
0.548467
0.550508
0.552261
0.550392
0.542424
0.54419
0.546968
0.553585
0.560146
0.570959
0.582281
0.586759
0.581872
0.567009
0.549025
0.537817
0.531877
0.527368
0.521307
0.511643
0.499919
0.492578
0.490067
0.489593
0.489093
0.488164
0.486937
0.485777
0.484885
0.484234
0.484013
0.483815
0.483751
0.483552
0.48473
0.489785
0.5071
0.532818
0.545068
0.549149
0.549108
0.549796
0.550252
0.549307
0.545338
0.546006
0.548183
0.555303
0.56287
0.574389
0.583209
0.586704
0.580939
0.563437
0.545615
0.535739
0.529992
0.524153
0.516995
0.509418
0.504518
0.503054
0.503563
0.503981
0.50385
0.503211
0.502275
0.501436
0.500819
0.500342
0.500189
0.500039
0.499996
0.499832
0.500366
0.504056
0.514762
0.535036
0.547871
0.550884
0.549839
0.549212
0.547558
0.544856
0.542376
0.541315
0.543745
0.550229
0.556111
0.567536
0.57515
0.578181
0.572904
0.557735
0.544131
0.536654
0.53145
0.525738
0.520317
0.516739
0.5158
0.516201
0.516757
0.516906
0.516614
0.515917
0.514923
0.513926
0.513138
0.512521
0.512196
0.51194
0.511808
0.511677
0.511845
0.513927
0.520094
0.534107
0.548207
0.551707
0.549647
0.547093
0.546699
0.542865
0.533111
0.470095
0.512559
0.538964
0.545219
0.557002
0.564725
0.568544
0.564583
0.553735
0.544244
0.538104
0.533268
0.528697
0.525425
0.523632
0.523191
0.523142
0.52295
0.52244
0.521665
0.520742
0.519677
0.518663
0.517892
0.517326
0.516957
0.516674
0.516513
0.516435
0.516544
0.517339
0.520856
0.529018
0.541759
0.548276
0.54825
0.544412
0.542679
0.516928
0.463387
0.344376
0.429053
0.524641
0.538734
0.546195
0.551207
0.553248
0.548498
0.540403
0.534185
0.530341
0.527446
0.524972
0.523482
0.522885
0.522607
0.522118
0.521392
0.520467
0.519437
0.518393
0.517388
0.516567
0.516019
0.515697
0.515528
0.515423
0.515434
0.5155
0.515754
0.51626
0.517998
0.522074
0.530381
0.539496
0.544197
0.541628
0.533049
0.464929
0.357816
0.344376
0.429053
0.524641
0.538734
0.546195
0.551207
0.553248
0.548498
0.540403
0.534185
0.530341
0.527446
0.524972
0.523482
0.522885
0.522607
0.522118
0.521392
0.520467
0.519437
0.518393
0.517388
0.516567
0.516019
0.515697
0.515528
0.515423
0.515434
0.5155
0.515754
0.51626
0.517998
0.522074
0.530381
0.539496
0.544197
0.541628
0.533049
0.464929
0.357816
0.470095
0.512559
0.538964
0.545219
0.557002
0.564725
0.568544
0.564583
0.553735
0.544244
0.538104
0.533268
0.528697
0.525425
0.523632
0.523191
0.523142
0.52295
0.52244
0.521665
0.520742
0.519677
0.518663
0.517892
0.517326
0.516957
0.516674
0.516513
0.516435
0.516544
0.517339
0.520856
0.529018
0.541759
0.548276
0.54825
0.544412
0.542679
0.516928
0.463387
0.541315
0.543745
0.550229
0.556111
0.567536
0.57515
0.578181
0.572904
0.557735
0.544131
0.536654
0.53145
0.525738
0.520317
0.516739
0.5158
0.516201
0.516757
0.516906
0.516614
0.515917
0.514923
0.513926
0.513138
0.512521
0.512196
0.51194
0.511808
0.511677
0.511845
0.513927
0.520094
0.534107
0.548207
0.551707
0.549647
0.547093
0.546699
0.542865
0.533111
0.546006
0.548183
0.555303
0.56287
0.574389
0.583209
0.586704
0.580939
0.563437
0.545615
0.535739
0.529992
0.524153
0.516995
0.509418
0.504518
0.503054
0.503563
0.503981
0.50385
0.503211
0.502275
0.501436
0.500819
0.500342
0.500189
0.500039
0.499996
0.499832
0.500366
0.504056
0.514762
0.535036
0.547871
0.550884
0.549839
0.549212
0.547558
0.544856
0.542376
0.54419
0.546968
0.553585
0.560146
0.570959
0.582281
0.586759
0.581872
0.567009
0.549025
0.537817
0.531877
0.527368
0.521307
0.511643
0.499919
0.492578
0.490067
0.489593
0.489093
0.488164
0.486937
0.485777
0.484885
0.484234
0.484013
0.483815
0.483751
0.483552
0.48473
0.489785
0.5071
0.532818
0.545068
0.549149
0.549108
0.549796
0.550252
0.549307
0.545338
0.538376
0.538668
0.54105
0.544492
0.552226
0.562475
0.567636
0.565495
0.556776
0.546794
0.540028
0.535255
0.531064
0.526246
0.518408
0.506617
0.492773
0.483042
0.479259
0.477655
0.476242
0.474561
0.472824
0.471399
0.470347
0.46987
0.469551
0.469402
0.469124
0.470934
0.477507
0.502351
0.530981
0.541802
0.547055
0.548467
0.550508
0.552261
0.550392
0.542424
0.534634
0.529055
0.522643
0.518028
0.516501
0.516254
0.514734
0.510629
0.508875
0.511076
0.515413
0.518335
0.519252
0.519146
0.517149
0.511029
0.498154
0.481957
0.471526
0.467801
0.465998
0.464179
0.462147
0.460314
0.458837
0.458009
0.457451
0.457143
0.456719
0.458546
0.46671
0.497947
0.528523
0.537863
0.543536
0.546409
0.549985
0.551748
0.546291
0.534641
0.532157
0.526881
0.518367
0.51023
0.503516
0.49689
0.489791
0.480905
0.475595
0.475729
0.477674
0.481069
0.484203
0.486849
0.489388
0.490044
0.485511
0.473199
0.458228
0.449704
0.447423
0.446163
0.444634
0.443058
0.441694
0.440908
0.44038
0.440271
0.439853
0.441576
0.450757
0.488554
0.523166
0.5332
0.537505
0.538989
0.541518
0.541059
0.53437
0.52483
0.518774
0.51746
0.511058
0.507775
0.505049
0.499849
0.492874
0.486058
0.479719
0.475201
0.473198
0.472346
0.471043
0.468137
0.464168
0.46066
0.456145
0.446386
0.429502
0.41429
0.408369
0.406789
0.405857
0.404863
0.403988
0.403532
0.403154
0.403323
0.403055
0.404618
0.413208
0.4556
0.497283
0.510102
0.514563
0.516744
0.522125
0.525164
0.523919
0.519311
0.494786
0.49414
0.491616
0.48885
0.488978
0.49269
0.494777
0.493446
0.492477
0.487948
0.483669
0.480464
0.477248
0.47306
0.46706
0.459336
0.450234
0.438578
0.421252
0.397268
0.379046
0.372071
0.368894
0.366435
0.364406
0.362959
0.361904
0.361455
0.360974
0.362014
0.36864
0.408534
0.455719
0.475426
0.485082
0.494142
0.507077
0.516538
0.518925
0.516849
0.463605
0.461422
0.462328
0.464034
0.466433
0.471972
0.482754
0.492974
0.496185
0.500235
0.499183
0.492992
0.488448
0.483424
0.477386
0.46918
0.458948
0.44677
0.429927
0.405437
0.3804
0.366959
0.361621
0.358164
0.355273
0.352995
0.351281
0.350173
0.34934
0.349985
0.355888
0.393065
0.438736
0.460107
0.473115
0.486309
0.501854
0.513122
0.517324
0.515849
0.42709
0.42685
0.427759
0.430953
0.436562
0.444674
0.456767
0.475369
0.493312
0.502256
0.510089
0.509125
0.501574
0.494995
0.488629
0.48118
0.471265
0.458755
0.442775
0.4199
0.39044
0.369064
0.360576
0.356565
0.353484
0.350977
0.349025
0.347693
0.346707
0.347232
0.353084
0.390235
0.435562
0.456741
0.469689
0.483525
0.500054
0.51225
0.516735
0.515204
0.394671
0.395113
0.396373
0.399119
0.40374
0.411909
0.42467
0.444139
0.471354
0.496317
0.512966
0.521287
0.517262
0.508833
0.49987
0.491795
0.482578
0.470636
0.455281
0.433982
0.40381
0.374963
0.361609
0.356721
0.353571
0.351004
0.348949
0.347484
0.346398
0.346869
0.352833
0.390529
0.435656
0.45649
0.469376
0.483414
0.500024
0.512124
0.516496
0.514824
0.373087
0.37306
0.373624
0.376018
0.380472
0.387889
0.399016
0.414795
0.439928
0.473244
0.503694
0.527507
0.531478
0.52395
0.51346
0.5031
0.493333
0.481779
0.466853
0.446791
0.417664
0.383541
0.363302
0.356658
0.353385
0.350794
0.348669
0.347105
0.345942
0.346365
0.352374
0.390449
0.435732
0.456536
0.469316
0.483379
0.499962
0.512033
0.516325
0.5145
0.361384
0.361172
0.360606
0.361107
0.36279
0.36755
0.376591
0.391725
0.415559
0.450113
0.486046
0.517872
0.541428
0.539926
0.529434
0.516488
0.504354
0.492343
0.477735
0.458402
0.43056
0.393778
0.366181
0.356671
0.353096
0.350485
0.34831
0.346647
0.345408
0.345785
0.351892
0.390468
0.435803
0.456482
0.469136
0.483282
0.49988
0.511966
0.516191
0.514229
0.356352
0.355999
0.355314
0.354665
0.352601
0.353702
0.360305
0.372874
0.395066
0.428114
0.470443
0.506891
0.53858
0.552116
0.546349
0.532568
0.516874
0.502681
0.487794
0.468893
0.442146
0.404464
0.370306
0.356904
0.352832
0.350204
0.347985
0.346229
0.344918
0.345242
0.351389
0.390204
0.435583
0.456211
0.468765
0.483027
0.499665
0.51184
0.516046
0.513943
0.354737
0.354377
0.353881
0.352827
0.349858
0.348483
0.352557
0.35993
0.375957
0.412834
0.456128
0.501184
0.53439
0.5587
0.559613
0.549275
0.531251
0.513321
0.497028
0.478208
0.452215
0.414471
0.375284
0.357467
0.352662
0.350017
0.347771
0.345935
0.344558
0.344836
0.351061
0.390227
0.435602
0.45611
0.468544
0.482894
0.49952
0.511743
0.515887
0.513645
0.354333
0.356463
0.357268
0.356885
0.355803
0.354588
0.355879
0.35996
0.367895
0.405858
0.453405
0.500356
0.533287
0.562347
0.570633
0.564212
0.546091
0.524079
0.505192
0.486053
0.460589
0.423048
0.380315
0.358208
0.352539
0.349878
0.347617
0.345713
0.344279
0.344513
0.350797
0.390204
0.435559
0.455973
0.468291
0.482677
0.499286
0.51159
0.515701
0.513344
0.355253
0.353463
0.351937
0.351417
0.352527
0.354496
0.356722
0.361582
0.369549
0.403457
0.463847
0.51211
0.543949
0.571477
0.582197
0.578131
0.560537
0.534291
0.511681
0.491896
0.467083
0.429901
0.38474
0.358979
0.352458
0.34978
0.347514
0.345555
0.344074
0.344273
0.350619
0.390283
0.435624
0.455926
0.468134
0.482487
0.499095
0.511458
0.515535
0.513084
0.412191
0.409109
0.407448
0.405909
0.406393
0.406624
0.404359
0.40103
0.402815
0.423604
0.492384
0.540735
0.567546
0.585937
0.592826
0.589129
0.571689
0.542866
0.517519
0.496763
0.471812
0.434654
0.38794
0.359583
0.352421
0.349726
0.347456
0.345454
0.34394
0.344116
0.350512
0.390361
0.435675
0.455877
0.468011
0.482322
0.49898
0.511354
0.515394
0.512878
)
;

boundaryField
{
    inlet
    {
        type            fixedValue;
        value           uniform 1;
    }
    outlet
    {
        type            zeroGradient;
    }
    obstacle
    {
        type            zeroGradient;
    }
    empty
    {
        type            empty;
    }
}


// ************************************************************************* //
