/*--------------------------------*- C++ -*----------------------------------*\
| =========                 |                                                 |
| \\      /  F ield         | OpenFOAM: The Open Source CFD Toolbox           |
|  \\    /   O peration     | Version:  v1912                                 |
|   \\  /    A nd           | Website:  www.openfoam.com                      |
|    \\/     M anipulation  |                                                 |
\*---------------------------------------------------------------------------*/
FoamFile
{
    version     2.0;
    format      ascii;
    class       volVectorField;
    location    "1.24";
    object      grad(T);
}
// * * * * * * * * * * * * * * * * * * * * * * * * * * * * * * * * * * * * * //

dimensions      [0 -1 0 1 0 0 0];


internalField   nonuniform List<vector> 
1900
(
(-1.11414e-06 7.47024e-10 0)
(1.32083e-05 -4.02948e-10 0)
(0.000661237 -8.5385e-09 0)
(0.00767943 -2.88557e-06 0)
(0.0301176 -5.24932e-05 0)
(0.0545376 -0.000225738 0)
(0.0561022 -0.000301193 0)
(0.0334735 -0.000789228 0)
(0.019756 -2.28804e-05 0)
(8.65665e-05 -0.00337893 0)
(-1.1138e-06 1.19864e-09 0)
(1.3199e-05 -9.36892e-10 0)
(0.000658351 2.78825e-09 0)
(0.00762695 -3.7566e-06 0)
(0.0298947 -7.26514e-05 0)
(0.0542889 -0.000305207 0)
(0.0555387 -0.000363901 0)
(0.0337519 -0.00115238 0)
(0.0171663 0.000408579 0)
(0.00797603 -0.00567067 0)
(-1.11388e-06 1.64799e-13 0)
(1.32099e-05 -2.97071e-13 0)
(0.000657481 -7.54605e-13 0)
(0.00760678 -3.81639e-13 0)
(0.0298161 1.09071e-12 0)
(0.0542464 1.34441e-12 0)
(0.0552551 1.53957e-13 0)
(0.034246 -3.16587e-13 0)
(0.0152377 -3.38271e-13 0)
(0.00551484 -1.77809e-13 0)
(-1.1138e-06 -1.19854e-09 0)
(1.3199e-05 9.36297e-10 0)
(0.000658351 -2.78875e-09 0)
(0.00762695 3.7566e-06 0)
(0.0298947 7.26514e-05 0)
(0.0542889 0.000305207 0)
(0.0555387 0.000363901 0)
(0.0337519 0.00115238 0)
(0.0171663 -0.000408579 0)
(0.00797603 0.00567067 0)
(-1.11414e-06 -7.47096e-10 0)
(1.32083e-05 4.02649e-10 0)
(0.000661237 8.53875e-09 0)
(0.00767943 2.88557e-06 0)
(0.0301176 5.24932e-05 0)
(0.0545376 0.000225738 0)
(0.0561022 0.000301193 0)
(0.0334735 0.000789228 0)
(0.019756 2.28804e-05 0)
(8.65665e-05 0.00337893 0)
(-0.0066197 0.00599966 1.00078e-15)
(0.00733406 0.00417757 -1.2136e-15)
(-0.00150365 0.00151526 -1.53705e-15)
(-0.120256 0.018176 0)
(-0.0287884 0.181776 -6.48808e-15)
(0.00186874 0.00373401 1.00187e-15)
(0.000115148 0.000612405 1.2136e-15)
(0.00592146 -0.00413352 1.53705e-15)
(-0.0419364 0.00348362 0)
(-0.00783424 0.153133 0)
(0.00386539 2.74979e-14 0)
(9.28484e-05 4.27975e-14 0)
(0.00137065 1.74677e-13 0)
(-0.0407328 2.25875e-13 0)
(0.0731709 3.4204e-13 0)
(0.00186874 -0.00373401 1.00187e-15)
(0.000115148 -0.000612405 1.2136e-15)
(0.00592146 0.00413352 1.53705e-15)
(-0.0419364 -0.00348362 0)
(-0.00783424 -0.153133 0)
(-0.0066197 -0.00599966 -3.00452e-15)
(0.00733406 -0.00417757 -1.2136e-15)
(-0.00150365 -0.00151526 -1.53705e-15)
(-0.120256 -0.018176 -4.19058e-15)
(-0.0287884 -0.181776 6.48808e-15)
(0.199311 -0.0793641 2.8568e-15)
(-0.0155393 -0.0175112 -2.40867e-15)
(-0.0290868 -0.0115317 0)
(-0.088432 0.0622039 1.83578e-15)
(-0.503688 0.0985245 -8.12291e-16)
(0.133659 -0.0810919 -1.4272e-15)
(-0.000653159 -0.0175178 1.20407e-15)
(0.000436184 -0.0202297 0)
(-0.0433149 0.0637821 -1.14901e-15)
(-0.168358 0.106515 2.04617e-16)
(0.14839 4.81868e-13 0)
(-0.00213241 1.29734e-13 0)
(0.00189308 1.12436e-13 0)
(-0.0411816 1.16924e-13 4.60373e-16)
(-0.181003 1.17297e-13 -4.09233e-16)
(0.133659 0.0810919 -1.4272e-15)
(-0.000653159 0.0175178 1.20407e-15)
(0.000436184 0.0202297 0)
(-0.0433149 -0.0637821 -1.14901e-15)
(-0.168358 -0.106515 2.04617e-16)
(0.199311 0.0793641 1.4272e-15)
(-0.0155393 0.0175112 5.27379e-19)
(-0.0290868 0.0115317 0)
(-0.088432 -0.0622039 1.87338e-18)
(-0.503688 -0.0985245 8.12291e-16)
(-0.746677 2.0264 0)
(-0.174624 0.942952 0)
(0.149726 0.305787 0)
(0.0311497 0.0571291 0)
(0.0606823 -0.0016705 0)
(0.112816 0.00642872 0)
(0.141985 0.00246671 0)
(0.15453 0.00238608 0)
(0.1479 0.00181727 0)
(0.119805 0.0013046 0)
(0.0723882 0.000696548 0)
(0.027042 0.000187966 0)
(0.0048404 1.62585e-05 0)
(0.000287483 2.87174e-07 0)
(3.72193e-06 7.07645e-10 0)
(7.16996e-09 2.36553e-13 0)
(1.50507e-12 0 0)
(1.97128e-15 0 0)
(9.85638e-16 -1.18277e-14 0)
(-2.95692e-15 7.88511e-15 0)
(0 -3.94255e-15 0)
(0 3.94255e-15 0)
(1.97128e-15 0 0)
(-2.03041e-12 -1.18277e-14 0)
(-9.26722e-09 -7.49085e-14 0)
(-4.61604e-06 -1.18277e-13 0)
(-0.000343284 -2.0107e-13 0)
(-0.00559915 -5.63785e-13 0)
(-0.0305652 5.16474e-13 0)
(-0.0806823 2.75979e-13 0)
(-0.133169 8.67362e-14 0)
(-0.166986 -1.06449e-13 0)
(-0.182904 -3.94255e-15 0)
(-0.185902 -7.88511e-15 0)
(-0.173363 0 0)
(-0.148464 -1.6953e-13 0)
(-0.178578 4.33681e-14 0)
(-0.494981 2.24726e-13 0)
(-0.535585 2.97663e-13 0)
(-0.151889 2.99634e-13 0)
(-0.556123 0.944303 0)
(-0.398581 0.957717 0)
(-0.00536851 0.254872 0)
(-0.0255204 0.0328723 0)
(0.053425 -0.00532179 0)
(0.113919 0.00261876 0)
(0.141593 0.000490518 0)
(0.154641 0.000963921 0)
(0.147809 0.000822023 0)
(0.119685 0.000577564 0)
(0.0722821 0.000298239 0)
(0.0269822 8.23578e-05 0)
(0.00482366 7.45011e-06 0)
(0.000285966 1.37029e-07 0)
(3.69411e-06 3.46953e-10 0)
(7.09985e-09 7.0966e-14 0)
(1.4893e-12 0 0)
(0 0 0)
(1.97128e-15 -3.94255e-15 0)
(0 -7.88511e-15 0)
(0 0 0)
(0 0 0)
(-1.97128e-15 0 0)
(-2.04126e-12 -3.94255e-15 0)
(-9.26725e-09 2.75979e-14 0)
(-4.61604e-06 -1.26162e-13 0)
(-0.000343284 -2.95692e-13 0)
(-0.00559915 -6.42636e-13 0)
(-0.0305652 9.34385e-13 0)
(-0.0806823 4.41566e-13 0)
(-0.133169 1.34047e-13 0)
(-0.166986 -1.06449e-13 0)
(-0.182904 -3.94255e-14 0)
(-0.185902 -1.37989e-13 0)
(-0.173363 -1.26162e-13 0)
(-0.148464 -2.52323e-13 0)
(-0.178578 3.5483e-14 0)
(-0.494981 1.37989e-13 0)
(-0.535585 1.18277e-13 0)
(-0.151889 3.94255e-14 0)
(-0.444223 5.12532e-13 0)
(-0.375186 5.7167e-13 0)
(-0.11932 1.93185e-13 0)
(-0.044543 -4.0214e-13 0)
(0.0518812 -2.36553e-14 0)
(0.114507 9.06787e-14 0)
(0.141504 5.91383e-14 0)
(0.154627 -3.94255e-14 0)
(0.147788 2.44438e-13 0)
(0.119653 3.03577e-13 0)
(0.0722441 -9.46213e-14 0)
(0.0269574 5.91383e-14 0)
(0.00481648 -1.10391e-13 0)
(0.000285315 2.75979e-13 0)
(3.68207e-06 -2.52323e-13 0)
(7.06903e-09 -5.51957e-14 0)
(1.48437e-12 0 0)
(0 0 0)
(0 0 0)
(0 -3.94255e-15 0)
(0 0 0)
(0 -3.94255e-15 0)
(0 -3.94255e-15 0)
(-2.02253e-12 0 0)
(-9.26726e-09 1.02506e-13 0)
(-4.61604e-06 6.70234e-14 0)
(-0.000343284 2.75979e-14 0)
(-0.00559915 -2.60209e-13 0)
(-0.0305652 8.39764e-13 0)
(-0.0806823 1.61645e-13 0)
(-0.133169 -7.0966e-14 0)
(-0.166986 -6.70234e-14 0)
(-0.182904 -7.88511e-15 0)
(-0.185902 -3.90313e-13 0)
(-0.173363 -4.65221e-13 0)
(-0.148464 -1.93185e-13 0)
(-0.178578 1.26162e-13 0)
(-0.494981 7.49085e-14 0)
(-0.535585 -7.49085e-14 0)
(-0.151889 -3.72571e-13 0)
(-0.556123 -0.944303 0)
(-0.398581 -0.957717 0)
(-0.00536851 -0.254872 0)
(-0.0255204 -0.0328723 0)
(0.053425 0.00532179 0)
(0.113919 -0.00261876 0)
(0.141593 -0.000490518 0)
(0.154641 -0.000963921 0)
(0.147809 -0.000822023 0)
(0.119685 -0.000577564 0)
(0.0722821 -0.000298239 0)
(0.0269822 -8.23578e-05 0)
(0.00482366 -7.45011e-06 0)
(0.000285966 -1.37029e-07 0)
(3.69411e-06 -3.46972e-10 0)
(7.09992e-09 -1.853e-13 0)
(1.50507e-12 0 0)
(0 0 0)
(0 0 0)
(0 0 0)
(0 0 0)
(-1.97128e-15 0 0)
(0 -3.94255e-15 0)
(-2.00972e-12 0 0)
(-9.26723e-09 5.91383e-14 0)
(-4.61604e-06 1.81357e-13 0)
(-0.000343284 3.706e-13 0)
(-0.00559915 -2.40496e-13 0)
(-0.0305652 4.17911e-13 0)
(-0.0806823 -9.46213e-14 0)
(-0.133169 -1.89243e-13 0)
(-0.166986 -1.14334e-13 0)
(-0.182904 -8.27936e-14 0)
(-0.185902 -6.11096e-13 0)
(-0.173363 -6.86004e-13 0)
(-0.148464 -8.27936e-14 0)
(-0.178578 9.46213e-14 0)
(-0.494981 1.57702e-14 0)
(-0.535585 -1.49817e-13 0)
(-0.151889 -3.50887e-13 0)
(-0.746677 -2.0264 0)
(-0.174624 -0.942952 0)
(0.149726 -0.305787 0)
(0.0311497 -0.0571291 0)
(0.0606823 0.0016705 0)
(0.112816 -0.00642872 0)
(0.141985 -0.00246671 0)
(0.15453 -0.00238608 0)
(0.1479 -0.00181727 0)
(0.119805 -0.0013046 0)
(0.0723882 -0.000696548 0)
(0.027042 -0.000187966 0)
(0.0048404 -1.62585e-05 0)
(0.000287483 -2.87174e-07 0)
(3.72193e-06 -7.07314e-10 0)
(7.16996e-09 -1.89243e-13 0)
(1.53858e-12 0 0)
(0 0 0)
(0 0 0)
(1.97128e-15 3.94255e-15 0)
(-1.97128e-15 0 0)
(0 0 0)
(0 7.88511e-15 0)
(-2.00479e-12 0 0)
(-9.26721e-09 3.15404e-14 0)
(-4.61604e-06 7.0966e-14 0)
(-0.000343284 3.46945e-13 0)
(-0.00559915 -3.3906e-13 0)
(-0.0305652 1.14334e-13 0)
(-0.0806823 -3.94255e-15 0)
(-0.133169 -4.33681e-14 0)
(-0.166986 -4.73106e-14 0)
(-0.182904 -1.41932e-13 0)
(-0.185902 -3.50887e-13 0)
(-0.173363 -3.07519e-13 0)
(-0.148464 6.30809e-14 0)
(-0.178578 2.36553e-14 0)
(-0.494981 -5.12532e-14 0)
(-0.535585 -1.63616e-13 0)
(-0.151889 -1.5376e-13 0)
(0.1216 -1.40389 0)
(0.421763 -0.524517 0)
(0.370956 -0.174986 0)
(0.101815 -0.0628236 0)
(0.0768367 -0.0171801 0)
(0.112599 -0.0135329 0)
(0.143675 -0.00736308 0)
(0.155176 -0.00484104 0)
(0.148381 -0.00335633 0)
(0.120248 -0.00229107 0)
(0.0728598 -0.0011637 0)
(0.0273399 -0.000297762 0)
(0.00492204 -2.46535e-05 0)
(0.00029441 -4.23174e-07 0)
(3.84209e-06 -1.02721e-09 0)
(7.46262e-09 -2.46372e-13 0)
(1.58535e-12 0 0)
(0 0 0)
(0 0 0)
(0 -1.1902e-15 0)
(0 0 0)
(0 0 0)
(0 0 0)
(-1.99954e-12 0 0)
(-9.26721e-09 3.57061e-15 0)
(-4.61604e-06 -3.57061e-15 0)
(-0.000343284 7.73633e-14 0)
(-0.00559915 -4.28474e-14 0)
(-0.0305652 -4.99886e-14 0)
(-0.0806823 9.2836e-14 0)
(-0.133169 2.15427e-13 0)
(-0.166986 7.26025e-14 0)
(-0.182904 -1.58297e-13 0)
(-0.185902 -1.09499e-13 0)
(-0.173363 4.6418e-14 0)
(-0.148464 1.48776e-13 0)
(-0.178578 3.80866e-14 0)
(-0.494981 -5.11788e-14 0)
(-0.535585 -4.34425e-14 0)
(-0.151889 -9.58115e-14 0)
(0.311305 -0.328454 0)
(0.689791 -0.186681 0)
(0.476001 -0.0900165 0)
(0.145324 -0.05516 0)
(0.099518 -0.0336458 0)
(0.122392 -0.0204819 0)
(0.149455 -0.0124651 0)
(0.158046 -0.00787956 0)
(0.1501 -0.0052749 0)
(0.121681 -0.00325975 0)
(0.0740561 -0.00148142 0)
(0.0279798 -0.000351424 0)
(0.00508315 -2.79401e-05 0)
(0.000307524 -4.71359e-07 0)
(4.06529e-06 -1.14036e-09 0)
(8.0029e-09 -3.30877e-13 0)
(1.7496e-12 0 0)
(0 0 0)
(0 0 0)
(0 0 0)
(0 0 0)
(0 0 0)
(0 0 0)
(-2.0043e-12 0 0)
(-9.26721e-09 2.38041e-15 0)
(-4.61604e-06 1.78531e-14 0)
(-0.000343284 -6.78417e-14 0)
(-0.00559915 2.68986e-13 0)
(-0.0305652 -2.63035e-13 0)
(-0.0806823 -1.38064e-13 0)
(-0.133169 1.55917e-13 0)
(-0.166986 -4.87984e-14 0)
(-0.182904 -1.07118e-13 0)
(-0.185902 -6.18906e-14 0)
(-0.173363 2.02335e-14 0)
(-0.148464 1.27352e-13 0)
(-0.178578 1.1545e-13 0)
(-0.494981 8.80752e-14 0)
(-0.535585 7.20074e-14 0)
(-0.151889 1.01167e-14 0)
(0.258218 0.0478451 0)
(0.651531 -0.0769709 0)
(0.497694 -0.0533502 0)
(0.156135 -0.0425017 0)
(0.110254 -0.0368236 0)
(0.133009 -0.0239322 0)
(0.15582 -0.0156247 0)
(0.162104 -0.0100308 0)
(0.152833 -0.00652155 0)
(0.123904 -0.00374743 0)
(0.0756624 -0.00156398 0)
(0.0287405 -0.00034604 0)
(0.00526023 -2.63012e-05 0)
(0.000321333 -4.32767e-07 0)
(4.2963e-06 -1.03757e-09 0)
(8.56151e-09 -2.82079e-13 0)
(1.90552e-12 0 0)
(0 0 0)
(0 0 0)
(0 0 0)
(0 0 0)
(0 0 0)
(0 0 0)
(-1.99716e-12 0 0)
(-9.26719e-09 -1.54727e-14 0)
(-4.61604e-06 -8.21241e-14 0)
(-0.000343284 -1.42825e-14 0)
(-0.00559915 2.22568e-13 0)
(-0.0305652 -2.8803e-13 0)
(-0.0806823 -5.16549e-13 0)
(-0.133169 -2.02335e-14 0)
(-0.166986 -2.8922e-13 0)
(-0.182904 -7.14123e-15 0)
(-0.185902 2.61845e-14 0)
(-0.173363 -2.73747e-14 0)
(-0.148464 2.85649e-14 0)
(-0.178578 1.33303e-13 0)
(-0.494981 1.97574e-13 0)
(-0.535585 1.40444e-13 0)
(-0.151889 1.08904e-13 0)
(0.191028 0.0486982 0)
(0.592276 -0.0503997 0)
(0.509216 -0.0419354 0)
(0.16125 -0.0395286 0)
(0.117412 -0.0354773 0)
(0.14282 -0.0248149 0)
(0.162851 -0.0164784 0)
(0.166818 -0.0106206 0)
(0.156155 -0.00659753 0)
(0.126458 -0.0035202 0)
(0.0773338 -0.00134747 0)
(0.0294616 -0.000274203 0)
(0.00541619 -1.94228e-05 0)
(0.000332868 -3.07031e-07 0)
(4.48232e-06 -7.70925e-10 0)
(9.00274e-09 -5.64776e-11 0)
(2.01978e-12 -5.63395e-11 0)
(0 -5.63038e-11 0)
(0 -5.62979e-11 0)
(0 -5.63419e-11 0)
(0 -5.63383e-11 0)
(0 -5.63372e-11 0)
(0 -5.63324e-11 0)
(-2.01978e-12 -5.63181e-11 0)
(-9.26729e-09 -5.63324e-11 0)
(-4.61604e-06 -5.64812e-11 0)
(-0.000343284 -5.61146e-11 0)
(-0.00559915 -5.65014e-11 0)
(-0.0305652 -5.60551e-11 0)
(-0.0806823 -5.49982e-11 0)
(-0.133169 -4.96458e-11 0)
(-0.166986 -4.17726e-11 0)
(-0.182904 -3.1125e-11 0)
(-0.185902 -2.09655e-11 0)
(-0.173363 -1.2903e-11 0)
(-0.148464 -7.41974e-12 0)
(-0.178578 -3.82175e-12 0)
(-0.494981 -1.65557e-12 0)
(-0.535585 -1.20211e-13 0)
(-0.151889 6.78417e-14 0)
(0.162723 0.0140501 0)
(0.564193 -0.0285247 0)
(0.50817 -0.0373372 0)
(0.162359 -0.0382562 0)
(0.124432 -0.0321241 0)
(0.151317 -0.0229188 0)
(0.169498 -0.0152772 0)
(0.171626 -0.00969963 0)
(0.159675 -0.00566747 0)
(0.128963 -0.00276911 0)
(0.0787904 -0.000952961 0)
(0.0300203 -0.0001723 0)
(0.00552416 -1.08025e-05 0)
(0.000340049 -2.61774e-07 0)
(4.59212e-06 -1.11772e-07 0)
(9.25011e-09 -1.11442e-07 0)
(2.07215e-12 -1.11442e-07 0)
(3.92768e-14 -1.11442e-07 0)
(-3.57061e-14 -1.11442e-07 0)
(-3.92768e-14 -1.11442e-07 0)
(4.76082e-15 -1.11442e-07 0)
(4.76082e-15 -1.11442e-07 0)
(1.90433e-14 -1.11442e-07 0)
(-1.99716e-12 -1.11442e-07 0)
(-9.26735e-09 -1.11442e-07 0)
(-4.61604e-06 -1.11442e-07 0)
(-0.000343284 -1.11442e-07 0)
(-0.00559915 -1.11414e-07 0)
(-0.0305652 -1.10941e-07 0)
(-0.0806823 -1.08221e-07 0)
(-0.133169 -1.00744e-07 0)
(-0.166986 -8.76731e-08 0)
(-0.182904 -7.05699e-08 0)
(-0.185902 -5.2438e-08 0)
(-0.173363 -3.62081e-08 0)
(-0.148464 -2.37476e-08 0)
(-0.178578 -1.45063e-08 0)
(-0.494981 -8.14563e-09 0)
(-0.535585 -1.58935e-09 0)
(-0.151889 -1.48322e-10 0)
(0.150002 -0.00296253 0)
(0.542757 -0.0203192 0)
(0.499839 -0.0365377 0)
(0.166274 -0.0347178 0)
(0.132192 -0.0275697 0)
(0.159054 -0.0193381 0)
(0.175589 -0.0126666 0)
(0.176078 -0.00778792 0)
(0.162833 -0.00423075 0)
(0.131001 -0.00184041 0)
(0.0798362 -0.000554139 0)
(0.0303695 -0.000102795 0)
(0.00558198 -3.03731e-05 0)
(0.00034317 -2.67463e-05 0)
(4.62718e-06 -2.67128e-05 0)
(9.32142e-09 -2.67128e-05 0)
(2.0412e-12 -2.67128e-05 0)
(-8.33143e-15 -2.67128e-05 0)
(-5.95102e-15 -2.67128e-05 0)
(4.87984e-14 -2.67128e-05 0)
(3.68963e-14 -2.67128e-05 0)
(-7.14123e-15 -2.67128e-05 0)
(1.1902e-14 -2.67128e-05 0)
(-1.96503e-12 -2.67128e-05 0)
(-9.26744e-09 -2.67128e-05 0)
(-4.61604e-06 -2.67128e-05 0)
(-0.000343284 -2.67127e-05 0)
(-0.00559915 -2.67068e-05 0)
(-0.0305652 -2.66103e-05 0)
(-0.0806823 -2.60852e-05 0)
(-0.133169 -2.46901e-05 0)
(-0.166986 -2.22625e-05 0)
(-0.182904 -1.89953e-05 0)
(-0.185902 -1.53227e-05 0)
(-0.173363 -1.17363e-05 0)
(-0.148464 -8.66574e-06 0)
(-0.178578 -6.0723e-06 0)
(-0.494981 -4.03208e-06 0)
(-0.535585 -1.14978e-06 0)
(-0.151889 -1.87336e-07 0)
(0.145998 -0.0177984 0)
(0.531838 -0.020947 0)
(0.494295 -0.0317871 0)
(0.171001 -0.0286886 0)
(0.139253 -0.0219433 0)
(0.165678 -0.014769 0)
(0.180628 -0.00927923 0)
(0.179755 -0.00547944 0)
(0.165406 -0.00314253 0)
(0.132506 -0.0018474 0)
(0.0804648 -0.00126247 0)
(0.030525 -0.00110781 0)
(0.00559745 -0.00109381 0)
(0.000343576 -0.0010937 0)
(4.62443e-06 -0.00109371 0)
(9.29535e-09 -0.00109371 0)
(2.45301e-12 -0.00109371 0)
(2.97551e-14 -0.00109371 0)
(-4.52278e-14 -0.00109371 0)
(-6.07004e-14 -0.00109371 0)
(-8.92654e-14 -0.00109371 0)
(-7.49829e-14 -0.00109371 0)
(1.09499e-13 -0.00109371 0)
(-2.04477e-12 -0.00109371 0)
(-9.2669e-09 -0.00109371 0)
(-4.61596e-06 -0.00109371 0)
(-0.000343278 -0.00109371 0)
(-0.00559905 -0.00109348 0)
(-0.0305646 -0.00109003 0)
(-0.0806805 -0.0010726 0)
(-0.133165 -0.00102888 0)
(-0.16698 -0.000954775 0)
(-0.182898 -0.000854215 0)
(-0.185895 -0.000736698 0)
(-0.173356 -0.000614014 0)
(-0.148459 -0.00049952 0)
(-0.178574 -0.000392532 0)
(-0.494976 -0.000299011 0)
(-0.535581 -0.000118703 0)
(-0.151888 -3.38834e-05 0)
(0.146968 -0.0221278 0)
(0.529277 -0.018262 0)
(0.492379 -0.0223733 0)
(0.17576 -0.020439 0)
(0.145605 -0.0171711 0)
(0.171258 -0.0141508 0)
(0.184541 -0.012222 0)
(0.181992 -0.0112574 0)
(0.166333 -0.0110221 0)
(0.132813 -0.0111479 0)
(0.0805489 -0.0113188 0)
(0.030532 -0.0114243 0)
(0.00559557 -0.0114534 0)
(0.000343262 -0.011456 0)
(4.61758e-06 -0.011456 0)
(9.27206e-09 -0.011456 0)
(1.60678e-12 -0.011456 0)
(-1.65438e-13 -0.011456 0)
(-9.16458e-14 -0.011456 0)
(-3.57061e-15 -0.011456 0)
(9.64066e-14 -0.011456 0)
(2.16617e-13 -0.011456 0)
(-3.45159e-14 -0.011456 0)
(-2.33637e-12 -0.011456 0)
(-9.26019e-09 -0.011456 0)
(-4.61276e-06 -0.011456 0)
(-0.00034306 -0.011456 0)
(-0.0055956 -0.0114536 0)
(-0.030545 -0.0114201 0)
(-0.0806234 -0.0112666 0)
(-0.133056 -0.0109119 0)
(-0.166818 -0.0103422 0)
(-0.182694 -0.00958255 0)
(-0.18567 -0.00868289 0)
(-0.173134 -0.00770441 0)
(-0.148251 -0.00673858 0)
(-0.178385 -0.00578024 0)
(-0.494717 -0.00487368 0)
(-0.535329 -0.00254983 0)
(-0.151807 -0.00116633 0)
(0.149723 -0.0221032 0)
(0.531602 -0.0233224 0)
(0.492197 -0.0318932 0)
(0.176014 -0.0338936 0)
(0.145312 -0.0354238 0)
(0.170447 -0.0371851 0)
(0.183416 -0.0392706 0)
(0.180911 -0.0413837 0)
(0.165512 -0.0432051 0)
(0.13222 -0.0447003 0)
(0.0801984 -0.0457815 0)
(0.0303953 -0.0463213 0)
(0.00556692 -0.046455 0)
(0.000341061 -0.0464657 0)
(4.58051e-06 -0.0464659 0)
(9.18052e-09 -0.0464659 0)
(2.15189e-12 -0.0464659 0)
(4.6537e-13 -0.0464659 0)
(5.64157e-13 -0.0464659 0)
(2.20188e-13 -0.0464659 0)
(-1.1902e-13 -0.0464659 0)
(-3.55871e-13 -0.0464659 0)
(-4.0705e-13 -0.0464659 0)
(-2.04834e-12 -0.0464659 0)
(-9.17757e-09 -0.0464659 0)
(-4.57879e-06 -0.0464659 0)
(-0.000340911 -0.0464657 0)
(-0.00556452 -0.0464552 0)
(-0.0303844 -0.0463206 0)
(-0.0801908 -0.0457613 0)
(-0.132275 -0.0445959 0)
(-0.165699 -0.0428682 0)
(-0.181299 -0.0406671 0)
(-0.184085 -0.0380935 0)
(-0.171483 -0.035255 0)
(-0.146605 -0.0323898 0)
(-0.176777 -0.0295209 0)
(-0.491863 -0.0265933 0)
(-0.532009 -0.0171334 0)
(-0.150555 -0.0110143 0)
(0.145793 -0.0447276 0)
(0.519843 -0.054295 0)
(0.482192 -0.0727879 0)
(0.172357 -0.0773456 0)
(0.142434 -0.0805522 0)
(0.167551 -0.084034 0)
(0.180495 -0.087774 0)
(0.1782 -0.091342 0)
(0.163137 -0.0946105 0)
(0.13033 -0.0974395 0)
(0.0789868 -0.0996123 0)
(0.0298831 -0.100797 0)
(0.00545644 -0.101113 0)
(0.000332704 -0.101139 0)
(4.43981e-06 -0.10114 0)
(8.82946e-09 -0.10114 0)
(1.8103e-12 -0.10114 0)
(-1.1545e-13 -0.10114 0)
(-9.52164e-14 -0.10114 0)
(-1.01167e-13 -0.10114 0)
(1.30923e-13 -0.10114 0)
(3.09453e-13 -0.10114 0)
(1.51156e-13 -0.10114 0)
(-2.04001e-12 -0.10114 0)
(-8.8321e-09 -0.10114 0)
(-4.44024e-06 -0.10114 0)
(-0.000332699 -0.101139 0)
(-0.00545575 -0.101113 0)
(-0.0298764 -0.1008 0)
(-0.0789614 -0.0996219 0)
(-0.130268 -0.0974385 0)
(-0.163032 -0.0945275 0)
(-0.178093 -0.0910798 0)
(-0.180455 -0.0871969 0)
(-0.167638 -0.0829647 0)
(-0.142725 -0.0787505 0)
(-0.172799 -0.0747371 0)
(-0.48278 -0.0700648 0)
(-0.520317 -0.0521728 0)
(-0.145911 -0.0419817 0)
(0.140503 -0.0885262 0)
(0.504562 -0.0947937 0)
(0.469985 -0.11569 0)
(0.168532 -0.12053 0)
(0.138867 -0.123537 0)
(0.163488 -0.127359 0)
(0.176374 -0.131515 0)
(0.174323 -0.13558 0)
(0.159636 -0.139428 0)
(0.1274 -0.142986 0)
(0.0769625 -0.145982 0)
(0.0289496 -0.147792 0)
(0.00523774 -0.148313 0)
(0.000315061 -0.148359 0)
(4.12961e-06 -0.14836 0)
(8.03695e-09 -0.14836 0)
(1.74603e-12 -0.14836 0)
(7.61731e-14 -0.14836 0)
(2.11856e-13 -0.14836 0)
(1.55917e-13 -0.14836 0)
(-2.97551e-14 -0.14836 0)
(-1.7377e-13 -0.14836 0)
(-2.10666e-13 -0.14836 0)
(-1.85672e-12 -0.14836 0)
(-8.03811e-09 -0.14836 0)
(-4.13001e-06 -0.14836 0)
(-0.000315076 -0.148359 0)
(-0.0052377 -0.148313 0)
(-0.0289477 -0.147793 0)
(-0.0769516 -0.145988 0)
(-0.127365 -0.14301 0)
(-0.159572 -0.139489 0)
(-0.174235 -0.13569 0)
(-0.176265 -0.131647 0)
(-0.163344 -0.127449 0)
(-0.138676 -0.123488 0)
(-0.168407 -0.120209 0)
(-0.47012 -0.115114 0)
(-0.504947 -0.0939036 0)
(-0.140734 -0.0876333 0)
(0.139753 -0.12293 0)
(0.493667 -0.121338 0)
(0.457391 -0.142982 0)
(0.164795 -0.148175 0)
(0.135853 -0.150521 0)
(0.159863 -0.153589 0)
(0.172573 -0.157291 0)
(0.170575 -0.161061 0)
(0.156001 -0.164835 0)
(0.124015 -0.168625 0)
(0.0743554 -0.172172 0)
(0.0276362 -0.17452 0)
(0.00490996 -0.175232 0)
(0.000287644 -0.175296 0)
(3.64223e-06 -0.175297 0)
(6.80065e-09 -0.175297 0)
(1.36278e-12 -0.175297 0)
(2.14237e-14 -0.175297 0)
(8.56947e-14 -0.175297 0)
(6.07004e-14 -0.175297 0)
(3.57061e-15 -0.175297 0)
(-1.20211e-13 -0.175297 0)
(-1.83292e-13 -0.175297 0)
(-1.45205e-12 -0.175297 0)
(-6.80097e-09 -0.175297 0)
(-3.64237e-06 -0.175297 0)
(-0.000287653 -0.175296 0)
(-0.00491003 -0.175232 0)
(-0.0276361 -0.17452 0)
(-0.0743528 -0.172174 0)
(-0.124005 -0.168636 0)
(-0.155977 -0.164872 0)
(-0.170536 -0.161136 0)
(-0.172514 -0.157411 0)
(-0.159775 -0.153759 0)
(-0.135748 -0.150764 0)
(-0.16473 -0.148512 0)
(-0.457432 -0.143332 0)
(-0.493835 -0.12154 0)
(-0.139868 -0.122924 0)
(0.142038 -0.141028 0)
(0.485239 -0.131797 0)
(0.444124 -0.155241 0)
(0.161267 -0.161095 0)
(0.13365 -0.162716 0)
(0.156965 -0.165336 0)
(0.169174 -0.168321 0)
(0.167054 -0.171872 0)
(0.152348 -0.175545 0)
(0.120329 -0.179494 0)
(0.0712817 -0.18348 0)
(0.0260009 -0.186267 0)
(0.00449003 -0.187128 0)
(0.00025246 -0.187204 0)
(3.03014e-06 -0.187205 0)
(5.30683e-09 -0.187205 0)
(1.11998e-12 -0.187205 0)
(1.57107e-13 -0.187205 0)
(1.79721e-13 -0.187205 0)
(1.26162e-13 -0.187205 0)
(-1.07118e-14 -0.187205 0)
(-2.04715e-13 -0.187205 0)
(-2.42802e-13 -0.187205 0)
(-1.045e-12 -0.187205 0)
(-5.30669e-09 -0.187205 0)
(-3.03015e-06 -0.187205 0)
(-0.000252461 -0.187204 0)
(-0.00449007 -0.187128 0)
(-0.026001 -0.186267 0)
(-0.0712819 -0.18348 0)
(-0.120329 -0.179497 0)
(-0.152345 -0.175557 0)
(-0.167046 -0.1719 0)
(-0.169156 -0.168373 0)
(-0.156938 -0.165425 0)
(-0.13362 -0.162858 0)
(-0.161246 -0.16129 0)
(-0.444128 -0.155448 0)
(-0.48528 -0.131949 0)
(-0.142068 -0.141061 0)
(0.148648 -0.138182 0)
(0.479971 -0.132256 0)
(0.429159 -0.157329 0)
(0.157592 -0.163202 0)
(0.131765 -0.16492 0)
(0.154462 -0.16627 0)
(0.166275 -0.168948 0)
(0.163614 -0.171976 0)
(0.148655 -0.175541 0)
(0.116369 -0.179602 0)
(0.0678283 -0.183954 0)
(0.0241208 -0.187074 0)
(0.00400759 -0.188024 0)
(0.000213091 -0.188104 0)
(2.37822e-06 -0.188106 0)
(3.81813e-09 -0.188106 0)
(7.11742e-13 -0.188106 0)
(-2.85649e-14 -0.188106 0)
(2.61845e-14 -0.188106 0)
(1.13069e-13 -0.188106 0)
(0 -0.188106 0)
(-1.24972e-13 -0.188106 0)
(-1.64248e-13 -0.188106 0)
(-7.84345e-13 -0.188106 0)
(-3.81801e-09 -0.188106 0)
(-2.37821e-06 -0.188106 0)
(-0.000213091 -0.188104 0)
(-0.00400759 -0.188024 0)
(-0.0241208 -0.187073 0)
(-0.0678286 -0.183954 0)
(-0.11637 -0.179602 0)
(-0.148657 -0.175541 0)
(-0.163614 -0.171979 0)
(-0.166274 -0.168959 0)
(-0.154461 -0.166293 0)
(-0.131764 -0.16496 0)
(-0.157589 -0.163258 0)
(-0.429158 -0.157391 0)
(-0.479971 -0.132305 0)
(-0.148648 -0.138198 0)
(0.147748 -0.130038 0)
(0.466788 -0.117068 0)
(0.414303 -0.145763 0)
(0.153952 -0.150899 0)
(0.130693 -0.152292 0)
(0.153083 -0.154115 0)
(0.163675 -0.155626 0)
(0.160701 -0.158207 0)
(0.144998 -0.161278 0)
(0.112221 -0.165185 0)
(0.0640823 -0.169655 0)
(0.0220795 -0.172908 0)
(0.00349656 -0.17387 0)
(0.000173486 -0.173947 0)
(1.76978e-06 -0.173948 0)
(2.55193e-09 -0.173948 0)
(4.0586e-13 -0.173948 0)
(-1.03548e-13 -0.173948 0)
(-8.68849e-14 -0.173948 0)
(2.49943e-14 -0.173948 0)
(8.45045e-14 -0.173948 0)
(6.90319e-14 -0.173948 0)
(-4.0467e-14 -0.173948 0)
(-5.73679e-13 -0.173948 0)
(-2.55182e-09 -0.173948 0)
(-1.76977e-06 -0.173948 0)
(-0.000173486 -0.173947 0)
(-0.00349656 -0.17387 0)
(-0.0220795 -0.172908 0)
(-0.0640825 -0.169655 0)
(-0.112222 -0.165185 0)
(-0.144999 -0.161277 0)
(-0.160702 -0.158206 0)
(-0.163677 -0.155625 0)
(-0.153085 -0.154115 0)
(-0.130695 -0.152294 0)
(-0.153953 -0.150902 0)
(-0.414301 -0.145768 0)
(-0.466784 -0.117072 0)
(-0.147746 -0.130041 0)
(0.161147 -0.0978037 0)
(0.464818 -0.0973792 0)
(0.396559 -0.124507 0)
(0.1513 -0.1283 0)
(0.128666 -0.127436 0)
(0.15125 -0.129549 0)
(0.162331 -0.130713 0)
(0.158167 -0.132624 0)
(0.141931 -0.134884 0)
(0.108297 -0.138152 0)
(0.0603866 -0.142416 0)
(0.0200591 -0.145658 0)
(0.00300628 -0.14659 0)
(0.000137862 -0.14666 0)
(1.27051e-06 -0.146661 0)
(1.62302e-09 -0.146661 0)
(2.18998e-13 -0.146661 0)
(-3.68963e-14 -0.146661 0)
(-5.11788e-14 -0.146661 0)
(-1.30923e-14 -0.146661 0)
(9.52164e-14 -0.146661 0)
(1.21401e-13 -0.146661 0)
(7.14123e-15 -0.146661 0)
(-3.58252e-13 -0.146661 0)
(-1.62299e-09 -0.146661 0)
(-1.27051e-06 -0.146661 0)
(-0.000137862 -0.14666 0)
(-0.00300628 -0.14659 0)
(-0.0200591 -0.145658 0)
(-0.0603866 -0.142416 0)
(-0.108297 -0.138152 0)
(-0.141931 -0.134883 0)
(-0.158167 -0.132623 0)
(-0.162332 -0.130711 0)
(-0.151251 -0.129547 0)
(-0.128667 -0.127433 0)
(-0.1513 -0.128296 0)
(-0.396558 -0.124503 0)
(-0.464817 -0.0973773 0)
(-0.161146 -0.0978038 0)
(0.148157 -0.0886491 0)
(0.441056 -0.105465 0)
(0.384506 -0.137346 0)
(0.151129 -0.146903 0)
(0.12949 -0.146644 0)
(0.149925 -0.148725 0)
(0.160712 -0.152248 0)
(0.156682 -0.155851 0)
(0.139671 -0.159348 0)
(0.104963 -0.163219 0)
(0.0568501 -0.167658 0)
(0.0180566 -0.170859 0)
(0.00253082 -0.171731 0)
(0.000105675 -0.171791 0)
(8.65308e-07 -0.171792 0)
(9.62815e-10 -0.171792 0)
(1.47585e-13 -0.171792 0)
(-9.52164e-15 -0.171792 0)
(-8.09339e-14 -0.171792 0)
(-2.97551e-14 -0.171792 0)
(1.09499e-13 -0.171792 0)
(1.84482e-13 -0.171792 0)
(6.78417e-14 -0.171792 0)
(-1.89243e-13 -0.171792 0)
(-9.6264e-10 -0.171792 0)
(-8.65308e-07 -0.171792 0)
(-0.000105675 -0.171791 0)
(-0.00253082 -0.171731 0)
(-0.0180566 -0.170859 0)
(-0.0568501 -0.167658 0)
(-0.104963 -0.163219 0)
(-0.139671 -0.159348 0)
(-0.156682 -0.155851 0)
(-0.160712 -0.152247 0)
(-0.149925 -0.148724 0)
(-0.12949 -0.146642 0)
(-0.15113 -0.146901 0)
(-0.384506 -0.137344 0)
(-0.441055 -0.105464 0)
(-0.148157 -0.088649 0)
(0.144942 -0.29185 0)
(0.417892 -0.308469 0)
(0.356628 -0.356142 0)
(0.14234 -0.387238 0)
(0.126911 -0.399717 0)
(0.145849 -0.417539 0)
(0.155464 -0.43295 0)
(0.151325 -0.448246 0)
(0.134831 -0.461997 0)
(0.100289 -0.475319 0)
(0.0530246 -0.487647 0)
(0.0161341 -0.494571 0)
(0.00210736 -0.496033 0)
(7.92587e-05 -0.496111 0)
(5.66172e-07 -0.496112 0)
(5.35207e-10 -0.496112 0)
(6.54613e-14 -0.496112 0)
(-9.52164e-15 -0.496112 0)
(-1.07118e-14 -0.496112 0)
(2.73747e-14 -0.496112 0)
(1.10689e-13 -0.496112 0)
(1.63058e-13 -0.496112 0)
(9.99772e-14 -0.496112 0)
(-2.73747e-14 -0.496112 0)
(-5.34946e-10 -0.496112 0)
(-5.66173e-07 -0.496112 0)
(-7.92587e-05 -0.496111 0)
(-0.00210736 -0.496033 0)
(-0.0161341 -0.494571 0)
(-0.0530246 -0.487647 0)
(-0.100289 -0.475319 0)
(-0.134831 -0.461997 0)
(-0.151325 -0.448246 0)
(-0.155464 -0.43295 0)
(-0.145849 -0.417538 0)
(-0.126911 -0.399717 0)
(-0.14234 -0.387237 0)
(-0.356628 -0.356141 0)
(-0.417892 -0.308468 0)
(-0.144942 -0.29185 0)
(0.132143 -0.259207 0)
(0.379102 -0.39841 0)
(0.308601 -0.446122 0)
(0.109139 -0.472345 0)
(0.100291 -0.499233 0)
(0.117901 -0.502333 0)
(0.131122 -0.516258 0)
(0.128692 -0.522895 0)
(0.113582 -0.532911 0)
(0.0802457 -0.546705 0)
(0.038298 -0.562885 0)
(0.00997501 -0.571972 0)
(0.00104662 -0.57366 0)
(2.97842e-05 -0.573734 0)
(1.53979e-07 -0.573735 0)
(1.00912e-10 -0.573735 0)
(-5.95102e-14 -0.573735 0)
(-5.41543e-14 -0.573735 0)
(-1.78531e-15 -0.573735 0)
(3.98719e-14 -0.573735 0)
(9.04556e-14 -0.573735 0)
(1.55917e-13 -0.573735 0)
(1.11284e-13 -0.573735 0)
(2.73747e-14 -0.573735 0)
(-1.00937e-10 -0.573735 0)
(-1.53979e-07 -0.573735 0)
(-2.97842e-05 -0.573734 0)
(-0.00104662 -0.57366 0)
(-0.00997501 -0.571972 0)
(-0.038298 -0.562885 0)
(-0.0802457 -0.546705 0)
(-0.113582 -0.532911 0)
(-0.128692 -0.522895 0)
(-0.131122 -0.516258 0)
(-0.117901 -0.502333 0)
(-0.100291 -0.499233 0)
(-0.109139 -0.472345 0)
(-0.308601 -0.446122 0)
(-0.379102 -0.39841 0)
(-0.132144 -0.259207 0)
(0.0108012 -0.0237155 0)
(0.237774 -0.149637 0)
(0.285382 -0.170376 0)
(0.0911604 -0.173732 0)
(0.0980135 -0.189033 0)
(0.129443 -0.176096 0)
(0.13565 -0.177055 0)
(0.135278 -0.171397 0)
(0.111887 -0.170221 0)
(0.0714048 -0.173156 0)
(0.0286762 -0.179395 0)
(0.00575099 -0.183141 0)
(0.00040946 -0.183779 0)
(6.99651e-06 -0.183802 0)
(2.03655e-08 -0.183802 0)
(7.59172e-12 -0.183802 0)
(-1.69604e-13 -0.183802 0)
(-1.28542e-13 -0.183802 0)
(-4.28474e-14 -0.183802 0)
(5.95102e-15 -0.183802 0)
(8.1529e-14 -0.183802 0)
(1.54132e-13 -0.183802 0)
(1.16045e-13 -0.183802 0)
(-5.95102e-16 -0.183802 0)
(-7.86904e-12 -0.183802 0)
(-2.03654e-08 -0.183802 0)
(-6.99651e-06 -0.183802 0)
(-0.00040946 -0.183779 0)
(-0.00575099 -0.183141 0)
(-0.0286762 -0.179395 0)
(-0.0714048 -0.173156 0)
(-0.111887 -0.170221 0)
(-0.135278 -0.171397 0)
(-0.13565 -0.177055 0)
(-0.129443 -0.176096 0)
(-0.0980135 -0.189033 0)
(-0.0911604 -0.173732 0)
(-0.285382 -0.170376 0)
(-0.237774 -0.149637 0)
(-0.0108012 -0.0237155 0)
(0.0108012 0.0237155 0)
(0.237774 0.149637 0)
(0.285382 0.170376 0)
(0.0911604 0.173732 0)
(0.0980135 0.189033 0)
(0.129443 0.176096 0)
(0.13565 0.177055 0)
(0.135278 0.171397 0)
(0.111887 0.170221 0)
(0.0714048 0.173156 0)
(0.0286762 0.179395 0)
(0.00575099 0.183141 0)
(0.00040946 0.183779 0)
(6.99651e-06 0.183802 0)
(2.03654e-08 0.183802 0)
(7.91843e-12 0.183802 0)
(-1.60678e-14 0.183802 0)
(4.87984e-14 0.183802 0)
(3.03502e-14 0.183802 0)
(3.57061e-15 0.183802 0)
(-1.01167e-14 0.183802 0)
(3.57061e-14 0.183802 0)
(2.67796e-14 0.183802 0)
(-4.46327e-14 0.183802 0)
(-7.79584e-12 0.183802 0)
(-2.03658e-08 0.183802 0)
(-6.99651e-06 0.183802 0)
(-0.00040946 0.183779 0)
(-0.00575099 0.183141 0)
(-0.0286762 0.179395 0)
(-0.0714048 0.173156 0)
(-0.111887 0.170221 0)
(-0.135278 0.171397 0)
(-0.13565 0.177055 0)
(-0.129443 0.176096 0)
(-0.0980135 0.189033 0)
(-0.0911604 0.173732 0)
(-0.285382 0.170376 0)
(-0.237774 0.149637 0)
(-0.0108012 0.0237155 0)
(0.132143 0.259207 0)
(0.379102 0.39841 0)
(0.308601 0.446122 0)
(0.109139 0.472345 0)
(0.100291 0.499233 0)
(0.117901 0.502333 0)
(0.131122 0.516258 0)
(0.128692 0.522895 0)
(0.113582 0.532911 0)
(0.0802457 0.546705 0)
(0.038298 0.562885 0)
(0.00997501 0.571972 0)
(0.00104662 0.57366 0)
(2.97842e-05 0.573734 0)
(1.53979e-07 0.573735 0)
(1.01059e-10 0.573735 0)
(7.20074e-14 0.573735 0)