/*--------------------------------*- C++ -*----------------------------------*\
| =========                 |                                                 |
| \\      /  F ield         | OpenFOAM: The Open Source CFD Toolbox           |
|  \\    /   O peration     | Version:  v1912                                 |
|   \\  /    A nd           | Website:  www.openfoam.com                      |
|    \\/     M anipulation  |                                                 |
\*---------------------------------------------------------------------------*/
FoamFile
{
    version     2.0;
    format      ascii;
    class       volScalarField;
    location    "1.24";
    object      rho;
}
// * * * * * * * * * * * * * * * * * * * * * * * * * * * * * * * * * * * * * //

dimensions      [1 -3 0 0 0 0 0];


internalField   nonuniform List<scalar> 
1900
(
14000
14000
14000.1
14004.7
14053.7
14215.6
14438.1
14614.9
14679.7
14757.2
14000
14000
14000.1
14004.6
14053.4
14214
14436
14609.7
14680.7
14732.7
14000
14000
14000.1
14004.6
14053.2
14213.4
14435.5
14607.1
14683.8
14716.4
14000
14000
14000.1
14004.6
14053.4
14214
14436
14609.7
14680.7
14732.7
14000
14000
14000.1
14004.7
14053.7
14215.6
14438.1
14614.9
14679.7
14757.2
14689.4
14706.2
14665.2
14533.5
13919.3
14724.8
14729
14666.4
14593.9
14297
14710.5
14709.9
14642.8
14548.4
14248.8
14724.8
14729
14666.4
14593.9
14297
14689.4
14706.2
14665.2
14533.5
13919.3
15462.7
15447.9
15694.3
15883.7
16462.9
15320.2
15428.1
15700.2
15911.4
15951
15315.6
15435.9
15695
15860.1
15570.5
15320.2
15428.1
15700.2
15911.4
15951
15462.7
15447.9
15694.3
15883.7
16462.9
15654.8
9839.78
10090.1
10119.2
10294.7
10716.6
11266.6
11926
12621.3
13264.6
13736.7
13953.2
13997.3
14000
14000.1
14000.1
14000.1
14000.1
14000.1
14000.1
14000.1
14000.1
14000.1
14000.1
14000.1
14000.1
14000
13996.7
13945.8
13702.2
13179.3
12468.3
11686
10897.6
10131.4
9401.31
8736.68
8321.51
8477.85
31436.7
14624.5
9870.25
10192.7
10161.6
10300.4
10728.6
11265.9
11926.6
12622.7
13265.8
13737.3
13953.4
13997.3
14000
14000.1
14000.1
14000.1
14000.1
14000.1
14000.1
14000.1
14000.1
14000.1
14000.1
14000.1
14000.1
14000
13996.7
13945.8
13702.2
13179.3
12468.3
11686
10897.6
10131.4
9401.31
8736.68
8321.51
8477.85
31436.7
13989.3
10308
10242.5
10180.9
10303.1
10732.1
11265.9
11926.8
12623.1
13266.2
13737.6
13953.4
13997.3
14000
14000.1
14000.1
14000.1
14000.1
14000.1
14000.1
14000.1
14000.1
14000.1
14000.1
14000.1
14000.1
14000
13996.7
13945.8
13702.2
13179.3
12468.3
11686
10897.6
10131.4
9401.31
8736.68
8321.51
8477.85
31436.7
14624.5
9870.25
10192.7
10161.6
10300.4
10728.6
11265.9
11926.6
12622.7
13265.8
13737.3
13953.4
13997.3
14000
14000.1
14000.1
14000.1
14000.1
14000.1
14000.1
14000.1
14000.1
14000.1
14000.1
14000.1
14000.1
14000
13996.7
13945.8
13702.2
13179.3
12468.3
11686
10897.6
10131.4
9401.31
8736.68
8321.51
8477.85
31436.7
15654.8
9839.78
10090.1
10119.2
10294.7
10716.6
11266.6
11926
12621.3
13264.6
13736.7
13953.2
13997.3
14000
14000.1
14000.1
14000.1
14000.1
14000.1
14000.1
14000.1
14000.1
14000.1
14000.1
14000.1
14000.1
14000
13996.7
13945.8
13702.2
13179.3
12468.3
11686
10897.6
10131.4
9401.31
8736.68
8321.51
8477.85
31436.7
22596.1
9577.04
9856.98
9968
10240.4
10679.1
11259.4
11921
12615.3
13259.3
13733.7
13952.4
13997.2
14000
14000.1
14000.1
14000.1
14000.1
14000.1
14000.1
14000.1
14000.1
14000.1
14000.1
14000.1
14000.1
14000
13996.7
13945.8
13702.2
13179.3
12468.3
11686
10897.6
10131.4
9401.31
8736.68
8321.51
8477.85
31436.7
28303.9
8945.15
9395.97
9678.5
10089.5
10599.1
11221.5
11897.3
12597.1
13246.5
13727.4
13950.8
13997.1
14000
14000.1
14000.1
14000.1
14000.1
14000.1
14000.1
14000.1
14000.1
14000.1
14000.1
14000.1
14000.1
14000
13996.7
13945.8
13702.2
13179.3
12468.3
11686
10897.6
10131.4
9401.31
8736.68
8321.51
8477.85
31436.7
31365.9
8829.96
9138.58
9463.56
9946.62
10515.8
11163.5
11857.8
12569.8
13229.7
13719.9
13949.1
13996.9
14000
14000.1
14000.1
14000.1
14000.1
14000.1
14000.1
14000.1
14000.1
14000.1
14000.1
14000.1
14000.1
14000
13996.7
13945.8
13702.2
13179.3
12468.3
11686
10897.6
10131.4
9401.31
8736.68
8321.51
8477.85
31436.7
32739.7
8809.38
8947.77
9277.15
9809.02
10424
11097.2
11812
12539.5
13212.5
13712.9
13947.6
13996.8
14000
14000.1
14000.1
14000.1
14000.1
14000.1
14000.1
14000.1
14000.1
14000.1
14000.1
14000.1
14000.1
14000
13996.7
13945.8
13702.2
13179.3
12468.3
11686
10897.6
10131.4
9401.31
8736.68
8321.51
8477.85
31436.7
32761.9
8783.92
8785.94
9111.15
9684.77
10333.7
11031.6
11767.1
12511.4
13197.7
13707.4
13946.6
13996.8
14000
14000.1
14000.1
14000.1
14000.1
14000.1
14000.1
14000.1
14000.1
14000.1
14000.1
14000.1
14000.1
14000
13996.7
13945.8
13702.2
13179.3
12468.3
11686
10897.6
10131.4
9401.31
8736.68
8321.51
8477.85
31436.7
32604.6
8754.06
8619.26
8971.07
9576.23
10252.4
10974.4
11729.7
12489.7
13187.4
13704
13946
13996.7
14000
14000
14000
14000
14000
14000
14000
14000
14000
14000
14000
14000
14000
14000
13996.7
13945.8
13702.2
13179.3
12468.3
11686
10897.6
10131.4
9401.31
8736.68
8321.51
8477.85
31436.7
32227.4
8672.41
8475.87
8856.75
9487.22
10187.1
10929.5
11701.5
12474.4
13181.1
13702.3
13945.6
13996.5
13999.8
13999.8
13999.8
13999.8
13999.8
13999.8
13999.8
13999.8
13999.8
13999.8
13999.8
13999.8
13999.8
13999.8
13996.5
13945.6
13701.9
13179.1
12468.1
11685.9
10897.5
10131.3
9401.25
8736.64
8321.48
8477.84
31436.7
31809.8
8560.18
8364.09
8766.13
9418.78
10140
10899.7
11683.8
12462.3
13170.8
13692.4
13935.7
13986.6
13989.8
13989.9
13989.9
13989.9
13989.9
13989.9
13989.9
13989.9
13989.9
13989.9
13989.9
13989.9
13989.9
13989.8
13986.6
13935.7
13692.3
13170.1
12460
11678.9
10891.7
10126.7
9397.67
8734
8319.49
8476.93
31435.6
31480.9
8479.05
8304.85
8712.37
9363.06
10078.8
10831.4
11607.3
12378.6
13080.9
13598.2
13839.4
13889.8
13893
13893
13893
13893
13893
13893
13893
13893
13893
13893
13893
13893
13893
13893
13889.8
13839.4
13598.3
13081
12378.2
11605.8
10827.9
10072.2
9352.03
8696.9
8288.37
8458.83
31396
31074.4
8352.49
8140.93
8532.44
9161.79
9856.45
10586.7
11340.1
12089.4
12772
13274.3
13508.2
13556.8
13560
13560
13560
13560
13560
13560
13560
13560
13560
13560
13560
13560
13560
13560
13556.8
13508.2
13274.4
12772.2
12090
11341.2
10588.1
9857.76
9162.4
8531.63
8139.13
8348.33
31047.2
29913.3
8053.61
7815.54
8188.76
8787.05
9448.04
10143.3
10861.3
11575.8
12226.3
12704
12924.9
12970.5
12973.3
12973.4
12973.4
12973.4
12973.4
12973.4
12973.4
12973.4
12973.4
12973.4
12973.4
12973.4
12973.4
12973.3
12970.5
12924.9
12704
12226.4
11576.1
10861.9
10144.3
9449.43
8788.98
8191.4
7818.58
8056.71
29913.4
27961.5
7597.7
7381.34
7736.55
8301.69
8925.72
9583.16
10262.3
10937.9
11551.5
11999.3
12203.8
12245.1
12247.6
12247.6
12247.6
12247.6
12247.6
12247.6
12247.6
12247.6
12247.6
12247.6
12247.6
12247.6
12247.6
12247.6
12245.1
12203.8
11999.3
11551.6
10938
10262.5
9583.54
8926.34
8302.65
7737.83
7382.74
7598.99
27962.8
25601.1
7056.83
6902.57
7243.32
7776.96
8365.94
8985.97
9626.6
10262.9
10838.5
11254.2
11440.3
11476.7
11478.8
11478.9
11478.9
11478.9
11478.9
11478.9
11478.9
11478.9
11478.9
11478.9
11478.9
11478.9
11478.9
11478.8
11476.7
11440.3
11254.2
10838.5
10262.9
9626.62
8986.03
8366.09
7777.2
7243.64
6902.93
7057.1
25601.6
23037.8
6500.21
6421.54
6748.74
7254.42
7807.87
8394.01
8997.03
9595.2
10133
10516
10682.9
10714.2
10716
10716
10716
10716
10716
10716
10716
10716
10716
10716
10716
10716
10716
10716
10714.2
10682.9
10516
10133
9595.19
8997.02
8394
7807.87
7254.43
6748.75
6421.55
6500.21
23037.9
20698.5
5967.83
5953.47
6271.32
6746.26
7272.53
7823.52
8392.82
8954.16
9455.15
9805.59
9953.2
9979.45
9980.8
9980.82
9980.82
9980.82
9980.82
9980.82
9980.82
9980.82
9980.82
9980.82
9980.82
9980.82
9980.82
9980.8
9979.45
9953.2
9805.59
9455.14
8954.16
8392.81
7823.51
7272.51
6746.24
6271.29
5953.45
5967.81
20698.5
18199.8
5487.5
5520.52
5829.61
6276.39
6763.49
7286.9
7821.23
8348.01
8813.27
9131.91
9260.9
9282.5
9283.52
9283.53
9283.53
9283.53
9283.53
9283.53
9283.53
9283.53
9283.53
9283.53
9283.53
9283.53
9283.53
9283.52
9282.5
9260.9
9131.91
8813.27
8348.01
7821.23
7286.9
6763.49
6276.38
5829.6
5520.51
5487.49
18199.8
16214.9
5071.45
5123.86
5421.09
5844.95
6303.46
6796.08
7302.14
7797.9
8230.7
8518.8
8629.61
8646.81
8647.54
8647.55
8647.55
8647.55
8647.55
8647.55
8647.55
8647.55
8647.55
8647.55
8647.55
8647.55
8647.55
8647.54
8646.81
8629.61
8518.8
8230.7
7797.9
7302.14
6796.08
6303.46
5844.95
5421.08
5123.85
5071.45
16214.9
14589.6
4793.45
4830.78
5128.61
5542.25
5993.78
6477.04
6968.8
7448.64
7862.85
8132.23
8231.06
8245.26
8245.81
8245.81
8245.81
8245.81
8245.81
8245.81
8245.81
8245.81
8245.81
8245.81
8245.81
8245.81
8245.81
8245.81
8245.26
8231.06
8132.23
7862.85
7448.64
6968.8
6477.04
5993.78
5542.25
5128.61
4830.78
4793.45
14589.6
14483.9
4717.54
4786.68
5070.43
5504.06
6007.43
6561.37
7131.71
7667.43
8086.75
8317.14
8385
8392.67
8392.9
8392.9
8392.9
8392.9
8392.9
8392.9
8392.9
8392.9
8392.9
8392.9
8392.9
8392.9
8392.9
8392.9
8392.67
8385
8317.14
8086.75
7667.43
7131.71
6561.37
6007.43
5504.06
5070.43
4786.68
4717.54
14483.9
63273.2
14883.1
15000.6
16777
18898.1
21582.1
24086.6
26769.2
29175.7
30994.8
31881
32083.6
32098.7
32099
32099
32099
32099
32099
32099
32099
32099
32099
32099
32099
32099
32099
32099
32098.7
32083.6
31881
30994.8
29175.7
26769.2
24086.6
21582.1
18898.1
16777
15000.6
14883.1
63273.2
63273.2
14883.1
15000.6
16777
18898.1
21582.1
24086.6
26769.2
29175.7
30994.8
31881
32083.6
32098.7
32099
32099
32099
32099
32099
32099
32099
32099
32099
32099
32099
32099
32099
32099
32098.7
32083.6
31881
30994.8
29175.7
26769.2
24086.6
21582.1
18898.1
16777
15000.6
14883.1
63273.2
14483.9
4717.54
4786.68
5070.43
5504.06
6007.43
6561.37
7131.71
7667.43
8086.75
8317.14
8385
8392.67
8392.9
8392.9
8392.9
8392.9
8392.9
8392.9
8392.9
8392.9
8392.9
8392.9
8392.9
8392.9
8392.9
8392.9
8392.67
8385
8317.14
8086.75
7667.43
7131.71
6561.37
6007.43
5504.06
5070.43
4786.68
4717.54
14483.9
14589.6
4793.45
4830.78
5128.61
5542.25
5993.78
6477.04
6968.8
7448.64
7862.85
8132.23
8231.06
8245.26
8245.81
8245.81
8245.81
8245.81
8245.81
8245.81
8245.81
8245.81
8245.81
8245.81
8245.81
8245.81
8245.81
8245.81
8245.26
8231.06
8132.23
7862.85
7448.64
6968.8
6477.04
5993.78
5542.25
5128.61
4830.78
4793.45
14589.6
16214.9
5071.45
5123.86
5421.09
5844.95
6303.46
6796.08
7302.14
7797.9
8230.7
8518.8
8629.61
8646.81
8647.54
8647.55
8647.55
8647.55
8647.55
8647.55
8647.55
8647.55
8647.55
8647.55
8647.55
8647.55
8647.55
8647.54
8646.81
8629.61
8518.8
8230.7
7797.9
7302.14
6796.08
6303.46
5844.95
5421.08
5123.85
5071.45
16214.9
18199.8
5487.5
5520.52
5829.61
6276.39
6763.49
7286.9
7821.23
8348.01
8813.27
9131.91
9260.9
9282.5
9283.52
9283.53
9283.53
9283.53
9283.53
9283.53
9283.53
9283.53
9283.53
9283.53
9283.53
9283.53
9283.53
9283.52
9282.5
9260.9
9131.91
8813.27
8348.01
7821.23
7286.9
6763.49
6276.38
5829.6
5520.51
5487.49
18199.8
20698.5
5967.83
5953.47
6271.32
6746.26
7272.53
7823.52
8392.82
8954.16
9455.15
9805.59
9953.2
9979.45
9980.8
9980.82
9980.82
9980.82
9980.82
9980.82
9980.82
9980.82
9980.82
9980.82
9980.82
9980.82
9980.82
9980.8
9979.45
9953.2
9805.59
9455.14
8954.16
8392.81
7823.51
7272.51
6746.24
6271.29
5953.45
5967.81
20698.5
23037.8
6500.21
6421.54
6748.74
7254.42
7807.87
8394.01
8997.03
9595.2
10133
10516
10682.9
10714.2
10716
10716
10716
10716
10716
10716
10716
10716
10716
10716
10716
10716
10716
10716
10714.2
10682.9
10516
10133
9595.19
8997.02
8394
7807.87
7254.43
6748.75
6421.55
6500.21
23037.9
25601.1
7056.83
6902.57
7243.32
7776.96
8365.94
8985.97
9626.6
10262.9
10838.5
11254.2
11440.3
11476.7
11478.8
11478.9
11478.9
11478.9
11478.9
11478.9
11478.9
11478.9
11478.9
11478.9
11478.9
11478.9
11478.9
11478.8
11476.7
11440.3
11254.2
10838.5
10262.9
9626.62
8986.03
8366.09
7777.2
7243.64
6902.93
7057.1
25601.6
27961.5
7597.7
7381.34
7736.55
8301.69
8925.72
9583.16
10262.3
10937.9
11551.5
11999.3
12203.8
12245.1
12247.6
12247.6
12247.6
12247.6
12247.6
12247.6
12247.6
12247.6
12247.6
12247.6
12247.6
12247.6
12247.6
12247.6
12245.1
12203.8
11999.3
11551.6
10938
10262.5
9583.54
8926.34
8302.65
7737.83
7382.74
7598.99
27962.8
29913.3
8053.61
7815.54
8188.76
8787.05
9448.04
10143.3
10861.3
11575.8
12226.3
12704
12924.9
12970.5
12973.3
12973.4
12973.4
12973.4
12973.4
12973.4
12973.4
12973.4
12973.4
12973.4
12973.4
12973.4
12973.4
12973.3
12970.5
12924.9
12704
12226.4
11576.1
10861.9
10144.3
9449.43
8788.98
8191.4
7818.58
8056.71
29913.4
31074.4
8352.49
8140.93
8532.44
9161.79
9856.45
10586.7
11340.1
12089.4
12772
13274.3
13508.2
13556.8
13560
13560
13560
13560
13560
13560
13560
13560
13560
13560
13560
13560
13560
13560
13556.8
13508.2
13274.4
12772.2
12090
11341.2
10588.1
9857.76
9162.4
8531.63
8139.13
8348.33
31047.2
31480.9
8479.05
8304.85
8712.37
9363.06
10078.8
10831.4
11607.3
12378.6
13080.9
13598.2
13839.4
13889.8
13893
13893
13893
13893
13893
13893
13893
13893
13893
13893
13893
13893
13893
13893
13889.8
13839.4
13598.3
13081
12378.2
11605.8
10827.9
10072.2
9352.03
8696.9
8288.37
8458.83
31396
31809.8
8560.18
8364.09
8766.13
9418.78
10140
10899.7
11683.8
12462.3
13170.8
13692.4
13935.7
13986.6
13989.8
13989.9
13989.9
13989.9
13989.9
13989.9
13989.9
13989.9
13989.9
13989.9
13989.9
13989.9
13989.9
13989.8
13986.6
13935.7
13692.3
13170.1
12460
11678.9
10891.7
10126.7
9397.67
8734
8319.49
8476.93
31435.6
32227.4
8672.41
8475.87
8856.75
9487.22
10187.1
10929.5
11701.5
12474.4
13181.1
13702.3
13945.6
13996.5
13999.8
13999.8
13999.8
13999.8
13999.8
13999.8
13999.8
13999.8
13999.8
13999.8
13999.8
13999.8
13999.8
13999.8
13996.5
13945.6
13701.9
13179.1
12468.1
11685.9
10897.5
10131.3
9401.25
8736.64
8321.48
8477.84
31436.7
32604.6
8754.06
8619.26
8971.07
9576.23
10252.4
10974.4
11729.7
12489.7
13187.4
13704
13946
13996.7
14000
14000
14000
14000
14000
14000
14000
14000
14000
14000
14000
14000
14000
14000
13996.7
13945.8
13702.2
13179.3
12468.3
11686
10897.6
10131.4
9401.31
8736.68
8321.51
8477.85
31436.7
32761.9
8783.92
8785.94
9111.15
9684.77
10333.7
11031.6
11767.1
12511.4
13197.7
13707.4
13946.6
13996.8
14000
14000.1
14000.1
14000.1
14000.1
14000.1
14000.1
14000.1
14000.1
14000.1
14000.1
14000.1
14000.1
14000
13996.7
13945.8
13702.2
13179.3
12468.3
11686
10897.6
10131.4
9401.31
8736.68
8321.51
8477.85
31436.7
32739.7
8809.38
8947.77
9277.15
9809.02
10424
11097.2
11812
12539.5
13212.5
13712.9
13947.6
13996.8
14000
14000.1
14000.1
14000.1
14000.1
14000.1
14000.1
14000.1
14000.1
14000.1
14000.1
14000.1
14000.1
14000
13996.7
13945.8
13702.2
13179.3
12468.3
11686
10897.6
10131.4
9401.31
8736.68
8321.51
8477.85
31436.7
31365.9
8829.96
9138.58
9463.56
9946.62
10515.8
11163.5
11857.8
12569.8
13229.7
13719.9
13949.1
13996.9
14000
14000.1
14000.1
14000.1
14000.1
14000.1
14000.1
14000.1
14000.1
14000.1
14000.1
14000.1
14000.1
14000
13996.7
13945.8
13702.2
13179.3
12468.3
11686
10897.6
10131.4
9401.31
8736.68
8321.51
8477.85
31436.7
28303.9
8945.15
9395.97
9678.5
10089.5
10599.1
11221.5
11897.3
12597.1
13246.5
13727.4
13950.8
13997.1
14000
14000.1
14000.1
14000.1
14000.1
14000.1
14000.1
14000.1
14000.1
14000.1
14000.1
14000.1
14000.1
14000
13996.7
13945.8
13702.2
13179.3
12468.3
11686
10897.6
10131.4
9401.31
8736.68
8321.51
8477.85
31436.7
22596.1
9577.04
9856.98
9968
10240.4
10679.1
11259.4
11921
12615.3
13259.3
13733.7
13952.4
13997.2
14000
14000.1
14000.1
14000.1
14000.1
14000.1
14000.1
14000.1
14000.1
14000.1
14000.1
14000.1
14000.1
14000
13996.7
13945.8
13702.2
13179.3
12468.3
11686
10897.6
10131.4
9401.31
8736.68
8321.51
8477.85
31436.7
)
;

boundaryField
{
    inlet
    {
        type            calculated;
        value           uniform 14000.1;
    }
    outlet
    {
        type            calculated;
        value           nonuniform List<scalar> 
165
(
1887.54
2147.31
2138.49
2106.35
2097.15
2094.61
2099.62
2109.5
2118.25
2128.28
2156.93
2206.99
2270.9
2345.15
2414.31
2488.82
2527.26
2597.29
2937.36
2976.61
2976.61
2957.93
2613.3
2537.22
2496.47
2419.06
2347.47
2272.57
2209.63
2164.47
2143.21
2138.4
2138.04
2138.03
2138.03
2138.03
2138.03
2138.03
2138.03
2138.03
2138.03
2138.03
2138.03
2138.03
2138.03
2138.03
2138.03
2138.04
2138.4
2143.21
2164.47
2209.63
2272.57
2347.47
2419.06
2496.47
2537.22
2613.3
2957.93
2976.61
2119.58
2119.58
2119.58
2119.58
2119.58
2119.58
2119.58
2119.61
2120.57
2129.02
2156.92
2206.96
2270.89
2345.15
2414.31
2488.82
2527.26
2597.29
2937.36
2976.61
2119.58
2119.58
2119.58
2119.58
2119.58
2976.61
2937.36
2597.29
2527.26
2488.82
2414.31
2345.15
2270.89
2206.96
2156.92
2129.02
2120.57
2119.61
2119.58
2119.58
2119.58
2119.58
2119.58
2119.58
2119.58
2976.61
2957.93
2613.3
2537.22
2496.47
2419.06
2347.47
2272.57
2209.63
2164.47
2143.21
2138.4
2138.04
2138.03
2138.03
2138.03
2138.03
2138.03
2138.03
2138.03
2138.03
2138.03
2138.03
2138.03
2138.03
2138.03
2138.03
2138.04
2138.4
2143.21
2164.47
2209.63
2272.57
2347.47
2419.06
2496.47
2537.22
2613.3
2957.93
2976.61
2976.61
2937.36
2597.29
2527.26
2488.82
2414.31
2345.15
2270.9
2206.99
2156.93
2128.28
2118.25
2109.5
2099.62
2094.61
2097.15
2106.35
2138.49
2147.31
1887.54
)
;
    }
    obstacle
    {
        type            calculated;
        value           nonuniform List<scalar> 
40
(
14000
14000
14000.1
14004.7
14053.7
14215.6
14438.1
14614.9
14679.7
14757.2
14000
14000
14000.1
14004.7
14053.7
14215.6
14438.1
14614.9
14679.7
14757.2
14689.4
14706.2
14665.2
14533.5
13919.3
14689.4
14706.2
14665.2
14533.5
13919.3
15462.7
15447.9
15694.3
15883.7
16462.9
15462.7
15447.9
15694.3
15883.7
16462.9
)
;
    }
    empty
    {
        type            empty;
    }
}


// ************************************************************************* //
