/*--------------------------------*- C++ -*----------------------------------*\
| =========                 |                                                 |
| \\      /  F ield         | OpenFOAM: The Open Source CFD Toolbox           |
|  \\    /   O peration     | Version:  v1912                                 |
|   \\  /    A nd           | Website:  www.openfoam.com                      |
|    \\/     M anipulation  |                                                 |
\*---------------------------------------------------------------------------*/
FoamFile
{
    version     2.0;
    format      ascii;
    class       volVectorField;
    location    "3.76";
    object      grad(rho);
}
// * * * * * * * * * * * * * * * * * * * * * * * * * * * * * * * * * * * * * //

dimensions      [1 -4 0 0 0 0 0];


internalField   nonuniform List<vector> 
1900
(
(108665 -0.997284 0)
(-80180.4 -0.948993 0)
(-10684.8 2.15253 0)
(-1498.48 4.36053 0)
(-999.076 8.09068 0)
(-1154.55 11.4703 0)
(-1319.08 3.46364 0)
(-1491.24 -43.8875 0)
(-1483.98 -222.879 0)
(-2022.2 -459.317 0)
(108663 -1.51917 0)
(-80177.3 -1.19875 0)
(-10679.4 3.59329 0)
(-1492.55 5.52269 0)
(-991.966 4.2628 0)
(-1159.18 1.49901 0)
(-1374.43 -15.1034 0)
(-1717.59 -65.0788 0)
(-1899.41 -208.511 0)
(-2134.79 -340.964 0)
(108663 -5.3646e-09 0)
(-80175.3 -6.25278e-09 0)
(-10678 4.47642e-09 0)
(-1497.81 1.66978e-09 0)
(-1003.1 -6.21725e-10 0)
(-1173.92 -1.03029e-09 0)
(-1385.65 -1.03029e-09 0)
(-1684.65 -1.20792e-09 0)
(-1759.87 2.64677e-09 0)
(-2101.95 1.38556e-09 0)
(108663 1.51917 0)
(-80177.3 1.19875 0)
(-10679.4 -3.59329 0)
(-1492.55 -5.52269 0)
(-991.966 -4.2628 0)
(-1159.18 -1.49901 0)
(-1374.43 15.1034 0)
(-1717.59 65.0788 0)
(-1899.41 208.511 0)
(-2134.79 340.964 0)
(108665 0.997284 0)
(-80180.4 0.948993 0)
(-10684.8 -2.15253 0)
(-1498.48 -4.36053 0)
(-999.076 -8.09068 0)
(-1154.55 -11.4703 0)
(-1319.08 -3.46364 0)
(-1491.24 43.8875 0)
(-1483.98 222.879 0)
(-2022.2 459.317 0)
(-1453.73 -392.736 1.44765e-11)
(208.573 -602.376 -1.73982e-11)
(1059.76 -1079.41 -2.20445e-11)
(-4740.02 -990.377 0)
(-5282.74 5105.45 -9.0296e-11)
(-1483.56 -325.283 1.44055e-11)
(-265.924 -541.938 1.73982e-11)
(1010.18 -872.632 2.20445e-11)
(-1627.56 -779.921 0)
(-3451.58 4182.67 0)
(-1750.06 1.22285e-09 0)
(-422.507 6.23283e-10 0)
(644.677 -4.93432e-09 0)
(-2627.03 -3.16245e-09 0)
(-1716.61 -7.82443e-09 0)
(-1483.56 325.283 1.44055e-11)
(-265.924 541.938 1.73982e-11)
(1010.18 872.632 2.20445e-11)
(-1627.56 779.921 0)
(-3451.58 -4182.67 0)
(-1453.73 392.736 -4.32876e-11)
(208.573 602.376 -1.73982e-11)
(1059.76 1079.41 -2.20445e-11)
(-4740.02 990.377 -6.06114e-11)
(-5282.74 -5105.45 9.0296e-11)
(194.714 -2579.1 4.06288e-11)
(-5927.84 442.417 -3.25643e-11)
(-3815.02 845.426 0)
(-5639.83 950.121 2.36959e-11)
(-11655.1 -3154.16 -1.01046e-11)
(-1361.57 -2546.61 -2.02756e-11)
(-5045.12 501.052 1.62888e-11)
(-3586.32 889.433 0)
(-7342.57 50.8986 -1.48282e-11)
(-13786.6 -5173.24 2.46346e-12)
(-865.429 -1.21115e-08 0)
(-5067.16 -5.92119e-09 0)
(-4013.95 8.94758e-09 0)
(-8299.26 -2.55424e-09 5.93191e-12)
(-14436.5 -6.85611e-09 -4.92691e-12)
(-1361.57 2546.61 -2.02756e-11)
(-5045.12 -501.052 1.62888e-11)
(-3586.32 -889.433 0)
(-7342.57 -50.8986 -1.48282e-11)
(-13786.6 5173.24 2.46346e-12)
(194.714 2579.1 2.02756e-11)
(-5927.84 -442.417 -1.33241e-14)
(-3815.02 -845.426 0)
(-5639.83 -950.121 2.86145e-14)
(-11655.1 3154.16 1.01046e-11)
(-25698.7 -27994.6 0)
(-17414 2864.31 0)
(1311.45 3026.16 0)
(272.033 2046.43 0)
(-1592.99 1141.76 0)
(-1956.75 571.161 0)
(-1682.21 272.44 0)
(-782.93 77.3981 0)
(-290.463 88.9531 0)
(-277.482 48.0183 0)
(-227.869 38.7959 0)
(-221.81 28.1854 0)
(-202.552 22.5244 0)
(-183.193 19.4582 0)
(-157.071 17.7993 0)
(-127.835 16.6815 0)
(-101.146 15.7058 0)
(-78.9681 14.8368 0)
(-65.3608 14.1241 0)
(-58.845 13.6327 0)
(-57.5314 13.2368 0)
(-65.6246 12.9816 0)
(-74.0316 12.8852 0)
(-82.9219 12.816 0)
(-97.6874 12.8428 0)
(-118.115 12.9937 0)
(-148.35 13.3249 0)
(-193.083 13.8788 0)
(-258.353 14.7006 0)
(-349.736 15.4899 0)
(-458.939 16.2603 0)
(-567.757 16.2282 0)
(-620.68 14.8916 0)
(-605.745 17.7897 0)
(-511.454 15.5558 0)
(-430.703 25.3993 0)
(-324.369 17.8097 0)
(3384.54 41.4838 0)
(104191 -125.743 0)
(-119752 -7350.04 0)
(-24687.3 -7032.44 0)
(-15793.8 5297.65 0)
(1286.48 3133.93 0)
(5.91958 1200.43 0)
(-1731.49 648.754 0)
(-2056.28 288.773 0)
(-1732.41 109.205 0)
(-796.435 32.4982 0)
(-291.978 40.827 0)
(-282.764 18.5689 0)
(-229.324 14.1742 0)
(-222.999 9.43587 0)
(-203.101 7.13177 0)
(-183.433 5.96895 0)
(-157.164 5.45287 0)
(-127.895 5.18787 0)
(-101.213 4.96225 0)
(-79.0389 4.74888 0)
(-65.4234 4.56299 0)
(-58.9057 4.42097 0)
(-57.5959 4.26435 0)
(-65.6843 4.12046 0)
(-74.0962 4.00357 0)
(-82.9971 3.86553 0)
(-97.7649 3.74986 0)
(-118.186 3.6851 0)
(-148.402 3.7288 0)
(-193.097 3.95713 0)
(-258.341 4.4749 0)
(-349.695 5.28885 0)
(-458.905 6.59559 0)
(-567.807 8.33928 0)
(-620.32 10.6861 0)
(-605.359 15.9285 0)
(-510.272 21.6782 0)
(-430.117 33.8758 0)
(-322.506 41.062 0)
(3366.66 60.4856 0)
(104131 -48.0276 0)
(-119664 3582.88 0)
(-22861.7 5.10299e-09 0)
(-14456.5 6.10421e-09 0)
(119.532 3.06825e-09 0)
(-450.929 5.55515e-09 0)
(-1858.19 9.10787e-09 0)
(-2113.71 -7.75138e-09 0)
(-1756.77 -4.07432e-08 0)
(-802.821 6.84866e-08 0)
(-294.515 2.70103e-07 0)
(-285.235 -1.67946e-09 0)
(-230.526 -7.5689e-08 0)
(-223.859 -7.04245e-08 0)
(-203.56 -1.38071e-08 0)
(-183.681 4.75095e-08 0)
(-157.298 8.0259e-08 0)
(-127.978 6.81637e-08 0)
(-101.274 3.75619e-08 0)
(-79.0842 -4.62822e-08 0)
(-65.4561 -1.22036e-07 0)
(-58.9319 -1.10538e-07 0)
(-57.6189 -8.51036e-09 0)
(-65.7005 1.03642e-07 0)
(-74.1058 8.81557e-08 0)
(-82.9957 7.44939e-08 0)
(-97.7399 1.31321e-07 0)
(-118.121 1.4852e-07 0)
(-148.271 9.23706e-08 0)
(-192.866 4.19543e-08 0)
(-257.966 4.54586e-08 0)
(-349.119 1.143e-07 0)
(-458.051 1.33372e-07 0)
(-566.567 9.32749e-08 0)
(-618.472 -3.3121e-08 0)
(-602.547 -1.8135e-07 0)
(-506.233 1.65524e-07 0)
(-425.064 -1.27736e-07 0)
(-316.628 7.66094e-08 0)
(3358.63 1.37813e-07 0)
(105215 -1.85444e-06 0)
(-120837 -3.60142e-06 0)
(-24687.3 7032.44 0)
(-15793.8 -5297.65 0)
(1286.48 -3133.93 0)
(5.91958 -1200.43 0)
(-1731.49 -648.754 0)
(-2056.28 -288.773 0)
(-1732.41 -109.205 0)
(-796.435 -32.4982 0)
(-291.978 -40.827 0)
(-282.764 -18.5689 0)
(-229.324 -14.1742 0)
(-222.999 -9.43587 0)
(-203.101 -7.13177 0)
(-183.433 -5.96895 0)
(-157.164 -5.45287 0)
(-127.895 -5.18787 0)
(-101.213 -4.96225 0)
(-79.0389 -4.74888 0)
(-65.4234 -4.56299 0)
(-58.9057 -4.42097 0)
(-57.5959 -4.26435 0)
(-65.6843 -4.12046 0)
(-74.0962 -4.00357 0)
(-82.9971 -3.86553 0)
(-97.7649 -3.74986 0)
(-118.186 -3.6851 0)
(-148.402 -3.7288 0)
(-193.097 -3.95713 0)
(-258.341 -4.4749 0)
(-349.695 -5.28885 0)
(-458.905 -6.59559 0)
(-567.807 -8.33928 0)
(-620.32 -10.6861 0)
(-605.359 -15.9285 0)
(-510.272 -21.6782 0)
(-430.117 -33.8758 0)
(-322.506 -41.062 0)
(3366.66 -60.4856 0)
(104131 48.0276 0)
(-119664 -3582.88 0)
(-25698.7 27994.6 0)
(-17414 -2864.31 0)
(1311.45 -3026.16 0)
(272.033 -2046.43 0)
(-1592.99 -1141.76 0)
(-1956.75 -571.161 0)
(-1682.21 -272.44 0)
(-782.93 -77.3981 0)
(-290.463 -88.9531 0)
(-277.482 -48.0183 0)
(-227.869 -38.7959 0)
(-221.81 -28.1854 0)
(-202.552 -22.5244 0)
(-183.193 -19.4582 0)
(-157.071 -17.7993 0)
(-127.835 -16.6815 0)
(-101.146 -15.7058 0)
(-78.9681 -14.8368 0)
(-65.3608 -14.1241 0)
(-58.845 -13.6327 0)
(-57.5314 -13.2368 0)
(-65.6246 -12.9816 0)
(-74.0316 -12.8852 0)
(-82.9219 -12.816 0)
(-97.6874 -12.8428 0)
(-118.115 -12.9937 0)
(-148.35 -13.3249 0)
(-193.083 -13.8788 0)
(-258.353 -14.7006 0)
(-349.736 -15.4899 0)
(-458.939 -16.2603 0)
(-567.757 -16.2282 0)
(-620.68 -14.8916 0)
(-605.745 -17.7897 0)
(-511.454 -15.5558 0)
(-430.703 -25.3993 0)
(-324.369 -17.8097 0)
(3384.54 -41.4838 0)
(104191 125.743 0)
(-119752 7350.04 0)
(58411.6 40706 0)
(-33378.9 -4560.35 0)
(1770.65 -3061.53 0)
(880.259 -2795.74 0)
(-966.233 -1709.97 0)
(-1626.06 -1026.55 0)
(-1480.72 -509.433 0)
(-696.953 -167.922 0)
(-275.301 -152.515 0)
(-257.41 -98.4408 0)
(-218.566 -77.0062 0)
(-214.167 -56.4033 0)
(-198.262 -45.4746 0)
(-180.747 -39.5476 0)
(-155.53 -36.112 0)
(-126.651 -33.6271 0)
(-100.134 -31.4847 0)
(-78.1286 -29.6194 0)
(-64.7405 -28.1045 0)
(-58.4193 -27.0781 0)
(-57.262 -26.3223 0)
(-65.5328 -25.8911 0)
(-74.0671 -25.8098 0)
(-83.0575 -25.8337 0)
(-97.966 -26.1003 0)
(-118.572 -26.6483 0)
(-149.016 -27.5847 0)
(-193.976 -29.0065 0)
(-259.337 -30.9094 0)
(-350.627 -32.8818 0)
(-459.328 -34.5759 0)
(-567.007 -35.4714 0)
(-620.883 -32.8919 0)
(-605.33 -37.2533 0)
(-513.678 -35.3857 0)
(-430.852 -48.1238 0)
(-330.442 -42.7872 0)
(3436.03 -71.4625 0)
(108699 -135.166 0)
(-124594 1952.06 0)
(68839.3 25870.7 0)
(-51029 -3469.41 0)
(2765.66 -2412.93 0)
(1248.29 -2429.45 0)
(-224.218 -1882.42 0)
(-977.197 -1325.69 0)
(-962.851 -693.188 0)
(-485.094 -282.865 0)
(-231.639 -223.046 0)
(-215.481 -154.284 0)
(-192.349 -116.796 0)
(-195.523 -86.3292 0)
(-188.609 -71.1831 0)
(-175.482 -62.6235 0)
(-152.192 -57.3711 0)
(-124.012 -53.4637 0)
(-97.8264 -50.1345 0)
(-76.161 -47.2359 0)
(-63.2445 -44.8825 0)
(-57.3558 -43.3021 0)
(-56.5321 -42.1266 0)
(-65.18 -41.4237 0)
(-73.9573 -41.2444 0)
(-83.1291 -41.2093 0)
(-98.323 -41.5025 0)
(-119.3 -42.274 0)
(-150.265 -43.5965 0)
(-195.808 -45.6245 0)
(-261.56 -48.5309 0)
(-352.792 -51.779 0)
(-461.225 -54.1942 0)
(-566.536 -56.4228 0)
(-622.288 -53.1283 0)
(-608.371 -60.1299 0)
(-520.737 -62.2756 0)
(-437.756 -77.8112 0)
(-343.603 -80.3172 0)
(3267.92 -103.965 0)
(103723 -539.131 0)
(-119104 -7140.65 0)
(75680.2 18113.3 0)
(-60634.1 -1271.03 0)
(2772.8 -1716.12 0)
(1391.48 -1931.89 0)
(97.3859 -1700.27 0)
(-480.069 -1283.52 0)
(-475.817 -753.622 0)
(-243.907 -400.954 0)
(-151.396 -307.387 0)
(-155.024 -209.517 0)
(-153.083 -158.968 0)
(-170.212 -122.734 0)
(-175.418 -103.383 0)
(-167.438 -91.5019 0)
(-146.703 -83.6422 0)
(-119.677 -77.7473 0)
(-94.1327 -72.7401 0)
(-73.0675 -68.49 0)
(-60.9498 -65.0848 0)
(-55.7637 -62.8647 0)
(-55.4519 -61.241 0)
(-64.6827 -60.2844 0)
(-73.8605 -60.1061 0)
(-83.3063 -60.1041 0)
(-98.992 -60.6718 0)
(-120.589 -61.7893 0)
(-152.245 -63.8795 0)
(-198.731 -66.9147 0)
(-265.268 -70.9742 0)
(-356.084 -75.6657 0)
(-463.803 -79.008 0)
(-565.98 -82.7962 0)
(-624.455 -79.004 0)
(-614.145 -88.947 0)
(-530.716 -96.0695 0)
(-448.238 -114.341 0)
(-355.644 -121.52 0)
(2993.9 -136.73 0)
(101918 -696.975 0)
(-116935 -4573.69 0)
(84654.7 6736.31 0)
(-70137.3 -524.772 0)
(2128.83 -1216.07 0)
(1263.57 -1629.5 0)
(400.578 -1476.01 0)
(-64.9716 -1117.25 0)
(-112.382 -733.558 0)
(-55.0858 -476.519 0)
(-47.1632 -362.486 0)
(-72.4594 -255.396 0)
(-108.722 -198.09 0)
(-141.959 -159.451 0)
(-158.512 -136.033 0)
(-156.459 -120.834 0)
(-138.938 -110.342 0)
(-113.506 -102.159 0)
(-88.9058 -95.3392 0)
(-68.784 -89.6185 0)
(-57.8238 -85.1226 0)
(-53.6518 -82.2749 0)
(-54.0456 -80.2483 0)
(-64.0864 -79.0962 0)
(-73.7835 -78.9795 0)
(-83.6742 -79.1353 0)
(-99.9469 -79.9705 0)
(-122.391 -81.8359 0)
(-155.204 -84.5917 0)
(-202.645 -88.6585 0)
(-269.993 -94.8041 0)
(-360.533 -100.801 0)
(-468.097 -104.573 0)
(-566.533 -110.491 0)
(-628.215 -109.689 0)
(-624.816 -122.898 0)
(-545.208 -136.386 0)
(-462.281 -156.473 0)
(-365.178 -165.185 0)
(2713.39 -172.431 0)
(99447.4 -868.865 0)
(-114013 -5790.24 0)
(81772.9 -2953.43 0)
(-68297.3 -536.058 0)
(1708.24 -1086.25 0)
(1140.99 -1316.55 0)
(591.004 -1243.61 0)
(235.38 -972.407 0)
(141.619 -709.804 0)
(113.671 -515.705 0)
(61.6866 -389.826 0)
(3.39432 -294.799 0)
(-60.6263 -236.97 0)
(-110.412 -197.228 0)
(-138.206 -170.637 0)
(-142.681 -152.522 0)
(-128.707 -139.116 0)
(-105.22 -128.536 0)
(-82.0484 -119.705 0)
(-63.2225 -112.471 0)
(-53.8732 -106.839 0)
(-51.0666 -103.391 0)
(-52.3888 -101.041 0)
(-63.46 -99.776 0)
(-73.8981 -99.8485 0)
(-84.2612 -100.244 0)
(-101.594 -101.665 0)
(-125.043 -104.025 0)
(-158.82 -108.449 0)
(-208.572 -113.567 0)
(-276.969 -121.533 0)
(-365.498 -129.724 0)
(-473.141 -133.93 0)
(-570.909 -143.34 0)
(-636.411 -145.903 0)
(-639.87 -163.653 0)
(-563.07 -182.888 0)
(-475.99 -204.377 0)
(-371.023 -212.343 0)
(2315.81 -216.837 0)
(96504.9 -1179.12 0)
(-110476 -7918 0)
(80998 -636.449 0)
(-68338.1 -527.998 0)
(1376.73 -1000.65 0)
(1111.93 -1097.91 0)
(732.205 -1040.75 0)
(449.423 -863.472 0)
(327.713 -681.131 0)
(253.257 -535.105 0)
(165.71 -420.448 0)
(74.8378 -333.153 0)
(-14.6988 -278.068 0)
(-78.0383 -238.625 0)
(-115.433 -210.116 0)
(-126.084 -188.371 0)
(-115.823 -171.859 0)
(-94.8009 -158.48 0)
(-73.4248 -147.457 0)
(-56.386 -138.664 0)
(-49.074 -131.821 0)
(-48.0643 -127.791 0)
(-50.5625 -125.235 0)
(-62.9374 -123.949 0)
(-74.2342 -124.37 0)
(-85.4249 -125.147 0)
(-103.591 -127.427 0)
(-128.928 -131.029 0)
(-164.399 -136.771 0)
(-215.253 -144.669 0)
(-285.561 -154.659 0)
(-372.479 -164.917 0)
(-481.218 -167.68 0)
(-578.07 -183.34 0)
(-647.789 -189.217 0)
(-660.456 -208.964 0)
(-584.451 -227.593 0)
(-490.664 -250.396 0)
(-377.184 -251.353 0)
(1781.77 -250.046 0)
(92026.3 -1431.52 0)
(-105158 -10173.9 0)
(80610.7 -2747.62 0)
(-68648.2 -584.029 0)
(1159.05 -937.949 0)
(1102.35 -993.038 0)
(816.92 -927.179 0)
(581.92 -810.946 0)
(458.046 -675.672 0)
(364.875 -555.495 0)
(256.295 -454.888 0)
(140.597 -378.845 0)
(30.4636 -324.921 0)
(-44.9321 -285.701 0)
(-89.7782 -257.444 0)
(-105.815 -232.563 0)
(-99.9033 -213.104 0)
(-81.7047 -196.618 0)
(-62.9534 -183.588 0)
(-48.1548 -173.181 0)
(-43.396 -165.043 0)
(-44.7206 -160.407 0)
(-48.6859 -157.826 0)
(-62.6265 -156.672 0)
(-75.0529 -157.548 0)
(-87.2068 -159.077 0)
(-107.263 -162.002 0)
(-134.047 -167.514 0)
(-171.963 -174.593 0)
(-225.809 -185.27 0)
(-296.481 -195.235 0)
(-378.047 -213.283 0)
(-490.894 -214.941 0)
(-591.662 -237.429 0)
(-661.103 -252.704 0)
(-676.851 -277.481 0)
(-602.995 -301.327 0)
(-498.886 -334.72 0)
(-370.686 -340.331 0)
(1178.56 -341.133 0)
(86941.9 -1611.85 0)
(-99130.5 -11737.4 0)
(77615.1 -5592.44 0)
(-66594.2 -619.827 0)
(982.591 -828.035 0)
(1122.31 -883.132 0)
(907.675 -829.046 0)
(691.783 -756.942 0)
(573.875 -659.378 0)
(466.012 -562.706 0)
(335.936 -483.703 0)
(200.08 -425.025 0)
(75.0583 -380.116 0)
(-13.0159 -347.991 0)
(-64.2264 -320.527 0)
(-83.3556 -294.096 0)
(-81.1858 -271.138 0)
(-66.3585 -251.626 0)
(-50.8403 -236.264 0)
(-38.5151 -224.308 0)
(-36.7641 -214.732 0)
(-41.1102 -209.432 0)
(-46.9631 -207.118 0)
(-62.6688 -206.219 0)
(-76.5519 -207.676 0)
(-89.7178 -210.14 0)
(-111.721 -214.713 0)
(-141.061 -221.302 0)
(-181.51 -230.841 0)
(-235.144 -241.049 0)
(-312.555 -251.45 0)
(-391.469 -264.858 0)
(-504.485 -262.904 0)
(-614.46 -284.701 0)
(-686.385 -301.164 0)
(-707.311 -321.559 0)
(-639.608 -352.926 0)
(-528.25 -388.927 0)
(-383.364 -414.633 0)
(556.486 -415.782 0)
(81044.4 -1515.11 0)
(-92076.6 -13097.1 0)
(74305.4 -6850.11 0)
(-64057.1 -650.08 0)
(905.32 -750.62 0)
(1101.37 -828.78 0)
(938.521 -846.718 0)
(745.418 -807.863 0)
(645.219 -729.917 0)
(534.162 -647.821 0)
(388.969 -572.966 0)
(240.417 -519.471 0)
(104.696 -476.935 0)
(12.4903 -441.149 0)
(-37.8428 -409.198 0)
(-58.2217 -379.676 0)
(-58.9777 -352.325 0)
(-48.0982 -330.475 0)
(-36.6287 -313.163 0)
(-27.4066 -300.621 0)
(-29.0604 -289.777 0)
(-37.3827 -283.897 0)
(-45.5901 -282.25 0)
(-63.1647 -281.532 0)
(-78.831 -283.537 0)
(-93.988 -286.652 0)
(-118.019 -292.933 0)
(-149.588 -300.905 0)
(-190.992 -312.714 0)
(-245.669 -327.206 0)
(-319.424 -338.33 0)
(-389.084 -361.644 0)
(-510.015 -365.117 0)
(-628.531 -398.135 0)
(-696.622 -424.713 0)
(-726.731 -445.806 0)
(-667.913 -482.45 0)
(-558.349 -524.017 0)
(-396.564 -562.64 0)
(118.105 -562.024 0)
(74721.7 -1220.46 0)
(-84766.2 -14014.1 0)
(70092.6 -8334.94 0)
(-60716.5 -738.975 0)
(810.389 -802.459 0)
(1029.71 -875.175 0)
(927.831 -929.335 0)
(804.337 -895.213 0)
(728.097 -812.917 0)
(617.256 -740.242 0)
(459.619 -659.995 0)
(292.618 -609.235 0)
(150.532 -566.306 0)
(52.2586 -531.822 0)
(-4.98886 -506.046 0)
(-28.5505 -480.085 0)
(-33.7738 -455.641 0)
(-28.6206 -434.903 0)
(-22.0716 -418.341 0)
(-15.9795 -406.927 0)
(-20.648 -395.829 0)
(-33.8568 -389.922 0)
(-44.6846 -389.066 0)
(-63.9091 -388.057 0)
(-81.4859 -389.803 0)
(-98.7724 -392.297 0)
(-125.456 -396.878 0)
(-160.123 -402.919 0)
(-206.854 -410.152 0)
(-259.828 -422.647 0)
(-345.741 -425.544 0)
(-417.282 -457.725 0)
(-539.648 -477.032 0)
(-671.889 -522.657 0)
(-732.323 -565.107 0)
(-762.949 -597.37 0)
(-714.975 -638.941 0)
(-605.524 -692.933 0)
(-419.989 -735.752 0)
(-77.4099 -751.571 0)
(68081.5 -1016.52 0)
(-77062.1 -14515 0)
(65249.1 -9361 0)
(-56798.5 -800.941 0)
(774.073 -834.902 0)
(979.111 -891.46 0)
(919.212 -957.325 0)
(857.603 -940.928 0)
(794.555 -888.579 0)
(681.523 -846.229 0)
(515.212 -785.893 0)
(330.7 -755.069 0)
(179.294 -709.203 0)
(70.559 -679.806 0)
(12.0123 -642.904 0)
(-9.65026 -608.265 0)
(-15.4382 -580.085 0)
(-12.1538 -556.348 0)
(-9.66989 -539.433 0)
(-5.71321 -528.309 0)
(-12.6747 -517.783 0)
(-30.8657 -512.378 0)
(-43.7929 -511.982 0)
(-63.8747 -510.86 0)
(-82.9159 -512.604 0)
(-100.806 -515.987 0)
(-128.255 -520.843 0)
(-162.379 -529.713 0)
(-210.003 -539.251 0)
(-260.501 -556.585 0)
(-353.227 -566.486 0)
(-438.7 -597.144 0)
(-572.585 -624.916 0)
(-713.403 -655.391 0)
(-768.618 -688.18 0)
(-797.88 -712.408 0)
(-760.001 -742.015 0)
(-651.639 -783.68 0)
(-453.07 -815.505 0)
(-152.449 -834.687 0)
(61458.8 -893.929 0)
(-69433 -14456 0)
(59987.6 -9886.97 0)
(-52500.4 -845.675 0)
(723.162 -892.054 0)
(911.735 -948.489 0)
(880.162 -1004.3 0)
(870.584 -1002.39 0)
(819.353 -992.62 0)
(716.208 -972.299 0)
(547.464 -935.848 0)
(366.519 -907.867 0)
(223.058 -855.335 0)
(116.146 -815.7 0)
(63.9503 -761.882 0)
(31.9845 -719.228 0)
(16.2556 -683.948 0)
(10.5529 -658.646 0)
(4.94763 -643.146 0)
(4.88389 -634.638 0)
(-5.29593 -627.679 0)
(-28.2668 -624.538 0)
(-43.2225 -623.834 0)
(-64.5086 -621.089 0)
(-86.426 -620.251 0)
(-106.712 -621.153 0)
(-138.683 -625.573 0)
(-177.862 -636.165 0)
(-232.749 -652.792 0)
(-286.073 -677.208 0)
(-384.826 -693.674 0)
(-473.587 -733.484 0)
(-595.778 -765.636 0)
(-732.852 -784.923 0)
(-787.267 -805.351 0)
(-814.826 -818.854 0)
(-783.655 -834.942 0)
(-676.342 -859.324 0)
(-469.141 -876.608 0)
(-152.982 -887.185 0)
(54955.4 -883.458 0)
(-61900.5 -13974.3 0)
(54607.7 -10123.9 0)
(-48130.7 -857.847 0)
(674.998 -907.859 0)
(870.95 -970.732 0)
(867.269 -1000.45 0)
(868.855 -991.936 0)
(823.554 -1009.83 0)
(736.23 -1000.11 0)
(577.302 -986.219 0)
(408.285 -953.082 0)
(268.109 -901.123 0)
(160.614 -869.04 0)
(104.976 -819.235 0)
(65.4502 -774.46 0)
(42.941 -737.125 0)
(27.1639 -708.224 0)
(13.4651 -688.76 0)
(9.19128 -677.372 0)
(-2.94224 -669.237 0)
(-27.1605 -665.372 0)
(-40.4693 -664.269 0)
(-60.4218 -663.175 0)
(-82.9773 -664.95 0)
(-105.935 -668.234 0)
(-142.722 -676.104 0)
(-188.609 -687.652 0)
(-249.553 -702.74 0)
(-299.897 -725.118 0)
(-407.457 -735.487 0)
(-508.045 -766.72 0)
(-622.153 -794.692 0)
(-751.673 -814.85 0)
(-801.316 -831.847 0)
(-826.396 -843.868 0)
(-799 -856.558 0)
(-691.79 -873.133 0)
(-479.918 -884.824 0)
(-159.05 -890.524 0)
(48847.6 -893.542 0)
(-54769.2 -13386.5 0)
(49120.6 -10073.1 0)
(-43619.6 -853.233 0)
(614.383 -904.054 0)
(822.51 -958.847 0)
(859.729 -986.37 0)
(861.542 -981.212 0)
(811.477 -999.407 0)
(738.964 -994.725 0)
(592.781 -994.421 0)
(448.52 -954.632 0)
(304.044 -897.646 0)
(195.057 -857.204 0)
(155.091 -807.184 0)
(111.109 -759.217 0)
(80.0839 -717.604 0)
(57.1592 -683.845 0)
(34.6772 -659.032 0)
(23.6967 -643.502 0)
(6.26782 -634.17 0)
(-23.4791 -630.513 0)
(-41.1056 -628.531 0)
(-65.165 -627.465 0)
(-91.3008 -631.26 0)
(-117.46 -638.452 0)
(-157.395 -650.988 0)
(-203.529 -666.834 0)
(-268.853 -683.246 0)
(-317.629 -708.352 0)
(-424.914 -718.624 0)
(-530.639 -749.052 0)
(-642.158 -782.379 0)
(-768.655 -806.143 0)
(-815.23 -824.525 0)
(-838.639 -838.181 0)
(-811.856 -851.353 0)
(-703.58 -867.219 0)
(-485.899 -877.688 0)
(-161.383 -884.281 0)
(42913.9 -888.991 0)
(-47818.5 -12643 0)
(43830 -10049.2 0)
(-39295.1 -801.475 0)
(573.225 -849.224 0)
(791.627 -913.47 0)
(845.717 -939.385 0)
(856.293 -943.129 0)
(810.532 -946.17 0)
(741.034 -931.92 0)
(615.937 -932.873 0)
(501.541 -878.832 0)
(361.995 -815.403 0)
(247.786 -759.257 0)
(199.4 -695.296 0)
(151.772 -653.219 0)
(115.572 -613.288 0)
(83.6062 -582.271 0)
(52.341 -558.58 0)
(33.1497 -542.146 0)
(9.57452 -530.678 0)
(-21.7268 -524.293 0)
(-37.5321 -521.192 0)
(-63.0513 -522.287 0)
(-93.5655 -528.602 0)
(-124.946 -536.695 0)
(-170.071 -548.583 0)
(-219.693 -564.298 0)
(-289.561 -579.545 0)
(-333.989 -605.592 0)
(-446.676 -622.058 0)
(-569.482 -665.7 0)
(-677.168 -711.868 0)
(-792.287 -743.996 0)
(-832.188 -768.432 0)
(-852.248 -784.761 0)
(-826.982 -800.643 0)
(-717.167 -813.42 0)
(-496.36 -827.987 0)
(-169.942 -825.97 0)
(37516.5 -827.482 0)
(-41457.1 -11933.7 0)
(38431.1 -9015.54 0)
(-34754.2 -615.474 0)
(506.46 -699.082 0)
(735.628 -777.952 0)
(831.148 -804.672 0)
(855.004 -814.076 0)
(822.279 -809.541 0)
(751.778 -797.769 0)
(643.938 -779.904 0)
(561.719 -726.004 0)
(419.272 -663.593 0)
(310.796 -614.407 0)
(257.272 -562.512 0)
(190.134 -532.388 0)
(148.452 -504.419 0)
(109.878 -482.09 0)
(73.3434 -464.329 0)
(50.5846 -450.5 0)
(23.4711 -439.149 0)
(-14.338 -432.511 0)
(-39.1723 -429.642 0)
(-72.306 -431.177 0)
(-105.185 -438.366 0)
(-136.714 -446.148 0)
(-183.994 -454.21 0)
(-233.365 -464.795 0)
(-308.645 -469.007 0)
(-358.597 -488.77 0)
(-482.837 -500.354 0)
(-617.184 -535.075 0)
(-717.607 -576.302 0)
(-823.162 -606.751 0)
(-854.513 -632.109 0)
(-869.679 -647.372 0)
(-839.472 -661.925 0)
(-729.93 -673.405 0)
(-497.994 -675.107 0)
(-160.896 -649.615 0)
(32210.1 -619.026 0)
(-35294 -10176.4 0)
(34473.8 -8729.52 0)
(-31281 -239.536 0)
(416.655 -371.504 0)
(689.877 -512.277 0)
(810.907 -572.084 0)
(851.601 -600.029 0)
(826.246 -592.398 0)
(769.594 -580.113 0)
(685.092 -553.653 0)
(613.622 -496.485 0)
(469.534 -468.191 0)
(345.191 -426.953 0)
(278.437 -404.117 0)
(207.753 -393.704 0)
(164.042 -381.464 0)
(122.238 -369.464 0)
(82.7822 -358.398 0)
(57.4141 -343.053 0)
(26.9093 -326.649 0)
(-12.5648 -317.287 0)
(-36.2464 -315.74 0)
(-71.4579 -321.254 0)
(-107.992 -332.906 0)
(-140.214 -342.207 0)
(-188.041 -346.081 0)
(-233.951 -347.566 0)
(-312.665 -338.942 0)
(-364.197 -347.222 0)
(-491.298 -345.031 0)
(-642.668 -358.646 0)
(-746.237 -380.564 0)
(-846.064 -392.923 0)
(-871.333 -407.55 0)
(-880.98 -414.504 0)
(-852.068 -423.271 0)
(-729.87 -424.796 0)
(-473.435 -397.553 0)
(-115.9 -326.661 0)
(28336.1 -217.497 0)
(-31025.9 -9180.77 0)
(30138.9 15962.5 0)
(-26700.1 1339.77 0)
(243.637 281.768 0)
(542.343 -3.17592 0)
(746.587 -113.766 0)
(835.428 -158.628 0)
(841.47 -178.105 0)
(789.114 -193.322 0)
(724.526 -172.736 0)
(644.072 -70.6523 0)
(486.275 216.308 0)
(372.541 761.096 0)
(289.312 1547.64 0)
(211.963 2255.38 0)
(171.811 2907.22 0)
(132.106 3394.03 0)
(98.7941 3741.01 0)
(81.1786 3927.48 0)
(48.2998 4039.78 0)
(-3.82583 3945.83 0)
(-42.9945 3947.67 0)
(-88.8472 4049.66 0)
(-125.377 3945.7 0)
(-149.411 3767.52 0)
(-189.157 3436.93 0)
(-226.485 2960.44 0)
(-308.314 2377.49 0)
(-364.465 1624.24 0)
(-493.846 940.317 0)
(-651.424 382.711 0)
(-750.637 74.21 0)
(-849.167 -31.0167 0)
(-875.309 -67.5507 0)
(-884.829 -73.7073 0)
(-849.39 -80.0737 0)
(-705.146 -82.8501 0)
(-403.427 -37.9073 0)
(12.6114 122.861 0)
(23677.9 1211.04 0)
(-26671.2 17111 0)
(50409.7 586103 0)
(-46391.5 49447.2 0)
(-877.458 27814.5 0)
(308.726 32637.3 0)
(661.108 36777.5 0)
(789.602 42440.8 0)
(792.813 48191.8 0)
(774.767 54581.8 0)
(803.301 61146.2 0)
(988.519 68134.7 0)
(1271.04 75034 0)
(1628.11 81909.2 0)
(1718.39 88338.9 0)
(1517.9 94309.7 0)
(1261.28 99572.4 0)
(925.708 103958 0)
(596.832 107010 0)
(345.322 109610 0)
(44.5931 110875 0)
(-101.329 111850 0)
(63.8079 111844 0)
(-73.3573 110809 0)
(-379.865 109527 0)
(-630.479 106807 0)
(-965.778 103810 0)
(-1254.86 99197.1 0)
(-1600.28 94017 0)
(-1749.11 87858.1 0)
(-1687.68 81302.8 0)
(-1477.28 74389.9 0)
(-1144.92 67298.2 0)
(-982.67 60168.7 0)
(-912.471 53365.9 0)
(-893.048 46704.1 0)
(-860.878 40668.6 0)
(-689.237 34711.4 0)
(-275.204 30317.1 0)
(1087.63 25052.2 0)
(44706.5 44890.5 0)
(-47506.6 551480 0)
(637967 -661116 0)
(-564687 -53261.1 0)
(-15955 -32444 0)
(9179.38 -37147.4 0)
(10193.6 -41798.1 0)
(11834.6 -48351.9 0)
(12541 -55012.5 0)
(13272.5 -62371.3 0)
(13784.6 -69835.3 0)
(14026.8 -77791 0)
(13759.8 -85724.1 0)
(13193.6 -93684.8 0)
(12239 -101375 0)
(11037 -108394 0)
(9469.38 -114582 0)
(7299.2 -119663 0)
(5545.56 -123189 0)
(3805.89 -126092 0)
(2206.87 -127531 0)
(930.162 -128466 0)
(-1046.2 -128433 0)
(-2321.89 -127398 0)
(-3981.89 -125904 0)
(-5658.82 -122827 0)
(-7522.68 -119316 0)
(-9663.23 -113932 0)
(-11235 -107836 0)
(-12616.3 -100415 0)
(-13472.3 -92670.8 0)
(-14146.7 -84382.3 0)
(-14454.7 -76113.6 0)
(-14274.9 -67827.9 0)
(-13850.3 -59922 0)
(-13120.3 -52166.2 0)
(-12406 -45088.5 0)
(-10680.3 -38144.5 0)
(-9711.39 -33237.5 0)
(14056.1 -28224.4 0)
(530963 -47785.6 0)
(-596222 -620288 0)
(637967 661116 0)
(-564687 53261.1 0)
(-15955 32444 0)
(9179.38 37147.4 0)
(10193.6 41798.1 0)
(11834.6 48351.9 0)
(12541 55012.5 0)
(13272.5 62371.3 0)
(13784.6 69835.3 0)
(14026.8 77791 0)
(13759.8 85724.1 0)
(13193.6 93684.8 0)
(12239 101375 0)
(11037 108394 0)
(9469.38 114582 0)
(7299.2 119663 0)
(5545.56 123189 0)
(3805.89 126092 0)
(2206.87 127531 0)
(930.162 128466 0)
(-1046.2 128433 0)
(-2321.89 127398 0)
(-3981.89 125904 0)
(-5658.82 122827 0)
(-7522.68 119316 0)
(-9663.23 113932 0)
(-11235 107836 0)
(-12616.3 100415 0)
(-13472.3 92670.8 0)
(-14146.7 84382.3 0)
(-14454.7 76113.6 0)
(-14274.9 67827.9 0)
(-13850.3 59922 0)
(-13120.3 52166.2 0)
(-12406 45088.5 0)
(-10680.3 38144.5 0)
(-9711.39 33237.5 0)
(14056.1 28224.4 0)
(530963 47785.6 0)
(-596222 620288 0)
(50409.7 -586103 0)
(-46391.5 -49447.2 0)
(-877.458 -27814.5 0)
(308.726 -32637.3 0)
(661.108 -36777.5 0)
(789.602 -42440.8 0)
(792.813 -48191.8 0)
(774.767 -54581.8 0)
(803.301 -61146.2 0)
(988.519 -68134.7 0)
(1271.04 -75034 0)
(1628.11 -81909.2 0)
(1718.39 -88338.9 0)
(1517.9 -94309.7 0)
(1261.28 -99572.4 0)
(925.708 -103958 0)
(596.832 -107010 0)
(345.322 -109610 0)
(44.5931 -110875 0)
(-101.329 -111850 0)
(63.8079 -111844 0)
(-73.3573 -110809 0)
(-379.865 -109527 0)
(-630.479 -106807 0)
(-965.778 -103810 0)
(-1254.86 -99197.1 0)
(-1600.28 -94017 0)
(-1749.11 -87858.1 0)
(-1687.68 -81302.8 0)
(-1477.28 -74389.9 0)
(-1144.92 -67298.2 0)
(-982.67 -60168.7 0)
(-912.471 -53365.9 0)
(-893.048 -46704.1 0)
(-860.878 -40668.6 0)
(-689.237 -34711.4 0)
(-275.204 -30317.1 0)
(1087.63 -25052.2 0)
(44706.5 -44890.5 0)
(-47506.6 -551480 0)
(30138.9 -15962.5 0)
(-26700.1 -1339.77 0)
(243.637 -281.768 0)
(542.343 3.17592 0)
(746.587 113.766 0)
(835.428 158.628 0)
(841.47 178.105 0)
(789.114 193.322 0)
(724.526 172.736 0)
(644.072 70.6523 0)
(486.275 -216.308 0)
(372.541 -761.096 0)
(289.312 -1547.64 0)
(211.963 -2255.38 0)
(171.811 -2907.22 0)
(132.106 -3394.03 0)
(98.7941 -3741.01 0)
(81.1786 -3927.48 0)
(48.2998 -4039.78 0)
(-3.82583 -3945.83 0)
(-42.9945 -3947.67 0)
(-88.8472 -4049.66 0)
(-125.377 -3945.7 0)
(-149.411 -3767.52 0)
(-189.157 -3436.93 0)
(-226.485 -2960.44 0)
(-308.314 -2377.49 0)
(-364.465 -1624.24 0)
(-493.846 -940.317 0)
(-651.424 -382.711 0)
(-750.637 -74.21 0)
(-849.167 31.0167 0)
(-875.309 67.5507 0)
(-884.829 73.7073 0)
(-849.39 80.0737 0)
(-705.146 82.8501 0)
(-403.427 37.9073 0)
(12.6114 -122.861 0)
(23677.9 -1211.04 0)
(-26671.2 -17111 0)
(34473.8 8729.52 0)
(-31281 239.536 0)
(416.655 371.504 0)
(689.877 512.277 0)
(810.907 572.084 0)
(851.601 600.029 0)
(826.246 592.398 0)
(769.594 580.113 0)
(685.092 553.653 0)
(613.622 496.485 0)
(469.534 468.191 0)
(345.191 426.953 0)
(278.437 404.117 0)
(207.753 393.704 0)
(164.042 381.464 0)
(122.238 369.464 0)
(82.7822 358.398 0)
(57.4141 343.053 0)
(26.9093 326.649 0)
(-12.5648 317.287 0)
(-36.2464 315.74 0)
(-71.4579 321.254 0)
(-107.992 332.906 0)
(-140.214 342.207 0)
(-188.041 346.081 0)
(-233.951 347.566 0)
(-312.665 338.942 0)
(-364.197 347.222 0)
(-491.298 345.031 0)
(-642.668 358.646 0)
(-746.237 380.564 0)
(-846.064 392.923 0)
(-871.333 407.55 0)
(-880.98 414.504 0)
(-852.068 423.271 0)
(-729.87 424.796 0)
(-473.435 397.553 0)
(-115.9 326.661 0)
(28336.1 217.497 0)
(-31025.9 9180.77 0)
(38431.1 9015.54 0)
(-34754.2 615.474 0)
(506.46 699.082 0)
(735.628 777.952 0)
(831.148 804.672 0)
(855.004 814.076 0)
(822.279 809.541 0)
(751.778 797.769 0)
(643.938 779.904 0)
(561.719 726.004 0)
(419.272 663.593 0)
(310.796 614.407 0)
(257.272 562.512 0)
(190.134 532.388 0)
(148.452 504.419 0)
(109.878 482.09 0)
(73.3434 464.329 0)
(50.5846 450.5 0)
(23.4711 439.149 0)
(-14.338 432.511 0)
(-39.1723 429.642 0)
(-72.306 431.177 0)
(-105.185 438.366 0)
(-136.714 446.148 0)
(-183.994 454.21 0)
(-233.365 464.795 0)
(-308.645 469.007 0)
(-358.597 488.77 0)
(-482.837 500.354 0)
(-617.184 535.075 0)
(-717.607 576.302 0)
(-823.162 606.751 0)
(-854.513 632.109 0)
(-869.679 647.372 0)
(-839.472 661.925 0)
(-729.93 673.405 0)
(-497.994 675.107 0)
(-160.896 649.615 0)
(32210.1 619.026 0)
(-35294 10176.4 0)
(43830 10049.2 0)
(-39295.1 801.475 0)
(573.225 849.224 0)
(791.627 913.47 0)
(845.717 939.385 0)
(856.293 943.129 0)
(810.532 946.17 0)
(741.034 931.92 0)
(615.937 932.873 0)
(501.541 878.832 0)
(361.995 815.403 0)
(247.786 759.257 0)
(199.4 695.296 0)
(151.772 653.219 0)
(115.572 613.288 0)
(83.6062 582.271 0)
(52.341 558.58 0)
(33.1497 542.146 0)
(9.57452 530.678 0)
(-21.7268 524.293 0)
(-37.5321 521.192 0)
(-63.0513 522.287 0)
(-93.5655 528.602 0)
(-124.946 536.695 0)
(-170.071 548.583 0)
(-219.693 564.298 0)
(-289.561 579.545 0)
(-333.989 605.592 0)
(-446.676 622.058 0)
(-569.482 665.7 0)
(-677.168 711.868 0)
(-792.287 743.996 0)
(-832.188 768.432 0)
(-852.248 784.761 0)
(-826.982 800.643 0)
(-717.167 813.42 0)
(-496.36 827.987 0)
(-169.942 825.97 0)
(37516.5 827.482 0)
(-41457.1 11933.7 0)
(49120.6 10073.1 0)
(-43619.6 853.233 0)
(614.383 904.054 0)
(822.51 958.847 0)
(859.729 986.37 0)
(861.542 981.212 0)
(811.477 999.407 0)
(738.964 994.725 0)
(592.781 994.421 0)
(448.52 954.632 0)
(304.044 897.646 0)
(195.057 857.204 0)
(155.091 807.184 0)
(111.109 759.217 0)
(80.0839 717.604 0)