/*--------------------------------*- C++ -*----------------------------------*\
| =========                 |                                                 |
| \\      /  F ield         | OpenFOAM: The Open Source CFD Toolbox           |
|  \\    /   O peration     | Version:  v1912                                 |
|   \\  /    A nd           | Website:  www.openfoam.com                      |
|    \\/     M anipulation  |                                                 |
\*---------------------------------------------------------------------------*/
FoamFile
{
    version     2.0;
    format      ascii;
    class       volScalarField;
    location    "2.12";
    object      p;
}
// * * * * * * * * * * * * * * * * * * * * * * * * * * * * * * * * * * * * * //

dimensions      [1 -1 -2 0 0 0 0];


internalField   nonuniform List<scalar> 
1900
(
12704.3
10759
10728.9
10736.1
10753.3
10783.1
10824
10873.2
10922.9
11001
12704.4
10759
10728.6
10735.8
10752.8
10782.3
10821.8
10864.4
10909.5
10988.6
12704.5
10759
10728.5
10735.5
10752.4
10782
10822.1
10866.8
10919.3
10983.9
12704.4
10759
10728.6
10735.8
10752.8
10782.3
10821.8
10864.4
10909.5
10988.6
12704.3
10759
10728.9
10736.1
10753.3
10783.1
10824
10873.2
10922.9
11001
10947.8
11026.7
11043.9
10928.3
9988.55
11045.3
11122.1
11116.9
11085.6
10660.7
11030.2
11086.8
11066.3
10986.7
10535.6
11045.3
11122.1
11116.9
11085.6
10660.7
10947.8
11026.7
11043.9
10928.3
9988.55
12201
12266.1
12546.8
12612.4
12742.5
12029.7
12233.2
12540.4
12754.8
12648.5
12021.2
12241.1
12528
12652.9
12170.5
12029.7
12233.2
12540.4
12754.8
12648.5
12201
12266.1
12546.8
12612.4
12742.5
10416.2
5050.91
5464.94
5700.17
5674.81
5719.78
5859.34
6031.61
6289.34
6601.97
6976.04
7395.2
7848.44
8323.38
8804.78
9265.58
9654.41
9900.59
9989.18
10001.8
10001.7
9987.17
9890.34
9629.23
9223.22
8744.93
8245.01
7747.83
7264.73
6801.7
6362.52
5950.27
5568.79
5223.49
4920
4655.88
4421.09
4209.01
3787.06
18393.3
10721
5383.97
5658.92
5730.58
5692.1
5727.96
5861.59
6034.18
6290.92
6603.06
6976.77
7395.54
7848.44
8323.13
8804.25
9265.15
9654.01
9900.08
9988.57
10001.1
10001.1
9986.54
9889.72
9628.64
9222.65
8744.4
8244.53
7747.39
7264.34
6801.37
6362.24
5950.04
5568.61
5223.35
4919.89
4655.8
4421.03
4208.98
3787.03
18393.3
10146.6
5824.12
5775.07
5760.86
5699.86
5730.99
5862.38
6034.86
6291.31
6603.24
6976.8
7395.44
7848.3
8322.92
8804.01
9264.93
9653.76
9899.78
9988.22
10000.8
10000.7
9986.19
9889.37
9628.3
9222.33
8744.11
8244.26
7747.15
7264.13
6801.18
6362.09
5949.92
5568.51
5223.27
4919.83
4655.76
4421.01
4208.96
3787.02
18393.3
10721
5383.97
5658.92
5730.58
5692.1
5727.96
5861.59
6034.18
6290.92
6603.06
6976.77
7395.54
7848.44
8323.13
8804.25
9265.15
9654.01
9900.08
9988.57
10001.1
10001.1
9986.54
9889.72
9628.64
9222.65
8744.4
8244.53
7747.39
7264.34
6801.37
6362.24
5950.04
5568.61
5223.35
4919.89
4655.8
4421.03
4208.98
3787.03
18393.3
10416.2
5050.91
5464.94
5700.17
5674.81
5719.78
5859.34
6031.61
6289.34
6601.97
6976.04
7395.2
7848.44
8323.38
8804.78
9265.58
9654.41
9900.59
9989.18
10001.8
10001.7
9987.17
9890.34
9629.23
9223.22
8744.93
8245.01
7747.83
7264.73
6801.7
6362.52
5950.27
5568.79
5223.49
4920
4655.88
4421.09
4209.01
3787.06
18393.3
12184
4459.07
5225.71
5533.33
5612.86
5689.21
5837.27
6016.28
6275.86
6590.52
6965.01
7384.06
7836.78
8311.15
8792.06
9252.93
9642.4
9889.72
9979.54
9992.6
9992.54
9978.05
9881.34
9620.57
9215.13
8737.58
8238.53
7742.26
7260.07
6797.91
6359.52
5947.97
5567.07
5222.24
4919.11
4655.27
4420.67
4208.75
3786.91
18393.3
13725.1
4086.12
4946.35
5259.7
5462.98
5603.88
5770.08
5967.61
6232.93
6553.62
6929.32
7347.86
7798.72
8270.59
8748.77
9207.12
9594.88
9841.89
9931.86
9944.97
9944.91
9930.51
9834.38
9575.18
9172.31
8698.03
8202.65
7710.26
7232.01
6773.73
6339.03
5930.89
5553.1
5211
4910.19
4648.3
4415.11
4204.81
3784.33
18391.8
15482.4
4009.72
4750.15
5067.88
5293.11
5467.37
5645.28
5856.57
6119.51
6440.83
6810.52
7220.39
7660.41
8120.5
8586.95
9034.75
9414.64
9657.69
9746.94
9760.1
9760.07
9746.02
9652.07
9398.54
9004.52
8541.05
8057.51
7577.45
7111.67
6665.73
6243.05
5846.43
5479.46
5147.38
4855.51
4601.61
4375.02
4173.12
3760.98
18363.4
16598.4
3919.59
4552.37
4849.39
5087.36
5264.51
5430.83
5644.03
5906.87
6220.59
6578.81
6973.4
7395.97
7837.44
8285.2
8715.69
9081.7
9316.53
9403.01
9415.81
9415.79
9402.44
9312.6
9069.23
8690.4
8244.75
7780.11
7319.25
6872.57
6445.38
6040.91
5661.83
5311.54
4995.03
4717.27
4476.25
4262.24
4075.99
3681.88
18176.2
16928.3
3807.33
4346.8
4600.37
4782.02
4957.64
5137.23
5354.61
5615.06
5921.13
6266.54
6644.39
7047.46
7467.99
7894.69
8305.38
8654.8
8878.78
8961
8973.1
8973.09
8960.73
8876.42
8646.17
8286.2
7862
7419.58
6980.85
6555.8
6149.52
5765.12
5405.13
5072.77
4772.66
4509.56
4281.78
4083.38
3912.45
3538.37
17622.6
17361.9
3611.68
4084.67
4287.81
4461.98
4631.2
4813.63
5032.41
5290.63
5588.66
5921.11
6282.1
6665.79
7065.61
7471.26
7861.65
8193.26
8404.73
8481.55
8492.68
8492.68
8481.47
8403.56
8187.93
7848.31
7446.78
7027.46
6611.48
6208.43
5823.23
5458.86
5117.74
4802.79
4518.25
4268.94
4053.78
3871.33
3710.79
3353.27
16663.2
16073.1
3362.9
3795.57
3981.87
4148.09
4306.99
4488.91
4706.79
4961.22
5250.51
5569.76
5914.27
6279.31
6659.24
7044.51
7414.83
7728.16
7926.07
7996.69
8006.65
8006.65
7996.71
7925.66
7725.32
7406.46
7027.63
6631.26
6237.7
5856.26
5491.66
5146.81
4823.91
4525.69
4255.79
4019.74
3816.91
3649.07
3493.72
3150.52
15449.7
15006.9
3130.62
3523.53
3695.42
3846.53
3995.2
4175.3
4390.44
4639.75
4919.32
5225.32
5553.84
5901.18
6262.27
6628.02
6978.69
7273.51
7457.14
7521.05
7529.74
7529.75
7521.11
7457.14
7272.32
6974.08
6617.5
6243.42
5871.59
5511.01
5166.3
4840.18
4534.91
4252.53
3996.58
3773.52
3582.49
3427.03
3273.37
2944.77
14130.5
13757.8
2905.82
3266.07
3424.6
3560.45
3700.03
3877.36
4089.18
4331.74
4601.48
4894.19
5207.56
5538.14
5881.37
6228.34
6559.73
6835.92
7004.87
7061.85
7069.26
7069.26
7061.9
7005.02
6835.65
6557.64
6222.58
5869.92
5518.9
5178.32
4852.54
4544.57
4255.63
3988.96
3745.79
3535.51
3355.37
3209.62
3056.58
2744.36
12829.6
12417.3
2691.3
3019.79
3163.85
3289.23
3422.86
3598.58
3805.07
4041.66
4300.18
4580.66
4879.32
5194.05
5520.12
5848.89
6161.32
6418.94
6573.1
6623.19
6629.35
6629.35
6623.22
6573.26
6419.07
6160.7
5846.29
5514.06
5182.87
4861.2
4553.69
4262.2
3989.99
3736.57
3507.3
3307.92
3138.24
2998.93
2847.38
2553.49
11526.8
11099.2
2486.17
2781.54
2913.79
3035.14
3167.21
3339.97
3542.88
3769.63
4019.4
4286.57
4571.77
4871.08
5180.66
5491.75
5785.64
6024.9
6164.48
6207.91
6212.94
6212.94
6207.93
6164.6
6025.14
5785.7
5490.98
5178.1
4865.56
4561.95
4270.95
3996.5
3737.28
3499.98
3281
3093.8
2932.49
2797.46
2648.51
2374.81
10345.5
9737.25
2289.24
2552.51
2679.49
2801.85
2935.65
3105.59
3299.92
3521.05
3757.89
4014.8
4286.06
4571.07
4864.75
5158.86
5434.8
5656.22
5781.68
5818.84
5822.86
5822.86
5818.85
5781.74
5656.41
5435.08
5158.95
4864.13
4569.03
4281.72
4007.16
3745.81
3503.35
3275.57
3071.28
2893.2
2738.62
2606.96
2460.35
2207.99
9175.74
8521.47
2110.94
2346.46
2473.15
2596.45
2731.6
2894.6
3083.95
3292.23
3521.74
3765.42
4024.95
4295.95
4574.92
4853.09
5112.09
5316.49
5428.55
5459.97
5463.11
5463.11
5459.97
5428.57
5316.6
5112.35
4853.45
4575.17
4295.73
4023.77
3762.66
3516.79
3284.06
3072.58
2877.18
2710.35
2562.5
2433.27
2290.49
2058.41
8157.58
7350.24
1944.74
2157.92
2289.85
2412.19
2552.51
2706.94
2889.55
3090.24
3307.99
3542.4
3789.94
4048.98
4314.58
4578.42
4821.97
5010.56
5110.15
5136.41
5138.81
5138.81
5136.41
5110.15
5010.61
4822.13
4578.75
4315.05
4049.46
3790.22
3542.18
3306.87
3087.86
2885.4
2700.14
2543.6
2396.95
2270.93
2129.49
1916.38
7150.46
6442.75
1812.11
2006.55
2139.22
2262.75
2401.54
2552.39
2726.59
2918.73
3128.26
3351.85
3588.13
3834.42
4087.17
4337.75
4567.34
4741.64
4829.99
4851.77
4853.58
4853.58
4851.77
4829.99
4741.65
4567.42
4337.96
4087.56
3834.99
3588.84
3352.61
3128.9
2919.05
2726.41
2551.29
2399.64
2258.39
2133.1
1995.76
1800.17
6346.24
5573.84
1688.55
1865.82
1997.26
2121.35
2264.09
2410.42
2584.19
2769.89
2972.64
3187.62
3413.61
3648.64
3889.09
4127.11
4343.84
4504.97
4583.01
4600.85
4602.19
4602.19
4600.85
4583
4504.97
4343.86
4127.2
3889.32
3649.05
3414.23
3188.44
2973.61
2770.99
2585.25
2411.4
2264.78
2121.29
1996.43
1862.89
1684.61
5538.91
4974.68
1595.01
1753.73
1877.76
1998.87
2141.96
2287.12
2458.43
2641.38
2840.43
3049.93
3268.28
3493.1
3720.71
3943.44
4144
4290.86
4359.82
4374.7
4375.72
4375.72
4374.7
4359.82
4290.85
4144
3943.47
3720.81
3493.31
3268.65
3050.5
2841.2
2642.39
2459.63
2288.55
2143.48
2000.39
1879.11
1754.28
1594.82
4962.26
4388.66
1510.09
1647.56
1759.02
1870.9
2010.04
2150.1
2318.39
2496.87
2693.11
2901.29
3120.04
3345.51
3571.49
3787.91
3976.29
4107.41
4164.59
4175.79
4176.47
4176.47
4175.79
4164.59
4107.41
3976.28
3787.91
3571.53
3345.62
3120.25
2901.65
2693.63
2497.58
2319.27
2151.19
2011.26
1872.24
1760.34
1648.54
1510.63
4387.24
4148.54
1391.05
1515.01
1605.06
1697.87
1819.49
1941.75
2090.38
2248.98
2424.41
2613.08
2813.88
3023.09
3234.4
3435.75
3606.17
3718.12
3762.92
3770.8
3771.23
3771.23
3770.8
3762.92
3718.11
3606.17
3435.74
3234.4
3023.12
2813.98
2613.26
2424.71
2249.41
2090.94
1942.48
1820.35
1698.89
1606.15
1516
1391.84
4148.87
30302.6
4215.37
4474.31
5102.61
5719.55
6600.32
7472.67
8560
9664.54
10930.2
12204.2
13594.6
14974.9
16324.6
17485.7
18278.9
18631.3
18710.6
18717.4
18717.6
18717.6
18717.4
18710.6
18631.3
18278.9
17485.7
16324.6
14974.8
13594.5
12204.1
10930.1
9664.45
8559.96
7472.69
6600.47
5719.8
5103.03
4474.9
4215.92
30304.5
30302.6
4215.37
4474.31
5102.61
5719.55
6600.32
7472.67
8560
9664.54
10930.2
12204.2
13594.6
14974.9
16324.6
17485.7
18278.9
18631.3
18710.6
18717.4
18717.6
18717.6
18717.4
18710.6
18631.3
18278.9
17485.7
16324.6
14974.8
13594.5
12204.1
10930.1
9664.45
8559.96
7472.69
6600.47
5719.8
5103.03
4474.9
4215.92
30304.5
4148.54
1391.05
1515.01
1605.06
1697.87
1819.49
1941.75
2090.38
2248.98
2424.41
2613.08
2813.88
3023.09
3234.4
3435.75
3606.17
3718.12
3762.92
3770.8
3771.23
3771.23
3770.8
3762.92
3718.11
3606.17
3435.74
3234.4
3023.12
2813.98
2613.26
2424.71
2249.41
2090.94
1942.48
1820.35
1698.89
1606.15
1516
1391.84
4148.87
4388.66
1510.09
1647.56
1759.02
1870.9
2010.04
2150.1
2318.39
2496.87
2693.11
2901.29
3120.04
3345.51
3571.49
3787.91
3976.29
4107.41
4164.59
4175.79
4176.47
4176.47
4175.79
4164.59
4107.41
3976.28
3787.91
3571.53
3345.62
3120.25
2901.65
2693.63
2497.58
2319.27
2151.19
2011.26
1872.24
1760.34
1648.54
1510.63
4387.24
4974.68
1595.01
1753.73
1877.76
1998.87
2141.96
2287.12
2458.43
2641.38
2840.43
3049.93
3268.28
3493.1
3720.71
3943.44
4144
4290.86
4359.82
4374.7
4375.72
4375.72
4374.7
4359.82
4290.85
4144
3943.47
3720.81
3493.31
3268.65
3050.5
2841.2
2642.39
2459.63
2288.55
2143.48
2000.39
1879.11
1754.28
1594.82
4962.26
5573.84
1688.55
1865.82
1997.26
2121.35
2264.09
2410.42
2584.19
2769.89
2972.64
3187.62
3413.61
3648.64
3889.09
4127.11
4343.84
4504.97
4583.01
4600.85
4602.19
4602.19
4600.85
4583
4504.97
4343.86
4127.2
3889.32
3649.05
3414.23
3188.44
2973.61
2770.99
2585.25
2411.4
2264.78
2121.29
1996.43
1862.89
1684.61
5538.91
6442.75
1812.11
2006.55
2139.22
2262.75
2401.54
2552.39
2726.59
2918.73
3128.26
3351.85
3588.13
3834.42
4087.17
4337.75
4567.34
4741.64
4829.99
4851.77
4853.58
4853.58
4851.77
4829.99
4741.65
4567.42
4337.96
4087.56
3834.99
3588.84
3352.61
3128.9
2919.05
2726.41
2551.29
2399.64
2258.39
2133.1
1995.76
1800.17
6346.24
7350.24
1944.74
2157.92
2289.85
2412.19
2552.51
2706.94
2889.55
3090.24
3307.99
3542.4
3789.94
4048.98
4314.58
4578.42
4821.97
5010.56
5110.15
5136.41
5138.81
5138.81
5136.41
5110.15
5010.61
4822.13
4578.75
4315.05
4049.46
3790.22
3542.18
3306.87
3087.86
2885.4
2700.14
2543.6
2396.95
2270.93
2129.49
1916.38
7150.46
8521.47
2110.94
2346.46
2473.15
2596.45
2731.6
2894.6
3083.95
3292.23
3521.74
3765.42
4024.95
4295.95
4574.92
4853.09
5112.09
5316.49
5428.55
5459.97
5463.11
5463.11
5459.97
5428.57
5316.6
5112.35
4853.45
4575.17
4295.73
4023.77
3762.66
3516.79
3284.06
3072.58
2877.18
2710.35
2562.5
2433.27
2290.49
2058.41
8157.58
9737.25
2289.24
2552.51
2679.49
2801.85
2935.65
3105.59
3299.92
3521.05
3757.89
4014.8
4286.06
4571.07
4864.75
5158.86
5434.8
5656.22
5781.68
5818.84
5822.86
5822.86
5818.85
5781.74
5656.41
5435.08
5158.95
4864.13
4569.03
4281.72
4007.16
3745.81
3503.35
3275.57
3071.28
2893.2
2738.62
2606.96
2460.35
2207.99
9175.74
11099.2
2486.17
2781.54
2913.79
3035.14
3167.21
3339.97
3542.88
3769.63
4019.4
4286.57
4571.77
4871.08
5180.66
5491.75
5785.64
6024.9
6164.48
6207.91
6212.94
6212.94
6207.93
6164.6
6025.14
5785.7
5490.98
5178.1
4865.56
4561.95
4270.95
3996.5
3737.28
3499.98
3281
3093.8
2932.49
2797.46
2648.51
2374.81
10345.5
12417.3
2691.3
3019.79
3163.85
3289.23
3422.86
3598.58
3805.07
4041.66
4300.18
4580.66
4879.32
5194.05
5520.12
5848.89
6161.32
6418.94
6573.1
6623.19
6629.35
6629.35
6623.22
6573.26
6419.07
6160.7
5846.29
5514.06
5182.87
4861.2
4553.69
4262.2
3989.99
3736.57
3507.3
3307.92
3138.24
2998.93
2847.38
2553.49
11526.8
13757.8
2905.82
3266.07
3424.6
3560.45
3700.03
3877.36
4089.18
4331.74
4601.48
4894.19
5207.56
5538.14
5881.37
6228.34
6559.73
6835.92
7004.87
7061.85
7069.26
7069.26
7061.9
7005.02
6835.65
6557.64
6222.58
5869.92
5518.9
5178.32
4852.54
4544.57
4255.63
3988.96
3745.79
3535.51
3355.37
3209.62
3056.58
2744.36
12829.6
15006.9
3130.62
3523.53
3695.42
3846.53
3995.2
4175.3
4390.44
4639.75
4919.32
5225.32
5553.84
5901.18
6262.27
6628.02
6978.69
7273.51
7457.14
7521.05
7529.74
7529.75
7521.11
7457.14
7272.32
6974.08
6617.5
6243.42
5871.59
5511.01
5166.3
4840.18
4534.91
4252.53
3996.58
3773.52
3582.49
3427.03
3273.37
2944.77
14130.5
16073.1
3362.9
3795.57
3981.87
4148.09
4306.99
4488.91
4706.79
4961.22
5250.51
5569.76
5914.27
6279.31
6659.24
7044.51
7414.83
7728.16
7926.07
7996.69
8006.65
8006.65
7996.71
7925.66
7725.32
7406.46
7027.63
6631.26
6237.7
5856.26
5491.66
5146.81
4823.91
4525.69
4255.79
4019.74
3816.91
3649.07
3493.72
3150.52
15449.7
17361.9
3611.68
4084.67
4287.81
4461.98
4631.2
4813.63
5032.41
5290.63
5588.66
5921.11
6282.1
6665.79
7065.61
7471.26
7861.65
8193.26
8404.73
8481.55
8492.68
8492.68
8481.47
8403.56
8187.93
7848.31
7446.78
7027.46
6611.48
6208.43
5823.23
5458.86
5117.74
4802.79
4518.25
4268.94
4053.78
3871.33
3710.79
3353.27
16663.2
16928.3
3807.33
4346.8
4600.37
4782.02
4957.64
5137.23
5354.61
5615.06
5921.13
6266.54
6644.39
7047.46
7467.99
7894.69
8305.38
8654.8
8878.78
8961
8973.1
8973.09
8960.73
8876.42
8646.17
8286.2
7862
7419.58
6980.85
6555.8
6149.52
5765.12
5405.13
5072.77
4772.66
4509.56
4281.78
4083.38
3912.45
3538.37
17622.6
16598.4
3919.59
4552.37
4849.39
5087.36
5264.51
5430.83
5644.03
5906.87
6220.59
6578.81
6973.4
7395.97
7837.44
8285.2
8715.69
9081.7
9316.53
9403.01
9415.81
9415.79
9402.44
9312.6
9069.23
8690.4
8244.75
7780.11
7319.25
6872.57
6445.38
6040.91
5661.83
5311.54
4995.03
4717.27
4476.25
4262.24
4075.99
3681.88
18176.2
15482.4
4009.72
4750.15
5067.88
5293.11
5467.37
5645.28
5856.57
6119.51
6440.83
6810.52
7220.39
7660.41
8120.5
8586.95
9034.75
9414.64
9657.69
9746.94
9760.1
9760.07
9746.02
9652.07
9398.54
9004.52
8541.05
8057.51
7577.45
7111.67
6665.73
6243.05
5846.43
5479.46
5147.38
4855.51
4601.61
4375.02
4173.12
3760.98
18363.4
13725.1
4086.12
4946.35
5259.7
5462.98
5603.88
5770.08
5967.61
6232.93
6553.62
6929.32
7347.86
7798.72
8270.59
8748.77
9207.12
9594.88
9841.89
9931.86
9944.97
9944.91
9930.51
9834.38
9575.18
9172.31
8698.03
8202.65
7710.26
7232.01
6773.73
6339.03
5930.89
5553.1
5211
4910.19
4648.3
4415.11
4204.81
3784.33
18391.8
12184
4459.07
5225.71
5533.33
5612.86
5689.21
5837.27
6016.28
6275.86
6590.52
6965.01
7384.06
7836.78
8311.15
8792.06
9252.93
9642.4
9889.72
9979.54
9992.6
9992.54
9978.05
9881.34
9620.57
9215.13
8737.58
8238.53
7742.26
7260.07
6797.91
6359.52
5947.97
5567.07
5222.24
4919.11
4655.27
4420.67
4208.75
3786.91
18393.3
)
;

boundaryField
{
    inlet
    {
        type            fixedValue;
        value           uniform 10000;
    }
    outlet
    {
        type            fixedValue;
        value           uniform 1000;
    }
    obstacle
    {
        type            zeroGradient;
    }
    empty
    {
        type            empty;
    }
}


// ************************************************************************* //
