/*--------------------------------*- C++ -*----------------------------------*\
| =========                 |                                                 |
| \\      /  F ield         | OpenFOAM: The Open Source CFD Toolbox           |
|  \\    /   O peration     | Version:  v1912                                 |
|   \\  /    A nd           | Website:  www.openfoam.com                      |
|    \\/     M anipulation  |                                                 |
\*---------------------------------------------------------------------------*/
FoamFile
{
    version     2.0;
    format      ascii;
    class       volVectorField;
    location    "5.28";
    object      U;
}
// * * * * * * * * * * * * * * * * * * * * * * * * * * * * * * * * * * * * * //

dimensions      [0 1 -1 0 0 0 0];


internalField   nonuniform List<vector> 
1900
(
(-0.878446 1.55577e-06 0)
(-0.0781652 6.6933e-06 0)
(0.043468 -1.17692e-05 0)
(0.0493912 -3.89038e-05 0)
(0.0608974 -3.91585e-05 0)
(0.0696033 -0.000194247 0)
(0.0764796 -0.000373515 0)
(0.0812793 0.000654872 0)
(0.0845909 0.00337454 0)
(0.0789974 0.0114311 0)
(-0.878446 8.29962e-07 0)
(-0.0781612 8.14575e-06 0)
(0.0434931 -1.92101e-05 0)
(0.0493755 -2.20681e-05 0)
(0.0608527 -3.90241e-05 0)
(0.0694511 -0.00016388 0)
(0.0759255 -0.000253034 0)
(0.0806269 0.000249984 0)
(0.0858452 0.00236646 0)
(0.0908297 0.0111053 0)
(-0.878446 -5.20235e-14 0)
(-0.0781579 -3.12343e-13 0)
(0.0434925 -6.62382e-13 0)
(0.0493498 9.58239e-13 0)
(0.0608047 1.55246e-13 0)
(0.0693313 -9.30549e-14 0)
(0.0757187 -8.61822e-14 0)
(0.0804753 -6.48495e-14 0)
(0.0863201 -9.21578e-14 0)
(0.0973323 -5.40469e-14 0)
(-0.878446 -8.29963e-07 0)
(-0.0781612 -8.14575e-06 0)
(0.0434931 1.92101e-05 0)
(0.0493755 2.20681e-05 0)
(0.0608527 3.90241e-05 0)
(0.0694511 0.00016388 0)
(0.0759255 0.000253034 0)
(0.0806269 -0.000249984 0)
(0.0858452 -0.00236646 0)
(0.0908297 -0.0111053 0)
(-0.878446 -1.55578e-06 0)
(-0.0781652 -6.6933e-06 0)
(0.043468 1.17692e-05 0)
(0.0493912 3.89038e-05 0)
(0.0608974 3.91585e-05 0)
(0.0696033 0.000194247 0)
(0.0764796 0.000373515 0)
(0.0812793 -0.000654872 0)
(0.0845909 -0.00337454 0)
(0.0789974 -0.0114311 0)
(0.0829014 0.0347777 0)
(0.118533 0.0459687 0)
(0.165172 0.0702542 0)
(0.24403 0.109408 0)
(0.387654 0.163026 0)
(0.106534 0.0263894 0)
(0.134179 0.0271951 0)
(0.165796 0.0358325 0)
(0.228521 0.0549869 0)
(0.360423 0.0984641 0)
(0.117583 -4.7994e-14 0)
(0.144175 -4.96833e-14 0)
(0.177309 6.98873e-15 0)
(0.239706 -2.18893e-14 0)
(0.37208 -1.89724e-15 0)
(0.106534 -0.0263894 0)
(0.134179 -0.0271951 0)
(0.165796 -0.0358325 0)
(0.228521 -0.0549869 0)
(0.360423 -0.0984641 0)
(0.0829014 -0.0347777 0)
(0.118533 -0.0459687 0)
(0.165172 -0.0702542 0)
(0.24403 -0.109408 0)
(0.387654 -0.163026 0)
(0.745268 0.0251302 0)
(0.810178 -0.0504091 0)
(0.783868 -0.0613703 0)
(0.790697 -0.0639239 0)
(0.821556 -0.0583894 0)
(0.729411 -0.0143097 0)
(0.839985 -0.0397067 0)
(0.811582 -0.0398436 0)
(0.812732 -0.0374561 0)
(0.840671 -0.0355637 0)
(0.729672 3.60895e-15 0)
(0.84777 4.0914e-15 0)
(0.809217 -7.61236e-15 0)
(0.803858 5.36893e-15 0)
(0.834968 1.74013e-14 0)
(0.729411 0.0143097 0)
(0.839985 0.0397067 0)
(0.811582 0.0398436 0)
(0.812732 0.0374561 0)
(0.840671 0.0355637 0)
(0.745268 -0.0251302 0)
(0.810178 0.0504091 0)
(0.783868 0.0613703 0)
(0.790697 0.0639239 0)
(0.821556 0.0583894 0)
(0.974435 -0.216369 0)
(1.05912 -0.187193 0)
(0.778189 -0.115962 0)
(0.474859 -0.15081 0)
(0.233999 -0.159143 0)
(0.0787028 -0.10147 0)
(-0.0149198 -0.0544107 0)
(-0.0782986 -0.035018 0)
(-0.109452 -0.0279936 0)
(-0.121638 -0.0244665 0)
(-0.128689 -0.0225963 0)
(-0.13491 -0.0208743 0)
(-0.137523 -0.0194261 0)
(-0.131712 -0.0188062 0)
(-0.116093 -0.0186335 0)
(-0.0943469 -0.0185538 0)
(-0.0699785 -0.0184792 0)
(-0.0445515 -0.0183955 0)
(-0.0184824 -0.0183273 0)
(0.00810863 -0.0183288 0)
(0.0352054 -0.0182845 0)
(0.0628597 -0.0182009 0)
(0.0909623 -0.0181771 0)
(0.119374 -0.0181735 0)
(0.148031 -0.0181759 0)
(0.176883 -0.0181799 0)
(0.20579 -0.0182008 0)
(0.234928 -0.0181652 0)
(0.263656 -0.018267 0)
(0.291779 -0.0181346 0)
(0.319211 -0.0183548 0)
(0.345294 -0.0181566 0)
(0.370613 -0.0185334 0)
(0.3945 -0.0180918 0)
(0.417648 -0.0191612 0)
(0.437869 -0.0176363 0)
(0.456761 -0.0200712 0)
(0.462413 -0.0180281 0)
(0.454767 -0.0213463 0)
(0.833435 -0.0225333 0)
(0.994287 -0.0909808 0)
(1.11625 -0.0830611 0)
(0.875319 -0.0474662 0)
(0.579026 -0.0738703 0)
(0.316472 -0.0901314 0)
(0.109457 -0.0577225 0)
(-0.00845187 -0.0283855 0)
(-0.0771963 -0.017336 0)
(-0.109515 -0.0138636 0)
(-0.122135 -0.0121911 0)
(-0.129339 -0.0113028 0)
(-0.135368 -0.0103823 0)
(-0.137988 -0.00966876 0)
(-0.132159 -0.00938129 0)
(-0.116484 -0.00930778 0)
(-0.0946695 -0.00927269 0)
(-0.0702266 -0.00923541 0)
(-0.0447263 -0.00919357 0)
(-0.0185874 -0.0091597 0)
(0.00807035 -0.00916083 0)
(0.0352324 -0.00913904 0)
(0.0629507 -0.00909756 0)
(0.0911157 -0.00908595 0)
(0.119588 -0.00908439 0)
(0.148304 -0.00908585 0)
(0.177212 -0.00908817 0)
(0.206173 -0.00909884 0)
(0.23536 -0.00908135 0)
(0.264134 -0.00913244 0)
(0.292297 -0.00906603 0)
(0.319763 -0.0091757 0)
(0.345868 -0.00907436 0)
(0.371204 -0.0092612 0)
(0.39509 -0.00902899 0)
(0.418234 -0.00957048 0)
(0.438368 -0.0087742 0)
(0.457377 -0.00998178 0)
(0.46273 -0.00894972 0)
(0.455651 -0.0106768 0)
(0.832044 -0.0112088 0)
(0.968655 -3.73215e-13 0)
(1.08712 2.26868e-12 0)
(0.872395 -3.25009e-12 0)
(0.596668 -3.93492e-12 0)
(0.348909 -2.02484e-12 0)
(0.126224 -2.44505e-12 0)
(-0.00654101 5.52799e-13 0)
(-0.0781719 3.50361e-12 0)
(-0.110093 2.77433e-12 0)
(-0.122413 1.65644e-12 0)
(-0.129537 1.13547e-12 0)
(-0.135588 6.85057e-13 0)
(-0.138205 2.02466e-12 0)
(-0.132325 4.11786e-12 0)
(-0.116613 7.14542e-12 0)
(-0.0947667 9.01568e-12 0)
(-0.0702955 6.89742e-12 0)
(-0.0447702 -1.69296e-12 0)
(-0.01861 -1.37011e-11 0)
(0.00806668 -1.27524e-11 0)
(0.0352465 -3.37435e-12 0)
(0.0629825 9.53485e-12 0)
(0.0911658 6.93218e-12 0)
(0.119658 -9.03007e-12 0)
(0.148396 -2.2512e-11 0)
(0.177329 -2.31751e-11 0)
(0.206318 -1.98806e-11 0)
(0.235539 -4.60306e-12 0)
(0.264354 1.93885e-12 0)
(0.292566 4.12367e-12 0)
(0.320094 1.65971e-11 0)
(0.346279 2.47096e-12 0)
(0.371725 -7.24458e-13 0)
(0.395774 1.31572e-11 0)
(0.419146 6.81849e-12 0)
(0.439552 -4.31994e-12 0)
(0.45904 2.00845e-12 0)
(0.464735 1.09512e-11 0)
(0.457781 4.77942e-12 0)
(0.83495 -3.01893e-12 0)
(0.994287 0.0909808 0)
(1.11625 0.0830611 0)
(0.875319 0.0474662 0)
(0.579026 0.0738703 0)
(0.316472 0.0901314 0)
(0.109457 0.0577225 0)
(-0.00845187 0.0283855 0)
(-0.0771963 0.017336 0)
(-0.109515 0.0138636 0)
(-0.122135 0.0121911 0)
(-0.129339 0.0113028 0)
(-0.135368 0.0103823 0)
(-0.137988 0.00966876 0)
(-0.132159 0.00938129 0)
(-0.116484 0.00930778 0)
(-0.0946695 0.00927269 0)
(-0.0702266 0.00923541 0)
(-0.0447263 0.00919357 0)
(-0.0185874 0.0091597 0)
(0.00807035 0.00916083 0)
(0.0352324 0.00913904 0)
(0.0629507 0.00909756 0)
(0.0911157 0.00908595 0)
(0.119588 0.00908439 0)
(0.148304 0.00908585 0)
(0.177212 0.00908817 0)
(0.206173 0.00909884 0)
(0.23536 0.00908135 0)
(0.264134 0.00913244 0)
(0.292297 0.00906603 0)
(0.319763 0.0091757 0)
(0.345868 0.00907436 0)
(0.371204 0.0092612 0)
(0.39509 0.00902899 0)
(0.418234 0.00957048 0)
(0.438368 0.0087742 0)
(0.457377 0.00998178 0)
(0.46273 0.00894972 0)
(0.455651 0.0106768 0)
(0.832044 0.0112088 0)
(0.974435 0.216369 0)
(1.05912 0.187193 0)
(0.778189 0.115962 0)
(0.474859 0.15081 0)
(0.233999 0.159143 0)
(0.0787028 0.10147 0)
(-0.0149198 0.0544107 0)
(-0.0782986 0.035018 0)
(-0.109452 0.0279936 0)
(-0.121638 0.0244665 0)
(-0.128689 0.0225963 0)
(-0.13491 0.0208743 0)
(-0.137523 0.0194261 0)
(-0.131712 0.0188062 0)
(-0.116093 0.0186335 0)
(-0.0943469 0.0185538 0)
(-0.0699785 0.0184792 0)
(-0.0445515 0.0183955 0)
(-0.0184824 0.0183273 0)
(0.00810863 0.0183288 0)
(0.0352054 0.0182845 0)
(0.0628597 0.0182009 0)
(0.0909623 0.0181771 0)
(0.119374 0.0181735 0)
(0.148031 0.0181759 0)
(0.176883 0.0181799 0)
(0.20579 0.0182008 0)
(0.234928 0.0181652 0)
(0.263656 0.018267 0)
(0.291779 0.0181346 0)
(0.319211 0.0183548 0)
(0.345294 0.0181566 0)
(0.370613 0.0185334 0)
(0.3945 0.0180918 0)
(0.417648 0.0191612 0)
(0.437869 0.0176363 0)
(0.456761 0.0200712 0)
(0.462413 0.0180281 0)
(0.454767 0.0213463 0)
(0.833435 0.0225333 0)
(0.439422 0.298178 0)
(0.577806 0.248133 0)
(0.395179 0.257238 0)
(0.231019 0.291194 0)
(0.0934644 0.26344 0)
(0.0330391 0.171822 0)
(-0.0348458 0.103821 0)
(-0.0879759 0.0712297 0)
(-0.114922 0.0577223 0)
(-0.124293 0.0508209 0)
(-0.131061 0.0467745 0)
(-0.137153 0.0432617 0)
(-0.138997 0.0405426 0)
(-0.132432 0.0392351 0)
(-0.116504 0.0387785 0)
(-0.09467 0.0385765 0)
(-0.0702545 0.038408 0)
(-0.0447728 0.0382295 0)
(-0.0186369 0.0380877 0)
(0.00802563 0.0380914 0)
(0.0351912 0.0379996 0)
(0.0629103 0.0378258 0)
(0.0910744 0.0377764 0)
(0.119545 0.0377692 0)
(0.148256 0.0377743 0)
(0.17716 0.0377825 0)
(0.206114 0.0378273 0)
(0.235299 0.0377517 0)
(0.264073 0.0379632 0)
(0.292244 0.0376901 0)
(0.319736 0.0381363 0)
(0.345901 0.0377324 0)
(0.371299 0.0384825 0)
(0.395305 0.0376056 0)
(0.418572 0.0396731 0)
(0.43911 0.0367706 0)
(0.457912 0.0415283 0)
(0.465235 0.0371134 0)
(0.456103 0.04628 0)
(0.838306 0.046819 0)
(-0.326246 0.263503 0)
(-0.072833 0.339729 0)
(-0.0830179 0.405522 0)
(-0.0635203 0.412969 0)
(-0.0681115 0.346984 0)
(-0.0486081 0.241294 0)
(-0.0849459 0.164234 0)
(-0.111589 0.121902 0)
(-0.126941 0.101294 0)
(-0.130691 0.0903263 0)
(-0.136453 0.0829062 0)
(-0.141671 0.0769062 0)
(-0.141804 0.0726861 0)
(-0.133615 0.070526 0)
(-0.116982 0.0696957 0)
(-0.0950051 0.0692735 0)
(-0.0705757 0.0689465 0)
(-0.0450658 0.0686225 0)
(-0.0188723 0.0683744 0)
(0.00786023 0.0683882 0)
(0.0350902 0.0682278 0)
(0.0628645 0.0679172 0)
(0.091078 0.0678286 0)
(0.119591 0.0678154 0)
(0.148341 0.0678233 0)
(0.17728 0.0678359 0)
(0.206259 0.0679169 0)
(0.235473 0.0677747 0)
(0.264273 0.0681515 0)
(0.29248 0.0676621 0)
(0.320025 0.0684346 0)
(0.346286 0.0677251 0)
(0.371755 0.0689985 0)
(0.395909 0.0675315 0)
(0.419208 0.0708936 0)
(0.440216 0.066364 0)
(0.458747 0.073966 0)
(0.469437 0.0662553 0)
(0.456319 0.0841344 0)
(0.829325 0.0854431 0)
(-0.63963 0.272781 0)
(-0.393107 0.383028 0)
(-0.331177 0.457021 0)
(-0.221799 0.438314 0)
(-0.166886 0.349829 0)
(-0.126863 0.263606 0)
(-0.134569 0.202558 0)
(-0.139061 0.164705 0)
(-0.140885 0.142225 0)
(-0.140355 0.128124 0)
(-0.143601 0.117968 0)
(-0.147396 0.109883 0)
(-0.145236 0.104619 0)
(-0.135127 0.10179 0)
(-0.117568 0.100545 0)
(-0.0953602 0.0998964 0)
(-0.070913 0.0993809 0)
(-0.0453872 0.0989067 0)
(-0.019145 0.0985563 0)
(0.00765198 0.0985846 0)
(0.0349394 0.0983579 0)
(0.0627594 0.0979107 0)
(0.0910112 0.0977817 0)
(0.119553 0.0977613 0)
(0.148323 0.0977696 0)
(0.177278 0.0977819 0)
(0.206259 0.0979 0)
(0.235471 0.0976817 0)
(0.26427 0.0982185 0)
(0.292486 0.0975195 0)
(0.320066 0.0985779 0)
(0.346417 0.097614 0)
(0.371933 0.0993147 0)
(0.39623 0.0973932 0)
(0.419485 0.101663 0)
(0.440931 0.0962512 0)
(0.459353 0.10556 0)
(0.473224 0.0957478 0)
(0.456972 0.119244 0)
(0.832295 0.122636 0)
(-0.728292 0.260883 0)
(-0.50258 0.375736 0)
(-0.417364 0.442856 0)
(-0.288044 0.41786 0)
(-0.228602 0.338888 0)
(-0.190221 0.279334 0)
(-0.173397 0.234828 0)
(-0.1671 0.200301 0)
(-0.155876 0.1799 0)
(-0.152763 0.163499 0)
(-0.15263 0.151592 0)
(-0.154327 0.142046 0)
(-0.149327 0.136163 0)
(-0.137081 0.132911 0)
(-0.118453 0.131337 0)
(-0.0959223 0.130429 0)
(-0.0713984 0.129713 0)
(-0.0458204 0.12909 0)
(-0.0195041 0.128646 0)
(0.00737857 0.128696 0)
(0.0347407 0.128407 0)
(0.0626207 0.127823 0)
(0.0909238 0.127651 0)
(0.119505 0.12762 0)
(0.148303 0.127623 0)
(0.177279 0.127627 0)
(0.206284 0.12778 0)
(0.235473 0.127476 0)
(0.264286 0.128163 0)
(0.292521 0.127263 0)
(0.320153 0.128559 0)
(0.346625 0.127394 0)
(0.372204 0.129423 0)
(0.396672 0.127178 0)
(0.419858 0.13206 0)
(0.441766 0.126224 0)
(0.460197 0.136453 0)
(0.476679 0.125575 0)
(0.455383 0.153462 0)
(0.824632 0.155072 0)
(-0.749428 0.262689 0)
(-0.52801 0.363901 0)
(-0.439951 0.418558 0)
(-0.330071 0.389475 0)
(-0.270428 0.33547 0)
(-0.238783 0.290092 0)
(-0.207034 0.261497 0)
(-0.191906 0.231347 0)
(-0.173236 0.213423 0)
(-0.166382 0.196434 0)
(-0.163623 0.183432 0)
(-0.161903 0.173347 0)
(-0.153867 0.1672 0)
(-0.139397 0.163768 0)
(-0.119663 0.16194 0)
(-0.0967311 0.160788 0)
(-0.0720616 0.159898 0)
(-0.0463806 0.159143 0)
(-0.0199566 0.158618 0)
(0.00703588 0.1587 0)
(0.0344918 0.158353 0)
(0.0624483 0.15763 0)
(0.0908184 0.15741 0)
(0.119452 0.157362 0)
(0.148291 0.157353 0)
(0.177301 0.157333 0)
(0.20635 0.157517 0)
(0.235519 0.15711 0)
(0.264363 0.157933 0)
(0.292643 0.15684 0)
(0.32036 0.158312 0)
(0.347001 0.156999 0)
(0.372699 0.159252 0)
(0.397396 0.156801 0)
(0.420607 0.162042 0)
(0.442987 0.156051 0)
(0.461585 0.166555 0)
(0.480314 0.155513 0)
(0.455176 0.18812 0)
(0.823409 0.191848 0)
(-0.751435 0.281114 0)
(-0.529282 0.362641 0)
(-0.440404 0.403639 0)
(-0.363782 0.364041 0)
(-0.303379 0.346951 0)
(-0.271164 0.307815 0)
(-0.233297 0.28697 0)
(-0.210497 0.261159 0)
(-0.189129 0.244512 0)
(-0.179321 0.227709 0)
(-0.174498 0.214113 0)
(-0.169171 0.203977 0)
(-0.158158 0.197868 0)
(-0.141672 0.194352 0)
(-0.120938 0.192315 0)
(-0.0976027 0.190955 0)
(-0.0727683 0.189924 0)
(-0.0469761 0.189052 0)
(-0.0204399 0.188462 0)
(0.00666033 0.188586 0)
(0.0342043 0.188184 0)
(0.06223 0.18732 0)
(0.0906587 0.187045 0)
(0.119333 0.186975 0)
(0.148194 0.186946 0)
(0.177215 0.186891 0)
(0.206292 0.187103 0)
(0.235389 0.186588 0)
(0.264211 0.18754 0)
(0.292474 0.186277 0)
(0.320198 0.187882 0)
(0.346912 0.186487 0)
(0.372598 0.188895 0)
(0.397366 0.186349 0)
(0.420386 0.191794 0)
(0.442934 0.185797 0)
(0.461181 0.196261 0)
(0.480772 0.1858 0)
(0.451999 0.221818 0)
(0.814321 0.223539 0)
(-0.759306 0.300415 0)
(-0.530286 0.364197 0)
(-0.44728 0.39821 0)
(-0.389373 0.359664 0)
(-0.330331 0.358808 0)
(-0.294813 0.325275 0)
(-0.256191 0.30958 0)
(-0.229065 0.288084 0)
(-0.206757 0.272483 0)
(-0.194658 0.256425 0)
(-0.186748 0.243232 0)
(-0.177408 0.233644 0)
(-0.163244 0.227904 0)
(-0.144714 0.22445 0)
(-0.1229 0.222289 0)
(-0.0990161 0.22082 0)
(-0.0738698 0.219703 0)
(-0.0478553 0.218735 0)
(-0.0211215 0.218098 0)
(0.00615534 0.218274 0)
(0.0338488 0.217822 0)
(0.0620032 0.216814 0)
(0.0905533 0.216478 0)
(0.119337 0.216378 0)
(0.148297 0.216322 0)
(0.177417 0.216214 0)
(0.206627 0.21645 0)
(0.235779 0.215818 0)
(0.264731 0.216892 0)
(0.293164 0.215478 0)
(0.321122 0.217173 0)
(0.34817 0.215755 0)
(0.374164 0.218255 0)
(0.399328 0.215709 0)
(0.422575 0.221243 0)
(0.445637 0.215343 0)
(0.464144 0.225576 0)
(0.485205 0.215874 0)
(0.452999 0.255965 0)
(0.812468 0.260236 0)
(-0.75178 0.328704 0)
(-0.531595 0.371263 0)
(-0.452399 0.404302 0)
(-0.400801 0.369661 0)
(-0.346424 0.376392 0)
(-0.308963 0.34655 0)
(-0.271461 0.334026 0)
(-0.242751 0.315232 0)
(-0.220468 0.300102 0)
(-0.206801 0.284577 0)
(-0.195761 0.272015 0)
(-0.182994 0.263039 0)
(-0.166313 0.257645 0)
(-0.146287 0.254245 0)
(-0.123761 0.251984 0)
(-0.0996104 0.250385 0)
(-0.0743608 0.249155 0)
(-0.0482798 0.24812 0)
(-0.0215063 0.247449 0)
(0.00579489 0.247687 0)
(0.0334886 0.247184 0)
(0.0616224 0.246028 0)
(0.0901411 0.245625 0)
(0.118872 0.245494 0)
(0.147757 0.245413 0)
(0.17678 0.245247 0)
(0.205932 0.245515 0)
(0.234897 0.244773 0)
(0.263721 0.245969 0)
(0.292046 0.244443 0)
(0.319926 0.246207 0)
(0.346975 0.244838 0)
(0.37292 0.247406 0)
(0.398101 0.244968 0)
(0.421192 0.250495 0)
(0.444306 0.244831 0)
(0.46252 0.25454 0)
(0.48388 0.245981 0)
(0.449201 0.288934 0)
(0.80323 0.291004 0)
(-0.758813 0.355712 0)
(-0.53502 0.383422 0)
(-0.459965 0.414415 0)
(-0.412732 0.384352 0)
(-0.361421 0.393897 0)
(-0.323987 0.366423 0)
(-0.287519 0.356514 0)
(-0.259234 0.339418 0)
(-0.237034 0.325054 0)
(-0.221585 0.310643 0)
(-0.207214 0.299465 0)
(-0.191153 0.29151 0)
(-0.172017 0.286592 0)
(-0.15033 0.283265 0)
(-0.126745 0.281107 0)
(-0.101942 0.279521 0)
(-0.0762385 0.278156 0)
(-0.0497599 0.277029 0)
(-0.0226218 0.276319 0)
(0.00501556 0.27662 0)
(0.0330175 0.276067 0)
(0.0614404 0.274761 0)
(0.0902426 0.274293 0)
(0.119241 0.274143 0)
(0.148377 0.274058 0)
(0.177627 0.27384 0)
(0.207042 0.274158 0)
(0.236165 0.273338 0)
(0.265208 0.274683 0)
(0.293767 0.273098 0)
(0.321913 0.274931 0)
(0.349292 0.273676 0)
(0.375526 0.276297 0)
(0.401012 0.274045 0)
(0.424247 0.279525 0)
(0.447624 0.274198 0)
(0.46581 0.283402 0)
(0.487829 0.276022 0)
(0.449946 0.322522 0)
(0.799818 0.327394 0)
(-0.756202 0.387826 0)
(-0.535677 0.399313 0)
(-0.46354 0.429306 0)
(-0.41878 0.403954 0)
(-0.370315 0.414334 0)
(-0.333967 0.38843 0)
(-0.299011 0.380217 0)
(-0.271915 0.36397 0)
(-0.249377 0.350396 0)
(-0.23166 0.337008 0)
(-0.213995 0.327012 0)
(-0.195038 0.319815 0)
(-0.173934 0.315177 0)
(-0.15116 0.311849 0)
(-0.127096 0.3095 0)
(-0.102069 0.307725 0)
(-0.076249 0.306291 0)
(-0.049779 0.305084 0)
(-0.022731 0.304334 0)
(0.00475778 0.304696 0)
(0.0325672 0.30409 0)
(0.0607789 0.302631 0)
(0.089383 0.302105 0)
(0.118195 0.30196 0)
(0.147157 0.301904 0)
(0.176262 0.301656 0)
(0.205565 0.302072 0)
(0.234569 0.301207 0)
(0.263595 0.302749 0)
(0.292204 0.301184 0)
(0.320466 0.303116 0)
(0.348065 0.302064 0)
(0.374512 0.304769 0)
(0.400209 0.302852 0)
(0.423488 0.308279 0)
(0.446927 0.303461 0)
(0.46489 0.312037 0)
(0.486956 0.306094 0)
(0.447086 0.35512 0)
(0.790551 0.358042 0)
(-0.761336 0.421031 0)
(-0.538426 0.418223 0)
(-0.468152 0.446981 0)
(-0.426026 0.424592 0)
(-0.38055 0.434276 0)
(-0.345918 0.409035 0)
(-0.31244 0.401864 0)
(-0.28651 0.386161 0)
(-0.263274 0.373928 0)
(-0.243473 0.361928 0)
(-0.223132 0.353316 0)
(-0.201874 0.346866 0)
(-0.179078 0.3426 0)
(-0.155188 0.339621 0)
(-0.130484 0.337073 0)
(-0.104911 0.335183 0)
(-0.0786271 0.333634 0)
(-0.0516903 0.33232 0)
(-0.0241661 0.331523 0)
(0.00380088 0.331949 0)
(0.0320765 0.331291 0)
(0.0607366 0.329685 0)
(0.0897679 0.329115 0)
(0.118954 0.328998 0)
(0.148212 0.328987 0)
(0.177556 0.328718 0)
(0.207015 0.329289 0)
(0.236116 0.328363 0)
(0.265243 0.330132 0)
(0.293956 0.328637 0)
(0.322337 0.330681 0)
(0.350117 0.329876 0)
(0.376736 0.332671 0)
(0.402582 0.3312 0)
(0.425893 0.336561 0)
(0.449431 0.332376 0)
(0.467232 0.340499 0)
(0.489668 0.335908 0)
(0.44709 0.387886 0)
(0.785512 0.394966 0)
(-0.750646 0.451022 0)
(-0.539065 0.438894 0)
(-0.470276 0.46675 0)
(-0.430632 0.446269 0)
(-0.388158 0.45491 0)
(-0.355514 0.430209 0)
(-0.323462 0.423617 0)
(-0.298031 0.408558 0)
(-0.273445 0.397861 0)
(-0.251206 0.387158 0)
(-0.228436 0.379495 0)
(-0.205207 0.373455 0)
(-0.18113 0.369448 0)
(-0.156515 0.366107 0)
(-0.131166 0.363527 0)
(-0.105279 0.36145 0)
(-0.0788476 0.359715 0)
(-0.0519071 0.358217 0)
(-0.0244882 0.357311 0)
(0.00329643 0.357766 0)
(0.0313431 0.357045 0)
(0.0597753 0.355307 0)
(0.0886266 0.354739 0)
(0.117679 0.354726 0)
(0.146846 0.354842 0)
(0.176171 0.354635 0)
(0.205592 0.355484 0)
(0.234783 0.35454 0)
(0.264059 0.356622 0)
(0.29299 0.355299 0)
(0.321656 0.357516 0)
(0.349817 0.357025 0)
(0.376858 0.359929 0)
(0.403063 0.358986 0)
(0.426602 0.36423 0)
(0.450247 0.360823 0)
(0.467986 0.36849 0)
(0.490531 0.365251 0)
(0.445856 0.419494 0)
(0.775189 0.425241 0)
(-0.749403 0.486671 0)
(-0.541045 0.460071 0)
(-0.473434 0.486142 0)
(-0.436865 0.4666 0)
(-0.397118 0.473873 0)
(-0.366386 0.449877 0)
(-0.335397 0.443857 0)
(-0.310126 0.429548 0)
(-0.284582 0.420381 0)
(-0.260838 0.410555 0)
(-0.236161 0.404066 0)
(-0.211546 0.398781 0)
(-0.18657 0.394688 0)
(-0.161103 0.391408 0)
(-0.135167 0.388751 0)
(-0.108709 0.386603 0)
(-0.0817055 0.384774 0)
(-0.0541482 0.383173 0)
(-0.0260514 0.382229 0)
(0.0024443 0.382767 0)
(0.0311945 0.382009 0)
(0.0602799 0.380133 0)
(0.0897045 0.379532 0)
(0.119211 0.379569 0)
(0.148708 0.379744 0)
(0.178277 0.379487 0)
(0.207818 0.380576 0)
(0.237103 0.379525 0)
(0.266459 0.381863 0)
(0.295458 0.380687 0)
(0.324184 0.383051 0)
(0.352434 0.382868 0)
(0.379567 0.385861 0)
(0.405716 0.385568 0)
(0.428963 0.390757 0)
(0.452219 0.388317 0)
(0.469396 0.395808 0)
(0.491582 0.393977 0)
(0.445087 0.450761 0)
(0.768944 0.463148 0)
(-0.737694 0.511101 0)
(-0.541071 0.480448 0)
(-0.474765 0.505209 0)
(-0.441304 0.486233 0)
(-0.404635 0.492101 0)
(-0.375763 0.469332 0)
(-0.345441 0.463722 0)
(-0.31914 0.450181 0)
(-0.291469 0.442582 0)
(-0.265244 0.434558 0)
(-0.239222 0.428517 0)
(-0.213372 0.423205 0)
(-0.187231 0.41929 0)
(-0.161054 0.415869 0)
(-0.134641 0.413071 0)
(-0.107985 0.410721 0)
(-0.0810295 0.408661 0)
(-0.0537563 0.406821 0)
(-0.0261451 0.405724 0)
(0.00171973 0.406279 0)
(0.0297852 0.405465 0)
(0.0582635 0.403495 0)
(0.0872542 0.402959 0)
(0.116489 0.40318 0)
(0.145843 0.403536 0)
(0.175422 0.403346 0)
(0.204958 0.404805 0)
(0.234494 0.403666 0)
(0.264173 0.406319 0)
(0.293572 0.405325 0)
(0.322798 0.407824 0)
(0.351642 0.407881 0)
(0.379496 0.410855 0)
(0.406242 0.411132 0)
(0.430035 0.416051 0)
(0.45368 0.414362 0)
(0.471445 0.421467 0)
(0.494212 0.420524 0)
(0.447051 0.478446 0)
(0.757932 0.490712 0)
(-0.734015 0.542515 0)
(-0.545086 0.499066 0)
(-0.480929 0.521047 0)
(-0.450099 0.50131 0)
(-0.41477 0.506008 0)
(-0.386291 0.485833 0)
(-0.356121 0.481329 0)
(-0.329387 0.468824 0)
(-0.301463 0.462649 0)
(-0.275146 0.454808 0)
(-0.24821 0.449849 0)
(-0.221719 0.444813 0)
(-0.195036 0.441175 0)
(-0.168361 0.43791 0)
(-0.141446 0.435258 0)
(-0.114219 0.433017 0)
(-0.0865196 0.43104 0)
(-0.0582153 0.429239 0)
(-0.0291882 0.428209 0)
(0.000431576 0.428904 0)
(0.0303764 0.428073 0)
(0.060518 0.425948 0)
(0.0907623 0.425303 0)
(0.120828 0.425478 0)
(0.150656 0.425784 0)
(0.180496 0.425418 0)
(0.210105 0.427123 0)
(0.239633 0.425629 0)
(0.269236 0.428451 0)
(0.29852 0.427499 0)
(0.327636 0.430027 0)
(0.356379 0.430171 0)
(0.384245 0.432921 0)
(0.410836 0.433651 0)
(0.434407 0.438064 0)
(0.45753 0.437064 0)
(0.474787 0.443868 0)
(0.496837 0.443847 0)
(0.448563 0.503475 0)
(0.752014 0.525239 0)
(-0.725592 0.562134 0)
(-0.544599 0.515375 0)
(-0.482198 0.535374 0)
(-0.452896 0.515783 0)
(-0.419072 0.52011 0)
(-0.391849 0.50193 0)
(-0.361181 0.498786 0)
(-0.333169 0.487485 0)
(-0.303608 0.482903 0)
(-0.275368 0.475763 0)
(-0.247163 0.471301 0)
(-0.219584 0.466463 0)
(-0.192048 0.462984 0)
(-0.164777 0.459584 0)
(-0.137443 0.456687 0)
(-0.110054 0.454057 0)
(-0.0825131 0.451572 0)
(-0.0548545 0.449208 0)
(-0.027166 0.447737 0)
(0.000384758 0.448294 0)
(0.0279301 0.44741 0)
(0.0561031 0.445385 0)
(0.0851685 0.445132 0)
(0.114687 0.445877 0)
(0.144328 0.446704 0)
(0.174239 0.446644 0)
(0.203938 0.448964 0)
(0.233799 0.447333 0)
(0.263757 0.450514 0)
(0.293601 0.449646 0)
(0.3234 0.452285 0)
(0.352959 0.452421 0)
(0.381818 0.454883 0)
(0.4092 0.455923 0)
(0.43353 0.459721 0)
(0.456888 0.459238 0)
(0.474903 0.465418 0)
(0.49743 0.464922 0)
(0.452824 0.52268 0)
(0.743748 0.544649 0)
(-0.723184 0.570167 0)
(-0.547394 0.522873 0)
(-0.48803 0.542115 0)
(-0.460836 0.523609 0)
(-0.429341 0.527884 0)
(-0.403494 0.511881 0)
(-0.373266 0.509516 0)
(-0.345242 0.499014 0)
(-0.315523 0.495277 0)
(-0.286855 0.489225 0)
(-0.258605 0.48606 0)
(-0.231152 0.481671 0)
(-0.20374 0.478908 0)
(-0.176555 0.475777 0)
(-0.149106 0.473136 0)
(-0.121324 0.470587 0)
(-0.0928479 0.468158 0)
(-0.0634711 0.465993 0)
(-0.0330954 0.465075 0)
(-0.00199978 0.466264 0)
(0.0295238 0.46533 0)
(0.0612068 0.462671 0)
(0.09281 0.461917 0)
(0.123867 0.462518 0)
(0.154208 0.463379 0)
(0.184248 0.46307 0)
(0.213631 0.465728 0)
(0.242948 0.463536 0)
(0.272335 0.4668 0)
(0.301566 0.465696 0)
(0.330775 0.468279 0)
(0.359772 0.468285 0)
(0.388327 0.47041 0)
(0.415283 0.471887 0)
(0.439375 0.475151 0)
(0.462016 0.475395 0)
(0.479814 0.481719 0)
(0.501824 0.480915 0)
(0.460256 0.533755 0)
(0.741176 0.557262 0)
(-0.729618 0.576703 0)
(-0.54443 0.532686 0)
(-0.490386 0.55377 0)
(-0.464306 0.536584 0)
(-0.43431 0.541389 0)
(-0.407833 0.528122 0)
(-0.376387 0.526886 0)
(-0.346607 0.517463 0)
(-0.315495 0.513859 0)
(-0.28518 0.508116 0)
(-0.255132 0.505664 0)
(-0.226051 0.500882 0)
(-0.197008 0.498147 0)
(-0.168583 0.494145 0)
(-0.140234 0.490383 0)
(-0.112251 0.485932 0)
(-0.0845173 0.480818 0)
(-0.0569658 0.475601 0)
(-0.0292545 0.471926 0)
(-0.00139933 0.4716 0)
(0.0264925 0.470713 0)
(0.054864 0.469719 0)
(0.0838722 0.471787 0)
(0.113387 0.475361 0)
(0.143198 0.478807 0)
(0.173856 0.479705 0)
(0.20424 0.484152 0)
(0.234923 0.482261 0)
(0.265614 0.486478 0)
(0.296311 0.485529 0)
(0.326967 0.488477 0)
(0.357464 0.488496 0)
(0.387565 0.49042 0)
(0.415776 0.492135 0)
(0.441038 0.494658 0)
(0.463572 0.495217 0)
(0.480989 0.501551 0)
(0.502929 0.500011 0)
(0.467161 0.545264 0)
(0.744199 0.571284 0)
(-1.08941 0.215558 0)
(-0.542952 0.466292 0)
(-0.547804 0.468645 0)
(-0.530666 0.462792 0)
(-0.504831 0.464056 0)
(-0.477882 0.455417 0)
(-0.444248 0.456976 0)
(-0.411452 0.453206 0)
(-0.377044 0.453713 0)
(-0.343266 0.452867 0)
(-0.309512 0.454646 0)
(-0.276083 0.454335 0)
(-0.242842 0.455958 0)
(-0.209685 0.456429 0)
(-0.176351 0.457568 0)
(-0.142685 0.458356 0)
(-0.108575 0.459323 0)
(-0.0747405 0.460038 0)
(-0.0405374 0.460365 0)
(-0.00621923 0.462362 0)
(0.0279856 0.461281 0)
(0.063301 0.456984 0)
(0.0994433 0.455698 0)
(0.135388 0.452837 0)
(0.171905 0.451923 0)
(0.207235 0.448309 0)
(0.243176 0.448723 0)
(0.277738 0.443609 0)
(0.313077 0.443732 0)
(0.347162 0.439917 0)
(0.381682 0.43929 0)
(0.415018 0.43676 0)
(0.448254 0.435825 0)
(0.478374 0.436173 0)
(0.505725 0.436876 0)
(0.527382 0.439715 0)
(0.540326 0.44725 0)
(0.556469 0.451404 0)
(0.498631 0.481954 0)
(1.06174 0.235766 0)
(-1.02671 1.03354 0)
(-0.26733 1.06834 0)
(-0.546824 0.799588 0)
(-0.533785 0.797482 0)
(-0.510729 0.80297 0)
(-0.484995 0.809133 0)
(-0.446808 0.81274 0)
(-0.416048 0.82008 0)
(-0.378354 0.82134 0)
(-0.345502 0.825525 0)
(-0.312037 0.828663 0)
(-0.278733 0.828921 0)
(-0.246396 0.831795 0)
(-0.213507 0.831596 0)
(-0.180654 0.833032 0)
(-0.147268 0.832422 0)
(-0.113304 0.833348 0)
(-0.0791727 0.83478 0)
(-0.0445231 0.833244 0)
(-0.00913783 0.835619 0)
(0.0264366 0.835617 0)
(0.0610181 0.826776 0)
(0.0994999 0.830575 0)
(0.133907 0.819346 0)
(0.172793 0.820447 0)
(0.205701 0.811535 0)
(0.244297 0.810974 0)
(0.276165 0.800961 0)
(0.314429 0.798019 0)
(0.34616 0.788151 0)
(0.384645 0.782798 0)
(0.416281 0.771954 0)
(0.45556 0.764565 0)
(0.485257 0.752829 0)
(0.521298 0.744532 0)
(0.541668 0.734986 0)
(0.554805 0.733433 0)
(0.571563 0.733989 0)
(0.245983 1.04947 0)
(1.01508 1.02022 0)
(-1.02671 -1.03354 0)
(-0.26733 -1.06834 0)
(-0.546824 -0.799588 0)
(-0.533785 -0.797482 0)
(-0.510729 -0.80297 0)
(-0.484995 -0.809133 0)
(-0.446808 -0.81274 0)
(-0.416048 -0.82008 0)
(-0.378354 -0.82134 0)
(-0.345502 -0.825525 0)
(-0.312037 -0.828663 0)
(-0.278733 -0.828921 0)
(-0.246396 -0.831795 0)
(-0.213507 -0.831596 0)
(-0.180654 -0.833032 0)
(-0.147268 -0.832422 0)
(-0.113304 -0.833348 0)
(-0.0791727 -0.83478 0)
(-0.0445231 -0.833244 0)
(-0.00913783 -0.835619 0)
(0.0264366 -0.835617 0)
(0.0610181 -0.826776 0)
(0.0994999 -0.830575 0)
(0.133907 -0.819346 0)
(0.172793 -0.820447 0)
(0.205701 -0.811535 0)
(0.244297 -0.810974 0)
(0.276165 -0.800961 0)
(0.314429 -0.798019 0)
(0.34616 -0.788151 0)
(0.384645 -0.782798 0)
(0.416281 -0.771954 0)
(0.45556 -0.764565 0)
(0.485257 -0.752829 0)
(0.521298 -0.744532 0)
(0.541668 -0.734986 0)
(0.554805 -0.733433 0)
(0.571563 -0.733989 0)
(0.245983 -1.04947 0)
(1.01508 -1.02022 0)
(-1.08941 -0.215558 0)
(-0.542952 -0.466292 0)
(-0.547804 -0.468645 0)
(-0.530666 -0.462792 0)
(-0.504831 -0.464056 0)
(-0.477882 -0.455417 0)
(-0.444248 -0.456976 0)
(-0.411452 -0.453206 0)
(-0.377044 -0.453713 0)
(-0.343266 -0.452867 0)
(-0.309512 -0.454646 0)
(-0.276083 -0.454335 0)
(-0.242842 -0.455958 0)
(-0.209685 -0.456429 0)
(-0.176351 -0.457568 0)
(-0.142685 -0.458356 0)
(-0.108575 -0.459323 0)
(-0.0747405 -0.460038 0)
(-0.0405374 -0.460365 0)
(-0.00621923 -0.462362 0)
(0.0279856 -0.461281 0)
(0.063301 -0.456984 0)
(0.0994433 -0.455698 0)
(0.135388 -0.452837 0)
(0.171905 -0.451923 0)
(0.207235 -0.448309 0)
(0.243176 -0.448723 0)
(0.277738 -0.443609 0)
(0.313077 -0.443732 0)
(0.347162 -0.439917 0)
(0.381682 -0.43929 0)
(0.415018 -0.43676 0)
(0.448254 -0.435825 0)
(0.478374 -0.436173 0)
(0.505725 -0.436876 0)
(0.527382 -0.439715 0)
(0.540326 -0.44725 0)
(0.556469 -0.451404 0)
(0.498631 -0.481954 0)
(1.06174 -0.235766 0)
(-0.729618 -0.576703 0)
(-0.54443 -0.532686 0)
(-0.490386 -0.55377 0)
(-0.464306 -0.536584 0)
(-0.43431 -0.541389 0)
(-0.407833 -0.528122 0)
(-0.376387 -0.526886 0)
(-0.346607 -0.517463 0)
(-0.315495 -0.513859 0)
(-0.28518 -0.508116 0)
(-0.255132 -0.505664 0)
(-0.226051 -0.500882 0)
(-0.197008 -0.498147 0)
(-0.168583 -0.494145 0)
(-0.140234 -0.490383 0)
(-0.112251 -0.485932 0)
(-0.0845173 -0.480818 0)
(-0.0569658 -0.475601 0)
(-0.0292545 -0.471926 0)
(-0.00139933 -0.4716 0)
(0.0264925 -0.470713 0)
(0.054864 -0.469719 0)
(0.0838722 -0.471787 0)
(0.113387 -0.475361 0)
(0.143198 -0.478807 0)
(0.173856 -0.479705 0)
(0.20424 -0.484152 0)
(0.234923 -0.482261 0)
(0.265614 -0.486478 0)
(0.296311 -0.485529 0)
(0.326967 -0.488477 0)
(0.357464 -0.488496 0)
(0.387565 -0.49042 0)
(0.415776 -0.492135 0)
(0.441038 -0.494658 0)
(0.463572 -0.495217 0)
(0.480989 -0.501551 0)
(0.502929 -0.500011 0)
(0.467161 -0.545264 0)
(0.744199 -0.571284 0)
(-0.723184 -0.570167 0)
(-0.547394 -0.522873 0)
(-0.48803 -0.542115 0)
(-0.460836 -0.523609 0)
(-0.429341 -0.527884 0)
(-0.403494 -0.511881 0)
(-0.373266 -0.509516 0)
(-0.345242 -0.499014 0)
(-0.315523 -0.495277 0)
(-0.286855 -0.489225 0)
(-0.258605 -0.48606 0)
(-0.231152 -0.481671 0)
(-0.20374 -0.478908 0)
(-0.176555 -0.475777 0)
(-0.149106 -0.473136 0)
(-0.121324 -0.470587 0)
(-0.0928479 -0.468158 0)
(-0.0634711 -0.465993 0)
(-0.0330954 -0.465075 0)
(-0.00199978 -0.466264 0)
(0.0295238 -0.46533 0)
(0.0612068 -0.462671 0)
(0.09281 -0.461917 0)
(0.123867 -0.462518 0)
(0.154208 -0.463379 0)
(0.184248 -0.46307 0)
(0.213631 -0.465728 0)
(0.242948 -0.463536 0)
(0.272335 -0.4668 0)
(0.301566 -0.465696 0)
(0.330775 -0.468279 0)
(0.359772 -0.468285 0)
(0.388327 -0.47041 0)
(0.415283 -0.471887 0)
(0.439375 -0.475151 0)
(0.462016 -0.475395 0)
(0.479814 -0.481719 0)