/*--------------------------------*- C++ -*----------------------------------*\
| =========                 |                                                 |
| \\      /  F ield         | OpenFOAM: The Open Source CFD Toolbox           |
|  \\    /   O peration     | Version:  v1912                                 |
|   \\  /    A nd           | Website:  www.openfoam.com                      |
|    \\/     M anipulation  |                                                 |
\*---------------------------------------------------------------------------*/
FoamFile
{
    version     2.0;
    format      ascii;
    class       volTensorField;
    location    "1.7";
    object      grad(U);
}
// * * * * * * * * * * * * * * * * * * * * * * * * * * * * * * * * * * * * * //

dimensions      [0 0 -1 0 0 0 0];


internalField   nonuniform List<tensor> 
1900
(
(-0.218711 -1.33332e-05 0 -1.30462e-05 -1.03891e-05 0 0 0 0)
(-0.116172 -6.60183e-06 0 -3.14676e-05 -3.10921e-05 0 0 0 0)
(-0.0965032 6.38363e-05 0 -4.63532e-05 -3.52225e-05 0 0 0 0)
(-0.0501648 0.000173715 0 5.35908e-06 8.79754e-05 0 0 0 0)
(-0.0181469 0.000926347 0 4.18096e-05 0.00037659 0 0 0 0)
(-0.00581548 0.00107475 0 0.00051019 0.00178923 0 0 0 0)
(-0.00549379 -0.00155901 0 0.00171876 0.00209743 0 0 0 0)
(-0.00166627 -0.011768 0 0.00319287 -0.000619171 0 0 0 0)
(0.0236841 -0.0412909 0 0.00167664 -0.0171173 0 0 0 0)
(0.00866873 -0.127584 0 -0.0371712 -0.0758916 0 0 0 0)
(-0.218756 -2.81479e-05 0 -1.96179e-05 2.69512e-06 0 0 0 0)
(-0.116205 -1.82316e-05 0 -5.06625e-05 1.06381e-05 0 0 0 0)
(-0.0964664 5.52312e-05 0 -8.47061e-05 9.29695e-06 0 0 0 0)
(-0.0500766 0.000238097 0 1.02409e-05 -5.31982e-05 0 0 0 0)
(-0.0176421 0.00077491 0 0.000174951 -0.000164418 0 0 0 0)
(-0.00413853 0.000646096 0 0.00107028 -0.000979546 0 0 0 0)
(-0.00281112 -0.000849398 0 0.00249974 -0.00123916 0 0 0 0)
(-0.00170838 -0.00744675 0 0.00387359 0.000579461 0 0 0 0)
(-0.0166799 -0.0339815 0 -0.00205337 0.0105288 0 0 0 0)
(-0.0785433 -0.0861447 0 -0.0548556 0.0418704 0 0 0 0)
(-0.218781 2.21695e-13 0 1.04117e-13 1.53879e-05 0 0 0 0)
(-0.116237 3.29154e-13 0 -1.1584e-13 4.0908e-05 0 0 0 0)
(-0.0964423 -1.06605e-12 0 6.87791e-14 5.18511e-05 0 0 0 0)
(-0.0499051 5.43981e-13 0 -3.29326e-14 -6.95544e-05 0 0 0 0)
(-0.0170869 -2.76528e-13 0 -6.14607e-14 -0.000424343 0 0 0 0)
(-0.00349069 3.44451e-14 0 -1.66967e-13 -0.00161938 0 0 0 0)
(-0.00269049 -1.53354e-13 0 -4.51977e-14 -0.00171654 0 0 0 0)
(-0.00621938 1.0971e-14 0 -5.7395e-14 7.94202e-05 0 0 0 0)
(-0.0350451 9.44611e-14 0 9.84591e-14 0.013177 0 0 0 0)
(-0.099976 6.77643e-14 0 2.34052e-13 0.0680424 0 0 0 0)
(-0.218756 2.81479e-05 0 1.96179e-05 2.69512e-06 0 0 0 0)
(-0.116205 1.82316e-05 0 5.06625e-05 1.06381e-05 0 0 0 0)
(-0.0964664 -5.52312e-05 0 8.47061e-05 9.29695e-06 0 0 0 0)
(-0.0500766 -0.000238097 0 -1.02409e-05 -5.31982e-05 0 0 0 0)
(-0.0176421 -0.00077491 0 -0.000174951 -0.000164418 0 0 0 0)
(-0.00413853 -0.000646096 0 -0.00107028 -0.000979546 0 0 0 0)
(-0.00281112 0.000849398 0 -0.00249974 -0.00123916 0 0 0 0)
(-0.00170838 0.00744675 0 -0.00387359 0.000579461 0 0 0 0)
(-0.0166799 0.0339815 0 0.00205337 0.0105288 0 0 0 0)
(-0.0785433 0.0861447 0 0.0548556 0.0418704 0 0 0 0)
(-0.218711 1.33332e-05 0 1.30462e-05 -1.03891e-05 0 0 0 0)
(-0.116172 6.60183e-06 0 3.14676e-05 -3.10921e-05 0 0 0 0)
(-0.0965032 -6.38363e-05 0 4.63532e-05 -3.52225e-05 0 0 0 0)
(-0.0501648 -0.000173715 0 -5.35908e-06 8.79754e-05 0 0 0 0)
(-0.0181469 -0.000926347 0 -4.18096e-05 0.00037659 0 0 0 0)
(-0.00581548 -0.00107475 0 -0.00051019 0.00178923 0 0 0 0)
(-0.00549379 0.00155901 0 -0.00171876 0.00209743 0 0 0 0)
(-0.00166627 0.011768 0 -0.00319287 -0.000619171 0 0 0 0)
(0.0236841 0.0412909 0 -0.00167664 -0.0171173 0 0 0 0)
(0.00866873 0.127584 0 0.0371712 -0.0758916 0 0 0 0)
(-0.0810085 -0.22583 8.15335e-18 -0.127123 0.108493 -1.223e-17 -3.24601e-17 -3.90995e-17 2.20997e-33)
(-0.181898 -0.277001 0 -0.171543 0.178307 0 8.65179e-17 3.12358e-17 0)
(-0.235282 -0.357435 0 -0.251066 0.216416 0 1.38805e-16 5.78606e-17 0)
(-0.658352 -0.302296 0 -0.565665 0.372698 0 0 0 0)
(-0.0103586 -0.972669 -2.29502e-16 -1.91496 2.11884 3.44253e-16 1.0514e-15 7.00932e-16 6.22066e-32)
(-0.158887 -0.128048 0 -0.107657 0.12829 0 -5.54313e-17 -1.94948e-17 0)
(-0.27895 -0.172542 0 -0.126525 0.207914 0 -8.65179e-17 -3.12358e-17 0)
(-0.465498 -0.272002 0 -0.246679 0.376773 0 -1.38805e-16 -5.78606e-17 0)
(-0.858202 -0.253933 0 -0.590525 0.692987 0 0 0 0)
(-0.676149 0.0846594 0 -0.80433 0.986936 0 0 0 0)
(-0.191457 -3.87341e-14 0 9.31736e-14 0.174957 0 0 0 0)
(-0.337783 3.2963e-13 0 1.50088e-14 0.275612 0 0 0 0)
(-0.600976 1.64136e-13 0 1.26867e-13 0.527262 0 0 0 0)
(-1.03563 -1.47645e-13 0 -1.74027e-13 1.00194 0 0 0 0)
(-0.861823 1.10361e-13 0 -2.45236e-13 1.54639 0 0 0 0)
(-0.158887 0.128048 0 0.107657 0.12829 0 -5.54313e-17 1.94948e-17 0)
(-0.27895 0.172542 0 0.126525 0.207914 0 -8.65179e-17 3.12358e-17 0)
(-0.465498 0.272002 0 0.246679 0.376773 0 -1.38805e-16 5.78606e-17 0)
(-0.858202 0.253933 0 0.590525 0.692987 0 0 0 0)
(-0.676149 -0.0846594 0 0.80433 0.986936 0 0 0 0)
(-0.0810085 0.22583 -8.15335e-18 0.127123 0.108493 -1.223e-17 1.43323e-16 -7.8089e-17 2.20997e-33)
(-0.181898 0.277001 0 0.171543 0.178307 0 8.65179e-17 -3.12358e-17 0)
(-0.235282 0.357435 0 0.251066 0.216416 0 1.38805e-16 -5.78606e-17 0)
(-0.658352 0.302296 -2.17658e-17 0.565665 0.372698 -3.26488e-17 4.24642e-16 -2.83095e-16 5.89964e-33)
(-0.0103586 0.972669 2.29502e-16 1.91496 2.11884 3.44253e-16 -1.0514e-15 7.00932e-16 6.22066e-32)
(-0.102477 0.350072 2.45698e-18 -0.306591 -0.743127 2.21128e-17 -6.74922e-16 5.15848e-17 -6.65966e-34)
(0.23819 0.0148361 -7.16907e-19 -0.180644 -0.336635 -6.45216e-18 4.94273e-16 -4.41764e-17 -1.94318e-34)
(0.0743912 0.10837 0 0.069607 -0.199486 0 0 0 0)
(-0.412364 0.472985 -1.70866e-18 0.584362 0.413347 -1.53779e-17 -3.37356e-16 5.18881e-17 4.63132e-34)
(-1.23767 0.482532 5.52268e-18 2.2036 1.75822 4.97041e-17 2.25266e-16 -2.50295e-17 1.49692e-33)
(0.0686447 0.318106 0 -0.368287 -0.246871 0 3.42078e-16 -1.46021e-17 0)
(0.323961 -0.00147721 0 -0.215765 -0.343749 0 -2.49857e-16 1.7019e-17 0)
(0.326141 0.111788 0 0.150418 -0.325971 0 0 0 0)
(0.434784 0.493017 0 0.88438 -0.582693 0 1.9319e-16 -3.58233e-17 0)
(1.10163 0.384208 0 3.20859 -1.24073 0 -1.5567e-17 1.01537e-17 0)
(0.115061 8.61411e-14 0 -4.44906e-13 -0.475962 0 0 0 0)
(0.393171 9.51713e-14 0 -1.08884e-13 -0.442704 0 0 0 0)
(0.477379 3.3865e-13 0 8.74389e-13 -0.41863 0 0 0 0)
(0.895448 1.78955e-13 0 2.18701e-12 -0.970861 0 -6.66219e-17 2.95126e-29 0)
(1.669 -2.60922e-13 0 2.91855e-12 -2.69715 0 3.11341e-17 -2.08056e-29 0)
(0.0686447 -0.318106 0 0.368287 -0.246871 0 3.42078e-16 1.46021e-17 0)
(0.323961 0.00147721 0 0.215765 -0.343749 0 -2.49857e-16 -1.7019e-17 0)
(0.326141 -0.111788 0 -0.150418 -0.325971 0 0 0 0)
(0.434784 -0.493017 0 -0.88438 -0.582693 0 1.9319e-16 3.58233e-17 0)
(1.10163 -0.384208 0 -3.20859 -1.24073 0 -1.5567e-17 -1.01537e-17 0)
(-0.102477 -0.350072 0 0.306591 -0.743127 0 -3.42078e-16 -1.46021e-17 0)
(0.23819 -0.0148361 7.16907e-19 0.180644 -0.336635 -6.45216e-18 5.44041e-18 -1.01384e-17 -1.94318e-34)
(0.0743912 -0.10837 0 -0.069607 -0.199486 0 0 0 0)
(-0.412364 -0.472985 1.70866e-18 -0.584362 0.413347 -1.53779e-17 1.75991e-17 -1.24487e-17 4.63132e-34)
(-1.23767 -0.482532 -5.52268e-18 -2.2036 1.75822 4.97041e-17 -2.25266e-16 -2.50295e-17 1.49692e-33)
(0.463981 -0.827908 0 10.0994 -0.0334326 0 0 0 0)
(1.15207 -0.926309 0 5.22643 0.592967 0 0 0 0)
(-0.607594 0.194593 0 2.54294 0.81107 0 0 0 0)
(-0.519828 0.487741 0 0.667605 0.609666 0 0 0 0)
(-0.192163 0.249359 0 0.154006 0.273431 0 0 0 0)
(0.0291744 0.080065 0 0.044097 0.1269 0 0 0 0)
(0.17078 0.0311543 0 0.00434749 0.0604441 0 0 0 0)
(0.254693 0.0101555 0 0.00484812 0.0377323 0 0 0 0)
(0.304442 0.00518862 0 0.00631608 0.0230371 0 0 0 0)
(0.329795 0.00332144 0 0.00527945 0.015263 0 0 0 0)
(0.334177 0.00258394 0 0.00361762 0.0101081 0 0 0 0)
(0.317716 0.00191735 0 0.00250199 0.00648923 0 0 0 0)
(0.272581 0.0014303 0 0.00185184 0.0037542 0 0 0 0)
(0.190526 0.000967515 0 0.00124805 0.00170572 0 0 0 0)
(0.0918979 0.000490695 0 0.00054473 0.000475362 0 0 0 0)
(0.0246496 0.000147765 0 9.82142e-05 5.56094e-05 0 0 0 0)
(0.00270666 1.8594e-05 0 4.53378e-06 1.63963e-06 0 0 0 0)
(8.16591e-05 6.06602e-07 0 3.38252e-08 7.42829e-09 0 0 0 0)
(4.52441e-07 2.81377e-09 0 2.91593e-11 1.24195e-11 0 0 0 0)
(3.22618e-10 -1.64051e-12 0 -2.41314e-14 6.90073e-12 0 0 0 0)
(4.44798e-10 6.59344e-13 0 -1.33359e-14 6.92349e-12 0 0 0 0)
(5.79962e-07 -1.43793e-14 0 -2.8391e-13 7.95329e-12 0 0 0 0)
(9.88012e-05 1.68397e-12 0 1.36058e-13 6.12689e-12 0 0 0 0)
(0.00312528 4.40767e-12 0 -6.36624e-13 1.02134e-11 0 0 0 0)
(0.027491 -7.443e-13 0 -1.97023e-12 1.3822e-11 0 0 0 0)
(0.100146 -3.17966e-12 0 2.21356e-12 8.7105e-12 0 0 0 0)
(0.20483 4.97396e-13 0 -4.51053e-13 8.4325e-12 0 0 0 0)
(0.291991 2.59212e-13 0 3.5754e-13 8.43657e-12 0 0 0 0)
(0.34318 -5.23585e-13 0 2.69079e-13 7.20976e-12 0 0 0 0)
(0.369726 -1.69745e-12 0 3.29696e-13 5.89185e-12 0 0 0 0)
(0.383289 -2.7188e-12 0 5.79555e-13 2.7537e-12 0 0 0 0)
(0.38897 -7.30142e-14 0 1.09406e-13 1.5127e-12 0 0 0 0)
(0.387984 4.32557e-14 0 -8.47649e-14 8.40678e-13 0 0 0 0)
(0.379527 2.62922e-13 0 1.04478e-13 5.58351e-13 0 0 0 0)
(0.359785 2.57564e-13 0 -8.08223e-14 1.07719e-12 0 0 0 0)
(0.324733 -2.44857e-13 0 1.16305e-13 1.13866e-13 0 0 0 0)
(0.273811 4.96736e-14 0 -1.67559e-13 5.90527e-13 0 0 0 0)
(0.437258 -3.51882e-13 0 -3.35117e-14 -6.75914e-14 0 0 0 0)
(2.49574 -1.30254e-14 0 -8.47649e-14 -5.17533e-13 0 0 0 0)
(2.18073 -1.70291e-13 0 5.83498e-13 -1.45969e-12 0 0 0 0)
(1.19015 -0.718276 0 8.57518 -1.1756 0 0 0 0)
(-0.283857 -0.806206 0 4.51018 1.66656 0 0 0 0)
(-1.48533 0.182327 0 2.3618 2.00859 0 0 0 0)
(-0.976562 0.355762 0 0.564154 0.997649 0 0 0 0)
(-0.301687 0.148522 0 0.0807159 0.331977 0 0 0 0)
(0.0103035 0.0424298 0 0.0103995 0.140478 0 0 0 0)
(0.167376 0.0160431 0 -0.00428521 0.0567538 0 0 0 0)
(0.256119 0.00480332 0 0.000197459 0.0333855 0 0 0 0)
(0.30508 0.0023655 0 0.00307242 0.0218442 0 0 0 0)
(0.329584 0.00158483 0 0.0029646 0.0155497 0 0 0 0)
(0.33383 0.00129757 0 0.00200786 0.0104267 0 0 0 0)
(0.317478 0.000971856 0 0.00134217 0.00666736 0 0 0 0)
(0.272401 0.000725111 0 0.000941703 0.00383586 0 0 0 0)
(0.190365 0.000486501 0 0.000578067 0.00175069 0 0 0 0)
(0.0917821 0.000242676 0 0.000238374 0.000510026 0 0 0 0)
(0.0246001 7.18325e-05 0 4.34582e-05 6.39264e-05 0 0 0 0)
(0.00269761 8.9889e-06 0 2.05615e-06 2.08518e-06 0 0 0 0)
(8.12277e-05 3.01274e-07 0 1.51155e-08 9.66867e-09 0 0 0 0)
(4.49269e-07 1.63913e-09 0 4.478e-12 -8.02151e-12 0 0 0 0)
(3.22083e-10 7.95738e-14 0 9.14014e-15 -3.37105e-12 0 0 0 0)
(4.4497e-10 4.02127e-13 0 -2.7699e-14 -3.30317e-12 0 0 0 0)
(5.79962e-07 -2.28319e-13 0 9.19774e-13 -5.48192e-12 0 0 0 0)
(9.88012e-05 1.15097e-12 0 -1.93482e-12 -5.34275e-12 0 0 0 0)
(0.00312528 2.24727e-12 0 3.43859e-12 -8.69851e-12 0 0 0 0)
(0.027491 -3.59425e-13 0 2.54486e-12 -1.91972e-11 0 0 0 0)
(0.100146 -1.75591e-12 0 -3.67009e-12 -6.19543e-12 0 0 0 0)
(0.20483 1.5122e-13 0 -6.40542e-13 -9.25712e-12 0 0 0 0)
(0.291991 5.22697e-13 0 7.14588e-14 -8.38097e-12 0 0 0 0)
(0.34318 -6.43847e-13 0 -1.2764e-13 -8.57104e-12 0 0 0 0)
(0.369726 -8.50664e-13 0 -1.01324e-12 -9.56499e-12 0 0 0 0)
(0.383289 -1.33862e-12 0 -1.30301e-12 -3.04876e-12 0 0 0 0)
(0.38897 1.97317e-13 0 -2.9372e-13 -1.30823e-12 0 0 0 0)
(0.387984 2.07287e-13 0 3.02591e-13 -1.4376e-12 0 0 0 0)
(0.379527 1.75041e-14 0 3.33146e-13 -4.74411e-13 0 0 0 0)
(0.359785 2.32242e-13 0 5.32245e-14 -3.3746e-12 0 0 0 0)
(0.324733 1.10757e-14 0 -3.62715e-13 -3.74694e-13 0 0 0 0)
(0.273811 2.07135e-14 0 1.06449e-13 -1.54762e-12 0 0 0 0)
(0.437258 -3.70529e-13 0 -1.853e-13 -6.5184e-13 0 0 0 0)
(2.49574 -1.24862e-13 0 -2.91749e-13 -1.22244e-12 0 0 0 0)
(2.18073 -9.25573e-14 0 -7.05717e-13 -1.06689e-12 0 0 0 0)
(1.23858 -2.73233e-13 0 2.55182e-12 -2.75066 0 0 0 0)
(-0.655455 -1.28788e-13 0 6.93889e-13 2.41678 0 0 0 0)
(-1.75553 3.06602e-14 0 -1.99284e-13 2.79201 0 0 0 0)
(-1.18342 6.58518e-14 0 -8.1808e-14 1.16328 0 0 0 0)
(-0.353255 9.85011e-14 0 2.09941e-13 0.346145 0 0 0 0)
(0.00444678 3.43603e-14 0 -1.09406e-13 0.142195 0 0 0 0)
(0.167813 -1.46643e-13 0 -3.42017e-13 0.0544407 0 0 0 0)
(0.256834 -1.17499e-13 0 -1.19262e-13 0.031899 0 0 0 0)
(0.305247 2.79792e-13 0 2.2374e-13 0.0214179 0 0 0 0)
(0.329485 1.20211e-13 0 6.60378e-14 0.0156361 0 0 0 0)
(0.333705 -2.53869e-13 0 -1.61152e-13 0.0105221 0 0 0 0)
(0.317406 -1.66737e-13 0 -1.68051e-13 0.00671535 0 0 0 0)
(0.272359 -1.89282e-14 0 -8.82146e-14 0.00384061 0 0 0 0)
(0.190321 3.9782e-13 0 5.88919e-14 0.00173021 0 0 0 0)
(0.0917424 -2.66183e-13 0 -3.03577e-13 0.00049592 0 0 0 0)
(0.0245808 -3.30958e-13 0 1.32873e-13 6.181e-05 0 0 0 0)
(0.00269402 2.3068e-13 0 7.85384e-14 2.07126e-06 0 0 0 0)
(8.1061e-05 3.11513e-13 0 6.92767e-13 1.12666e-08 0 0 0 0)
(4.48044e-07 8.26483e-14 0 -7.86725e-13 8.92726e-13 0 0 0 0)
(3.21307e-10 -2.67898e-13 0 2.94193e-14 -1.88626e-12 0 0 0 0)
(4.45063e-10 4.52741e-14 0 3.51646e-14 -1.67219e-12 0 0 0 0)
(5.79961e-07 -6.07713e-13 0 7.92022e-14 -4.42895e-12 0 0 0 0)
(9.88012e-05 7.48229e-13 0 -2.07078e-12 -6.0179e-12 0 0 0 0)
(0.00312528 3.77292e-13 0 3.7358e-12 -5.62755e-12 0 0 0 0)
(0.027491 -1.61293e-14 0 -1.17854e-12 -1.48291e-11 0 0 0 0)
(0.100146 -2.88004e-13 0 -5.73549e-13 -4.08968e-12 0 0 0 0)
(0.20483 -1.38396e-13 0 -1.25238e-12 -7.9028e-12 0 0 0 0)
(0.291991 4.588e-13 0 1.7914e-13 -6.29172e-12 0 0 0 0)
(0.34318 -8.6803e-13 0 -4.66207e-13 -7.76412e-12 0 0 0 0)
(0.369726 -9.09652e-14 0 -2.53802e-13 -9.18546e-12 0 0 0 0)
(0.383289 -3.16831e-13 0 -1.28133e-13 -2.62136e-12 0 0 0 0)
(0.38897 3.95687e-13 0 -2.47395e-13 -2.56644e-12 0 0 0 0)
(0.387984 2.8582e-13 0 2.12898e-13 -1.44687e-12 0 0 0 0)
(0.379527 -3.00571e-13 0 7.88511e-14 -1.36183e-12 0 0 0 0)
(0.359785 2.86572e-13 0 2.9372e-13 -3.52383e-12 0 0 0 0)
(0.324733 2.86627e-13 0 1.79386e-13 -2.23363e-13 0 0 0 0)
(0.273811 -3.09508e-14 0 -5.32245e-14 -8.71997e-13 0 0 0 0)
(0.437258 -2.57284e-13 0 -2.1684e-13 -7.44009e-13 0 0 0 0)
(2.49574 -1.33766e-13 0 -8.87075e-14 -6.29727e-13 0 0 0 0)
(2.18073 -1.25038e-13 0 -4.77049e-13 -1.90856e-13 0 0 0 0)
(1.19015 0.718276 0 -8.57518 -1.1756 0 0 0 0)
(-0.283857 0.806206 0 -4.51018 1.66656 0 0 0 0)
(-1.48533 -0.182327 0 -2.3618 2.00859 0 0 0 0)
(-0.976562 -0.355762 0 -0.564154 0.997649 0 0 0 0)
(-0.301687 -0.148522 0 -0.0807159 0.331977 0 0 0 0)
(0.0103035 -0.0424298 0 -0.0103995 0.140478 0 0 0 0)
(0.167376 -0.0160431 0 0.00428521 0.0567538 0 0 0 0)
(0.256119 -0.00480332 0 -0.000197459 0.0333855 0 0 0 0)
(0.30508 -0.0023655 0 -0.00307242 0.0218442 0 0 0 0)
(0.329584 -0.00158483 0 -0.0029646 0.0155497 0 0 0 0)
(0.33383 -0.00129757 0 -0.00200786 0.0104267 0 0 0 0)
(0.317478 -0.000971856 0 -0.00134217 0.00666736 0 0 0 0)
(0.272401 -0.000725111 0 -0.000941703 0.00383586 0 0 0 0)
(0.190365 -0.000486501 0 -0.000578067 0.00175069 0 0 0 0)
(0.0917821 -0.000242676 0 -0.000238374 0.000510026 0 0 0 0)
(0.0246001 -7.18325e-05 0 -4.34582e-05 6.39264e-05 0 0 0 0)
(0.00269761 -8.9889e-06 0 -2.05615e-06 2.08518e-06 0 0 0 0)
(8.12277e-05 -3.01274e-07 0 -1.51142e-08 9.66927e-09 0 0 0 0)
(4.49268e-07 -1.63898e-09 0 -6.11114e-12 -7.2039e-12 0 0 0 0)
(3.22322e-10 -6.66582e-13 0 -2.70082e-15 -3.30171e-12 0 0 0 0)
(4.44984e-10 -3.37564e-13 0 1.38178e-13 -3.10755e-12 0 0 0 0)
(5.79961e-07 -1.49253e-12 0 -9.421e-13 -5.79893e-12 0 0 0 0)
(9.88012e-05 8.02289e-13 0 -2.25362e-12 -9.40279e-12 0 0 0 0)
(0.00312528 -3.15994e-13 0 3.86e-12 -5.44379e-12 0 0 0 0)
(0.027491 8.79555e-14 0 -3.97354e-12 -1.34408e-11 0 0 0 0)
(0.100146 2.59026e-13 0 1.68507e-12 -5.36881e-12 0 0 0 0)
(0.20483 -4.89373e-13 0 -1.54758e-12 -1.0131e-11 0 0 0 0)
(0.291991 5.6304e-13 0 2.91749e-13 -7.6368e-12 0 0 0 0)
(0.34318 -1.48566e-12 0 -9.03338e-13 -9.12832e-12 0 0 0 0)
(0.369726 6.45413e-13 0 5.23867e-13 -1.10395e-11 0 0 0 0)
(0.383289 5.86909e-13 0 1.09209e-12 -3.3293e-12 0 0 0 0)
(0.38897 5.38986e-13 0 -1.3109e-13 -4.29962e-12 0 0 0 0)
(0.387984 5.57718e-13 0 2.02056e-13 -2.37733e-12 0 0 0 0)
(0.379527 -5.86702e-13 0 -3.37088e-13 -1.93605e-12 0 0 0 0)
(0.359785 5.63431e-13 0 2.24726e-13 -3.47833e-12 0 0 0 0)
(0.324733 7.82517e-13 0 7.11631e-13 -2.026e-13 0 0 0 0)
(0.273811 -1.30747e-13 0 -2.06984e-13 -7.26506e-13 0 0 0 0)
(0.437258 -3.00051e-13 0 -3.68629e-13 -8.4444e-13 0 0 0 0)
(2.49574 3.60548e-14 0 -6.70234e-14 -1.17015e-12 0 0 0 0)
(2.18073 3.51144e-14 0 2.68094e-13 1.98364e-14 0 0 0 0)
(0.463981 0.827908 0 -10.0994 -0.0334326 0 0 0 0)
(1.15207 0.926309 0 -5.22643 0.592967 0 0 0 0)
(-0.607594 -0.194593 0 -2.54294 0.81107 0 0 0 0)
(-0.519828 -0.487741 0 -0.667605 0.609666 0 0 0 0)
(-0.192163 -0.249359 0 -0.154006 0.273431 0 0 0 0)
(0.0291744 -0.080065 0 -0.044097 0.1269 0 0 0 0)
(0.17078 -0.0311543 0 -0.00434749 0.0604441 0 0 0 0)
(0.254693 -0.0101555 0 -0.00484812 0.0377323 0 0 0 0)
(0.304442 -0.00518862 0 -0.00631608 0.0230371 0 0 0 0)
(0.329795 -0.00332144 0 -0.00527945 0.015263 0 0 0 0)
(0.334177 -0.00258394 0 -0.00361762 0.0101081 0 0 0 0)
(0.317716 -0.00191735 0 -0.00250199 0.00648923 0 0 0 0)
(0.272581 -0.0014303 0 -0.00185184 0.0037542 0 0 0 0)
(0.190526 -0.000967515 0 -0.00124805 0.00170572 0 0 0 0)
(0.0918979 -0.000490695 0 -0.00054473 0.000475362 0 0 0 0)
(0.0246496 -0.000147765 0 -9.82142e-05 5.56094e-05 0 0 0 0)
(0.00270666 -1.8594e-05 0 -4.53378e-06 1.63963e-06 0 0 0 0)
(8.16591e-05 -6.06601e-07 0 -3.38251e-08 7.42884e-09 0 0 0 0)
(4.5244e-07 -2.81376e-09 0 -2.90678e-11 1.06773e-11 0 0 0 0)
(3.23125e-10 9.23768e-13 0 -1.5862e-15 6.94228e-12 0 0 0 0)
(4.4479e-10 -6.8119e-13 0 3.40518e-14 6.78734e-12 0 0 0 0)
(5.79961e-07 -2.43906e-12 0 2.17145e-13 7.68674e-12 0 0 0 0)
(9.88012e-05 8.51543e-13 0 7.97992e-13 1.04367e-11 0 0 0 0)
(0.00312528 -7.97411e-13 0 -6.66402e-13 5.71096e-12 0 0 0 0)
(0.027491 5.68053e-15 0 6.33704e-13 1.08315e-11 0 0 0 0)
(0.100146 6.74863e-13 0 -1.52743e-13 6.14276e-12 0 0 0 0)
(0.20483 -7.98173e-13 0 1.71624e-13 9.6592e-12 0 0 0 0)
(0.291991 7.50481e-13 0 -1.91953e-13 6.88381e-12 0 0 0 0)
(0.34318 -1.85791e-12 0 2.11419e-13 7.15125e-12 0 0 0 0)
(0.369726 1.59602e-12 0 -3.99184e-13 7.96091e-12 0 0 0 0)
(0.383289 1.64387e-12 0 -7.55985e-13 3.1982e-12 0 0 0 0)
(0.38897 6.72622e-13 0 -8.87075e-15 3.4615e-12 0 0 0 0)
(0.387984 9.73402e-13 0 -1.45874e-13 1.18566e-12 0 0 0 0)
(0.379527 -6.2086e-13 0 -7.88511e-14 1.49841e-12 0 0 0 0)
(0.359785 7.9085e-13 0 4.13968e-14 1.70955e-12 0 0 0 0)
(0.324733 1.08716e-12 0 -1.77415e-13 9.75814e-14 0 0 0 0)
(0.273811 -2.17668e-13 0 -4.73106e-14 -3.92558e-13 0 0 0 0)
(0.437258 -3.86344e-13 0 4.33681e-14 8.6906e-14 0 0 0 0)
(2.49574 1.1766e-13 0 5.91383e-14 -5.90665e-14 0 0 0 0)
(2.18073 2.2114e-13 0 -3.11462e-13 -1.032e-12 0 0 0 0)
(2.4748 1.05762 0 -4.04157 -0.0770566 0 0 0 0)
(2.79583 1.19707 0 -2.44466 0.121932 0 0 0 0)
(0.359418 -0.157669 0 -1.36381 0.176945 0 0 0 0)
(-0.00614679 -0.540407 0 -0.516177 0.200097 0 0 0 0)
(-0.037215 -0.334754 0 -0.211689 0.161437 0 0 0 0)
(0.0823606 -0.132515 0 -0.0777624 0.100663 0 0 0 0)
(0.188059 -0.0545034 0 -0.0351998 0.0584595 0 0 0 0)
(0.256534 -0.0220792 0 -0.0195179 0.0385283 0 0 0 0)
(0.305547 -0.0131957 0 -0.0122389 0.0225683 0 0 0 0)
(0.331033 -0.00768689 0 -0.00805623 0.0141189 0 0 0 0)
(0.335172 -0.00531372 0 -0.00557548 0.00906372 0 0 0 0)
(0.318309 -0.00386427 0 -0.00413719 0.00555405 0 0 0 0)
(0.27298 -0.0029103 0 -0.00315098 0.00294165 0 0 0 0)
(0.190998 -0.00198706 0 -0.00208596 0.00118301 0 0 0 0)
(0.0923694 -0.000990973 0 -0.000874886 0.000279911 0 0 0 0)
(0.0248817 -0.000281189 0 -0.000150461 2.52101e-05 0 0 0 0)
(0.00274872 -3.27607e-05 0 -6.75096e-06 7.03143e-07 0 0 0 0)
(8.35728e-05 -9.76729e-07 0 -5.41201e-08 2.60768e-08 0 0 0 0)
(4.66818e-07 -4.93619e-09 0 -5.60869e-11 1.93769e-08 0 0 0 0)
(3.39648e-10 -4.94551e-12 0 -8.54098e-15 1.93661e-08 0 0 0 0)
(4.45346e-10 5.2673e-13 0 -5.64672e-14 1.9366e-08 0 0 0 0)
(5.79962e-07 1.89105e-12 0 7.79941e-13 1.93674e-08 0 0 0 0)
(9.88012e-05 -4.94011e-13 0 7.82796e-13 1.93698e-08 0 0 0 0)
(0.00312528 4.88257e-13 0 -1.10464e-12 1.93658e-08 0 0 0 0)
(0.027491 4.53942e-13 0 -4.73535e-12 1.93576e-08 0 0 0 0)
(0.100146 -9.57117e-13 0 -5.12464e-11 1.92124e-08 0 0 0 0)
(0.20483 3.32514e-13 0 -1.72888e-10 1.86341e-08 0 0 0 0)
(0.291991 -1.22685e-12 0 -3.45409e-10 1.72725e-08 0 0 0 0)
(0.34318 -3.79607e-13 0 -4.9202e-10 1.50794e-08 0 0 0 0)
(0.369726 -2.93337e-12 0 -5.6688e-10 1.23078e-08 0 0 0 0)
(0.383289 -3.45756e-12 0 -5.57849e-10 9.35687e-09 0 0 0 0)
(0.38897 -8.77938e-13 0 -4.82285e-10 6.62739e-09 0 0 0 0)
(0.387984 -1.15431e-12 0 -3.73815e-10 4.36421e-09 0 0 0 0)
(0.379527 -2.18585e-13 0 -2.60267e-10 2.67795e-09 0 0 0 0)
(0.359785 -5.78225e-13 0 -1.63492e-10 1.539e-09 0 0 0 0)
(0.324733 -8.8832e-13 0 -9.33144e-11 8.47057e-10 0 0 0 0)
(0.273811 -3.69413e-14 0 -5.37163e-11 4.56983e-10 0 0 0 0)
(0.437258 8.91659e-15 0 -4.0489e-11 2.10151e-10 0 0 0 0)
(2.49574 -7.60161e-13 0 -1.54941e-11 7.69297e-11 0 0 0 0)
(2.18073 -7.90273e-13 0 -3.65512e-12 -1.51523e-13 0 0 0 0)
(2.36566 0.894799 0 -0.548422 0.36046 0 0 0 0)
(2.85103 1.02588 0 -0.772964 -0.179708 0 0 0 0)
(0.732216 -0.139071 0 -0.619719 -0.169793 0 0 0 0)
(0.314948 -0.474444 0 -0.387199 -0.0761583 0 0 0 0)
(0.147221 -0.299385 0 -0.217412 0.0351875 0 0 0 0)
(0.170726 -0.151172 0 -0.109853 0.05358 0 0 0 0)
(0.217641 -0.0785094 0 -0.0655339 0.0461027 0 0 0 0)
(0.275832 -0.0383477 0 -0.0364862 0.0293697 0 0 0 0)
(0.314895 -0.0244167 0 -0.020345 0.018954 0 0 0 0)
(0.335552 -0.0139941 0 -0.0125263 0.0117131 0 0 0 0)
(0.33742 -0.00937357 0 -0.00871802 0.00701849 0 0 0 0)
(0.319735 -0.0067728 0 -0.0065216 0.00375333 0 0 0 0)
(0.274343 -0.00484877 0 -0.00472681 0.00159506 0 0 0 0)
(0.192466 -0.00298575 0 -0.00282008 0.000434437 0 0 0 0)
(0.0935102 -0.00133813 0 -0.0010724 6.03427e-05 0 0 0 0)
(0.0253616 -0.000345273 0 -0.000181025 1.88427e-05 0 0 0 0)
(0.00282905 -3.52656e-05 0 -8.21206e-06 9.62258e-06 0 0 0 0)
(8.71383e-05 -1.06703e-06 0 -6.59764e-08 8.96074e-06 0 0 0 0)
(4.96883e-07 -8.14234e-09 0 -6.47642e-11 8.95585e-06 0 0 0 0)
(3.68258e-10 -6.46805e-12 0 -1.69855e-14 8.95585e-06 0 0 0 0)
(4.45251e-10 -4.86149e-14 0 1.4856e-14 8.95585e-06 0 0 0 0)
(5.79961e-07 -1.11214e-12 0 -9.94594e-14 8.95585e-06 0 0 0 0)
(9.88012e-05 -2.34932e-14 0 7.89767e-14 8.95585e-06 0 0 0 0)
(0.00312528 -1.3222e-11 0 -1.15185e-10 8.95571e-06 0 0 0 0)
(0.027491 -1.48014e-10 0 -3.05918e-09 8.95075e-06 0 0 0 0)
(0.100146 -6.95644e-10 0 -2.36362e-08 8.90105e-06 0 0 0 0)
(0.20483 -1.87082e-09 0 -7.89647e-08 8.69757e-06 0 0 0 0)
(0.291991 -3.4236e-09 0 -1.57784e-07 8.22384e-06 0 0 0 0)
(0.34318 -4.78682e-09 0 -2.31858e-07 7.44419e-06 0 0 0 0)
(0.369726 -5.51041e-09 0 -2.80655e-07 6.4177e-06 0 0 0 0)
(0.383289 -5.46943e-09 0 -2.9648e-07 5.25824e-06 0 0 0 0)
(0.38897 -4.80961e-09 0 -2.81639e-07 4.09021e-06 0 0 0 0)
(0.387984 -3.80371e-09 0 -2.44248e-07 3.0179e-06 0 0 0 0)
(0.379527 -2.72332e-09 0 -1.94677e-07 2.11288e-06 0 0 0 0)
(0.359785 -1.76279e-09 0 -1.41994e-07 1.40836e-06 0 0 0 0)
(0.324733 -1.04052e-09 0 -9.4845e-08 9.12166e-07 0 0 0 0)
(0.273811 -6.1406e-10 0 -6.48466e-08 5.8339e-07 0 0 0 0)
(0.437258 -3.66831e-10 0 -5.94316e-08 3.17921e-07 0 0 0 0)
(2.49574 -2.02067e-10 0 -3.04839e-08 1.38397e-07 0 0 0 0)
(2.18073 -7.35148e-11 0 -1.44116e-09 5.70185e-09 0 0 0 0)
(2.25842 0.537092 0 -0.0428975 0.285343 0 0 0 0)
(2.72712 0.686099 0 -0.188075 -0.273975 0 0 0 0)
(0.731155 -0.0578844 0 -0.242493 -0.276973 0 0 0 0)
(0.381531 -0.342881 0 -0.256845 -0.155354 0 0 0 0)
(0.230046 -0.209734 0 -0.177105 -0.0264417 0 0 0 0)
(0.228716 -0.121997 0 -0.126733 0.00898103 0 0 0 0)
(0.258758 -0.0778332 0 -0.0763633 0.0235382 0 0 0 0)
(0.300079 -0.0482407 0 -0.0459591 0.0161401 0 0 0 0)
(0.328636 -0.0302103 0 -0.0271393 0.0125851 0 0 0 0)
(0.342237 -0.0191884 0 -0.0171808 0.0079796 0 0 0 0)
(0.340958 -0.012984 0 -0.0118259 0.0044396 0 0 0 0)
(0.322155 -0.00909049 0 -0.00847338 0.0021207 0 0 0 0)
(0.276547 -0.00610851 0 -0.0058235 0.00103447 0 0 0 0)
(0.19452 -0.00346597 0 -0.00334065 0.000748639 0 0 0 0)
(0.0949125 -0.00139145 0 -0.00124015 0.000704112 0 0 0 0)
(0.0259072 -0.000330065 0 -0.000197287 0.00065132 0 0 0 0)
(0.0029231 -4.22833e-05 0 -8.67393e-06 0.00063957 0 0 0 0)
(9.14862e-05 -1.61921e-06 0 -6.65837e-08 0.000639202 0 0 0 0)
(5.30396e-07 -9.64549e-09 0 -6.58649e-11 0.000639203 0 0 0 0)
(4.02071e-10 -7.27898e-12 0 1.12324e-13 0.000639203 0 0 0 0)
(4.45267e-10 -4.13558e-15 0 3.31766e-13 0.000639203 0 0 0 0)
(5.79962e-07 1.39635e-12 0 -3.98744e-13 0.000639203 0 0 0 0)
(9.88011e-05 -1.34638e-10 0 -6.35103e-11 0.000639202 0 0 0 0)
(0.00312527 -4.91465e-09 0 -9.06182e-09 0.000639194 0 0 0 0)
(0.027491 -5.26742e-08 0 -2.32663e-07 0.000638917 0 0 0 0)
(0.100146 -2.43977e-07 0 -1.71691e-06 0.000636252 0 0 0 0)
(0.20483 -6.52583e-07 0 -5.56551e-06 0.000625676 0 0 0 0)
(0.291991 -1.2078e-06 0 -1.10582e-05 0.000601376 0 0 0 0)
(0.34318 -1.74047e-06 0 -1.65535e-05 0.00056106 0 0 0 0)
(0.369726 -2.10647e-06 0 -2.08437e-05 0.000506408 0 0 0 0)
(0.383289 -2.24285e-06 0 -2.33413e-05 0.000441561 0 0 0 0)
(0.38897 -2.15888e-06 0 -2.39282e-05 0.000371628 0 0 0 0)
(0.387984 -1.90543e-06 0 -2.27852e-05 0.000301623 0 0 0 0)
(0.379527 -1.551e-06 0 -2.02911e-05 0.000236089 0 0 0 0)
(0.359785 -1.15705e-06 0 -1.67694e-05 0.000178523 0 0 0 0)
(0.324733 -7.94976e-07 0 -1.28057e-05 0.000132551 0 0 0 0)
(0.273811 -5.72636e-07 0 -1.00626e-05 9.785e-05 0 0 0 0)
(0.437258 -4.28812e-07 0 -1.10899e-05 6.24609e-05 0 0 0 0)
(2.49574 -3.00867e-07 0 -7.4536e-06 3.1807e-05 0 0 0 0)
(2.18073 -1.27871e-07 0 -4.66306e-07 2.67073e-06 0 0 0 0)
(2.22576 0.355819 0 0.00589573 0.185341 0 0 0 0)
(2.65869 0.484016 0 -0.0391045 -0.172724 0 0 0 0)
(0.665947 -0.0247637 0 -0.11099 -0.227226 0 0 0 0)
(0.377958 -0.233023 0 -0.176737 -0.123194 0 0 0 0)
(0.272601 -0.141025 0 -0.141895 -0.0278184 0 0 0 0)
(0.267803 -0.10301 0 -0.111455 -0.00530783 0 0 0 0)
(0.295478 -0.0716107 0 -0.0729356 0.00631732 0 0 0 0)
(0.323266 -0.0489026 0 -0.0470443 0.00945482 0 0 0 0)
(0.342627 -0.0322805 0 -0.0305625 0.0105042 0 0 0 0)
(0.350309 -0.0218433 0 -0.0205518 0.0100923 0 0 0 0)
(0.345811 -0.0150194 0 -0.0143097 0.00956316 0 0 0 0)
(0.325519 -0.0100541 0 -0.00986537 0.00940952 0 0 0 0)
(0.279289 -0.00617094 0 -0.00628444 0.00966361 0 0 0 0)
(0.196883 -0.0033041 0 -0.00331547 0.0100329 0 0 0 0)
(0.0965393 -0.00143191 0 -0.00113455 0.0102142 0 0 0 0)
(0.0265483 -0.000407468 0 -0.000164808 0.0102648 0 0 0 0)
(0.0030191 -4.69428e-05 0 -6.7345e-06 0.0102837 0 0 0 0)
(9.54968e-05 -1.42121e-06 0 -5.06775e-08 0.0102847 0 0 0 0)
(5.61045e-07 -7.66812e-09 0 -4.92567e-11 0.0102848 0 0 0 0)
(4.32047e-10 -5.50027e-12 0 -8.11927e-14 0.0102848 0 0 0 0)
(4.44759e-10 -4.36067e-14 0 1.66126e-13 0.0102848 0 0 0 0)
(5.79899e-07 -4.20052e-11 0 -1.53289e-12 0.0102848 0 0 0 0)
(9.87925e-05 -7.75931e-09 0 -1.28161e-09 0.0102848 0 0 0 0)
(0.00312505 -2.74832e-07 0 -1.69094e-07 0.0102846 0 0 0 0)
(0.0274894 -2.8355e-06 0 -4.14351e-06 0.0102811 0 0 0 0)
(0.100141 -1.27609e-05 0 -2.89873e-05 0.010249 0 0 0 0)
(0.204821 -3.36094e-05 0 -8.99941e-05 0.0101276 0 0 0 0)
(0.29198 -6.22695e-05 0 -0.000175279 0.009857 0 0 0 0)
(0.34317 -9.15202e-05 0 -0.000263523 0.00941145 0 0 0 0)
(0.36972 -0.000115159 0 -0.000340016 0.00879926 0 0 0 0)
(0.383286 -0.000129884 0 -0.000396744 0.00804918 0 0 0 0)
(0.38897 -0.000134854 0 -0.000430213 0.00719979 0 0 0 0)
(0.387987 -0.000130615 0 -0.000439574 0.00629251 0 0 0 0)
(0.379533 -0.000118627 0 -0.000426139 0.00537301 0 0 0 0)
(0.359792 -9.97747e-05 0 -0.000387486 0.00448532 0 0 0 0)
(0.32474 -7.77403e-05 0 -0.000326832 0.00370699 0 0 0 0)
(0.273812 -6.75416e-05 0 -0.000282735 0.00306037 0 0 0 0)
(0.43726 -6.36418e-05 0 -0.00037449 0.00224666 0 0 0 0)
(2.49575 -5.76162e-05 0 -0.000315926 0.00130681 0 0 0 0)
(2.18074 -2.80768e-05 0 -2.86057e-05 0.000229974 0 0 0 0)
(2.21506 0.192047 0 0.015612 0.183821 0 0 0 0)
(2.61449 0.288533 0 0.0167188 -0.099802 0 0 0 0)
(0.598528 -0.0101562 0 -0.0466476 -0.15483 0 0 0 0)
(0.351749 -0.150724 0 -0.113295 -0.0681002 0 0 0 0)
(0.292954 -0.0961341 0 -0.108763 -0.0123071 0 0 0 0)
(0.295167 -0.0891021 0 -0.0863407 0.00744565 0 0 0 0)
(0.320826 -0.0636074 0 -0.0617309 0.0218417 0 0 0 0)
(0.340912 -0.0442061 0 -0.0416117 0.0319697 0 0 0 0)
(0.354165 -0.029596 0 -0.0277031 0.0385878 0 0 0 0)
(0.357899 -0.0200952 0 -0.0185438 0.0434887 0 0 0 0)
(0.351256 -0.0136419 0 -0.0124572 0.0475435 0 0 0 0)
(0.329889 -0.00899369 0 -0.00810994 0.0508653 0 0 0 0)
(0.282859 -0.00550783 0 -0.00469757 0.0532727 0 0 0 0)
(0.199482 -0.00293542 0 -0.00210943 0.0548743 0 0 0 0)
(0.0979486 -0.00116798 0 -0.000592287 0.0558664 0 0 0 0)
(0.026994 -0.000263104 0 -7.73384e-05 0.0562688 0 0 0 0)
(0.00308186 -2.30391e-05 0 -2.84345e-06 0.0563243 0 0 0 0)
(9.79758e-05 -5.73555e-07 0 -1.92851e-08 0.0563262 0 0 0 0)
(5.7923e-07 -2.76806e-09 0 -1.70189e-11 0.0563262 0 0 0 0)
(4.49697e-10 -2.61283e-12 0 -4.66498e-13 0.0563262 0 0 0 0)
(4.43868e-10 -5.78293e-13 0 -5.28453e-13 0.0563262 0 0 0 0)
(5.78727e-07 -5.93833e-10 0 -8.89481e-12 0.0563262 0 0 0 0)
(9.86382e-05 -1.04205e-07 0 -8.77872e-09 0.0563262 0 0 0 0)
(0.00312128 -3.51188e-06 0 -1.12863e-06 0.0563257 0 0 0 0)
(0.0274632 -3.44238e-05 0 -2.64843e-05 0.0563099 0 0 0 0)
(0.100064 -0.000148208 0 -0.000175345 0.0561746 0 0 0 0)
(0.204689 -0.000378377 0 -0.000516195 0.0556956 0 0 0 0)
(0.291824 -0.000691286 0 -0.000970717 0.0546807 0 0 0 0)
(0.343021 -0.00102101 0 -0.00144164 0.0530539 0 0 0 0)
(0.369598 -0.00131484 0 -0.00187297 0.0508316 0 0 0 0)
(0.383202 -0.00154356 0 -0.00223356 0.0480766 0 0 0 0)
(0.388928 -0.00169495 0 -0.00250595 0.0448727 0 0 0 0)
(0.387988 -0.00176225 0 -0.00267963 0.0413089 0 0 0 0)
(0.379578 -0.00174303 0 -0.00274979 0.0375023 0 0 0 0)
(0.35988 -0.00160659 0 -0.00266801 0.033579 0 0 0 0)
(0.324834 -0.00137392 0 -0.00239249 0.0299334 0 0 0 0)
(0.273765 -0.0014078 0 -0.0021401 0.0267474 0 0 0 0)
(0.437226 -0.00169022 0 -0.0034416 0.0220131 0 0 0 0)
(2.49608 -0.00194366 0 -0.00346386 0.0142123 0 0 0 0)
(2.18101 -0.00103781 0 -0.000484868 0.00491721 0 0 0 0)