/*--------------------------------*- C++ -*----------------------------------*\
| =========                 |                                                 |
| \\      /  F ield         | OpenFOAM: The Open Source CFD Toolbox           |
|  \\    /   O peration     | Version:  v1912                                 |
|   \\  /    A nd           | Website:  www.openfoam.com                      |
|    \\/     M anipulation  |                                                 |
\*---------------------------------------------------------------------------*/
FoamFile
{
    version     2.0;
    format      ascii;
    class       volScalarField;
    location    "9.14";
    object      Ma;
}
// * * * * * * * * * * * * * * * * * * * * * * * * * * * * * * * * * * * * * //

dimensions      [0 0 0 0 0 0 0];


internalField   nonuniform List<scalar> 
1900
(
1.58348
0.186912
0.108764
0.125074
0.132014
0.133429
0.128741
0.122496
0.114415
0.0983434
1.58352
0.186916
0.108761
0.125067
0.131988
0.133357
0.128588
0.122032
0.11462
0.113081
1.58355
0.186918
0.108758
0.125058
0.13196
0.133296
0.128473
0.122184
0.116511
0.120477
1.58352
0.186916
0.108761
0.125067
0.131988
0.133357
0.128588
0.122032
0.11462
0.113081
1.58348
0.186912
0.108764
0.125074
0.132014
0.133429
0.128741
0.122496
0.114415
0.0983434
0.107646
0.149698
0.203889
0.290286
0.438569
0.129097
0.153822
0.18548
0.251697
0.397014
0.136604
0.160092
0.191749
0.255484
0.394109
0.129097
0.153822
0.18548
0.251697
0.397014
0.107646
0.149698
0.203889
0.290286
0.438569
0.954053
1.34352
1.60947
1.78351
1.96656
0.910257
1.34307
1.63114
1.80427
1.98907
0.905415
1.35205
1.63183
1.79914
1.98463
0.910257
1.34307
1.63114
1.80427
1.98907
0.954053
1.34352
1.60947
1.78351
1.96656
2.04046
2.11423
2.1282
2.1721
2.19713
2.23163
2.27579
2.32889
2.3881
2.4474
2.48983
2.52782
2.60247
2.64652
2.61234
2.41699
1.98427
1.7628
1.72638
1.71594
1.7151
1.69355
1.63986
1.57075
1.49381
1.43609
1.41851
0.8795
0.446289
0.155382
0.386955
0.58589
0.607084
0.611638
0.620424
0.632513
0.644566
0.653106
0.657361
0.658032
2.03239
1.98982
1.95594
2.02149
2.05734
2.10338
2.15993
2.22382
2.29292
2.36284
2.4106
2.4561
2.53553
2.59115
2.56528
2.36185
1.9314
1.72564
1.69528
1.69526
1.70224
1.68687
1.64231
1.58182
1.51327
1.4504
1.41884
0.869651
0.444727
0.157146
0.383615
0.584058
0.605532
0.610694
0.62066
0.634118
0.647009
0.655799
0.66001
0.66053
2.03217
1.99368
1.92037
1.97376
2.00836
2.05864
2.12022
2.18825
2.26058
2.33321
2.38244
2.43054
2.51156
2.5719
2.54771
2.34288
1.9127
1.71264
1.68564
1.68907
1.69841
1.6853
1.63845
1.57555
1.50615
1.44366
1.41809
0.874
0.450226
0.159906
0.382648
0.583402
0.604755
0.609712
0.619376
0.632618
0.645507
0.654511
0.659052
0.660013
2.03239
1.98982
1.95594
2.02149
2.05734
2.10338
2.15993
2.22382
2.29292
2.36284
2.4106
2.4561
2.53553
2.59115
2.56528
2.36185
1.9314
1.72564
1.69528
1.69526
1.70224
1.68687
1.64231
1.58182
1.51327
1.4504
1.41884
0.869651
0.444727
0.157146
0.383615
0.584058
0.605532
0.610694
0.62066
0.634118
0.647009
0.655799
0.66001
0.66053
2.04046
2.11423
2.1282
2.1721
2.19713
2.23163
2.27579
2.32889
2.3881
2.4474
2.48983
2.52782
2.60247
2.64652
2.61234
2.41699
1.98427
1.7628
1.72638
1.71594
1.7151
1.69355
1.63986
1.57075
1.49381
1.43609
1.41851
0.8795
0.446289
0.155382
0.386955
0.58589
0.607084
0.611638
0.620424
0.632513
0.644566
0.653106
0.657361
0.658032
2.49739
2.53333
2.55561
2.55741
2.56912
2.57407
2.58226
2.59685
2.61974
2.6471
2.67196
2.69721
2.75401
2.78637
2.7391
2.56577
2.11936
1.86163
1.80353
1.77111
1.74991
1.71143
1.64585
1.56922
1.49422
1.43708
1.42069
0.893535
0.465827
0.165927
0.394327
0.586996
0.607693
0.611982
0.61967
0.629786
0.640031
0.64764
0.651953
0.652985
3.05318
3.05152
3.0546
3.05765
3.04971
3.0322
3.01031
2.98231
2.96193
2.95107
2.93656
2.93471
2.96097
2.98367
2.91975
2.76148
2.29629
1.99686
1.90146
1.84254
1.79854
1.72965
1.63705
1.55046
1.48023
1.43518
1.40878
0.865746
0.450691
0.154937
0.421159
0.588565
0.608137
0.612493
0.619595
0.628262
0.637195
0.644245
0.649116
0.651346
3.2095
3.21532
3.21185
3.19313
3.17575
3.16086
3.14544
3.12889
3.11438
3.09863
3.07322
3.05567
3.05651
3.05798
3.00164
2.84101
2.34949
2.04209
1.93236
1.86426
1.81379
1.74502
1.64956
1.56349
1.48875
1.43252
1.37187
0.82216
0.429166
0.142127
0.453891
0.588462
0.606793
0.612486
0.620444
0.629057
0.637024
0.642917
0.647602
0.650361
3.20359
3.20553
3.21623
3.21419
3.19662
3.18086
3.16703
3.15763
3.15093
3.14172
3.12972
3.12657
3.11638
3.05707
2.98135
2.7769
2.3225
2.0762
1.96155
1.88407
1.81379
1.71336
1.60652
1.52187
1.45335
1.40839
1.30477
0.773391
0.391702
0.109124
0.484184
0.585245
0.602634
0.610314
0.62129
0.632681
0.64125
0.646195
0.649806
0.652153
3.13389
3.13512
3.13959
3.14529
3.15139
3.15331
3.14479
3.14817
3.1508
3.13856
3.13555
3.14316
3.07651
2.98665
2.90574
2.66766
2.27575
2.09715
1.97701
1.88098
1.78051
1.65676
1.55375
1.47702
1.41508
1.37321
1.20595
0.645113
0.278272
0.0896255
0.481575
0.552854
0.573126
0.591143
0.608346
0.623818
0.635957
0.643413
0.646906
0.648989
3.04039
3.04061
3.03897
3.04301
3.05355
3.06192
3.06714
3.0701
3.07304
3.07018
3.08809
3.08599
3.00547
2.91978
2.79679
2.52791
2.23666
2.09254
1.9641
1.85307
1.72847
1.59631
1.49289
1.41904
1.35264
1.30046
0.918482
0.428208
0.126251
0.225085
0.482474
0.502884
0.513355
0.534646
0.564419
0.598496
0.624293
0.640939
0.650101
0.653464
2.93636
2.93621
2.93404
2.93617
2.9431
2.94949
2.95815
2.96565
2.96811
2.97465
3.00844
2.99563
2.90531
2.81454
2.67035
2.405
2.18577
2.05063
1.91899
1.79849
1.64073
1.51124
1.39847
1.31686
1.21024
1.08202
0.600855
0.272757
0.176092
0.366896
0.47855
0.47102
0.466808
0.473023
0.495521
0.533945
0.57934
0.619495
0.643046
0.65375
2.83175
2.83129
2.8294
2.83019
2.83355
2.83779
2.84623
2.85659
2.85905
2.86453
2.88431
2.84629
2.74438
2.66254
2.48752
2.27399
2.11485
1.98204
1.84138
1.67074
1.49391
1.33935
1.20327
1.05902
0.957027
0.822745
0.48561
0.251016
0.220514
0.429704
0.455633
0.44116
0.430526
0.425323
0.436697
0.462648
0.509858
0.570641
0.620641
0.654595
2.7087
2.70811
2.70746
2.70847
2.71047
2.71504
2.72359
2.73262
2.73703
2.74711
2.75164
2.68539
2.60009
2.47004
2.29082
2.13692
1.99672
1.82332
1.62928
1.39383
1.17798
1.02032
0.905806
0.844923
0.811082
0.683612
0.437543
0.220324
0.288511
0.445158
0.42637
0.404096
0.389714
0.38004
0.380438
0.403183
0.437401
0.501983
0.572317
0.636098
2.5552
2.55524
2.55698
2.56157
2.56993
2.58144
2.59298
2.59696
2.59415
2.58623
2.55127
2.46807
2.36605
2.24588
2.09333
1.9022
1.68964
1.43928
1.14947
0.956129
0.848866
0.785787
0.750407
0.739817
0.741952
0.617417
0.349494
0.21843
0.366751
0.424083
0.393475
0.368904
0.346998
0.335869
0.326926
0.351147
0.37824
0.441038
0.510982
0.586331
2.37036
2.37197
2.37913
2.38977
2.40197
2.41303
2.41122
2.39163
2.34831
2.28552
2.19681
2.07566
1.94616
1.79972
1.62066
1.36497
1.08607
0.870089
0.751788
0.707018
0.688629
0.67404
0.68368
0.686787
0.66113
0.520935
0.282029
0.285948
0.400529
0.392307
0.357165
0.329007
0.298696
0.284514
0.270175
0.293603
0.326481
0.387405
0.446201
0.509561
2.15901
2.16152
2.16905
2.16955
2.13272
2.07229
2.00771
1.92726
1.85681
1.74124
1.6229
1.49624
1.33593
1.13835
0.945857
0.764682
0.653259
0.614134
0.602225
0.599479
0.607562
0.612714
0.616587
0.604532
0.569885
0.435885
0.310785
0.372694
0.397787
0.366463
0.326569
0.296113
0.258034
0.23464
0.211385
0.231297
0.274405
0.33275
0.380839
0.429535
1.85557
1.85596
1.81181
1.73579
1.6367
1.52921
1.41812
1.30136
1.20254
1.11316
1.01663
0.901419
0.773038
0.643609
0.560782
0.520181
0.504875
0.504492
0.515438
0.53217
0.539961
0.536748
0.530341
0.529286
0.496606
0.405328
0.397727
0.415401
0.38768
0.349059
0.301274
0.25997
0.212206
0.179622
0.149594
0.167528
0.214018
0.271896
0.314125
0.350395
1.44593
1.38893
1.28272
1.15805
1.05425
0.970401
0.891736
0.802715
0.706188
0.610891
0.526363
0.468827
0.443577
0.425754
0.414133
0.413541
0.423039
0.439071
0.453109
0.460658
0.461816
0.461754
0.460895
0.455703
0.445694
0.475447
0.464651
0.425038
0.377801
0.33695
0.290012
0.241254
0.186144
0.137468
0.0877196
0.103849
0.166675
0.234329
0.273977
0.298908
0.956866
0.885773
0.802787
0.72026
0.637926
0.5584
0.488062
0.428042
0.379212
0.349253
0.335914
0.336752
0.340858
0.340979
0.344305
0.355453
0.367833
0.376541
0.382373
0.386771
0.392156
0.391021
0.391078
0.425641
0.495959
0.540817
0.505941
0.443089
0.389346
0.33915
0.285591
0.228629
0.16677
0.100131
0.0297017
0.0564862
0.141175
0.212916
0.25409
0.269501
0.660284
0.63601
0.602907
0.553982
0.501369
0.458242
0.425617
0.397349
0.368878
0.343668
0.322049
0.303221
0.296683
0.297799
0.301179
0.305819
0.309519
0.312489
0.316528
0.318191
0.320308
0.33492
0.396256
0.497593
0.551948
0.567756
0.54287
0.477831
0.413981
0.363262
0.312693
0.254964
0.191459
0.127298
0.077848
0.0829883
0.160694
0.235939
0.279068
0.286768
0.663965
0.652998
0.623068
0.58778
0.554813
0.519889
0.487296
0.454394
0.417345
0.378148
0.339035
0.301976
0.278564
0.267174
0.260779
0.25096
0.245338
0.244704
0.248046
0.258555
0.298087
0.391088
0.496114
0.55335
0.578972
0.588288
0.576423
0.526617
0.458053
0.395274
0.343708
0.296096
0.237584
0.187791
0.155404
0.165399
0.214969
0.280268
0.326354
0.329016
0.700271
0.69426
0.681305
0.65569
0.622873
0.589153
0.555375
0.521491
0.486415
0.446292
0.401242
0.352095
0.306474
0.260938
0.219413
0.185508
0.170732
0.17777
0.217337
0.299165
0.413634
0.505595
0.551426
0.577554
0.588311
0.600084
0.598171
0.574286
0.521124
0.45796
0.406274
0.354559
0.294505
0.25195
0.221171
0.238107
0.280753
0.337462
0.384531
0.388467
0.724246
0.724337
0.711603
0.692323
0.668785
0.642724
0.613299
0.58338
0.549909
0.512128
0.469106
0.416826
0.357095
0.289719
0.207983
0.109536
0.0874126
0.191311
0.323425
0.441984
0.515401
0.5517
0.571845
0.584517
0.592459
0.606097
0.612716
0.610154
0.580416
0.526964
0.468303
0.404024
0.337649
0.291611
0.260713
0.279008
0.322988
0.381171
0.439139
0.457522
0.695928
0.699621
0.684835
0.6724
0.667726
0.661429
0.662119
0.65905
0.652506
0.63887
0.615176
0.570769
0.495213
0.373189
0.20542
0.0335036
0.195435
0.365781
0.475583
0.529134
0.555629
0.570321
0.579859
0.59063
0.598019
0.610973
0.620794
0.629695
0.62723
0.598369
0.533742
0.454895
0.375763
0.3191
0.277636
0.288383
0.325158
0.383293
0.453759
0.504849
0.695928
0.699621
0.684835
0.6724
0.667726
0.661429
0.662119
0.65905
0.652506
0.63887
0.615176
0.570769
0.495213
0.373189
0.20542
0.0335036
0.195435
0.365781
0.475583
0.529134
0.555629
0.570321
0.579859
0.59063
0.598019
0.610973
0.620794
0.629695
0.62723
0.598369
0.533742
0.454895
0.375763
0.3191
0.277636
0.288383
0.325158
0.383293
0.453759
0.504849
0.724246
0.724337
0.711603
0.692323
0.668785
0.642724
0.613299
0.58338
0.549909
0.512128
0.469106
0.416826
0.357095
0.289719
0.207983
0.109536
0.0874126
0.191311
0.323425
0.441984
0.515401
0.5517
0.571845
0.584517
0.592459
0.606097
0.612716
0.610154
0.580416
0.526964
0.468303
0.404024
0.337649
0.291611
0.260713
0.279008
0.322988
0.381171
0.439139
0.457522
0.700271
0.69426
0.681305
0.65569
0.622873
0.589153
0.555375
0.521491
0.486415
0.446292
0.401242
0.352095
0.306474
0.260938
0.219413
0.185508
0.170732
0.17777
0.217337
0.299165
0.413634
0.505595
0.551426
0.577554
0.588311
0.600084
0.598171
0.574286
0.521124
0.45796
0.406274
0.354559
0.294505
0.25195
0.221171
0.238107
0.280753
0.337462
0.384531
0.388467
0.663965
0.652998
0.623068
0.58778
0.554813
0.519889
0.487296
0.454394
0.417345
0.378148
0.339035
0.301976
0.278564
0.267174
0.260779
0.25096
0.245338
0.244704
0.248046
0.258555
0.298087
0.391088
0.496114
0.55335
0.578972
0.588288
0.576423
0.526617
0.458053
0.395274
0.343708
0.296096
0.237584
0.187791
0.155404
0.165399
0.214969
0.280268
0.326354
0.329016
0.660284
0.63601
0.602907
0.553982
0.501369
0.458242
0.425617
0.397349
0.368878
0.343668
0.322049
0.303221
0.296683
0.297799
0.301179
0.305819
0.309519
0.312489
0.316528
0.318191
0.320308
0.33492
0.396256
0.497593
0.551948
0.567756
0.54287
0.477831
0.413981
0.363262
0.312693
0.254964
0.191459
0.127298
0.077848
0.0829883
0.160694
0.235939
0.279068
0.286768
0.956866
0.885773
0.802787
0.72026
0.637926
0.5584
0.488062
0.428042
0.379212
0.349253
0.335914
0.336752
0.340858
0.340979
0.344305
0.355453
0.367833
0.376541
0.382373
0.386771
0.392156
0.391021
0.391078
0.425641
0.495959
0.540817
0.505941
0.443089
0.389346
0.33915
0.285591
0.228629
0.16677
0.100131
0.0297017
0.0564862
0.141175
0.212916
0.25409
0.269501
1.44593
1.38893
1.28272
1.15805
1.05425
0.970401
0.891736
0.802715
0.706188
0.610891
0.526363
0.468827
0.443577
0.425754
0.414133
0.413541
0.423039
0.439071
0.453109
0.460658
0.461816
0.461754
0.460895
0.455703
0.445694
0.475447
0.464651
0.425038
0.377801
0.33695
0.290012
0.241254
0.186144
0.137468
0.0877196
0.103849
0.166675
0.234329
0.273977
0.298908
1.85557
1.85596
1.81181
1.73579
1.6367
1.52921
1.41812
1.30136
1.20254
1.11316
1.01663
0.901419
0.773038
0.643609
0.560782
0.520181
0.504875
0.504492
0.515438
0.53217
0.539961
0.536748
0.530341
0.529286
0.496606
0.405328
0.397727
0.415401
0.38768
0.349059
0.301274
0.25997
0.212206
0.179622
0.149594
0.167528
0.214018
0.271896
0.314125
0.350395
2.15901
2.16152
2.16905
2.16955
2.13272
2.07229
2.00771
1.92726
1.85681
1.74124
1.6229
1.49624
1.33593
1.13835
0.945857
0.764682
0.653259
0.614134
0.602225
0.599479
0.607562
0.612714
0.616587
0.604532
0.569885
0.435885
0.310785
0.372694
0.397787
0.366463
0.326569
0.296113
0.258034
0.23464
0.211385
0.231297
0.274405
0.33275
0.380839
0.429535
2.37036
2.37197
2.37913
2.38977
2.40197
2.41303
2.41122
2.39163
2.34831
2.28552
2.19681
2.07566
1.94616
1.79972
1.62066
1.36497
1.08607
0.870089
0.751788
0.707018
0.688629
0.67404
0.68368
0.686787
0.66113
0.520935
0.282029
0.285948
0.400529
0.392307
0.357165
0.329007
0.298696
0.284514
0.270175
0.293603
0.326481
0.387405
0.446201
0.509561
2.5552
2.55524
2.55698
2.56157
2.56993
2.58144
2.59298
2.59696
2.59415
2.58623
2.55127
2.46807
2.36605
2.24588
2.09333
1.9022
1.68964
1.43928
1.14947
0.956129
0.848866
0.785787
0.750407
0.739817
0.741952
0.617417
0.349494
0.21843
0.366751
0.424083
0.393475
0.368904
0.346998
0.335869
0.326926
0.351147
0.37824
0.441038
0.510982
0.586331
2.7087
2.70811
2.70746
2.70847
2.71047
2.71504
2.72359
2.73262
2.73703
2.74711
2.75164
2.68539
2.60009
2.47004
2.29082
2.13692
1.99672
1.82332
1.62928
1.39383
1.17798
1.02032
0.905806
0.844923
0.811082
0.683612
0.437543
0.220324
0.288511
0.445158
0.42637
0.404096
0.389714
0.38004
0.380438
0.403183
0.437401
0.501983
0.572317
0.636098
2.83175
2.83129
2.8294
2.83019
2.83355
2.83779
2.84623
2.85659
2.85905
2.86453
2.88431
2.84629
2.74438
2.66254
2.48752
2.27399
2.11485
1.98204
1.84138
1.67074
1.49391
1.33935
1.20327
1.05902
0.957027
0.822745
0.48561
0.251016
0.220514
0.429704
0.455633
0.44116
0.430526
0.425323
0.436697
0.462648
0.509858
0.570641
0.620641
0.654595
2.93636
2.93621
2.93404
2.93617
2.9431
2.94949
2.95815
2.96565
2.96811
2.97465
3.00844
2.99563
2.90531
2.81454
2.67035
2.405
2.18577
2.05063
1.91899
1.79849
1.64073
1.51124
1.39847
1.31686
1.21024
1.08202
0.600855
0.272757
0.176092
0.366896
0.47855
0.47102
0.466808
0.473023
0.495521
0.533945
0.57934
0.619495
0.643046
0.65375
3.04039
3.04061
3.03897
3.04301
3.05355
3.06192
3.06714
3.0701
3.07304
3.07018
3.08809
3.08599
3.00547
2.91978
2.79679
2.52791
2.23666
2.09254
1.9641
1.85307
1.72847
1.59631
1.49289
1.41904
1.35264
1.30046
0.918482
0.428208
0.126251
0.225085
0.482474
0.502884
0.513355
0.534646
0.564419
0.598496
0.624293
0.640939
0.650101
0.653464
3.13389
3.13512
3.13959
3.14529
3.15139
3.15331
3.14479
3.14817
3.1508
3.13856
3.13555
3.14316
3.07651
2.98665
2.90574
2.66766
2.27575
2.09715
1.97701
1.88098
1.78051
1.65676
1.55375
1.47702
1.41508
1.37321
1.20595
0.645113
0.278272
0.0896255
0.481575
0.552854
0.573126
0.591143
0.608346
0.623818
0.635957
0.643413
0.646906
0.648989
3.20359
3.20553
3.21623
3.21419
3.19662
3.18086
3.16703
3.15763
3.15093
3.14172
3.12972
3.12657
3.11638
3.05707
2.98135
2.7769
2.3225
2.0762
1.96155
1.88407
1.81379
1.71336
1.60652
1.52187
1.45335
1.40839
1.30477
0.773391
0.391702
0.109124
0.484184
0.585245
0.602634
0.610314
0.62129
0.632681
0.64125
0.646195
0.649806
0.652153
3.2095
3.21532
3.21185
3.19313
3.17575
3.16086
3.14544
3.12889
3.11438
3.09863
3.07322
3.05567
3.05651
3.05798
3.00164
2.84101
2.34949
2.04209
1.93236
1.86426
1.81379
1.74502
1.64956
1.56349
1.48875
1.43252
1.37187
0.82216
0.429166
0.142127
0.453891
0.588462
0.606793
0.612486
0.620444
0.629057
0.637024
0.642917
0.647602
0.650361
3.05318
3.05152
3.0546
3.05765
3.04971
3.0322
3.01031
2.98231
2.96193
2.95107
2.93656
2.93471
2.96097
2.98367
2.91975
2.76148
2.29629
1.99686
1.90146
1.84254
1.79854
1.72965
1.63705
1.55046
1.48023
1.43518
1.40878
0.865746
0.450691
0.154937
0.421159
0.588565
0.608137
0.612493
0.619595
0.628262
0.637195
0.644245
0.649116
0.651346
2.49739
2.53333
2.55561
2.55741
2.56912
2.57407
2.58226
2.59685
2.61974
2.6471
2.67196
2.69721
2.75401
2.78637
2.7391
2.56577
2.11936
1.86163
1.80353
1.77111
1.74991
1.71143
1.64585
1.56922
1.49422
1.43708
1.42069
0.893535
0.465827
0.165927
0.394327
0.586996
0.607693
0.611982
0.61967
0.629786
0.640031
0.64764
0.651953
0.652985
)
;

boundaryField
{
    inlet
    {
        type            calculated;
        value           uniform 0;
    }
    outlet
    {
        type            calculated;
        value           nonuniform List<scalar> 
165
(
2.49739
3.05318
3.2095
3.20359
3.13389
3.04039
2.93636
2.83175
2.7087
2.5552
2.37036
2.15901
1.85557
1.44593
0.956866
0.660284
0.663965
0.700271
0.724246
0.695928
0.695928
0.699621
0.684835
0.6724
0.667726
0.661429
0.662119
0.65905
0.652506
0.63887
0.615176
0.570769
0.495213
0.373189
0.20542
0.0335036
0.195435
0.365781
0.475583
0.529134
0.555629
0.570321
0.579859
0.59063
0.598019
0.610973
0.620794
0.629695
0.62723
0.598369
0.533742
0.454895
0.375763
0.3191
0.277636
0.288383
0.325158
0.383293
0.453759
0.504849
0.652985
0.651346
0.650361
0.652153
0.648989
0.653464
0.65375
0.654595
0.636098
0.586331
0.509561
0.429535
0.350395
0.298908
0.269501
0.286768
0.329016
0.388467
0.457522
0.504849
0.658032
0.66053
0.660013
0.66053
0.658032
0.504849
0.457522
0.388467
0.329016
0.286768
0.269501
0.298908
0.350395
0.429535
0.509561
0.586331
0.636098
0.654595
0.65375
0.653464
0.648989
0.652153
0.650361
0.651346
0.652985
0.695928
0.699621
0.684835
0.6724
0.667726
0.661429
0.662119
0.65905
0.652506
0.63887
0.615176
0.570769
0.495213
0.373189
0.20542
0.0335036
0.195435
0.365781
0.475583
0.529134
0.555629
0.570321
0.579859
0.59063
0.598019
0.610973
0.620794
0.629695
0.62723
0.598369
0.533742
0.454895
0.375763
0.3191
0.277636
0.288383
0.325158
0.383293
0.453759
0.504849
0.695928
0.724246
0.700271
0.663965
0.660284
0.956866
1.44593
1.85557
2.15901
2.37036
2.5552
2.7087
2.83175
2.93636
3.04039
3.13389
3.20359
3.2095
3.05318
2.49739
)
;
    }
    obstacle
    {
        type            calculated;
        value           nonuniform List<scalar> 
40
(
1.58348
0.186912
0.108764
0.125074
0.132014
0.133429
0.128741
0.122493
0.114338
0.0975794
1.58348
0.186912
0.108764
0.125074
0.132014
0.133429
0.128741
0.122493
0.114338
0.0975794
0.105029
0.14607
0.200332
0.286723
0.431646
0.105029
0.14607
0.200332
0.286723
0.431646
0.943657
1.3408
1.60786
1.7821
1.96522
0.943657
1.3408
1.60786
1.7821
1.96522
)
;
    }
    empty
    {
        type            empty;
    }
}


// ************************************************************************* //
