/*--------------------------------*- C++ -*----------------------------------*\
| =========                 |                                                 |
| \\      /  F ield         | OpenFOAM: The Open Source CFD Toolbox           |
|  \\    /   O peration     | Version:  v1912                                 |
|   \\  /    A nd           | Website:  www.openfoam.com                      |
|    \\/     M anipulation  |                                                 |
\*---------------------------------------------------------------------------*/
FoamFile
{
    version     2.0;
    format      ascii;
    class       volTensorField;
    location    "6.12";
    object      grad(U);
}
// * * * * * * * * * * * * * * * * * * * * * * * * * * * * * * * * * * * * * //

dimensions      [0 0 -1 0 0 0 0];


internalField   nonuniform List<tensor> 
1900
(
(-4.46969 -1.88171e-05 0 5.61529e-06 -5.79599e-06 0 0 0 0)
(4.57523 -6.89855e-06 0 3.16326e-05 -3.32495e-05 0 0 0 0)
(0.739387 4.20461e-05 0 4.42261e-05 1.27081e-05 0 0 0 0)
(0.0120129 0.000174498 0 0.000113058 0.000105921 0 0 0 0)
(0.041163 -0.000441474 0 0.000202229 0.000344602 0 0 0 0)
(0.0363341 -0.00122749 0 -1.5856e-06 -0.000668451 0 0 0 0)
(0.0305737 0.00226148 0 -0.00168737 -0.00185732 0 0 0 0)
(0.0134202 0.0175278 0 -0.00367036 0.00334173 0 0 0 0)
(-0.0452104 0.0589914 0 0.00679794 0.0279935 0 0 0 0)
(-0.0357409 0.208244 0 0.0557647 0.115553 0 0 0 0)
(-4.46965 -2.02284e-05 0 6.02243e-06 4.18291e-06 0 0 0 0)
(4.57527 2.54027e-05 0 4.75719e-05 1.46342e-05 0 0 0 0)
(0.739469 9.71243e-05 0 6.64139e-05 1.10815e-05 0 0 0 0)
(0.0121709 0.000157396 0 0.000148162 -2.74119e-05 0 0 0 0)
(0.0410484 -0.000332898 0 0.000152977 -0.000163417 0 0 0 0)
(0.0344445 -0.000974435 0 -0.000301231 0.000414062 0 0 0 0)
(0.0269049 0.0017487 0 -0.00243941 0.00106407 0 0 0 0)
(0.0219055 0.012323 0 -0.0041877 -0.00184742 0 0 0 0)
(0.0142247 0.0532198 0 0.00966248 -0.0164637 0 0 0 0)
(0.0862697 0.14328 0 0.0895316 -0.0608389 0 0 0 0)
(-4.46963 -7.70426e-13 0 -4.22839e-14 3.22616e-06 0 0 0 0)
(4.57529 -5.56121e-13 0 -9.57893e-13 3.72306e-05 0 0 0 0)
(0.739488 6.55656e-14 0 -1.25022e-12 -4.75792e-05 0 0 0 0)
(0.0120994 8.96291e-13 0 -8.37953e-13 -0.000157018 0 0 0 0)
(0.0407136 9.90148e-13 0 -1.87974e-13 -0.000362371 0 0 0 0)
(0.0337417 -1.06314e-13 0 6.25178e-13 0.000508777 0 0 0 0)
(0.0266873 -4.62498e-13 0 1.26567e-12 0.0015865 0 0 0 0)
(0.0255221 1.85389e-13 0 9.28213e-13 -0.00298862 0 0 0 0)
(0.0485088 3.02747e-13 0 -2.25107e-13 -0.0230596 0 0 0 0)
(0.141841 -2.22446e-13 0 2.80944e-13 -0.109428 0 0 0 0)
(-4.46965 2.02284e-05 0 -6.02243e-06 4.18291e-06 0 0 0 0)
(4.57527 -2.54027e-05 0 -4.7572e-05 1.46342e-05 0 0 0 0)
(0.739469 -9.71243e-05 0 -6.64139e-05 1.10815e-05 0 0 0 0)
(0.0121709 -0.000157396 0 -0.000148162 -2.74119e-05 0 0 0 0)
(0.0410484 0.000332898 0 -0.000152977 -0.000163417 0 0 0 0)
(0.0344445 0.000974435 0 0.000301231 0.000414062 0 0 0 0)
(0.0269049 -0.0017487 0 0.00243941 0.00106407 0 0 0 0)
(0.0219055 -0.012323 0 0.0041877 -0.00184742 0 0 0 0)
(0.0142247 -0.0532198 0 -0.00966248 -0.0164637 0 0 0 0)
(0.0862697 -0.14328 0 -0.0895316 -0.0608389 0 0 0 0)
(-4.46969 1.88171e-05 0 -5.61529e-06 -5.79599e-06 0 0 0 0)
(4.57523 6.89855e-06 0 -3.16326e-05 -3.32495e-05 0 0 0 0)
(0.739387 -4.20461e-05 0 -4.42261e-05 1.27081e-05 0 0 0 0)
(0.0120129 -0.000174498 0 -0.000113058 0.000105921 0 0 0 0)
(0.041163 0.000441474 0 -0.000202229 0.000344602 0 0 0 0)
(0.0363341 0.00122749 0 1.5856e-06 -0.000668451 0 0 0 0)
(0.0305737 -0.00226148 0 0.00168737 -0.00185732 0 0 0 0)
(0.0134202 -0.0175278 0 0.00367036 0.00334173 0 0 0 0)
(-0.0452104 -0.0589914 0 -0.00679794 0.0279935 0 0 0 0)
(-0.0357409 -0.208244 0 -0.0557647 0.115553 0 0 0 0)
(0.159919 0.409131 -2.00545e-17 0.234422 -0.227983 3.00818e-17 5.75092e-17 7.30578e-17 -5.43579e-33)
(0.503157 0.546555 0 0.287832 -0.446453 0 -1.56861e-16 -4.68996e-17 0)
(0.786374 0.962614 0 0.291943 -0.780064 0 -2.56394e-16 -8.28655e-17 0)
(1.47123 1.56674 0 0.336131 -1.40841 0 0 0 0)
(2.81029 1.78429 2.61957e-16 1.13632 -3.43037 -3.92935e-16 -2.24456e-15 -1.49637e-15 -7.10035e-32)
(0.233204 0.159134 0 0.181361 -0.207075 0 9.98693e-17 3.18612e-17 0)
(0.418334 0.162277 0 0.152156 -0.334938 0 1.56861e-16 4.68996e-17 0)
(0.741 0.408988 0 0.0640855 -0.612271 0 2.56394e-16 8.28655e-17 0)
(1.66051 0.862408 0 -0.0498429 -1.31304 0 0 0 0)
(3.69958 0.565842 0 -0.136006 -3.05322 0 0 0 0)
(0.290531 -4.50573e-13 0 -9.84522e-14 -0.291131 0 0 0 0)
(0.443458 2.63072e-14 0 -8.08396e-14 -0.368298 0 0 0 0)
(0.732103 2.96085e-13 0 2.14582e-14 -0.609775 0 0 0 0)
(1.5722 2.0948e-13 0 -2.87478e-14 -1.33193 0 0 0 0)
(3.47995 1.97311e-14 0 3.72694e-13 -3.59471 0 0 0 0)
(0.233204 -0.159134 0 -0.181361 -0.207075 0 9.98693e-17 -3.18612e-17 0)
(0.418334 -0.162277 0 -0.152156 -0.334938 0 1.56861e-16 -4.68996e-17 0)
(0.741 -0.408988 0 -0.0640855 -0.612271 0 2.56394e-16 -8.28655e-17 0)
(1.66051 -0.862408 0 0.0498429 -1.31304 0 0 0 0)
(3.69958 -0.565842 0 0.136006 -3.05322 0 0 0 0)
(0.159919 -0.409131 2.00545e-17 -0.234422 -0.227983 3.00818e-17 -2.57248e-16 1.3678e-16 -5.43579e-33)
(0.503157 -0.546555 0 -0.287832 -0.446453 0 -1.56861e-16 4.68996e-17 0)
(0.786374 -0.962614 0 -0.291943 -0.780064 0 -2.56394e-16 8.28655e-17 0)
(1.47123 -1.56674 9.17153e-17 -0.336131 -1.40841 1.37573e-16 -9.18162e-16 6.12108e-16 -2.48595e-32)
(2.81029 -1.78429 -2.61957e-16 -1.13632 -3.43037 -3.92935e-16 2.24456e-15 -1.49637e-15 -7.10035e-32)
(4.41151 -0.77047 -1.80232e-17 0.0651485 4.35665 -1.62209e-16 2.27458e-15 -1.21305e-16 4.88521e-33)
(2.67108 -0.270251 9.70782e-18 0.471252 2.90703 8.73704e-17 -2.61359e-15 2.01272e-16 2.63131e-33)
(0.812727 -0.016499 0 0.70737 2.46197 0 0 0 0)
(-0.560818 0.147827 -4.12941e-18 0.661236 1.80736 -3.71647e-17 2.27347e-15 -1.95963e-16 1.11928e-33)
(-0.128189 -0.19081 3.99869e-18 0.541782 1.65368 3.59882e-17 -9.56229e-16 1.06248e-16 1.08385e-33)
(4.49244 -0.942672 0 -0.597923 -0.596885 0 -1.13827e-15 -4.95144e-18 0)
(2.92162 -0.210249 0 0.211514 0.946993 0 1.31389e-15 -5.68608e-17 0)
(0.936403 -0.0140979 0 0.38471 1.37705 0 0 0 0)
(-0.566578 0.102479 0 0.386548 1.46153 0 -1.43627e-15 7.74531e-17 0)
(-0.204931 -0.0665056 0 0.312395 1.16645 0 2.45488e-16 -5.32864e-18 0)
(4.48696 -1.31285e-13 0 5.47577e-14 0.864953 0 0 0 0)
(2.89537 -1.41765e-13 0 1.57534e-13 1.88205 0 0 0 0)
(0.833969 1.83896e-13 0 1.04405e-13 2.05297 0 0 0 0)
(-0.614694 -3.8741e-13 0 -4.9604e-14 1.77638 0 5.79166e-16 1.69448e-29 0)
(-0.298782 2.83508e-12 0 -6.02335e-13 1.41546 0 -4.90977e-16 2.04467e-29 0)
(4.49244 0.942672 0 0.597923 -0.596885 0 -1.13827e-15 4.95144e-18 0)
(2.92162 0.210249 0 -0.211514 0.946993 0 1.31389e-15 5.68608e-17 0)
(0.936403 0.0140979 0 -0.38471 1.37705 0 0 0 0)
(-0.566578 -0.102479 0 -0.386548 1.46153 0 -1.43627e-15 -7.74531e-17 0)
(-0.204931 0.0665056 0 -0.312395 1.16645 0 2.45488e-16 5.32864e-18 0)
(4.41151 0.77047 0 -0.0651485 4.35665 0 1.13827e-15 -4.95144e-18 0)
(2.67108 0.270251 -9.70782e-18 -0.471252 2.90703 8.73704e-17 -1.41926e-17 8.75502e-17 2.63131e-33)
(0.812727 0.016499 0 -0.70737 2.46197 0 0 0 0)
(-0.560818 -0.147827 4.12941e-18 -0.661236 1.80736 -3.71647e-17 1.99143e-17 -5.44317e-17 1.11928e-33)
(-0.128189 0.19081 -3.99869e-18 -0.541782 1.65368 3.59882e-17 9.56229e-16 1.06248e-16 1.08385e-33)
(0.551427 -0.600104 0 0.590133 2.37037 0 0 0 0)
(0.463501 0.239758 0 1.20963 2.06712 0 0 0 0)
(-0.279723 0.805395 0 1.41937 1.08628 0 0 0 0)
(-1.66248 0.243938 0 1.66647 0.453116 0 0 0 0)
(-1.98258 -0.249683 0 1.0766 0.827177 0 0 0 0)
(-1.26091 -0.269451 0 0.981766 1.26132 0 0 0 0)
(-1.13504 -0.105123 0 1.09525 1.44813 0 0 0 0)
(-0.978159 0.168709 0 0.738622 1.20747 0 0 0 0)
(-0.792464 0.236021 0 0.35628 0.832801 0 0 0 0)
(-0.742207 0.15834 0 0.153589 0.545538 0 0 0 0)
(-0.637306 0.0837492 0 0.0665285 0.370085 0 0 0 0)
(-0.379576 0.0382979 0 0.0271538 0.279288 0 0 0 0)
(-0.14256 0.0161522 0 0.0096143 0.240502 0 0 0 0)
(-0.0428613 0.00750657 0 0.00384002 0.22341 0 0 0 0)
(-0.0164031 0.00524663 0 0.00413998 0.214326 0 0 0 0)
(-0.000850484 0.00569455 0 0.00431857 0.204583 0 0 0 0)
(0.0284682 0.00436883 0 0.00100045 0.19552 0 0 0 0)
(0.0737349 0.00163723 0 -0.000783297 0.190902 0 0 0 0)
(0.117091 0.000224133 0 -0.000905922 0.189368 0 0 0 0)
(0.143401 -3.73418e-05 0 -0.000494036 0.189466 0 0 0 0)
(0.154729 0.000262602 0 8.60831e-05 0.189295 0 0 0 0)
(0.158906 0.000376642 0 0.000668093 0.188528 0 0 0 0)
(0.16067 0.000265645 0 0.00118053 0.187988 0 0 0 0)
(0.161853 0.000204026 0 0.00162362 0.187603 0 0 0 0)
(0.162895 0.000205633 0 0.002021 0.187274 0 0 0 0)
(0.162726 5.32355e-05 0 0.00238412 0.186885 0 0 0 0)
(0.163418 0.000356517 0 0.00274521 0.18709 0 0 0 0)
(0.161417 -4.78144e-05 0 0.00301412 0.185658 0 0 0 0)
(0.156467 5.54686e-05 0 0.00329491 0.187242 0 0 0 0)
(0.153701 -0.000231475 0 0.00347291 0.185494 0 0 0 0)
(0.150365 0.000185474 0 0.00364551 0.188013 0 0 0 0)
(0.146491 -0.0010243 0 0.00371616 0.184899 0 0 0 0)
(0.138206 0.000732313 0 0.00371891 0.191308 0 0 0 0)
(0.123237 -0.00152512 0 0.00300309 0.182763 0 0 0 0)
(0.0929944 -0.000339725 0 0.00267971 0.196027 0 0 0 0)
(0.0755979 -0.000854681 0 -0.00108848 0.184247 0 0 0 0)
(0.0679332 -0.00431072 0 0.00270292 0.200365 0 0 0 0)
(-0.00786367 -0.00236122 0 0.0016496 0.196393 0 0 0 0)
(-0.792114 -0.00705621 0 -0.0112297 0.197928 0 0 0 0)
(-0.75634 -0.00427358 0 -0.0223867 0.202573 0 0 0 0)
(0.631581 -0.28138 0 -0.0053655 2.23238 0 0 0 0)
(0.540336 0.101938 0 0.249062 2.92675 0 0 0 0)
(-0.346691 0.400904 0 0.217525 1.40821 0 0 0 0)
(-1.72782 0.122939 0 0.347321 0.158211 0 0 0 0)
(-2.02475 -0.0921253 0 0.260853 0.569678 0 0 0 0)
(-1.22692 -0.124178 0 0.124859 1.0165 0 0 0 0)
(-1.12517 -0.052864 0 0.217387 1.49591 0 0 0 0)
(-1.05919 0.0845421 0 0.14801 1.37785 0 0 0 0)
(-0.873229 0.114778 0 0.0809042 0.915976 0 0 0 0)
(-0.786296 0.0739263 0 0.068476 0.566533 0 0 0 0)
(-0.656203 0.0401923 0 0.0359712 0.371684 0 0 0 0)
(-0.385696 0.0193877 0 0.00625263 0.278645 0 0 0 0)
(-0.143827 0.00807516 0 -0.00323503 0.240035 0 0 0 0)
(-0.0425516 0.00373084 0 -0.00386793 0.223122 0 0 0 0)
(-0.0160183 0.00265753 0 -0.00206832 0.214231 0 0 0 0)
(-0.00101502 0.00282048 0 -0.00178292 0.205087 0 0 0 0)
(0.0283964 0.00215982 0 -0.00229926 0.194656 0 0 0 0)
(0.0740701 0.000772385 0 -0.00215845 0.190069 0 0 0 0)
(0.11749 8.54414e-05 0 -0.00142157 0.189028 0 0 0 0)
(0.143778 -2.551e-05 0 -0.00067049 0.189299 0 0 0 0)
(0.155112 0.000131555 0 0.000113431 0.189157 0 0 0 0)
(0.159278 0.000187624 0 0.000889337 0.188396 0 0 0 0)
(0.16102 0.000130605 0 0.00161878 0.187862 0 0 0 0)
(0.16218 9.90134e-05 0 0.00230184 0.187483 0 0 0 0)
(0.163202 9.97666e-05 0 0.00295405 0.187161 0 0 0 0)
(0.163018 2.385e-05 0 0.00358759 0.186776 0 0 0 0)
(0.163688 0.000176007 0 0.00422668 0.186978 0 0 0 0)
(0.161669 -2.50534e-05 0 0.00482175 0.18555 0 0 0 0)
(0.156703 2.90007e-05 0 0.00546645 0.187142 0 0 0 0)
(0.153918 -0.000114797 0 0.00611215 0.18536 0 0 0 0)
(0.150561 9.66766e-05 0 0.00682302 0.187938 0 0 0 0)
(0.146651 -0.000514821 0 0.00758174 0.184722 0 0 0 0)
(0.138282 0.000388927 0 0.00841708 0.191459 0 0 0 0)
(0.123299 -0.00075283 0 0.00917723 0.182205 0 0 0 0)
(0.0927095 -0.000115924 0 0.0105127 0.196701 0 0 0 0)
(0.0757349 -0.000340978 0 0.0105867 0.183373 0 0 0 0)
(0.0682893 -0.00220808 0 0.0150481 0.199639 0 0 0 0)
(-0.00997288 -0.00155438 0 0.0183117 0.198191 0 0 0 0)
(-0.795179 -0.00402646 0 0.0122272 0.207756 0 0 0 0)
(-0.757418 -0.00232634 0 0.00567581 0.222446 0 0 0 0)
(0.518453 -1.22992e-12 0 -1.94131e-11 2.15433 0 0 0 0)
(0.528342 1.93208e-12 0 6.5817e-11 3.10329 0 0 0 0)
(-0.251139 -2.76453e-11 0 -7.49401e-11 1.45351 0 0 0 0)
(-1.64988 1.24845e-10 0 -6.94907e-10 0.347078 0 0 0 0)
(-2.04729 6.91541e-11 0 -7.81457e-10 0.608301 0 0 0 0)
(-1.27355 -1.43257e-10 0 2.15918e-10 0.980439 0 0 0 0)
(-1.12831 -5.00783e-11 0 8.3452e-11 1.46203 0 0 0 0)
(-1.01786 2.30476e-11 0 -4.6189e-11 1.34388 0 0 0 0)
(-0.815601 2.65104e-11 0 -9.1688e-11 0.880801 0 0 0 0)
(-0.755279 2.73315e-12 0 -7.14065e-11 0.55478 0 0 0 0)
(-0.655408 -6.01629e-12 0 -4.88778e-11 0.372557 0 0 0 0)
(-0.390982 1.88488e-12 0 -4.44998e-11 0.278458 0 0 0 0)
(-0.145504 1.00424e-11 0 -5.05653e-11 0.239267 0 0 0 0)
(-0.0425219 1.15076e-11 0 -5.5959e-11 0.222941 0 0 0 0)
(-0.0157965 8.09766e-12 0 -5.32444e-11 0.213617 0 0 0 0)
(-0.000917665 -8.12794e-12 0 -4.43555e-11 0.204671 0 0 0 0)
(0.028359 -3.86266e-11 0 -2.28399e-11 0.194227 0 0 0 0)
(0.0739902 -6.11286e-11 0 7.00764e-12 0.189822 0 0 0 0)
(0.117524 -3.28607e-11 0 2.79454e-11 0.188916 0 0 0 0)
(0.143847 2.22122e-11 0 4.35387e-11 0.189235 0 0 0 0)
(0.155183 6.18628e-11 0 5.71067e-11 0.189092 0 0 0 0)
(0.159344 5.06586e-11 0 7.0137e-11 0.18833 0 0 0 0)
(0.161081 -1.87269e-11 0 8.04791e-11 0.187802 0 0 0 0)
(0.162241 -7.57953e-11 0 8.42647e-11 0.187432 0 0 0 0)
(0.163269 -6.21152e-11 0 7.84548e-11 0.187121 0 0 0 0)
(0.163096 -3.12963e-11 0 6.5265e-11 0.186746 0 0 0 0)
(0.163777 4.74663e-12 0 4.91843e-11 0.186957 0 0 0 0)
(0.161777 6.57351e-11 0 3.5962e-11 0.185536 0 0 0 0)
(0.156843 3.18219e-11 0 2.45237e-11 0.187129 0 0 0 0)
(0.154096 2.56893e-11 0 1.8665e-11 0.185337 0 0 0 0)
(0.150793 7.04731e-11 0 7.82893e-12 0.187919 0 0 0 0)
(0.146955 -7.28945e-12 0 -1.12313e-11 0.184672 0 0 0 0)
(0.13867 -4.74619e-11 0 -4.6122e-11 0.191458 0 0 0 0)
(0.123846 1.78006e-11 0 -9.73377e-11 0.181999 0 0 0 0)
(0.0934044 4.18397e-11 0 -1.56229e-10 0.196634 0 0 0 0)
(0.0769173 -1.24763e-11 0 -2.05631e-10 0.182796 0 0 0 0)
(0.0701804 -1.85033e-11 0 -2.53234e-10 0.198978 0 0 0 0)
(-0.00868428 1.46802e-11 0 -2.76968e-10 0.197976 0 0 0 0)
(-0.795789 6.92341e-12 0 -2.30423e-10 0.209664 0 0 0 0)
(-0.758246 1.45604e-12 0 -1.60842e-10 0.225658 0 0 0 0)
(0.631581 0.28138 0 0.0053655 2.23238 0 0 0 0)
(0.540336 -0.101938 0 -0.249062 2.92675 0 0 0 0)
(-0.346691 -0.400904 0 -0.217525 1.40821 0 0 0 0)
(-1.72782 -0.122939 0 -0.347322 0.158211 0 0 0 0)
(-2.02475 0.0921253 0 -0.260853 0.569678 0 0 0 0)
(-1.22692 0.124178 0 -0.124859 1.0165 0 0 0 0)
(-1.12517 0.052864 0 -0.217387 1.49591 0 0 0 0)
(-1.05919 -0.0845421 0 -0.14801 1.37785 0 0 0 0)
(-0.873229 -0.114778 0 -0.0809042 0.915976 0 0 0 0)
(-0.786296 -0.0739263 0 -0.068476 0.566533 0 0 0 0)
(-0.656203 -0.0401923 0 -0.0359712 0.371684 0 0 0 0)
(-0.385696 -0.0193877 0 -0.00625263 0.278645 0 0 0 0)
(-0.143827 -0.00807516 0 0.00323503 0.240035 0 0 0 0)
(-0.0425516 -0.00373084 0 0.00386792 0.223122 0 0 0 0)
(-0.0160183 -0.00265753 0 0.00206832 0.214231 0 0 0 0)
(-0.00101502 -0.00282048 0 0.00178292 0.205087 0 0 0 0)
(0.0283964 -0.00215982 0 0.00229926 0.194656 0 0 0 0)
(0.0740701 -0.000772385 0 0.00215845 0.190069 0 0 0 0)
(0.11749 -8.54415e-05 0 0.00142157 0.189028 0 0 0 0)
(0.143778 2.55101e-05 0 0.00067049 0.189299 0 0 0 0)
(0.155112 -0.000131555 0 -0.000113431 0.189157 0 0 0 0)
(0.159278 -0.000187624 0 -0.000889337 0.188396 0 0 0 0)
(0.16102 -0.000130605 0 -0.00161878 0.187862 0 0 0 0)
(0.16218 -9.90136e-05 0 -0.00230184 0.187483 0 0 0 0)
(0.163202 -9.97668e-05 0 -0.00295405 0.187161 0 0 0 0)
(0.163018 -2.385e-05 0 -0.00358759 0.186776 0 0 0 0)
(0.163688 -0.000176007 0 -0.00422668 0.186978 0 0 0 0)
(0.161669 2.50535e-05 0 -0.00482175 0.18555 0 0 0 0)
(0.156703 -2.90006e-05 0 -0.00546645 0.187142 0 0 0 0)
(0.153918 0.000114797 0 -0.00611215 0.18536 0 0 0 0)
(0.150561 -9.66764e-05 0 -0.00682302 0.187938 0 0 0 0)
(0.146651 0.000514821 0 -0.00758173 0.184722 0 0 0 0)
(0.138282 -0.000388927 0 -0.00841708 0.191459 0 0 0 0)
(0.123299 0.00075283 0 -0.00917723 0.182205 0 0 0 0)
(0.0927095 0.000115924 0 -0.0105127 0.196701 0 0 0 0)
(0.0757349 0.000340978 0 -0.0105867 0.183373 0 0 0 0)
(0.0682893 0.00220808 0 -0.0150481 0.199639 0 0 0 0)
(-0.00997288 0.00155438 0 -0.0183117 0.198191 0 0 0 0)
(-0.795179 0.00402646 0 -0.0122272 0.207756 0 0 0 0)
(-0.757418 0.00232634 0 -0.00567581 0.222446 0 0 0 0)
(0.551427 0.600104 0 -0.590133 2.37037 0 0 0 0)
(0.463501 -0.239758 0 -1.20963 2.06712 0 0 0 0)
(-0.279723 -0.805395 0 -1.41937 1.08628 0 0 0 0)
(-1.66248 -0.243938 0 -1.66647 0.453116 0 0 0 0)
(-1.98258 0.249683 0 -1.0766 0.827177 0 0 0 0)
(-1.26091 0.269451 0 -0.981766 1.26132 0 0 0 0)
(-1.13504 0.105123 0 -1.09525 1.44813 0 0 0 0)
(-0.978159 -0.168709 0 -0.738622 1.20747 0 0 0 0)
(-0.792464 -0.236021 0 -0.35628 0.832801 0 0 0 0)
(-0.742207 -0.15834 0 -0.153589 0.545538 0 0 0 0)
(-0.637306 -0.0837492 0 -0.0665285 0.370085 0 0 0 0)
(-0.379576 -0.0382979 0 -0.0271538 0.279288 0 0 0 0)
(-0.14256 -0.0161522 0 -0.0096143 0.240502 0 0 0 0)
(-0.0428613 -0.00750657 0 -0.00384002 0.22341 0 0 0 0)
(-0.0164031 -0.00524663 0 -0.00413998 0.214326 0 0 0 0)
(-0.000850484 -0.00569455 0 -0.00431857 0.204583 0 0 0 0)
(0.0284682 -0.00436883 0 -0.00100045 0.19552 0 0 0 0)
(0.0737349 -0.00163723 0 0.000783297 0.190902 0 0 0 0)
(0.117091 -0.000224133 0 0.000905922 0.189368 0 0 0 0)
(0.143401 3.73418e-05 0 0.000494035 0.189466 0 0 0 0)
(0.154729 -0.000262602 0 -8.60833e-05 0.189295 0 0 0 0)
(0.158906 -0.000376642 0 -0.000668094 0.188528 0 0 0 0)
(0.16067 -0.000265645 0 -0.00118053 0.187988 0 0 0 0)
(0.161853 -0.000204026 0 -0.00162362 0.187603 0 0 0 0)
(0.162895 -0.000205633 0 -0.002021 0.187274 0 0 0 0)
(0.162726 -5.32356e-05 0 -0.00238412 0.186885 0 0 0 0)
(0.163418 -0.000356517 0 -0.00274521 0.18709 0 0 0 0)
(0.161417 4.78146e-05 0 -0.00301412 0.185658 0 0 0 0)
(0.156467 -5.54686e-05 0 -0.00329491 0.187242 0 0 0 0)
(0.153701 0.000231475 0 -0.00347291 0.185494 0 0 0 0)
(0.150365 -0.000185474 0 -0.00364551 0.188013 0 0 0 0)
(0.146491 0.0010243 0 -0.00371616 0.184899 0 0 0 0)
(0.138206 -0.000732313 0 -0.00371891 0.191308 0 0 0 0)
(0.123237 0.00152512 0 -0.00300309 0.182763 0 0 0 0)
(0.0929944 0.000339725 0 -0.00267971 0.196027 0 0 0 0)
(0.0755979 0.000854681 0 0.00108848 0.184247 0 0 0 0)
(0.0679332 0.00431072 0 -0.00270292 0.200365 0 0 0 0)
(-0.00786367 0.00236122 0 -0.0016496 0.196393 0 0 0 0)
(-0.792114 0.00705621 0 0.0112297 0.197928 0 0 0 0)
(-0.75634 0.00427358 0 0.0223867 0.202573 0 0 0 0)
(0.236356 -0.126152 0 -1.36955 1.03862 0 0 0 0)
(0.109017 -0.748058 0 -1.59654 0.628712 0 0 0 0)
(-0.710682 -0.945634 0 -2.18902 0.714936 0 0 0 0)
(-1.58835 -0.145564 0 -2.75852 0.98138 0 0 0 0)
(-1.64403 0.416912 0 -1.89659 1.18604 0 0 0 0)
(-1.19932 0.345712 0 -1.62287 1.35999 0 0 0 0)
(-0.961234 -0.0413342 0 -1.34918 1.17205 0 0 0 0)
(-0.689341 -0.3732 0 -0.784224 0.887414 0 0 0 0)
(-0.599639 -0.389806 0 -0.412367 0.639781 0 0 0 0)
(-0.655519 -0.266573 0 -0.242377 0.468226 0 0 0 0)
(-0.598744 -0.156841 0 -0.150265 0.34732 0 0 0 0)
(-0.357071 -0.0788066 0 -0.0743178 0.271696 0 0 0 0)
(-0.130668 -0.0337871 0 -0.0321913 0.237795 0 0 0 0)
(-0.0387597 -0.0157843 0 -0.0170409 0.222445 0 0 0 0)
(-0.0158736 -0.0114734 0 -0.0153064 0.212296 0 0 0 0)
(0.00076409 -0.0112942 0 -0.0148225 0.202482 0 0 0 0)
(0.0315136 -0.0081876 0 -0.00901213 0.195525 0 0 0 0)
(0.0756535 -0.00363088 0 -0.00338349 0.191443 0 0 0 0)
(0.11777 -0.000825763 0 -0.00089947 0.189659 0 0 0 0)
(0.143592 -3.4186e-05 0 -0.000322671 0.189566 0 0 0 0)
(0.154825 -0.000568204 0 -0.000282267 0.189315 0 0 0 0)
(0.159022 -0.000788977 0 -0.000251071 0.188522 0 0 0 0)
(0.160825 -0.000554877 0 -0.000110589 0.187979 0 0 0 0)
(0.16203 -0.000425213 0 0.000114949 0.187604 0 0 0 0)
(0.16308 -0.000427614 0 0.000375786 0.187286 0 0 0 0)
(0.162902 -0.000105193 0 0.000651999 0.186904 0 0 0 0)
(0.163606 -0.000736745 0 0.000903105 0.18713 0 0 0 0)
(0.161616 9.37148e-05 0 0.00123948 0.185691 0 0 0 0)
(0.156689 -0.000101611 0 0.0015468 0.187244 0 0 0 0)
(0.153949 0.000463644 0 0.00199419 0.185528 0 0 0 0)
(0.150635 -0.000367193 0 0.00240284 0.187914 0 0 0 0)
(0.146791 0.00199261 0 0.00294378 0.184937 0 0 0 0)
(0.138817 -0.00133155 0 0.00337533 0.190772 0 0 0 0)
(0.124022 0.00281996 0 0.00503886 0.183219 0 0 0 0)
(0.0949466 0.000788086 0 0.00614119 0.19423 0 0 0 0)
(0.0758787 0.00246817 0 0.0120888 0.184677 0 0 0 0)
(0.0669836 0.00739574 0 0.0072096 0.19998 0 0 0 0)
(-0.00367212 -0.000907284 0 0.00574687 0.192897 0 0 0 0)
(-0.783645 0.00439999 0 0.00742481 0.188969 0 0 0 0)
(-0.751666 0.00298876 0 0.0170877 0.186346 0 0 0 0)
(0.235637 -0.0170337 0 -2.50967 0.0795457 0 0 0 0)
(-0.136086 -0.279101 0 -2.76902 0.0421062 0 0 0 0)
(-1.16836 -0.39035 0 -3.11025 0.667644 0 0 0 0)
(-1.42043 0.157285 0 -3.09458 1.20839 0 0 0 0)
(-1.06975 0.524856 0 -2.39539 1.22546 0 0 0 0)
(-0.766432 0.215071 0 -1.81812 0.977685 0 0 0 0)
(-0.420102 -0.271737 0 -1.23297 0.700455 0 0 0 0)
(-0.230284 -0.571964 0 -0.736326 0.523444 0 0 0 0)
(-0.37372 -0.5575 0 -0.489519 0.430681 0 0 0 0)
(-0.536121 -0.382127 0 -0.354503 0.358921 0 0 0 0)
(-0.496036 -0.233939 0 -0.228329 0.293289 0 0 0 0)
(-0.277864 -0.122118 0 -0.106357 0.253512 0 0 0 0)
(-0.0937423 -0.054156 0 -0.0439705 0.2331 0 0 0 0)
(-0.0287898 -0.0276395 0 -0.0252507 0.22041 0 0 0 0)
(-0.0145493 -0.0211445 0 -0.0227633 0.209337 0 0 0 0)
(0.00434909 -0.0188537 0 -0.0202352 0.200317 0 0 0 0)
(0.0378582 -0.0129588 0 -0.0130572 0.194776 0 0 0 0)
(0.0805238 -0.00621992 0 -0.00542359 0.191443 0 0 0 0)
(0.119676 -0.00171049 0 -0.0014479 0.189816 0 0 0 0)
(0.143893 -0.000256642 0 -0.000465009 0.189562 0 0 0 0)
(0.154747 -0.00110449 0 -0.000551996 0.18918 0 0 0 0)
(0.159009 -0.00144231 0 -0.00073741 0.188333 0 0 0 0)
(0.16094 -0.000994698 0 -0.000758328 0.187775 0 0 0 0)
(0.162226 -0.000753795 0 -0.000639398 0.187399 0 0 0 0)
(0.163313 -0.000761083 0 -0.00045852 0.187076 0 0 0 0)
(0.163139 -0.000175242 0 -0.000242847 0.186688 0 0 0 0)
(0.163883 -0.00132228 0 -1.01402e-05 0.186926 0 0 0 0)
(0.16193 0.000132819 0 0.00023952 0.185458 0 0 0 0)
(0.157076 -0.000187533 0 0.000565073 0.18695 0 0 0 0)
(0.154393 0.000752875 0 0.00105219 0.185303 0 0 0 0)
(0.151135 -0.000657256 0 0.00145363 0.187459 0 0 0 0)
(0.147268 0.00325942 0 0.00202661 0.184769 0 0 0 0)
(0.139897 -0.00206702 0 0.00228789 0.18971 0 0 0 0)
(0.125481 0.00416293 0 0.0040926 0.183741 0 0 0 0)
(0.0987412 0.00150506 0 0.00528308 0.191712 0 0 0 0)
(0.076477 0.00553018 0 0.0123036 0.185428 0 0 0 0)
(0.062331 0.010577 0 0.00696605 0.198327 0 0 0 0)
(-0.00990393 -0.00649679 0 0.0024372 0.189625 0 0 0 0)
(-0.785726 0.00216817 0 -0.00639927 0.191239 0 0 0 0)
(-0.749536 0.00243517 0 0.00407262 0.193551 0 0 0 0)
(-0.0135689 -0.16223 0 -3.03059 0.374025 0 0 0 0)
(-0.469722 -0.181346 0 -3.62622 0.353319 0 0 0 0)
(-1.0244 0.178236 0 -3.51674 0.902142 0 0 0 0)
(-0.899491 0.391964 0 -2.85423 1.15661 0 0 0 0)
(-0.413979 0.194599 0 -2.09675 0.822192 0 0 0 0)
(-0.0791748 -0.160198 0 -1.39053 0.440184 0 0 0 0)
(0.0812192 -0.479058 0 -0.865532 0.205317 0 0 0 0)
(0.0270777 -0.633164 0 -0.629122 0.16458 0 0 0 0)
(-0.231701 -0.548346 0 -0.518136 0.22995 0 0 0 0)
(-0.403827 -0.398969 0 -0.402588 0.247542 0 0 0 0)
(-0.359621 -0.258417 0 -0.250149 0.239331 0 0 0 0)
(-0.179417 -0.136807 0 -0.116175 0.235455 0 0 0 0)
(-0.0525109 -0.0656856 0 -0.0520355 0.227939 0 0 0 0)
(-0.0183237 -0.0386832 0 -0.0358795 0.216922 0 0 0 0)
(-0.0110405 -0.0308348 0 -0.0309649 0.205801 0 0 0 0)
(0.0101173 -0.0253258 0 -0.0254415 0.198005 0 0 0 0)
(0.0457866 -0.0167392 0 -0.0163723 0.19378 0 0 0 0)
(0.0868406 -0.00841044 0 -0.00741258 0.191217 0 0 0 0)
(0.122549 -0.00263818 0 -0.0023211 0.189816 0 0 0 0)
(0.144455 -0.000647434 0 -0.000838523 0.189459 0 0 0 0)
(0.154563 -0.00175306 0 -0.000887016 0.188941 0 0 0 0)
(0.158823 -0.00214331 0 -0.00118309 0.188021 0 0 0 0)
(0.160919 -0.00145449 0 -0.00130735 0.187433 0 0 0 0)
(0.162319 -0.00109881 0 -0.00126346 0.187052 0 0 0 0)
(0.163463 -0.00111287 0 -0.00114272 0.186724 0 0 0 0)
(0.163334 -0.000249124 0 -0.000968301 0.186342 0 0 0 0)
(0.164071 -0.00192196 0 -0.000709199 0.186585 0 0 0 0)
(0.16217 0.000116979 0 -0.000609227 0.185094 0 0 0 0)
(0.157472 -0.000250908 0 -0.000233068 0.186534 0 0 0 0)
(0.154805 0.000953796 0 0.000304378 0.185043 0 0 0 0)
(0.151574 -0.00088167 0 0.000683495 0.18689 0 0 0 0)
(0.147595 0.00416151 0 0.00125545 0.184683 0 0 0 0)
(0.140808 -0.00232272 0 0.001307 0.188519 0 0 0 0)
(0.126909 0.00474935 0 0.00304705 0.184591 0 0 0 0)
(0.102859 0.0024141 0 0.00424506 0.189327 0 0 0 0)
(0.0775005 0.00884314 0 0.0112934 0.186286 0 0 0 0)
(0.057476 0.0114397 0 0.00694721 0.1954 0 0 0 0)
(-0.0165514 -0.00773754 0 0.00209483 0.186684 0 0 0 0)
(-0.782069 0.00818325 0 -0.00753413 0.194717 0 0 0 0)
(-0.741575 0.00521609 0 0.00899336 0.200424 0 0 0 0)
(-0.33833 -0.0369868 0 -2.81844 0.281927 0 0 0 0)
(-0.604559 0.229812 0 -3.0977 0.487933 0 0 0 0)
(-0.424449 0.383725 0 -2.63454 0.671012 0 0 0 0)
(-0.0520756 0.0802416 0 -1.86597 0.433605 0 0 0 0)
(0.340719 -0.165514 0 -1.19515 0.149042 0 0 0 0)
(0.420016 -0.379373 0 -0.762266 0.00176327 0 0 0 0)
(0.313621 -0.53732 0 -0.567604 -0.0601908 0 0 0 0)
(0.104479 -0.548227 0 -0.528009 0.0259933 0 0 0 0)
(-0.155424 -0.477555 0 -0.48536 0.121627 0 0 0 0)
(-0.277879 -0.373086 0 -0.389397 0.169061 0 0 0 0)
(-0.220038 -0.245587 0 -0.233996 0.202223 0 0 0 0)
(-0.086955 -0.133096 0 -0.115943 0.219576 0 0 0 0)
(-0.0163662 -0.0720153 0 -0.0622712 0.219724 0 0 0 0)
(-0.00848536 -0.0489726 0 -0.04773 0.21023 0 0 0 0)
(-0.00449097 -0.0393731 0 -0.0397341 0.200765 0 0 0 0)
(0.0184111 -0.030438 0 -0.0305133 0.194823 0 0 0 0)
(0.0552316 -0.0195002 0 -0.0193077 0.19199 0 0 0 0)
(0.094064 -0.0100393 0 -0.00928259 0.190192 0 0 0 0)
(0.126011 -0.00340467 0 -0.00350127 0.189236 0 0 0 0)
(0.145275 -0.00110062 0 -0.00159423 0.188879 0 0 0 0)
(0.154415 -0.00249026 0 -0.00144057 0.188275 0 0 0 0)
(0.158604 -0.00289493 0 -0.00164795 0.187293 0 0 0 0)
(0.160862 -0.00192822 0 -0.0017041 0.186681 0 0 0 0)
(0.162385 -0.00143682 0 -0.00159055 0.18631 0 0 0 0)
(0.163597 -0.00144531 0 -0.00139475 0.18601 0 0 0 0)
(0.163557 -0.000309181 0 -0.00113671 0.185649 0 0 0 0)
(0.164229 -0.00252456 0 -0.000718269 0.185889 0 0 0 0)
(0.162389 8.32863e-05 0 -0.000605879 0.184435 0 0 0 0)
(0.157956 -0.000237433 0 -4.41848e-05 0.185814 0 0 0 0)
(0.155276 0.00109644 0 0.000705746 0.184541 0 0 0 0)
(0.152052 -0.00100422 0 0.00126496 0.186074 0 0 0 0)
(0.147868 0.00482909 0 0.00205276 0.184395 0 0 0 0)
(0.141624 -0.00215552 0 0.00218483 0.187288 0 0 0 0)
(0.128312 0.00494096 0 0.0040163 0.185024 0 0 0 0)
(0.106688 0.00313883 0 0.00542368 0.187588 0 0 0 0)
(0.0790808 0.0113822 0 0.0116316 0.186068 0 0 0 0)
(0.053467 0.0109606 0 0.00914391 0.19126 0 0 0 0)
(-0.0238587 -0.00715432 0 0.00521306 0.184713 0 0 0 0)
(-0.779078 0.015408 0 -0.00441436 0.1946 0 0 0 0)
(-0.733609 0.00793412 0 0.0117849 0.199759 0 0 0 0)
(-0.282673 0.0362847 0 -1.61257 0.099278 0 0 0 0)
(-0.292509 0.193591 0 -1.55698 0.205911 0 0 0 0)
(0.162542 0.125883 0 -1.11719 0.0322942 0 0 0 0)
(0.487562 -0.111025 0 -0.706197 -0.180173 0 0 0 0)
(0.649586 -0.221539 0 -0.465473 -0.162794 0 0 0 0)
(0.525548 -0.361822 0 -0.412948 -0.174132 0 0 0 0)
(0.306958 -0.455709 0 -0.425016 -0.0994989 0 0 0 0)
(0.106331 -0.457958 0 -0.466152 -0.00574774 0 0 0 0)
(-0.0981288 -0.41048 0 -0.430717 0.0717454 0 0 0 0)
(-0.161603 -0.321303 0 -0.338113 0.132786 0 0 0 0)
(-0.0961116 -0.209739 0 -0.19622 0.185412 0 0 0 0)
(-0.0139368 -0.119942 0 -0.105595 0.208884 0 0 0 0)
(0.0132219 -0.0746912 0 -0.0678992 0.210418 0 0 0 0)
(0.00339391 -0.0569531 0 -0.054016 0.202922 0 0 0 0)
(0.00555013 -0.0456818 0 -0.0446054 0.195592 0 0 0 0)
(0.0298009 -0.0337813 0 -0.0324553 0.191491 0 0 0 0)
(0.0662453 -0.0212018 0 -0.0200324 0.189776 0 0 0 0)
(0.102072 -0.011065 0 -0.00978712 0.188624 0 0 0 0)
(0.129957 -0.00390346 0 -0.00400703 0.187834 0 0 0 0)
(0.146441 -0.00157358 0 -0.00205366 0.1875 0 0 0 0)
(0.154511 -0.00328143 0 -0.00188097 0.186841 0 0 0 0)
(0.158569 -0.00367908 0 -0.00212523 0.185818 0 0 0 0)
(0.160974 -0.00240205 0 -0.00224451 0.185201 0 0 0 0)
(0.162617 -0.00174563 0 -0.00221221 0.184866 0 0 0 0)
(0.1639 -0.00174934 0 -0.00211446 0.18464 0 0 0 0)
(0.163986 -0.000365813 0 -0.00198052 0.184297 0 0 0 0)
(0.164582 -0.0030921 0 -0.00162924 0.184573 0 0 0 0)
(0.16282 4.49977e-05 0 -0.00165685 0.183318 0 0 0 0)
(0.158736 -0.000149055 0 -0.00118466 0.184585 0 0 0 0)
(0.156067 0.00120482 0 -0.000530866 0.183625 0 0 0 0)
(0.152872 -0.00102159 0 -0.000114964 0.184914 0 0 0 0)
(0.148481 0.00533058 0 0.000528235 0.183822 0 0 0 0)
(0.1427 -0.00171738 0 0.000382738 0.186007 0 0 0 0)
(0.13003 0.00503862 0 0.00178139 0.185033 0 0 0 0)
(0.110197 0.00342046 0 0.00273292 0.186335 0 0 0 0)
(0.0810854 0.012382 0 0.00718849 0.185667 0 0 0 0)
(0.0512909 0.0101339 0 0.00439684 0.187135 0 0 0 0)
(-0.0296167 -0.00451914 0 8.82928e-05 0.18451 0 0 0 0)
(-0.775736 0.0226826 0 -0.00948829 0.194555 0 0 0 0)
(-0.725964 0.0101878 0 0.00664977 0.199722 0 0 0 0)
(-0.284768 0.0657689 0 -0.432702 -0.126243 0 0 0 0)
(-0.127201 0.165264 0 -0.458712 -0.0944375 0 0 0 0)
(0.395398 0.0116808 0 -0.254055 -0.177509 0 0 0 0)
(0.575946 -0.107752 0 -0.19294 -0.254976 0 0 0 0)
(0.623304 -0.159692 0 -0.195526 -0.158878 0 0 0 0)
(0.459002 -0.318379 0 -0.325183 -0.166666 0 0 0 0)
(0.262352 -0.375059 0 -0.356019 -0.0857842 0 0 0 0)
(0.0989861 -0.38321 0 -0.406897 -0.0159319 0 0 0 0)
(-0.0320409 -0.344059 0 -0.364456 0.0554395 0 0 0 0)
(-0.0519091 -0.263553 0 -0.271471 0.121416 0 0 0 0)
(0.00402493 -0.172256 0 -0.162815 0.175356 0 0 0 0)
(0.0366992 -0.109 0 -0.100402 0.197365 0 0 0 0)
(0.033337 -0.0777599 0 -0.0758196 0.198487 0 0 0 0)
(0.0139613 -0.0632593 0 -0.0632402 0.1935 0 0 0 0)
(0.0162857 -0.0503888 0 -0.0515599 0.18883 0 0 0 0)
(0.0420906 -0.036042 0 -0.0364579 0.18686 0 0 0 0)
(0.0770755 -0.0222629 0 -0.0224517 0.186175 0 0 0 0)
(0.109507 -0.0119111 0 -0.0117897 0.186125 0 0 0 0)
(0.133463 -0.00448737 0 -0.00585749 0.185291 0 0 0 0)
(0.147324 -0.00205774 0 -0.00347001 0.184981 0 0 0 0)
(0.154346 -0.00411149 0 -0.00278882 0.184306 0 0 0 0)
(0.158253 -0.00447466 0 -0.0025453 0.183282 0 0 0 0)
(0.160779 -0.00284519 0 -0.00220917 0.182697 0 0 0 0)
(0.16251 -0.00197791 0 -0.00175711 0.18243 0 0 0 0)
(0.16382 -0.00199366 0 -0.00127352 0.182323 0 0 0 0)
(0.164024 -0.000373847 0 -0.00079298 0.182007 0 0 0 0)
(0.164541 -0.00346857 0 -9.5356e-05 0.182369 0 0 0 0)
(0.162818 9.56906e-05 0 0.000355247 0.181464 0 0 0 0)
(0.159041 5.91337e-05 0 0.00124918 0.182587 0 0 0 0)
(0.156307 0.00141284 0 0.00230702 0.182008 0 0 0 0)
(0.153073 -0.000814411 0 0.00313126 0.183127 0 0 0 0)