/*--------------------------------*- C++ -*----------------------------------*\
| =========                 |                                                 |
| \\      /  F ield         | OpenFOAM: The Open Source CFD Toolbox           |
|  \\    /   O peration     | Version:  v1912                                 |
|   \\  /    A nd           | Website:  www.openfoam.com                      |
|    \\/     M anipulation  |                                                 |
\*---------------------------------------------------------------------------*/
FoamFile
{
    version     2.0;
    format      ascii;
    class       volScalarField;
    location    "0.00018";
    object      iDofMean;
}
// * * * * * * * * * * * * * * * * * * * * * * * * * * * * * * * * * * * * * //

dimensions      [0 -3 0 0 0 0 0];


internalField   nonuniform List<scalar> 
1300
(
3.8e+23
3.777777778e+23
9.355555556e+23
2.557777778e+24
1.457777778e+24
1.022222222e+24
1.446666667e+24
1.517777778e+24
1.28e+24
1.26e+24
4.555555556e+23
4.4e+23
1.386666667e+24
4.428888889e+24
2.186666667e+24
1.322222222e+24
2.175555556e+24
2.297777778e+24
1.622222222e+24
1.522222222e+24
2.288888889e+23
2.577777778e+23
1.28e+24
4.588888889e+24
2.102222222e+24
1.282222222e+24
2.426666667e+24
2.855555556e+24
1.948888889e+24
1.871111111e+24
1.4e+23
1.533333333e+23
1.131111111e+24
4.302222222e+24
2.013333333e+24
1.213333333e+24
2.462222222e+24
3.308888889e+24
2.111111111e+24
2.06e+24
8.444444444e+22
1.222222222e+23
1.206666667e+24
4.226666667e+24
1.926666667e+24
1.022222222e+24
2.275555556e+24
2.964444444e+24
2.311111111e+24
2.117777778e+24
6.888888889e+22
7.777777778e+22
1.113333333e+24
4.242222222e+24
1.835555556e+24
9.888888889e+23
2.208888889e+24
2.731111111e+24
2.133333333e+24
2.031111111e+24
4e+22
1e+23
1.164444444e+24
4.248888889e+24
1.822222222e+24
8.622222222e+23
2.091111111e+24
2.646666667e+24
2.057777778e+24
1.891111111e+24
4.666666667e+22
5.111111111e+22
1.226666667e+24
4.222222222e+24
1.846666667e+24
1.044444444e+24
2.091111111e+24
2.708888889e+24
1.891111111e+24
1.817777778e+24
2.888888889e+22
6.444444444e+22
1.168888889e+24
4.311111111e+24
1.833333333e+24
1.02e+24
2.237777778e+24
2.588888889e+24
1.975555556e+24
1.746666667e+24
2e+22
5.111111111e+22
1.115555556e+24
4.186666667e+24
1.911111111e+24
1.006666667e+24
2.011111111e+24
2.771111111e+24
2.02e+24
1.642222222e+24
2.222222222e+22
4.888888889e+22
1.184444444e+24
4.297777778e+24
1.844444444e+24
9.866666667e+23
2.095555556e+24
2.775555556e+24
1.982222222e+24
1.824444444e+24
2e+22
4.888888889e+22
1.117777778e+24
4.126666667e+24
1.86e+24
8.955555556e+23
2.171111111e+24
2.682222222e+24
1.873333333e+24
1.842222222e+24
6.666666667e+21
3.555555556e+22
1.071111111e+24
4.331111111e+24
1.864444444e+24
9.444444444e+23
2.104444444e+24
2.737777778e+24
1.94e+24
1.775555556e+24
1.111111111e+22
2.888888889e+22
1.131111111e+24
4.271111111e+24
1.842222222e+24
9.488888889e+23
2.082222222e+24
2.74e+24
1.917777778e+24
1.755555556e+24
6.666666667e+21
3.111111111e+22
1.135555556e+24
4.104444444e+24
1.835555556e+24
9.177777778e+23
2.026666667e+24
2.768888889e+24
1.986666667e+24
1.715555556e+24
6.666666667e+21
4.444444444e+22
1.171111111e+24
4.355555556e+24
1.764444444e+24
1.006666667e+24
2.146666667e+24
2.617777778e+24
1.94e+24
1.686666667e+24
1.111111111e+22
2.888888889e+22
1.166666667e+24
4.131111111e+24
1.762222222e+24
1.044444444e+24
2.24e+24
2.582222222e+24
1.951111111e+24
1.808888889e+24
4.444444444e+21
1.555555556e+22
1.175555556e+24
4.202222222e+24
1.802222222e+24
1.013333333e+24
2.031111111e+24
2.7e+24
1.971111111e+24
1.755555556e+24
4.444444444e+21
3.333333333e+22
1.133333333e+24
4.324444444e+24
1.806666667e+24
9.911111111e+23
1.933333333e+24
2.686666667e+24
1.922222222e+24
1.657777778e+24
4.444444444e+21
2e+22
1.002222222e+24
4.002222222e+24
1.735555556e+24
1.048888889e+24
2.028888889e+24
2.58e+24
1.922222222e+24
1.773333333e+24
1.273992907e+24
1.101930638e+24
1.098269748e+24
1.047017159e+24
1.0525085e+24
9.756296258e+23
1.076304353e+24
1.13670918e+24
1.010408168e+24
1.100100197e+24
9.994254621e+23
1.213588071e+24
1.100100197e+24
1.059830298e+24
1.184300878e+24
1.211757622e+24
1.120235133e+24
1.123896042e+24
1.241044815e+24
1.138539629e+24
1.153183235e+24
1.193453126e+24
1.131217831e+24
1.153183235e+24
1.198944474e+24
1.272162447e+24
1.301449651e+24
1.389311231e+24
1.572356176e+24
1.537577647e+24
1.510120903e+24
1.273992897e+24
1.153183235e+24
1.140370088e+24
1.155013675e+24
1.13121784e+24
1.112913344e+24
1.131217831e+24
1.17331818e+24
1.061660756e+24
1.111082886e+24
1.070813004e+24
1.21907942e+24
1.122065583e+24
1.138539639e+24
1.114743794e+24
1.13304828e+24
1.050678059e+24
1.182470428e+24
1.26117975e+24
1.184300878e+24
1.156844134e+24
1.239214355e+24
1.224570769e+24
1.180639979e+24
1.30144964e+24
1.233723016e+24
1.327075945e+24
1.341719531e+24
1.427750672e+24
1.901837113e+24
1.671200452e+24
1.464359664e+24
1.332567294e+24
1.34354998e+24
1.26301021e+24
1.21907942e+24
1.160505024e+24
1.193453126e+24
1.153183235e+24
1.118404684e+24
1.13121784e+24
1.08728705e+24
1.169657272e+24
1.180639979e+24
1.171487731e+24
1.129387381e+24
1.158674584e+24
1.213588071e+24
1.147691877e+24
1.222740319e+24
1.231892567e+24
1.140370079e+24
1.195283575e+24
1.167826832e+24
1.224570759e+24
1.21907942e+24
1.328906395e+24
1.42775066e+24
1.308771449e+24
2.282570625e+24
2.094034302e+24
1.837771378e+24
1.682183164e+24
1.634591461e+24
1.451546517e+24
1.449716067e+24
1.453376954e+24
1.334397743e+24
1.268501559e+24
1.323415035e+24
1.231892567e+24
1.259349311e+24
1.197114015e+24
1.202605374e+24
1.211757622e+24
1.145861427e+24
1.171487731e+24
1.151352786e+24
1.147691877e+24
1.248366613e+24
1.231892567e+24
1.252027502e+24
1.292297403e+24
1.358193588e+24
1.156844125e+24
1.336228193e+24
1.314262798e+24
1.330736833e+24
1.295958302e+24
2.624864697e+24
2.43632837e+24
2.161760953e+24
2.059255777e+24
1.947598336e+24
1.771875193e+24
1.722453054e+24
1.599812919e+24
1.601643382e+24
1.449716067e+24
1.381989421e+24
1.34904134e+24
1.319754147e+24
1.339889081e+24
1.255688412e+24
1.299619201e+24
1.281314695e+24
1.242875264e+24
1.283145155e+24
1.231892557e+24
1.264840659e+24
1.299619202e+24
1.213588061e+24
1.301449651e+24
1.268501558e+24
1.288636493e+24
1.361854487e+24
1.314262798e+24
1.220909859e+24
1.244705714e+24
2.34846681e+24
2.591916583e+24
2.366771306e+24
2.300875121e+24
2.214843973e+24
2.128812861e+24
1.920141609e+24
1.84692361e+24
1.671200466e+24
1.727944403e+24
1.632761011e+24
1.577847537e+24
1.508290453e+24
1.563203928e+24
1.433242021e+24
1.39480258e+24
1.477172798e+24
1.290466954e+24
1.34721089e+24
1.356363127e+24
1.361854487e+24
1.323415046e+24
1.308771439e+24
1.255688412e+24
1.361854487e+24
1.327075934e+24
1.290466954e+24
1.338058643e+24
1.257518851e+24
1.361854487e+24
2.121491062e+24
2.461954664e+24
2.412532546e+24
2.410702096e+24
2.425345673e+24
2.337484113e+24
2.216674441e+24
2.134304192e+24
2.092203869e+24
1.978715996e+24
1.815805968e+24
1.788349239e+24
1.618117428e+24
1.651065507e+24
1.555882142e+24
1.599812932e+24
1.479003248e+24
1.607134731e+24
1.442394269e+24
1.400293917e+24
1.455207416e+24
1.400293928e+24
1.435072458e+24
1.371006735e+24
1.363684937e+24
1.380158971e+24
1.363684937e+24
1.394802579e+24
1.451546505e+24
1.299619201e+24
2.1745741e+24
2.299044653e+24
2.35029726e+24
2.278909727e+24
2.52052905e+24
2.646830092e+24
2.460124235e+24
2.284401056e+24
2.326501415e+24
2.233148487e+24
2.079390705e+24
2.017155436e+24
1.965902848e+24
1.865228106e+24
1.802992836e+24
1.792010138e+24
1.63825236e+24
1.700487659e+24
1.56503439e+24
1.570525726e+24
1.500968655e+24
1.645574172e+24
1.497307744e+24
1.61262608e+24
1.486325058e+24
1.517442689e+24
1.380158983e+24
1.466190113e+24
1.398463467e+24
1.422259323e+24
2.062916676e+24
2.150778238e+24
2.072068924e+24
2.202030844e+24
2.213013523e+24
2.461954684e+24
2.474767832e+24
2.449141517e+24
2.520529071e+24
2.322840516e+24
2.278909708e+24
2.291722874e+24
2.099525668e+24
2.051933962e+24
2.042781731e+24
1.947598353e+24
1.894515299e+24
1.768214294e+24
1.837771378e+24
1.704148544e+24
1.727944403e+24
1.680352714e+24
1.669370003e+24
1.627269676e+24
1.716961706e+24
1.581508424e+24
1.643743722e+24
1.557712592e+24
1.594321571e+24
1.449716067e+24
2.009833638e+24
2.238639817e+24
1.975055096e+24
2.042781731e+24
2.22582667e+24
2.200200394e+24
2.370432205e+24
2.339314543e+24
2.429006592e+24
2.641338743e+24
2.363110388e+24
2.472937382e+24
2.441819739e+24
2.282570607e+24
2.147117357e+24
2.147117357e+24
2.075729806e+24
1.9567506e+24
2.070238474e+24
1.925632942e+24
1.883532617e+24
1.841432277e+24
1.810314619e+24
1.779196991e+24
1.795671037e+24
1.718792141e+24
1.716961706e+24
1.662048218e+24
1.737096637e+24
1.65289597e+24
2.057425327e+24
2.229487569e+24
2.112338815e+24
2.075729823e+24
2.079390705e+24
2.253283432e+24
2.194709046e+24
2.271587909e+24
2.405210747e+24
2.397888949e+24
2.388736682e+24
2.511376823e+24
2.504055025e+24
2.425345673e+24
2.412532546e+24
2.333823214e+24
2.381414883e+24
2.278909726e+24
2.070238474e+24
2.097695201e+24
1.934785205e+24
1.998850941e+24
1.97505508e+24
1.839601827e+24
1.863397672e+24
1.916480694e+24
1.82678868e+24
1.813975533e+24
1.72428349e+24
1.839601827e+24
2.011664088e+24
2.214843973e+24
2.009833638e+24
2.028138134e+24
2.008003172e+24
2.183726348e+24
2.066577575e+24
2.132473742e+24
2.30636647e+24
2.337484113e+24
2.407041177e+24
2.423515243e+24
2.520529071e+24
2.350297241e+24
2.456463336e+24
2.476598281e+24
2.359449488e+24
2.267927029e+24
2.421684794e+24
2.293553304e+24
2.216674441e+24
2.106847466e+24
2.115999696e+24
2.123321512e+24
1.995190042e+24
2.070238457e+24
1.943937453e+24
1.954920151e+24
1.995190025e+24
1.925632958e+24
2.070238474e+24
2.088542953e+24
1.993359592e+24
2.00068139e+24
2.115999696e+24
2.156269604e+24
2.084882071e+24
2.011664071e+24
2.331992764e+24
2.214843991e+24
2.214843973e+24
2.421684794e+24
2.370432206e+24
2.549816243e+24
2.571781659e+24
2.65598234e+24
2.450971967e+24
2.511376823e+24
2.335653664e+24
2.485750509e+24
2.273418378e+24
2.363110407e+24
2.293553304e+24
2.128812861e+24
2.141626008e+24
2.081221155e+24
2.13430421e+24
2.00068139e+24
2.073899356e+24
2.035459932e+24
2.013494537e+24
2.231318019e+24
2.008003189e+24
2.00068139e+24
1.986037777e+24
2.042781731e+24
2.09037342e+24
1.940276538e+24
2.070238474e+24
2.247792084e+24
2.033629466e+24
2.147117357e+24
2.346636361e+24
2.150778238e+24
2.478428731e+24
2.355788609e+24
2.498563655e+24
2.593747054e+24
2.483920079e+24
2.447311068e+24
2.493072327e+24
2.364940857e+24
2.399719379e+24
2.403380298e+24
2.165421853e+24
2.339314543e+24
2.280740176e+24
2.202030844e+24
2.26792701e+24
2.198369945e+24
2.022646785e+24
2.1013561e+24
1.997020491e+24
2.020816336e+24
1.980546429e+24
2.08854297e+24
2.070238474e+24
2.042781714e+24
2.115999714e+24
1.989698693e+24
1.986037777e+24
2.196539495e+24
2.282570625e+24
2.048273063e+24
2.30453602e+24
2.339314563e+24
2.295383754e+24
2.551646714e+24
2.425345693e+24
2.489411408e+24
2.562629411e+24
2.366771306e+24
2.434497921e+24
2.423515243e+24
2.447311088e+24
2.291722854e+24
2.205691743e+24
2.271587928e+24
2.205691725e+24
2.302705571e+24
2.112338815e+24
2.161760936e+24
2.015324987e+24
1.998850941e+24
2.092203852e+24
2.200200395e+24
1.931124306e+24
2.037290365e+24
2.207522193e+24
2.125151962e+24
2.01715542e+24
2.020816336e+24
2.018985886e+24
2.077560256e+24
2.222165789e+24
2.191048147e+24
2.278909708e+24
2.359449508e+24
2.39422805e+24
2.416193425e+24
2.531511769e+24
2.48025918e+24
2.575442537e+24
2.405210747e+24
2.43815884e+24
2.445480618e+24
2.293553323e+24
2.315518718e+24
2.350297241e+24
2.293553323e+24
1.969563747e+24
2.064747109e+24
2.169082752e+24
1.905498012e+24
2.039120815e+24
2.051933979e+24
2.051933979e+24
2.039120815e+24
2.061086226e+24
2.13064331e+24
2.126982394e+24
2.112338815e+24
2.234978937e+24
2.009833622e+24
2.213013542e+24
2.17640455e+24
2.169082734e+24
2.141626008e+24
2.277079277e+24
2.39422803e+24
2.419854344e+24
2.496733226e+24
2.612051528e+24
2.52602042e+24
2.575442558e+24
2.566290289e+24
2.615712449e+24
2.478428731e+24
2.421684774e+24
2.485750529e+24
2.031799033e+24
2.084882054e+24
1.995190042e+24
1.993359592e+24
2.000681374e+24
2.141626008e+24
1.991529143e+24
1.942106988e+24
2.115999714e+24
1.953089701e+24
2.105016999e+24
2.040951281e+24
2.136134659e+24
2.110508348e+24
2.139795558e+24
2.148947806e+24
2.236809368e+24
2.225826689e+24
2.170913201e+24
2.220335322e+24
2.275248827e+24
2.342975462e+24
2.35395814e+24
2.458293785e+24
2.566290311e+24
2.441819719e+24
2.665134588e+24
2.547985815e+24
2.582764335e+24
2.452802437e+24
1.951259252e+24
2.137965091e+24
1.918311159e+24
1.834110479e+24
1.905497996e+24
2.097695218e+24
1.9604115e+24
1.953089685e+24
1.982376895e+24
2.04644263e+24
2.031799016e+24
2.050103529e+24
2.073899374e+24
2.01715542e+24
2.017155437e+24
2.150778256e+24
2.037290365e+24
2.211183092e+24
2.159930504e+24
2.244131166e+24
2.267927029e+24
2.189217697e+24
2.348466791e+24
2.293553323e+24
2.390567151e+24
2.498563655e+24
2.450971987e+24
2.516868172e+24
2.469276462e+24
2.694421781e+24
2.075729823e+24
2.081221155e+24
1.9604115e+24
2.061086227e+24
2.070238457e+24
1.978715995e+24
1.998850941e+24
1.925632942e+24
2.029968584e+24
1.907328462e+24
1.93295474e+24
1.947598352e+24
1.973224647e+24
2.008003172e+24
1.954920151e+24
2.028138134e+24
2.070238457e+24
2.026307685e+24
2.094034319e+24
2.077560256e+24
2.200200394e+24
2.161760953e+24
2.154439137e+24
2.255113882e+24
2.337484113e+24
2.322840497e+24
2.229487588e+24
2.403380298e+24
2.410702076e+24
2.505885474e+24
1.344444444e+24
1.302222222e+24
1.326666667e+24
1.246666667e+24
1.22e+24
1.193333333e+24
1.191111111e+24
1.066666667e+24
1.011111111e+24
8.488888889e+23
1.577777778e+24
1.56e+24
1.437777778e+24
1.477777778e+24
1.515555556e+24
1.553333333e+24
1.426666667e+24
1.36e+24
1.211111111e+24
1.106666667e+24
1.415555556e+24
1.353333333e+24
1.451111111e+24
1.473333333e+24
1.426666667e+24
1.382222222e+24
1.415555556e+24
1.368888889e+24
1.115555556e+24
1.015555556e+24
1.324444444e+24
1.273333333e+24
1.457777778e+24
1.435555556e+24
1.408888889e+24
1.397777778e+24
1.231111111e+24
1.317777778e+24
1.151111111e+24
1.082222222e+24
1.197777778e+24
1.282222222e+24
1.284444444e+24
1.333333333e+24
1.344444444e+24
1.315555556e+24
1.413333333e+24
1.253333333e+24
1.157777778e+24
1.166666667e+24
1.375555556e+24
1.331111111e+24
1.195555556e+24
1.348888889e+24
1.302222222e+24
1.293333333e+24
1.302222222e+24
1.233333333e+24
1.233333333e+24
1.293333333e+24
1.366666667e+24
1.3e+24
1.346666667e+24
1.315555556e+24
1.251111111e+24
1.331111111e+24
1.228888889e+24
1.264444444e+24
1.195555556e+24
1.222222222e+24
1.444444444e+24
1.373333333e+24
1.357777778e+24
1.251111111e+24
1.426666667e+24
1.337777778e+24
1.248888889e+24
1.311111111e+24
1.217777778e+24
1.215555556e+24
1.52e+24
1.513333333e+24
1.477777778e+24
1.4e+24
1.44e+24
1.377777778e+24
1.38e+24
1.264444444e+24
1.291111111e+24
1.28e+24
1.6e+24
1.593333333e+24
1.588888889e+24
1.515555556e+24
1.442222222e+24
1.52e+24
1.357777778e+24
1.335555556e+24
1.431111111e+24
1.3e+24
1.697777778e+24
1.648888889e+24
1.806666667e+24
1.662222222e+24
1.628888889e+24
1.524444444e+24
1.524444444e+24
1.586666667e+24
1.493333333e+24
1.428888889e+24
1.797777778e+24
1.886666667e+24
1.842222222e+24
1.748888889e+24
1.782222222e+24
1.811111111e+24
1.66e+24
1.684444444e+24
1.495555556e+24
1.597777778e+24
2.013333333e+24
2.137777778e+24
1.995555556e+24
1.875555556e+24
1.962222222e+24
1.9e+24
1.782222222e+24
1.94e+24
1.737777778e+24
1.74e+24
2.062222222e+24
2.077777778e+24
2.148888889e+24
2.071111111e+24
2.08e+24
2.055555556e+24
2.004444444e+24
2.008888889e+24
1.96e+24
1.926666667e+24
2.18e+24
2.104444444e+24
2.066666667e+24
2.188888889e+24
2.191111111e+24
2.042222222e+24
2.113333333e+24
2.066666667e+24
2.095555556e+24
2.033333333e+24
2.246666667e+24
2.302222222e+24
2.322222222e+24
2.293333333e+24
2.311111111e+24
2.211111111e+24
2.271111111e+24
2.157777778e+24
2.146666667e+24
2.166666667e+24
2.428888889e+24
2.493333333e+24
2.417777778e+24
2.342222222e+24
2.168888889e+24
2.408888889e+24
2.255555556e+24
2.333333333e+24
2.26e+24
2.333333333e+24
2.437777778e+24
2.406666667e+24
2.444444444e+24
2.473333333e+24
2.531111111e+24
2.477777778e+24
2.428888889e+24
2.413333333e+24
2.393333333e+24
2.36e+24
2.46e+24
2.4e+24
2.524444444e+24
2.426666667e+24
2.473333333e+24
2.435555556e+24
2.553333333e+24
2.308888889e+24
2.6e+24
2.497777778e+24
2.482222222e+24
2.502222222e+24
2.471111111e+24
2.537777778e+24
2.38e+24
2.42e+24
2.406666667e+24
2.442222222e+24
2.406666667e+24
2.471111111e+24
1.042180465e+24
1.312619687e+24
1.207082437e+24
1.187294201e+24
1.187294189e+24
1.178499429e+24
1.191691587e+24
1.064167384e+24
1.182896815e+24
1.310421007e+24
1.251056284e+24
1.237864139e+24
1.20928113e+24
1.24006282e+24
1.165307271e+24
1.244460218e+24
1.209281118e+24
1.273043226e+24
1.25325499e+24
1.226870662e+24
1.330209243e+24
1.317017086e+24
1.369785703e+24
1.411560883e+24
1.332407936e+24
1.422554334e+24
1.435746506e+24
1.426951734e+24
1.440143877e+24
1.308222314e+24
1.212194145e+24
1.54807741e+24
1.483484487e+24
1.530852642e+24
1.498556158e+24
1.425350842e+24
1.393054373e+24
1.470565885e+24
1.537311936e+24
1.573914601e+24
1.530852627e+24
1.498556173e+24
1.535158838e+24
1.554536704e+24
1.496403075e+24
1.582526993e+24
1.410279143e+24
1.623435854e+24
1.638507539e+24
1.511474746e+24
1.668650911e+24
1.610517266e+24
1.612670348e+24
1.720325261e+24
1.614823462e+24
1.728937636e+24
1.780612004e+24
1.806449179e+24
1.787071281e+24
1.660038519e+24
1.052568421e+24
1.501861139e+24
1.522954709e+24
1.533501487e+24
1.634750538e+24
1.436471132e+24
1.457564687e+24
1.501861139e+24
1.438580487e+24
1.470220821e+24
1.491314362e+24
1.37108111e+24
1.474439532e+24
1.459674029e+24
1.518735998e+24
1.58412602e+24
1.455455318e+24
1.550376332e+24
1.58412602e+24
1.432252407e+24
1.525064065e+24
1.552485687e+24
1.569360517e+24
1.503970509e+24
1.579907309e+24
1.630531827e+24
1.776077376e+24
1.693812509e+24
1.795061559e+24
1.474439532e+24
1.143247376e+24
1.46988947e+24
1.529842782e+24
1.531910137e+24
1.471956825e+24
1.349982887e+24
1.420272961e+24
1.414070883e+24
1.449215933e+24
1.372723794e+24
1.362387005e+24
1.333444046e+24
1.383060569e+24
1.335511389e+24
1.527775427e+24
1.513303941e+24
1.393397332e+24
1.523640717e+24
1.428542381e+24
1.378925846e+24
1.445081222e+24
1.4967651e+24
1.562920449e+24
1.59393079e+24
1.533977492e+24
1.498832441e+24
1.695231191e+24
1.684894415e+24
1.779992734e+24
1.527775427e+24
1.102685062e+24
1.384437298e+24
1.427004198e+24
1.491868025e+24
1.479706044e+24
1.491868025e+24
1.232412716e+24
1.349978391e+24
1.356059387e+24
1.431058187e+24
1.331735439e+24
1.341870424e+24
1.349978403e+24
1.242547678e+24
1.439166165e+24
1.386464306e+24
1.441193147e+24
1.368221354e+24
1.451328133e+24
1.337816423e+24
1.453355127e+24
1.384437311e+24
1.443220141e+24
1.51619196e+24
1.552677863e+24
1.528353914e+24
1.611460706e+24
1.682405517e+24
1.698621458e+24
1.528353927e+24
1.089522535e+24
1.411607652e+24
1.338045011e+24
1.411607664e+24
1.375820415e+24
1.371844068e+24
1.278399617e+24
1.33208046e+24
1.34997409e+24
1.357926809e+24
1.296293224e+24
1.363891349e+24
1.260505999e+24
1.224718751e+24
1.363891349e+24
1.387749506e+24
1.357926797e+24
1.427513103e+24
1.403654945e+24
1.33605682e+24
1.34599773e+24
1.429501283e+24
1.383773135e+24
1.427513103e+24
1.477217598e+24
1.564697495e+24
1.509028475e+24
1.658141961e+24
1.666094665e+24
1.618378364e+24
9.773626296e+23
1.310953456e+24
1.309002644e+24
1.344117469e+24
1.307051809e+24
1.289494408e+24
1.213412287e+24
1.217313923e+24
1.205608992e+24
1.246576288e+24
1.209510629e+24
1.250477935e+24
1.260232053e+24
1.293396043e+24
1.305100996e+24
1.385084764e+24
1.320707574e+24
1.342166645e+24
1.371428999e+24
1.406543812e+24
1.394838883e+24
1.37728147e+24
1.373379811e+24
1.42019959e+24
1.476773474e+24
1.467019343e+24
1.548953948e+24
1.568462184e+24
1.712823116e+24
1.611380304e+24
9.076366759e+23
1.271457273e+24
1.206352544e+24
1.311669036e+24
1.192948616e+24
1.208267389e+24
1.152736875e+24
1.026357076e+24
1.27337213e+24
1.24464945e+24
1.152736865e+24
1.214011925e+24
1.263797903e+24
1.223586141e+24
1.304009655e+24
1.233160378e+24
1.307839334e+24
1.225500997e+24
1.217841616e+24
1.334647168e+24
1.261883058e+24
1.325072953e+24
1.290605726e+24
1.317413572e+24
1.346136251e+24
1.394007372e+24
1.468686351e+24
1.552939545e+24
1.635277879e+24
1.551024699e+24
9.2504366e+23
1.257833747e+24
1.090498624e+24
1.051015053e+24
1.086738274e+24
1.175106275e+24
1.158184745e+24
1.197668306e+24
1.098019304e+24
1.163825255e+24
1.111180485e+24
1.116821004e+24
1.184507126e+24
1.182626946e+24
1.282275968e+24
1.301077668e+24
1.293556977e+24
1.176986446e+24
1.291676818e+24
1.207069156e+24
1.257833757e+24
1.239032057e+24
1.252193237e+24
1.340561239e+24
1.299197498e+24
1.376284458e+24
1.3744043e+24
1.462772292e+24
1.663950472e+24
1.598144535e+24
7.867062478e+23
1.167132264e+24
9.861529022e+23
1.067408947e+24
1.056328568e+24
1.067408947e+24
1.048941664e+24
1.120964057e+24
1.108036969e+24
1.104343512e+24
1.148664981e+24
1.146818263e+24
1.146818263e+24
1.207760286e+24
1.054481849e+24
1.176365915e+24
1.159745351e+24
1.137584621e+24
1.172672459e+24
1.196679916e+24
1.191139741e+24
1.130197708e+24
1.159745351e+24
1.154205176e+24
1.30009671e+24
1.246541579e+24
1.318563993e+24
1.447834973e+24
1.505083537e+24
1.53647793e+24
)
;

boundaryField
{
    inlet
    {
        type            calculated;
        value           nonuniform List<scalar> 
20
(
3.8e+23
4.555555556e+23
2.288888889e+23
1.4e+23
8.444444444e+22
6.888888889e+22
4e+22
4.666666667e+22
2.888888889e+22
2e+22
2.222222222e+22
2e+22
6.666666667e+21
1.111111111e+22
6.666666667e+21
6.666666667e+21
1.111111111e+22
4.444444444e+21
4.444444444e+21
4.444444444e+21
)
;
    }
    outlet
    {
        type            calculated;
        value           nonuniform List<scalar> 
70
(
8.488888889e+23
1.106666667e+24
1.015555556e+24
1.082222222e+24
1.166666667e+24
1.293333333e+24
1.222222222e+24
1.215555556e+24
1.28e+24
1.3e+24
1.428888889e+24
1.597777778e+24
1.74e+24
1.926666667e+24
2.033333333e+24
2.166666667e+24
2.333333333e+24
2.36e+24
2.497777778e+24
2.471111111e+24
4.444444444e+21
2e+22
1.002222222e+24
4.002222222e+24
1.735555556e+24
1.048888889e+24
2.028888889e+24
2.58e+24
1.922222222e+24
1.773333333e+24
2.075729823e+24
2.081221155e+24
1.9604115e+24
2.061086227e+24
2.070238457e+24
1.978715995e+24
1.998850941e+24
1.925632942e+24
2.029968584e+24
1.907328462e+24
1.93295474e+24
1.947598352e+24
1.973224647e+24
2.008003172e+24
1.954920151e+24
2.028138134e+24
2.070238457e+24
2.026307685e+24
2.094034319e+24
2.077560256e+24
2.200200394e+24
2.161760953e+24
2.154439137e+24
2.255113882e+24
2.337484113e+24
2.322840497e+24
2.229487588e+24
2.403380298e+24
2.410702076e+24
2.505885474e+24
2.482222222e+24
2.502222222e+24
2.471111111e+24
2.537777778e+24
2.38e+24
2.42e+24
2.406666667e+24
2.442222222e+24
2.406666667e+24
2.471111111e+24
)
;
    }
    wall
    {
        type            calculated;
        value           uniform 7.222222222e-301;
    }
    frontAndBack
    {
        type            empty;
    }
}


// ************************************************************************* //
