/*--------------------------------*- C++ -*----------------------------------*\
| =========                 |                                                 |
| \\      /  F ield         | OpenFOAM: The Open Source CFD Toolbox           |
|  \\    /   O peration     | Version:  v1912                                 |
|   \\  /    A nd           | Website:  www.openfoam.com                      |
|    \\/     M anipulation  |                                                 |
\*---------------------------------------------------------------------------*/
FoamFile
{
    version     2.0;
    format      ascii;
    class       volScalarField;
    location    "3";
    object      s;
}
// * * * * * * * * * * * * * * * * * * * * * * * * * * * * * * * * * * * * * //

dimensions      [0 2 -2 0 0 0 0];


internalField   nonuniform List<scalar> 
10000
(
-2.65887e-24
3.03211e-21
-3.40623e-19
-2.69752e-17
4.92104e-15
-5.01003e-13
1.03124e-10
4.96848e-09
4.56204e-08
9.37151e-08
-9.58059e-08
-8.10969e-08
3.1007e-07
-3.91939e-07
2.0891e-07
2.08525e-07
-7.11773e-07
1.11371e-06
-1.26558e-06
1.10186e-06
-6.48559e-07
4.53355e-10
7.15286e-07
-1.3637e-06
1.83925e-06
-2.095e-06
2.10837e-06
-1.88695e-06
1.50677e-06
-1.04215e-06
5.35449e-07
-6.54617e-08
-3.12528e-07
5.94158e-07
-7.53197e-07
7.99816e-07
-7.65148e-07
6.60535e-07
-5.24062e-07
3.80086e-07
-2.43579e-07
1.34819e-07
-5.48708e-08
4.76451e-09
1.88433e-08
-2.55063e-08
2.13855e-08
-1.33798e-08
6.2514e-09
-1.70416e-09
6.11762e-11
3.54659e-10
5.27e-10
-1.05305e-09
-3.45807e-09
-7.34609e-09
-1.59622e-08
-2.54043e-08
-3.51532e-08
-4.84917e-08
-5.51404e-08
-5.54837e-08
-5.39288e-08
-3.18513e-08
-6.06603e-10
3.29568e-08
9.49548e-08
1.51251e-07
1.94666e-07
2.61131e-07
2.95849e-07
2.81729e-07
2.7269e-07
2.36992e-07
1.48611e-07
5.30622e-08
-3.88643e-08
-1.29162e-07
-1.93829e-07
-2.19469e-07
-2.04932e-07
-1.54452e-07
-8.23974e-08
-9.98562e-09
4.18849e-08
6.03953e-08
4.70299e-08
1.76448e-08
-6.24381e-09
-1.17102e-08
-3.56171e-09
3.06662e-09
-3.55174e-10
5.48924e-12
3.35939e-14
-9.8468e-17
-1.72224e-17
-4.08933e-19
-2.73095e-21
-2.26588e-24
-3.18133e-21
2.24384e-18
-3.21636e-16
-5.47245e-15
3.83268e-12
-5.16564e-10
-1.13391e-07
-2.08136e-06
-1.01231e-05
-7.99442e-06
1.98804e-05
-9.26143e-06
-1.8584e-05
4.5336e-05
-5.37177e-05
3.63919e-05
2.65597e-06
-5.18065e-05
9.71379e-05
-0.000126819
0.000133972
-0.000117596
8.03857e-05
-2.87874e-05
-2.67437e-05
7.98006e-05
-0.000126593
0.000157957
-0.000170609
0.000170435
-0.000156492
0.000128784
-9.635e-05
6.07118e-05
-2.45577e-05
-5.28841e-06
3.00646e-05
-4.71166e-05
5.53516e-05
-5.77007e-05
5.32513e-05
-4.49194e-05
3.47529e-05
-2.34695e-05
1.37517e-05
-5.88822e-06
3.57988e-07
2.35953e-06
-3.18331e-06
2.78101e-06
-1.41532e-06
1.89997e-07
-3.86866e-07
-1.80508e-06
-2.30244e-06
-2.92203e-06
-4.55302e-06
-4.15544e-06
-3.86491e-06
-3.94543e-06
-4.62926e-07
1.29138e-06
4.06561e-06
1.03875e-05
1.16578e-05
1.62075e-05
2.17168e-05
1.92436e-05
2.23065e-05
2.37616e-05
1.452e-05
1.0162e-05
8.47134e-06
-9.98897e-07
-1.03635e-05
-1.47021e-05
-1.86927e-05
-2.14594e-05
-2.03481e-05
-1.64534e-05
-1.07255e-05
-3.96474e-06
2.28528e-06
6.55897e-06
7.94013e-06
6.40131e-06
3.00089e-06
-4.25078e-07
-2.13687e-06
-1.60254e-06
-1.59328e-08
6.85159e-07
-1.6379e-07
8.40793e-09
8.89186e-12
3.70928e-13
1.3818e-14
2.6308e-16
1.89351e-18
2.86483e-21
-4.40357e-19
3.64849e-16
-9.9326e-14
8.9122e-12
-5.69385e-10
5.22253e-07
1.77125e-05
0.000157155
0.000409569
-3.14527e-05
-0.000551851
0.000667703
-0.000190772
-0.000581451
0.00123515
-0.00147081
0.00119087
-0.000478641
-0.000476611
0.00145123
-0.0022401
0.00273273
-0.00287048
0.00258106
-0.00199585
0.00129484
-0.000385209
-0.000634425
0.00143217
-0.00205742
0.0026109
-0.0028733
0.00290049
-0.00279319
0.00243138
-0.00198269
0.00147007
-0.000879071
0.000371569
0.000117989
-0.00050871
0.000762674
-0.000942771
0.000966642
-0.000910613
0.000787079
-0.000579582
0.000397815
-0.000199852
2.01491e-05
2.49153e-05
-0.000176431
3.51593e-05
-0.000157106
-6.41415e-05
-2.86176e-05
-8.87227e-05
6.43974e-05
6.06808e-05
9.48992e-05
0.00027329
0.00018651
0.000327465
0.000390609
0.000235303
0.000448406
0.000304294
0.000157318
0.000360456
1.59886e-05
-0.000205441
-8.55801e-07
-0.000160822
-0.000431777
-0.000416667
-0.000363134
-0.000392024
-0.000350319
-0.000231842
-0.000113465
6.47378e-06
0.000116511
0.000186614
0.000202934
0.000164029
8.39582e-05
-6.12825e-06
-6.77468e-05
-7.37441e-05
-2.93452e-05
2.16353e-05
2.67419e-05
-1.32495e-05
1.57384e-06
-3.8446e-08
-2.31441e-10
-3.51492e-12
-4.7579e-14
-3.04064e-16
-4.97716e-19
1.44841e-17
1.38095e-15
-8.82194e-12
1.75285e-09
-9.515e-07
-5.31797e-05
-0.000765692
-0.00373349
-0.00489181
0.00411258
0.00288228
-0.00793408
0.0072705
-0.0018565
-0.00517785
0.0108088
-0.0132274
0.0120225
-0.00777997
0.00153833
0.00515393
-0.0111654
0.0165937
-0.0197497
0.0195591
-0.0191538
0.0179587
-0.0130816
0.00742419
-0.00311728
-0.00185652
0.00677168
-0.0104606
0.0140821
-0.0162449
0.0172295
-0.0176337
0.0163123
-0.0148346
0.0123698
-0.0093317
0.00660713
-0.00301611
0.000409368
0.00234269
-0.00463652
0.00549873
-0.00719663
0.00600054
-0.00675193
0.00429462
-0.00385437
0.00158616
-4.54281e-05
-0.000513724
0.00273625
-0.00063186
0.00320759
0.00134289
0.00167935
0.00354985
0.000236873
0.0032362
0.00117855
8.2417e-05
0.00319687
-0.00179145
0.000377297
0.000469471
-0.00558301
-0.000767958
0.000628142
-0.00460045
-0.00407669
-0.00163661
-0.00175548
-0.00213316
-0.00110157
1.82431e-06
0.000590681
0.00123071
0.00168582
0.00172198
0.00139096
0.000749308
-3.82391e-05
-0.000691383
-0.000927294
-0.00061677
4.27024e-05
0.000508922
0.000278006
-0.000330981
7.74011e-05
-5.4006e-06
6.9556e-08
4.20043e-10
4.07602e-12
2.06386e-14
2.82332e-17
3.90805e-15
-3.02353e-12
-5.05001e-10
8.897e-07
7.13397e-05
0.00154566
0.0121099
0.0341609
0.016344
-0.0361546
0.0106996
0.0229634
-0.0381107
0.0302527
-0.00805714
-0.0169607
0.0360283
-0.045025
0.0441284
-0.0338468
0.0171818
-0.00254868
-0.0152864
0.0379496
-0.0438128
0.0447193
-0.0582372
0.0612887
-0.0521133
0.0439529
-0.0348629
0.0262595
-0.0174679
0.00544372
0.0047661
-0.0155698
0.0262305
-0.0318342
0.0394728
-0.0412654
0.0429946
-0.044098
0.0387931
-0.0395878
0.0287995
-0.0275881
0.0148092
-0.0101294
0.000178276
0.00851668
-0.011679
0.0230612
-0.0180345
0.0294052
-0.0163094
0.0256094
-0.00647861
0.0124549
0.0061993
-0.00452523
0.0140965
-0.0138984
0.0115884
-0.00610449
-0.00323349
0.00867124
-0.022468
0.00358395
-0.0157724
-0.0188444
0.0224637
-0.0120935
-0.0275837
-0.000260683
0.00345034
-0.00493345
-0.00510839
0.0021576
0.00426217
0.0039179
0.00585117
0.00618557
0.00490584
0.00296237
0.00025166
-0.00247406
-0.00407744
-0.00365352
-0.00106877
0.00224521
0.00337388
0.000354064
-0.00311337
0.0013605
-0.000193221
8.69955e-06
-7.09027e-08
-2.98469e-10
-9.66141e-13
-6.65037e-16
3.73104e-13
-4.19568e-10
-4.23387e-07
-4.48386e-05
-0.00140298
-0.0166435
-0.0787812
-0.12574
0.0180002
0.0870647
-0.0752051
0.00907599
0.0419127
-0.0535868
0.0339294
-0.000617011
-0.0306313
0.0496237
-0.0586791
0.0601271
-0.039668
0.0248509
-0.0290516
-0.0121557
0.0407277
-0.0146237
0.0301764
-0.0547399
0.0607884
-0.0648986
0.0480343
-0.0471402
0.0465722
-0.0393706
0.0459123
-0.0340961
0.0286655
-0.0205156
0.000914931
-0.00356668
-0.0187131
0.0128949
-0.030067
0.028314
-0.0380505
0.0468533
-0.0413717
0.0598614
-0.0392332
0.0572739
-0.0297136
0.0427196
-0.0117291
0.0215558
0.0104095
-0.0094407
0.0278772
-0.0448604
0.0351291
-0.0602161
0.0346333
-0.041092
0.0194072
-0.00607423
-0.0282495
0.00959678
-0.0710756
0.0179586
-0.0157569
0.014057
0.0428728
-0.075699
-0.0277177
0.0391328
0.0161852
-0.0197091
-0.00929517
0.0194302
0.00743012
0.00424158
0.0122534
0.00914866
0.00622818
0.00375206
-0.00122257
-0.00552274
-0.00710646
-0.00473334
0.00157937
0.00788364
0.00684416
-0.00461183
-0.0112468
0.00963025
-0.0025077
0.000237754
-7.26205e-06
4.45218e-08
5.84278e-11
-1.98521e-14
6.95162e-11
7.45232e-08
1.13022e-05
0.000512461
0.00918928
0.0696704
0.207556
0.154088
-0.122312
-0.00497944
0.0442668
-0.027792
0.0132103
-0.0185403
0.034662
-0.0515708
0.0646501
-0.0612561
0.0414678
-0.0470327
0.0412826
0.0118152
0.0158832
-0.0307186
-0.037046
0.00894512
0.0122471
-0.00179474
-0.00313539
0.022159
0.00411316
0.0115538
-0.0022686
-0.00592248
-0.0122729
-0.00884205
-0.0291358
0.0113733
-0.0289441
0.019315
-0.0231137
0.0205751
-0.0038428
0.0348242
-0.000250325
0.0382825
-0.0100034
0.0246252
-0.00262847
0.00562268
0.0192221
-0.011586
0.0252813
-0.0329121
0.0107456
-0.0600451
0.00312086
-0.0646391
0.00872775
-0.0244807
-0.00181543
0.0169073
-0.0370452
0.0195798
-0.0807606
0.0141857
-0.0443964
0.0542844
0.0527206
-0.00795937
0.0118508
-0.0603524
-0.0194313
0.0988301
0.0369517
-0.0951387
0.0150185
0.0555638
-0.0208194
0.00459906
0.0179411
0.00332509
0.00922941
0.00837902
0.000346152
-0.00329789
-0.00596734
-0.00607997
-0.00132513
0.00442655
0.00261954
-0.0103561
-0.0117152
0.0259714
-0.0127946
0.00228464
-0.00014852
3.02164e-06
-1.33025e-08
4.42252e-12
-1.71462e-09
-4.76719e-07
-2.24741e-05
-0.000645391
-0.0120364
-0.0831593
-0.160054
0.0292866
0.040905
-0.102538
0.142237
-0.130026
0.0762678
-0.00999258
-0.0354559
0.0531908
-0.0719855
0.0881368
-0.051786
0.0188982
-0.075266
0.0485168
0.0111262
0.0466835
-0.0282286
0.00528629
-0.0229902
0.0225943
0.00129949
-0.0120767
-0.0236511
0.00415001
-0.0251509
-0.00906689
-0.00314566
0.00330873
0.0019711
0.00562904
-0.00157059
0.0306126
0.0178443
0.0148697
0.00850212
0.00167217
-0.00474637
0.00774729
-0.00513638
0.00511995
0.00447756
-0.0167883
0.011592
-0.0300842
-0.00283505
-0.0321286
-0.0212735
-0.0289637
-0.0100373
-0.0188687
0.00013755
0.00750443
-0.0165794
0.036697
-0.0181256
-0.00813502
-0.0288985
-0.0384389
0.0590737
0.0437498
0.0676516
-0.0601461
-0.015841
0.047129
-0.0441573
0.127814
-0.0420374
-0.141592
0.124717
0.00715647
-0.0731823
0.0227072
-0.0023332
-0.00847108
0.0153229
-0.000720343
-0.00810719
-0.00253066
-0.00888127
-0.0133547
-0.0109261
-0.00298684
0.00658022
0.00734253
0.00107281
0.0107137
-0.0195149
0.00780979
-0.00102311
4.3832e-05
-5.08071e-07
9.27598e-10
-4.24089e-08
-1.55e-05
-0.000896152
-0.0138436
-0.0653474
-0.0811356
-0.0333692
-0.0974291
0.0951028
0.0129354
-0.0883095
0.104575
-0.0970106
0.0702199
-0.0491536
0.0822927
-0.0941208
0.0350727
0.00120179
0.0492391
-0.0362727
-0.0380841
0.00355917
-0.0137972
0.0267608
0.00394708
0.0140373
-0.0156669
-0.00284635
0.0143864
-0.0112885
-0.0126029
-0.00197306
0.0159186
-0.000118741
-0.00803553
-0.000955823
0.00984567
-0.0131809
0.00965974
0.0127252
0.00206192
0.00401728
-0.00398643
-0.000268298
-0.0031755
1.44076e-06
0.010281
0.036305
0.00901575
0.0402588
-0.0231328
0.00975536
-0.0279695
0.00875446
0.0031245
0.00828804
0.000330311
-0.0161367
0.0105415
0.00973045
0.0333538
0.00804095
-0.0752048
-0.0204236
-0.0587946
0.07255
0.0231235
-0.0650844
-0.0442241
0.0626434
0.10937
-0.15471
-0.0246877
0.0243899
-0.000612011
0.0362726
-0.102087
-0.0446842
0.01474
-0.0133527
0.00506703
0.00341482
-0.0310933
-0.00408141
0.00820549
-0.0100232
-0.00795879
-0.0047759
-0.00148136
0.00533531
0.00501877
-0.0164551
-0.0314415
0.0255158
0.000762863
-0.00190767
0.000202024
-4.91769e-06
1.9044e-08
9.50599e-07
0.000189829
0.00661243
0.0653658
0.19451
0.0793428
-0.13294
0.0951111
0.00884854
-0.0445408
0.0125372
0.0284786
-0.00892427
-0.0202735
-0.0390078
0.0106043
0.0935372
-0.0685001
0.0060961
0.0192925
-0.0142912
0.0133916
0.00113037
0.021969
-0.0400625
0.00591944
0.0169995
-0.023156
0.00569479
-0.0567358
0.0388986
-0.000982208
0.00305887
-0.0561227
0.0296682
0.00283395
0.0186079
0.0215989
-0.0140405
0.00960172
-0.00303793
0.0302073
0.0164239
-0.00632726
0.0327197
-0.00274592
0.0428385
0.00934376
0.0244161
-0.00248145
-0.0120023
0.0130879
0.010683
0.0536386
-0.00146389
0.0221692
-0.0693798
-0.00302432
-0.0209037
0.0719142
0.0708064
0.00200555
-0.010453
-0.128644
-0.0186474
-0.0169636
0.0393267
0.0151915
-0.0975162
-0.0156331
0.133193
0.0313691
-0.15831
0.0770093
0.0937142
-0.022712
-0.0832288
-0.0693525
-0.000290207
0.0701996
0.0160473
-0.0195833
-0.0195891
-0.0170565
0.0518134
0.0066959
-0.024849
-0.00567787
-0.00806649
-0.00992719
-0.0116829
-0.00874814
0.00285998
0.0207982
0.0631392
-0.0409975
0.00513674
3.48659e-05
-1.3072e-05
1.16086e-07
-6.31911e-06
-0.000825989
-0.0187828
-0.116322
-0.166393
0.154026
0.155482
-0.136449
0.0640645
-0.0412046
0.0359791
-0.0639139
0.0399755
0.116971
-0.0732113
-0.0657302
-0.0556524
0.0977417
-0.0621916
0.0658602
-0.00654214
-0.064365
0.083522
-0.0633054
0.0807039
-0.0735933
0.0329265
-0.0395637
0.05797
0.00356031
-0.0536977
0.0149777
-0.0250767
0.0626125
-0.0363109
-0.000136932
0.0155304
-0.0251722
0.0286191
-0.0450193
0.0381835
-0.0351507
0.0300131
-0.0253835
0.0127501
0.0107471
-0.0133344
0.00285018
-0.0628699
0.00397737
-0.0213268
0.0685812
0.0322019
0.0729753
-0.010918
0.017424
-0.0220328
0.0223048
0.0398096
0.0292123
0.0577789
-0.0121654
0.0419784
-0.0235542
-0.00723893
-0.0105321
-0.0530911
0.0140235
-0.00523184
0.0027179
0.108016
0.0223067
-0.101837
0.134799
0.0170868
-0.137139
0.0112082
0.0034279
0.073319
0.0859454
-0.111506
-0.0324737
0.0047735
0.0478194
0.0864834
-0.0392849
-0.0139701
0.00918867
0.00687158
0.0299816
0.0409635
0.0456369
0.0470527
0.0331347
-0.0300857
-0.0532188
0.0226917
-0.00204027
3.24982e-05
9.92822e-08
2.02089e-05
0.00183978
0.0292673
0.129861
0.154441
0.00952075
0.0407529
-0.0697975
0.021655
0.0521358
-0.0868694
0.154663
-0.288561
0.0962334
0.145466
0.00671076
0.0125832
-0.0911197
0.0526118
-0.102725
0.100764
-0.0466931
-0.0138589
0.0394574
-0.0703749
0.107868
-0.0686204
0.0235518
-0.0360682
-0.0239212
0.0826511
-0.080177
0.0788723
-0.167168
0.0747096
-0.102952
0.06412
-0.018122
0.0444501
0.0124946
-0.0449856
0.0115283
-0.0587013
0.0291112
-0.0412526
0.00443539
-0.0752268
-0.0132869
-0.0497648
0.0371599
-0.00681818
0.08161
-0.0190638
0.0431384
-0.0331238
-0.0113542
-0.0279073
-0.0431406
0.0270352
-0.00365019
0.0894276
0.0264242
0.0355775
-0.0186972
-0.0421687
-0.0157336
0.0373531
0.00655222
0.0363899
-0.140401
-0.0720925
-0.0167706
0.00807313
0.0644714
-0.0396055
-0.127335
0.178196
0.108974
-0.0880224
-0.0381717
-0.100658
0.0317631
0.00267532
0.0617439
-0.0170648
-0.0826073
0.0202786
-0.0147901
-0.00878814
-0.000566347
-0.00325074
-0.00795976
-0.0439778
-0.0738336
-0.0530107
0.0177123
0.0223029
-0.0053141
0.00023624
-1.37894e-06
-3.80195e-05
-0.00267347
-0.0357784
-0.148614
-0.178902
-0.0112341
0.0307616
0.0712779
-0.14669
0.0942639
-0.0390615
0.040777
0.210154
-0.326078
0.0163102
0.0199286
-0.0463961
0.133542
-0.0900029
0.13058
-0.0773315
0.0215161
0.0320361
-0.0262205
0.0592496
-0.142109
0.163601
-0.149936
0.110691
-0.0902845
-0.00178127
-0.00854975
-0.0765077
0.0563298
-0.0695359
0.0553748
-0.0584359
0.0465768
-0.0347139
0.0222446
-0.00572506
-0.0120264
0.00733286
-0.0212552
-0.0123119
-0.0227174
-0.0245852
-0.0159307
-0.0387051
-0.00334334
-0.0523025
-0.0042073
-0.035218
-0.0414332
-0.0239142
-0.0797919
-0.00426168
-0.0610527
0.0380286
0.00561081
0.0608478
0.0636435
0.056046
0.050499
0.0212012
-0.0397041
-0.00312443
-0.0908015
-0.0260146
-0.025121
-0.0931192
-0.0298248
0.0104917
0.0953961
0.00935608
0.0700432
0.140911
-0.0542558
-0.15191
-0.0248833
0.00209919
0.0377778
0.0144046
0.0157384
-0.135073
-0.0313542
0.0335258
-0.0138229
-0.00231404
-0.055998
-0.0341301
-0.00364293
-0.00229576
0.000973769
0.0312002
0.051777
-0.00992387
-0.00380584
0.000439947
-5.38205e-06
5.29361e-05
0.0033749
0.0391058
0.0961096
-0.034434
0.0142366
0.00417695
-0.117585
0.189283
-0.149103
0.0782118
-0.182561
0.0575169
0.312611
-0.28281
0.28529
-0.191526
-0.0754779
0.155153
-0.250037
0.257962
-0.242881
0.156859
-0.0167432
-0.0515523
0.109754
-0.125759
0.0711398
-0.0677825
0.0135279
-0.0310365
-0.00884176
0.0339955
-0.0428002
0.0115058
-0.0478385
0.0614217
-0.021256
0.0425567
0.0320059
-0.00574382
0.0824406
-0.0142206
0.111144
-0.0247396
0.081028
-0.0505692
0.0172171
-0.0615881
-0.0343537
-0.0290183
-0.0523025
0.0199581
-0.0547795
0.0427219
-0.0542682
0.00726931
-0.0365641
-0.0280753
0.00476813
0.00283835
0.0324487
0.0554284
-0.0135707
0.0134983
-0.0784264
-0.0270704
0.00228034
-0.0127199
0.071539
0.000588035
-0.0873171
-0.0409344
0.101617
0.0724449
0.0131492
0.0879862
-0.261711
-0.106712
0.0364219
0.0369355
0.0828139
0.0347496
0.0460885
-0.0652548
0.0529165
0.0868811
0.107478
0.0130102
-0.0386557
0.068505
0.068094
0.0319296
0.023954
0.00431335
-0.00318077
-0.021908
0.00283851
0.000199458
-7.36407e-06
-7.05371e-05
-0.00361394
-0.0191451
0.0467549
0.0346578
-0.167579
0.266512
-0.172947
0.00161511
0.160677
-0.21438
0.346113
-0.342037
-0.0550917
0.188094
-0.331814
0.397403
-0.159469
0.0803646
0.0263164
-0.103172
0.206592
-0.0844667
-0.0135172
0.0383194
-0.0981512
0.0742202
-0.064693
0.0443707
-0.0253624
-0.0525817
0.0267584
-0.0823704
0.0745506
-0.0243428
0.125875
0.00116018
0.071572
0.0077054
0.0219156
0.0339837
0.0327333
0.0703114
0.0529131
0.0618904
0.0315436
0.0287213
0.00520727
0.00372585
0.00769828
-0.00268963
0.0240672
-0.016992
0.020218
-0.0343588
0.00724568
-0.0487311
-0.0180113
-0.0340231
-0.0417614
-0.00765216
-0.0373428
0.0311338
0.0274871
0.0317889
0.0497336
-0.0473497
-0.0179047
-0.0668598
-0.0276859
0.0434584
0.0418311
-0.0565324
-0.00430705
0.0433843
-0.138388
-0.0231471
-0.149366
0.0525596
0.168098
-0.0729746
0.00293084
0.0359152
0.0200844
-0.0673051
-0.0276255
0.0161094
0.019571
-0.171188
-0.0981435
0.0225591
-0.0223317
-0.0511509
-0.0534574
0.0164338
-0.0462101
0.0164757
0.00155781
-0.000170939
-2.25461e-06
7.05225e-05
0.00115517
-0.0193346
-0.0525361
0.131304
-0.217282
-0.158643
0.227019
-0.334303
0.250734
0.0199682
-0.362179
0.534882
-0.177571
-0.0323006
0.185325
-0.274089
0.0768414
-0.0648194
-0.0123148
0.0804055
-0.0205541
-0.0818156
0.144637
-0.119791
0.150085
-0.0958648
0.0942427
-0.0258772
0.028079
0.0316738
-0.0034447
-0.0112795
0.0318702
-0.0368828
0.0622502
-0.0587587
0.0795009
-0.0842149
0.0824211
-0.0649955
0.0937512
-0.0350064
0.0775136
-0.00714832
0.0583768
0.0310943
0.0256333
0.0615659
-0.0330565
0.0742073
-0.0862668
0.0830164
-0.086598
0.0895012
-0.020862
0.0881813
0.0469389
0.0442604
0.0760683
-0.026022
0.0464869
-0.0790009
0.00404399
-0.0683982
-0.0206795
0.0180794
0.000113154
0.0861798
0.0550957
0.0620942
0.0890952
0.00325877
-0.150949
0.00205185
-0.061661
0.0402195
0.0154986
0.129672
0.118789
-0.0860708
-0.0482148
0.0698294
-0.0288246
-0.02859
-0.000208331
-0.0259295
-0.00288809
-0.050531
0.0970263
0.0382841
-0.0168669
0.0461259
0.00247921
0.00935578
0.0172397
0.0140088
-0.00501239
0.000162205
-2.95482e-07
-1.77748e-05
0.00148868
0.00354172
-0.117461
-0.0590566
0.181759
-0.19495
0.315793
0.315227
-0.654962
0.308461
0.255831
-0.616809
0.346402
-0.0812635
-0.0943398
0.214899
-0.0377618
-0.0580705
0.276935
-0.143901
0.076961
-0.0397547
-0.00659497
0.0276024
0.00364619
0.0950455
-0.0215747
-0.0113099
0.00547342
-0.0617304
0.0225093
-0.0300152
0.0234754
0.0136553
-0.0159343
0.0133411
-0.092013
4.10594e-05
-0.0948034
0.0108988
-0.0733358
0.015352
-0.0267744
0.0237801
0.0104601
0.0211343
0.021391
-0.00309287
0.0306237
-0.032234
0.0648373
-0.0442692
0.113527
-0.032242
0.13388
-0.00698418
0.10855
-0.00108808
0.0178709
-0.0167083
-0.0826636
-0.0312073
-0.0941461
0.0179515
-0.000427936
0.0630952
0.0949406
0.0382347
0.0829843
-0.014176
-0.0297845
0.0471395
-0.0963785
-0.0251934
-0.0280149
0.0116149
-0.0625425
-0.031766
0.0162273
-0.0371953
-0.0929161
0.0503366
0.0127512
-0.0431056
0.0148483
-0.00355401
-0.0206159
0.0408914
0.157146
-0.0406394
-0.0705945
0.0295206
0.0282077
-0.0331537
0.0266374
-0.0246974
0.00180504
0.000222909
-5.01246e-06
-3.36289e-06
0.000692012
0.0244834
0.00382904
-0.212542
0.0927618
-0.0170707
-0.802002
0.0823196
0.776391
-0.711226
0.158982
0.326677
-0.221526
0.0416616
0.041309
-0.150926
-0.00743447
0.174759
-0.188296
0.0678742
-0.0524525
0.086816
0.0565993
0.0416734
0.0761462
-0.00454731
-0.0721346
0.0443116
-0.0893238
0.0586187
-0.0410563
0.0044225
0.00582966
-0.0175419
0.0108728
-0.0454151
-0.00407328
-0.0372821
-0.00886664
-0.0294119
-0.00992451
0.015998
-0.00412619
0.0433609
-0.00814434
0.0392049
-0.0263517
0.0341871
-0.0429292
0.0446133
-0.0481346
0.0580104
-0.0332398
0.0557667
0.00598775
0.0386321
0.0607796
0.0323628
0.102898
0.0184703
0.0992449
-0.0208035
0.0366339
-0.0660774
-0.00821222
-0.0508397
-0.00303523
0.0357128
0.0176248
0.0722114
-0.028612
0.0196895
-0.0404885
0.0362048
0.0213799
0.08215
0.0144091
-0.0343338
-0.034109
-0.0112723
0.0158646
0.0913057
-0.0177065
-0.0514406
0.0202439
0.0595066
-0.0909899
-0.0508718
0.0630945
-0.0818389
-0.045054
-0.0133673
-0.00468531
-0.0526163
0.00646637
0.00605923
0.0027945
-0.00026597
-3.92795e-07
-1.17787e-05
-0.000339937
0.0139167
0.088167
-0.0881125
-0.0923654
0.840349
1.00133
-0.939742
-0.272705
0.662661
-0.256611
-0.213524
0.106576
0.140838
-0.27572
0.360743
-0.0798927
0.0252956
0.0932519
0.0324117
0.0463282
0.102226
-0.116529
0.11929
-0.178914
0.0470847
-0.0715501
0.0253502
-0.0571226
0.0240496
-0.0673376
0.057226
-0.021569
0.0845666
-0.035005
0.0904124
-0.0430554
0.102604
-0.0330021
0.0982337
0.0162643
0.0739754
0.0357202
0.0354343
0.0236034
0.00233779
0.0106661
-0.0172727
0.0122062
-0.0298596
0.0359835
-0.0369758
0.0792782
-0.0305023
0.113434
0.00306414
0.104487
0.0619326
0.0510746
0.111628
-0.0245156
0.124323
-0.0620441
0.104029
-0.0369752
0.0596208
0.0217799
0.0160195
0.0956657
0.0103653
0.0565439
0.0281385
-0.0858089
-0.0321515
-0.019373
0.0921138
0.067927
0.0713748
-0.03195
-0.0825082
0.0190752
0.128784
-0.0988236
-0.0578205
0.0313851
0.0553977
-0.0528681
0.0108211
0.067521
-0.0445315
0.0292447
0.0273825
-0.00730797
0.0245322
0.0674231
-0.0155022
-0.00109057
-7.39578e-05
2.83407e-06
-1.00437e-05
-0.00038389
0.00685873
0.104849
0.127471
-0.461103
-1.19866
-0.0135821
1.10547
-0.0789322
-0.451516
0.0173083
0.435272
-0.298317
0.0287382
0.0878227
-0.0546454
-0.118891
0.23347
-0.227522
0.194802
-0.0630727
0.01063
-0.019893
-0.0150676
-0.0882701
0.143803
-0.1222
0.143439
-0.106639
0.141099
-0.0161409
0.122493
0.032028
0.0332937
0.0262103
-0.00138737
0.0134794
0.0306384
-0.0152285
0.102802
-0.0364984
0.128952
-0.047819
0.104607
-0.0416976
0.0620277
-0.0181798
0.0156884
0.0150484
-0.0307426
0.0430761
-0.0644897
0.0471529
-0.0721338
0.0245011
-0.0529215
0.00528041
-0.0149733
0.0295292
0.0255588
0.0754281
0.033164
0.0951644
0.00758529
0.114366
-0.0131528
0.0868042
-0.0228528
0.0368748
0.0491371
-0.0415192
0.0784608
-0.00201151
-0.0254271
-0.0837003
0.00403974
-0.00223558
0.00614068
0.0111919
-0.055666
-0.0172504
0.015682
-0.0963411
-0.0454074
0.017283
0.0346767
-0.0782384
0.0391204
0.0531201
-0.0434708
0.0384663
0.0661376
-0.0361024
0.0952515
-0.101422
0.00148692
0.00115676
-0.000142373
4.69439e-06
-1.28002e-05
-0.000962702
-0.00355175
0.0446633
0.24224
0.615313
0.182379
-1.21918
-1.10619
0.13482
0.437768
0.0710112
-0.436602
0.216636
0.0315875
-0.0548239
0.104124
0.181278
-0.0816893
0.161636
-0.0038478
-0.151246
0.0652368
-0.160191
0.0458989
0.0273585
-0.0200241
0.0320724
0.00467143
0.0167712
0.0706733
-0.066975
0.0759346
-0.138835
0.0559189
-0.0976465
0.0465052
-0.00402788
0.0218797
0.0776961
0.00852905
0.105758
-0.00370557
0.108596
-0.0114484
0.111929
-0.0121861
0.103396
-0.00885167
0.0646225
-0.00290242
-0.000820714
0.00556271
-0.0653365
0.0120757
-0.0999355
0.011447
-0.100358
0.015392
-0.0822003
0.0521144
-0.0558643
0.0904868
-0.0291734
0.0589919
-0.000548741
0.0501599
0.0511613
0.0281934
0.0638581
0.0879107
0.086031
0.0524094
0.0637652
0.101939
-0.0342971
0.0306009
0.0141752
0.0507813
0.0308761
-0.0420933
0.00583039
0.0647047
-0.0489611
0.0736937
0.0165157
0.073131
-0.0430298
0.0412148
0.0539704
-0.0282698
0.00410802
0.00101979
-0.10993
-0.0255085
-0.0590602
0.0467789
-0.00868156
0.00056456
2.78598e-06
-3.67976e-06
-0.000691578
-0.00255357
0.0382224
-0.0247096
0.0783582
0.898584
1.58208
0.961602
0.316834
-0.652385
0.112311
0.0960172
0.122572
-0.245767
0.252903
-0.130708
0.0348341
0.0157461
-0.133934
-0.0967326
0.0393462
-0.0243686
0.0291355
0.10965
-0.097102
0.0974983
-0.0231102
0.0555771
0.0507964
-0.0776626
0.075831
-0.117687
0.0525118
-0.0439248
0.0338372
0.0205937
0.010802
0.0337369
0.0247725
0.0193651
0.0460943
0.00967172
0.0619353
0.0132853
0.0690589
0.018116
0.0636011
0.0107303
0.0499381
-0.0167838
0.0395979
-0.0658792
0.0359722
-0.124984
0.0244107
-0.16254
-0.00956775
-0.147349
-0.0381466
-0.0858989
0.0123067
-0.0208258
0.128828
0.00516057
0.139595
-0.0143388
0.0942954
-0.0103929
-0.0548671
0.0249548
-0.021244
0.0754648
-0.0501503
0.0558094
-0.0109089
-0.0248401
-0.0455581
-0.060917
0.0274902
-0.0614148
-0.0370335
-0.0318603
-0.0977447
-0.0524061
-0.0100919
0.0437068
-0.0462868
0.031615
0.00169744
-0.050439
0.00564238
-0.057236
0.0112411
-0.00349751
0.0824458
-0.0250442
0.00654656
0.000566467
-1.49487e-05
-9.12459e-06
-0.00117791
-0.0151687
0.0283962
0.117302
-0.302075
-0.572374
-0.751765
-0.750459
-0.0304097
0.110283
0.0833958
-0.202332
0.157613
-0.0261707
0.105937
-0.00463538
0.23459
-0.304516
0.185827
-0.0489167
0.0302938
0.00458585
0.0161615
-0.0794628
0.0872196
-0.000349115
0.0733288
0.00691795
-0.0670489
0.0147717
-0.0409539
-0.038014
0.0788782
-0.0520046
0.126267
-0.0701759
0.0965739
-0.0547291
0.053259
-0.034436
0.0153054
-0.0162929
-0.0139
-0.00336975
-0.0358689
-0.00550827
-0.0503221
-0.0247577
-0.052639
-0.0479463
-0.0449679
-0.0525487
-0.0418399
-0.0253206
-0.0580042
0.0128381
-0.087002
0.00764084
-0.0943546
-0.0601486
-0.053503
-0.0911196
0.016305
0.0137642
0.0665237
0.0877912
0.0590429
0.127498
-0.00161421
-0.0211244
-0.00108455
0.0346469
0.0478215
0.0351495
-0.00430331
0.0182546
-0.00127026
-0.0492577
0.0384305
0.0697857
0.0385845
-0.00910302
-0.0704962
0.0430706
0.0304335
0.0896508
-0.0543057
0.0534465
0.0051726
-0.0834127
0.0412488
-0.0210012
0.0160486
0.0765689
-0.0306716
0.00259767
0.0168183
-0.00196423
-8.3181e-07
5.86582e-06
-0.000465493
-0.0141987
-0.0618219
0.0761017
-0.120144
-0.00180208
0.0224731
0.0133569
-0.519434
-0.156427
0.20967
0.228607
-0.194546
-0.0403409
0.209611
-0.114002
-0.141976
-0.0168431
0.0682036
-0.137591
0.197675
-0.113374
0.0641195
0.0785322
0.0269245
0.0375192
0.0130943
-0.106029
0.104495
-0.0399526
0.078189
0.0671294
0.0680667
0.0750816
0.0075415
0.0289538
-0.0150434
-0.00718987
-0.0103706
-0.041777
0.00634769
-0.0736229
0.0228514
-0.101593
0.027417
-0.124555
0.0135943
-0.134164
-0.016628
-0.124948
-0.0536788
-0.100845
-0.0812999
-0.074746
-0.0788956
-0.0642162
-0.040364
-0.0789869
-0.00758857
-0.100239
-0.0463614
-0.0885174
-0.112454
-0.0363318
-0.0485292
0.0172678
0.0226702
0.0638047
0.0839685
0.00644469
-0.0871899
-0.00463669
-0.0603094
0.0746638
-0.0141711
-0.0307306
-0.0268572
-0.113551
-0.116587
-0.0506932
0.0735163
0.0694328
-0.0959092
-0.0638546
0.0393257
-0.00696392
-0.106391
-0.00321408
0.0293102
-0.0801068
-0.0235458
0.0283564
0.0127357
0.00516371
-0.0299218
0.00495416
-0.00359036
-0.00348487
5.40464e-05
2.14026e-06
-0.000406569
-0.00522367
-0.0191027
0.03706
-0.0377041
-0.302164
-0.262843
0.573788
0.646976
0.90942
-0.338926
-0.320754
-0.000328704
0.409986
-0.190641
-0.0958015
0.167901
-0.043792
0.0610152
0.0735913
-0.0468749
-0.0914658
0.178804
-0.163162
0.0957411
-0.0936195
-0.042155
0.0611592
0.0212235
-0.00289645
0.113838
-0.0575883
0.138079
-0.150925
0.119321
-0.154859
0.0848252
-0.112284
0.0350332
-0.0584248
0.00572487
-0.00656276
0.000401762
0.0297863
0.00152662
0.0413725
-0.00104579
0.0327557
-0.00893647
0.0140567
-0.0179974
-0.00875886
-0.0213645
-0.0327667
-0.0142213
-0.048457
-0.000897579
-0.0387449
0.000815894
-0.0139034
-0.0211429
-0.0426854
-0.0384007
-0.140337
-0.0149777
-0.123258
0.002984
-0.0366697
0.0474984
0.0866626
-0.0165963
-0.0136056
-0.0540257
-0.00603344
0.0475751
0.00877095
0.0429432
-0.035662
-0.0391668
-0.116833
-0.0387514
0.115723
0.0105077
-0.0480164
0.0165919
0.0759855
-0.151392
-0.0223228
0.0963512
0.0171795
-0.00552319
0.0207169
0.0921275
-0.0558363
-0.00557078
-0.0123514
-0.0175152
-0.00207026
0.000118151
2.22769e-06
-0.000891724
-0.0169546
-0.053881
0.0164305
0.201768
0.272053
0.155854
-0.0761456
-0.847788
-0.704104
-0.470388
0.600524
0.138252
-0.121304
-0.208166
0.266071
-0.152101
-0.00247611
0.0734014
-0.124717
-0.0186684
0.140389
-0.0787193
-0.0203608
0.05675
-0.178148
0.219475
-0.0955959
0.133102
0.0293769
0.0637671
0.0693522
-0.0203972
0.0246539
0.010177
-0.0553496
0.0578787
-0.113231
0.0967506
-0.0976119
0.128123
-0.0412387
0.140029
0.0140219
0.130343
0.0584013
0.113304
0.0951953
0.101401
0.121986
0.0976831
0.129602
0.0976283
0.11346
0.0918712
0.0833801
0.0744911
0.0584285
0.0584981
0.0421054
0.0631812
0.00690958
0.0479223
-0.0484145
-0.0647538
-0.0472681
-0.139799
-0.01116
-0.124274
0.0689489
-0.0305329
0.0340033
-0.0612284
0.00101236
-0.00505469
-0.0330087
0.0366821
-0.0266579
-0.0110846
-0.0241498
-0.158359
0.0233034
0.0404247
-0.0625383
-0.0147364
0.0746319
-0.0696229
-0.0596511
0.100645
-0.010059
0.003239
0.0955965
-0.00040602
-0.0138706
0.00766124
0.0164999
-0.00622168
0.00113729
0.000128121
2.93204e-05
0.000370557
-0.00351971
-0.054625
-0.0887212
0.00683925
0.0774404
0.0443948
0.234334
0.38817
0.658838
0.26929
0.132009
-0.421083
0.191091
0.00924837
0.100004
-0.178626
0.20896
-0.105801
-0.0184364
0.0821252
-0.0619984
-0.0861218
0.0464348
-0.147511
0.135764
0.0227991
0.0118785
0.145076
-0.0755954
0.133876
-0.131481
0.0412053
-0.0670008
-0.0448355
-0.0305762
-0.0556331
8.78926e-05
0.0221557
0.0461119
0.115935
0.091856
0.184536
0.133468
0.230659
0.174055
0.262826
0.207576
0.28252
0.22538
0.28793
0.225952
0.276282
0.214959
0.24486
0.1954
0.198692
0.159608
0.160067
0.104694
0.151836
0.0601853
0.139207
0.0487709
0.0489835
-0.00679415
-0.0497452
-0.0881725
-0.0639376
-0.104571
0.0136402
-0.0510276
-0.0189735
-0.0466168
0.107935
-0.0213026
0.0349564
-0.0197511
-0.0285645
0.0697698
-0.0342453
-0.0837214
0.0602884
0.0189241
-0.0673293
0.0693828
0.0121099
0.00135296
0.0161908
-0.0184805
-0.093247
0.0498237
-0.0562951
-0.0675936
0.0126429
0.00387896
0.0151917
0.00246105
8.89474e-05
-2.44678e-06
-0.000323846
-0.00866483
-0.00659244
-0.0531768
-0.0713979
0.0188978
0.0935928
-0.25239
-0.284317
-0.41248
-0.127015
0.0700351
-0.0226256