/*--------------------------------*- C++ -*----------------------------------*\
| =========                 |                                                 |
| \\      /  F ield         | OpenFOAM: The Open Source CFD Toolbox           |
|  \\    /   O peration     | Version:  v1912                                 |
|   \\  /    A nd           | Website:  www.openfoam.com                      |
|    \\/     M anipulation  |                                                 |
\*---------------------------------------------------------------------------*/
FoamFile
{
    version     2.0;
    format      ascii;
    class       scalarField;
    location    "0.00036/lagrangian/dsmc";
    object      Ei;
}
// * * * * * * * * * * * * * * * * * * * * * * * * * * * * * * * * * * * * * //


12912
(
2.311331421e-22
3.765346391e-21
1.658078534e-22
1.062709566e-20
1.1101441e-21
1.119422795e-20
1.439681309e-20
3.300030672e-20
2.996080492e-22
5.168437365e-21
1.517450529e-20
3.739911878e-21
6.907097207e-22
3.696865846e-21
2.532638637e-22
5.236564753e-21
2.062627342e-20
5.553816042e-21
1.88345589e-21
4.081253549e-22
2.119732867e-21
2.570238911e-20
2.068777044e-22
4.872346323e-21
1.709403776e-20
7.728286468e-24
2.041411269e-20
4.006483549e-22
3.75592264e-23
3.896816351e-20
2.86055804e-20
6.779563991e-21
8.166322555e-21
6.718325491e-21
9.375749761e-22
2.080907249e-21
1.495638851e-20
1.497707062e-21
4.563803352e-20
1.600666586e-20
4.432869114e-20
4.298761136e-20
2.48186127e-20
1.022689548e-20
6.563128379e-21
1.650722357e-20
1.088847751e-20
1.572275434e-20
3.905441035e-21
6.996144651e-21
8.466459488e-21
1.015928157e-20
8.881962138e-21
4.143225071e-21
2.738469952e-22
1.830382808e-21
3.145681632e-21
1.05015152e-20
1.807970085e-20
1.662167101e-20
2.396739085e-21
1.221116559e-20
1.188162187e-20
1.248448489e-21
1.581448194e-21
1.810549867e-20
5.957574033e-23
8.021006388e-21
5.080886986e-21
3.267379471e-21
1.10202933e-20
6.870057529e-22
7.525102575e-21
7.943384962e-21
1.303550693e-20
2.754919305e-21
1.010774285e-21
7.488237284e-21
3.26963447e-20
2.834637524e-20
1.905422414e-20
2.531427788e-20
2.450368446e-20
5.749309848e-21
7.498907299e-21
1.687413762e-20
2.538014216e-20
9.940486639e-21
1.424928673e-20
7.381410241e-21
4.947483988e-21
3.597606173e-21
4.509461075e-21
2.224220996e-20
1.841800717e-20
4.763383773e-21
7.667884932e-21
1.555792563e-23
8.312994373e-22
1.20930236e-20
1.763491197e-20
2.131466713e-22
1.116876608e-20
7.368655465e-21
3.215880787e-21
1.52620339e-21
1.074229405e-20
2.634208665e-21
1.062446077e-20
2.377268967e-20
3.685757347e-21
3.615771199e-20
1.2408053e-20
2.587084422e-21
7.631696574e-21
5.322276214e-21
5.201362475e-21
1.135428197e-20
4.010744427e-21
1.772350602e-20
3.707579741e-21
1.578267582e-21
2.883482165e-21
1.522683148e-20
8.061625057e-20
1.000069534e-20
2.069466915e-21
1.469724178e-20
2.416207022e-20
9.330108986e-22
3.036256292e-20
3.320266468e-21
1.598316897e-20
8.064654927e-21
2.6764234e-20
8.286213577e-21
1.587755565e-20
1.318452504e-21
1.502251363e-20
3.987041806e-21
1.018346394e-20
1.877130883e-23
1.89040142e-20
1.849257866e-21
5.078703894e-21
1.193766849e-20
7.864883652e-21
6.799684331e-21
4.59796532e-21
1.324402882e-20
3.949946857e-21
2.65041728e-20
2.119797481e-21
1.684465587e-20
1.946079427e-21
9.968355864e-21
2.046897482e-20
3.396550009e-21
3.603114648e-20
5.553275779e-21
8.552523151e-21
1.488809676e-21
7.06291062e-22
5.220811304e-20
1.157352247e-20
3.928031506e-21
5.726239034e-21
7.237037693e-21
7.437670822e-21
2.485421321e-21
3.774767049e-21
3.765497021e-21
3.733986176e-21
6.204576021e-21
1.79060651e-20
9.194661626e-21
2.928933083e-21
8.864777665e-21
1.730163995e-20
5.756772071e-21
1.447999923e-20
3.367189236e-22
2.768704608e-21
3.978479321e-22
3.818950382e-21
1.395040986e-20
3.836312321e-21
4.602311348e-21
7.755323922e-21
1.324213308e-21
6.920419662e-21
4.626278676e-21
6.62938383e-21
7.309851649e-21
1.795223498e-21
3.465708406e-22
6.1224832e-21
1.802822712e-21
1.558086387e-20
2.377777271e-20
6.133563657e-22
5.535430533e-21
1.259686762e-20
1.587044754e-21
2.963713641e-21
4.108675238e-21
1.539029538e-20
1.094042877e-20
7.141735049e-21
3.774366512e-21
1.042006722e-21
1.736361779e-20
2.650437666e-21
4.472845979e-21
5.947503299e-21
1.561784475e-20
5.732396431e-21
1.981961521e-20
1.374364626e-20
5.739404056e-21
9.129257891e-21
2.219096243e-20
2.56028029e-21
9.342747625e-21
1.162186388e-20
3.188103274e-22
7.113078903e-21
7.759114218e-21
3.331624357e-21
2.921368449e-21
5.806583441e-21
1.326169804e-20
1.71846544e-20
4.576627994e-21
1.260979259e-20
4.686619425e-21
8.593557686e-21
2.1578377e-21
2.136760548e-20
1.528332649e-20
3.614561586e-21
1.306550736e-20
1.814485696e-21
2.382179935e-20
2.102042605e-20
7.705171594e-22
1.439732719e-21
3.158411048e-21
2.962725081e-21
3.393570287e-21
2.78720106e-21
1.935308027e-20
1.114625505e-21
4.209054938e-21
1.489185611e-20
8.92743008e-22
2.728109825e-20
2.575889133e-20
1.134394815e-20
2.6479709e-20
2.889601374e-20
2.115387203e-21
1.926106959e-21
8.781145674e-21
2.534194507e-20
1.276054429e-20
2.397264793e-20
2.160862094e-20
3.852503309e-21
3.057961992e-20
1.265325259e-20
3.905596287e-21
3.364507852e-21
1.527703659e-20
4.21697232e-20
1.060404484e-21
9.332468364e-21
4.921792457e-22
3.592564887e-21
3.393428075e-23
1.540337035e-20
8.567981204e-22
1.529754646e-20
2.590029489e-20
1.193289715e-20
1.295085228e-21
1.845152192e-21
2.190801987e-20
1.125508307e-21
1.462667095e-20
1.085968882e-22
6.333677248e-21
6.49587921e-21
1.634529128e-20
1.721594352e-20
1.39488819e-21
3.922580998e-20
6.523883618e-23
1.930783335e-21
5.498996951e-21
1.104178801e-20
7.092172574e-21
1.355436276e-20
8.231108196e-21
1.501186449e-21
1.022128282e-20
6.247502202e-21
7.848953753e-21
7.223146965e-21
1.354953192e-20
8.93220839e-21
6.753067677e-21
5.295973951e-23
2.297153632e-20
1.468314051e-20
8.623152169e-21
2.984675177e-21
2.055359117e-21
1.261615154e-21
9.77545583e-22
3.542669658e-20
7.371809203e-21
4.35721246e-21
1.08329701e-20
4.576908377e-21
1.884955428e-21
1.954472875e-24
4.021213614e-21
1.677112869e-20
5.469340389e-21
3.260434792e-21
1.919070022e-21
2.704452096e-20
4.318792379e-21
3.71808252e-21
7.644070856e-21
8.513304296e-22
3.81822219e-23
3.505021733e-21
7.903313799e-21
2.804970642e-21
4.529415024e-20
4.395556283e-21
3.876126896e-20
3.970902753e-20
1.887276689e-21
2.607905352e-21
2.530313321e-21
1.224785532e-20
7.443608349e-21
5.132075736e-21
4.124192081e-20
2.620403673e-21
8.76649214e-22
1.259936609e-21
1.356166032e-20
6.335191269e-21
9.197805503e-21
2.084577968e-21
1.880123668e-20
6.744584639e-21
3.335267547e-20
4.312352436e-21
2.406954101e-20
4.7840788e-21
2.360777661e-20
8.473536336e-21
8.457059587e-22
5.33069504e-21
1.826655972e-20
1.308272261e-20
1.888245076e-20
9.18061412e-21
3.555622314e-21
1.505128687e-20
1.333812671e-21
2.25049103e-21
1.817211342e-21
9.846819926e-22
5.679906095e-21
1.978694461e-20
3.873316367e-20
1.272177895e-21
3.39018412e-20
1.340228377e-20
7.550123712e-21
1.05094887e-20
7.885419096e-21
1.26652337e-20
8.269964088e-21
1.345675658e-20
1.541080028e-21
3.448762118e-20
9.946945996e-22
2.554719213e-21
3.46081506e-21
1.212143909e-21
4.260809656e-21
2.693258834e-21
3.059312267e-21
6.376154723e-22
2.007163345e-20
7.064214851e-21
3.586536619e-21
1.169794016e-20
1.084019205e-20
2.197758183e-21
4.209522497e-20
1.672848766e-22
2.175919756e-21
1.661924189e-20
2.993548576e-21
1.838803089e-20
3.378841472e-21
3.417597282e-21
3.82131226e-21
1.59181822e-20
1.423694224e-20
7.191994462e-21
1.985808152e-20
4.921375093e-21
1.541332772e-20
4.426851268e-21
2.644068862e-21
1.719762943e-21
5.126464964e-20
9.898876492e-21
5.269668986e-21
2.153288737e-20
1.223682862e-21
2.872034637e-21
8.095203095e-21
6.205239288e-20
9.596283339e-21
2.82018296e-20
9.402826436e-21
1.74961672e-20
4.629460088e-23
1.218939604e-20
4.822208107e-23
5.562856576e-21
1.726031706e-20
6.817327581e-22
8.557064231e-21
4.235502951e-21
1.397434101e-20
8.691026573e-23
2.251369936e-20
2.383587614e-22
3.87841513e-22
8.047805206e-21
5.393798716e-22
1.155293985e-22
1.144065618e-20
9.180745198e-21
8.475771987e-21
1.254148067e-20
3.153684332e-21
4.066783879e-21
9.115357361e-21
2.249706356e-20
4.874310494e-21
2.647327254e-21
1.195360004e-20
1.337368088e-20
2.168896521e-20
6.883128404e-21
3.374639487e-21
2.9357861e-21
2.849846522e-20
9.339189446e-23
3.610842463e-20
3.904164433e-21
9.905902843e-22
1.592605143e-20
2.738985753e-22
4.679214524e-23
5.549294202e-21
1.859851688e-22
2.243519613e-21
1.911290186e-21
6.109509395e-22
1.872556606e-20
5.534862541e-20
8.362126406e-21
1.378084049e-21
2.489173443e-20
1.885195322e-20
8.409884286e-21
1.214670196e-22
3.297820105e-21
1.069337389e-22
1.027077593e-21
6.022081929e-21
2.400894997e-20
1.785773438e-20
2.437169876e-21
2.114760896e-20
6.176058103e-21
1.939955465e-20
3.512054456e-21
4.634362916e-21
3.948638726e-21
4.931178395e-20
6.240266398e-22
1.906754909e-21
8.806634187e-21
6.227666993e-24
3.128531833e-20
7.241795182e-21
2.205215071e-20
1.026286509e-20
1.130555435e-20
2.054845757e-20
7.668553946e-21
1.878796339e-20
4.113437274e-20
3.2673551e-21
2.133359825e-20
1.592897707e-21
1.34441265e-20
5.937264026e-21
2.213567623e-20
1.552165227e-20
1.081917399e-20
8.129782705e-21
1.943987774e-20
5.784484008e-21
1.47221461e-20
4.711096542e-21
1.551275731e-20
4.182827389e-21
4.374947519e-21
5.570474498e-22
1.1588282e-20
6.573742634e-21
4.952141272e-21
3.952029448e-21
1.727362146e-21
7.229767717e-21
1.033183976e-22
1.715899014e-20
4.221651471e-20
1.518431432e-20
1.573459166e-20
9.726597511e-21
1.69698648e-21
6.376439669e-21
5.802760322e-20
5.83524222e-21
1.606061556e-20
1.230167106e-21
6.978024305e-22
1.013275515e-20
6.636250194e-21
1.575364485e-21
1.570092409e-22
1.247589364e-20
8.000205956e-22
7.39472338e-21
1.408342826e-20
4.928897926e-21
3.028119077e-21
7.170345448e-21
7.938595604e-23
5.180259815e-21
3.785125143e-20
5.019782594e-21
4.619918202e-21
8.695254168e-22
5.320136536e-23
3.744785391e-21
2.627454578e-20
8.746956682e-21
2.980091019e-21
5.166345716e-21
8.854744219e-21
1.707444807e-20
8.633964987e-21
6.186318381e-21
1.414079998e-21
2.961585762e-20
9.236818524e-21
3.767308844e-21
1.725016255e-20
2.158242784e-20
8.517720225e-21
1.055070619e-20
4.053180938e-20
6.274882957e-21
1.509639255e-21
2.924836451e-21
1.158974202e-20
5.635461438e-21
2.513694281e-21
1.798195694e-21
1.614180807e-20
1.647037249e-21
9.996630066e-21
7.241439337e-22
8.00209109e-21
2.330445354e-21
1.07595931e-20
6.473840588e-21
9.314908515e-21
1.323632074e-20
7.313303157e-24
3.32267867e-21
1.457833555e-20
7.107542907e-21
6.449265973e-21
6.821881985e-21
4.016066975e-22
1.912507218e-20
7.813575341e-21
4.595400702e-21
2.537132168e-20
1.114801804e-20
8.620357491e-23
5.127665036e-21
7.197807495e-21
7.66855421e-21
5.256789681e-22
7.101418481e-20
1.068317558e-21
1.669512508e-20
2.573521723e-21
3.81233656e-21
1.117171006e-20
7.113798293e-21
1.862225959e-20
3.843782244e-21
4.894710225e-21
3.177731391e-21
1.260400579e-22
9.33919496e-21
3.285213967e-21
1.836442204e-21
2.039208348e-20
8.302458313e-23
1.096129179e-20
9.784602194e-21
9.287388718e-21
3.612615049e-23
2.556347007e-20
1.709777983e-21
1.746645143e-20
3.197984173e-21
7.309610997e-21
2.759636204e-20
2.020512146e-21
8.721566894e-21
1.127983213e-21
9.537821e-21
7.116241468e-21
8.639694391e-21
5.974911743e-21
1.049265978e-21
1.960742004e-20
1.556423157e-20
2.854519238e-20
1.876719138e-20
5.09532596e-21
8.46278418e-23
2.371629541e-21
1.775884096e-20
1.617429208e-21
1.436995974e-20
2.877085697e-22
1.159879155e-20
2.742183145e-21
1.030815941e-21
3.289242594e-20
1.772908795e-21
1.434330401e-20
1.678258995e-20
2.72100818e-20
1.708413908e-21
3.048089447e-21
2.184473308e-21
3.811505724e-21
1.448613219e-20
1.014158989e-20
3.498406985e-21
1.067785294e-20
5.62045239e-21
3.544573471e-21
2.039483575e-20
2.071395815e-21
4.241709935e-21
8.513561583e-21
2.431057227e-21
4.715042298e-21
1.112418157e-20
1.688863288e-20
3.241260176e-21
3.026096789e-22
1.847137393e-21
2.078025512e-20
2.602179787e-20
8.200309126e-21
1.41034081e-22
8.516818504e-21
8.071076373e-22
4.286308573e-20
3.709429376e-21
3.022107126e-20
1.41285631e-20
1.882035271e-21
6.54847123e-21
8.308587322e-22
1.722651904e-21
6.714670573e-21
3.944123925e-21
9.195122295e-22
8.050759044e-21
3.580290757e-20
3.414085394e-21
8.461100624e-21
3.547667378e-21
5.589345869e-22
3.81019672e-21
1.926454069e-20
1.517902513e-20
9.546651412e-21
6.096344364e-21
2.328068104e-20
2.565123883e-22
5.931048609e-22
1.683811104e-20
7.357571142e-21
3.622183572e-21
1.45541278e-20
6.841736139e-21
1.186610029e-20
1.181331771e-20
9.455685344e-21
1.485502981e-20
6.608898798e-21
2.81278934e-21
1.098537795e-20
3.768037264e-20
9.756088434e-22
1.293868322e-23
1.127894103e-20
8.1410246e-21
1.783439133e-20
1.794039196e-21
1.893032776e-20
6.526713946e-21
1.872505223e-20
1.402664809e-20
1.25239245e-20
4.042289755e-21
7.416665295e-21
1.12298069e-21
2.069762745e-20
1.333091059e-20
1.395468766e-20
1.195357548e-21
5.201750825e-21
4.927895063e-21
3.794572152e-22
9.101015476e-22
2.37765547e-21
3.202123501e-20
1.061403199e-20
3.292189299e-20
4.002276184e-21
2.568605058e-22
1.208248418e-21
6.253416732e-21
3.32535303e-21
4.209014307e-22
1.744745748e-21
1.573420392e-20
2.347783998e-20
6.772308682e-22
6.490035126e-21
1.890916128e-21
1.048224012e-20
5.741641772e-21
3.573691201e-21
1.702026582e-22
1.327960191e-20
6.128038401e-21
3.101090908e-21
2.726520281e-21
2.647654566e-20
7.139032537e-21
3.644177964e-20
3.423138837e-21
2.793883463e-21
3.053191681e-22
2.707136012e-20
2.374644603e-21
1.049928851e-20
6.438296776e-21
1.847298252e-20
6.949330151e-21
1.563774415e-20
1.070054728e-20
5.539877148e-21
7.291821287e-21
8.859128116e-22
3.07833962e-20
1.275741437e-20
1.30080236e-20
6.744252365e-22
6.784750884e-21
2.572128346e-20
6.721285962e-21
1.428262477e-20
1.235358535e-20
5.316951614e-21
1.883426513e-21
1.105016599e-20
6.670453377e-21
9.161804084e-21
2.646939942e-21
2.129366099e-20
1.004637018e-20
1.247825292e-20
6.037394855e-21
1.63194048e-20
2.840745757e-21
1.786412025e-20
4.698565002e-23
6.674290023e-21
3.12465822e-21
1.707630715e-21
3.357559988e-21
1.04488402e-20
8.884980742e-22
2.02147872e-20
5.2626711e-21
1.938859846e-20
5.602475312e-21
1.236319971e-20
1.417563605e-20
3.222407027e-20
2.806235365e-20
2.169617493e-20
3.733407182e-20
2.926980186e-21
1.66856874e-20
2.709915343e-21
2.081939879e-20
9.13006687e-21
1.670974173e-21
2.13980612e-20
2.062741021e-20
8.106865299e-21
8.321604612e-21
6.154388361e-21
1.415302985e-20
1.353449039e-20
3.984129216e-20
4.324246356e-21
2.988980156e-21
3.026451582e-21
1.365803972e-21
8.053161742e-21
3.767724109e-21
2.944710367e-21
6.008407142e-21
3.971462237e-20
1.092351957e-21
2.718178365e-21
9.542232207e-21
2.413293328e-20
1.242152091e-21
3.129615027e-21
3.134967243e-20
3.018589766e-21
4.632219059e-20
1.027047995e-20
2.523356626e-21
1.548011709e-20
1.527639638e-20
6.785884794e-21
8.926080159e-21
3.007522361e-20
2.501570955e-20
1.240674969e-20
1.029154855e-20
1.511688756e-21
5.746708087e-20
1.346055502e-22
2.012050186e-20
1.511537183e-20
1.597775147e-21
1.623558544e-21
4.297651908e-20
3.692491314e-21
1.13376044e-20
1.119662332e-20
8.425835359e-21
8.369430523e-22
2.649794766e-20
7.065250074e-22
7.439811246e-21
4.725041294e-21
6.739812364e-21
1.468864669e-20
1.336912984e-20
6.682464262e-21
1.812613015e-21
1.265363251e-20
8.724607362e-21
7.708312609e-21
7.493005926e-21
8.363951733e-22
1.263746197e-21
2.135071141e-20
1.947554346e-21
7.637677656e-21
1.341922136e-20
5.81640136e-21
3.507637586e-21
4.715639535e-21
7.483209896e-21
2.067004668e-21
1.488462547e-20
2.090459951e-21
3.097180987e-20
1.069978337e-20
7.170571824e-22
4.23840118e-21
6.773678024e-21
1.264777666e-20
4.370720539e-21
1.757037102e-20
1.803550378e-20
4.78730139e-21
8.683121166e-21
5.596835393e-21
4.395761537e-21
2.174136761e-20
2.165380516e-21
3.560500683e-20
1.735629403e-21
1.599537421e-20
1.9198596e-21
7.380627681e-21
3.297435356e-21
4.012112303e-21
4.814239118e-21
1.166429098e-20
1.807688209e-20
5.769632147e-21
3.649004965e-21
9.086649918e-22
3.210967244e-21
7.691008955e-21
2.903710133e-21
8.886644935e-21
2.250299328e-21
9.803373065e-21
1.163384863e-20
2.816113131e-21
1.777703195e-20
1.292151926e-20
1.805642179e-21
3.549851978e-21
2.067593465e-21
4.779424068e-21
4.588188825e-22
2.168807154e-20
3.38271926e-21
8.600417836e-21
1.670595854e-20
2.981871025e-21
1.248976266e-21
2.13062197e-20
6.597635932e-21
1.814255047e-21
1.066726278e-21
9.696305271e-21
6.902893391e-22
3.087129896e-20
6.615291186e-21
1.970360727e-20
1.339289476e-20
2.330735444e-23
9.099877542e-21
3.885581947e-21
2.688469288e-21
2.719519653e-20
1.213877219e-20
8.323489371e-21
4.993868343e-20
3.643520592e-21
6.35897198e-21
7.211632401e-22
2.472482458e-20
7.4185325e-21
4.260430859e-21
6.562335411e-24
7.73794184e-21
2.285879904e-20
1.23765717e-20
1.616169261e-20
1.985757271e-20
1.719056124e-20
1.743017066e-21
5.707081711e-21
2.114839099e-21
2.031378799e-20
9.92532038e-21
1.369430769e-20
7.492598773e-23
5.683771173e-21
6.832859202e-21
8.417245376e-21
1.276946573e-20
7.289169817e-21
8.785529512e-21
8.794958949e-21
2.254111412e-21
4.096189266e-20
1.187673223e-20
4.766009901e-21
6.499729645e-21
6.283294306e-21
2.059313056e-20
6.242106005e-21
8.74448218e-21
2.03851537e-20
1.445231129e-20
1.743667198e-20
6.369194138e-22
7.171399785e-21
3.033748799e-21
5.341462174e-21
3.119777089e-22
2.866895653e-21
2.544204571e-21
8.70132497e-21
2.9888039e-20
3.767365742e-21
1.794244765e-20
8.5123674e-22
2.212756018e-20
9.221608534e-21
5.400493744e-22
9.184984798e-21
5.959601302e-21
1.173501967e-20
1.200723374e-21
4.167018617e-21
1.653126465e-21
1.426890551e-21
2.132781875e-20
1.257909779e-21
7.22188182e-22
2.707704744e-20
1.184197494e-20
1.075407321e-20
3.488944e-22
1.073836033e-20
2.549797351e-20
2.589434889e-21
1.564555925e-20
2.383052621e-20
2.23018512e-20
5.53462566e-21
4.718678132e-21
1.063387992e-20
1.033015752e-22
7.829801984e-21
4.464068477e-21
3.427581282e-21
1.343356017e-20
2.832027014e-21
9.244398979e-21
7.104470486e-21
1.519499947e-20
2.704928551e-21
1.14511932e-21
8.938739918e-21
4.5589026e-21
2.922477576e-20
3.605998818e-20
1.954141212e-21
2.38742536e-21
2.022220784e-20
3.935991137e-21
5.139522465e-21
7.864892543e-21
6.042214329e-21
7.354159215e-22
2.527144989e-21
3.355293283e-21
2.16103521e-20
1.603076861e-20
1.335135927e-21
4.042394125e-20
9.26863327e-21
3.839996096e-21
3.804356498e-21
1.191261889e-20
7.287595015e-22
5.035147258e-21
3.092795541e-20
8.634069091e-21
6.483195656e-21
2.29082809e-20
7.70996909e-21
2.053853855e-21
9.759384402e-21
1.029497186e-20
1.21071328e-20
1.498222545e-20
6.115668488e-21
2.160274735e-20
3.267791121e-20
9.327172111e-21
2.589333107e-20
3.277140693e-20
1.045885741e-20
4.328412954e-21
1.4058264e-20
1.71473011e-20
4.683395372e-20
4.123329267e-20
1.616551647e-21
1.159739801e-20
5.748808167e-22
2.003078432e-21
3.958376784e-21
6.61445976e-21
2.792439477e-21
1.021815993e-21
1.421137256e-20
9.845455412e-21
1.299684831e-20
1.405742714e-20
1.309236763e-21
8.628220984e-21
2.780880108e-21
7.512224589e-22
2.031517195e-20
1.268315763e-20
6.730196559e-22
2.133448435e-20
5.561483521e-21
2.106316432e-21
1.128978048e-20
3.520898358e-20
1.056159663e-21
5.816844181e-22
5.121033129e-21
1.344114599e-20
6.665633102e-21
8.78795138e-21
6.07950179e-22
1.871344392e-20
4.58592543e-22
1.689156635e-20
1.636887761e-21
3.701192618e-21
2.48178507e-21
6.790436049e-21
4.713724494e-21
1.275265013e-20
8.763142131e-21
2.672039566e-21
5.04019833e-21
1.061202757e-20
2.094543987e-20
3.686096538e-21
1.702285221e-21
2.134094499e-20
3.129497883e-21
2.785684122e-21
7.354936132e-22
1.057490027e-20
4.0835799e-21
1.732581746e-21
4.990394827e-21
8.190637766e-21
6.220792688e-21
2.183635104e-21
6.549489826e-21
5.381551392e-21
2.584135346e-21
8.748047566e-21
1.698351069e-20
1.528496442e-20
9.722574698e-21
7.060351425e-21
2.018312407e-21
6.932719031e-21
1.004826528e-20
3.143624136e-21
3.332886996e-21
3.465301235e-22
2.353211421e-21
3.346358249e-21
1.058438895e-20
1.52189764e-21
7.930413546e-21
4.428516259e-20
1.870443051e-22
2.352509812e-21
9.488801671e-21
1.946240729e-20
9.466195355e-21
8.821070332e-21
1.576873256e-21
4.666305288e-21
1.545670032e-20
1.244166654e-20
2.576673357e-20
9.33323546e-21
2.087323234e-20
6.086770061e-22
1.434756627e-21
6.590899825e-21
1.574582965e-20
8.234064647e-21
1.52718629e-20
6.372345357e-22
4.810590739e-20
7.231940474e-21
2.945554669e-21
3.467088446e-20
1.335480234e-20
8.601640808e-21
5.66959391e-21
5.507903474e-21
2.369324644e-21
1.316589098e-20
9.274788405e-21
1.031582358e-20
1.089381381e-20
3.5035287e-21
7.104094863e-22
1.126948012e-20
7.155662487e-21
2.566653098e-21
1.54076582e-20
9.278571018e-22
4.004715847e-21
1.430721112e-21
2.606424122e-21
7.249714147e-21
4.021546702e-20
3.796100963e-20
7.770055795e-21
2.683796303e-20
2.453602887e-20
5.024411608e-21
1.004965176e-20
5.794427778e-21
3.014451319e-21
7.388058233e-21
1.185303581e-20
1.435867316e-20
1.68944295e-20
8.214367933e-21
2.519644379e-20
5.218057967e-21
1.359552968e-20
9.213342602e-21
6.56161155e-21
3.408605026e-21
5.88650642e-22
2.020345824e-20
1.48984473e-20
2.88778521e-20
7.934980313e-21
1.573485461e-21
4.501152066e-21
6.834532649e-21
4.792465829e-22
1.041462866e-20
5.701277395e-21
1.77460394e-20
3.483793071e-20
3.073515152e-21
8.049545454e-21
3.733470907e-21
9.689745206e-22
2.147944237e-20
2.054841453e-20
3.047054792e-21
1.570150652e-21
3.407438372e-21
6.190903016e-22
1.830842944e-21
1.982174446e-20
1.143128251e-20
5.851156306e-21
1.540699161e-20
3.540643325e-21
1.439287734e-20
3.334428056e-20
6.365052938e-21
2.240055015e-21
1.142842335e-20
4.800787186e-21
3.704053204e-20
1.234158377e-20
1.191354908e-20
7.303665247e-21
2.217430023e-22
2.50813198e-21
1.662994703e-20
3.992347284e-21
5.590055806e-20
1.506256025e-20
8.211499523e-21
5.62647275e-20
3.384417611e-20
1.619995323e-20
7.153320976e-22
3.67484986e-21
3.819715739e-21
1.593098577e-20
6.615260678e-21
6.076458695e-21
3.07610031e-20
4.032042421e-21
2.104185813e-21
2.665826032e-20
1.172079236e-20
1.614360699e-21
4.198088848e-21
2.374525007e-20
2.291746059e-21
4.181656013e-21
3.025068516e-20
1.634223906e-20
2.509175329e-20
2.603629593e-21
9.06198015e-21
2.418427736e-20
2.677553501e-21
3.673033125e-21
1.029547057e-20
2.236563829e-21
1.036099971e-20
1.066839948e-21
9.26354435e-23
4.105573071e-21
3.038013286e-20
9.4624569e-21
1.830345245e-20
2.981723464e-21
1.242876468e-21
1.619690957e-20
5.848627698e-22
1.760574256e-20
1.917916575e-20
3.554251995e-21
3.428924593e-20
1.418067261e-20
2.592560023e-20
2.709065015e-20
8.054875398e-21
7.517960507e-21
1.130071826e-21
1.167778301e-20
1.208208398e-20
1.438231829e-20
6.487987066e-21
3.82327782e-21
2.964188088e-22
3.478633729e-21
7.59403682e-23
1.10492054e-20
8.253811305e-22
2.340207449e-21
2.485784143e-20
1.377714259e-20
5.43538296e-21
6.150195356e-22
2.423269922e-21
1.699356651e-21
5.884017811e-20
9.699509859e-21
8.729942103e-22
1.79226661e-20
2.04248312e-21
5.462806131e-21
1.53096802e-21
6.529452906e-22
1.310554656e-20
2.330603545e-21
1.313324105e-21
1.028181246e-20
4.396491848e-21
1.236781452e-20
8.014147526e-21
8.48847709e-21
1.572272771e-21
5.40021773e-21
3.265481924e-20
3.957903113e-22
1.211575561e-21
9.353356312e-21
1.083804964e-22
1.422722126e-20
1.31467332e-20
5.620241805e-21
2.005465898e-20
1.729631796e-21
1.916083704e-21
1.54146846e-20
8.458005087e-21
2.62446076e-21
8.081193315e-21
1.075589706e-20
5.184384422e-21
9.01391097e-22
3.542611893e-20
1.062706262e-20
9.297564605e-21
2.38374047e-20
2.365019571e-21
1.955954825e-22
1.493142165e-20
9.624868126e-23
9.501885597e-21
2.702665676e-21
2.262507567e-21
3.695846467e-21
6.175950483e-21
9.934736444e-21
8.220809567e-21
2.482252696e-21
2.879893859e-20
1.159711906e-21
5.17282573e-21
6.530580871e-22
6.749675873e-21
3.042898808e-22
6.303769074e-23
1.113610349e-20
5.269996682e-21
1.712220749e-20
1.0256163e-21
7.981151965e-21
1.744529262e-20
1.211206498e-20
5.60277372e-21
6.271889283e-22
1.143412717e-20
1.947121145e-21
1.229501516e-20
1.921037222e-20
1.334113912e-20
3.432032422e-20
1.872680169e-20
3.122781165e-21
2.19651939e-21
1.141559445e-21
1.283968535e-21
1.223489709e-20
9.997000526e-21
6.200223119e-21
6.018990167e-21
3.352725659e-23
1.226314519e-20
2.842343502e-20
6.457709013e-21
2.162133699e-20
2.235105147e-20
9.5140113e-21
1.340040009e-20
9.885785302e-21
4.603238225e-21
5.659898609e-21
6.877967859e-22
6.081973061e-21
1.457879638e-20
1.920486109e-21
2.830917862e-20
8.060979772e-21
1.382822006e-20
4.239487178e-21
1.31833988e-20
2.850053218e-21
1.08091681e-20
1.787500149e-21
7.653548657e-21
1.353195809e-20
3.05453986e-21
1.42681364e-20
5.400185657e-21
1.979159068e-21
1.760769906e-20
5.396181952e-21
7.484288071e-21
6.368099138e-21
2.077379818e-22
5.622830447e-21
3.856070702e-20
2.956009147e-21
1.840287781e-20
4.334962027e-21
4.1615259e-21
3.019639223e-21
4.302112129e-21
7.514779135e-22
3.578867923e-21
1.928970581e-20
3.493580334e-21
8.51024552e-21
1.977426405e-20
2.980964218e-20
3.516022396e-21
1.307960638e-20
4.852669218e-21
4.323461861e-21
1.92822709e-21
2.857010062e-20
7.33413671e-22
2.388677705e-20
6.073570958e-21
7.802880663e-20
2.323710385e-20
1.043235518e-20
2.712203896e-21
5.613295235e-21
6.14679552e-21
3.708129387e-22
1.886363312e-21
1.332986422e-20
1.955474644e-21
4.670609733e-24
8.023001819e-21
4.514523524e-21
1.865283346e-20
3.916202751e-21
7.525691637e-22
1.309132738e-20
3.483437364e-20
8.374657149e-21
2.067108611e-21
2.521098496e-20
6.706894617e-21
1.230183194e-21
2.775712712e-21
1.134275249e-20
2.681374602e-20
1.130665063e-21
3.841219742e-21
1.74164058e-20
5.45018041e-21
5.800684311e-21
5.661337276e-23
9.637145747e-22
1.511614776e-20
1.62660527e-20
1.846015981e-21
4.349828209e-21
6.436234662e-21
8.368656176e-21
1.387961291e-20
5.793427693e-21
7.32948833e-21
2.452181139e-20
7.061939366e-21
7.43039957e-21
2.273596389e-21
9.91497454e-21
2.117826378e-21
3.363288523e-21
9.952097722e-21
1.967368068e-20
1.088927545e-20
5.656115061e-20
4.034495915e-21
2.229786611e-21
2.320482369e-21
2.158739707e-20
7.516348149e-21
2.306567636e-21
3.483204454e-21
9.051623144e-21
2.486943643e-20
3.939085474e-21
9.697650344e-21
6.618991654e-21
2.21311933e-22
6.693604523e-21
4.601828673e-21
7.185605142e-21
6.348140196e-21
1.393685835e-21
1.877275066e-20
6.35733329e-21
9.416079838e-21
3.539686249e-21
1.981419472e-20
2.552482552e-21
1.374528966e-21
6.206530781e-22
1.815707641e-21
3.815806436e-21
1.082604093e-21
5.149300085e-22
9.836482331e-21
9.779404285e-21
5.301943551e-21
2.199362624e-20
1.675185917e-21
2.664490766e-21
2.094642765e-21
3.026855527e-21
4.892731967e-22
3.274070803e-21
8.712182648e-21
6.77802234e-21
2.517887583e-22
2.307565348e-21
2.677737442e-20
4.839497144e-21
3.099493327e-21
1.033563616e-20
4.291822441e-21
1.949016199e-20
1.441199868e-21
8.175627734e-21
1.769181878e-20
4.545427296e-21
1.05948292e-20
5.250228078e-21
1.218416755e-20
5.521949352e-22
1.131150242e-20
2.964691243e-21
6.83756654e-21
1.41580605e-20
8.989249213e-21
2.552415567e-20
6.08077685e-21
5.531562592e-21
3.918061038e-20
7.663357894e-21
6.915535292e-21
1.162722754e-20
4.309528724e-21
2.473222295e-20
2.421914576e-21
6.565220671e-21
2.267162561e-20
1.656730892e-21
1.531957083e-20
1.274962843e-20
1.754432707e-20
2.56213535e-21
1.841167634e-21
2.279535117e-20
2.18231587e-22
4.313114029e-21
2.131016982e-20
4.028712398e-20
1.716861154e-22
1.256559294e-22
3.319567059e-20
8.180356898e-22
2.306109506e-21
3.279287032e-21
3.989186793e-21
2.562149556e-20
6.020596008e-21
1.066940797e-21
1.523714417e-20
3.244730147e-21
8.263265136e-21
1.800933009e-21
2.457489032e-21
1.864444067e-20
1.52073315e-20
1.102341772e-21
6.622139614e-21
2.793191196e-20
5.978994118e-21
3.090552603e-21
3.76291884e-21
1.897629077e-20
6.799792341e-21
3.982200827e-22
1.626139013e-21
2.726764889e-21
1.0805135e-20
8.323153541e-21
1.736204495e-21
2.120248927e-21
4.37699554e-20
3.022566871e-20
1.826916868e-21
2.814048679e-20
1.903513314e-21
4.661650233e-21
7.358721875e-21
1.141288292e-21
5.469641156e-21
4.451775704e-21
9.502421233e-22
8.707402518e-21
6.22605005e-21
4.16238353e-21
7.380209984e-21
1.447460662e-20
3.565528289e-21
2.893612002e-21
1.548153153e-21
4.818779322e-21
1.107074273e-21
4.632221953e-21
3.500073123e-21
9.40197818e-21
3.560865179e-21
2.488928257e-21
2.075524228e-20
1.60018553e-20
1.069117663e-20
1.990763514e-20
9.785042295e-21
1.105063956e-20
1.447860868e-21
8.631635786e-21
1.110429077e-20
1.929100266e-20
3.088081678e-20
1.090634921e-20
7.174434243e-21
9.748078741e-23
1.890401434e-21
7.294468263e-21
2.322339949e-20
4.109824424e-21
1.962879864e-20
2.399783759e-21
2.268251103e-20
1.533683172e-21
2.327413863e-20
3.024698286e-21
1.135682679e-23
2.370379686e-20
4.188721833e-21
4.252000123e-21
1.593661154e-20
6.056221775e-21
3.806666754e-21
3.786179772e-21
1.621236179e-21
7.100055604e-22
7.11594263e-21
1.809315035e-20
1.770051385e-20
1.674160051e-21
5.236957068e-21
1.875353923e-21
4.760260503e-21
3.318438711e-21
9.670943229e-22
4.688887424e-21
1.730711194e-21
9.382040123e-21
1.595786902e-21
1.41401282e-20
1.068447302e-20
5.214213607e-21
4.236542994e-22
1.10380965e-20
5.610147277e-22
7.628177199e-21
3.454398748e-20
4.994482533e-21
2.90936613e-20
1.812067973e-20
3.23197267e-21
6.37438291e-21
3.833409386e-20
5.765920071e-21
7.734610768e-21
3.292819719e-23
2.700917475e-21
1.224208516e-20
2.981068407e-21
1.578512322e-20
1.0447414e-20
9.864561568e-21
2.742130316e-21
7.207888713e-21
1.131514672e-21
3.176104775e-20
8.510460331e-21
1.53084515e-20
1.437566054e-21
1.216457127e-20
8.833384386e-21
4.162388352e-20
1.162697592e-20
1.459193597e-21
2.834960813e-21
7.518130624e-22
1.331116633e-20
9.072406601e-21
4.298137581e-21
1.409593864e-20
2.322857159e-20
4.226126482e-21
6.391684887e-21
3.396975047e-21
2.346671604e-21
1.741599438e-21
4.399855523e-21
8.22632334e-22
8.133952935e-21
1.094762438e-20
3.547552244e-21
9.485258886e-21
2.739183446e-21
2.241945919e-20
8.362473867e-21
3.390401884e-21
2.399824299e-21
5.392801803e-21
2.959786952e-21
4.588787827e-21
4.25352362e-21
3.122093186e-20
6.379912601e-21
8.965025451e-21
1.232897473e-20
4.551877473e-21
1.764799231e-20
1.700233484e-20
2.545340182e-21
1.687441894e-20
6.770691741e-21
6.079720121e-21