/*--------------------------------*- C++ -*----------------------------------*\
| =========                 |                                                 |
| \\      /  F ield         | OpenFOAM: The Open Source CFD Toolbox           |
|  \\    /   O peration     | Version:  v1912                                 |
|   \\  /    A nd           | Website:  www.openfoam.com                      |
|    \\/     M anipulation  |                                                 |
\*---------------------------------------------------------------------------*/
FoamFile
{
    version     2.0;
    format      ascii;
    class       volTensorField;
    location    "0.18";
    object      grad(U);
}
// * * * * * * * * * * * * * * * * * * * * * * * * * * * * * * * * * * * * * //

dimensions      [0 0 -1 0 0 0 0];


internalField   nonuniform List<tensor> 
1900
(
(-3.10984e-17 3.17205e-16 0 0 0 0 0 0 0)
(3.95892e-17 -6.34411e-19 0 -8.47216e-17 3.17205e-16 0 0 0 0)
(3.10984e-17 -3.17205e-16 0 1.00617e-16 -5.7097e-16 0 0 0 0)
(-3.8045e-17 3.55904e-16 0 0 0 0 0 0 0)
(-1.68847e-18 7.48605e-17 0 6.97166e-18 3.5527e-16 0 0 0 0)
(-1.54419e-18 7.42261e-17 0 -8.97579e-18 7.48605e-17 0 0 0 0)
(1.68847e-18 -7.48605e-17 0 0 2.45517e-16 0 0 0 0)
(-6.74203e-16 -5.09432e-16 0 0 4.49797e-16 0 0 0 0)
(-7.52665e-15 2.69688e-15 0 5.01387e-16 3.67958e-17 0 0 0 0)
(1.99638e-13 2.58133e-14 0 1.24795e-14 4.70559e-15 0 0 0 0)
(-1.1582e-16 0 0 0 0 0 0 0 0)
(1.40206e-16 -5.70335e-16 0 -2.73596e-16 -3.17205e-16 0 0 0 0)
(1.1582e-16 -3.61112e-31 0 2.89969e-16 6.34411e-19 0 0 0 0)
(-1.3169e-16 5.70335e-16 0 0 0 0 0 0 0)
(-1.06643e-17 0 0 1.09782e-16 -3.5527e-16 0 0 0 0)
(-8.51585e-18 -1.83979e-16 0 -1.29881e-16 -7.48605e-17 0 0 0 0)
(1.06643e-17 4.49797e-16 0 0 2.157e-17 0 0 0 0)
(-1.72817e-16 3.00711e-16 0 0 -6.01853e-32 0 0 0 0)
(4.95285e-15 1.55892e-15 0 4.74678e-16 7.99358e-17 0 0 0 0)
(5.31307e-13 8.43643e-14 0 2.14875e-14 -2.70466e-15 0 0 0 0)
(-3.04694e-16 0 0 0 0 0 0 0 0)
(3.29558e-16 0 0 1.1582e-16 0 0 0 0 0)
(3.04694e-16 0 0 -1.40206e-16 4.74539e-16 0 0 0 0)
(-2.18232e-16 0 0 0 0 0 0 0 0)
(-1.3157e-16 0 0 3.08639e-16 -1.36398e-16 0 0 0 0)
(-1.11326e-16 4.51066e-16 0 -3.05375e-16 4.98647e-16 0 0 0 0)
(1.3157e-16 -4.81482e-31 0 0 1.83979e-16 0 0 0 0)
(-1.99525e-16 -4.51066e-16 0 0 -1.02013e-15 0 0 0 0)
(1.39608e-14 -7.78278e-18 0 -4.2326e-17 -2.34732e-16 0 0 0 0)
(9.0982e-13 -8.78832e-16 0 -3.22915e-16 -3.81541e-15 0 0 0 0)
(0 0 0 0 0 0 0 0 0)
(0 -9.5796e-17 0 3.04694e-16 -9.5796e-17 0 0 0 0)
(0 1.50463e-32 0 -3.29558e-16 -8.14584e-16 0 0 0 0)
(3.17155e-16 -4.06023e-17 0 0 -1.79538e-16 0 0 0 0)
(-3.16039e-16 4.98647e-16 0 -1.11326e-16 -7.99992e-16 0 0 0 0)
(-3.17155e-16 1.36398e-16 0 1.3157e-16 -8.81831e-17 0 0 0 0)
(3.16039e-16 -1.06898e-15 0 0 -4.51066e-16 0 0 0 0)
(-2.15143e-16 -1.18e-16 0 0 0 0 0 0 0)
(4.62993e-15 -1.23636e-15 0 -6.11252e-16 -1.74463e-16 0 0 0 0)
(5.26529e-13 -8.31716e-14 0 -2.19443e-14 -2.26912e-15 0 0 0 0)
(0 -9.5796e-17 0 0 0 0 0 0 0)
(0 -8.14584e-16 0 0 9.5796e-17 0 0 0 0)
(0 -8.37422e-17 0 0 9.1038e-16 0 0 0 0)
(0 1.45915e-17 0 0 1.79538e-16 0 0 0 0)
(0 9.13552e-17 0 -3.17155e-16 9.3639e-16 0 0 0 0)
(0 7.99992e-16 0 3.16039e-16 -4.10464e-16 0 0 0 0)
(0 8.81831e-17 0 0 0 0 0 0 0)
(-8.10777e-16 -1.74463e-16 0 0 5.70335e-16 0 0 0 0)
(-7.98343e-15 -2.2769e-15 0 -5.95634e-16 2.92463e-16 0 0 0 0)
(1.96143e-13 -2.37235e-14 0 -1.26134e-14 4.08359e-15 0 0 0 0)
(4.28137e-11 2.84263e-12 -1.5046e-29 3.71801e-13 -7.45241e-14 2.2569e-29 -1.05003e-29 2.21279e-29 -4.07823e-45)
(2.55182e-09 2.18702e-10 0 5.90334e-11 -2.09267e-11 0 -1.00362e-26 -1.24426e-27 0)
(4.88556e-08 4.87898e-09 0 3.29357e-09 -1.82692e-09 0 -6.61834e-25 -7.77765e-26 0)
(2.04095e-07 4.77621e-08 0 4.65128e-08 -6.1143e-08 0 0 0 0)
(-7.86541e-07 1.61928e-07 5.7914e-23 2.26826e-07 -4.79158e-07 -8.6871e-23 -1.38377e-22 -9.2251e-23 -1.56976e-38)
(8.93184e-11 1.36218e-11 0 6.1612e-13 -2.35031e-14 0 5.66842e-29 8.66136e-30 0)
(4.2334e-09 5.9883e-10 0 7.48207e-11 -2.37209e-12 0 1.00362e-26 1.24426e-27 0)
(5.35271e-08 4.02492e-09 0 2.58404e-09 -2.16885e-10 0 6.61834e-25 7.77765e-26 0)
(1.91777e-07 7.60746e-09 0 6.21828e-09 -5.24852e-09 0 0 0 0)
(-2.33925e-06 -9.74042e-07 0 -6.25365e-08 -1.48865e-08 0 0 0 0)
(1.32046e-10 -4.29436e-14 0 -4.21952e-15 -1.45167e-13 0 0 0 0)
(4.98781e-09 1.38718e-13 0 -8.03553e-14 -2.29246e-11 0 0 0 0)
(5.4874e-08 4.54231e-14 0 3.72866e-13 -1.28745e-09 0 0 0 0)
(2.0586e-07 -1.1185e-13 0 -2.73771e-13 -1.1992e-08 0 0 0 0)
(-4.22777e-06 7.82408e-14 0 2.48997e-15 -3.29489e-08 0 0 0 0)
(8.92236e-11 -1.3685e-11 0 -6.19347e-13 -2.03138e-14 0 5.60114e-29 -8.41339e-30 0)
(4.23374e-09 -5.9868e-10 0 -7.48842e-11 -2.29014e-12 0 1.00232e-26 -1.24822e-27 0)
(5.35271e-08 -4.02496e-09 0 -2.58384e-09 -2.17311e-10 0 6.61886e-25 -7.77746e-26 0)
(1.91777e-07 -7.60749e-09 0 -6.21842e-09 -5.24836e-09 0 0 0 0)
(-2.33925e-06 9.74042e-07 0 6.25365e-08 -1.48866e-08 0 0 0 0)
(4.274e-11 -2.83198e-12 1.49664e-29 -3.70368e-13 -7.32594e-14 2.24495e-29 -1.01109e-28 3.84782e-29 -4.05664e-45)
(2.55203e-09 -2.18761e-10 0 -5.89859e-11 -2.08186e-11 0 -1.00232e-26 1.24822e-27 0)
(4.88556e-08 -4.87904e-09 0 -3.29375e-09 -1.82721e-09 0 -6.61886e-25 7.77746e-26 0)
(2.04095e-07 -4.77619e-08 7.45576e-24 -4.65127e-08 -6.11429e-08 1.11836e-23 -1.96206e-23 1.30804e-23 -2.02089e-39)
(-7.86541e-07 -1.61928e-07 -5.7914e-23 -2.26826e-07 -4.79158e-07 -8.6871e-23 1.38377e-22 -9.2251e-23 -1.56976e-38)
(-0.000707725 -5.02349e-05 7.14273e-24 -8.20865e-06 -5.89723e-06 6.42846e-23 -6.18405e-22 -1.36362e-22 -1.93604e-39)
(-0.0174937 0.000888318 -2.7689e-21 -0.00105794 -0.00131314 -2.49201e-20 3.04365e-19 9.26945e-21 -7.50512e-37)
(-0.11579 0.022834 0 -0.00252309 -0.00503119 0 0 0 0)
(-0.285117 0.122315 -1.73692e-19 0.0946908 0.0833864 -1.56323e-18 -3.34372e-17 6.54343e-18 4.70793e-35)
(-0.720411 0.103778 1.23498e-18 0.50821 0.408231 1.11148e-17 4.46848e-17 -4.96498e-18 3.34742e-34)
(-0.00100377 -0.000198677 0 -1.65083e-05 7.24898e-07 0 4.32812e-22 1.56984e-22 0)
(-0.018152 0.00109514 0 -0.00187254 0.000162386 0 -1.68113e-19 -2.44085e-20 0)
(-0.0803953 0.0358976 0 -0.00540831 -0.00287604 0 0 0 0)
(-0.0815373 0.130706 0 0.144956 -0.0594235 0 1.80245e-17 -5.21181e-18 0)
(-0.0191089 0.0197359 0 0.656594 -0.266958 0 -2.40119e-18 2.30491e-18 0)
(-0.00128113 3.50416e-15 0 -8.83239e-14 8.97523e-06 0 0 0 0)
(-0.0192952 -1.11869e-13 0 -8.79973e-14 0.00129616 0 0 0 0)
(-0.0578844 -5.45659e-15 0 -4.04694e-14 -0.00623884 0 0 0 0)
(-0.00367077 6.14566e-14 0 3.84763e-14 -0.181808 0 -5.46355e-18 3.48999e-30 0)
(0.0864095 7.11774e-14 0 5.89951e-14 -0.612262 0 4.80237e-18 -6.18681e-32 0)
(-0.00100377 0.000198677 0 1.65083e-05 7.24898e-07 0 4.32812e-22 -1.56984e-22 0)
(-0.018152 -0.00109514 0 0.00187254 0.000162386 0 -1.68113e-19 2.44085e-20 0)
(-0.0803953 -0.0358976 0 0.00540831 -0.00287604 0 0 0 0)
(-0.0815373 -0.130706 0 -0.144956 -0.0594235 0 1.80245e-17 5.21181e-18 0)
(-0.0191089 -0.0197359 0 -0.656594 -0.266958 0 -2.40119e-18 -2.30491e-18 0)
(-0.000707725 5.02349e-05 0 8.20865e-06 -5.89724e-06 0 -4.32812e-22 1.56984e-22 0)
(-0.0174937 -0.000888318 2.7689e-21 0.00105794 -0.00131314 -2.49201e-20 3.18617e-20 -3.95476e-20 -7.50512e-37)
(-0.11579 -0.022834 0 0.00252309 -0.00503119 0 0 0 0)
(-0.285117 -0.122315 1.73692e-19 -0.0946908 0.0833864 -1.56323e-18 2.85178e-18 -2.51132e-18 4.70793e-35)
(-0.720411 -0.103778 -1.23498e-18 -0.50821 0.408231 1.11148e-17 -4.46848e-17 -4.96498e-18 3.34742e-34)
(-0.0794428 -0.254952 0 3.95145 -0.0110409 0 0 0 0)
(0.578599 -0.0956884 0 0.790128 0.134644 0 0 0 0)
(0.172839 0.173223 0 0.194738 0.00181041 0 0 0 0)
(0.0741954 0.043279 0 0.0137789 0.00137631 0 0 0 0)
(0.00742668 0.00330152 0 0.000174576 5.48269e-05 0 0 0 0)
(0.000135362 3.77867e-05 0 2.54157e-07 1.23565e-07 0 0 0 0)
(2.80731e-07 4.60469e-08 0 2.59424e-11 1.94064e-11 0 0 0 0)
(4.3948e-11 4.07096e-12 0 1.40997e-15 -3.24912e-16 0 0 0 0)
(1.20808e-15 -2.74317e-16 0 5.92666e-17 -1.46008e-15 0 0 0 0)
(7.17172e-17 6.98796e-16 0 -4.00951e-16 -1.92296e-16 0 0 0 0)
(1.29464e-16 -5.2934e-16 0 -2.28948e-16 -7.9921e-16 0 0 0 0)
(-1.77462e-17 -2.52506e-16 0 4.38423e-16 3.59312e-15 0 0 0 0)
(-2.34389e-16 6.20779e-17 0 5.31817e-16 7.48034e-16 0 0 0 0)
(-1.34231e-16 6.37557e-17 0 -4.63982e-16 7.10509e-16 0 0 0 0)
(6.79854e-16 2.16434e-16 0 6.61486e-17 1.55308e-16 0 0 0 0)
(-1.19545e-17 -2.15595e-16 0 2.89391e-16 1.50105e-15 0 0 0 0)
(-7.51737e-16 1.77006e-16 0 1.57916e-16 1.6274e-16 0 0 0 0)
(-2.61473e-16 6.09873e-16 0 -2.43704e-17 4.88665e-16 0 0 0 0)
(4.78205e-16 -1.60228e-16 0 -8.99197e-16 4.37463e-15 0 0 0 0)
(4.31442e-16 -3.88406e-16 0 4.52988e-16 2.84119e-15 0 0 0 0)
(-1.55682e-16 -3.89245e-16 0 -1.11359e-16 3.40988e-17 0 0 0 0)
(-1.6893e-16 6.54335e-17 0 6.32446e-16 2.57888e-15 0 0 0 0)
(-2.91791e-16 1.83717e-15 0 2.0879e-16 3.2832e-16 0 0 0 0)
(2.35859e-17 -3.51495e-16 0 -1.02315e-15 3.39576e-15 0 0 0 0)
(7.34135e-16 -1.17109e-15 0 -1.48959e-15 2.88266e-15 0 0 0 0)
(2.80594e-16 -6.20779e-17 0 6.04983e-16 -1.09941e-15 0 0 0 0)
(-8.77027e-16 -1.16606e-16 0 4.85979e-16 -3.38689e-15 0 0 0 0)
(-2.43661e-16 1.23652e-15 0 4.66897e-16 1.15326e-15 0 0 0 0)
(4.81645e-16 1.31874e-15 0 8.59721e-16 -1.87302e-16 0 0 0 0)
(2.76116e-16 -7.32351e-16 0 -2.58136e-16 -1.96751e-15 0 0 0 0)
(4.94772e-17 -1.22142e-15 0 -7.58878e-16 -7.61939e-16 0 0 0 0)
(2.65053e-15 -5.19273e-16 0 -2.05549e-17 -3.21058e-15 0 0 0 0)
(9.09984e-11 -2.679e-14 0 6.72289e-17 2.00135e-15 0 0 0 0)
(5.75753e-07 4.33606e-14 0 -6.47628e-14 -3.28546e-14 0 0 0 0)
(0.000274154 3.3068e-15 0 1.24934e-13 1.66744e-13 0 0 0 0)
(0.0147092 1.2297e-13 0 -9.05981e-14 -8.14593e-14 0 0 0 0)
(0.147788 5.89897e-14 0 2.58745e-13 -1.64363e-14 0 0 0 0)
(0.431886 -5.92863e-14 0 -1.24067e-13 -2.46977e-13 0 0 0 0)
(2.02254 4.30409e-14 0 -1.28133e-14 -2.73853e-13 0 0 0 0)
(1.72401 -2.82575e-14 0 2.1684e-14 -2.43793e-13 0 0 0 0)
(0.0217645 -0.19852 0 2.31525 -0.180028 0 0 0 0)
(0.052717 -0.062571 0 0.618186 0.606803 0 0 0 0)
(0.0385133 0.100064 0 0.177184 0.148901 0 0 0 0)
(0.0390604 0.0317029 0 0.00929379 0.0113491 0 0 0 0)
(0.00525647 0.0021761 0 1.15697e-07 0.000129892 0 0 0 0)
(0.00011642 1.55735e-05 0 -2.58913e-07 1.58286e-07 0 0 0 0)
(2.70066e-07 6.7859e-09 0 -6.84704e-11 1.39696e-11 0 0 0 0)
(4.60572e-11 -1.22248e-12 0 -1.69559e-15 -1.19673e-15 0 0 0 0)
(1.14598e-15 -2.99484e-16 0 1.94738e-16 1.01217e-15 0 0 0 0)
(-4.53872e-17 6.7279e-16 0 -9.7285e-16 -3.48926e-16 0 0 0 0)
(3.13604e-16 1.03184e-15 0 4.91703e-16 -1.96379e-15 0 0 0 0)
(2.11798e-16 1.92106e-16 0 -1.26104e-16 4.95994e-15 0 0 0 0)
(-3.88205e-16 -7.44935e-16 0 1.20671e-16 -1.09292e-15 0 0 0 0)
(-2.07446e-16 -1.93784e-16 0 -1.04313e-15 3.2701e-15 0 0 0 0)
(6.21893e-16 1.77006e-16 0 -1.7642e-16 -1.54854e-15 0 0 0 0)
(2.02857e-17 8.3889e-19 0 -1.52933e-17 6.08458e-16 0 0 0 0)
(-5.32552e-16 -1.31706e-16 0 2.22428e-16 0 0 0 0 0)
(-4.47734e-16 1.26756e-15 0 8.32054e-16 -2.7357e-32 0 0 0 0)
(3.95297e-16 4.89073e-16 0 5.64761e-16 1.70137e-15 0 0 0 0)
(4.60542e-16 -1.26756e-15 0 -7.05322e-16 3.71995e-15 0 0 0 0)
(-3.12758e-17 -1.33384e-16 0 -1.51104e-16 -7.49758e-16 0 0 0 0)
(2.54827e-18 2.78512e-16 0 4.18027e-16 5.8683e-15 0 0 0 0)
(-6.38096e-16 1.03267e-15 0 3.53486e-16 1.12464e-15 0 0 0 0)
(-4.81427e-16 3.66595e-16 0 -9.8242e-17 -1.81961e-15 0 0 0 0)
(9.16634e-16 -1.79271e-15 0 -2.56575e-15 3.86126e-15 0 0 0 0)
(7.25175e-16 -1.52175e-15 0 -1.41333e-15 6.34411e-16 0 0 0 0)
(-5.65544e-16 7.3319e-16 0 1.22919e-15 -2.82601e-16 0 0 0 0)
(-2.19342e-17 1.44205e-15 0 1.24287e-15 3.2528e-15 0 0 0 0)
(5.31098e-17 -1.60228e-16 0 -1.37329e-16 -3.81512e-15 0 0 0 0)
(-3.03659e-16 -5.65412e-16 0 -5.7633e-16 -9.54788e-15 0 0 0 0)
(9.56457e-17 -1.02093e-15 0 -6.28265e-16 -2.30695e-15 0 0 0 0)
(3.08158e-15 5.84707e-16 0 -4.23621e-16 -1.29477e-15 0 0 0 0)
(9.09793e-11 -1.46487e-14 0 1.08654e-15 5.37231e-15 0 0 0 0)
(5.75753e-07 4.04261e-14 0 -3.85025e-14 -1.39224e-14 0 0 0 0)
(0.000274154 -1.95757e-14 0 7.81712e-14 -2.71067e-13 0 0 0 0)
(0.0147092 7.14039e-14 0 -1.23172e-13 1.25986e-13 0 0 0 0)
(0.147788 1.6392e-14 0 1.9357e-13 -3.67307e-13 0 0 0 0)
(0.431886 -1.11097e-13 0 -2.19797e-13 -3.28469e-13 0 0 0 0)
(2.02254 4.49567e-15 0 -1.23205e-14 -4.95474e-13 0 0 0 0)
(1.72401 -1.54618e-14 0 1.77415e-14 -5.7472e-13 0 0 0 0)
(0.0258312 8.2616e-14 0 1.39683e-13 -0.212111 0 0 0 0)
(-0.0433832 -6.96132e-14 0 9.2342e-14 0.7029 0 0 0 0)
(-0.00429354 -1.61226e-13 0 -2.49582e-13 0.218064 0 0 0 0)
(0.022651 9.31124e-15 0 4.76264e-15 0.0149607 0 0 0 0)
(0.00472296 1.38762e-13 0 5.95708e-14 0.000107068 0 0 0 0)
(0.000135328 -3.26036e-14 0 -1.36813e-13 4.66533e-08 0 0 0 0)
(3.56052e-07 -4.64217e-14 0 1.52528e-14 -8.3859e-12 0 0 0 0)
(6.38667e-11 7.37552e-15 0 1.99894e-16 -1.02948e-15 0 0 0 0)
(1.41834e-15 -2.76834e-17 0 6.14255e-16 4.60236e-15 0 0 0 0)
(1.58107e-16 -1.66939e-16 0 -1.68208e-16 2.57225e-15 0 0 0 0)
(3.75791e-16 1.01506e-15 0 5.14809e-16 -2.0157e-15 0 0 0 0)
(-1.25683e-16 8.3889e-19 0 -9.47546e-16 -1.0785e-15 0 0 0 0)
(-5.0116e-16 -4.29512e-16 0 -1.40686e-16 -9.40082e-16 0 0 0 0)
(-2.20657e-16 -6.8789e-17 0 2.96989e-16 3.68823e-15 0 0 0 0)
(9.78861e-16 -5.57862e-16 0 -7.52113e-16 8.16083e-16 0 0 0 0)
(1.04074e-16 2.34889e-16 0 -5.98673e-16 -6.08458e-16 0 0 0 0)
(-5.05236e-16 0 0 -2.43292e-16 0 0 0 0 0)
(-1.61885e-16 1.10482e-15 0 2.59212e-16 -1.55719e-16 0 0 0 0)
(3.09685e-17 9.21941e-16 0 1.76006e-15 -3.63056e-15 0 0 0 0)
(2.2319e-16 -1.10146e-15 0 -1.29194e-15 -8.04548e-16 0 0 0 0)
(1.7111e-16 2.35728e-16 0 2.07709e-16 -3.41962e-33 0 0 0 0)
(-2.21404e-17 6.10712e-16 0 2.70671e-16 -1.06408e-15 0 0 0 0)
(-4.41978e-16 -3.99312e-16 0 9.96209e-17 -1.2544e-15 0 0 0 0)
(-8.25648e-16 4.44612e-16 0 -9.19703e-17 -4.99166e-15 0 0 0 0)
(3.51563e-16 -4.57195e-16 0 1.48132e-16 -6.74782e-16 0 0 0 0)
(1.38458e-15 -1.26756e-15 0 -1.63182e-15 4.60525e-15 0 0 0 0)
(-1.04315e-16 6.45107e-16 0 9.25613e-16 3.01345e-15 0 0 0 0)
(-6.41193e-16 2.08884e-16 0 8.3066e-16 -8.67989e-16 0 0 0 0)
(-4.75756e-17 -2.4051e-15 0 -2.36986e-15 -1.9436e-15 0 0 0 0)
(1.33298e-16 -2.93612e-16 0 -5.25776e-16 -3.78628e-15 0 0 0 0)
(9.39017e-17 1.17948e-15 0 4.93964e-16 -9.68918e-16 0 0 0 0)
(3.14939e-15 1.71469e-15 0 4.45603e-17 6.63248e-16 0 0 0 0)
(9.09873e-11 -3.04635e-14 0 2.91487e-15 6.54597e-16 0 0 0 0)
(5.75753e-07 -3.7058e-14 0 -8.64187e-14 -1.98646e-13 0 0 0 0)
(0.000274154 4.40075e-14 0 4.0074e-14 -3.97709e-13 0 0 0 0)
(0.0147092 9.49727e-14 0 1.17287e-13 3.27119e-13 0 0 0 0)
(0.147788 -7.32155e-14 0 1.01798e-13 -3.33259e-13 0 0 0 0)
(0.431886 -9.65712e-14 0 -2.09941e-13 -2.22798e-13 0 0 0 0)
(2.02254 -2.85957e-14 0 -6.75162e-14 -2.5293e-13 0 0 0 0)
(1.72401 -5.1311e-14 0 -6.11096e-14 -2.03736e-13 0 0 0 0)
(0.0217645 0.19852 0 -2.31525 -0.180028 0 0 0 0)
(0.052717 0.062571 0 -0.618186 0.606803 0 0 0 0)
(0.0385133 -0.100064 0 -0.177184 0.148901 0 0 0 0)
(0.0390604 -0.0317029 0 -0.00929379 0.0113491 0 0 0 0)
(0.00525647 -0.0021761 0 -1.15697e-07 0.000129892 0 0 0 0)
(0.00011642 -1.55735e-05 0 2.58913e-07 1.58286e-07 0 0 0 0)
(2.70066e-07 -6.78597e-09 0 6.84709e-11 1.40682e-11 0 0 0 0)
(4.6053e-11 1.2184e-12 0 1.06757e-15 -1.8023e-15 0 0 0 0)
(1.0389e-15 7.4829e-16 0 7.85892e-16 1.02948e-15 0 0 0 0)
(-7.4317e-17 -1.25246e-15 0 5.23712e-16 -6.48829e-16 0 0 0 0)
(8.6888e-17 -3.02001e-17 0 3.39407e-16 -5.68086e-16 0 0 0 0)
(2.11081e-17 5.05012e-16 0 7.08927e-17 -3.3941e-15 0 0 0 0)
(-2.61584e-17 6.41751e-16 0 -4.0732e-16 -3.43159e-16 0 0 0 0)
(-3.85316e-16 3.17101e-16 0 2.04308e-15 -1.6437e-16 0 0 0 0)
(3.61337e-16 -1.07294e-15 0 -1.38189e-16 2.33579e-15 0 0 0 0)
(1.68306e-16 -2.36567e-16 0 -1.71755e-15 0 0 0 0 0)
(-2.82986e-16 0 0 -4.54774e-16 0 0 0 0 0)
(1.35059e-16 2.114e-16 0 1.60467e-17 0 0 0 0 0)
(-5.59469e-17 3.00323e-16 0 6.17274e-16 -5.5857e-15 0 0 0 0)
(8.94928e-18 -2.114e-16 0 -9.2315e-17 -4.15539e-15 0 0 0 0)
(4.23301e-16 -2.08884e-16 0 -1.49942e-16 -1.15347e-17 0 0 0 0)
(-2.88955e-17 -8.64057e-17 0 -5.36726e-16 -3.97949e-15 0 0 0 0)
(-7.43591e-16 -1.09895e-16 0 -7.38344e-17 -4.74366e-15 0 0 0 0)
(-4.67315e-16 5.35212e-16 0 4.02127e-16 -4.82152e-15 0 0 0 0)
(4.6868e-16 9.99118e-16 0 2.66529e-15 -3.63921e-15 0 0 0 0)
(9.51352e-16 -4.48806e-16 0 -4.5151e-16 6.48829e-16 0 0 0 0)
(1.50812e-16 -8.59024e-16 0 -1.12999e-15 7.18038e-16 0 0 0 0)
(-9.80619e-16 0 0 1.04193e-15 -7.04484e-15 0 0 0 0)
(-3.4149e-16 -1.00919e-15 0 -7.21687e-16 0 0 0 0 0)
(5.29455e-16 -2.81867e-16 0 2.92315e-16 3.55558e-15 0 0 0 0)
(2.61562e-16 2.73478e-16 0 -2.49262e-16 -1.1131e-15 0 0 0 0)
(3.78585e-15 1.057e-15 0 -6.71202e-17 2.59532e-16 0 0 0 0)
(9.09542e-11 -7.26295e-14 0 7.19303e-16 -7.78307e-15 0 0 0 0)
(5.75753e-07 -7.54616e-14 0 -1.67198e-13 2.70807e-14 0 0 0 0)
(0.000274154 1.33374e-13 0 8.8169e-14 -3.03941e-15 0 0 0 0)
(0.0147092 9.01532e-14 0 2.24701e-13 1.09444e-13 0 0 0 0)
(0.147788 -1.43584e-13 0 -2.61964e-14 -5.99513e-13 0 0 0 0)
(0.431886 -8.77284e-14 0 -1.69407e-13 -2.46476e-14 0 0 0 0)
(2.02254 1.0041e-14 0 -6.2588e-14 -3.39585e-13 0 0 0 0)
(1.72401 -1.15058e-15 0 -2.56266e-14 3.72128e-14 0 0 0 0)
(-0.0794428 0.254952 0 -3.95145 -0.0110409 0 0 0 0)
(0.578599 0.0956884 0 -0.790128 0.134644 0 0 0 0)
(0.172839 -0.173223 0 -0.194738 0.00181041 0 0 0 0)
(0.0741954 -0.043279 0 -0.0137789 0.00137631 0 0 0 0)
(0.00742668 -0.00330152 0 -0.000174576 5.48269e-05 0 0 0 0)
(0.000135362 -3.77867e-05 0 -2.54157e-07 1.23565e-07 0 0 0 0)
(2.80731e-07 -4.60469e-08 0 -2.5948e-11 1.93792e-11 0 0 0 0)
(4.39481e-11 -4.08489e-12 0 -1.98688e-15 1.05251e-15 0 0 0 0)
(1.26012e-15 3.07873e-16 0 -1.47684e-16 -1.5572e-15 0 0 0 0)
(2.82206e-17 -6.31684e-16 0 1.69538e-16 -1.32084e-15 0 0 0 0)
(2.44061e-16 2.16434e-16 0 1.59807e-16 1.50907e-15 0 0 0 0)
(-3.42912e-16 6.62723e-17 0 6.07283e-16 -1.21454e-15 0 0 0 0)
(7.25662e-17 5.10045e-16 0 -6.43194e-16 -1.0071e-16 0 0 0 0)
(-1.42365e-16 7.1054e-16 0 6.71426e-16 -3.29997e-15 0 0 0 0)
(-1.15138e-16 -5.10045e-16 0 5.20856e-16 9.35585e-17 0 0 0 0)
(1.19764e-17 -4.44612e-16 0 -7.57072e-16 4.03732e-17 0 0 0 0)
(-9.17944e-19 0 0 -3.92161e-17 0 0 0 0 0)
(1.49983e-16 -5.20112e-16 0 2.16873e-16 0 0 0 0 0)
(-5.54939e-19 -2.86901e-16 0 -2.27017e-16 -2.06855e-15 0 0 0 0)
(-5.43372e-25 5.20112e-16 0 4.11232e-16 -1.80546e-15 0 0 0 0)
(4.18269e-17 2.86901e-16 0 -2.57781e-16 0 0 0 0 0)
(-5.82523e-24 -7.65907e-16 0 -9.66767e-16 -3.68422e-16 0 0 0 0)
(-1.68858e-16 -6.44268e-16 0 -1.58452e-16 -1.77326e-15 0 0 0 0)
(-2.88127e-17 7.65907e-16 0 1.21803e-15 -1.5311e-15 0 0 0 0)
(1.03232e-16 1.13418e-15 0 1.49366e-15 -1.54277e-15 0 0 0 0)
(2.80495e-16 9.41079e-30 0 -2.33438e-16 -2.46798e-15 0 0 0 0)
(3.30141e-16 -1.59305e-15 0 -1.26618e-15 -4.57428e-16 0 0 0 0)
(-5.22413e-16 -7.00338e-30 0 -5.27362e-17 -3.23358e-15 0 0 0 0)
(-2.65646e-16 6.78662e-16 0 1.04951e-15 -5.93486e-16 0 0 0 0)
(2.70731e-16 -6.17423e-16 0 7.90393e-16 2.37105e-15 0 0 0 0)
(-1.06612e-17 2.20628e-16 0 -2.71453e-16 -4.62286e-16 0 0 0 0)
(3.43115e-15 -2.25662e-16 0 -4.12442e-16 1.70765e-15 0 0 0 0)
(9.09387e-11 -2.26609e-14 0 -2.05358e-15 -5.33853e-15 0 0 0 0)
(5.75753e-07 -3.5678e-14 0 -6.3637e-14 2.13397e-13 0 0 0 0)
(0.000274154 6.79678e-14 0 2.17817e-14 3.04333e-13 0 0 0 0)
(0.0147092 -7.8547e-14 0 9.5791e-14 -7.68817e-14 0 0 0 0)
(0.147788 -1.12224e-13 0 -3.18207e-13 -4.68051e-13 0 0 0 0)
(0.431886 -2.09556e-14 0 3.08012e-14 9.53159e-14 0 0 0 0)
(2.02254 -1.06e-14 0 2.1684e-14 -6.17063e-14 0 0 0 0)
(1.72401 5.83027e-14 0 6.70234e-14 4.82424e-14 0 0 0 0)
(1.54026 0.113704 0 -2.27628 0.0769201 0 0 0 0)
(1.80115 0.0323403 0 -0.385603 -0.214772 0 0 0 0)
(0.370182 -0.099069 0 -0.100212 -0.0556003 0 0 0 0)
(0.12048 -0.0194193 0 -0.00944765 -0.00399822 0 0 0 0)
(0.0113901 -0.00173808 0 -0.000174344 -4.17043e-05 0 0 0 0)
(0.000204025 -2.42808e-05 0 -3.62186e-07 -4.26761e-08 0 0 0 0)
(4.17161e-07 -3.88993e-08 0 -5.68322e-11 -2.59496e-12 0 0 0 0)
(6.47631e-11 -4.80668e-12 0 -1.83177e-15 7.67175e-16 0 0 0 0)
(2.13576e-15 -2.31217e-16 0 -4.70487e-16 -8.32897e-16 0 0 0 0)
(4.75611e-21 -4.68512e-17 0 -7.96147e-17 4.74367e-16 0 0 0 0)
(1.79742e-16 -2.48691e-16 0 -5.15434e-16 5.67504e-16 0 0 0 0)
(-6.16939e-17 2.5325e-18 0 1.94776e-16 -8.08073e-17 0 0 0 0)
(-1.00073e-16 -5.14097e-16 0 -1.44039e-16 4.63262e-16 0 0 0 0)
(6.39484e-17 -1.59547e-17 0 -2.7756e-16 -1.00576e-15 0 0 0 0)
(1.62048e-17 3.71518e-16 0 2.95844e-16 -6.42357e-16 0 0 0 0)
(-2.25466e-18 -5.4702e-17 0 -3.63973e-17 4.24334e-16 0 0 0 0)
(1.8028e-18 -2.5325e-17 0 2.39107e-16 5.49266e-17 0 0 0 0)
(9.62762e-23 -2.40334e-16 0 -5.03814e-17 0 0 0 0 0)
(1.92176e-18 -1.53216e-16 0 -1.94231e-23 6.95426e-16 0 0 0 0)
(4.75314e-24 2.40334e-16 0 3.69447e-21 7.10613e-16 0 0 0 0)
(-1.96536e-22 1.19281e-16 0 1.49951e-20 0 0 0 0 0)
(6.73465e-23 -4.13051e-16 0 -6.66806e-17 -1.8884e-17 0 0 0 0)
(-3.76632e-17 -2.2134e-16 0 2.28531e-20 9.91162e-16 0 0 0 0)
(6.19915e-17 4.13051e-16 0 4.71234e-19 8.85041e-16 0 0 0 0)
(-1.92392e-17 2.55276e-16 0 2.60971e-16 -1.74241e-16 0 0 0 0)
(-4.14012e-18 -2.86932e-16 0 -1.61315e-16 -7.81019e-16 0 0 0 0)
(5.68125e-17 -4.90545e-16 0 -1.75278e-16 -3.24185e-16 0 0 0 0)
(-5.78514e-17 -8.53452e-17 0 -4.90347e-16 1.48566e-15 0 0 0 0)
(9.96882e-17 5.54871e-16 0 4.31599e-16 -2.27133e-16 0 0 0 0)
(-1.38607e-25 1.88418e-16 0 3.33605e-16 7.125e-16 0 0 0 0)
(-1.78187e-16 -8.15465e-17 0 -1.30434e-23 8.81986e-16 0 0 0 0)
(3.07808e-15 -5.18656e-16 0 -4.02146e-16 3.15396e-16 0 0 0 0)
(9.09324e-11 2.38156e-15 0 -8.94422e-16 4.96364e-16 0 0 0 0)
(5.75753e-07 7.27873e-14 0 2.54956e-15 4.19586e-14 0 0 0 0)
(0.000274154 2.69156e-14 0 1.20377e-13 9.95695e-14 0 0 0 0)
(0.0147092 -1.99283e-13 0 -6.68347e-14 -2.39105e-14 0 0 0 0)
(0.147788 -7.18283e-14 0 -3.08923e-13 1.19701e-13 0 0 0 0)
(0.431886 8.99543e-14 0 9.55139e-14 7.3912e-14 0 0 0 0)
(2.02254 4.37921e-15 0 3.07965e-14 2.0607e-13 0 0 0 0)
(1.72401 -9.25711e-16 0 3.09453e-14 1.1796e-13 0 0 0 0)
(1.72211 0.00958085 0 -0.258153 0.0133996 0 0 0 0)
(2.01997 0.00195626 0 -0.0674552 -0.10443 0 0 0 0)
(0.429494 -0.00987733 0 -0.0283814 -0.0201233 0 0 0 0)
(0.145776 -0.00253501 0 -0.00343931 -0.00179678 0 0 0 0)
(0.0144051 -0.000287095 0 -7.26295e-05 -2.50667e-05 0 0 0 0)
(0.000266546 -4.84121e-06 0 -1.64184e-07 -4.01085e-08 0 0 0 0)
(5.56589e-07 -8.75541e-09 0 -2.71254e-11 -4.95356e-12 0 0 0 0)
(8.75517e-11 -1.19805e-12 0 -8.67333e-16 -7.04584e-16 0 0 0 0)
(2.47902e-15 3.1479e-16 0 -1.10545e-19 -1.5637e-16 0 0 0 0)
(3.85821e-20 4.04187e-16 0 1.03357e-16 -4.32317e-16 0 0 0 0)
(5.42964e-16 -6.91372e-17 0 -9.01355e-23 -7.0695e-17 0 0 0 0)
(-1.35821e-16 1.05711e-30 0 -8.31686e-17 -1.74241e-16 0 0 0 0)
(-2.90019e-16 1.67905e-16 0 2.71248e-16 -7.3323e-17 0 0 0 0)
(1.7089e-16 3.46952e-17 0 3.97482e-16 7.53466e-16 0 0 0 0)
(4.68245e-17 3.95323e-16 0 -3.14111e-16 -2.41782e-17 0 0 0 0)
(-3.50661e-17 1.8234e-17 0 -2.53838e-16 2.75947e-17 0 0 0 0)
(-1.58525e-17 -3.95323e-16 0 3.404e-20 4.50976e-16 0 0 0 0)
(-3.35886e-21 -5.29292e-17 0 -1.67127e-16 1.73978e-16 0 0 0 0)
(4.66699e-17 3.26186e-16 0 -4.03016e-20 2.49403e-16 0 0 0 0)
(1.44652e-20 -6.34269e-30 0 3.81961e-20 1.58998e-16 0 0 0 0)
(-3.44938e-21 -3.26186e-16 0 3.12182e-18 0 0 0 0 0)
(7.52719e-21 0 0 -4.3905e-23 3.52161e-17 0 0 0 0)
(-1.74498e-16 0 0 4.72661e-19 6.64901e-16 0 0 0 0)
(1.73954e-16 -1.67905e-16 0 3.42264e-17 2.64909e-16 0 0 0 0)
(1.30025e-17 1.12318e-30 0 -6.31072e-17 1.74241e-16 0 0 0 0)
(1.274e-17 9.37025e-18 0 5.83713e-17 -1.10904e-16 0 0 0 0)
(1.59641e-16 5.1204e-30 0 -5.1809e-18 5.48214e-16 0 0 0 0)
(-1.86716e-16 1.39287e-16 0 -4.67384e-17 5.09056e-16 0 0 0 0)
(3.3244e-16 1.23881e-31 0 -1.93636e-35 3.86326e-16 0 0 0 0)
(-1.25172e-23 1.9247e-17 0 -1.03322e-16 -6.67529e-17 0 0 0 0)
(-6.29825e-16 0 0 -3.31356e-20 1.90798e-16 0 0 0 0)
(2.75858e-15 -4.40148e-16 0 -2.28956e-16 -1.5637e-16 0 0 0 0)
(9.09449e-11 4.03934e-15 0 -2.35776e-16 4.77519e-16 0 0 0 0)
(5.75753e-07 1.62992e-15 0 1.22111e-14 1.56228e-14 0 0 0 0)
(0.000274154 2.65075e-14 0 1.28371e-14 -9.58558e-14 0 0 0 0)
(0.0147092 5.59433e-15 0 4.1108e-14 -1.25544e-14 0 0 0 0)
(0.147788 -3.96201e-14 0 -6.02867e-14 2.3072e-13 0 0 0 0)
(0.431886 2.79958e-15 0 -1.7258e-14 1.00896e-13 0 0 0 0)
(2.02254 2.38143e-14 0 3.55574e-14 6.20239e-14 0 0 0 0)
(1.72401 5.15736e-15 0 5.95102e-16 1.04892e-13 0 0 0 0)
(1.72403 0.000159022 0 -0.00476572 -0.000605129 0 0 0 0)
(2.02257 3.63881e-05 0 -0.00279776 -0.0105476 0 0 0 0)
(0.43187 -0.000167916 0 -0.00209512 -0.00263556 0 0 0 0)
(0.147759 -5.18318e-05 0 -0.000315595 -0.00029792 0 0 0 0)
(0.0147042 -6.67578e-06 0 -7.89495e-06 -5.02355e-06 0 0 0 0)
(0.000274014 -1.25711e-07 0 -1.98859e-08 -9.08505e-09 0 0 0 0)
(5.75375e-07 -2.49371e-10 0 -3.53621e-12 -1.22888e-12 0 0 0 0)
(9.09021e-11 -3.34072e-14 0 -4.62578e-16 4.29163e-16 0 0 0 0)
(3.07115e-15 3.11497e-17 0 2.5138e-17 4.19439e-16 0 0 0 0)
(1.11195e-19 3.57082e-17 0 3.43058e-16 1.02495e-16 0 0 0 0)
(5.30439e-29 0 0 -1.13896e-20 0 0 0 0 0)
(1.99691e-16 0 0 -2.20395e-16 1.74241e-16 0 0 0 0)
(3.63099e-16 3.79875e-16 0 2.44302e-16 -2.36526e-16 0 0 0 0)
(-5.00126e-16 3.1403e-17 0 1.12032e-16 4.57283e-17 0 0 0 0)
(-6.11431e-16 -3.27959e-16 0 -1.56661e-16 -3.60045e-17 0 0 0 0)
(3.00467e-16 4.03174e-16 0 3.14824e-17 -7.67132e-16 0 0 0 0)
(8.53606e-17 1.15735e-16 0 4.97828e-19 -5.39805e-16 0 0 0 0)
(-7.1542e-20 -4.34577e-16 0 6.19192e-17 -1.73978e-16 0 0 0 0)
(1.63008e-16 -1.67651e-16 0 -5.23602e-18 0 0 0 0 0)
(3.04714e-18 0 0 4.91452e-18 -3.38495e-16 0 0 0 0)
(-3.7046e-20 0 0 6.87492e-17 0 0 0 0 0)
(-2.55276e-18 2.27672e-16 0 -3.36766e-20 0 0 0 0 0)
(-4.68127e-18 4.39363e-30 0 5.35014e-18 4.95522e-31 0 0 0 0)
(7.23577e-19 -5.9767e-17 0 8.93576e-17 0 0 0 0 0)
(4.02764e-18 -1.06871e-16 0 -1.70634e-16 1.74241e-16 0 0 0 0)
(5.16798e-17 7.34425e-17 0 1.62706e-16 3.22726e-16 0 0 0 0)
(-4.44751e-17 1.06871e-16 0 -1.30116e-17 1.64517e-16 0 0 0 0)
(-5.28589e-17 -2.41347e-16 0 -1.78127e-16 0 0 0 0 0)
(4.51619e-17 0 0 5.78712e-34 1.99733e-17 0 0 0 0)
(-3.19308e-20 0 0 -3.39426e-16 0 0 0 0 0)
(-2.99252e-16 -1.67905e-16 0 -5.41112e-18 0 0 0 0 0)
(2.85091e-15 -2.4236e-16 0 1.29775e-16 1.74241e-16 0 0 0 0)
(9.09444e-11 1.75869e-14 0 4.73622e-16 9.63449e-16 0 0 0 0)
(5.75753e-07 -2.0043e-14 0 4.40204e-14 5.86821e-15 0 0 0 0)
(0.000274154 -2.36998e-16 0 -1.05125e-13 -4.02483e-14 0 0 0 0)
(0.0147092 1.15418e-13 0 9.8445e-14 -3.72147e-14 0 0 0 0)
(0.147788 3.74963e-14 0 1.18676e-13 5.60295e-14 0 0 0 0)
(0.431886 -7.26072e-14 0 -9.29104e-14 8.75337e-15 0 0 0 0)
(2.02254 8.23011e-15 0 -5.80225e-15 -7.74188e-15 0 0 0 0)
(1.72401 4.03834e-14 0 1.96384e-14 -1.99268e-14 0 0 0 0)
(1.72401 -9.11055e-08 0 -3.8749e-06 -1.61558e-05 0 0 0 0)
(2.02254 -3.40522e-07 0 -2.2321e-05 -0.00018118 0 0 0 0)
(0.431886 -3.56019e-07 0 -2.98142e-05 -5.39181e-05 0 0 0 0)
(0.147788 -1.23096e-07 0 -5.18513e-06 -6.92795e-06 0 0 0 0)
(0.0147092 -1.6824e-08 0 -1.45457e-07 -1.30455e-07 0 0 0 0)
(0.000274154 -3.31578e-10 0 -3.92712e-10 -2.58699e-10 0 0 0 0)
(5.75752e-07 -7.20725e-13 0 -1.01623e-13 -1.40483e-14 0 0 0 0)
(9.09593e-11 -1.34514e-14 0 -6.56227e-16 3.23252e-17 0 0 0 0)
(3.25536e-15 0 0 2.46162e-16 -8.75146e-17 0 0 0 0)
(-2.41963e-17 0 0 1.75325e-23 0 0 0 0 0)
(-1.28905e-27 0 0 -1.0919e-19 1.74241e-16 0 0 0 0)
(9.96091e-17 -2.27925e-16 0 -1.29597e-23 0 0 0 0 0)
(3.03197e-17 4.40655e-17 0 1.35832e-16 9.91045e-32 0 0 0 0)
(-2.15493e-16 2.27925e-16 0 -2.60058e-16 -3.9421e-16 0 0 0 0)
(-3.07961e-17 -3.87979e-16 0 -9.02679e-17 -3.2588e-17 0 0 0 0)
(1.16378e-16 -4.67246e-16 0 2.16462e-16 -3.84223e-16 0 0 0 0)
(1.34775e-17 1.76262e-16 0 6.09618e-18 -5.25876e-16 0 0 0 0)
(-5.5287e-18 4.67246e-16 0 2.30329e-16 -1.73978e-16 0 0 0 0)
(-8.26193e-18 1.67651e-16 0 -7.04581e-17 0 0 0 0 0)
(7.13093e-17 0 0 6.97375e-17 0 0 0 0 0)
(-4.77171e-18 0 0 2.56022e-16 0 0 0 0 0)
(-6.10861e-17 0 0 -1.93946e-18 0 0 0 0 0)
(-8.83576e-17 0 0 5.17247e-17 -4.39413e-16 0 0 0 0)
(4.36979e-18 0 0 -3.03911e-16 1.57684e-16 0 0 0 0)
(8.36833e-17 3.10991e-16 0 2.99201e-17 -1.07225e-16 0 0 0 0)
(1.6463e-16 6.01234e-30 0 -7.26898e-17 5.39279e-16 0 0 0 0)
(-1.68797e-16 -3.10991e-16 0 2.17251e-17 -1.85804e-16 0 0 0 0)
(-1.74178e-16 0 0 -2.65935e-17 0 0 0 0 0)
(1.77007e-16 0 0 -1.78882e-32 0 0 0 0 0)
(-5.21436e-18 0 0 4.20547e-17 0 0 0 0 0)
(-1.77686e-16 1.67905e-16 0 -9.25774e-17 0 0 0 0 0)
(3.22019e-15 4.88266e-16 0 3.18321e-16 1.74241e-16 0 0 0 0)
(9.09872e-11 9.52625e-15 0 2.22865e-16 3.33764e-16 0 0 0 0)
(5.75753e-07 -3.80832e-14 0 2.02904e-14 -4.47941e-14 0 0 0 0)
(0.000274154 -1.50088e-14 0 -1.15804e-13 -1.53721e-14 0 0 0 0)
(0.0147092 9.83711e-14 0 9.93363e-14 -6.5365e-15 0 0 0 0)
(0.147788 4.67638e-15 0 1.19397e-13 -9.62868e-14 0 0 0 0)
(0.431886 -5.86529e-14 0 -1.18574e-13 -1.34645e-13 0 0 0 0)
(2.02254 -3.82293e-15 0 -5.43031e-14 -3.74996e-14 0 0 0 0)
(1.72401 -6.58448e-15 0 1.7258e-14 -1.056e-13 0 0 0 0)
(1.72401 -1.00412e-09 0 -2.37559e-07 -4.81456e-07 0 0 0 0)
(2.02254 -1.07145e-09 0 -3.5192e-08 -3.86913e-07 0 0 0 0)
(0.431886 -8.78048e-11 0 -4.99055e-08 -1.28085e-07 0 0 0 0)
(0.147788 -2.35764e-11 0 -9.30749e-09 -1.74595e-08 0 0 0 0)
(0.0147092 -3.07533e-12 0 -2.81573e-10 -3.44084e-10 0 0 0 0)
(0.000274154 -3.01418e-14 0 -8.92374e-13 -7.34401e-13 0 0 0 0)
(5.75753e-07 -7.91049e-14 0 -4.84705e-14 -2.11654e-14 0 0 0 0)
(9.10003e-11 -1.99541e-14 0 8.56909e-17 1.74241e-16 0 0 0 0)
(3.70352e-15 -2.32895e-30 0 -2.55872e-16 2.24174e-16 0 0 0 0)
(-2.37205e-16 2.87945e-16 0 3.34384e-20 0 0 0 0 0)
(-2.93834e-23 2.14726e-30 0 -8.28924e-19 -1.74241e-16 0 0 0 0)
(3.30689e-16 -1.67905e-16 0 -5.41788e-21 -2.47038e-17 0 0 0 0)
(1.12497e-16 0 0 -1.03357e-16 4.73052e-16 0 0 0 0)
(-7.18003e-16 0 0 2.15931e-16 -6.91181e-17 0 0 0 0)
(-1.52238e-16 -3.18335e-16 0 6.51528e-18 3.37969e-16 0 0 0 0)
(3.93327e-16 -7.21762e-17 0 -6.93428e-18 5.71604e-16 0 0 0 0)
(9.87228e-17 3.18335e-16 0 -1.43363e-16 4.84878e-16 0 0 0 0)
(-7.3842e-17 7.21762e-17 0 1.70574e-16 1.73978e-16 0 0 0 0)
(8.25669e-18 0 0 -1.71579e-16 0 0 0 0 0)
(3.17656e-16 0 0 1.79337e-16 -1.74241e-16 0 0 0 0)
(-6.91076e-17 0 0 -2.45433e-16 0 0 0 0 0)
(-1.99421e-16 -1.95762e-16 0 -1.20073e-17 -1.74241e-16 0 0 0 0)
(-2.95672e-16 1.5195e-16 0 1.63525e-16 -3.30348e-31 0 0 0 0)
(-2.02881e-17 2.60341e-16 0 9.17241e-17 -1.90798e-16 0 0 0 0)
(2.26841e-16 2.60847e-16 0 1.76917e-16 -1.74241e-16 0 0 0 0)