/*--------------------------------*- C++ -*----------------------------------*\
| =========                 |                                                 |
| \\      /  F ield         | OpenFOAM: The Open Source CFD Toolbox           |
|  \\    /   O peration     | Version:  v1912                                 |
|   \\  /    A nd           | Website:  www.openfoam.com                      |
|    \\/     M anipulation  |                                                 |
\*---------------------------------------------------------------------------*/
FoamFile
{
    version     2.0;
    format      ascii;
    class       volScalarField;
    location    "6.32";
    object      p;
}
// * * * * * * * * * * * * * * * * * * * * * * * * * * * * * * * * * * * * * //

dimensions      [1 -1 -2 0 0 0 0];


internalField   nonuniform List<scalar> 
1900
(
30885.9
9477.01
8726.36
8696.83
8668.81
8666.2
8673.63
8687.93
8700.57
8709.48
30885.9
9477.01
8726.49
8697.17
8669.55
8666.43
8674.02
8688.53
8710.12
8710.55
30885.8
9477.03
8726.58
8697.41
8669.87
8666.13
8673.12
8686.64
8700.93
8697.05
30885.9
9477.01
8726.49
8697.17
8669.55
8666.43
8674.02
8688.53
8710.12
8710.55
30885.9
9477.01
8726.36
8696.83
8668.81
8666.2
8673.63
8687.93
8700.57
8709.48
8830.74
8667.56
8592.29
8405.2
8634.65
8689.9
8577.69
8505.95
8317.77
8183.82
8656.63
8557.99
8488.79
8337.35
8217.23
8689.9
8577.69
8505.95
8317.77
8183.82
8830.74
8667.56
8592.29
8405.2
8634.65
3628.95
2106.11
1374.47
1051.12
1036.89
4095.6
2320.58
1498.72
1123.38
1112.72
4206.73
2280.27
1453.4
1085.23
1079.81
4095.6
2320.58
1498.72
1123.38
1112.72
3628.95
2106.11
1374.47
1051.12
1036.89
924.452
695.283
500.533
572.961
1020.46
1390.99
1444.7
1457.69
1395.81
1266.88
1082.94
871.606
709.657
629.124
587.374
555.155
526.646
501.392
481.957
469.759
462.928
458.753
455.588
452.893
450.645
449.063
448.143
448.167
449.241
451.313
453.867
457.787
462.169
470.442
480.705
496.013
513.754
563.776
694.556
700.93
1010.98
717.248
489.49
526.278
980.409
1414.42
1479.56
1494.68
1419.9
1278.76
1088.94
874.64
710.821
629.481
587.487
555.247
526.818
501.48
481.965
469.742
462.91
458.738
455.574
452.88
450.63
449.046
448.126
448.149
449.221
451.294
453.847
457.769
462.143
470.447
480.693
496.038
513.755
563.611
694.432
700.492
984.436
705.238
489.686
516.923
964.004
1417.88
1478.57
1487.82
1414.4
1276.89
1089.5
876.061
711.448
629.643
587.531
555.281
526.886
501.515
481.973
469.738
462.905
458.734
455.571
452.876
450.626
449.041
448.12
448.142
449.213
451.286
453.838
457.761
462.132
470.447
480.691
496.056
513.724
563.601
694.391
700.357
1010.98
717.248
489.49
526.278
980.409
1414.42
1479.56
1494.68
1419.9
1278.76
1088.94
874.64
710.821
629.481
587.487
555.247
526.818
501.48
481.965
469.742
462.91
458.738
455.574
452.88
450.63
449.046
448.126
448.149
449.221
451.294
453.847
457.769
462.143
470.447
480.693
496.038
513.755
563.611
694.432
700.492
924.452
695.283
500.533
572.961
1020.46
1390.99
1444.7
1457.69
1395.81
1266.88
1082.94
871.606
709.657
629.124
587.374
555.155
526.646
501.392
481.957
469.759
462.928
458.753
455.588
452.893
450.645
449.063
448.143
448.167
449.241
451.313
453.867
457.787
462.169
470.442
480.705
496.013
513.754
563.776
694.556
700.93
955.603
808.894
720.191
798.359
1080.02
1326.39
1396.81
1417.51
1358.56
1238.2
1062.01
858.51
703.863
627.266
586.674
554.577
525.852
500.918
481.848
469.803
462.997
458.813
455.638
452.942
450.699
449.125
448.21
448.24
449.316
451.381
453.941
457.846
462.255
470.406
480.686
495.862
513.786
564.289
694.758
702.098
974.433
889.435
879.9
951.164
1127.1
1247.47
1301.03
1306.65
1266.54
1168.79
1008.64
823.228
688.711
622.752
584.831
552.898
524.077
499.789
481.519
469.892
463.181
458.978
455.779
453.081
450.854
449.299
448.398
448.444
449.522
451.576
454.143
458.029
462.468
470.4
480.555
495.523
514.178
565.517
695.972
703.209
947.528
900.882
954.57
1006.85
1072.53
1149.89
1208.13
1215.94
1176.46
1082.66
936.222
776.922
670.075
616.827
581.712
550.136
521.663
498.277
481.028
470.002
463.475
459.272
456.047
453.347
451.14
449.612
448.734
448.804
449.877
451.909
454.484
458.347
462.826
470.474
480.395
495.161
514.78
567.048
697.032
703.723
948.941
917.823
927.858
958.152
1011.4
1077.71
1105.23
1116.53
1081.47
990.42
858.251
730.321
652.289
610.086
577.439
546.504
518.819
496.612
480.528
470.21
463.926
459.744
456.497
453.797
451.613
450.113
449.265
449.359
450.414
452.413
454.988
458.825
463.331
470.694
480.294
494.928
515.487
568.858
698.487
704.857
919.66
932.534
909.813
912.998
925.204
979.29
1020.44
1022.96
983.417
896.563
784.205
690.535
636.442
602.396
571.956
542.09
515.692
494.948
480.171
470.611
464.606
460.464
457.204
454.506
452.344
450.873
450.052
450.155
451.174
453.118
455.675
459.469
463.971
471.063
480.315
494.851
516.186
570.62
699.693
706.022
882.348
878.714
829.381
833.806
854.903
913.572
942.244
933.879
889.225
810.221
723.128
660.569
623.052
594.708
566.11
537.55
512.758
493.608
480.193
471.395
465.676
461.586
458.319
455.626
453.486
452.04
451.238
451.33
452.298
454.172
456.69
460.433
464.909
471.768
480.713
495.185
517.402
572.771
701.282
707.466
831.867
824.105
768.06
778.976
805.707
856.448
868.704
851.7
804.779
738.96
678.251
638.24
611.027
586.447
559.55
532.749
509.968
492.676
480.602
472.565
467.136
463.11
459.845
457.16
455.036
453.604
452.802
452.844
453.734
455.501
457.942
461.598
466.004
472.639
481.307
495.735
518.648
574.743
702.096
708.36
800.894
790.374
727.427
734.933
773.823
799.381
800.444
778.116
734.058
685.577
646.998
621.4
600.972
578.892
553.515
528.639
507.947
492.604
481.811
474.466
469.3
465.336
462.074
459.393
457.278
455.852
455.014
454.97
455.767
457.401
459.73
463.27
467.578
474.009
482.473
496.866
520.565
577.318
703.928
709.983
782.859
769.538
700.548
699.155
743.399
745.279
740.139
715.737
680.221
649.492
625.884
608.595
591.854
571.254
547.475
524.876
506.523
492.974
483.423
476.72
471.813
467.925
464.684
462.021
459.924
458.496
457.603
457.47
458.155
459.65
461.85
465.264
469.464
475.73
484.044
498.344
522.722
580.075
705.773
711.788
775.525
758.298
682.954
670.728
707.325
699.213
688.193
666.996
643.373
625.652
611.208
598.981
584.186
564.539
542.393
522.15
506.249
494.422
486
479.861
475.185
471.369
468.145
465.49
463.388
461.92
460.953
460.718
461.247
462.581
464.637
467.912
472.004
478.132
486.368
500.531
525.639
583.78
708.547
714.681
773.284
751.897
668.754
647.519
666.592
658.564
646.801
633.946
620.886
610.669
601.162
591.119
576.907
558.15
538.035
520.344
506.536
496.267
488.798
483.151
478.702
474.999
471.851
469.263
467.204
465.741
464.743
464.444
464.833
466.033
467.969
471.14
475.162
481.225
489.468
503.556
529.402
588.503
712.185
718.421
768.642
746.366
654.899
626.022
630.609
627.077
620.994
614.797
607.18
601.257
594.714
585.661
571.486
553.343
535.436
520.368
508.501
499.643
492.985
487.759
483.507
479.889
476.783
474.217
472.156
470.663
469.61
469.228
469.465
470.525
472.349
475.426
479.411
485.447
493.774
507.878
534.459
594.522
716.717
723.513
761.995
740.499
640.598
605.539
608.959
609.538
608.106
605.036
600.253
596.219
590.559
581.25
566.859
550.162
534.441
521.529
511.406
503.695
497.667
492.759
488.7
485.247
482.293
479.844
477.849
476.372
475.286
474.824
474.915
475.866
477.606
480.637
484.641
490.739
499.247
513.494
540.843
601.73
721.839
729.045
761.128
739.668
631.533
594.083
599.921
601.749
601.884
600.51
597.768
594.881
589.092
578.785
564.816
550.316
537.211
526.484
518.201
511.768
506.553
502.093
498.207
494.712
491.567
488.859
486.589
484.868
483.549
482.869
482.732
483.554
485.186
488.158
492.208
498.412
507.167
521.737
549.96
611.361
728.334
736.362
762.193
740.084
629.667
592.282
599.058
601.429
602.906
602.118
600.118
596.834
590
579.483
566.827
554.291
543.475
534.831
528.091
522.633
517.936
513.692
509.902
506.461
503.29
500.433
497.918
495.93
494.344
493.458
493.155
493.892
495.494
498.559
502.83
509.357
518.618
533.86
563.148
624.475
736.921
745.249
768.669
747.261
636.88
599.761
607.429
610.251
612.486
611.793
609.884
605.616
597.825
587.452
575.875
565.176
556.096
548.839
543.038
538.218
533.991
530.075
526.406
522.874
519.551
516.619
514.121
512.236
510.755
510.036
509.799
510.46
512.073
515.25
519.788
526.778
536.764
553.045
583.503
643.627
748.948
757.52
778.473
762.812
661.152
623.885
631.796
633.327
634.617
632.451
628.726
622.359
613.255
602.662
591.559
581.475
572.863
565.832
559.946
554.911
550.516
546.658
543.512
540.995
538.953
537.35
536.092
535.52
535.083
535.442
536.135
537.823
540.419
544.57
550.11
558.163
569.3
586.838
617.162
671.952
763.08
765.081
781.159
776.115
700.436
663.851
672.487
671.63
671.149
666.27
659.839
651.798
642.312
633.118
624.663
617.651
611.704
606.664
602.295
598.494
595.228
592.574
590.834
589.924
589.579
589.608
589.863
590.62
591.379
592.946
594.658
597.549
601.459
606.945
613.732
622.66
633.869
650.278
675.415
714.928
770.438
743.066
1514.32
710.805
735.446
724.722
733.93
731.88
731.348
728.274
724.051
719.643
714.572
710.451
707.148
705.26
704.254
704.052
704.469
705.319
706.33
707.287
708.662
710.378
711.883
713.116
714.209
715.62
716.172
717.783
719.207
721.703
724.838
729.081
734.025
740.065
746.838
756.663
767.684
774.487
694.76
1264.35
26863.4
1272.51
675.879
698.45
707.248
706.116
705.789
704.498
701.598
700.247
698.746
698.572
699.091
700.602
702.628
704.965
707.341
709.571
711.568
713.262
715.033
716.803
718.269
719.471
720.47
721.69
722.462
724.012
725.437
728.013
731.302
736.101
741.491
748.597
756.026
766.457
771.363
747.877
1203.41
22549.6
26863.4
1272.51
675.879
698.45
707.248
706.116
705.789
704.498
701.598
700.247
698.746
698.572
699.091
700.602
702.628
704.965
707.341
709.571
711.568
713.262
715.033
716.803
718.269
719.471
720.47
721.69
722.462
724.012
725.437
728.013
731.302
736.101
741.491
748.597
756.026
766.457
771.363
747.877
1203.41
22549.6
1514.32
710.805
735.446
724.722
733.93
731.88
731.348
728.274
724.051
719.643
714.572
710.451
707.148
705.26
704.254
704.052
704.469
705.319
706.33
707.287
708.662
710.378
711.883
713.116
714.209
715.62
716.172
717.783
719.207
721.703
724.838
729.081
734.025
740.065
746.838
756.663
767.684
774.487
694.76
1264.35
781.159
776.115
700.436
663.851
672.487
671.63
671.149
666.27
659.839
651.798
642.312
633.118
624.663
617.651
611.704
606.664
602.295
598.494
595.228
592.574
590.834
589.924
589.579
589.608
589.863
590.62
591.379
592.946
594.658
597.549
601.459
606.945
613.732
622.66
633.869
650.278
675.415
714.928
770.438
743.066
778.473
762.812
661.152
623.885
631.796
633.327
634.617
632.451
628.726
622.359
613.255
602.662
591.559
581.475
572.863
565.832
559.946
554.911
550.516
546.658
543.512
540.995
538.953
537.35
536.092
535.52
535.083
535.442
536.135
537.823
540.419
544.57
550.11
558.163
569.3
586.838
617.162
671.952
763.08
765.081
768.669
747.261
636.88
599.761
607.429
610.251
612.486
611.793
609.884
605.616
597.825
587.452
575.875
565.176
556.096
548.839
543.038
538.218
533.991
530.075
526.406
522.874
519.551
516.619
514.121
512.236
510.755
510.036
509.799
510.46
512.073
515.25
519.788
526.778
536.764
553.045
583.503
643.627
748.948
757.52
762.193
740.084
629.667
592.282
599.058
601.429
602.906
602.118
600.118
596.834
590
579.483
566.827
554.291
543.475
534.831
528.091
522.633
517.936
513.692
509.902
506.461
503.29
500.433
497.918
495.93
494.344
493.458
493.155
493.892
495.494
498.559
502.83
509.357
518.618
533.86
563.148
624.475
736.921
745.249
761.128
739.668
631.533
594.083
599.921
601.749
601.884
600.51
597.768
594.881
589.092
578.785
564.816
550.316
537.211
526.484
518.201
511.768
506.553
502.093
498.207
494.712
491.567
488.859
486.589
484.868
483.549
482.869
482.732
483.554
485.186
488.158
492.208
498.412
507.167
521.737
549.96
611.361
728.334
736.362
761.995
740.499
640.598
605.539
608.959
609.538
608.106
605.036
600.253
596.219
590.559
581.25
566.859
550.162
534.441
521.529
511.406
503.695
497.667
492.759
488.7
485.247
482.293
479.844
477.849
476.372
475.286
474.824
474.915
475.866
477.606
480.637
484.641
490.739
499.247
513.494
540.843
601.73
721.839
729.045
768.642
746.366
654.899
626.022
630.609
627.077
620.994
614.797
607.18
601.257
594.714
585.661
571.486
553.343
535.436
520.368
508.501
499.643
492.985
487.759
483.507
479.889
476.783
474.217
472.156
470.663
469.61
469.228
469.465
470.525
472.349
475.426
479.411
485.447
493.774
507.878
534.459
594.522
716.717
723.513
773.284
751.897
668.754
647.519
666.592
658.564
646.801
633.946
620.886
610.669
601.162
591.119
576.907
558.15
538.035
520.344
506.536
496.267
488.798
483.151
478.702
474.999
471.851
469.263
467.204
465.741
464.743
464.444
464.833
466.033
467.969
471.14
475.162
481.225
489.468
503.556
529.402
588.503
712.185
718.421
775.525
758.298
682.954
670.728
707.325
699.213
688.193
666.996
643.373
625.652
611.208
598.981
584.186
564.539
542.393
522.15
506.249
494.422
486
479.861
475.185
471.369
468.145
465.49
463.388
461.92
460.953
460.718
461.247
462.581
464.637
467.912
472.004
478.132
486.368
500.531
525.639
583.78
708.547
714.681
782.859
769.538
700.548
699.155
743.399
745.279
740.139
715.737
680.221
649.492
625.884
608.595
591.854
571.254
547.475
524.876
506.523
492.974
483.423
476.72
471.813
467.925
464.684
462.021
459.924
458.496
457.603
457.47
458.155
459.65
461.85
465.264
469.464
475.73
484.044
498.344
522.722
580.075
705.773
711.788
800.894
790.374
727.427
734.933
773.823
799.381
800.444
778.116
734.058
685.577
646.998
621.4
600.972
578.892
553.515
528.639
507.947
492.604
481.811
474.466
469.3
465.336
462.074
459.393
457.278
455.852
455.014
454.97
455.767
457.401
459.73
463.27
467.578
474.009
482.473
496.866
520.565
577.318
703.928
709.983
831.867
824.105
768.06
778.976
805.707
856.448
868.704
851.7
804.779
738.96
678.251
638.24
611.027
586.447
559.55
532.749
509.968
492.676
480.602
472.565
467.136
463.11
459.845
457.16
455.036
453.604
452.802
452.844
453.734
455.501
457.942
461.598
466.004
472.639
481.307
495.735
518.648
574.743
702.096
708.36
882.348
878.714
829.381
833.806
854.903
913.572
942.244
933.879
889.225
810.221
723.128
660.569
623.052
594.708
566.11
537.55
512.758
493.608
480.193
471.395
465.676
461.586
458.319
455.626
453.486
452.04
451.238
451.33
452.298
454.172
456.69
460.433
464.909
471.768
480.713
495.185
517.402
572.771
701.282
707.466
919.66
932.534
909.813
912.998
925.204
979.29
1020.44
1022.96
983.417
896.563
784.205
690.535
636.442
602.396
571.956
542.09
515.692
494.948
480.171
470.611
464.606
460.464
457.204
454.506
452.344
450.873
450.052
450.155
451.174
453.118
455.675
459.469
463.971
471.063
480.315
494.851
516.186
570.62
699.693
706.022
948.941
917.823
927.858
958.152
1011.4
1077.71
1105.23
1116.53
1081.47
990.42
858.251
730.321
652.289
610.086
577.439
546.504
518.819
496.612
480.528
470.21
463.926
459.744
456.497
453.797
451.613
450.113
449.265
449.359
450.414
452.413
454.988
458.825
463.331
470.694
480.294
494.928
515.487
568.858
698.487
704.857
947.528
900.882
954.57
1006.85
1072.53
1149.89
1208.13
1215.94
1176.46
1082.66
936.222
776.922
670.075
616.827
581.712
550.136
521.663
498.277
481.028
470.002
463.475
459.272
456.047
453.347
451.14
449.612
448.734
448.804
449.877
451.909
454.484
458.347
462.826
470.474
480.395
495.161
514.78
567.048
697.032
703.723
974.433
889.435
879.9
951.164
1127.1
1247.47
1301.03
1306.65
1266.54
1168.79
1008.64
823.228
688.711
622.752
584.831
552.898
524.077
499.789
481.519
469.892
463.181
458.978
455.779
453.081
450.854
449.299
448.398
448.444
449.522
451.576
454.143
458.029
462.468
470.4
480.555
495.523
514.178
565.517
695.972
703.209
955.603
808.894
720.191
798.359
1080.02
1326.39
1396.81
1417.51
1358.56
1238.2
1062.01
858.51
703.863
627.266
586.674
554.577
525.852
500.918
481.848
469.803
462.997
458.813
455.638
452.942
450.699
449.125
448.21
448.24
449.316
451.381
453.941
457.846
462.255
470.406
480.686
495.862
513.786
564.289
694.758
702.098
)
;

boundaryField
{
    inlet
    {
        type            fixedValue;
        value           uniform 10000;
    }
    outlet
    {
        type            fixedValue;
        value           uniform 1000;
    }
    obstacle
    {
        type            zeroGradient;
    }
    empty
    {
        type            empty;
    }
}


// ************************************************************************* //
