/*--------------------------------*- C++ -*----------------------------------*\
| =========                 |                                                 |
| \\      /  F ield         | OpenFOAM: The Open Source CFD Toolbox           |
|  \\    /   O peration     | Version:  v1912                                 |
|   \\  /    A nd           | Website:  www.openfoam.com                      |
|    \\/     M anipulation  |                                                 |
\*---------------------------------------------------------------------------*/
FoamFile
{
    version     2.0;
    format      ascii;
    class       volVectorField;
    location    "8.02";
    object      grad(rho);
}
// * * * * * * * * * * * * * * * * * * * * * * * * * * * * * * * * * * * * * //

dimensions      [1 -4 0 0 0 0 0];


internalField   nonuniform List<vector> 
1900
(
(15357.1 -0.0848537 0)
(-31419.3 -0.0395593 0)
(2276.21 0.583201 0)
(1156.27 -0.124635 0)
(29.1422 -0.775677 0)
(-603.422 -2.68997 0)
(-1195.48 -3.90853 0)
(-1241.15 3.83264 0)
(-884.981 45.5321 0)
(389.868 -17.4771 0)
(15356.9 -0.145978 0)
(-31418.7 0.0183065 0)
(2276.12 0.913218 0)
(1154.91 0.243708 0)
(26.5769 -0.357277 0)
(-606.555 -3.11976 0)
(-1188.96 -4.97602 0)
(-1191.71 -11.3579 0)
(-906.291 -3.7512 0)
(-782.847 -99.5971 0)
(15356.9 7.31859e-09 0)
(-31418.3 6.05738e-09 0)
(2276.43 6.51923e-09 0)
(1155 4.9738e-09 0)
(25.7788 4.70735e-09 0)
(-608.041 2.41585e-09 0)
(-1203.72 -3.67706e-09 0)
(-1239.92 -4.61853e-10 0)
(-973.22 4.9738e-10 0)
(-958.557 1.42109e-10 0)
(15356.9 0.145978 0)
(-31418.7 -0.0183065 0)
(2276.12 -0.913218 0)
(1154.91 -0.243708 0)
(26.5769 0.357277 0)
(-606.555 3.11976 0)
(-1188.96 4.97602 0)
(-1191.71 11.3579 0)
(-906.291 3.7512 0)
(-782.847 99.5971 0)
(15357.1 0.0848537 0)
(-31419.3 0.0395593 0)
(2276.21 -0.5832 0)
(1156.27 0.124635 0)
(29.1422 0.775677 0)
(-603.422 2.68997 0)
(-1195.48 3.90853 0)
(-1241.15 -3.83264 0)
(-884.981 -45.5321 0)
(389.868 17.4771 0)
(-482.79 -973.47 1.22941e-11)
(-2788.52 -766.087 -1.4458e-11)
(-3890.48 -791.135 -1.80906e-11)
(-4216.6 -861.197 0)
(-25472 -7290.51 -7.44659e-11)
(-1133.56 -1185.62 1.21181e-11)
(-2043.37 -913.566 1.4458e-11)
(-3542.89 -843.074 1.80906e-11)
(-6546.99 -393.807 0)
(-23792.2 -6011.74 0)
(-1514.95 -6.27517e-10 0)
(-2056.5 7.20671e-10 0)
(-3345.5 -1.15957e-09 0)
(-6287.73 3.02788e-10 0)
(-26008.1 -3.54214e-09 0)
(-1133.56 1185.62 1.21181e-11)
(-2043.37 913.566 1.4458e-11)
(-3542.89 843.074 1.80906e-11)
(-6546.99 393.807 0)
(-23792.2 6011.74 0)
(-482.79 973.47 -3.65303e-11)
(-2788.52 766.087 -1.4458e-11)
(-3890.48 791.135 -1.80906e-11)
(-4216.6 861.197 -4.80382e-11)
(-25472 7290.51 7.44659e-11)
(-42653.3 14334.8 1.71489e-11)
(-15326.8 6192.39 -9.81208e-12)
(-7748.96 3026.02 0)
(-5629.39 2110.66 4.85616e-12)
(-1665.35 1436.95 -1.72977e-12)
(-38235.3 18586.8 -8.79029e-12)
(-17792.5 5385.64 4.99929e-12)
(-8741.87 1831.34 0)
(-6049.47 1258.95 -3.08431e-12)
(-3418.45 453.894 4.46679e-13)
(-39763 -1.4803e-09 0)
(-19604.3 -1.40438e-09 0)
(-9048.14 1.23358e-09 0)
(-6232.59 -8.5625e-10 1.24889e-12)
(-3480.26 1.01284e-09 -8.93358e-13)
(-38235.3 -18586.8 -8.79029e-12)
(-17792.5 -5385.64 4.99929e-12)
(-8741.87 -1831.34 0)
(-6049.47 -1258.95 -3.08431e-12)
(-3418.45 -453.894 4.46679e-13)
(-42653.3 -14334.8 8.79029e-12)
(-15326.8 -6192.39 -1.86495e-13)
(-7748.96 -3026.02 0)
(-5629.39 -2110.66 6.35662e-14)
(-1665.35 -1436.95 1.72977e-12)
(1477.54 -7882.14 0)
(425.955 -6016.5 0)
(-236.976 -3824.78 0)
(-515.755 -2977.91 0)
(-652.544 -2677.84 0)
(-877.148 -2739.14 0)
(-1406.44 -2668.99 0)
(-1100.44 -2399.83 0)
(229.605 -2012.35 0)
(3254.31 -2055.38 0)
(4278.14 -2507.52 0)
(1390.65 -1720.53 0)
(-517.914 -1295.9 0)
(-577.235 -524.485 0)
(-178.497 -91.6304 0)
(7.69407 58.7424 0)
(-111.466 176.726 0)
(-710.547 116.083 0)
(-1550.31 38.5631 0)
(-2179.03 19.4895 0)
(-2673.87 96.9892 0)
(-3021.84 148.063 0)
(-2438.67 101.775 0)
(-1113.79 21.048 0)
(-303.257 -1.12142 0)
(-133.422 -1.71963 0)
(-112.792 -1.43835 0)
(-94.7704 -2.73668 0)
(-34.5084 -3.60577 0)
(186.078 -4.07519 0)
(1263.69 -3.40459 0)
(2534.53 -0.0728351 0)
(2230.6 -2.5856 0)
(1240.61 -6.76906 0)
(824.517 -7.74906 0)
(699.236 -4.34903 0)
(752.167 4.82067 0)
(944.711 5.70906 0)
(1007.92 10.3699 0)
(1146.07 12.3166 0)
(-116.353 -3395.65 0)
(708.295 -4400.03 0)
(238.052 -2969.33 0)
(-392.591 -2219.48 0)
(-667.208 -1654.9 0)
(-906.883 -1765.39 0)
(-1296.16 -1793.72 0)
(-929.178 -1464.72 0)
(325.225 -1098.55 0)
(3204.73 -1167.88 0)
(4294.57 -1731.15 0)
(1530.88 -1045.59 0)
(-317.938 -849.03 0)
(-365.9 -219.799 0)
(-105.532 55.1316 0)
(19.6682 90.1985 0)
(-132.404 211.717 0)
(-740.32 523.151 0)
(-1554.45 537.889 0)
(-2159.71 271.92 0)
(-2649.68 112.361 0)
(-3027.79 77.4003 0)
(-2461.68 36.1313 0)
(-1126.53 6.99776 0)
(-305.391 -0.61494 0)
(-133.38 -0.686417 0)
(-112.882 -0.497553 0)
(-94.9901 -1.12095 0)
(-34.63 -1.59688 0)
(186.035 -1.71892 0)
(1263.93 -1.6872 0)
(2534.55 -0.248806 0)
(2229.91 -1.69237 0)
(1240.04 -4.1612 0)
(824.826 -4.66719 0)
(700.78 -2.35453 0)
(753.159 3.09264 0)
(945.617 2.35685 0)
(1009.89 4.56013 0)
(1144.47 6.49148 0)
(-169.75 7.58989e-10 0)
(549.975 2.02666e-09 0)
(397.366 2.19622e-09 0)
(-133.376 3.13285e-09 0)
(-520.445 2.30926e-09 0)
(-917.53 2.90677e-10 0)
(-1318.98 5.73279e-10 0)
(-898.215 1.04159e-09 0)
(315.959 -6.29799e-10 0)
(3070.28 -2.1397e-09 0)
(4313.71 -1.92977e-09 0)
(1647.26 4.57008e-09 0)
(-277.683 8.0905e-09 0)
(-314.206 -8.38117e-09 0)
(-88.316 -2.03312e-08 0)
(53.2463 -3.6383e-08 0)
(14.4841 -2.20107e-08 0)
(-615.661 -2.10095e-08 0)
(-1623.39 -1.49537e-08 0)
(-2302.82 -8.94638e-09 0)
(-2730.45 6.96009e-09 0)
(-3044.02 6.00732e-09 0)
(-2459.16 -2.29715e-09 0)
(-1124.48 -7.83616e-09 0)
(-305.492 -1.51394e-09 0)
(-133.388 1.41705e-09 0)
(-112.918 2.1397e-10 0)
(-95.0902 1.63102e-09 0)
(-34.6823 3.73439e-09 0)
(186.051 1.61083e-09 0)
(1264.11 4.00084e-09 0)
(2534.53 2.69683e-09 0)
(2229.46 -1.10699e-08 0)
(1239.75 -4.57008e-09 0)
(825.042 -4.15022e-09 0)
(701.493 -4.19866e-09 0)
(753.538 -2.22045e-09 0)
(945.138 -1.39686e-09 0)
(1009.12 -2.39001e-09 0)
(1147.15 -4.60238e-10 0)
(-116.353 3395.65 0)
(708.295 4400.03 0)
(238.052 2969.33 0)
(-392.591 2219.48 0)
(-667.208 1654.9 0)
(-906.883 1765.39 0)
(-1296.16 1793.72 0)
(-929.178 1464.72 0)
(325.225 1098.55 0)
(3204.73 1167.88 0)
(4294.57 1731.15 0)
(1530.88 1045.59 0)
(-317.938 849.03 0)
(-365.9 219.799 0)
(-105.532 -55.1316 0)
(19.6682 -90.1985 0)
(-132.404 -211.717 0)
(-740.32 -523.151 0)
(-1554.45 -537.889 0)
(-2159.71 -271.92 0)
(-2649.68 -112.361 0)
(-3027.79 -77.4003 0)
(-2461.68 -36.1313 0)
(-1126.53 -6.99776 0)
(-305.391 0.61494 0)
(-133.38 0.686417 0)
(-112.882 0.497553 0)
(-94.9901 1.12095 0)
(-34.63 1.59688 0)
(186.035 1.71892 0)
(1263.93 1.6872 0)
(2534.55 0.248806 0)
(2229.91 1.69237 0)
(1240.04 4.1612 0)
(824.826 4.66719 0)
(700.78 2.35453 0)
(753.159 -3.09264 0)
(945.617 -2.35685 0)
(1009.89 -4.56013 0)
(1144.47 -6.49148 0)
(1477.54 7882.14 0)
(425.955 6016.5 0)
(-236.976 3824.78 0)
(-515.755 2977.91 0)
(-652.544 2677.84 0)
(-877.148 2739.14 0)
(-1406.44 2668.99 0)
(-1100.44 2399.83 0)
(229.605 2012.35 0)
(3254.31 2055.38 0)
(4278.14 2507.52 0)
(1390.65 1720.53 0)
(-517.914 1295.9 0)
(-577.235 524.485 0)
(-178.497 91.6304 0)
(7.69407 -58.7424 0)
(-111.466 -176.726 0)
(-710.547 -116.083 0)
(-1550.31 -38.5631 0)
(-2179.03 -19.4895 0)
(-2673.87 -96.9892 0)
(-3021.84 -148.063 0)
(-2438.67 -101.775 0)
(-1113.79 -21.048 0)
(-303.257 1.12142 0)
(-133.422 1.71963 0)
(-112.792 1.43835 0)
(-94.7704 2.73668 0)
(-34.5084 3.60577 0)
(186.078 4.07519 0)
(1263.69 3.40459 0)
(2534.53 0.0728351 0)
(2230.6 2.5856 0)
(1240.61 6.76906 0)
(824.517 7.74906 0)
(699.236 4.34903 0)
(752.167 -4.82067 0)
(944.711 -5.70906 0)
(1007.92 -10.3699 0)
(1146.07 -12.3166 0)
(-1828.89 7036.52 0)
(-1510.32 4494.72 0)
(-1118.72 3144.48 0)
(-969.624 2266.76 0)
(-833.939 1846.07 0)
(-946.817 1596.68 0)
(-1381.49 1552.51 0)
(-1143.04 1815.02 0)
(219.722 1893.49 0)
(3458.01 2344.83 0)
(4103.54 2295.51 0)
(933.009 1133.92 0)
(-836.963 650.611 0)
(-876.951 237.538 0)
(-387.008 64.0985 0)
(-134.819 -71.7749 0)
(-192.582 -216.693 0)
(-688.079 -305.42 0)
(-1498.66 -313.691 0)
(-2174.01 -285.848 0)
(-2702.36 -250.976 0)
(-3037.67 -234.684 0)
(-2408.62 -157.705 0)
(-1076.72 -34.1587 0)
(-293.578 1.389 0)
(-133.132 2.98176 0)
(-112.348 2.8133 0)
(-93.8847 4.73721 0)
(-33.9311 6.11009 0)
(185.86 7.2192 0)
(1261.69 5.29721 0)
(2534.05 -1.05878 0)
(2233.31 2.92667 0)
(1242.61 9.50312 0)
(823.665 12.1982 0)
(694.682 9.46621 0)
(747.996 -1.38213 0)
(943.184 -7.47506 0)
(1008.03 -10.9809 0)
(1142.88 -9.09259 0)
(-2278.93 2149.83 0)
(-2286.26 2544.25 0)
(-1911.1 2494.14 0)
(-1523.58 2243.92 0)
(-1200.98 1866.9 0)
(-1122.67 1361.13 0)
(-1209.42 1211.73 0)
(-749.026 1422.17 0)
(745.451 1636.19 0)
(3532.48 2393.35 0)
(3204.88 1267.24 0)
(50.9634 252.295 0)
(-1210.62 -138.03 0)
(-981.702 -316.466 0)
(-364.752 -239.916 0)
(-186.467 -294.52 0)
(-293.117 -355.12 0)
(-816.066 -480.819 0)
(-1559.14 -593.474 0)
(-2121.29 -578.161 0)
(-2609.28 -496.434 0)
(-2923.48 -414.905 0)
(-2261.56 -236.737 0)
(-980.365 -46.1105 0)
(-272.657 2.63683 0)
(-132.205 4.73154 0)
(-111.338 4.75444 0)
(-92.0684 7.1339 0)
(-32.4262 9.12817 0)
(185.411 10.9908 0)
(1256.78 8.28887 0)
(2532.5 -1.32046 0)
(2239.33 2.61991 0)
(1248.47 11.4032 0)
(824.938 17.3867 0)
(688.591 15.8656 0)
(738.079 6.59746 0)
(936.281 -3.9963 0)
(1006.3 -7.53302 0)
(1145.64 -6.49834 0)
(-1400.79 171.618 0)
(-1178.54 643.634 0)
(-1408.13 967.234 0)
(-1574.05 1082.69 0)
(-1684.63 899.677 0)
(-1578.16 488.885 0)
(-1322.66 609.542 0)
(-734.024 1093.31 0)
(1155.58 1480.56 0)
(3102.48 1966.99 0)
(2040.34 285.251 0)
(-421.162 -280.382 0)
(-1385.04 -595.38 0)
(-975.132 -410.657 0)
(-365.86 -336.023 0)
(-245.834 -403.292 0)
(-372.107 -466.096 0)
(-917.766 -640.606 0)
(-1592.46 -745.515 0)
(-2080.5 -700.4 0)
(-2545.04 -622.749 0)
(-2787.41 -538.697 0)
(-2053.23 -294.509 0)
(-846.047 -52.4238 0)
(-244.584 4.82402 0)
(-131.091 6.94512 0)
(-110.033 7.25425 0)
(-89.67 10.2123 0)
(-30.2144 12.7965 0)
(185.052 15.3278 0)
(1249.83 12.519 0)
(2528.59 1.73647 0)
(2245.57 5.51006 0)
(1256.84 14.9842 0)
(827.966 23.2567 0)
(684.285 20.2635 0)
(728.856 14.4325 0)
(929.567 1.04991 0)
(1005.62 -1.90215 0)
(1138.49 -1.58421 0)
(-1549.29 0.672779 0)
(-1519.58 -226.268 0)
(-1488.01 -373.81 0)
(-1588.68 -361.939 0)
(-1773.2 -394.149 0)
(-1402.25 -331.283 0)
(-626.975 244.288 0)
(90.3228 1012.16 0)
(1587.36 1628.6 0)
(2380.64 1114.82 0)
(1039.23 -376.503 0)
(-797.645 -1024.94 0)
(-1336.15 -1125.45 0)
(-731.776 -511.949 0)
(-357.655 -478.225 0)
(-311.809 -486.469 0)
(-521.801 -606.516 0)
(-1085.32 -830.538 0)
(-1616.76 -905.81 0)
(-2002.99 -821.256 0)
(-2453.46 -735.727 0)
(-2607.17 -633.271 0)
(-1792.97 -314.491 0)
(-691.917 -47.47 0)
(-215.447 7.48924 0)
(-129.863 9.32668 0)
(-108.19 10.1337 0)
(-86.7277 13.7264 0)
(-27.4967 16.779 0)
(185.143 19.7304 0)
(1243.68 16.5733 0)
(2525.75 3.93798 0)
(2252.09 7.04133 0)
(1265.57 16.4556 0)
(830.025 25.9502 0)
(680.088 21.0231 0)
(719.564 17.4724 0)
(920.54 1.19832 0)
(1003.76 -3.68958 0)
(1127.18 -2.9772 0)
(-1445.36 -227.178 0)
(-1539.4 -157.045 0)
(-1538.87 -227.703 0)
(-1593.65 -185.497 0)
(-1655.09 20.3299 0)
(-962.941 447.518 0)
(-28.0731 799.496 0)
(599.947 1020.94 0)
(1254.51 970.696 0)
(1170.29 5.92325 0)
(-21.6025 -1221.59 0)
(-1142.87 -1880.41 0)
(-890.709 -1180.3 0)
(-351.443 -710.802 0)
(-341.306 -682.027 0)
(-369.46 -630.666 0)
(-703.664 -801.465 0)
(-1206.18 -978.796 0)
(-1583.52 -975.368 0)
(-1916.6 -875.503 0)
(-2363.89 -821.014 0)
(-2381.49 -689.136 0)
(-1488.73 -292.102 0)
(-535.775 -32.2176 0)
(-189.853 11.7587 0)
(-128.543 13.1806 0)
(-105.794 14.6278 0)
(-83.2664 18.8603 0)
(-24.4287 22.3056 0)
(184.853 25.553 0)
(1234.61 23.1037 0)
(2519.4 11.8229 0)
(2257.63 13.9464 0)
(1275.06 21.6209 0)
(832.367 30.3988 0)
(676.115 23.861 0)
(709.752 19.7292 0)
(909.175 2.21667 0)
(1001.59 -5.63467 0)
(1121.6 -4.3516 0)
(-1396.84 -635.964 0)
(-1520.08 -596.38 0)
(-1515.43 -520.967 0)
(-1349.66 -322.697 0)
(-1163.2 56.5958 0)
(-651.418 505.627 0)
(-74.4057 432.404 0)
(255.297 154.295 0)
(609.255 -316.695 0)
(268.067 -1187.08 0)
(-778.512 -2064.31 0)
(-757.857 -1805.44 0)
(-209.073 -1026.33 0)
(-251.618 -927.271 0)
(-280.433 -740.922 0)
(-426.904 -761.646 0)
(-857.272 -951.662 0)
(-1252.9 -1044.86 0)
(-1517.23 -984.228 0)
(-1854.25 -907.793 0)
(-2273.87 -889.855 0)
(-2097.49 -686.556 0)
(-1159.94 -233.084 0)
(-399.106 -14.7537 0)
(-171.7 14.9661 0)
(-127.098 16.0652 0)
(-102.717 18.0562 0)
(-79.3291 22.7425 0)
(-21.0473 26.5094 0)
(185.912 29.7991 0)
(1230.45 26.823 0)
(2516.92 12.3309 0)
(2261.53 12.8706 0)
(1281.43 19.7496 0)
(832.184 27.9772 0)
(669.807 23.0801 0)
(698.707 19.7591 0)
(896.098 3.78987 0)
(997.433 -5.87304 0)
(1114.24 -5.32663 0)
(-1395.56 -1184.99 0)
(-1428.59 -1101.3 0)
(-1275.14 -890.059 0)
(-1037.09 -656.547 0)
(-856.886 -443.193 0)
(-600.798 -260.524 0)
(-366.629 -418.864 0)
(-121.912 -678.286 0)
(-38.0972 -1040.88 0)
(-513.769 -1871.38 0)
(-617.47 -2030.7 0)
(-142.639 -1224.49 0)
(-44.4756 -954.317 0)
(-76.4162 -810.053 0)
(-181.704 -732.182 0)
(-572.536 -891.2 0)
(-976.581 -1047.91 0)
(-1237.56 -1050.8 0)
(-1451.43 -972.068 0)
(-1825.66 -947.444 0)
(-2150.7 -939.446 0)
(-1748.61 -616.927 0)
(-841.36 -160.775 0)
(-296.745 -4.65684 0)
(-160.155 11.8941 0)
(-125.565 12.8848 0)
(-99.3592 15.5891 0)
(-75.1205 20.5509 0)
(-17.6287 24.5358 0)
(185.156 27.6999 0)
(1217.78 24.4559 0)
(2505.96 5.67107 0)
(2264.78 1.20208 0)
(1289.62 5.40791 0)
(835.576 14.3346 0)
(668.196 14.5051 0)
(691.163 15.0037 0)
(884.475 3.62354 0)
(992.807 -5.60918 0)
(1110.96 -6.11348 0)
(-1287.97 -1678.89 0)
(-1235.88 -1508.22 0)
(-1086.85 -1278.74 0)
(-919.046 -1105.87 0)
(-781.582 -958.462 0)
(-627.974 -923.476 0)
(-476.976 -1086.97 0)
(-344.1 -1269.38 0)
(-540.451 -1650.69 0)
(-685.759 -1885.29 0)
(-155.149 -1216.46 0)
(279.384 -753.319 0)
(190.294 -721.457 0)
(-37.5607 -657.73 0)
(-358.629 -817.349 0)
(-731.156 -1013.58 0)
(-1011.07 -1083.53 0)
(-1179.81 -1032.16 0)
(-1417.63 -977.179 0)
(-1822.81 -997.313 0)
(-1955.37 -926.881 0)
(-1347.14 -481.23 0)
(-569.934 -99.9744 0)
(-232.715 -6.17465 0)
(-154.796 1.96302 0)
(-123.537 4.09494 0)
(-95.3293 8.40064 0)
(-70.7078 14.6802 0)
(-14.1583 19.5 0)
(185.836 22.9852 0)
(1209.22 19.3003 0)
(2494.52 -0.695473 0)
(2261.28 5.26621 0)
(1294.08 20.3492 0)
(840.95 27.906 0)
(670.451 21.6742 0)
(688.221 15.1562 0)
(876.235 6.28013 0)
(988.05 -3.4602 0)
(1102.66 -6.68304 0)
(-1061.59 -1843.65 0)
(-1042.99 -1789.24 0)
(-887.413 -1623.72 0)
(-728.458 -1512.78 0)
(-681.124 -1468.33 0)
(-724.63 -1529.29 0)
(-699.959 -1586.65 0)
(-665.132 -1581.99 0)
(-631.608 -1535.36 0)
(-95.33 -964.873 0)
(473.34 -434.384 0)
(334.359 -513.841 0)
(47.6382 -622.611 0)
(-168.821 -781.758 0)
(-524.613 -982.571 0)
(-829.035 -1103.75 0)
(-994.483 -1076.03 0)
(-1135.08 -989.889 0)
(-1417.85 -969.791 0)
(-1777.19 -1010.31 0)
(-1653.39 -780.333 0)
(-951.769 -272.849 0)
(-383.579 -4.69519 0)
(-198.514 46.5662 0)
(-150.259 54.3426 0)
(-119.362 61.4211 0)
(-89.1589 70.0801 0)
(-64.4248 79.666 0)
(-9.62571 86.3942 0)
(184.963 92.1539 0)
(1194.96 93.4596 0)
(2492.43 98.793 0)
(2285.06 140.86 0)
(1311.44 173.927 0)
(836.853 185.949 0)
(655.91 156.881 0)
(676.329 108.917 0)
(866.535 45.4066 0)
(980.316 10.1568 0)
(1093.67 -5.5998 0)
(-927.725 -1843.14 0)
(-1023.95 -1950.62 0)
(-820.439 -1933 0)
(-769.306 -1890.59 0)
(-797.495 -1823.31 0)
(-741.987 -1596.2 0)
(-527.751 -1249.89 0)
(-294.676 -949.072 0)
(54.2212 -550.535 0)
(375.178 -222.364 0)
(279.482 -346.981 0)
(98.0022 -601.063 0)
(-67.8812 -718.407 0)
(-384.432 -913.413 0)
(-668.911 -1033.85 0)
(-821.221 -994.233 0)
(-901.35 -875.047 0)
(-1077.43 -774.133 0)
(-1437.31 -759.244 0)
(-1640.24 -755.604 0)
(-1244.72 -388.324 0)
(-599.705 82.7447 0)
(-262.135 262.61 0)
(-175.824 310.047 0)
(-140.481 337.273 0)
(-108.372 364.105 0)
(-77.7478 386.957 0)
(-54.9869 410.184 0)
(-2.12451 422.901 0)
(192.644 440.203 0)
(1215.62 478.381 0)
(2540.19 650.983 0)
(2333.68 833.878 0)
(1337.53 838.63 0)
(824.524 723.115 0)
(596.22 526.593 0)
(580.8 357.91 0)
(781.067 209.847 0)
(938.898 65.3055 0)
(1058.49 -8.11055 0)
(-1374.11 -1608.15 0)
(-1129.57 -1392.44 0)
(-829.567 -1289.44 0)
(-622.756 -1035.16 0)
(-397.439 -703.908 0)
(-172.064 -377.786 0)
(-76.3629 -216.46 0)
(8.79056 -162.112 0)
(68.6737 -134.811 0)
(100.822 -290.62 0)
(108.411 -512.652 0)
(-23.56 -593.605 0)
(-253.353 -699.815 0)
(-472.793 -724.388 0)
(-602.495 -607.479 0)
(-676.006 -356.641 0)
(-782.386 -90.438 0)
(-1023.49 16.0939 0)
(-1400 -11.8108 0)
(-1419.76 263.423 0)
(-845.524 859.821 0)
(-324.506 1237.75 0)
(-164.542 1370.11 0)
(-126.566 1432.75 0)
(-98.1658 1480.62 0)
(-71.4844 1524.61 0)
(-44.7559 1557.02 0)
(-29.7882 1591.06 0)
(19.3021 1604.45 0)
(238.426 1642.84 0)
(1398.07 1784.94 0)
(2835 2213.67 0)
(2465.88 2361.89 0)
(1204.7 2172.45 0)
(536.163 1877.49 0)
(303.986 1447.89 0)
(371.101 1006.08 0)
(584.571 597.346 0)
(770.284 256.642 0)
(973.284 -6.05116 0)
(-1408.79 -546.601 0)
(-716.832 -130.285 0)
(-476.153 158.777 0)
(-205.068 345.473 0)
(-164.022 440.845 0)
(-272.265 364.211 0)
(-319.92 240.897 0)
(-215.995 75.0664 0)
(-69.6137 -74.4471 0)
(11.0761 -81.1377 0)
(-12.4856 -40.6467 0)
(-82.3546 65.2995 0)
(-193.908 245.929 0)
(-295.454 537.285 0)
(-314.536 916.375 0)
(-322.981 1264.37 0)
(-542.17 1421.05 0)
(-1001.67 1337.29 0)
(-1198.97 1309.87 0)
(-800.307 1753.05 0)
(-305.823 2277.84 0)
(-107.972 2458.99 0)
(-74.2255 2496.25 0)
(-69.3358 2506.61 0)
(-51.9615 2511.73 0)
(-34.7489 2521.99 0)
(-13.7216 2530.77 0)
(-9.28341 2538.49 0)
(47.7784 2538.48 0)
(366.571 2579.83 0)
(1765.69 2758.16 0)
(3096.16 3032.32 0)
(2293.96 2843.42 0)
(870.748 2551.44 0)
(126.318 2400.27 0)
(-243.495 2156.49 0)
(-238.819 1736.17 0)
(58.8768 1193.48 0)
(357.443 646.148 0)
(678.759 26.3914 0)
(-495.624 302.905 0)
(-449.843 577.569 0)
(-371.11 929.514 0)
(-350.945 1074.06 0)
(-379.382 1174.09 0)
(-364.741 1317.66 0)
(-354.994 1543.74 0)
(-295.086 1573.49 0)
(-81.8502 1588.3 0)
(133.394 1674.2 0)
(249.523 1850.82 0)
(252.595 1993.98 0)
(201.47 2090.91 0)
(173.272 2201.95 0)
(98.1535 2259.89 0)
(-189.687 2116.06 0)
(-712.125 1726.83 0)
(-1130.62 1388.59 0)
(-999.354 1562.49 0)
(-486.989 1966.01 0)
(-165.25 2128.45 0)
(-114.033 2126.96 0)
(-118.66 2084.52 0)
(-111.654 2048.89 0)
(-83.3379 2022.31 0)
(-53.1313 2007.88 0)
(-28.8603 1999.45 0)
(-22.3577 1983.32 0)
(59.1403 1978.68 0)
(450.111 2004.36 0)
(1834.11 2056.77 0)
(2917.16 1888.53 0)
(2002.48 1563.74 0)
(777.67 1391.07 0)
(155.575 1449.06 0)
(-335.968 1558.53 0)
(-556.893 1549.78 0)
(-465.811 1355.59 0)
(-354.361 894.648 0)
(10.7538 106.381 0)
(104.65 405.711 0)
(-113.009 1009.32 0)
(2.28642 1728.71 0)
(30.6169 2373.52 0)
(70.7191 3050.97 0)
(83.9393 3745.23 0)
(-73.392 4166.65 0)
(-173.054 4238.94 0)
(27.4304 3895.44 0)
(264.052 3345.89 0)
(295.669 2868.28 0)
(149.008 2458.77 0)
(6.49728 2114.34 0)
(-132.619 1789.75 0)
(-397.307 1352.95 0)
(-836.662 773.856 0)
(-1243.18 338.743 0)
(-1160.02 405.736 0)
(-642.552 858.278 0)
(-254.935 1167.41 0)
(-150.728 1216.07 0)
(-150.3 1196.37 0)
(-149.453 1177.83 0)
(-129.285 1172.89 0)
(-91.4829 1176.43 0)
(-56.7719 1183.2 0)
(-37.3886 1188.42 0)
(-29.3057 1185.43 0)
(68.0554 1188.82 0)
(441.828 1199.9 0)
(1654.07 1116.22 0)
(2621.06 716.868 0)
(1814.59 522.252 0)
(760.23 524.653 0)
(287.687 588.143 0)
(-146.437 695.388 0)
(-434.375 801.946 0)
(-572.43 811.463 0)
(-846.341 586.672 0)
(-865.179 46.1092 0)
(1121.59 451.592 0)
(825.042 1177.63 0)
(943.479 1929.63 0)
(923.24 2555.06 0)
(942.446 3136.7 0)
(710.361 3623.71 0)
(120.768 3804.36 0)
(-556.432 3688.24 0)
(-942.429 3021.03 0)
(-856.413 1975.35 0)
(-605.339 1150.14 0)
(-473.932 677.791 0)
(-443.222 393.788 0)
(-560.428 99.0045 0)
(-880.798 -267.795 0)
(-1167.01 -518.91 0)
(-1066.86 -344.432 0)
(-629.977 204.68 0)
(-265.377 630.107 0)
(-142.212 769.341 0)
(-137.34 794.173 0)
(-150.881 796.011 0)
(-141.288 804.677 0)
(-113.002 820.583 0)
(-73.4076 839.171 0)
(-41.5767 853.805 0)
(-26.7087 864.162 0)
(-21.9688 870.694 0)
(73.0848 875.683 0)
(380.147 852.112 0)
(1368.64 714.78 0)
(2344.8 191.554 0)
(1817.26 46.4179 0)
(841.165 221.364 0)
(320.102 273.562 0)
(-129.939 311.89 0)
(-445.039 351.302 0)
(-673.257 304.088 0)
(-1091.88 128.207 0)
(-1224.74 -71.0273 0)
(2005.04 159.063 0)
(1311.28 554.362 0)
(1329.63 836.786 0)
(1193.8 996.982 0)
(1100.51 1140.22 0)
(727.318 1105.11 0)
(-11.2131 1052.82 0)
(-927.9 871.175 0)
(-1623.17 388.516 0)
(-1538.8 -101.179 0)
(-954.703 -327.239 0)
(-579.843 -424.462 0)
(-551.243 -545.834 0)
(-770.144 -719.835 0)
(-992.752 -793.589 0)
(-910.513 -541.172 0)
(-545.901 -44.9617 0)
(-220.924 376.2 0)
(-98.4238 547.938 0)
(-96.8357 595.406 0)
(-125.028 611.005 0)
(-140.178 622.959 0)
(-125.775 640.368 0)
(-96.0451 659.773 0)
(-59.4692 677.42 0)
(-32.6896 688.718 0)
(-21.1131 696.348 0)
(-18.2043 701.351 0)
(50.1485 705.285 0)
(286.777 646.864 0)
(1017.53 519.718 0)
(1977 -66.3186 0)
(1843.32 -380.975 0)
(979.114 -180.589 0)
(374.921 -129.977 0)
(-71.5235 -50.6758 0)
(-441.893 51.6809 0)
(-787.412 29.6218 0)
(-1207.82 -168.306 0)
(-1275.16 -127.481 0)
(2050.1 -171.68 0)
(1478.12 -221.229 0)
(1370 -220.137 0)
(1215.64 -317.76 0)
(1046.64 -336.473 0)
(626.133 -537.151 0)
(-104.656 -651.995 0)
(-1196.58 -786.373 0)
(-1879.43 -955.611 0)
(-1546.14 -818.648 0)
(-916.866 -641.378 0)
(-684.578 -635.619 0)
(-727.854 -746.082 0)
(-799.173 -775.958 0)
(-708.632 -544.101 0)
(-445.609 -107.093 0)
(-182.847 274.233 0)
(-58.6375 454.197 0)
(-54.1417 511.518 0)
(-81.4373 536.523 0)
(-110.789 560.755 0)
(-122.586 586.796 0)
(-105.812 610.858 0)
(-77.2975 630.866 0)
(-45.5157 645.241 0)
(-23.3368 653.23 0)
(-14.5347 657.555 0)
(-13.3567 660.319 0)
(20.5785 665.318 0)
(201.327 611.167 0)
(681.396 482.885 0)
(1476.85 -31.5437 0)
(1707.14 -573.226 0)
(1083.04 -534.178 0)
(445.291 -531.26 0)
(45.113 -485.659 0)
(-367.661 -407.51 0)
(-885.245 -257.944 0)
(-1243.27 -315.718 0)
(-929.772 -151.415 0)
(1513.47 1646.86 0)
(1264.58 -1139.8 0)
(1236.61 -1070.86 0)
(1081.69 -1216.29 0)
(889.101 -1312.75 0)
(423.27 -1525.96 0)
(-251.373 -1681.29 0)
(-1220.48 -1731.39 0)
(-1654.28 -1465.13 0)
(-1235.99 -990.313 0)
(-778.329 -711.875 0)
(-680.739 -593.851 0)
(-686.479 -478.159 0)
(-575.508 -271.529 0)
(-348.209 46.9391 0)
(-121.936 353.572 0)
(-5.02173 531.6 0)
(7.73192 592.626 0)
(-19.0916 622.796 0)
(-49.3887 654.446 0)
(-76.583 695.448 0)
(-91.8965 742.376 0)
(-83.3067 784.799 0)
(-62.9124 817.449 0)
(-37.9189 838.656 0)
(-20.8236 847.742 0)
(-14.2823 850.282 0)
(-10.724 850.782 0)
(2.78398 854.855 0)
(110.978 827.004 0)
(398.192 675.299 0)
(959.296 294.73 0)
(1358.96 -349.056 0)
(1019.55 -632.468 0)
(421.676 -754.152 0)
(47.7262 -834.596 0)
(-222.459 -927.112 0)
(-698.957 -745.714 0)
(-1105.16 -868.216 0)
(-403.205 411.398 0)
(-413.619 55845.9 0)
(-1140.77 745.399 0)
(1296.3 -1396.42 0)
(982.554 -1745.55 0)
(748.226 -2140.16 0)
(270.992 -2447.05 0)
(-302.613 -2648.01 0)
(-988.273 -2503.21 0)
(-1165.3 -1825.76 0)
(-820.281 -1166.7 0)
(-534.82 -807.098 0)
(-459.361 -523.667 0)
(-417.254 -190.297 0)
(-293.17 183.82 0)
(-106.262 470.967 0)
(21.428 619.188 0)
(47.5148 660.376 0)
(29.2429 672.046 0)
(5.43045 689.903 0)
(-11.4275 723.062 0)
(-26.0564 769.845 0)
(-36.4842 828.912 0)
(-33.4689 888.451 0)
(-25.3986 936.355 0)
(-16.3247 971.183 0)
(-12.134 989.755 0)
(-11.6048 1001.5 0)
(-8.94976 1009.04 0)
(-2.33512 1015.05 0)
(28.3009 1008.08 0)
(168.477 898.804 0)
(489.749 597.787 0)
(813.662 -81.7819 0)
(692.671 -732.897 0)
(250.513 -1078.19 0)
(-121.558 -1208.91 0)
(-282.012 -1244.09 0)
(-828.491 -1117.15 0)
(-128.237 -179.878 0)
(2627.82 20059.7 0)
(45375.8 -47533.1 0)
(-53896.1 3021.65 0)
(-1163.77 -873.547 0)
(365 -2059.27 0)
(213.118 -3065.51 0)
(-66.121 -3521.08 0)
(-305.493 -3553.31 0)
(-428.122 -2828.24 0)
(-366.371 -1647.38 0)
(-254.374 -713.686 0)
(-158.675 -144.777 0)
(-86.3678 272.522 0)
(-4.71892 639.606 0)
(61.7097 877.506 0)
(71.3271 973.783 0)
(60.5852 954.261 0)
(45.9147 918.739 0)
(36.186 903.518 0)
(30.0696 914.596 0)
(27.6456 943.029 0)
(25.4176 979.686 0)
(22.3964 1025.74 0)
(20.2295 1068.43 0)
(16.8115 1095.67 0)
(13.539 1113.39 0)
(8.38822 1119.14 0)
(4.30426 1128.89 0)
(2.33263 1131.04 0)
(1.85307 1133.22 0)
(-1.0376 1119.03 0)
(2.82173 1073.54 0)
(14.368 846.887 0)
(76.6638 309.212 0)
(59.3814 -571.546 0)
(-37.0312 -1126.77 0)
(-112.143 -1281.42 0)
(-134.03 -951.378 0)
(326.556 -449.673 0)
(19301.6 2705.34 0)
(-10360.3 -10802.2 0)
(45375.8 47533.1 0)
(-53896.1 -3021.65 0)
(-1163.77 873.547 0)
(365 2059.27 0)
(213.118 3065.51 0)
(-66.121 3521.08 0)
(-305.493 3553.31 0)
(-428.122 2828.24 0)
(-366.371 1647.38 0)
(-254.374 713.686 0)
(-158.675 144.777 0)
(-86.3678 -272.522 0)
(-4.71892 -639.606 0)
(61.7097 -877.506 0)
(71.3271 -973.783 0)
(60.5852 -954.261 0)
(45.9147 -918.739 0)
(36.186 -903.518 0)
(30.0696 -914.596 0)
(27.6456 -943.029 0)
(25.4176 -979.686 0)
(22.3964 -1025.74 0)
(20.2295 -1068.43 0)
(16.8115 -1095.67 0)
(13.539 -1113.39 0)
(8.38822 -1119.14 0)
(4.30426 -1128.89 0)
(2.33263 -1131.04 0)
(1.85307 -1133.22 0)
(-1.0376 -1119.03 0)
(2.82173 -1073.54 0)
(14.368 -846.887 0)
(76.6638 -309.212 0)
(59.3814 571.546 0)
(-37.0312 1126.77 0)
(-112.143 1281.42 0)
(-134.03 951.378 0)
(326.556 449.673 0)
(19301.6 -2705.34 0)
(-10360.3 10802.2 0)
(-413.619 -55845.9 0)
(-1140.77 -745.399 0)
(1296.3 1396.42 0)
(982.554 1745.55 0)
(748.226 2140.16 0)
(270.992 2447.05 0)
(-302.613 2648.01 0)
(-988.273 2503.21 0)
(-1165.3 1825.76 0)
(-820.281 1166.7 0)
(-534.82 807.098 0)
(-459.361 523.667 0)
(-417.254 190.297 0)
(-293.17 -183.82 0)
(-106.262 -470.967 0)
(21.428 -619.188 0)
(47.5148 -660.376 0)
(29.2429 -672.046 0)
(5.43045 -689.903 0)
(-11.4275 -723.062 0)
(-26.0564 -769.845 0)
(-36.4842 -828.912 0)
(-33.4689 -888.451 0)
(-25.3986 -936.355 0)
(-16.3247 -971.183 0)
(-12.134 -989.755 0)
(-11.6048 -1001.5 0)
(-8.94976 -1009.04 0)
(-2.33512 -1015.05 0)
(28.3009 -1008.08 0)
(168.477 -898.804 0)
(489.749 -597.787 0)
(813.662 81.7819 0)
(692.671 732.897 0)
(250.513 1078.19 0)
(-121.558 1208.91 0)
(-282.012 1244.09 0)
(-828.491 1117.15 0)
(-128.237 179.878 0)
(2627.82 -20059.7 0)
(1513.47 -1646.86 0)
(1264.58 1139.8 0)
(1236.61 1070.86 0)
(1081.69 1216.29 0)
(889.101 1312.75 0)
(423.27 1525.96 0)
(-251.373 1681.29 0)
(-1220.48 1731.39 0)
(-1654.28 1465.13 0)
(-1235.99 990.313 0)
(-778.329 711.875 0)
(-680.739 593.851 0)
(-686.479 478.159 0)
(-575.508 271.529 0)
(-348.209 -46.9391 0)
(-121.936 -353.572 0)
(-5.02173 -531.6 0)
(7.73192 -592.626 0)
(-19.0916 -622.796 0)
(-49.3887 -654.446 0)
(-76.583 -695.448 0)
(-91.8965 -742.376 0)
(-83.3067 -784.799 0)
(-62.9124 -817.449 0)
(-37.9189 -838.656 0)
(-20.8236 -847.742 0)
(-14.2823 -850.282 0)
(-10.724 -850.782 0)
(2.78398 -854.855 0)
(110.978 -827.004 0)
(398.192 -675.299 0)
(959.296 -294.73 0)
(1358.96 349.056 0)
(1019.55 632.468 0)
(421.676 754.152 0)
(47.7262 834.596 0)
(-222.459 927.112 0)
(-698.957 745.714 0)
(-1105.16 868.216 0)
(-403.205 -411.398 0)
(2050.1 171.68 0)
(1478.12 221.229 0)
(1370 220.137 0)
(1215.64 317.76 0)
(1046.64 336.473 0)
(626.133 537.151 0)
(-104.656 651.995 0)
(-1196.58 786.373 0)
(-1879.43 955.611 0)
(-1546.14 818.648 0)
(-916.866 641.378 0)
(-684.578 635.619 0)
(-727.854 746.082 0)
(-799.173 775.958 0)
(-708.632 544.101 0)
(-445.609 107.093 0)
(-182.847 -274.233 0)
(-58.6375 -454.197 0)
(-54.1417 -511.518 0)
(-81.4373 -536.523 0)
(-110.789 -560.755 0)
(-122.586 -586.796 0)
(-105.812 -610.858 0)
(-77.2975 -630.866 0)
(-45.5157 -645.241 0)
(-23.3368 -653.23 0)
(-14.5347 -657.555 0)
(-13.3567 -660.319 0)
(20.5785 -665.318 0)
(201.327 -611.167 0)
(681.396 -482.885 0)
(1476.85 31.5437 0)
(1707.14 573.226 0)
(1083.04 534.178 0)
(445.291 531.26 0)
(45.113 485.659 0)
(-367.661 407.51 0)
(-885.245 257.944 0)
(-1243.27 315.718 0)
(-929.772 151.415 0)
(2005.04 -159.063 0)
(1311.28 -554.362 0)
(1329.63 -836.786 0)
(1193.8 -996.982 0)
(1100.51 -1140.22 0)
(727.318 -1105.11 0)
(-11.2131 -1052.82 0)
(-927.9 -871.175 0)
(-1623.17 -388.516 0)
(-1538.8 101.179 0)
(-954.703 327.239 0)
(-579.843 424.462 0)
(-551.243 545.834 0)
(-770.144 719.835 0)
(-992.752 793.589 0)
(-910.513 541.172 0)
(-545.901 44.9617 0)
(-220.924 -376.2 0)
(-98.4238 -547.938 0)
(-96.8357 -595.406 0)
(-125.028 -611.005 0)
(-140.178 -622.959 0)
(-125.775 -640.368 0)
(-96.0451 -659.773 0)
(-59.4692 -677.42 0)
(-32.6896 -688.718 0)
(-21.1131 -696.348 0)
(-18.2043 -701.351 0)
(50.1485 -705.285 0)
(286.777 -646.864 0)
(1017.53 -519.718 0)
(1977 66.3186 0)
(1843.32 380.975 0)
(979.114 180.589 0)
(374.921 129.977 0)
(-71.5235 50.6758 0)
(-441.893 -51.6809 0)
(-787.412 -29.6218 0)
(-1207.82 168.306 0)
(-1275.16 127.481 0)
(1121.59 -451.592 0)
(825.042 -1177.63 0)
(943.479 -1929.63 0)
(923.24 -2555.06 0)
(942.446 -3136.7 0)
(710.361 -3623.71 0)
(120.768 -3804.36 0)
(-556.432 -3688.24 0)
(-942.429 -3021.03 0)
(-856.413 -1975.35 0)
(-605.339 -1150.14 0)
(-473.932 -677.791 0)
(-443.222 -393.788 0)
(-560.428 -99.0045 0)
(-880.798 267.795 0)
(-1167.01 518.91 0)
(-1066.86 344.432 0)
(-629.977 -204.68 0)
(-265.377 -630.107 0)
(-142.212 -769.341 0)
(-137.34 -794.173 0)
(-150.881 -796.011 0)
(-141.288 -804.677 0)
(-113.002 -820.583 0)
(-73.4076 -839.171 0)
(-41.5767 -853.805 0)
(-26.7087 -864.162 0)
(-21.9688 -870.694 0)
(73.0848 -875.683 0)
(380.147 -852.112 0)
(1368.64 -714.78 0)
(2344.8 -191.554 0)
(1817.26 -46.4179 0)
(841.165 -221.364 0)
(320.102 -273.562 0)
(-129.939 -311.89 0)
(-445.039 -351.302 0)
(-673.257 -304.088 0)
(-1091.88 -128.207 0)
(-1224.74 71.0273 0)
(104.65 -405.711 0)
(-113.009 -1009.32 0)
(2.28642 -1728.71 0)
(30.6169 -2373.52 0)
(70.7191 -3050.97 0)
(83.9393 -3745.23 0)
(-73.392 -4166.65 0)
(-173.054 -4238.94 0)
(27.4304 -3895.44 0)
(264.052 -3345.89 0)
(295.669 -2868.28 0)
(149.008 -2458.77 0)
(6.49728 -2114.34 0)
(-132.619 -1789.75 0)
(-397.307 -1352.95 0)
(-836.662 -773.856 0)
(-1243.18 -338.743 0)
(-1160.02 -405.736 0)
(-642.552 -858.278 0)
(-254.935 -1167.41 0)
(-150.728 -1216.07 0)
(-150.3 -1196.37 0)
(-149.453 -1177.83 0)
(-129.285 -1172.89 0)
(-91.4829 -1176.43 0)