/*--------------------------------*- C++ -*----------------------------------*\
| =========                 |                                                 |
| \\      /  F ield         | OpenFOAM: The Open Source CFD Toolbox           |
|  \\    /   O peration     | Version:  v1912                                 |
|   \\  /    A nd           | Website:  www.openfoam.com                      |
|    \\/     M anipulation  |                                                 |
\*---------------------------------------------------------------------------*/
FoamFile
{
    version     2.0;
    format      ascii;
    class       volVectorField;
    location    "5.56";
    object      grad(p);
}
// * * * * * * * * * * * * * * * * * * * * * * * * * * * * * * * * * * * * * //

dimensions      [1 -2 -2 0 0 0 0];


internalField   nonuniform List<vector> 
1900
(
(126734 0.645817 0)
(-127353 -0.265123 0)
(-6868.36 -0.701224 0)
(-971.626 -0.592775 0)
(-796.283 1.9098 0)
(-405.005 5.03208 0)
(-288.836 10.7932 0)
(-296.941 20.6695 0)
(-408.654 21.3261 0)
(335.774 -93.9534 0)
(126735 0.815865 0)
(-127354 -0.246409 0)
(-6868.69 -0.838306 0)
(-969.015 -0.0313073 0)
(-790.658 5.0553 0)
(-396.121 9.0339 0)
(-273.199 10.6482 0)
(-286.409 4.00943 0)
(-523.277 -56.7124 0)
(-709.33 -153.082 0)
(126735 -5.59908e-08 0)
(-127354 8.98481e-08 0)
(-6868.15 -3.65752e-08 0)
(-965.732 2.84217e-09 0)
(-787.217 -1.68576e-08 0)
(-399.412 -3.42837e-09 0)
(-293.861 2.43361e-09 0)
(-364.302 1.40332e-09 0)
(-565.745 1.40332e-09 0)
(-786.992 -5.50671e-10 0)
(126735 -0.815865 0)
(-127354 0.246409 0)
(-6868.69 0.838306 0)
(-969.015 0.0313073 0)
(-790.658 -5.0553 0)
(-396.121 -9.0339 0)
(-273.199 -10.6482 0)
(-286.409 -4.00943 0)
(-523.277 56.7124 0)
(-709.33 153.082 0)
(126734 -0.645817 0)
(-127353 0.265123 0)
(-6868.36 0.701224 0)
(-971.626 0.592775 0)
(-796.283 -1.9098 0)
(-405.005 -5.03208 0)
(-288.836 -10.7932 0)
(-296.941 -20.6695 0)
(-408.654 -21.3261 0)
(335.774 93.9534 0)
(-505.887 -901.878 8.92256e-12)
(-2129.52 -716.185 -1.04122e-11)
(-1959.6 -819.494 -1.30558e-11)
(611.007 -1091.87 0)
(-17767.7 -8364.35 -5.67502e-11)
(-1019.32 -1049.21 8.75959e-12)
(-1521.49 -847.883 1.04122e-11)
(-1829.35 -952.29 1.30558e-11)
(-2133.42 -899.673 0)
(-16821.2 -7295.49 0)
(-1406.67 4.82706e-10 0)
(-1695.53 1.24657e-09 0)
(-1852.62 -2.96059e-10 0)
(-1973.41 4.17175e-09 0)
(-19670.5 -2.11471e-09 0)
(-1019.32 1049.21 8.75959e-12)
(-1521.49 847.883 1.04122e-11)
(-1829.35 952.29 1.30558e-11)
(-2133.42 899.673 0)
(-16821.2 7295.49 0)
(-505.887 901.878 -2.64418e-11)
(-2129.52 716.185 -1.04122e-11)
(-1959.6 819.494 -1.30558e-11)
(611.007 1091.87 -3.50317e-11)
(-17767.7 8364.35 5.67502e-11)
(-35041.9 11272.8 1.12667e-11)
(-6396.91 3942.02 -6.4533e-12)
(-646.002 1999.13 0)
(-2013.59 1154.82 4.64004e-12)
(-5772.86 1516.13 -1.86777e-12)
(-31002.8 13624.6 -5.8031e-12)
(-8452.2 2840.82 3.28601e-12)
(-1365.8 740.061 0)
(-2040.51 359.904 -2.92447e-12)
(-5250.36 832.406 4.84625e-13)
(-32391.1 1.12144e-09 0)
(-9693.65 8.3504e-10 0)
(-1499.44 1.54609e-09 0)
(-2008.37 -1.93019e-09 1.17413e-12)
(-5055.37 2.63597e-09 -9.69249e-13)
(-31002.8 -13624.6 -5.8031e-12)
(-8452.2 -2840.82 3.28601e-12)
(-1365.8 -740.061 0)
(-2040.51 -359.904 -2.92447e-12)
(-5250.36 -832.406 4.84625e-13)
(-35041.9 -11272.8 5.8031e-12)
(-6396.91 -3942.02 -1.18721e-13)
(-646.002 -1999.13 0)
(-2013.59 -1154.82 3.47794e-14)
(-5772.86 -1516.13 1.86777e-12)
(-5992.07 3965.24 0)
(-998.2 -753.501 0)
(2368.32 -945.611 0)
(2650.45 755.553 0)
(788.772 1287.22 0)
(-855.971 1134.02 0)
(-1677.07 641.825 0)
(-1575.01 272.736 0)
(-1114.5 110.579 0)
(-691.817 48.1059 0)
(-480.811 20.1677 0)
(-418.239 12.3801 0)
(-386.177 17.7307 0)
(-328.879 10.9628 0)
(-238.042 3.835 0)
(-147.075 -0.186724 0)
(-89.0162 -1.21126 0)
(-62.3074 -1.16355 0)
(-51.084 -0.990576 0)
(-44.1895 -0.934333 0)
(-37.4531 -0.984369 0)
(-30.7904 -1.07106 0)
(-24.5173 -1.15101 0)
(-18.8182 -1.21702 0)
(-13.6747 -1.27726 0)
(-9.02683 -1.34868 0)
(-3.97527 -1.40938 0)
(2.5774 -1.47408 0)
(11.9195 -1.51731 0)
(21.1532 -1.46183 0)
(32.6561 -1.43009 0)
(42.107 -1.11858 0)
(54.354 -1.23904 0)
(63.0754 -0.402526 0)
(91.1978 -2.17728 0)
(128.129 0.930297 0)
(202.316 0.913517 0)
(253.654 6.26377 0)
(1138.15 -7.70511 0)
(416.097 -258.721 0)
(-6585.75 2541.16 0)
(-1820.57 -843.738 0)
(2756.45 -1022.99 0)
(3004.31 151.62 0)
(778.321 351.516 0)
(-1003.82 303.919 0)
(-1791.17 297.195 0)
(-1638.01 151.79 0)
(-1140.31 52.197 0)
(-700.717 20.2594 0)
(-484.473 7.66115 0)
(-418.089 2.81009 0)
(-385.968 8.75887 0)
(-330.377 3.69892 0)
(-238.927 1.00557 0)
(-147.457 -0.347971 0)
(-89.0746 -0.647762 0)
(-62.2797 -0.596385 0)
(-51.0592 -0.509545 0)
(-44.1856 -0.476344 0)
(-37.4631 -0.492281 0)
(-30.8042 -0.527892 0)
(-24.5302 -0.564238 0)
(-18.8302 -0.597661 0)
(-13.6878 -0.631144 0)
(-9.04035 -0.671594 0)
(-3.98904 -0.70815 0)
(2.56375 -0.749215 0)
(11.9162 -0.782983 0)
(21.1545 -0.77329 0)
(32.6815 -0.777241 0)
(42.1163 -0.644572 0)
(54.428 -0.705386 0)
(62.9698 -0.251112 0)
(91.3317 -1.09326 0)
(128.49 0.573104 0)
(202.595 1.25058 0)
(253.788 4.01308 0)
(1140.09 2.90928 0)
(413.57 6.28972 0)
(-6356.95 -3.74004e-08 0)
(-2035.04 -7.1135e-09 0)
(2657.88 8.17124e-08 0)
(3050.31 1.05475e-07 0)
(833.077 4.33673e-08 0)
(-871.774 -1.17563e-08 0)
(-1721.32 -2.00325e-08 0)
(-1646.28 -1.09286e-08 0)
(-1152.77 -1.55512e-08 0)
(-704.772 -1.96166e-08 0)
(-485.887 -3.37508e-09 0)
(-417.92 -3.02788e-10 0)
(-385.918 -3.7142e-10 0)
(-331.134 -2.85832e-09 0)
(-239.219 -7.0368e-09 0)
(-147.556 -4.99802e-09 0)
(-89.0885 -2.70289e-09 0)
(-62.2672 -1.67341e-09 0)
(-51.049 -6.98431e-10 0)
(-44.1844 9.54792e-10 0)
(-37.4681 2.77152e-09 0)
(-30.8114 4.81231e-09 0)
(-24.5376 5.84381e-09 0)
(-18.8377 4.39043e-09 0)
(-13.6962 1.56441e-09 0)
(-9.04923 -1.58055e-09 0)
(-3.99785 -3.89789e-09 0)
(2.55564 -5.46633e-09 0)
(11.9125 -5.55313e-09 0)
(21.1549 -2.56966e-09 0)
(32.6935 4.20472e-09 0)
(42.1279 6.11632e-09 0)
(54.4685 -1.49174e-09 0)
(62.9626 4.02708e-09 0)
(91.4375 1.37728e-08 0)
(128.811 3.00547e-08 0)
(203.317 -1.26848e-08 0)
(254.136 3.03838e-08 0)
(1138.81 -4.93262e-08 0)
(413.421 -2.07616e-07 0)
(-6585.75 -2541.16 0)
(-1820.57 843.738 0)
(2756.45 1022.99 0)
(3004.31 -151.62 0)
(778.321 -351.516 0)
(-1003.82 -303.919 0)
(-1791.17 -297.195 0)
(-1638.01 -151.79 0)
(-1140.31 -52.197 0)
(-700.717 -20.2594 0)
(-484.473 -7.66115 0)
(-418.089 -2.81009 0)
(-385.968 -8.75887 0)
(-330.377 -3.69892 0)
(-238.927 -1.00557 0)
(-147.457 0.347971 0)
(-89.0746 0.647762 0)
(-62.2797 0.596385 0)
(-51.0592 0.509545 0)
(-44.1856 0.476344 0)
(-37.4631 0.492281 0)
(-30.8042 0.527892 0)
(-24.5302 0.564238 0)
(-18.8302 0.597661 0)
(-13.6878 0.631144 0)
(-9.04035 0.671594 0)
(-3.98904 0.70815 0)
(2.56375 0.749215 0)
(11.9162 0.782983 0)
(21.1545 0.77329 0)
(32.6815 0.777241 0)
(42.1163 0.644572 0)
(54.428 0.705386 0)
(62.9698 0.251112 0)
(91.3317 1.09326 0)
(128.49 -0.573104 0)
(202.595 -1.25058 0)
(253.788 -4.01308 0)
(1140.09 -2.90928 0)
(413.57 -6.28972 0)
(-5992.07 -3965.24 0)
(-998.2 753.501 0)
(2368.32 945.611 0)
(2650.45 -755.553 0)
(788.772 -1287.22 0)
(-855.971 -1134.02 0)
(-1677.07 -641.825 0)
(-1575.01 -272.736 0)
(-1114.5 -110.579 0)
(-691.817 -48.1059 0)
(-480.811 -20.1677 0)
(-418.239 -12.3801 0)
(-386.177 -17.7307 0)
(-328.879 -10.9628 0)
(-238.042 -3.835 0)
(-147.075 0.186724 0)
(-89.0162 1.21126 0)
(-62.3074 1.16355 0)
(-51.084 0.990576 0)
(-44.1895 0.934333 0)
(-37.4531 0.984369 0)
(-30.7904 1.07106 0)
(-24.5173 1.15101 0)
(-18.8182 1.21702 0)
(-13.6747 1.27726 0)
(-9.02683 1.34868 0)
(-3.97527 1.40938 0)
(2.5774 1.47408 0)
(11.9195 1.51731 0)
(21.1532 1.46183 0)
(32.6561 1.43009 0)
(42.107 1.11858 0)
(54.354 1.23904 0)
(63.0754 0.402526 0)
(91.1978 2.17728 0)
(128.129 -0.930297 0)
(202.316 -0.913517 0)
(253.654 -6.26377 0)
(1138.15 7.70511 0)
(416.097 258.721 0)
(1.04603 -1735.2 0)
(309.016 21.003 0)
(2258.63 304.734 0)
(2012.86 -917.445 0)
(528.833 -1321.16 0)
(-769.932 -1353.03 0)
(-1382.83 -851.124 0)
(-1377.62 -438.322 0)
(-1029.23 -205.932 0)
(-654.296 -87.9253 0)
(-466.297 -41.3977 0)
(-416.388 -30.2782 0)
(-384.837 -29.8601 0)
(-323.394 -20.6129 0)
(-232.956 -7.80153 0)
(-144.734 -0.258254 0)
(-88.5295 1.85036 0)
(-62.3861 1.8301 0)
(-51.1743 1.54723 0)
(-44.185 1.47359 0)
(-37.3889 1.5869 0)
(-30.7157 1.75752 0)
(-24.4536 1.90973 0)
(-18.7648 2.03417 0)
(-13.6204 2.14614 0)
(-8.9731 2.27641 0)
(-3.92631 2.3909 0)
(2.61566 2.50137 0)
(11.9048 2.57241 0)
(21.1012 2.48037 0)
(32.4956 2.36796 0)
(42.0073 1.87024 0)
(54.0644 1.92679 0)
(63.4362 0.947069 0)
(90.6505 2.90693 0)
(126.968 -0.947344 0)
(199.572 -1.55342 0)
(259.35 -13.0797 0)
(1308.56 12.9344 0)
(243.526 79.6844 0)
(-67.4741 -388.779 0)
(266.585 28.8938 0)
(1522.82 -417.164 0)
(1425.58 -1035.83 0)
(508.417 -1449.47 0)
(-449.165 -1290.39 0)
(-953.403 -909.168 0)
(-1059.13 -561.247 0)
(-822.574 -284.604 0)
(-553.385 -127.463 0)
(-433.042 -68.7468 0)
(-408.114 -51.547 0)
(-377.581 -43.8918 0)
(-310.564 -29.0989 0)
(-221.155 -11.5933 0)
(-139.029 -0.857958 0)
(-87.2648 2.46762 0)
(-62.5573 2.6364 0)
(-51.3791 2.31557 0)
(-44.1536 2.25388 0)
(-37.2139 2.4511 0)
(-30.5194 2.72658 0)
(-24.2849 2.97575 0)
(-18.6191 3.18782 0)
(-13.4704 3.38509 0)
(-8.81979 3.61934 0)
(-3.78475 3.83223 0)
(2.7318 4.03275 0)
(11.9072 4.18405 0)
(20.9841 4.0801 0)
(32.1542 3.91617 0)
(41.7353 3.25847 0)
(53.6197 3.28326 0)
(63.8265 2.32862 0)
(89.6657 4.00389 0)
(124.453 -0.150752 0)
(192.096 -2.1868 0)
(264.56 -16.7782 0)
(1136.16 14.4501 0)
(419.384 -215.946 0)
(-345.753 -111.754 0)
(281.663 -11.4099 0)
(1232.62 -333.475 0)
(1018.09 -708.188 0)
(283.53 -1078.47 0)
(-249.278 -1050.17 0)
(-680.197 -853.909 0)
(-775.772 -561.163 0)
(-611.224 -301.275 0)
(-446.288 -152.364 0)
(-393.141 -94.5961 0)
(-392.437 -72.3448 0)
(-363.206 -57.3478 0)
(-292.27 -35.9803 0)
(-205.742 -14.7315 0)
(-131.184 -1.79062 0)
(-85.1622 2.56974 0)
(-62.5326 3.10169 0)
(-51.5429 2.88733 0)
(-44.0544 2.90491 0)
(-36.9334 3.21008 0)
(-30.2101 3.60406 0)
(-24.0092 3.96992 0)
(-18.3703 4.29493 0)
(-13.2046 4.60232 0)
(-8.54223 4.97439 0)
(-3.52793 5.33367 0)
(2.95469 5.65854 0)
(11.9504 5.91932 0)
(20.8431 5.7987 0)
(31.7039 5.60793 0)
(41.3974 4.81341 0)
(53.1684 4.8466 0)
(64.1306 3.93475 0)
(88.2613 5.23015 0)
(121.003 0.99365 0)
(183.549 -2.64881 0)
(275.382 -13.9715 0)
(1116.63 25.0229 0)
(437.695 -43.862 0)
(-186.159 143.081 0)
(52.9269 -62.5243 0)
(851.379 -219.224 0)
(707.678 -609.336 0)
(178.874 -790.071 0)
(-232.773 -859.032 0)
(-482.181 -735.786 0)
(-526.589 -489.667 0)
(-428.64 -282.665 0)
(-354.222 -162.354 0)
(-355.933 -113.457 0)
(-372.22 -89.5954 0)
(-342.539 -66.8328 0)
(-269.497 -40.0143 0)
(-188.209 -16.2875 0)
(-122.357 -2.55516 0)
(-82.5503 2.29473 0)
(-62.2513 3.18027 0)
(-51.5687 3.17823 0)
(-43.8426 3.34469 0)
(-36.5402 3.77661 0)
(-29.7872 4.28667 0)
(-23.6191 4.7697 0)
(-18.0097 5.21822 0)
(-12.8156 5.64312 0)
(-8.11504 6.11388 0)
(-3.12548 6.62953 0)
(3.29616 7.14231 0)
(12.0422 7.42489 0)
(20.684 7.29271 0)
(31.2048 7.04644 0)
(41.0017 6.13936 0)
(52.773 6.04166 0)
(64.1961 5.17204 0)
(86.8316 5.87137 0)
(116.861 2.18651 0)
(177.675 -3.25491 0)
(291.225 -7.39136 0)
(1107.36 27.0924 0)
(437.538 -44.1802 0)
(-268.125 -64.4867 0)
(-67.4669 -184.668 0)
(705.696 -209.144 0)
(468.004 -484.18 0)
(42.9138 -683.657 0)
(-196.967 -692.627 0)
(-324.264 -580.877 0)
(-339.127 -392.415 0)
(-295.813 -244.417 0)
(-283.233 -160.546 0)
(-323.029 -123.526 0)
(-347.508 -100.283 0)
(-315.427 -70.8429 0)
(-243.563 -40.5369 0)
(-169.645 -16.0945 0)
(-113.277 -2.72271 0)
(-79.6353 2.23919 0)
(-61.6812 3.41894 0)
(-51.3845 3.66582 0)
(-43.4778 4.00981 0)
(-36.0257 4.5722 0)
(-29.2532 5.19071 0)
(-23.1115 5.78477 0)
(-17.5287 6.35989 0)
(-12.3415 6.91457 0)
(-7.59169 7.46521 0)
(-2.53689 8.10504 0)
(3.72113 8.86387 0)
(12.0953 9.13573 0)
(20.4784 9.02436 0)
(30.5924 8.73467 0)
(40.4291 7.75978 0)
(52.2362 7.50605 0)
(63.9665 6.67076 0)
(85.3843 6.97427 0)
(112.208 4.1362 0)
(174.32 -1.56249 0)
(304.626 -0.0715067 0)
(1081.18 25.6143 0)
(454.161 -57.5217 0)
(-426.254 -177.998 0)
(-86.4706 -194.295 0)
(562.759 -187.077 0)
(250.42 -494.261 0)
(-21.9943 -567.329 0)
(-133.731 -538.427 0)
(-192.885 -431.344 0)
(-202.363 -302.593 0)
(-205.203 -203.693 0)
(-237.727 -154.656 0)
(-297.861 -130.139 0)
(-321.453 -105.606 0)
(-284.966 -71.2633 0)
(-216.739 -38.872 0)
(-151.77 -15.0452 0)
(-104.69 -2.51256 0)
(-76.632 2.43321 0)
(-60.8765 3.93563 0)
(-50.9993 4.50593 0)
(-42.9692 5.06587 0)
(-35.4023 5.76514 0)
(-28.6187 6.47975 0)
(-22.4925 7.15539 0)
(-16.921 7.8109 0)
(-11.7505 8.44204 0)
(-6.96786 9.04134 0)
(-1.77767 9.7102 0)
(4.28937 10.5584 0)
(12.1969 10.7618 0)
(20.2975 10.5379 0)
(29.9862 10.0631 0)
(39.8177 8.89345 0)
(51.7236 8.32499 0)
(63.6836 7.33443 0)
(84.3892 7.2149 0)
(108.634 4.86051 0)
(173.62 -0.332167 0)
(317.414 4.66896 0)
(1052 24.3875 0)
(468.285 -66.2303 0)
(-626.88 -192.548 0)
(-76.2163 -209.214 0)
(416.637 -224.17 0)
(101.579 -467.678 0)
(0.354248 -421.936 0)
(-65.927 -387.256 0)
(-97.0062 -307.028 0)
(-119.755 -232.086 0)
(-153.256 -173.589 0)
(-212.353 -148.789 0)
(-275.762 -132.392 0)
(-290.773 -104.244 0)
(-251.12 -66.7513 0)
(-189.389 -33.9353 0)
(-134.608 -11.8022 0)
(-96.4346 -0.323011 0)
(-73.4216 4.39999 0)
(-59.6839 6.15191 0)
(-50.2953 7.04456 0)
(-42.2643 7.8074 0)
(-34.6632 8.61611 0)
(-27.9135 9.38932 0)
(-21.8288 10.0981 0)
(-16.2888 10.7752 0)
(-11.1558 11.4172 0)
(-6.36965 12.014 0)
(-1.07497 12.6599 0)
(4.73454 13.476 0)
(12.0756 13.5429 0)
(19.805 13.1074 0)
(29.0078 12.3556 0)
(38.7543 10.9019 0)
(50.7339 9.91653 0)
(62.8968 8.57239 0)
(83.0003 8.04382 0)
(104.935 5.61579 0)
(174.135 1.53711 0)
(328.447 7.05673 0)
(1012.86 20.0112 0)
(494.483 -83.028 0)
(-813.406 -152.036 0)
(-116.943 -185.213 0)
(313.694 -250.603 0)
(59.8455 -321.212 0)
(55.5036 -275.939 0)
(-23.0019 -258.901 0)
(-43.358 -218.526 0)
(-73.7769 -180.639 0)
(-124.935 -152.434 0)
(-198.027 -142.762 0)
(-254.936 -128.174 0)
(-258.199 -96.4478 0)
(-217.214 -58.5215 0)
(-163.788 -27.2169 0)
(-119.38 -7.47056 0)
(-89.0771 2.86155 0)
(-70.3926 7.48602 0)
(-58.3281 9.54362 0)
(-49.404 10.786 0)
(-41.4548 11.7739 0)
(-33.8779 12.6915 0)
(-27.1906 13.4933 0)
(-21.157 14.1758 0)
(-15.6498 14.7942 0)
(-10.5567 15.359 0)
(-5.77039 15.8627 0)
(-0.368877 16.3862 0)
(5.1403 17.0295 0)
(11.8417 16.8307 0)
(19.1534 16.0724 0)
(27.8609 14.9456 0)
(37.4673 13.1516 0)
(49.4788 11.7104 0)
(61.879 9.99267 0)
(81.5401 9.06006 0)
(102.364 6.73785 0)
(175.009 3.9032 0)
(335.216 8.30755 0)
(965.188 16.5448 0)
(529.01 -98.4372 0)
(-951.865 -101.246 0)
(-171.199 -136.89 0)
(285.584 -215.775 0)
(77.1638 -192.549 0)
(60.3992 -183.017 0)
(-10.6013 -180.413 0)
(-21.5905 -162.782 0)
(-56.0664 -147.174 0)
(-116.757 -141.007 0)
(-188.975 -138.631 0)
(-231.132 -120.282 0)
(-223.654 -84.5136 0)
(-184.406 -47.0903 0)
(-140.194 -18.4527 0)
(-105.623 -0.572686 0)
(-82.0219 8.83758 0)
(-66.9825 13.5247 0)
(-56.5039 16.0874 0)
(-48.1461 17.7597 0)
(-40.4281 19.0018 0)
(-33.0063 19.9956 0)
(-26.4831 20.7238 0)
(-20.5752 21.2211 0)
(-15.1487 21.5841 0)
(-10.1262 21.8447 0)
(-5.37977 22.0385 0)
(0.04939 22.1687 0)
(5.16287 22.3205 0)
(11.1534 21.5882 0)
(17.9885 20.2406 0)
(26.1931 18.4784 0)
(35.6366 16.0927 0)
(47.6899 14.0353 0)
(60.3429 11.7783 0)
(79.8639 10.4132 0)
(99.9661 8.10775 0)
(175.648 6.16447 0)
(340.629 9.30087 0)
(909.999 13.9802 0)
(573.397 -113.17 0)
(-1042.88 -61.0668 0)
(-227.307 -102.867 0)
(260.059 -164.706 0)
(91.4126 -141.078 0)
(67.1985 -132.712 0)
(-3.50259 -133.956 0)
(-11.3276 -126.844 0)
(-52.7943 -125.95 0)
(-116.702 -131.51 0)
(-178.056 -127.955 0)
(-202.787 -104.222 0)
(-187.668 -66.944 0)
(-153.555 -32.4239 0)
(-118.962 -8.01806 0)
(-93.0817 7.7281 0)
(-75.4923 16.0014 0)
(-63.4064 20.6299 0)
(-54.2471 23.5021 0)
(-46.5956 25.4633 0)
(-39.3002 26.862 0)
(-32.2185 27.8815 0)
(-26.0097 28.5364 0)
(-20.328 28.9077 0)
(-15.0488 29.1237 0)
(-10.1187 29.2226 0)
(-5.4582 29.2567 0)
(-0.09719 29.1137 0)
(4.58087 28.9579 0)
(9.83747 27.8704 0)
(16.1568 26.1237 0)
(23.8638 23.881 0)
(33.1858 21.0362 0)
(45.3213 18.4916 0)
(58.3886 15.8304 0)
(78.003 14.1629 0)
(98.2701 11.7779 0)
(176.159 10.4184 0)
(342.748 12.011 0)
(847.171 12.1586 0)
(624.593 -122.076 0)
(-1109.84 -22.8722 0)
(-271.069 -64.4457 0)
(248.763 -115.671 0)
(107.994 -91.8306 0)
(67.2625 -93.0926 0)
(-4.94648 -99.3822 0)
(-13.8764 -102.284 0)
(-60.5626 -111.814 0)
(-118.688 -120.563 0)
(-162.679 -110.472 0)
(-172.34 -82.2123 0)
(-154.467 -47.1671 0)
(-127.623 -16.7417 0)
(-101.502 4.7529 0)
(-82.4768 17.241 0)
(-69.5892 24.8657 0)
(-59.7546 29.5909 0)
(-51.8463 32.7952 0)
(-44.9084 35.068 0)
(-38.0978 36.6153 0)
(-31.3928 37.5907 0)
(-25.4943 38.0469 0)
(-20.0092 38.1468 0)
(-14.8451 38.0851 0)
(-9.99801 37.9274 0)
(-5.48472 37.795 0)
(-0.238591 37.3688 0)
(3.96472 36.863 0)
(8.4223 35.4748 0)
(14.1442 33.4181 0)
(21.2906 30.8073 0)
(30.4432 27.5765 0)
(42.6734 24.6412 0)
(56.1716 21.6429 0)
(75.9588 19.7452 0)
(96.3578 17.311 0)
(175.872 15.8481 0)
(342.305 16.6713 0)
(780.788 14.8936 0)
(679.317 -124.792 0)
(-1127.03 12.9126 0)
(-316.732 -26.5132 0)
(233.67 -61.6555 0)
(113.17 -52.8294 0)
(59.9215 -67.0043 0)
(-12.3601 -76.9307 0)
(-23.3073 -86.4489 0)
(-70.4085 -98.2518 0)
(-115.408 -101.863 0)
(-141.1 -86.11 0)
(-141.784 -57.226 0)
(-124.579 -26.7514 0)
(-103.523 -0.583736 0)
(-86.2153 16.7455 0)
(-73.7003 27.0899 0)
(-63.5915 33.8078 0)
(-55.7652 38.0824 0)
(-48.9691 41.0913 0)
(-42.9144 43.2504 0)
(-36.8692 44.741 0)
(-30.8389 45.7313 0)
(-25.4739 46.2765 0)
(-20.2912 46.5246 0)
(-15.2602 46.6451 0)
(-10.3983 46.6655 0)
(-5.99654 46.7274 0)
(-0.995304 46.3216 0)
(2.75579 45.7325 0)
(6.51787 44.3179 0)
(11.6589 42.2518 0)
(18.2347 39.6313 0)
(27.2439 36.4291 0)
(39.6034 33.6176 0)
(53.6707 30.9858 0)
(73.8286 29.6477 0)
(94.5147 28.1548 0)
(175.542 27.8257 0)
(341.828 28.9098 0)
(710.852 22.2233 0)
(730.495 -120.418 0)
(-1122.94 22.9487 0)
(-342.926 8.65142 0)
(223.404 -11.3636 0)
(102.84 -15.2394 0)
(44.0376 -39.5932 0)
(-23.6839 -53.3303 0)
(-34.4222 -68.5518 0)
(-75.4159 -78.8277 0)
(-106.988 -75.7882 0)
(-119.666 -55.6725 0)
(-115.14 -28.2943 0)
(-99.884 -1.35662 0)
(-85.7079 18.1972 0)
(-74.8351 31.3266 0)
(-66.0349 40.5439 0)
(-58.9964 46.3655 0)
(-52.7361 50.351 0)
(-46.8663 53.259 0)
(-41.3913 55.4284 0)
(-35.7072 56.9143 0)
(-29.9132 57.7323 0)
(-24.7298 57.9557 0)
(-19.6541 57.9247 0)
(-14.7094 57.9266 0)
(-9.91863 57.9363 0)
(-5.81607 58.0782 0)
(-1.19736 57.6672 0)
(2.03388 57.063 0)
(5.06819 55.7393 0)
(9.62797 53.8279 0)
(15.6796 51.4079 0)
(24.6482 48.4773 0)
(37.428 46.2194 0)
(52.3461 44.3977 0)
(73.2308 44.2923 0)
(94.602 44.2147 0)
(176.6 45.0373 0)
(336.907 48.7659 0)
(636.89 40.7954 0)
(773.941 -86.3386 0)
(-1096.57 29.1728 0)
(-349.797 43.4403 0)
(210.648 26.5701 0)
(85.9673 11.7374 0)
(23.2158 -19.402 0)
(-40.2656 -30.48 0)
(-47.8776 -46.7929 0)
(-77.3818 -52.0797 0)
(-93.0951 -43.8212 0)
(-95.3331 -21.1618 0)
(-89.4434 2.56219 0)
(-79.7777 23.2505 0)
(-72.0286 37.4079 0)
(-64.6812 48.1929 0)
(-59.2083 55.3117 0)
(-54.1412 60.1293 0)
(-49.1223 63.2451 0)
(-44.0763 65.0715 0)
(-39.3921 65.9668 0)
(-34.6492 66.4896 0)
(-29.8353 67.3396 0)
(-25.2885 68.4882 0)
(-20.3193 69.5155 0)
(-15.249 70.2115 0)
(-10.2522 70.5412 0)
(-6.25588 70.7942 0)
(-1.97357 70.4303 0)
(0.89797 69.9907 0)
(3.40038 68.9222 0)
(7.48512 67.3965 0)
(13.0787 65.3124 0)
(22.2441 62.823 0)
(35.6721 61.2206 0)
(51.8136 60.3439 0)
(73.6522 61.6496 0)
(95.2326 63.1277 0)
(179.928 65.7875 0)
(337.74 74.2281 0)
(580.661 71.6152 0)
(774.382 -19.9493 0)
(-1052.97 108.749 0)
(-345.434 86.922 0)
(192.854 71.5332 0)
(58.5392 44.9758 0)
(3.35532 8.89506 0)
(-50.0788 5.05013 0)
(-55.2365 -7.02402 0)
(-72.5522 -4.82365 0)
(-77.1943 6.25805 0)
(-74.9692 24.4343 0)
(-72.3425 42.1277 0)
(-66.3054 56.613 0)
(-61.6724 67.9781 0)
(-57.5824 76.4903 0)
(-54.5326 82.8121 0)
(-51.3515 87.8292 0)
(-47.9736 91.7438 0)
(-44.2436 94.588 0)
(-40.0248 96.3294 0)
(-34.3842 97.2154 0)
(-27.9873 97.8558 0)
(-22.6331 98.1904 0)
(-17.9935 97.9616 0)
(-13.7209 97.3018 0)
(-9.35706 96.3934 0)
(-5.92289 95.8113 0)
(-1.97164 94.774 0)
(0.580622 93.9206 0)
(2.56827 92.5585 0)
(6.14938 91.0671 0)
(11.2724 88.8 0)
(20.7052 86.3965 0)
(35.0391 85.1143 0)
(52.7595 84.8255 0)
(75.9133 87.1435 0)
(98.5895 90.1227 0)
(187.296 93.8575 0)
(342.523 106.23 0)
(546.137 111.06 0)
(724.154 104.028 0)
(-908.018 258.58 0)
(-385.66 139.359 0)
(170.227 118.62 0)
(25.6069 86.0697 0)
(-15.258 51.1903 0)
(-55.6058 46.1149 0)
(-57.3923 38.0948 0)
(-64.5827 44.4952 0)
(-64.901 55.6157 0)
(-60.7678 68.5132 0)
(-58.4348 81.2768 0)
(-54.8673 92.9679 0)
(-52.8742 101.874 0)
(-50.3865 110.186 0)
(-48.2818 117.753 0)
(-45.5343 125.004 0)
(-42.6093 131.046 0)
(-39.6574 135.152 0)
(-36.8602 137.442 0)
(-33.1783 138.458 0)
(-28.8958 138.852 0)
(-25.1866 138.603 0)
(-21.1756 137.253 0)
(-16.7602 134.485 0)
(-11.6885 130.537 0)
(-7.81642 127.465 0)
(-3.79548 123.784 0)
(-1.23697 121.434 0)
(0.65059 118.984 0)
(3.8633 117.529 0)
(8.578 115.593 0)
(18.6924 113.994 0)
(34.1582 113.561 0)
(53.7689 113.993 0)
(78.7568 117.745 0)
(101.703 121.961 0)
(195.449 125.637 0)
(354.318 138.837 0)
(578.539 157.166 0)
(567.115 258.631 0)
(-669.503 545.261 0)
(-480.305 225.529 0)
(141.502 216.707 0)
(-6.43854 172.551 0)
(-35.1465 136.272 0)
(-62.6981 124.268 0)
(-56.7973 118.493 0)
(-55.6684 126.843 0)
(-54.0497 140.021 0)
(-50.2411 152.237 0)
(-48.777 163.167 0)
(-46.4568 171.222 0)
(-45.0807 176.272 0)
(-42.2814 180.304 0)
(-40.2529 183.638 0)
(-38.5413 188.278 0)
(-38.1952 194.628 0)
(-38.0804 202.469 0)
(-36.8385 210.166 0)
(-33.0254 215.03 0)
(-27.8476 215.718 0)
(-24.1744 212.243 0)
(-21.9621 205.797 0)
(-20.193 200.675 0)
(-16.1215 197.575 0)
(-12.4295 197.749 0)
(-7.78316 198.686 0)
(-4.04478 199.551 0)
(-1.19457 200.503 0)
(2.8812 201.488 0)
(7.86594 202.229 0)
(18.7468 202.671 0)
(35.0381 203.852 0)
(56.792 207.594 0)
(83.591 215.731 0)
(106.194 227.091 0)
(203.559 235.738 0)
(372.905 248.584 0)
(661.576 246.233 0)
(323.476 521.619 0)
(-165.257 9214.82 0)
(-702.266 1101.32 0)
(119.176 667.513 0)
(-51.9036 552.518 0)
(-61.7853 509.863 0)
(-72.7382 474.716 0)
(-54.9109 463.788 0)
(-43.8377 452.231 0)
(-40.4308 453.271 0)
(-38.463 445.378 0)
(-40.1403 438.795 0)
(-42.2387 426.445 0)
(-44.1224 410.235 0)
(-43.2888 390.46 0)
(-40.5978 366.294 0)
(-34.9443 340.277 0)
(-28.9342 313.402 0)
(-24.684 290.655 0)
(-24.7562 276.152 0)
(-27.8281 269.618 0)
(-31.5815 268.915 0)
(-34.7473 275.381 0)
(-32.323 283.224 0)
(-24.6831 303.727 0)
(-14.5081 321.426 0)
(-6.74499 339.532 0)
(-2.05874 354.518 0)
(0.51304 364.927 0)
(2.51712 374.685 0)
(5.52726 381.173 0)
(9.71863 384.821 0)
(20.2563 385.881 0)
(38.9015 382.925 0)
(65.2157 382.959 0)
(97.5454 386.93 0)
(120.983 403.065 0)
(216.161 426.911 0)
(364.43 413.908 0)
(841.645 946.806 0)
(-172.815 8365.06 0)
(9271.51 151064 0)
(-8716.8 9821.89 0)
(-387.344 1928.1 0)
(-158.356 1605.76 0)
(-110.12 1490.74 0)
(-107.098 1455.42 0)
(-78.4642 1500.87 0)
(-65.803 1519.1 0)
(-60.6536 1563.54 0)
(-64.1907 1580.58 0)
(-67.0216 1584.59 0)
(-73.9782 1575.19 0)
(-79.7577 1552.64 0)
(-84.6239 1518.53 0)
(-88.6107 1474.68 0)
(-89.5105 1425.64 0)
(-86.0126 1371.45 0)
(-73.9758 1317.95 0)
(-57.1104 1272.69 0)
(-39.9991 1235.1 0)
(-22.2945 1207.09 0)
(-10.3863 1185.93 0)
(5.35292 1157.7 0)
(16.6205 1143.48 0)
(18.3824 1112.08 0)
(19.459 1081.6 0)
(16.6883 1040.06 0)
(15.3887 992.252 0)
(14.4598 937.312 0)
(12.6483 875.699 0)
(12.4028 807.922 0)
(16.92 730.874 0)
(32.2223 653.66 0)
(60.651 575.093 0)
(102.967 522.889 0)
(144.722 552.481 0)
(214.007 625.494 0)
(873.895 734.508 0)
(8323.6 8131.97 0)
(-8649.78 133914 0)
(154870 -160612 0)
(-144415 -9724.28 0)
(-7798.19 -1701.08 0)
(-473.362 -1229.87 0)
(-206.656 -1045.53 0)
(-62.9772 -901.137 0)
(6.45595 -869.034 0)
(16.5519 -826.411 0)
(18.8074 -817.925 0)
(-18.1751 -782.986 0)
(-45.3297 -732.451 0)
(-73.0307 -666.395 0)
(-98.7279 -579.894 0)
(-118.41 -481.174 0)
(-130.104 -369.199 0)
(-134.426 -254.205 0)
(-132.709 -136.812 0)
(-119.846 -27.2299 0)
(-104.594 64.3238 0)
(-91.0454 140.576 0)
(-78.9637 200.313 0)
(-82.3426 245.656 0)
(-73.2282 296.541 0)
(-68.6393 316.092 0)
(-74.1369 350.523 0)
(-76.1513 373.951 0)
(-88.1598 409.355 0)
(-98.4958 448.119 0)
(-109.798 495.598 0)
(-119.159 547.055 0)
(-129.84 606.128 0)
(-128.396 668.924 0)
(-111.214 721.81 0)
(-60.7999 750.896 0)
(75.7549 721.965 0)
(219.856 565.431 0)
(391.569 343.629 0)
(7597.94 -62.9974 0)
(129178 -8447.9 0)
(-137054 -142754 0)
(154870 160612 0)
(-144415 9724.28 0)
(-7798.19 1701.08 0)
(-473.362 1229.87 0)
(-206.656 1045.53 0)
(-62.9772 901.137 0)
(6.45595 869.034 0)
(16.5519 826.411 0)
(18.8074 817.925 0)
(-18.1751 782.986 0)
(-45.3297 732.451 0)
(-73.0307 666.395 0)
(-98.7279 579.894 0)
(-118.41 481.174 0)
(-130.104 369.199 0)
(-134.426 254.205 0)
(-132.709 136.812 0)
(-119.846 27.2299 0)
(-104.594 -64.3238 0)
(-91.0454 -140.576 0)
(-78.9637 -200.313 0)
(-82.3426 -245.656 0)
(-73.2282 -296.541 0)
(-68.6393 -316.092 0)
(-74.1369 -350.523 0)
(-76.1513 -373.951 0)
(-88.1598 -409.355 0)
(-98.4958 -448.119 0)
(-109.798 -495.598 0)
(-119.159 -547.055 0)
(-129.84 -606.128 0)
(-128.396 -668.924 0)
(-111.214 -721.81 0)
(-60.7999 -750.896 0)
(75.7549 -721.965 0)
(219.856 -565.431 0)
(391.569 -343.629 0)
(7597.94 62.9974 0)
(129178 8447.9 0)
(-137054 142754 0)
(9271.51 -151064 0)
(-8716.8 -9821.89 0)
(-387.344 -1928.1 0)
(-158.356 -1605.76 0)
(-110.12 -1490.74 0)
(-107.098 -1455.42 0)
(-78.4642 -1500.87 0)
(-65.803 -1519.1 0)
(-60.6536 -1563.54 0)
(-64.1907 -1580.58 0)
(-67.0216 -1584.59 0)
(-73.9782 -1575.19 0)
(-79.7577 -1552.64 0)
(-84.6239 -1518.53 0)
(-88.6107 -1474.68 0)
(-89.5105 -1425.64 0)
(-86.0126 -1371.45 0)
(-73.9758 -1317.95 0)
(-57.1104 -1272.69 0)
(-39.9991 -1235.1 0)
(-22.2945 -1207.09 0)
(-10.3863 -1185.93 0)
(5.35292 -1157.7 0)
(16.6205 -1143.48 0)
(18.3824 -1112.08 0)
(19.459 -1081.6 0)
(16.6883 -1040.06 0)
(15.3887 -992.252 0)
(14.4598 -937.312 0)
(12.6483 -875.699 0)
(12.4028 -807.922 0)
(16.92 -730.874 0)
(32.2223 -653.66 0)
(60.651 -575.093 0)
(102.967 -522.889 0)
(144.722 -552.481 0)
(214.007 -625.494 0)
(873.895 -734.508 0)
(8323.6 -8131.97 0)
(-8649.78 -133914 0)
(-165.257 -9214.82 0)
(-702.266 -1101.32 0)
(119.176 -667.513 0)
(-51.9036 -552.518 0)
(-61.7853 -509.863 0)
(-72.7382 -474.716 0)
(-54.9109 -463.788 0)
(-43.8377 -452.231 0)
(-40.4308 -453.271 0)
(-38.463 -445.378 0)
(-40.1403 -438.795 0)
(-42.2387 -426.445 0)
(-44.1224 -410.235 0)
(-43.2888 -390.46 0)
(-40.5978 -366.294 0)
(-34.9443 -340.277 0)
(-28.9342 -313.402 0)
(-24.684 -290.655 0)
(-24.7562 -276.152 0)
(-27.8281 -269.618 0)
(-31.5815 -268.915 0)
(-34.7473 -275.381 0)
(-32.323 -283.224 0)
(-24.6831 -303.727 0)
(-14.5081 -321.426 0)
(-6.74499 -339.532 0)
(-2.05874 -354.518 0)
(0.51304 -364.927 0)
(2.51712 -374.685 0)
(5.52726 -381.173 0)
(9.71863 -384.821 0)
(20.2563 -385.881 0)
(38.9015 -382.925 0)
(65.2157 -382.959 0)
(97.5454 -386.93 0)
(120.983 -403.065 0)
(216.161 -426.911 0)
(364.43 -413.908 0)
(841.645 -946.806 0)
(-172.815 -8365.06 0)
(-669.503 -545.261 0)
(-480.305 -225.529 0)
(141.502 -216.707 0)
(-6.43854 -172.551 0)
(-35.1465 -136.272 0)
(-62.6981 -124.268 0)
(-56.7973 -118.493 0)
(-55.6684 -126.843 0)
(-54.0497 -140.021 0)
(-50.2411 -152.237 0)
(-48.777 -163.167 0)
(-46.4568 -171.222 0)
(-45.0807 -176.272 0)
(-42.2814 -180.304 0)
(-40.2529 -183.638 0)
(-38.5413 -188.278 0)
(-38.1952 -194.628 0)
(-38.0804 -202.469 0)
(-36.8385 -210.166 0)
(-33.0254 -215.03 0)
(-27.8476 -215.718 0)
(-24.1744 -212.243 0)
(-21.9621 -205.797 0)
(-20.193 -200.675 0)
(-16.1215 -197.575 0)
(-12.4295 -197.749 0)
(-7.78316 -198.686 0)
(-4.04478 -199.551 0)
(-1.19457 -200.503 0)
(2.8812 -201.488 0)
(7.86594 -202.229 0)
(18.7468 -202.671 0)
(35.0381 -203.852 0)
(56.792 -207.594 0)
(83.591 -215.731 0)
(106.194 -227.091 0)
(203.559 -235.738 0)
(372.905 -248.584 0)
(661.576 -246.233 0)
(323.476 -521.619 0)
(-908.018 -258.58 0)
(-385.66 -139.359 0)
(170.227 -118.62 0)
(25.6069 -86.0697 0)
(-15.258 -51.1903 0)
(-55.6058 -46.1149 0)
(-57.3923 -38.0948 0)
(-64.5827 -44.4952 0)
(-64.901 -55.6157 0)
(-60.7678 -68.5132 0)
(-58.4348 -81.2768 0)
(-54.8673 -92.9679 0)
(-52.8742 -101.874 0)
(-50.3865 -110.186 0)
(-48.2818 -117.753 0)
(-45.5343 -125.004 0)
(-42.6093 -131.046 0)
(-39.6574 -135.152 0)
(-36.8602 -137.442 0)
(-33.1783 -138.458 0)
(-28.8958 -138.852 0)
(-25.1866 -138.603 0)
(-21.1756 -137.253 0)
(-16.7602 -134.485 0)
(-11.6885 -130.537 0)
(-7.81642 -127.465 0)
(-3.79548 -123.784 0)
(-1.23697 -121.434 0)
(0.65059 -118.984 0)
(3.8633 -117.529 0)
(8.578 -115.593 0)
(18.6924 -113.994 0)
(34.1582 -113.561 0)
(53.7689 -113.993 0)
(78.7568 -117.745 0)
(101.703 -121.961 0)
(195.449 -125.637 0)
(354.318 -138.837 0)
(578.539 -157.166 0)
(567.115 -258.631 0)
(-1052.97 -108.749 0)
(-345.434 -86.922 0)
(192.854 -71.5332 0)
(58.5392 -44.9758 0)
(3.35532 -8.89506 0)
(-50.0788 -5.05013 0)
(-55.2365 7.02402 0)
(-72.5522 4.82365 0)
(-77.1943 -6.25805 0)
(-74.9692 -24.4343 0)
(-72.3425 -42.1277 0)
(-66.3054 -56.613 0)
(-61.6724 -67.9781 0)
(-57.5824 -76.4903 0)
(-54.5326 -82.8121 0)
(-51.3515 -87.8292 0)
(-47.9736 -91.7438 0)
(-44.2436 -94.588 0)
(-40.0248 -96.3294 0)
(-34.3842 -97.2154 0)
(-27.9873 -97.8558 0)
(-22.6331 -98.1904 0)
(-17.9935 -97.9616 0)
(-13.7209 -97.3018 0)
(-9.35706 -96.3934 0)
(-5.92289 -95.8113 0)
(-1.97164 -94.774 0)
(0.580622 -93.9206 0)
(2.56827 -92.5585 0)
(6.14938 -91.0671 0)
(11.2724 -88.8 0)
(20.7052 -86.3965 0)
(35.0391 -85.1143 0)
(52.7595 -84.8255 0)
(75.9133 -87.1435 0)
(98.5895 -90.1227 0)
(187.296 -93.8575 0)
(342.523 -106.23 0)
(546.137 -111.06 0)
(724.154 -104.028 0)
(-1096.57 -29.1728 0)
(-349.797 -43.4403 0)
(210.648 -26.5701 0)
(85.9673 -11.7374 0)
(23.2158 19.402 0)
(-40.2656 30.48 0)
(-47.8776 46.7929 0)
(-77.3818 52.0797 0)
(-93.0951 43.8212 0)
(-95.3331 21.1618 0)
(-89.4434 -2.56219 0)
(-79.7777 -23.2505 0)
(-72.0286 -37.4079 0)
(-64.6812 -48.1929 0)
(-59.2083 -55.3117 0)
(-54.1412 -60.1293 0)
(-49.1223 -63.2451 0)
(-44.0763 -65.0715 0)
(-39.3921 -65.9668 0)
(-34.6492 -66.4896 0)
(-29.8353 -67.3396 0)
(-25.2885 -68.4882 0)