/*--------------------------------*- C++ -*----------------------------------*\
| =========                 |                                                 |
| \\      /  F ield         | OpenFOAM: The Open Source CFD Toolbox           |
|  \\    /   O peration     | Version:  v1912                                 |
|   \\  /    A nd           | Website:  www.openfoam.com                      |
|    \\/     M anipulation  |                                                 |
\*---------------------------------------------------------------------------*/
FoamFile
{
    version     2.0;
    format      ascii;
    class       volTensorField;
    location    "8.48";
    object      grad(U);
}
// * * * * * * * * * * * * * * * * * * * * * * * * * * * * * * * * * * * * * //

dimensions      [0 0 -1 0 0 0 0];


internalField   nonuniform List<tensor> 
1900
(
(-0.152033 -5.25813e-06 0 1.48594e-05 9.403e-06 0 0 0 0)
(1.3329 -2.04904e-05 0 -9.94712e-06 -3.08942e-05 0 0 0 0)
(-0.0519359 -7.3904e-05 0 -2.34548e-05 -4.7271e-05 0 0 0 0)
(-0.029711 -0.000104176 0 -4.00705e-05 -0.000158175 0 0 0 0)
(-0.00788688 -0.000122292 0 -0.000140017 -0.000234156 0 0 0 0)
(-0.00369094 -0.000390474 0 -0.000465659 -0.00039406 0 0 0 0)
(-0.0174354 0.00154625 0 -0.00122834 -0.000768334 0 0 0 0)
(-0.0185834 0.0194715 0 -1.1128e-05 0.00281912 0 0 0 0)
(-0.0631618 0.0621885 0 0.0088384 0.0323893 0 0 0 0)
(-0.0310247 0.215474 0 0.0656909 0.123266 0 0 0 0)
(-0.152028 -1.62331e-05 0 1.53483e-05 -2.68083e-06 0 0 0 0)
(1.33286 -3.61836e-05 0 -1.91667e-05 7.93896e-06 0 0 0 0)
(-0.0519661 -5.33773e-05 0 -3.33102e-05 1.78095e-05 0 0 0 0)
(-0.0298275 -8.27089e-05 0 -8.16361e-05 8.18429e-05 0 0 0 0)
(-0.00831247 -0.000113592 0 -0.000252281 0.000121986 0 0 0 0)
(-0.00477926 -0.000143704 0 -0.000732368 0.000204135 0 0 0 0)
(-0.0169809 0.00166694 0 -0.00169578 0.000512459 0 0 0 0)
(-0.00851669 0.0136862 0 0.00142557 -0.00134211 0 0 0 0)
(0.00254021 0.0582585 0 0.0155524 -0.0189591 0 0 0 0)
(0.0931974 0.149382 0 0.10413 -0.0635306 0 0 0 0)
(-0.152036 -2.14233e-13 0 -8.13152e-15 -1.34443e-05 0 0 0 0)
(1.33285 1.13725e-13 0 2.87314e-14 4.59105e-05 0 0 0 0)
(-0.0519984 1.55474e-13 0 -7.35902e-14 5.89229e-05 0 0 0 0)
(-0.0299299 -4.07182e-14 0 -1.29969e-13 0.000152665 0 0 0 0)
(-0.00853762 -3.11807e-14 0 -1.96647e-13 0.000224341 0 0 0 0)
(-0.00513443 6.98521e-14 0 8.91756e-14 0.00037985 0 0 0 0)
(-0.0152774 1.45356e-14 0 -2.15485e-14 0.000511748 0 0 0 0)
(-0.00133529 -4.54913e-14 0 -5.84114e-14 -0.00295402 0 0 0 0)
(0.0395423 -3.63551e-14 0 7.60297e-14 -0.0268606 0 0 0 0)
(0.144368 -1.79826e-14 0 9.56808e-14 -0.119471 0 0 0 0)
(-0.152028 1.62331e-05 0 -1.53483e-05 -2.68083e-06 0 0 0 0)
(1.33286 3.61836e-05 0 1.91667e-05 7.93896e-06 0 0 0 0)
(-0.0519661 5.33773e-05 0 3.33102e-05 1.78095e-05 0 0 0 0)
(-0.0298275 8.27089e-05 0 8.16361e-05 8.18429e-05 0 0 0 0)
(-0.00831247 0.000113592 0 0.000252281 0.000121986 0 0 0 0)
(-0.00477926 0.000143704 0 0.000732368 0.000204135 0 0 0 0)
(-0.0169809 -0.00166694 0 0.00169578 0.000512459 0 0 0 0)
(-0.00851669 -0.0136862 0 -0.00142557 -0.00134211 0 0 0 0)
(0.00254021 -0.0582585 0 -0.0155524 -0.0189591 0 0 0 0)
(0.0931974 -0.149382 0 -0.10413 -0.0635306 0 0 0 0)
(-0.152033 5.25813e-06 0 -1.48594e-05 9.403e-06 0 0 0 0)
(1.3329 2.04904e-05 0 9.94712e-06 -3.08942e-05 0 0 0 0)
(-0.0519359 7.3904e-05 0 2.34548e-05 -4.7271e-05 0 0 0 0)
(-0.029711 0.000104176 0 4.00705e-05 -0.000158175 0 0 0 0)
(-0.00788688 0.000122292 0 0.000140017 -0.000234156 0 0 0 0)
(-0.00369094 0.000390474 0 0.000465659 -0.00039406 0 0 0 0)
(-0.0174354 -0.00154625 0 0.00122834 -0.000768334 0 0 0 0)
(-0.0185834 -0.0194715 0 1.1128e-05 0.00281912 0 0 0 0)
(-0.0631618 -0.0621885 0 -0.0088384 0.0323893 0 0 0 0)
(-0.0310247 -0.215474 0 -0.0656909 0.123266 0 0 0 0)
(0.179042 0.444384 -2.2656e-17 0.254727 -0.250531 3.3984e-17 6.10339e-17 7.86678e-17 -6.14092e-33)
(0.518866 0.595983 0 0.295839 -0.481908 0 -1.66748e-16 -4.98056e-17 0)
(0.803476 0.990017 0 0.282322 -0.813293 0 -2.68936e-16 -8.88045e-17 0)
(1.48877 1.60073 0 0.333708 -1.47248 0 0 0 0)
(2.79145 1.86543 2.72315e-16 1.13932 -3.55786 -4.08473e-16 -2.31438e-15 -1.54292e-15 -7.38112e-32)
(0.237761 0.164513 0 0.187856 -0.21605 0 1.07063e-16 3.33969e-17 0)
(0.416198 0.17835 0 0.14438 -0.356736 0 1.66748e-16 4.98056e-17 0)
(0.749856 0.430505 0 0.0452358 -0.654955 0 2.68936e-16 8.88045e-17 0)
(1.69027 0.871709 0 -0.0756561 -1.36241 0 0 0 0)
(3.70962 0.58225 0 -0.191156 -3.13903 0 0 0 0)
(0.29129 -1.37708e-13 0 8.56854e-14 -0.307176 0 0 0 0)
(0.437015 5.72722e-14 0 9.89691e-14 -0.389029 0 0 0 0)
(0.737952 5.5316e-14 0 3.33166e-13 -0.655876 0 0 0 0)
(1.5889 -1.30007e-13 0 1.66326e-13 -1.39418 0 0 0 0)
(3.45633 9.66076e-14 0 4.30777e-13 -3.68334 0 0 0 0)
(0.237761 -0.164513 0 -0.187856 -0.21605 0 1.07063e-16 -3.33969e-17 0)
(0.416198 -0.17835 0 -0.14438 -0.356736 0 1.66748e-16 -4.98056e-17 0)
(0.749856 -0.430505 0 -0.0452358 -0.654955 0 2.68936e-16 -8.88045e-17 0)
(1.69027 -0.871709 0 0.0756561 -1.36241 0 0 0 0)
(3.70962 -0.58225 0 0.191156 -3.13903 0 0 0 0)
(0.179042 -0.444384 2.2656e-17 -0.254727 -0.250531 3.3984e-17 -2.7516e-16 1.45462e-16 -6.14092e-33)
(0.518866 -0.595983 0 -0.295839 -0.481908 0 -1.66748e-16 4.98056e-17 0)
(0.803476 -0.990017 0 -0.282322 -0.813293 0 -2.68936e-16 8.88045e-17 0)
(1.48877 -1.60073 9.72359e-17 -0.333708 -1.47248 1.45854e-16 -9.57346e-16 6.38231e-16 -2.63558e-32)
(2.79145 -1.86543 -2.72315e-16 -1.13932 -3.55786 -4.08473e-16 2.31438e-15 -1.54292e-15 -7.38112e-32)
(4.23481 -0.789545 -1.89744e-17 -0.0094992 4.55943 -1.7077e-16 2.29472e-15 -1.17686e-16 5.14302e-33)
(2.3338 -0.31813 9.10298e-18 0.548959 2.79085 8.19268e-17 -2.57787e-15 2.00542e-16 2.46737e-33)
(1.36899 -0.00281173 0 0.744424 2.28425 0 0 0 0)
(1.03512 0.0842885 -5.27688e-18 0.667896 2.10255 -4.74919e-17 2.40549e-15 -2.01719e-16 1.4303e-33)
(0.660539 0.548102 4.71838e-18 0.548183 1.74215 4.24654e-17 -1.14063e-15 1.26736e-16 1.27892e-33)
(4.3595 -0.960776 0 -0.729901 -0.718359 0 -1.14722e-15 -9.81474e-18 0)
(2.63035 -0.205728 0 0.327513 1.00226 0 1.2972e-15 -5.82452e-17 0)
(1.4545 -0.0143338 0 0.460908 1.3929 0 0 0 0)
(0.998885 -0.0675393 0 0.367602 1.41165 0 -1.51877e-15 7.58699e-17 0)
(0.499616 0.255347 0 0.245882 1.39907 0 2.91135e-16 -8.03325e-18 0)
(4.36636 4.91429e-14 0 3.01167e-13 0.784938 0 0 0 0)
(2.60849 -2.87095e-14 0 2.13134e-13 1.86344 0 0 0 0)
(1.34775 -1.23604e-14 0 -1.52591e-13 1.99601 0 0 0 0)
(0.926632 2.9525e-14 0 4.25177e-14 1.77207 0 6.11936e-16 1.98835e-30 0)
(0.490541 -5.9318e-14 0 -1.90211e-14 2.1339 0 -5.82271e-16 -2.92842e-31 0)
(4.3595 0.960776 0 0.729901 -0.718359 0 -1.14722e-15 9.81474e-18 0)
(2.63035 0.205728 0 -0.327513 1.00226 0 1.2972e-15 5.82452e-17 0)
(1.4545 0.0143338 0 -0.460908 1.3929 0 0 0 0)
(0.998885 0.0675393 0 -0.367602 1.41165 0 -1.51877e-15 -7.58699e-17 0)
(0.499616 -0.255347 0 -0.245882 1.39907 0 2.91135e-16 8.03325e-18 0)
(4.23481 0.789545 0 0.0094992 4.55943 0 1.14722e-15 -9.81474e-18 0)
(2.3338 0.31813 -9.10298e-18 -0.548959 2.79085 8.19268e-17 -1.65328e-17 8.40512e-17 2.46737e-33)
(1.36899 0.00281173 0 -0.744424 2.28425 0 0 0 0)
(1.03512 -0.0842885 5.27688e-18 -0.667896 2.10255 -4.74919e-17 2.01148e-17 -6.33218e-17 1.4303e-33)
(0.660539 -0.548102 -4.71838e-18 -0.548183 1.74215 4.24654e-17 1.14063e-15 1.26736e-16 1.27892e-33)
(0.192258 0.641525 0 -0.543863 -0.497022 0 0 0 0)
(0.161177 0.103985 0 -0.989016 -0.222361 0 0 0 0)
(0.121514 -0.213271 0 -1.1026 0.0739449 0 0 0 0)
(0.0784276 -0.123335 0 -0.937876 0.0666513 0 0 0 0)
(0.087664 -0.0411308 0 -0.840771 0.116728 0 0 0 0)
(0.106302 -0.0112147 0 -0.68532 0.0511044 0 0 0 0)
(0.12624 0.0233136 0 -0.518675 0.137513 0 0 0 0)
(0.158096 0.0460548 0 -0.393452 0.17835 0 0 0 0)
(0.252807 -0.0122746 0 -0.250198 0.200571 0 0 0 0)
(0.155349 0.00996082 0 -0.110233 0.301387 0 0 0 0)
(-0.126719 0.0478401 0 -0.0877674 0.157462 0 0 0 0)
(-0.735038 0.0278026 0 -0.110666 0.0530634 0 0 0 0)
(-1.32586 -0.0128364 0 -0.308611 0.0200253 0 0 0 0)
(-0.80872 -0.0212421 0 0.00317805 0.0716918 0 0 0 0)
(-0.118631 0.00778009 0 0.0268548 0.0670767 0 0 0 0)
(-0.0628744 -0.0381186 0 0.169451 0.121872 0 0 0 0)
(-0.164464 -0.108949 0 0.29218 0.272414 0 0 0 0)
(-0.365017 -0.138628 0 0.302792 0.454126 0 0 0 0)
(-0.529176 -0.0839811 0 0.17617 0.613073 0 0 0 0)
(-0.566232 -0.00441307 0 -0.000141792 0.66729 0 0 0 0)
(-0.545184 0.0485739 0 -0.0879705 0.63177 0 0 0 0)
(-0.51493 0.06498 0 -0.0130838 0.556212 0 0 0 0)
(-0.52276 0.0542991 0 0.0773493 0.460796 0 0 0 0)
(-0.706506 0.0526497 0 0.100318 0.353047 0 0 0 0)
(-1.19242 0.0560418 0 0.0988121 0.27662 0 0 0 0)
(-1.45229 0.0432458 0 0.0848088 0.20297 0 0 0 0)
(-0.850249 0.0189265 0 0.0268706 0.132564 0 0 0 0)
(-0.31387 0.00364728 0 0.00323008 0.117059 0 0 0 0)
(-0.868268 -0.000531802 0 0.000930393 0.116562 0 0 0 0)
(-1.26395 -0.00138625 0 0.00107388 0.119518 0 0 0 0)
(-0.746524 -0.00022401 0 0.00386683 0.121791 0 0 0 0)
(-0.281634 0.000585764 0 0.00598767 0.12069 0 0 0 0)
(-0.15487 -0.000136236 0 0.0085969 0.120516 0 0 0 0)
(-0.128353 -0.00146523 0 0.0112871 0.121475 0 0 0 0)
(-0.104213 -0.00402827 0 0.0118448 0.124502 0 0 0 0)
(-0.0833363 -0.00803407 0 0.00660886 0.130566 0 0 0 0)
(-0.0770816 -0.00685915 0 -0.0100812 0.143912 0 0 0 0)
(-0.0685867 0.000468483 0 -0.0332064 0.148626 0 0 0 0)
(-0.0578445 0.010685 0 -0.0468716 0.144693 0 0 0 0)
(-0.0278006 0.00854324 0 -0.0493993 0.117729 0 0 0 0)
(-0.0670206 0.487054 0 -0.00177096 0.169359 0 0 0 0)
(-0.0400388 0.178704 0 -0.449404 -0.62418 0 0 0 0)
(0.106297 -0.090464 0 -0.921045 -0.188088 0 0 0 0)
(0.137466 -0.162191 0 -0.644374 0.108938 0 0 0 0)
(0.127899 -0.122776 0 -0.626999 0.235878 0 0 0 0)
(0.155226 -0.078895 0 -0.492995 0.250326 0 0 0 0)
(0.164134 -0.00851909 0 -0.364351 0.274428 0 0 0 0)
(0.191718 0.0249838 0 -0.305646 0.170185 0 0 0 0)
(0.286038 -0.00716449 0 -0.212259 0.116115 0 0 0 0)
(0.177035 0.0193303 0 -0.165431 0.212379 0 0 0 0)
(-0.120758 0.0415682 0 -0.125949 0.0818748 0 0 0 0)
(-0.779723 0.0364728 0 -0.140164 0.0479287 0 0 0 0)
(-1.30118 0.0225286 0 -0.340524 -0.0136968 0 0 0 0)
(-0.738028 7.01292e-05 0 -0.0194466 0.092054 0 0 0 0)
(-0.0890901 0.0139825 0 0.0100407 0.0593228 0 0 0 0)
(0.0040409 -0.00579551 0 0.127234 0.0653099 0 0 0 0)
(-0.114839 -0.0541194 0 0.277679 0.190355 0 0 0 0)
(-0.384524 -0.0727975 0 0.27064 0.439822 0 0 0 0)
(-0.591088 -0.0365575 0 0.149798 0.666889 0 0 0 0)
(-0.613921 0.00635894 0 0.0520238 0.728507 0 0 0 0)
(-0.532999 0.0300341 0 0.102245 0.682059 0 0 0 0)
(-0.473869 0.0275402 0 0.198155 0.561534 0 0 0 0)
(-0.513824 0.0115096 0 0.25798 0.458691 0 0 0 0)
(-0.724511 0.0198408 0 0.221819 0.374881 0 0 0 0)
(-1.21312 0.0382446 0 0.0951493 0.277707 0 0 0 0)
(-1.47226 0.0280035 0 0.0188599 0.182237 0 0 0 0)
(-0.863849 0.0079542 0 0.00370542 0.12905 0 0 0 0)
(-0.317076 0.00113028 0 0.00133457 0.117178 0 0 0 0)
(-0.868124 -0.000274571 0 0.000895538 0.116512 0 0 0 0)
(-1.26304 -0.000651331 0 0.00107498 0.119006 0 0 0 0)
(-0.745179 -5.76693e-05 0 0.00364799 0.121278 0 0 0 0)
(-0.280042 0.000294302 0 0.00761269 0.119776 0 0 0 0)
(-0.153133 -0.000137551 0 0.0126084 0.119264 0 0 0 0)
(-0.127191 -0.000833992 0 0.017659 0.120244 0 0 0 0)
(-0.104934 -0.00215749 0 0.0206343 0.124301 0 0 0 0)
(-0.087689 -0.00413615 0 0.0190711 0.134091 0 0 0 0)
(-0.0845196 -0.00346299 0 0.00934244 0.151918 0 0 0 0)
(-0.0747102 0.000291092 0 -0.00454446 0.15767 0 0 0 0)
(-0.0599396 0.00545282 0 -0.0128754 0.150307 0 0 0 0)
(-0.027878 0.00432138 0 -0.0159469 0.12094 0 0 0 0)
(-0.0213044 -1.49616e-14 0 -1.49817e-13 0.272945 0 0 0 0)
(-0.106248 -1.15904e-13 0 -8.91017e-13 -0.940202 0 0 0 0)
(0.064795 -2.32619e-13 0 -1.13546e-12 -0.955645 0 0 0 0)
(0.163968 -7.69906e-14 0 -6.30809e-13 -0.318262 0 0 0 0)
(0.131701 7.26856e-14 0 -5.44072e-13 0.159416 0 0 0 0)
(0.182709 1.1457e-13 0 -4.57336e-13 0.525823 0 0 0 0)
(0.180742 -2.52584e-14 0 -4.88877e-13 0.701819 0 0 0 0)
(0.202341 -4.97341e-14 0 -3.46945e-13 0.584392 0 0 0 0)
(0.293596 9.18587e-14 0 -7.88511e-14 0.530055 0 0 0 0)
(0.180457 1.54461e-13 0 7.0966e-14 0.633648 0 0 0 0)
(-0.119368 2.48647e-13 0 2.91749e-13 0.397159 0 0 0 0)
(-0.79746 3.85626e-13 0 4.25796e-13 0.347867 0 0 0 0)
(-1.29074 -1.69639e-13 0 1.01718e-12 0.146409 0 0 0 0)
(-0.706738 -5.64275e-13 0 8.27936e-13 0.192983 0 0 0 0)
(-0.0759603 -6.1837e-13 0 -2.64151e-13 0.145926 0 0 0 0)
(0.0149842 -1.60806e-12 0 -1.49423e-12 0.0968532 0 0 0 0)
(-0.122746 -2.31213e-12 0 -4.01746e-12 0.185771 0 0 0 0)
(-0.402219 -5.70212e-13 0 -2.37736e-12 0.468924 0 0 0 0)
(-0.592773 4.31782e-12 0 2.19994e-12 0.686253 0 0 0 0)
(-0.580065 7.04501e-12 0 9.18615e-13 0.720257 0 0 0 0)
(-0.502673 1.61021e-12 0 1.03295e-12 0.642535 0 0 0 0)
(-0.469626 -5.08076e-12 0 2.35765e-12 0.513773 0 0 0 0)
(-0.515876 -2.95199e-12 0 6.03211e-13 0.453197 0 0 0 0)
(-0.753875 2.43083e-12 0 -4.88877e-13 0.434644 0 0 0 0)
(-1.25147 2.47429e-12 0 -1.32076e-13 0.316792 0 0 0 0)
(-1.47889 -2.18195e-12 0 7.32329e-12 0.171713 0 0 0 0)
(-0.855348 -4.31612e-12 0 1.45963e-11 0.124267 0 0 0 0)
(-0.314688 -3.85623e-12 0 2.89876e-12 0.117028 0 0 0 0)
(-0.868343 -3.14564e-12 0 -2.12573e-11 0.116497 0 0 0 0)
(-1.26315 1.51444e-12 0 -6.43605e-11 0.118915 0 0 0 0)
(-0.744622 5.22754e-12 0 -6.38102e-11 0.120974 0 0 0 0)
(-0.279028 5.01761e-12 0 -3.57097e-11 0.119312 0 0 0 0)
(-0.151948 1.86302e-12 0 -1.21569e-11 0.118951 0 0 0 0)
(-0.126018 -1.13122e-12 0 -8.77218e-13 0.120257 0 0 0 0)
(-0.103802 -4.69971e-13 0 2.75289e-12 0.124685 0 0 0 0)
(-0.0866212 -9.94269e-13 0 5.88426e-12 0.13509 0 0 0 0)
(-0.0839516 -3.03137e-12 0 8.1601e-12 0.153121 0 0 0 0)
(-0.0750501 -1.07372e-12 0 5.46241e-12 0.158898 0 0 0 0)
(-0.0611616 1.45353e-12 0 1.53365e-12 0.15112 0 0 0 0)
(-0.0286941 7.54245e-13 0 3.94255e-15 0.12141 0 0 0 0)
(-0.0670206 -0.487054 0 0.00177096 0.169359 0 0 0 0)
(-0.0400388 -0.178704 0 0.449404 -0.62418 0 0 0 0)
(0.106297 0.090464 0 0.921045 -0.188088 0 0 0 0)
(0.137466 0.162191 0 0.644374 0.108938 0 0 0 0)
(0.127899 0.122776 0 0.626999 0.235878 0 0 0 0)
(0.155226 0.078895 0 0.492995 0.250326 0 0 0 0)
(0.164134 0.00851909 0 0.364351 0.274428 0 0 0 0)
(0.191718 -0.0249838 0 0.305646 0.170185 0 0 0 0)
(0.286038 0.00716449 0 0.212259 0.116115 0 0 0 0)
(0.177035 -0.0193303 0 0.165431 0.212379 0 0 0 0)
(-0.120758 -0.0415682 0 0.125949 0.0818748 0 0 0 0)
(-0.779723 -0.0364728 0 0.140164 0.0479287 0 0 0 0)
(-1.30118 -0.0225286 0 0.340524 -0.0136968 0 0 0 0)
(-0.738028 -7.01292e-05 0 0.0194466 0.092054 0 0 0 0)
(-0.0890901 -0.0139825 0 -0.0100407 0.0593228 0 0 0 0)
(0.0040409 0.00579551 0 -0.127234 0.0653099 0 0 0 0)
(-0.114839 0.0541194 0 -0.277679 0.190355 0 0 0 0)
(-0.384524 0.0727975 0 -0.27064 0.439822 0 0 0 0)
(-0.591088 0.0365575 0 -0.149798 0.666889 0 0 0 0)
(-0.613921 -0.00635894 0 -0.0520238 0.728507 0 0 0 0)
(-0.532999 -0.0300341 0 -0.102245 0.682059 0 0 0 0)
(-0.473869 -0.0275402 0 -0.198155 0.561534 0 0 0 0)
(-0.513824 -0.0115096 0 -0.25798 0.458691 0 0 0 0)
(-0.724511 -0.0198408 0 -0.221819 0.374881 0 0 0 0)
(-1.21312 -0.0382446 0 -0.0951493 0.277707 0 0 0 0)
(-1.47226 -0.0280035 0 -0.0188599 0.182237 0 0 0 0)
(-0.863849 -0.0079542 0 -0.00370542 0.12905 0 0 0 0)
(-0.317076 -0.00113028 0 -0.00133457 0.117178 0 0 0 0)
(-0.868124 0.000274571 0 -0.000895538 0.116512 0 0 0 0)
(-1.26304 0.000651331 0 -0.00107498 0.119006 0 0 0 0)
(-0.745179 5.76693e-05 0 -0.00364799 0.121278 0 0 0 0)
(-0.280042 -0.000294302 0 -0.00761269 0.119776 0 0 0 0)
(-0.153133 0.000137551 0 -0.0126084 0.119264 0 0 0 0)
(-0.127191 0.000833992 0 -0.017659 0.120244 0 0 0 0)
(-0.104934 0.00215749 0 -0.0206343 0.124301 0 0 0 0)
(-0.087689 0.00413615 0 -0.0190711 0.134091 0 0 0 0)
(-0.0845196 0.00346299 0 -0.00934244 0.151918 0 0 0 0)
(-0.0747102 -0.000291092 0 0.00454446 0.15767 0 0 0 0)
(-0.0599396 -0.00545282 0 0.0128754 0.150307 0 0 0 0)
(-0.027878 -0.00432138 0 0.0159469 0.12094 0 0 0 0)
(0.192258 -0.641525 0 0.543863 -0.497022 0 0 0 0)
(0.161177 -0.103985 0 0.989016 -0.222361 0 0 0 0)
(0.121514 0.213271 0 1.1026 0.0739449 0 0 0 0)
(0.0784276 0.123335 0 0.937876 0.0666513 0 0 0 0)
(0.087664 0.0411308 0 0.840771 0.116728 0 0 0 0)
(0.106302 0.0112147 0 0.68532 0.0511044 0 0 0 0)
(0.12624 -0.0233136 0 0.518675 0.137513 0 0 0 0)
(0.158096 -0.0460548 0 0.393452 0.17835 0 0 0 0)
(0.252807 0.0122746 0 0.250198 0.200571 0 0 0 0)
(0.155349 -0.00996082 0 0.110233 0.301387 0 0 0 0)
(-0.126719 -0.0478401 0 0.0877674 0.157462 0 0 0 0)
(-0.735038 -0.0278026 0 0.110666 0.0530634 0 0 0 0)
(-1.32586 0.0128364 0 0.308611 0.0200253 0 0 0 0)
(-0.80872 0.0212421 0 -0.00317805 0.0716918 0 0 0 0)
(-0.118631 -0.00778009 0 -0.0268548 0.0670767 0 0 0 0)
(-0.0628744 0.0381186 0 -0.169451 0.121872 0 0 0 0)
(-0.164464 0.108949 0 -0.29218 0.272414 0 0 0 0)
(-0.365017 0.138628 0 -0.302792 0.454126 0 0 0 0)
(-0.529176 0.0839811 0 -0.17617 0.613073 0 0 0 0)
(-0.566232 0.00441307 0 0.000141792 0.66729 0 0 0 0)
(-0.545184 -0.0485739 0 0.0879705 0.63177 0 0 0 0)
(-0.51493 -0.06498 0 0.0130838 0.556212 0 0 0 0)
(-0.52276 -0.0542991 0 -0.0773493 0.460796 0 0 0 0)
(-0.706506 -0.0526497 0 -0.100318 0.353047 0 0 0 0)
(-1.19242 -0.0560418 0 -0.0988121 0.27662 0 0 0 0)
(-1.45229 -0.0432458 0 -0.0848088 0.20297 0 0 0 0)
(-0.850249 -0.0189265 0 -0.0268706 0.132564 0 0 0 0)
(-0.31387 -0.00364728 0 -0.00323008 0.117059 0 0 0 0)
(-0.868268 0.000531802 0 -0.000930393 0.116562 0 0 0 0)
(-1.26395 0.00138625 0 -0.00107388 0.119518 0 0 0 0)
(-0.746524 0.00022401 0 -0.00386683 0.121791 0 0 0 0)
(-0.281634 -0.000585764 0 -0.00598767 0.12069 0 0 0 0)
(-0.15487 0.000136236 0 -0.0085969 0.120516 0 0 0 0)
(-0.128353 0.00146523 0 -0.0112871 0.121475 0 0 0 0)
(-0.104213 0.00402827 0 -0.0118448 0.124502 0 0 0 0)
(-0.0833363 0.00803407 0 -0.00660886 0.130566 0 0 0 0)
(-0.0770816 0.00685915 0 0.0100812 0.143912 0 0 0 0)
(-0.0685867 -0.000468483 0 0.0332064 0.148626 0 0 0 0)
(-0.0578445 -0.010685 0 0.0468716 0.144693 0 0 0 0)
(-0.0278006 -0.00854324 0 0.0493993 0.117729 0 0 0 0)
(0.0470202 0.0587181 0 0.883156 -0.106916 0 0 0 0)
(0.0777846 0.0930534 0 0.809326 0.255927 0 0 0 0)
(0.056624 0.129758 0 0.711317 0.0655337 0 0 0 0)
(0.0414928 0.233953 0 0.672487 0.0083328 0 0 0 0)
(0.0159982 0.207426 0 0.602649 -0.0111973 0 0 0 0)
(0.00975237 0.170189 0 0.517694 0.0775062 0 0 0 0)
(0.0248675 0.125143 0 0.39851 0.179975 0 0 0 0)
(0.0621842 0.0389338 0 0.279407 0.205278 0 0 0 0)
(0.146806 0.0784337 0 0.170294 0.283581 0 0 0 0)
(0.100222 -0.0572052 0 0.0221478 0.388472 0 0 0 0)
(-0.113594 -0.190083 0 -0.0164522 0.27244 0 0 0 0)
(-0.692861 -0.132708 0 -0.0113019 0.148589 0 0 0 0)
(-1.34406 -0.0517343 0 -0.00259097 0.12719 0 0 0 0)
(-0.866718 0.00480169 0 -0.00386404 0.117202 0 0 0 0)
(-0.159232 0.0103226 0 -0.0458525 0.16143 0 0 0 0)
(-0.0850198 0.0972248 0 -0.133481 0.201249 0 0 0 0)
(-0.141101 0.199137 0 -0.132837 0.318002 0 0 0 0)
(-0.334309 0.210367 0 -0.132954 0.486242 0 0 0 0)
(-0.472652 0.115436 0 -0.127772 0.594123 0 0 0 0)
(-0.503374 -0.00708637 0 -0.0867999 0.619146 0 0 0 0)
(-0.510792 -0.0782735 0 -0.0427423 0.572305 0 0 0 0)
(-0.530092 -0.0914975 0 -0.0179261 0.516326 0 0 0 0)
(-0.574625 -0.0894742 0 -0.0261038 0.445296 0 0 0 0)
(-0.758792 -0.0974343 0 -0.0556896 0.370363 0 0 0 0)
(-1.22733 -0.111805 0 -0.101527 0.294795 0 0 0 0)
(-1.45022 -0.100742 0 -0.12242 0.197494 0 0 0 0)
(-0.828401 -0.0491571 0 -0.0427522 0.12816 0 0 0 0)
(-0.304511 -0.00825748 0 -0.00348922 0.116413 0 0 0 0)
(-0.866605 0.00151955 0 0.00183277 0.116269 0 0 0 0)
(-1.26384 0.00308188 0 0.00436208 0.119448 0 0 0 0)
(-0.746707 0.000600113 0 0.00238502 0.121509 0 0 0 0)
(-0.281167 -0.000757386 0 0.00272263 0.120678 0 0 0 0)
(-0.154448 0.000631907 0 0.0036437 0.120878 0 0 0 0)
(-0.127885 0.0026045 0 0.00468541 0.12186 0 0 0 0)
(-0.102834 0.00569668 0 0.00610012 0.123909 0 0 0 0)
(-0.0789682 0.0118046 0 0.00874302 0.126806 0 0 0 0)
(-0.0681449 0.0108644 0 0.0158208 0.134314 0 0 0 0)
(-0.0587129 0.000403649 0 0.0279387 0.138027 0 0 0 0)
(-0.0522048 -0.0187837 0 0.0371656 0.140295 0 0 0 0)
(-0.026382 -0.0163534 0 0.0383991 0.118841 0 0 0 0)
(0.0207933 -0.0364736 0 0.36341 0.696537 0 0 0 0)
(0.0403047 -0.0434639 0 0.294689 0.652681 0 0 0 0)
(0.0244464 0.0194621 0 0.251824 0.654245 0 0 0 0)
(-0.0064832 -0.00992229 0 0.21966 0.583075 0 0 0 0)
(-0.0230706 0.0186159 0 0.204151 0.388639 0 0 0 0)
(-0.0386404 0.110188 0 0.194517 0.345372 0 0 0 0)
(-0.0490224 0.0202048 0 0.169906 0.25446 0 0 0 0)
(-0.0103898 0.00820964 0 0.146997 0.153343 0 0 0 0)
(0.061743 0.15333 0 0.101355 0.210525 0 0 0 0)
(0.00495431 0.00463746 0 0.00242051 0.215955 0 0 0 0)
(-0.16599 -0.202725 0 -0.0767235 0.148082 0 0 0 0)
(-0.744297 -0.111517 0 -0.124299 0.0973224 0 0 0 0)
(-1.30893 0.0172162 0 -0.241723 0.20063 0 0 0 0)
(-0.819308 0.0630528 0 -0.000920187 0.208452 0 0 0 0)
(-0.221763 0.0635025 0 -0.0469097 0.227109 0 0 0 0)
(-0.134821 0.157302 0 -0.0996815 0.223 0 0 0 0)
(-0.176484 0.335218 0 -0.198208 0.334131 0 0 0 0)
(-0.376602 0.366239 0 -0.312027 0.529165 0 0 0 0)
(-0.51501 0.195186 0 -0.38781 0.630106 0 0 0 0)
(-0.518001 -0.0104447 0 -0.379736 0.622715 0 0 0 0)
(-0.497257 -0.13173 0 -0.326188 0.568532 0 0 0 0)
(-0.490767 -0.173151 0 -0.263781 0.489944 0 0 0 0)
(-0.531338 -0.176092 0 -0.20863 0.40398 0 0 0 0)
(-0.75115 -0.173663 0 -0.187009 0.329546 0 0 0 0)
(-1.23801 -0.192722 0 -0.209787 0.252109 0 0 0 0)
(-1.39677 -0.17299 0 -0.208381 0.163746 0 0 0 0)
(-0.747359 -0.0808484 0 -0.0632464 0.120511 0 0 0 0)
(-0.275925 -0.0126333 0 -0.00466274 0.114881 0 0 0 0)
(-0.861593 0.00292707 0 0.00368005 0.11466 0 0 0 0)
(-1.26347 0.0055263 0 0.0087547 0.117213 0 0 0 0)
(-0.748005 0.00120728 0 0.00613392 0.11944 0 0 0 0)
(-0.280672 -0.00110209 0 0.00635928 0.118937 0 0 0 0)
(-0.153205 0.00100932 0 0.00767527 0.119339 0 0 0 0)
(-0.126237 0.00377542 0 0.00918285 0.120398 0 0 0 0)
(-0.101043 0.00789982 0 0.0103612 0.122548 0 0 0 0)
(-0.0763114 0.0160388 0 0.0107357 0.125102 0 0 0 0)
(-0.0633761 0.0155243 0 0.0123765 0.129946 0 0 0 0)
(-0.0533127 0.00482667 0 0.0157841 0.131172 0 0 0 0)
(-0.0507887 -0.0248303 0 0.0210049 0.137634 0 0 0 0)
(-0.0273725 -0.0250286 0 0.0203487 0.12234 0 0 0 0)
(-0.0192015 0.0164575 0 -0.0367217 0.570796 0 0 0 0)
(-0.0297439 0.0522997 0 -0.0579048 0.553642 0 0 0 0)
(-0.015677 0.0626827 0 -0.0956601 0.573227 0 0 0 0)
(-0.00444608 -0.0219939 0 -0.116112 0.562323 0 0 0 0)
(-0.00823045 -0.0216329 0 -0.103902 0.559895 0 0 0 0)
(-0.0232475 0.0408881 0 -0.101985 0.532631 0 0 0 0)
(-0.0209243 -0.0599029 0 -0.0766111 0.464562 0 0 0 0)
(-0.00387418 -0.00340311 0 -0.0276338 0.402719 0 0 0 0)
(0.0074866 0.138769 0 -3.76622e-05 0.438453 0 0 0 0)
(-0.071381 -0.117378 0 -0.187677 0.355457 0 0 0 0)
(-0.235706 -0.304401 0 -0.2822 0.324926 0 0 0 0)
(-0.851861 -0.0820706 0 -0.397931 0.316356 0 0 0 0)
(-1.22517 0.0553546 0 -0.396586 0.289492 0 0 0 0)
(-0.678988 0.0303177 0 -0.0588708 0.26551 0 0 0 0)
(-0.254402 0.0243416 0 -0.0923681 0.263561 0 0 0 0)
(-0.230816 0.200355 0 -0.184012 0.306581 0 0 0 0)
(-0.345724 0.494168 0 -0.359919 0.490992 0 0 0 0)
(-0.517017 0.495579 0 -0.533322 0.642662 0 0 0 0)
(-0.537899 0.205584 0 -0.572879 0.624921 0 0 0 0)
(-0.443993 -0.0664222 0 -0.495141 0.546952 0 0 0 0)
(-0.399054 -0.206217 0 -0.397607 0.478666 0 0 0 0)
(-0.416808 -0.250065 0 -0.309729 0.411491 0 0 0 0)
(-0.500645 -0.244039 0 -0.25977 0.349704 0 0 0 0)
(-0.759906 -0.243783 0 -0.252276 0.286317 0 0 0 0)
(-1.24792 -0.271576 0 -0.290778 0.205359 0 0 0 0)
(-1.309 -0.227554 0 -0.267884 0.129419 0 0 0 0)
(-0.632091 -0.0962458 0 -0.069595 0.11299 0 0 0 0)
(-0.240018 -0.0138955 0 -0.00600445 0.112773 0 0 0 0)
(-0.853675 0.0037672 0 0.0037744 0.112702 0 0 0 0)
(-1.26147 0.00768735 0 0.00962228 0.115089 0 0 0 0)
(-0.749015 0.00226092 0 0.00515704 0.118411 0 0 0 0)
(-0.279682 -0.000854338 0 0.00402617 0.119342 0 0 0 0)
(-0.151727 0.00203995 0 0.00455937 0.120476 0 0 0 0)
(-0.125297 0.00569643 0 0.00530866 0.122344 0 0 0 0)
(-0.101337 0.0102301 0 0.00562251 0.125232 0 0 0 0)
(-0.0770262 0.0189336 0 0.00499019 0.126966 0 0 0 0)
(-0.0632801 0.0167132 0 0.00512351 0.129518 0 0 0 0)
(-0.0503982 0.00781252 0 0.00488343 0.126184 0 0 0 0)
(-0.0478062 -0.0272942 0 0.0103889 0.13325 0 0 0 0)
(-0.0270144 -0.0310911 0 0.0121599 0.123281 0 0 0 0)
(0.000380527 -0.053004 0 -0.310719 0.485351 0 0 0 0)
(-0.0164905 -0.0411209 0 -0.281249 0.446547 0 0 0 0)
(-0.0316437 0.0278274 0 -0.266791 0.429947 0 0 0 0)
(-0.0144257 -0.0227697 0 -0.256156 0.410825 0 0 0 0)
(-0.00945739 -0.00999575 0 -0.243735 0.436395 0 0 0 0)
(-0.0123416 0.0183223 0 -0.230366 0.433386 0 0 0 0)
(0.0226248 -0.104984 0 -0.191991 0.389581 0 0 0 0)
(0.0633991 -0.01695 0 -0.100906 0.427824 0 0 0 0)
(-0.0924805 0.107787 0 -0.191524 0.377878 0 0 0 0)
(-0.266948 -0.104762 0 -0.340793 0.178471 0 0 0 0)
(-0.368598 -0.240403 0 -0.399495 0.289472 0 0 0 0)
(-0.854524 -0.145662 0 -0.579668 0.336324 0 0 0 0)
(-0.982205 -0.0317811 0 -0.37345 0.258997 0 0 0 0)
(-0.526152 0.0380648 0 -0.0696297 0.289942 0 0 0 0)
(-0.342354 0.10308 0 -0.159732 0.327252 0 0 0 0)
(-0.392643 0.376463 0 -0.32368 0.480808 0 0 0 0)
(-0.513092 0.659078 0 -0.533579 0.713031 0 0 0 0)
(-0.581817 0.495299 0 -0.665277 0.698811 0 0 0 0)
(-0.478218 0.102957 0 -0.601732 0.544258 0 0 0 0)
(-0.349102 -0.151382 0 -0.491553 0.435702 0 0 0 0)
(-0.318588 -0.262265 0 -0.407603 0.373671 0 0 0 0)
(-0.357943 -0.297423 0 -0.34267 0.327625 0 0 0 0)
(-0.475974 -0.296715 0 -0.305821 0.284705 0 0 0 0)
(-0.78103 -0.31276 0 -0.311642 0.229397 0 0 0 0)
(-1.25305 -0.343915 0 -0.367695 0.153026 0 0 0 0)
(-1.18363 -0.262 0 -0.297989 0.100954 0 0 0 0)
(-0.495003 -0.0968886 0 -0.0629753 0.110301 0 0 0 0)
(-0.205224 -0.0129114 0 -0.00589621 0.113139 0 0 0 0)
(-0.846535 0.00515894 0 0.00539885 0.113046 0 0 0 0)
(-1.26214 0.0110277 0 0.0148555 0.115895 0 0 0 0)
(-0.753398 0.00530574 0 0.011311 0.119615 0 0 0 0)
(-0.281248 0.000888275 0 0.0103195 0.121827 0 0 0 0)
(-0.15197 0.0039013 0 0.0112303 0.124252 0 0 0 0)
(-0.125212 0.00835865 0 0.0123762 0.126271 0 0 0 0)
(-0.10135 0.0123539 0 0.0137724 0.129177 0 0 0 0)
(-0.0767923 0.0201689 0 0.0148289 0.129041 0 0 0 0)
(-0.063479 0.0147709 0 0.0167393 0.12979 0 0 0 0)
(-0.0482388 0.00842234 0 0.0150747 0.123051 0 0 0 0)
(-0.0437768 -0.0276275 0 0.0189998 0.128103 0 0 0 0)
(-0.025666 -0.0346347 0 0.0208588 0.1223 0 0 0 0)
(0.00919651 -0.0209361 0 -0.422717 0.369552 0 0 0 0)
(0.0125861 -0.00108999 0 -0.418964 0.410376 0 0 0 0)
(0.00850363 0.0282603 0 -0.397278 0.416982 0 0 0 0)
(0.017772 -0.0157799 0 -0.367583 0.400851 0 0 0 0)
(0.0166213 0.000107358 0 -0.351987 0.440419 0 0 0 0)
(0.0266142 -0.00422367 0 -0.333575 0.422388 0 0 0 0)
(0.103829 -0.065263 0 -0.302929 0.374203 0 0 0 0)
(-0.00342398 -0.0146807 0 -0.257111 0.460319 0 0 0 0)
(-0.223678 -0.101516 0 -0.384762 0.357144 0 0 0 0)
(-0.27179 -0.202569 0 -0.460162 0.189406 0 0 0 0)
(-0.465894 -0.152289 0 -0.439379 0.216318 0 0 0 0)
(-0.826763 -0.111437 0 -0.534575 0.277788 0 0 0 0)
(-0.733675 0.0106591 0 -0.298648 0.327129 0 0 0 0)
(-0.473042 0.0960906 0 -0.176242 0.408647 0 0 0 0)
(-0.499214 0.208267 0 -0.330411 0.460215 0 0 0 0)
(-0.591069 0.572107 0 -0.523955 0.750689 0 0 0 0)
(-0.674899 0.704244 0 -0.709683 0.876982 0 0 0 0)
(-0.582691 0.332944 0 -0.711869 0.641822 0 0 0 0)
(-0.370492 -0.0479578 0 -0.572705 0.44024 0 0 0 0)
(-0.256923 -0.230806 0 -0.469789 0.342108 0 0 0 0)
(-0.255585 -0.310364 0 -0.403532 0.284258 0 0 0 0)
(-0.318727 -0.335796 0 -0.360616 0.247165 0 0 0 0)
(-0.470745 -0.338695 0 -0.343429 0.216367 0 0 0 0)
(-0.81953 -0.370674 0 -0.372181 0.167749 0 0 0 0)
(-1.23476 -0.395348 0 -0.434819 0.10135 0 0 0 0)
(-1.01537 -0.268725 0 -0.290474 0.0875977 0 0 0 0)
(-0.35062 -0.0845037 0 -0.0499338 0.114793 0 0 0 0)
(-0.17413 -0.0112505 0 -0.00721133 0.118468 0 0 0 0)
(-0.833678 0.00642219 0 0.00355193 0.118601 0 0 0 0)
(-1.25577 0.0140176 0 0.0138038 0.122107 0 0 0 0)
(-0.753386 0.00797725 0 0.0110992 0.125028 0 0 0 0)
(-0.27976 0.0036139 0 0.00975926 0.127689 0 0 0 0)
(-0.149745 0.00632326 0 0.0100769 0.130667 0 0 0 0)
(-0.122847 0.0104426 0 0.0103129 0.132083 0 0 0 0)
(-0.0989736 0.012899 0 0.0114162 0.134621 0 0 0 0)
(-0.0741672 0.0195245 0 0.012375 0.131986 0 0 0 0)
(-0.0630432 0.0109413 0 0.0155045 0.132055 0 0 0 0)
(-0.0482199 0.00618679 0 0.0140231 0.123307 0 0 0 0)
(-0.0422325 -0.0280179 0 0.0164041 0.125738 0 0 0 0)
(-0.025223 -0.0366829 0 0.017327 0.122048 0 0 0 0)
(0.00399665 -0.0136642 0 -0.45764 0.341863 0 0 0 0)
(0.00802326 0.00458482 0 -0.465678 0.36262 0 0 0 0)
(0.0178687 0.0186483 0 -0.470675 0.361096 0 0 0 0)
(0.029218 -0.000184972 0 -0.468288 0.347824 0 0 0 0)
(0.0233146 0.0107588 0 -0.471472 0.373599 0 0 0 0)
(0.034933 -0.0454866 0 -0.464316 0.33677 0 0 0 0)
(0.096308 -0.0684328 0 -0.466233 0.321078 0 0 0 0)
(-0.0154589 -0.0333885 0 -0.532913 0.351671 0 0 0 0)
(-0.288148 -0.153274 0 -0.564968 0.267525 0 0 0 0)
(-0.319578 -0.240467 0 -0.561979 0.270514 0 0 0 0)
(-0.440305 -0.155235 0 -0.644662 0.216233 0 0 0 0)
(-0.71891 -0.0388802 0 -0.612325 0.304062 0 0 0 0)
(-0.636902 0.094319 0 -0.414035 0.431518 0 0 0 0)
(-0.55676 0.166311 0 -0.51126 0.447475 0 0 0 0)
(-0.677423 0.432684 0 -0.677585 0.695444 0 0 0 0)
(-0.758124 0.778075 0 -0.841827 1.0224 0 0 0 0)
(-0.694172 0.55417 0 -0.872463 0.820382 0 0 0 0)
(-0.449819 0.0744378 0 -0.691101 0.494201 0 0 0 0)
(-0.244941 -0.185859 0 -0.528959 0.331685 0 0 0 0)
(-0.186082 -0.301691 0 -0.442932 0.249316 0 0 0 0)
(-0.213385 -0.353756 0 -0.395788 0.205715 0 0 0 0)
(-0.300025 -0.362845 0 -0.371862 0.181973 0 0 0 0)
(-0.487119 -0.373243 0 -0.373921 0.156448 0 0 0 0)
(-0.869096 -0.423594 0 -0.42998 0.111261 0 0 0 0)
(-1.17432 -0.421152 0 -0.475706 0.0566306 0 0 0 0)
(-0.812738 -0.249046 0 -0.247914 0.0719835 0 0 0 0)
(-0.222041 -0.0671407 0 -0.0342799 0.119721 0 0 0 0)
(-0.153683 -0.00924167 0 -0.00697646 0.123623 0 0 0 0)
(-0.826284 0.00866538 0 0.00456393 0.122937 0 0 0 0)
(-1.25487 0.017221 0 0.0154618 0.121421 0 0 0 0)
(-0.757295 0.010685 0 0.0102805 0.117688 0 0 0 0)
(-0.282233 0.0063219 0 0.00877566 0.113628 0 0 0 0)
(-0.151436 0.0081352 0 0.0102623 0.114172 0 0 0 0)
(-0.123921 0.0121692 0 0.0117623 0.119453 0 0 0 0)
(-0.0993626 0.0122605 0 0.0135866 0.130179 0 0 0 0)
(-0.0728526 0.0176956 0 0.0119389 0.131657 0 0 0 0)