/*--------------------------------*- C++ -*----------------------------------*\
| =========                 |                                                 |
| \\      /  F ield         | OpenFOAM: The Open Source CFD Toolbox           |
|  \\    /   O peration     | Version:  v1912                                 |
|   \\  /    A nd           | Website:  www.openfoam.com                      |
|    \\/     M anipulation  |                                                 |
\*---------------------------------------------------------------------------*/
FoamFile
{
    version     2.0;
    format      ascii;
    class       volVectorField;
    location    "3.04";
    object      U;
}
// * * * * * * * * * * * * * * * * * * * * * * * * * * * * * * * * * * * * * //

dimensions      [0 1 -1 0 0 0 0];


internalField   nonuniform List<vector> 
1900
(
(-0.466874 -2.09471e-06 0)
(-0.0740476 -2.40257e-06 0)
(-0.0788911 -3.05425e-06 0)
(-0.083104 8.92303e-06 0)
(-0.087512 0.000124875 0)
(-0.0925781 0.0003902 0)
(-0.0979494 0.000580178 0)
(-0.102982 -0.000926282 0)
(-0.106567 -0.00541355 0)
(-0.0952814 -0.0189102 0)
(-0.466878 -1.96447e-06 0)
(-0.0740539 -2.17544e-06 0)
(-0.0789008 -1.51857e-06 0)
(-0.083114 1.53478e-05 0)
(-0.0874472 0.000117424 0)
(-0.0922038 0.000381857 0)
(-0.0968146 0.000631918 0)
(-0.101193 -0.000281058 0)
(-0.10698 -0.0031156 0)
(-0.110721 -0.0153224 0)
(-0.466878 -1.70209e-14 0)
(-0.0740561 -1.77063e-14 0)
(-0.0789029 -2.75508e-14 0)
(-0.083096 5.54296e-15 0)
(-0.0873557 1.84528e-14 0)
(-0.0919412 5.16664e-15 0)
(-0.0963621 -2.4549e-14 0)
(-0.100784 -7.76168e-15 0)
(-0.106882 -4.46893e-14 0)
(-0.118858 -2.47844e-14 0)
(-0.466878 1.96447e-06 0)
(-0.0740539 2.17544e-06 0)
(-0.0789008 1.51857e-06 0)
(-0.083114 -1.53478e-05 0)
(-0.0874472 -0.000117424 0)
(-0.0922038 -0.000381857 0)
(-0.0968146 -0.000631918 0)
(-0.101193 0.000281058 0)
(-0.10698 0.0031156 0)
(-0.110721 0.0153224 0)
(-0.466874 2.09471e-06 0)
(-0.0740476 2.40257e-06 0)
(-0.0788911 3.05425e-06 0)
(-0.083104 -8.92303e-06 0)
(-0.087512 -0.000124875 0)
(-0.0925781 -0.0003902 0)
(-0.0979494 -0.000580178 0)
(-0.102982 0.000926282 0)
(-0.106567 0.00541355 0)
(-0.0952814 0.0189102 0)
(-0.0980236 -0.0500355 0)
(-0.126285 -0.0646397 0)
(-0.150181 -0.0881506 0)
(-0.195616 -0.112261 0)
(-0.389911 -0.0818649 0)
(-0.128604 -0.0346758 0)
(-0.158804 -0.0442986 0)
(-0.198935 -0.0653395 0)
(-0.285371 -0.0859345 0)
(-0.459837 -0.0762309 0)
(-0.139699 -2.66906e-14 0)
(-0.170131 -1.65694e-14 0)
(-0.221027 2.75292e-14 0)
(-0.317562 -2.38762e-15 0)
(-0.481804 1.66314e-14 0)
(-0.128604 0.0346758 0)
(-0.158804 0.0442986 0)
(-0.198935 0.0653395 0)
(-0.285371 0.0859345 0)
(-0.459837 0.0762309 0)
(-0.0980236 0.0500355 0)
(-0.126285 0.0646397 0)
(-0.150181 0.0881506 0)
(-0.195616 0.112261 0)
(-0.389911 0.0818649 0)
(-0.439434 0.0272851 0)
(-0.342673 0.0294985 0)
(-0.285198 0.0292445 0)
(-0.252138 0.043186 0)
(-0.292312 0.0859791 0)
(-0.457052 0.0201403 0)
(-0.354812 0.0180273 0)
(-0.284012 0.0159653 0)
(-0.211002 0.0358275 0)
(-0.140386 0.100001 0)
(-0.466502 2.34132e-14 0)
(-0.356111 7.63423e-14 0)
(-0.275569 1.25195e-13 0)
(-0.184325 1.45571e-13 0)
(-0.0511086 1.65466e-13 0)
(-0.457052 -0.0201403 0)
(-0.354812 -0.0180273 0)
(-0.284012 -0.0159653 0)
(-0.211002 -0.0358275 0)
(-0.140386 -0.100001 0)
(-0.439434 -0.0272851 0)
(-0.342673 -0.0294985 0)
(-0.285198 -0.0292445 0)
(-0.252138 -0.043186 0)
(-0.292312 -0.0859791 0)
(-0.49624 0.0776769 0)
(-0.0645344 -0.160471 0)
(-0.124242 -0.203447 0)
(-0.268635 -0.12518 0)
(-0.337895 -0.0584112 0)
(-0.384391 -0.0417125 0)
(-0.396529 -0.0374404 0)
(-0.396413 -0.0353531 0)
(-0.38792 -0.0335686 0)
(-0.375157 -0.0335406 0)
(-0.358225 -0.033229 0)
(-0.338265 -0.0331263 0)
(-0.315494 -0.0330728 0)
(-0.289354 -0.0330621 0)
(-0.258748 -0.0330959 0)
(-0.222509 -0.0331482 0)
(-0.180168 -0.0331876 0)
(-0.131978 -0.0332242 0)
(-0.0801436 -0.0331307 0)
(-0.0244498 -0.0333658 0)
(0.0303446 -0.0333177 0)
(0.0864663 -0.0330756 0)
(0.138856 -0.0331281 0)
(0.188098 -0.0330434 0)
(0.232254 -0.0329406 0)
(0.271466 -0.0328008 0)
(0.306608 -0.0326404 0)
(0.339184 -0.0324705 0)
(0.370471 -0.0322967 0)
(0.401095 -0.0321193 0)
(0.431076 -0.031941 0)
(0.460208 -0.0317637 0)
(0.48844 -0.0316166 0)
(0.516015 -0.0314117 0)
(0.542545 -0.0314036 0)
(0.566318 -0.0306105 0)
(0.585267 -0.0314037 0)
(0.597566 -0.0299989 0)
(0.639924 -0.0306671 0)
(1.25881 -0.0279152 0)
(0.041658 0.105802 0)
(0.247382 -0.11198 0)
(0.035932 -0.139019 0)
(-0.228722 -0.0713235 0)
(-0.338708 -0.0293912 0)
(-0.385581 -0.0206611 0)
(-0.397705 -0.0186923 0)
(-0.397749 -0.0176741 0)
(-0.389147 -0.0167513 0)
(-0.376292 -0.0167673 0)
(-0.359337 -0.0166065 0)
(-0.339294 -0.016551 0)
(-0.31644 -0.0165221 0)
(-0.290207 -0.0165134 0)
(-0.259491 -0.0165266 0)
(-0.223128 -0.0165494 0)
(-0.180651 -0.0165666 0)
(-0.132322 -0.0165837 0)
(-0.0803455 -0.0165364 0)
(-0.0245119 -0.0166546 0)
(0.0304216 -0.0166305 0)
(0.0866844 -0.0165092 0)
(0.139215 -0.0165364 0)
(0.188594 -0.0164956 0)
(0.232883 -0.0164471 0)
(0.272221 -0.0163812 0)
(0.30748 -0.0163057 0)
(0.340164 -0.0162258 0)
(0.371552 -0.0161441 0)
(0.40227 -0.0160606 0)
(0.432339 -0.0159767 0)
(0.461552 -0.0158937 0)
(0.489857 -0.0158254 0)
(0.5175 -0.0157327 0)
(0.544062 -0.0157303 0)
(0.567971 -0.015344 0)
(0.586767 -0.0157455 0)
(0.599015 -0.0150347 0)
(0.640299 -0.0155308 0)
(1.25569 -0.0134273 0)
(0.210855 9.12927e-15 0)
(0.347406 -6.54507e-14 0)
(0.1087 -4.60928e-14 0)
(-0.211026 8.81544e-14 0)
(-0.340726 9.04804e-14 0)
(-0.387738 -1.12262e-13 0)
(-0.3995 -5.88849e-13 0)
(-0.399484 -8.62298e-13 0)
(-0.390668 -1.14812e-12 0)
(-0.377698 -7.88039e-13 0)
(-0.360616 6.34775e-13 0)
(-0.340417 2.85496e-12 0)
(-0.317416 4.29893e-12 0)
(-0.291044 2.46488e-12 0)
(-0.260189 -5.51931e-12 0)
(-0.223687 -1.69246e-11 0)
(-0.181074 -8.55787e-12 0)
(-0.132613 1.07798e-11 0)
(-0.0805124 -1.90727e-11 0)
(-0.0245617 -1.97579e-11 0)
(0.0304853 2.53219e-11 0)
(0.086866 2.77391e-11 0)
(0.139522 -3.78375e-11 0)
(0.189034 -3.02792e-11 0)
(0.233463 2.92372e-11 0)
(0.272947 2.55061e-11 0)
(0.308357 -8.43619e-12 0)
(0.341194 -2.59073e-11 0)
(0.372739 -2.38035e-11 0)
(0.403619 -1.26759e-11 0)
(0.433858 -1.16939e-11 0)
(0.463246 -6.59123e-12 0)
(0.491731 -2.15637e-11 0)
(0.519561 -3.49003e-11 0)
(0.546301 -7.20111e-11 0)
(0.570428 -6.1585e-11 0)
(0.589392 -3.57679e-11 0)
(0.601723 -8.23227e-11 0)
(0.642274 -8.42715e-12 0)
(1.25776 9.99718e-11 0)
(0.041658 -0.105802 0)
(0.247382 0.11198 0)
(0.035932 0.139019 0)
(-0.228722 0.0713235 0)
(-0.338708 0.0293912 0)
(-0.385581 0.0206611 0)
(-0.397705 0.0186923 0)
(-0.397749 0.0176741 0)
(-0.389147 0.0167513 0)
(-0.376292 0.0167673 0)
(-0.359337 0.0166065 0)
(-0.339294 0.016551 0)
(-0.31644 0.0165221 0)
(-0.290207 0.0165134 0)
(-0.259491 0.0165266 0)
(-0.223128 0.0165494 0)
(-0.180651 0.0165666 0)
(-0.132322 0.0165837 0)
(-0.0803455 0.0165364 0)
(-0.0245119 0.0166546 0)
(0.0304216 0.0166305 0)
(0.0866844 0.0165092 0)
(0.139215 0.0165364 0)
(0.188594 0.0164956 0)
(0.232883 0.0164471 0)
(0.272221 0.0163812 0)
(0.30748 0.0163057 0)
(0.340164 0.0162258 0)
(0.371552 0.0161441 0)
(0.40227 0.0160606 0)
(0.432339 0.0159767 0)
(0.461552 0.0158937 0)
(0.489857 0.0158254 0)
(0.5175 0.0157327 0)
(0.544062 0.0157303 0)
(0.567971 0.015344 0)
(0.586767 0.0157455 0)
(0.599015 0.0150347 0)
(0.640299 0.0155308 0)
(1.25569 0.0134273 0)
(-0.49624 -0.0776769 0)
(-0.0645344 0.160471 0)
(-0.124242 0.203447 0)
(-0.268635 0.12518 0)
(-0.337895 0.0584112 0)
(-0.384391 0.0417125 0)
(-0.396529 0.0374404 0)
(-0.396413 0.0353531 0)
(-0.38792 0.0335686 0)
(-0.375157 0.0335406 0)
(-0.358225 0.033229 0)
(-0.338265 0.0331263 0)
(-0.315494 0.0330728 0)
(-0.289354 0.0330621 0)
(-0.258748 0.0330959 0)
(-0.222509 0.0331482 0)
(-0.180168 0.0331876 0)
(-0.131978 0.0332242 0)
(-0.0801436 0.0331307 0)
(-0.0244498 0.0333658 0)
(0.0303446 0.0333177 0)
(0.0864663 0.0330756 0)
(0.138856 0.0331281 0)
(0.188098 0.0330434 0)
(0.232254 0.0329406 0)
(0.271466 0.0328008 0)
(0.306608 0.0326404 0)
(0.339184 0.0324705 0)
(0.370471 0.0322967 0)
(0.401095 0.0321193 0)
(0.431076 0.031941 0)
(0.460208 0.0317637 0)
(0.48844 0.0316166 0)
(0.516015 0.0314117 0)
(0.542545 0.0314036 0)
(0.566318 0.0306105 0)
(0.585267 0.0314037 0)
(0.597566 0.0299989 0)
(0.639924 0.0306671 0)
(1.25881 0.0279152 0)
(-1.10263 -0.133811 0)
(-0.409857 0.17885 0)
(-0.318933 0.257254 0)
(-0.334411 0.184893 0)
(-0.361355 0.111234 0)
(-0.394015 0.0851916 0)
(-0.40199 0.0769714 0)
(-0.400809 0.0727089 0)
(-0.391384 0.0695976 0)
(-0.378115 0.0692803 0)
(-0.360773 0.0686744 0)
(-0.340559 0.0684638 0)
(-0.317515 0.0683529 0)
(-0.291113 0.06834 0)
(-0.260256 0.0684132 0)
(-0.223768 0.0685179 0)
(-0.181168 0.0685922 0)
(-0.132704 0.068661 0)
(-0.0805892 0.0684637 0)
(-0.0245989 0.0689509 0)
(0.0304767 0.0688525 0)
(0.0868827 0.0683511 0)
(0.139541 0.06846 0)
(0.189044 0.0682868 0)
(0.233448 0.0680765 0)
(0.272899 0.0677884 0)
(0.308278 0.0674568 0)
(0.341098 0.0671047 0)
(0.372641 0.0667433 0)
(0.403532 0.0663733 0)
(0.433787 0.0660014 0)
(0.463197 0.0656223 0)
(0.4917 0.0653167 0)
(0.519496 0.0648201 0)
(0.546284 0.0648114 0)
(0.569946 0.06315 0)
(0.589509 0.0644167 0)
(0.602103 0.0619095 0)
(0.645507 0.0624194 0)
(1.25738 0.0589786 0)
(-1.2328 -0.0473576 0)
(-0.591292 0.247944 0)
(-0.46564 0.302316 0)
(-0.405109 0.239768 0)
(-0.403989 0.174145 0)
(-0.409261 0.145968 0)
(-0.410626 0.1343 0)
(-0.402998 0.127661 0)
(-0.392523 0.123408 0)
(-0.3782 0.122493 0)
(-0.360531 0.121547 0)
(-0.340183 0.121199 0)
(-0.317041 0.121044 0)
(-0.290596 0.121076 0)
(-0.259765 0.121248 0)
(-0.223355 0.12146 0)
(-0.180861 0.121606 0)
(-0.132505 0.121738 0)
(-0.0804996 0.121392 0)
(-0.0245911 0.12228 0)
(0.0303597 0.122107 0)
(0.0866552 0.121196 0)
(0.139166 0.12138 0)
(0.188497 0.121058 0)
(0.232702 0.120663 0)
(0.271943 0.120123 0)
(0.307117 0.119499 0)
(0.339759 0.118836 0)
(0.371152 0.118151 0)
(0.401914 0.117448 0)
(0.432046 0.116742 0)
(0.461319 0.116004 0)
(0.489722 0.11543 0)
(0.517209 0.114374 0)
(0.544039 0.114397 0)
(0.566877 0.111307 0)
(0.58692 0.113194 0)
(0.599404 0.109401 0)
(0.647238 0.107797 0)
(1.24942 0.0981023 0)
(-1.23887 0.0165509 0)
(-0.636515 0.255497 0)
(-0.521065 0.31218 0)
(-0.454876 0.261647 0)
(-0.434053 0.220339 0)
(-0.424601 0.197493 0)
(-0.417804 0.184693 0)
(-0.406924 0.17734 0)
(-0.394192 0.173736 0)
(-0.378896 0.171878 0)
(-0.360745 0.170812 0)
(-0.340137 0.170401 0)
(-0.3168 0.170316 0)
(-0.290246 0.170511 0)
(-0.259393 0.170887 0)
(-0.223037 0.171297 0)
(-0.180635 0.171591 0)
(-0.132375 0.171842 0)
(-0.0804647 0.171392 0)
(-0.0246033 0.172704 0)
(0.0302535 0.172457 0)
(0.0864802 0.171113 0)
(0.13888 0.17133 0)
(0.188078 0.170814 0)
(0.232128 0.170173 0)
(0.271204 0.169304 0)
(0.306237 0.168301 0)
(0.338774 0.16722 0)
(0.370137 0.166103 0)
(0.400883 0.164933 0)
(0.431027 0.163759 0)
(0.460285 0.162485 0)
(0.488757 0.16151 0)
(0.515891 0.159548 0)
(0.543024 0.159367 0)
(0.565066 0.154885 0)
(0.585557 0.156691 0)
(0.597836 0.152489 0)
(0.650676 0.14851 0)
(1.24125 0.13723 0)
(-1.23385 0.0875387 0)
(-0.651641 0.270617 0)
(-0.545354 0.323296 0)
(-0.48238 0.284034 0)
(-0.455343 0.257968 0)
(-0.439077 0.240001 0)
(-0.425414 0.22868 0)
(-0.411605 0.221517 0)
(-0.396676 0.218223 0)
(-0.380051 0.215927 0)
(-0.361197 0.214852 0)
(-0.340043 0.214442 0)
(-0.316358 0.214538 0)
(-0.289582 0.214979 0)
(-0.258709 0.21566 0)
(-0.222448 0.216352 0)
(-0.180212 0.216867 0)
(-0.132128 0.217286 0)
(-0.0803861 0.216769 0)
(-0.0246316 0.218522 0)
(0.0300622 0.218197 0)
(0.086153 0.216384 0)
(0.138366 0.216583 0)
(0.187342 0.215824 0)
(0.23114 0.214873 0)
(0.269967 0.21361 0)
(0.304755 0.212132 0)
(0.337173 0.210572 0)
(0.368406 0.208879 0)
(0.399155 0.207162 0)
(0.429287 0.20539 0)
(0.458415 0.203378 0)
(0.487029 0.201929 0)
(0.51361 0.198776 0)
(0.541044 0.198172 0)
(0.562415 0.192423 0)
(0.583456 0.19388 0)
(0.595625 0.190119 0)
(0.653779 0.182099 0)
(1.23087 0.172629 0)
(-1.22119 0.1458 0)
(-0.657456 0.290172 0)
(-0.559178 0.33534 0)
(-0.502806 0.303758 0)
(-0.47175 0.290474 0)
(-0.450792 0.275539 0)
(-0.432589 0.266342 0)
(-0.416093 0.259807 0)
(-0.39931 0.256783 0)
(-0.381398 0.254286 0)
(-0.361703 0.253218 0)
(-0.339895 0.252912 0)
(-0.315643 0.253161 0)
(-0.288651 0.253946 0)
(-0.257718 0.254938 0)
(-0.221621 0.255971 0)
(-0.179614 0.256738 0)
(-0.131779 0.257353 0)
(-0.0802684 0.256788 0)
(-0.0246733 0.258989 0)
(0.0298068 0.258587 0)
(0.0857051 0.256281 0)
(0.137669 0.256432 0)
(0.186349 0.255403 0)
(0.229831 0.25412 0)
(0.268307 0.252408 0)
(0.302882 0.250499 0)
(0.335005 0.248312 0)
(0.366327 0.246219 0)
(0.396884 0.243743 0)
(0.427122 0.241502 0)
(0.456175 0.23879 0)
(0.48491 0.236864 0)
(0.51092 0.232654 0)
(0.538588 0.23172 0)
(0.559736 0.225329 0)
(0.581206 0.226255 0)
(0.594132 0.224225 0)
(0.656181 0.211281 0)
(1.2199 0.211784 0)
(-1.2225 0.203355 0)
(-0.658489 0.308838 0)
(-0.566833 0.348451 0)
(-0.517636 0.323209 0)
(-0.484757 0.318704 0)
(-0.459585 0.306129 0)
(-0.438794 0.299451 0)
(-0.42027 0.293502 0)
(-0.402035 0.290712 0)
(-0.382995 0.288148 0)
(-0.362405 0.287121 0)
(-0.339604 0.286675 0)
(-0.314936 0.28729 0)
(-0.287436 0.288149 0)
(-0.256552 0.289505 0)
(-0.220597 0.290774 0)
(-0.178886 0.291777 0)
(-0.131354 0.29256 0)
(-0.0801291 0.291934 0)
(-0.0247396 0.294577 0)
(0.0294839 0.294104 0)
(0.085143 0.291298 0)
(0.136809 0.291408 0)
(0.18514 0.290138 0)
(0.228226 0.288531 0)
(0.266392 0.286518 0)
(0.30052 0.284062 0)
(0.332773 0.281759 0)
(0.363627 0.278823 0)
(0.394605 0.276395 0)
(0.424716 0.273533 0)
(0.453573 0.27027 0)
(0.482659 0.268413 0)
(0.508051 0.263448 0)
(0.535707 0.262308 0)
(0.556912 0.255931 0)
(0.5788 0.256288 0)
(0.593755 0.255923 0)
(0.656791 0.240139 0)
(1.20664 0.246076 0)
(-1.2092 0.254312 0)
(-0.65734 0.329985 0)
(-0.571349 0.365852 0)
(-0.527478 0.346016 0)
(-0.494653 0.345164 0)
(-0.466542 0.334737 0)
(-0.444359 0.330426 0)
(-0.424274 0.32468 0)
(-0.40498 0.322197 0)
(-0.384814 0.319579 0)
(-0.363008 0.318204 0)
(-0.339733 0.318285 0)
(-0.313895 0.318472 0)
(-0.286368 0.319819 0)
(-0.255221 0.321111 0)
(-0.219539 0.322623 0)
(-0.178111 0.323718 0)
(-0.130917 0.324613 0)
(-0.0800028 0.32388 0)
(-0.0248361 0.326948 0)
(0.0291137 0.326425 0)
(0.08452 0.323136 0)
(0.13587 0.323265 0)
(0.183819 0.32182 0)
(0.226537 0.320074 0)
(0.264188 0.317713 0)
(0.298337 0.315374 0)
(0.329836 0.312268 0)
(0.361549 0.310084 0)
(0.391594 0.306441 0)
(0.42244 0.30427 0)
(0.451069 0.300662 0)
(0.480147 0.298717 0)
(0.505118 0.293561 0)
(0.532936 0.292722 0)
(0.554454 0.286752 0)
(0.5773 0.287021 0)
(0.593851 0.286915 0)
(0.65642 0.271279 0)
(1.19382 0.288063 0)
(-1.18909 0.29567 0)
(-0.65472 0.350728 0)
(-0.573293 0.38437 0)
(-0.532971 0.369933 0)
(-0.500946 0.370388 0)
(-0.471187 0.361841 0)
(-0.448705 0.359863 0)
(-0.427549 0.35428 0)
(-0.407547 0.352246 0)
(-0.386345 0.349521 0)
(-0.364145 0.348958 0)
(-0.339055 0.348072 0)
(-0.313429 0.349276 0)
(-0.284852 0.350027 0)
(-0.254009 0.351713 0)
(-0.218396 0.353116 0)
(-0.17734 0.354289 0)
(-0.130492 0.355202 0)
(-0.0799037 0.354313 0)
(-0.0249588 0.357792 0)
(0.0287111 0.357245 0)
(0.0838705 0.3535 0)
(0.134897 0.353724 0)
(0.182467 0.352233 0)
(0.224697 0.350357 0)
(0.262132 0.348148 0)
(0.295447 0.345247 0)
(0.327791 0.343076 0)
(0.357972 0.339361 0)
(0.389627 0.337398 0)
(0.419434 0.333994 0)
(0.448021 0.330399 0)
(0.477573 0.329034 0)
(0.501672 0.323313 0)
(0.529459 0.322393 0)
(0.551176 0.316645 0)
(0.575516 0.31716 0)
(0.59269 0.316186 0)
(0.654016 0.300397 0)
(1.17807 0.32037 0)
(-1.17575 0.349754 0)
(-0.65361 0.378373 0)
(-0.574597 0.408321 0)
(-0.537787 0.398161 0)
(-0.506408 0.398356 0)
(-0.475979 0.390821 0)
(-0.453433 0.390058 0)
(-0.431114 0.383884 0)
(-0.410545 0.382284 0)
(-0.388609 0.380118 0)
(-0.364244 0.378172 0)
(-0.339642 0.378977 0)
(-0.311934 0.378845 0)
(-0.283851 0.380469 0)
(-0.252476 0.381691 0)
(-0.217286 0.383272 0)
(-0.176541 0.384363 0)
(-0.130075 0.385284 0)
(-0.0798222 0.384205 0)
(-0.0250949 0.388097 0)
(0.0282855 0.387553 0)
(0.0832072 0.383367 0)
(0.133906 0.38375 0)
(0.181059 0.382239 0)
(0.222903 0.380458 0)
(0.259636 0.378007 0)
(0.293326 0.375766 0)
(0.324221 0.372406 0)
(0.356485 0.370738 0)
(0.385775 0.366376 0)
(0.41776 0.365294 0)
(0.445374 0.360856 0)
(0.47515 0.359752 0)
(0.499181 0.354415 0)
(0.527359 0.353934 0)
(0.549494 0.348564 0)
(0.575321 0.349412 0)
(0.59338 0.348345 0)
(0.653513 0.333784 0)
(1.16221 0.365349 0)
(-1.15824 0.38937 0)
(-0.649638 0.400561 0)
(-0.572968 0.42813 0)
(-0.53945 0.422994 0)
(-0.508188 0.422482 0)
(-0.477712 0.416079 0)
(-0.455509 0.416487 0)
(-0.43268 0.410843 0)
(-0.412374 0.410635 0)
(-0.388747 0.407762 0)
(-0.365236 0.408196 0)
(-0.338164 0.407487 0)
(-0.311242 0.408889 0)
(-0.281995 0.409852 0)
(-0.251065 0.41148 0)
(-0.216017 0.412936 0)
(-0.175722 0.41406 0)
(-0.129654 0.41497 0)
(-0.0797461 0.413706 0)
(-0.0252305 0.41803 0)
(0.0278464 0.417512 0)
(0.0825408 0.412881 0)
(0.132902 0.413443 0)
(0.179632 0.411953 0)
(0.22092 0.410128 0)
(0.257382 0.407866 0)
(0.290129 0.405118 0)
(0.322054 0.402782 0)
(0.352263 0.39925 0)
(0.383861 0.397118 0)
(0.413651 0.393721 0)
(0.441824 0.389792 0)
(0.471576 0.388647 0)
(0.494627 0.382596 0)
(0.522905 0.381857 0)
(0.545162 0.376456 0)
(0.57238 0.377199 0)
(0.590464 0.374943 0)
(0.649454 0.360443 0)
(1.1441 0.395142 0)
(-1.14159 0.443174 0)
(-0.648581 0.431082 0)
(-0.573888 0.454721 0)
(-0.544222 0.453287 0)
(-0.511077 0.450753 0)
(-0.482009 0.445644 0)
(-0.460062 0.446154 0)
(-0.436477 0.440239 0)
(-0.415429 0.439957 0)
(-0.391421 0.438028 0)
(-0.365638 0.437006 0)
(-0.338618 0.437308 0)
(-0.310183 0.43798 0)
(-0.280806 0.439125 0)
(-0.249622 0.440564 0)
(-0.214842 0.441967 0)
(-0.174925 0.44306 0)
(-0.129246 0.44396 0)
(-0.0796735 0.442526 0)
(-0.0253555 0.447302 0)
(0.0274082 0.446831 0)
(0.0818923 0.441747 0)
(0.131921 0.442498 0)
(0.178234 0.441035 0)
(0.21906 0.439254 0)
(0.255039 0.437039 0)
(0.287842 0.434591 0)
(0.319195 0.431953 0)
(0.350843 0.429677 0)
(0.380764 0.426037 0)
(0.413091 0.425076 0)
(0.439737 0.419935 0)
(0.470369 0.41982 0)
(0.493528 0.414367 0)
(0.52219 0.413812 0)
(0.544777 0.408696 0)
(0.573596 0.410108 0)
(0.592325 0.408055 0)
(0.649853 0.395038 0)
(1.12453 0.441611 0)
(-1.12276 0.478352 0)
(-0.644557 0.453336 0)
(-0.57266 0.474815 0)
(-0.545138 0.475058 0)
(-0.510849 0.470744 0)
(-0.482899 0.46834 0)
(-0.460683 0.468557 0)
(-0.436323 0.462936 0)
(-0.415473 0.464308 0)
(-0.389884 0.462059 0)
(-0.364203 0.462869 0)
(-0.336558 0.463564 0)
(-0.30779 0.464761 0)
(-0.278562 0.466479 0)
(-0.247506 0.468099 0)
(-0.21331 0.469792 0)
(-0.173953 0.471001 0)
(-0.128776 0.471992 0)
(-0.0795708 0.470426 0)
(-0.0254525 0.47567 0)
(0.0269797 0.475262 0)
(0.081253 0.469723 0)
(0.130905 0.470648 0)
(0.176678 0.469119 0)
(0.216859 0.467249 0)
(0.252076 0.464751 0)
(0.284533 0.462199 0)
(0.315288 0.459031 0)
(0.346865 0.456481 0)
(0.376439 0.452535 0)
(0.408129 0.450518 0)
(0.43478 0.445445 0)
(0.464985 0.444548 0)
(0.487798 0.438688 0)
(0.516908 0.438091 0)
(0.539565 0.432846 0)
(0.569502 0.433998 0)
(0.588506 0.431229 0)
(0.645021 0.418857 0)
(1.10451 0.468833 0)
(-1.10094 0.529428 0)
(-0.64291 0.483627 0)
(-0.573557 0.501287 0)
(-0.547679 0.502139 0)
(-0.512985 0.496562 0)
(-0.487095 0.49611 0)
(-0.463923 0.495417 0)
(-0.439791 0.490513 0)
(-0.418672 0.49194 0)
(-0.392012 0.489847 0)
(-0.366031 0.491082 0)
(-0.336939 0.491424 0)
(-0.307855 0.49282 0)
(-0.277853 0.494264 0)
(-0.246692 0.495782 0)
(-0.212532 0.497238 0)
(-0.173436 0.498283 0)
(-0.128531 0.499204 0)
(-0.0795499 0.497477 0)
(-0.0255461 0.503179 0)
(0.026606 0.502847 0)
(0.0807532 0.496876 0)
(0.130154 0.498034 0)
(0.175609 0.496616 0)
(0.21543 0.494938 0)
(0.250471 0.492715 0)
(0.282795 0.4903 0)
(0.314013 0.487499 0)
(0.345563 0.484969 0)
(0.375704 0.481406 0)
(0.407755 0.479697 0)
(0.434083 0.474471 0)
(0.464978 0.474222 0)
(0.487596 0.468656 0)
(0.517319 0.468553 0)
(0.540278 0.463927 0)
(0.571298 0.465491 0)
(0.590542 0.462956 0)
(0.645255 0.452647 0)
(1.08073 0.515141 0)
(-1.07992 0.558689 0)
(-0.63902 0.50522 0)
(-0.572973 0.52118 0)
(-0.548424 0.522054 0)
(-0.513796 0.515711 0)
(-0.489002 0.516801 0)
(-0.464521 0.515057 0)
(-0.439747 0.51092 0)
(-0.417843 0.512733 0)
(-0.389812 0.510825 0)
(-0.36323 0.512992 0)
(-0.33317 0.513675 0)
(-0.303944 0.515933 0)
(-0.273697 0.517847 0)
(-0.242962 0.520101 0)
(-0.20957 0.522201 0)
(-0.171525 0.523952 0)
(-0.127525 0.525368 0)
(-0.0791677 0.523805 0)
(-0.0255104 0.53004 0)
(0.0261852 0.529788 0)
(0.0799728 0.523319 0)
(0.128701 0.524402 0)
(0.173178 0.522542 0)
(0.211832 0.52022 0)
(0.245912 0.517388 0)
(0.277639 0.514369 0)
(0.308573 0.511027 0)
(0.340142 0.508131 0)
(0.369935 0.503815 0)
(0.402538 0.502209 0)
(0.428423 0.496411 0)
(0.459829 0.496176 0)
(0.482379 0.490548 0)
(0.512842 0.490575 0)
(0.536016 0.486044 0)
(0.568114 0.487619 0)
(0.587603 0.484809 0)
(0.640903 0.47525 0)
(1.05902 0.538791 0)
(-1.05215 0.608432 0)
(-0.636223 0.536104 0)
(-0.573469 0.547691 0)
(-0.550162 0.548594 0)
(-0.516265 0.542118 0)
(-0.492608 0.543524 0)
(-0.466363 0.540448 0)
(-0.442146 0.53737 0)
(-0.419515 0.538735 0)
(-0.390671 0.536695 0)
(-0.364157 0.539135 0)
(-0.333382 0.539659 0)
(-0.30404 0.542083 0)
(-0.2735 0.543993 0)
(-0.242797 0.546335 0)
(-0.209567 0.548246 0)
(-0.171762 0.549735 0)
(-0.127876 0.550863 0)
(-0.0794748 0.548966 0)
(-0.0256726 0.555548 0)
(0.0260471 0.555378 0)
(0.079967 0.548608 0)
(0.128693 0.550133 0)
(0.172996 0.548623 0)
(0.211354 0.546655 0)
(0.245125 0.544057 0)
(0.276841 0.541138 0)
(0.307578 0.537759 0)
(0.339602 0.535219 0)
(0.368947 0.530944 0)
(0.401982 0.529939 0)
(0.427652 0.524541 0)
(0.459481 0.524915 0)
(0.482203 0.520048 0)
(0.513474 0.520858 0)
(0.536978 0.517222 0)
(0.569571 0.51891 0)
(0.588993 0.516168 0)
(0.640125 0.509056 0)
(1.03056 0.584497 0)
(-1.02959 0.631001 0)
(-0.632309 0.557867 0)
(-0.573316 0.569461 0)
(-0.551612 0.570233 0)
(-0.518464 0.56365 0)
(-0.495353 0.564907 0)
(-0.466931 0.560144 0)
(-0.442561 0.558529 0)
(-0.418433 0.55939 0)
(-0.388432 0.557228 0)
(-0.361722 0.559929 0)
(-0.329939 0.560017 0)
(-0.300055 0.562249 0)
(-0.268811 0.563762 0)
(-0.237596 0.56577 0)
(-0.204587 0.56784 0)
(-0.167497 0.569821 0)
(-0.124671 0.571669 0)
(-0.0775257 0.570449 0)
(-0.0250624 0.577835 0)
(0.0252249 0.577732 0)
(0.0777814 0.570192 0)
(0.125156 0.571131 0)
(0.168261 0.568952 0)
(0.205729 0.566564 0)
(0.239042 0.563835 0)
(0.271147 0.561403 0)
(0.302116 0.558345 0)
(0.334728 0.556471 0)
(0.363939 0.55236 0)
(0.397232 0.551724 0)
(0.422733 0.546488 0)
(0.455087 0.54717 0)
(0.477896 0.542539 0)
(0.510115 0.543746 0)
(0.53382 0.540338 0)
(0.567165 0.542018 0)
(0.586306 0.538882 0)
(0.635696 0.531128 0)
(1.00758 0.603017 0)
(-0.995206 0.676651 0)
(-0.626089 0.584224 0)
(-0.57223 0.593866 0)
(-0.552819 0.595946 0)
(-0.521174 0.589791 0)
(-0.498694 0.590289 0)
(-0.469362 0.585015 0)
(-0.446796 0.58489 0)
(-0.419597 0.583718 0)
(-0.391276 0.582163 0)
(-0.362835 0.583194 0)
(-0.331023 0.581882 0)
(-0.300737 0.582922 0)
(-0.269227 0.583423 0)
(-0.238797 0.585369 0)
(-0.206043 0.586986 0)
(-0.169339 0.588513 0)
(-0.126731 0.590039 0)
(-0.0791812 0.588327 0)
(-0.0257255 0.595632 0)
(0.0257472 0.595588 0)
(0.0792915 0.588176 0)
(0.127029 0.589721 0)
(0.169865 0.587955 0)
(0.206907 0.586145 0)
(0.239854 0.583956 0)
(0.271141 0.581794 0)
(0.302117 0.579784 0)
(0.33505 0.579412 0)
(0.364511 0.576979 0)
(0.398472 0.578001 0)
(0.42378 0.573975 0)
(0.456684 0.575901 0)
(0.47947 0.572371 0)
(0.511844 0.574094 0)
(0.535496 0.571469 0)
(0.568509 0.572878 0)
(0.586258 0.568078 0)
(0.632478 0.559294 0)
(0.974304 0.64441 0)
(-0.958242 0.671902 0)
(-0.614483 0.590519 0)
(-0.565781 0.605609 0)
(-0.551224 0.611091 0)
(-0.521979 0.606329 0)
(-0.50022 0.606609 0)
(-0.469778 0.600891 0)
(-0.44825 0.601279 0)
(-0.418145 0.598486 0)
(-0.39202 0.598504 0)
(-0.361642 0.597774 0)
(-0.33177 0.597394 0)
(-0.30115 0.59711 0)
(-0.269925 0.596705 0)
(-0.237105 0.597004 0)
(-0.202662 0.598416 0)
(-0.165367 0.600218 0)
(-0.123003 0.601957 0)
(-0.0764285 0.600296 0)
(-0.0246317 0.607625 0)
(0.0245913 0.607612 0)
(0.0764322 0.600205 0)
(0.123094 0.601764 0)
(0.165577 0.599851 0)
(0.203093 0.597858 0)
(0.23764 0.595997 0)
(0.271176 0.595427 0)
(0.302056 0.594628 0)
(0.334668 0.595216 0)
(0.362754 0.59275 0)
(0.39681 0.594464 0)
(0.421236 0.590586 0)
(0.454399 0.592855 0)
(0.476813 0.589597 0)
(0.509292 0.591307 0)
(0.532545 0.5885 0)
(0.563983 0.588624 0)
(0.577748 0.579972 0)
(0.620112 0.566012 0)
(0.94015 0.635732 0)
(-0.970634 0.608698 0)
(-0.595564 0.61308 0)
(-0.558865 0.636018 0)
(-0.550219 0.646642 0)
(-0.52145 0.646534 0)
(-0.499058 0.649657 0)
(-0.464961 0.647846 0)
(-0.441616 0.651041 0)
(-0.40811 0.650416 0)
(-0.38137 0.653212 0)
(-0.348245 0.653836 0)
(-0.31852 0.655908 0)
(-0.286332 0.656793 0)
(-0.256325 0.657061 0)
(-0.226955 0.654886 0)
(-0.198052 0.651183 0)
(-0.163757 0.646415 0)
(-0.122967 0.641798 0)
(-0.0763459 0.63659 0)
(-0.0239625 0.641083 0)
(0.0239188 0.641092 0)
(0.076335 0.636566 0)
(0.123003 0.641727 0)
(0.163846 0.646225 0)
(0.198269 0.650836 0)
(0.22725 0.654247 0)
(0.256931 0.656316 0)
(0.286405 0.6553 0)
(0.319976 0.654679 0)
(0.348015 0.650751 0)
(0.383583 0.650829 0)
(0.408498 0.645738 0)
(0.443681 0.646 0)
(0.466815 0.641224 0)
(0.501822 0.640475 0)
(0.524575 0.635787 0)
(0.555114 0.632542 0)
(0.563614 0.61966 0)
(0.598107 0.59553 0)
(0.96533 0.565589 0)
(-1.02112 1.02464 0)
(-0.57296 0.964342 0)
(-0.628862 0.946248 0)
(-0.637057 0.979914 0)
(-0.594573 1.0134 0)
(-0.575887 1.03644 0)
(-0.528728 1.06524 0)
(-0.50448 1.0873 0)
(-0.456594 1.11134 0)
(-0.428092 1.13177 0)
(-0.380316 1.15142 0)
(-0.348868 1.16977 0)
(-0.303178 1.18559 0)
(-0.268933 1.20153 0)
(-0.226095 1.21495 0)
(-0.189863 1.22884 0)
(-0.150229 1.23975 0)
(-0.111819 1.24831 0)
(-0.0704293 1.2537 0)
(-0.022898 1.26601 0)
(0.0228807 1.26601 0)
(0.0704121 1.2537 0)
(0.111803 1.24832 0)
(0.150213 1.23976 0)
(0.189857 1.22885 0)
(0.226073 1.21496 0)
(0.268982 1.20151 0)
(0.303176 1.18552 0)
(0.34909 1.16968 0)
(0.38039 1.15124 0)
(0.428525 1.13152 0)
(0.456975 1.11094 0)
(0.505206 1.08669 0)
(0.529713 1.06434 0)
(0.577438 1.03503 0)
(0.596941 1.0113 0)
(0.640677 0.976625 0)
(0.632529 0.941135 0)
(0.57786 0.958087 0)
(1.01957 1.02455 0)
(-1.02112 -1.02464 0)
(-0.57296 -0.964342 0)
(-0.628862 -0.946248 0)
(-0.637057 -0.979914 0)
(-0.594573 -1.0134 0)
(-0.575887 -1.03644 0)
(-0.528728 -1.06524 0)
(-0.50448 -1.0873 0)
(-0.456594 -1.11134 0)
(-0.428092 -1.13177 0)
(-0.380316 -1.15142 0)
(-0.348868 -1.16977 0)
(-0.303178 -1.18559 0)
(-0.268933 -1.20153 0)
(-0.226095 -1.21495 0)
(-0.189863 -1.22884 0)
(-0.150229 -1.23975 0)
(-0.111819 -1.24831 0)
(-0.0704293 -1.2537 0)
(-0.022898 -1.26601 0)
(0.0228807 -1.26601 0)
(0.0704121 -1.2537 0)
(0.111803 -1.24832 0)
(0.150213 -1.23976 0)
(0.189857 -1.22885 0)
(0.226073 -1.21496 0)
(0.268982 -1.20151 0)
(0.303176 -1.18552 0)
(0.34909 -1.16968 0)
(0.38039 -1.15124 0)
(0.428525 -1.13152 0)
(0.456975 -1.11094 0)
(0.505206 -1.08669 0)
(0.529713 -1.06434 0)
(0.577438 -1.03503 0)
(0.596941 -1.0113 0)
(0.640677 -0.976625 0)
(0.632529 -0.941135 0)
(0.57786 -0.958087 0)
(1.01957 -1.02455 0)
(-0.970634 -0.608698 0)
(-0.595564 -0.61308 0)
(-0.558865 -0.636018 0)
(-0.550219 -0.646642 0)
(-0.52145 -0.646534 0)
(-0.499058 -0.649657 0)
(-0.464961 -0.647846 0)
(-0.441616 -0.651041 0)
(-0.40811 -0.650416 0)
(-0.38137 -0.653212 0)
(-0.348245 -0.653836 0)
(-0.31852 -0.655908 0)
(-0.286332 -0.656793 0)
(-0.256325 -0.657061 0)
(-0.226955 -0.654886 0)
(-0.198052 -0.651183 0)
(-0.163757 -0.646415 0)
(-0.122967 -0.641798 0)
(-0.0763459 -0.63659 0)
(-0.0239625 -0.641083 0)
(0.0239188 -0.641092 0)
(0.076335 -0.636566 0)
(0.123003 -0.641727 0)
(0.163846 -0.646225 0)
(0.198269 -0.650836 0)
(0.22725 -0.654247 0)
(0.256931 -0.656316 0)
(0.286405 -0.6553 0)
(0.319976 -0.654679 0)
(0.348015 -0.650751 0)
(0.383583 -0.650829 0)
(0.408498 -0.645738 0)
(0.443681 -0.646 0)
(0.466815 -0.641224 0)
(0.501822 -0.640475 0)
(0.524575 -0.635787 0)
(0.555114 -0.632542 0)
(0.563614 -0.61966 0)
(0.598107 -0.59553 0)
(0.96533 -0.565589 0)
(-0.958242 -0.671902 0)
(-0.614483 -0.590519 0)
(-0.565781 -0.605609 0)
(-0.551224 -0.611091 0)
(-0.521979 -0.606329 0)
(-0.50022 -0.606609 0)
(-0.469778 -0.600891 0)
(-0.44825 -0.601279 0)
(-0.418145 -0.598486 0)
(-0.39202 -0.598504 0)
(-0.361642 -0.597774 0)
(-0.33177 -0.597394 0)
(-0.30115 -0.59711 0)
(-0.269925 -0.596705 0)
(-0.237105 -0.597004 0)
(-0.202662 -0.598416 0)
(-0.165367 -0.600218 0)
(-0.123003 -0.601957 0)
(-0.0764285 -0.600296 0)
(-0.0246317 -0.607625 0)
(0.0245913 -0.607612 0)
(0.0764322 -0.600205 0)
(0.123094 -0.601764 0)
(0.165577 -0.599851 0)
(0.203093 -0.597858 0)
(0.23764 -0.595997 0)
(0.271176 -0.595427 0)
(0.302056 -0.594628 0)
(0.334668 -0.595216 0)
(0.362754 -0.59275 0)
(0.39681 -0.594464 0)
(0.421236 -0.590586 0)
(0.454399 -0.592855 0)
(0.476813 -0.589597 0)
(0.509292 -0.591307 0)
(0.532545 -0.5885 0)
(0.563983 -0.588624 0)
(0.577748 -0.579972 0)
(0.620112 -0.566012 0)
(0.94015 -0.635732 0)
(-0.995206 -0.676651 0)
(-0.626089 -0.584224 0)
(-0.57223 -0.593866 0)
(-0.552819 -0.595946 0)
(-0.521174 -0.589791 0)
(-0.498694 -0.590289 0)
(-0.469362 -0.585015 0)
(-0.446796 -0.58489 0)
(-0.419597 -0.583718 0)
(-0.391276 -0.582163 0)
(-0.362835 -0.583194 0)
(-0.331023 -0.581882 0)
(-0.300737 -0.582922 0)
(-0.269227 -0.583423 0)
(-0.238797 -0.585369 0)
(-0.206043 -0.586986 0)
(-0.169339 -0.588513 0)
(-0.126731 -0.590039 0)
(-0.0791812 -0.588327 0)
(-0.0257255 -0.595632 0)
(0.0257472 -0.595588 0)
(0.0792915 -0.588176 0)
(0.127029 -0.589721 0)
(0.169865 -0.587955 0)
(0.206907 -0.586145 0)
(0.239854 -0.583956 0)
(0.271141 -0.581794 0)
(0.302117 -0.579784 0)
(0.33505 -0.579412 0)
(0.364511 -0.576979 0)
(0.398472 -0.578001 0)
(0.42378 -0.573975 0)
(0.456684 -0.575901 0)
(0.47947 -0.572371 0)
(0.511844 -0.574094 0)
(0.535496 -0.571469 0)
(0.568509 -0.572878 0)
(0.586258 -0.568078 0)
(0.632478 -0.559294 0)
(0.974304 -0.64441 0)
(-1.02959 -0.631001 0)
(-0.632309 -0.557867 0)
(-0.573316 -0.569461 0)
(-0.551612 -0.570233 0)
(-0.518464 -0.56365 0)
(-0.495353 -0.564907 0)
(-0.466931 -0.560144 0)