/*--------------------------------*- C++ -*----------------------------------*\
| =========                 |                                                 |
| \\      /  F ield         | OpenFOAM: The Open Source CFD Toolbox           |
|  \\    /   O peration     | Version:  v1912                                 |
|   \\  /    A nd           | Website:  www.openfoam.com                      |
|    \\/     M anipulation  |                                                 |
\*---------------------------------------------------------------------------*/
FoamFile
{
    version     2.0;
    format      ascii;
    class       volVectorField;
    location    "7.36";
    object      grad(T);
}
// * * * * * * * * * * * * * * * * * * * * * * * * * * * * * * * * * * * * * //

dimensions      [0 -1 0 1 0 0 0];


internalField   nonuniform List<vector> 
1900
(
(1.16578 2.10135e-07 0)
(-1.65491 7.24619e-06 0)
(-0.268293 -9.35809e-07 0)
(-0.00285815 -3.26362e-06 0)
(0.0533438 -2.94881e-05 0)
(0.0898331 2.15927e-05 0)
(0.0830445 -6.0856e-05 0)
(0.048051 0.000698497 0)
(0.019414 0.00161373 0)
(0.0319623 -9.34614e-05 0)
(1.16579 1.41052e-07 0)
(-1.65491 1.16249e-05 0)
(-0.268304 -3.07045e-08 0)
(-0.0028867 2.2074e-06 0)
(0.0533687 -3.19557e-05 0)
(0.0898018 6.31532e-05 0)
(0.0837214 -5.5583e-05 0)
(0.0497256 0.000462819 0)
(0.0186221 0.0003901 0)
(0.00294742 -0.00135725 0)
(1.1658 -3.38271e-13 0)
(-1.65491 -3.88144e-13 0)
(-0.268303 -3.31766e-13 0)
(-0.00289007 -7.15573e-14 0)
(0.0534048 -8.67362e-14 0)
(0.0898095 -3.36103e-14 0)
(0.0834442 1.50704e-13 0)
(0.0484966 1.6263e-14 0)
(0.017594 -2.49366e-14 0)
(-0.000767399 2.81893e-14 0)
(1.16579 -1.41053e-07 0)
(-1.65491 -1.16249e-05 0)
(-0.268304 3.07035e-08 0)
(-0.0028867 -2.2074e-06 0)
(0.0533687 3.19557e-05 0)
(0.0898018 -6.31532e-05 0)
(0.0837214 5.5583e-05 0)
(0.0497256 -0.000462819 0)
(0.0186221 -0.0003901 0)
(0.00294742 0.00135725 0)
(1.16578 -2.10135e-07 0)
(-1.65491 -7.24619e-06 0)
(-0.268293 9.35809e-07 0)
(-0.00285815 3.26362e-06 0)
(0.0533438 2.94881e-05 0)
(0.0898331 -2.15927e-05 0)
(0.0830445 6.0856e-05 0)
(0.048051 -0.000698497 0)
(0.019414 -0.00161373 0)
(0.0319623 9.34614e-05 0)
(0.00600797 -0.0235893 9.43042e-16)
(-0.0043308 -0.0189403 -1.1325e-15)
(0.105242 -0.0291511 -1.43869e-15)
(0.39717 -0.0578486 0)
(-0.507976 -0.319855 -6.49025e-15)
(-0.0107318 -0.0281236 9.3878e-16)
(0.00448073 -0.0233218 1.1325e-15)
(0.088624 -0.0374594 1.43869e-15)
(0.288661 -0.0630532 0)
(-0.44316 -0.355263 0)
(-0.0221196 9.82067e-15 0)
(-0.00357722 -7.13291e-15 0)
(0.079169 -3.91517e-14 0)
(0.260021 0 0)
(-0.572124 -6.45358e-14 0)
(-0.0107318 0.0281236 9.3878e-16)
(0.00448073 0.0233218 1.1325e-15)
(0.088624 0.0374594 1.43869e-15)
(0.288661 0.0630532 0)
(-0.44316 0.355263 0)
(0.00600797 0.0235893 -2.8206e-15)
(-0.0043308 0.0189403 -1.1325e-15)
(0.105242 0.0291511 -1.43869e-15)
(0.39717 0.0578486 -3.96629e-15)
(-0.507976 0.319855 6.49025e-15)
(-1.88255 0.451693 2.19616e-15)
(-0.965525 0.316133 -1.58886e-15)
(-0.59324 0.213979 0)
(-0.414493 0.199925 1.01852e-15)
(-0.283193 0.0906706 -4.2755e-16)
(-1.67946 0.449429 -1.10488e-15)
(-1.00707 0.207504 7.9919e-16)
(-0.6103 0.109049 0)
(-0.450702 0.13044 -6.4132e-16)
(-0.299328 -0.0234336 1.07394e-16)
(-1.73118 4.38061e-14 0)
(-1.0636 1.34367e-13 0)
(-0.621219 1.04405e-13 0)
(-0.479975 7.08629e-14 2.58099e-16)
(-0.291337 -9.98607e-14 -2.14787e-16)
(-1.67946 -0.449429 -1.10488e-15)
(-1.00707 -0.207504 7.9919e-16)
(-0.6103 -0.109049 0)
(-0.450702 -0.13044 -6.4132e-16)
(-0.299328 0.0234336 1.07394e-16)
(-1.88255 -0.451693 1.10488e-15)
(-0.965525 -0.316133 -9.5209e-18)
(-0.59324 -0.213979 0)
(-0.414493 -0.199925 6.02109e-18)
(-0.283193 -0.0906706 4.2755e-16)
(-0.178129 0.567831 0)
(-0.0954377 0.603732 0)
(-0.0593097 0.621053 0)
(-0.0892894 0.582684 0)
(-0.0975217 0.469029 0)
(-0.0139509 0.283027 0)
(0.285781 0.215669 0)
(0.532721 0.179744 0)
(0.319388 0.186719 0)
(0.0423322 0.132075 0)
(-0.0488477 0.109854 0)
(-0.141474 0.0762094 0)
(-0.221622 0.055674 0)
(-0.209525 0.0294867 0)
(-0.160996 0.0194057 0)
(-0.156843 0.017513 0)
(-0.197447 0.0150933 0)
(-0.243707 0.0132913 0)
(-0.210691 0.00876191 0)
(-0.110338 0.00211379 0)
(-0.0453397 -3.55466e-05 0)
(-0.029518 0.000164548 0)
(-0.0260336 0.000273009 0)
(-0.0213218 -7.38234e-05 0)
(-0.0139779 -0.000382613 0)
(-0.00649104 -0.000501533 0)
(-0.00105511 -0.000491137 0)
(0.00168627 -0.000419051 0)
(0.003403 -0.000365194 0)
(0.00469227 -0.000290607 0)
(0.0055377 -0.000253669 0)
(0.0126055 -0.000179511 0)
(0.0477047 -0.000231199 0)
(0.186237 -0.000522434 0)
(0.289381 -0.000347382 0)
(0.226021 0.0010345 0)
(0.149596 -0.000642453 0)
(0.126337 0.00189078 0)
(0.080339 -0.000173939 0)
(0.0189052 -0.000956185 0)
(-0.121913 0.141775 0)
(-0.0460177 0.314091 0)
(-0.0460548 0.3955 0)
(-0.106093 0.418687 0)
(-0.147052 0.368047 0)
(-0.0555072 0.207387 0)
(0.27056 0.170034 0)
(0.520565 0.118071 0)
(0.308234 0.113073 0)
(0.0311822 0.0688017 0)
(-0.0588973 0.0494567 0)
(-0.147808 0.0230842 0)
(-0.224363 0.0376821 0)
(-0.212018 0.0453693 0)
(-0.160219 0.0199534 0)
(-0.155915 0.00967776 0)
(-0.198345 0.00569767 0)
(-0.245542 0.0051946 0)
(-0.212398 0.00387278 0)
(-0.11118 0.000916033 0)
(-0.0454697 -4.96359e-05 0)
(-0.0294733 0.000107797 0)
(-0.0260624 0.000142278 0)
(-0.0213892 -2.9439e-05 0)
(-0.0140162 -0.00017709 0)
(-0.00649841 -0.000220338 0)
(-0.00104724 -0.000211795 0)
(0.00169745 -0.000181594 0)
(0.00341462 -0.000160519 0)
(0.00470191 -0.000130083 0)
(0.00554565 -0.000117258 0)
(0.0126088 -9.71021e-05 0)
(0.0476551 -9.99371e-05 0)
(0.186207 -0.000336869 0)
(0.289536 -0.000250894 0)
(0.225927 0.000385305 0)
(0.149528 -0.000720322 0)
(0.126423 0.000147168 0)
(0.0802672 -0.000184595 0)
(0.0189105 -0.000306244 0)
(-0.0699138 1.20248e-13 0)
(-0.0216266 1.37989e-14 0)
(-0.0288819 4.23824e-13 0)
(-0.0972757 1.6953e-13 0)
(-0.158991 -9.89581e-13 0)
(-0.0715549 -5.79555e-13 0)
(0.259799 1.0842e-13 0)
(0.516151 5.99268e-13 0)
(0.305055 -2.71445e-12 0)
(0.0238258 -7.03154e-12 0)
(-0.0621473 -6.57618e-12 0)
(-0.144899 -6.1287e-12 0)
(-0.215139 -3.64489e-12 0)
(-0.214683 -3.76514e-13 0)
(-0.171379 -1.21825e-12 0)
(-0.16099 -9.52127e-13 0)
(-0.198751 1.02901e-12 0)
(-0.244238 1.28133e-12 0)
(-0.211935 2.04027e-12 0)
(-0.11148 7.07688e-13 0)
(-0.0455748 7.23459e-13 0)
(-0.0294622 2.48381e-13 0)
(-0.0260735 -9.18615e-13 0)
(-0.0214147 -1.59673e-12 0)
(-0.0140334 -4.51422e-13 0)
(-0.00650114 1.29316e-12 0)
(-0.00104384 2.2788e-12 0)
(0.00170119 2.76176e-12 0)
(0.00341798 2.06984e-12 0)
(0.00470486 1.06449e-12 0)
(0.0055473 9.40299e-13 0)
(0.0126105 2.20783e-13 0)
(0.0476349 -2.75979e-13 0)
(0.186193 -2.37539e-12 0)
(0.289591 5.81527e-13 0)
(0.225884 2.06984e-13 0)
(0.149527 -7.94425e-13 0)
(0.126493 -2.81893e-13 0)
(0.0802071 -4.19882e-13 0)
(0.0188698 -5.20417e-13 0)
(-0.121913 -0.141775 0)
(-0.0460177 -0.314091 0)
(-0.0460548 -0.3955 0)
(-0.106093 -0.418687 0)
(-0.147052 -0.368047 0)
(-0.0555072 -0.207387 0)
(0.27056 -0.170034 0)
(0.520565 -0.118071 0)
(0.308234 -0.113073 0)
(0.0311822 -0.0688017 0)
(-0.0588973 -0.0494567 0)
(-0.147808 -0.0230842 0)
(-0.224363 -0.0376821 0)
(-0.212018 -0.0453693 0)
(-0.160219 -0.0199534 0)
(-0.155915 -0.00967776 0)
(-0.198345 -0.00569767 0)
(-0.245542 -0.0051946 0)
(-0.212398 -0.00387278 0)
(-0.11118 -0.000916033 0)
(-0.0454697 4.96359e-05 0)
(-0.0294733 -0.000107797 0)
(-0.0260624 -0.000142278 0)
(-0.0213892 2.9439e-05 0)
(-0.0140162 0.00017709 0)
(-0.00649841 0.000220338 0)
(-0.00104724 0.000211795 0)
(0.00169745 0.000181594 0)
(0.00341462 0.000160519 0)
(0.00470191 0.000130083 0)
(0.00554565 0.000117258 0)
(0.0126088 9.71021e-05 0)
(0.0476551 9.99371e-05 0)
(0.186207 0.000336869 0)
(0.289536 0.000250894 0)
(0.225927 -0.000385305 0)
(0.149528 0.000720322 0)
(0.126423 -0.000147168 0)
(0.0802672 0.000184595 0)
(0.0189105 0.000306244 0)
(-0.178129 -0.567831 0)
(-0.0954377 -0.603732 0)
(-0.0593097 -0.621053 0)
(-0.0892894 -0.582684 0)
(-0.0975217 -0.469029 0)
(-0.0139509 -0.283027 0)
(0.285781 -0.215669 0)
(0.532721 -0.179744 0)
(0.319388 -0.186719 0)
(0.0423322 -0.132075 0)
(-0.0488477 -0.109854 0)
(-0.141474 -0.0762094 0)
(-0.221622 -0.055674 0)
(-0.209525 -0.0294867 0)
(-0.160996 -0.0194057 0)
(-0.156843 -0.017513 0)
(-0.197447 -0.0150933 0)
(-0.243707 -0.0132913 0)
(-0.210691 -0.00876191 0)
(-0.110338 -0.00211379 0)
(-0.0453397 3.55466e-05 0)
(-0.029518 -0.000164548 0)
(-0.0260336 -0.000273009 0)
(-0.0213218 7.38234e-05 0)
(-0.0139779 0.000382613 0)
(-0.00649104 0.000501533 0)
(-0.00105511 0.000491137 0)
(0.00168627 0.000419051 0)
(0.003403 0.000365194 0)
(0.00469227 0.000290607 0)
(0.0055377 0.000253669 0)
(0.0126055 0.000179511 0)
(0.0477047 0.000231199 0)
(0.186237 0.000522434 0)
(0.289381 0.000347382 0)
(0.226021 -0.0010345 0)
(0.149596 0.000642453 0)
(0.126337 -0.00189078 0)
(0.080339 0.000173939 0)
(0.0189052 0.000956185 0)
(-0.0125331 -0.589521 0)
(-0.0222605 -0.500854 0)
(-0.0175262 -0.470692 0)
(-0.0301612 -0.43133 0)
(-0.0163541 -0.3337 0)
(0.0553691 -0.233137 0)
(0.317748 -0.133041 0)
(0.52467 -0.135831 0)
(0.32524 -0.189726 0)
(0.0665056 -0.148272 0)
(-0.0354742 -0.138023 0)
(-0.121146 -0.127681 0)
(-0.198224 -0.104285 0)
(-0.192151 -0.0607572 0)
(-0.15181 -0.0348594 0)
(-0.152136 -0.0243174 0)
(-0.196735 -0.0221236 0)
(-0.243692 -0.0232488 0)
(-0.207362 -0.0163641 0)
(-0.106634 -0.00396568 0)
(-0.0443973 -0.000120357 0)
(-0.0296151 -0.000269682 0)
(-0.0259462 -0.000391172 0)
(-0.0210559 9.80247e-05 0)
(-0.0137922 0.000623047 0)
(-0.00643885 0.000873974 0)
(-0.00108988 0.000872622 0)
(0.00163137 0.000746458 0)
(0.00334749 0.000648022 0)
(0.00464311 0.000522253 0)
(0.00548515 0.000439965 0)
(0.0125985 0.000303324 0)
(0.0478128 0.000382099 0)
(0.186245 0.000662423 0)
(0.288739 0.000356506 0)
(0.226003 -0.00146942 0)
(0.148912 8.40751e-05 0)
(0.126229 -0.00345755 0)
(0.0819701 -0.000224923 0)
(0.0194073 0.00107813 0)
(-0.00715177 -0.166727 0)
(-0.0201697 -0.150659 0)
(-0.0147197 -0.143867 0)
(0.0110147 -0.133319 0)
(0.0499397 -0.0812281 0)
(0.14224 -0.0277611 0)
(0.362407 0.0490726 0)
(0.482415 -0.0209505 0)
(0.304261 -0.113277 0)
(0.0791924 -0.139062 0)
(-0.0361763 -0.138841 0)
(-0.119863 -0.149403 0)
(-0.169679 -0.128911 0)
(-0.151941 -0.0771981 0)
(-0.130807 -0.0480554 0)
(-0.147094 -0.0401868 0)
(-0.196798 -0.0406284 0)
(-0.238165 -0.0402535 0)
(-0.193894 -0.0245217 0)
(-0.0966717 -0.00533821 0)
(-0.0422835 -0.000285627 0)
(-0.029727 -0.000356266 0)
(-0.0257261 -0.000348997 0)
(-0.020487 0.000260257 0)
(-0.0133297 0.000987561 0)
(-0.00627853 0.00138736 0)
(-0.00115935 0.00141706 0)
(0.00149928 0.00124292 0)
(0.00321671 0.00109854 0)
(0.00451814 0.000914569 0)
(0.00535491 0.000772558 0)
(0.0125535 0.000565951 0)
(0.0479927 0.000628925 0)
(0.186208 0.000966087 0)
(0.287671 0.000341237 0)
(0.225768 -0.00149486 0)
(0.148047 -0.000556254 0)
(0.126097 -0.00246964 0)
(0.0838351 1.91389e-05 0)
(0.0198916 0.000736193 0)
(0.00295041 0.0191158 0)
(-0.000231822 0.0267912 0)
(-0.000817034 0.0402929 0)
(0.0301996 0.0551614 0)
(0.0853654 0.0855378 0)
(0.180932 0.122362 0)
(0.324311 0.152003 0)
(0.368224 0.0726778 0)
(0.211423 -0.0596954 0)
(0.0418713 -0.113431 0)
(-0.0454388 -0.138577 0)
(-0.111577 -0.156499 0)
(-0.128644 -0.121873 0)
(-0.114236 -0.0773838 0)
(-0.116144 -0.0589197 0)
(-0.144979 -0.0545994 0)
(-0.1968 -0.0555852 0)
(-0.228171 -0.0532897 0)
(-0.173716 -0.0293864 0)
(-0.0832796 -0.00581196 0)
(-0.0395965 -0.000383913 0)
(-0.0296762 -0.000320245 0)
(-0.0253521 -0.000121971 0)
(-0.0197679 0.00062911 0)
(-0.0127061 0.00150647 0)
(-0.00602497 0.00202262 0)
(-0.00122907 0.00208737 0)
(0.00132443 0.00188264 0)
(0.00303108 0.00170409 0)
(0.00432898 0.00146572 0)
(0.00514921 0.00126265 0)
(0.01246 0.000981272 0)
(0.0481984 0.00104362 0)
(0.185968 0.00148429 0)
(0.286367 0.000498217 0)
(0.225138 -0.00136624 0)
(0.147972 -0.00094814 0)
(0.126783 -0.00101867 0)
(0.0850593 0.00069565 0)
(0.0200983 0.000929352 0)
(0.000244525 0.0521782 0)
(0.000237351 0.0511572 0)
(0.0126189 0.066654 0)
(0.0546144 0.0983091 0)
(0.114697 0.130766 0)
(0.206288 0.164794 0)
(0.314529 0.17804 0)
(0.278415 0.0861819 0)
(0.12492 -0.0426638 0)
(0.0031795 -0.100236 0)
(-0.0776785 -0.14041 0)
(-0.103766 -0.137402 0)
(-0.0934408 -0.102162 0)
(-0.0912768 -0.0777384 0)
(-0.108851 -0.0692554 0)
(-0.143881 -0.0661612 0)
(-0.195536 -0.0680638 0)
(-0.212919 -0.0624126 0)
(-0.148143 -0.0296252 0)
(-0.0687238 -0.00528723 0)
(-0.0369914 -0.000547171 0)
(-0.0294745 -0.000313074 0)
(-0.0248113 0.000109931 0)
(-0.0189178 0.001051 0)
(-0.0119869 0.00204087 0)
(-0.00571875 0.00262691 0)
(-0.00129424 0.00271605 0)
(0.00112993 0.00250105 0)
(0.00281495 0.0023054 0)
(0.00409276 0.00203527 0)
(0.00488808 0.0017857 0)
(0.0123424 0.00145068 0)
(0.0484774 0.00151222 0)
(0.185682 0.0019753 0)
(0.284924 0.00055154 0)
(0.224374 -0.00142414 0)
(0.148382 -0.00130282 0)
(0.127681 -0.000498828 0)
(0.0857123 0.000857961 0)
(0.0201168 0.000966619 0)
(0.00196654 0.112858 0)
(0.0137176 0.121442 0)
(0.0446202 0.150422 0)
(0.09198 0.185279 0)
(0.149432 0.207562 0)
(0.226486 0.220386 0)
(0.248558 0.166541 0)
(0.155546 0.02836 0)
(0.0317836 -0.0694392 0)
(-0.0523204 -0.128838 0)
(-0.0812526 -0.137848 0)
(-0.0747207 -0.113348 0)
(-0.0711507 -0.0896186 0)
(-0.0825256 -0.0806448 0)
(-0.104988 -0.0754413 0)
(-0.143831 -0.0742028 0)
(-0.193187 -0.0791903 0)
(-0.19113 -0.0661315 0)
(-0.118668 -0.0253975 0)
(-0.0552589 -0.00411342 0)
(-0.0348032 -0.000631336 0)
(-0.029043 -0.000262491 0)
(-0.0240376 0.000429555 0)
(-0.0179072 0.00156817 0)
(-0.0111875 0.00264532 0)
(-0.00537435 0.00327118 0)
(-0.00135036 0.00337842 0)
(0.000928718 0.00317306 0)
(0.00258224 0.00298034 0)
(0.00382818 0.00270455 0)
(0.00458588 0.0024378 0)
(0.0121965 0.00209088 0)
(0.048704 0.00217618 0)
(0.185042 0.00281119 0)
(0.283092 0.00129776 0)
(0.223351 -0.000864608 0)
(0.148864 -0.00117504 0)
(0.128865 -0.000110999 0)
(0.0864715 0.00103297 0)
(0.020203 0.000894011 0)
(0.00851678 0.191805 0)
(0.0364357 0.205556 0)
(0.074134 0.223159 0)
(0.109676 0.218741 0)
(0.148527 0.205156 0)
(0.166759 0.161797 0)
(0.129486 0.0538234 0)
(0.0510156 -0.0497322 0)
(-0.0265617 -0.112502 0)
(-0.0627416 -0.135423 0)
(-0.0627519 -0.116216 0)
(-0.057291 -0.0960972 0)
(-0.0619269 -0.0871239 0)
(-0.077615 -0.0819678 0)
(-0.102643 -0.0778487 0)
(-0.147493 -0.0821608 0)
(-0.187759 -0.0881623 0)
(-0.161082 -0.0610062 0)
(-0.0883798 -0.0185471 0)
(-0.0448582 -0.0032527 0)
(-0.0332806 -0.00093661 0)
(-0.0284522 -0.000304941 0)
(-0.0230472 0.000723539 0)
(-0.0167826 0.00203274 0)
(-0.0103458 0.00318234 0)
(-0.00501231 0.00384107 0)
(-0.00138879 0.00395794 0)
(0.000746328 0.00377003 0)
(0.00236348 0.00360847 0)
(0.00356995 0.0033469 0)
(0.00429673 0.00310029 0)
(0.0120903 0.00277949 0)
(0.0491715 0.00286479 0)
(0.184836 0.00339498 0)
(0.281382 0.00163542 0)
(0.221991 -0.000454939 0)
(0.149108 -0.000905225 0)
(0.129809 3.09206e-05 0)
(0.0866807 0.00100916 0)
(0.0199829 0.000733422 0)
(0.0152178 0.224481 0)
(0.0439314 0.237965 0)
(0.057326 0.207768 0)
(0.0746321 0.175624 0)
(0.094559 0.12331 0)
(0.0806567 0.0453121 0)
(0.0447206 -0.0318183 0)
(-0.00473092 -0.101581 0)
(-0.0507907 -0.133453 0)
(-0.0558996 -0.119135 0)
(-0.0433572 -0.100861 0)
(-0.0466865 -0.0901307 0)
(-0.0575351 -0.0854042 0)
(-0.0735876 -0.0802376 0)
(-0.105174 -0.0815447 0)
(-0.15377 -0.0928412 0)
(-0.172802 -0.090216 0)
(-0.124046 -0.0470231 0)
(-0.0630146 -0.0117638 0)
(-0.0382889 -0.00261791 0)
(-0.0319626 -0.00111938 0)
(-0.0274432 -0.000105639 0)
(-0.0217849 0.00128765 0)
(-0.0155378 0.00276072 0)
(-0.00944491 0.00394361 0)
(-0.00462696 0.00459067 0)
(-0.00141881 0.00469974 0)
(0.000591954 0.00452843 0)
(0.00217449 0.00437798 0)
(0.00333849 0.00413925 0)
(0.0040391 0.00392599 0)
(0.0119696 0.00365416 0)
(0.0492971 0.00376145 0)
(0.183857 0.00421911 0)
(0.279382 0.0022147 0)
(0.220903 -5.80959e-05 0)
(0.149332 -0.00061522 0)
(0.13071 6.85433e-05 0)
(0.0871485 0.00102215 0)
(0.0199373 0.000873376 0)
(0.021511 0.209506 0)
(0.0203304 0.207254 0)
(0.0140597 0.143194 0)
(0.0282894 0.0993587 0)
(0.0229537 0.0340365 0)
(0.0172717 -0.031129 0)
(-0.0120653 -0.0948935 0)
(-0.0469236 -0.126895 0)
(-0.0434777 -0.121077 0)
(-0.031334 -0.0984928 0)
(-0.034802 -0.0907314 0)
(-0.0423967 -0.0867344 0)
(-0.0523935 -0.0807539 0)
(-0.0738959 -0.0794337 0)
(-0.114788 -0.0892898 0)
(-0.155849 -0.101073 0)
(-0.143607 -0.078149 0)
(-0.0854829 -0.0298462 0)
(-0.0455893 -0.00712248 0)
(-0.0346009 -0.00219875 0)
(-0.0308596 -0.000908763 0)
(-0.0261327 0.000546763 0)
(-0.0202851 0.00221963 0)
(-0.0142232 0.00380453 0)
(-0.00858241 0.00497509 0)
(-0.00428367 0.0055665 0)
(-0.00144877 0.0056654 0)
(0.000436264 0.00551505 0)
(0.00198845 0.00534294 0)
(0.00313439 0.00514791 0)
(0.00382928 0.00498705 0)
(0.0119317 0.00481659 0)
(0.0497159 0.00495598 0)
(0.183345 0.00530728 0)
(0.27726 0.00308689 0)
(0.219264 0.000705317 0)
(0.14923 -8.51426e-05 0)
(0.131387 0.000438523 0)
(0.0874563 0.00141779 0)
(0.0198395 0.00134306 0)
(0.0130473 0.165448 0)
(-0.0199701 0.105673 0)
(-0.0466461 0.0642615 0)
(-0.0305556 0.0162363 0)
(-0.0311837 -0.0369327 0)
(-0.0435849 -0.0830597 0)
(-0.0475627 -0.114779 0)
(-0.0299625 -0.108795 0)
(-0.0234217 -0.0911338 0)
(-0.0266572 -0.0875563 0)
(-0.0320264 -0.0857359 0)
(-0.0370719 -0.0796793 0)
(-0.0504998 -0.0769382 0)
(-0.0818132 -0.0840691 0)
(-0.126027 -0.0994361 0)
(-0.143034 -0.0967255 0)
(-0.104165 -0.0531424 0)
(-0.0556021 -0.0155334 0)
(-0.0363725 -0.00389473 0)
(-0.0323011 -0.00132919 0)
(-0.029317 0.00023408 0)
(-0.0244286 0.00210232 0)
(-0.0186456 0.00393443 0)
(-0.0128825 0.00549673 0)
(-0.00774701 0.00654308 0)
(-0.00396175 0.00700151 0)
(-0.00146839 0.00703722 0)
(0.00028122 0.00685983 0)
(0.0018207 0.00665214 0)
(0.00299554 0.00648515 0)
(0.00371983 0.00638174 0)
(0.0119396 0.00632632 0)
(0.0497699 0.00651387 0)
(0.182056 0.00670141 0)
(0.274947 0.00415992 0)
(0.217847 0.00156004 0)
(0.149075 0.000482287 0)
(0.132158 0.000819623 0)
(0.0880201 0.00196096 0)
(0.0198653 0.00223939 0)
(-0.0360906 0.0624999 0)
(-0.0771767 0.000809399 0)
(-0.0721246 -0.0128247 0)
(-0.0692251 -0.0325838 0)
(-0.0727315 -0.0594674 0)
(-0.0577435 -0.084312 0)
(-0.0368653 -0.0828464 0)
(-0.0241386 -0.0815583 0)
(-0.0230109 -0.0826855 0)
(-0.0261324 -0.0828199 0)
(-0.0272113 -0.0774999 0)
(-0.0339189 -0.072896 0)
(-0.0566236 -0.0781712 0)
(-0.0955756 -0.0928205 0)
(-0.126984 -0.101576 0)
(-0.111239 -0.0735823 0)
(-0.065367 -0.0281731 0)
(-0.038026 -0.00719089 0)
(-0.0319016 -0.00181079 0)
(-0.0306222 -0.000138117 0)
(-0.0275529 0.00158047 0)
(-0.0225669 0.00356364 0)
(-0.0170141 0.00540067 0)
(-0.0117094 0.0068891 0)
(-0.00713235 0.00780113 0)
(-0.0038075 0.00813658 0)
(-0.0015853 0.00811604 0)
(6.51848e-05 0.00790771 0)
(0.00162739 0.00770155 0)
(0.00287382 0.00759088 0)
(0.00367623 0.00759842 0)
(0.0120591 0.00770388 0)
(0.0500774 0.00794455 0)
(0.181077 0.00776919 0)
(0.272306 0.00470627 0)
(0.21572 0.00225543 0)
(0.148517 0.00120624 0)
(0.132812 0.00127856 0)
(0.0888244 0.00255279 0)
(0.0201078 0.00324748 0)
(-0.0463998 -0.00287419 0)
(-0.0925556 -0.0141677 0)
(-0.078825 -0.02072 0)
(-0.0755022 -0.0246851 0)
(-0.0810309 -0.0344966 0)
(-0.0661137 -0.0526496 0)
(-0.0449091 -0.0703475 0)
(-0.0298075 -0.0778944 0)
(-0.0246374 -0.0797861 0)
(-0.0216602 -0.0752074 0)
(-0.0224634 -0.0689568 0)
(-0.0377188 -0.0715874 0)
(-0.0696998 -0.0843449 0)
(-0.104367 -0.0972401 0)
(-0.107488 -0.084509 0)
(-0.0723002 -0.042033 0)
(-0.040188 -0.0127283 0)
(-0.0301985 -0.00314187 0)
(-0.0295762 -0.000581797 0)
(-0.0290332 0.000870009 0)
(-0.0257498 0.00276137 0)
(-0.0207473 0.00482398 0)
(-0.0154411 0.00663081 0)
(-0.0105694 0.00802145 0)
(-0.00654489 0.00882884 0)
(-0.0036583 0.00913604 0)
(-0.00168894 0.0091424 0)
(-0.000118194 0.00899987 0)
(0.00151539 0.00889217 0)
(0.00289616 0.00897036 0)
(0.00382872 0.00917248 0)
(0.0122732 0.00955527 0)
(0.0498329 0.0100161 0)
(0.178936 0.00977375 0)
(0.269634 0.00655962 0)
(0.214474 0.00423873 0)
(0.148134 0.00316874 0)
(0.133456 0.00274862 0)
(0.0899174 0.00391555 0)
(0.0205347 0.00485327 0)
(-0.0469735 0.00926524 0)
(-0.0943736 0.00649559 0)
(-0.0822596 0.00406456 0)
(-0.0825006 -0.00360796 0)
(-0.099679 -0.012606 0)
(-0.0922908 -0.0476312 0)
(-0.0611921 -0.0725111 0)
(-0.0332339 -0.0758365 0)
(-0.0204216 -0.0713872 0)
(-0.0156969 -0.0642961 0)
(-0.023723 -0.0643705 0)
(-0.0487474 -0.0754002 0)
(-0.0813435 -0.0886754 0)
(-0.0957338 -0.0845855 0)
(-0.0737848 -0.0500871 0)
(-0.0420686 -0.0158191 0)
(-0.0278901 -0.00123432 0)
(-0.0263212 0.00356542 0)
(-0.0280356 0.00551776 0)
(-0.0274006 0.00764492 0)
(-0.0237427 0.0104596 0)
(-0.0188382 0.013307 0)
(-0.0139329 0.0157934 0)
(-0.00959132 0.0177079 0)
(-0.00605829 0.0189636 0)
(-0.00350535 0.0197146 0)
(-0.00171652 0.0201205 0)
(-0.000175948 0.020356 0)
(0.00159895 0.0205616 0)
(0.00314394 0.0209883 0)
(0.00423987 0.0213599 0)
(0.0128721 0.0220159 0)
(0.0502879 0.0226623 0)
(0.177746 0.0229755 0)
(0.266972 0.0203079 0)
(0.212452 0.0169433 0)
(0.147081 0.0128622 0)
(0.133531 0.00779744 0)
(0.0908525 0.00605552 0)
(0.0210115 0.00652969 0)
(-0.0490688 0.0183662 0)
(-0.0975671 0.0163224 0)
(-0.0885611 0.0126524 0)
(-0.0915666 -0.00195017 0)
(-0.123453 -0.0112817 0)
(-0.12384 -0.0481395 0)
(-0.0720888 -0.0641873 0)
(-0.0287245 -0.0607976 0)
(-0.0135167 -0.0538519 0)
(-0.0148986 -0.050071 0)
(-0.0331637 -0.0559909 0)
(-0.0611399 -0.0670642 0)
(-0.078551 -0.067108 0)
(-0.0671819 -0.0419521 0)
(-0.0412226 -0.0065247 0)
(-0.0252239 0.0138283 0)
(-0.0215083 0.0229759 0)
(-0.0236919 0.027804 0)
(-0.025645 0.0322684 0)
(-0.024271 0.0375526 0)
(-0.0202936 0.0433815 0)
(-0.0156074 0.0491692 0)
(-0.0112002 0.0544239 0)
(-0.00751442 0.0588862 0)
(-0.00461111 0.0624671 0)
(-0.0025435 0.0654887 0)
(-0.00107088 0.0675069 0)
(0.000306885 0.0696007 0)
(0.00212468 0.0712232 0)
(0.00366536 0.0728222 0)
(0.00481892 0.0734005 0)
(0.0135282 0.0745782 0)
(0.0507576 0.0753576 0)
(0.176667 0.0761128 0)
(0.263821 0.0715036 0)
(0.207299 0.0583415 0)
(0.139321 0.0421202 0)
(0.126897 0.0260267 0)
(0.0886958 0.0140684 0)
(0.0209916 0.0100209 0)
(-0.0489429 0.0171229 0)
(-0.0998797 0.0179309 0)
(-0.0998678 0.0130068 0)
(-0.105564 0.00654536 0)
(-0.144189 -0.00277569 0)
(-0.143273 -0.0224129 0)
(-0.0733899 -0.0235316 0)
(-0.0232743 -0.0157889 0)
(-0.0100851 -0.00842438 0)
(-0.0177581 -0.00686262 0)
(-0.0400983 -0.00911822 0)
(-0.0594603 -0.00102477 0)
(-0.0571445 0.0266007 0)
(-0.0373535 0.0661594 0)
(-0.0200327 0.0957599 0)
(-0.0136407 0.114478 0)
(-0.0144227 0.127533 0)
(-0.0173667 0.13806 0)
(-0.0186415 0.147948 0)
(-0.0166916 0.157644 0)
(-0.0125486 0.167106 0)
(-0.00819739 0.176082 0)
(-0.00456923 0.183466 0)
(-0.00184051 0.18953 0)
(0.0003041 0.194175 0)
(0.00135117 0.198095 0)
(0.00224597 0.200532 0)
(0.00340514 0.203131 0)
(0.00470336 0.204676 0)
(0.0052421 0.205944 0)
(0.00593201 0.205648 0)
(0.014758 0.205847 0)
(0.0517667 0.205861 0)
(0.174032 0.203994 0)
(0.249847 0.182474 0)
(0.184138 0.14444 0)
(0.115941 0.108795 0)
(0.1065 0.0695839 0)
(0.0754289 0.033474 0)
(0.0171112 0.0183585 0)
(-0.0482901 0.00850595 0)
(-0.101534 0.0214513 0)
(-0.0995326 0.0345514 0)
(-0.106775 0.0635309 0)
(-0.151359 0.0769284 0)
(-0.143842 0.0872499 0)
(-0.0657056 0.0929579 0)
(-0.0141666 0.100472 0)
(-0.00491501 0.107522 0)
(-0.0155673 0.11169 0)
(-0.0275381 0.119307 0)
(-0.0267198 0.142904 0)
(-0.0138099 0.176655 0)
(-0.000537597 0.2064 0)
(0.00533932 0.224755 0)
(0.00539409 0.235588 0)
(0.00121554 0.242192 0)
(-0.00401955 0.247723 0)
(-0.00677285 0.253246 0)
(-0.0058094 0.258816 0)
(-0.00252581 0.263922 0)
(0.000157229 0.267768 0)
(0.00175832 0.269542 0)
(0.00280546 0.270467 0)
(0.00364278 0.270546 0)
(0.00358189 0.270314 0)
(0.00378163 0.269786 0)
(0.00430103 0.26891 0)
(0.00483541 0.267636 0)
(0.00460107 0.265998 0)
(0.00472571 0.264264 0)
(0.0137336 0.26212 0)
(0.0489718 0.260076 0)
(0.154131 0.249198 0)
(0.206432 0.204174 0)
(0.136299 0.160919 0)
(0.0671869 0.134277 0)
(0.0543148 0.102548 0)
(0.0393331 0.0591182 0)
(0.00642583 0.0330646 0)
(-0.0364683 0.000502805 0)
(-0.0747813 0.0331812 0)
(-0.0593183 0.074556 0)
(-0.0647283 0.128122 0)
(-0.121332 0.162965 0)
(-0.127826 0.19337 0)
(-0.0606485 0.192615 0)
(-0.00924026 0.18594 0)
(0.000724887 0.18093 0)
(-0.00640145 0.18047 0)
(-0.010019 0.188859 0)
(-0.0041971 0.205734 0)
(0.00404192 0.219918 0)
(0.00899669 0.226267 0)
(0.00809455 0.22656 0)
(0.00316237 0.223197 0)
(-0.00272935 0.218443 0)
(-0.00671395 0.214881 0)
(-0.00795214 0.213139 0)
(-0.00640429 0.212343 0)
(-0.00392216 0.211276 0)
(-0.00278215 0.210022 0)
(-0.00196759 0.208598 0)
(-0.000872408 0.206665 0)
(0.000155755 0.204479 0)
(0.000618975 0.202335 0)
(0.000893813 0.200668 0)
(0.00133287 0.198588 0)
(0.00189675 0.196882 0)
(0.00199328 0.194803 0)
(0.00219502 0.193473 0)
(0.0107221 0.191846 0)
(0.0393145 0.187211 0)
(0.120162 0.171317 0)
(0.164779 0.11968 0)
(0.116783 0.0941545 0)
(0.0596917 0.08809 0)
(0.0340738 0.0794831 0)
(0.0084724 0.0509983 0)
(-0.00799498 0.0301339 0)
(-0.0168 -0.0204866 0)
(-0.0301732 0.0314548 0)
(-0.00804425 0.0791439 0)
(-0.0215813 0.105594 0)
(-0.088483 0.127279 0)
(-0.11527 0.148813 0)
(-0.0728652 0.146805 0)
(-0.0254265 0.13537 0)
(-0.0101867 0.124812 0)
(-0.00792682 0.123173 0)
(-0.00319299 0.128563 0)
(0.00320975 0.13603 0)
(0.00597645 0.14034 0)
(0.00586347 0.140425 0)
(0.00238112 0.138351 0)
(-0.00242829 0.136304 0)
(-0.00679783 0.135962 0)
(-0.00913063 0.136814 0)
(-0.00921812 0.13898 0)
(-0.00760421 0.141824 0)
(-0.0047632 0.144585 0)
(-0.00242411 0.144819 0)
(-0.00147629 0.144801 0)
(-0.00116317 0.144708 0)
(-0.00052944 0.144797 0)
(-9.11675e-05 0.144909 0)
(0.000170486 0.145077 0)
(0.000653309 0.145117 0)
(0.001188 0.145253 0)
(0.00131558 0.145034 0)
(0.00187624 0.145008 0)
(0.00769928 0.145077 0)
(0.0291896 0.13881 0)
(0.089055 0.124151 0)
(0.132075 0.0721027 0)
(0.105858 0.0522962 0)
(0.053049 0.0413392 0)
(0.0185718 0.0397234 0)
(-0.00822156 0.0167579 0)
(-0.0136798 -0.0228802 0)
(0.0135843 -0.374851 0)
(0.0212262 -0.103795 0)
(0.0121249 0.0531436 0)
(-0.0183432 0.0507195 0)
(-0.079685 0.0674669 0)
(-0.109011 0.0874366 0)
(-0.0736028 0.105515 0)
(-0.0304333 0.109924 0)
(-0.0110284 0.109257 0)
(-0.00278663 0.111964 0)
(0.00237073 0.116239 0)
(0.00715136 0.118311 0)
(0.00827663 0.119832 0)
(0.00707995 0.119739 0)
(0.00412403 0.119438 0)
(0.000860274 0.120132 0)
(-0.00223781 0.122038 0)
(-0.00380496 0.124883 0)
(-0.00312489 0.128328 0)
(-0.00100357 0.131635 0)
(-0.00103563 0.13448 0)
(-0.00257359 0.134978 0)
(-0.0020747 0.135248 0)
(-0.000876651 0.135486 0)
(0.000349737 0.135929 0)
(0.000888556 0.136267 0)
(0.00109388 0.136692 0)
(0.00150276 0.137025 0)
(0.00181664 0.13735 0)
(0.00175705 0.137483 0)
(0.00223623 0.137985 0)
(0.00474942 0.138405 0)
(0.0191494 0.13414 0)
(0.0558806 0.118884 0)
(0.0955375 0.0694762 0)
(0.0871379 0.0377796 0)
(0.0475761 0.0170821 0)
(0.0103863 0.00737197 0)
(-0.0518547 -0.136307 0)
(-0.0461917 -0.405987 0)
(0.244399 -0.787904 0)
(0.382258 -0.450709 0)
(0.140851 -0.0348072 0)
(-0.00777885 -0.000453963 0)
(-0.053101 0.0146368 0)
(-0.0786052 0.0465392 0)
(-0.0511953 0.0806835 0)
(-0.0218207 0.0954776 0)
(-0.00822127 0.102808 0)
(-0.00119885 0.105177 0)
(0.00292346 0.10723 0)
(0.00667226 0.106353 0)
(0.00735209 0.104665 0)
(0.00548353 0.101859 0)
(0.00275979 0.0992338 0)
(7.71249e-05 0.0969667 0)
(-0.00221904 0.0954336 0)
(-0.00306889 0.0952709 0)
(-0.00271215 0.0956681 0)
(-0.00167549 0.095464 0)
(-0.00154195 0.0938521 0)
(-0.00168447 0.0933869 0)
(-0.000985903 0.0932653 0)
(-0.000507349 0.0928688 0)
(0.000222836 0.0924239 0)
(0.000644869 0.0915815 0)
(0.000900649 0.091158 0)
(0.00128652 0.0906498 0)
(0.00162945 0.0902255 0)
(0.00192764 0.0899435 0)
(0.00276459 0.0903754 0)
(0.00399428 0.0909955 0)
(0.0103787 0.0901845 0)
(0.0267428 0.0787898 0)
(0.0539201 0.0473374 0)
(0.0553693 0.0104617 0)
(0.0237472 -0.00988687 0)
(-0.129239 -0.0532364 0)
(-0.40655 -0.410997 0)
(-0.273554 -0.761792 0)
(0.338518 -0.432625 0)
(0.746938 -0.334955 0)
(0.446007 -0.0541835 0)
(0.0293028 -0.0182841 0)
(-0.0344008 -0.0157026 0)
(-0.0453657 0.0011218 0)
(-0.026444 0.0187912 0)
(-0.00911367 0.0268071 0)
(-0.00168157 0.0319778 0)
(0.0014749 0.0335936 0)
(0.00350375 0.0347524 0)
(0.00467992 0.0341958 0)
(0.00394631 0.0326849 0)
(0.00184592 0.0306615 0)
(-0.000590498 0.02891 0)
(-0.00280174 0.0271848 0)
(-0.00387195 0.0259225 0)
(-0.00357898 0.0254695 0)
(-0.00293879 0.0253932 0)
(-0.00275348 0.0252343 0)
(-0.00303724 0.0242745 0)
(-0.00313911 0.0236826 0)
(-0.00257399 0.022765 0)
(-0.00168748 0.0220346 0)
(-0.000890748 0.0215403 0)
(-0.000331262 0.0208789 0)
(0.000196131 0.0205274 0)
(0.000604133 0.0201478 0)
(0.00113598 0.0198192 0)
(0.00190147 0.0196358 0)
(0.00324993 0.0197921 0)
(0.00456547 0.0201394 0)
(0.00738761 0.0203848 0)
(0.0145916 0.0170355 0)
(0.029694 0.00777509 0)
(0.0319946 -0.00810474 0)
(-0.0138057 -0.0164817 0)
(-0.376138 -0.0470747 0)
(-0.734645 -0.272698 0)
(-0.384231 -0.387551 0)
(0.338518 0.432625 0)
(0.746938 0.334955 0)
(0.446007 0.0541835 0)
(0.0293028 0.0182841 0)
(-0.0344008 0.0157026 0)
(-0.0453657 -0.0011218 0)
(-0.026444 -0.0187912 0)
(-0.00911367 -0.0268071 0)
(-0.00168157 -0.0319778 0)
(0.0014749 -0.0335936 0)
(0.00350375 -0.0347524 0)
(0.00467992 -0.0341958 0)
(0.00394631 -0.0326849 0)
(0.00184592 -0.0306615 0)
(-0.000590498 -0.02891 0)
(-0.00280174 -0.0271848 0)
(-0.00387195 -0.0259225 0)
(-0.00357898 -0.0254695 0)
(-0.00293879 -0.0253932 0)
(-0.00275348 -0.0252343 0)
(-0.00303724 -0.0242745 0)
(-0.00313911 -0.0236826 0)
(-0.00257399 -0.022765 0)
(-0.00168748 -0.0220346 0)
(-0.000890748 -0.0215403 0)
(-0.000331262 -0.0208789 0)
(0.000196131 -0.0205274 0)
(0.000604133 -0.0201478 0)
(0.00113598 -0.0198192 0)
(0.00190147 -0.0196358 0)
(0.00324993 -0.0197921 0)
(0.00456547 -0.0201394 0)
(0.00738761 -0.0203848 0)
(0.0145916 -0.0170355 0)
(0.029694 -0.00777509 0)
(0.0319946 0.00810474 0)
(-0.0138057 0.0164817 0)
(-0.376138 0.0470747 0)
(-0.734645 0.272698 0)
(-0.384231 0.387551 0)
(0.244399 0.787904 0)
(0.382258 0.450709 0)
(0.140851 0.0348072 0)
(-0.00777885 0.000453963 0)
(-0.053101 -0.0146368 0)
(-0.0786052 -0.0465392 0)
(-0.0511953 -0.0806835 0)