/*--------------------------------*- C++ -*----------------------------------*\
| =========                 |                                                 |
| \\      /  F ield         | OpenFOAM: The Open Source CFD Toolbox           |
|  \\    /   O peration     | Version:  v1912                                 |
|   \\  /    A nd           | Website:  www.openfoam.com                      |
|    \\/     M anipulation  |                                                 |
\*---------------------------------------------------------------------------*/
FoamFile
{
    version     2.0;
    format      ascii;
    class       volScalarField;
    location    "7.36";
    object      rho;
}
// * * * * * * * * * * * * * * * * * * * * * * * * * * * * * * * * * * * * * //

dimensions      [1 -3 0 0 0 0 0];


internalField   nonuniform List<scalar> 
1900
(
25681.8
13447.8
12942.1
12900.9
12791.7
12631.1
12465.9
12363
12323.4
12316
25681.8
13447.9
12942.1
12900.9
12791.5
12631.6
12466.2
12365.7
12325
12310.5
25681.7
13447.9
12942.1
12900.9
12791.5
12632.2
12466.7
12364.2
12316.5
12299.5
25681.8
13447.9
12942.1
12900.9
12791.5
12631.6
12466.2
12365.7
12325
12310.5
25681.8
13447.8
12942.1
12900.9
12791.7
12631.1
12465.9
12363
12323.4
12316
12448.1
12286.2
12166.4
11827.6
11720.3
12310.7
12199.9
12099.7
11777.2
11317.3
12277.6
12181.2
12093.9
11815.1
11386
12310.7
12199.9
12099.7
11777.2
11317.3
12448.1
12286.2
12166.4
11827.6
11720.3
6208.71
4220.83
3275.73
2740.61
2233.86
6849.11
4548.41
3459.29
2885.35
2373.79
7038.64
4505.3
3386.24
2826.41
2304.5
6849.11
4548.41
3459.29
2885.35
2373.79
6208.71
4220.83
3275.73
2740.61
2233.86
2361.56
2342.01
2284.59
2197.41
1984.23
1811.24
1866.64
2554.77
3166
3153.86
3121.52
3138.52
3140.86
3028.36
2778.58
2484.79
2184.74
1838.63
1500.75
1315.19
1248.78
1213.52
1183.17
1156.61
1137.23
1126.86
1123.58
1124.7
1127.19
1131.96
1137.2
1143.75
1164.09
1241.94
1580.35
1986.44
2202.76
2288.79
2393.25
2527.41
2146.76
2160.57
2170.8
2122.68
1931.39
1751.55
1798.87
2465.37
3127.05
3143.68
3121.09
3138.17
3148.89
3033.63
2785.23
2494.64
2193.18
1843.73
1502.66
1315.5
1248.73
1213.55
1183.22
1156.58
1137.14
1126.75
1123.47
1124.6
1127.11
1131.89
1137.13
1143.7
1164.03
1241.79
1580.2
1986.68
2202.7
2289.36
2393.18
2527.83
2119.8
2109.46
2122.32
2094.67
1922.75
1743.3
1786.07
2427.58
3116.73
3141.39
3122.12
3139.16
3170.69
3071.94
2800.33
2494.68
2190.23
1843
1503.4
1315.75
1248.73
1213.57
1183.25
1156.58
1137.11
1126.71
1123.44
1124.57
1127.08
1131.87
1137.11
1143.68
1164.02
1241.74
1580.14
1986.77
2202.7
2289.63
2393.25
2527.84
2146.76
2160.57
2170.8
2122.68
1931.39
1751.55
1798.87
2465.37
3127.05
3143.68
3121.09
3138.17
3148.89
3033.63
2785.23
2494.64
2193.18
1843.73
1502.66
1315.5
1248.73
1213.55
1183.22
1156.58
1137.14
1126.75
1123.47
1124.6
1127.11
1131.89
1137.13
1143.7
1164.03
1241.79
1580.2
1986.68
2202.7
2289.36
2393.18
2527.83
2361.56
2342.01
2284.59
2197.41
1984.23
1811.24
1866.64
2554.77
3166
3153.86
3121.52
3138.52
3140.86
3028.36
2778.58
2484.79
2184.74
1838.63
1500.75
1315.19
1248.78
1213.52
1183.17
1156.61
1137.23
1126.86
1123.58
1124.7
1127.19
1131.96
1137.2
1143.75
1164.09
1241.94
1580.35
1986.44
2202.76
2288.79
2393.25
2527.41
3023.36
2726.24
2512.28
2352.88
2120.13
1966.88
2038.54
2691.99
3139.02
3109.91
3080.29
3102.13
3108.63
2992.67
2743.69
2463.41
2172.2
1826.79
1492.13
1313.07
1248.8
1213.43
1182.99
1156.72
1137.63
1127.37
1124.08
1125.13
1127.57
1132.28
1137.47
1143.95
1164.35
1242.36
1580.85
1985.41
2202.51
2284.15
2392.53
2527.66
3385.02
3046.08
2723.29
2455.37
2230.02
2171.55
2313.4
2849.24
3063.77
3031.31
3033.95
3044.51
3018.31
2886.29
2658.35
2403.57
2123.74
1784.88
1469.12
1308.2
1248.64
1213.12
1182.62
1156.93
1138.48
1128.55
1125.27
1126.16
1128.48
1133.03
1138.12
1144.43
1164.9
1243.23
1581.79
1984.02
2201.96
2277.94
2390.76
2527.82
3407.07
3199.67
2946.46
2667.33
2528.35
2542.76
2690.85
2943.49
2942.65
2892
2932.99
2939
2900.94
2763.9
2555.14
2322.61
2053.32
1724.5
1438.18
1302
1248.29
1212.79
1182.41
1157.43
1139.82
1130.37
1127.13
1127.83
1129.97
1134.3
1139.21
1145.27
1165.81
1244.56
1582.79
1982.62
2200.59
2274.47
2390.23
2528.81
3370.72
3142.19
2893.85
2678.74
2624.16
2629.77
2681.05
2809.75
2770.23
2824.74
2849.49
2835.54
2771.69
2628.33
2437.57
2225.95
1966.02
1651.56
1404.71
1295.99
1247.87
1212.52
1182.46
1158.36
1141.7
1132.8
1129.64
1130.12
1132.07
1136.14
1140.81
1146.55
1167.16
1246.53
1584.28
1981.82
2199.77
2273.5
2390.64
2529.84
3279.61
3043.63
2852.81
2735.57
2704.32
2676.81
2673.97
2644.25
2668.05
2728.5
2736.14
2718.24
2629.88
2483.24
2313.85
2120.03
1864.74
1571.59
1373.49
1290.72
1247.09
1212.15
1182.71
1159.69
1144.09
1135.8
1132.73
1132.99
1134.74
1138.52
1142.92
1148.29
1168.98
1248.9
1585.47
1980.35
2198.23
2272.92
2391.04
2530.46
3132.05
2960.59
2857.79
2766.51
2675.91
2596.95
2517.12
2495.1
2576.38
2630.19
2634.43
2577.7
2472.9
2340.79
2194.74
2008.24
1752.32
1494.04
1349.34
1287.05
1246.44
1211.95
1183.39
1161.63
1147.16
1139.52
1136.56
1136.61
1138.18
1141.69
1145.82
1150.84
1171.66
1252.61
1588.7
1980.91
2198.35
2274.08
2392.96
2531.68
2955.8
2863.74
2772.55
2623.68
2474.31
2372.14
2355.91
2444.13
2525.17
2525.19
2494.76
2420.44
2320.3
2211.15
2077.86
1885.96
1635.08
1430.4
1332.9
1283.51
1244.99
1211.48
1184.21
1163.89
1150.63
1143.67
1140.82
1140.7
1142.11
1145.37
1149.27
1153.98
1174.88
1256.27
1590.67
1980.49
2197.87
2274.75
2394.27
2531.98
2728.83
2654.21
2504.96
2373.04
2289.5
2294.01
2360.39
2408.58
2411.92
2394.94
2341.74
2266.01
2186.83
2092.96
1956.14
1752.22
1527.45
1387.5
1323.32
1281.18
1243.95
1211.71
1186.07
1167.35
1155.28
1148.93
1146.18
1145.89
1147.14
1150.16
1153.86
1158.34
1179.45
1261.82
1595.37
1982.2
2198.76
2276.64
2396.46
2532.77
2522.96
2518.55
2400.65
2346.86
2306.5
2309.79
2305.81
2307.93
2289.91
2248.57
2191.53
2133.37
2070.2
1976.18
1824.15
1619.28
1448.47
1363.37
1316.96
1278.58
1243
1212.62
1188.86
1171.79
1160.91
1155.12
1152.46
1152.04
1153.1
1155.95
1159.53
1163.92
1185.22
1267.92
1599.48
1984.08
2200.4
2279.18
2398.77
2532.96
2585.74
2529.88
2452.83
2383.64
2311.4
2265.83
2228.29
2192
2153.05
2107.65
2063.49
2021.64
1959.75
1851.57
1685.14
1509.85
1404.47
1352.51
1314.53
1278.21
1244.46
1216.18
1194.35
1178.81
1168.85
1163.4
1160.7
1160.05
1160.87
1163.56
1167.07
1171.47
1193.11
1276.61
1606.88
1988.51
2204.13
2283.44
2402.27
2533.88
2599.43
2527.56
2481.29
2427.94
2316.79
2211.56
2125.06
2066.19
2023.03
1986.8
1957.93
1920.25
1846.02
1719.49
1561.17
1443.16
1384.22
1347.07
1312.86
1278.27
1246.43
1220.24
1200.26
1186.22
1177.15
1172.01
1169.28
1168.41
1169.05
1171.7
1175.33
1179.98
1201.96
1285.22
1612.49
1992.64
2209.01
2288.89
2405.97
2533.47
2608.92
2558
2535.58
2472.09
2310.35
2136.12
2009.51
1945.75
1910.05
1887.14
1865.29
1818.29
1726.32
1595.65
1477.06
1412.05
1375.36
1345.31
1313.18
1280.1
1250.43
1226.49
1208.38
1195.66
1187.31
1182.44
1179.72
1178.76
1179.36
1182.25
1186.22
1191.48
1214.33
1298.5
1624.79
2003.24
2219.92
2299.41
2413.44
2534.82
2617.07
2578.07
2571.57
2482.78
2289.67
2050.19
1899.82
1844.18
1820.82
1806.73
1778.39
1713.1
1611.05
1507.43
1442.51
1406.72
1381.31
1355.04
1325.09
1295.04
1269.1
1248.77
1233.83
1223.63
1217.04
1213.36
1211.4
1210.99
1212.06
1215.66
1220.17
1226.32
1250.22
1336.42
1665.36
2044.76
2256.11
2322.97
2424.24
2533.72
2618.74
2586.36
2584.72
2473.56
2262.07
1980.8
1826.07
1778.17
1762.45
1749.18
1712.24
1640.49
1555.71
1493.13
1460.86
1442.65
1426.16
1406.05
1382.76
1360.17
1341.99
1329.34
1321.44
1317.37
1315.99
1317.09
1318.35
1321.63
1325.69
1332.15
1337.73
1345.98
1372.39
1465.21
1806.08
2175.37
2359.65
2395.62
2460.69
2535.63
2614.61
2586.03
2585.15
2494.53
2276.14
1982.06
1834.23
1799
1793.92
1782.13
1746.39
1702.49
1670.72
1662.41
1665.98
1673.27
1677.67
1674.37
1664.94
1654.58
1647.94
1646.58
1647.81
1651.15
1655.22
1660.91
1664.98
1671.33
1676.87
1684.76
1689.81
1698.21
1727.79
1829.91
2171.87
2497.29
2624.85
2575.23
2548.27
2538.13
2601.12
2620.2
2674.31
2677.2
2514.5
2234.81
2081.99
2051.7
2055.45
2054.31
2037.15
2025.52
2025.7
2038.59
2053.78
2064
2063.8
2055.75
2043.3
2031.27
2022.93
2018.11
2013.61
2011.52
2010.42
2011.67
2012.35
2014.77
2016.95
2021.27
2024.13
2029.55
2058.8
2151.11
2447.08
2732.41
2861.37
2799.43
2685.1
2578.3
2591.56
2693.04
2853.48
2947.64
2838.52
2599.18
2414.67
2350.72
2328.91
2313.69
2298.05
2296.21
2299.06
2306.28
2310.59
2306.54
2293.33
2275.84
2257.72
2242.33
2230.53
2222.29
2215.51
2210.89
2207.53
2206.59
2205.79
2206.56
2207.67
2210.77
2213.78
2220.13
2243.38
2320.96
2551.56
2822.65
2967.92
2913.88
2765.99
2601.94
2585.95
2740.8
2936.34
3001.7
2897.7
2676.5
2497.83
2424.02
2390.22
2375.63
2365.54
2364.56
2366.27
2370.21
2370.09
2363.05
2350.33
2335.59
2322.88
2315.52
2313.59
2305.37
2295.13
2289.13
2286.61
2286.95
2287.34
2289.09
2291.22
2294.93
2298.92
2306.16
2320.85
2379.42
2526.19
2762.47
2905.29
2913.52
2787.41
2583.64
3587.04
2569.93
2848.74
2885.1
2808.28
2640.42
2519.54
2469.63
2445.22
2436.8
2433
2435.81
2442.18
2447.75
2448.2
2443.09
2433.25
2422.28
2412.97
2406.65
2404.08
2400.28
2398.67
2398.42
2398.9
2400.93
2402.41
2404.73
2406.94
2410.15
2413.11
2418.7
2425.75
2454.72
2525.8
2663.8
2761.46
2790.63
2568.29
3230.68
49141
3182.15
2627.76
2642.68
2604.96
2507.04
2441.59
2421.74
2417.84
2424.57
2434.02
2449.18
2465.21
2478.97
2489.49
2497.27
2502.36
2505.18
2506.32
2507.1
2508.37
2510.8
2514.3
2518.44
2522.32
2526.19
2528.48
2531.03
2532.72
2534.77
2535.39
2537.46
2537.05
2539.31
2541.83
2574.93
2603.25
2595.39
3190.29
34332.7
49141
3182.15
2627.76
2642.68
2604.96
2507.04
2441.59
2421.74
2417.84
2424.57
2434.02
2449.18
2465.21
2478.97
2489.49
2497.27
2502.36
2505.18
2506.32
2507.1
2508.37
2510.8
2514.3
2518.44
2522.32
2526.19
2528.48
2531.03
2532.72
2534.77
2535.39
2537.46
2537.05
2539.31
2541.83
2574.93
2603.25
2595.39
3190.29
34332.7
3587.04
2569.93
2848.74
2885.1
2808.28
2640.42
2519.54
2469.63
2445.22
2436.8
2433
2435.81
2442.18
2447.75
2448.2
2443.09
2433.25
2422.28
2412.97
2406.65
2404.08
2400.28
2398.67
2398.42
2398.9
2400.93
2402.41
2404.73
2406.94
2410.15
2413.11
2418.7
2425.75
2454.72
2525.8
2663.8
2761.46
2790.63
2568.29
3230.68
2585.95
2740.8
2936.34
3001.7
2897.7
2676.5
2497.83
2424.02
2390.22
2375.63
2365.54
2364.56
2366.27
2370.21
2370.09
2363.05
2350.33
2335.59
2322.88
2315.52
2313.59
2305.37
2295.13
2289.13
2286.61
2286.95
2287.34
2289.09
2291.22
2294.93
2298.92
2306.16
2320.85
2379.42
2526.19
2762.47
2905.29
2913.52
2787.41
2583.64
2591.56
2693.04
2853.48
2947.64
2838.52
2599.18
2414.67
2350.72
2328.91
2313.69
2298.05
2296.21
2299.06
2306.28
2310.59
2306.54
2293.33
2275.84
2257.72
2242.33
2230.53
2222.29
2215.51
2210.89
2207.53
2206.59
2205.79
2206.56
2207.67
2210.77
2213.78
2220.13
2243.38
2320.96
2551.56
2822.65
2967.92
2913.88
2765.99
2601.94
2601.12
2620.2
2674.31
2677.2
2514.5
2234.81
2081.99
2051.7
2055.45
2054.31
2037.15
2025.52
2025.7
2038.59
2053.78
2064
2063.8
2055.75
2043.3
2031.27
2022.93
2018.11
2013.61
2011.52
2010.42
2011.67
2012.35
2014.77
2016.95
2021.27
2024.13
2029.55
2058.8
2151.11
2447.08
2732.41
2861.37
2799.43
2685.1
2578.3
2614.61
2586.03
2585.15
2494.53
2276.14
1982.06
1834.23
1799
1793.92
1782.13
1746.39
1702.49
1670.72
1662.41
1665.98
1673.27
1677.67
1674.37
1664.94
1654.58
1647.94
1646.58
1647.81
1651.15
1655.22
1660.91
1664.98
1671.33
1676.87
1684.76
1689.81
1698.21
1727.79
1829.91
2171.87
2497.29
2624.85
2575.23
2548.27
2538.13
2618.74
2586.36
2584.72
2473.56
2262.07
1980.8
1826.07
1778.17
1762.45
1749.18
1712.24
1640.49
1555.71
1493.13
1460.86
1442.65
1426.16
1406.05
1382.76
1360.17
1341.99
1329.34
1321.44
1317.37
1315.99
1317.09
1318.35
1321.63
1325.69
1332.15
1337.73
1345.98
1372.39
1465.21
1806.08
2175.37
2359.65
2395.62
2460.69
2535.63
2617.07
2578.07
2571.57
2482.78
2289.67
2050.19
1899.82
1844.18
1820.82
1806.73
1778.39
1713.1
1611.05
1507.43
1442.51
1406.72
1381.31
1355.04
1325.09
1295.04
1269.1
1248.77
1233.83
1223.63
1217.04
1213.36
1211.4
1210.99
1212.06
1215.66
1220.17
1226.32
1250.22
1336.42
1665.36
2044.76
2256.11
2322.97
2424.24
2533.72
2608.92
2558
2535.58
2472.09
2310.35
2136.12
2009.51
1945.75
1910.05
1887.14
1865.29
1818.29
1726.32
1595.65
1477.06
1412.05
1375.36
1345.31
1313.18
1280.1
1250.43
1226.49
1208.38
1195.66
1187.31
1182.44
1179.72
1178.76
1179.36
1182.25
1186.22
1191.48
1214.33
1298.5
1624.79
2003.24
2219.92
2299.41
2413.44
2534.82
2599.43
2527.56
2481.29
2427.94
2316.79
2211.56
2125.06
2066.19
2023.03
1986.8
1957.93
1920.25
1846.02
1719.49
1561.17
1443.16
1384.22
1347.07
1312.86
1278.27
1246.43
1220.24
1200.26
1186.22
1177.15
1172.01
1169.28
1168.41
1169.05
1171.7
1175.33
1179.98
1201.96
1285.22
1612.49
1992.64
2209.01
2288.89
2405.97
2533.47
2585.74
2529.88
2452.83
2383.64
2311.4
2265.83
2228.29
2192
2153.05
2107.65
2063.49
2021.64
1959.75
1851.57
1685.14
1509.85
1404.47
1352.51
1314.53
1278.21
1244.46
1216.18
1194.35
1178.81
1168.85
1163.4
1160.7
1160.05
1160.87
1163.56
1167.07
1171.47
1193.11
1276.61
1606.88
1988.51
2204.13
2283.44
2402.27
2533.88
2522.96
2518.55
2400.65
2346.86
2306.5
2309.79
2305.81
2307.93
2289.91
2248.57
2191.53
2133.37
2070.2
1976.18
1824.15
1619.28
1448.47
1363.37
1316.96
1278.58
1243
1212.62
1188.86
1171.79
1160.91
1155.12
1152.46
1152.04
1153.1
1155.95
1159.53
1163.92
1185.22
1267.92
1599.48
1984.08
2200.4
2279.18
2398.77
2532.96
2728.83
2654.21
2504.96
2373.04
2289.5
2294.01
2360.39
2408.58
2411.92
2394.94
2341.74
2266.01
2186.83
2092.96
1956.14
1752.22
1527.45
1387.5
1323.32
1281.18
1243.95
1211.71
1186.07
1167.35
1155.28
1148.93
1146.18
1145.89
1147.14
1150.16
1153.86
1158.34
1179.45
1261.82
1595.37
1982.2
2198.76
2276.64
2396.46
2532.77
2955.8
2863.74
2772.55
2623.68
2474.31
2372.14
2355.91
2444.13
2525.17
2525.19
2494.76
2420.44
2320.3
2211.15
2077.86
1885.96
1635.08
1430.4
1332.9
1283.51
1244.99
1211.48
1184.21
1163.89
1150.63
1143.67
1140.82
1140.7
1142.11
1145.37
1149.27
1153.98
1174.88
1256.27
1590.67
1980.49
2197.87
2274.75
2394.27
2531.98
3132.05
2960.59
2857.79
2766.51
2675.91
2596.95
2517.12
2495.1
2576.38
2630.19
2634.43
2577.7
2472.9
2340.79
2194.74
2008.24
1752.32
1494.04
1349.34
1287.05
1246.44
1211.95
1183.39
1161.63
1147.16
1139.52
1136.56
1136.61
1138.18
1141.69
1145.82
1150.84
1171.66
1252.61
1588.7
1980.91
2198.35
2274.08
2392.96
2531.68
3279.61
3043.63
2852.81
2735.57
2704.32
2676.81
2673.97
2644.25
2668.05
2728.5
2736.14
2718.24
2629.88
2483.24
2313.85
2120.03
1864.74
1571.59
1373.49
1290.72
1247.09
1212.15
1182.71
1159.69
1144.09
1135.8
1132.73
1132.99
1134.74
1138.52
1142.92
1148.29
1168.98
1248.9
1585.47
1980.35
2198.23
2272.92
2391.04
2530.46
3370.72
3142.19
2893.85
2678.74
2624.16
2629.77
2681.05
2809.75
2770.23
2824.74
2849.49
2835.54
2771.69
2628.33
2437.57
2225.95
1966.02
1651.56
1404.71
1295.99
1247.87
1212.52
1182.46
1158.36
1141.7
1132.8
1129.64
1130.12
1132.07
1136.14
1140.81
1146.55
1167.16
1246.53
1584.28
1981.82
2199.77
2273.5
2390.64
2529.84
3407.07
3199.67
2946.46
2667.33
2528.35
2542.76
2690.85
2943.49
2942.65
2892
2932.99
2939
2900.94
2763.9
2555.14
2322.61
2053.32
1724.5
1438.18
1302
1248.29
1212.79
1182.41
1157.43
1139.82
1130.37
1127.13
1127.83
1129.97
1134.3
1139.21
1145.27
1165.81
1244.56
1582.79
1982.62
2200.59
2274.47
2390.23
2528.81
3385.02
3046.08
2723.29
2455.37
2230.02
2171.55
2313.4
2849.24
3063.77
3031.31
3033.95
3044.51
3018.31
2886.29
2658.35
2403.57
2123.74
1784.88
1469.12
1308.2
1248.64
1213.12
1182.62
1156.93
1138.48
1128.55
1125.27
1126.16
1128.48
1133.03
1138.12
1144.43
1164.9
1243.23
1581.79
1984.02
2201.96
2277.94
2390.76
2527.82
3023.36
2726.24
2512.28
2352.88
2120.13
1966.88
2038.54
2691.99
3139.02
3109.91
3080.29
3102.13
3108.63
2992.67
2743.69
2463.41
2172.2
1826.79
1492.13
1313.07
1248.8
1213.43
1182.99
1156.72
1137.63
1127.37
1124.08
1125.13
1127.57
1132.28
1137.47
1143.95
1164.35
1242.36
1580.85
1985.41
2202.51
2284.15
2392.53
2527.66
)
;

boundaryField
{
    inlet
    {
        type            calculated;
        value           uniform 14000.1;
    }
    outlet
    {
        type            calculated;
        value           nonuniform List<scalar> 
165
(
3172.76
3530.76
3525.79
3486.22
3407.15
3244.58
3032.08
2851.46
2706.63
2617.71
2622.65
2621.44
2610.65
2597.77
2588.74
2586.95
2588.1
2613.16
3170.28
4281.92
4281.92
3332.95
2629.78
2579.7
2590.57
2625.46
2651.79
2661.76
2664.43
2664.1
2662.38
2659.23
2655.88
2653.76
2653.32
2654.58
2657.2
2659.95
2662.18
2664.04
2666.02
2668.28
2670.41
2671.88
2672.77
2673.13
2673.24
2672.86
2672.39
2671.26
2669.72
2666.72
2663.35
2656.44
2643.17
2615.9
2599.98
2634.59
3218.19
4250.61
2675.8
2675.38
2674.8
2674.12
2673.49
2672.91
2672.5
2671.73
2670.68
2668.71
2666.31
2662.18
2657.55
2648.81
2633.23
2605.61
2594.27
2635.35
3240.25
4250.61
2676.48
2676.55
2676.6
2676.55
2676.48
4250.61
3240.25
2635.35
2594.27
2605.61
2633.23
2648.81
2657.55
2662.18
2666.31
2668.71
2670.68
2671.73
2672.5
2672.91
2673.49
2674.12
2674.8
2675.38
2675.8
4281.92
3332.95
2629.78
2579.7
2590.57
2625.46
2651.79
2661.76
2664.43
2664.1
2662.38
2659.23
2655.88
2653.76
2653.32
2654.58
2657.2
2659.95
2662.18
2664.04
2666.02
2668.28
2670.41
2671.88
2672.77
2673.13
2673.24
2672.86
2672.39
2671.26
2669.72
2666.72
2663.35
2656.44
2643.17
2615.9
2599.98
2634.59
3218.19
4250.61
4281.92
3170.28
2613.16
2588.1
2586.95
2588.74
2597.77
2610.65
2621.44
2622.65
2617.71
2706.63
2851.46
3032.08
3244.58
3407.15
3486.22
3525.79
3530.76
3172.76
)
;
    }
    obstacle
    {
        type            calculated;
        value           nonuniform List<scalar> 
40
(
25681.8
13447.8
12942.1
12900.9
12791.7
12631.1
12465.9
12363
12323.4
12316
25681.8
13447.8
12942.1
12900.9
12791.7
12631.1
12465.9
12363
12323.4
12316
12448.1
12286.2
12166.4
11827.6
11720.3
12448.1
12286.2
12166.4
11827.6
11720.3
6208.71
4220.83
3275.73
2740.61
2233.86
6208.71
4220.83
3275.73
2740.61
2233.86
)
;
    }
    empty
    {
        type            empty;
    }
}


// ************************************************************************* //
