/*--------------------------------*- C++ -*----------------------------------*\
| =========                 |                                                 |
| \\      /  F ield         | OpenFOAM: The Open Source CFD Toolbox           |
|  \\    /   O peration     | Version:  v1912                                 |
|   \\  /    A nd           | Website:  www.openfoam.com                      |
|    \\/     M anipulation  |                                                 |
\*---------------------------------------------------------------------------*/
FoamFile
{
    version     2.0;
    format      ascii;
    class       volScalarField;
    location    "5.18";
    object      rho;
}
// * * * * * * * * * * * * * * * * * * * * * * * * * * * * * * * * * * * * * //

dimensions      [1 -3 0 0 0 0 0];


internalField   nonuniform List<scalar> 
1900
(
42686.2
17009.5
14372.7
13894.2
13598.8
13406.8
13256.2
13137.6
13072.5
13010
42686.2
17009.4
14372.8
13893.8
13598.6
13406.4
13254.8
13141.9
13064.2
12997.5
42686.2
17009.3
14372.8
13893.8
13598.9
13406.7
13254.1
13138.6
13057.2
12992.2
42686.2
17009.4
14372.8
13893.8
13598.6
13406.4
13254.8
13141.9
13064.2
12997.5
42686.2
17009.5
14372.7
13894.2
13598.8
13406.8
13256.2
13137.6
13072.5
13010
13112.3
12971.1
12912.3
12655.6
12580.8
12971.1
12870.7
12822.9
12563.7
12098.2
12949.7
12852.6
12801.7
12585.1
12210.6
12971.1
12870.7
12822.9
12563.7
12098.2
13112.3
12971.1
12912.3
12655.6
12580.8
7979.93
7225.89
7099.33
6762.59
6206.26
8602.86
7423.21
7225.62
6866.19
6374.44
8736.66
7365.46
7137.73
6800.13
6301.67
8602.86
7423.21
7225.62
6866.19
6374.44
7979.93
7225.89
7099.33
6762.59
6206.26
4370.07
3455.61
4044.46
4478.73
4367.74
4041.34
3675.9
3391.57
3201.58
3050.51
2904.03
2763.19
2644.59
2565.26
2518.59
2488.48
2464.87
2444.41
2426.65
2411.55
2399.29
2389.64
2382.16
2376.68
2372.86
2370.45
2369.19
2369.15
2370.5
2374.77
2381.18
2393.34
2407.22
2428.45
2448.49
2483.14
2513.37
2581.54
3070.55
8812.31
4753.73
3651.54
4122.03
4560.37
4429.42
4077.92
3691.69
3396.88
3203.85
3051.58
2905.07
2764.33
2644.98
2565.23
2518.49
2488.38
2464.79
2444.34
2426.57
2411.46
2399.19
2389.54
2382.06
2376.58
2372.76
2370.34
2369.08
2369.04
2370.39
2374.65
2381.06
2393.25
2407.14
2428.4
2448.37
2483.19
2513.2
2581.73
3067.36
8795.08
4813.44
3592.76
4053.07
4597.32
4482
4100.98
3698.35
3398.66
3204.64
3052.01
2905.52
2764.75
2645.12
2565.22
2518.46
2488.36
2464.77
2444.32
2426.55
2411.44
2399.17
2389.51
2382.03
2376.55
2372.73
2370.31
2369.05
2369
2370.35
2374.62
2381.03
2393.23
2407.13
2428.42
2448.42
2483.39
2513.54
2582.47
3065.69
8795.49
4753.73
3651.54
4122.03
4560.37
4429.42
4077.92
3691.69
3396.88
3203.85
3051.58
2905.07
2764.33
2644.98
2565.23
2518.49
2488.38
2464.79
2444.34
2426.57
2411.46
2399.19
2389.54
2382.06
2376.58
2372.76
2370.34
2369.08
2369.04
2370.39
2374.65
2381.06
2393.25
2407.14
2428.4
2448.37
2483.19
2513.2
2581.73
3067.36
8795.08
4370.07
3455.61
4044.46
4478.73
4367.74
4041.34
3675.9
3391.57
3201.58
3050.51
2904.03
2763.19
2644.59
2565.26
2518.59
2488.48
2464.87
2444.41
2426.65
2411.55
2399.29
2389.64
2382.16
2376.68
2372.86
2370.45
2369.19
2369.15
2370.5
2374.77
2381.18
2393.34
2407.22
2428.45
2448.49
2483.14
2513.37
2581.54
3070.55
8812.31
3661.26
3326.21
3892.77
4204.48
4163.21
3923.75
3627.21
3368.41
3190.24
3043.42
2897.39
2757.5
2642.01
2564.82
2518.77
2488.7
2465.06
2444.61
2426.9
2411.84
2399.62
2389.98
2382.51
2377.03
2373.21
2370.8
2369.54
2369.51
2370.86
2375.12
2381.5
2393.56
2407.4
2428.42
2448.73
2482.79
2514.13
2579.31
3077.61
9107.37
4218.86
3214.95
3439.25
3792.7
3832.27
3692.96
3498.08
3306.52
3159.71
3023.13
2880.14
2744.7
2636
2563.59
2519.06
2489.14
2465.44
2445.04
2427.44
2412.52
2400.38
2390.79
2383.33
2377.86
2374.04
2371.64
2370.39
2370.4
2371.77
2376.02
2382.36
2394.2
2407.9
2428.51
2449.13
2482.42
2514.95
2574.58
3068.23
8735.86
4751.74
3017
3208.24
3513.92
3559.85
3489.89
3361.42
3230.94
3115.15
2992.28
2855.04
2727.76
2627.79
2561.42
2519.11
2489.58
2465.92
2445.64
2428.24
2413.49
2401.49
2391.97
2384.54
2379.09
2375.28
2372.91
2371.68
2371.76
2373.18
2377.45
2383.72
2395.25
2408.8
2428.88
2449.84
2482.25
2515.37
2569.62
3059.62
8595.12
5100.89
2879.13
3086.29
3303.89
3344.04
3312.28
3238.38
3157.2
3065.14
2953.9
2824.57
2708.25
2618.34
2558.48
2518.73
2489.83
2466.37
2446.3
2429.15
2414.63
2402.79
2393.37
2386
2380.58
2376.82
2374.5
2373.34
2373.54
2375.04
2379.36
2385.58
2396.77
2410.13
2429.7
2450.82
2482.43
2515.16
2567.02
3062.97
8481.54
5373.87
2825.55
3029.93
3139.29
3183.65
3174.67
3137.13
3086.16
3011.82
2909.75
2791.23
2687.25
2608.43
2554.96
2517.89
2489.82
2466.73
2446.96
2430.13
2415.87
2404.22
2394.92
2387.62
2382.27
2378.6
2376.39
2375.33
2375.72
2377.34
2381.74
2387.92
2398.74
2411.87
2430.89
2451.98
2482.81
2514.4
2565.71
3061.11
8358.25
5625.08
2791.92
2961.92
3002.91
3073.97
3073.73
3059.64
3024.16
2959.65
2864.48
2758.14
2667.14
2598.96
2551.4
2516.86
2489.74
2467.05
2447.67
2431.18
2417.19
2405.75
2396.59
2389.4
2384.17
2380.65
2378.62
2377.73
2378.42
2380.24
2384.79
2390.98
2401.48
2414.44
2433.02
2454.12
2484.5
2514.98
2567.13
3064.52
8221.68
5827.57
2763.74
2900.95
2933.53
3001.91
3001.46
2995.61
2965.49
2904.99
2817.82
2725.33
2647.88
2589.72
2547.57
2515.49
2489.42
2467.28
2448.35
2432.24
2418.55
2407.33
2398.33
2391.28
2386.22
2382.88
2381.05
2380.37
2381.36
2383.36
2387.99
2394.1
2404.18
2416.81
2434.78
2455.66
2485.46
2514.41
2567.93
3060.86
8071.15
5985.31
2743.99
2849.06
2877.99
2946.97
2944.39
2940.78
2911.4
2852.79
2774.97
2696.63
2632
2582.49
2544.9
2514.84
2489.67
2468.15
2449.66
2433.91
2420.49
2409.49
2400.69
2393.83
2389
2385.92
2384.36
2383.94
2385.36
2387.6
2392.34
2398.37
2408.02
2420.3
2437.69
2458.39
2487.8
2515.95
2570.75
3060.19
7898.8
6116.24
2726.35
2810.28
2841.81
2904.83
2897.6
2890.18
2858.6
2802.93
2735.96
2671.2
2617.95
2575.81
2542.21
2514.05
2490
2469.29
2451.4
2436.08
2422.96
2412.2
2403.61
2396.95
2392.33
2389.49
2388.14
2387.93
2389.7
2392.04
2396.72
2402.46
2411.46
2423.12
2439.73
2459.98
2488.73
2515.94
2572.25
3053.67
7718.16
6171.46
2716.58
2781.77
2811.91
2866.36
2853.92
2841.26
2808.51
2758.21
2703.13
2651.08
2607.65
2571.69
2541.57
2515.62
2493
2473.14
2455.87
2440.97
2428.16
2417.64
2409.26
2402.78
2398.34
2395.63
2394.43
2394.31
2396.28
2398.54
2402.99
2408.25
2416.39
2427.17
2442.81
2462.49
2490.51
2517.06
2574.21
3047.1
7516.89
6208.75
2710.19
2764.11
2788.35
2831.15
2813.91
2796.13
2764.6
2721.38
2677.46
2635.96
2600.33
2569.26
2542.18
2518.41
2497.13
2478.32
2461.79
2447.41
2434.96
2424.73
2416.58
2410.28
2405.96
2403.33
2402.25
2402.18
2404.21
2406.28
2410.35
2414.96
2422.07
2431.72
2446.12
2464.99
2492.29
2517.98
2575.46
3037.11
7313.57
6138.65
2704.23
2748.87
2765.18
2795.68
2775.74
2755.29
2727.48
2692.2
2658.56
2626.02
2597.28
2571.04
2547.37
2525.53
2505.91
2488.35
2472.77
2459.09
2447.1
2437.16
2429.12
2422.78
2418.34
2415.52
2414.23
2413.88
2415.69
2417.23
2420.56
2424.18
2429.92
2438.08
2450.97
2468.86
2495.35
2520.47
2578.23
3026.39
7074.41
6067.54
2698.83
2736.65
2743.93
2762.5
2742.99
2723.06
2700.64
2672.83
2647.35
2621.82
2598.59
2576.08
2554.76
2534.87
2516.56
2499.97
2485.12
2472.01
2460.44
2450.85
2443.06
2436.86
2432.51
2429.73
2428.49
2428.06
2429.82
2430.92
2433.6
2436.26
2440.67
2447.25
2458.56
2475.41
2501.05
2525.17
2582.61
3013.7
6858.33
5889.85
2696.22
2730.41
2729.79
2736.76
2718.38
2699.99
2683.04
2662.26
2644.06
2624.94
2605.96
2586.56
2567.97
2550.04
2533.28
2517.9
2504.06
2491.74
2480.71
2471.35
2463.5
2457.07
2452.44
2449.39
2447.98
2447.18
2448.57
2449.04
2450.98
2452.6
2455.67
2460.64
2470.35
2486.29
2511.33
2534.7
2592.61
3001.02
6590.64
5764.67
2699.69
2729.4
2722.02
2718.7
2702.78
2688.51
2677.85
2663.77
2650.34
2633.96
2618.17
2601.2
2584.45
2567.79
2551.81
2536.8
2523.1
2510.86
2500.03
2491.15
2483.95
2478.13
2473.98
2471.24
2470.09
2469.29
2470.71
2470.93
2472.55
2473.55
2475.79
2479.74
2488.62
2504.64
2530.58
2553.98
2612.66
2998.1
6398.43
5592.49
2717.88
2742.64
2730.57
2722.29
2709.57
2698.56
2690.6
2679.8
2669.46
2656.06
2642.54
2627.29
2612.33
2597.04
2582.28
2568.36
2555.73
2544.51
2534.36
2525.6
2517.96
2511.51
2506.84
2503.61
2502.18
2500.96
2502
2501.69
2502.7
2503.05
2504.42
2507.33
2515.48
2531.52
2559.11
2583.75
2646.34
2999.58
6187.12
5603.36
2751.76
2764.98
2747.29
2733.84
2722.39
2715.06
2709.47
2701.76
2693.1
2680.81
2669.05
2655.21
2642.14
2628.48
2615.19
2602.07
2589.12
2576.58
2565.28
2557.13
2551.61
2546.89
2542.52
2538.38
2535.94
2533.33
2533.43
2532.01
2532.39
2532.12
2532.95
2534.77
2542.04
2557.48
2586.7
2611.52
2675.73
3008.33
6160.12
5705.74
2818.36
2818.63
2795.49
2778.13
2766.99
2762.03
2757.36
2751.55
2744.01
2732.9
2721.43
2707.37
2693.82
2679.59
2666.77
2655.77
2646.96
2639.7
2631.95
2623.81
2615.02
2605.82
2598.96
2594.04
2592.77
2591.87
2593.17
2593.04
2594.19
2594.56
2595.84
2597.44
2604.84
2620.59
2654.05
2682.79
2746.25
3036.85
6162.53
16538.4
3795.78
3313.9
3274.22
3287.56
3296.99
3312.43
3319.42
3322.63
3318.9
3309.58
3296.68
3278.53
3258.39
3234.6
3209.66
3182.99
3155.99
3137
3118.38
3111.36
3116.44
3113.9
3122.86
3120.58
3125.41
3122.75
3124.29
3118.87
3113.75
3104.16
3092.85
3078.35
3062.97
3055.76
3059.11
3072.12
3091.67
3879.99
15879.5
183093
16941.5
7440.22
7385.36
7535.83
7785.99
8008.35
8233.88
8404.47
8550.11
8666.48
8747.85
8816.35
8860.14
8892.47
8908.2
8913.76
8901.3
8888.48
8854.18
8825.8
8790.53
8741.74
8632.15
8506.96
8363.5
8212.6
8032.05
7846.18
7632.6
7415.64
7157.26
6913.39
6607.05
6369.57
6109.79
6061.76
6013.62
15276.8
165791
183093
16941.5
7440.22
7385.36
7535.83
7785.99
8008.35
8233.88
8404.47
8550.11
8666.48
8747.85
8816.35
8860.14
8892.47
8908.2
8913.76
8901.3
8888.48
8854.18
8825.8
8790.53
8741.74
8632.15
8506.96
8363.5
8212.6
8032.05
7846.18
7632.6
7415.64
7157.26
6913.39
6607.05
6369.57
6109.79
6061.76
6013.62
15276.8
165791
16538.4
3795.78
3313.9
3274.22
3287.56
3296.99
3312.43
3319.42
3322.63
3318.9
3309.58
3296.68
3278.53
3258.39
3234.6
3209.66
3182.99
3155.99
3137
3118.38
3111.36
3116.44
3113.9
3122.86
3120.58
3125.41
3122.75
3124.29
3118.87
3113.75
3104.16
3092.85
3078.35
3062.97
3055.76
3059.11
3072.12
3091.67
3879.99
15879.5
5705.74
2818.36
2818.63
2795.49
2778.13
2766.99
2762.03
2757.36
2751.55
2744.01
2732.9
2721.43
2707.37
2693.82
2679.59
2666.77
2655.77
2646.96
2639.7
2631.95
2623.81
2615.02
2605.82
2598.96
2594.04
2592.77
2591.87
2593.17
2593.04
2594.19
2594.56
2595.84
2597.44
2604.84
2620.59
2654.05
2682.79
2746.25
3036.85
6162.53
5603.36
2751.76
2764.98
2747.29
2733.84
2722.39
2715.06
2709.47
2701.76
2693.1
2680.81
2669.05
2655.21
2642.14
2628.48
2615.19
2602.07
2589.12
2576.58
2565.28
2557.13
2551.61
2546.89
2542.52
2538.38
2535.94
2533.33
2533.43
2532.01
2532.39
2532.12
2532.95
2534.77
2542.04
2557.48
2586.7
2611.52
2675.73
3008.33
6160.12
5592.49
2717.88
2742.64
2730.57
2722.29
2709.57
2698.56
2690.6
2679.8
2669.46
2656.06
2642.54
2627.29
2612.33
2597.04
2582.28
2568.36
2555.73
2544.51
2534.36
2525.6
2517.96
2511.51
2506.84
2503.61
2502.18
2500.96
2502
2501.69
2502.7
2503.05
2504.42
2507.33
2515.48
2531.52
2559.11
2583.75
2646.34
2999.58
6187.12
5764.67
2699.69
2729.4
2722.02
2718.7
2702.78
2688.51
2677.85
2663.77
2650.34
2633.96
2618.17
2601.2
2584.45
2567.79
2551.81
2536.8
2523.1
2510.86
2500.03
2491.15
2483.95
2478.13
2473.98
2471.24
2470.09
2469.29
2470.71
2470.93
2472.55
2473.55
2475.79
2479.74
2488.62
2504.64
2530.58
2553.98
2612.66
2998.1
6398.43
5889.85
2696.22
2730.41
2729.79
2736.76
2718.38
2699.99
2683.04
2662.26
2644.06
2624.94
2605.96
2586.56
2567.97
2550.04
2533.28
2517.9
2504.06
2491.74
2480.71
2471.35
2463.5
2457.07
2452.44
2449.39
2447.98
2447.18
2448.57
2449.04
2450.98
2452.6
2455.67
2460.64
2470.35
2486.29
2511.33
2534.7
2592.61
3001.02
6590.64
6067.54
2698.83
2736.65
2743.93
2762.5
2742.99
2723.06
2700.64
2672.83
2647.35
2621.82
2598.59
2576.08
2554.76
2534.87
2516.56
2499.97
2485.12
2472.01
2460.44
2450.85
2443.06
2436.86
2432.51
2429.73
2428.49
2428.06
2429.82
2430.92
2433.6
2436.26
2440.67
2447.25
2458.56
2475.41
2501.05
2525.17
2582.61
3013.7
6858.33
6138.65
2704.23
2748.87
2765.18
2795.68
2775.74
2755.29
2727.48
2692.2
2658.56
2626.02
2597.28
2571.04
2547.37
2525.53
2505.91
2488.35
2472.77
2459.09
2447.1
2437.16
2429.12
2422.78
2418.34
2415.52
2414.23
2413.88
2415.69
2417.23
2420.56
2424.18
2429.92
2438.08
2450.97
2468.86
2495.35
2520.47
2578.23
3026.39
7074.41
6208.75
2710.19
2764.11
2788.35
2831.15
2813.91
2796.13
2764.6
2721.38
2677.46
2635.96
2600.33
2569.26
2542.18
2518.41
2497.13
2478.32
2461.79
2447.41
2434.96
2424.73
2416.58
2410.28
2405.96
2403.33
2402.25
2402.18
2404.21
2406.28
2410.35
2414.96
2422.07
2431.72
2446.12
2464.99
2492.29
2517.98
2575.46
3037.11
7313.57
6171.46
2716.58
2781.77
2811.91
2866.36
2853.92
2841.26
2808.51
2758.21
2703.13
2651.08
2607.65
2571.69
2541.57
2515.62
2493
2473.14
2455.87
2440.97
2428.16
2417.64
2409.26
2402.78
2398.34
2395.63
2394.43
2394.31
2396.28
2398.54
2402.99
2408.25
2416.39
2427.17
2442.81
2462.49
2490.51
2517.06
2574.21
3047.1
7516.89
6116.24
2726.35
2810.28
2841.81
2904.83
2897.6
2890.18
2858.6
2802.93
2735.96
2671.2
2617.95
2575.81
2542.21
2514.05
2490
2469.29
2451.4
2436.08
2422.96
2412.2
2403.61
2396.95
2392.33
2389.49
2388.14
2387.93
2389.7
2392.04
2396.72
2402.46
2411.46
2423.12
2439.73
2459.98
2488.73
2515.94
2572.25
3053.67
7718.16
5985.31
2743.99
2849.06
2877.99
2946.97
2944.39
2940.78
2911.4
2852.79
2774.97
2696.63
2632
2582.49
2544.9
2514.84
2489.67
2468.15
2449.66
2433.91
2420.49
2409.49
2400.69
2393.83
2389
2385.92
2384.36
2383.94
2385.36
2387.6
2392.34
2398.37
2408.02
2420.3
2437.69
2458.39
2487.8
2515.95
2570.75
3060.19
7898.8
5827.57
2763.74
2900.95
2933.53
3001.91
3001.46
2995.61
2965.49
2904.99
2817.82
2725.33
2647.88
2589.72
2547.57
2515.49
2489.42
2467.28
2448.35
2432.24
2418.55
2407.33
2398.33
2391.28
2386.22
2382.88
2381.05
2380.37
2381.36
2383.36
2387.99
2394.1
2404.18
2416.81
2434.78
2455.66
2485.46
2514.41
2567.93
3060.86
8071.15
5625.08
2791.92
2961.92
3002.91
3073.97
3073.73
3059.64
3024.16
2959.65
2864.48
2758.14
2667.14
2598.96
2551.4
2516.86
2489.74
2467.05
2447.67
2431.18
2417.19
2405.75
2396.59
2389.4
2384.17
2380.65
2378.62
2377.73
2378.42
2380.24
2384.79
2390.98
2401.48
2414.44
2433.02
2454.12
2484.5
2514.98
2567.13
3064.52
8221.68
5373.87
2825.55
3029.93
3139.29
3183.65
3174.67
3137.13
3086.16
3011.82
2909.75
2791.23
2687.25
2608.43
2554.96
2517.89
2489.82
2466.73
2446.96
2430.13
2415.87
2404.22
2394.92
2387.62
2382.27
2378.6
2376.39
2375.33
2375.72
2377.34
2381.74
2387.92
2398.74
2411.87
2430.89
2451.98
2482.81
2514.4
2565.71
3061.11
8358.25
5100.89
2879.13
3086.29
3303.89
3344.04
3312.28
3238.38
3157.2
3065.14
2953.9
2824.57
2708.25
2618.34
2558.48
2518.73
2489.83
2466.37
2446.3
2429.15
2414.63
2402.79
2393.37
2386
2380.58
2376.82
2374.5
2373.34
2373.54
2375.04
2379.36
2385.58
2396.77
2410.13
2429.7
2450.82
2482.43
2515.16
2567.02
3062.97
8481.54
4751.74
3017
3208.24
3513.92
3559.85
3489.89
3361.42
3230.94
3115.15
2992.28
2855.04
2727.76
2627.79
2561.42
2519.11
2489.58
2465.92
2445.64
2428.24
2413.49
2401.49
2391.97
2384.54
2379.09
2375.28
2372.91
2371.68
2371.76
2373.18
2377.45
2383.72
2395.25
2408.8
2428.88
2449.84
2482.25
2515.37
2569.62
3059.62
8595.12
4218.86
3214.95
3439.25
3792.7
3832.27
3692.96
3498.08
3306.52
3159.71
3023.13
2880.14
2744.7
2636
2563.59
2519.06
2489.14
2465.44
2445.04
2427.44
2412.52
2400.38
2390.79
2383.33
2377.86
2374.04
2371.64
2370.39
2370.4
2371.77
2376.02
2382.36
2394.2
2407.9
2428.51
2449.13
2482.42
2514.95
2574.58
3068.23
8735.86
3661.26
3326.21
3892.77
4204.48
4163.21
3923.75
3627.21
3368.41
3190.24
3043.42
2897.39
2757.5
2642.01
2564.82
2518.77
2488.7
2465.06
2444.61
2426.9
2411.84
2399.62
2389.98
2382.51
2377.03
2373.21
2370.8
2369.54
2369.51
2370.86
2375.12
2381.5
2393.56
2407.4
2428.42
2448.73
2482.79
2514.13
2579.31
3077.61
9107.37
)
;

boundaryField
{
    inlet
    {
        type            calculated;
        value           uniform 14000.1;
    }
    outlet
    {
        type            calculated;
        value           nonuniform List<scalar> 
165
(
2504.8
2702.84
2997.86
3128.69
3178.18
3220.9
3266.24
3300.51
3307.42
3306.95
3297.49
3300.83
3290.19
3288.08
3271.41
3245
3202.38
3131.4
3612.27
3982.93
3982.93
3536.65
3128.33
3205.74
3248.23
3279.91
3307.69
3328.24
3350
3368.13
3385.4
3402.7
3418
3433.98
3448.79
3462.93
3473.56
3481.05
3485.18
3486.47
3488.38
3493.32
3492.34
3496.15
3490.99
3486.34
3477.94
3471.54
3461.32
3452.01
3438.67
3426.68
3406.86
3389.64
3356.74
3315.09
3255.33
3174.07
3582.73
3997.85
3490.18
3520.3
3503.8
3492.66
3485.44
3482.42
3476.95
3471.84
3463.72
3455.67
3443.67
3432.52
3412.58
3394.35
3359.56
3316.11
3258.84
3173.38
3574.31
3997.85
3523.49
3516.07
3511.49
3516.07
3523.49
3997.85
3574.31
3173.38
3258.84
3316.11
3359.56
3394.35
3412.58
3432.52
3443.67
3455.67
3463.72
3471.84
3476.95
3482.42
3485.44
3492.66
3503.8
3520.3
3490.18
3982.93
3536.65
3128.33
3205.74
3248.23
3279.91
3307.69
3328.24
3350
3368.13
3385.4
3402.7
3418
3433.98
3448.79
3462.93
3473.56
3481.05
3485.18
3486.47
3488.38
3493.32
3492.34
3496.15
3490.99
3486.34
3477.94
3471.54
3461.32
3452.01
3438.67
3426.68
3406.86
3389.64
3356.74
3315.09
3255.33
3174.07
3582.73
3997.85
3982.93
3612.27
3131.4
3202.38
3245
3271.41
3288.08
3290.19
3300.83
3297.49
3306.95
3307.42
3300.51
3266.24
3220.9
3178.18
3128.69
2997.86
2702.84
2504.8
)
;
    }
    obstacle
    {
        type            calculated;
        value           nonuniform List<scalar> 
40
(
42686.2
17009.5
14372.7
13894.2
13598.8
13406.8
13256.2
13137.6
13072.5
13010
42686.2
17009.5
14372.7
13894.2
13598.8
13406.8
13256.2
13137.6
13072.5
13010
13112.3
12971.1
12912.3
12655.6
12580.8
13112.3
12971.1
12912.3
12655.6
12580.8
7979.93
7225.89
7099.33
6762.59
6206.26
7979.93
7225.89
7099.33
6762.59
6206.26
)
;
    }
    empty
    {
        type            empty;
    }
}


// ************************************************************************* //
