/*--------------------------------*- C++ -*----------------------------------*\
| =========                 |                                                 |
| \\      /  F ield         | OpenFOAM: The Open Source CFD Toolbox           |
|  \\    /   O peration     | Version:  v1912                                 |
|   \\  /    A nd           | Website:  www.openfoam.com                      |
|    \\/     M anipulation  |                                                 |
\*---------------------------------------------------------------------------*/
FoamFile
{
    version     2.0;
    format      ascii;
    class       volScalarField;
    location    "0.84";
    object      p;
}
// * * * * * * * * * * * * * * * * * * * * * * * * * * * * * * * * * * * * * //

dimensions      [1 -1 -2 0 0 0 0];


internalField   nonuniform List<scalar> 
4800
(
596.271
16.2328
10.592
10.7331
10.5529
10.4596
10.3824
10.2272
9.14316
6.89469
5.84589
5.75101
5.8858
6.14129
6.50709
7.00181
7.62201
8.29388
8.91611
9.42834
9.81756
10.0988
10.3261
10.5542
10.759
10.7073
9.99699
8.01241
6.78536
6.61106
6.67091
6.86939
7.12204
7.43832
7.81343
8.20162
8.51218
8.735
8.8975
9.01818
596.291
16.1628
10.5919
10.7453
10.5772
10.5125
10.4479
10.2737
9.10981
6.83016
5.79759
5.70903
5.86899
6.16126
6.56524
7.07281
7.65685
8.25061
8.81385
9.31551
9.70875
10.0184
10.3206
10.6035
10.818
10.7547
9.97035
7.93837
6.73334
6.57884
6.66797
6.8872
7.14424
7.44563
7.78164
8.11231
8.39862
8.6354
8.83388
9.01315
596.326
16.0209
10.5936
10.7809
10.6436
10.6238
10.5616
10.345
9.04577
6.7144
5.71912
5.65099
5.85977
6.20682
6.65476
7.16
7.66836
8.15419
8.6505
9.1338
9.56564
9.9411
10.3329
10.7
10.9177
10.8342
9.92713
7.81171
6.66347
6.54877
6.68635
6.93373
7.19958
7.46459
7.72652
7.9858
8.25411
8.51625
8.75233
8.97227
596.244
15.8057
10.6014
10.8322
10.7584
10.7855
10.7147
10.4246
8.95392
6.56408
5.62192
5.59503
5.86633
6.27691
6.75821
7.23565
7.66391
8.07343
8.49854
8.95133
9.41506
9.87467
10.3464
10.7786
11.0099
10.8799
9.84068
7.65481
6.58831
6.52519
6.72221
6.99861
7.2452
7.43987
7.6138
7.81668
8.0736
8.37204
8.67059
8.9345
596.272
15.4761
10.6141
10.8945
10.909
10.97
10.8878
10.4963
8.83611
6.39538
5.52155
5.55945
5.89361
6.36381
6.85885
7.2892
7.64067
7.986
8.36847
8.81261
9.31326
9.84232
10.3799
10.8405
11.0408
10.8576
9.70295
7.48695
6.523
6.53807
6.77632
7.04926
7.25156
7.37005
7.48391
7.65556
7.91124
8.23064
8.56675
8.8516
596.296
15.0405
10.6366
10.9656
11.0935
11.1751
11.0435
10.5369
8.70803
6.23435
5.44092
5.54766
5.93777
6.45219
6.93145
7.29831
7.60156
7.91777
8.28393
8.73891
9.27523
9.85433
10.4181
10.8456
11.0008
10.75
9.51741
7.32157
6.48697
6.58778
6.82603
7.07283
7.21904
7.28094
7.36926
7.53893
7.7955
8.11354
8.44388
8.71632
596.464
14.5714
10.6644
11.0353
11.257
11.3425
11.1499
10.5259
8.58419
6.10957
5.39896
5.56345
5.99845
6.52268
6.96151
7.29237
7.57519
7.87546
8.2425
8.72242
9.29688
9.907
10.4504
10.7985
10.8802
10.5934
9.32067
7.1844
6.48798
6.64448
6.86042
7.07305
7.17952
7.2205
7.31354
7.48365
7.72713
8.02206
8.31761
8.5618
596.731
14.1313
10.7006
11.0927
11.3425
11.4298
11.1894
10.4884
8.48903
6.03242
5.40307
5.61759
6.06839
6.55789
6.95561
7.27324
7.55671
7.86191
8.24421
8.74754
9.35021
9.97541
10.4769
10.7252
10.7182
10.4024
9.1335
7.09752
6.5051
6.68127
6.88134
7.06902
7.16651
7.22358
7.32322
7.47974
7.69596
7.9592
8.22595
8.44484
596.784
13.7755
10.7356
11.1297
11.3447
11.4235
11.1549
10.4402
8.43078
6.00204
5.456
5.7019
6.11958
6.5522
6.91789
7.23986
7.54807
7.87678
8.27751
8.79939
9.40517
10.0206
10.4686
10.646
10.5707
10.2487
9.01275
7.06215
6.51149
6.69059
6.88333
7.08123
7.20288
7.28831
7.38994
7.5309
7.715
7.94276
8.17996
8.39897
597.014
13.5478
10.7603
11.1386
11.2602
11.3256
11.0495
10.3832
8.40179
6.00878
5.53866
5.79241
6.13648
6.51324
6.86445
7.20448
7.54715
7.90975
8.33595
8.86219
9.44225
10.0105
10.4024
10.5592
10.459
10.1683
8.99155
7.0806
6.50956
6.68447
6.88324
7.11152
7.27801
7.39198
7.49344
7.61077
7.75573
7.93927
8.16755
8.40351
597.041
13.4276
10.7681
11.1183
11.1141
11.1552
10.9029
10.3302
8.41144
6.05199
5.61525
5.85573
6.12685
6.4629
6.81149
7.17284
7.55285
7.95388
8.40736
8.92387
9.46195
9.94239
10.2779
10.4628
10.3933
10.1946
9.09655
7.17584
6.50568
6.647
6.87056
7.14771
7.37088
7.50801
7.5986
7.68488
7.8033
7.97269
8.20539
8.45853
597.018
13.3896
10.7549
11.0576
10.9586
10.9481
10.7436
10.3036
8.46518
6.12802
5.67555
5.85635
6.09583
6.41838
6.77247
7.15428
7.5689
8.00647
8.47959
8.96724
9.44109
9.83142
10.1281
10.3584
10.3888
10.3176
9.28095
7.31191
6.52694
6.58321
6.84784
7.17778
7.45213
7.61244
7.69406
7.76269
7.87055
8.03499
8.27119
8.53678
597.061
13.3536
10.7235
10.966
10.8236
10.7412
10.6052
10.322
8.56252
6.20568
5.71294
5.80911
6.0496
6.38003
6.75309
7.15733
7.59715
8.06027
8.53435
8.98222
9.37903
9.68707
9.97813
10.2652
10.4566
10.4868
9.49506
7.47215
6.55135
6.52488
6.80156
7.17429
7.48926
7.6842
7.77758
7.84714
7.95418
8.11689
8.35356
8.6159
597.304
13.2882
10.6808
10.8803
10.706
10.5602
10.5118
10.3902
8.69246
6.26768
5.72649
5.73885
5.99159
6.34493
6.75129
7.18434
7.64081
8.10931
8.55683
8.95583
9.27674
9.53554
9.86717
10.2183
10.5722
10.6667
9.71491
7.65119
6.58508
6.48675
6.7355
7.11861
7.47503
7.72994
7.85569
7.94278
8.05266
8.20877
8.43062
8.66808
597.815
13.1913
10.6297
10.8032
10.5992
10.4279
10.4735
10.4999
8.83453
6.31605
5.72331
5.66081
5.9231
6.3039
6.7551
7.22652
7.69782
8.15087
8.54982
8.88303
9.14893
9.41945
9.82559
10.2404
10.7096
10.813
9.89698
7.83703
6.63029
6.47498
6.66541
7.02211
7.40441
7.73358
7.93664
8.05076
8.15807
8.29589
8.48004
8.67135
598.532
13.0333
10.5746
10.7252
10.5088
10.36
10.4955
10.64
8.98638
6.3626
5.69723
5.58107
5.84659
6.25028
6.74253
7.26101
7.75208
8.17896
8.52198
8.78614
9.02556
9.35082
9.84678
10.3325
10.8448
10.9048
10.0351
8.02157
6.6863
6.48341
6.60769
6.91955
7.2975
7.68512
8.00777
8.16048
8.26777
8.37039
8.49229
8.63112
599.399
12.7999
10.5209
10.6614
10.4485
10.3636
10.586
10.7662
9.10745
6.39683
5.64318
5.50469
5.76769
6.18608
6.71647
7.27872
7.78698
8.18608
8.48166
8.6957
8.93349
9.32712
9.90376
10.4676
10.9642
10.9455
10.144
8.19478
6.74818
6.50371
6.57496
6.84396
7.19531
7.60184
7.99724
8.26271
8.36772
8.425
8.48253
8.57542
600.387
12.448
10.4708
10.6185
10.4311
10.4343
10.7102
10.85
9.17693
6.42621
5.58304
5.44357
5.69861
6.11812
6.66998
7.26451
7.78431
8.17154
8.43292
8.63185
8.89278
9.34682
9.98608
10.6022
11.0455
10.9633
10.2406
8.3509
6.80951
6.5367
6.57326
6.80719
7.11842
7.50745
7.93785
8.28751
8.43119
8.45864
8.46472
8.53301
601.381
11.99
10.4083
10.594
10.4473
10.5645
10.8456
10.8859
9.21047
6.46668
5.54572
5.41214
5.65396
6.05925
6.6083
7.21464
7.75034
8.12689
8.38227
8.59927
8.89689
9.40794
10.0881
10.6937
11.0756
10.9676
10.3292
8.49138
6.87386
6.57675
6.5981
6.81109
7.0744
7.42391
7.8306
8.21473
8.42045
8.45213
8.4559
8.5211
602.113
11.4154
10.3264
10.6023
10.5247
10.7264
10.9571
10.8804
9.23992
6.53166
5.53434
5.41265
5.63958
6.02162
6.54083
7.12553
7.66228
8.05096
8.34248
8.60246
8.95841
9.50646
10.1751
10.7417
11.0629
10.9794
10.4097
8.61528
6.93707
6.6217
6.65221
6.86684
7.10766
7.37775
7.69711
8.0453
8.31699
8.42924
8.46949
8.54249
602.838
10.6796
10.2466
10.639
10.6888
10.909
11.0352
10.8364
9.28154
6.62765
5.54366
5.43917
5.66208
6.02051
6.48638
7.01278
7.52619
7.94609
8.29946
8.64148
9.07399
9.61943
10.2399
10.7413
11.0144
10.9793
10.4772
8.7193
6.99694
6.67183
6.73605
6.96594
7.18789
7.38035
7.57734
7.82606
8.12481
8.34877
8.47199
8.59593
603.592
9.79129
10.1812
10.7117
10.9081
11.0956
11.083
10.7794
9.33497
6.75538
5.57288
5.48707
5.70418
6.04314
6.45289
6.90273
7.36777
7.81775
8.26139
8.7125
9.21688
9.74089
10.2669
10.6722
10.9527
10.9671
10.5254
8.7963
7.05092
6.72978
6.83916
7.08791
7.28807
7.4084
7.50289
7.64533
7.88419
8.19107
8.45746
8.66603
604.263
8.86447
10.1278
10.8136
11.1526
11.2684
11.1068
10.7115
9.38333
6.90701
5.6286
5.55406
5.75856
6.07621
6.43356
6.81127
7.22086
7.68861
8.23084
8.80611
9.36689
9.85151
10.2583
10.5671
10.868
10.9384
10.5583
8.84478
7.09334
6.79482
6.94436
7.20654
7.3854
7.44803
7.47794
7.53957
7.69177
7.98723
8.36647
8.71899
604.548
8.2197
10.0852
10.9158
11.378
11.4114
11.1179
10.6404
9.41768
7.06115
5.70522
5.63536
5.82105
6.11539
6.42639
6.74242
7.10419
7.58837
8.21949
8.91428
9.50631
9.93591
10.2087
10.4497
10.765
10.8823
10.5607
8.84735
7.11758
6.85468
7.0284
7.29057
7.44919
7.47943
7.46911
7.49118
7.57512
7.82718
8.23103
8.68842
604.308
7.92484
10.0525
10.9885
11.5444
11.5302
11.1311
10.5853
9.44351
7.19845
5.788
5.71512
5.88309
6.1553
6.42878
6.69625
7.02478
7.53408
8.2427
9.03007
9.61985
9.98045
10.1459
10.3362
10.6557
10.8036
10.5324
8.81631
7.11748
6.89928
7.07655
7.32919
7.47822
7.49949
7.47416
7.47633
7.54694
7.75202
8.10767
8.60428
603.546
8.04603
10.0704
11.0204
11.6128
11.5696
11.1283
10.5482
9.46987
7.30906
5.8649
5.78387
5.93622
6.18556
6.4328
6.66996
6.98729
7.52977
8.30729
9.14683
9.70991
10.0055
10.0896
10.2427
10.5562
10.7091
10.4727
8.74232
7.08848
6.92272
7.08157
7.3179
7.46475
7.49429
7.47634
7.48537
7.56157
7.76127
8.07762
8.50425
602.283
8.65986
10.1114
11.013
11.5806
11.5403
11.1177
10.551
9.49845
7.3581
5.91626
5.83201
5.97008
6.20385
6.43561
6.66573
6.99391
7.58325
8.40544
9.24352
9.7687
10.0093
10.058
10.1897
10.4757
10.6049
10.3646
8.61143
7.03247
6.92358
7.05491
7.27068
7.40686
7.4587
7.47288
7.51392
7.61512
7.81564
8.11555
8.46948
600.582
9.87874
10.1838
10.9718
11.4671
11.4577
11.099
10.5725
9.51235
7.35346
5.9363
5.85939
5.98437
6.20484
6.43852
6.69016
7.06238
7.68654
8.51512
9.30498
9.81139
10.0261
10.0715
10.1913
10.4237
10.4964
10.1987
8.41306
6.94785
6.90314
7.00833
7.19611
7.3232
7.40264
7.46803
7.56291
7.71189
7.93555
8.21548
8.479
599.051
11.2603
10.2806
10.9164
11.3043
11.3206
11.0584
10.5969
9.5045
7.30247
5.92747
5.8619
5.97794
6.1957
6.44757
6.74414
7.17806
7.82077
8.6075
9.31088
9.80128
10.0585
10.1388
10.2491
10.4126
10.4075
9.9871
8.15407
6.84716
6.8615
6.94538
7.10332
7.23101
7.34603
7.4732
7.63838
7.85812
8.12228
8.36245
8.52424
597.775
12.6193
10.3996
10.8724
11.1294
11.1694
10.9881
10.602
9.4646
7.19604
5.89402
5.84032
5.95652
6.18593
6.47409
6.83725
7.33135
7.96249
8.66139
9.26992
9.75522
10.0966
10.2514
10.355
10.445
10.3522
9.76543
7.87157
6.73859
6.80267
6.87094
7.00684
7.14061
7.29393
7.4927
7.75493
8.07497
8.36148
8.52505
8.60736
596.85
13.7974
10.5272
10.8678
10.9991
11.0296
10.901
10.5681
9.37249
7.03364
5.83714
5.80294
5.93369
6.18915
6.52986
6.96423
7.49943
8.09101
8.68104
9.20758
9.68812
10.1114
10.3698
10.4811
10.5095
10.3342
9.54023
7.58299
6.63726
6.71488
6.79545
6.92403
7.06584
7.26394
7.55559
7.94176
8.33888
8.59169
8.68103
8.71069
596.303
14.7108
10.6503
10.9044
10.9312
10.9206
10.799
10.4969
9.2166
6.82353
5.7522
5.74276
5.91513
6.2165
6.61632
7.10664
7.65385
8.19164
8.68304
9.14495
9.61296
10.08
10.4339
10.6063
10.5958
10.3505
9.31972
7.29805
6.54559
6.61268
6.72414
6.8653
7.02407
7.29581
7.68406
8.16682
8.56417
8.74881
8.81487
8.79764
595.546
15.3715
10.7528
10.9629
10.9067
10.8506
10.7078
10.402
9.00815
6.58542
5.64313
5.67782
5.90763
6.27037
6.72381
7.2416
7.77009
8.24894
8.67376
9.09087
9.53669
10.0033
10.4191
10.6997
10.6944
10.3979
9.10089
7.03521
6.46185
6.5131
6.66263
6.83803
7.04546
7.38966
7.85527
8.33923
8.68573
8.83883
8.88651
8.86184
595.7
15.7936
10.8272
11.0125
10.904
10.8164
10.647
10.3102
8.78083
6.3506
5.53533
5.62509
5.91839
6.34266
6.83343
7.34528
7.83488
8.27867
8.67677
9.05976
9.46249
9.8897
10.3362
10.7211
10.7894
10.4615
8.89248
6.83115
6.38738
6.42585
6.61838
6.85465
7.14293
7.52918
7.99656
8.42375
8.69431
8.84586
8.90339
8.91797
595.359
16.0152
10.872
11.039
10.9116
10.8052
10.6113
10.2285
8.56552
6.1473
5.4471
5.58211
5.93587
6.41512
6.91946
7.40458
7.86064
8.29369
8.68653
9.05077
9.40958
9.77684
10.2104
10.6552
10.8323
10.5154
8.7118
6.7009
6.32858
6.36221
6.60351
6.9243
7.28172
7.6766
8.06964
8.3939
8.61726
8.77327
8.87054
8.94344
595.217
16.11
10.8894
11.0432
10.9108
10.794
10.5792
10.1514
8.38218
5.99396
5.39044
5.56278
5.95972
6.46677
6.96473
7.42469
7.8619
8.29174
8.69064
9.0528
9.38945
9.70587
10.0839
10.5222
10.8033
10.478
8.55752
6.63171
6.29807
6.34997
6.6359
7.02962
7.43594
7.79587
8.07593
8.297
8.47793
8.63496
8.78507
8.92781
595.006
16.0999
10.8877
11.0329
10.8966
10.7694
10.5336
10.0744
8.23537
5.89233
5.37464
5.57115
5.98284
6.48622
6.97458
7.42444
7.85102
8.27729
8.68976
9.06677
9.40686
9.7046
10.021
10.3897
10.6437
10.3098
8.40838
6.61764
6.31666
6.39029
6.71737
7.14361
7.54863
7.85618
8.03796
8.18142
8.31025
8.46473
8.65504
8.85635
594.445
16.0116
10.8818
11.0202
10.8728
10.7305
10.4691
9.97919
8.11375
5.83682
5.39273
5.60514
5.99643
6.4802
6.96113
7.40678
7.82883
8.2451
8.65718
9.05582
9.42818
9.74765
10.0423
10.2907
10.4025
10.0275
8.21146
6.59376
6.40347
6.52038
6.84489
7.24513
7.59699
7.81953
7.96596
8.06956
8.17279
8.3212
8.52614
8.76752
594.023
15.8915
10.8787
11.0094
10.844
10.6922
10.4047
9.88371
8.02589
5.82264
5.42685
5.64168
6.00051
6.46325
6.93869
7.38827
7.80862
8.21506
8.61952
9.03299
9.44036
9.80824
10.1151
10.2736
10.1876
9.70758
8.0004
6.57438
6.48232
6.70562
6.99561
7.31204
7.56333
7.75062
7.8878
7.98129
8.0774
8.22498
8.4297
8.69542
593.517
15.824
10.8761
11.0056
10.8173
10.6571
10.3406
9.79395
7.96146
5.81849
5.4468
5.67165
6.01574
6.45941
6.92362
7.37374
7.7991
8.19536
8.5898
9.01616
9.44475
9.84681
10.1621
10.2971
10.1038
9.49304
7.8193
6.55724
6.52826
6.83645
7.13125
7.37533
7.55663
7.70519
7.82688
7.91856
8.0121
8.15776
8.36002
8.63894
9.20336
9.41198
9.69806
10.066
10.5457
11.1902
11.6405
11.5769
10.5181
8.20973
7.05535
6.8102
6.833
6.98248
7.2028
7.44099
7.68546
7.9241
8.0644
8.13877
8.17796
8.24157
8.35995
8.53026
8.71026
8.85373
8.95428
9.06851
9.26582
9.49478
9.50733
9.32998
8.45833
7.22562
6.92534
7.04011
7.30883
7.64907
7.91039
8.06002
8.10839
8.13066
8.18474
8.28794
8.42798
8.57584
8.72504
8.88689
9.07869
9.3168
9.51672
9.538
9.36286
9.00056
8.18979
7.82581
7.87458
8.10328
8.31979
8.47483
8.51151
8.46138
8.42411
8.47271
8.6367
8.98297
9.4041
9.84983
10.3252
10.8536
11.4007
11.6783
11.6886
11.1958
9.84835
8.36374
7.83493
7.76274
7.80679
8.01459
9.1938
9.42965
9.75305
10.0953
10.5009
10.9811
11.1969
11.065
9.97238
7.87734
7.03266
6.85377
6.92045
7.0856
7.29605
7.54144
7.78309
7.98911
8.10758
8.16659
8.21741
8.30075
8.43496
8.61402
8.79017
8.92538
9.02366
9.13891
9.31902
9.52985
9.44643
9.15133
8.15744
7.14943
6.98248
7.11903
7.38597
7.70539
7.94416
8.08282
8.14133
8.1782
8.24737
8.36704
8.51958
8.67369
8.82868
8.99136
9.18079
9.39419
9.54883
9.52299
9.30558
8.90429
8.08916
7.7187
7.78077
8.00863
8.21401
8.34604
8.40977
8.44991
8.48784
8.56869
8.78058
9.07055
9.41254
9.83032
10.292
10.8417
11.3856
11.6065
11.429
10.8326
9.54511
8.27689
7.89125
7.8377
7.91107
8.11244
9.18322
9.42088
9.69755
9.98262
10.3668
10.8323
10.9803
10.8473
9.73159
7.7631
7.04731
6.92584
7.02964
7.21495
7.41648
7.616
7.80895
7.94766
8.05575
8.14323
8.23267
8.34205
8.48581
8.64764
8.78498
8.87815
8.95949
9.11626
9.37415
9.57421
9.50407
9.15762
7.97363
7.08168
7.01089
7.1451
7.40035
7.69385
7.92249
8.07462
8.15654
8.21637
8.29717
8.41636
8.5713
8.74152
8.90869
9.06527
9.22404
9.41681
9.57612
9.55991
9.41807
8.95574
8.00255
7.58199
7.62201
7.78404
7.99674
8.18971
8.32572
8.43975
8.56305
8.72902
8.89453
9.06558
9.31146
9.66486
10.136
10.6849
11.2042
11.3795
11.2108
10.6242
9.43998
8.29568
7.9791
7.92306
7.98915
8.1912
9.15833
9.36539
9.57856
9.80857
10.1307
10.5114
10.5958
10.4538
9.4531
7.70471
7.09491
7.0623
7.18195
7.37744
7.55267
7.68904
7.79553
7.90135
8.02525
8.16105
8.29587
8.42705
8.55969
8.67706
8.77377
8.84896
8.94714
9.18309
9.52111
9.63756
9.63263
9.08112
7.75998
7.04899
7.04428
7.16772
7.41225
7.6842
7.90331
8.07287
8.1929
8.27496
8.38191
8.51415
8.67231
8.84571
9.00297
9.12702
9.25975
9.44431
9.62099
9.64752
9.53249
8.9173
7.90115
7.47586
7.4428
7.54613
7.76127
8.02859
8.26114
8.47641
8.70148
8.88062
8.9854
9.0628
9.19676
9.4669
9.85893
10.3554
10.7813
10.9655
10.8794
10.3861
9.36894
8.36036
8.07503
8.02524
8.08706
8.28899
9.07372
9.2401
9.40381
9.59014
9.84966
10.1426
10.1917
10.0701
9.26787
7.69953
7.14325
7.20648
7.36743
7.55616
7.67983
7.73461
7.77597
7.86739
8.01642
8.19696
8.36949
8.51535
8.62089
8.68524
8.74494
8.82075
8.97916
9.29364
9.69683
9.8031
9.74317
8.94477
7.5639
7.04734
7.06084
7.1988
7.43828
7.67766
7.87791
8.06109
8.22826
8.35331
8.47609
8.62088
8.77635
8.93189
9.05218
9.14449
9.27451
9.48379
9.67559
9.76503
9.58876
8.78498
7.75966
7.37857
7.29691
7.38808
7.61659
7.91947
8.23131
8.52262
8.76786
8.91015
9.00132
9.05556
9.12907
9.23636
9.40623
9.71859
10.0858
10.3879
10.5255
10.1886
9.29532
8.41389
8.18046
8.14902
8.20129
8.40136
8.91911
9.05403
9.19996
9.3748
9.59501
9.80006
9.82346
9.67584
9.05637
7.69058
7.18496
7.26321
7.54079
7.72246
7.78738
7.78111
7.78673
7.8734
8.04649
8.2657
8.45938
8.59375
8.65933
8.68368
8.73209
8.85356
9.1173
9.50304
9.92223
10.0346
9.772
8.73653
7.41357
7.09068
7.10763
7.24667
7.46564
7.67465
7.85282
8.04133
8.24774
8.4421
8.57921
8.72348
8.86174
8.98259
9.06711
9.15579
9.32019
9.56945
9.75467
9.8463
9.56514
8.60054
7.6144
7.30906
7.22284
7.33682
7.60423
7.93676
8.27788
8.54861
8.71644
8.85754
8.9613
9.04254
9.1062
9.09593
9.06641
9.13996
9.33281
9.61033
9.90497
9.89578
9.16246
8.405
8.2224
8.21145
8.29373
8.49758
8.74595
8.87418
9.02175
9.20298
9.41461
9.58998
9.61707
9.42477
8.86289
7.59673
7.15554
7.27924
7.60052
7.81042
7.88495
7.85691
7.847
7.93193
8.1144
8.35123
8.54363
8.63636
8.67024
8.69791
8.78108
8.97819
9.33383
9.81866
10.1586
10.2212
9.74038
8.51302
7.34407
7.16113
7.19129
7.31603
7.50192
7.67569
7.83185
8.01575
8.25089
8.49828
8.68343
8.80959
8.90758
8.9903
9.06875
9.19175
9.41142
9.69078
9.82667
9.86502
9.47272
8.42042
7.50482
7.27498
7.22636
7.39531
7.69307
8.06434
8.36463
8.58017
8.68608
8.78359
8.91322
9.03546
9.0909
9.02099
8.93075
8.93062
9.02021
9.153
9.31091
9.40761
8.88926
8.32311
8.17214
8.19154
8.3156
8.52805
8.6222
8.76558
8.92079
9.09668
9.30241
9.47055
9.52034
9.34729
8.79724
7.51318
7.03089
7.2043
7.54833
7.8023
7.92948
7.95181
7.95889
8.04252
8.2146
8.43369
8.60607
8.68151
8.71354
8.774
8.93133
9.22314
9.67666
10.1843
10.3816
10.2948
9.67196
8.31657
7.36181
7.26339
7.30461
7.40876
7.5536
7.68322
7.81676
7.99112
8.22975
8.5133
8.76493
8.88374
8.94588
9.00104
9.08925
9.26334
9.53418
9.82314
9.87527
9.81188
9.32876
8.25321
7.45506
7.30832
7.31979
7.52949
7.86319
8.19407
8.44766
8.57922
8.65661
8.74692
8.88622
9.01324
9.05227
8.95346
8.86472
8.86199
8.96262
9.0761
9.09613
8.90576
8.34895
8.00157
7.99232
8.09294
8.25928
8.46908
8.58412
8.73848
8.88415
9.04004
9.2195
9.40517
9.48229
9.35949
8.861
7.56547
6.91218
7.01604
7.34756
7.67682
7.88569
8.00168
8.07933
8.17254
8.32482
8.50131
8.6516
8.75603
8.83946
8.96621
9.20974
9.60757
10.0481
10.4448
10.5354
10.2855
9.5906
8.19751
7.45413
7.40425
7.43711
7.52389
7.63113
7.71866
7.81614
7.96869
8.19432
8.48537
8.7631
8.91521
8.97517
9.03116
9.14303
9.35347
9.65098
9.92623
9.92029
9.72741
9.18954
8.12082
7.47467
7.41361
7.50512
7.74414
8.03968
8.28414
8.43923
8.55176
8.64305
8.74897
8.85588
8.95514
8.96989
8.90149
8.8612
8.90887
9.02495
9.10058
9.05536
8.73734
7.98779
7.5037
7.60561
7.84832
8.09993
8.32501
8.60622
8.76791
8.88961
9.00835
9.16756
9.38206
9.49204
9.44144
9.01667
7.71706
6.87604
6.85511
7.05099
7.40863
7.76585
8.001
8.14266
8.26711
8.40266
8.54479
8.69543
8.85656
9.03601
9.2703
9.60332
10.0022
10.3637
10.5608
10.5606
10.2671
9.50217
8.16769
7.58735
7.56723
7.58809
7.66322
7.74375
7.80168
7.85543
7.96633
8.15506
8.41061
8.6875
8.88586
8.97438
9.061
9.2045
9.43097
9.73732
9.98409
9.94295
9.67723
9.06989
8.00981
7.56527
7.59235
7.75044
7.96592
8.14991
8.28207
8.37718
8.49352
8.62042
8.72524
8.80754
8.8443
8.84839
8.86751
8.90516
9.00798
9.12507
9.1436
9.03597
8.62389
7.80285
7.26546
7.27267
7.46029
7.73097
7.96782
8.66914
8.82588
8.9157
8.99609
9.13943
9.38447
9.5261
9.58443
9.20669
7.91655
6.92151
6.78842
6.83679
7.09944
7.5077
7.89483
8.15569
8.30868
8.41936
8.54095
8.71521
8.98218
9.32298
9.66303
9.97818
10.2964
10.5323
10.556
10.4443
10.1866
9.42461
8.20872
7.71493
7.69733
7.69771
7.77682
7.86564
7.92274
7.94818
7.99651
8.11536
8.30617
8.5575
8.79524
8.95557
9.06592
9.23314
9.46758
9.77149
9.98026
9.92389
9.65165
8.96238
7.91384
7.6509
7.77108
7.96882
8.10893
8.17386
8.20976
8.25744
8.37458
8.54826
8.67314
8.71674
8.71931
8.73515
8.83619
8.99328
9.14783
9.24096
9.20184
9.01615
8.55267
7.70359
7.16542
7.16796
7.28118
7.46849
7.69154
8.74695
8.87587
8.93199
8.98685
9.12836
9.40169
9.59249
9.7509
9.38244
8.09523
6.99229
6.76107
6.76057
6.93831
7.24738
7.65005
8.03394
8.2782
8.40536
8.54238
8.79694
9.18323
9.60981
9.97009
10.2315
10.4245
10.5001
10.4477
10.2594
10.0401
9.36752
8.30555
7.82048
7.78231
7.78038
7.86028
7.95658
8.02065
8.04643
8.06189
8.10872
8.21562
8.40193
8.64416
8.87208
9.04093
9.20684
9.43714
9.73918
9.94013
9.90107
9.59087
8.83093
7.86559
7.76395
7.89452
8.03637
8.10079
8.10239
8.08898
8.10626
8.23433
8.41791
8.55468
8.59446
8.60391
8.66523
8.81488
9.05589
9.27838
9.37377
9.27123
9.0075
8.50781
7.66115
7.16643
7.1549
7.25478
7.44328
7.66471
8.80539
8.89907
8.93348
8.98617
9.13813
9.43333
9.68023
9.89043
9.51179
8.22931
7.06676
6.78464
6.75623
6.91084
7.15741
7.45519
7.80564
8.14143
8.38859
8.61536
8.93117
9.35406
9.77601
10.1156
10.3175
10.3761
10.3287
10.227
10.0985
9.88545
9.35771
8.42142
7.8966
7.81355
7.82476
7.92653
8.06686
8.17514
8.21928
8.21187
8.18193
8.18569
8.27848
8.48023
8.73839
8.95994
9.14054
9.36488
9.66798
9.84914
9.79675
9.50718
8.68779
7.84779
7.76231
7.85919
7.94054
7.97739
7.98253
7.95517
7.96075
8.05773
8.22089
8.3796
8.48522
8.55262
8.64499
8.81432
9.06126
9.30511
9.43614
9.31734
9.02421
8.50371
7.66548
7.21918
7.21881
7.3067
7.47645
7.70986
8.82296
8.89514
8.93708
9.00663
9.18272
9.50004
9.77505
9.96819
9.57495
8.338
7.14828
6.84837
6.79885
6.93782
7.17028
7.41792
7.67219
7.9678
8.30862
8.66922
9.03836
9.43274
9.79238
10.066
10.1826
10.1535
10.0751
10.0137
9.97338
9.81752
9.37925
8.51139
7.92228
7.79734
7.80904
7.95094
8.16748
8.35693
8.4464
8.44594
8.37602
8.28601
8.25032
8.35145
8.58314
8.83548
9.04038
9.2671
9.52769
9.7109
9.67172
9.37419
8.51222
7.76059
7.62208
7.66292
7.73862
7.81444
7.85783
7.86689
7.88602
7.95535
8.08059
8.23423
8.40912
8.56757
8.6811
8.82081
9.01896
9.24785
9.39946
9.32151
9.07397
8.54008
7.70746
7.30578
7.31311
7.39509
7.54177
7.77331
8.8036
8.8836
8.95988
9.06687
9.27684
9.60706
9.85466
9.97465
9.57342
8.42204
7.23211
6.93846
6.89918
7.02715
7.24164
7.46419
7.67279
7.91949
8.26538
8.68108
9.07572
9.40016
9.66335
9.82671
9.87827
9.86236
9.83427
9.85688
9.89051
9.80629
9.4114
8.56336
7.91657
7.75924
7.77233
7.94979
8.22345
8.46948
8.59732
8.61663
8.56598
8.48762
8.39416
8.36368
8.47058
8.70231
8.95174
9.16953
9.38731
9.51338
9.49273
9.20021
8.33325
7.60239
7.42467
7.4071
7.50064
7.65975
7.78362
7.84012
7.87603
7.91522
7.9999
8.15087
8.36637
8.58645
8.72875
8.81183
8.93685
9.11958
9.29503
9.28902
9.13059
8.60348
7.78849
7.41442
7.41387
7.48405
7.61967
7.8497
8.76948
8.88498
9.01431
9.167
9.40812
9.72613
9.90908
9.90887
9.53551
8.48033
7.31194
7.04897
7.04772
7.17896
7.38031
7.57578
7.75233
7.9779
8.30125
8.68007
9.02916
9.27365
9.42401
9.49565
9.50937
9.50668
9.59124
9.75486
9.86677
9.81016
9.41142
8.57776
7.90141
7.7372
7.75556
7.94241
8.22189
8.47346
8.61519
8.64763
8.62318
8.58803
8.57451
8.54
8.54663
8.67269
8.88653
9.11253
9.30361
9.36025
9.31687
9.06448
8.18932
7.47455
7.28536
7.23034
7.34497
7.56224
7.77341
7.88199
7.90557
7.91805
7.97954
8.12123
8.34524
8.59338
8.74274
8.77825
8.81831
8.96934
9.14927
9.18935
9.13244
8.65965
7.87754
7.52837
7.51036
7.55794
7.68779
7.92343
8.72936
8.9128
9.10737
9.30549
9.55379
9.82292
9.93892
9.81377
9.49782
8.5254
7.39677
7.16895
7.22445
7.37141
7.57071
7.74549
7.91189
8.11891
8.38126
8.67536
8.94142
9.10759
9.16685
9.16378
9.14674
9.21292
9.44609
9.69997
9.83508
9.78935
9.40738
8.59858
7.91825
7.77124
7.78728
7.94819
8.19598
8.42339
8.56859
8.62003
8.61354
8.60688
8.6527
8.71463
8.7722
8.87459
9.03459
9.19612
9.33073
9.37212
9.28765
8.95863
8.0691
7.39749
7.19844
7.15175
7.28697
7.53231
7.79584
7.96075
7.98358
7.98315
8.01914
8.12561
8.32444
8.53811
8.68364
8.70823
8.74178
8.87978
9.03862
9.09612
9.10792
8.67759
7.93373
7.6198
7.59802
7.6345
7.76365
8.0092
8.70624
8.95423
9.22615
9.47356
9.69158
9.86853
9.92011
9.76704
9.47969
8.5824
7.50491
7.29041
7.40174
7.56507
7.76907
7.94267
8.10158
8.28265
8.47771
8.67217
8.82804
8.91855
8.94981
8.91842
8.94956
9.11615
9.38119
9.65744
9.75767
9.68391
9.33359
8.5644
7.91037
7.80231
7.85079
7.99155
8.19515
8.3854
8.52163
8.58052
8.58747
8.61517
8.70017
8.82286
8.97683
9.1607
9.39253
9.56191
9.62052
9.56202
9.34595
8.85847
7.96155
7.36301
7.19379
7.16299
7.30749
7.54834
7.81951
8.01536
8.08581
8.09405
8.10311
8.16766
8.28382
8.42446
8.55777
8.64464
8.73017
8.87419
8.99792
9.04589
9.05301
8.64148
7.93369
7.66232
7.66705
7.7256
7.87265
8.13091
8.71377
9.01226
9.34861
9.63504
9.78198
9.86995
9.89369
9.76512
9.51309
8.67292
7.65297
7.43815
7.55659
7.71853
7.93111
8.11879
8.27399
8.40827
8.51814
8.60359
8.66479
8.72022
8.75253
8.81915
8.94512
9.12547
9.3333
9.56188
9.63136
9.49441
9.18461
8.47797
7.89899
7.81436
7.91104
8.01921
8.1644
8.29337
8.37321
8.43566
8.50457
8.59414
8.73999
8.93223
9.12358
9.33701
9.6003
9.87093
10.0439
9.979
9.50573
8.80419
7.90316
7.38508
7.25213
7.23519
7.36808
7.587
7.82341
8.02209
8.15972
8.2149
8.21703
8.21762
8.25211
8.30101
8.40982
8.56491
8.74648
8.95181
9.05375
9.07438
9.03174
8.57027
7.89402
7.66183
7.6924
7.78346
7.95
8.21953
8.74768
9.08062
9.45915
9.73807
9.81343
9.85606
9.88582
9.80739
9.58965
8.81634
7.82402
7.57103
7.66472
7.82791
8.06189
8.26564
8.40493
8.47086
8.47739
8.45488
8.45843
8.507
8.61106
8.82019
9.0067
9.1695
9.31495
9.43423
9.43009
9.28448
9.01118
8.3612
7.85471
7.79458
7.91822
8.02562
8.10669
8.15831
8.21011
8.31037
8.45736
8.62684
8.82008
9.03192
9.23935
9.42771
9.65915
9.96156
10.2156
10.2899
9.85124
8.8865
7.93411
7.45398
7.35011
7.34385
7.44569
7.61842
7.80786
8.01094
8.21777
8.3286
8.32352
8.26192
8.20074
8.19699
8.29345
8.49272
8.75556
9.02554
9.15722
9.1513
9.01227
8.49603
7.83892
7.66866
7.73325
7.84907
8.01733
8.28699
8.81719
9.16441
9.52848
9.77118
9.81904
9.85606
9.92086
9.87194
9.71396
8.96557
7.93332
7.65289
7.72722
7.90816
8.16876
8.37448
8.46413
8.44434
8.35211
8.26717
8.23773
8.31969
8.53869
8.85361
9.07341
9.21199
9.24788
9.23332
9.23758
9.10059
8.84605
8.22926
7.75492
7.70672
7.83142
7.92894
7.99338
8.03112
8.1038
8.26036
8.48603
8.72959
8.94409
9.11065
9.26307
9.44156
9.65125
9.90811
10.1745
10.3368
10.0469
9.18316
8.08283
7.56421
7.46909
7.4592
7.51569
7.63633
7.79936
8.00635
8.24286
8.38914
8.38859
8.29472
8.1867
8.15906
8.24859
8.46042
8.78682
9.1093
9.26034
9.25458
9.01993
8.46184
7.81743
7.70098
7.7754
7.88158
8.03586
8.30074
8.90913
9.22856
9.53665
9.73584
9.80287
9.88105
9.99947
9.97603
9.83671
9.04662
7.95723
7.67879
7.74976
7.96094
8.23299
8.40986
8.42942
8.33236
8.18426
8.0823
8.06986
8.20718
8.51878
8.86201
9.10663
9.18403
9.17025
9.1086
9.11085
8.9808
8.74591
8.13735
7.6241
7.55699
7.64661
7.74865
7.86743
7.96609
8.09536
8.30411
8.58422
8.88138
9.0763
9.17569
9.28297
9.40065
9.5689
9.82878
10.0262
10.1832
10.0767
9.47499
8.38563
7.70805
7.59349
7.5541
7.57516
7.66709
7.82056
8.0236
8.22061
8.34716
8.37422
8.30493
8.22016
8.19774
8.28212
8.50062
8.83279
9.14743
9.29655
9.31245
9.06823
8.4901
7.86188
7.7392
7.77732
7.85778
8.00165
8.25686
9.00513
9.27533
9.51014
9.67389
9.78106
9.92241
10.0978
10.077
9.89967
9.06144
7.92559
7.65577
7.74398
7.97462
8.2291
8.3509
8.31265
8.17315
8.02759
7.95458
8.00159
8.19349
8.51374
8.81566
9.04548
9.0893
9.09234
9.06064
9.06119
8.93874
8.71619
8.09228
7.50667
7.39181
7.4117
7.52093
7.71574
7.92879
8.1384
8.39416
8.72241
9.02816
9.18741
9.25628
9.33589
9.39367
9.49849
9.66624
9.82694
9.93642
9.97621
9.64855
8.72528
7.90817
7.69732
7.6302
7.64481
7.73062
7.87438
8.03484
8.16062
8.23737
8.27904
8.2915
8.29544
8.30814
8.40087
8.59518
8.88337
9.15384
9.27848
9.32757
9.13822
8.56127
7.92574
7.76988
7.77044
7.83123
7.94376
8.16985
9.05191
9.29014
9.46621
9.61817
9.77077
9.96638
10.1732
10.1548
9.90467
9.02382
7.86642
7.62063
7.73161
7.94657
8.13998
8.20304
8.13826
8.00778
7.91919
7.90977
8.01338
8.23645
8.50203
8.72763
8.86511
8.9568
9.03585
9.0928
9.09776
8.98029
8.76065
8.08044
7.39811
7.23539
7.19966
7.32006
7.57619
7.89286
8.20119
8.51338
8.81676
9.07498
9.23483
9.33183
9.41617
9.43568
9.47171
9.51601
9.57492
9.68614
9.77188
9.7015
9.00715
8.1144
7.78538
7.71083
7.73709
7.82558
7.94726
8.03205
8.06115
8.0884
8.15464
8.27228
8.39352
8.48266
8.57701
8.72361
8.94256
9.15942
9.26163
9.33691
9.19039
8.61621
7.98176
7.77908
7.72689
7.73739
7.78553
7.97272
9.01967
9.27164
9.4204
9.56869
9.76041
9.99572
10.1941
10.1695
9.84978
8.9306
7.80162
7.59784
7.69932
7.8443
7.97354
7.99887
7.94398
7.88739
7.88633
7.95474
8.10556
8.3018
8.46733
8.56093
8.67444
8.82245
9.01093
9.1656
9.19499
9.07447
8.83607
8.07653
7.31546
7.10936
7.05477
7.19492
7.48181
7.8754
8.26855
8.58411
8.81634
9.00847
9.19064
9.37329
9.5138
9.53657
9.48701
9.40282
9.36923
9.45607
9.52877
9.65369
9.18207
8.31469
7.89442
7.80777
7.84621
7.93643
7.99624
7.98552
7.95924
7.96537
8.05148
8.23595
8.46844
8.65818
8.76118
8.86395
9.03956
9.18767
9.2832
9.34397
9.17872
8.60701
7.98719
7.74237
7.62989
7.59981
7.63464
7.80763
8.92749
9.20026
9.36431
9.52381
9.73605
9.99098
10.156
10.1002
9.75355
8.81285
7.75067
7.57086
7.62904
7.70053
7.77448
7.77994
7.77178
7.82303
7.92433
8.07055
8.23342
8.3532
8.38546
8.41563
8.51902
8.70394
8.98819
9.24872
9.30776
9.19342
8.89112
8.06918
7.2706
7.04277
7.00641
7.18739
7.51059
7.91684
8.27302
8.50293
8.67618
8.83952
9.10284
9.409
9.61794
9.65623
9.52899
9.34541
9.2557
9.28842
9.37984
9.51838
9.22714
8.48284
8.00886
7.93257
7.95747
8.02275
8.01098
7.94691
7.89561
7.90069
8.00282
8.21956
8.51976
8.76634
8.8994
8.99438
9.14301
9.23495
9.29098
9.31175
9.11029
8.52684
7.8872
7.61641
7.51078
7.5082
7.56713
7.7416
8.79682
9.06734
9.27955
9.4581
9.67578
9.9438
10.0908
10.0457
9.69448
8.71229
7.70945
7.53708
7.52687