/*--------------------------------*- C++ -*----------------------------------*\
| =========                 |                                                 |
| \\      /  F ield         | OpenFOAM: The Open Source CFD Toolbox           |
|  \\    /   O peration     | Version:  v1912                                 |
|   \\  /    A nd           | Website:  www.openfoam.com                      |
|    \\/     M anipulation  |                                                 |
\*---------------------------------------------------------------------------*/
FoamFile
{
    version     2.0;
    format      ascii;
    class       volTensorField;
    location    "6";
    object      grad(U);
}
// * * * * * * * * * * * * * * * * * * * * * * * * * * * * * * * * * * * * * //

dimensions      [0 0 -1 0 0 0 0];


internalField   nonuniform List<tensor> 
1900
(
(-4.53895 -1.80316e-05 0 2.68838e-06 -5.71009e-06 0 0 0 0)
(4.61378 -4.26078e-05 0 4.76277e-06 -4.81776e-05 0 0 0 0)
(0.73754 -4.16284e-05 0 -4.16419e-05 -9.20093e-05 0 0 0 0)
(0.0207859 1.62163e-05 0 -2.40694e-05 -0.000106015 0 0 0 0)
(0.0506371 -0.000667004 0 0.000130735 -2.94835e-05 0 0 0 0)
(0.0454633 -0.0017285 0 0.000465935 -0.00114399 0 0 0 0)
(0.0342888 0.00370347 0 -0.00203641 -0.00234887 0 0 0 0)
(0.0161736 0.0194301 0 -0.00284507 0.0052722 0 0 0 0)
(-0.0360022 0.0604523 0 0.00735689 0.0299364 0 0 0 0)
(-0.031839 0.212139 0 0.0568155 0.121096 0 0 0 0)
(-4.53894 -3.58561e-05 0 1.86902e-06 2.65265e-06 0 0 0 0)
(4.61373 -4.36914e-05 0 3.63991e-06 1.53789e-05 0 0 0 0)
(0.737511 -1.62093e-05 0 -6.59395e-05 4.52605e-05 0 0 0 0)
(0.0209583 4.63096e-05 0 -4.31633e-05 5.70073e-05 0 0 0 0)
(0.0511271 -0.000370974 0 9.89487e-05 2.90442e-05 0 0 0 0)
(0.0432961 -0.000590878 0 0.00032461 0.000724012 0 0 0 0)
(0.0309778 0.00271272 0 -0.0030266 0.00175755 0 0 0 0)
(0.0255669 0.0128552 0 -0.00264409 -0.00297946 0 0 0 0)
(0.0236584 0.0553712 0 0.00988517 -0.0176725 0 0 0 0)
(0.0927195 0.148085 0 0.0900452 -0.0634318 0 0 0 0)
(-4.53894 -2.60492e-12 0 -4.91144e-13 6.11487e-06 0 0 0 0)
(4.61371 -2.35364e-14 0 -1.04327e-12 6.55974e-05 0 0 0 0)
(0.737493 1.71521e-12 0 -8.26433e-13 9.34977e-05 0 0 0 0)
(0.0209508 1.88472e-12 0 -2.66036e-13 9.80159e-05 0 0 0 0)
(0.0510049 1.30298e-12 0 2.32697e-13 8.78621e-07 0 0 0 0)
(0.0423377 -7.09406e-13 0 9.31736e-13 0.000839965 0 0 0 0)
(0.0313201 -9.73837e-13 0 7.24654e-13 0.00118264 0 0 0 0)
(0.0290854 -3.03627e-13 0 -2.88804e-13 -0.00458547 0 0 0 0)
(0.0566871 -1.45572e-13 0 -3.98038e-13 -0.0245277 0 0 0 0)
(0.150479 -4.34788e-13 0 2.62919e-14 -0.115328 0 0 0 0)
(-4.53894 3.58561e-05 0 -1.86902e-06 2.65265e-06 0 0 0 0)
(4.61373 4.36914e-05 0 -3.63991e-06 1.53789e-05 0 0 0 0)
(0.737511 1.62093e-05 0 6.59395e-05 4.52605e-05 0 0 0 0)
(0.0209583 -4.63096e-05 0 4.31633e-05 5.70073e-05 0 0 0 0)
(0.0511271 0.000370974 0 -9.89487e-05 2.90442e-05 0 0 0 0)
(0.0432961 0.000590878 0 -0.00032461 0.000724012 0 0 0 0)
(0.0309778 -0.00271272 0 0.0030266 0.00175755 0 0 0 0)
(0.0255669 -0.0128552 0 0.00264409 -0.00297946 0 0 0 0)
(0.0236584 -0.0553712 0 -0.00988517 -0.0176725 0 0 0 0)
(0.0927195 -0.148085 0 -0.0900452 -0.0634318 0 0 0 0)
(-4.53895 1.80316e-05 0 -2.68838e-06 -5.71009e-06 0 0 0 0)
(4.61378 4.26078e-05 0 -4.76277e-06 -4.81776e-05 0 0 0 0)
(0.73754 4.16284e-05 0 4.16419e-05 -9.20093e-05 0 0 0 0)
(0.0207859 -1.62163e-05 0 2.40694e-05 -0.000106015 0 0 0 0)
(0.0506371 0.000667004 0 -0.000130735 -2.94835e-05 0 0 0 0)
(0.0454633 0.0017285 0 -0.000465935 -0.00114399 0 0 0 0)
(0.0342888 -0.00370347 0 0.00203641 -0.00234887 0 0 0 0)
(0.0161736 -0.0194301 0 0.00284507 0.0052722 0 0 0 0)
(-0.0360022 -0.0604523 0 -0.00735689 0.0299364 0 0 0 0)
(-0.031839 -0.212139 0 -0.0568155 0.121096 0 0 0 0)
(0.15803 0.410041 -2.00236e-17 0.237162 -0.227271 3.00354e-17 5.8576e-17 7.38697e-17 -5.42741e-33)
(0.505515 0.547216 0 0.291806 -0.450838 0 -1.58848e-16 -4.75888e-17 0)
(0.7801 0.970424 0 0.293437 -0.790877 0 -2.5897e-16 -8.3516e-17 0)
(1.45652 1.56139 0 0.333248 -1.40928 0 0 0 0)
(2.80778 1.77284 2.61182e-16 1.1257 -3.42481 -3.91773e-16 -2.24413e-15 -1.49609e-15 -7.07935e-32)
(0.231894 0.157857 0 0.185743 -0.212053 0 1.01431e-16 3.28018e-17 0)
(0.414542 0.156158 0 0.158442 -0.339802 0 1.58848e-16 4.75888e-17 0)
(0.734372 0.409658 0 0.0649671 -0.618293 0 2.5897e-16 8.3516e-17 0)
(1.64275 0.865936 0 -0.0451802 -1.32431 0 0 0 0)
(3.68866 0.564602 0 -0.142366 -3.05564 0 0 0 0)
(0.295163 -3.88446e-13 0 -8.34757e-14 -0.301997 0 0 0 0)
(0.441532 1.87852e-13 0 3.26925e-15 -0.373826 0 0 0 0)
(0.721202 4.35769e-13 0 7.49154e-14 -0.612131 0 0 0 0)
(1.55153 2.17694e-13 0 2.21769e-13 -1.33844 0 0 0 0)
(3.46243 1.07694e-13 0 6.40518e-13 -3.59783 0 0 0 0)
(0.231894 -0.157857 0 -0.185743 -0.212053 0 1.01431e-16 -3.28018e-17 0)
(0.414542 -0.156158 0 -0.158442 -0.339802 0 1.58848e-16 -4.75888e-17 0)
(0.734372 -0.409658 0 -0.0649671 -0.618293 0 2.5897e-16 -8.3516e-17 0)
(1.64275 -0.865936 0 0.0451802 -1.32431 0 0 0 0)
(3.68866 -0.564602 0 0.142366 -3.05564 0 0 0 0)
(0.15803 -0.410041 2.00236e-17 -0.237162 -0.227271 3.00354e-17 -2.61438e-16 1.39473e-16 -5.42741e-33)
(0.505515 -0.547216 0 -0.291806 -0.450838 0 -1.58848e-16 4.75888e-17 0)
(0.7801 -0.970424 0 -0.293437 -0.790877 0 -2.5897e-16 8.3516e-17 0)
(1.45652 -1.56139 9.0855e-17 -0.333248 -1.40928 1.36282e-16 -9.22334e-16 6.14889e-16 -2.46263e-32)
(2.80778 -1.77284 -2.61182e-16 -1.1257 -3.42481 -3.91773e-16 2.24413e-15 -1.49609e-15 -7.07935e-32)
(4.52901 -0.769041 -1.80751e-17 0.0568234 4.36757 -1.62676e-16 2.27477e-15 -1.21025e-16 4.89927e-33)
(2.27673 -0.264364 1.00056e-17 0.460912 2.98263 9.005e-17 -2.65865e-15 2.04036e-16 2.71201e-33)
(0.234187 -0.0200134 0 0.815788 2.25376 0 0 0 0)
(-0.641048 0.165599 -3.54502e-18 0.560754 1.63324 -3.19052e-17 2.11546e-15 -1.83987e-16 9.6088e-34)
(0.138833 -0.281705 3.7947e-18 0.497836 1.56147 3.41523e-17 -8.9328e-16 9.92533e-17 1.02856e-33)
(4.60548 -0.946841 0 -0.615531 -0.604231 0 -1.13824e-15 -5.2559e-18 0)
(2.57636 -0.199072 0 0.176672 0.944352 0 1.33627e-15 -5.71045e-17 0)
(0.331398 0.0117848 0 0.561251 1.38084 0 0 0 0)
(-0.701983 0.112362 0 0.309354 1.4059 0 -1.33505e-15 7.36641e-17 0)
(0.034142 -0.0977978 0 0.272314 1.08081 0 2.29119e-16 -4.91909e-18 0)
(4.59603 1.39969e-14 0 -4.92819e-14 0.859427 0 0 0 0)
(2.56759 -9.00968e-14 0 2.68734e-13 1.90351 0 0 0 0)
(0.225178 2.57224e-13 0 2.1684e-13 1.98359 0 0 0 0)
(-0.759039 -2.51667e-13 0 1.84244e-13 1.66409 0 5.37745e-16 1.50386e-29 0)
(-0.0780969 2.54882e-12 0 -4.24804e-13 1.30667 0 -4.58237e-16 9.91884e-30 0)
(4.60548 0.946841 0 0.615531 -0.604231 0 -1.13824e-15 5.2559e-18 0)
(2.57636 0.199072 0 -0.176672 0.944352 0 1.33627e-15 5.71045e-17 0)
(0.331398 -0.0117848 0 -0.561251 1.38084 0 0 0 0)
(-0.701983 -0.112362 0 -0.309354 1.4059 0 -1.33505e-15 -7.36641e-17 0)
(0.034142 0.0977978 0 -0.272314 1.08081 0 2.29119e-16 4.91909e-18 0)
(4.52901 0.769041 0 -0.0568234 4.36757 0 1.13824e-15 -5.2559e-18 0)
(2.27673 0.264364 -1.00056e-17 -0.460912 2.98263 9.005e-17 -1.38812e-17 8.98271e-17 2.71201e-33)
(0.234187 0.0200134 0 -0.815788 2.25376 0 0 0 0)
(-0.641048 -0.165599 3.54502e-18 -0.560754 1.63324 -3.19052e-17 1.68881e-17 -4.91877e-17 9.6088e-34)
(0.138833 0.281705 -3.7947e-18 -0.497836 1.56147 3.41523e-17 8.9328e-16 9.92533e-17 1.02856e-33)
(0.892318 -0.638106 0 0.526315 2.51754 0 0 0 0)
(0.41758 0.359157 0 1.33426 2.01361 0 0 0 0)
(-0.629962 0.692564 0 1.45918 1.08485 0 0 0 0)
(-1.85319 0.0805064 0 1.65059 0.99799 0 0 0 0)
(-1.91956 -0.244388 0 1.09419 1.1302 0 0 0 0)
(-1.25056 -0.219507 0 1.25305 1.4672 0 0 0 0)
(-1.16427 0.0434863 0 1.12863 1.449 0 0 0 0)
(-0.938097 0.266585 0 0.609382 1.06286 0 0 0 0)
(-0.793791 0.224675 0 0.253522 0.692671 0 0 0 0)
(-0.691493 0.122241 0 0.0982373 0.447608 0 0 0 0)
(-0.467267 0.0561406 0 0.0400903 0.321374 0 0 0 0)
(-0.208373 0.0245403 0 0.0152875 0.263467 0 0 0 0)
(-0.0679539 0.0111317 0 0.00573678 0.238249 0 0 0 0)
(-0.0261739 0.00591766 0 0.00333911 0.225647 0 0 0 0)
(-0.011321 0.0062176 0 0.00539578 0.215459 0 0 0 0)
(0.012156 0.00588587 0 0.00259842 0.204488 0 0 0 0)
(0.0546118 0.00270811 0 -0.000413821 0.197742 0 0 0 0)
(0.103494 0.000809732 0 -0.00113183 0.194871 0 0 0 0)
(0.138317 6.02872e-05 0 -0.000929399 0.194094 0 0 0 0)
(0.154749 3.42059e-07 0 -0.000396476 0.194315 0 0 0 0)
(0.160867 0.000335483 0 0.000201304 0.194024 0 0 0 0)
(0.163554 0.00041068 0 0.000747198 0.193145 0 0 0 0)
(0.165515 0.00025362 0 0.00121395 0.192597 0 0 0 0)
(0.167376 0.000170394 0 0.0016293 0.192257 0 0 0 0)
(0.169021 0.000161283 0 0.00202143 0.191995 0 0 0 0)
(0.169314 2.23423e-05 0 0.00239354 0.191687 0 0 0 0)
(0.170024 0.00030894 0 0.00276787 0.191908 0 0 0 0)
(0.168056 -8.08259e-05 0 0.00305178 0.190612 0 0 0 0)
(0.162996 6.26121e-05 0 0.00334477 0.192167 0 0 0 0)
(0.159655 -0.000230139 0 0.00352402 0.190419 0 0 0 0)
(0.155774 0.000114303 0 0.00368117 0.192929 0 0 0 0)
(0.151663 -0.00103821 0 0.00370727 0.19005 0 0 0 0)
(0.144802 0.000741837 0 0.00367706 0.196271 0 0 0 0)
(0.133214 -0.00163405 0 0.00313233 0.18786 0 0 0 0)
(0.10354 0.000238421 0 0.00285359 0.201252 0 0 0 0)
(0.0769522 -0.00134196 0 -0.00164151 0.187628 0 0 0 0)
(0.0781484 -0.00489714 0 0.00196616 0.207242 0 0 0 0)
(0.117622 -0.00116355 0 0.00138896 0.202536 0 0 0 0)
(-0.563955 -0.00679515 0 -0.00705876 0.203844 0 0 0 0)
(-0.640269 -0.00467221 0 -0.032828 0.211087 0 0 0 0)
(0.944264 -0.307828 0 -0.210694 2.41496 0 0 0 0)
(0.487369 0.145559 0 0.257428 2.91869 0 0 0 0)
(-0.701247 0.39919 0 0.0594477 1.18035 0 0 0 0)
(-1.88525 0.0420301 0 0.191209 0.538002 0 0 0 0)
(-1.8868 -0.135928 0 0.0758787 0.903614 0 0 0 0)
(-1.18301 -0.102349 0 0.235196 1.37808 0 0 0 0)
(-1.20783 0.0210067 0 0.275635 1.65817 0 0 0 0)
(-1.04948 0.132748 0 0.148665 1.2286 0 0 0 0)
(-0.870455 0.107187 0 0.0901333 0.741782 0 0 0 0)
(-0.724485 0.0570799 0 0.0506781 0.456281 0 0 0 0)
(-0.47754 0.0280307 0 0.0135255 0.321578 0 0 0 0)
(-0.210847 0.0124604 0 -0.00226565 0.263297 0 0 0 0)
(-0.068139 0.00557677 0 -0.00487318 0.237221 0 0 0 0)
(-0.0255298 0.00282598 0 -0.00397842 0.225032 0 0 0 0)
(-0.0111412 0.00308468 0 -0.00240043 0.216879 0 0 0 0)
(0.0118471 0.00301334 0 -0.00260467 0.203659 0 0 0 0)
(0.0548215 0.00129124 0 -0.00294835 0.196646 0 0 0 0)
(0.103911 0.000359877 0 -0.00222084 0.19435 0 0 0 0)
(0.138708 1.10292e-05 0 -0.00145315 0.193863 0 0 0 0)
(0.155148 3.5748e-07 0 -0.00064205 0.194143 0 0 0 0)
(0.161265 0.00016803 0 0.000189831 0.193862 0 0 0 0)
(0.163932 0.000203815 0 0.000985294 0.19299 0 0 0 0)
(0.16587 0.00012404 0 0.00172816 0.19245 0 0 0 0)
(0.167712 8.19259e-05 0 0.00243437 0.192118 0 0 0 0)
(0.169341 7.73399e-05 0 0.00312186 0.191864 0 0 0 0)
(0.169619 8.1502e-06 0 0.00379803 0.191563 0 0 0 0)
(0.170307 0.000151909 0 0.004483 0.191788 0 0 0 0)
(0.16832 -4.19025e-05 0 0.00512738 0.190501 0 0 0 0)
(0.163241 3.23733e-05 0 0.00582238 0.192065 0 0 0 0)
(0.159877 -0.000113916 0 0.00651617 0.190286 0 0 0 0)
(0.155969 6.14681e-05 0 0.00727591 0.192856 0 0 0 0)
(0.151821 -0.00052068 0 0.00808332 0.189893 0 0 0 0)
(0.14489 0.000392807 0 0.00899053 0.196425 0 0 0 0)
(0.133277 -0.00081725 0 0.00991669 0.187343 0 0 0 0)
(0.103153 0.000186589 0 0.0113066 0.202042 0 0 0 0)
(0.0770198 -0.000561989 0 0.0111669 0.186524 0 0 0 0)
(0.0786453 -0.00245736 0 0.0160447 0.206655 0 0 0 0)
(0.115866 -0.00101722 0 0.0202324 0.203357 0 0 0 0)
(-0.567274 -0.00422673 0 0.0141135 0.210655 0 0 0 0)
(-0.641832 -0.00275195 0 0.000316872 0.226716 0 0 0 0)
(0.862284 -1.48995e-12 0 -2.17235e-12 2.21316 0 0 0 0)
(0.496167 -4.94433e-12 0 1.30412e-10 3.14654 0 0 0 0)
(-0.649226 2.56288e-11 0 1.27293e-10 1.21245 0 0 0 0)
(-1.84841 -2.55246e-12 0 2.36072e-10 0.402107 0 0 0 0)
(-1.90677 -4.00513e-11 0 3.89524e-11 0.923489 0 0 0 0)
(-1.19245 -1.37977e-11 0 1.08637e-11 1.33661 0 0 0 0)
(-1.18944 1.53776e-11 0 -5.44959e-11 1.62714 0 0 0 0)
(-0.992061 3.28396e-11 0 -8.43726e-11 1.19219 0 0 0 0)
(-0.822296 1.58329e-11 0 -7.54733e-11 0.714497 0 0 0 0)
(-0.713779 -5.43571e-12 0 -5.39558e-11 0.455282 0 0 0 0)
(-0.482669 -6.99107e-12 0 -4.17424e-11 0.322073 0 0 0 0)
(-0.213726 3.77901e-12 0 -4.2215e-11 0.262571 0 0 0 0)
(-0.0684522 1.20134e-11 0 -4.84098e-11 0.236407 0 0 0 0)
(-0.0254545 1.32561e-11 0 -5.43127e-11 0.224231 0 0 0 0)
(-0.0109214 9.66807e-12 0 -6.06011e-11 0.216979 0 0 0 0)
(0.0119966 -7.90956e-12 0 -4.69048e-11 0.203024 0 0 0 0)
(0.0547234 -3.97918e-11 0 -2.22115e-11 0.196262 0 0 0 0)
(0.103929 -6.27643e-11 0 5.14269e-12 0.194146 0 0 0 0)
(0.138777 -3.31398e-11 0 2.65981e-11 0.193788 0 0 0 0)
(0.155227 2.48702e-11 0 4.33179e-11 0.19407 0 0 0 0)
(0.16134 6.43971e-11 0 5.76002e-11 0.193785 0 0 0 0)
(0.164001 4.93037e-11 0 7.10187e-11 0.192915 0 0 0 0)
(0.165937 -2.47683e-11 0 8.15217e-11 0.192384 0 0 0 0)
(0.167781 -8.05235e-11 0 8.4967e-11 0.192062 0 0 0 0)
(0.169418 -6.21802e-11 0 7.81779e-11 0.191821 0 0 0 0)
(0.16971 -2.78356e-11 0 6.39522e-11 0.191531 0 0 0 0)
(0.170411 1.34945e-11 0 4.77197e-11 0.191765 0 0 0 0)
(0.168445 7.01189e-11 0 3.46738e-11 0.190486 0 0 0 0)
(0.1634 3.10252e-11 0 2.3882e-11 0.192053 0 0 0 0)
(0.160078 3.21425e-11 0 1.64641e-11 0.190264 0 0 0 0)
(0.15623 6.53386e-11 0 2.32118e-12 0.192836 0 0 0 0)
(0.152162 -2.39725e-11 0 -2.11055e-11 0.189841 0 0 0 0)
(0.145335 -4.21901e-11 0 -6.05941e-11 0.196416 0 0 0 0)
(0.133888 3.28331e-11 0 -1.16642e-10 0.187141 0 0 0 0)
(0.103904 3.27681e-11 0 -1.81849e-10 0.202034 0 0 0 0)
(0.0783306 -3.11393e-11 0 -2.31495e-10 0.185858 0 0 0 0)
(0.0807857 -1.2252e-11 0 -2.77512e-10 0.205898 0 0 0 0)
(0.11706 3.99525e-11 0 -2.64699e-10 0.202752 0 0 0 0)
(-0.569749 3.15375e-11 0 -2.11059e-10 0.212891 0 0 0 0)
(-0.644283 1.29662e-11 0 -2.13708e-10 0.231811 0 0 0 0)
(0.944264 0.307828 0 0.210694 2.41496 0 0 0 0)
(0.487369 -0.145559 0 -0.257428 2.91869 0 0 0 0)
(-0.701247 -0.39919 0 -0.0594477 1.18035 0 0 0 0)
(-1.88525 -0.0420301 0 -0.191209 0.538002 0 0 0 0)
(-1.8868 0.135928 0 -0.0758787 0.903614 0 0 0 0)
(-1.18301 0.102349 0 -0.235196 1.37808 0 0 0 0)
(-1.20783 -0.0210067 0 -0.275635 1.65817 0 0 0 0)
(-1.04948 -0.132748 0 -0.148665 1.2286 0 0 0 0)
(-0.870455 -0.107187 0 -0.0901333 0.741782 0 0 0 0)
(-0.724485 -0.0570799 0 -0.0506781 0.456281 0 0 0 0)
(-0.47754 -0.0280307 0 -0.0135255 0.321578 0 0 0 0)
(-0.210847 -0.0124604 0 0.00226565 0.263297 0 0 0 0)
(-0.068139 -0.00557677 0 0.00487318 0.237221 0 0 0 0)
(-0.0255298 -0.00282598 0 0.00397842 0.225032 0 0 0 0)
(-0.0111412 -0.00308468 0 0.00240043 0.216879 0 0 0 0)
(0.0118471 -0.00301334 0 0.00260467 0.203659 0 0 0 0)
(0.0548215 -0.00129124 0 0.00294835 0.196646 0 0 0 0)
(0.103911 -0.000359877 0 0.00222084 0.19435 0 0 0 0)
(0.138708 -1.10293e-05 0 0.00145315 0.193863 0 0 0 0)
(0.155148 -3.57431e-07 0 0.00064205 0.194143 0 0 0 0)
(0.161265 -0.00016803 0 -0.000189831 0.193862 0 0 0 0)
(0.163932 -0.000203815 0 -0.000985293 0.19299 0 0 0 0)
(0.16587 -0.00012404 0 -0.00172816 0.19245 0 0 0 0)
(0.167712 -8.19261e-05 0 -0.00243437 0.192118 0 0 0 0)
(0.169341 -7.734e-05 0 -0.00312186 0.191864 0 0 0 0)
(0.169619 -8.15026e-06 0 -0.00379803 0.191563 0 0 0 0)
(0.170307 -0.000151909 0 -0.004483 0.191788 0 0 0 0)
(0.16832 4.19026e-05 0 -0.00512738 0.190501 0 0 0 0)
(0.163241 -3.23733e-05 0 -0.00582237 0.192065 0 0 0 0)
(0.159877 0.000113916 0 -0.00651617 0.190286 0 0 0 0)
(0.155969 -6.1468e-05 0 -0.00727591 0.192856 0 0 0 0)
(0.151821 0.00052068 0 -0.00808332 0.189893 0 0 0 0)
(0.14489 -0.000392807 0 -0.00899053 0.196425 0 0 0 0)
(0.133277 0.00081725 0 -0.00991669 0.187343 0 0 0 0)
(0.103153 -0.000186589 0 -0.0113066 0.202042 0 0 0 0)
(0.0770198 0.000561989 0 -0.0111669 0.186524 0 0 0 0)
(0.0786453 0.00245736 0 -0.0160447 0.206655 0 0 0 0)
(0.115866 0.00101722 0 -0.0202324 0.203357 0 0 0 0)
(-0.567274 0.00422673 0 -0.0141135 0.210655 0 0 0 0)
(-0.641832 0.00275195 0 -0.000316872 0.226716 0 0 0 0)
(0.892318 0.638106 0 -0.526315 2.51754 0 0 0 0)
(0.41758 -0.359157 0 -1.33426 2.01361 0 0 0 0)
(-0.629962 -0.692564 0 -1.45918 1.08485 0 0 0 0)
(-1.85319 -0.0805064 0 -1.65059 0.99799 0 0 0 0)
(-1.91956 0.244388 0 -1.09419 1.1302 0 0 0 0)
(-1.25056 0.219507 0 -1.25305 1.4672 0 0 0 0)
(-1.16427 -0.0434863 0 -1.12863 1.449 0 0 0 0)
(-0.938097 -0.266585 0 -0.609382 1.06286 0 0 0 0)
(-0.793791 -0.224675 0 -0.253522 0.692671 0 0 0 0)
(-0.691493 -0.122241 0 -0.0982373 0.447608 0 0 0 0)
(-0.467267 -0.0561406 0 -0.0400903 0.321374 0 0 0 0)
(-0.208373 -0.0245403 0 -0.0152875 0.263467 0 0 0 0)
(-0.0679539 -0.0111317 0 -0.00573678 0.238249 0 0 0 0)
(-0.0261739 -0.00591766 0 -0.00333911 0.225647 0 0 0 0)
(-0.011321 -0.0062176 0 -0.00539578 0.215459 0 0 0 0)
(0.012156 -0.00588587 0 -0.00259842 0.204488 0 0 0 0)
(0.0546118 -0.00270811 0 0.000413821 0.197742 0 0 0 0)
(0.103494 -0.000809733 0 0.00113183 0.194871 0 0 0 0)
(0.138317 -6.02872e-05 0 0.000929398 0.194094 0 0 0 0)
(0.154749 -3.4201e-07 0 0.000396476 0.194315 0 0 0 0)
(0.160867 -0.000335483 0 -0.000201304 0.194024 0 0 0 0)
(0.163554 -0.00041068 0 -0.000747198 0.193145 0 0 0 0)
(0.165515 -0.00025362 0 -0.00121395 0.192597 0 0 0 0)
(0.167376 -0.000170394 0 -0.0016293 0.192257 0 0 0 0)
(0.169021 -0.000161283 0 -0.00202143 0.191995 0 0 0 0)
(0.169314 -2.23423e-05 0 -0.00239354 0.191687 0 0 0 0)
(0.170024 -0.00030894 0 -0.00276787 0.191908 0 0 0 0)
(0.168056 8.0826e-05 0 -0.00305178 0.190612 0 0 0 0)
(0.162996 -6.26121e-05 0 -0.00334477 0.192167 0 0 0 0)
(0.159655 0.000230139 0 -0.00352402 0.190419 0 0 0 0)
(0.155774 -0.000114302 0 -0.00368117 0.192929 0 0 0 0)
(0.151663 0.00103821 0 -0.00370727 0.19005 0 0 0 0)
(0.144802 -0.000741837 0 -0.00367706 0.196271 0 0 0 0)
(0.133214 0.00163405 0 -0.00313233 0.18786 0 0 0 0)
(0.10354 -0.000238421 0 -0.00285359 0.201252 0 0 0 0)
(0.0769522 0.00134196 0 0.00164151 0.187628 0 0 0 0)
(0.0781484 0.00489714 0 -0.00196616 0.207242 0 0 0 0)
(0.117622 0.00116355 0 -0.00138896 0.202536 0 0 0 0)
(-0.563955 0.00679515 0 0.00705876 0.203844 0 0 0 0)
(-0.640269 0.00467221 0 0.032828 0.211087 0 0 0 0)
(0.270501 -0.192799 0 -1.81342 0.972776 0 0 0 0)
(-0.0170974 -0.797274 0 -2.17234 0.584431 0 0 0 0)
(-0.982092 -0.697046 0 -2.76896 0.829934 0 0 0 0)
(-1.69336 0.0309096 0 -3.02972 1.11111 0 0 0 0)
(-1.59956 0.304846 0 -2.03156 1.31786 0 0 0 0)
(-1.12651 0.16686 0 -1.74827 1.3219 0 0 0 0)
(-0.854449 -0.24865 0 -1.21324 1.0458 0 0 0 0)
(-0.629335 -0.452426 0 -0.623879 0.767028 0 0 0 0)
(-0.638471 -0.35727 0 -0.333218 0.550719 0 0 0 0)
(-0.628752 -0.214642 0 -0.197193 0.403911 0 0 0 0)
(-0.437386 -0.111036 0 -0.105499 0.308329 0 0 0 0)
(-0.192157 -0.0506353 0 -0.0475508 0.258813 0 0 0 0)
(-0.0608582 -0.0228776 0 -0.0235071 0.236843 0 0 0 0)
(-0.0245711 -0.0135467 0 -0.0170101 0.224046 0 0 0 0)
(-0.0104686 -0.0127343 0 -0.0172457 0.212598 0 0 0 0)
(0.015134 -0.0108055 0 -0.0130472 0.203864 0 0 0 0)
(0.0574039 -0.00568571 0 -0.00603113 0.198214 0 0 0 0)
(0.104716 -0.00212775 0 -0.00199002 0.195257 0 0 0 0)
(0.138699 -0.000302526 0 -0.000725761 0.194286 0 0 0 0)
(0.1549 -4.46866e-05 0 -0.000511236 0.194389 0 0 0 0)
(0.161007 -0.000708598 0 -0.000451625 0.194054 0 0 0 0)
(0.163734 -0.000859394 0 -0.000304093 0.193164 0 0 0 0)
(0.165727 -0.000531122 0 -4.66437e-05 0.192619 0 0 0 0)
(0.167593 -0.000357265 0 0.000257346 0.192288 0 0 0 0)
(0.16923 -0.000338075 0 0.000555294 0.192032 0 0 0 0)
(0.169504 -4.65197e-05 0 0.000841147 0.191726 0 0 0 0)
(0.170222 -0.000644434 0 0.00108307 0.191952 0 0 0 0)
(0.168263 0.000159546 0 0.00142596 0.190641 0 0 0 0)
(0.163228 -0.000118484 0 0.00172033 0.192167 0 0 0 0)
(0.159923 0.000457513 0 0.00217345 0.190445 0 0 0 0)
(0.156081 -0.000231604 0 0.00261252 0.192815 0 0 0 0)
(0.152006 0.00201839 0 0.00321839 0.19004 0 0 0 0)
(0.145354 -0.00136339 0 0.00369318 0.195705 0 0 0 0)
(0.133866 0.00299736 0 0.00505005 0.188233 0 0 0 0)
(0.105701 -0.000271809 0 0.00583973 0.199405 0 0 0 0)
(0.0776547 0.00341762 0 0.0126269 0.188499 0 0 0 0)
(0.0773188 0.00898722 0 0.00883654 0.206293 0 0 0 0)
(0.119497 -0.00128319 0 0.00864754 0.199549 0 0 0 0)
(-0.549647 0.00662103 0 0.00501249 0.198116 0 0 0 0)
(-0.627476 0.00507464 0 0.0166307 0.204316 0 0 0 0)
(0.279795 -0.0457191 0 -3.06132 0.00546292 0 0 0 0)
(-0.270119 -0.261873 0 -3.39834 0.0905027 0 0 0 0)
(-1.26734 -0.182637 0 -3.55233 0.805175 0 0 0 0)
(-1.22832 0.329936 0 -3.25604 1.13322 0 0 0 0)
(-0.856312 0.415092 0 -2.32682 1.08016 0 0 0 0)
(-0.528525 -0.0144318 0 -1.64552 0.813442 0 0 0 0)
(-0.246903 -0.468161 0 -1.02646 0.571995 0 0 0 0)
(-0.255642 -0.64401 0 -0.625683 0.449731 0 0 0 0)
(-0.465908 -0.503486 0 -0.438577 0.385923 0 0 0 0)
(-0.5057 -0.306269 0 -0.291275 0.324677 0 0 0 0)
(-0.339091 -0.166525 0 -0.152896 0.277257 0 0 0 0)
(-0.138058 -0.0794339 0 -0.0656844 0.249947 0 0 0 0)
(-0.0423287 -0.0383363 0 -0.0329664 0.233936 0 0 0 0)
(-0.0209996 -0.0251904 0 -0.0259412 0.220959 0 0 0 0)
(-0.0079593 -0.022171 0 -0.0238671 0.209714 0 0 0 0)
(0.021366 -0.0171088 0 -0.0177966 0.202424 0 0 0 0)
(0.0637696 -0.00940523 0 -0.00893037 0.197933 0 0 0 0)
(0.107952 -0.00388777 0 -0.00295325 0.195469 0 0 0 0)
(0.139538 -0.000766853 0 -0.000887323 0.194407 0 0 0 0)
(0.154933 -0.000200528 0 -0.00066523 0.194353 0 0 0 0)
(0.160991 -0.00131608 0 -0.000816381 0.19394 0 0 0 0)
(0.163847 -0.00155222 0 -0.000858682 0.193027 0 0 0 0)
(0.165943 -0.000948931 0 -0.000727224 0.192476 0 0 0 0)
(0.167839 -0.000636317 0 -0.000517246 0.192142 0 0 0 0)
(0.169472 -0.000608548 0 -0.000308164 0.191872 0 0 0 0)
(0.16972 -8.58752e-05 0 -0.000108383 0.191545 0 0 0 0)
(0.170482 -0.0011739 0 3.52114e-05 0.191765 0 0 0 0)
(0.168559 0.000244955 0 0.000344557 0.190409 0 0 0 0)
(0.163592 -0.000221621 0 0.0005817 0.191868 0 0 0 0)
(0.160371 0.000733089 0 0.00104961 0.190206 0 0 0 0)
(0.156616 -0.000442319 0 0.00147245 0.192337 0 0 0 0)
(0.152521 0.00329778 0 0.00210309 0.189807 0 0 0 0)
(0.146271 -0.0021498 0 0.00239345 0.194612 0 0 0 0)
(0.134933 0.00446859 0 0.0038065 0.188643 0 0 0 0)
(0.109683 3.65535e-05 0 0.00441801 0.196864 0 0 0 0)
(0.0794634 0.00686621 0 0.0121931 0.189844 0 0 0 0)
(0.0747587 0.0133516 0 0.00921603 0.203978 0 0 0 0)
(0.112932 -0.00540391 0 0.00748965 0.194744 0 0 0 0)
(-0.563935 0.0114821 0 -0.00714054 0.198612 0 0 0 0)
(-0.635933 0.0104305 0 -0.00845968 0.207569 0 0 0 0)
(-0.0542659 -0.110852 0 -3.17425 0.351322 0 0 0 0)
(-0.490251 -0.0266426 0 -3.77494 0.426126 0 0 0 0)
(-0.844965 0.307755 0 -3.35566 0.88685 0 0 0 0)
(-0.512414 0.295895 0 -2.57952 0.950945 0 0 0 0)
(-0.0476025 -0.00330459 0 -1.76413 0.571492 0 0 0 0)
(0.126568 -0.322826 0 -1.09872 0.251346 0 0 0 0)
(0.128298 -0.599135 0 -0.738183 0.106733 0 0 0 0)
(-0.0628294 -0.631732 0 -0.594624 0.160168 0 0 0 0)
(-0.316223 -0.477776 0 -0.472004 0.234668 0 0 0 0)
(-0.353459 -0.319356 0 -0.316087 0.249333 0 0 0 0)
(-0.219998 -0.183048 0 -0.162722 0.24691 0 0 0 0)
(-0.0765884 -0.0923808 0 -0.0762261 0.239968 0 0 0 0)
(-0.0225602 -0.0508121 0 -0.0435719 0.229437 0 0 0 0)
(-0.0158027 -0.0368883 0 -0.0364391 0.216646 0 0 0 0)
(-0.00262019 -0.0305949 0 -0.0306769 0.206603 0 0 0 0)
(0.0295276 -0.022158 0 -0.0219369 0.200859 0 0 0 0)
(0.0717075 -0.0123879 0 -0.0115704 0.197523 0 0 0 0)
(0.112466 -0.00552576 0 -0.00424727 0.195527 0 0 0 0)
(0.140904 -0.00137814 0 -0.00140771 0.194471 0 0 0 0)
(0.154969 -0.000494549 0 -0.000987329 0.194279 0 0 0 0)
(0.160821 -0.00198621 0 -0.00119567 0.193777 0 0 0 0)
(0.16382 -0.00227 0 -0.00133376 0.192827 0 0 0 0)
(0.166056 -0.00138423 0 -0.0012669 0.192258 0 0 0 0)
(0.167997 -0.000939291 0 -0.00110611 0.191914 0 0 0 0)
(0.169624 -0.000913421 0 -0.000954878 0.191625 0 0 0 0)
(0.169835 -0.000149899 0 -0.000811876 0.191278 0 0 0 0)
(0.170658 -0.00173921 0 -0.000680597 0.191495 0 0 0 0)
(0.168789 0.00025959 0 -0.00048092 0.190086 0 0 0 0)
(0.163908 -0.000313783 0 -0.000228827 0.191479 0 0 0 0)
(0.160781 0.000909177 0 0.000282857 0.18995 0 0 0 0)
(0.157096 -0.000615514 0 0.000691961 0.191764 0 0 0 0)
(0.152893 0.0042102 0 0.00133845 0.189666 0 0 0 0)
(0.146995 -0.00248592 0 0.00143423 0.193404 0 0 0 0)
(0.135817 0.00516735 0 0.00277972 0.189396 0 0 0 0)
(0.113782 0.000885984 0 0.00323903 0.194456 0 0 0 0)
(0.0822782 0.0102729 0 0.0108735 0.191147 0 0 0 0)
(0.0727864 0.0137092 0 0.00972413 0.200504 0 0 0 0)
(0.103735 -0.00645373 0 0.00740017 0.190104 0 0 0 0)
(-0.565017 0.0189795 0 -0.0110505 0.200453 0 0 0 0)
(-0.628747 0.0137062 0 0.00435858 0.206104 0 0 0 0)
(-0.299053 0.0263646 0 -2.46588 0.17212 0 0 0 0)
(-0.444931 0.254181 0 -2.66165 0.389994 0 0 0 0)
(-0.115382 0.323098 0 -2.07687 0.450995 0 0 0 0)
(0.305333 0.0260454 0 -1.35648 0.157581 0 0 0 0)
(0.570642 -0.259067 0 -0.869577 0.0287806 0 0 0 0)
(0.460115 -0.462291 0 -0.629563 -0.0878206 0 0 0 0)
(0.238858 -0.556024 0 -0.524625 -0.0633257 0 0 0 0)
(0.000857461 -0.520727 0 -0.525621 0.0660656 0 0 0 0)
(-0.197499 -0.417564 0 -0.43236 0.149779 0 0 0 0)
(-0.207664 -0.294472 0 -0.297225 0.196592 0 0 0 0)
(-0.107952 -0.175549 0 -0.155172 0.223218 0 0 0 0)
(-0.0232408 -0.0962717 0 -0.0848666 0.227882 0 0 0 0)
(-0.00398851 -0.0608105 0 -0.0563824 0.22084 0 0 0 0)
(-0.00857361 -0.0471945 0 -0.047169 0.210326 0 0 0 0)
(0.00601552 -0.0373842 0 -0.0375309 0.202474 0 0 0 0)
(0.0397777 -0.0258588 0 -0.0256957 0.198548 0 0 0 0)
(0.080816 -0.014543 0 -0.0138957 0.196374 0 0 0 0)
(0.117745 -0.00682834 0 -0.00575248 0.195043 0 0 0 0)
(0.142679 -0.00196935 0 -0.00237998 0.194077 0 0 0 0)
(0.155137 -0.000869806 0 -0.00165561 0.193829 0 0 0 0)
(0.160657 -0.00271502 0 -0.00172603 0.193264 0 0 0 0)
(0.163778 -0.00301511 0 -0.00178419 0.192282 0 0 0 0)
(0.166162 -0.00182883 0 -0.00164028 0.191698 0 0 0 0)
(0.16814 -0.00124687 0 -0.00140645 0.191355 0 0 0 0)
(0.169755 -0.00122202 0 -0.00119411 0.191071 0 0 0 0)
(0.169984 -0.000211412 0 -0.000983248 0.190725 0 0 0 0)
(0.1708 -0.00232226 0 -0.000659528 0.190936 0 0 0 0)
(0.168994 0.000230229 0 -0.000542405 0.189523 0 0 0 0)
(0.164328 -0.000352277 0 -7.73536e-05 0.190844 0 0 0 0)
(0.161259 0.00100729 0 0.000657205 0.189503 0 0 0 0)
(0.157633 -0.00071591 0 0.00125493 0.190983 0 0 0 0)
(0.153236 0.00487831 0 0.00212565 0.189366 0 0 0 0)
(0.147659 -0.00241055 0 0.00231268 0.192181 0 0 0 0)
(0.136672 0.00548258 0 0.00379822 0.189807 0 0 0 0)
(0.117483 0.00172379 0 0.00448343 0.192694 0 0 0 0)
(0.0857126 0.0126944 0 0.0111161 0.191239 0 0 0 0)
(0.0714116 0.0123469 0 0.0116744 0.195732 0 0 0 0)
(0.0929129 -0.00545337 0 0.00968844 0.188219 0 0 0 0)
(-0.566866 0.0269007 0 -0.00916422 0.201231 0 0 0 0)
(-0.621085 0.0158763 0 0.00655265 0.206035 0 0 0 0)
(-0.242915 0.0990993 0 -1.13881 0.00726258 0 0 0 0)
(-0.115391 0.242091 0 -1.08042 0.0940551 0 0 0 0)
(0.412743 0.0837937 0 -0.690033 -0.0221242 0 0 0 0)
(0.65098 -0.110966 0 -0.412708 -0.235234 0 0 0 0)
(0.652879 -0.239782 0 -0.333741 -0.182147 0 0 0 0)
(0.458976 -0.411583 0 -0.420371 -0.169397 0 0 0 0)
(0.228461 -0.450845 0 -0.425471 -0.0647833 0 0 0 0)
(0.0260804 -0.426376 0 -0.454137 0.0369149 0 0 0 0)
(-0.0961324 -0.351996 0 -0.365493 0.114619 0 0 0 0)
(-0.0863512 -0.248588 0 -0.25003 0.171272 0 0 0 0)
(-0.0153621 -0.152896 0 -0.137738 0.208436 0 0 0 0)
(0.018609 -0.0946722 0 -0.0846482 0.216996 0 0 0 0)
(0.0137667 -0.0677297 0 -0.0637467 0.211636 0 0 0 0)
(0.00236331 -0.0545871 0 -0.0528281 0.203915 0 0 0 0)
(0.0180722 -0.0419441 0 -0.0407597 0.198339 0 0 0 0)
(0.0523033 -0.0280357 0 -0.0267387 0.196003 0 0 0 0)
(0.0909255 -0.0157653 0 -0.01439 0.194769 0 0 0 0)
(0.123563 -0.00773986 0 -0.00629459 0.193786 0 0 0 0)
(0.144852 -0.00254858 0 -0.00289014 0.19294 0 0 0 0)
(0.155599 -0.00127783 0 -0.00209306 0.192668 0 0 0 0)
(0.160697 -0.00347678 0 -0.00214863 0.192063 0 0 0 0)
(0.163902 -0.00377854 0 -0.00224168 0.191061 0 0 0 0)
(0.16642 -0.00227776 0 -0.00215504 0.190476 0 0 0 0)
(0.168427 -0.00154372 0 -0.00199776 0.190154 0 0 0 0)
(0.170032 -0.00152038 0 -0.00187841 0.189922 0 0 0 0)
(0.17035 -0.000280029 0 -0.00178519 0.189574 0 0 0 0)
(0.171083 -0.00289762 0 -0.00147738 0.189809 0 0 0 0)
(0.16935 0.000171359 0 -0.00161109 0.188556 0 0 0 0)
(0.165064 -0.000332922 0 -0.00118653 0.189749 0 0 0 0)
(0.162065 0.00104242 0 -0.000536875 0.188707 0 0 0 0)
(0.158511 -0.000747353 0 -6.99235e-05 0.189915 0 0 0 0)
(0.153913 0.00536466 0 0.000651164 0.188843 0 0 0 0)
(0.148607 -0.00206143 0 0.000551525 0.19096 0 0 0 0)
(0.137909 0.00566235 0 0.00165462 0.189882 0 0 0 0)
(0.120834 0.00226612 0 0.00197196 0.191485 0 0 0 0)
(0.0892077 0.0132004 0 0.00675098 0.190816 0 0 0 0)
(0.0714106 0.0107988 0 0.0062174 0.191521 0 0 0 0)
(0.0836542 -0.00115527 0 0.00359769 0.188556 0 0 0 0)
(-0.568038 0.0361482 0 -0.0139013 0.202279 0 0 0 0)
(-0.613602 0.0183357 0 0.00174115 0.208251 0 0 0 0)
(-0.242783 0.110001 0 -0.22777 -0.0745788 0 0 0 0)
(-0.0124716 0.225863 0 -0.253181 -0.091364 0 0 0 0)
(0.528049 0.00578329 0 -0.12654 -0.140871 0 0 0 0)
(0.648668 -0.128158 0 -0.130269 -0.186311 0 0 0 0)
(0.563257 -0.195624 0 -0.202209 -0.163658 0 0 0 0)
(0.371721 -0.349195 0 -0.332686 -0.138773 0 0 0 0)
(0.20632 -0.357214 0 -0.366389 -0.0445885 0 0 0 0)
(0.0586543 -0.347848 0 -0.375528 0.0279725 0 0 0 0)
(-0.000813811 -0.288092 0 -0.297471 0.103702 0 0 0 0)
(0.011809 -0.204066 0 -0.198846 0.161158 0 0 0 0)
(0.0514156 -0.131488 0 -0.125456 0.195253 0 0 0 0)
(0.0480595 -0.0931881 0 -0.0875121 0.204215 0 0 0 0)
(0.0266745 -0.073416 0 -0.0731174 0.200702 0 0 0 0)
(0.0135775 -0.0600086 0 -0.060899 0.195831 0 0 0 0)
(0.0311562 -0.0450079 0 -0.0457971 0.192908 0 0 0 0)
(0.0651884 -0.0292987 0 -0.0296839 0.19223 0 0 0 0)
(0.100517 -0.0166798 0 -0.0165059 0.192076 0 0 0 0)
(0.128827 -0.00859027 0 -0.00835841 0.191436 0 0 0 0)
(0.146728 -0.00304644 0 -0.00465219 0.190683 0 0 0 0)
(0.155852 -0.0017151 0 -0.00337297 0.190411 0 0 0 0)
(0.160514 -0.00426358 0 -0.00294292 0.189799 0 0 0 0)
(0.163772 -0.00454429 0 -0.00259781 0.188803 0 0 0 0)
(0.166397 -0.00270263 0 -0.00210961 0.188247 0 0 0 0)
(0.168406 -0.00178149 0 -0.00157652 0.187978 0 0 0 0)
(0.16996 -0.001781 0 -0.0010956 0.187844 0 0 0 0)
(0.170371 -0.000319836 0 -0.000676818 0.187494 0 0 0 0)
(0.170968 -0.00330345 0 -1.50473e-05 0.187804 0 0 0 0)
(0.169275 0.000172302 0 0.000249773 0.186888 0 0 0 0)
(0.165363 -0.000207017 0 0.00114141 0.187899 0 0 0 0)
(0.162335 0.00116743 0 0.00219841 0.187246 0 0 0 0)
(0.158778 -0.000585129 0 0.00310287 0.188265 0 0 0 0)