/*--------------------------------*- C++ -*----------------------------------*\
| =========                 |                                                 |
| \\      /  F ield         | OpenFOAM: The Open Source CFD Toolbox           |
|  \\    /   O peration     | Version:  v1912                                 |
|   \\  /    A nd           | Website:  www.openfoam.com                      |
|    \\/     M anipulation  |                                                 |
\*---------------------------------------------------------------------------*/
FoamFile
{
    version     2.0;
    format      ascii;
    class       vectorField;
    location    "0.00021/lagrangian/dsmc";
    object      U;
}
// * * * * * * * * * * * * * * * * * * * * * * * * * * * * * * * * * * * * * //


13071
(
(394.7219078 849.7470513 1040.16117)
(-148.6348844 232.2317295 -393.561631)
(521.5263547 -150.818092 829.4789933)
(482.4046824 -278.2275052 287.0029181)
(-447.3443662 -234.5289952 854.871095)
(249.0186087 109.0681214 280.8056815)
(600.2308054 -778.3067469 1152.522532)
(-366.9905411 -758.361725 452.146642)
(1090.467387 -357.7288009 -130.3793651)
(867.4101711 249.8319785 373.5360103)
(1043.764696 -199.6749452 -98.88387176)
(1024.273187 839.2436697 300.8929202)
(-71.60851539 -443.9051478 -69.73295903)
(753.2922536 -764.5189313 -168.2388957)
(474.1955961 -175.3863404 598.5497782)
(528.6187284 -486.0911186 319.0953621)
(-156.8177135 -79.77745822 -789.0367077)
(5.882701889 340.7092556 89.01985101)
(782.5985497 209.448596 347.579973)
(-540.4557339 1069.371275 401.1109749)
(-103.7743195 -181.7641148 776.4479202)
(758.0151201 307.0761964 297.8505508)
(563.1903692 331.8439175 -16.99357621)
(-131.799037 -56.5336687 35.70268404)
(-134.3489668 -430.1066955 -489.4729968)
(-292.815664 -826.285994 -517.7135924)
(548.2435022 933.9347199 1306.313989)
(-366.1361369 558.5955779 499.5699447)
(689.4724096 193.069517 154.852402)
(383.2962811 -245.4514801 -182.161167)
(1112.724378 578.2139987 219.7530711)
(-135.1240602 -325.6418244 309.998145)
(405.0317625 -1.711858353 813.3857895)
(-35.46065604 483.4745222 -638.8084093)
(670.8031582 116.1492068 -1076.237511)
(-615.8558463 -1086.496677 240.5630125)
(-557.1455684 -327.5465409 26.19838973)
(1491.021108 -911.4567891 -856.3994454)
(1255.713821 -359.3803802 -12.43844497)
(190.4155211 91.85739606 -371.0555922)
(1544.000693 91.30691123 545.6895614)
(1723.696177 -306.4505906 -128.1769316)
(11.79481279 -525.373786 100.9744287)
(-106.0559377 -831.0942578 424.5536933)
(759.4523068 1113.008791 126.5921805)
(-137.1690849 310.5819135 -395.1083804)
(-323.924443 -240.8437592 232.2801911)
(-39.6589794 479.1627824 -430.9428591)
(593.2429494 30.33144011 -8.084909214)
(707.7489657 -555.1424124 260.8738914)
(-45.01692737 565.5847581 562.9040125)
(-219.5088399 -170.8042659 371.548347)
(-462.3272199 98.3818824 -537.9517567)
(-132.3104967 -321.0399953 -1233.967)
(914.7425653 1102.650327 456.0842383)
(-132.5425302 810.112152 -117.3018591)
(1474.030311 446.0369542 -444.8577702)
(478.1423505 -211.3090764 -565.2107035)
(228.3411834 -486.6926583 70.34646131)
(1049.882572 14.90088056 733.6316101)
(427.5739337 40.58859402 390.1174897)
(783.2577455 810.6305368 -649.321768)
(579.3677964 204.8638712 537.7764202)
(574.2034957 0.6157684583 -1404.237673)
(1516.965827 -407.3505019 475.5049958)
(-307.3558887 -17.19854288 -70.65048844)
(1766.844601 637.523523 314.7693392)
(652.5607929 44.32970462 -465.9589749)
(106.7805084 160.8110497 -113.0122471)
(881.9545407 -288.8716056 -1370.317508)
(265.96261 951.3216834 419.0003125)
(21.45305436 -239.5738249 563.4556133)
(389.6983658 692.6898928 768.2034526)
(104.1671081 525.8336912 -148.2678638)
(-180.8457488 -19.26451245 102.2952046)
(-467.027673 449.9020539 781.8412412)
(76.86052768 -725.2540306 512.4955188)
(677.8031455 15.8385604 -261.9463023)
(244.3087257 -28.35820188 57.86985546)
(930.8091596 190.3038565 436.440597)
(103.7775239 -220.4334072 -335.8729083)
(229.0729796 587.1597362 182.8612254)
(722.4486231 626.6944406 149.8905136)
(211.2165574 -287.5484432 234.4207075)
(85.21628551 188.4949117 -66.44766548)
(204.8080935 -218.8927667 23.59923852)
(208.1258665 -276.4907776 13.82774023)
(1377.936457 474.5803274 -314.6207938)
(79.32424032 163.3807071 296.5223019)
(-320.5015422 332.9618181 259.6003253)
(522.9472042 195.0810797 924.6660685)
(-318.6095331 557.9405053 -447.0881777)
(1835.923187 -94.6616859 -552.2317753)
(115.3705182 -245.4065226 293.412201)
(227.681772 -205.0213454 -771.6528517)
(-331.2642792 -878.3383561 46.986862)
(85.11790421 -654.3782065 -156.6282211)
(-138.126249 187.9944856 594.2442796)
(439.0771373 -392.2942362 922.7465177)
(193.960632 -715.7247833 476.7588179)
(1023.273299 -371.529152 263.4946903)
(-590.8676064 -7.623617954 377.2829374)
(-492.4645334 74.84982661 419.1356264)
(129.122834 -275.911467 -214.2993531)
(447.612593 78.25004938 -283.5573299)
(461.452544 -15.50009766 289.8259145)
(644.6580378 48.82509086 307.5717865)
(-367.4786921 -39.66693689 -260.5601547)
(357.0074719 -144.8540025 -356.4869975)
(727.5491781 427.2622887 643.1810802)
(1345.761 367.2123435 319.9114864)
(-368.3360307 421.6027899 -577.5396735)
(-85.74940126 562.2302591 155.3403057)
(15.91109992 773.4048626 -322.290671)
(995.2052507 352.3128916 -195.1837135)
(-706.0553483 728.1558163 -441.067985)
(-161.6354574 433.0031068 596.1840351)
(456.7177563 447.9032905 358.1609804)
(938.5985986 442.8129658 -330.313702)
(138.1152852 80.58693784 733.2958669)
(1237.106797 111.2283729 617.9211647)
(862.039831 -320.2510101 -288.6225669)
(518.410798 -1064.426165 163.7738991)
(105.4450656 565.0590333 -101.7740067)
(124.9579788 278.9971078 180.3295868)
(410.3877081 210.6109558 -851.6817823)
(-567.9198571 -779.2465438 -570.3125165)
(432.9678362 13.23472987 865.4326055)
(-680.9054585 441.7444098 463.0333887)
(-651.8736746 531.8341974 585.2505675)
(424.5258604 179.7051876 -148.0674535)
(73.51364943 -648.1567979 297.2945083)
(222.6245684 490.5444312 280.3969404)
(900.3126229 427.7703958 39.62757492)
(301.5908078 4.912033171 102.6675462)
(18.72380885 191.1871206 110.068272)
(100.269503 444.8402785 556.4202816)
(1909.176904 -730.800341 402.0572878)
(781.0910416 265.2075924 -382.2582566)
(-245.7026841 -408.1628707 -560.8652116)
(558.929514 -622.262062 -422.1713983)
(983.7861693 118.5551051 -572.7473154)
(1043.113051 -298.8227613 -530.7109615)
(560.9701298 -39.35210374 107.9769912)
(-142.1908452 -362.1008647 -101.1820563)
(501.4442009 569.7904214 -826.2720922)
(740.8389359 392.5882723 412.4442812)
(92.30844124 389.8563874 -460.869329)
(1270.279531 1318.215546 362.8136935)
(-72.03225174 -256.9878775 -278.9707791)
(-535.4436428 139.3006922 279.8600278)
(-231.375619 818.1921206 145.4280146)
(629.6250809 938.921891 -804.2894234)
(622.0241133 -206.8079285 -241.1516796)
(-845.872823 -187.2763274 294.7563935)
(754.5207449 -134.1254891 -494.4071614)
(387.6227684 977.4736507 302.9481745)
(-324.8220971 334.8515432 121.3407654)
(2018.107378 525.9948392 -677.4089706)
(111.2059652 -240.2064947 633.2051817)
(908.1486311 86.59928775 2.398647611)
(97.61188831 210.2091459 -60.64530066)
(303.545313 240.1569513 -121.9241843)
(203.3487367 -770.4359699 480.9191436)
(535.5773188 487.2411183 -205.3257858)
(1463.350535 -1097.224899 -92.2623888)
(1355.350219 -263.0942684 1045.319461)
(240.0342476 444.1231311 -417.1988506)
(-871.8898151 -341.0761459 341.1235925)
(-347.5457212 -402.9343078 124.4241939)
(108.1009419 -82.83924097 629.0335463)
(-300.6342425 -447.3474248 -12.79740369)
(526.3697512 927.7838041 -686.9353824)
(503.8580997 -99.01860499 -43.69609054)
(678.9458874 -41.35793527 -190.8074417)
(-262.7563866 -457.7598069 712.370387)
(1069.05848 -327.3026671 -130.4468951)
(132.8104071 -542.4114174 404.5165008)
(-444.870171 0.5790878383 560.2931402)
(13.3563396 -21.27183593 -24.25041588)
(-340.159162 679.6497069 -583.0399009)
(-84.06283795 286.0691325 -576.2792115)
(15.97958017 -462.433647 -232.2714168)
(300.1002172 -561.9692868 -330.7717805)
(-123.9282136 198.5523906 -328.7741991)
(323.660768 427.0803546 -236.9545803)
(-144.6519974 -219.9084309 687.4648875)
(649.6341632 -398.2464794 -4.690130519)
(436.8132395 -18.07601427 542.0766004)
(674.4455423 773.7354519 -450.4157182)
(644.0564207 273.1817819 597.9671481)
(453.5097092 133.4242544 818.9345848)
(292.3719147 615.0446402 928.5173053)
(76.3775963 -388.7465248 -124.4656939)
(196.251365 -306.9787549 139.0680719)
(-129.1068222 507.2924874 -470.1505252)
(159.2987433 -301.2288703 915.7522025)
(1027.803068 137.5195241 -83.98549792)
(-618.4383832 -134.8870098 -763.8084125)
(328.858645 -888.4389147 58.56142939)
(313.9158467 -16.31057644 -90.55979076)
(-254.206998 481.5713505 -254.9624125)
(1644.081777 712.782903 32.44102293)
(-267.4976842 59.335113 624.1799106)
(1421.659618 71.62524744 -213.3944035)
(61.41697948 151.4577599 101.5392495)
(177.1246327 785.0410428 62.67748118)
(485.2353596 302.1770949 -64.87159905)
(-470.3261875 -129.3938953 -191.1704576)
(198.3435374 -451.5170047 -233.3993196)
(407.4037108 -859.5976447 -554.8020349)
(78.25337991 -262.8824795 1270.439445)
(-295.1949967 205.27077 -344.2453642)
(982.7871644 -188.5727953 -470.6111117)
(592.6098752 20.43950941 216.7690081)
(638.4291574 -112.0022077 -377.434465)
(744.308217 -749.0470499 320.8980891)
(281.0860482 427.4315804 232.8539882)
(387.2639015 -52.75960007 166.9850727)
(546.7479728 4.591041238 -141.2046314)
(-251.6288603 -428.6021642 -179.4095987)
(686.3327111 -63.89860789 -223.6146885)
(758.7772421 -1090.336974 -852.7466919)
(234.4506672 193.6463609 -198.5289899)
(0.3180989035 -259.8383766 448.9225727)
(1230.222295 1002.622253 977.4003989)
(59.57242468 -62.98863614 135.489227)
(725.9590125 130.0143906 -536.6419211)
(162.1783677 -638.4080575 197.9997589)
(341.4141901 -276.5039313 84.77068827)
(302.4842681 -121.7974765 -225.7088025)
(460.6613621 1404.925593 69.715902)
(149.7381191 -136.0198609 -503.6850303)
(-796.7140129 -580.9577035 -361.0606962)
(873.984463 -353.2205846 317.4188541)
(-167.724298 33.61716387 -212.8989072)
(-212.8898096 920.4512515 480.1205716)
(509.9815895 741.4763786 86.47439747)
(149.7572997 735.5655782 -366.1840578)
(953.4260968 245.4073847 -312.1091442)
(-399.0241259 -524.9103803 -365.6026539)
(135.4578653 500.4609262 -46.25563415)
(19.04877986 -941.3897383 213.307114)
(-536.3511312 333.2333809 205.8378946)
(268.78352 -382.6326413 -151.8707833)
(1111.997408 681.0628951 668.7521427)
(113.8812875 -544.5851692 -706.2492454)
(113.7355986 -132.3752361 44.0589112)
(-421.021995 508.2071958 -289.2780758)
(285.6995528 233.8016637 -284.9871817)
(593.4517699 177.8978413 -658.5255031)
(-177.1420643 -340.4090291 527.0484078)
(1056.476715 612.7970047 -274.3050195)
(1283.638745 -64.73001254 -114.6124821)
(1617.442451 -9.474718749 283.5634701)
(163.2410146 -452.8255101 -745.7312708)
(2129.701918 1286.90252 -444.3600166)
(-52.21420729 -226.3765073 -315.9463487)
(23.84817711 -246.3158058 -760.0840913)
(-1039.650036 -365.9058126 26.95265709)
(-74.45414603 -162.5500539 268.9558375)
(-715.6240337 -117.9211584 -342.1703555)
(95.15227503 -523.7688901 -770.2570515)
(503.9436761 -353.9777565 -110.614778)
(164.6631257 106.209811 -74.53371846)
(500.9924043 503.3091415 -532.9702957)
(-279.0380275 -705.0570876 4.763942927)
(816.0413982 184.8045833 -697.4990259)
(918.1957632 -47.08739555 59.2135126)
(-1015.091075 -52.60946241 149.2434292)
(640.5609664 411.2998504 422.662079)
(319.8481544 503.5112928 957.9302391)
(27.80899513 302.2786892 -880.0241041)
(-444.358593 -25.47593361 -461.243433)
(120.2561311 -156.820922 176.7912376)
(-138.4682671 291.3002987 -73.71578079)
(608.1152228 -259.4129258 204.2734385)
(1620.574425 185.1075051 40.77310773)
(438.2379597 -135.8230816 236.6547994)
(370.7868067 -603.311217 -161.6894186)
(-176.0127814 199.4605618 167.4822367)
(-671.8155068 458.8698913 -89.83193471)
(600.7285015 -21.51944741 -218.6146914)
(721.2380641 -347.4027126 -449.7814253)
(-93.14203488 -405.1884865 -6.246384966)
(725.2329933 -579.9284321 176.217524)
(783.4736013 234.9677355 292.1886606)
(-532.7326435 -383.8413851 -185.7691706)
(913.6268632 827.2113771 -707.6178123)
(1.551117219 159.8050905 167.3475399)
(-117.9637582 -401.7027076 293.7439243)
(2419.175305 243.1331487 -509.2246132)
(-229.0735191 -149.9831086 292.7045632)
(662.5517327 -393.0139182 -185.1768185)
(661.7664205 64.56232491 -92.02882912)
(649.2037531 359.442809 343.37558)
(306.5092536 159.1614539 -265.6872759)
(798.499496 -223.0918688 971.5578275)
(-777.9882425 -67.12745534 643.0339288)
(1000.097039 -50.8372138 725.9345407)
(-155.7173714 1249.719949 -125.4136574)
(357.3216024 -514.7412613 -687.4125887)
(263.9425938 533.562484 -185.1159569)
(974.1702353 -208.4342201 -103.1194023)
(-12.45939767 -48.82633898 -530.8448926)
(802.3054695 558.8187203 -433.0372748)
(613.203995 229.1856809 23.80867503)
(1727.673907 -332.9366642 55.89235196)
(81.45743296 613.4427322 -290.2845672)
(566.0701737 -223.7706492 -1200.904596)
(221.692384 -175.1510865 -21.26990267)
(-59.73105334 -358.2193455 -886.9320538)
(-421.7850252 -413.1744723 -236.1767065)
(-95.86366819 186.2705728 815.3268208)
(-478.5833581 452.6902508 -576.507402)
(1026.555812 39.90899925 -88.66250029)
(629.5928227 593.1770479 -389.3561059)
(1382.050865 248.8938906 428.6647022)
(57.68040133 73.0528923 49.84803242)
(-597.5181153 -346.112101 -471.8187763)
(443.4547475 198.3023224 -618.4411528)
(901.5552697 -237.2552881 463.1802196)
(63.75784565 939.5492269 -278.4480428)
(-404.5104628 504.1644887 369.0443945)
(-861.7377534 277.5996499 137.294082)
(414.1353528 -149.3900926 123.3202336)
(827.7985463 -261.8584327 583.8097216)
(275.938011 68.72230239 -126.7454833)
(-520.3951035 -530.1976122 280.1652384)
(1779.549445 454.3620864 798.8241903)
(85.14414644 -594.5740761 -242.8205569)
(1018.864066 -344.6071404 -115.2564721)
(504.9711877 294.6631589 -160.1937537)
(-83.09243993 -410.4024458 -26.52111716)
(-388.873437 389.0359395 -353.7816567)
(1058.230042 786.7768904 358.2462734)
(4.394225059 673.5283953 756.8694158)
(674.065906 -286.6315094 -139.7101419)
(1476.160011 230.7796174 -690.8077362)
(285.6430845 -156.1714231 -287.7384084)
(701.9077411 186.9440514 76.37704794)
(434.6176262 -101.0805728 -206.8254824)
(-0.8559533658 62.78762951 -153.6903829)
(449.6022415 -505.8696307 -143.4700653)
(-217.872538 97.52717651 -204.509593)
(-201.9018858 -1218.090265 -531.302043)
(-6.450799723 64.32091385 -142.8471193)
(114.4594182 -265.1468372 -267.138281)
(704.269243 -164.3028364 -848.4772379)
(1231.34589 -97.14919031 395.925996)
(-646.6237385 697.6608878 -83.80838723)
(-198.5038115 389.8386978 -309.9773698)
(1164.115094 -361.1265031 248.8259485)
(697.3384207 58.57469116 525.6536354)
(2.738771652 -234.1994688 -93.35146071)
(239.0365444 -26.07935802 -146.1721415)
(123.5145043 229.9617173 -214.4249598)
(563.339483 -302.7697633 789.7778648)
(-118.152003 -1.363811451 205.2113252)
(-135.1064745 7.412418127 387.9846067)
(549.8315514 -421.7456575 878.2224921)
(378.508941 423.0385119 -291.2128496)
(-290.3776967 485.2702609 388.3760947)
(376.0933549 -351.244188 226.4737049)
(376.4167517 -59.02448602 -81.93628169)
(410.8801459 83.84697434 46.07153969)
(222.7405659 496.4030813 16.71649206)
(655.5470798 416.1123729 -387.4953057)
(-565.8162368 -625.5826692 537.8828706)
(-727.8028126 320.1299849 530.1319983)
(-177.2761883 -43.03876034 -255.8685891)
(1451.992116 718.1321713 856.3955667)
(-155.9150802 128.2089794 385.6027836)
(265.5670353 258.3804716 1021.923342)
(1491.436931 607.9120094 747.7828313)
(718.750132 -54.18628276 651.5468505)
(-91.86651636 -40.78240635 -175.039579)
(151.1241532 -218.0586315 -363.9600641)
(306.7944661 -776.5762637 -915.7710097)
(-356.8970357 753.648044 141.3228877)
(29.93129747 -95.52200376 -5.030794737)
(288.8563276 818.1090749 100.9593417)
(666.9706559 58.25130358 -19.94410211)
(1832.026723 734.6186102 -150.6019045)
(206.7492025 -24.75026464 -187.3591433)
(259.9702226 -19.56288387 11.83880978)
(66.17782477 -1311.123598 -974.828327)
(458.7196526 736.5742269 -153.7300414)
(97.22944459 334.9218561 -121.2800703)
(168.2613832 -249.4703398 665.6391022)
(-464.4484974 -914.3829844 -68.71724863)
(1238.660457 -601.5523886 260.0572896)
(1671.677692 49.97906073 -63.47086734)
(1984.03365 -145.4786664 164.2252019)
(-241.8511934 -92.99149687 292.3241129)
(-688.8790324 374.7776477 -665.1962019)
(596.7412726 -38.59175168 -355.028858)
(253.6445211 -335.9529053 -631.0967602)
(88.68222261 -323.3122957 108.1215958)
(-271.5190522 281.8103891 -787.9492717)
(426.3341318 490.8777114 979.5599058)
(-509.1146502 541.4673457 623.4229198)
(-419.0899677 234.3170187 -32.9863927)
(623.4986353 735.5389497 392.9358945)
(1743.740361 -66.34144949 -195.8458565)
(820.8797079 347.2296383 -178.3718069)
(485.4166915 681.6778179 -116.8653792)
(-466.6173618 71.93308842 -569.9112978)
(353.8403796 128.1289977 -319.0472456)
(303.8773866 265.6532638 440.6140596)
(-711.2369419 -357.7359071 276.8348405)
(504.3748734 -189.6501683 538.5091614)
(-610.99537 697.014226 -192.9694952)
(-166.6321118 -374.7808607 -59.99173357)
(-190.0065637 373.6686042 468.3075344)
(-88.18165515 4.496960811 -45.75320899)
(-77.08112114 321.5454075 1056.506604)
(112.6821634 -226.2036137 1145.869445)
(100.7639239 275.3040781 278.7208995)
(694.4256115 -579.7007147 -286.5558428)
(554.4929262 810.5875699 -357.1294955)
(674.5937165 55.45013173 284.0225509)
(29.0952511 217.6954084 527.643687)
(-202.4542068 571.1181907 68.26476805)
(-262.1143946 1136.994811 -858.4351005)
(68.09713177 -340.9005754 -265.3111164)
(-262.1980849 537.8743884 317.5745334)
(725.0022076 50.33484345 -253.5809066)
(365.5059722 74.29811812 53.18675185)
(1109.45159 385.7584463 556.5635667)
(813.0717763 620.5249846 150.4471849)
(247.3844172 -513.7226816 -845.854885)
(704.3169928 -7.722560848 -37.75337301)
(1184.053629 214.7093727 -20.9312287)
(750.2462075 5.559810667 -98.82170873)
(26.87646879 -430.4251295 725.9965499)
(1322.288499 911.4244695 -76.40452143)
(863.7778696 -476.2237548 842.1256586)
(-249.5707356 685.7004093 -365.7766175)
(600.1198701 284.5268067 126.1224883)
(560.6660111 -37.04150149 -1130.999501)
(-416.1944122 11.06884624 -568.1461532)
(677.1629689 -104.3423771 208.5071)
(636.281728 373.2837322 528.6350337)
(-346.746317 -71.22055025 -888.6039494)
(1273.702269 -89.47658918 763.2824392)
(-32.7258501 195.7757194 585.8520691)
(233.0977586 171.5573801 774.8277442)
(11.24844838 907.2290249 550.2485286)
(1252.686927 813.4540795 300.2830552)
(624.2453804 -495.4373662 -841.1749406)
(-415.4856503 303.1079204 345.70866)
(-281.2294412 561.1879078 -848.9420687)
(397.4242678 21.01678973 237.5525723)
(-121.7879129 530.2741055 -108.1337633)
(758.5963124 -108.047795 407.8957359)
(622.3472905 -61.43308411 -213.6539563)
(361.5795907 -159.4631576 65.21334957)
(-29.52440644 341.8347924 300.3622169)
(1122.851766 323.9156086 -943.4409245)
(692.3685602 186.7204633 -36.19348459)
(1063.937984 1118.75893 -163.1890209)
(796.5021008 -92.99698306 488.791471)
(127.396991 -436.4410489 98.72152809)
(486.990814 571.6252162 58.50078279)
(610.2464854 -296.4605525 -576.2111004)
(1253.584449 682.6553604 -367.8674147)
(706.0200273 172.4300735 240.5236669)
(-146.9012576 76.30854455 260.2515002)
(244.828074 -213.9215641 -316.7642946)
(624.7267949 235.3176524 -1384.474256)
(-414.8744564 374.9097806 45.91245517)
(503.070313 -21.40449559 447.0183576)
(814.672874 185.6589826 -1037.680729)
(-297.2301709 1157.855809 250.8584428)
(-502.574715 386.2393372 -390.8326772)
(899.2857585 94.52858206 195.3274389)
(-139.5544852 363.3722227 -782.2192801)
(115.368769 468.8747612 -1148.114593)
(768.5869686 519.2906646 -310.1619744)
(-216.9492988 -303.8768419 -83.81360919)
(896.1885879 607.9614579 -304.6916335)
(117.0463352 -170.0984847 538.5476601)
(54.21267235 565.7277866 -563.7087516)
(-495.5739458 556.1042237 242.7286732)
(309.8031051 66.59751484 -122.2882379)
(418.5095871 -447.3751881 323.3203014)
(586.7729741 -694.1563322 457.7048493)
(1199.262486 1061.210472 136.4893958)
(1126.192342 -87.36173606 931.3107793)
(183.3669273 -323.615831 691.2531578)
(1541.513384 930.6358971 292.3742317)
(-641.8829865 387.5707193 -343.8500528)
(806.7643558 -478.9486656 330.1211052)
(598.0529712 1228.253451 280.7918216)
(11.55569371 -464.1428906 -662.3660816)
(538.9362793 -460.087443 876.822816)
(-238.1383336 805.5548872 135.4237127)
(205.9393641 -242.7729623 -552.0931589)
(300.2707718 423.0640477 -455.608373)
(490.2088827 -101.3175177 792.3985317)
(-148.707633 751.3576759 265.7798397)
(-358.665877 402.6369756 357.3176566)
(207.5663957 838.5856293 -310.5194482)
(38.73579432 -332.3963229 294.0946849)
(32.97895258 795.0426951 128.6329771)
(685.4429886 -279.0125135 -613.2968212)
(-185.8290419 -236.8277974 -799.5832225)
(124.2463573 81.96287134 344.0002595)
(364.8621484 442.7200928 86.65925815)
(653.9738313 -292.0703141 103.7312418)
(-0.404326438 652.6792749 143.8090306)
(915.9218945 178.8181069 109.2054296)
(854.2380511 347.0056856 -247.5995678)
(97.14057569 -203.538367 -845.2836313)
(1740.912045 344.1169281 -1071.112954)
(1006.385381 382.1711172 -416.6457629)
(1205.37297 409.898608 459.1962299)
(391.5893559 -568.5146617 -745.4838598)
(-147.7257219 170.084585 306.8343341)
(626.2518249 -510.0097875 -122.4139213)
(706.7806185 -191.7685055 998.5156035)
(771.7516674 419.6991485 303.0767114)
(535.2428934 509.6176699 -449.9285826)
(994.6135697 119.8359087 -293.4038643)
(656.2976912 1433.049894 161.59338)
(267.9850792 293.8977734 203.9471012)
(83.50639623 -227.8651906 -183.3315888)
(141.6621267 -309.572589 -356.1723522)
(422.7489844 432.2227088 340.9015608)
(-317.5880869 -541.3350141 -540.1652447)
(837.3099 729.4341721 -373.7297346)
(-820.0594838 618.5067362 708.2223133)
(89.04243626 -31.85214125 319.0689334)
(-228.6838989 -68.20369187 -221.1800429)
(679.0326339 698.7257496 -361.3847848)
(-306.0184747 360.7711722 -36.45540552)
(-364.6163867 312.6580961 419.1589011)
(647.1916208 -171.1138426 373.5590642)
(94.97553087 245.1581868 -253.179689)
(714.8173908 238.8066838 816.3243985)
(-323.1260046 -484.088569 894.4579152)
(847.8875566 1635.270741 -149.4032409)
(1411.13908 295.1082621 130.3802561)
(-271.3350806 163.3869475 -532.5893523)
(519.0902503 507.902079 410.6274536)
(541.1561023 -237.2825791 770.7115545)
(37.97565414 -361.3892413 -430.9595544)
(568.02736 420.1991068 100.297414)
(164.4321667 244.8726067 1090.953713)
(-836.9978642 715.6542721 -338.8548956)
(1379.437489 -247.6374855 -258.2767333)
(-179.2555577 -313.8269785 558.1090954)
(-322.2622836 -769.4132823 -353.8020727)
(1834.833676 -104.4186799 -650.9149193)
(189.1678432 118.652013 -21.21499038)
(1273.039275 28.73831545 296.9797315)
(617.9092152 764.5597372 -767.9557846)
(159.5387924 -406.8083058 216.3915022)
(56.8175245 515.8587027 -495.6235839)
(438.6486686 -184.9353424 -742.523152)
(839.4048624 -271.1336777 276.1083407)
(-294.3901928 -249.9681668 -143.7704964)
(897.0087852 2.007373426 27.49655712)
(720.9365198 877.4189952 -49.01409336)
(78.04004345 -405.4290459 -240.528142)
(430.857981 -135.1916433 101.6411563)
(652.4331008 632.1436729 1063.883256)
(-435.9299876 -327.3076729 170.9926049)
(1213.419099 -550.6284759 119.6865961)
(268.1680528 -315.9365861 77.92649243)
(431.6605509 -476.9786456 780.6872619)
(950.058296 1268.492125 -791.5590401)
(862.0470194 -459.9551402 151.8707216)
(-255.6674286 241.0373212 -87.06298524)
(578.0211188 -85.29745377 19.15677942)
(-800.5668532 -66.00203224 239.8186907)
(369.6543191 79.72037327 169.5710032)
(37.32697802 -239.8849656 -370.8199703)
(-385.0580211 -345.2855464 85.64184781)
(269.1292016 367.8308086 -147.1708313)
(-327.7461516 -437.5438733 -239.2009668)
(214.206134 -241.6659172 -282.3710906)
(245.5920657 304.451845 28.94219927)
(-618.4731142 -570.7133623 40.59278737)
(1221.697403 169.8097264 272.9647662)
(934.0918311 1134.213431 332.5100153)
(330.2803033 86.05844673 571.2836303)
(-197.2167753 445.7724977 268.889363)
(-129.2563053 -574.2228731 -446.1035269)
(24.79963056 -344.8670158 -372.9444772)
(574.6403326 26.52286994 -937.8819901)
(968.9126702 765.4725981 608.1390643)
(370.914159 -215.2470879 -244.8555241)
(560.7527599 -157.6789308 339.4835457)
(67.50817142 573.4430234 -164.7281773)
(14.07668417 31.59258017 324.5609255)
(-99.89570687 955.2594116 -257.3337372)
(699.5108821 299.0600269 126.6019557)
(744.2544534 554.2441351 83.38328322)
(775.5194137 -695.5576079 78.31057334)
(670.8125844 106.321435 -20.33818855)
(780.3801578 999.4867582 284.1911142)
(-154.496629 277.0532938 316.8848599)
(738.8888565 -799.534447 -166.1973801)
(260.6828554 303.9074199 359.7467018)
(162.2815089 -936.6883063 -428.5727424)
(560.0273441 -358.551347 -255.3209642)
(-343.6626436 -864.705163 76.19952202)
(1441.407149 702.4859915 -76.66572391)
(1084.909539 -1103.465184 -643.9682126)
(352.7994426 453.3740014 -234.3972948)
(556.8825623 -6.289622213 35.99340567)
(-583.6582312 227.703255 -31.7966394)
(58.97628006 1190.726758 874.465266)
(-128.4279204 244.4360349 392.7774227)
(906.5455384 43.40868353 -502.3982012)
(505.490952 1202.087723 156.3589971)
(534.9430059 -1082.79357 146.7834571)
(-447.7190213 -425.8835979 739.6183756)
(285.8434608 1076.380782 -288.7594579)
(584.3289654 482.1788859 -59.06469455)
(10.74806492 663.3152072 -292.9181674)
(414.0780502 376.1978451 -299.5631301)
(162.7436311 -353.7986448 353.9400292)
(984.6314094 -508.760702 748.1309664)
(477.5214491 148.127073 -273.5723963)
(-98.18961641 -578.1624011 -210.9838157)
(1394.452902 -515.7932486 528.843471)
(515.5809783 -489.4958826 -204.3295689)
(385.3287267 233.574664 -153.7230498)
(531.5165763 226.9394897 -104.1125271)
(91.52791241 -192.765535 22.09993126)
(71.27851631 -516.2714772 -441.3675804)
(-75.00516171 48.57293765 -55.02310155)
(873.5636066 72.94107944 389.7145862)
(-579.7345951 103.1571934 -106.3672268)
(858.3666938 378.5785116 149.5660982)
(870.7915489 618.301082 -210.4626951)
(-453.3954283 -201.0979547 49.99588302)
(747.4056358 250.753831 220.4394661)
(139.9885938 583.83047 -68.6459724)
(-580.3469103 11.05565277 40.92317679)
(308.7968211 -274.1331789 961.7480409)
(422.5075424 -133.5266628 213.0978089)
(1516.070697 682.0443526 -276.4981825)
(-387.9876739 -280.1136417 550.1572131)
(25.34354591 203.6886872 -423.1011267)
(-772.2681108 1029.361929 -283.8066993)
(-281.6224779 38.14194537 -27.33752121)
(848.8028373 -467.9357075 -423.8109198)
(196.8874937 -397.181747 301.145704)
(514.1982567 -471.7484666 -561.4280936)
(259.765128 -264.151599 200.1226621)
(133.4263637 -184.3991183 -286.8725329)
(117.7906386 -192.9258311 -860.5668821)
(793.9950627 -338.3474459 523.3699599)
(422.24311 392.617606 545.2309804)
(560.8240601 260.4356261 284.741742)
(800.7368563 33.67533467 233.5269439)
(439.4842665 1284.272988 499.842606)
(1542.857745 1042.821201 -450.6683786)
(1336.437618 160.0896053 -496.2347965)
(795.9886519 -362.7139857 -386.9871391)
(576.7551843 36.01717608 -9.953506844)
(624.9566543 -603.8217949 -474.9548739)
(1028.587648 85.68843146 -46.49624467)
(509.3162656 318.0474099 -694.5032278)
(21.17374734 4.197014856 497.8625346)
(389.1031054 -366.3701199 222.6299892)
(326.0569093 364.7166138 487.0311928)
(130.3421686 -409.3800385 -820.2028136)
(-109.5463054 -68.59079509 -47.03214634)
(831.4193088 35.85454989 568.7640665)
(-519.3490385 49.31494251 256.0878872)
(582.0129735 654.8332588 125.3207737)
(237.1523698 67.86885302 24.8604952)
(-547.724294 482.7696385 -377.4339547)
(-383.497719 -736.2450636 -1047.498732)
(173.5217161 228.1283273 315.5171881)
(370.5632218 -76.04354093 -78.4795486)
(1076.67108 329.7979104 51.39463407)
(-512.0987687 222.022751 114.2669694)
(1094.352443 337.853958 -38.77055661)
(889.7555569 632.0249138 5.646300502)
(650.3575563 501.3695087 174.2278502)
(464.5085115 -337.0359418 188.3476255)
(748.1225279 570.4512099 -148.1300586)
(1223.617303 -339.4022467 -520.3447715)
(-117.9331809 -710.7486592 -193.7322402)
(160.0266738 9.427075923 -408.8325589)
(549.8795212 -414.0419185 -265.7299836)
(1097.18026 359.1717544 249.2644376)
(-263.1968929 162.2981273 139.3375536)
(28.31715185 52.15246364 -112.1126727)
(-613.7599886 167.3246306 578.0859758)
(55.52935731 -908.0015445 609.3966665)
(535.4026494 418.099077 622.0732959)
(210.6315821 -441.9353546 447.0269412)
(378.0632917 -29.62998588 4.390020723)
(-138.902625 -89.02624203 268.0627225)
(786.0414673 337.1992031 -515.399628)
(1057.423767 657.9945516 429.0257441)
(-593.8737182 -479.5692103 -979.5607043)
(536.0088955 -136.4025036 -155.6067133)
(-485.3492659 -124.1858265 -429.5719485)
(544.5575723 -226.6784984 -128.7298288)
(472.6393149 -34.77348439 -772.9703057)
(511.3398045 644.5828515 -465.4625369)
(724.9151664 -120.8627564 380.1948768)
(374.1100056 36.74724704 -463.4955985)
(94.3550696 -875.3720241 -281.7057252)
(1543.848227 678.3840593 -489.2018277)
(-412.0858666 -269.640732 24.13359141)
(-248.5028892 349.9239973 279.4114561)
(306.3742478 -149.4606182 -264.4497924)
(892.8932149 717.4434984 804.7658461)
(47.48837418 -212.0146081 -993.7873533)
(42.97170264 261.9252437 81.08135156)
(93.03982732 912.27574 563.4977931)
(96.77793113 339.4598228 -116.2310105)
(-625.8365928 -70.39135482 -635.8876412)
(1228.337371 -90.20934829 400.7991199)
(634.5195833 383.0645983 272.3942116)
(143.8742978 142.5674556 -825.9237428)
(1053.81104 256.3891882 -672.5333564)
(1101.570652 50.17235959 -93.05824771)
(1333.030308 -399.3598545 -12.54242888)
(-483.8747263 205.9150076 -91.50059676)
(197.759305 609.1864577 -130.8342453)
(1620.497456 -119.9401389 8.544596418)
(1536.578047 326.1200364 250.0924839)
(803.3884571 74.0269415 -399.8184054)
(573.9034676 -417.8518487 667.6775994)
(1432.474999 399.2914188 -118.0883281)
(837.3002085 562.7686779 -32.61573542)
(168.998018 -526.1583871 144.6426031)
(146.6158273 -83.10938784 -188.5334187)
(998.5982003 760.0824341 551.7236678)
(-932.1040528 -100.9765567 -576.2903745)
(315.1511762 -268.3557316 -356.2786399)
(491.5623942 268.4937469 -75.97553838)
(278.4544888 -101.9071888 103.4769376)
(283.5033321 -1325.52576 -359.4258753)
(403.6238117 -387.2560005 -35.40830497)
(1168.859688 30.35780517 -400.7755699)
(173.577606 -158.3228118 18.28009716)
(1366.456385 405.224781 323.9497315)
(-379.0913156 308.9047208 684.0031274)
(1161.769298 227.9837614 -52.78511164)