/*--------------------------------*- C++ -*----------------------------------*\
| =========                 |                                                 |
| \\      /  F ield         | OpenFOAM: The Open Source CFD Toolbox           |
|  \\    /   O peration     | Version:  v1912                                 |
|   \\  /    A nd           | Website:  www.openfoam.com                      |
|    \\/     M anipulation  |                                                 |
\*---------------------------------------------------------------------------*/
FoamFile
{
    version     2.0;
    format      ascii;
    class       volScalarField;
    location    "5.6";
    object      Ma;
}
// * * * * * * * * * * * * * * * * * * * * * * * * * * * * * * * * * * * * * //

dimensions      [0 0 0 0 0 0 0];


internalField   nonuniform List<scalar> 
1900
(
0.801471
0.0751242
0.0701334
0.0696459
0.0748652
0.0804842
0.0876455
0.0945962
0.0992271
0.0938937
0.801471
0.0751183
0.0701431
0.0696341
0.074807
0.0802677
0.087005
0.0936912
0.101001
0.10736
0.801471
0.0751155
0.0701437
0.0696144
0.0747591
0.0801512
0.0867691
0.093499
0.101668
0.113763
0.801471
0.0751183
0.0701431
0.0696341
0.074807
0.0802677
0.087005
0.0936912
0.101001
0.10736
0.801471
0.0751242
0.0701334
0.0696459
0.0748652
0.0804842
0.0876455
0.0945962
0.0992271
0.0938937
0.103084
0.143013
0.197856
0.283106
0.427657
0.12542
0.151464
0.183139
0.248075
0.385976
0.133937
0.15921
0.191103
0.252523
0.382877
0.12542
0.151464
0.183139
0.248075
0.385976
0.103084
0.143013
0.197856
0.283106
0.427657
0.908949
1.19783
1.14111
1.12466
1.15005
0.87124
1.2147
1.16817
1.14788
1.16711
0.867771
1.22531
1.16908
1.13907
1.16199
0.87124
1.2147
1.16817
1.14788
1.16711
0.908949
1.19783
1.14111
1.12466
1.15005
1.52385
1.79409
1.52247
1.01876
0.724842
0.453934
0.247872
0.102277
0.0496453
0.0881573
0.108521
0.11748
0.124591
0.129076
0.126228
0.111025
0.0853152
0.0551521
0.0288505
0.0326125
0.0622127
0.0969807
0.133576
0.171195
0.209495
0.248268
0.287132
0.326305
0.364584
0.401702
0.43786
0.472153
0.505519
0.536763
0.566953
0.589716
0.607963
0.607085
0.635485
0.996788
1.47738
1.80488
1.63103
1.07572
0.788228
0.494905
0.255119
0.0923253
0.030867
0.0827889
0.105729
0.115534
0.122668
0.12749
0.124775
0.109302
0.0828604
0.0509762
0.0192412
0.0243605
0.058374
0.0946779
0.132031
0.170115
0.208741
0.247761
0.286821
0.32616
0.364567
0.401807
0.438046
0.472423
0.505824
0.537133
0.5673
0.589966
0.608303
0.607265
0.635957
0.990985
1.42911
1.79784
1.65304
1.06432
0.7693
0.486008
0.253804
0.0891595
0.0214227
0.0811477
0.10479
0.114809
0.122071
0.127003
0.124273
0.108681
0.0819881
0.0494753
0.0146833
0.0209199
0.057047
0.0938978
0.131504
0.16974
0.208473
0.247578
0.286711
0.32612
0.364593
0.40191
0.438229
0.472709
0.506227
0.537716
0.568094
0.591054
0.609901
0.609421
0.637896
0.990478
1.47738
1.80488
1.63103
1.07572
0.788228
0.494905
0.255119
0.0923253
0.030867
0.0827889
0.105729
0.115534
0.122668
0.12749
0.124775
0.109302
0.0828604
0.0509762
0.0192412
0.0243605
0.058374
0.0946779
0.132031
0.170115
0.208741
0.247761
0.286821
0.32616
0.364567
0.401807
0.438046
0.472423
0.505824
0.537133
0.5673
0.589966
0.608303
0.607265
0.635957
0.990985
1.52385
1.79409
1.52247
1.01876
0.724842
0.453934
0.247872
0.102277
0.0496453
0.0881573
0.108521
0.11748
0.124591
0.129076
0.126228
0.111025
0.0853152
0.0551521
0.0288505
0.0326125
0.0622127
0.0969807
0.133576
0.171195
0.209495
0.248268
0.287132
0.326305
0.364584
0.401702
0.43786
0.472153
0.505519
0.536763
0.566953
0.589716
0.607963
0.607085
0.635485
0.996788
1.27478
1.3976
1.06516
0.743609
0.574532
0.413159
0.259747
0.137951
0.096926
0.113915
0.125608
0.131071
0.136761
0.139583
0.135437
0.120511
0.0969761
0.0716673
0.053891
0.055948
0.0770089
0.107053
0.14112
0.177232
0.214549
0.252637
0.291014
0.329794
0.367838
0.404716
0.440791
0.474962
0.508381
0.539522
0.569894
0.592931
0.611335
0.611922
0.638628
1.0038
0.497263
0.570512
0.531187
0.55533
0.546688
0.45085
0.305389
0.20382
0.169913
0.165219
0.163696
0.163148
0.165235
0.164817
0.158441
0.144119
0.124463
0.105691
0.0943423
0.0955079
0.109059
0.131834
0.160729
0.193259
0.228022
0.264223
0.301198
0.338807
0.376101
0.412207
0.447933
0.481626
0.515002
0.545682
0.576299
0.5995
0.618546
0.621978
0.64538
0.997392
0.635468
0.621617
0.701731
0.670874
0.587497
0.458496
0.342574
0.269439
0.236662
0.21922
0.208452
0.202684
0.200672
0.197008
0.188644
0.174818
0.158198
0.143581
0.135243
0.136057
0.14574
0.163244
0.1873
0.215867
0.24748
0.281176
0.316192
0.352101
0.388263
0.42319
0.458322
0.491238
0.524404
0.554319
0.585053
0.608235
0.628429
0.634579
0.653479
0.99956
0.92086
0.838791
0.843838
0.729819
0.593695
0.482181
0.392438
0.332899
0.296424
0.272224
0.255175
0.245478
0.239648
0.233038
0.223007
0.209518
0.195003
0.182954
0.176254
0.176883
0.184282
0.198144
0.218312
0.243253
0.271689
0.302671
0.335459
0.369353
0.404144
0.437621
0.471985
0.503934
0.536752
0.565751
0.596461
0.619484
0.640944
0.648905
0.66276
0.999444
0.999045
0.888108
0.856908
0.727975
0.603861
0.511638
0.440565
0.38891
0.350779
0.322667
0.302004
0.28913
0.280214
0.271032
0.259656
0.246406
0.233335
0.222929
0.217211
0.217731
0.223634
0.234901
0.252056
0.273923
0.299449
0.327784
0.358346
0.39003
0.423374
0.455272
0.488766
0.519666
0.552068
0.580125
0.610777
0.633475
0.656072
0.665478
0.676443
1.0061
1.00999
0.897823
0.845079
0.724624
0.625267
0.549405
0.489743
0.439678
0.400566
0.369941
0.347329
0.332218
0.320878
0.309641
0.297293
0.284313
0.272321
0.263051
0.257993
0.258464
0.26331
0.272632
0.287414
0.306704
0.329633
0.355452
0.383846
0.413209
0.444988
0.475146
0.507552
0.537197
0.568897
0.595784
0.625995
0.647915
0.670656
0.6802
0.689781
1.00946
1.01456
0.901821
0.834242
0.730754
0.654818
0.58622
0.532717
0.484418
0.446581
0.415467
0.391942
0.375209
0.361821
0.348901
0.335732
0.322913
0.311654
0.303076
0.298405
0.298825
0.302884
0.310726
0.323687
0.340943
0.361753
0.385437
0.411975
0.439328
0.469775
0.498467
0.530021
0.558739
0.590034
0.616159
0.646273
0.667783
0.690906
0.70101
0.710367
1.02193
1.01327
0.905797
0.832393
0.743373
0.688776
0.622211
0.572716
0.52587
0.489401
0.458302
0.434284
0.416138
0.40102
0.38689
0.373362
0.360897
0.350316
0.342412
0.338128
0.338583
0.342027
0.348615
0.359983
0.375389
0.394188
0.415722
0.440307
0.465495
0.494341
0.521288
0.551607
0.579062
0.609512
0.634531
0.664053
0.684647
0.70722
0.717347
0.728049
1.02769
1.02193
0.91634
0.845743
0.76492
0.718113
0.654184
0.609756
0.565463
0.530513
0.499968
0.476
0.456983
0.440682
0.425533
0.411669
0.399323
0.388908
0.381193
0.376987
0.377377
0.380329
0.386
0.396292
0.410484
0.427969
0.448039
0.471323
0.495033
0.522848
0.548617
0.578125
0.604777
0.6347
0.659015
0.688143
0.708143
0.730127
0.740673
0.752442
1.04209
1.03157
0.930546
0.863617
0.78618
0.74568
0.685105
0.645252
0.603079
0.569521
0.539611
0.515384
0.495117
0.477628
0.461716
0.447774
0.435557
0.425583
0.418233
0.414251
0.414693
0.417218
0.421977
0.431141
0.44402
0.460053
0.478481
0.500255
0.522342
0.54898
0.573503
0.60211
0.627977
0.657351
0.681054
0.709735
0.729111
0.750248
0.761094
0.775001
1.05009
1.05278
0.947058
0.88341
0.809898
0.773317
0.716057
0.679795
0.639185
0.60686
0.577596
0.553427
0.532467
0.514267
0.498471
0.484027
0.471775
0.461793
0.454418
0.450386
0.450785
0.452994
0.457161
0.465689
0.477867
0.493102
0.510515
0.531379
0.552325
0.578151
0.60175
0.629599
0.654827
0.683623
0.706808
0.734901
0.753787
0.773978
0.785241
0.801084
1.0671
1.06633
0.962807
0.902477
0.833499
0.800314
0.745957
0.712595
0.673352
0.642331
0.613493
0.588952
0.56721
0.548684
0.53217
0.517779
0.505645
0.495835
0.488577
0.484597
0.48499
0.486837
0.49029
0.498009
0.509302
0.523547
0.539784
0.559644
0.579399
0.604449
0.627248
0.654476
0.679292
0.70772
0.730717
0.758482
0.777226
0.796856
0.808852
0.826572
1.07598
1.09294
0.981448
0.921874
0.857273
0.826912
0.775049
0.743877
0.705724
0.675781
0.647408
0.622958
0.601638
0.582961
0.566122
0.551497
0.539213
0.529239
0.521781
0.517641
0.517998
0.519689
0.522852
0.530323
0.541349
0.555203
0.570786
0.590205
0.609101
0.633611
0.655789
0.682388
0.706733
0.734496
0.757071
0.783914
0.802089
0.820378
0.832231
0.852239
1.09417
1.10783
0.997516
0.938729
0.878217
0.850679
0.801495
0.772516
0.735491
0.706148
0.677513
0.653637
0.6318
0.612761
0.595877
0.5814
0.569327
0.559607
0.552345
0.548324
0.54871
0.550026
0.552448
0.559098
0.569283
0.582219
0.596729
0.615418
0.633229
0.657138
0.678733
0.704856
0.728968
0.756358
0.778925
0.80529
0.823425
0.841297
0.853539
0.875462
1.10381
1.12236
1.01444
0.956716
0.899737
0.873115
0.825806
0.79761
0.762117
0.734539
0.707107
0.683526
0.661828
0.642792
0.625867
0.611311
0.599108
0.589211
0.581719
0.577527
0.577919
0.579215
0.581572
0.588218
0.598414
0.611256
0.625378
0.644041
0.661123
0.684657
0.705817
0.7314
0.755121
0.781666
0.803883
0.829119
0.846746
0.863447
0.875045
0.897316
1.11539
1.13409
1.02405
0.968379
0.91464
0.889455
0.8445
0.817979
0.783492
0.756911
0.729533
0.70621
0.684528
0.665775
0.649002
0.634506
0.622185
0.611968
0.60401
0.599378
0.599497
0.600378
0.602298
0.608778
0.618973
0.631645
0.645216
0.663621
0.679714
0.702706
0.723378
0.74863
0.772193
0.798312
0.820641
0.845329
0.862876
0.879159
0.890323
0.913559
1.12565
1.13879
1.02512
0.972778
0.922584
0.899002
0.857592
0.83233
0.799141
0.773914
0.747433
0.725224
0.70405
0.6859
0.669093
0.654209
0.640942
0.62947
0.62048
0.615641
0.616175
0.617096
0.618752
0.625546
0.636761
0.650501
0.664316
0.683251
0.698562
0.721062
0.740897
0.765307
0.788092
0.812907
0.834813
0.858084
0.875036
0.890512
0.900898
0.923032
1.13301
1.1512
1.01831
0.973751
0.927522
0.907398
0.869975
0.845655
0.812591
0.787218
0.760186
0.737687
0.715541
0.696942
0.679309
0.663576
0.648867
0.635221
0.623662
0.616357
0.615278
0.615796
0.618399
0.627192
0.64041
0.655876
0.670185
0.69037
0.705689
0.728909
0.749144
0.774104
0.797524
0.822388
0.844867
0.867371
0.883724
0.898478
0.9095
0.929475
1.15116
1.83295
0.982485
0.938919
0.918207
0.899377
0.867461
0.842401
0.810962
0.784241
0.757591
0.734616
0.712519
0.694596
0.678318
0.665474
0.655193
0.64783
0.642716
0.64015
0.6414
0.641941
0.641964
0.647494
0.654923
0.666626
0.67863
0.698348
0.714579
0.738505
0.760533
0.787313
0.813105
0.840331
0.86526
0.888665
0.905827
0.918588
0.92966
0.936685
1.77808
2.48101
1.78002
1.23326
1.21846
1.20976
1.19105
1.17975
1.15686
1.13841
1.12144
1.10317
1.08496
1.06978
1.05327
1.03947
1.0261
1.01564
1.00631
0.998852
0.995333
0.993182
0.987119
0.990217
0.988929
0.994771
0.996975
1.00928
1.01365
1.02777
1.03542
1.05255
1.06098
1.08047
1.09005
1.10135
1.1104
1.11852
1.14077
1.75618
2.45233
2.48101
1.78002
1.23326
1.21846
1.20976
1.19105
1.17975
1.15686
1.13841
1.12144
1.10317
1.08496
1.06978
1.05327
1.03947
1.0261
1.01564
1.00631
0.998852
0.995333
0.993182
0.987119
0.990217
0.988929
0.994771
0.996975
1.00928
1.01365
1.02777
1.03542
1.05255
1.06098
1.08047
1.09005
1.10135
1.1104
1.11852
1.14077
1.75618
2.45233
1.83295
0.982485
0.938919
0.918207
0.899377
0.867461
0.842401
0.810962
0.784241
0.757591
0.734616
0.712519
0.694596
0.678318
0.665474
0.655193
0.64783
0.642716
0.64015
0.6414
0.641941
0.641964
0.647494
0.654923
0.666626
0.67863
0.698348
0.714579
0.738505
0.760533
0.787313
0.813105
0.840331
0.86526
0.888665
0.905827
0.918588
0.92966
0.936685
1.77808
1.1512
1.01831
0.973751
0.927522
0.907398
0.869975
0.845655
0.812591
0.787218
0.760186
0.737687
0.715541
0.696942
0.679309
0.663576
0.648867
0.635221
0.623662
0.616357
0.615278
0.615796
0.618399
0.627192
0.64041
0.655876
0.670185
0.69037
0.705689
0.728909
0.749144
0.774104
0.797524
0.822388
0.844867
0.867371
0.883724
0.898478
0.9095
0.929475
1.15116
1.13879
1.02512
0.972778
0.922584
0.899002
0.857592
0.83233
0.799141
0.773914
0.747433
0.725224
0.70405
0.6859
0.669093
0.654209
0.640942
0.62947
0.62048
0.615641
0.616175
0.617096
0.618752
0.625546
0.636761
0.650501
0.664316
0.683251
0.698562
0.721062
0.740897
0.765307
0.788092
0.812907
0.834813
0.858084
0.875036
0.890512
0.900898
0.923032
1.13301
1.13409
1.02405
0.968379
0.91464
0.889455
0.8445
0.817979
0.783492
0.756911
0.729533
0.70621
0.684528
0.665775
0.649002
0.634506
0.622185
0.611968
0.60401
0.599378
0.599497
0.600378
0.602298
0.608778
0.618973
0.631645
0.645216
0.663621
0.679714
0.702706
0.723378
0.74863
0.772193
0.798312
0.820641
0.845329
0.862876
0.879159
0.890323
0.913559
1.12565
1.12236
1.01444
0.956716
0.899737
0.873115
0.825806
0.79761
0.762117
0.734539
0.707107
0.683526
0.661828
0.642792
0.625867
0.611311
0.599108
0.589211
0.581719
0.577527
0.577919
0.579215
0.581572
0.588218
0.598414
0.611256
0.625378
0.644041
0.661123
0.684657
0.705817
0.7314
0.755121
0.781666
0.803883
0.829119
0.846746
0.863447
0.875045
0.897316
1.11539
1.10783
0.997516
0.938729
0.878217
0.850679
0.801495
0.772516
0.735491
0.706148
0.677513
0.653637
0.6318
0.612761
0.595877
0.5814
0.569327
0.559607
0.552345
0.548324
0.54871
0.550026
0.552448
0.559098
0.569283
0.582219
0.596729
0.615418
0.633229
0.657138
0.678733
0.704856
0.728968
0.756358
0.778925
0.80529
0.823425
0.841297
0.853539
0.875462
1.10381
1.09294
0.981448
0.921874
0.857273
0.826912
0.775049
0.743877
0.705724
0.675781
0.647408
0.622958
0.601638
0.582961
0.566122
0.551497
0.539213
0.529239
0.521781
0.517641
0.517998
0.519689
0.522852
0.530323
0.541349
0.555203
0.570786
0.590205
0.609101
0.633611
0.655789
0.682388
0.706733
0.734496
0.757071
0.783914
0.802089
0.820378
0.832231
0.852239
1.09417
1.06633
0.962807
0.902477
0.833499
0.800314
0.745957
0.712595
0.673352
0.642331
0.613493
0.588952
0.56721
0.548684
0.53217
0.517779
0.505645
0.495835
0.488577
0.484597
0.48499
0.486837
0.49029
0.498009
0.509302
0.523547
0.539784
0.559644
0.579399
0.604449
0.627248
0.654476
0.679292
0.70772
0.730717
0.758482
0.777226
0.796856
0.808852
0.826572
1.07598
1.05278
0.947058
0.88341
0.809898
0.773317
0.716057
0.679795
0.639185
0.60686
0.577596
0.553427
0.532467
0.514267
0.498471
0.484027
0.471775
0.461793
0.454418
0.450386
0.450785
0.452994
0.457161
0.465689
0.477867
0.493102
0.510515
0.531379
0.552325
0.578151
0.60175
0.629599
0.654827
0.683623
0.706808
0.734901
0.753787
0.773978
0.785241
0.801084
1.0671
1.03157
0.930546
0.863617
0.78618
0.74568
0.685105
0.645252
0.603079
0.569521
0.539611
0.515384
0.495117
0.477628
0.461716
0.447774
0.435557
0.425583
0.418233
0.414251
0.414693
0.417218
0.421977
0.431141
0.44402
0.460053
0.478481
0.500255
0.522342
0.54898
0.573503
0.60211
0.627977
0.657351
0.681054
0.709735
0.729111
0.750248
0.761094
0.775001
1.05009
1.02193
0.91634
0.845743
0.76492
0.718113
0.654184
0.609756
0.565463
0.530513
0.499968
0.476
0.456983
0.440682
0.425533
0.411669
0.399323
0.388908
0.381193
0.376987
0.377377
0.380329
0.386
0.396292
0.410484
0.427969
0.448039
0.471323
0.495033
0.522848
0.548617
0.578125
0.604777
0.6347
0.659015
0.688143
0.708143
0.730127
0.740673
0.752442
1.04209
1.01327
0.905797
0.832393
0.743373
0.688776
0.622211
0.572716
0.52587
0.489401
0.458302
0.434284
0.416138
0.40102
0.38689
0.373362
0.360897
0.350316
0.342412
0.338128
0.338583
0.342027
0.348615
0.359983
0.375389
0.394188
0.415722
0.440307
0.465495
0.494341
0.521288
0.551607
0.579062
0.609512
0.634531
0.664053
0.684647
0.70722
0.717347
0.728049
1.02769
1.01456
0.901821
0.834242
0.730754
0.654818
0.58622
0.532717
0.484418
0.446581
0.415467
0.391942
0.375209
0.361821
0.348901
0.335732
0.322913
0.311654
0.303076
0.298405
0.298825
0.302884
0.310726
0.323687
0.340943
0.361753
0.385437
0.411975
0.439328
0.469775
0.498467
0.530021
0.558739
0.590034
0.616159
0.646273
0.667783
0.690906
0.70101
0.710367
1.02193
1.00999
0.897823
0.845079
0.724624
0.625267
0.549405
0.489743
0.439678
0.400566
0.369941
0.347329
0.332218
0.320878
0.309641
0.297293
0.284313
0.272321
0.263051
0.257993
0.258464
0.26331
0.272632
0.287414
0.306704
0.329633
0.355452
0.383846
0.413209
0.444988
0.475146
0.507552
0.537197
0.568897
0.595784
0.625995
0.647915
0.670656
0.6802
0.689781
1.00946
0.999045
0.888108
0.856908
0.727975
0.603861
0.511638
0.440565
0.38891
0.350779
0.322667
0.302004
0.28913
0.280214
0.271032
0.259656
0.246406
0.233335
0.222929
0.217211
0.217731
0.223634
0.234901
0.252056
0.273923
0.299449
0.327784
0.358346
0.39003
0.423374
0.455272
0.488766
0.519666
0.552068
0.580125
0.610777
0.633475
0.656072
0.665478
0.676443
1.0061
0.92086
0.838791
0.843838
0.729819
0.593695
0.482181
0.392438
0.332899
0.296424
0.272224
0.255175
0.245478
0.239648
0.233038
0.223007
0.209518
0.195003
0.182954
0.176254
0.176883
0.184282
0.198144
0.218312
0.243253
0.271689
0.302671
0.335459
0.369353
0.404144
0.437621
0.471985
0.503934
0.536752
0.565751
0.596461
0.619484
0.640944
0.648905
0.66276
0.999444
0.635468
0.621617
0.701731
0.670874
0.587497
0.458496
0.342574
0.269439
0.236662
0.21922
0.208452
0.202684
0.200672
0.197008
0.188644
0.174818
0.158198
0.143581
0.135243
0.136057
0.14574
0.163244
0.1873
0.215867
0.24748
0.281176
0.316192
0.352101
0.388263
0.42319
0.458322
0.491238
0.524404
0.554319
0.585053
0.608235
0.628429
0.634579
0.653479
0.99956
0.497263
0.570512
0.531187
0.55533
0.546688
0.45085
0.305389
0.20382
0.169913
0.165219
0.163696
0.163148
0.165235
0.164817
0.158441
0.144119
0.124463
0.105691
0.0943423
0.0955079
0.109059
0.131834
0.160729
0.193259
0.228022
0.264223
0.301198
0.338807
0.376101
0.412207
0.447933
0.481626
0.515002
0.545682
0.576299
0.5995
0.618546
0.621978
0.64538
0.997392
1.27478
1.3976
1.06516
0.743609
0.574532
0.413159
0.259747
0.137951
0.096926
0.113915
0.125608
0.131071
0.136761
0.139583
0.135437
0.120511
0.0969761
0.0716673
0.053891
0.055948
0.0770089
0.107053
0.14112
0.177232
0.214549
0.252637
0.291014
0.329794
0.367838
0.404716
0.440791
0.474962
0.508381
0.539522
0.569894
0.592931
0.611335
0.611922
0.638628
1.0038
)
;

boundaryField
{
    inlet
    {
        type            calculated;
        value           uniform 0;
    }
    outlet
    {
        type            calculated;
        value           nonuniform List<scalar> 
165
(
1.27478
0.497263
0.635468
0.92086
0.999045
1.00999
1.01456
1.01327
1.02193
1.03157
1.05278
1.06633
1.09294
1.10783
1.12236
1.13409
1.13879
1.1512
1.83295
2.48101
2.48101
1.78002
1.23326
1.21846
1.20976
1.19105
1.17975
1.15686
1.13841
1.12144
1.10317
1.08496
1.06978
1.05327
1.03947
1.0261
1.01564
1.00631
0.998852
0.995333
0.993182
0.987119
0.990217
0.988929
0.994771
0.996975
1.00928
1.01365
1.02777
1.03542
1.05255
1.06098
1.08047
1.09005
1.10135
1.1104
1.11852
1.14077
1.75618
2.45233
1.0038
0.997392
0.99956
0.999444
1.0061
1.00946
1.02193
1.02769
1.04209
1.05009
1.0671
1.07598
1.09417
1.10381
1.11539
1.12565
1.13301
1.15116
1.77808
2.45233
0.996788
0.990985
0.990478
0.990985
0.996788
2.45233
1.77808
1.15116
1.13301
1.12565
1.11539
1.10381
1.09417
1.07598
1.0671
1.05009
1.04209
1.02769
1.02193
1.00946
1.0061
0.999444
0.99956
0.997392
1.0038
2.48101
1.78002
1.23326
1.21846
1.20976
1.19105
1.17975
1.15686
1.13841
1.12144
1.10317
1.08496
1.06978
1.05327
1.03947
1.0261
1.01564
1.00631
0.998852
0.995333
0.993182
0.987119
0.990217
0.988929
0.994771
0.996975
1.00928
1.01365
1.02777
1.03542
1.05255
1.06098
1.08047
1.09005
1.10135
1.1104
1.11852
1.14077
1.75618
2.45233
2.48101
1.83295
1.1512
1.13879
1.13409
1.12236
1.10783
1.09294
1.06633
1.05278
1.03157
1.02193
1.01327
1.01456
1.00999
0.999045
0.92086
0.635468
0.497263
1.27478
)
;
    }
    obstacle
    {
        type            calculated;
        value           nonuniform List<scalar> 
40
(
0.801471
0.0751242
0.0701334
0.0696459
0.0748652
0.080484
0.0876441
0.0945948
0.0991714
0.093139
0.801471
0.0751242
0.0701334
0.0696459
0.0748652
0.080484
0.0876441
0.0945948
0.0991714
0.093139
0.100811
0.139521
0.194192
0.279696
0.420785
0.100811
0.139521
0.194192
0.279696
0.420785
0.899121
1.19596
1.14045
1.12419
1.14912
0.899121
1.19596
1.14045
1.12419
1.14912
)
;
    }
    empty
    {
        type            empty;
    }
}


// ************************************************************************* //
