/*--------------------------------*- C++ -*----------------------------------*\
| =========                 |                                                 |
| \\      /  F ield         | OpenFOAM: The Open Source CFD Toolbox           |
|  \\    /   O peration     | Version:  v1912                                 |
|   \\  /    A nd           | Website:  www.openfoam.com                      |
|    \\/     M anipulation  |                                                 |
\*---------------------------------------------------------------------------*/
FoamFile
{
    version     2.0;
    format      ascii;
    class       volVectorField;
    location    "5.6";
    object      U;
}
// * * * * * * * * * * * * * * * * * * * * * * * * * * * * * * * * * * * * * //

dimensions      [0 1 -1 0 0 0 0];


internalField   nonuniform List<vector> 
1900
(
(-0.868848 2.10497e-06 0)
(-0.0720141 7.05751e-06 0)
(0.0677555 -4.9878e-06 0)
(0.0680511 -8.44372e-06 0)
(0.0735808 -2.22891e-05 0)
(0.0793041 -0.000174477 0)
(0.0864311 -0.000475282 0)
(0.0933027 0.000506224 0)
(0.097806 0.00327824 0)
(0.091779 0.0117072 0)
(-0.868849 9.38851e-07 0)
(-0.0720085 5.85462e-06 0)
(0.0677648 -2.75932e-06 0)
(0.0680396 -9.24614e-06 0)
(0.0735243 -5.01721e-05 0)
(0.0790919 -0.00021608 0)
(0.0858019 -0.000470615 0)
(0.092417 0.000130055 0)
(0.0995948 0.00219611 0)
(0.105082 0.0120446 0)
(-0.868849 2.5816e-15 0)
(-0.0720058 -7.85408e-13 0)
(0.0677653 6.25161e-14 0)
(0.0680205 5.07378e-13 0)
(0.0734781 6.67239e-13 0)
(0.0789782 -7.02821e-14 0)
(0.0855695 -1.76353e-13 0)
(0.0922228 -7.71456e-14 0)
(0.100253 -9.07419e-14 0)
(0.112064 -4.58789e-14 0)
(-0.868849 -9.38851e-07 0)
(-0.0720085 -5.85462e-06 0)
(0.0677648 2.75932e-06 0)
(0.0680396 9.24614e-06 0)
(0.0735243 5.01721e-05 0)
(0.0790919 0.00021608 0)
(0.0858019 0.000470615 0)
(0.092417 -0.000130055 0)
(0.0995948 -0.00219611 0)
(0.105082 -0.0120446 0)
(-0.868848 -2.10497e-06 0)
(-0.0720141 -7.05751e-06 0)
(0.0677555 4.9878e-06 0)
(0.0680511 8.44372e-06 0)
(0.0735808 2.22891e-05 0)
(0.0793041 0.000174477 0)
(0.0864311 0.000475282 0)
(0.0933027 -0.000506224 0)
(0.097806 -0.00327824 0)
(0.091779 -0.0117072 0)
(0.0945352 0.037502 0)
(0.131316 0.0504134 0)
(0.179639 0.0749429 0)
(0.253248 0.116957 0)
(0.392744 0.169992 0)
(0.120091 0.0284636 0)
(0.145874 0.0288241 0)
(0.175669 0.0380773 0)
(0.236439 0.0591601 0)
(0.369283 0.101087 0)
(0.131748 -3.65019e-14 0)
(0.156237 -4.70919e-14 0)
(0.187445 1.28453e-14 0)
(0.248046 -3.72726e-14 0)
(0.379727 8.90667e-15 0)
(0.120091 -0.0284636 0)
(0.145874 -0.0288241 0)
(0.175669 -0.0380773 0)
(0.236439 -0.0591601 0)
(0.369283 -0.101087 0)
(0.0945352 -0.037502 0)
(0.131316 -0.0504134 0)
(0.179639 -0.0749429 0)
(0.253248 -0.116957 0)
(0.392744 -0.169992 0)
(0.815069 0.0297849 0)
(1.01704 -0.0557568 0)
(0.963739 -0.0740771 0)
(0.939773 -0.0768486 0)
(0.943905 -0.0666983 0)
(0.791358 -0.0159709 0)
(1.04193 -0.045217 0)
(0.994488 -0.0468228 0)
(0.965751 -0.0447683 0)
(0.966526 -0.0405276 0)
(0.788338 5.79383e-15 0)
(1.04789 6.99192e-15 0)
(0.992149 -9.73579e-15 0)
(0.956371 -5.26725e-16 0)
(0.960168 7.51523e-15 0)
(0.791358 0.0159709 0)
(1.04193 0.045217 0)
(0.994488 0.0468228 0)
(0.965751 0.0447683 0)
(0.966526 0.0405276 0)
(0.815069 -0.0297849 0)
(1.01704 0.0557568 0)
(0.963739 0.0740771 0)
(0.939773 0.0768486 0)
(0.943905 0.0666983 0)
(1.13853 -0.22072 0)
(1.25857 -0.188817 0)
(1.09246 -0.0678958 0)
(0.754555 -0.092176 0)
(0.536892 -0.144923 0)
(0.322129 -0.144812 0)
(0.168934 -0.0891979 0)
(0.0594907 -0.0488268 0)
(-0.0167805 -0.0323399 0)
(-0.0582327 -0.0255486 0)
(-0.0741696 -0.0221831 0)
(-0.080456 -0.0205512 0)
(-0.0850364 -0.0196028 0)
(-0.0877451 -0.0181628 0)
(-0.0851854 -0.017438 0)
(-0.0741088 -0.0171542 0)
(-0.0557082 -0.017068 0)
(-0.0335157 -0.0170157 0)
(-0.00987171 -0.0169691 0)
(0.014257 -0.0169666 0)
(0.0386873 -0.0169201 0)
(0.063565 -0.0168383 0)
(0.0889213 -0.0168063 0)
(0.114683 -0.0167965 0)
(0.140767 -0.0167935 0)
(0.167103 -0.0167892 0)
(0.193463 -0.0168105 0)
(0.220042 -0.0167458 0)
(0.246038 -0.016862 0)
(0.271354 -0.0167209 0)
(0.296076 -0.0169336 0)
(0.319734 -0.0167384 0)
(0.342805 -0.0171779 0)
(0.364761 -0.0165847 0)
(0.385923 -0.0177792 0)
(0.40289 -0.0162058 0)
(0.417237 -0.0183929 0)
(0.420312 -0.0172105 0)
(0.430065 -0.0187912 0)
(0.617866 -0.0195086 0)
(1.13525 -0.0951591 0)
(1.25945 -0.0912604 0)
(1.1591 -0.0317418 0)
(0.80016 -0.0403151 0)
(0.602594 -0.0696687 0)
(0.37898 -0.0734412 0)
(0.191537 -0.0460603 0)
(0.0648656 -0.0251133 0)
(-0.0158887 -0.0161608 0)
(-0.0583629 -0.0126973 0)
(-0.0746163 -0.0110455 0)
(-0.0810213 -0.0102414 0)
(-0.0853628 -0.00981346 0)
(-0.0880459 -0.00903502 0)
(-0.0855126 -0.00869051 0)
(-0.0743957 -0.00856671 0)
(-0.0559407 -0.00853067 0)
(-0.0336845 -0.00850453 0)
(-0.00997476 -0.0084809 0)
(0.014217 -0.0084797 0)
(0.0387069 -0.00845671 0)
(0.0636416 -0.00841618 0)
(0.0890529 -0.00840053 0)
(0.114868 -0.00839596 0)
(0.141004 -0.00839485 0)
(0.16739 -0.00839315 0)
(0.193798 -0.00840415 0)
(0.22042 -0.00837217 0)
(0.246457 -0.00843045 0)
(0.271808 -0.00835959 0)
(0.296563 -0.00846579 0)
(0.320244 -0.00836655 0)
(0.343332 -0.00858626 0)
(0.365294 -0.00828282 0)
(0.386461 -0.00888899 0)
(0.403307 -0.00806935 0)
(0.417782 -0.00915139 0)
(0.420731 -0.00854642 0)
(0.430872 -0.00951178 0)
(0.615446 -0.0100119 0)
(1.1011 -2.20887e-13 0)
(1.25452 1.30064e-13 0)
(1.16473 -1.68999e-12 0)
(0.789017 -4.23745e-12 0)
(0.590461 -5.49499e-12 0)
(0.378397 -3.36477e-12 0)
(0.195958 -3.11292e-13 0)
(0.0672064 3.15561e-12 0)
(-0.0157324 3.38838e-12 0)
(-0.0585479 2.25944e-12 0)
(-0.074762 8.51595e-13 0)
(-0.0811554 1.34117e-12 0)
(-0.0855094 2.56798e-12 0)
(-0.0881716 4.99453e-12 0)
(-0.0856078 7.51129e-12 0)
(-0.0744622 8.46794e-12 0)
(-0.0559916 5.61047e-12 0)
(-0.0337185 -2.58754e-12 0)
(-0.00999136 -1.32393e-11 0)
(0.0142157 -1.23096e-11 0)
(0.0387192 -4.33935e-12 0)
(0.0636667 7.8323e-12 0)
(0.089091 7.69857e-12 0)
(0.11492 -5.10303e-12 0)
(0.141072 -1.87786e-11 0)
(0.167476 -2.14741e-11 0)
(0.193906 -2.17981e-11 0)
(0.220552 -9.43208e-12 0)
(0.246618 -1.06391e-13 0)
(0.272006 -8.67554e-13 0)
(0.296806 1.39487e-11 0)
(0.320546 7.87302e-12 0)
(0.343712 -3.8358e-12 0)
(0.365784 7.31452e-12 0)
(0.387103 1.23226e-11 0)
(0.404134 1.47024e-12 0)
(0.418987 -3.89315e-12 0)
(0.422339 1.05626e-11 0)
(0.43239 1.41173e-11 0)
(0.615575 1.39795e-11 0)
(1.13525 0.0951591 0)
(1.25945 0.0912604 0)
(1.1591 0.0317418 0)
(0.80016 0.0403151 0)
(0.602594 0.0696687 0)
(0.37898 0.0734412 0)
(0.191537 0.0460603 0)
(0.0648656 0.0251133 0)
(-0.0158887 0.0161608 0)
(-0.0583629 0.0126973 0)
(-0.0746163 0.0110455 0)
(-0.0810213 0.0102414 0)
(-0.0853628 0.00981346 0)
(-0.0880459 0.00903502 0)
(-0.0855126 0.00869051 0)
(-0.0743957 0.00856671 0)
(-0.0559407 0.00853067 0)
(-0.0336845 0.00850453 0)
(-0.00997476 0.0084809 0)
(0.014217 0.0084797 0)
(0.0387069 0.00845671 0)
(0.0636416 0.00841618 0)
(0.0890529 0.00840053 0)
(0.114868 0.00839596 0)
(0.141004 0.00839485 0)
(0.16739 0.00839315 0)
(0.193798 0.00840415 0)
(0.22042 0.00837217 0)
(0.246457 0.00843045 0)
(0.271808 0.00835959 0)
(0.296563 0.00846579 0)
(0.320244 0.00836655 0)
(0.343332 0.00858626 0)
(0.365294 0.00828282 0)
(0.386461 0.00888899 0)
(0.403307 0.00806935 0)
(0.417782 0.00915139 0)
(0.420731 0.00854642 0)
(0.430872 0.00951178 0)
(0.615446 0.0100119 0)
(1.13853 0.22072 0)
(1.25857 0.188817 0)
(1.09246 0.0678958 0)
(0.754555 0.092176 0)
(0.536892 0.144923 0)
(0.322129 0.144812 0)
(0.168934 0.0891979 0)
(0.0594907 0.0488268 0)
(-0.0167805 0.0323399 0)
(-0.0582327 0.0255486 0)
(-0.0741696 0.0221831 0)
(-0.080456 0.0205512 0)
(-0.0850364 0.0196028 0)
(-0.0877451 0.0181628 0)
(-0.0851854 0.017438 0)
(-0.0741088 0.0171542 0)
(-0.0557082 0.017068 0)
(-0.0335157 0.0170157 0)
(-0.00987171 0.0169691 0)
(0.014257 0.0169666 0)
(0.0386873 0.0169201 0)
(0.063565 0.0168383 0)
(0.0889213 0.0168063 0)
(0.114683 0.0167965 0)
(0.140767 0.0167935 0)
(0.167103 0.0167892 0)
(0.193463 0.0168105 0)
(0.220042 0.0167458 0)
(0.246038 0.016862 0)
(0.271354 0.0167209 0)
(0.296076 0.0169336 0)
(0.319734 0.0167384 0)
(0.342805 0.0171779 0)
(0.364761 0.0165847 0)
(0.385923 0.0177792 0)
(0.40289 0.0162058 0)
(0.417237 0.0183929 0)
(0.420312 0.0172105 0)
(0.430065 0.0187912 0)
(0.617866 0.0195086 0)
(0.861222 0.372382 0)
(0.94761 0.306167 0)
(0.740626 0.231174 0)
(0.502693 0.24067 0)
(0.341822 0.278608 0)
(0.208615 0.24183 0)
(0.124188 0.15528 0)
(0.0421018 0.0944029 0)
(-0.0253315 0.0663258 0)
(-0.0629019 0.0527615 0)
(-0.0767396 0.0461907 0)
(-0.0821098 0.0428551 0)
(-0.0868057 0.0404306 0)
(-0.0891622 0.0378706 0)
(-0.0858984 0.0363771 0)
(-0.0744371 0.0357245 0)
(-0.0559064 0.0355066 0)
(-0.0336705 0.0353842 0)
(-0.00999375 0.0352832 0)
(0.014177 0.035277 0)
(0.0386572 0.0351803 0)
(0.0635872 0.0350102 0)
(0.0889941 0.034943 0)
(0.114802 0.0349219 0)
(0.140928 0.0349147 0)
(0.167302 0.0349047 0)
(0.193695 0.0349487 0)
(0.220311 0.0348119 0)
(0.246341 0.0350518 0)
(0.2717 0.0347617 0)
(0.296471 0.0351918 0)
(0.320196 0.0347945 0)
(0.343336 0.035668 0)
(0.365389 0.0345043 0)
(0.386607 0.0367857 0)
(0.40399 0.0338366 0)
(0.418202 0.0381413 0)
(0.422434 0.0353784 0)
(0.430566 0.0408434 0)
(0.623381 0.0422965 0)
(0.185397 0.305182 0)
(0.269959 0.301193 0)
(0.167139 0.346403 0)
(0.102529 0.399845 0)
(0.0824998 0.407072 0)
(0.0664471 0.337184 0)
(0.044967 0.226264 0)
(-0.00143655 0.15125 0)
(-0.0497382 0.113402 0)
(-0.0743428 0.0926729 0)
(-0.082555 0.0823408 0)
(-0.0861772 0.0764362 0)
(-0.0905764 0.0718324 0)
(-0.0920512 0.0677732 0)
(-0.0873496 0.0653574 0)
(-0.0749666 0.0642551 0)
(-0.0561446 0.0638247 0)
(-0.033872 0.0635762 0)
(-0.0101931 0.0633855 0)
(0.0140054 0.0633753 0)
(0.0385347 0.0632053 0)
(0.0635202 0.0629023 0)
(0.0889802 0.0627819 0)
(0.114832 0.0627426 0)
(0.140992 0.0627268 0)
(0.167396 0.0627052 0)
(0.193811 0.0627818 0)
(0.220463 0.0625283 0)
(0.246522 0.0629522 0)
(0.271932 0.0624331 0)
(0.296763 0.0631734 0)
(0.320589 0.0624729 0)
(0.343803 0.063953 0)
(0.366004 0.0619973 0)
(0.387222 0.0656832 0)
(0.405304 0.0611662 0)
(0.419349 0.0681118 0)
(0.426079 0.0627405 0)
(0.431188 0.0738371 0)
(0.614386 0.0782492 0)
(-0.292122 0.327141 0)
(-0.211492 0.381274 0)
(-0.211345 0.459128 0)
(-0.149342 0.474747 0)
(-0.0763153 0.434126 0)
(-0.0393884 0.342124 0)
(-0.0301059 0.253356 0)
(-0.0505145 0.191318 0)
(-0.0780336 0.152653 0)
(-0.0882428 0.130053 0)
(-0.0902448 0.117577 0)
(-0.0921986 0.109195 0)
(-0.095511 0.102672 0)
(-0.0956663 0.097389 0)
(-0.0892457 0.0942997 0)
(-0.0756827 0.0928125 0)
(-0.0564305 0.0921446 0)
(-0.0340937 0.0917389 0)
(-0.0104261 0.0914473 0)
(0.0137856 0.0914336 0)
(0.0383548 0.0911935 0)
(0.0633886 0.0907584 0)
(0.0888935 0.0905821 0)
(0.114778 0.0905202 0)
(0.140957 0.0904896 0)
(0.16737 0.0904485 0)
(0.193782 0.0905522 0)
(0.220456 0.0901683 0)
(0.246519 0.0907657 0)
(0.271968 0.0900265 0)
(0.296846 0.0910322 0)
(0.32077 0.0900701 0)
(0.344027 0.0920349 0)
(0.366351 0.0894959 0)
(0.387504 0.0941219 0)
(0.406273 0.0888227 0)
(0.420448 0.0973938 0)
(0.429874 0.0899302 0)
(0.430786 0.105308 0)
(0.612854 0.110022 0)
(-0.524472 0.343597 0)
(-0.418715 0.418192 0)
(-0.367146 0.487169 0)
(-0.251003 0.475174 0)
(-0.159299 0.410381 0)
(-0.112726 0.338602 0)
(-0.0920783 0.273204 0)
(-0.097784 0.221454 0)
(-0.103633 0.186617 0)
(-0.103972 0.164402 0)
(-0.0995798 0.151195 0)
(-0.10018 0.140775 0)
(-0.101668 0.132757 0)
(-0.0999449 0.126628 0)
(-0.0915517 0.1231 0)
(-0.0766595 0.121326 0)
(-0.0568751 0.120443 0)
(-0.0344221 0.119874 0)
(-0.0107415 0.119478 0)
(0.0134986 0.119463 0)
(0.0381192 0.119157 0)
(0.0632103 0.118591 0)
(0.0887672 0.118357 0)
(0.114689 0.118267 0)
(0.140891 0.118215 0)
(0.167314 0.118146 0)
(0.193715 0.118275 0)
(0.220421 0.117746 0)
(0.246488 0.118507 0)
(0.271986 0.117561 0)
(0.296927 0.118782 0)
(0.320972 0.117606 0)
(0.344273 0.119942 0)
(0.36674 0.117008 0)
(0.387804 0.122237 0)
(0.407233 0.116547 0)
(0.421697 0.126028 0)
(0.433372 0.117324 0)
(0.429139 0.136187 0)
(0.608126 0.140562 0)
(-0.580601 0.347317 0)
(-0.476425 0.40888 0)
(-0.405415 0.466916 0)
(-0.283943 0.449541 0)
(-0.211237 0.388462 0)
(-0.168363 0.333614 0)
(-0.142614 0.286355 0)
(-0.138493 0.243837 0)
(-0.127527 0.216434 0)
(-0.120085 0.195893 0)
(-0.111271 0.182468 0)
(-0.109642 0.170926 0)
(-0.108998 0.161917 0)
(-0.104753 0.155402 0)
(-0.094205 0.151657 0)
(-0.0779164 0.149701 0)
(-0.0575376 0.148641 0)
(-0.0349106 0.147919 0)
(-0.011173 0.147427 0)
(0.0131279 0.147419 0)
(0.0378236 0.147052 0)
(0.0629895 0.146357 0)
(0.0886131 0.14606 0)
(0.114585 0.145938 0)
(0.140823 0.145856 0)
(0.167273 0.145747 0)
(0.193705 0.145901 0)
(0.220407 0.145224 0)
(0.246526 0.14612 0)
(0.272111 0.144989 0)
(0.297155 0.146369 0)
(0.321369 0.145032 0)
(0.344761 0.147632 0)
(0.367419 0.144459 0)
(0.388476 0.150033 0)
(0.408474 0.144194 0)
(0.423376 0.153857 0)
(0.437003 0.144909 0)
(0.428416 0.167343 0)
(0.605275 0.172465 0)
(-0.582697 0.351214 0)
(-0.493954 0.396655 0)
(-0.415184 0.442595 0)
(-0.305625 0.425929 0)
(-0.249614 0.377307 0)
(-0.214773 0.333552 0)
(-0.182657 0.30114 0)
(-0.168038 0.266241 0)
(-0.147468 0.244515 0)
(-0.133605 0.226046 0)
(-0.122756 0.212196 0)
(-0.11912 0.200006 0)
(-0.116244 0.190443 0)
(-0.10934 0.183816 0)
(-0.0966827 0.179993 0)
(-0.0791165 0.177909 0)
(-0.058198 0.176693 0)
(-0.035407 0.175826 0)
(-0.0116142 0.175246 0)
(0.0127404 0.17525 0)
(0.0374963 0.174828 0)
(0.0627161 0.174003 0)
(0.0883822 0.173641 0)
(0.114377 0.173483 0)
(0.14062 0.173372 0)
(0.16706 0.17321 0)
(0.193513 0.17339 0)
(0.220122 0.17259 0)
(0.24626 0.173595 0)
(0.271868 0.172322 0)
(0.296938 0.173827 0)
(0.321227 0.172397 0)
(0.344586 0.175198 0)
(0.367296 0.171926 0)
(0.388169 0.177701 0)
(0.408434 0.17186 0)
(0.423259 0.18138 0)
(0.437716 0.172979 0)
(0.425498 0.198237 0)
(0.599074 0.202565 0)
(-0.577272 0.356311 0)
(-0.496857 0.392255 0)
(-0.416135 0.426367 0)
(-0.334335 0.402453 0)
(-0.281447 0.37512 0)
(-0.250515 0.336356 0)
(-0.214468 0.314052 0)
(-0.191677 0.286818 0)
(-0.166697 0.269734 0)
(-0.148763 0.253519 0)
(-0.136533 0.239671 0)
(-0.130672 0.227383 0)
(-0.124782 0.217936 0)
(-0.114861 0.211573 0)
(-0.0999571 0.207844 0)
(-0.0810211 0.205746 0)
(-0.0594438 0.204449 0)
(-0.0363473 0.20345 0)
(-0.0123659 0.202795 0)
(0.0121568 0.202822 0)
(0.0370714 0.202349 0)
(0.0624356 0.201393 0)
(0.0882346 0.200965 0)
(0.114346 0.200771 0)
(0.140697 0.200633 0)
(0.167238 0.20041 0)
(0.193833 0.200615 0)
(0.220496 0.199712 0)
(0.24681 0.200813 0)
(0.272625 0.199435 0)
(0.297936 0.201028 0)
(0.322533 0.199568 0)
(0.346131 0.202514 0)
(0.369159 0.199241 0)
(0.390187 0.205125 0)
(0.410934 0.199392 0)
(0.426067 0.208567 0)
(0.441572 0.201001 0)
(0.426229 0.229204 0)
(0.596722 0.234813 0)
(-0.56619 0.36195 0)
(-0.496646 0.389988 0)
(-0.417209 0.418741 0)
(-0.359368 0.385856 0)
(-0.3075 0.381042 0)
(-0.273361 0.347525 0)
(-0.23528 0.331631 0)
(-0.207503 0.30979 0)
(-0.18056 0.295527 0)
(-0.160676 0.280515 0)
(-0.147604 0.266631 0)
(-0.139671 0.254342 0)
(-0.130832 0.245163 0)
(-0.118274 0.239072 0)
(-0.101632 0.235408 0)
(-0.0817931 0.233216 0)
(-0.059856 0.231767 0)
(-0.0366624 0.230655 0)
(-0.0126815 0.229929 0)
(0.0118183 0.229984 0)
(0.0366917 0.229461 0)
(0.0619951 0.228375 0)
(0.0877214 0.227881 0)
(0.113744 0.227659 0)
(0.13999 0.227509 0)
(0.166415 0.227229 0)
(0.192935 0.22747 0)
(0.219432 0.226497 0)
(0.245684 0.227703 0)
(0.27147 0.226274 0)
(0.29677 0.227942 0)
(0.321416 0.226527 0)
(0.344982 0.229592 0)
(0.36805 0.226436 0)
(0.388941 0.232369 0)
(0.409761 0.226878 0)
(0.424793 0.23536 0)
(0.440633 0.229095 0)
(0.423059 0.25979 0)
(0.589346 0.264477 0)
(-0.561112 0.372235 0)
(-0.499883 0.392487 0)
(-0.425565 0.4189 0)
(-0.376186 0.386987 0)
(-0.325784 0.389992 0)
(-0.290229 0.360485 0)
(-0.252877 0.349253 0)
(-0.223414 0.331266 0)
(-0.19586 0.318931 0)
(-0.175606 0.304607 0)
(-0.161754 0.291166 0)
(-0.151407 0.279557 0)
(-0.139454 0.27117 0)
(-0.124153 0.265576 0)
(-0.105538 0.262222 0)
(-0.0845583 0.260084 0)
(-0.0619651 0.258483 0)
(-0.0383123 0.257248 0)
(-0.0139455 0.256457 0)
(0.0109179 0.256542 0)
(0.0361324 0.255971 0)
(0.0617537 0.254759 0)
(0.0877818 0.254208 0)
(0.11408 0.253976 0)
(0.140575 0.253842 0)
(0.167218 0.253521 0)
(0.19397 0.25382 0)
(0.220624 0.252822 0)
(0.2471 0.254157 0)
(0.27312 0.252735 0)
(0.298656 0.254479 0)
(0.323564 0.253174 0)
(0.347307 0.256348 0)
(0.370582 0.253385 0)
(0.391512 0.259345 0)
(0.412518 0.254173 0)
(0.427523 0.262005 0)
(0.44389 0.257015 0)
(0.423819 0.29027 0)
(0.585499 0.296627 0)
(-0.555299 0.386801 0)
(-0.50346 0.399985 0)
(-0.431993 0.426484 0)
(-0.384493 0.396937 0)
(-0.336666 0.403943 0)
(-0.301303 0.377481 0)
(-0.264828 0.369811 0)
(-0.234897 0.354085 0)
(-0.207422 0.342766 0)
(-0.187294 0.328756 0)
(-0.172148 0.315806 0)
(-0.15905 0.304788 0)
(-0.144189 0.296986 0)
(-0.12679 0.291597 0)
(-0.106795 0.288342 0)
(-0.0850813 0.286023 0)
(-0.0621608 0.284303 0)
(-0.0384396 0.282926 0)
(-0.0141255 0.282053 0)
(0.0106169 0.28216 0)
(0.0356595 0.281539 0)
(0.0610827 0.280203 0)
(0.0869188 0.279613 0)
(0.113036 0.2794 0)
(0.139371 0.279321 0)
(0.16589 0.278993 0)
(0.192544 0.279401 0)
(0.219151 0.278428 0)
(0.245687 0.279942 0)
(0.271834 0.278617 0)
(0.297546 0.280472 0)
(0.322696 0.279376 0)
(0.346635 0.282672 0)
(0.37013 0.280022 0)
(0.391113 0.285992 0)
(0.412195 0.281275 0)
(0.427146 0.288354 0)
(0.443726 0.284788 0)
(0.421896 0.320258 0)
(0.577325 0.325567 0)
(-0.556378 0.405761 0)
(-0.506806 0.41096 0)
(-0.438582 0.436505 0)
(-0.39284 0.410066 0)
(-0.347026 0.419005 0)
(-0.312517 0.394846 0)
(-0.277088 0.389575 0)
(-0.247698 0.374793 0)
(-0.221061 0.363873 0)
(-0.201349 0.350132 0)
(-0.184653 0.338222 0)
(-0.168832 0.328302 0)
(-0.151355 0.321342 0)
(-0.131816 0.31691 0)
(-0.110719 0.313487 0)
(-0.0881519 0.311131 0)
(-0.0646362 0.309294 0)
(-0.0403972 0.307809 0)
(-0.0155846 0.306882 0)
(0.00964823 0.307035 0)
(0.0351593 0.306375 0)
(0.0610185 0.304923 0)
(0.0872536 0.304294 0)
(0.113708 0.304104 0)
(0.140313 0.304079 0)
(0.167046 0.303728 0)
(0.193842 0.304258 0)
(0.22056 0.303289 0)
(0.24724 0.304969 0)
(0.273528 0.30376 0)
(0.29938 0.305711 0)
(0.324683 0.30486 0)
(0.348708 0.308266 0)
(0.372284 0.306022 0)
(0.393168 0.312015 0)
(0.414222 0.307873 0)
(0.42899 0.314369 0)
(0.445753 0.31218 0)
(0.422047 0.349858 0)
(0.572581 0.357859 0)
(-0.550682 0.427076 0)
(-0.507964 0.424746 0)
(-0.442154 0.449663 0)
(-0.397797 0.426805 0)
(-0.354126 0.436485 0)
(-0.320748 0.413832 0)
(-0.286396 0.410007 0)
(-0.257929 0.395531 0)
(-0.23201 0.385016 0)
(-0.211768 0.371938 0)
(-0.193107 0.360953 0)
(-0.174877 0.351795 0)
(-0.154998 0.345716 0)
(-0.134062 0.34115 0)
(-0.111843 0.33783 0)
(-0.0887746 0.335328 0)
(-0.0650316 0.333313 0)
(-0.0407595 0.331649 0)
(-0.0160378 0.33061 0)
(0.00902043 0.33077 0)
(0.0343022 0.330059 0)
(0.059922 0.328501 0)
(0.0859558 0.327872 0)
(0.112253 0.327768 0)
(0.138746 0.327859 0)
(0.165442 0.327549 0)
(0.192189 0.328292 0)
(0.218999 0.327358 0)
(0.245857 0.329261 0)
(0.272393 0.328238 0)
(0.298553 0.330306 0)
(0.324211 0.329739 0)
(0.348579 0.333219 0)
(0.372477 0.331422 0)
(0.393586 0.337353 0)
(0.414848 0.3338 0)
(0.429833 0.339703 0)
(0.446998 0.338801 0)
(0.421718 0.378233 0)
(0.563698 0.385279 0)
(-0.553095 0.451939 0)
(-0.510071 0.441226 0)
(-0.445632 0.464257 0)
(-0.403333 0.443708 0)
(-0.362053 0.453219 0)
(-0.330172 0.431382 0)
(-0.297223 0.428186 0)
(-0.27048 0.413317 0)
(-0.245354 0.403187 0)
(-0.224826 0.390821 0)
(-0.204336 0.381179 0)
(-0.183744 0.373781 0)
(-0.162384 0.368383 0)
(-0.140039 0.364119 0)
(-0.116876 0.360873 0)
(-0.0930021 0.358385 0)
(-0.0685196 0.356328 0)
(-0.0434728 0.354601 0)
(-0.0179028 0.353536 0)
(0.0080566 0.353758 0)
(0.0342341 0.353023 0)
(0.060668 0.351364 0)
(0.0873837 0.350703 0)
(0.114201 0.350627 0)
(0.141059 0.35075 0)
(0.168027 0.350367 0)
(0.194941 0.351274 0)
(0.22188 0.350254 0)
(0.248867 0.352292 0)
(0.275512 0.351396 0)
(0.301775 0.353505 0)
(0.327509 0.353177 0)
(0.351889 0.356629 0)
(0.375692 0.355292 0)
(0.396507 0.361099 0)
(0.417429 0.358172 0)
(0.431902 0.363611 0)
(0.448546 0.364028 0)
(0.421787 0.405536 0)
(0.558641 0.41605 0)
(-0.547445 0.475371 0)
(-0.510329 0.458226 0)
(-0.445769 0.480425 0)
(-0.405494 0.461504 0)
(-0.367065 0.470175 0)
(-0.336996 0.448916 0)
(-0.305225 0.446276 0)
(-0.279507 0.431397 0)
(-0.253837 0.421995 0)
(-0.231385 0.410663 0)
(-0.208638 0.402791 0)
(-0.186326 0.395846 0)
(-0.163304 0.39071 0)
(-0.139833 0.386543 0)
(-0.11593 0.383265 0)
(-0.0917158 0.380614 0)
(-0.0672244 0.378365 0)
(-0.0424922 0.376434 0)
(-0.0175435 0.37523 0)
(0.00755156 0.375443 0)
(0.0327465 0.374656 0)
(0.058275 0.372923 0)
(0.084315 0.372315 0)
(0.110703 0.372393 0)
(0.137337 0.372677 0)
(0.164275 0.372353 0)
(0.191211 0.373571 0)
(0.218366 0.372533 0)
(0.245669 0.374788 0)
(0.272704 0.374085 0)
(0.299452 0.376262 0)
(0.32571 0.376165 0)
(0.350636 0.379502 0)
(0.374876 0.378573 0)
(0.396043 0.384099 0)
(0.417232 0.381668 0)
(0.43208 0.38663 0)
(0.449229 0.387695 0)
(0.422119 0.429957 0)
(0.55177 0.440391 0)
(-0.544384 0.496469 0)
(-0.51358 0.473517 0)
(-0.450101 0.494308 0)
(-0.412163 0.476097 0)
(-0.3759 0.48306 0)
(-0.347491 0.462058 0)
(-0.317275 0.458817 0)
(-0.292406 0.444674 0)
(-0.266722 0.436941 0)
(-0.243424 0.427407 0)
(-0.219987 0.420451 0)
(-0.196495 0.414411 0)
(-0.172472 0.409886 0)
(-0.148205 0.40612 0)
(-0.123614 0.403116 0)
(-0.0987152 0.40067 0)
(-0.0734147 0.398595 0)
(-0.0475981 0.396806 0)
(-0.021147 0.395751 0)
(0.00586546 0.396132 0)
(0.0331627 0.395339 0)
(0.0605607 0.393434 0)
(0.0879792 0.392653 0)
(0.115254 0.392614 0)
(0.142397 0.392804 0)
(0.169617 0.392281 0)
(0.196685 0.393668 0)
(0.223892 0.39236 0)
(0.25125 0.394634 0)
(0.278291 0.393977 0)
(0.305056 0.396088 0)
(0.331264 0.396138 0)
(0.35611 0.399199 0)
(0.380094 0.398692 0)
(0.400943 0.403856 0)
(0.421771 0.401874 0)
(0.436405 0.406257 0)
(0.453093 0.407941 0)
(0.424743 0.450938 0)
(0.548687 0.462358 0)
(-0.547716 0.509932 0)
(-0.513455 0.486126 0)
(-0.45056 0.506897 0)
(-0.41484 0.48892 0)
(-0.379965 0.495029 0)
(-0.351977 0.475601 0)
(-0.322248 0.473037 0)
(-0.297261 0.459708 0)
(-0.27073 0.453239 0)
(-0.246002 0.444529 0)
(-0.220575 0.438695 0)
(-0.195506 0.4332 0)
(-0.170306 0.429041 0)
(-0.145221 0.425279 0)
(-0.12006 0.422053 0)
(-0.0948304 0.419166 0)
(-0.0694831 0.416464 0)
(-0.0440948 0.41394 0)
(-0.0188374 0.412239 0)
(0.00613333 0.412312 0)
(0.0309603 0.41146 0)
(0.0562998 0.409797 0)
(0.0825082 0.409606 0)
(0.109259 0.41031 0)
(0.136236 0.411135 0)
(0.163525 0.410971 0)
(0.190689 0.412927 0)
(0.218193 0.411582 0)
(0.245914 0.414049 0)
(0.273489 0.413522 0)
(0.300917 0.415667 0)
(0.327802 0.415836 0)
(0.353401 0.418567 0)
(0.377977 0.418351 0)
(0.399375 0.423019 0)
(0.420543 0.421314 0)
(0.435549 0.425306 0)
(0.452446 0.427105 0)
(0.424305 0.469621 0)
(0.550933 0.477572 0)
(-0.555512 0.513808 0)
(-0.513522 0.491288 0)
(-0.45317 0.511991 0)
(-0.420601 0.493741 0)
(-0.387947 0.498922 0)
(-0.362079 0.480918 0)
(-0.333698 0.478549 0)
(-0.308944 0.466394 0)
(-0.282143 0.461582 0)
(-0.256879 0.454238 0)
(-0.231375 0.449651 0)
(-0.206363 0.444834 0)
(-0.181324 0.441383 0)
(-0.156391 0.437903 0)
(-0.131163 0.434832 0)
(-0.105511 0.431848 0)
(-0.079169 0.428948 0)
(-0.0520621 0.426401 0)
(-0.0242889 0.425134 0)
(0.00380016 0.4258 0)
(0.0320335 0.424915 0)
(0.0605065 0.42266 0)
(0.0891508 0.422065 0)
(0.117441 0.422841 0)
(0.14509 0.42393 0)
(0.172436 0.423677 0)
(0.199273 0.426003 0)
(0.226101 0.42432 0)
(0.253022 0.426874 0)
(0.279895 0.426223 0)
(0.3067 0.428277 0)
(0.332914 0.428523 0)
(0.358018 0.430783 0)
(0.382001 0.43102 0)
(0.402765 0.435307 0)
(0.423401 0.433964 0)
(0.438249 0.437654 0)
(0.454408 0.43999 0)
(0.424659 0.482385 0)
(0.557727 0.48628 0)
(-0.579231 0.508387 0)
(-0.512374 0.49369 0)
(-0.457521 0.517023 0)
(-0.425555 0.500174 0)
(-0.394618 0.506056 0)
(-0.369732 0.490301 0)
(-0.34085 0.488883 0)
(-0.314536 0.477865 0)
(-0.285939 0.474109 0)
(-0.258482 0.467513 0)
(-0.23088 0.463611 0)
(-0.203937 0.458602 0)
(-0.177013 0.455117 0)
(-0.150562 0.450996 0)
(-0.12427 0.447004 0)
(-0.0984385 0.442437 0)
(-0.0730757 0.437341 0)
(-0.0479374 0.432458 0)
(-0.0224366 0.429233 0)
(0.0036237 0.428821 0)
(0.0299074 0.427845 0)
(0.0562162 0.426619 0)
(0.0825725 0.428096 0)
(0.109107 0.431238 0)
(0.136034 0.434546 0)
(0.163886 0.43539 0)
(0.191731 0.439184 0)
(0.219991 0.437706 0)
(0.248357 0.440913 0)
(0.276695 0.440511 0)
(0.304957 0.442808 0)
(0.332688 0.443184 0)
(0.359265 0.444948 0)
(0.384157 0.445586 0)
(0.405763 0.449068 0)
(0.426544 0.447769 0)
(0.441879 0.450851 0)
(0.45878 0.453549 0)
(0.428695 0.492675 0)
(0.579975 0.490118 0)
(-1.07699 0.168414 0)
(-0.509523 0.438133 0)
(-0.49987 0.436368 0)
(-0.4776 0.435283 0)
(-0.449903 0.443304 0)
(-0.42478 0.433441 0)
(-0.394347 0.435888 0)
(-0.364696 0.430763 0)
(-0.333091 0.431014 0)
(-0.301875 0.429764 0)
(-0.270733 0.430263 0)
(-0.239859 0.429748 0)
(-0.20914 0.430823 0)
(-0.17867 0.431274 0)
(-0.148243 0.432436 0)
(-0.117961 0.433521 0)
(-0.0878674 0.434707 0)
(-0.0583544 0.435466 0)
(-0.0290194 0.436163 0)
(0.000377664 0.437673 0)
(0.0297314 0.43669 0)
(0.0602967 0.433216 0)
(0.0914994 0.431438 0)
(0.122616 0.429048 0)
(0.154511 0.427357 0)
(0.186136 0.423877 0)
(0.218039 0.424099 0)
(0.249458 0.419812 0)
(0.281043 0.419858 0)
(0.312121 0.416993 0)
(0.343277 0.416674 0)
(0.373322 0.415167 0)
(0.402444 0.414882 0)
(0.428716 0.414845 0)
(0.451469 0.41698 0)
(0.471696 0.415619 0)
(0.486316 0.416844 0)
(0.501469 0.419201 0)
(0.459502 0.448309 0)
(1.04475 0.177639 0)
(-1.01938 1.02664 0)
(-0.215438 1.04568 0)
(-0.478147 0.658235 0)
(-0.46892 0.644674 0)
(-0.446434 0.646847 0)
(-0.424934 0.641255 0)
(-0.396112 0.646899 0)
(-0.365278 0.644583 0)
(-0.333703 0.645957 0)
(-0.302491 0.647162 0)
(-0.271487 0.646335 0)
(-0.240865 0.644335 0)
(-0.210456 0.643215 0)
(-0.180414 0.639933 0)
(-0.150435 0.637307 0)
(-0.120701 0.633812 0)
(-0.0908406 0.631126 0)
(-0.0614209 0.627999 0)
(-0.0317001 0.625013 0)
(-0.00139941 0.62332 0)
(0.0293221 0.620884 0)
(0.0604463 0.614354 0)
(0.0932168 0.612083 0)
(0.124452 0.606013 0)
(0.157433 0.602677 0)
(0.188117 0.596199 0)
(0.221404 0.594084 0)
(0.25175 0.586084 0)
(0.284928 0.582118 0)
(0.314917 0.573643 0)
(0.34867 0.568549 0)
(0.377425 0.558668 0)
(0.410676 0.553111 0)
(0.436985 0.544525 0)
(0.460523 0.539923 0)
(0.477784 0.539671 0)
(0.487689 0.54608 0)
(0.49839 0.564231 0)
(0.189788 1.02966 0)
(1.00703 1.0113 0)
(-1.01938 -1.02664 0)
(-0.215438 -1.04568 0)
(-0.478147 -0.658235 0)
(-0.46892 -0.644674 0)
(-0.446434 -0.646847 0)
(-0.424934 -0.641255 0)
(-0.396112 -0.646899 0)
(-0.365278 -0.644583 0)
(-0.333703 -0.645957 0)
(-0.302491 -0.647162 0)
(-0.271487 -0.646335 0)
(-0.240865 -0.644335 0)
(-0.210456 -0.643215 0)
(-0.180414 -0.639933 0)
(-0.150435 -0.637307 0)
(-0.120701 -0.633812 0)
(-0.0908406 -0.631126 0)
(-0.0614209 -0.627999 0)
(-0.0317001 -0.625013 0)
(-0.00139941 -0.62332 0)
(0.0293221 -0.620884 0)
(0.0604463 -0.614354 0)
(0.0932168 -0.612083 0)
(0.124452 -0.606013 0)
(0.157433 -0.602677 0)
(0.188117 -0.596199 0)
(0.221404 -0.594084 0)
(0.25175 -0.586084 0)
(0.284928 -0.582118 0)
(0.314917 -0.573643 0)
(0.34867 -0.568549 0)
(0.377425 -0.558668 0)
(0.410676 -0.553111 0)
(0.436985 -0.544525 0)
(0.460523 -0.539923 0)
(0.477784 -0.539671 0)
(0.487689 -0.54608 0)
(0.49839 -0.564231 0)
(0.189788 -1.02966 0)
(1.00703 -1.0113 0)
(-1.07699 -0.168414 0)
(-0.509523 -0.438133 0)
(-0.49987 -0.436368 0)
(-0.4776 -0.435283 0)
(-0.449903 -0.443304 0)
(-0.42478 -0.433441 0)
(-0.394347 -0.435888 0)
(-0.364696 -0.430763 0)
(-0.333091 -0.431014 0)
(-0.301875 -0.429764 0)
(-0.270733 -0.430263 0)
(-0.239859 -0.429748 0)
(-0.20914 -0.430823 0)
(-0.17867 -0.431274 0)
(-0.148243 -0.432436 0)
(-0.117961 -0.433521 0)
(-0.0878674 -0.434707 0)
(-0.0583544 -0.435466 0)
(-0.0290194 -0.436163 0)
(0.000377664 -0.437673 0)
(0.0297314 -0.43669 0)
(0.0602967 -0.433216 0)
(0.0914994 -0.431438 0)
(0.122616 -0.429048 0)
(0.154511 -0.427357 0)
(0.186136 -0.423877 0)
(0.218039 -0.424099 0)
(0.249458 -0.419812 0)
(0.281043 -0.419858 0)
(0.312121 -0.416993 0)
(0.343277 -0.416674 0)
(0.373322 -0.415167 0)
(0.402444 -0.414882 0)
(0.428716 -0.414845 0)
(0.451469 -0.41698 0)
(0.471696 -0.415619 0)
(0.486316 -0.416844 0)
(0.501469 -0.419201 0)
(0.459502 -0.448309 0)
(1.04475 -0.177639 0)
(-0.579231 -0.508387 0)
(-0.512374 -0.49369 0)
(-0.457521 -0.517023 0)
(-0.425555 -0.500174 0)
(-0.394618 -0.506056 0)
(-0.369732 -0.490301 0)
(-0.34085 -0.488883 0)
(-0.314536 -0.477865 0)
(-0.285939 -0.474109 0)
(-0.258482 -0.467513 0)
(-0.23088 -0.463611 0)
(-0.203937 -0.458602 0)
(-0.177013 -0.455117 0)
(-0.150562 -0.450996 0)
(-0.12427 -0.447004 0)
(-0.0984385 -0.442437 0)
(-0.0730757 -0.437341 0)
(-0.0479374 -0.432458 0)
(-0.0224366 -0.429233 0)
(0.0036237 -0.428821 0)
(0.0299074 -0.427845 0)
(0.0562162 -0.426619 0)
(0.0825725 -0.428096 0)
(0.109107 -0.431238 0)
(0.136034 -0.434546 0)
(0.163886 -0.43539 0)
(0.191731 -0.439184 0)
(0.219991 -0.437706 0)
(0.248357 -0.440913 0)
(0.276695 -0.440511 0)
(0.304957 -0.442808 0)
(0.332688 -0.443184 0)
(0.359265 -0.444948 0)
(0.384157 -0.445586 0)
(0.405763 -0.449068 0)
(0.426544 -0.447769 0)
(0.441879 -0.450851 0)
(0.45878 -0.453549 0)
(0.428695 -0.492675 0)
(0.579975 -0.490118 0)
(-0.555512 -0.513808 0)
(-0.513522 -0.491288 0)
(-0.45317 -0.511991 0)
(-0.420601 -0.493741 0)
(-0.387947 -0.498922 0)
(-0.362079 -0.480918 0)
(-0.333698 -0.478549 0)
(-0.308944 -0.466394 0)
(-0.282143 -0.461582 0)
(-0.256879 -0.454238 0)
(-0.231375 -0.449651 0)
(-0.206363 -0.444834 0)
(-0.181324 -0.441383 0)
(-0.156391 -0.437903 0)
(-0.131163 -0.434832 0)
(-0.105511 -0.431848 0)
(-0.079169 -0.428948 0)
(-0.0520621 -0.426401 0)
(-0.0242889 -0.425134 0)
(0.00380016 -0.4258 0)
(0.0320335 -0.424915 0)
(0.0605065 -0.42266 0)
(0.0891508 -0.422065 0)
(0.117441 -0.422841 0)
(0.14509 -0.42393 0)
(0.172436 -0.423677 0)
(0.199273 -0.426003 0)
(0.226101 -0.42432 0)
(0.253022 -0.426874 0)
(0.279895 -0.426223 0)
(0.3067 -0.428277 0)
(0.332914 -0.428523 0)
(0.358018 -0.430783 0)
(0.382001 -0.43102 0)
(0.402765 -0.435307 0)
(0.423401 -0.433964 0)