/*--------------------------------*- C++ -*----------------------------------*\
| =========                 |                                                 |
| \\      /  F ield         | OpenFOAM: The Open Source CFD Toolbox           |
|  \\    /   O peration     | Version:  v1912                                 |
|   \\  /    A nd           | Website:  www.openfoam.com                      |
|    \\/     M anipulation  |                                                 |
\*---------------------------------------------------------------------------*/
FoamFile
{
    version     2.0;
    format      ascii;
    class       volScalarField;
    location    "2.3";
    object      p;
}
// * * * * * * * * * * * * * * * * * * * * * * * * * * * * * * * * * * * * * //

dimensions      [0 2 -2 0 0 0 0];


internalField   nonuniform List<scalar> 
10000
(
7.54592e-06
0.000108858
-0.000113839
-0.000703475
-0.00160956
-0.00277568
-0.00414461
-0.00566146
-0.00727645
-0.00894555
-0.0106301
-0.0122964
-0.0139151
-0.0154608
-0.0169114
-0.0182479
-0.0194542
-0.0205163
-0.0214227
-0.0221638
-0.0227318
-0.0231204
-0.023325
-0.0233422
-0.0231699
-0.022807
-0.0222538
-0.0215112
-0.0205812
-0.0194666
-0.0181708
-0.0166983
-0.0150538
-0.0132428
-0.0112716
-0.0091468
-0.00687545
-0.00446522
-0.00192414
0.000739332
0.00351636
0.00639773
0.00937393
0.0124351
0.0155712
0.0187718
0.0220264
0.0253241
0.0286539
0.0320048
0.0353655
0.0387245
0.0420705
0.0453921
0.0486778
0.0519161
0.0550957
0.0582053
0.0612338
0.0641703
0.0670041
0.0697248
0.0723223
0.0747869
0.0771093
0.0792807
0.0812927
0.0831378
0.0848089
0.0862996
0.0876044
0.0887185
0.0896382
0.0903604
0.0908833
0.0912064
0.0913299
0.0912556
0.0909866
0.0905273
0.0898839
0.0890639
0.0880769
0.0869342
0.0856492
0.0842376
0.0827175
0.0811094
0.0794372
0.0777277
0.0760114
0.0743228
0.072701
0.0711897
0.0698378
0.0686982
0.0678248
0.0672693
0.067074
0.0671852
-8.26259e-05
1.44522e-05
-0.000202846
-0.000729785
-0.0015152
-0.00251952
-0.00370082
-0.00501571
-0.00642294
-0.00788467
-0.00936672
-0.0108386
-0.0122731
-0.0136465
-0.0149378
-0.0161289
-0.017204
-0.0181495
-0.018954
-0.0196079
-0.0201032
-0.0204336
-0.0205942
-0.0205812
-0.0203922
-0.0200259
-0.0194821
-0.0187612
-0.0178649
-0.0167955
-0.015556
-0.0141503
-0.0125827
-0.0108584
-0.008983
-0.00696257
-0.00480382
-0.00251384
-0.0001002
0.00242917
0.00506596
0.00780147
0.0106267
0.0135324
0.0165089
0.0195464
0.0226349
0.0257642
0.0289238
0.0321031
0.0352915
0.0384783
0.0416525
0.0448033
0.0479199
0.0509914
0.0540071
0.0569565
0.0598289
0.0626141
0.065302
0.067883
0.0703474
0.0726863
0.074891
0.0769532
0.0788653
0.0806203
0.0822116
0.0836335
0.0848809
0.0859497
0.0868365
0.0875389
0.0880554
0.0883858
0.0885309
0.0884925
0.0882742
0.0878805
0.0873175
0.0865931
0.0857165
0.084699
0.0835536
0.0822954
0.0809418
0.0795125
0.0780297
0.0765186
0.075007
0.0735263
0.0721106
0.0707977
0.0696277
0.0686423
0.0678809
0.0673795
0.0671846
0.0672963
0.000141802
0.000233005
1.57667e-05
-0.000478943
-0.00119578
-0.00210177
-0.00316295
-0.00434317
-0.00560735
-0.0069226
-0.0082586
-0.00958775
-0.0108852
-0.0121289
-0.0132991
-0.0143786
-0.0153523
-0.0162071
-0.016932
-0.0175173
-0.0179553
-0.0182396
-0.0183651
-0.0183281
-0.0181259
-0.0177569
-0.0172207
-0.0165174
-0.0156484
-0.0146157
-0.0134219
-0.0120706
-0.0105657
-0.00891198
-0.00711464
-0.00517943
-0.00311261
-0.0009209
0.00138858
0.00380829
0.00633035
0.00894651
0.0116482
0.0144266
0.0172725
0.0201766
0.0231292
0.0261207
0.029141
0.0321801
0.0352278
0.0382737
0.0413076
0.044319
0.0472976
0.0502332
0.0531154
0.0559342
0.0586796
0.0613418
0.0639113
0.0663787
0.0687352
0.0709722
0.0730815
0.0750554
0.0768868
0.0785689
0.0800958
0.0814622
0.0826634
0.0836957
0.084556
0.0852424
0.0857536
0.0860897
0.0862516
0.0862415
0.0860629
0.0857205
0.0852205
0.0845704
0.0837795
0.0828586
0.0818203
0.0806791
0.0794515
0.0781561
0.0768139
0.0754479
0.0740838
0.0727498
0.0714762
0.0702958
0.0692428
0.068352
0.0676553
0.0671832
0.0669891
0.067102
0.000730637
0.000761028
0.000511509
1.59493e-05
-0.000674472
-0.00152988
-0.00252065
-0.0036156
-0.00478429
-0.00599785
-0.00722934
-0.00845392
-0.00964897
-0.0107941
-0.0118711
-0.0128637
-0.0137576
-0.0145406
-0.0152018
-0.0157321
-0.0161239
-0.0163709
-0.016468
-0.0164116
-0.0161988
-0.015828
-0.0152984
-0.0146103
-0.0137645
-0.0127629
-0.0116079
-0.0103027
-0.00885106
-0.00725731
-0.00552638
-0.00366369
-0.00167514
0.000432887
0.00265362
0.00497988
0.00740413
0.00991852
0.0125149
0.0151847
0.0179192
0.0207095
0.0235464
0.0264204
0.029322
0.0322417
0.0351695
0.0380956
0.0410101
0.0439031
0.0467646
0.0495847
0.0523537
0.0550619
0.0576997
0.0602578
0.062727
0.0650986
0.067364
0.0695151
0.071544
0.0734436
0.075207
0.076828
0.0783008
0.0796206
0.080783
0.0817846
0.0826226
0.0832953
0.0838017
0.0841419
0.0843171
0.0843295
0.0841827
0.0838814
0.0834314
0.0828404
0.0821171
0.081272
0.0803172
0.0792664
0.0781352
0.0769411
0.0757033
0.0744434
0.0731847
0.0719525
0.0707739
0.0696777
0.0686938
0.0678523
0.0671815
0.0667093
0.0664871
0.0665488
0.0016371
0.00154931
0.00123064
0.000705596
1.26533e-05
-0.00082155
-0.00177098
-0.00280882
-0.00390876
-0.00504561
-0.00619557
-0.00733647
-0.00844793
-0.00951136
-0.01051
-0.0114288
-0.0122545
-0.0129753
-0.0135813
-0.0140636
-0.0144149
-0.0146292
-0.0147015
-0.0146281
-0.0144064
-0.0140345
-0.0135117
-0.0128379
-0.012014
-0.0110414
-0.0099226
-0.00866035
-0.00725822
-0.00572029
-0.00405117
-0.00225599
-0.000340335
0.00168975
0.00382781
0.00606701
0.00840014
0.0108197
0.0133179
0.0158865
0.0185173
0.0212016
0.0239306
0.0266953
0.0294865
0.0322949
0.0351113
0.037926
0.0407296
0.0435125
0.0462653
0.0489783
0.0516423
0.0542479
0.0567861
0.0592478
0.0616244
0.0639074
0.0660887
0.0681604
0.0701153
0.0719463
0.0736471
0.0752117
0.0766347
0.0779116
0.0790382
0.0800114
0.0808286
0.0814883
0.0819897
0.0823329
0.0825194
0.0825513
0.082432
0.0821662
0.0817598
0.0812198
0.0805547
0.0797746
0.0788907
0.0779162
0.0768655
0.0757548
0.074602
0.0734267
0.0722499
0.0710944
0.0699844
0.0689448
0.0680019
0.0671817
0.0665093
0.06601
0.0657242
0.0656781
0.00280802
0.00256083
0.00214241
0.00156219
0.000841011
2.11931e-06
-0.000931603
-0.00193735
-0.00299258
-0.00407542
-0.00516502
-0.00624177
-0.00728743
-0.00828524
-0.00921992
-0.0100777
-0.0108463
-0.0115149
-0.012074
-0.0125154
-0.0128321
-0.0130184
-0.0130696
-0.0129821
-0.0127531
-0.0123811
-0.011865
-0.0112049
-0.0104015
-0.00945608
-0.00837078
-0.00714831
-0.00579196
-0.0043056
-0.00269359
-0.000960783
0.000887523
0.00284559
0.00490726
0.00706601
0.00931495
0.0116469
0.0140543
0.0165295
0.0190645
0.0216509
0.0242802
0.026944
0.0296333
0.0323392
0.0350527
0.0377648
0.0404662
0.0431478
0.0458005
0.048415
0.0509825
0.053494
0.0559407
0.0583141
0.0606057
0.0628076
0.0649119
0.0669111
0.0687982
0.0705666
0.0722102
0.0737233
0.0751009
0.0763385
0.0774323
0.0783793
0.0791773
0.0798246
0.0803207
0.0806659
0.0808615
0.0809096
0.0808136
0.080578
0.0802082
0.0797113
0.0790951
0.0783692
0.0775441
0.0766321
0.0756466
0.0746025
0.0735162
0.0724053
0.071289
0.0701875
0.069122
0.0681144
0.0671874
0.0663634
0.0656646
0.0651134
0.064734
0.0645387
0.00419035
0.00375701
0.00321565
0.00255863
0.00178693
0.000920559
-2.03139e-05
-0.00101654
-0.00204897
-0.00309878
-0.00414782
-0.00517886
-0.00617574
-0.00712345
-0.00800825
-0.00881763
-0.00954035
-0.0101664
-0.0106871
-0.0110947
-0.0113829
-0.0115461
-0.01158
-0.0114811
-0.0112468
-0.0108756
-0.0103665
-0.00971946
-0.00893513
-0.00801476
-0.0069603
-0.0057743
-0.00445986
-0.00302064
-0.0014608
0.000215038
0.00200183
0.00389411
0.00588602
0.0079713
0.0101434
0.0123953
0.01472
0.0171099
0.0195573
0.0220543
0.0245929
0.0271646
0.029761
0.0323735
0.0349934
0.037612
0.0402205
0.04281
0.0453717
0.0478969
0.0503769
0.052803
0.0551669
0.0574602
0.0596751
0.0618036
0.0638383
0.0657721
0.0675981
0.0693101
0.0709021
0.0723688
0.0737053
0.0749074
0.0759716
0.0768948
0.077675
0.0783106
0.0788013
0.0791473
0.0793497
0.0794108
0.0793337
0.0791227
0.078783
0.0783211
0.0777446
0.0770622
0.0762839
0.075421
0.0744858
0.073492
0.0724545
0.0713892
0.0703133
0.0692445
0.0682015
0.0672036
0.0662701
0.0654199
0.0646729
0.0640486
0.0635525
0.0631807
0.00573409
0.00509836
0.00441749
0.00366661
0.00282622
0.00191347
0.000946222
-5.96829e-05
-0.00108819
-0.00212321
-0.00314908
-0.00415077
-0.00511408
-0.00602571
-0.00687338
-0.00764585
-0.00833294
-0.00892558
-0.00941572
-0.0097964
-0.0100616
-0.0102064
-0.0102266
-0.010119
-0.00988132
-0.00951191
-0.00900998
-0.00837549
-0.00760901
-0.00671179
-0.00568566
-0.00453302
-0.00325683
-0.00186059
-0.000348253
0.00127576
0.00300661
0.00483906
0.0067675
0.00878597
0.0108881
0.0130674
0.0153168
0.0176292
0.0199972
0.0224131
0.0248691
0.0273573
0.0298695
0.0323973
0.0349325
0.0374665
0.0399908
0.042497
0.0449766
0.0474211
0.0498221
0.0521712
0.0544605
0.0566819
0.0588276
0.0608902
0.0628625
0.0647375
0.0665088
0.0681702
0.069716
0.0711411
0.0724408
0.073611
0.0746484
0.07555
0.0763139
0.0769386
0.0774236
0.0777691
0.0779764
0.0780475
0.0779852
0.0777937
0.0774778
0.0770436
0.0764981
0.0758495
0.0751069
0.0742808
0.0733825
0.0724243
0.0714198
0.0703833
0.0693298
0.0682753
0.067236
0.0662285
0.0652692
0.0643742
0.063561
0.0628467
0.0622171
0.061652
0.00739472
0.00654784
0.00571635
0.00485873
0.0039353
0.00296082
0.00195127
0.000919531
-0.000121115
-0.00115705
-0.00217487
-0.00316159
-0.00410481
-0.00499288
-0.0058149
-0.00656089
-0.00722173
-0.00778923
-0.00825614
-0.0086161
-0.0088637
-0.00899435
-0.00900432
-0.00889068
-0.00865126
-0.00828464
-0.00779011
-0.00716766
-0.00641789
-0.00554203
-0.00454183
-0.00341963
-0.00217825
-0.000821024
0.000648242
0.0022253
0.0039055
0.00568381
0.00755484
0.00951286
0.0115518
0.0136653
0.0158467
0.0180891
0.0203852
0.0227279
0.0251095
0.0275223
0.0299585
0.0324101
0.0348688
0.0373267
0.0397754
0.0422067
0.0446125
0.0469846
0.0493147
0.051595
0.0538175
0.0559746
0.0580586
0.0600624
0.061979
0.0638018
0.0655243
0.0671407
0.0686454
0.0700335
0.0713004
0.0724422
0.0734556
0.0743378
0.0750867
0.0757011
0.0761802
0.0765245
0.0767347
0.0768129
0.0767617
0.076585
0.0762871
0.0758738
0.0753515
0.0747277
0.0740109
0.0732105
0.0723369
0.0714013
0.0704157
0.0693931
0.0683466
0.0672903
0.0662384
0.065205
0.064204
0.0632488
0.0623551
0.0615376
0.0607632
0.0599952
0.00913356
0.0080719
0.00708288
0.00610917
0.00509162
0.00404314
0.00297821
0.00190713
0.000840727
-0.000209613
-0.00123251
-0.00221685
-0.00315192
-0.00402757
-0.00483427
-0.00556319
-0.00620628
-0.00675625
-0.00720659
-0.00755163
-0.00778648
-0.00790704
-0.00790996
-0.00779263
-0.00755312
-0.0071902
-0.00670328
-0.00609241
-0.00535825
-0.00450202
-0.00352547
-0.00243088
-0.00122097
0.000101039
0.00153149
0.00306628
0.00470093
0.00643058
0.00825003
0.0101537
0.0121359
0.0141904
0.0163107
0.0184903
0.0207221
0.0229991
0.025314
0.0276594
0.0300276
0.0324108
0.0348014
0.0371913
0.0395725
0.0419372
0.0442773
0.0465849
0.0488522
0.0510713
0.0532347
0.0553348
0.0573643
0.0593161
0.0611836
0.0629602
0.0646398
0.0662166
0.0676852
0.0690407
0.0702788
0.0713955
0.0723877
0.0732525
0.0739879
0.0745927
0.075066
0.075408
0.0756195
0.0757023
0.0756589
0.0754925
0.0752075
0.0748088
0.0743025
0.0736955
0.0729954
0.0722108
0.071351
0.0704262
0.0694472
0.0684253
0.0673724
0.0663005
0.0652219
0.0641489
0.063093
0.062065
0.0610794
0.0601493
0.0592227
0.0582477
0.0109172
0.00964056
0.00849021
0.0073939
0.00627391
0.00514176
0.00401086
0.00288927
0.00178564
0.000709406
-0.00032988
-0.0013228
-0.00226019
-0.0031333
-0.00393385
-0.00465416
-0.00528716
-0.00582645
-0.0062663
-0.00660168
-0.00682826
-0.00694242
-0.00694122
-0.00682237
-0.00658425
-0.00622581
-0.00574663
-0.00514686
-0.00442721
-0.00358895
-0.00263383
-0.00156409
-0.000382417
0.000908062
0.00230381
0.00380087
0.0053949
0.00708118
0.00885469
0.0107101
0.0126417
0.0146436
0.0167097
0.0188334
0.021008
0.0232268
0.0254825
0.027768
0.030076
0.0323988
0.034729
0.0370589
0.0393806
0.0416865
0.0439688
0.0462197
0.0484317
0.0505972
0.0527088
0.054759
0.0567409
0.0586475
0.0604722
0.0622087
0.063851
0.0653934
0.0668307
0.0681581
0.0693712
0.0704662
0.0714398
0.0722893
0.0730127
0.0736086
0.0740761
0.0744153
0.0746267
0.0747119
0.0746731
0.0745133
0.0742363
0.0738468
0.0733501
0.0727525
0.0720609
0.0712831
0.0704275
0.0695032
0.0685198
0.0674873
0.066416
0.0653166
0.0641996
0.0630755
0.0619536
0.0608429
0.0597569
0.0587073
0.0576242
0.0564414
0.0127169
0.0112272
0.00991398
0.00869077
0.00746224
0.00623897
0.00503363
0.00385237
0.00270196
0.00159012
0.000524776
-0.000486185
-0.00143501
-0.00231423
-0.00311676
-0.00383595
-0.00446571
-0.00500048
-0.00543528
-0.00576574
-0.0059881
-0.00609919
-0.0060965
-0.0059781
-0.00574264
-0.00538933
-0.00491793
-0.00432871
-0.00362247
-0.00280052
-0.00186464
-0.000817068
0.000339525
0.00160208
0.00296713
0.00443085
0.00598903
0.00763709
0.00937014
0.011183
0.0130701
0.0150258
0.0170441
0.0191187
0.0212432
0.0234108
0.0256147
0.0278478
0.030103
0.0323731
0.0346506
0.036928
0.0391979
0.0414526
0.0436847
0.0458866
0.0480508
0.0501699
0.0522368
0.0542442
0.0561851
0.058053
0.0598411
0.0615434
0.0631539
0.0646671
0.0660778
0.0673812
0.0685731
0.0696496
0.0706074
0.0714439
0.0721568
0.0727447
0.0732067
0.0735425
0.0737527
0.0738384
0.0738016
0.0736449
0.0733718
0.0729863
0.0724935
0.0718988
0.0712086
0.0704297
0.0695698
0.0686368
0.0676393
0.0665862
0.0654866
0.0643495
0.0631841
0.0619992
0.0608026
0.0596013
0.0584084
0.0572345
0.055993
0.0546039
0.0145077
0.0128083
0.0113322
0.00997949
0.00863813
0.00731808
0.00603161
0.00478325
0.00357817
0.00242258
0.00132297
0.000285865
-0.000682271
-0.00157514
-0.00238675
-0.00311144
-0.00374401
-0.00427972
-0.00471432
-0.00504408
-0.00526579
-0.00537678
-0.00537494
-0.00525868
-0.00502698
-0.00467928
-0.00421557
-0.00363627
-0.00294228
-0.00213498
-0.00121618
-0.00018814
0.000946479
0.00218464
0.00352294
0.00495762
0.0064846
0.00809942
0.00979732
0.0115732
0.0134218
0.0153375
0.0173144
0.0193465
0.0214275
0.0235509
0.02571
0.027898
0.0301078
0.0323324
0.0345646
0.0367972
0.0390227
0.0412338
0.043423
0.0455832
0.0477068
0.0497867
0.0518158
0.0537871
0.0556937
0.0575291
0.0592867
0.0609605
0.0625447
0.0640337
0.0654224
0.0667062
0.0678806
0.0689419
0.0698868
0.0707124
0.0714165
0.0719975
0.0724543
0.0727866
0.0729946
0.0730793
0.0730422
0.0728857
0.0726128
0.0722271
0.071733
0.0711355
0.0704402
0.0696532
0.0687814
0.0678318
0.066812
0.0657297
0.0645929
0.0634096
0.0621874
0.0609338
0.0596553
0.0583574
0.0570528
0.0557517
0.0543513
0.0527586
0.0162681
0.0143631
0.0127251
0.0112415
0.00978441
0.00836341
0.00699062
0.00566922
0.00440299
0.00319687
0.00205608
0.000985937
-8.25245e-06
-0.00092128
-0.00174814
-0.0024841
-0.00312479
-0.00366624
-0.0041049
-0.00443765
-0.00466185
-0.00477532
-0.00477633
-0.00466367
-0.00443659
-0.00409484
-0.00363859
-0.00306846
-0.00238548
-0.00159112
-0.000687235
0.000323894
0.0014396
0.00265684
0.00397225
0.00538214
0.00688247
0.00846893
0.0101369
0.0118813
0.0136971
0.0155788
0.0175205
0.0195166
0.0215607
0.0236467
0.0257679
0.0279178
0.0300894
0.0322758
0.03447
0.0366649
0.0388533
0.0410279
0.0431817
0.0453072
0.0473973
0.049445
0.0514432
0.053385
0.0552637
0.0570727
0.0588058
0.0604568
0.06202
0.0634898
0.0648612
0.0661294
0.0672902
0.0683397
0.0692744
0.0700914
0.0707885
0.0713638
0.0718162
0.072145
0.0723503
0.0724327
0.0723935
0.0722347
0.0719588
0.071569
0.0710693
0.0704639
0.069758
0.0689569
0.0680667
0.0670935
0.0660442
0.0649253
0.063744
0.062507
0.0612211
0.0598925
0.0585264
0.0571272
0.0557074
0.0542773
0.0527185
0.0509259
0.0179793
0.015873
0.0140748
0.01246
0.0108853
0.00936028
0.00789719
0.00649803
0.00516542
0.00390317
0.00271544
0.00160644
0.000580459
-0.00035828
-0.00120569
-0.0019579
-0.00261132
-0.00316268
-0.0036091
-0.00394805
-0.00417744
-0.00429556
-0.0043011
-0.0041932
-0.00397141
-0.00363574
-0.00318658
-0.00262476
-0.00195146
-0.00116825
-0.000277072
0.00071977
0.00181959
0.00301936
0.0043157
0.00570496
0.00718316
0.00874606
0.0103891
0.0121075
0.0138961
0.0157496
0.0176623
0.0196286
0.0216424
0.0236975
0.0257876
0.0279062
0.0300465
0.0322018
0.0343651
0.0365295
0.0386879
0.0408333
0.0429585
0.0450565
0.0471201
0.0491423
0.0511162
0.053035
0.0548921
0.056681
0.0583954
0.0600292
0.0615766
0.0630322
0.0643909
0.0656479
0.0667989
0.0678398
0.0687673
0.0695783
0.0702703
0.0708414
0.0712901
0.0716158
0.071818
0.0718973
0.0718545
0.0716913
0.0714098
0.0710128
0.0705037
0.0698862
0.0691648
0.0683443
0.06743
0.0664273
0.0653422
0.0641806
0.0629485
0.0616518
0.0602963
0.0588874
0.0574291
0.055925
0.0543877
0.0528276
0.0511117
0.049123
0.0196246
0.0173216
0.0153654
0.0136194
0.011926
0.010295
0.00873858
0.00725799
0.00585479
0.00453186
0.00329239
0.00213967
0.00107706
0.0001079
-0.000764574
-0.00153728
-0.00220735
-0.0027722
-0.00322954
-0.00357743
-0.00381428
-0.00393884
-0.00395025
-0.00384798
-0.00363189
-0.00330225
-0.00285967
-0.00230517
-0.00164011
-0.000866185
1.45662e-05
0.000999783
0.00208676
0.00327246
0.00455351
0.00592627
0.00738679
0.00893088
0.0105541
0.0122516
0.0140186
0.0158497
0.0177394
0.019682
0.0216718
0.0237026
0.0257682
0.0278622
0.029978
0.0321091
0.0342485
0.0363894
0.0385248
0.0406479
0.0427516
0.0448288
0.0468727
0.0488762
0.0508325
0.0527348
0.0545765
0.0563512
0.0580526
0.0596748
0.0612118
0.0626582
0.0640088
0.0652588
0.0664038
0.0674398
0.0683631
0.0691706
0.0698596
0.0704281
0.0708744
0.0711974
0.0713967
0.0714723
0.071425
0.0712558
0.0709666
0.0705597
0.0700379
0.0694046
0.0686637
0.0678193
0.066876
0.0658388
0.0647127
0.063503
0.0622148
0.0608533
0.0594234
0.0579299
0.0563759
0.0547641
0.0531077
0.0514172
0.0495458
0.047365
0.0211895
0.0186941
0.0165821
0.0147057
0.0128931
0.0111546
0.00950273
0.00793787
0.00646075
0.00507345
0.00377833
0.00257787
0.0014746
0.000471061
-0.000430266
-0.00122704
-0.00191707
-0.0024984
-0.00296932
-0.00332841
-0.00357458
-0.00370704
-0.00372532
-0.00362926
-0.00341903
-0.00309515
-0.00265845
-0.00211016
-0.00145179
-0.000685194
0.000187479
0.00116379
0.00224099
0.00341603
0.00468555
0.00604589
0.00749314
0.00902312
0.0106314
0.0123134
0.0140641
0.0158784
0.0177509
0.0196761
0.0216481
0.0236609
0.0257085
0.0277846
0.0298827
0.0319962
0.0341185
0.0362428
0.0383622
0.0404699
0.0425588
0.0446222
0.046653
0.0486444
0.0505895
0.0524817
0.0543143
0.0560808
0.0577751
0.0593911
0.0609229
0.0623651
0.0637123
0.0649598
0.0661028
0.0671373
0.0680596
0.0688664
0.0695548
0.0701225
0.0705676
0.070889
0.0710857
0.0711576
0.071105
0.0709287
0.0706301
0.0702111
0.0696742
0.0690221
0.0682581
0.0673861
0.0664098
0.0653337
0.0641622
0.0628998
0.0615511
0.0601205
0.0586125
0.0570308
0.0553783
0.0536569
0.0518802
0.0500594
0.0480341
0.0456649
0.0226608
0.0199771
0.0177117
0.0157057
0.013774
0.0119271
0.0101782
0.0085269
0.00697327
0.00551867
0.00416475
0.00291325
0.00176599
0.000724811
-0.000208515
-0.00103231
-0.00174502
-0.00234529
-0.00283196
-0.0032041
-0.00346107
-0.00360251
-0.00362834
-0.00353878
-0.00333431
-0.00301569
-0.00258401
-0.00204065
-0.00138732
-0.000625998
0.000241029
0.00121122
0.00228177
0.0034496
0.00471133
0.00606333
0.00750167
0.00902221
0.0106205
0.012292
0.0140319
0.0158351
0.0176962
0.0196098
0.0215701
0.0235713
0.0256073
0.027672
0.0297589
0.0318617
0.0339736
0.0360881
0.0381982
0.0402973
0.0423783
0.0444344
0.0464589
0.0484447
0.0503851
0.0522735
0.054103
0.0558674
0.0575604
0.0591758
0.0607077
0.0621507
0.0634993
0.0647485
0.0658937
0.0669305
0.0678551
0.0686641
0.0693544
0.0699234
0.0703691
0.0706899
0.0708848
0.0709532
0.070895
0.0707109
0.0704018
0.0699692
0.069415
0.0687416
0.0679519
0.067049
0.0660364
0.0649178
0.0636971
0.0623784
0.0609655
0.0594624
0.0578728
0.0562003
0.0544469
0.0526143
0.0507168
0.0487658
0.0465883
0.0440342
0.0240267
0.0211585
0.0187419
0.0166075
0.0145569
0.0126012
0.0107541
0.00901476
0.00738262
0.00585842
0.00444319
0.00313802
0.00194409
0.000862598
-0.000105293
-0.000958514
-0.00169611
-0.00231728
-0.00282138
-0.00320797
-0.00347683
-0.00362801
-0.0036618
-0.00357875
-0.00337967
-0.0030656
-0.00263785
-0.002098
-0.00144791
-0.000689719
0.000174176
0.00114111
0.0022082
0.0033723
0.00463003
0.00597775
0.00741153
0.00892725
0.0105205
0.0121867
0.0139211
0.0157186
0.017574
0.0194819
0.0214366
0.0234324
0.0254632
0.0275229
0.0296052
0.0317038
0.033812
0.0359234
0.038031
0.0401281
0.0422079
0.0442636
0.0462882
0.048275
0.0502171
0.0521079
0.0539406
0.0557089
0.0574063
0.0590267
0.0605641
0.062013
0.0633677
0.0646233
0.0657748
0.0668178
0.0677483
0.0685626
0.0692575
0.0698302
0.0702783
0.0706001
0.0707942
0.0708597
0.0707962
0.070604
0.0702836
0.0698361
0.0692632
0.0685666
0.0677489
0.0668127
0.065761
0.064597
0.0633241
0.0619458
0.0604657
0.0588871
0.0572135
0.0554478
0.0535918
0.0516468
0.0496279
0.0475472
0.0452189
0.0424829
0.0252764
0.0222271
0.0196615
0.0173997
0.0152306
0.013166
0.01122
0.00939152
0.00767935
0.00608378
0.00460528
0.00324437
0.00200165
0.000877737
-0.000126756
-0.00101131
-0.00177552
-0.00241909
-0.00294189
-0.00334392
-0.00362539
-0.00378672
-0.00382856
-0.00375177
-0.00355748
-0.00324702
-0.00282192
-0.00228397
-0.00163519
-0.000877858
-1.44949e-05
0.000952124
0.00201901
0.00318294
0.00444049
0.00578801
0.00722159
0.00873708
0.0103301
0.0119961
0.0137303
0.0155277
0.0173831
0.0192911
0.0212463
0.0232428
0.0252746
0.0273357
0.0294199
0.0315208
0.033632
0.0357468
0.0378585
0.0399604
0.0420457
0.0441074
0.0461389
0.0481331
0.0500833
0.0519828
0.0538249
0.0556031
0.0573108
0.0589418
0.0604902
0.0619501
0.063316
0.0645825
0.0657447
0.066798
0.0677381
0.0685611
0.0692636
0.0698425
0.0702953
0.0706198
0.0708145
0.070878
0.0708098
0.0706096
0.0702776
0.0698147
0.0692219
0.0685009
0.0676535
0.0666819
0.0655889
0.0643771
0.0630495
0.0616092
0.0600593
0.0584029
0.056643
0.0547823
0.0528223
0.050764
0.0486232
0.0464131
0.0439355
0.0410199
0.0264
0.0231726
0.02046
0.0180718
0.0157849
0.0136113
0.0115661
0.00964758
0.00785428
0.00618601
0.00464274
0.0032245
0.00193136
0.000763417
-0.000279236
-0.00119658
-0.00198868
-0.00265575
-0.0031981
-0.00361619
-0.00391063
-0.0040822
-0.00413188
-0.00406086
-0.00387053
-0.0035625
-0.00313857
-0.00260072
-0.00195115
-0.00119228
-0.000326749
0.000642562
0.00171256
0.00287993
0.0041412
0.00549266
0.0069304
0.00845028
0.0100479
0.0117188
0.0134581
0.0152608
0.0171219
0.0190359
0.0209974
0.0230007
0.0250398
0.0271087
0.0292012
0.031311
0.0334316
0.0355564
0.0376789
0.0397922
0.0418896
0.0439641
0.0460088
0.048017
0.0499818
0.0518964
0.053754
0.055548
0.0572719
0.0589194
0.0604843
0.0619605
0.0633426
0.0646249
0.0658023
0.0668701
0.0678236
0.0686589
0.0693723
0.0699603
0.0704202
0.0707496
0.0709465
0.0710095
0.0709374
0.0707298
0.0703865
0.0699079
0.0692947
0.0685482
0.0676699
0.0666616
0.0655255
0.0642641
0.0628798
0.0613755
0.0597538
0.0580177
0.0561697
0.0542125
0.0521472
0.0499748
0.0477119
0.0453726
0.0427466
0.0396535
0.0273881
0.0239853
0.0211273
0.0186139
0.0162096
0.0139273
0.0117826
0.00977363
0.00789843
0.00615648
0.00454735
0.00307061
0.00172585
0.0005127
-0.00056923
-0.00152038
-0.00234127
-0.00303254
-0.00359494
-0.00402935
-0.00433677
-0.00451834
-0.00457538
-0.00450935
-0.00432192
-0.00401497
-0.00359052
-0.00305079
-0.00239816
-0.00163521
-0.000764688
0.000210416
0.00128691
0.00246141
0.00373033
0.00508993
0.00653625
0.00806516
0.00967229
0.0113531
0.0131027
0.0149163
0.0167887
0.0187145
0.0206883
0.0227044
0.024757
0.0268399
0.0289471
0.0310722
0.0332088
0.0353503
0.0374901
0.0396215
0.0417375
0.0438313
0.045896
0.0479247
0.0499105
0.0518465
0.0537259
0.0555419
0.0572881
0.0589578
0.0605447
0.0620428
0.0634462
0.0647493
0.0659466
0.0670333
0.0680045
0.0688559
0.0695836
0.0701839
0.0706537
0.0709904
0.0711917
0.0712557
0.0711811
0.070967
0.070613
0.0701189
0.0694853
0.0687129
0.0678029
0.0667568
0.0655765
0.064264
0.0628215
0.0612516
0.0595565
0.057739
0.0558015
0.0537465
0.0515749
0.0492877
0.0469024
0.0444339
0.0416602
0.038391
0.0282322
0.024656
0.0216541
0.0190164
0.0164953
0.0141045
0.0118603
0.00976059
0.00780299
0.00598671
0.00431095
0.00277488
0.00137768
0.000118535
-0.0010034
-0.00198899
-0.00283917
-0.003555
-0.00413761
-0.00458827
-0.00490837
-0.00509941
-0.00516301
-0.00510094
-0.00491513
-0.00460767
-0.00418084
-0.00363708
-0.00297896
-0.00220921
-0.00133074
-0.000346636
0.000739833
0.00192519
0.00320577
0.00457775
0.00603713
0.00757974
0.00920122
0.010897
0.0126623
0.0144922
0.0163815
0.0183249
0.0203169
0.0223519
0.024424
0.0265273
0.0286556
0.0308025
0.0329616
0.0351264
0.0372901
0.0394461
0.0415874
0.0437072
0.0457985
0.0478542
0.0498675
0.0518313
0.0537388
0.0555831
0.0573575
0.0590553
0.0606702
0.0621957
0.0636258
0.0649548
0.066177
0.0672872
0.0682804
0.069152
0.0698977
0.0705138
0.0709967
0.0713435
0.0715515
0.0716187
0.0715433
0.071324
0.0709601
0.0704513
0.0697975
0.0689992
0.0680573
0.0669729
0.0657476
0.064383
0.0628812
0.0612443
0.0594747
0.0575745
0.0555462
0.0533923
0.0511135
0.0487108
0.0462027
0.043605
0.0406839
0.0372394
0.0289237
0.0251759
0.0220313
0.0192701
0.0166328
0.0141338
0.0117902
0.00959954
0.00755928
0.00566826
0.0039254
0.00232949
0.000879354
-0.000426246
-0.00158855
-0.00260886
-0.00348849
-0.00422888
-0.00483154
-0.0052981
-0.00563029
-0.00582997
-0.00589907
-0.00583966
-0.00565392
-0.00534418
-0.00491293
-0.00436281
-0.00369659
-0.0029172
-0.00202768
-0.00103123
6.8787e-05
0.00126881
0.00256511
0.00395377
0.00543074
0.0069918
0.00863255
0.0103484
0.0121347
0.0139863
0.0158981
0.0178649
0.0198811
0.021941
0.0240389
0.0261688
0.0283245
0.0304997
0.0326878
0.0348824
0.0370767
0.0392639
0.0414372
0.0435896
0.0457141
0.0478035
0.0498508
0.051849
0.053791
0.0556699
0.0574787
0.0592108
0.0608594
0.0624181
0.0638805
0.0652408
0.0664929
0.0676315
0.0686513
0.0695474
0.0703153
0.0709509
0.0714503
0.0718103
0.0720278
0.0721005
0.0720264
0.0718037
0.0714314
0.0709088
0.0702355
0.0694118
0.0684381
0.0673152
0.0660445
0.0646273
0.0630654
0.0613607
0.0595154
0.0575316
0.0554116
0.0531577
0.0507708
0.0482519
0.0456204
0.0428932
0.0398247
0.0362052
0.0294546
0.0255366
0.0222503
0.0193661
0.0166131
0.0140061
0.0115632
0.00928172
0.00715869
0.00519276
0.00338257
0.00172659
0.00022329
-0.00112892
-0.00233168
-0.00338665
-0.00429556
-0.0050602
-0.00568244
-0.00616424
-0.00650766
-0.00671488
-0.00678816
-0.00672986
-0.00654241
-0.00622839
-0.00579047
-0.0052315
-0.00455445
-0.0037624
-0.00285857
-0.00184629
-0.00072904
0.000489558
0.0018057
0.00321541
0.00471455
0.00629883
0.00796383
0.00970495
0.0115174
0.0133962
0.0153363
0.0173322
0.0193785
0.0214695
0.0235994
0.0257621
0.0279515
0.0301614
0.0323851
0.0346161
0.0368476
0.0390729
0.0412848
0.0434765
0.0456408
0.0477705
0.0498586
0.0518977
0.0538808
0.0558006
0.0576503
0.0594227
0.0611112
0.0627089
0.0642095
0.0656065
0.066894
0.0680662
0.0691174
0.0700427
0.0708371
0.0714962
0.0720159
0.0723925
0.0726227
0.0727038
0.0726333
0.0724093
0.0720304
0.0714955
0.0708039
0.0699555
0.0689505
0.0677894
0.0664732
0.0650031
0.0633807
0.0616077
0.0596859
0.0576176
0.055405
0.0530503
0.0505545
0.0479186
0.0451631
0.0423057
0.0390895
0.0352947
0.029817
0.0257297
0.0223023
0.0192958
0.0164273
0.0137128
0.0111708
0.00879842
0.00659265
0.00455184
0.00267431
0.00095826
-0.000598165
-0.00199688
-0.00323988
-0.00432919
-0.00526691
-0.00605519
-0.00669624
-0.00719233
-0.00754586
-0.00775929
-0.00783518
-0.00777619
-0.00758502
-0.00726447
-0.00681745
-0.00624696
-0.00555616
-0.00474831
-0.00382678
-0.00279507
-0.00165675
-0.000415553
0.000924649
0.00235982
0.00388577
0.00549813
0.00719241
0.00896397
0.010808
0.0127196
0.0146935
0.0167244
0.0188067
0.0209348
0.0231028
0.0253047
0.0275343
0.0297853
0.0320512
0.0343252
0.0366007
0.0388706
0.0411279
0.0433656
0.0455766
0.0477534
0.0498889
0.0519756
0.0540064
0.0559738
0.0578708
0.05969
0.0614246
0.0630675
0.0646121
0.0660518
0.0673802
0.0685913
0.0696792
0.0706385
0.0714641
0.0721511
0.0726952
0.0730922
0.0733385
0.0734311
0.0733672
0.0731444
0.072761
0.0722156
0.0715072
0.0706354
0.0695999
0.0684012
0.0670399
0.065517
0.0638339
0.0619921
0.0599935
0.0578401
0.0555341
0.0530779
0.0504723
0.0477185
0.0448381
0.0418498
0.0384849
0.034514
0.0300031
0.025747
0.0221791
0.0190505
0.016067
0.013245
0.010604
0.00814099
0.00585263
0.00373707
0.00179239
1.64957e-05
-0.00159278
-0.00303765
-0.00432043
-0.00544349
-0.00640929
-0.00722031
-0.00787911
-0.00838829
-0.00875053
-0.00896858
-0.00904529
-0.00898358
-0.00878644
-0.00845692
-0.00799812
-0.00741327
-0.00670565
-0.0058787
-0.00493596
-0.00388105
-0.00271771
-0.00144977
-8.11787e-05
0.00138397
0.00294141
0.00458674
0.00631539
0.00812266
0.0100037
0.0119535
0.013967
0.0160387
0.018163
0.0203343
0.0225467
0.0247941
0.0270704
0.029369
0.0316836
0.0340073
0.0363333
0.0386547
0.0409643
0.0432549
0.0455193
0.0477501
0.0499398
0.052081
0.0541662
0.056188
0.0581389
0.0600115
0.0617986
0.063493
0.0650878
0.0665762
0.0679513
0.069207
0.0703371
0.0713358
0.0721975
0.0729171
0.0734899
0.0739115
0.0741779
0.0742856
0.0742314
0.0740127
0.0736274
0.0730738
0.0723505
0.0714567
0.0703921
0.0691567
0.067751
0.0661757
0.064432
0.0625213
0.0604455
0.0582065
0.0558064
0.0532478
0.0505316
0.0476589
0.0446526
0.0415324
0.0380177
0.0338693
0.0300051
0.0255804
0.0218721
0.0186216
0.0155232
0.012594
0.00985424
0.00730078
0.00493005
0.00274002
0.000728522
-0.00110681
-0.00276844
-0.00425888
-0.00558075
-0.00673675
-0.00772963
-0.00856225
-0.00923749
-0.00975826
-0.0101275
-0.0103484
-0.0104239
-0.0103572
-0.0101517
-0.00981049
-0.00933706
-0.00873476
-0.00800708
-0.00715759
-0.00618997
-0.00510801
-0.00391556
-0.0026166
-0.00121517
0.000284567
0.00187829
0.00356154
0.00532969
0.00717798
0.00910151
0.0110952
0.013154
0.0152723
0.0174447
0.0196653
0.0219284
0.0242277
0.026557
0.0289098
0.0312797
0.0336598
0.0360432
0.0384229
0.0407917
0.0431421
0.0454669
0.0477586
0.0500095
0.0522121
0.0543587
0.0564416
0.0584533
0.060386
0.0622323
0.0639849
0.0656363
0.0671795
0.0686077
0.0699139
0.0710919
0.0721354
0.0730386
0.0737959
0.0744023
0.074853
0.0751437
0.0752703
0.0752295
0.0750182