/*--------------------------------*- C++ -*----------------------------------*\
| =========                 |                                                 |
| \\      /  F ield         | OpenFOAM: The Open Source CFD Toolbox           |
|  \\    /   O peration     | Version:  v1912                                 |
|   \\  /    A nd           | Website:  www.openfoam.com                      |
|    \\/     M anipulation  |                                                 |
\*---------------------------------------------------------------------------*/
FoamFile
{
    version     2.0;
    format      ascii;
    class       volScalarField;
    location    "3.38";
    object      p;
}
// * * * * * * * * * * * * * * * * * * * * * * * * * * * * * * * * * * * * * //

dimensions      [1 -1 -2 0 0 0 0];


internalField   nonuniform List<scalar> 
1900
(
22413.7
12321
11430.6
11533.1
11591.3
11632.1
11655.3
11660.8
11630.4
11604.3
22413.7
12321.1
11430.9
11533.3
11591.7
11631.6
11651.3
11643.2
11571.3
11483.9
22413.8
12321.2
11431
11533
11590.6
11629.5
11648.6
11640.7
11578
11491.4
22413.7
12321.1
11430.9
11533.3
11591.7
11631.6
11651.3
11643.2
11571.3
11483.9
22413.7
12321
11430.6
11533.1
11591.3
11632.1
11655.3
11660.8
11630.4
11604.3
11370.2
11301
11109.5
10603.7
8927.77
11361.4
11267.7
11011.5
10668.2
9682.58
11379.1
11265.3
10998.1
10567.9
9513.25
11361.4
11267.7
11011.5
10668.2
9682.58
11370.2
11301
11109.5
10603.7
8927.77
11182
10434.7
10348
10211.7
9845.08
11024.4
10431.6
10386.7
10247.6
9651.06
11010.5
10442.5
10369
10188.9
9429.53
11024.4
10431.6
10386.7
10247.6
9651.06
11182
10434.7
10348
10211.7
9845.08
7905.9
3537.93
3806.7
3969.26
3741.59
3520.49
3375.96
3360.61
3381.42
3416.99
3473.22
3534.07
3590.71
3635.64
3667.14
3687.01
3697.98
3703.21
3705.18
3702.27
3696.87
3689.36
3676.02
3655.5
3624.8
3579.51
3516.27
3433.48
3333.45
3222.32
3107.69
2995.67
2889.15
2792.51
2708.62
2649.82
2603.63
2572.54
2754.13
15358
8056.99
3782.11
3967.88
4016.55
3766.27
3528.28
3378.7
3361.59
3383.21
3418.03
3474.11
3534.79
3591.36
3636.24
3667.7
3687.54
3698.48
3703.7
3705.65
3702.74
3697.34
3689.82
3676.47
3655.95
3625.25
3579.97
3516.73
3433.95
3333.94
3222.82
3108.2
2996.17
2889.63
2792.94
2708.97
2650.39
2604.09
2573.49
2758.26
15398.5
7790.16
4150
4086.79
4052.25
3779.65
3532.76
3380.59
3362.67
3384.1
3418.81
3474.71
3535.25
3591.74
3636.57
3667.98
3687.78
3698.71
3703.91
3705.86
3702.94
3697.54
3690.02
3676.67
3656.15
3625.47
3580.21
3517
3434.27
3334.31
3223.27
3108.74
2996.82
2890.39
2793.85
2710.04
2651.79
2605.76
2575.63
2762.11
15649.9
8056.99
3782.11
3967.88
4016.55
3766.27
3528.28
3378.7
3361.59
3383.21
3418.03
3474.11
3534.79
3591.36
3636.24
3667.7
3687.54
3698.48
3703.7
3705.65
3702.74
3697.34
3689.82
3676.47
3655.95
3625.25
3579.97
3516.73
3433.95
3333.94
3222.82
3108.2
2996.17
2889.63
2792.94
2708.97
2650.39
2604.09
2573.49
2758.26
15398.5
7905.9
3537.93
3806.7
3969.26
3741.59
3520.49
3375.96
3360.61
3381.42
3416.99
3473.22
3534.07
3590.71
3635.64
3667.14
3687.01
3697.98
3703.21
3705.18
3702.27
3696.87
3689.36
3676.02
3655.5
3624.8
3579.51
3516.27
3433.48
3333.45
3222.32
3107.69
2995.67
2889.15
2792.51
2708.62
2649.82
2603.63
2572.54
2754.13
15358
8667.09
3015.41
3558.03
3760.18
3635.94
3478.05
3359.84
3349.36
3370.6
3409.76
3467.02
3528.78
3585.88
3631.17
3663
3683.17
3694.39
3699.8
3701.87
3699.02
3693.66
3686.15
3672.78
3652.2
3621.41
3576
3512.62
3429.69
3329.51
3218.25
3103.51
2991.51
2885.08
2788.74
2705.22
2645.76
2599.89
2567.45
2734
15424.8
9313.76
2656.46
3276.97
3429.87
3435.6
3368.89
3314.59
3316.38
3344.21
3389.67
3450.55
3514.47
3572.8
3619.1
3651.85
3672.82
3684.69
3690.55
3692.89
3690.19
3684.93
3677.44
3664
3643.26
3612.22
3566.49
3502.68
3419.29
3318.61
3206.82
3091.66
2979.44
2873.16
2777.15
2694.22
2633.67
2587.1
2552.75
2681.4
15019.7
9917.32
2568.33
3060.84
3203.34
3262.66
3252.35
3247.96
3266.6
3305.35
3359.34
3423.89
3490.86
3550.98
3598.86
3632.99
3655.21
3668.03
3674.58
3677.31
3674.84
3669.71
3662.24
3648.68
3627.69
3596.3
3550.04
3485.7
3401.63
3300.26
3187.87
3072.2
2959.85
2854.07
2758.73
2676.53
2614.57
2567.02
2531.61
2605.73
14538
10846.5
2492.75
2890.91
3023
3107.1
3140.89
3167.93
3205.48
3254.06
3316.04
3385.38
3455.87
3518.57
3568.69
3604.94
3628.82
3643
3650.48
3653.75
3651.59
3646.65
3639.18
3625.44
3604.09
3572.13
3525.28
3459.88
3375.09
3272.65
3159.21
3043.07
2930.58
2825.43
2730.56
2648.67
2584.68
2535.27
2498.68
2504.99
13827.7
10210.2
2401.11
2728.22
2872.87
2967.73
3028.91
3076.72
3129.84
3188.56
3257.64
3331.81
3406.12
3471.91
3525.44
3564.04
3590.39
3606.2
3614.91
3618.86
3617.09
3612.37
3604.88
3590.88
3568.97
3536.42
3488.2
3422.4
3335.48
3232.3
3117.66
3000.73
2887.96
2784.09
2689.3
2607.33
2540.21
2488.94
2450.53
2386.69
13007.6
9956.89
2309.67
2585.16
2730.66
2832.01
2909.54
2972.74
3037.93
3105.38
3180.26
3258.9
3336.97
3407.56
3463.77
3506.66
3535.32
3553.42
3563.58
3568.35
3567.08
3562.6
3555
3540.62
3518.1
3484.28
3435.71
3366.82
3280.42
3174.28
3057.98
2941.31
2827.73
2724.59
2628.76
2546.12
2473.85
2418.95
2377.4
2256.68
12073.4
9684.04
2215.24
2456.49
2595.07
2703.65
2786.18
2857.85
2930.85
3003.54
3081.91
3164.08
3246.39
3319.98
3382.35
3427.72
3460.34
3480.62
3492.55
3498.25
3497.58
3493.34
3485.53
3470.69
3447.23
3412.68
3361.37
3293.41
3202.15
3096.51
2978.1
2860.53
2747.14
2645.62
2549.25
2464.83
2390.08
2329.27
2287.36
2137.92
11132.6
9191.6
2115.02
2327.82
2449.07
2557.93
2646.86
2726.37
2805.03
2881.23
2961.99
3046.82
3132.16
3212.17
3277.53
3328.63
3364.14
3387.2
3400.96
3407.69
3407.67
3403.61
3395.53
3380.16
3355.79
3319.6
3267.76
3195.74
3105.03
2995.6
2875.79
2759.49
2645.76
2545.04
2449.46
2364.03
2287.05
2221.76
2177.74
2029.83
10157.7
8660.91
2015.75
2208.63
2315.97
2422.54
2514.17
2597.88
2677.08
2752.74
2832.26
2917.55
3004.99
3087.85
3158.12
3212.77
3251.77
3277.4
3292.92
3300.73
3301.39
3297.46
3289.1
3273.16
3247.88
3210.49
3156.87
3084.22
2991.02
2882.32
2763.19
2648.6
2538.13
2440.48
2347.71
2263.16
2185.72
2119.12
2073.6
1935.27
9244.9
8079.96
1919.55
2094.55
2190.91
2291.98
2382
2466.64
2544.12
2618.44
2696.96
2781.72
2871.17
2956.96
3031.73
3089.64
3131.85
3159.57
3176.73
3185.47
3186.74
3182.96
3174.41
3158.06
3132.01
3093.91
3038.96
2965.94
2871.11
2763.56
2645.57
2535.17
2427.87
2333.77
2244.06
2161.23
2083.63
2016.7
1971.08
1843.06
8358.44
7496.91
1830.26
1993.73
2082.91
2177.69
2265.83
2349.74
2424.88
2497.13
2572.85
2657.27
2745.97
2833.69
2909.57
2969.44
3013.14
3042.33
3060.63
3070.08
3071.87
3068.28
3059.69
3043.2
3016.97
2978.7
2924.32
2851.63
2758.88
2652.88
2538.76
2431.79
2329.05
2238.53
2152.18
2071.13
1993.49
1926.35
1880.35
1761.58
7548.03
6912.71
1750.81
1901.73
1986.47
2072.91
2158.58
2238.87
2310.86
2380.98
2454.56
2538.01
2626.97
2716.24
2794.11
2856.22
2901.1
2931.21
2950.11
2959.94
2962.07
2958.74
2950.33
2934.06
2908.16
2870.23
2816.35
2744.03
2651.6
2548.13
2436.53
2333.88
2235.46
2148.36
2064.74
1985.27
1907.43
1840.13
1794.36
1684.07
6777.35
6352.12
1676.49
1815.98
1895.94
1978.03
2061.51
2138.1
2207.94
2276.73
2349.56
2432.5
2521.71
2612.03
2691.02
2753.27
2798.08
2828.15
2847.04
2856.9
2859.21
2856.17
2848.18
2832.52
2807.51
2770.79
2718.21
2648.15
2556.26
2455.26
2346.09
2246.87
2151.73
2067.01
1985.27
1906.68
1828.7
1761.13
1715.11
1612.66
6080.27
5779.22
1608.4
1736.08
1809.7
1887.11
1969.03
2040.73
2109.44
2177.49
2249.81
2333.16
2421.84
2513.49
2594.44
2659.13
2705.75
2736.31
2755.46
2765.25
2767.7
2764.99
2757.47
2742.5
2718.05
2681.94
2628.77
2558.29
2465.92
2366.75
2260.11
2163.81
2070.94
1988.08
1907.58
1829.47
1751.35
1683.69
1638.09
1543.51
5412.21
5251.29
1539.58
1655.47
1722.71
1796.21
1876.52
1946.65
2015.32
2083.34
2157.28
2241.76
2332.15
2427.16
2511.15
2578.53
2626.45
2658.06
2677.59
2687.19
2689.35
2687.02
2680.45
2666.32
2642.27
2606.03
2552.4
2480.98
2386.78
2286.77
2180.64
2085.55
1994.05
1912.02
1831.97
1753.87
1675.96
1608.35
1563.28
1476.92
4827.88
4684.68
1476.5
1580.22
1640.67
1710.8
1788.84
1857.34
1926.42
1995.27
2071.54
2159.41
2253.06
2350.78
2438.5
2511.31
2563.53
2598.27
2620.3
2631.62
2634.91
2632.93
2625.97
2610.83
2585.12
2546.68
2489.51
2414.16
2316.72
2216.01
2108.92
2013.24
1921.22
1838.62
1758.05
1679.97
1602.65
1535.22
1492
1414.68
4247.59
4273.79
1426.58
1515.04
1566.48
1634.19
1710.23
1778.86
1849.69
1920.5
1999.3
2089.98
2186.54
2290.69
2382.66
2459.68
2513.98
2551.31
2574.93
2586.98
2590.66
2589.09
2582.43
2567.24
2540.51
2500.42
2440.8
2363.58
2262.06
2157.57
2048.92
1952.69
1860.4
1777.29
1696.42
1618.27
1541.2
1474.56
1436.73
1371.02
3844.15
3846.7
1417.51
1492.28
1525.35
1584.3
1656.04
1726.59
1799.67
1872.86
1954.12
2046.66
2145.22
2251.5
2343.7
2423.2
2478.31
2516.2
2540.77
2554.29
2560.12
2558.8
2550.51
2534.34
2506.92
2466.68
2405.89
2326.89
2224.86
2121.29
2012.18
1915.15
1823.06
1739.61
1659.11
1581.4
1505.64
1444.64
1418.28
1365.67
3465.81
4765.52
1440.44
1454.49
1465.37
1508.47
1568.45
1628.53
1692.52
1757.4
1830.59
1914.05
2005.24
2119.65
2251.42
2401.21
2538.54
2656.07
2743.63
2792.16
2811.34
2810.36
2789.46
2739.17
2649.52
2531.49
2389.13
2242.52
2100.71
1985.6
1883.55
1796.27
1713.41
1638.49
1566.26
1497.17
1430.53
1381.25
1371.41
1375.32
4500.98
42557.2
4676.29
3724.3
4113.89
4531.88
5132.22
5738.79
6443.12
7178.27
8006.66
8877.28
9821.23
10783.1
11772.3
12716.4
13630.4
14401.2
15042
15384.3
15703.7
15704.3
15382.2
15038.3
14393.6
13621.3
12698.7
11753.6
10752.3
9792.26
8834.64
7955.41
7116.31
6361.24
5639.63
5008.9
4379.74
3939.58
3521.31
4402.31
40509.9
42557.2
4676.29
3724.3
4113.89
4531.88
5132.22
5738.79
6443.12
7178.27
8006.66
8877.28
9821.23
10783.1
11772.3
12716.4
13630.4
14401.2
15042
15384.3
15703.7
15704.3
15382.2
15038.3
14393.6
13621.3
12698.7
11753.6
10752.3
9792.26
8834.64
7955.41
7116.31
6361.24
5639.63
5008.9
4379.74
3939.58
3521.31
4402.31
40509.9
4765.52
1440.44
1454.49
1465.37
1508.47
1568.45
1628.53
1692.52
1757.4
1830.59
1914.05
2005.24
2119.65
2251.42
2401.21
2538.54
2656.07
2743.63
2792.16
2811.34
2810.36
2789.46
2739.17
2649.52
2531.49
2389.13
2242.52
2100.71
1985.6
1883.55
1796.27
1713.41
1638.49
1566.26
1497.17
1430.53
1381.25
1371.41
1375.32
4500.98
3846.7
1417.51
1492.28
1525.35
1584.3
1656.04
1726.59
1799.67
1872.86
1954.12
2046.66
2145.22
2251.5
2343.7
2423.2
2478.31
2516.2
2540.77
2554.29
2560.12
2558.8
2550.51
2534.34
2506.92
2466.68
2405.89
2326.89
2224.86
2121.29
2012.18
1915.15
1823.06
1739.61
1659.11
1581.4
1505.64
1444.64
1418.28
1365.67
3465.81
4273.79
1426.58
1515.04
1566.48
1634.19
1710.23
1778.86
1849.69
1920.5
1999.3
2089.98
2186.54
2290.69
2382.66
2459.68
2513.98
2551.31
2574.93
2586.98
2590.66
2589.09
2582.43
2567.24
2540.51
2500.42
2440.8
2363.58
2262.06
2157.57
2048.92
1952.69
1860.4
1777.29
1696.42
1618.27
1541.2
1474.56
1436.73
1371.02
3844.15
4684.68
1476.5
1580.22
1640.67
1710.8
1788.84
1857.34
1926.42
1995.27
2071.54
2159.41
2253.06
2350.78
2438.5
2511.31
2563.53
2598.27
2620.3
2631.62
2634.91
2632.93
2625.97
2610.83
2585.12
2546.68
2489.51
2414.16
2316.72
2216.01
2108.92
2013.24
1921.22
1838.62
1758.05
1679.97
1602.65
1535.22
1492
1414.68
4247.59
5251.29
1539.58
1655.47
1722.71
1796.21
1876.52
1946.65
2015.32
2083.34
2157.28
2241.76
2332.15
2427.16
2511.15
2578.53
2626.45
2658.06
2677.59
2687.19
2689.35
2687.02
2680.45
2666.32
2642.27
2606.03
2552.4
2480.98
2386.78
2286.77
2180.64
2085.55
1994.05
1912.02
1831.97
1753.87
1675.96
1608.35
1563.28
1476.92
4827.88
5779.22
1608.4
1736.08
1809.7
1887.11
1969.03
2040.73
2109.44
2177.49
2249.81
2333.16
2421.84
2513.49
2594.44
2659.13
2705.75
2736.31
2755.46
2765.25
2767.7
2764.99
2757.47
2742.5
2718.05
2681.94
2628.77
2558.29
2465.92
2366.75
2260.11
2163.81
2070.94
1988.08
1907.58
1829.47
1751.35
1683.69
1638.09
1543.51
5412.21
6352.12
1676.49
1815.98
1895.94
1978.03
2061.51
2138.1
2207.94
2276.73
2349.56
2432.5
2521.71
2612.03
2691.02
2753.27
2798.08
2828.15
2847.04
2856.9
2859.21
2856.17
2848.18
2832.52
2807.51
2770.79
2718.21
2648.15
2556.26
2455.26
2346.09
2246.87
2151.73
2067.01
1985.27
1906.68
1828.7
1761.13
1715.11
1612.66
6080.27
6912.71
1750.81
1901.73
1986.47
2072.91
2158.58
2238.87
2310.86
2380.98
2454.56
2538.01
2626.97
2716.24
2794.11
2856.22
2901.1
2931.21
2950.11
2959.94
2962.07
2958.74
2950.33
2934.06
2908.16
2870.23
2816.35
2744.03
2651.6
2548.13
2436.53
2333.88
2235.46
2148.36
2064.74
1985.27
1907.43
1840.13
1794.36
1684.07
6777.35
7496.91
1830.26
1993.73
2082.91
2177.69
2265.83
2349.74
2424.88
2497.13
2572.85
2657.27
2745.97
2833.69
2909.57
2969.44
3013.14
3042.33
3060.63
3070.08
3071.87
3068.28
3059.69
3043.2
3016.97
2978.7
2924.32
2851.63
2758.88
2652.88
2538.76
2431.79
2329.05
2238.53
2152.18
2071.13
1993.49
1926.35
1880.35
1761.58
7548.03
8079.96
1919.55
2094.55
2190.91
2291.98
2382
2466.64
2544.12
2618.44
2696.96
2781.72
2871.17
2956.96
3031.73
3089.64
3131.85
3159.57
3176.73
3185.47
3186.74
3182.96
3174.41
3158.06
3132.01
3093.91
3038.96
2965.94
2871.11
2763.56
2645.57
2535.17
2427.87
2333.77
2244.06
2161.23
2083.63
2016.7
1971.08
1843.06
8358.44
8660.91
2015.75
2208.63
2315.97
2422.54
2514.17
2597.88
2677.08
2752.74
2832.26
2917.55
3004.99
3087.85
3158.12
3212.77
3251.77
3277.4
3292.92
3300.73
3301.39
3297.46
3289.1
3273.16
3247.88
3210.49
3156.87
3084.22
2991.02
2882.32
2763.19
2648.6
2538.13
2440.48
2347.71
2263.16
2185.72
2119.12
2073.6
1935.27
9244.9
9191.6
2115.02
2327.82
2449.07
2557.93
2646.86
2726.37
2805.03
2881.23
2961.99
3046.82
3132.16
3212.17
3277.53
3328.63
3364.14
3387.2
3400.96
3407.69
3407.67
3403.61
3395.53
3380.16
3355.79
3319.6
3267.76
3195.74
3105.03
2995.6
2875.79
2759.49
2645.76
2545.04
2449.46
2364.03
2287.05
2221.76
2177.74
2029.83
10157.7
9684.04
2215.24
2456.49
2595.07
2703.65
2786.18
2857.85
2930.85
3003.54
3081.91
3164.08
3246.39
3319.98
3382.35
3427.72
3460.34
3480.62
3492.55
3498.25
3497.58
3493.34
3485.53
3470.69
3447.23
3412.68
3361.37
3293.41
3202.15
3096.51
2978.1
2860.53
2747.14
2645.62
2549.25
2464.83
2390.08
2329.27
2287.36
2137.92
11132.6
9956.89
2309.67
2585.16
2730.66
2832.01
2909.54
2972.74
3037.93
3105.38
3180.26
3258.9
3336.97
3407.56
3463.77
3506.66
3535.32
3553.42
3563.58
3568.35
3567.08
3562.6
3555
3540.62
3518.1
3484.28
3435.71
3366.82
3280.42
3174.28
3057.98
2941.31
2827.73
2724.59
2628.76
2546.12
2473.85
2418.95
2377.4
2256.68
12073.4
10210.2
2401.11
2728.22
2872.87
2967.73
3028.91
3076.72
3129.84
3188.56
3257.64
3331.81
3406.12
3471.91
3525.44
3564.04
3590.39
3606.2
3614.91
3618.86
3617.09
3612.37
3604.88
3590.88
3568.97
3536.42
3488.2
3422.4
3335.48
3232.3
3117.66
3000.73
2887.96
2784.09
2689.3
2607.33
2540.21
2488.94
2450.53
2386.69
13007.6
10846.5
2492.75
2890.91
3023
3107.1
3140.89
3167.93
3205.48
3254.06
3316.04
3385.38
3455.87
3518.57
3568.69
3604.94
3628.82
3643
3650.48
3653.75
3651.59
3646.65
3639.18
3625.44
3604.09
3572.13
3525.28
3459.88
3375.09
3272.65
3159.21
3043.07
2930.58
2825.43
2730.56
2648.67
2584.68
2535.27
2498.68
2504.99
13827.7
9917.32
2568.33
3060.84
3203.34
3262.66
3252.35
3247.96
3266.6
3305.35
3359.34
3423.89
3490.86
3550.98
3598.86
3632.99
3655.21
3668.03
3674.58
3677.31
3674.84
3669.71
3662.24
3648.68
3627.69
3596.3
3550.04
3485.7
3401.63
3300.26
3187.87
3072.2
2959.85
2854.07
2758.73
2676.53
2614.57
2567.02
2531.61
2605.73
14538
9313.76
2656.46
3276.97
3429.87
3435.6
3368.89
3314.59
3316.38
3344.21
3389.67
3450.55
3514.47
3572.8
3619.1
3651.85
3672.82
3684.69
3690.55
3692.89
3690.19
3684.93
3677.44
3664
3643.26
3612.22
3566.49
3502.68
3419.29
3318.61
3206.82
3091.66
2979.44
2873.16
2777.15
2694.22
2633.67
2587.1
2552.75
2681.4
15019.7
8667.09
3015.41
3558.03
3760.18
3635.94
3478.05
3359.84
3349.36
3370.6
3409.76
3467.02
3528.78
3585.88
3631.17
3663
3683.17
3694.39
3699.8
3701.87
3699.02
3693.66
3686.15
3672.78
3652.2
3621.41
3576
3512.62
3429.69
3329.51
3218.25
3103.51
2991.51
2885.08
2788.74
2705.22
2645.76
2599.89
2567.45
2734
15424.8
)
;

boundaryField
{
    inlet
    {
        type            fixedValue;
        value           uniform 10000;
    }
    outlet
    {
        type            fixedValue;
        value           uniform 1000;
    }
    obstacle
    {
        type            zeroGradient;
    }
    empty
    {
        type            empty;
    }
}


// ************************************************************************* //
