/*--------------------------------*- C++ -*----------------------------------*\
| =========                 |                                                 |
| \\      /  F ield         | OpenFOAM: The Open Source CFD Toolbox           |
|  \\    /   O peration     | Version:  v1912                                 |
|   \\  /    A nd           | Website:  www.openfoam.com                      |
|    \\/     M anipulation  |                                                 |
\*---------------------------------------------------------------------------*/
FoamFile
{
    version     2.0;
    format      ascii;
    class       volScalarField;
    location    "5.3";
    object      rho;
}
// * * * * * * * * * * * * * * * * * * * * * * * * * * * * * * * * * * * * * //

dimensions      [1 -3 0 0 0 0 0];


internalField   nonuniform List<scalar> 
1900
(
42464.3
16736.1
14185.4
13724.3
13443.7
13293.2
13175.3
13073.8
12998.1
12938.1
42464.3
16735.9
14185.5
13723.9
13443.3
13292.7
13174.6
13079.2
13006.2
12929.4
42464.2
16735.9
14185.5
13724
13443.7
13293.2
13174.9
13076.5
12997.9
12919.6
42464.3
16735.9
14185.5
13723.9
13443.3
13292.7
13174.6
13079.2
13006.2
12929.4
42464.3
16736.1
14185.4
13724.3
13443.7
13293.2
13175.3
13073.8
12998.1
12938.1
13028.2
12864.7
12774.6
12495.7
12437.7
12880
12759.9
12690.7
12417
11975.8
12854.1
12742.3
12671.1
12438.8
12085
12880
12759.9
12690.7
12417
11975.8
13028.2
12864.7
12774.6
12495.7
12437.7
7572.93
6557.28
6498.99
6222.75
5752.93
8218.32
6774.57
6635.41
6327
5927.85
8373.34
6716.63
6542.15
6257.18
5848.91
8218.32
6774.57
6635.41
6327
5927.85
7572.93
6557.28
6498.99
6222.75
5752.93
3923.12
3155.79
3722.8
4386.38
4336.58
4026.44
3645.2
3320.57
3095.69
2942.29
2805.9
2672.8
2551.11
2458.37
2400.74
2366.51
2342.57
2322.74
2305.42
2290.44
2278.09
2268.28
2260.63
2254.91
2250.78
2248.08
2246.54
2246.35
2247.86
2252.5
2259.34
2271.63
2285.36
2306
2325.26
2359.94
2391.31
2462.1
2865.23
7090.94
4297.89
3276.42
3875.92
4520.66
4409.59
4064.94
3664.45
3327.74
3098.67
2943.36
2806.46
2674.17
2551.66
2458.5
2400.68
2366.41
2342.48
2322.66
2305.34
2290.35
2277.99
2268.18
2260.52
2254.8
2250.68
2247.98
2246.43
2246.24
2247.75
2252.39
2259.23
2271.54
2285.27
2305.95
2325.13
2359.98
2391.18
2462.21
2862.2
7071.91
4359.67
3258.33
3785.42
4480.86
4423.77
4089.85
3674.11
3330.45
3099.68
2943.78
2806.63
2674.81
2551.85
2458.54
2400.66
2366.38
2342.46
2322.64
2305.32
2290.32
2277.97
2268.16
2260.5
2254.77
2250.65
2247.94
2246.4
2246.2
2247.71
2252.35
2259.19
2271.51
2285.25
2305.96
2325.14
2360.11
2391.43
2462.79
2860.73
7062.93
4297.89
3276.42
3875.92
4520.66
4409.59
4064.94
3664.45
3327.74
3098.67
2943.36
2806.46
2674.17
2551.66
2458.5
2400.68
2366.41
2342.48
2322.66
2305.34
2290.35
2277.99
2268.18
2260.52
2254.8
2250.68
2247.98
2246.43
2246.24
2247.75
2252.39
2259.23
2271.54
2285.27
2305.95
2325.13
2359.98
2391.18
2462.21
2862.2
7071.91
3923.12
3155.79
3722.8
4386.38
4336.58
4026.44
3645.2
3320.57
3095.69
2942.29
2805.9
2672.8
2551.11
2458.37
2400.74
2366.51
2342.57
2322.74
2305.42
2290.44
2278.09
2268.28
2260.63
2254.91
2250.78
2248.08
2246.54
2246.35
2247.86
2252.5
2259.34
2271.63
2285.36
2306
2325.26
2359.94
2391.31
2462.1
2865.23
7090.94
3243.29
3062.01
3709.11
4131.1
4110.86
3891.22
3586.16
3291.36
3081.51
2935.38
2800.74
2667.11
2547.54
2457.23
2400.77
2366.8
2342.82
2322.98
2305.68
2290.73
2278.41
2268.63
2260.98
2255.26
2251.14
2248.45
2246.91
2246.73
2248.25
2252.87
2259.7
2271.89
2285.6
2306.01
2325.6
2359.68
2391.9
2460.06
2872.2
7333.02
3581.49
3018.08
3319.39
3680.08
3767.76
3636.39
3436.92
3212.8
3046.08
2915.47
2785.65
2653.98
2539.24
2454.47
2400.77
2367.39
2343.38
2323.49
2306.25
2291.39
2279.17
2269.44
2261.82
2256.12
2252.01
2249.33
2247.82
2247.69
2249.22
2253.83
2260.6
2272.59
2286.21
2306.25
2326.23
2359.5
2392.54
2455.4
2865.95
7033.64
4060.41
2928.5
3094.76
3416.89
3475.68
3417.6
3277.92
3121.96
2997.9
2885.67
2761.91
2635.92
2528.14
2450.41
2400.37
2367.99
2344.08
2324.19
2307.05
2292.34
2280.25
2270.61
2263.04
2257.36
2253.28
2250.64
2249.19
2249.14
2250.7
2255.32
2262.03
2273.73
2287.24
2306.85
2327.24
2359.5
2392.88
2450.47
2861.29
6920.8
4344
2793.48
2967.37
3215.69
3261.35
3222.93
3133.81
3037.28
2945.84
2849.13
2731.92
2614.35
2515.46
2445.5
2399.48
2368.38
2344.71
2324.92
2307.94
2293.44
2281.51
2271.98
2264.48
2258.87
2254.85
2252.29
2250.92
2251.01
2252.66
2257.29
2263.95
2275.33
2288.7
2307.91
2328.55
2359.9
2392.64
2447.72
2865.87
6835.47
4493.8
2720.39
2912.76
3056.92
3081.99
3065.32
3016.77
2960.54
2892.99
2806.98
2697.76
2590.34
2502.21
2440.13
2398.2
2368.51
2345.22
2325.63
2308.88
2294.61
2282.88
2273.49
2266.08
2260.57
2256.66
2254.22
2252.98
2253.27
2255.04
2259.72
2266.31
2277.34
2290.54
2309.32
2330.01
2360.58
2391.96
2446.37
2866.36
6740.26
4626.68
2678.72
2864.02
2913.89
2955.65
2949.59
2929.1
2896
2843.7
2763.83
2662.9
2566.56
2489.56
2435.02
2396.87
2368.56
2345.71
2326.39
2309.92
2295.9
2284.38
2275.15
2267.88
2262.51
2258.77
2256.51
2255.46
2256.05
2258
2262.76
2269.32
2280.05
2293.1
2311.52
2332.25
2362.4
2392.55
2447.72
2870.84
6639.9
4735.7
2642.94
2793.94
2813.32
2870.78
2869.73
2862.38
2839.18
2793.19
2718.03
2627.07
2543.3
2477.43
2429.94
2395.28
2368.36
2346.1
2327.18
2311.03
2297.3
2286.02
2276.97
2269.85
2264.66
2261.12
2259.06
2258.21
2259.11
2261.2
2265.97
2272.41
2282.71
2295.45
2313.37
2333.96
2363.56
2392.15
2448.61
2869.6
6525.54
4844.85
2616.35
2736.01
2754.82
2810.44
2809.6
2808.62
2789.52
2744.84
2674.5
2594.52
2523.48
2467.77
2426.32
2394.54
2368.83
2347.24
2328.75
2312.95
2299.49
2288.45
2279.59
2272.67
2267.71
2264.41
2262.59
2262
2263.26
2265.54
2270.33
2276.62
2286.46
2298.85
2316.23
2336.63
2365.74
2393.48
2451.1
2870.26
6394.84
4930.37
2592.19
2689.96
2712.34
2767.55
2764.27
2762.78
2742.22
2697.13
2633.31
2565.09
2506.05
2459.19
2423.01
2393.81
2369.51
2348.8
2330.9
2315.54
2302.4
2291.61
2282.97
2276.25
2271.49
2268.4
2266.77
2266.36
2267.92
2270.23
2274.89
2280.83
2290.03
2301.83
2318.51
2338.5
2366.97
2393.76
2452.54
2865.92
6253.47
4982.15
2577.73
2653.95
2679.58
2731.3
2724.74
2720.17
2696.7
2652.51
2597.14
2540.91
2492.84
2453.69
2422.08
2395.66
2372.96
2353.14
2335.92
2321.05
2308.25
2297.71
2289.26
2282.69
2278.05
2275.06
2273.52
2273.15
2274.83
2276.99
2281.31
2286.72
2295.06
2306.05
2321.83
2341.31
2369.11
2395.34
2454.68
2861.31
6097.62
5037.12
2569.19
2632.88
2657.19
2701.23
2690.35
2680.91
2655.22
2614.14
2567.91
2522.43
2483.48
2450.56
2422.75
2398.81
2377.59
2358.87
2342.43
2328.12
2315.7
2305.45
2297.21
2290.78
2286.24
2283.33
2281.88
2281.5
2283.23
2285.13
2289.01
2293.73
2301.07
2311.04
2325.73
2344.5
2371.56
2397.08
2456.59
2854.04
5938.21
5002.55
2564.88
2618.57
2638.05
2672.67
2658.01
2644.14
2618.42
2582.38
2545.75
2510.01
2479.22
2451.89
2427.85
2406.01
2386.53
2369.11
2353.65
2340.04
2328.07
2318.09
2309.95
2303.47
2298.81
2295.72
2294.11
2293.49
2294.97
2296.38
2299.53
2303.28
2309.33
2317.98
2331.33
2349.24
2375.47
2400.43
2460
2847.18
5753.92
4981.89
2563.08
2610.51
2622.27
2646.28
2629.86
2613.62
2590.55
2560.42
2531.9
2504.01
2479.35
2456.36
2434.99
2415.25
2397.15
2380.74
2366.03
2352.97
2341.41
2331.74
2323.84
2317.52
2312.97
2309.95
2308.43
2307.78
2309.18
2310.19
2312.75
2315.64
2320.5
2327.86
2339.99
2357.16
2382.81
2407.17
2466.4
2840.35
5591.41
4867.05
2565.83
2610.23
2614.18
2626.3
2608.34
2590.49
2571.26
2547.82
2526.81
2505.99
2486.11
2466.48
2447.95
2430.21
2413.66
2398.46
2384.72
2372.42
2361.36
2351.89
2343.89
2337.35
2332.59
2329.36
2327.72
2326.78
2327.86
2328.32
2330.2
2332.18
2335.86
2342
2352.96
2369.68
2394.92
2418.73
2478.59
2837.21
5396.69
4781.56
2572.71
2614.36
2610.61
2611.71
2594.76
2578.18
2564.04
2546.88
2531.48
2513.97
2497.64
2480.66
2464.07
2447.69
2431.99
2417.18
2403.51
2391.16
2380.17
2371.13
2363.84
2358.01
2353.8
2350.93
2349.56
2348.63
2349.74
2349.99
2351.57
2352.96
2355.86
2361.19
2371.6
2388.71
2414.85
2439.31
2500.8
2844.27
5268.29
4709.6
2595.46
2631.56
2621.74
2616.14
2600.71
2585.98
2575.08
2561.47
2549.61
2535.52
2521.66
2506.6
2491.86
2477
2462.65
2449.04
2436.53
2425.19
2414.86
2405.91
2398.15
2391.63
2386.85
2383.46
2381.78
2380.4
2381.16
2380.88
2381.9
2382.54
2384.57
2389.05
2398.88
2416.42
2443.66
2468.71
2534.19
2861.1
5171.17
4749.59
2630.9
2655.69
2639.98
2627.91
2612.84
2600.75
2592.54
2582.13
2572.26
2559.7
2547.73
2534.2
2521.51
2508.58
2496.02
2483.48
2470.86
2458.46
2447.15
2438.66
2432.61
2427.51
2422.84
2418.42
2415.63
2412.82
2412.64
2411.34
2411.87
2411.98
2413.5
2417.26
2426.56
2444.28
2472.95
2497.76
2564.79
2881.15
5183.69
4914.83
2697.53
2711.94
2689.15
2670.89
2655.95
2645.88
2639.39
2631.87
2623.87
2612.99
2601.86
2588.56
2575.79
2562.59
2550.62
2540.24
2531.75
2524.54
2516.75
2508.36
2499.19
2489.64
2482.41
2477.16
2475.41
2474.19
2475.02
2474.73
2475.86
2476.54
2478.24
2481.69
2491.38
2510.18
2543.47
2571.32
2638.13
2923.91
5293.68
15707.3
3672.75
3194.74
3146.15
3144.78
3137.19
3139.83
3137.73
3135.97
3128.69
3116.57
3102.18
3082.77
3061.75
3036.85
3010.74
2982.83
2955.75
2935.38
2917.58
2909.84
2912.73
2910.43
2918.61
2918.21
2923.28
2922.26
2924.33
2920.87
2917.81
2910.85
2902.99
2893.79
2887.39
2889.91
2906.35
2928.84
2964.7
3775.83
15003.4
179852
15940.5
6484.44
6372.4
6444.93
6580.4
6745.56
6894.11
7011.79
7114.95
7186.15
7233.69
7265.67
7276.45
7274.63
7261.36
7240.53
7209.35
7180.81
7140.77
7110.27
7076.41
7024.72
6945.18
6845.56
6739.06
6622.58
6486.76
6342.11
6179.66
6010.92
5813.46
5630.47
5403.67
5242.09
5093.95
5089.68
5155.55
14406.5
162319
179852
15940.5
6484.44
6372.4
6444.93
6580.4
6745.56
6894.11
7011.79
7114.95
7186.15
7233.69
7265.67
7276.45
7274.63
7261.36
7240.53
7209.35
7180.81
7140.77
7110.27
7076.41
7024.72
6945.18
6845.56
6739.06
6622.58
6486.76
6342.11
6179.66
6010.92
5813.46
5630.47
5403.67
5242.09
5093.95
5089.68
5155.55
14406.5
162319
15707.3
3672.75
3194.74
3146.15
3144.78
3137.19
3139.83
3137.73
3135.97
3128.69
3116.57
3102.18
3082.77
3061.75
3036.85
3010.74
2982.83
2955.75
2935.38
2917.58
2909.84
2912.73
2910.43
2918.61
2918.21
2923.28
2922.26
2924.33
2920.87
2917.81
2910.85
2902.99
2893.79
2887.39
2889.91
2906.35
2928.84
2964.7
3775.83
15003.4
4914.83
2697.53
2711.94
2689.15
2670.89
2655.95
2645.88
2639.39
2631.87
2623.87
2612.99
2601.86
2588.56
2575.79
2562.59
2550.62
2540.24
2531.75
2524.54
2516.75
2508.36
2499.19
2489.64
2482.41
2477.16
2475.41
2474.19
2475.02
2474.73
2475.86
2476.54
2478.24
2481.69
2491.38
2510.18
2543.47
2571.32
2638.13
2923.91
5293.68
4749.59
2630.9
2655.69
2639.98
2627.91
2612.84
2600.75
2592.54
2582.13
2572.26
2559.7
2547.73
2534.2
2521.51
2508.58
2496.02
2483.48
2470.86
2458.46
2447.15
2438.66
2432.61
2427.51
2422.84
2418.42
2415.63
2412.82
2412.64
2411.34
2411.87
2411.98
2413.5
2417.26
2426.56
2444.28
2472.95
2497.76
2564.79
2881.15
5183.69
4709.6
2595.46
2631.56
2621.74
2616.14
2600.71
2585.98
2575.08
2561.47
2549.61
2535.52
2521.66
2506.6
2491.86
2477
2462.65
2449.04
2436.53
2425.19
2414.86
2405.91
2398.15
2391.63
2386.85
2383.46
2381.78
2380.4
2381.16
2380.88
2381.9
2382.54
2384.57
2389.05
2398.88
2416.42
2443.66
2468.71
2534.19
2861.1
5171.17
4781.56
2572.71
2614.36
2610.61
2611.71
2594.76
2578.18
2564.04
2546.88
2531.48
2513.97
2497.64
2480.66
2464.07
2447.69
2431.99
2417.18
2403.51
2391.16
2380.17
2371.13
2363.84
2358.01
2353.8
2350.93
2349.56
2348.63
2349.74
2349.99
2351.57
2352.96
2355.86
2361.19
2371.6
2388.71
2414.85
2439.31
2500.8
2844.27
5268.29
4867.05
2565.83
2610.23
2614.18
2626.3
2608.34
2590.49
2571.26
2547.82
2526.81
2505.99
2486.11
2466.48
2447.95
2430.21
2413.66
2398.46
2384.72
2372.42
2361.36
2351.89
2343.89
2337.35
2332.59
2329.36
2327.72
2326.78
2327.86
2328.32
2330.2
2332.18
2335.86
2342
2352.96
2369.68
2394.92
2418.73
2478.59
2837.21
5396.69
4981.89
2563.08
2610.51
2622.27
2646.28
2629.86
2613.62
2590.55
2560.42
2531.9
2504.01
2479.35
2456.36
2434.99
2415.25
2397.15
2380.74
2366.03
2352.97
2341.41
2331.74
2323.84
2317.52
2312.97
2309.95
2308.43
2307.78
2309.18
2310.19
2312.75
2315.64
2320.5
2327.86
2339.99
2357.16
2382.81
2407.17
2466.4
2840.35
5591.41
5002.55
2564.88
2618.57
2638.05
2672.67
2658.01
2644.14
2618.42
2582.38
2545.75
2510.01
2479.22
2451.89
2427.85
2406.01
2386.53
2369.11
2353.65
2340.04
2328.07
2318.09
2309.95
2303.47
2298.81
2295.72
2294.11
2293.49
2294.97
2296.38
2299.53
2303.28
2309.33
2317.98
2331.33
2349.24
2375.47
2400.43
2460
2847.18
5753.92
5037.12
2569.19
2632.88
2657.19
2701.23
2690.35
2680.91
2655.22
2614.14
2567.91
2522.43
2483.48
2450.56
2422.75
2398.81
2377.59
2358.87
2342.43
2328.12
2315.7
2305.45
2297.21
2290.78
2286.24
2283.33
2281.88
2281.5
2283.23
2285.13
2289.01
2293.73
2301.07
2311.04
2325.73
2344.5
2371.56
2397.08
2456.59
2854.04
5938.21
4982.15
2577.73
2653.95
2679.58
2731.3
2724.74
2720.17
2696.7
2652.51
2597.14
2540.91
2492.84
2453.69
2422.08
2395.66
2372.96
2353.14
2335.92
2321.05
2308.25
2297.71
2289.26
2282.69
2278.05
2275.06
2273.52
2273.15
2274.83
2276.99
2281.31
2286.72
2295.06
2306.05
2321.83
2341.31
2369.11
2395.34
2454.68
2861.31
6097.62
4930.37
2592.19
2689.96
2712.34
2767.55
2764.27
2762.78
2742.22
2697.13
2633.31
2565.09
2506.05
2459.19
2423.01
2393.81
2369.51
2348.8
2330.9
2315.54
2302.4
2291.61
2282.97
2276.25
2271.49
2268.4
2266.77
2266.36
2267.92
2270.23
2274.89
2280.83
2290.03
2301.83
2318.51
2338.5
2366.97
2393.76
2452.54
2865.92
6253.47
4844.85
2616.35
2736.01
2754.82
2810.44
2809.6
2808.62
2789.52
2744.84
2674.5
2594.52
2523.48
2467.77
2426.32
2394.54
2368.83
2347.24
2328.75
2312.95
2299.49
2288.45
2279.59
2272.67
2267.71
2264.41
2262.59
2262
2263.26
2265.54
2270.33
2276.62
2286.46
2298.85
2316.23
2336.63
2365.74
2393.48
2451.1
2870.26
6394.84
4735.7
2642.94
2793.94
2813.32
2870.78
2869.73
2862.38
2839.18
2793.19
2718.03
2627.07
2543.3
2477.43
2429.94
2395.28
2368.36
2346.1
2327.18
2311.03
2297.3
2286.02
2276.97
2269.85
2264.66
2261.12
2259.06
2258.21
2259.11
2261.2
2265.97
2272.41
2282.71
2295.45
2313.37
2333.96
2363.56
2392.15
2448.61
2869.6
6525.54
4626.68
2678.72
2864.02
2913.89
2955.65
2949.59
2929.1
2896
2843.7
2763.83
2662.9
2566.56
2489.56
2435.02
2396.87
2368.56
2345.71
2326.39
2309.92
2295.9
2284.38
2275.15
2267.88
2262.51
2258.77
2256.51
2255.46
2256.05
2258
2262.76
2269.32
2280.05
2293.1
2311.52
2332.25
2362.4
2392.55
2447.72
2870.84
6639.9
4493.8
2720.39
2912.76
3056.92
3081.99
3065.32
3016.77
2960.54
2892.99
2806.98
2697.76
2590.34
2502.21
2440.13
2398.2
2368.51
2345.22
2325.63
2308.88
2294.61
2282.88
2273.49
2266.08
2260.57
2256.66
2254.22
2252.98
2253.27
2255.04
2259.72
2266.31
2277.34
2290.54
2309.32
2330.01
2360.58
2391.96
2446.37
2866.36
6740.26
4344
2793.48
2967.37
3215.69
3261.35
3222.93
3133.81
3037.28
2945.84
2849.13
2731.92
2614.35
2515.46
2445.5
2399.48
2368.38
2344.71
2324.92
2307.94
2293.44
2281.51
2271.98
2264.48
2258.87
2254.85
2252.29
2250.92
2251.01
2252.66
2257.29
2263.95
2275.33
2288.7
2307.91
2328.55
2359.9
2392.64
2447.72
2865.87
6835.47
4060.41
2928.5
3094.76
3416.89
3475.68
3417.6
3277.92
3121.96
2997.9
2885.67
2761.91
2635.92
2528.14
2450.41
2400.37
2367.99
2344.08
2324.19
2307.05
2292.34
2280.25
2270.61
2263.04
2257.36
2253.28
2250.64
2249.19
2249.14
2250.7
2255.32
2262.03
2273.73
2287.24
2306.85
2327.24
2359.5
2392.88
2450.47
2861.29
6920.8
3581.49
3018.08
3319.39
3680.08
3767.76
3636.39
3436.92
3212.8
3046.08
2915.47
2785.65
2653.98
2539.24
2454.47
2400.77
2367.39
2343.38
2323.49
2306.25
2291.39
2279.17
2269.44
2261.82
2256.12
2252.01
2249.33
2247.82
2247.69
2249.22
2253.83
2260.6
2272.59
2286.21
2306.25
2326.23
2359.5
2392.54
2455.4
2865.95
7033.64
3243.29
3062.01
3709.11
4131.1
4110.86
3891.22
3586.16
3291.36
3081.51
2935.38
2800.74
2667.11
2547.54
2457.23
2400.77
2366.8
2342.82
2322.98
2305.68
2290.73
2278.41
2268.63
2260.98
2255.26
2251.14
2248.45
2246.91
2246.73
2248.25
2252.87
2259.7
2271.89
2285.6
2306.01
2325.6
2359.68
2391.9
2460.06
2872.2
7333.02
)
;

boundaryField
{
    inlet
    {
        type            calculated;
        value           uniform 14000.1;
    }
    outlet
    {
        type            calculated;
        value           nonuniform List<scalar> 
165
(
2550.21
2724.54
2960.68
3089.2
3150.06
3201.38
3253.89
3296.46
3317.46
3324.14
3317.93
3320.51
3308.24
3305.65
3288.63
3254.52
3210.97
3143.35
3705.88
4019.02
4019.02
3631.76
3164.84
3234.16
3281.85
3319
3345.09
3366.86
3388.2
3404.95
3422.16
3439.04
3454.58
3471.11
3486.89
3501.77
3513.46
3522.13
3527.3
3529.67
3532.2
3537.46
3537.62
3539.51
3534.4
3527.91
3518.35
3510.54
3499.48
3488.88
3474.93
3462.08
3441.59
3422.52
3387.76
3339.3
3281.67
3204.71
3676.15
4033.63
3542.18
3570.06
3551.93
3538.73
3530.3
3525.15
3518.14
3511.52
3502.29
3493.14
3480.53
3468.73
3448.52
3428.62
3393.56
3342.77
3287.62
3204.61
3671.59
4033.63
3574.73
3567.09
3564.08
3567.09
3574.73
4033.63
3671.59
3204.61
3287.62
3342.77
3393.56
3428.62
3448.52
3468.73
3480.53
3493.14
3502.29
3511.52
3518.14
3525.15
3530.3
3538.73
3551.93
3570.06
3542.18
4019.02
3631.76
3164.84
3234.16
3281.85
3319
3345.09
3366.86
3388.2
3404.95
3422.16
3439.04
3454.58
3471.11
3486.89
3501.77
3513.46
3522.13
3527.3
3529.67
3532.2
3537.46
3537.62
3539.51
3534.4
3527.91
3518.35
3510.54
3499.48
3488.88
3474.93
3462.08
3441.59
3422.52
3387.76
3339.3
3281.67
3204.71
3676.15
4033.63
4019.02
3705.88
3143.35
3210.97
3254.52
3288.63
3305.65
3308.24
3320.51
3317.93
3324.14
3317.46
3296.46
3253.89
3201.38
3150.06
3089.2
2960.68
2724.54
2550.21
)
;
    }
    obstacle
    {
        type            calculated;
        value           nonuniform List<scalar> 
40
(
42464.3
16736.1
14185.4
13724.3
13443.7
13293.2
13175.3
13073.8
12998.1
12938.1
42464.3
16736.1
14185.4
13724.3
13443.7
13293.2
13175.3
13073.8
12998.1
12938.1
13028.2
12864.7
12774.6
12495.7
12437.7
13028.2
12864.7
12774.6
12495.7
12437.7
7572.93
6557.28
6498.99
6222.75
5752.93
7572.93
6557.28
6498.99
6222.75
5752.93
)
;
    }
    empty
    {
        type            empty;
    }
}


// ************************************************************************* //
