/*--------------------------------*- C++ -*----------------------------------*\
| =========                 |                                                 |
| \\      /  F ield         | OpenFOAM: The Open Source CFD Toolbox           |
|  \\    /   O peration     | Version:  v1912                                 |
|   \\  /    A nd           | Website:  www.openfoam.com                      |
|    \\/     M anipulation  |                                                 |
\*---------------------------------------------------------------------------*/
FoamFile
{
    version     2.0;
    format      ascii;
    class       volScalarField;
    location    "2.12";
    object      T;
}
// * * * * * * * * * * * * * * * * * * * * * * * * * * * * * * * * * * * * * //

dimensions      [0 0 0 1 0 0 0];


internalField   nonuniform List<scalar> 
1900
(
1.06394
1.01893
1.01984
1.02049
1.02104
1.02181
1.02289
1.02426
1.02581
1.02828
1.06394
1.01893
1.01984
1.02048
1.02103
1.02179
1.02283
1.02399
1.0253
1.02785
1.06394
1.01893
1.01984
1.02047
1.02102
1.02178
1.02284
1.02404
1.02553
1.0277
1.06394
1.01893
1.01984
1.02048
1.02103
1.02179
1.02283
1.02399
1.0253
1.02785
1.06394
1.01893
1.01984
1.02049
1.02104
1.02181
1.02289
1.02426
1.02581
1.02828
1.02743
1.03178
1.03596
1.03727
1.01262
1.03036
1.03459
1.03826
1.04147
1.03096
1.03002
1.03374
1.03689
1.0387
1.027
1.03036
1.03459
1.03826
1.04147
1.03096
1.02743
1.03178
1.03596
1.03727
1.01262
1.062
1.04825
1.03951
1.01507
0.971796
1.05652
1.0468
1.03872
1.02343
0.998705
1.05542
1.04651
1.03802
1.02414
1.00336
1.05652
1.0468
1.03872
1.02343
0.998705
1.062
1.04825
1.03951
1.01507
0.971796
0.847834
0.783534
0.841906
0.856514
0.8525
0.852324
0.858022
0.865607
0.876086
0.888248
0.902307
0.917464
0.933184
0.948976
0.964337
0.978485
0.990029
0.997158
0.999692
1.00005
1.00005
0.999634
0.996864
0.989293
0.977209
0.962464
0.946418
0.929753
0.912812
0.895805
0.878898
0.862253
0.846071
0.830595
0.816153
0.803393
0.793728
0.784084
0.712396
0.604537
0.959261
0.829199
0.857743
0.85883
0.853492
0.852737
0.858112
0.865712
0.876152
0.88829
0.902333
0.917476
0.933184
0.948968
0.964321
0.978472
0.990017
0.997144
0.999674
1.00003
1.00003
0.999616
0.996847
0.989276
0.977192
0.962447
0.946402
0.929738
0.912798
0.895793
0.878887
0.862244
0.846063
0.830588
0.816148
0.803389
0.793725
0.784082
0.712395
0.604537
0.963557
0.858916
0.867819
0.860884
0.853735
0.852882
0.858151
0.86574
0.876169
0.888297
0.902334
0.917472
0.933179
0.948961
0.964313
0.978466
0.99001
0.997135
0.999664
1.00002
1.00002
0.999606
0.996837
0.989266
0.977182
0.962438
0.946393
0.929729
0.91279
0.895786
0.878881
0.862238
0.846059
0.830585
0.816145
0.803387
0.793724
0.784081
0.712394
0.604537
0.959261
0.829199
0.857743
0.85883
0.853492
0.852737
0.858112
0.865712
0.876152
0.88829
0.902333
0.917476
0.933184
0.948968
0.964321
0.978472
0.990017
0.997144
0.999674
1.00003
1.00003
0.999616
0.996847
0.989276
0.977192
0.962447
0.946402
0.929738
0.912798
0.895793
0.878887
0.862244
0.846063
0.830588
0.816148
0.803389
0.793725
0.784082
0.712395
0.604537
0.847834
0.783534
0.841906
0.856514
0.8525
0.852324
0.858022
0.865607
0.876086
0.888248
0.902307
0.917464
0.933184
0.948976
0.964337
0.978485
0.990029
0.997158
0.999692
1.00005
1.00005
0.999634
0.996864
0.989293
0.977209
0.962464
0.946418
0.929753
0.912812
0.895805
0.878898
0.862253
0.846071
0.830595
0.816153
0.803393
0.793728
0.784084
0.712396
0.604537
0.655114
0.734927
0.830086
0.847601
0.848637
0.85085
0.857206
0.864956
0.875523
0.887807
0.901905
0.917071
0.932788
0.948577
0.963939
0.978103
0.989677
0.996846
0.999416
0.999789
0.999787
0.999373
0.996605
0.989039
0.976964
0.962233
0.946205
0.929562
0.912645
0.895662
0.878779
0.862158
0.845996
0.830538
0.816111
0.803363
0.793706
0.78407
0.712389
0.604537
0.582676
0.732261
0.820013
0.834371
0.841509
0.847147
0.854419
0.8629
0.873774
0.886386
0.900591
0.91579
0.931495
0.947255
0.962585
0.976722
0.988286
0.99547
0.998054
0.998429
0.998427
0.998015
0.995254
0.987708
0.975669
0.96099
0.94503
0.928466
0.911639
0.894754
0.877972
0.861452
0.845391
0.830028
0.815689
0.80302
0.793421
0.783856
0.712258
0.604524
0.582289
0.734488
0.812031
0.825364
0.833865
0.841207
0.84909
0.858259
0.869195
0.882009
0.896166
0.911236
0.926758
0.942325
0.957478
0.971477
0.982961
0.990127
0.992724
0.993106
0.993105
0.992698
0.989963
0.982482
0.97055
0.956017
0.940235
0.923882
0.907291
0.890667
0.874165
0.85794
0.842183
0.827129
0.813091
0.800716
0.79136
0.782139
0.711019
0.60427
0.58658
0.729547
0.802337
0.814944
0.824434
0.832187
0.839779
0.849269
0.860474
0.873297
0.887361
0.902235
0.91752
0.932839
0.94776
0.961567
0.972919
0.980023
0.982606
0.982987
0.982986
0.982589
0.979906
0.972539
0.960772
0.946439
0.930888
0.914793
0.898486
0.88217
0.866
0.850128
0.834743
0.820076
0.806425
0.794441
0.785493
0.776834
0.706691
0.602618
0.588326
0.720119
0.791365
0.802746
0.809898
0.818005
0.826594
0.836634
0.848128
0.861081
0.875124
0.889872
0.904965
0.92007
0.934787
0.948421
0.959639
0.966652
0.969193
0.969566
0.969566
0.969184
0.966579
0.959367
0.947797
0.933683
0.918365
0.902514
0.886465
0.870417
0.854525
0.838944
0.823857
0.809486
0.796126
0.784436
0.77595
0.767712
0.698695
0.597742
0.592242
0.705428
0.776758
0.786781
0.793959
0.802211
0.811404
0.821963
0.833841
0.846984
0.861064
0.875735
0.890688
0.905631
0.920186
0.933666
0.944737
0.951622
0.954092
0.954448
0.954448
0.954089
0.951585
0.944562
0.933214
0.919326
0.904233
0.88861
0.872788
0.856969
0.841307
0.825955
0.811089
0.796919
0.78375
0.772267
0.764227
0.756114
0.688339
0.589235
0.580499
0.689763
0.760356
0.770363
0.777538
0.785723
0.79539
0.806419
0.81867
0.832014
0.846147
0.860771
0.875621
0.890438
0.904857
0.918191
0.929097
0.935816
0.938183
0.938516
0.938516
0.938184
0.935803
0.929001
0.917895
0.904238
0.889368
0.87396
0.858349
0.842736
0.827278
0.81212
0.797435
0.78341
0.77039
0.759084
0.751416
0.743182
0.677022
0.578363
0.572042
0.67536
0.744322
0.754141
0.760906
0.769016
0.779111
0.790553
0.803149
0.816669
0.830855
0.845447
0.860223
0.874941
0.889242
0.902428
0.913144
0.919655
0.921893
0.922196
0.922196
0.921895
0.919655
0.913102
0.902259
0.888839
0.874188
0.858989
0.843578
0.82816
0.812887
0.797911
0.783376
0.769469
0.756595
0.745445
0.73803
0.729529
0.665503
0.566395
0.561891
0.661989
0.728393
0.737901
0.744249
0.752331
0.762815
0.774662
0.78754
0.801232
0.815461
0.830041
0.844763
0.859398
0.873584
0.88661
0.897103
0.903365
0.905452
0.905723
0.905723
0.905454
0.903371
0.897093
0.88653
0.873353
0.85892
0.843923
0.828706
0.813469
0.798383
0.783553
0.769185
0.755353
0.742641
0.731614
0.724294
0.715495
0.65407
0.554496
0.550672
0.649322
0.712359
0.721337
0.727566
0.735793
0.746737
0.758892
0.772098
0.785882
0.800185
0.81475
0.829429
0.843981
0.858043
0.870887
0.881122
0.8871
0.88902
0.889256
0.889256
0.889021
0.887106
0.881128
0.870862
0.857934
0.843716
0.828917
0.813883
0.798834
0.783888
0.769257
0.754957
0.741289
0.728664
0.717763
0.710323
0.701299
0.642723
0.542338
0.539293
0.636989
0.696076
0.704498
0.711032
0.719679
0.731014
0.743573
0.756888
0.770874
0.785169
0.799747
0.814367
0.828828
0.842749
0.855386
0.865331
0.870995
0.872738
0.872939
0.872939
0.872739
0.870999
0.86534
0.855389
0.842715
0.828711
0.814102
0.799254
0.784348
0.769613
0.75502
0.740983
0.727306
0.714878
0.703998
0.696294
0.687137
0.631546
0.531287
0.526773
0.624701
0.67961
0.687755
0.694953
0.704267
0.715986
0.728648
0.742286
0.756213
0.770626
0.785153
0.799727
0.81408
0.827845
0.840252
0.849877
0.855205
0.856767
0.856935
0.856935
0.856767
0.855207
0.849885
0.840264
0.827848
0.81405
0.799624
0.784924
0.770205
0.755515
0.741213
0.727101
0.713714
0.701337
0.690379
0.682356
0.673063
0.620399
0.519967
0.515142
0.613055
0.663908
0.672102
0.679962
0.689917
0.701743
0.714674
0.72817
0.742313
0.756633
0.771176
0.785667
0.799916
0.813517
0.825682
0.834966
0.839942
0.841324
0.841462
0.841462
0.841324
0.839943
0.834971
0.825694
0.813534
0.799928
0.785655
0.771111
0.756473
0.742012
0.727649
0.713915
0.700528
0.688372
0.677379
0.668979
0.659677
0.610053
0.51015
0.503087
0.60108
0.648577
0.65736
0.665701
0.676601
0.688328
0.701411
0.715005
0.729048
0.74344
0.757925
0.772376
0.786525
0.799973
0.811898
0.82083
0.825444
0.82665
0.826761
0.826761
0.82665
0.825444
0.820832
0.811906
0.799989
0.786549
0.772402
0.75794
0.743426
0.728976
0.714845
0.701119
0.687828
0.675919
0.664482
0.655802
0.64627
0.599201
0.499904
0.49387
0.591022
0.635288
0.644396
0.65338
0.664657
0.676593
0.689576
0.703137
0.717187
0.731462
0.745834
0.760119
0.774116
0.787391
0.799073
0.807654
0.811911
0.812952
0.813039
0.813039
0.812952
0.811911
0.807654
0.799077
0.787402
0.774137
0.760152
0.745876
0.731509
0.717229
0.703159
0.689563
0.676508
0.664505
0.653019
0.643873
0.634367
0.590217
0.492115
0.484173
0.580441
0.622287
0.63168
0.641275
0.65341
0.665472
0.678949
0.692565
0.706678
0.720914
0.735169
0.749305
0.763108
0.776176
0.787601
0.795821
0.79972
0.800605
0.800672
0.800672
0.800605
0.79972
0.79582
0.787602
0.776181
0.763121
0.749329
0.735207
0.720967
0.706745
0.692643
0.679029
0.665548
0.653466
0.64127
0.631608
0.622022
0.580143
0.483429
0.480427
0.573268
0.612609
0.621699
0.631602
0.64433
0.656827
0.670655
0.684625
0.699035
0.713443
0.727728
0.741734
0.755263
0.767921
0.77887
0.78664
0.790222
0.790991
0.791044
0.791044
0.790991
0.790222
0.78664
0.77887
0.767922
0.755268
0.741747
0.727751
0.713481
0.699089
0.684699
0.670747
0.656942
0.644458
0.631738
0.621825
0.61266
0.573254
0.480101
0.480453
0.56759
0.604753
0.613018
0.622447
0.635247
0.647651
0.661601
0.675575
0.690127
0.704776
0.719401
0.733775
0.747583
0.760312
0.771019
0.778273
0.781392
0.782002
0.782039
0.782039
0.782002
0.781392
0.778273
0.771018
0.760312
0.747585
0.733782
0.719416
0.704803
0.690167
0.675633
0.661676
0.647749
0.635361
0.622578
0.613151
0.604849
0.567639
0.480351
0.457102
0.532223
0.56828
0.574341
0.58126
0.591778
0.601243
0.612494
0.62344
0.63497
0.6466
0.658345
0.670146
0.681901
0.693101
0.702604
0.708791
0.71121
0.71162
0.711641
0.711641
0.71162
0.71121
0.708791
0.702604
0.6931
0.6819
0.670146
0.658348
0.646608
0.634988
0.62347
0.612541
0.60131
0.591867
0.581372
0.574473
0.56841
0.532337
0.457128
0.404432
0.456318
0.480274
0.480391
0.483423
0.492576
0.50073
0.511363
0.521627
0.533432
0.54494
0.557479
0.569716
0.581579
0.591671
0.598509
0.601543
0.60223
0.60229
0.602292
0.602292
0.60229
0.60223
0.601543
0.598509
0.59167
0.581579
0.569715
0.557479
0.544939
0.533431
0.521626
0.511362
0.50073
0.492578
0.483428
0.4804
0.480288
0.456332
0.404437
0.404432
0.456318
0.480274
0.480391
0.483423
0.492576
0.50073
0.511363
0.521627
0.533432
0.54494
0.557479
0.569716
0.581579
0.591671
0.598509
0.601543
0.60223
0.60229
0.602292
0.602292
0.60229
0.60223
0.601543
0.598509
0.59167
0.581579
0.569715
0.557479
0.544939
0.533431
0.521626
0.511362
0.50073
0.492578
0.483428
0.4804
0.480288
0.456332
0.404437
0.457102
0.532223
0.56828
0.574341
0.58126
0.591778
0.601243
0.612494
0.62344
0.63497
0.6466
0.658345
0.670146
0.681901
0.693101
0.702604
0.708791
0.71121
0.71162
0.711641
0.711641
0.71162
0.71121
0.708791
0.702604
0.6931
0.6819
0.670146
0.658348
0.646608
0.634988
0.62347
0.612541
0.60131
0.591867
0.581372
0.574473
0.56841
0.532337
0.457128
0.480453
0.56759
0.604753
0.613018
0.622447
0.635247
0.647651
0.661601
0.675575
0.690127
0.704776
0.719401
0.733775
0.747583
0.760312
0.771019
0.778273
0.781392
0.782002
0.782039
0.782039
0.782002
0.781392
0.778273
0.771018
0.760312
0.747585
0.733782
0.719416
0.704803
0.690167
0.675633
0.661676
0.647749
0.635361
0.622578
0.613151
0.604849
0.567639
0.480351
0.480427
0.573268
0.612609
0.621699
0.631602
0.64433
0.656827
0.670655
0.684625
0.699035
0.713443
0.727728
0.741734
0.755263
0.767921
0.77887
0.78664
0.790222
0.790991
0.791044
0.791044
0.790991
0.790222
0.78664
0.77887
0.767922
0.755268
0.741747
0.727751
0.713481
0.699089
0.684699
0.670747
0.656942
0.644458
0.631738
0.621825
0.61266
0.573254
0.480101
0.484173
0.580441
0.622287
0.63168
0.641275
0.65341
0.665472
0.678949
0.692565
0.706678
0.720914
0.735169
0.749305
0.763108
0.776176
0.787601
0.795821
0.79972
0.800605
0.800672
0.800672
0.800605
0.79972
0.79582
0.787602
0.776181
0.763121
0.749329
0.735207
0.720967
0.706745
0.692643
0.679029
0.665548
0.653466
0.64127
0.631608
0.622022
0.580143
0.483429
0.49387
0.591022
0.635288
0.644396
0.65338
0.664657
0.676593
0.689576
0.703137
0.717187
0.731462
0.745834
0.760119
0.774116
0.787391
0.799073
0.807654
0.811911
0.812952
0.813039
0.813039
0.812952
0.811911
0.807654
0.799077
0.787402
0.774137
0.760152
0.745876
0.731509
0.717229
0.703159
0.689563
0.676508
0.664505
0.653019
0.643873
0.634367
0.590217
0.492115
0.503087
0.60108
0.648577
0.65736
0.665701
0.676601
0.688328
0.701411
0.715005
0.729048
0.74344
0.757925
0.772376
0.786525
0.799973
0.811898
0.82083
0.825444
0.82665
0.826761
0.826761
0.82665
0.825444
0.820832
0.811906
0.799989
0.786549
0.772402
0.75794
0.743426
0.728976
0.714845
0.701119
0.687828
0.675919
0.664482
0.655802
0.64627
0.599201
0.499904
0.515142
0.613055
0.663908
0.672102
0.679962
0.689917
0.701743
0.714674
0.72817
0.742313
0.756633
0.771176
0.785667
0.799916
0.813517
0.825682
0.834966
0.839942
0.841324
0.841462
0.841462
0.841324
0.839943
0.834971
0.825694
0.813534
0.799928
0.785655
0.771111
0.756473
0.742012
0.727649
0.713915
0.700528
0.688372
0.677379
0.668979
0.659677
0.610053
0.51015
0.526773
0.624701
0.67961
0.687755
0.694953
0.704267
0.715986
0.728648
0.742286
0.756213
0.770626
0.785153
0.799727
0.81408
0.827845
0.840252
0.849877
0.855205
0.856767
0.856935
0.856935
0.856767
0.855207
0.849885
0.840264
0.827848
0.81405
0.799624
0.784924
0.770205
0.755515
0.741213
0.727101
0.713714
0.701337
0.690379
0.682356
0.673063
0.620399
0.519967
0.539293
0.636989
0.696076
0.704498
0.711032
0.719679
0.731014
0.743573
0.756888
0.770874
0.785169
0.799747
0.814367
0.828828
0.842749
0.855386
0.865331
0.870995
0.872738
0.872939
0.872939
0.872739
0.870999
0.86534
0.855389
0.842715
0.828711
0.814102
0.799254
0.784348
0.769613
0.75502
0.740983
0.727306
0.714878
0.703998
0.696294
0.687137
0.631546
0.531287
0.550672
0.649322
0.712359
0.721337
0.727566
0.735793
0.746737
0.758892
0.772098
0.785882
0.800185
0.81475
0.829429
0.843981
0.858043
0.870887
0.881122
0.8871
0.88902
0.889256
0.889256
0.889021
0.887106
0.881128
0.870862
0.857934
0.843716
0.828917
0.813883
0.798834
0.783888
0.769257
0.754957
0.741289
0.728664
0.717763
0.710323
0.701299
0.642723
0.542338
0.561891
0.661989
0.728393
0.737901
0.744249
0.752331
0.762815
0.774662
0.78754
0.801232
0.815461
0.830041
0.844763
0.859398
0.873584
0.88661
0.897103
0.903365
0.905452
0.905723
0.905723
0.905454
0.903371
0.897093
0.88653
0.873353
0.85892
0.843923
0.828706
0.813469
0.798383
0.783553
0.769185
0.755353
0.742641
0.731614
0.724294
0.715495
0.65407
0.554496
0.572042
0.67536
0.744322
0.754141
0.760906
0.769016
0.779111
0.790553
0.803149
0.816669
0.830855
0.845447
0.860223
0.874941
0.889242
0.902428
0.913144
0.919655
0.921893
0.922196
0.922196
0.921895
0.919655
0.913102
0.902259
0.888839
0.874188
0.858989
0.843578
0.82816
0.812887
0.797911
0.783376
0.769469
0.756595
0.745445
0.73803
0.729529
0.665503
0.566395
0.580499
0.689763
0.760356
0.770363
0.777538
0.785723
0.79539
0.806419
0.81867
0.832014
0.846147
0.860771
0.875621
0.890438
0.904857
0.918191
0.929097
0.935816
0.938183
0.938516
0.938516
0.938184
0.935803
0.929001
0.917895
0.904238
0.889368
0.87396
0.858349
0.842736
0.827278
0.81212
0.797435
0.78341
0.77039
0.759084
0.751416
0.743182
0.677022
0.578363
0.592242
0.705428
0.776758
0.786781
0.793959
0.802211
0.811404
0.821963
0.833841
0.846984
0.861064
0.875735
0.890688
0.905631
0.920186
0.933666
0.944737
0.951622
0.954092
0.954448
0.954448
0.954089
0.951585
0.944562
0.933214
0.919326
0.904233
0.88861
0.872788
0.856969
0.841307
0.825955
0.811089
0.796919
0.78375
0.772267
0.764227
0.756114
0.688339
0.589235
0.588326
0.720119
0.791365
0.802746
0.809898
0.818005
0.826594
0.836634
0.848128
0.861081
0.875124
0.889872
0.904965
0.92007
0.934787
0.948421
0.959639
0.966652
0.969193
0.969566
0.969566
0.969184
0.966579
0.959367
0.947797
0.933683
0.918365
0.902514
0.886465
0.870417
0.854525
0.838944
0.823857
0.809486
0.796126
0.784436
0.77595
0.767712
0.698695
0.597742
0.58658
0.729547
0.802337
0.814944
0.824434
0.832187
0.839779
0.849269
0.860474
0.873297
0.887361
0.902235
0.91752
0.932839
0.94776
0.961567
0.972919
0.980023
0.982606
0.982987
0.982986
0.982589
0.979906
0.972539
0.960772
0.946439
0.930888
0.914793
0.898486
0.88217
0.866
0.850128
0.834743
0.820076
0.806425
0.794441
0.785493
0.776834
0.706691
0.602618
0.582289
0.734488
0.812031
0.825364
0.833865
0.841207
0.84909
0.858259
0.869195
0.882009
0.896166
0.911236
0.926758
0.942325
0.957478
0.971477
0.982961
0.990127
0.992724
0.993106
0.993105
0.992698
0.989963
0.982482
0.97055
0.956017
0.940235
0.923882
0.907291
0.890667
0.874165
0.85794
0.842183
0.827129
0.813091
0.800716
0.79136
0.782139
0.711019
0.60427
0.582676
0.732261
0.820013
0.834371
0.841509
0.847147
0.854419
0.8629
0.873774
0.886386
0.900591
0.91579
0.931495
0.947255
0.962585
0.976722
0.988286
0.99547
0.998054
0.998429
0.998427
0.998015
0.995254
0.987708
0.975669
0.96099
0.94503
0.928466
0.911639
0.894754
0.877972
0.861452
0.845391
0.830028
0.815689
0.80302
0.793421
0.783856
0.712258
0.604524
0.655114
0.734927
0.830086
0.847601
0.848637
0.85085
0.857206
0.864956
0.875523
0.887807
0.901905
0.917071
0.932788
0.948577
0.963939
0.978103
0.989677
0.996846
0.999416
0.999789
0.999787
0.999373
0.996605
0.989039
0.976964
0.962233
0.946205
0.929562
0.912645
0.895662
0.878779
0.862158
0.845996
0.830538
0.816111
0.803363
0.793706
0.78407
0.712389
0.604537
)
;

boundaryField
{
    inlet
    {
        type            fixedValue;
        value           uniform 1;
    }
    outlet
    {
        type            zeroGradient;
    }
    obstacle
    {
        type            zeroGradient;
    }
    empty
    {
        type            empty;
    }
}


// ************************************************************************* //
