/*--------------------------------*- C++ -*----------------------------------*\
| =========                 |                                                 |
| \\      /  F ield         | OpenFOAM: The Open Source CFD Toolbox           |
|  \\    /   O peration     | Version:  v1912                                 |
|   \\  /    A nd           | Website:  www.openfoam.com                      |
|    \\/     M anipulation  |                                                 |
\*---------------------------------------------------------------------------*/
FoamFile
{
    version     2.0;
    format      ascii;
    class       volScalarField;
    location    "4.4";
    object      p;
}
// * * * * * * * * * * * * * * * * * * * * * * * * * * * * * * * * * * * * * //

dimensions      [1 -1 -2 0 0 0 0];


internalField   nonuniform List<scalar> 
1900
(
33261.5
12729.7
11063.3
10988.5
10833.9
10655
10463.8
10259.6
10062.9
9868.9
33261.5
12729.8
11063.4
10988.6
10834.2
10655.6
10465.7
10263.9
10056.5
9846.49
33261.5
12730
11063.4
10988.6
10834.1
10654.7
10463.5
10259.8
10049.5
9839.49
33261.5
12729.8
11063.4
10988.6
10834.2
10655.6
10465.7
10263.9
10056.5
9846.49
33261.5
12729.7
11063.3
10988.5
10833.9
10655
10463.8
10259.6
10062.9
9868.9
9773.88
9622.5
9448.62
9210.3
9155.46
9667.33
9487.91
9305.49
9082.23
8800.61
9656.66
9482.84
9292.86
9072
8839.64
9667.33
9487.91
9305.49
9082.23
8800.61
9773.88
9622.5
9448.62
9210.3
9155.46
7388.77
6698.66
6024.86
5357.71
4710.24
7552.51
6773.04
6062.74
5403.11
4728.25
7553.45
6755.26
6059.82
5389.16
4677.18
7552.51
6773.04
6062.74
5403.11
4728.25
7388.77
6698.66
6024.86
5357.71
4710.24
3606.52
2097.92
2360.43
2580.28
2455.77
2305.34
2161.87
1988.55
1838.12
1711.97
1640.39
1597.84
1566.91
1541.55
1520.51
1503.28
1489.27
1477.81
1468.51
1460.74
1454.5
1449.52
1445.38
1442.19
1439.79
1438.14
1437.18
1436.79
1436.66
1436.84
1436.84
1438.9
1441.63
1449.6
1456.46
1467.98
1476
1480.64
1713.6
6824.37
3592.31
2188.38
2389.1
2618
2480.02
2314.4
2166.88
1991.45
1838.83
1712.37
1640.48
1597.89
1566.98
1541.61
1520.55
1503.31
1489.29
1477.83
1468.52
1460.75
1454.51
1449.52
1445.38
1442.19
1439.78
1438.14
1437.18
1436.78
1436.65
1436.82
1436.82
1438.87
1441.6
1449.63
1456.53
1468.18
1476.23
1481
1713.8
6827.75
3571.71
2360.73
2532.48
2676.49
2498.57
2318.54
2169.19
1992.56
1839.31
1712.47
1640.56
1597.94
1567.02
1541.64
1520.58
1503.33
1489.31
1477.84
1468.54
1460.76
1454.52
1449.53
1445.39
1442.19
1439.79
1438.15
1437.18
1436.78
1436.66
1436.83
1436.84
1438.92
1441.7
1449.83
1456.89
1468.84
1477.32
1482.6
1715.41
6914.62
3592.31
2188.38
2389.1
2618
2480.02
2314.4
2166.88
1991.45
1838.83
1712.37
1640.48
1597.89
1566.98
1541.61
1520.55
1503.31
1489.29
1477.83
1468.52
1460.75
1454.51
1449.52
1445.38
1442.19
1439.78
1438.14
1437.18
1436.78
1436.65
1436.82
1436.82
1438.87
1441.6
1449.63
1456.53
1468.18
1476.23
1481
1713.8
6827.75
3606.52
2097.92
2360.43
2580.28
2455.77
2305.34
2161.87
1988.55
1838.12
1711.97
1640.39
1597.84
1566.91
1541.55
1520.51
1503.28
1489.27
1477.81
1468.51
1460.74
1454.5
1449.52
1445.38
1442.19
1439.79
1438.14
1437.18
1436.79
1436.66
1436.84
1436.84
1438.9
1441.63
1449.6
1456.46
1467.98
1476
1480.64
1713.6
6824.37
3487.31
1846.35
2112.2
2414.54
2382.39
2272.29
2141.29
1975.92
1828.93
1708.83
1639.27
1597.01
1566.11
1540.88
1519.99
1502.88
1488.94
1477.53
1468.26
1460.52
1454.3
1449.33
1445.2
1442.01
1439.6
1437.95
1436.98
1436.56
1436.42
1436.62
1436.61
1438.68
1441.38
1449.13
1455.98
1467.14
1475.33
1479.43
1715.22
7128.72
3692.17
1603.11
1926.71
2185.53
2237.61
2186.75
2086.44
1941.63
1805.56
1700.76
1635.92
1594.89
1564.25
1539.36
1518.82
1501.98
1488.21
1476.91
1467.71
1460.02
1453.85
1448.92
1444.82
1441.65
1439.24
1437.58
1436.58
1436.15
1435.98
1436.23
1436.23
1438.31
1440.95
1448.3
1454.97
1465.36
1473.51
1476.68
1702.95
6740.35
4040.78
1540.43
1830.24
2033.02
2119.15
2096.17
2014.28
1894.28
1777.08
1687.37
1630.18
1591.23
1561.41
1537.13
1517.13
1500.67
1487.15
1476.01
1466.93
1459.33
1453.24
1448.37
1444.31
1441.16
1438.75
1437.06
1436.01
1435.55
1435.34
1435.66
1435.67
1437.75
1440.26
1446.98
1453.4
1462.7
1470.61
1472.58
1689.4
6639.73
4279.28
1534.39
1764.57
1933.21
2021.67
2007.14
1938.47
1843.3
1745.42
1672.4
1622.36
1586.25
1557.73
1534.37
1515.07
1499.1
1485.9
1474.97
1466.06
1458.58
1452.6
1447.82
1443.8
1440.67
1438.26
1436.53
1435.41
1434.89
1434.63
1435.03
1435.05
1437.11
1439.43
1445.42
1451.48
1459.67
1467.13
1468.66
1682.88
6529.05
4538.46
1529.42
1730.56
1856.72
1937.66
1922.82
1866.1
1792.18
1715.03
1656.24
1613.3
1580.24
1553.44
1531.25
1512.8
1497.39
1484.57
1473.91
1465.21
1457.9
1452.06
1447.38
1443.43
1440.32
1437.88
1436.09
1434.86
1434.28
1433.93
1434.43
1434.43
1436.42
1438.45
1443.57
1449.14
1456.16
1462.84
1464.33
1672.2
6419.82
4761.39
1520.48
1692.33
1791.4
1862.19
1847.48
1804.12
1746.94
1687.99
1640.88
1603.9
1573.89
1548.95
1528.05
1510.47
1495.67
1483.26
1472.93
1464.49
1457.38
1451.7
1447.15
1443.27
1440.19
1437.72
1435.85
1434.51
1433.9
1433.51
1434.19
1434.26
1436.24
1438.08
1442.42
1447.63
1453.88
1460.11
1462.08
1664.76
6268.61
5136.8
1510.5
1658.66
1736.6
1792.8
1781.17
1749.94
1707.34
1663.12
1625.69
1594.01
1567.12
1544.21
1524.68
1508.04
1493.87
1481.95
1471.99
1463.86
1456.99
1451.52
1447.11
1443.3
1440.24
1437.72
1435.77
1434.28
1433.63
1433.15
1433.95
1433.99
1435.82
1437.31
1440.7
1445.25
1450.69
1456.32
1459.39
1654.32
6138.77
4912.3
1491.02
1622.55
1684.43
1729.79
1725.78
1706.05
1676.16
1643.47
1613.32
1585.77
1561.44
1540.17
1521.72
1505.8
1492.16
1480.66
1471.07
1463.27
1456.66
1451.41
1447.18
1443.47
1440.47
1437.96
1436.01
1434.52
1434.07
1433.74
1434.88
1435.1
1436.95
1438.23
1440.79
1444.63
1449.47
1454.67
1458.17
1639.49
5957.3
4834.94
1473.2
1591.25
1641.62
1677.79
1680.93
1668.95
1649.38
1625.19
1600.8
1576.95
1555.16
1535.53
1518.18
1503.02
1489.97
1478.96
1469.79
1462.37
1456.07
1451.07
1447.04
1443.44
1440.49
1437.98
1436.01
1434.47
1434.18
1433.92
1435.3
1435.51
1437.16
1437.97
1439.47
1442
1446.08
1450.52
1455.19
1622.46
5787.36
4716.01
1455.95
1561.85
1603.06
1634.43
1643.62
1638.83
1628.13
1610.54
1590.95
1570.25
1550.65
1532.27
1515.69
1500.99
1488.28
1477.55
1468.69
1461.58
1455.55
1450.84
1447.09
1443.72
1440.97
1438.62
1436.83
1435.43
1435.5
1435.45
1437.15
1437.44
1438.97
1439.35
1439.86
1440.89
1444.4
1448.26
1452.73
1590.46
5554.99
4592.07
1441.78
1538.58
1572.38
1600.94
1613.07
1614.22
1608.9
1595.96
1580.28
1562.37
1544.91
1527.8
1512.14
1498.09
1485.94
1475.7
1467.27
1460.55
1454.83
1450.39
1446.87
1443.66
1441.03
1438.72
1436.98
1435.55
1435.76
1435.68
1437.42
1437.43
1438.52
1438.15
1437.41
1436.83
1439.85
1443.47
1448.55
1555.2
5316.52
4434.46
1424.52
1514.01
1543.22
1572.39
1585.91
1592.7
1591.83
1583.14
1571.3
1556.09
1540.82
1524.97
1510.36
1497.13
1485.72
1476.1
1468.18
1461.89
1456.5
1452.36
1449.1
1446.04
1443.5
1441.16
1439.37
1437.71
1437.87
1437.55
1439.12
1438.59
1438.97
1437.29
1434.58
1431.43
1432.9
1435.8
1438.9
1499.64
5033.39
4235.54
1406.79
1490.89
1517.93
1549.21
1563.98
1574.76
1577.14
1571.12
1562.98
1550.21
1537.04
1522.29
1508.85
1496.52
1485.93
1477.02
1469.74
1464
1458.99
1455.16
1452.14
1449.17
1446.62
1444.13
1442.18
1440.15
1440.17
1439.49
1440.75
1439.32
1438.33
1434.89
1429.87
1424.17
1424.16
1427.17
1428.52
1453.3
4721.06
4007.89
1390.44
1470.71
1498.19
1525.38
1540.87
1556.07
1561.92
1560.29
1555.69
1545.21
1534.45
1521.18
1509.45
1498.53
1489.37
1481.81
1475.77
1471.06
1466.72
1463.24
1460.25
1456.94
1453.85
1450.63
1447.98
1445.01
1444.23
1442.52
1442.9
1440.24
1437.77
1432.35
1424.66
1415.54
1411.9
1412.95
1412.36
1409.26
4372.48
3749.91
1367.63
1444.91
1477.77
1505.06
1523.86
1542.48
1550.08
1551.83
1550.53
1542.83
1534.06
1521.67
1511.15
1501.18
1493.09
1486.47
1481.21
1477.15
1473.24
1470.12
1467.41
1464.18
1460.99
1457.47
1454.59
1451.12
1449.96
1447.3
1446.63
1442.42
1437.59
1429.71
1418.74
1406.64
1400.39
1398.1
1396.29
1376.04
4002.81
3471.62
1354.14
1428.06
1462.48
1488
1513.46
1532.88
1541.82
1549.11
1548.67
1541.26
1533.8
1522.61
1513.75
1505.27
1498.88
1493.96
1490.3
1487.58
1484.38
1481.45
1478.45
1474.43
1470.3
1465.74
1462.12
1457.84
1456.2
1452.85
1451.74
1447.25
1441.5
1432.99
1419.32
1404.9
1392.66
1387.45
1385.65
1359.04
3625.35
3285.93
1354.11
1423.96
1456.23
1484.87
1516.77
1533.73
1543
1556.14
1551.16
1545.28
1537.63
1525.76
1517.19
1509.25
1504.23
1500.61
1497.99
1495.79
1493.1
1490.82
1488.04
1483.74
1479.09
1473.68
1469.53
1464.63
1462.64
1458.58
1456.76
1451.88
1444.61
1435.62
1419.64
1403.49
1388.88
1381.08
1380.75
1356.07
3374.58
3058.39
1368.55
1432.01
1455.86
1481.77
1512.94
1530.23
1545.78
1556.79
1552.44
1547.12
1538.03
1525.9
1517.3
1509.34
1505.13
1502.46
1501.12
1500.26
1498.3
1495.8
1492.37
1487.32
1482.31
1476.73
1472.97
1468.86
1466.95
1463.73
1461.46
1457.5
1448.59
1438.87
1420.71
1402.04
1386.79
1379.88
1380.5
1365.47
3061.8
5459.18
1558.35
1479.6
1475.23
1494.85
1535.73
1581.09
1641.69
1690.96
1725.89
1749.67
1758.81
1762.32
1761.27
1759.17
1756.16
1754.97
1749.03
1748.1
1741.02
1738.26
1740.25
1735.25
1736.13
1727.81
1722.37
1712.54
1699.87
1685.54
1658.67
1633.36
1577.87
1528.08
1467.85
1419.06
1384
1372.06
1378.63
1503.28
5270.13
47209
5760.99
3579.77
3919.19
4192.57
4574.57
4907.62
5229.16
5490.14
5731.59
5947.42
6123.16
6285.66
6426.04
6548.45
6656.14
6752.57
6841.72
6873.64
6896.73
6890.52
6846.71
6814.69
6686.3
6588.97
6423.44
6282.01
6084.25
5897.11
5642.02
5390.71
5091.09
4776.52
4427.99
4062.12
3675.46
3412.52
3073.83
5146.05
42968.2
47209
5760.99
3579.77
3919.19
4192.57
4574.57
4907.62
5229.16
5490.14
5731.59
5947.42
6123.16
6285.66
6426.04
6548.45
6656.14
6752.57
6841.72
6873.64
6896.73
6890.52
6846.71
6814.69
6686.3
6588.97
6423.44
6282.01
6084.25
5897.11
5642.02
5390.71
5091.09
4776.52
4427.99
4062.12
3675.46
3412.52
3073.83
5146.05
42968.2
5459.18
1558.35
1479.6
1475.23
1494.85
1535.73
1581.09
1641.69
1690.96
1725.89
1749.67
1758.81
1762.32
1761.27
1759.17
1756.16
1754.97
1749.03
1748.1
1741.02
1738.26
1740.25
1735.25
1736.13
1727.81
1722.37
1712.54
1699.87
1685.54
1658.67
1633.36
1577.87
1528.08
1467.85
1419.06
1384
1372.06
1378.63
1503.28
5270.13
3058.39
1368.55
1432.01
1455.86
1481.77
1512.94
1530.23
1545.78
1556.79
1552.44
1547.12
1538.03
1525.9
1517.3
1509.34
1505.13
1502.46
1501.12
1500.26
1498.3
1495.8
1492.37
1487.32
1482.31
1476.73
1472.97
1468.86
1466.95
1463.73
1461.46
1457.5
1448.59
1438.87
1420.71
1402.04
1386.79
1379.88
1380.5
1365.47
3061.8
3285.93
1354.11
1423.96
1456.23
1484.87
1516.77
1533.73
1543
1556.14
1551.16
1545.28
1537.63
1525.76
1517.19
1509.25
1504.23
1500.61
1497.99
1495.79
1493.1
1490.82
1488.04
1483.74
1479.09
1473.68
1469.53
1464.63
1462.64
1458.58
1456.76
1451.88
1444.61
1435.62
1419.64
1403.49
1388.88
1381.08
1380.75
1356.07
3374.58
3471.62
1354.14
1428.06
1462.48
1488
1513.46
1532.88
1541.82
1549.11
1548.67
1541.26
1533.8
1522.61
1513.75
1505.27
1498.88
1493.96
1490.3
1487.58
1484.38
1481.45
1478.45
1474.43
1470.3
1465.74
1462.12
1457.84
1456.2
1452.85
1451.74
1447.25
1441.5
1432.99
1419.32
1404.9
1392.66
1387.45
1385.65
1359.04
3625.35
3749.91
1367.63
1444.91
1477.77
1505.06
1523.86
1542.48
1550.08
1551.83
1550.53
1542.83
1534.06
1521.67
1511.15
1501.18
1493.09
1486.47
1481.21
1477.15
1473.24
1470.12
1467.41
1464.18
1460.99
1457.47
1454.59
1451.12
1449.96
1447.3
1446.63
1442.42
1437.59
1429.71
1418.74
1406.64
1400.39
1398.1
1396.29
1376.04
4002.81
4007.89
1390.44
1470.71
1498.19
1525.38
1540.87
1556.07
1561.92
1560.29
1555.69
1545.21
1534.45
1521.18
1509.45
1498.53
1489.37
1481.81
1475.77
1471.06
1466.72
1463.24
1460.25
1456.94
1453.85
1450.63
1447.98
1445.01
1444.23
1442.52
1442.9
1440.24
1437.77
1432.35
1424.66
1415.54
1411.9
1412.95
1412.36
1409.26
4372.48
4235.54
1406.79
1490.89
1517.93
1549.21
1563.98
1574.76
1577.14
1571.12
1562.98
1550.21
1537.04
1522.29
1508.85
1496.52
1485.93
1477.02
1469.74
1464
1458.99
1455.16
1452.14
1449.17
1446.62
1444.13
1442.18
1440.15
1440.17
1439.49
1440.75
1439.32
1438.33
1434.89
1429.87
1424.17
1424.16
1427.17
1428.52
1453.3
4721.06
4434.46
1424.52
1514.01
1543.22
1572.39
1585.91
1592.7
1591.83
1583.14
1571.3
1556.09
1540.82
1524.97
1510.36
1497.13
1485.72
1476.1
1468.18
1461.89
1456.5
1452.36
1449.1
1446.04
1443.5
1441.16
1439.37
1437.71
1437.87
1437.55
1439.12
1438.59
1438.97
1437.29
1434.58
1431.43
1432.9
1435.8
1438.9
1499.64
5033.39
4592.07
1441.78
1538.58
1572.38
1600.94
1613.07
1614.22
1608.9
1595.96
1580.28
1562.37
1544.91
1527.8
1512.14
1498.09
1485.94
1475.7
1467.27
1460.55
1454.83
1450.39
1446.87
1443.66
1441.03
1438.72
1436.98
1435.55
1435.76
1435.68
1437.42
1437.43
1438.52
1438.15
1437.41
1436.83
1439.85
1443.47
1448.55
1555.2
5316.52
4716.01
1455.95
1561.85
1603.06
1634.43
1643.62
1638.83
1628.13
1610.54
1590.95
1570.25
1550.65
1532.27
1515.69
1500.99
1488.28
1477.55
1468.69
1461.58
1455.55
1450.84
1447.09
1443.72
1440.97
1438.62
1436.83
1435.43
1435.5
1435.45
1437.15
1437.44
1438.97
1439.35
1439.86
1440.89
1444.4
1448.26
1452.73
1590.46
5554.99
4834.94
1473.2
1591.25
1641.62
1677.79
1680.93
1668.95
1649.38
1625.19
1600.8
1576.95
1555.16
1535.53
1518.18
1503.02
1489.97
1478.96
1469.79
1462.37
1456.07
1451.07
1447.04
1443.44
1440.49
1437.98
1436.01
1434.47
1434.18
1433.92
1435.3
1435.51
1437.16
1437.97
1439.47
1442
1446.08
1450.52
1455.19
1622.46
5787.36
4912.3
1491.02
1622.55
1684.43
1729.79
1725.78
1706.05
1676.16
1643.47
1613.32
1585.77
1561.44
1540.17
1521.72
1505.8
1492.16
1480.66
1471.07
1463.27
1456.66
1451.41
1447.18
1443.47
1440.47
1437.96
1436.01
1434.52
1434.07
1433.74
1434.88
1435.1
1436.95
1438.23
1440.79
1444.63
1449.47
1454.67
1458.17
1639.49
5957.3
5136.8
1510.5
1658.66
1736.6
1792.8
1781.17
1749.94
1707.34
1663.12
1625.69
1594.01
1567.12
1544.21
1524.68
1508.04
1493.87
1481.95
1471.99
1463.86
1456.99
1451.52
1447.11
1443.3
1440.24
1437.72
1435.77
1434.28
1433.63
1433.15
1433.95
1433.99
1435.82
1437.31
1440.7
1445.25
1450.69
1456.32
1459.39
1654.32
6138.77
4761.39
1520.48
1692.33
1791.4
1862.19
1847.48
1804.12
1746.94
1687.99
1640.88
1603.9
1573.89
1548.95
1528.05
1510.47
1495.67
1483.26
1472.93
1464.49
1457.38
1451.7
1447.15
1443.27
1440.19
1437.72
1435.85
1434.51
1433.9
1433.51
1434.19
1434.26
1436.24
1438.08
1442.42
1447.63
1453.88
1460.11
1462.08
1664.76
6268.61
4538.46
1529.42
1730.56
1856.72
1937.66
1922.82
1866.1
1792.18
1715.03
1656.24
1613.3
1580.24
1553.44
1531.25
1512.8
1497.39
1484.57
1473.91
1465.21
1457.9
1452.06
1447.38
1443.43
1440.32
1437.88
1436.09
1434.86
1434.28
1433.93
1434.43
1434.43
1436.42
1438.45
1443.57
1449.14
1456.16
1462.84
1464.33
1672.2
6419.82
4279.28
1534.39
1764.57
1933.21
2021.67
2007.14
1938.47
1843.3
1745.42
1672.4
1622.36
1586.25
1557.73
1534.37
1515.07
1499.1
1485.9
1474.97
1466.06
1458.58
1452.6
1447.82
1443.8
1440.67
1438.26
1436.53
1435.41
1434.89
1434.63
1435.03
1435.05
1437.11
1439.43
1445.42
1451.48
1459.67
1467.13
1468.66
1682.88
6529.05
4040.78
1540.43
1830.24
2033.02
2119.15
2096.17
2014.28
1894.28
1777.08
1687.37
1630.18
1591.23
1561.41
1537.13
1517.13
1500.67
1487.15
1476.01
1466.93
1459.33
1453.24
1448.37
1444.31
1441.16
1438.75
1437.06
1436.01
1435.55
1435.34
1435.66
1435.67
1437.75
1440.26
1446.98
1453.4
1462.7
1470.61
1472.58
1689.4
6639.73
3692.17
1603.11
1926.71
2185.53
2237.61
2186.75
2086.44
1941.63
1805.56
1700.76
1635.92
1594.89
1564.25
1539.36
1518.82
1501.98
1488.21
1476.91
1467.71
1460.02
1453.85
1448.92
1444.82
1441.65
1439.24
1437.58
1436.58
1436.15
1435.98
1436.23
1436.23
1438.31
1440.95
1448.3
1454.97
1465.36
1473.51
1476.68
1702.95
6740.35
3487.31
1846.35
2112.2
2414.54
2382.39
2272.29
2141.29
1975.92
1828.93
1708.83
1639.27
1597.01
1566.11
1540.88
1519.99
1502.88
1488.94
1477.53
1468.26
1460.52
1454.3
1449.33
1445.2
1442.01
1439.6
1437.95
1436.98
1436.56
1436.42
1436.62
1436.61
1438.68
1441.38
1449.13
1455.98
1467.14
1475.33
1479.43
1715.22
7128.72
)
;

boundaryField
{
    inlet
    {
        type            fixedValue;
        value           uniform 10000;
    }
    outlet
    {
        type            fixedValue;
        value           uniform 1000;
    }
    obstacle
    {
        type            zeroGradient;
    }
    empty
    {
        type            empty;
    }
}


// ************************************************************************* //
