/*--------------------------------*- C++ -*----------------------------------*\
| =========                 |                                                 |
| \\      /  F ield         | OpenFOAM: The Open Source CFD Toolbox           |
|  \\    /   O peration     | Version:  v1912                                 |
|   \\  /    A nd           | Website:  www.openfoam.com                      |
|    \\/     M anipulation  |                                                 |
\*---------------------------------------------------------------------------*/
FoamFile
{
    version     2.0;
    format      ascii;
    class       volScalarField;
    location    "4.4";
    object      T;
}
// * * * * * * * * * * * * * * * * * * * * * * * * * * * * * * * * * * * * * //

dimensions      [0 0 0 1 0 0 0];


internalField   nonuniform List<scalar> 
1900
(
1.1707
0.980542
1.00388
1.0214
1.02301
1.02017
1.0153
1.01053
1.00651
1.00104
1.1707
0.980546
1.00388
1.0214
1.02302
1.0202
1.01536
1.01063
1.00618
1.0004
1.1707
0.98055
1.00388
1.0214
1.02302
1.02018
1.01531
1.0105
1.00592
1.00015
1.1707
0.980546
1.00388
1.0214
1.02302
1.0202
1.01536
1.01063
1.00618
1.0004
1.1707
0.980542
1.00388
1.0214
1.02301
1.02017
1.0153
1.01053
1.00651
1.00104
0.995752
0.985119
0.968163
0.946795
0.929478
0.992763
0.98099
0.96406
0.943116
0.918931
0.992397
0.98077
0.963768
0.943027
0.92013
0.992763
0.98099
0.96406
0.943116
0.918931
0.995752
0.985119
0.968163
0.946795
0.929478
0.855057
0.808692
0.768158
0.734424
0.711662
0.859448
0.811321
0.769766
0.736338
0.711137
0.85896
0.810689
0.769803
0.735838
0.708056
0.859448
0.811321
0.769766
0.736338
0.711137
0.855057
0.808692
0.768158
0.734424
0.711662
0.684133
0.607992
0.649365
0.683226
0.672587
0.657888
0.64536
0.630402
0.616438
0.603994
0.596651
0.592176
0.588868
0.586122
0.583821
0.581925
0.580374
0.5791
0.57806
0.577186
0.57648
0.575913
0.575437
0.575067
0.574787
0.574596
0.574486
0.574443
0.574433
0.57446
0.574465
0.574705
0.57502
0.575932
0.576704
0.578014
0.579116
0.578886
0.541043
0.440181
0.675495
0.614798
0.651592
0.687019
0.675002
0.658683
0.645756
0.630648
0.616504
0.604036
0.596664
0.592185
0.588879
0.586131
0.583829
0.581931
0.580379
0.579105
0.578065
0.57719
0.576484
0.575917
0.575441
0.57507
0.574789
0.574598
0.574488
0.574445
0.574435
0.57446
0.574465
0.574704
0.57502
0.575943
0.576717
0.578039
0.57915
0.578946
0.541439
0.440803
0.669831
0.626373
0.662514
0.692238
0.676771
0.659033
0.645942
0.630743
0.616549
0.604047
0.596672
0.59219
0.588884
0.586135
0.583832
0.581934
0.580382
0.579107
0.578067
0.577192
0.576486
0.575919
0.575443
0.575072
0.574791
0.5746
0.57449
0.574447
0.574437
0.574463
0.574469
0.574711
0.575032
0.57597
0.576762
0.578115
0.579278
0.579138
0.541901
0.442686
0.675495
0.614798
0.651592
0.687019
0.675002
0.658683
0.645756
0.630648
0.616504
0.604036
0.596664
0.592185
0.588879
0.586131
0.583829
0.581931
0.580379
0.579105
0.578065
0.57719
0.576484
0.575917
0.575441
0.57507
0.574789
0.574598
0.574488
0.574445
0.574435
0.57446
0.574465
0.574704
0.57502
0.575943
0.576717
0.578039
0.57915
0.578946
0.541439
0.440803
0.684133
0.607992
0.649365
0.683226
0.672587
0.657888
0.64536
0.630402
0.616438
0.603994
0.596651
0.592176
0.588868
0.586122
0.583821
0.581925
0.580374
0.5791
0.57806
0.577186
0.57648
0.575913
0.575437
0.575067
0.574787
0.574596
0.574486
0.574443
0.574433
0.57446
0.574465
0.574705
0.57502
0.575932
0.576704
0.578014
0.579116
0.578886
0.541043
0.440181
0.588865
0.567301
0.629639
0.669949
0.665972
0.655007
0.643682
0.629294
0.615555
0.603668
0.596526
0.59208
0.588774
0.586041
0.583757
0.581873
0.58033
0.579061
0.578025
0.577153
0.57645
0.575885
0.57541
0.575039
0.574758
0.574566
0.574454
0.57441
0.574398
0.574427
0.574431
0.574672
0.574983
0.575872
0.576644
0.577914
0.579024
0.578749
0.54088
0.445164
0.477388
0.551581
0.623555
0.6506
0.653231
0.647831
0.639033
0.626169
0.613279
0.602845
0.59617
0.59185
0.588569
0.585871
0.583624
0.581769
0.580245
0.578987
0.577959
0.577094
0.576396
0.575835
0.575363
0.574994
0.574713
0.57452
0.574405
0.574358
0.574343
0.574378
0.574383
0.574626
0.57493
0.575773
0.576529
0.57771
0.578791
0.578488
0.541081
0.439701
0.448426
0.564409
0.619128
0.636525
0.642655
0.640013
0.632688
0.621749
0.610483
0.60148
0.595572
0.591463
0.588265
0.58563
0.58344
0.581626
0.580129
0.578889
0.577874
0.577018
0.576329
0.575775
0.575307
0.574941
0.57466
0.574463
0.574342
0.574292
0.574272
0.574314
0.57432
0.574563
0.574853
0.575626
0.576353
0.577408
0.578437
0.578099
0.541962
0.440559
0.44372
0.571826
0.61338
0.626683
0.633742
0.632114
0.625804
0.616908
0.607341
0.599951
0.594757
0.590936
0.587872
0.585333
0.583219
0.581457
0.579994
0.578779
0.577782
0.57694
0.576262
0.575718
0.575255
0.574891
0.574609
0.574407
0.574278
0.574221
0.574195
0.574247
0.574253
0.574493
0.574763
0.575451
0.57614
0.577067
0.578032
0.577709
0.542023
0.440423
0.444986
0.571149
0.60901
0.618919
0.625919
0.62442
0.619046
0.611954
0.604292
0.598289
0.593808
0.590299
0.587413
0.584998
0.582973
0.581273
0.579851
0.578665
0.577692
0.576868
0.576207
0.575674
0.575218
0.574856
0.57457
0.574361
0.57422
0.574156
0.574119
0.574181
0.574185
0.574417
0.574654
0.575243
0.575876
0.57667
0.57754
0.57726
0.542236
0.440525
0.446906
0.567736
0.604232
0.612309
0.618765
0.617319
0.613106
0.607488
0.601551
0.5967
0.592819
0.589621
0.586929
0.58465
0.582719
0.581084
0.579709
0.578558
0.577614
0.576813
0.57617
0.575652
0.575203
0.574844
0.574554
0.574337
0.574182
0.574114
0.574072
0.574155
0.574168
0.574399
0.574613
0.575114
0.575708
0.576416
0.577234
0.577017
0.542133
0.440174
0.453216
0.564707
0.600218
0.606783
0.612064
0.610896
0.607789
0.603515
0.599
0.595114
0.591771
0.588894
0.586414
0.584281
0.582451
0.580886
0.579563
0.578455
0.577546
0.576772
0.576151
0.575649
0.575209
0.574851
0.574556
0.574327
0.574156
0.574083
0.57403
0.574128
0.574136
0.57435
0.574525
0.574916
0.575438
0.576057
0.576806
0.576738
0.543032
0.440817
0.447925
0.561734
0.596146
0.601443
0.605809
0.605391
0.603391
0.600345
0.596971
0.593818
0.590896
0.588284
0.585976
0.583957
0.582204
0.580697
0.579421
0.578353
0.577481
0.576736
0.576141
0.575659
0.57523
0.574879
0.574585
0.574357
0.574184
0.574135
0.574099
0.574236
0.574266
0.574483
0.574635
0.574933
0.575375
0.575928
0.576622
0.576609
0.543255
0.441237
0.447974
0.560366
0.592674
0.596985
0.60054
0.600855
0.599618
0.597594
0.595067
0.592497
0.589954
0.587605
0.58547
0.583568
0.581897
0.580454
0.579231
0.578211
0.577381
0.576671
0.576105
0.575644
0.575227
0.574882
0.574588
0.574356
0.574177
0.574147
0.57412
0.574284
0.574314
0.574509
0.574608
0.574787
0.575081
0.57555
0.576145
0.576329
0.544938
0.442637
0.446999
0.558279
0.589392
0.59289
0.596046
0.597008
0.596507
0.595386
0.593531
0.591455
0.589239
0.587121
0.585117
0.583297
0.581675
0.580268
0.579077
0.578091
0.577296
0.576616
0.576082
0.575653
0.575262
0.57494
0.574663
0.574452
0.57429
0.574303
0.574299
0.5745
0.57454
0.574721
0.574771
0.574837
0.57496
0.575363
0.575875
0.576087
0.545663
0.443513
0.446453
0.556877
0.586746
0.589572
0.592529
0.593821
0.593941
0.593375
0.591997
0.590324
0.588396
0.586502
0.58463
0.582908
0.581355
0.580008
0.578871
0.577934
0.577182
0.576537
0.576034
0.575632
0.575258
0.574949
0.574676
0.574472
0.574305
0.574335
0.574329
0.574536
0.574543
0.574675
0.574639
0.574563
0.574505
0.574849
0.575314
0.57569
0.54777
0.444938
0.446068
0.555093
0.583961
0.58637
0.589479
0.590947
0.591669
0.59157
0.590637
0.589367
0.587721
0.586061
0.584323
0.582716
0.581253
0.579989
0.578921
0.578041
0.577339
0.576731
0.576262
0.575889
0.575533
0.575234
0.574958
0.574748
0.574555
0.574581
0.574548
0.574735
0.574681
0.574732
0.574547
0.574244
0.57389
0.574054
0.574415
0.574613
0.547629
0.445964
0.445796
0.553693
0.581393
0.583574
0.586969
0.588602
0.589761
0.590008
0.589356
0.588478
0.587089
0.585654
0.584033
0.582551
0.581187
0.580015
0.579027
0.57822
0.577581
0.577017
0.576583
0.576238
0.575893
0.575592
0.5753
0.575071
0.574837
0.574848
0.574776
0.574927
0.574771
0.574665
0.574279
0.573708
0.573063
0.573057
0.57341
0.573465
0.548132
0.446948
0.445907
0.552539
0.579233
0.581424
0.584372
0.586106
0.587752
0.588375
0.588197
0.587696
0.586551
0.585376
0.583916
0.582622
0.581416
0.580404
0.579569
0.578904
0.578383
0.577896
0.577504
0.577163
0.57678
0.576419
0.576043
0.575737
0.575395
0.575316
0.575127
0.575179
0.574884
0.574608
0.573992
0.573112
0.57207
0.571645
0.571735
0.571627
0.547399
0.447696
0.445953
0.550275
0.576446
0.579187
0.582151
0.584267
0.586293
0.587106
0.587292
0.587145
0.586295
0.585334
0.58397
0.58281
0.581709
0.580817
0.580088
0.57951
0.579063
0.578625
0.578275
0.577968
0.577595
0.577224
0.576817
0.576487
0.576089
0.575968
0.575673
0.575608
0.575138
0.574592
0.573695
0.572434
0.57105
0.570321
0.569978
0.569818
0.546124
0.448283
0.446689
0.549605
0.574626
0.577504
0.58029
0.583147
0.585258
0.586213
0.586997
0.586923
0.586104
0.58529
0.58406
0.58309
0.582155
0.581457
0.580922
0.580529
0.580236
0.579882
0.579555
0.579216
0.578754
0.578276
0.57775
0.577338
0.576853
0.57668
0.576309
0.576195
0.575696
0.575041
0.574073
0.572498
0.570846
0.569422
0.568655
0.568636
0.546216
0.449735
0.449611
0.549719
0.57365
0.576197
0.579545
0.583328
0.585236
0.586288
0.587764
0.587228
0.586616
0.585795
0.584498
0.583567
0.582702
0.582169
0.581798
0.581547
0.581337
0.581052
0.580797
0.580473
0.579965
0.579415
0.578784
0.57831
0.577756
0.577538
0.577083
0.576875
0.576313
0.575464
0.574419
0.572554
0.570682
0.568931
0.567583
0.56783
0.546827
0.453764
0.457198
0.551929
0.574655
0.576477
0.579617
0.583178
0.585047
0.586703
0.587915
0.58736
0.586708
0.585658
0.584269
0.583257
0.582323
0.581793
0.581441
0.58125
0.58113
0.580934
0.580654
0.58024
0.579682
0.579143
0.578548
0.578145
0.577722
0.577527
0.57723
0.577011
0.57665
0.57567
0.574617
0.57257
0.57051
0.568775
0.567523
0.567671
0.548647
0.462581
0.423305
0.531841
0.559156
0.559016
0.560215
0.562138
0.562575
0.563181
0.561498
0.559088
0.556407
0.553143
0.55076
0.548455
0.546823
0.54548
0.544524
0.543908
0.543541
0.544294
0.54396
0.542608
0.542334
0.542125
0.542342
0.542406
0.543253
0.543385
0.544898
0.545402
0.547696
0.547545
0.548619
0.547877
0.546905
0.546365
0.546744
0.548534
0.525128
0.426008
0.366388
0.431072
0.471696
0.463618
0.459604
0.457764
0.455772
0.454117
0.451653
0.449416
0.447325
0.44518
0.443477
0.442195
0.441233
0.440609
0.440261
0.440539
0.44028
0.440659
0.440559
0.439863
0.440225
0.439318
0.439835
0.439427
0.440118
0.440384
0.441538
0.442102
0.443427
0.444262
0.445396
0.446327
0.447265
0.448802
0.452864
0.461828
0.42607
0.363502
0.366388
0.431072
0.471696
0.463618
0.459604
0.457764
0.455772
0.454117
0.451653
0.449416
0.447325
0.44518
0.443477
0.442195
0.441233
0.440609
0.440261
0.440539
0.44028
0.440659
0.440559
0.439863
0.440225
0.439318
0.439835
0.439427
0.440118
0.440384
0.441538
0.442102
0.443427
0.444262
0.445396
0.446327
0.447265
0.448802
0.452864
0.461828
0.42607
0.363502
0.423305
0.531841
0.559156
0.559016
0.560215
0.562138
0.562575
0.563181
0.561498
0.559088
0.556407
0.553143
0.55076
0.548455
0.546823
0.54548
0.544524
0.543908
0.543541
0.544294
0.54396
0.542608
0.542334
0.542125
0.542342
0.542406
0.543253
0.543385
0.544898
0.545402
0.547696
0.547545
0.548619
0.547877
0.546905
0.546365
0.546744
0.548534
0.525128
0.426008
0.457198
0.551929
0.574655
0.576477
0.579617
0.583178
0.585047
0.586703
0.587915
0.58736
0.586708
0.585658
0.584269
0.583257
0.582323
0.581793
0.581441
0.58125
0.58113
0.580934
0.580654
0.58024
0.579682
0.579143
0.578548
0.578145
0.577722
0.577527
0.57723
0.577011
0.57665
0.57567
0.574617
0.57257
0.57051
0.568775
0.567523
0.567671
0.548647
0.462581
0.449611
0.549719
0.57365
0.576197
0.579545
0.583328
0.585236
0.586288
0.587764
0.587228
0.586616
0.585795
0.584498
0.583567
0.582702
0.582169
0.581798
0.581547
0.581337
0.581052
0.580797
0.580473
0.579965
0.579415
0.578784
0.57831
0.577756
0.577538
0.577083
0.576875
0.576313
0.575464
0.574419
0.572554
0.570682
0.568931
0.567583
0.56783
0.546827
0.453764
0.446689
0.549605
0.574626
0.577504
0.58029
0.583147
0.585258
0.586213
0.586997
0.586923
0.586104
0.58529
0.58406
0.58309
0.582155
0.581457
0.580922
0.580529
0.580236
0.579882
0.579555
0.579216
0.578754
0.578276
0.57775
0.577338
0.576853
0.57668
0.576309
0.576195
0.575696
0.575041
0.574073
0.572498
0.570846
0.569422
0.568655
0.568636
0.546216
0.449735
0.445953
0.550275
0.576446
0.579187
0.582151
0.584267
0.586293
0.587106
0.587292
0.587145
0.586295
0.585334
0.58397
0.58281
0.581709
0.580817
0.580088
0.57951
0.579063
0.578625
0.578275
0.577968
0.577595
0.577224
0.576817
0.576487
0.576089
0.575968
0.575673
0.575608
0.575138
0.574592
0.573695
0.572434
0.57105
0.570321
0.569978
0.569818
0.546124
0.448283
0.445907
0.552539
0.579233
0.581424
0.584372
0.586106
0.587752
0.588375
0.588197
0.587696
0.586551
0.585376
0.583916
0.582622
0.581416
0.580404
0.579569
0.578904
0.578383
0.577896
0.577504
0.577163
0.57678
0.576419
0.576043
0.575737
0.575395
0.575316
0.575127
0.575179
0.574884
0.574608
0.573992
0.573112
0.57207
0.571645
0.571735
0.571627
0.547399
0.447696
0.445796
0.553693
0.581393
0.583574
0.586969
0.588602
0.589761
0.590008
0.589356
0.588478
0.587089
0.585654
0.584033
0.582551
0.581187
0.580015
0.579027
0.57822
0.577581
0.577017
0.576583
0.576238
0.575893
0.575592
0.5753
0.575071
0.574837
0.574848
0.574776
0.574927
0.574771
0.574665
0.574279
0.573708
0.573063
0.573057
0.57341
0.573465
0.548132
0.446948
0.446068
0.555093
0.583961
0.58637
0.589479
0.590947
0.591669
0.59157
0.590637
0.589367
0.587721
0.586061
0.584323
0.582716
0.581253
0.579989
0.578921
0.578041
0.577339
0.576731
0.576262
0.575889
0.575533
0.575234
0.574958
0.574748
0.574555
0.574581
0.574548
0.574735
0.574681
0.574732
0.574547
0.574244
0.57389
0.574054
0.574415
0.574613
0.547629
0.445964
0.446453
0.556877
0.586746
0.589572
0.592529
0.593821
0.593941
0.593375
0.591997
0.590324
0.588396
0.586502
0.58463
0.582908
0.581355
0.580008
0.578871
0.577934
0.577182
0.576537
0.576034
0.575632
0.575258
0.574949
0.574676
0.574472
0.574305
0.574335
0.574329
0.574536
0.574543
0.574675
0.574639
0.574563
0.574505
0.574849
0.575314
0.57569
0.54777
0.444938
0.446999
0.558279
0.589392
0.59289
0.596046
0.597008
0.596507
0.595386
0.593531
0.591455
0.589239
0.587121
0.585117
0.583297
0.581675
0.580268
0.579077
0.578091
0.577296
0.576616
0.576082
0.575653
0.575262
0.57494
0.574663
0.574452
0.57429
0.574303
0.574299
0.5745
0.57454
0.574721
0.574771
0.574837
0.57496
0.575363
0.575875
0.576087
0.545663
0.443513
0.447974
0.560366
0.592674
0.596985
0.60054
0.600855
0.599618
0.597594
0.595067
0.592497
0.589954
0.587605
0.58547
0.583568
0.581897
0.580454
0.579231
0.578211
0.577381
0.576671
0.576105
0.575644
0.575227
0.574882
0.574588
0.574356
0.574177
0.574147
0.57412
0.574284
0.574314
0.574509
0.574608
0.574787
0.575081
0.57555
0.576145
0.576329
0.544938
0.442637
0.447925
0.561734
0.596146
0.601443
0.605809
0.605391
0.603391
0.600345
0.596971
0.593818
0.590896
0.588284
0.585976
0.583957
0.582204
0.580697
0.579421
0.578353
0.577481
0.576736
0.576141
0.575659
0.57523
0.574879
0.574585
0.574357
0.574184
0.574135
0.574099
0.574236
0.574266
0.574483
0.574635
0.574933
0.575375
0.575928
0.576622
0.576609
0.543255
0.441237
0.453216
0.564707
0.600218
0.606783
0.612064
0.610896
0.607789
0.603515
0.599
0.595114
0.591771
0.588894
0.586414
0.584281
0.582451
0.580886
0.579563
0.578455
0.577546
0.576772
0.576151
0.575649
0.575209
0.574851
0.574556
0.574327
0.574156
0.574083
0.57403
0.574128
0.574136
0.57435
0.574525
0.574916
0.575438
0.576057
0.576806
0.576738
0.543032
0.440817
0.446906
0.567736
0.604232
0.612309
0.618765
0.617319
0.613106
0.607488
0.601551
0.5967
0.592819
0.589621
0.586929
0.58465
0.582719
0.581084
0.579709
0.578558
0.577614
0.576813
0.57617
0.575652
0.575203
0.574844
0.574554
0.574337
0.574182
0.574114
0.574072
0.574155
0.574168
0.574399
0.574613
0.575114
0.575708
0.576416
0.577234
0.577017
0.542133
0.440174
0.444986
0.571149
0.60901
0.618919
0.625919
0.62442
0.619046
0.611954
0.604292
0.598289
0.593808
0.590299
0.587413
0.584998
0.582973
0.581273
0.579851
0.578665
0.577692
0.576868
0.576207
0.575674
0.575218
0.574856
0.57457
0.574361
0.57422
0.574156
0.574119
0.574181
0.574185
0.574417
0.574654
0.575243
0.575876
0.57667
0.57754
0.57726
0.542236
0.440525
0.44372
0.571826
0.61338
0.626683
0.633742
0.632114
0.625804
0.616908
0.607341
0.599951
0.594757
0.590936
0.587872
0.585333
0.583219
0.581457
0.579994
0.578779
0.577782
0.57694
0.576262
0.575718
0.575255
0.574891
0.574609
0.574407
0.574278
0.574221
0.574195
0.574247
0.574253
0.574493
0.574763
0.575451
0.57614
0.577067
0.578032
0.577709
0.542023
0.440423
0.448426
0.564409
0.619128
0.636525
0.642655
0.640013
0.632688
0.621749
0.610483
0.60148
0.595572
0.591463
0.588265
0.58563
0.58344
0.581626
0.580129
0.578889
0.577874
0.577018
0.576329
0.575775
0.575307
0.574941
0.57466
0.574463
0.574342
0.574292
0.574272
0.574314
0.57432
0.574563
0.574853
0.575626
0.576353
0.577408
0.578437
0.578099
0.541962
0.440559
0.477388
0.551581
0.623555
0.6506
0.653231
0.647831
0.639033
0.626169
0.613279
0.602845
0.59617
0.59185
0.588569
0.585871
0.583624
0.581769
0.580245
0.578987
0.577959
0.577094
0.576396
0.575835
0.575363
0.574994
0.574713
0.57452
0.574405
0.574358
0.574343
0.574378
0.574383
0.574626
0.57493
0.575773
0.576529
0.57771
0.578791
0.578488
0.541081
0.439701
0.588865
0.567301
0.629639
0.669949
0.665972
0.655007
0.643682
0.629294
0.615555
0.603668
0.596526
0.59208
0.588774
0.586041
0.583757
0.581873
0.58033
0.579061
0.578025
0.577153
0.57645
0.575885
0.57541
0.575039
0.574758
0.574566
0.574454
0.57441
0.574398
0.574427
0.574431
0.574672
0.574983
0.575872
0.576644
0.577914
0.579024
0.578749
0.54088
0.445164
)
;

boundaryField
{
    inlet
    {
        type            fixedValue;
        value           uniform 1;
    }
    outlet
    {
        type            zeroGradient;
    }
    obstacle
    {
        type            zeroGradient;
    }
    empty
    {
        type            empty;
    }
}


// ************************************************************************* //
