/*--------------------------------*- C++ -*----------------------------------*\
| =========                 |                                                 |
| \\      /  F ield         | OpenFOAM: The Open Source CFD Toolbox           |
|  \\    /   O peration     | Version:  v1912                                 |
|   \\  /    A nd           | Website:  www.openfoam.com                      |
|    \\/     M anipulation  |                                                 |
\*---------------------------------------------------------------------------*/
FoamFile
{
    version     2.0;
    format      ascii;
    class       volVectorField;
    location    "2.46";
    object      grad(rho);
}
// * * * * * * * * * * * * * * * * * * * * * * * * * * * * * * * * * * * * * //

dimensions      [1 -4 0 0 0 0 0];


internalField   nonuniform List<vector> 
1900
(
(30400.4 0.260178 0)
(-21016 0.323988 0)
(-1118.12 0.374154 0)
(389.35 -0.0200961 0)
(541.944 -0.732527 0)
(637.293 -2.61801 0)
(672.107 -9.98137 0)
(584.749 -51.9679 0)
(570.965 -83.1155 0)
(-304.982 -143.281 0)
(30401 0.502848 0)
(-21015.9 0.509677 0)
(-1118.46 0.204276 0)
(388.243 -1.20079 0)
(539.346 -3.79967 0)
(628.044 -6.12302 0)
(622.757 -8.30919 0)
(511.615 -31.1484 0)
(479.651 -23.6246 0)
(374.135 -180.555 0)
(30401.4 4.83169e-09 0)
(-21016.3 -9.9476e-10 0)
(-1119.83 -1.43885e-09 0)
(385.346 -3.12639e-09 0)
(537.021 -4.99156e-09 0)
(632.784 -8.02913e-09 0)
(647.082 -1.01252e-08 0)
(569.433 -3.41061e-09 0)
(421.558 6.80345e-09 0)
(189.541 6.32383e-09 0)
(30401 -0.502848 0)
(-21015.9 -0.509677 0)
(-1118.46 -0.204276 0)
(388.243 1.20079 0)
(539.346 3.79967 0)
(628.044 6.12302 0)
(622.757 8.30919 0)
(511.615 31.1484 0)
(479.651 23.6246 0)
(374.135 180.555 0)
(30400.4 -0.260178 0)
(-21016 -0.323988 0)
(-1118.12 -0.374154 0)
(389.35 0.0200961 0)
(541.944 0.732527 0)
(637.293 2.61801 0)
(672.107 9.98137 0)
(584.749 51.9679 0)
(570.965 83.1155 0)
(-304.982 143.281 0)
(-631.285 480.127 1.47849e-11)
(-455.721 590.064 -1.80377e-11)
(-2697.12 513.303 -2.27338e-11)
(-12121.7 2262.85 0)
(-3942.09 15492.8 -8.7834e-11)
(175.039 364.069 1.48716e-11)
(-624.878 314.984 1.80377e-11)
(-1840.18 20.1109 2.27338e-11)
(-5739.16 908.109 0)
(-2008.4 12745.9 0)
(129.209 4.21563e-09 0)
(-669.24 2.72686e-09 0)
(-2183.14 -3.50337e-09 0)
(-5468.02 1.61487e-09 0)
(5010.79 -2.43192e-09 0)
(175.039 -364.069 1.48716e-11)
(-624.878 -314.984 1.80377e-11)
(-1840.18 -20.1109 2.27338e-11)
(-5739.16 -908.109 0)
(-2008.4 -12745.9 0)
(-631.285 -480.127 -4.45281e-11)
(-455.721 -590.064 -1.80377e-11)
(-2697.12 -513.303 -2.27338e-11)
(-12121.7 -2262.85 -6.0831e-11)
(-3942.09 -15492.8 8.7834e-11)
(19984.7 -3419.91 4.49856e-11)
(7458.3 -415.048 -3.94433e-11)
(8091.01 73.0988 0)
(9915.53 925.441 3.27854e-11)
(-1956.11 -8707.55 -1.5505e-11)
(14729.4 -3246.37 -2.24413e-11)
(8297.11 -71.2463 1.97154e-11)
(8565.89 -46.6794 0)
(5978.01 -2060.42 -2.04928e-11)
(-10559.2 -20357.5 3.65742e-12)
(15976.1 -3.5886e-09 0)
(8240.05 -4.47885e-09 0)
(7288.97 -8.0265e-09 0)
(865.222 -3.81975e-08 8.17229e-12)
(-14148.6 -6.07701e-08 -7.31484e-12)
(14729.4 3246.37 -2.24413e-11)
(8297.11 71.2463 1.97154e-11)
(8565.89 46.6794 0)
(5978.01 2060.42 -2.04928e-11)
(-10559.2 20357.5 3.65742e-12)
(19984.7 3419.91 2.24413e-11)
(7458.3 415.048 1.24999e-14)
(8091.01 -73.0988 0)
(9915.53 -925.441 2.78712e-14)
(-1956.11 8707.55 1.5505e-11)
(-39894.8 -72680.9 0)
(-33135.9 5486.36 0)
(536.852 4330.7 0)
(455.011 1865.74 0)
(-86.7161 1120.16 0)
(471.494 932.269 0)
(889.695 850.645 0)
(1261.78 944.758 0)
(1614.97 956.604 0)
(1981.81 990.534 0)
(2322.87 1034.47 0)
(2619.22 1072.49 0)
(2861.16 1114.7 0)
(3040.29 1162.51 0)
(3163.61 1216.16 0)
(3229.1 1273.49 0)
(3195.68 1330.51 0)
(2914.37 1383.76 0)
(2211.26 1428.39 0)
(845.208 1457.84 0)
(-952.857 1457.41 0)
(-2314.56 1427.18 0)
(-3000.83 1386.12 0)
(-3283.11 1339.09 0)
(-3331.04 1291.05 0)
(-3298.65 1243.18 0)
(-3234.67 1195.64 0)
(-3152.2 1148.25 0)
(-3053.45 1100.81 0)
(-2936.18 1053.04 0)
(-2793.47 1004.63 0)
(-2616.6 955.268 0)
(-2405.92 904.867 0)
(-2184.31 853.084 0)
(-2002.18 801.474 0)
(-1897.55 746.563 0)
(-1640.55 690.142 0)
(-724.199 593.446 0)
(142087 532.951 0)
(-178532 1007.36 0)
(-37768 -32206.5 0)
(-26480.5 6944.6 0)
(193.422 3785.01 0)
(-136.074 990.882 0)
(-144.029 578.103 0)
(434.027 419.22 0)
(892.317 360.724 0)
(1276.81 426.245 0)
(1619.14 434.26 0)
(1988.79 449.671 0)
(2330.42 469.592 0)
(2626.09 484.191 0)
(2868.86 499.784 0)
(3049.38 518.211 0)
(3174.04 540.506 0)
(3239.96 565.633 0)
(3205.92 590.487 0)
(2923.29 613.196 0)
(2218.24 632.16 0)
(848.28 646.134 0)
(-955.453 646.76 0)
(-2320.89 633.845 0)
(-3008.55 617.144 0)
(-3291.31 598.375 0)
(-3339.06 580.079 0)
(-3306.33 562.851 0)
(-3241.99 546.792 0)
(-3159.21 531.853 0)
(-3060.23 517.887 0)
(-2942.89 504.591 0)
(-2800.35 491.452 0)
(-2623.94 477.668 0)
(-2414.08 462.231 0)
(-2193.44 443.605 0)
(-2012.79 421.429 0)
(-1909.01 391.634 0)
(-1658.82 361.671 0)
(-745.385 298.805 0)
(142038 254.978 0)
(-178600 59.3691 0)
(-33061.6 -2.2479e-08 0)
(-22665.6 -4.19866e-09 0)
(-1195.14 -3.22974e-11 0)
(-477.909 3.42352e-09 0)
(-253.018 0 0)
(408.257 4.19866e-10 0)
(891.739 3.52042e-09 0)
(1283.17 7.58989e-09 0)
(1621.79 -4.0727e-08 0)
(1992.09 -1.34293e-07 0)
(2332.91 -1.06969e-07 0)
(2628 4.28651e-07 0)
(2871.06 1.56965e-06 0)
(3052.14 1.964e-06 0)
(3177.4 -1.2295e-06 0)
(3243.64 -8.97196e-06 0)
(3209.51 -1.78747e-05 0)
(2926.5 -1.62324e-05 0)
(2220.85 -5.25612e-05 0)
(849.456 -4.09416e-05 0)
(-956.432 4.38863e-06 0)
(-2323.17 5.21868e-05 0)
(-3011.15 -1.48763e-05 0)
(-3293.89 -9.5627e-05 0)
(-3341.38 -0.000112118 0)
(-3308.33 -0.000135814 0)
(-3243.69 -0.000123071 0)
(-3160.61 -8.46603e-05 0)
(-3061.38 -3.76764e-05 0)
(-2943.87 3.29937e-06 0)
(-2801.3 2.74802e-05 0)
(-2625.1 4.12925e-05 0)
(-2415.83 4.25787e-05 0)
(-2196.18 2.17715e-05 0)
(-2017.3 -2.2531e-06 0)
(-1914.93 -3.3676e-05 0)
(-1667.55 -1.73244e-05 0)
(-755.237 -1.83513e-05 0)
(142017 -1.7488e-05 0)
(-178624 9.89092e-05 0)
(-37768 32206.5 0)
(-26480.5 -6944.6 0)
(193.422 -3785.01 0)
(-136.074 -990.882 0)
(-144.029 -578.103 0)
(434.027 -419.22 0)
(892.317 -360.724 0)
(1276.81 -426.245 0)
(1619.14 -434.26 0)
(1988.79 -449.671 0)
(2330.42 -469.592 0)
(2626.09 -484.191 0)
(2868.86 -499.784 0)
(3049.38 -518.211 0)
(3174.04 -540.506 0)
(3239.96 -565.633 0)
(3205.92 -590.487 0)
(2923.29 -613.196 0)
(2218.24 -632.16 0)
(848.28 -646.135 0)
(-955.453 -646.76 0)
(-2320.89 -633.845 0)
(-3008.55 -617.144 0)
(-3291.31 -598.375 0)
(-3339.06 -580.079 0)
(-3306.33 -562.851 0)
(-3241.99 -546.792 0)
(-3159.21 -531.853 0)
(-3060.23 -517.887 0)
(-2942.89 -504.591 0)
(-2800.35 -491.452 0)
(-2623.94 -477.668 0)
(-2414.08 -462.231 0)
(-2193.44 -443.605 0)
(-2012.79 -421.429 0)
(-1909.01 -391.634 0)
(-1658.82 -361.671 0)
(-745.385 -298.805 0)
(142038 -254.978 0)
(-178600 -59.3688 0)
(-39894.8 72680.9 0)
(-33135.9 -5486.36 0)
(536.852 -4330.7 0)
(455.011 -1865.74 0)
(-86.7161 -1120.16 0)
(471.494 -932.269 0)
(889.695 -850.645 0)
(1261.78 -944.758 0)
(1614.97 -956.604 0)
(1981.81 -990.534 0)
(2322.87 -1034.47 0)
(2619.22 -1072.49 0)
(2861.16 -1114.7 0)
(3040.29 -1162.51 0)
(3163.61 -1216.16 0)
(3229.1 -1273.49 0)
(3195.68 -1330.51 0)
(2914.37 -1383.76 0)
(2211.26 -1428.39 0)
(845.208 -1457.84 0)
(-952.857 -1457.41 0)
(-2314.56 -1427.18 0)
(-3000.83 -1386.12 0)
(-3283.11 -1339.09 0)
(-3331.04 -1291.05 0)
(-3298.65 -1243.18 0)
(-3234.67 -1195.64 0)
(-3152.2 -1148.25 0)
(-3053.45 -1100.81 0)
(-2936.18 -1053.04 0)
(-2793.47 -1004.63 0)
(-2616.6 -955.268 0)
(-2405.92 -904.867 0)
(-2184.31 -853.084 0)
(-2002.18 -801.474 0)
(-1897.55 -746.563 0)
(-1640.55 -690.142 0)
(-724.199 -593.446 0)
(142087 -532.951 0)
(-178532 -1007.36 0)
(112337 76561.2 0)
(-67092.5 -6777.03 0)
(2067.44 -3654.17 0)
(1194.37 -3058.39 0)
(375.244 -1875 0)
(559.765 -1564.13 0)
(887.515 -1435.86 0)
(1227.73 -1469.52 0)
(1595.25 -1495.96 0)
(1948.01 -1541.6 0)
(2287.75 -1600.28 0)
(2583.71 -1659.11 0)
(2821.3 -1727.81 0)
(2996.25 -1804.76 0)
(3116.49 -1887.66 0)
(3180.79 -1973.52 0)
(3148.59 -2059.39 0)
(2872.2 -2141.07 0)
(2179.84 -2209.97 0)
(833.627 -2252.56 0)
(-939.218 -2249.27 0)
(-2283.49 -2200.61 0)
(-2962.21 -2133.16 0)
(-3241.15 -2055.64 0)
(-3288.18 -1975.18 0)
(-3255.36 -1893.61 0)
(-3190.91 -1811.27 0)
(-3107.83 -1728.15 0)
(-3008.35 -1644.25 0)
(-2890.31 -1559.63 0)
(-2746.97 -1474.6 0)
(-2569.84 -1389.73 0)
(-2359.41 -1306.06 0)
(-2139.14 -1224.58 0)
(-1958.25 -1147.39 0)
(-1852.43 -1072.2 0)
(-1583.9 -984.825 0)
(-671.28 -875.592 0)
(141721 -805.972 0)
(-177687 -2611.17 0)
(130931 37023.8 0)
(-92225.7 -4179.71 0)
(3299.51 -3401.56 0)
(1773.02 -3188.63 0)
(1105.5 -2548.5 0)
(847.335 -2211.39 0)
(982.031 -2065.19 0)
(1222.12 -2017.8 0)
(1556.08 -2044.78 0)
(1899.42 -2080.14 0)
(2228.46 -2132.15 0)
(2515.37 -2195.36 0)
(2742.19 -2273.54 0)
(2909.87 -2362.91 0)
(3026.24 -2459.41 0)
(3089.52 -2559.79 0)
(3059.47 -2661.56 0)
(2791.89 -2760.12 0)
(2120.68 -2844.04 0)
(813.55 -2895.45 0)
(-910.106 -2889.68 0)
(-2219.33 -2827.23 0)
(-2881.85 -2740.86 0)
(-3153.37 -2642.31 0)
(-3197.89 -2540.58 0)
(-3163.91 -2438.28 0)
(-3098.69 -2336.16 0)
(-3015.04 -2234.47 0)
(-2915.25 -2133.5 0)
(-2797.3 -2033.6 0)
(-2654.68 -1935.31 0)
(-2479.26 -1839.56 0)
(-2271.72 -1747.7 0)
(-2055.63 -1661.18 0)
(-1878.9 -1579.86 0)
(-1765.09 -1501.39 0)
(-1481.47 -1392.68 0)
(-580.227 -1292.61 0)
(140611 -1247.04 0)
(-175599 -5916.92 0)
(141821 23259.2 0)
(-106048 -1931.5 0)
(3022.48 -3001.94 0)
(2016.41 -2992.74 0)
(1316.95 -2902.14 0)
(1025.5 -2637.38 0)
(1074.07 -2541.19 0)
(1247.4 -2471.42 0)
(1535.17 -2468.99 0)
(1863.83 -2481.32 0)
(2176.72 -2512.26 0)
(2447.46 -2564.19 0)
(2659.84 -2635.65 0)
(2817.14 -2722.03 0)
(2926.77 -2818.51 0)
(2985.99 -2921.67 0)
(2955.55 -3028.6 0)
(2696.35 -3133.79 0)
(2049.43 -3224.06 0)
(789.653 -3280.15 0)
(-873.478 -3273.08 0)
(-2140.09 -3202.82 0)
(-2784.01 -3107.34 0)
(-3048.15 -2999.66 0)
(-3091.57 -2889.98 0)
(-3058.37 -2781.31 0)
(-2994.52 -2674.51 0)
(-2912.55 -2569.88 0)
(-2814.78 -2467.72 0)
(-2699.32 -2368.38 0)
(-2559.98 -2272.58 0)
(-2389.06 -2181.44 0)
(-2187.52 -2096.63 0)
(-1977.41 -2019.71 0)
(-1804.27 -1946.21 0)
(-1672.05 -1873.27 0)
(-1382.71 -1764.01 0)
(-530.934 -1700.23 0)
(137265 -1742.87 0)
(-170573 -10904.8 0)
(151532 6743.02 0)
(-117532 -1780.56 0)
(2276.86 -2688.48 0)
(1869.2 -2915.26 0)
(1447.94 -2911.83 0)
(1195.15 -2756.02 0)
(1141.95 -2698.72 0)
(1291.7 -2637.27 0)
(1546.54 -2604.01 0)
(1857.72 -2593.32 0)
(2148.61 -2605.87 0)
(2396.46 -2645.42 0)
(2590.09 -2707.99 0)
(2733.66 -2787.7 0)
(2833.86 -2879.48 0)
(2887.07 -2979.36 0)
(2855.06 -3083.76 0)
(2603.53 -3186.69 0)
(1979.64 -3275.04 0)
(766.311 -3331.11 0)
(-835.59 -3323.67 0)
(-2059.6 -3251.65 0)
(-2686.08 -3155.57 0)
(-2943.92 -3048.2 0)
(-2987.47 -2939.81 0)
(-2956.28 -2833.47 0)
(-2894.96 -2729.93 0)
(-2815.77 -2629.36 0)
(-2721.08 -2531.92 0)
(-2609.26 -2438.09 0)
(-2474.54 -2348.49 0)
(-2309.71 -2264.93 0)
(-2115.87 -2188.71 0)
(-1910.69 -2121.27 0)
(-1737.78 -2052.08 0)
(-1589.51 -1980.95 0)
(-1314.72 -1888.38 0)
(-559.858 -1879.6 0)
(131741 -1993.87 0)
(-163019 -14903.8 0)
(146595 -6569.75 0)
(-115136 -2141.48 0)
(1929.04 -2600.65 0)
(1801.18 -2729.21 0)
(1470.4 -2737.19 0)
(1230.86 -2759.39 0)
(1188.5 -2726.37 0)
(1338.66 -2682.17 0)
(1577.53 -2635.7 0)
(1862.03 -2615.77 0)
(2126.52 -2623.15 0)
(2349.06 -2659.88 0)
(2522.72 -2720.29 0)
(2651.89 -2798.15 0)
(2742.08 -2888.15 0)
(2789.13 -2986.21 0)
(2755.75 -3088.49 0)
(2512.02 -3189.1 0)
(1910.27 -3275.57 0)
(742.798 -3332.24 0)
(-796.907 -3325.01 0)
(-1978.11 -3251.99 0)
(-2587.95 -3156 0)
(-2840.23 -3049.43 0)
(-2884.66 -2942.55 0)
(-2856.12 -2838.32 0)
(-2797.83 -2737.34 0)
(-2721.73 -2639.56 0)
(-2630.46 -2545.21 0)
(-2522.56 -2454.35 0)
(-2393.12 -2368.64 0)
(-2235.08 -2288.99 0)
(-2049.08 -2217.27 0)
(-1845.75 -2153.76 0)
(-1669.05 -2082.15 0)
(-1514.3 -2009.92 0)
(-1285.05 -1939.95 0)
(-632.591 -1980.33 0)
(124714 -2116.56 0)
(-153751 -17445.5 0)
(142719 -9188.87 0)
(-113707 -2165.76 0)
(1710.5 -2471.26 0)
(1737.63 -2572.24 0)
(1418.86 -2612.92 0)
(1205.57 -2690.41 0)
(1216.36 -2679.73 0)
(1379.08 -2646.36 0)
(1610.53 -2604.46 0)
(1869.81 -2583.44 0)
(2106.1 -2592.48 0)
(2302.86 -2628.97 0)
(2456.85 -2689.12 0)
(2571.9 -2765.47 0)
(2652.64 -2853.11 0)
(2694.02 -2947.87 0)
(2659.55 -3046.27 0)
(2423.25 -3143.18 0)
(1841.71 -3227.2 0)
(718.666 -3284.93 0)
(-758.26 -3278.45 0)
(-1896.74 -3205.13 0)
(-2490.89 -3110 0)
(-2738.23 -3004.99 0)
(-2784.04 -2900.26 0)
(-2758.53 -2798.58 0)
(-2703.42 -2700.31 0)
(-2630.62 -2605.46 0)
(-2542.6 -2513.58 0)
(-2439.11 -2426.32 0)
(-2315.19 -2342.64 0)
(-2163.85 -2267.94 0)
(-1985.55 -2198.09 0)
(-1780.48 -2137 0)
(-1599.17 -2063.07 0)
(-1452.48 -1994.62 0)
(-1286.2 -1948.91 0)
(-730.048 -2015.95 0)
(116838 -2153.94 0)
(-143533 -18635.3 0)
(135175 -13146.8 0)
(-108663 -2139.9 0)
(1537.34 -2366.93 0)
(1664.66 -2464.95 0)
(1356.53 -2515.83 0)
(1166.48 -2590.26 0)
(1230.95 -2593.11 0)
(1411.2 -2570.81 0)
(1638.16 -2536.5 0)
(1873.58 -2524.16 0)
(2082.65 -2535.6 0)
(2255.93 -2576.06 0)
(2391.18 -2635.86 0)
(2493.87 -2711 0)
(2566.32 -2795.3 0)
(2602.99 -2885.59 0)
(2567.54 -2979.04 0)
(2337.67 -3071.79 0)
(1773.67 -3153.71 0)
(693.411 -3213.27 0)
(-720.006 -3207.9 0)
(-1815.78 -3134.52 0)
(-2395.09 -3040.46 0)
(-2638.12 -2937.32 0)
(-2685.75 -2835.05 0)
(-2663.44 -2736.1 0)
(-2611.74 -2640.8 0)
(-2541.8 -2548.41 0)
(-2457.83 -2460.22 0)
(-2357.84 -2373.94 0)
(-2240.5 -2296.2 0)
(-2095.79 -2221.46 0)
(-1922.91 -2156.1 0)
(-1715.64 -2095.85 0)
(-1531.85 -2022.07 0)
(-1404.29 -1962 0)
(-1305.61 -1934.15 0)
(-830.171 -2009.15 0)
(108699 -2131.24 0)
(-133033 -19266 0)
(127466 -14713.9 0)
(-103319 -2126.05 0)
(1397.26 -2278.29 0)
(1594.14 -2356.21 0)
(1298.12 -2414.53 0)
(1131.1 -2473.12 0)
(1235.1 -2482.12 0)
(1433.63 -2471.33 0)
(1655.49 -2450.84 0)
(1870.68 -2441.94 0)
(2056.09 -2464.06 0)
(2206.23 -2504.23 0)
(2326.81 -2565.79 0)
(2418.26 -2637.84 0)
(2484.39 -2718.05 0)
(2516.96 -2802.93 0)
(2480.13 -2891.14 0)
(2254.94 -2980.08 0)
(1705.37 -3060.8 0)
(666.443 -3122.96 0)
(-682.381 -3118.95 0)
(-1735.39 -3045.56 0)
(-2300.85 -2952.71 0)
(-2540.29 -2851.77 0)
(-2590.14 -2752.36 0)
(-2571.34 -2656.63 0)
(-2522.56 -2564.26 0)
(-2456.6 -2475.81 0)
(-2374.48 -2388.79 0)
(-2281.06 -2309.53 0)
(-2168.26 -2228.71 0)
(-2028.83 -2164.1 0)
(-1864.5 -2094.78 0)
(-1651.33 -2038.61 0)
(-1470.19 -1969.16 0)
(-1367.76 -1917.94 0)
(-1331.64 -1899.36 0)
(-919.968 -1967.54 0)
(100209 -2067.96 0)
(-122198 -19261.4 0)
(118456 -16900.8 0)
(-96679.6 -2088.23 0)
(1315.55 -2189.79 0)
(1533.38 -2245.03 0)
(1243.87 -2308.92 0)
(1101.34 -2353.33 0)
(1232.67 -2364.25 0)
(1441.34 -2363.68 0)
(1666.48 -2346.36 0)
(1860.84 -2354.23 0)
(2022.61 -2373.35 0)
(2157.9 -2420.84 0)
(2262.44 -2478.27 0)
(2347.14 -2547.72 0)
(2407.23 -2622.31 0)
(2436.2 -2701.7 0)
(2396.84 -2785.03 0)
(2174.18 -2871.05 0)
(1635.98 -2951.63 0)
(637.378 -3016.7 0)
(-645.42 -3014.07 0)
(-1655.59 -2940.69 0)
(-2208.35 -2849.13 0)
(-2445.06 -2750.71 0)
(-2497.7 -2654.66 0)
(-2482.18 -2562.47 0)
(-2437.49 -2474.3 0)
(-2372.71 -2388.39 0)
(-2297.61 -2308.3 0)
(-2203.58 -2226.77 0)
(-2100.35 -2157.92 0)
(-1966.74 -2087.31 0)
(-1801.98 -2025.11 0)
(-1594.58 -1973.36 0)
(-1415.56 -1907.06 0)
(-1337.02 -1867.14 0)
(-1353.41 -1853.85 0)
(-992.639 -1907.55 0)
(92034 -1981.72 0)
(-111757 -19162.2 0)
(108594 -17718.5 0)
(-89143.1 -1981.22 0)
(1246.16 -2063.64 0)
(1479.34 -2115.52 0)
(1193.75 -2195.62 0)
(1077.78 -2232.77 0)
(1225.13 -2237.93 0)
(1450.88 -2242.81 0)
(1664.6 -2233.19 0)
(1844.67 -2242.87 0)
(1991.9 -2274.28 0)
(2105.13 -2316.9 0)
(2204.55 -2374.17 0)
(2279.46 -2437.08 0)
(2336.01 -2506.19 0)
(2360.16 -2579.87 0)
(2316.94 -2658.88 0)
(2094.4 -2742.73 0)
(1565.02 -2823.92 0)
(606.269 -2891.62 0)
(-609.133 -2890.19 0)
(-1576.44 -2816.98 0)
(-2117.77 -2726.77 0)
(-2352.9 -2631.39 0)
(-2408.75 -2539.41 0)
(-2397.53 -2451.91 0)
(-2354.81 -2368.01 0)
(-2296.64 -2288.41 0)
(-2218.73 -2209.83 0)
(-2136.14 -2138.66 0)
(-2033.88 -2064.11 0)
(-1900.86 -2002.57 0)
(-1754.69 -1939.58 0)
(-1537.56 -1886.65 0)
(-1367.83 -1834.32 0)
(-1316.48 -1798.3 0)
(-1370.59 -1782.68 0)
(-1043.19 -1814.07 0)
(83581.8 -1870 0)
(-101093 -18748.1 0)
(98870.3 -18292.8 0)
(-81594.1 -1888.12 0)
(1186.13 -1955.4 0)
(1406.2 -2021.65 0)
(1130.89 -2101.99 0)
(1060.57 -2121.74 0)
(1222.99 -2115.61 0)
(1445.9 -2108.77 0)
(1666.43 -2111.11 0)
(1821.24 -2123.92 0)
(1951.27 -2154.75 0)
(2061.65 -2195.74 0)
(2146.63 -2245.95 0)
(2219.91 -2302.71 0)
(2269.63 -2364.83 0)
(2289.06 -2432.71 0)
(2239.9 -2507.35 0)
(2015.14 -2589.03 0)
(1492.51 -2670.83 0)
(573.522 -2740.56 0)
(-573.498 -2740.02 0)
(-1498.11 -2667.11 0)
(-2029.51 -2578.63 0)
(-2264.51 -2487.25 0)
(-2324.74 -2400.67 0)
(-2317 -2319.18 0)
(-2279.94 -2241.97 0)
(-2220.28 -2168.39 0)
(-2153.3 -2097.84 0)
(-2063.16 -2031.79 0)
(-1969.21 -1964.03 0)
(-1846.74 -1908.59 0)
(-1690.28 -1841.11 0)
(-1493.15 -1799.35 0)
(-1330.43 -1750.84 0)
(-1287.26 -1726.86 0)
(-1368.6 -1713.38 0)
(-1076.78 -1726.51 0)
(75715.8 -1762.23 0)
(-91165.6 -18258.8 0)
(88518.8 -18474.6 0)
(-73399.8 -1772.96 0)
(1117.48 -1823.88 0)
(1338.08 -1912.08 0)
(1097.3 -1966.3 0)
(1064.66 -1971.47 0)
(1237.63 -1941.26 0)
(1455.21 -1948.83 0)
(1650 -1939.84 0)
(1802.62 -1973.2 0)
(1922.69 -1995.31 0)
(2017.25 -2041.39 0)
(2101.46 -2086.06 0)
(2164.9 -2138.79 0)
(2210.74 -2194.98 0)
(2222.83 -2257.25 0)
(2166.3 -2327.05 0)
(1936.86 -2405.78 0)
(1419 -2487.34 0)
(539.596 -2558.26 0)
(-538.352 -2558.26 0)
(-1420.92 -2485.88 0)
(-1944.45 -2399.92 0)
(-2181.41 -2313.84 0)
(-2246.79 -2234.09 0)
(-2244.6 -2159.62 0)
(-2209.5 -2089.25 0)
(-2157.75 -2020.33 0)
(-2087.1 -1956.87 0)
(-2007.19 -1888.41 0)
(-1915.15 -1834.8 0)
(-1782.41 -1765.66 0)
(-1649.43 -1716.05 0)
(-1450.57 -1663.46 0)
(-1297.97 -1628.95 0)
(-1280.39 -1613.04 0)
(-1370.25 -1600.32 0)
(-1090.26 -1596.3 0)
(67650.7 -1621.95 0)
(-81080.6 -17431.5 0)
(78719.8 -18375.5 0)
(-65548.8 -1702.75 0)
(1052.07 -1736.37 0)
(1268.96 -1815.29 0)
(1073.66 -1839.5 0)
(1084.7 -1809.8 0)
(1244.82 -1769.56 0)
(1447.28 -1761.52 0)
(1642.94 -1771.54 0)
(1767.79 -1785.96 0)
(1885.57 -1824.08 0)
(1974.19 -1858.06 0)
(2052.77 -1905.27 0)
(2114.95 -1952.92 0)
(2155.48 -2005.53 0)
(2161.8 -2062.57 0)
(2096.77 -2127.07 0)
(1860.68 -2201.56 0)
(1345.58 -2281.59 0)
(505.183 -2352.77 0)
(-503.753 -2353.03 0)
(-1345.53 -2281.46 0)
(-1863.72 -2198.94 0)
(-2104.72 -2119.5 0)
(-2176.14 -2047.53 0)
(-2177.43 -1980.61 0)
(-2145.71 -1915.74 0)
(-2092.71 -1853.79 0)
(-2026.17 -1789.3 0)
(-1945.52 -1736.56 0)
(-1850.92 -1671.49 0)
(-1732.31 -1628.65 0)
(-1591.8 -1570.09 0)
(-1409.22 -1528.43 0)
(-1281.84 -1510.55 0)
(-1259.66 -1506.15 0)
(-1352.47 -1498.78 0)
(-1097.64 -1484.38 0)
(60456.4 -1497.08 0)
(-72115.6 -16524.1 0)
(68523.4 -17849.5 0)
(-57365.7 -1637.17 0)
(1009.04 -1665.38 0)
(1238.7 -1706.51 0)
(1102.59 -1693.12 0)
(1132.05 -1610.8 0)
(1284.16 -1577.04 0)
(1453.3 -1534.39 0)
(1626.44 -1554.65 0)
(1751.99 -1567.95 0)
(1853.21 -1601.31 0)
(1939.02 -1642.16 0)
(2010.06 -1691.16 0)
(2068.28 -1747.14 0)
(2105.08 -1806.45 0)
(2105.71 -1868 0)
(2032.36 -1932.58 0)
(1787.96 -2004.24 0)
(1273.28 -2081.79 0)
(470.755 -2151.7 0)
(-469.636 -2152.01 0)
(-1272.44 -2082.26 0)
(-1788.38 -2003.64 0)
(-2035.51 -1929.1 0)
(-2112.95 -1859.55 0)
(-2117.61 -1790.77 0)
(-2087.29 -1721.92 0)
(-2035.9 -1653.98 0)
(-1974.13 -1590.78 0)
(-1893.67 -1532.27 0)
(-1811.17 -1480.34 0)
(-1684.7 -1438.72 0)
(-1552.84 -1391.36 0)
(-1393.2 -1376.17 0)
(-1276.51 -1370.04 0)
(-1269.04 -1388.5 0)
(-1349.27 -1398.57 0)
(-1088.62 -1383.5 0)
(53157.8 -1383.1 0)
(-63058.8 -15478 0)
(59293.9 -16879.1 0)
(-49953.2 -1535.09 0)
(985.248 -1559.51 0)
(1242.22 -1578.79 0)
(1165.88 -1551.59 0)
(1196.56 -1452.06 0)
(1318.45 -1422.55 0)
(1468.85 -1375.77 0)
(1610.61 -1386.65 0)
(1722.84 -1399.03 0)
(1814.06 -1426.64 0)
(1887.61 -1464.12 0)
(1951.6 -1511.44 0)
(2003.85 -1569.46 0)
(2039.01 -1635.61 0)
(2040.26 -1705.02 0)
(1965.48 -1773.69 0)
(1716.9 -1845.4 0)
(1203.49 -1921.35 0)
(437.514 -1990.34 0)
(-436.837 -1990.6 0)
(-1202.56 -1921.94 0)
(-1716.14 -1845.79 0)
(-1965.86 -1772.77 0)
(-2042.84 -1701.26 0)
(-2044.8 -1627.2 0)
(-2013.89 -1554.43 0)
(-1966.34 -1487.55 0)
(-1908.89 -1429.55 0)
(-1839.1 -1377.99 0)
(-1760.76 -1337.07 0)
(-1646.57 -1299.68 0)
(-1531.53 -1275.99 0)
(-1388.67 -1270 0)
(-1293.73 -1283.67 0)
(-1287.16 -1310.91 0)
(-1347.64 -1321.55 0)
(-1082.73 -1291.52 0)
(46874.5 -1275.14 0)
(-55263.4 -14346.2 0)
(50115.8 -14914.2 0)
(-42603.2 -1390.35 0)
(966.932 -1451.72 0)
(1246.33 -1489.66 0)
(1224.71 -1482.82 0)
(1256.4 -1406.62 0)
(1357.67 -1385.46 0)
(1487.9 -1339.62 0)
(1604.03 -1355.89 0)
(1713.45 -1346.72 0)
(1790.5 -1361.12 0)
(1857.3 -1370.85 0)
(1908.54 -1391.1 0)
(1948.63 -1422.18 0)
(1974.45 -1469.57 0)
(1972.64 -1534.28 0)
(1897.09 -1612.36 0)
(1645.68 -1703.99 0)
(1133.6 -1797.1 0)
(404.025 -1869.46 0)
(-403.724 -1869.62 0)
(-1132.9 -1797.58 0)
(-1644.63 -1704.7 0)
(-1896.23 -1612.77 0)
(-1972.67 -1533.44 0)
(-1976.11 -1466.14 0)
(-1952.72 -1414.62 0)
(-1915.57 -1377.49 0)
(-1868.55 -1349.67 0)
(-1804.55 -1329.15 0)
(-1735.72 -1304.93 0)
(-1625.85 -1294.06 0)
(-1524.24 -1270.37 0)
(-1400.6 -1275.73 0)
(-1315.92 -1285.63 0)
(-1305.54 -1303.03 0)
(-1330.59 -1290.41 0)
(-1043.9 -1223.64 0)
(40577.9 -1153.79 0)
(-47431.4 -12784.6 0)
(43014 -12899.8 0)
(-36980.3 -1138.22 0)
(889.546 -1285.06 0)
(1212.26 -1380.81 0)
(1245.9 -1421.44 0)
(1290.38 -1404.21 0)
(1383.01 -1402.53 0)
(1497.35 -1382.56 0)
(1603.77 -1393.63 0)
(1717.8 -1371.81 0)
(1790.8 -1356.75 0)
(1858.72 -1322.37 0)
(1902.14 -1284.69 0)
(1928.23 -1245.99 0)
(1930.98 -1220.57 0)
(1902.66 -1226.32 0)
(1801.95 -1280.51 0)
(1538.88 -1367.08 0)
(1044.03 -1467.02 0)
(367.632 -1546.31 0)
(-367.571 -1546.37 0)
(-1043.64 -1467.29 0)
(-1538.05 -1367.66 0)
(-1800.83 -1281.25 0)
(-1901.53 -1226.81 0)
(-1930.31 -1220.11 0)
(-1928.47 -1243.61 0)
(-1903.76 -1279.15 0)
(-1862.31 -1312.58 0)
(-1795.98 -1340.47 0)
(-1726.95 -1349.57 0)
(-1613.27 -1358.59 0)
(-1513.87 -1342.83 0)
(-1403.37 -1338.65 0)
(-1320.03 -1331.02 0)
(-1291.77 -1311.58 0)
(-1271.14 -1249.32 0)
(-951.079 -1122.11 0)
(35733.9 -960.314 0)
(-41390 -11075.9 0)
(36521 -5696.56 0)
(-31410.8 -589.018 0)
(733.164 -799.128 0)
(1114.92 -961.28 0)
(1202.16 -1043.02 0)
(1274.62 -1064.08 0)
(1378.53 -1062.76 0)
(1496.47 -1056.22 0)
(1614.39 -1040.86 0)
(1748.98 -1011.2 0)
(1838.14 -963.75 0)
(1926.75 -896.737 0)
(1982.15 -808.769 0)
(2010.42 -703.654 0)
(1993.4 -591.451 0)
(1914.89 -484.049 0)
(1761.45 -400.179 0)
(1465.94 -410.886 0)
(960.892 -503.254 0)
(327.562 -595.642 0)
(-327.578 -595.652 0)
(-960.687 -503.354 0)
(-1465.36 -411.223 0)
(-1760.5 -400.799 0)
(-1913.75 -484.818 0)
(-1992.31 -592.04 0)
(-2009.61 -703.814 0)
(-1982.03 -808.033 0)
(-1927.64 -894.572 0)
(-1840.19 -959.228 0)
(-1753.18 -1004.32 0)
(-1619.36 -1028.8 0)
(-1505.02 -1041.85 0)
(-1389.22 -1038.13 0)
(-1289.84 -1034.23 0)
(-1226.81 -995.918 0)
(-1148.01 -898.07 0)
(-765.409 -715.101 0)
(30986.1 -488.066 0)
(-35893.9 -4606.37 0)
(36126.9 403951 0)
(-32260.9 33559.6 0)
(530.821 32802.2 0)
(977.229 38415.4 0)
(1146.84 43857.2 0)
(1271.36 50963.2 0)
(1390.58 58016.5 0)
(1518.45 66294.8 0)
(1647.15 74375.5 0)
(1792.11 83406.7 0)
(1901.09 92203.1 0)
(2008.07 101615 0)
(2088.2 110687 0)
(2137.64 119983 0)
(2142.6 128819 0)
(2086.97 137049 0)
(1872.45 143904 0)
(1439.55 148590 0)
(865.992 150751 0)
(278.594 151232 0)
(-278.638 151232 0)
(-865.917 150750 0)
(-1439.22 148590 0)
(-1871.74 143903 0)
(-2085.82 137048 0)
(-2141.34 128817 0)
(-2136.61 119982 0)
(-2087.58 110687 0)
(-2008 101618 0)
(-1901.74 92210 0)
(-1793.98 83418.1 0)
(-1649.43 74394 0)
(-1522.87 66318.9 0)
(-1396.03 58051.4 0)
(-1279.35 51006 0)
(-1160.56 43913.9 0)
(-1000.54 38486.5 0)
(-555.984 32885.1 0)
(31984.2 33644.3 0)
(-35699.4 404232 0)
(453900 -470942 0)
(-389063 -37471.9 0)
(5412.31 -38012.4 0)
(11767.9 -44486.7 0)
(13293.7 -51190.6 0)
(14919.1 -59942 0)
(16152.6 -68616.5 0)
(17260.6 -78806 0)
(18104.1 -88817.9 0)
(18928.4 -100044 0)
(19384.1 -111093 0)
(19738.4 -122910 0)
(19682.5 -134442 0)
(19482.7 -146270 0)
(18438.9 -157634 0)
(16451.7 -168336 0)
(12882.9 -177501 0)
(8063.52 -184137 0)
(3506.49 -187666 0)
(791.542 -188806 0)
(-791.645 -188806 0)
(-3506.65 -187666 0)
(-8063.69 -184137 0)
(-12882.9 -177501 0)
(-16451.2 -168337 0)
(-18437.5 -157636 0)
(-19480 -146273 0)
(-19678.6 -134448 0)
(-19733.2 -122918 0)
(-19378.1 -111105 0)
(-18921.3 -100059 0)
(-18096.8 -88835.5 0)
(-17253.3 -78826.5 0)
(-16145.3 -68638 0)
(-14913.2 -59965.6 0)
(-13291 -51211.2 0)
(-11775.8 -44500.2 0)
(-5431.53 -38000.3 0)
(388829 -37439.1 0)
(-453692 -470393 0)
(453900 470942 0)
(-389063 37471.9 0)
(5412.31 38012.4 0)
(11767.9 44486.7 0)
(13293.7 51190.6 0)
(14919.1 59942 0)
(16152.6 68616.5 0)
(17260.6 78806 0)
(18104.1 88817.9 0)
(18928.4 100044 0)
(19384.1 111093 0)
(19738.4 122910 0)
(19682.5 134442 0)
(19482.7 146270 0)
(18438.9 157634 0)
(16451.7 168336 0)
(12882.9 177501 0)
(8063.52 184137 0)
(3506.49 187666 0)
(791.542 188806 0)
(-791.645 188806 0)
(-3506.65 187666 0)
(-8063.69 184137 0)
(-12882.9 177501 0)
(-16451.2 168337 0)
(-18437.5 157636 0)
(-19480 146273 0)
(-19678.6 134448 0)
(-19733.2 122918 0)
(-19378.1 111105 0)
(-18921.3 100059 0)
(-18096.8 88835.5 0)
(-17253.3 78826.5 0)
(-16145.3 68638 0)
(-14913.2 59965.6 0)
(-13291 51211.2 0)
(-11775.8 44500.2 0)
(-5431.53 38000.3 0)
(388829 37439.1 0)
(-453692 470393 0)
(36126.9 -403951 0)
(-32260.9 -33559.6 0)
(530.821 -32802.2 0)
(977.229 -38415.4 0)
(1146.84 -43857.2 0)
(1271.36 -50963.2 0)
(1390.58 -58016.5 0)
(1518.45 -66294.8 0)
(1647.15 -74375.5 0)
(1792.11 -83406.7 0)
(1901.09 -92203.1 0)
(2008.07 -101615 0)
(2088.2 -110687 0)
(2137.64 -119983 0)
(2142.6 -128819 0)
(2086.97 -137049 0)
(1872.45 -143904 0)
(1439.55 -148590 0)
(865.992 -150751 0)
(278.594 -151232 0)
(-278.638 -151232 0)
(-865.917 -150750 0)
(-1439.22 -148590 0)
(-1871.74 -143903 0)
(-2085.82 -137048 0)
(-2141.34 -128817 0)
(-2136.61 -119982 0)
(-2087.58 -110687 0)
(-2008 -101618 0)
(-1901.74 -92210 0)
(-1793.98 -83418.1 0)
(-1649.43 -74394 0)
(-1522.87 -66318.9 0)
(-1396.03 -58051.4 0)
(-1279.35 -51006 0)
(-1160.56 -43913.9 0)
(-1000.54 -38486.5 0)
(-555.984 -32885.1 0)
(31984.2 -33644.3 0)
(-35699.4 -404232 0)
(36521 5696.56 0)
(-31410.8 589.018 0)
(733.164 799.128 0)
(1114.92 961.28 0)
(1202.16 1043.02 0)
(1274.62 1064.08 0)
(1378.53 1062.76 0)
(1496.47 1056.22 0)
(1614.39 1040.86 0)
(1748.98 1011.2 0)
(1838.14 963.75 0)
(1926.75 896.737 0)
(1982.15 808.769 0)
(2010.42 703.654 0)
(1993.4 591.451 0)
(1914.89 484.049 0)
(1761.45 400.179 0)
(1465.94 410.886 0)
(960.892 503.254 0)
(327.562 595.642 0)
(-327.578 595.652 0)
(-960.687 503.354 0)
(-1465.36 411.223 0)
(-1760.5 400.799 0)
(-1913.75 484.818 0)
(-1992.31 592.04 0)
(-2009.61 703.814 0)
(-1982.03 808.033 0)
(-1927.64 894.572 0)
(-1840.19 959.228 0)
(-1753.18 1004.32 0)
(-1619.36 1028.8 0)
(-1505.02 1041.85 0)
(-1389.22 1038.13 0)
(-1289.84 1034.23 0)
(-1226.81 995.918 0)
(-1148.01 898.07 0)
(-765.409 715.101 0)
(30986.1 488.066 0)
(-35893.9 4606.37 0)
(43014 12899.8 0)
(-36980.3 1138.22 0)
(889.546 1285.06 0)
(1212.26 1380.81 0)
(1245.9 1421.44 0)
(1290.38 1404.21 0)
(1383.01 1402.53 0)
(1497.35 1382.56 0)
(1603.77 1393.63 0)
(1717.8 1371.81 0)
(1790.8 1356.75 0)
(1858.72 1322.37 0)
(1902.14 1284.69 0)
(1928.23 1245.99 0)
(1930.98 1220.57 0)
(1902.66 1226.32 0)
(1801.95 1280.51 0)
(1538.88 1367.08 0)
(1044.03 1467.02 0)
(367.632 1546.31 0)
(-367.571 1546.37 0)
(-1043.64 1467.29 0)
(-1538.05 1367.66 0)
(-1800.83 1281.25 0)
(-1901.53 1226.81 0)
(-1930.31 1220.11 0)
(-1928.47 1243.61 0)
(-1903.76 1279.15 0)
(-1862.31 1312.58 0)
(-1795.98 1340.47 0)
(-1726.95 1349.57 0)
(-1613.27 1358.59 0)
(-1513.87 1342.83 0)
(-1403.37 1338.65 0)
(-1320.03 1331.02 0)
(-1291.77 1311.58 0)
(-1271.14 1249.32 0)
(-951.079 1122.11 0)
(35733.9 960.314 0)
(-41390 11075.9 0)
(50115.8 14914.2 0)
(-42603.2 1390.35 0)
(966.932 1451.72 0)
(1246.33 1489.66 0)
(1224.71 1482.82 0)
(1256.4 1406.62 0)
(1357.67 1385.46 0)
(1487.9 1339.62 0)
(1604.03 1355.89 0)
(1713.45 1346.72 0)
(1790.5 1361.12 0)
(1857.3 1370.85 0)
(1908.54 1391.1 0)
(1948.63 1422.18 0)
(1974.45 1469.57 0)
(1972.64 1534.28 0)
(1897.09 1612.36 0)
(1645.68 1703.99 0)
(1133.6 1797.1 0)
(404.025 1869.46 0)
(-403.724 1869.62 0)
(-1132.9 1797.58 0)
(-1644.63 1704.7 0)
(-1896.23 1612.77 0)
(-1972.67 1533.44 0)
(-1976.11 1466.14 0)
(-1952.72 1414.62 0)
(-1915.57 1377.49 0)
(-1868.55 1349.67 0)
(-1804.55 1329.15 0)
(-1735.72 1304.93 0)
(-1625.85 1294.06 0)
(-1524.24 1270.37 0)
(-1400.6 1275.73 0)
(-1315.92 1285.63 0)
(-1305.54 1303.03 0)
(-1330.59 1290.41 0)
(-1043.9 1223.64 0)
(40577.9 1153.79 0)
(-47431.4 12784.6 0)
(59293.9 16879.1 0)
(-49953.2 1535.09 0)
(985.248 1559.51 0)
(1242.22 1578.79 0)
(1165.88 1551.59 0)
(1196.56 1452.06 0)
(1318.45 1422.55 0)
(1468.85 1375.77 0)
(1610.61 1386.65 0)
(1722.84 1399.03 0)
(1814.06 1426.64 0)
(1887.61 1464.12 0)
(1951.6 1511.44 0)
(2003.85 1569.46 0)
(2039.01 1635.61 0)
(2040.26 1705.02 0)
(1965.48 1773.69 0)
(1716.9 1845.4 0)
(1203.49 1921.35 0)
(437.514 1990.34 0)
(-436.837 1990.6 0)
(-1202.56 1921.94 0)
(-1716.14 1845.79 0)
(-1965.86 1772.77 0)
(-2042.84 1701.26 0)
(-2044.8 1627.2 0)
(-2013.89 1554.43 0)
(-1966.34 1487.55 0)
(-1908.89 1429.55 0)
(-1839.1 1377.99 0)
(-1760.76 1337.07 0)
(-1646.57 1299.68 0)
(-1531.53 1275.99 0)
(-1388.67 1270 0)
(-1293.73 1283.67 0)
(-1287.16 1310.91 0)
(-1347.64 1321.55 0)
(-1082.73 1291.52 0)
(46874.5 1275.14 0)
(-55263.4 14346.2 0)
(68523.4 17849.5 0)
(-57365.7 1637.17 0)
(1009.04 1665.38 0)
(1238.7 1706.51 0)
(1102.59 1693.12 0)
(1132.05 1610.8 0)
(1284.16 1577.04 0)
(1453.3 1534.39 0)
(1626.44 1554.65 0)
(1751.99 1567.95 0)
(1853.21 1601.31 0)
(1939.02 1642.16 0)
(2010.06 1691.16 0)
(2068.28 1747.14 0)
(2105.08 1806.45 0)
(2105.71 1868 0)
(2032.36 1932.58 0)
(1787.96 2004.24 0)
(1273.28 2081.79 0)
(470.755 2151.7 0)
(-469.636 2152.01 0)
(-1272.44 2082.26 0)
(-1788.38 2003.64 0)
(-2035.51 1929.1 0)
(-2112.95 1859.55 0)
(-2117.61 1790.77 0)
(-2087.29 1721.92 0)
(-2035.9 1653.98 0)
(-1974.13 1590.78 0)