/*--------------------------------*- C++ -*----------------------------------*\
| =========                 |                                                 |
| \\      /  F ield         | OpenFOAM: The Open Source CFD Toolbox           |
|  \\    /   O peration     | Version:  v1912                                 |
|   \\  /    A nd           | Website:  www.openfoam.com                      |
|    \\/     M anipulation  |                                                 |
\*---------------------------------------------------------------------------*/
FoamFile
{
    version     2.0;
    format      ascii;
    class       volScalarField;
    location    "2.46";
    object      p;
}
// * * * * * * * * * * * * * * * * * * * * * * * * * * * * * * * * * * * * * //

dimensions      [1 -1 -2 0 0 0 0];


internalField   nonuniform List<scalar> 
1900
(
14932.6
10959.8
10800.3
10850.4
10902.9
10964.4
11031
11102.9
11161.5
11242.2
14932.7
10959.9
10800.4
10850.4
10902.8
10963.9
11029
11090.9
11139.5
11210.6
14932.7
10959.9
10800.4
10850.2
10902.2
10963.3
11029.3
11094.4
11150.3
11202.6
14932.7
10959.9
10800.4
10850.4
10902.8
10963.9
11029
11090.9
11139.5
11210.6
14932.6
10959.8
10800.3
10850.4
10902.9
10964.4
11031
11102.9
11161.5
11242.2
11155.5
11228.7
11230.8
11048.1
9828.71
11255.6
11329.6
11304.4
11254.2
10694.4
11236.3
11288.4
11242.1
11125.3
10521.9
11255.6
11329.6
11304.4
11254.2
10694.4
11155.5
11228.7
11230.8
11048.1
9828.71
12488.4
12664.3
13047.2
13142.4
13245.1
12303.6
12627.9
13039.9
13315.7
13208.2
12293.4
12635.4
13025.1
13179.5
12655.1
12303.6
12627.9
13039.9
13315.7
13208.2
12488.4
12664.3
13047.2
13142.4
13245.1
10645.3
4900.97
5280.66
5501.41
5418.62
5429.96
5509.11
5640.44
5809.02
6021.33
6279.88
6580.55
6919.31
7289.08
7683.35
8096.06
8519.32
8935.23
9294.42
9529.39
9522.82
9272.02
8901.29
8474.79
8040.46
7614.15
7201.25
6804.17
6424.58
6064.06
5724.57
5409.02
5120.89
4862
4629.38
4415.84
4222.68
4079.96
3723.81
19774.6
11018.7
5250.25
5491.25
5541.74
5446.93
5451.16
5527.27
5661.78
5830.97
6044.14
6303.98
6605.79
6945.79
7317
7712.95
8127.53
8552.66
8970.32
9331
9567.03
9560.48
9308.66
8936.55
8508.48
8072.6
7644.79
7230.47
6832.04
6451.17
6089.42
5748.73
5431.98
5142.63
4882.45
4648.48
4433.4
4238.85
4093.35
3734.1
19776.8
10439.6
5679.59
5624.35
5579.2
5458.63
5458.9
5533.58
5669.3
5838.79
6052.46
6312.77
6614.92
6955.3
7326.96
7723.45
8138.66
8564.44
8982.73
9343.94
9580.37
9573.84
9321.64
8949.04
8520.44
8084.06
7655.8
7241.08
6842.29
6461.1
6099.06
5758.11
5441.09
5151.45
4890.9
4656.44
4440.64
4245.34
4098.6
3737.91
19777.6
11018.7
5250.25
5491.25
5541.74
5446.93
5451.16
5527.27
5661.78
5830.97
6044.14
6303.98
6605.79
6945.79
7317
7712.95
8127.53
8552.66
8970.32
9331
9567.03
9560.48
9308.66
8936.55
8508.48
8072.6
7644.79
7230.47
6832.04
6451.17
6089.42
5748.73
5431.98
5142.63
4882.45
4648.48
4433.4
4238.85
4093.35
3734.1
19776.8
10645.3
4900.97
5280.66
5501.41
5418.62
5429.96
5509.11
5640.44
5809.02
6021.33
6279.88
6580.55
6919.31
7289.08
7683.35
8096.06
8519.32
8935.23
9294.42
9529.39
9522.82
9272.02
8901.29
8474.79
8040.46
7614.15
7201.25
6804.17
6424.58
6064.06
5724.57
5409.02
5120.89
4862
4629.38
4415.84
4222.68
4079.96
3723.81
19774.6
12283.7
4270.99
5017.24
5284.49
5304.71
5338.17
5425.42
5548.62
5715.06
5922.89
6175.91
6471.11
6803.63
7166.39
7552.95
7957.48
8372.36
8780.18
9132.44
9362.97
9356.58
9110.55
8746.46
8327.51
7900.88
7482.19
7076.81
6687.13
6314.86
5961.53
5629.13
5320.48
5039.02
4786.5
4559.79
4351.97
4164.48
4029.1
3681.39
19677.6
13536.2
3862.85
4665.14
4897.65
5044.77
5132.67
5238.16
5361.54
5521.78
5723.1
5967.1
6251.98
6572.19
6921.1
7292.73
7681.66
8080.68
8473.05
8812.06
9034.3
9028.59
8792.17
8441.59
8038.03
7627.16
7224.13
6834.2
6459.68
6102.24
5763.36
5444.93
5149.68
4880.88
4640.18
4424.37
4226.75
4050.93
3927.23
3595.12
19425.6
14747.8
3682.69
4324.77
4573.54
4742.14
4856.98
4973.74
5102.02
5258.37
5453.92
5689.56
5963.56
6270.38
6603.9
6958.67
7329.68
7710.08
8084
8407.01
8619.15
8614.37
8389.87
8055.86
7671
7279.04
6894.59
6522.69
6165.62
5824.96
5502.16
5199.02
4918.13
4662.59
4433.89
4229.09
4041.93
3879.92
3765.74
3449.7
18778.8
16073.4
3535.67
4042.6
4257.87
4422.85
4565.7
4687.55
4821.33
4977.36
5170.34
5400.66
5665.98
5961.12
6280.57
6619.49
6973.34
7335.74
7691.73
7999.18
8201.37
8197.57
7985.11
7667.62
7301.25
6927.88
6561.51
6207.04
5866.68
5542
5234.37
4945.5
4677.84
4434.27
4216.13
4021.35
3843.98
3694.21
3584.83
3278.87
17794.4
15456.7
3324.11
3768.12
3966.5
4130.64
4273.73
4398.13
4534.82
4693.07
4884.74
5110.48
5367.61
5651.44
5957.17
6280.54
6617.5
6962.21
7300.63
7592.86
7785.14
7782.32
7581.93
7280.83
6932.74
6577.62
6228.95
5891.48
5567.38
5258.19
4965.23
4690.14
4435.1
4202.9
3994.76
3810.08
3642.74
3503.05
3392.86
3098.15
16603
15016.8
3113.64
3514.01
3701.53
3859.34
3992.35
4116.49
4254.45
4414.61
4605.33
4826.72
5075.84
5348.65
5641.04
5949.34
6270.02
6597.7
6919.24
7196.8
7379.26
7377.32
7188.83
6903.74
6573.42
6236.02
5904.46
5583.36
5274.93
4980.63
4701.84
4439.87
4196.94
3975.53
3776.98
3602.59
3444.98
3312.53
3198.71
2916.28
15323.6
14110.7
2916.92
3278.05
3452.78
3603.15
3725.45
3847.3
3985.52
4146.54
4335.97
4552.4
4793.53
5055.4
5334.83
5628.65
5933.79
6245.31
6550.8
6814.28
6986.94
6985.76
6808.92
6539.38
6226.29
5905.98
5590.89
5285.56
4992.16
4712.27
4446.87
4197.77
3966.03
3755.24
3565.9
3401.7
3252.97
3125.53
3007.3
2738.73
14052.4
13258.6
2731.69
3056.23
3218.84
3361.24
3474.74
3593.51
3730.56
3891.7
4078.3
4289.91
4522.4
4773.72
5040.57
5320.65
5611.16
5907.48
6197.76
6447.69
6610.52
6609.9
6444.45
6189.97
5893.46
5589.56
5290.25
4999.98
4721.06
4454.67
4202.64
3964.91
3744.81
3543.5
3363.21
3208.82
3067.78
2943.99
2821.88
2568.23
12779
12266.2
2553.22
2847.38
3000.33
3134.37
3240.91
3356.24
3491.21
3650.34
3834.91
4039.51
4264.37
4504.82
4759.93
5027.05
5303.91
5585.99
5861.82
6098.61
6251.51
6251.28
6096.92
5856.98
5576.38
5288.14
5003.84
4727.98
4462.56
4209.68
3968.99
3744.17
3532.75
3342.35
3170.08
3024.58
2890.35
2769.78
2645.22
2407.09
11597.8
11192.2
2385.01
2651.06
2796.18
2921.8
3022.77
3134.77
3266.64
3425.2
3603.71
3804.27
4019.39
4250.63
4494.31
4749.56
5013.7
5282.42
5544.46
5768.42
5911.34
5911.34
5767.75
5541.81
5276.41
5003
4732.93
4470.48
4218.3
3976.82
3749.3
3532.91
3333.72
3150.98
2986.47
2849.71
2720.77
2602.87
2477.26
2254.78
10422.8
10162.5
2232.09
2473.07
2609.8
2724.81
2820.58
2930.37
3059.22
3214.42
3390.64
3582.13
3790.99
4011.98
4245.9
4490.05
4742.5
4998.7
5247.58
5458.99
5591.96
5592.06
5458.9
5246.4
4995.36
4735.89
4479
4229.29
3988.57
3759.57
3540.71
3337.66
3144.94
2972.63
2815.95
2685.02
2561.89
2447.51
2323.25
2115.88
9369.49
9085.62
2085.79
2303.35
2430.46
2537.69
2631.33
2739.94
2868.11
3020.51
3190.45
3378.29
3578.31
3792.07
4016.51
4250.97
4492.72
4737.33
4973.75
5173
5296.15
5296.28
5173.16
4973.43
4735.8
4489.1
4244.32
4005.82
3776.33
3556.43
3348.99
3152.54
2970.2
2805.93
2654.46
2531.13
2410.88
2298.72
2176.31
1983.39
8325.48
8096.68
1958.24
2154.85
2270.44
2372.52
2463.87
2574.78
2697.59
2849.09
3013.22
3194.29
3387.62
3592.93
3809.15
4034.51
4266.59
4500.58
4725.4
4913.03
5026.64
5026.74
4913.25
4725.51
4500.13
4264.98
4031.02
3803
3583.24
3373.6
3174.6
2987.97
2814.09
2656.25
2514
2393.52
2277.28
2168.25
2049.69
1870.27
7431.7
7092.57
1830.27
2006.86
2114.67
2214.55
2309.95
2421.6
2546.72
2692.39
2854.26
3029.2
3216.68
3414.96
3623.46
3840.65
4063.94
4288.35
4502.54
4679.21
4783.62
4783.68
4679.39
4502.78
4288.44
4063.51
3839.22
3620.46
3409.72
3208.63
3017.27
2838.69
2669.66
2520.81
2381.37
2265.09
2149.49
2041.66
1926.35
1759.78
6549.62
6211.3
1717.27
1875.88
1978.63
2079.72
2181.91
2294.81
2421.12
2564.41
2721.34
2891.04
3071.28
3261.55
3460.98
3668.51
3882.01
4096.59
4300.57
4466.91
4562.65
4562.69
4467.03
4300.8
4096.86
3882.15
3668.25
3459.94
3259.28
3067.38
2884.75
2712.82
2551.25
2406.28
2270.77
2155.02
2039.28
1931.56
1819.94
1665.83
5818.43
5351.33
1607.61
1749.75
1848.79
1949.97
2058.82
2171.85
2301.19
2440.8
2595.97
2761.2
2936.83
3121.09
3313.13
3511.88
3715.69
3920.5
4114.5
4270.83
4358.08
4358.09
4270.89
4114.66
3920.78
3716.02
3512.14
3313.12
3120.53
2935.46
2758.53
2592.02
2434.13
2293.44
2158.95
2043.79
1927.22
1820.56
1714.3
1573.52
5094.27
4716.93
1518.12
1642.41
1734.41
1833.7
1945.21
2058.33
2188.84
2325.63
2480.2
2643.28
2817.61
2999.96
3189.29
3383.38
3579.66
3773.87
3954.7
4098.23
4176.86
4176.86
4098.24
3954.78
3774.06
3579.97
3383.79
3189.72
3000.3
2817.71
2642.93
2479.34
2323.65
2186.33
2053.53
1939.3
1824.08
1721.12
1623.79
1498.84
4565.44
4175.53
1452.86
1556.65
1637.12
1728.87
1836.96
1946.7
2075.43
2209.15
2363.58
2526.79
2703.7
2890.03
3084.73
3284.31
3483.58
3674.44
3848.47
3982.7
4052.72
4052.71
3982.7
3848.52
3674.57
3483.81
3284.66
3085.18
2890.52
2704.14
2527.07
2363.6
2208.63
2074.54
1944.66
1834.21
1724.27
1630.3
1546.79
1442.57
4116.82
4052.79
1363.92
1452.23
1513.15
1589.75
1685.63
1783.28
1899.88
2019.89
2159.84
2307.61
2468.59
2639
2818.59
3004.46
3193.24
3378.59
3539.65
3654.34
3709.46
3709.45
3654.33
3539.66
3378.64
3193.38
3004.73
2818.99
2639.51
2469.17
2308.22
2160.4
2020.29
1900.14
1783.04
1685.06
1588.27
1510.43
1447.17
1357.81
4012.27
33813.8
4042.1
4177.44
4692.73
5259.06
6043.4
6832.13
7795.95
8764.94
9894.74
11035.7
12304.7
13578.6
14936.4
16282.5
17590.3
18732
19562.7
19990.8
20116.5
20116.5
19990.8
19562.7
18732
17590.3
16282.5
14936.6
13579
12305.4
11036.8
9896.2
8766.88
7798.29
6834.91
6046.57
5262.46
4696.2
4179.89
4043.57
33792.9
33813.8
4042.1
4177.44
4692.73
5259.06
6043.4
6832.13
7795.95
8764.94
9894.74
11035.7
12304.7
13578.6
14936.4
16282.5
17590.3
18732
19562.7
19990.8
20116.5
20116.5
19990.8
19562.7
18732
17590.3
16282.5
14936.6
13579
12305.4
11036.8
9896.2
8766.88
7798.29
6834.91
6046.57
5262.46
4696.2
4179.89
4043.57
33792.9
4052.79
1363.92
1452.23
1513.15
1589.75
1685.63
1783.28
1899.88
2019.89
2159.84
2307.61
2468.59
2639
2818.59
3004.46
3193.24
3378.59
3539.65
3654.34
3709.46
3709.45
3654.33
3539.66
3378.64
3193.38
3004.73
2818.99
2639.51
2469.17
2308.22
2160.4
2020.29
1900.14
1783.04
1685.06
1588.27
1510.43
1447.17
1357.81
4012.27
4175.53
1452.86
1556.65
1637.12
1728.87
1836.96
1946.7
2075.43
2209.15
2363.58
2526.79
2703.7
2890.03
3084.73
3284.31
3483.58
3674.44
3848.47
3982.7
4052.72
4052.71
3982.7
3848.52
3674.57
3483.81
3284.66
3085.18
2890.52
2704.14
2527.07
2363.6
2208.63
2074.54
1944.66
1834.21
1724.27
1630.3
1546.79
1442.57
4116.82
4716.93
1518.12
1642.41
1734.41
1833.7
1945.21
2058.33
2188.84
2325.63
2480.2
2643.28
2817.61
2999.96
3189.29
3383.38
3579.66
3773.87
3954.7
4098.23
4176.86
4176.86
4098.24
3954.78
3774.06
3579.97
3383.79
3189.72
3000.3
2817.71
2642.93
2479.34
2323.65
2186.33
2053.53
1939.3
1824.08
1721.12
1623.79
1498.84
4565.44
5351.33
1607.61
1749.75
1848.79
1949.97
2058.82
2171.85
2301.19
2440.8
2595.97
2761.2
2936.83
3121.09
3313.13
3511.88
3715.69
3920.5
4114.5
4270.83
4358.08
4358.09
4270.89
4114.66
3920.78
3716.02
3512.14
3313.12
3120.53
2935.46
2758.53
2592.02
2434.13
2293.44
2158.95
2043.79
1927.22
1820.56
1714.3
1573.52
5094.27
6211.3
1717.27
1875.88
1978.63
2079.72
2181.91
2294.81
2421.12
2564.41
2721.34
2891.04
3071.28
3261.55
3460.98
3668.51
3882.01
4096.59
4300.57
4466.91
4562.65
4562.69
4467.03
4300.8
4096.86
3882.15
3668.25
3459.94
3259.28
3067.38
2884.75
2712.82
2551.25
2406.28
2270.77
2155.02
2039.28
1931.56
1819.94
1665.83
5818.43
7092.57
1830.27
2006.86
2114.67
2214.55
2309.95
2421.6
2546.72
2692.39
2854.26
3029.2
3216.68
3414.96
3623.46
3840.65
4063.94
4288.35
4502.54
4679.21
4783.62
4783.68
4679.39
4502.78
4288.44
4063.51
3839.22
3620.46
3409.72
3208.63
3017.27
2838.69
2669.66
2520.81
2381.37
2265.09
2149.49
2041.66
1926.35
1759.78
6549.62
8096.68
1958.24
2154.85
2270.44
2372.52
2463.87
2574.78
2697.59
2849.09
3013.22
3194.29
3387.62
3592.93
3809.15
4034.51
4266.59
4500.58
4725.4
4913.03
5026.64
5026.74
4913.25
4725.51
4500.13
4264.98
4031.02
3803
3583.24
3373.6
3174.6
2987.97
2814.09
2656.25
2514
2393.52
2277.28
2168.25
2049.69
1870.27
7431.7
9085.62
2085.79
2303.35
2430.46
2537.69
2631.33
2739.94
2868.11
3020.51
3190.45
3378.29
3578.31
3792.07
4016.51
4250.97
4492.72
4737.33
4973.75
5173
5296.15
5296.28
5173.16
4973.43
4735.8
4489.1
4244.32
4005.82
3776.33
3556.43
3348.99
3152.54
2970.2
2805.93
2654.46
2531.13
2410.88
2298.72
2176.31
1983.39
8325.48
10162.5
2232.09
2473.07
2609.8
2724.81
2820.58
2930.37
3059.22
3214.42
3390.64
3582.13
3790.99
4011.98
4245.9
4490.05
4742.5
4998.7
5247.58
5458.99
5591.96
5592.06
5458.9
5246.4
4995.36
4735.89
4479
4229.29
3988.57
3759.57
3540.71
3337.66
3144.94
2972.63
2815.95
2685.02
2561.89
2447.51
2323.25
2115.88
9369.49
11192.2
2385.01
2651.06
2796.18
2921.8
3022.77
3134.77
3266.64
3425.2
3603.71
3804.27
4019.39
4250.63
4494.31
4749.56
5013.7
5282.42
5544.46
5768.42
5911.34
5911.34
5767.75
5541.81
5276.41
5003
4732.93
4470.48
4218.3
3976.82
3749.3
3532.91
3333.72
3150.98
2986.47
2849.71
2720.77
2602.87
2477.26
2254.78
10422.8
12266.2
2553.22
2847.38
3000.33
3134.37
3240.91
3356.24
3491.21
3650.34
3834.91
4039.51
4264.37
4504.82
4759.93
5027.05
5303.91
5585.99
5861.82
6098.61
6251.51
6251.28
6096.92
5856.98
5576.38
5288.14
5003.84
4727.98
4462.56
4209.68
3968.99
3744.17
3532.75
3342.35
3170.08
3024.58
2890.35
2769.78
2645.22
2407.09
11597.8
13258.6
2731.69
3056.23
3218.84
3361.24
3474.74
3593.51
3730.56
3891.7
4078.3
4289.91
4522.4
4773.72
5040.57
5320.65
5611.16
5907.48
6197.76
6447.69
6610.52
6609.9
6444.45
6189.97
5893.46
5589.56
5290.25
4999.98
4721.06
4454.67
4202.64
3964.91
3744.81
3543.5
3363.21
3208.82
3067.78
2943.99
2821.88
2568.23
12779
14110.7
2916.92
3278.05
3452.78
3603.15
3725.45
3847.3
3985.52
4146.54
4335.97
4552.4
4793.53
5055.4
5334.83
5628.65
5933.79
6245.31
6550.8
6814.28
6986.94
6985.76
6808.92
6539.38
6226.29
5905.98
5590.89
5285.56
4992.16
4712.27
4446.87
4197.77
3966.03
3755.24
3565.9
3401.7
3252.97
3125.53
3007.3
2738.73
14052.4
15016.8
3113.64
3514.01
3701.53
3859.34
3992.35
4116.49
4254.45
4414.61
4605.33
4826.72
5075.84
5348.65
5641.04
5949.34
6270.02
6597.7
6919.24
7196.8
7379.26
7377.32
7188.83
6903.74
6573.42
6236.02
5904.46
5583.36
5274.93
4980.63
4701.84
4439.87
4196.94
3975.53
3776.98
3602.59
3444.98
3312.53
3198.71
2916.28
15323.6
15456.7
3324.11
3768.12
3966.5
4130.64
4273.73
4398.13
4534.82
4693.07
4884.74
5110.48
5367.61
5651.44
5957.17
6280.54
6617.5
6962.21
7300.63
7592.86
7785.14
7782.32
7581.93
7280.83
6932.74
6577.62
6228.95
5891.48
5567.38
5258.19
4965.23
4690.14
4435.1
4202.9
3994.76
3810.08
3642.74
3503.05
3392.86
3098.15
16603
16073.4
3535.67
4042.6
4257.87
4422.85
4565.7
4687.55
4821.33
4977.36
5170.34
5400.66
5665.98
5961.12
6280.57
6619.49
6973.34
7335.74
7691.73
7999.18
8201.37
8197.57
7985.11
7667.62
7301.25
6927.88
6561.51
6207.04
5866.68
5542
5234.37
4945.5
4677.84
4434.27
4216.13
4021.35
3843.98
3694.21
3584.83
3278.87
17794.4
14747.8
3682.69
4324.77
4573.54
4742.14
4856.98
4973.74
5102.02
5258.37
5453.92
5689.56
5963.56
6270.38
6603.9
6958.67
7329.68
7710.08
8084
8407.01
8619.15
8614.37
8389.87
8055.86
7671
7279.04
6894.59
6522.69
6165.62
5824.96
5502.16
5199.02
4918.13
4662.59
4433.89
4229.09
4041.93
3879.92
3765.74
3449.7
18778.8
13536.2
3862.85
4665.14
4897.65
5044.77
5132.67
5238.16
5361.54
5521.78
5723.1
5967.1
6251.98
6572.19
6921.1
7292.73
7681.66
8080.68
8473.05
8812.06
9034.3
9028.59
8792.17
8441.59
8038.03
7627.16
7224.13
6834.2
6459.68
6102.24
5763.36
5444.93
5149.68
4880.88
4640.18
4424.37
4226.75
4050.93
3927.23
3595.12
19425.6
12283.7
4270.99
5017.24
5284.49
5304.71
5338.17
5425.42
5548.62
5715.06
5922.89
6175.91
6471.11
6803.63
7166.39
7552.95
7957.48
8372.36
8780.18
9132.44
9362.97
9356.58
9110.55
8746.46
8327.51
7900.88
7482.19
7076.81
6687.13
6314.86
5961.53
5629.13
5320.48
5039.02
4786.5
4559.79
4351.97
4164.48
4029.1
3681.39
19677.6
)
;

boundaryField
{
    inlet
    {
        type            fixedValue;
        value           uniform 10000;
    }
    outlet
    {
        type            fixedValue;
        value           uniform 1000;
    }
    obstacle
    {
        type            zeroGradient;
    }
    empty
    {
        type            empty;
    }
}


// ************************************************************************* //
