/*--------------------------------*- C++ -*----------------------------------*\
| =========                 |                                                 |
| \\      /  F ield         | OpenFOAM: The Open Source CFD Toolbox           |
|  \\    /   O peration     | Version:  v1912                                 |
|   \\  /    A nd           | Website:  www.openfoam.com                      |
|    \\/     M anipulation  |                                                 |
\*---------------------------------------------------------------------------*/
FoamFile
{
    version     2.0;
    format      ascii;
    class       volVectorField;
    location    "2.46";
    object      U;
}
// * * * * * * * * * * * * * * * * * * * * * * * * * * * * * * * * * * * * * //

dimensions      [0 1 -1 0 0 0 0];


internalField   nonuniform List<vector> 
1900
(
(-0.287817 6.85638e-07 0)
(-0.0529762 -3.37843e-07 0)
(-0.0551626 -1.59283e-06 0)
(-0.0587809 1.06978e-05 0)
(-0.0625456 6.42092e-05 0)
(-0.0666605 0.000253857 0)
(-0.0711344 0.000444115 0)
(-0.0753333 -0.00066954 0)
(-0.0787279 -0.00363358 0)
(-0.0718078 -0.0135533 0)
(-0.28782 -2.68607e-07 0)
(-0.0529832 -2.32804e-06 0)
(-0.0551692 -4.43938e-06 0)
(-0.0587753 9.6162e-06 0)
(-0.0624864 7.51005e-05 0)
(-0.0664107 0.000260284 0)
(-0.0703489 0.000437939 0)
(-0.0741613 -0.00015552 0)
(-0.0792052 -0.00212863 0)
(-0.0836316 -0.0111142 0)
(-0.287822 -4.43936e-14 0)
(-0.0529863 -3.43878e-14 0)
(-0.0551703 -3.84789e-14 0)
(-0.0587577 2.39582e-14 0)
(-0.0624295 -6.30319e-16 0)
(-0.0662541 2.86907e-15 0)
(-0.0700608 -9.94816e-15 0)
(-0.0739609 5.11965e-15 0)
(-0.0793452 -1.19962e-14 0)
(-0.0891097 -1.26643e-14 0)
(-0.28782 2.68607e-07 0)
(-0.0529832 2.32804e-06 0)
(-0.0551692 4.43938e-06 0)
(-0.0587753 -9.6162e-06 0)
(-0.0624864 -7.51005e-05 0)
(-0.0664107 -0.000260284 0)
(-0.0703489 -0.000437939 0)
(-0.0741613 0.00015552 0)
(-0.0792052 0.00212863 0)
(-0.0836316 0.0111142 0)
(-0.287817 -6.85638e-07 0)
(-0.0529762 3.37843e-07 0)
(-0.0551626 1.59283e-06 0)
(-0.0587809 -1.06978e-05 0)
(-0.0625456 -6.42092e-05 0)
(-0.0666605 -0.000253857 0)
(-0.0711344 -0.000444115 0)
(-0.0753333 0.00066954 0)
(-0.0787279 0.00363358 0)
(-0.0718078 0.0135533 0)
(-0.0756225 -0.0372801 0)
(-0.101093 -0.0490403 0)
(-0.123752 -0.0701603 0)
(-0.167058 -0.0924434 0)
(-0.315113 -0.0747517 0)
(-0.0995815 -0.0259212 0)
(-0.126054 -0.0333544 0)
(-0.161331 -0.0508889 0)
(-0.233193 -0.0689011 0)
(-0.36978 -0.0647016 0)
(-0.107716 -1.72225e-14 0)
(-0.133396 -1.69188e-14 0)
(-0.175244 2.39845e-14 0)
(-0.254791 -5.34035e-15 0)
(-0.384774 1.241e-14 0)
(-0.0995815 0.0259212 0)
(-0.126054 0.0333544 0)
(-0.161331 0.0508889 0)
(-0.233193 0.0689011 0)
(-0.36978 0.0647016 0)
(-0.0756225 0.0372801 0)
(-0.101093 0.0490403 0)
(-0.123752 0.0701603 0)
(-0.167058 0.0924434 0)
(-0.315113 0.0747517 0)
(-0.373279 0.0199269 0)
(-0.309861 0.0276027 0)
(-0.281236 0.0271022 0)
(-0.268408 0.0469131 0)
(-0.345509 0.10691 0)
(-0.388775 0.0165608 0)
(-0.318636 0.0169161 0)
(-0.272207 0.017932 0)
(-0.225123 0.0378916 0)
(-0.182418 0.111438 0)
(-0.397425 1.16738e-14 0)
(-0.321625 5.34238e-14 0)
(-0.264675 7.54597e-14 0)
(-0.1949 1.36956e-13 0)
(-0.0825644 1.00976e-13 0)
(-0.388775 -0.0165608 0)
(-0.318636 -0.0169161 0)
(-0.272207 -0.017932 0)
(-0.225123 -0.0378916 0)
(-0.182418 -0.111438 0)
(-0.373279 -0.0199269 0)
(-0.309861 -0.0276027 0)
(-0.281236 -0.0271022 0)
(-0.268408 -0.0469131 0)
(-0.345509 -0.10691 0)
(-0.579943 0.120007 0)
(-0.125456 -0.134484 0)
(-0.17917 -0.174939 0)
(-0.301914 -0.0947391 0)
(-0.358663 -0.0345354 0)
(-0.379695 -0.0186745 0)
(-0.381222 -0.0144627 0)
(-0.372196 -0.0126729 0)
(-0.355177 -0.0114554 0)
(-0.332755 -0.0114877 0)
(-0.305723 -0.0115125 0)
(-0.274618 -0.0116769 0)
(-0.240699 -0.011989 0)
(-0.205084 -0.0123634 0)
(-0.16879 -0.0127687 0)
(-0.132706 -0.0131483 0)
(-0.0976973 -0.0134764 0)
(-0.0645988 -0.0137286 0)
(-0.034545 -0.0138915 0)
(-0.00708974 -0.0139801 0)
(0.00831215 -0.0139419 0)
(0.0365739 -0.0138101 0)
(0.067552 -0.0136113 0)
(0.101841 -0.0133376 0)
(0.138296 -0.0129879 0)
(0.176232 -0.0125655 0)
(0.215079 -0.0120727 0)
(0.254441 -0.0115126 0)
(0.294034 -0.0108883 0)
(0.333596 -0.0102032 0)
(0.372785 -0.00946164 0)
(0.411083 -0.00866904 0)
(0.447815 -0.00783652 0)
(0.482402 -0.00696085 0)
(0.514908 -0.00609614 0)
(0.545946 -0.0051658 0)
(0.575341 -0.00465969 0)
(0.597148 -0.00332337 0)
(0.668534 -0.00226166 0)
(1.2541 8.91217e-05 0)
(-0.012631 0.126114 0)
(0.178223 -0.0975969 0)
(-0.0308851 -0.124864 0)
(-0.267119 -0.0552714 0)
(-0.355619 -0.0174571 0)
(-0.379292 -0.00915126 0)
(-0.381797 -0.00698993 0)
(-0.372785 -0.00605012 0)
(-0.355449 -0.00544623 0)
(-0.332886 -0.00548218 0)
(-0.305803 -0.00549213 0)
(-0.274674 -0.00557768 0)
(-0.240765 -0.00574216 0)
(-0.205167 -0.0059428 0)
(-0.168884 -0.00616406 0)
(-0.132798 -0.00636996 0)
(-0.0977738 -0.00654731 0)
(-0.0646538 -0.00668432 0)
(-0.0345778 -0.00677555 0)
(-0.00709522 -0.00682491 0)
(0.00831813 -0.00680758 0)
(0.036602 -0.00674224 0)
(0.0675884 -0.00664201 0)
(0.101885 -0.00650522 0)
(0.138346 -0.00633117 0)
(0.17629 -0.00612094 0)
(0.215146 -0.00587519 0)
(0.254518 -0.00559488 0)
(0.294124 -0.00528081 0)
(0.3337 -0.00493356 0)
(0.372905 -0.00455378 0)
(0.411221 -0.00414187 0)
(0.447967 -0.00370058 0)
(0.482565 -0.00322503 0)
(0.515076 -0.0027412 0)
(0.5461 -0.00221159 0)
(0.575472 -0.00190094 0)
(0.59741 -0.00121983 0)
(0.668755 -0.000706812 0)
(1.25414 8.22583e-05 0)
(0.174302 4.88047e-14 0)
(0.28275 -2.01719e-14 0)
(0.037872 -2.15334e-14 0)
(-0.24939 1.59629e-14 0)
(-0.355039 4.92603e-14 0)
(-0.379206 3.92565e-14 0)
(-0.38212 1.78717e-14 0)
(-0.373064 -5.01478e-14 0)
(-0.355671 9.41356e-14 0)
(-0.333165 7.2114e-13 0)
(-0.306107 2.04628e-12 0)
(-0.274966 2.77589e-12 0)
(-0.241037 -2.0507e-12 0)
(-0.205419 -1.65381e-11 0)
(-0.16911 -4.00837e-11 0)
(-0.132985 -5.06796e-11 0)
(-0.0979135 -1.00437e-10 0)
(-0.0647428 1.03958e-10 0)
(-0.0346209 -3.08916e-11 0)
(-0.00710183 -7.27328e-11 0)
(0.00833223 1.30905e-11 0)
(0.0366524 -1.24995e-10 0)
(0.0676814 -4.8271e-10 0)
(0.102028 -1.98081e-10 0)
(0.138543 2.69491e-11 0)
(0.176538 -2.08328e-10 0)
(0.215442 -2.76298e-10 0)
(0.254857 -3.00563e-10 0)
(0.294499 -1.80272e-10 0)
(0.334103 1.93978e-11 0)
(0.373326 2.59457e-10 0)
(0.411648 5.57186e-10 0)
(0.448387 7.68776e-10 0)
(0.482964 9.70776e-10 0)
(0.51544 1.0318e-09 0)
(0.546406 9.69073e-10 0)
(0.575726 6.48679e-10 0)
(0.59762 3.32005e-10 0)
(0.668849 1.58187e-10 0)
(1.25412 -6.55812e-12 0)
(-0.012631 -0.126114 0)
(0.178223 0.0975969 0)
(-0.0308851 0.124864 0)
(-0.267119 0.0552714 0)
(-0.355619 0.0174571 0)
(-0.379292 0.00915126 0)
(-0.381797 0.00698993 0)
(-0.372785 0.00605012 0)
(-0.355449 0.00544623 0)
(-0.332886 0.00548218 0)
(-0.305803 0.00549213 0)
(-0.274674 0.00557768 0)
(-0.240765 0.00574216 0)
(-0.205167 0.0059428 0)
(-0.168884 0.00616406 0)
(-0.132798 0.00636996 0)
(-0.0977738 0.00654731 0)
(-0.0646538 0.00668432 0)
(-0.0345778 0.00677555 0)
(-0.00709522 0.00682491 0)
(0.00831813 0.00680758 0)
(0.036602 0.00674224 0)
(0.0675884 0.00664201 0)
(0.101885 0.00650522 0)
(0.138346 0.00633117 0)
(0.17629 0.00612094 0)
(0.215146 0.00587519 0)
(0.254518 0.00559487 0)
(0.294124 0.00528081 0)
(0.3337 0.00493356 0)
(0.372905 0.00455378 0)
(0.411221 0.00414187 0)
(0.447967 0.00370058 0)
(0.482565 0.00322503 0)
(0.515076 0.0027412 0)
(0.5461 0.00221159 0)
(0.575472 0.00190094 0)
(0.59741 0.00121983 0)
(0.668755 0.000706813 0)
(1.25414 -8.22583e-05 0)
(-0.579943 -0.120007 0)
(-0.125456 0.134484 0)
(-0.17917 0.174939 0)
(-0.301914 0.0947391 0)
(-0.358663 0.0345354 0)
(-0.379695 0.0186745 0)
(-0.381222 0.0144627 0)
(-0.372196 0.0126729 0)
(-0.355177 0.0114554 0)
(-0.332755 0.0114877 0)
(-0.305723 0.0115125 0)
(-0.274618 0.0116769 0)
(-0.240699 0.011989 0)
(-0.205084 0.0123634 0)
(-0.16879 0.0127687 0)
(-0.132706 0.0131483 0)
(-0.0976973 0.0134764 0)
(-0.0645988 0.0137286 0)
(-0.034545 0.0138915 0)
(-0.00708974 0.0139801 0)
(0.00831215 0.0139419 0)
(0.0365739 0.0138101 0)
(0.067552 0.0136113 0)
(0.101841 0.0133376 0)
(0.138296 0.0129879 0)
(0.176232 0.0125655 0)
(0.215079 0.0120727 0)
(0.254441 0.0115126 0)
(0.294034 0.0108883 0)
(0.333596 0.0102032 0)
(0.372785 0.00946164 0)
(0.411083 0.00866904 0)
(0.447815 0.00783652 0)
(0.482402 0.00696085 0)
(0.514908 0.00609614 0)
(0.545946 0.0051658 0)
(0.575341 0.00465969 0)
(0.597148 0.00332337 0)
(0.668534 0.00226166 0)
(1.2541 -8.91218e-05 0)
(-1.14031 -0.174161 0)
(-0.448221 0.149888 0)
(-0.356698 0.214569 0)
(-0.356789 0.134901 0)
(-0.374618 0.0635274 0)
(-0.385697 0.039437 0)
(-0.384408 0.0319729 0)
(-0.372765 0.0281383 0)
(-0.355708 0.0260924 0)
(-0.333071 0.025683 0)
(-0.305683 0.0255663 0)
(-0.274348 0.025773 0)
(-0.240304 0.0262696 0)
(-0.204668 0.0268766 0)
(-0.168428 0.0275141 0)
(-0.13243 0.0281067 0)
(-0.0975061 0.0286108 0)
(-0.064475 0.0289908 0)
(-0.0344825 0.0292269 0)
(-0.00710141 0.0293784 0)
(0.00823752 0.0292976 0)
(0.0363961 0.0290335 0)
(0.0672949 0.0286609 0)
(0.101506 0.0281493 0)
(0.137883 0.0274973 0)
(0.175743 0.026715 0)
(0.214518 0.0258102 0)
(0.253814 0.024792 0)
(0.293348 0.0236703 0)
(0.332859 0.0224568 0)
(0.372008 0.0211658 0)
(0.410279 0.0198121 0)
(0.446993 0.0184196 0)
(0.481578 0.0169816 0)
(0.514096 0.0155948 0)
(0.545186 0.0140853 0)
(0.574602 0.0133358 0)
(0.595899 0.0107836 0)
(0.667363 0.00836572 0)
(1.25381 0.00256056 0)
(-1.25428 -0.12513 0)
(-0.614996 0.175513 0)
(-0.49013 0.222041 0)
(-0.424216 0.154267 0)
(-0.407815 0.0953971 0)
(-0.400423 0.0711751 0)
(-0.391384 0.0600392 0)
(-0.376468 0.0541709 0)
(-0.357908 0.0513595 0)
(-0.33427 0.0500004 0)
(-0.306051 0.0496859 0)
(-0.274218 0.0499418 0)
(-0.239889 0.0506367 0)
(-0.204128 0.0515003 0)
(-0.16785 0.0523998 0)
(-0.131867 0.0532349 0)
(-0.0970037 0.0539408 0)
(-0.0640823 0.0544731 0)
(-0.0342538 0.0548111 0)
(-0.00707202 0.0550904 0)
(0.0080765 0.0549741 0)
(0.0359945 0.0545272 0)
(0.0666979 0.0539477 0)
(0.100726 0.0531553 0)
(0.13693 0.0521528 0)
(0.174626 0.0509618 0)
(0.21325 0.0495969 0)
(0.252408 0.0480728 0)
(0.291822 0.0464034 0)
(0.33123 0.0446031 0)
(0.370293 0.0426886 0)
(0.408497 0.0406756 0)
(0.445165 0.0385962 0)
(0.479729 0.036422 0)
(0.512285 0.0343402 0)
(0.543377 0.0318811 0)
(0.572985 0.0309715 0)
(0.593259 0.0263305 0)
(0.664752 0.021126 0)
(1.25292 0.00951249 0)
(-1.26325 -0.0607193 0)
(-0.650337 0.158545 0)
(-0.53435 0.208327 0)
(-0.465004 0.157367 0)
(-0.434083 0.123708 0)
(-0.412296 0.105911 0)
(-0.397824 0.0940498 0)
(-0.380264 0.0869164 0)
(-0.359608 0.0835961 0)
(-0.334851 0.0815995 0)
(-0.305863 0.0811389 0)
(-0.273562 0.081438 0)
(-0.238998 0.0822466 0)
(-0.203172 0.0832705 0)
(-0.166931 0.0843417 0)
(-0.131043 0.0853446 0)
(-0.0963094 0.0862093 0)
(-0.0635574 0.0868857 0)
(-0.0339495 0.0873437 0)
(-0.0070321 0.0877982 0)
(0.00786274 0.0876656 0)
(0.0354804 0.0870232 0)
(0.0659723 0.0862821 0)
(0.0998264 0.0852893 0)
(0.135874 0.0840561 0)
(0.173422 0.0826147 0)
(0.211903 0.0809837 0)
(0.250926 0.0791782 0)
(0.29021 0.0772109 0)
(0.329498 0.075093 0)
(0.368449 0.0728389 0)
(0.406555 0.0704605 0)
(0.44315 0.0680007 0)
(0.477663 0.0654 0)
(0.510246 0.0629583 0)
(0.541146 0.0597437 0)
(0.57088 0.0588227 0)
(0.590105 0.052704 0)
(0.661481 0.0442011 0)
(1.25079 0.0277643 0)
(-1.2619 0.000283924 0)
(-0.656076 0.159391 0)
(-0.548902 0.208151 0)
(-0.485958 0.171776 0)
(-0.450145 0.154425 0)
(-0.425725 0.139829 0)
(-0.405334 0.129462 0)
(-0.385374 0.121705 0)
(-0.362352 0.11806 0)
(-0.336007 0.115746 0)
(-0.305952 0.115085 0)
(-0.272972 0.115339 0)
(-0.238044 0.116158 0)
(-0.202068 0.117242 0)
(-0.165815 0.118402 0)
(-0.130004 0.119516 0)
(-0.0954114 0.12051 0)
(-0.0628525 0.121316 0)
(-0.0335085 0.121889 0)
(-0.0069515 0.122538 0)
(0.00759126 0.122405 0)
(0.0347812 0.121562 0)
(0.0649804 0.120676 0)
(0.0986079 0.119508 0)
(0.134461 0.118078 0)
(0.171827 0.116432 0)
(0.210134 0.11459 0)
(0.248992 0.112571 0)
(0.288122 0.110386 0)
(0.327266 0.108047 0)
(0.366088 0.105566 0)
(0.404086 0.102959 0)
(0.440615 0.100287 0)
(0.475073 0.0974323 0)
(0.507714 0.0948937 0)
(0.538157 0.0909324 0)
(0.568031 0.0903097 0)
(0.586752 0.0837777 0)
(0.658226 0.0723833 0)
(1.24681 0.0560334 0)
(-1.24897 0.0454226 0)
(-0.655102 0.176048 0)
(-0.555096 0.219597 0)
(-0.500578 0.192331 0)
(-0.463781 0.185672 0)
(-0.436747 0.173126 0)
(-0.412876 0.164799 0)
(-0.390369 0.157251 0)
(-0.365299 0.153554 0)
(-0.337262 0.151322 0)
(-0.306043 0.150647 0)
(-0.272337 0.150943 0)
(-0.23701 0.151812 0)
(-0.20087 0.152968 0)
(-0.164604 0.15422 0)
(-0.128872 0.155448 0)
(-0.0944096 0.156568 0)
(-0.0620307 0.157501 0)
(-0.0329597 0.158194 0)
(-0.00683426 0.159046 0)
(0.00728765 0.158924 0)
(0.0339579 0.15788 0)
(0.0638234 0.156859 0)
(0.097212 0.155524 0)
(0.132872 0.153911 0)
(0.17006 0.152076 0)
(0.208197 0.150045 0)
(0.246892 0.147838 0)
(0.285868 0.145468 0)
(0.324866 0.142941 0)
(0.363565 0.140285 0)
(0.401457 0.137495 0)
(0.437946 0.134693 0)
(0.472325 0.131619 0)
(0.505034 0.129107 0)
(0.534764 0.124317 0)
(0.564661 0.124127 0)
(0.584149 0.118048 0)
(0.655768 0.104431 0)
(1.24088 0.0916761 0)
(-1.25317 0.108446 0)
(-0.653045 0.199692 0)
(-0.557494 0.238166 0)
(-0.509537 0.217429 0)
(-0.473926 0.216912 0)
(-0.445276 0.205591 0)
(-0.419696 0.199483 0)
(-0.395019 0.192755 0)
(-0.368081 0.189402 0)
(-0.338393 0.187454 0)
(-0.306027 0.186936 0)
(-0.271593 0.187343 0)
(-0.235882 0.188309 0)
(-0.199583 0.189557 0)
(-0.163302 0.190911 0)
(-0.127633 0.192252 0)
(-0.0932746 0.193499 0)
(-0.0610575 0.194565 0)
(-0.032274 0.19539 0)
(-0.00667019 0.19645 0)
(0.0069585 0.196349 0)
(0.0330049 0.195114 0)
(0.0624898 0.193964 0)
(0.0956241 0.192472 0)
(0.131089 0.190684 0)
(0.168103 0.188672 0)
(0.206074 0.186468 0)
(0.244612 0.184093 0)
(0.283434 0.181553 0)
(0.322305 0.178878 0)
(0.360866 0.176049 0)
(0.398696 0.173142 0)
(0.435163 0.170241 0)
(0.46941 0.166932 0)
(0.502203 0.164533 0)
(0.531104 0.158951 0)
(0.561114 0.159253 0)
(0.582157 0.154009 0)
(0.65393 0.138794 0)
(1.23256 0.130647 0)
(-1.23545 0.170458 0)
(-0.65077 0.22724 0)
(-0.558725 0.261424 0)
(-0.515089 0.246228 0)
(-0.481186 0.247885 0)
(-0.451861 0.237625 0)
(-0.42555 0.233823 0)
(-0.399069 0.2281 0)
(-0.370422 0.225295 0)
(-0.339302 0.223846 0)
(-0.30582 0.223548 0)
(-0.270754 0.224177 0)
(-0.234675 0.225268 0)
(-0.198232 0.226638 0)
(-0.161921 0.228102 0)
(-0.126283 0.229567 0)
(-0.0919957 0.230955 0)
(-0.059921 0.232172 0)
(-0.0314425 0.233143 0)
(-0.00645674 0.234408 0)
(0.00661305 0.234336 0)
(0.0319342 0.232923 0)
(0.0609962 0.231654 0)
(0.0938643 0.230012 0)
(0.129136 0.228059 0)
(0.165979 0.225882 0)
(0.203791 0.223519 0)
(0.242172 0.220984 0)
(0.28087 0.218314 0)
(0.319566 0.215451 0)
(0.358103 0.21258 0)
(0.395757 0.209425 0)
(0.432341 0.206593 0)
(0.466352 0.202959 0)
(0.499244 0.20072 0)
(0.527327 0.194496 0)
(0.557673 0.195258 0)
(0.58063 0.190936 0)
(0.652555 0.174791 0)
(1.22279 0.17392 0)
(-1.22272 0.221951 0)
(-0.64843 0.25611 0)
(-0.559603 0.287801 0)
(-0.518764 0.276928 0)
(-0.486334 0.278931 0)
(-0.456865 0.269734 0)
(-0.430362 0.268041 0)
(-0.402319 0.263169 0)
(-0.372378 0.261298 0)
(-0.339761 0.260124 0)
(-0.305503 0.260362 0)
(-0.269749 0.261127 0)
(-0.233392 0.262434 0)
(-0.196781 0.263925 0)
(-0.160423 0.26553 0)
(-0.124787 0.267144 0)
(-0.0905438 0.268702 0)
(-0.0586024 0.270095 0)
(-0.0304571 0.271225 0)
(-0.00619455 0.272682 0)
(0.00625706 0.272638 0)
(0.0307531 0.271068 0)
(0.0593515 0.269687 0)
(0.091943 0.267904 0)
(0.127022 0.265796 0)
(0.1637 0.263464 0)
(0.201351 0.260945 0)
(0.239607 0.258287 0)
(0.278112 0.255423 0)
(0.316822 0.252572 0)
(0.355028 0.249328 0)
(0.392927 0.246406 0)
(0.429318 0.243239 0)
(0.463144 0.239421 0)
(0.496207 0.237409 0)
(0.523553 0.230733 0)
(0.554379 0.231753 0)
(0.579266 0.228236 0)
(0.651086 0.211192 0)
(1.2097 0.214085 0)
(-1.21089 0.277986 0)
(-0.64682 0.288352 0)
(-0.560259 0.31632 0)
(-0.521448 0.309019 0)
(-0.489869 0.310456 0)
(-0.460594 0.302257 0)
(-0.434201 0.302128 0)
(-0.404991 0.298383 0)
(-0.373465 0.296728 0)
(-0.340228 0.296721 0)
(-0.304693 0.296838 0)
(-0.268686 0.298143 0)
(-0.231912 0.299525 0)
(-0.195196 0.30123 0)
(-0.158759 0.302994 0)
(-0.12311 0.3048 0)
(-0.0888954 0.30656 0)
(-0.0570905 0.308145 0)
(-0.0293192 0.309439 0)
(-0.00588914 0.311064 0)
(0.0058942 0.311044 0)
(0.02947 0.30934 0)
(0.0575657 0.307855 0)
(0.0898706 0.30594 0)
(0.12476 0.303685 0)
(0.161271 0.301203 0)
(0.198788 0.298559 0)
(0.236851 0.295716 0)
(0.275385 0.292881 0)
(0.313631 0.289558 0)
(0.352416 0.286904 0)
(0.389386 0.2829 0)
(0.426722 0.28072 0)
(0.459755 0.276002 0)
(0.493034 0.274329 0)
(0.520015 0.26762 0)
(0.551535 0.268802 0)
(0.578066 0.265771 0)
(0.649894 0.248923 0)
(1.19658 0.262628 0)
(-1.19349 0.322435 0)
(-0.643908 0.319539 0)
(-0.560055 0.345298 0)
(-0.52324 0.341347 0)
(-0.492145 0.342144 0)
(-0.463246 0.334972 0)
(-0.437109 0.33619 0)
(-0.40623 0.332256 0)
(-0.374844 0.333015 0)
(-0.339288 0.331946 0)
(-0.304119 0.333625 0)
(-0.267085 0.334611 0)
(-0.230333 0.336485 0)
(-0.193381 0.338305 0)
(-0.156905 0.340308 0)
(-0.121224 0.342327 0)
(-0.0870382 0.344309 0)
(-0.0553846 0.346093 0)
(-0.0280385 0.347542 0)
(-0.0055496 0.349304 0)
(0.0055267 0.349301 0)
(0.028093 0.347492 0)
(0.0556493 0.34591 0)
(0.0876593 0.343871 0)
(0.122356 0.341478 0)
(0.158717 0.338868 0)
(0.196055 0.336065 0)
(0.234101 0.333211 0)
(0.272191 0.329967 0)
(0.311052 0.327247 0)
(0.348455 0.323191 0)
(0.387034 0.320875 0)
(0.422897 0.316924 0)
(0.456459 0.312859 0)
(0.48971 0.311127 0)
(0.516371 0.304268 0)
(0.548749 0.30551 0)
(0.576266 0.302507 0)
(0.647577 0.284878 0)
(1.17916 0.30038 0)
(-1.17572 0.379395 0)
(-0.642175 0.355919 0)
(-0.560613 0.37779 0)
(-0.525642 0.375536 0)
(-0.494066 0.374638 0)
(-0.465548 0.368192 0)
(-0.438983 0.369255 0)
(-0.408055 0.367865 0)
(-0.373899 0.366682 0)
(-0.339706 0.368749 0)
(-0.302225 0.368898 0)
(-0.265799 0.371127 0)
(-0.228355 0.372792 0)
(-0.191429 0.374978 0)
(-0.154823 0.377158 0)
(-0.119127 0.379415 0)
(-0.0849746 0.381613 0)
(-0.0534993 0.383587 0)
(-0.0266338 0.385175 0)
(-0.00518066 0.387035 0)
(0.00515016 0.387041 0)
(0.0266336 0.385158 0)
(0.0536176 0.38349 0)
(0.0853235 0.381338 0)
(0.119835 0.378827 0)
(0.156032 0.37609 0)
(0.193298 0.37324 0)
(0.231044 0.37014 0)
(0.269584 0.367328 0)
(0.307186 0.363453 0)
(0.34676 0.36153 0)
(0.382372 0.356141 0)
(0.421108 0.35521 0)
(0.452887 0.349316 0)
(0.486647 0.348026 0)
(0.51353 0.341605 0)
(0.547282 0.343474 0)
(0.575743 0.340827 0)
(0.646791 0.324364 0)
(1.16197 0.353451 0)
(-1.15464 0.41708 0)
(-0.638056 0.385592 0)
(-0.559308 0.406103 0)
(-0.526377 0.404996 0)
(-0.494806 0.403516 0)
(-0.466323 0.399119 0)
(-0.440204 0.401682 0)
(-0.406482 0.398782 0)
(-0.374682 0.402231 0)
(-0.336765 0.401486 0)
(-0.301275 0.404531 0)
(-0.263368 0.405943 0)
(-0.226365 0.408413 0)
(-0.189133 0.410659 0)
(-0.152535 0.413114 0)
(-0.116811 0.415569 0)
(-0.0827176 0.417965 0)
(-0.0514549 0.420103 0)
(-0.0251288 0.421807 0)
(-0.00478717 0.423726 0)
(0.00476053 0.423736 0)
(0.0251047 0.421809 0)
(0.0514838 0.420067 0)
(0.0828771 0.417819 0)
(0.117199 0.415207 0)
(0.153264 0.412398 0)
(0.190326 0.409416 0)
(0.228167 0.40644 0)
(0.26592 0.403003 0)
(0.304774 0.400272 0)
(0.341518 0.39577 0)
(0.380533 0.393717 0)
(0.415674 0.389052 0)
(0.449328 0.384957 0)
(0.482732 0.38287 0)
(0.509199 0.375786 0)
(0.543969 0.377467 0)
(0.57228 0.374337 0)
(0.642587 0.357062 0)
(1.14119 0.386348 0)
(-1.13024 0.473476 0)
(-0.63663 0.423715 0)
(-0.560494 0.439858 0)
(-0.529575 0.438468 0)
(-0.496783 0.434957 0)
(-0.468714 0.432079 0)
(-0.440554 0.433453 0)
(-0.407908 0.433558 0)
(-0.373003 0.434488 0)
(-0.33707 0.436747 0)
(-0.299303 0.438151 0)
(-0.261967 0.440476 0)
(-0.224203 0.442637 0)
(-0.186925 0.445122 0)
(-0.150144 0.447659 0)
(-0.114379 0.450255 0)
(-0.0803324 0.452785 0)
(-0.0493018 0.455043 0)
(-0.0235598 0.45683 0)
(-0.00438209 0.458769 0)
(0.00436374 0.458778 0)
(0.0235314 0.456841 0)
(0.0492856 0.455042 0)
(0.0803754 0.452728 0)
(0.114548 0.450068 0)
(0.150519 0.447236 0)
(0.187605 0.444328 0)
(0.225278 0.441288 0)
(0.263621 0.438414 0)
(0.301454 0.434962 0)
(0.34051 0.43259 0)
(0.376412 0.427774 0)
(0.414848 0.426335 0)
(0.446171 0.420266 0)
(0.48113 0.419457 0)
(0.507943 0.412971 0)
(0.544382 0.415698 0)
(0.573247 0.413401 0)
(0.642873 0.398394 0)
(1.11893 0.443288 0)
(-1.10664 0.499359 0)
(-0.633412 0.447388 0)
(-0.560438 0.463063 0)
(-0.530886 0.461948 0)
(-0.496298 0.457505 0)
(-0.467944 0.458083 0)
(-0.438083 0.459824 0)
(-0.404575 0.460775 0)
(-0.369945 0.463656 0)
(-0.333033 0.465709 0)
(-0.295842 0.468547 0)
(-0.258342 0.47136 0)
(-0.220984 0.474339 0)
(-0.183832 0.477285 0)
(-0.147242 0.480199 0)
(-0.111614 0.483024 0)
(-0.0777271 0.485697 0)
(-0.0470012 0.488048 0)
(-0.0219135 0.489887 0)
(-0.00396359 0.491807 0)
(0.0039535 0.491813 0)
(0.0218908 0.489899 0)
(0.0469702 0.488062 0)
(0.0777105 0.485693 0)
(0.111651 0.482955 0)
(0.147384 0.479994 0)
(0.184144 0.476847 0)
(0.221526 0.47353 0)
(0.259236 0.470066 0)
(0.297009 0.466442 0)
(0.335024 0.46297 0)
(0.371669 0.458985 0)
(0.408842 0.455935 0)
(0.440586 0.450399 0)
(0.475504 0.448809 0)
(0.502178 0.441774 0)
(0.539743 0.444158 0)
(0.568217 0.441526 0)
(0.636926 0.426254 0)
(1.09601 0.469791 0)
(-1.07464 0.551481 0)
(-0.632288 0.483594 0)
(-0.562929 0.494685 0)
(-0.534888 0.493775 0)
(-0.498424 0.488036 0)
(-0.471235 0.490376 0)
(-0.4375 0.489909 0)
(-0.405501 0.4925 0)
(-0.369365 0.49442 0)
(-0.332659 0.497003 0)
(-0.295074 0.49985 0)
(-0.257215 0.502796 0)
(-0.219407 0.505758 0)
(-0.181946 0.508743 0)
(-0.145097 0.511674 0)
(-0.109298 0.514492 0)
(-0.0753635 0.517138 0)
(-0.0448256 0.519461 0)
(-0.0203384 0.521278 0)
(-0.00356962 0.523132 0)
(0.00356554 0.523136 0)
(0.0203243 0.521288 0)
(0.0447969 0.519479 0)
(0.0753267 0.517158 0)
(0.109271 0.514492 0)
(0.14511 0.511612 0)
(0.182042 0.508559 0)
(0.219629 0.505357 0)
(0.257655 0.502096 0)
(0.295694 0.498622 0)
(0.333834 0.495352 0)
(0.370423 0.491476 0)
(0.408176 0.489366 0)
(0.439358 0.483945 0)
(0.476025 0.484126 0)
(0.503046 0.478201 0)
(0.541966 0.481475 0)
(0.570132 0.479638 0)
(0.637233 0.467386 0)
(1.06747 0.526922 0)
(-1.04988 0.5632 0)
(-0.629145 0.502989 0)
(-0.56246 0.515839 0)
(-0.534959 0.515801 0)
(-0.496065 0.510256 0)
(-0.468779 0.514224 0)
(-0.432076 0.51292 0)
(-0.400901 0.517232 0)
(-0.363324 0.518692 0)
(-0.32692 0.522145 0)
(-0.288761 0.525102 0)
(-0.25076 0.528541 0)
(-0.213025 0.532194 0)
(-0.17597 0.536036 0)
(-0.139804 0.539899 0)
(-0.104869 0.543599 0)
(-0.0717914 0.546883 0)
(-0.0420506 0.549567 0)
(-0.0185143 0.551494 0)
(-0.00312265 0.55325 0)
(0.003122 0.553252 0)
(0.0185078 0.551499 0)
(0.0420308 0.549581 0)
(0.0717557 0.546908 0)
(0.104821 0.543629 0)
(0.139754 0.539915 0)
(0.175932 0.536005 0)
(0.213016 0.532064 0)
(0.250816 0.528255 0)
(0.288856 0.524533 0)
(0.327257 0.521309 0)
(0.363477 0.517131 0)
(0.401842 0.515412 0)
(0.432406 0.509613 0)
(0.470336 0.510351 0)
(0.497481 0.504526 0)
(0.537798 0.507765 0)
(0.565286 0.505644 0)
(0.630936 0.492045 0)
(1.04395 0.544066 0)
(-1.0097 0.611903 0)
(-0.626384 0.538196 0)
(-0.563677 0.548886 0)
(-0.538292 0.550331 0)
(-0.499418 0.54622 0)
(-0.472459 0.549862 0)
(-0.434208 0.547486 0)
(-0.403988 0.551603 0)
(-0.364784 0.551397 0)
(-0.328967 0.55424 0)
(-0.29009 0.555875 0)
(-0.252149 0.558562 0)
(-0.214162 0.56151 0)
(-0.176741 0.564876 0)
(-0.140087 0.568503 0)
(-0.104669 0.572138 0)
(-0.0711539 0.575245 0)
(-0.041192 0.577731 0)
(-0.0177973 0.579492 0)
(-0.00296429 0.581131 0)
(0.00296516 0.581131 0)
(0.0177957 0.579495 0)
(0.0411814 0.57774 0)
(0.0711278 0.575265 0)
(0.104624 0.572172 0)
(0.140025 0.568548 0)
(0.176669 0.564921 0)
(0.21409 0.561532 0)
(0.25209 0.558525 0)
(0.290056 0.555727 0)
(0.329028 0.553955 0)
(0.364824 0.550784 0)
(0.404366 0.550812 0)
(0.434428 0.545992 0)
(0.473234 0.548017 0)
(0.500355 0.543434 0)
(0.540282 0.546141 0)
(0.565865 0.543388 0)
(0.628635 0.531528 0)
(1.00698 0.599208 0)
(-0.978856 0.598474 0)
(-0.618286 0.549416 0)
(-0.558762 0.567448 0)
(-0.536438 0.572598 0)
(-0.497591 0.570789 0)
(-0.470934 0.575656 0)
(-0.431618 0.573572 0)
(-0.402014 0.578449 0)
(-0.361874 0.577624 0)
(-0.326668 0.580577 0)
(-0.287484 0.581158 0)
(-0.249448 0.582642 0)
(-0.210846 0.583729 0)
(-0.172537 0.58501 0)
(-0.134874 0.586632 0)
(-0.0984989 0.588927 0)
(-0.0648613 0.592241 0)
(-0.0359849 0.595575 0)
(-0.0146357 0.59826 0)
(-0.00227744 0.600287 0)
(0.00227829 0.600287 0)
(0.0146362 0.598261 0)
(0.0359812 0.59558 0)
(0.0648482 0.592255 0)
(0.098471 0.588955 0)
(0.134827 0.586679 0)
(0.172466 0.585071 0)
(0.210754 0.583799 0)
(0.249331 0.582701 0)
(0.287355 0.581188 0)
(0.326526 0.58054 0)
(0.36172 0.57746 0)
(0.401914 0.578157 0)
(0.431489 0.572976 0)
(0.470951 0.574786 0)
(0.497781 0.569448 0)
(0.53719 0.570247 0)
(0.559693 0.564217 0)
(0.619466 0.545359 0)
(0.977478 0.592179 0)
(-0.954551 0.620058 0)
(-0.597169 0.599445 0)
(-0.541985 0.622445 0)
(-0.526501 0.631 0)
(-0.485132 0.632985 0)
(-0.459536 0.639624 0)
(-0.416971 0.639318 0)
(-0.38767 0.645307 0)
(-0.345273 0.645316 0)
(-0.310767 0.649248 0)
(-0.270472 0.650277 0)
(-0.233091 0.652436 0)
(-0.194437 0.653699 0)
(-0.157084 0.655197 0)
(-0.120632 0.656761 0)
(-0.0864117 0.658828 0)
(-0.0554578 0.661693 0)
(-0.0294442 0.66511 0)
(-0.0113284 0.668166 0)
(-0.00168017 0.670118 0)
(0.0016808 0.670117 0)
(0.0113294 0.668166 0)
(0.0294436 0.665112 0)
(0.0554517 0.661699 0)
(0.086396 0.658843 0)
(0.120606 0.656791 0)
(0.157042 0.655243 0)
(0.194379 0.653765 0)
(0.233005 0.652514 0)
(0.270363 0.650366 0)
(0.310613 0.649324 0)
(0.345064 0.645364 0)
(0.387421 0.645308 0)
(0.41659 0.639212 0)
(0.459117 0.639405 0)
(0.484577 0.632589 0)
(0.525975 0.630129 0)
(0.54128 0.621179 0)
(0.596559 0.59778 0)
(0.953972 0.615869 0)
(-1.02669 1.02979 0)
(-0.61592 0.953235 0)
(-0.586508 0.981503 0)
(-0.595302 1.00956 0)
(-0.536631 1.04825 0)
(-0.518805 1.07265 0)
(-0.459133 1.10182 0)
(-0.431357 1.12554 0)
(-0.372718 1.14804 0)
(-0.33758 1.16921 0)
(-0.283574 1.18636 0)
(-0.243776 1.20371 0)
(-0.19475 1.21674 0)
(-0.152959 1.22923 0)
(-0.109869 1.23854 0)
(-0.0714149 1.246 0)
(-0.0386625 1.2511 0)
(-0.0156576 1.25409 0)
(-0.00397154 1.2554 0)
(-0.000400948 1.25584 0)
(0.000401012 1.25584 0)
(0.00397182 1.2554 0)
(0.0156581 1.25409 0)
(0.038663 1.2511 0)
(0.0714148 1.246 0)
(0.109867 1.23854 0)
(0.152954 1.22924 0)
(0.19474 1.21675 0)
(0.243758 1.20372 0)
(0.283549 1.18637 0)
(0.337543 1.16923 0)
(0.372672 1.14807 0)
(0.431298 1.12558 0)
(0.459058 1.10189 0)
(0.518725 1.07274 0)
(0.536537 1.04836 0)
(0.595274 1.00969 0)
(0.586455 0.9817 0)
(0.616121 0.953216 0)
(1.02677 1.02977 0)
(-1.02669 -1.02979 0)
(-0.61592 -0.953235 0)
(-0.586508 -0.981503 0)
(-0.595302 -1.00956 0)
(-0.536631 -1.04825 0)
(-0.518805 -1.07265 0)
(-0.459133 -1.10182 0)
(-0.431357 -1.12554 0)
(-0.372718 -1.14804 0)
(-0.33758 -1.16921 0)
(-0.283574 -1.18636 0)
(-0.243776 -1.20371 0)
(-0.19475 -1.21674 0)
(-0.152959 -1.22923 0)
(-0.109869 -1.23854 0)
(-0.0714149 -1.246 0)
(-0.0386625 -1.2511 0)
(-0.0156576 -1.25409 0)
(-0.00397154 -1.2554 0)
(-0.000400948 -1.25584 0)
(0.000401012 -1.25584 0)
(0.00397182 -1.2554 0)
(0.0156581 -1.25409 0)
(0.038663 -1.2511 0)
(0.0714148 -1.246 0)
(0.109867 -1.23854 0)
(0.152954 -1.22924 0)
(0.19474 -1.21675 0)
(0.243758 -1.20372 0)
(0.283549 -1.18637 0)
(0.337543 -1.16923 0)
(0.372672 -1.14807 0)
(0.431298 -1.12558 0)
(0.459058 -1.10189 0)
(0.518725 -1.07274 0)
(0.536537 -1.04836 0)
(0.595274 -1.00969 0)
(0.586455 -0.9817 0)
(0.616121 -0.953216 0)
(1.02677 -1.02977 0)
(-0.954551 -0.620058 0)
(-0.597169 -0.599445 0)
(-0.541985 -0.622445 0)
(-0.526501 -0.631 0)
(-0.485132 -0.632985 0)
(-0.459536 -0.639624 0)
(-0.416971 -0.639318 0)
(-0.38767 -0.645307 0)
(-0.345273 -0.645316 0)
(-0.310767 -0.649248 0)
(-0.270472 -0.650277 0)
(-0.233091 -0.652436 0)
(-0.194437 -0.653699 0)
(-0.157084 -0.655197 0)
(-0.120632 -0.656761 0)
(-0.0864117 -0.658828 0)
(-0.0554578 -0.661693 0)
(-0.0294442 -0.66511 0)
(-0.0113284 -0.668166 0)
(-0.00168017 -0.670118 0)
(0.0016808 -0.670117 0)
(0.0113294 -0.668166 0)
(0.0294436 -0.665112 0)
(0.0554517 -0.661699 0)
(0.086396 -0.658843 0)
(0.120606 -0.656791 0)
(0.157042 -0.655243 0)
(0.194379 -0.653765 0)
(0.233005 -0.652514 0)
(0.270363 -0.650366 0)
(0.310613 -0.649324 0)
(0.345064 -0.645364 0)
(0.387421 -0.645308 0)
(0.41659 -0.639212 0)
(0.459117 -0.639405 0)
(0.484577 -0.632589 0)
(0.525975 -0.630129 0)
(0.54128 -0.621179 0)
(0.596559 -0.59778 0)
(0.953972 -0.615869 0)
(-0.978856 -0.598474 0)
(-0.618286 -0.549416 0)
(-0.558762 -0.567448 0)
(-0.536438 -0.572598 0)
(-0.497591 -0.570789 0)
(-0.470934 -0.575656 0)
(-0.431618 -0.573572 0)
(-0.402014 -0.578449 0)
(-0.361874 -0.577624 0)
(-0.326668 -0.580577 0)
(-0.287484 -0.581158 0)
(-0.249448 -0.582642 0)
(-0.210846 -0.583729 0)
(-0.172537 -0.58501 0)
(-0.134874 -0.586632 0)
(-0.0984989 -0.588927 0)
(-0.0648613 -0.592241 0)
(-0.0359849 -0.595575 0)
(-0.0146357 -0.59826 0)
(-0.00227744 -0.600287 0)
(0.00227829 -0.600287 0)
(0.0146362 -0.598261 0)
(0.0359812 -0.59558 0)
(0.0648482 -0.592255 0)
(0.098471 -0.588955 0)
(0.134827 -0.586679 0)
(0.172466 -0.585071 0)
(0.210754 -0.583799 0)
(0.249331 -0.582701 0)
(0.287355 -0.581188 0)
(0.326526 -0.58054 0)
(0.36172 -0.57746 0)
(0.401914 -0.578157 0)
(0.431489 -0.572976 0)
(0.470951 -0.574786 0)
(0.497781 -0.569448 0)
(0.53719 -0.570247 0)
(0.559693 -0.564217 0)
(0.619466 -0.545359 0)
(0.977478 -0.592179 0)
(-1.0097 -0.611903 0)
(-0.626384 -0.538196 0)
(-0.563677 -0.548886 0)
(-0.538292 -0.550331 0)
(-0.499418 -0.54622 0)
(-0.472459 -0.549862 0)
(-0.434208 -0.547486 0)
(-0.403988 -0.551603 0)
(-0.364784 -0.551397 0)
(-0.328967 -0.55424 0)
(-0.29009 -0.555875 0)
(-0.252149 -0.558562 0)
(-0.214162 -0.56151 0)
(-0.176741 -0.564876 0)
(-0.140087 -0.568503 0)
(-0.104669 -0.572138 0)
(-0.0711539 -0.575245 0)
(-0.041192 -0.577731 0)
(-0.0177973 -0.579492 0)
(-0.00296429 -0.581131 0)
(0.00296516 -0.581131 0)
(0.0177957 -0.579495 0)
(0.0411814 -0.57774 0)
(0.0711278 -0.575265 0)
(0.104624 -0.572172 0)
(0.140025 -0.568548 0)
(0.176669 -0.564921 0)
(0.21409 -0.561532 0)
(0.25209 -0.558525 0)
(0.290056 -0.555727 0)