/*--------------------------------*- C++ -*----------------------------------*\
| =========                 |                                                 |
| \\      /  F ield         | OpenFOAM: The Open Source CFD Toolbox           |
|  \\    /   O peration     | Version:  v1912                                 |
|   \\  /    A nd           | Website:  www.openfoam.com                      |
|    \\/     M anipulation  |                                                 |
\*---------------------------------------------------------------------------*/
FoamFile
{
    version     2.0;
    format      ascii;
    class       volScalarField;
    location    "0.02";
    object      normU;
}
// * * * * * * * * * * * * * * * * * * * * * * * * * * * * * * * * * * * * * //

dimensions      [0 -1 0 0 0 0 0];


internalField   nonuniform List<scalar> 
4800
(
0
0
3.73399e-14
3.73399e-14
3.73399e-14
3.73399e-14
3.73399e-14
5.28066e-14
0
3.73399e-14
3.73399e-14
5.28066e-14
3.73399e-14
3.73399e-14
3.73399e-14
0
0
0
0
0
3.73399e-14
3.73399e-14
0
0
0
3.73399e-14
7.46798e-14
3.73399e-14
8.34946e-14
0
7.46798e-14
3.73399e-14
0
0
0
3.73399e-14
3.73399e-14
1.05613e-13
0
0.946905
0
3.73399e-14
3.73399e-14
3.73399e-14
0
3.73399e-14
0
0
5.28066e-14
3.73399e-14
0
0
0
3.73399e-14
3.73399e-14
0
3.73399e-14
0
0
0
0
3.73399e-14
0
3.73399e-14
3.73399e-14
8.34946e-14
3.73399e-14
5.28066e-14
0
3.73399e-14
3.73399e-14
7.46798e-14
3.73399e-14
0
0
0
3.73399e-14
3.73399e-14
3.73399e-14
6.47508e-07
0
7.46798e-14
0
0
0
0
0
0
0
0
0
0
7.46798e-14
0
7.46798e-14
8.34946e-14
0
7.46798e-14
0
0
7.46798e-14
7.46798e-14
5.28066e-14
3.73399e-14
3.73399e-14
3.73399e-14
7.46798e-14
8.34946e-14
0
7.46798e-14
7.46798e-14
3.73399e-14
7.46798e-14
0
0
3.73399e-14
3.73399e-14
7.46798e-14
0
9.70902e-12
3.73399e-14
3.73399e-14
3.73399e-14
3.73399e-14
0
3.73399e-14
3.73399e-14
0
5.28066e-14
3.73399e-14
5.28066e-14
3.73399e-14
3.73399e-14
3.73399e-14
5.28066e-14
3.73399e-14
5.28066e-14
3.73399e-14
0
3.73399e-14
3.73399e-14
3.73399e-14
3.73399e-14
0
8.34946e-14
8.34946e-14
5.28066e-14
5.28066e-14
8.34946e-14
0
8.34946e-14
3.73399e-14
3.73399e-14
0
0
0
7.46798e-14
3.73399e-14
1.18079e-13
1.1202e-13
3.73399e-14
5.28066e-14
3.73399e-14
5.28066e-14
5.28066e-14
5.28066e-14
3.73399e-14
5.28066e-14
3.73399e-14
3.73399e-14
5.28066e-14
0
3.73399e-14
0
3.73399e-14
0
5.28066e-14
5.28066e-14
0
3.73399e-14
3.73399e-14
3.73399e-14
8.34946e-14
5.28066e-14
3.73399e-14
0
3.73399e-14
5.28066e-14
3.73399e-14
0
3.73399e-14
3.73399e-14
7.46798e-14
3.73399e-14
3.73399e-14
0
0
3.73399e-14
5.28066e-14
1.4936e-13
5.28066e-14
0
3.73399e-14
5.28066e-14
0
3.73399e-14
5.28066e-14
3.73399e-14
3.73399e-14
5.28066e-14
5.28066e-14
5.28066e-14
0
3.73399e-14
5.28066e-14
0
5.28066e-14
7.46798e-14
3.73399e-14
0
0
5.28066e-14
7.46798e-14
3.73399e-14
3.73399e-14
0
5.28066e-14
0
8.34946e-14
3.73399e-14
7.46798e-14
0
3.73399e-14
3.73399e-14
3.73399e-14
3.73399e-14
8.34946e-14
7.46798e-14
7.46798e-14
8.34946e-14
3.73399e-14
0
0
0
3.73399e-14
3.73399e-14
3.73399e-14
5.28066e-14
3.73399e-14
0
0
5.28066e-14
0
3.73399e-14
3.73399e-14
0
3.73399e-14
3.73399e-14
5.28066e-14
0
0
3.73399e-14
3.73399e-14
3.73399e-14
7.46798e-14
8.34946e-14
8.34946e-14
3.73399e-14
7.46798e-14
3.73399e-14
1.05613e-13
3.73399e-14
8.34946e-14
0
3.73399e-14
3.73399e-14
8.34946e-14
0
3.73399e-14
3.73399e-14
3.73399e-14
0
5.28066e-14
5.28066e-14
0
0
0
3.73399e-14
3.73399e-14
7.46798e-14
8.34946e-14
3.73399e-14
3.73399e-14
5.28066e-14
0
0
3.73399e-14
7.46798e-14
5.28066e-14
3.73399e-14
0
3.73399e-14
7.46798e-14
8.34946e-14
8.34946e-14
8.34946e-14
0
0
0
3.73399e-14
7.46798e-14
0
3.73399e-14
0
5.28066e-14
0
3.73399e-14
3.73399e-14
8.34946e-14
3.73399e-14
5.28066e-14
0
3.73399e-14
5.28066e-14
0
3.73399e-14
3.73399e-14
0
5.28066e-14
0
3.73399e-14
5.28066e-14
0
3.73399e-14
3.73399e-14
3.73399e-14
3.73399e-14
3.73399e-14
3.73399e-14
3.73399e-14
3.73399e-14
7.46798e-14
3.73399e-14
1.18079e-13
3.73399e-14
7.46798e-14
1.18079e-13
8.34946e-14
0
0
7.46798e-14
3.73399e-14
3.73399e-14
0
0
3.73399e-14
3.73399e-14
3.73399e-14
0
5.28066e-14
5.28066e-14
0
5.28066e-14
5.28066e-14
5.28066e-14
5.28066e-14
5.28066e-14
3.73399e-14
7.46798e-14
3.73399e-14
0
0
3.73399e-14
3.73399e-14
3.73399e-14
3.73399e-14
0
3.73399e-14
0
3.73399e-14
3.73399e-14
0
5.28066e-14
5.28066e-14
3.73399e-14
3.73399e-14
3.73399e-14
5.28066e-14
8.34946e-14
7.46798e-14
8.34946e-14
0
3.73399e-14
0
8.34946e-14
0
5.28066e-14
7.46798e-14
3.73399e-14
3.73399e-14
3.73399e-14
0
5.28066e-14
3.73399e-14
3.73399e-14
7.46798e-14
3.73399e-14
3.73399e-14
8.34946e-14
5.28066e-14
3.73399e-14
8.34946e-14
0
0
7.46798e-14
0
3.73399e-14
0
8.34946e-14
3.73399e-14
0
5.28066e-14
0
7.46798e-14
3.73399e-14
3.73399e-14
8.34946e-14
5.28066e-14
5.28066e-14
3.73399e-14
8.34946e-14
3.73399e-14
3.73399e-14
5.28066e-14
3.73399e-14
3.73399e-14
3.73399e-14
0
5.28066e-14
8.34946e-14
3.73399e-14
5.28066e-14
0
5.28066e-14
0
3.73399e-14
5.28066e-14
7.46798e-14
8.34946e-14
8.34946e-14
5.28066e-14
3.73399e-14
5.28066e-14
3.73399e-14
5.28066e-14
0
3.73399e-14
3.73399e-14
1.34631e-13
7.46798e-14
5.28066e-14
3.73399e-14
3.73399e-14
8.34946e-14
3.73399e-14
3.73399e-14
7.46798e-14
5.28066e-14
3.73399e-14
7.46798e-14
3.73399e-14
0
1.05613e-13
0
3.73399e-14
7.46798e-14
0
7.46798e-14
8.34946e-14
3.73399e-14
0
3.73399e-14
7.46798e-14
0
0
3.73399e-14
0
3.73399e-14
3.73399e-14
5.28066e-14
5.28066e-14
3.73399e-14
3.73399e-14
3.73399e-14
5.28066e-14
3.73399e-14
0
3.73399e-14
3.73399e-14
0
3.73399e-14
3.73399e-14
3.73399e-14
3.73399e-14
3.73399e-14
3.73399e-14
0
5.28066e-14
3.73399e-14
7.46798e-14
1.18079e-13
0
8.34946e-14
3.73399e-14
0
0
3.73399e-14
3.73399e-14
3.73399e-14
3.73399e-14
8.34946e-14
0
3.73399e-14
7.46798e-14
3.73399e-14
8.34946e-14
0
0
3.73399e-14
3.73399e-14
3.73399e-14
3.73399e-14
5.28066e-14
0
8.34946e-14
3.73399e-14
5.28066e-14
3.73399e-14
3.73399e-14
3.73399e-14
3.73399e-14
5.28066e-14
3.73399e-14
8.34946e-14
3.73399e-14
3.73399e-14
7.46798e-14
5.28066e-14
3.73399e-14
5.28066e-14
8.34946e-14
5.28066e-14
8.34946e-14
3.73399e-14
3.73399e-14
0
7.46798e-14
0
3.73399e-14
5.28066e-14
3.73399e-14
5.28066e-14
8.34946e-14
3.73399e-14
3.73399e-14
0
3.73399e-14
3.73399e-14
5.28066e-14
3.73399e-14
5.28066e-14
7.46798e-14
3.73399e-14
3.73399e-14
5.28066e-14
0
5.28066e-14
3.73399e-14
3.73399e-14
3.73399e-14
5.28066e-14
3.73399e-14
3.73399e-14
8.34946e-14
0
3.73399e-14
7.46798e-14
3.73399e-14
1.1202e-13
1.1202e-13
0
3.73399e-14
8.34946e-14
0
7.46798e-14
5.28066e-14
8.34946e-14
3.73399e-14
0
3.73399e-14
5.28066e-14
3.73399e-14
0
0
0
3.73399e-14
5.28066e-14
3.73399e-14
3.73399e-14
3.73399e-14
5.28066e-14
0
3.73399e-14
3.73399e-14
3.73399e-14
3.73399e-14
3.73399e-14
3.73399e-14
3.73399e-14
5.28066e-14
5.28066e-14
3.73399e-14
5.28066e-14
3.73399e-14
7.46798e-14
3.73399e-14
0
5.28066e-14
8.34946e-14
0
7.46798e-14
0
8.34946e-14
0
8.34946e-14
3.73399e-14
3.73399e-14
3.73399e-14
0
0
3.73399e-14
1.1202e-13
7.46798e-14
5.28066e-14
3.73399e-14
5.28066e-14
3.73399e-14
0
3.73399e-14
3.73399e-14
5.28066e-14
3.73399e-14
8.34946e-14
0
1.18079e-13
3.73399e-14
1.1202e-13
1.18079e-13
3.73399e-14
3.73399e-14
3.73399e-14
0
3.73399e-14
7.46798e-14
0
0
0
8.34946e-14
8.34946e-14
3.73399e-14
3.73399e-14
3.73399e-14
0
3.73399e-14
7.46798e-14
7.46798e-14
0
0
5.28066e-14
3.73399e-14
5.28066e-14
5.28066e-14
0
0
1.1202e-13
3.73399e-14
0
0
0
0
3.73399e-14
0
3.73399e-14
3.73399e-14
3.73399e-14
3.73399e-14
3.73399e-14
0
0
0
0
3.73399e-14
3.73399e-14
7.46798e-14
1.18079e-13
3.73399e-14
7.46798e-14
0
1.1202e-13
0
3.73399e-14
3.73399e-14
8.34946e-14
0
3.73399e-14
8.34946e-14
8.34946e-14
3.73399e-14
7.46798e-14
3.73399e-14
1.18079e-13
0
3.73399e-14
3.73399e-14
3.73399e-14
1.1202e-13
7.46798e-14
0
0
0
7.46798e-14
8.34946e-14
7.46798e-14
0
0
0
7.46798e-14
0
0
3.73399e-14
0
1.18079e-13
3.73399e-14
7.46798e-14
3.73399e-14
3.73399e-14
1.05613e-13
0
7.46798e-14
7.46798e-14
7.46798e-14
7.46798e-14
0
1.05613e-13
7.46798e-14
3.73399e-14
3.73399e-14
8.34946e-14
0
7.46798e-14
5.28066e-14
3.73399e-14
3.73399e-14
3.73399e-14
7.46798e-14
0
3.73399e-14
0
0
0
0
3.73399e-14
3.73399e-14
3.73399e-14
0
0
3.73399e-14
0
0
0
3.73399e-14
1.18079e-13
7.46798e-14
7.46798e-14
1.1202e-13
3.73399e-14
0
0
3.73399e-14
7.46798e-14
0
0
1.05613e-13
0
7.46798e-14
0
0
3.73399e-14
3.73399e-14
3.73399e-14
3.73399e-14
0
0
0
0
0
0
0
3.73399e-14
3.73399e-14
0
3.73399e-14
8.34946e-14
7.46798e-14
3.73399e-14
3.73399e-14
7.46798e-14
7.46798e-14
0
3.73399e-14
3.73399e-14
0
0
1.1202e-13
7.46798e-14
0
3.73399e-14
3.73399e-14
0
3.73399e-14
8.34946e-14
0
7.46798e-14
7.46798e-14
1.1202e-13
0
0
3.73399e-14
5.28066e-14
3.73399e-14
0
0
3.73399e-14
3.73399e-14
3.73399e-14
3.73399e-14
3.73399e-14
3.73399e-14
0
3.73399e-14
3.73399e-14
1.1202e-13
8.34946e-14
5.28066e-14
3.73399e-14
3.73399e-14
3.73399e-14
3.73399e-14
0
3.73399e-14
0
1.18079e-13
5.28066e-14
5.28066e-14
8.34946e-14
1.05613e-13
0
0
3.73399e-14
1.1202e-13
8.34946e-14
0
3.73399e-14
0
0
0
0
5.28066e-14
8.34946e-14
7.46798e-14
3.73399e-14
7.46798e-14
0
7.46798e-14
0
0
3.73399e-14
0
0
8.34946e-14
0
8.34946e-14
3.73399e-14
7.46798e-14
3.73399e-14
0
3.73399e-14
7.46798e-14
0
3.73399e-14
0
1.18079e-13
3.73399e-14
1.4936e-13
5.28066e-14
8.34946e-14
1.4936e-13
0
7.46798e-14
1.18079e-13
3.73399e-14
5.28066e-14
7.46798e-14
8.34946e-14
1.05613e-13
3.73399e-14
0
8.34946e-14
7.46798e-14
7.46798e-14
3.73399e-14
3.73399e-14
3.73399e-14
0
0
3.73399e-14
3.73399e-14
3.73399e-14
3.73399e-14
3.73399e-14
3.73399e-14
3.73399e-14
0
0
3.73399e-14
0
0
0
8.34946e-14
5.28066e-14
0
0
5.28066e-14
5.28066e-14
7.46798e-14
1.34631e-13
5.28066e-14
1.4936e-13
1.34631e-13
0
0
3.73399e-14
0
0
0
3.73399e-14
3.73399e-14
3.73399e-14
8.34946e-14
8.34946e-14
3.73399e-14
3.73399e-14
3.73399e-14
3.73399e-14
8.34946e-14
5.28066e-14
3.73399e-14
5.28066e-14
3.73399e-14
8.34946e-14
1.18079e-13
8.34946e-14
1.4936e-13
7.46798e-14
5.28066e-14
0
3.73399e-14
8.34946e-14
0
8.34946e-14
7.46798e-14
3.73399e-14
8.34946e-14
5.28066e-14
1.18079e-13
8.34946e-14
2.24039e-13
1.18079e-13
1.53956e-13
3.73399e-14
3.73399e-14
0
7.46798e-14
3.73399e-14
8.34946e-14
3.73399e-14
0
5.28066e-14
3.73399e-14
0
1.18079e-13
8.34946e-14
7.46798e-14
7.46798e-14
0
5.28066e-14
3.73399e-14
3.73399e-14
5.28066e-14
5.28066e-14
7.46798e-14
1.05613e-13
1.53956e-13
2.36158e-13
8.34946e-14
1.1202e-13
8.34946e-14
8.34946e-14
3.73399e-14
7.46798e-14
7.46798e-14
5.28066e-14
8.34946e-14
1.4936e-13
3.73399e-14
5.28066e-14
7.46798e-14
0
1.4936e-13
1.1202e-13
8.34946e-14
0
3.73399e-14
8.34946e-14
3.73399e-14
0
8.34946e-14
7.46798e-14
8.34946e-14
5.28066e-14
0
0
0
5.28066e-14
5.28066e-14
5.28066e-14
3.73399e-14
1.05613e-13
3.73399e-14
5.28066e-14
3.73399e-14
1.4936e-13
1.4936e-13
7.46798e-14
3.73399e-14
0
0
1.1202e-13
3.73399e-14
7.46798e-14
1.1202e-13
0
1.34631e-13
3.73399e-14
1.5842e-13
8.34946e-14
7.46798e-14
1.1202e-13
3.73399e-14
1.1202e-13
8.34946e-14
8.34946e-14
0
3.73399e-14
7.46798e-14
5.28066e-14
0
1.18079e-13
3.73399e-14
3.73399e-14
0
0
0
0
3.73399e-14
0
3.73399e-14
0
8.34946e-14
1.1202e-13
5.28066e-14
0
5.28066e-14
3.73399e-14
5.28066e-14
5.28066e-14
3.73399e-14
5.28066e-14
5.28066e-14
3.73399e-14
3.73399e-14
3.73399e-14
3.73399e-14
7.46798e-14
0
0
5.28066e-14
5.28066e-14
0
3.73399e-14
3.73399e-14
3.73399e-14
3.73399e-14
0
8.34946e-14
1.05613e-13
3.73399e-14
8.34946e-14
3.73399e-14
8.34946e-14
0
3.73399e-14
0
0
0
3.73399e-14
7.46798e-14
0
0
3.73399e-14
3.73399e-14
0
0
3.73399e-14
0
0
3.73399e-14
3.73399e-14
0
0
3.73399e-14
3.73399e-14
0
7.46798e-14
1.18079e-13
7.46798e-14
7.46798e-14
0
1.1202e-13
3.73399e-14
0
3.73399e-14
7.46798e-14
3.73399e-14
7.46798e-14
1.05613e-13
7.46798e-14
1.18079e-13
3.73399e-14
3.73399e-14
1.1202e-13
0
7.46798e-14
0
8.34946e-14
5.28066e-14
7.46798e-14
5.28066e-14
5.28066e-14
0
3.73399e-14
7.46798e-14
0
0
0
0
8.34946e-14
0
0
3.73399e-14
3.73399e-14
1.05613e-13
3.73399e-14
1.05613e-13
0
7.46798e-14
7.46798e-14
0
7.46798e-14
7.46798e-14
7.46798e-14
0
0
7.46798e-14
7.46798e-14
0
8.34946e-14
3.73399e-14
3.73399e-14
0
3.73399e-14
3.73399e-14
0
1.1202e-13
3.73399e-14
7.46798e-14
1.34631e-13
8.34946e-14
3.73399e-14
7.46798e-14
0
0
3.73399e-14
0
0
3.73399e-14
0
5.28066e-14
7.46798e-14
5.28066e-14
0
0
1.18079e-13
0
0
1.34631e-13
0
8.34946e-14
7.46798e-14
8.34946e-14
3.73399e-14
0
1.05613e-13
0
7.46798e-14
3.73399e-14
0
1.1202e-13
7.46798e-14
0
1.18079e-13
7.46798e-14
0
7.46798e-14
3.73399e-14
7.46798e-14
3.73399e-14
0
0
0
7.46798e-14
0
0
7.46798e-14
0
7.46798e-14
0
7.46798e-14
0
3.73399e-14
7.46798e-14
8.34946e-14
3.73399e-14
3.73399e-14
3.73399e-14
5.28066e-14
7.46798e-14
0
1.1202e-13
7.46798e-14
1.05613e-13
0
1.05613e-13
3.73399e-14
7.46798e-14
0
0
0
3.73399e-14
3.73399e-14
5.28066e-14
5.28066e-14
0
3.73399e-14
0
3.73399e-14
3.73399e-14
3.73399e-14
0
7.46798e-14
0
0
0
7.46798e-14
3.73399e-14
0
0
3.73399e-14
3.73399e-14
3.73399e-14
3.73399e-14
3.73399e-14
3.73399e-14
8.34946e-14
3.73399e-14
7.46798e-14
7.46798e-14
0
3.73399e-14
0
0
8.34946e-14
7.46798e-14
0
1.05613e-13
7.46798e-14
0
7.46798e-14
3.73399e-14
8.34946e-14
5.28066e-14
0
3.73399e-14
7.46798e-14
0
0
3.73399e-14
3.73399e-14
7.46798e-14
0
3.73399e-14
0
3.73399e-14
0
3.73399e-14
0
0
0
3.73399e-14
0
0
0
3.73399e-14
7.46798e-14
8.34946e-14
0
0
3.73399e-14
8.34946e-14
3.73399e-14
3.73399e-14
7.46798e-14
0
7.46798e-14
8.34946e-14
0
0
0
0
3.73399e-14
3.73399e-14
3.73399e-14
0
3.73399e-14
3.73399e-14
3.73399e-14
3.73399e-14
0
0
7.46798e-14
3.73399e-14
0
3.73399e-14
3.73399e-14
3.73399e-14
3.73399e-14
3.73399e-14
3.73399e-14
0
3.73399e-14
3.73399e-14
0
3.73399e-14
8.34946e-14
8.34946e-14
3.73399e-14
1.1202e-13
3.73399e-14
3.73399e-14
5.28066e-14
7.46798e-14
3.73399e-14
7.46798e-14
3.73399e-14
3.73399e-14
8.34946e-14
7.46798e-14
5.28066e-14
5.28066e-14
3.73399e-14
0
0
0
0
0
0
0
0
0
0
0
0
3.73399e-14
0
5.28066e-14
0
0
0
0
0
3.73399e-14
0
5.28066e-14
8.34946e-14
7.46798e-14
8.34946e-14
1.18079e-13
3.73399e-14
0
0
7.46798e-14
0
3.73399e-14
0
7.46798e-14
1.05613e-13
7.46798e-14
0
3.73399e-14
7.46798e-14
3.73399e-14
0
0
0
0
0
0
0
0
3.73399e-14
3.73399e-14
0
0
5.28066e-14
3.73399e-14
5.28066e-14
3.73399e-14
0
3.73399e-14
3.73399e-14
0
0
3.73399e-14
3.73399e-14
8.34946e-14
0
3.73399e-14
7.46798e-14
0
3.73399e-14
0
3.73399e-14
3.73399e-14
0
0
0
0
5.28066e-14
5.28066e-14
3.73399e-14
3.73399e-14
3.73399e-14
3.73399e-14
3.73399e-14
5.28066e-14
3.73399e-14
3.73399e-14
5.28066e-14
8.34946e-14
1.18079e-13
1.18079e-13
5.28066e-14
8.34946e-14
8.34946e-14
7.46798e-14
5.28066e-14
5.28066e-14
7.46798e-14
3.73399e-14
7.46798e-14
3.73399e-14
3.73399e-14
3.73399e-14
3.73399e-14
8.34946e-14
0
7.46798e-14
7.46798e-14
3.73399e-14
0
8.34946e-14
3.73399e-14
3.73399e-14
3.73399e-14
8.34946e-14
3.73399e-14
7.46798e-14
3.73399e-14
3.73399e-14
3.73399e-14
0
3.73399e-14
0
0
3.73399e-14
0
5.28066e-14
8.34946e-14
3.73399e-14
7.46798e-14
7.46798e-14
0
3.73399e-14
1.18079e-13
3.73399e-14
7.46798e-14
5.28066e-14
0
3.73399e-14
0
3.73399e-14
3.73399e-14
0
7.46798e-14
0
1.34631e-13
1.1202e-13
3.73399e-14
0
3.73399e-14
7.46798e-14
3.73399e-14
0
0
7.46798e-14
7.46798e-14
7.46798e-14
0
0
8.34946e-14
3.73399e-14
0
0
0
0
0
0
0
3.73399e-14
7.46798e-14
7.46798e-14
3.73399e-14
7.46798e-14
3.73399e-14
1.4936e-13
0
3.73399e-14
7.46798e-14
3.73399e-14
7.46798e-14
7.46798e-14
0
8.34946e-14
5.28066e-14
8.34946e-14
3.73399e-14
0
3.73399e-14
3.73399e-14
3.73399e-14
0
3.73399e-14
3.73399e-14
0
3.73399e-14
3.73399e-14
0
0
3.73399e-14
0
10.9248
12.001
12.0691
12.6316
12.1641
10.4572
9.46456
8.33111
6.7382
4.67617
3.46835
3.64048
2.40811
1.44827
1.48131
0.606282
0.875241
2.55051
1.39823
0.838364
0.602762
1.08592
1.72407
1.76698
1.68403
1.9259
2.01985
2.07897
2.17635
2.23154
2.22278
2.17334
2.20913
2.22726
2.24275
2.24732
2.20995
2.16705
2.16766
2.15441
2.12244
2.06389
2.00887
1.98175
1.92962
1.88949
1.86207
1.83101
1.81746
1.81291
1.80342
1.8055
1.78662
1.74222
1.71463
1.69025
1.69102
1.6756
1.69925
1.66947
1.69265
1.66907
1.66441
1.63558
1.60501
1.5677
1.50563
1.44828
1.41207
1.35952
1.31973
1.25957
1.18504
1.10027
1.01783
0.978587
0.945029
0.91169
0.878616
0.83774
0.98124
2.26811
3.82734
5.03531
6.8098
8.47638
9.19963
10.4031
12.1857
12.1062
11.5607
12.1128
10.7445
10.1365
9.27231
9.12563
8.95999
5.52981
4.8759
4.04809
3.73955
3.92177
4.91338
4.74731
4.61534
4.66561
4.86463
5.03885
5.03558
5.11318
5.06239
4.98874
4.92199
4.83253
4.73792
4.64657
4.49501
4.3359
4.24551
4.17479
4.10192
4.06446
4.02237
3.96311
3.87125
3.79663
3.71048
3.61698
3.55022
3.50594
3.46688
3.47171
3.48984
3.47717
3.48363
3.48121
3.52918
3.51902
3.56388
3.54924
3.59849
3.59458
3.60522
3.60905
3.58716
3.56389
3.48793
3.42876
3.38721
3.30734
3.29719
3.26053
3.23963
3.23579
3.20936
3.18908
3.18309
3.15601
3.13483
2.96987
6.5359e-07
0.00103287
0.0122847
0.143288
0.769061
1.91406
2.97617
4.55919
6.51732
7.77465
9.15538
10.3455
11.1032
12.9231
12.5503
13.133
13.0173
11.9547
7.3579
5.80046
4.90493
3.91062
3.73585
3.59785
3.59658
3.37469
3.36148
3.53197
3.49773
3.49193
3.4961
3.38886
3.268
3.13629
3.04098
2.98423
2.926
2.85953
2.81082
2.76745
2.74152
2.7484
2.81666
2.88124
2.96931
3.08642
3.17102
3.20389
3.19722
3.17287
3.13865
3.09514
3.1187
3.09734
3.11754
3.10206
3.13631
3.12817
3.12057
3.13863
3.13684
3.16421
3.1893
3.24398
3.3013
3.36439
3.42381
3.42959
3.4666
3.47972
3.51558
3.5375
3.591
3.71958
3.84087
3.9322
4.04948
4.10074
4.20399
4.11948
1.52259e-11
9.5587e-08
2.31014e-06
1.40135e-07
4.76749e-06
2.87446e-06
4.95795e-06
0.00343139
0.00560123
0.128151
0.47983
1.1361
2.58569
3.95475
4.96985
6.75853
7.81417
9.77281
8.81285
7.30634
5.66549
4.22764
2.78362
2.13722
1.79237
1.5838
1.51164
1.62775
1.64682
1.51863
1.56418
1.6388
1.62814
1.66632
1.76271
1.91888
2.12263
2.293
2.41518
2.46977
2.44531
2.35327
2.2705
2.2284
2.2035
2.1822
2.20333
2.22653
2.24158
2.25678
2.27072
2.25652
2.25382
2.2414
2.21979
2.21214
2.18106
2.17964
2.13429
2.13603
2.05863
2.02596
1.94472
1.86217
1.72
1.59147
1.58864
1.70522
1.78164
1.92528
2.05846
2.16153
2.21081
2.30079
2.30988
2.39105
2.50703
2.49278
2.57094
2.71624
1.87352e-14
1.08397e-11
2.42845e-09
5.31125e-10
8.02815e-10
1.97953e-09
1.8074e-09
3.85652e-06
1.51401e-05
2.24928e-05
7.05036e-06
5.82452e-06
0.000101547
0.000305232
0.176668
0.893654
2.71462
4.83501
6.82302
7.76049
7.9389
7.66235
7.0688
6.34034
5.52581
4.61618
3.73429
2.98791
2.32657
1.77749
1.47219
1.43604
1.32429
1.21258
1.09293
0.983042
0.898979
0.841557
0.802014
0.78909
0.761186
0.7089
0.611896
0.503842
0.388217
0.258999
0.151914
0.0940643
0.0712398
0.0636924
0.0628621
0.0470496
0.0542297
0.0457639
0.0581538
0.0471842
0.0612452
0.0722732
0.075761
0.0974145
0.110368
0.160512
0.214878
0.275855
0.387847
0.429223
0.401381
0.3652
0.260864
0.107799
0.0675201
0.10581
0.207708
0.39914
0.264504
0.311672
0.404071
0.328481
0.371461
0.39888
1.13962e-13
1.31019e-13
2.69278e-12
1.90172e-12
4.6844e-13
2.60821e-12
9.08591e-12
1.55962e-09
7.18655e-09
1.44591e-08
1.02932e-08
1.21094e-08
7.12037e-10
6.33872e-06
1.38772e-05
2.12428e-06
0.00541219
0.0818254
0.625083
1.77591
3.06806
4.07883
4.7113
5.08347
5.29769
5.23128
4.79678
4.18668
3.66391
3.35737
3.2553
3.29822
3.39839
3.48472
3.51175
3.47043
3.37477
3.27184
3.17236
3.0859
3.02323
2.94447
2.82279
2.65002
2.44187
2.20911
1.93647
1.64577
1.34524
1.04035
0.746875
0.478639
0.229316
0.0461123
0.160524
0.286038
0.399211
0.447994
0.477351
0.455456
0.399724
0.286766
0.127644
0.147494
0.463636
0.742475
0.831585
0.582635
0.378174
0.16183
0.180696
0.399204
0.554304
0.554703
0.597776
0.624501
0.719366
0.619784
0.643855
0.700292
1.87352e-14
9.4597e-15
6.64707e-14
9.01922e-14
4.30505e-14
7.81538e-14
4.88061e-14
6.38955e-13
3.15308e-12
9.39157e-12
8.25753e-12
6.76756e-12
5.84969e-12
2.94727e-10
4.13939e-10
1.14636e-10
7.76424e-10
1.10407e-08
1.84343e-07
5.29345e-07
0.00146825
0.016396
0.118383
0.367214
0.790417
1.30972
1.74849
2.01485
2.17579
2.33265
2.52472
2.74847
3.0038
3.27461
3.53671
3.77268
3.97781
4.15712
4.31872
4.46902
4.61093
4.75703
4.9036
5.04801
5.18322
5.30746
5.4253
5.5374
5.6393
5.72719
5.79643
5.8392
5.8406
5.80246
5.69962
5.53733
5.26905
4.95418
4.51875
4.07411
3.52362
3.03404
2.51945
2.04027
1.66839
1.32754
0.990563
0.765042
0.510597
0.258328
0.207646
0.267746
0.40987
0.730379
0.745362
0.558478
1.14277
0.466028
1.57692
0.385315
7.55238e-14
1.13566e-13
8.49311e-14
9.01953e-14
2.88889e-14
9.54713e-14
8.73104e-14
8.79228e-14
1.22457e-13
4.11177e-14
8.03443e-14
1.76661e-13
8.15191e-14
5.13285e-14
2.87314e-13
0
1.6763e-12
7.43411e-12
6.90073e-12
7.36904e-11
3.99016e-10
3.73482e-09
2.0156e-08
5.79299e-08
1.98975e-07
4.80588e-07
7.14413e-07
8.19506e-07
9.38152e-07
0.000453899
0.00236896
0.00640712
0.0142566
0.0286547
0.0533673
0.0925417
0.150777
0.233026
0.344176
0.489336
0.672926
0.898383
1.16537
1.47063
1.80974
2.17556
2.55959
2.95388
3.34905
3.73681
4.11064
4.46469
4.79476
5.09712
5.37535
5.62499
5.84796
6.03532
6.19882
6.32611
6.41544
6.45727
6.44344
6.36219
6.1747
5.94733
5.71492
5.52995
5.21472
4.77311
4.24784
3.64474
2.99072
2.31389
1.69489
1.25878
0.875419
1.01173
0.225784
5.57087
7.55238e-14
4.21766e-14
1.21607e-13
4.27552e-14
8.61043e-14
3.87807e-14
1.63628e-13
7.08898e-14
4.08256e-14
6.38485e-14
4.1414e-14
1.27954e-13
1.23962e-13
8.21195e-14
4.13624e-14
8.39918e-14
9.38858e-14
1.80725e-13
2.25817e-13
1.8351e-13
2.65315e-13
1.32693e-13
6.59642e-14
4.61141e-13
4.99507e-13
6.84891e-13
7.26568e-13
4.5835e-13
1.6643e-13
1.45477e-12
4.60916e-11
2.47792e-10
8.12229e-10
2.21271e-09
5.27244e-09
1.09003e-08
2.05918e-08
3.66146e-08
6.12554e-08
9.8182e-08
1.54693e-07
2.34185e-07
3.49526e-07
5.11945e-07
7.42415e-07
1.10094e-06
9.9936e-05
0.00191407
0.00789781
0.0219035
0.0499141
0.100437
0.184357
0.31448
0.504269
0.765747
1.10642
1.52854
2.02805
2.59268
3.20326
3.83402
4.46595
5.07738
5.64111
6.15549
6.6154
7.00619
7.34192
7.6395
7.91924
8.14349
8.3008
8.4552
8.52842
8.05759
8.05119
6.98589
6.69953
9.02989
9.36758e-15
5.33496e-14
7.65565e-14
1.01631e-13
4.81378e-14
1.93873e-13
4.36602e-14
1.67111e-13
6.33903e-14
8.91808e-14
1.00732e-14
2.02309e-14
8.70583e-14
6.15867e-14
1.21036e-13
4.65974e-14
1.51381e-13
1.19657e-13
2.133e-14
1.72161e-13
1.06588e-13
2.27753e-13
1.28671e-13
1.77634e-13
4.9763e-13
4.09235e-13
3.77849e-13
6.03959e-13
2.35354e-13
9.30887e-14
2.83795e-13
1.92629e-13
2.43417e-13
2.60413e-13
3.9158e-13
3.46675e-13
7.7411e-13
4.03825e-13
1.0749e-13
3.17387e-13
4.90388e-13
2.78542e-13
3.85644e-13
5.80319e-13
6.49584e-13
8.0621e-13
1.93871e-12
5.04558e-11
4.94465e-10
2.07404e-09
6.19592e-09
1.53166e-08
3.34609e-08
6.70483e-08
1.26121e-07
2.25313e-07
3.89065e-07
6.35899e-07
1.14562e-06
0.000131393
0.00215155
0.00983537
0.0307093
0.0782364
0.173585
0.346278
0.627895
1.04944
1.62351
2.32294
3.11537
3.96097
4.80067
5.56026
6.35176
6.93331
7.50721
7.64216
8.54689
3.18311
3.74703e-14
1.88763e-14
3.79809e-14
7.46902e-16
9.65572e-15
3.87807e-14
2.35083e-13
9.83007e-15
3.96071e-14
4.11103e-14
4.49117e-14
9.96256e-14
1.02205e-14
5.13222e-14
2.06814e-13
4.65903e-14
6.72095e-14
8.46121e-14
2.13139e-13
4.80262e-14
1.02098e-13
9.31939e-14
1.94488e-13
1.25362e-13
6.31891e-14
2.57005e-13
1.98243e-13
2.44654e-13
3.72847e-13
2.39874e-13
1.93516e-13
3.61249e-13
1.79019e-13
1.48896e-13
2.06065e-13
1.4902e-13
2.01171e-13
2.4209e-13
3.11234e-13
3.07067e-13
3.24124e-13
5.90311e-13
5.38152e-13
2.11221e-13
2.69e-13
3.13226e-13
4.34134e-13
3.56026e-13
4.42749e-13
2.9696e-13
1.10227e-15
3.12602e-13
2.64364e-13
2.27297e-13
2.71141e-13
1.63475e-13
2.04318e-13
8.72984e-13
1.48562e-12
1.05571e-12
1.01012e-10
9.81431e-10
4.53761e-09
1.37701e-08
4.2899e-08
7.83319e-08
2.61077e-07
2.64281e-07
4.84008e-06
0.00025181
0.00230744
0.0110379
0.038593
0.108102
0.271188
0.56658
1.09814
1.76906
2.96604
0.534661
9.36758e-15
3.88849e-14
9.49522e-15
4.78076e-14
3.85129e-14
9.69334e-15
4.88121e-14
4.91504e-14
9.8999e-15
8.97365e-14
2.00851e-14
4.04695e-14
4.2012e-14
1.49453e-13
3.10218e-14
8.39918e-14
2.12277e-13
1.52532e-13
9.53216e-14
1.98019e-13
1.16564e-13
1.75871e-13
8.86334e-14
1.82744e-13
2.68297e-13
1.83292e-13
3.19654e-13
4.276e-13
2.31937e-13
1.95049e-13
3.97036e-13
2.33087e-13
4.77377e-14
3.85388e-13
2.53542e-13
7.35008e-14
3.96219e-13
3.79822e-13
2.59362e-13
2.56751e-13
3.11732e-13
1.27371e-13
7.38407e-14
1.58109e-13
9.31084e-14
6.71551e-14
4.63429e-13
4.40107e-13
2.35098e-13
8.38134e-14
3.79639e-13
3.60586e-13
2.71714e-13
4.19718e-13
3.52911e-13
3.32312e-13
1.4795e-13
6.79206e-14
3.10484e-13
3.92718e-13
2.0104e-13
3.17942e-13
5.81721e-13
3.07534e-12
1.14031e-11
3.27907e-11
8.3614e-11
1.91166e-10
5.14136e-10
4.47027e-09
2.47407e-09
8.58407e-09
1.36169e-07
1.267e-07
7.17743e-06
1.40353e-05
0.000130462
0.000606561
0.0039223
0.0199395
9.36758e-14
3.88919e-14
1.02267e-13
3.82414e-14
5.77632e-14
4.84726e-14
9.76122e-14
4.39614e-14
3.95996e-14
8.97365e-14
6.02554e-14
5.06019e-14
3.05682e-14
0
1.7334e-13
1.95735e-13
2.56254e-13
4.23121e-14
1.90643e-13
1.01315e-13
8.65955e-14
1.15944e-13
2.26635e-13
3.6549e-13
2.10742e-13
2.46942e-13
1.9397e-13
3.07088e-13
1.3847e-13
1.40122e-13
1.52535e-13
1.19767e-14
2.92576e-13
2.91149e-13
2.17212e-13
3.73147e-13
2.88495e-13
2.49365e-13
1.38392e-13
2.27104e-13
1.58477e-13
1.86504e-13
1.58789e-13
1.08653e-13
4.75878e-13
3.79841e-13
2.42572e-13
1.64889e-13
3.33051e-13
1.12611e-13
2.19035e-13
3.60588e-13
5.20223e-13
4.13874e-13
1.81885e-13
1.78954e-13
2.42218e-13
1.94465e-13
2.08816e-13
3.20024e-13
3.20186e-13
1.56377e-13
1.28481e-13
1.04041e-13
3.01782e-13
3.13874e-13
3.69245e-13
2.77423e-13
8.45923e-13
9.44062e-12
1.53711e-11
8.84053e-11
1.78026e-11
8.50715e-11
4.76052e-11
1.2473e-11
2.12014e-10
1.46208e-09
4.96699e-06
2.36584e-06
7.55238e-14
3.77311e-14
3.91498e-14
8.55104e-14
4.81319e-14
5.81649e-14
8.78543e-14
1.21594e-13
7.91992e-14
1.62312e-13
8.03405e-14
3.03875e-14
1.01894e-14
8.27585e-14
5.1703e-14
1.14597e-13
1.26404e-13
1.52532e-13
2.13787e-14
4.29559e-14
6.49563e-14
1.82836e-13
3.6261e-13
1.32977e-13
5.58465e-14
1.00724e-13
1.32863e-13
2.75624e-13
3.94365e-13
5.15262e-13
2.41892e-13
3.41324e-13
3.13265e-13
9.70541e-14
1.50193e-13
1.31927e-13
1.48807e-13
3.01569e-13
4.57257e-13
4.06451e-13
4.47509e-13
2.83599e-13
1.75112e-13
1.62972e-13
1.72919e-13
4.19547e-13
2.92092e-13
3.31197e-13
6.0911e-13
4.43683e-13
2.98967e-13
4.64063e-13
5.51191e-13
2.36876e-13
1.58377e-13
1.87986e-13
6.19353e-14
3.13053e-13
4.9152e-13
3.10859e-13
1.2657e-13
3.23831e-13
6.62293e-14
2.67958e-13
8.21947e-14
1.48789e-13
4.71413e-13
5.5824e-13
4.17295e-13
1.36478e-15
4.21995e-13
3.38083e-13
1.4969e-13
1.21327e-12
1.45143e-12
7.78848e-13
7.02655e-12
5.38817e-12
3.0129e-09
1.44517e-08
3.74703e-14
3.77311e-14
3.79881e-14
3.82414e-14
7.70111e-14
9.69334e-15
8.73104e-14
8.39882e-14
9.75027e-14
1.99566e-14
8.09695e-14
4.04695e-14
3.05786e-14
1.37712e-13
4.62516e-14
1.04182e-13
1.04967e-13
1.13907e-13
1.04961e-13
1.21498e-13
1.47203e-13
2.48958e-13
1.09934e-13
1.09134e-13
1.87232e-13
2.84847e-13
4.55325e-13
5.50406e-13
5.32807e-13
2.98016e-13
1.93514e-13
5.91728e-14
2.62558e-13
3.61248e-14
9.79134e-14
1.22495e-13
9.96497e-14
2.80191e-13
7.54912e-14
6.3508e-14
6.40684e-14
5.78644e-14
2.15263e-13
2.85036e-13
3.10522e-13
1.08291e-13
5.11701e-13
4.41596e-13
2.93042e-13
3.74795e-13
5.78478e-13
3.2252e-13
3.50391e-13
3.50437e-13
1.31527e-13
1.60066e-13
2.6235e-13
1.22433e-13
4.11951e-13
2.23896e-13
7.85011e-14
1.58791e-13
2.69219e-13
3.26577e-13
2.65073e-13
2.59863e-13
1.68874e-14
1.37403e-13
4.02406e-13
5.45757e-13
1.23837e-13
1.79184e-13
1.92976e-13
1.73503e-13
7.45488e-14
7.55736e-14
1.22616e-13
1.94167e-13
3.93887e-12
4.31648e-12
4.18931e-14
3.77239e-14
9.49522e-14
3.94183e-14
6.94168e-14
4.33499e-14
0
1.1959e-13
5.93994e-14
8.22244e-14
5.0219e-14
4.04618e-14
6.11416e-14
3.08038e-14
1.03721e-14
8.33472e-14
0
1.04165e-13
2.13137e-14
1.61085e-13
8.72528e-14
1.51526e-13
2.45813e-13
1.55127e-13
2.93181e-13
3.43e-13
2.90955e-13
2.43312e-13
3.6654e-13
1.27991e-13
2.34672e-13
4.13313e-13
2.08426e-13
8.68037e-14
2.22907e-13
1.51513e-13
2.94779e-13
1.62087e-13
7.54848e-14
1.62584e-13
1.44952e-13
5.33254e-14
5.22083e-14
6.58854e-14
2.32296e-13
2.47625e-13
1.8984e-13
1.60275e-13
1.14043e-13
5.75904e-14
1.38963e-13
4.19205e-13
5.23402e-13
2.8253e-13
1.47046e-13
2.38246e-13
7.51168e-14
1.92079e-13
1.53525e-14
1.38851e-13
2.26404e-13
2.20576e-13
2.08781e-13
2.11219e-13
3.48335e-13
2.68237e-13
2.82228e-13
2.66204e-13
3.45322e-14
3.20692e-13
3.64711e-13
3.59459e-14
8.11771e-14
3.14283e-13
3.76917e-13
7.78846e-14
4.19988e-13
4.36323e-13
4.05928e-13
4.81014e-13
1.09645e-13
2.35774e-14
3.79881e-14
0
1.44396e-14
6.20723e-14
5.52178e-14
6.39001e-14
6.93036e-14
1.64441e-13
1.66312e-13
3.03464e-14
1.02205e-14
1.26967e-13
9.24927e-14
1.56704e-13
2.10191e-13
1.31354e-13
3.19706e-14
4.29559e-14
1.62786e-13
1.37965e-13
9.34453e-14
2.21887e-13
2.95986e-13
1.38018e-13
4.13386e-13
4.17409e-13
1.29659e-13
5.51799e-13
4.83358e-13
7.69152e-14
5.33724e-14
1.63728e-13
1.95792e-13
8.57437e-14
1.48421e-13
3.61418e-13
2.5936e-13
1.14259e-13
2.73667e-13
1.55175e-13
7.38337e-14
1.97635e-13
1.06415e-13
4.70145e-14
8.16491e-14
2.32785e-13
1.48944e-13
4.01498e-13
6.20962e-13
4.59659e-13
1.36811e-13
3.03834e-13
2.95558e-13
3.62814e-13
7.98405e-14
1.09502e-13
2.4862e-13
4.72893e-13
2.26408e-13
2.28987e-13
2.90086e-13
5.23521e-13
3.33778e-13
1.66357e-13
1.58837e-13
1.92808e-13
1.62764e-13
1.42195e-13
1.88062e-13
2.16712e-13
1.0892e-13
2.23947e-13
2.30529e-13
2.65971e-13
3.99853e-13
8.78297e-13
8.90706e-13
8.14726e-13
1.03043e-13
4.24394e-14
6.64707e-14
4.78076e-14
1.44591e-14
4.362e-14
5.36922e-14
4.05377e-14
9.93006e-15
2.49268e-14
9.03967e-14
3.03566e-14
4.07654e-14
5.13285e-14
6.62171e-14
4.29618e-14
9.63577e-14
1.46927e-13
5.32909e-14
1.32834e-13
8.45498e-16
4.4971e-14
4.69939e-14
9.41882e-14
1.45201e-13
2.70762e-13
2.76187e-13
3.15139e-13
5.21981e-13
3.75236e-13
6.23643e-14
2.8498e-13
2.4984e-13
1.32002e-13
3.88984e-13
3.55067e-13
2.7529e-13
3.61418e-13
2.81315e-13
4.40561e-13
3.61531e-13
4.39702e-13
4.91321e-13
2.67514e-13
7.9814e-14
2.1487e-13
4.1308e-13
3.28709e-13
3.9316e-13
4.40428e-13
9.17159e-14
3.02024e-13
3.60882e-13
3.61222e-13
1.00002e-13
2.41928e-13
4.02581e-13
6.48712e-14
2.83085e-13
1.2443e-13
3.23631e-13
3.36433e-13
2.15469e-13
7.26713e-14
7.05201e-13
2.19594e-13
4.04417e-13
2.81063e-13
2.794e-13
1.2598e-13