/*--------------------------------*- C++ -*----------------------------------*\
| =========                 |                                                 |
| \\      /  F ield         | OpenFOAM: The Open Source CFD Toolbox           |
|  \\    /   O peration     | Version:  v1912                                 |
|   \\  /    A nd           | Website:  www.openfoam.com                      |
|    \\/     M anipulation  |                                                 |
\*---------------------------------------------------------------------------*/
FoamFile
{
    version     2.0;
    format      ascii;
    class       volScalarField;
    location    "8e-05";
    object      internalE;
}
// * * * * * * * * * * * * * * * * * * * * * * * * * * * * * * * * * * * * * //

dimensions      [1 -1 -2 0 0 0 0];


internalField   nonuniform List<scalar> 
1300
(
202.3729662
0
9261.823949
7801.348853
274.7971186
2614.139406
4701.716
10658.17725
3728.46875
5084.998321
2662.336116
2213.769457
6802.944232
13396.20356
16900.07316
8539.093586
6478.460544
13361.05598
15694.72096
2684.256219
701.5959987
175.3009148
2425.249333
12260.20932
2636.620634
9700.158961
15039.83769
11750.37605
11136.56553
28471.70297
0
1054.586035
1943.123646
5370.411961
9259.536626
6845.523794
9501.613801
12256.38221
6762.141829
7766.342261
0
603.8458931
690.3871615
5023.49263
8757.939081
1233.352427
5729.537617
7794.356073
9565.823302
3800.232008
0
0
1598.259454
6275.520909
5008.512259
652.497891
5034.589115
3381.354517
5350.309403
4307.150393
0
413.2839819
3678.483417
6151.453084
3617.119173
2024.031712
4157.707783
7176.98172
7417.087703
8975.1625
0
0
2358.752359
8904.083662
3399.266343
782.2323877
3897.503623
8909.448229
8356.84657
3691.828041
0
0
2477.160827
6351.059491
6422.208635
3583.573162
4555.818981
2173.634943
2301.89458
5608.039849
0
0
3745.691831
5159.335829
3464.293287
584.0958193
1083.54183
5853.603254
6866.560061
2472.046213
0
552.6837291
2922.840522
6431.161559
3525.383516
2636.165512
4624.818107
5073.073847
1640.74426
4302.992806
0
332.2333731
3436.102039
8640.221145
5131.332939
2655.660533
885.4926958
3954.200571
3141.032855
4926.659427
0
0
668.8764998
10041.63249
4434.407873
518.9175026
3628.625463
5972.334514
4533.514756
4597.472635
0
0
2624.439127
6490.219554
2083.960682
1287.58863
3857.887252
5366.459792
4410.358259
8520.677194
0
0
1147.581386
6814.074694
1414.505314
1284.967804
1367.817442
4858.654909
8191.923898
3112.519358
0
0
2327.339134
7687.970312
10454.88855
1567.704344
2386.114753
3174.363371
4298.586428
6304.862998
0
314.5359013
2110.784174
11460.82284
2966.10759
844.0986642
3876.474739
8025.251423
3998.257246
2409.113177
0
0
4593.367246
6211.495355
5001.093819
610.0631463
2850.211394
8406.053393
8199.23686
2770.097791
0
0
3237.132903
6594.728402
4836.516196
3666.478138
1195.786114
4081.641029
3001.021556
10183.73588
0
0
1796.117892
7545.875793
4208.590739
1127.176174
681.1376844
6395.867317
3689.521501
5251.226912
2789.747866
6982.323412
5787.305508
560.4155899
5777.138261
6528.283351
4585.449396
5616.517971
8539.250856
9231.912841
7401.509697
6707.449599
2792.205947
10729.09759
5923.37773
11984.36716
7119.98328
17887.28707
6841.245483
6944.583058
11644.09143
5929.636591
5841.691968
5645.354723
6857.650748
6821.372842
13989.72775
7493.129648
10035.70453
8348.892329
12545.7858
4696.61532
18584.97357
6374.7653
8748.727781
2734.939784
3645.185786
6306.500372
11093.29826
4857.909388
5955.957367
6686.096143
2434.829885
6120.070697
7741.430302
1795.438804
6060.45636
11567.30626
3069.926118
15937.36624
6105.700949
7231.822432
10985.40557
7365.573001
7282.324922
3948.801167
8049.946978
11321.9574
7773.389349
10221.8366
7439.984086
12325.34052
3815.291775
6112.608561
3651.303024
2939.902814
7501.864577
4522.925563
4548.400973
7233.265769
3379.804738
9139.858974
1991.842886
10717.24306
9523.174558
9480.0011
6570.975764
3856.102813
7509.753397
4493.298164
8858.338212
1874.302202
5326.556522
17729.67569
4050.93554
9797.787678
10023.55336
12754.54496
14236.25349
4820.851697
3680.480462
9657.492014
7776.465688
6624.40978
9470.390722
4010.518759
4583.165666
5864.74789
7084.682059
12913.18364
14299.62808
2584.801805
13470.46292
2487.010426
7944.295922
8266.363528
5190.119984
10.48224976
6422.14991
3769.427508
8824.377596
8860.63071
7078.258664
5587.556712
3576.964479
2141.191367
8981.447386
1696.368443
10086.46143
10631.69485
6078.805943
10819.34421
5914.500728
6159.579479
6523.48652
1423.548327
9587.720167
3912.24228
4833.005779
4290.606254
4893.761079
4181.154425
5084.482313
4019.486826
11275.32243
7171.168199
2123.364169
2585.355642
7284.470447
6991.615808
1232.23938
13844.50523
4396.579843
13611.7523
11027.71057
12444.71335
8594.830032
12586.43025
5837.338204
360.7812079
4844.007762
8477.696633
14888.92966
8420.930166
5250.044738
6188.771919
11019.40337
5593.18529
3613.762424
5979.120436
5314.27867
2361.582482
4338.53517
2219.501018
7495.039648
7473.580965
7729.277258
4606.279958
3096.716394
5016.204843
4803.581014
3749.675932
9219.389855
10432.75604
6896.764204
10397.14216
3587.019184
9372.881054
3555.64599
6956.007131
747.9639113
5094.207259
11050.52995
13457.26371
4747.389316
10923.55817
11401.56152
4211.70528
9466.299526
11842.17378
4322.219669
4940.32076
3836.996941
4057.789782
5947.689834
2426.561764
5107.188986
8002.763243
2867.434286
2555.963381
6687.52306
12813.70303
2403.972988
10340.1027
5151.345568
7151.653043
12984.14763
3589.287395
8422.736871
13808.47924
3439.400406
2225.857065
6057.575548
4974.542087
6598.469063
8441.807959
8374.67416
8877.673941
5816.348682
10329.31972
1635.45395
7079.901082
5970.401381
8099.291867
4113.835208
3517.352069
10035.29495
2809.617863
4493.368156
8556.788126
5100.98432
7422.077556
5952.165297
7169.559577
9651.48953
4520.354331
4327.962387
3645.612974
9571.788196
12450.81427
4955.218791
3605.608401
5881.740594
3846.956848
7590.044375
4616.437901
6697.281535
3956.945693
9215.194424
5470.463083
9507.295424
9392.490686
8421.149545
2510.892232
4851.99513
5052.860003
1344.160522
4115.857104
4148.832959
4092.345199
2083.519181
7295.228403
10565.80959
7840.23981
8882.508786
2925.289843
6099.102738
3637.560808
5930.616394
13270.20965
3583.531842
4691.130538
9053.508764
3257.324366
2678.251963
1609.30744
6973.731703
3525.793563
6700.209413
10243.03742
10736.44295
6778.073151
7321.762114
2007.628153
5284.322945
8337.688373
7505.152629
4751.734948
7287.534684
1229.177971
7954.237059
3658.837272
1665.608111
4148.463026
6305.443271
8913.50333
8737.594626
6258.643806
9257.812474
12854.99145
3040.45006
6095.057257
4421.761102
4850.22935
3884.442744
4865.442661
7942.564704
7129.457616
4552.988611
4268.393547
3543.582265
4530.818458
7081.533099
6196.902129
7150.042791
8018.482773
3100.397618
5981.254519
5782.322847
5991.298101
1645.061943
3394.495799
6083.994455
7681.750124
7692.535011
9228.121113
5165.216085
6700.846112
6511.767563
8116.379935
2557.36676
6480.408655
4340.757855
7536.884358
5904.404326
3802.12753
6095.331899
6060.830177
3771.672435
6120.442239
2178.586424
4773.929612
1162.522115
8762.376911
4161.806608
5939.333129
11109.06064
5986.799787
8952.683063
4780.656585
7810.564713
6728.566794
14658.08092
6523.187622
9285.428263
9674.612531
10097.93722
10097.36356
5179.668282
7317.743497
4369.812989
6104.468497
2431.851703
834.8657429
1983.146119
3205.976062
5698.574368
5496.351366
4453.396822
3544.387347
5233.112165
4358.03122
5705.325551
6160.512563
5977.604573
3790.574499
8265.093116
4837.441043
3256.59574
7000.87514
4897.91449
5766.097228
7089.106174
5004.149679
7989.608265
3724.851761
3983.688125
6323.507135
3480.169219
14241.71885
4539.804847
4156.140548
4540.006872
2981.004082
2619.226615
3343.864052
4748.06119
3217.841128
4160.196987
4269.60596
6292.129523
3813.936101
4055.864611
4337.12047
3651.827282
4915.708983
6417.363041
3181.472678
2377.627949
5329.243182
5819.485805
5462.621107
4703.429777
3353.390384
4045.516886
5829.306597
5493.900856
9195.443918
4664.164846
6921.407209
3433.337647
2957.603256
2322.350502
4112.260568
1112.673149
6103.161729
1894.293998
4045.090094
1468.817182
1818.355934
2232.398207
7997.766138
10635.1357
4811.670714
6269.164467
5080.237697
4226.792678
6006.376733
6228.69668
8372.707834
5486.720429
4676.005231
4108.896818
7225.313065
4409.701736
5214.352594
7482.948503
2329.691381
8968.810421
5413.221688
2299.292332
3207.282245
5422.328132
1413.176517
4867.330318
1979.424077
3098.196504
4340.2513
6254.554679
2230.233343
3878.246699
3196.722404
4311.095276
5204.394895
2130.389163
2579.321704
2330.859196
2971.605655
3558.980583
4800.455343
3608.516102
4528.657297
7003.741651
4467.897809
3803.822452
4801.727585
9272.352764
4778.165783
6930.75159
6578.296071
3789.832611
7072.160875
5129.339442
1160.693842
4484.627851
2534.053809
6633.017526
4942.870114
3545.314461
2793.550726
5918.270966
3781.636889
3862.940342
6714.290642
2977.536948
3709.329975
3503.866344
8964.807362
6427.15374
1466.305888
5638.975067
6876.687602
5942.733392
6558.015757
4582.050283
7943.146248
4505.50238
3398.776296
6885.954146
11568.9181
2220.720119
5468.574725
6650.43206
6180.720761
2539.965736
3327.819906
3147.698839
2900.316331
6361.657881
4465.307911
3224.423768
4515.633658
3156.961411
6615.162342
3071.025539
2480.198024
2784.152424
3593.175066
3139.608906
2605.172942
5834.657576
2954.749032
5847.544247
4381.237049
6592.467568
2948.341064
10010.83253
7894.956179
5864.600938
4958.917761
3706.556788
5338.130774
4356.240927
2213.563753
2919.142622
5064.288115
6282.018711
2817.92182
5650.715461
8665.937387
3267.250116
2990.847036
2260.595894
5682.667281
1016.665528
4811.936827
10188.44791
3807.469083
4249.536447
5466.829016
3544.361136
5869.702378
4285.469814
4812.988202
2505.304307
5859.208163
3867.055672
5964.082286
8051.907755
7900.945786
2805.580912
3524.125524
1863.255376
3680.00949
8564.699528
4921.31537
4228.872451
2079.281697
4604.937415
2995.982486
7322.145633
6389.992823
8976.440523
2435.438345
5515.384342
3336.361261
4471.506997
5771.200608
2843.002903
7898.870658
2470.26888
5298.589543
8793.200279
5696.699529
3383.053546
3815.417721
5537.736142
9648.592324
3070.881049
4243.44165
10172.80964
4639.593277
8168.151777
13336.01818
6497.116986
4105.483312
3446.278432
8393.088802
5178.960537
1963.280919
5326.28944
8579.992502
4931.251813
2513.660175
7051.366417
3906.688153
6148.629475
7733.444189
148.7186224
13797.52685
7881.28244
5441.782188
5708.310359
15988.87312
14920.49265
6389.687379
10977.13629
3724.537571
5726.27468
2547.616276
8188.669096
3159.575749
7151.430337
5104.248801
9445.890066
5250.323752
4466.092398
3855.068152
8205.420998
7126.734746
3874.581083
12338.09338
3491.095786
7684.353491
13265.07141
10622.00971
6073.052157
703.6338391
3993.196399
10989.61699
2898.890401
10118.22553
3707.281222
7277.41581
12614.45436
11442.65191
10596.73171
1990.749289
2.105262427
3682.412237
10295.23262
4871.021644
14261.40337
7914.496022
3656.698575
6456.072153
4912.830192
3119.611458
6485.923027
2929.810008
2848.602803
1075.584165
8298.650781
9884.057645
12123.43535
4277.018077
4466.640523
14389.92498
9595.771072
4901.09794
6530.227818
4399.794888
6370.123701
2318.387001
13200.95923
3171.371382
6336.408455
7089.530572
8092.704203
1572.155985
20830.7389
5523.007155
2865.23531
9249.535005
9888.938526
17544.1241
7509.950793
10358.79199
2789.011132
7717.369871
2085.940401
4994.957459
4804.971525
4213.794132
5634.187239
10418.29805
6554.687408
7570.687746
10171.64845
10610.05197
7958.488096
5132.75373
8310.28409
4194.108003
4300.249449
2224.005513
8601.491901
8473.186941
5519.871226
7407.183525
6809.411395
5243.262717
3804.891509
9229.187808
5693.577589
13004.52343
2892.432136
13992.93685
3881.227524
10293.7332
4723.209785
3614.077436
4446.066608
6347.868745
6466.547205
13806.46085
1171.92214
9320.53587
11811.62521
10334.13355
2511.535595
9838.314236
5463.535795
6774.981039
4431.067229
4461.915411
8462.902017
11412.96651
9149.246656
7280.953341
4755.949671
6012.84279
13656.22244
4343.78082
11107.22146
6005.65104
6072.455541
4598.073724
4622.894813
7540.814637
9812.387311
6224.01794
3603.93906
4984.593323
9144.220241
4092.488271
5547.287131
7574.800979
7992.244674
8877.790959
8449.147138
8398.867367
3602.2703
7876.225815
4203.587269
5461.885503
7868.681462
4371.915421
6866.508665
11041.7497
6957.864698
7339.189538
2144.524583
3701.605069
7970.361364
10723.64274
7216.964814
813.0036251
7096.308623
6459.586631
1387.448309
6849.485812
4530.348546
4666.657753
4182.335899
4192.410449
4233.565325
9236.657356
3938.91437
4826.689238
6388.229759
7928.820108
3430.864581
4913.155004
7382.341787
1407.843324
4627.770845
7024.320181
6313.798501
9040.185286
5663.69272
6118.807226
3823.18316
2571.706191
5762.374655
1634.568835
4240.034628
2965.487999
6084.136436
2471.829044
9392.027466
9477.624377
13421.46882
3990.858412
7865.30651
8620.046321
6246.830625
8497.839382
1871.268279
1356.998436
6492.167932
3970.351857
12043.6873
5583.612664
4079.550859
2648.362658
3701.973161
7969.331648
9536.643098
8996.051779
7208.188243
7527.465419
5989.836042
5434.134572
8851.272972
6487.62324
2743.314903
4247.102757
4838.478282
11152.58611
10087.35063
10178.1867
14962.06974
14210.45294
7626.265656
5384.615644
9867.980366
16344.85273
10581.12587
5998.508105
2887.98488
4488.645216
9654.90807
3242.466383
2477.444822
4479.622057
5295.733162
4637.854953
9039.885494
2027.193956
19945.21834
5099.772916
8748.686409
7400.289554
4034.94346
12462.18967
6240.989067
12024.27869
7903.748258
1206.50379
6382.350862
5690.384308
10029.91999
2867.942489
3797.371689
5554.791876
3347.15789
13132.64335
10952.61665
5772.547082
4123.112219
7108.29677
1658.425799
5847.140299
6935.154694
4591.734865
6662.834548
4586.552301
1682.057599
4703.724344
8139.448695
9402.268568
3968.319982
1870.926083
8569.136377
5876.991885
2722.895934
12967.39217
13238.68061
3950.312448
12366.66109
7448.060715
13346.90687
8634.03972
4129.605103
6502.189266
15121.99815
4934.932757
8642.06032
2891.245541
4289.678718
9567.697463
4073.526687
8940.178727
8764.231226
6126.846923
3024.828217
6690.832552
7911.659942
10161.21926
5769.028295
8179.898187
2235.233849
9352.304626
4395.371481
4792.271194
4842.743468
6620.135783
5792.353692
6981.2377
6787.996524
3371.482114
4188.537757
13106.67223
14600.93552
6877.570162
3454.767403
8856.227962
3464.542002
4621.411691
1560.655621
5975.237748
3360.112896
6167.090922
4555.773071
13370.73329
2150.53972
5147.904568
3054.123714
12802.5267
11105.93028
3150.4754
5967.121306
8074.645931
7817.228866
3940.415202
7107.733935
6490.770589
5388.469703
6696.912626
6332.552889
11017.68965
4464.676842
3403.71486
6406.227933
9852.7788
3422.696028
6527.058562
17547.17729
12114.30641
2653.82179
9579.538552
5285.142097
3014.12925
1817.567034
3740.784171
7736.226766
2730.06874
3679.330583
6002.646329
2540.524474
8011.738716
9167.642434
5151.728717
2571.779174
6805.661045
10579.22063
15139.06935
6730.945869
5492.842051
7821.965944
6515.213732
3054.097158
3894.348842
5472.205439
13879.59392
6358.27565
8358.993778
5642.95978
5539.981409
2690.900576
2547.754406
2390.92548
5267.850659
13388.09044
5627.346827
5690.912758
8610.679825
3040.542695
6102.663891
7829.777535
11127.95498
6927.399995
3909.402788
9259.848335
4016.629933
1548.310756
4930.418234
4809.853799
6818.784358
4080.252272
5354.414204
7795.067285
3087.707755
7255.618896
2559.59505
12645.78347
3496.959036
7712.491477
7418.469362
6166.905753
1743.832317
11453.04847
3096.714479
1478.741727
7193.012374
8493.706442
4723.104128
7122.59903
2474.010632
3327.012589
6312.873576
5224.957653
6628.935416
9547.36113
1774.778739
11079.14074
3816.273642
5079.199309
6709.30063
16085.43482
5185.558172
8630.097959
10117.37913
5836.586606
9056.249984
4046.519962
9863.136174
4800.782969
5439.540286
1197.255136
11182.66461
6797.357678
1941.51322
5150.657508
5670.02891
4537.013823
8084.242716
2330.955032
18095.44667
4955.607576
11489.65457
2385.239125
5983.836147
16887.77917
4037.660494
4608.372471
3034.198269
2449.388502
10042.10267
7042.262872
7991.326144
2236.404651
4966.252055
3962.883847
5186.819039
1914.429559
5465.298833
14457.69682
4870.937614
)
;

boundaryField
{
    inlet
    {
        type            zeroGradient;
    }
    outlet
    {
        type            zeroGradient;
    }
    wall
    {
        type            calculated;
        value           uniform 0;
    }
    frontAndBack
    {
        type            empty;
    }
}


// ************************************************************************* //
