/*--------------------------------*- C++ -*----------------------------------*\
| =========                 |                                                 |
| \\      /  F ield         | OpenFOAM: The Open Source CFD Toolbox           |
|  \\    /   O peration     | Version:  v1912                                 |
|   \\  /    A nd           | Website:  www.openfoam.com                      |
|    \\/     M anipulation  |                                                 |
\*---------------------------------------------------------------------------*/
FoamFile
{
    version     2.0;
    format      ascii;
    class       volScalarField;
    location    "8e-05";
    object      linearKEMean;
}
// * * * * * * * * * * * * * * * * * * * * * * * * * * * * * * * * * * * * * //

dimensions      [1 -1 -2 0 0 0 0];


internalField   nonuniform List<scalar> 
1300
(
1508.043941
1619.284837
14454.84401
79869.06192
45453.23851
12706.77535
27165.23872
34758.64726
20862.91352
22395.63566
2641.446938
3236.941198
24874.58034
163791.1478
82934.59058
25124.75922
50264.30641
63880.33235
42256.8063
33158.49396
1244.97572
1704.880782
30827.13789
180045.8113
94317.40539
27195.18836
68870.66021
101589.3881
62792.78439
52571.22488
1258.535053
1282.477972
28140.31672
165809.8396
95892.81104
31002.67405
79723.48506
126143.8856
81288.63199
62667.47225
701.3841835
919.3407154
26805.58141
171178.4287
105553.9203
32524.68232
72587.37762
119533.7968
90122.95127
77063.78062
680.8788334
472.8934902
26935.07982
175546.8165
100578.2787
27477.61072
77082.72818
113472.876
102352.1989
71533.37861
545.9335123
752.0136213
25919.60334
167754.7824
94638.8243
21828.91468
74533.70326
109330.8481
93072.17003
71700.71167
487.8206878
648.0393521
31933.05184
171229.777
93929.34636
28417.00264
69891.588
114292.6664
84157.57892
65312.90617
246.109604
585.1217969
27771.48849
176077.7749
98289.76002
29396.68375
73982.45459
105493.9924
89968.8771
67452.28035
184.0027673
337.9163472
26813.41845
164847.1608
97119.58752
28930.12607
67386.61461
111846.1586
87294.1465
61578.65218
222.9888032
813.856845
28896.74286
174222.7549
97900.54212
28986.48881
72123.44755
110960.96
86604.56157
70013.88021
150.6796914
677.3351479
30764.32514
163491.532
101235.088
24733.03993
73573.79017
112807.8194
84335.49778
72466.68879
138.5205842
669.2504657
24987.06084
174116.7858
98998.28341
28200.77122
70687.11366
118581.1462
82826.41794
68366.69494
75.00869009
240.1960875
28206.96004
171775.6618
87763.39494
25738.11912
72609.67732
108798.8376
79797.94492
65274.70015
33.93915778
405.3997118
27990.36255
166239.0969
97047.43775
25896.86855
71254.5615
116112.3018
89493.73024
58259.7271
150.6450073
483.6842564
29111.07148
180567.827
93420.73533
27807.07558
75152.39534
108932.1783
85563.80189
71910.90781
75.00869009
386.3449952
30309.67911
163923.4196
95569.5262
29486.25884
71254.63048
105545.8196
84693.71374
68773.95096
33.93915778
66.52110343
30419.1875
167207.1469
95227.35432
29848.54342
73217.53747
109013.8019
89025.11202
64711.58711
41.06953231
446.5200718
29785.75315
171553.5275
101359.1651
33485.61422
62790.77128
105806.1415
88359.41303
67540.03375
33.93915778
192.3964507
28182.04
163650.5257
88804.86817
32203.12557
71107.93497
112194.1451
90222.92566
70436.5413
21093.48139
18989.35446
18472.38695
16808.83486
17873.48381
15445.32792
18526.86485
21126.89479
16278.07083
19158.58166
19604.88059
21457.31616
19267.19154
21414.67366
22263.32967
23108.41484
24175.09537
22331.67736
23489.04956
21196.98783
22576.73381
23591.48925
24010.32092
23426.38857
25112.53359
22276.883
26069.42108
30109.4987
26317.08211
28658.66574
30581.26053
30036.14196
25519.48819
24431.34688
24921.55392
25254.16632
21598.43881
23937.69327
26081.96245
22323.1795
24244.19568
22063.46973
29265.19196
22645.25234
25649.7249
24233.39626
22321.56343
25840.57742
25327.73163
25965.57363
23586.97766
26005.53625
26947.4973
25618.25603
24254.30086
26227.51022
30082.37279
25598.70589
25281.15865
28264.51624
53021.58742
53302.59709
40166.43846
37255.78036
40193.93125
33896.23254
30246.97309
30846.95918
33332.5517
27065.38029
30276.45367
28813.87565
27306.2497
25582.69853
27975.96965
27700.36349
28214.18115
29260.65247
30449.10087
28162.79815
29317.14319
29005.69434
27269.19353
28021.04737
28544.30953
25432.28392
28420.55739
27815.89888
30504.18166
29312.07264
74899.70325
71587.45656
57884.11532
53596.55463
55314.14662
44115.79331
44281.17421
42872.57257
37188.64345
38419.37712
38264.5996
33688.79327
32635.80508
37807.5299
31597.6068
31708.70209
32249.70907
29289.8817
32717.66179
32410.6951
35499.71592
30467.90058
32248.97552
34474.42324
35143.07939
29882.4432
31635.58916
38091.71345
33223.77949
33898.2927
95898.5111
90621.21179
73246.91637
77023.73377
62849.44685
61526.10432
58635.69585
57867.20922
49710.76266
44214.51593
42549.84525
45402.81243
40115.61547
38583.27837
36352.83282
39240.19987
41440.96052
36041.84653
40092.87654
34966.61815
37451.42269
37384.22254
36449.57204
37495.95799
36475.91496
37898.90241
38770.13694
35047.07914
29806.86728
34142.81921
86355.40381
103914.5741
88259.73481
85779.88779
83535.04821
76698.82501
68887.59489
63193.72816
62856.20806
59419.50819
55440.8011
55284.28594
48447.28359
51065.67004
47516.87092
46878.0299
45880.99082
43327.33543
41184.84594
45171.91606
43288.98779
40020.34744
41999.56553
43610.13788
42762.05354
39847.67202
42841.01406
41696.24395
38162.5441
43537.17983
77182.37484
95707.94734
96832.8119
86054.93861
87765.1216
87628.94601
82699.18043
77327.05168
78309.89914
72442.12544
65115.89146
60304.23914
54868.26706
57835.49214
54904.84735
51513.91701
50382.89781
57212.26534
47691.3328
46138.91837
51220.83773
48659.0358
46175.0548
44093.96889
46754.7648
45894.62376
43535.99668
42183.11165
48518.3435
38560.02701
79918.90311
91080.66001
96304.19389
84144.93897
92762.69964
105118.1439
91579.57265
90231.42644
87870.0615
83297.48972
78252.78074
80421.55014
72838.96295
68669.8489
65472.72752
63627.8895
57089.1109
60338.29691
54292.42852
53353.13091
53462.00692
62632.69627
51271.7299
52423.52785
53260.20634
54122.16491
46432.22453
51882.69565
51258.10242
50461.0403
78585.3523
91250.66648
80707.15223
89376.81289
87740.53291
91982.37599
99612.20753
90954.16182
94064.83788
89980.02564
84158.82848
84105.15201
77299.12511
75340.8759
75066.14375
74703.29419
68677.93069
65533.76968
66966.67282
59845.1448
60638.75082
63426.59734
59055.91025
56657.18127
61809.73143
59218.56315
56827.84279
51421.55423
65630.16595
51466.73637
71659.97169
90793.91932
84444.72459
76218.46784
83982.86023
90683.14721
94054.91802
89532.90131
91622.70698
101396.8643
88565.89975
91561.34347
91947.61297
80790.82998
82418.3551
75815.19885
77663.96242
69783.76608
76913.03922
73760.70714
63732.76448
66892.16016
66773.09933
63007.54372
67049.82931
60139.99852
62157.34484
61952.49243
64461.18288
58631.79516
74831.89429
91587.60097
85765.81253
79493.83472
85473.55739
84754.16308
87740.27086
85050.56239
91302.02978
99635.36056
95686.69627
91706.10482
96012.96529
93088.28784
86752.49413
83374.98055
91503.42561
80456.46411
76347.30245
75751.23789
69691.18602
79384.56396
70201.19262
67080.08143
68701.23576
69856.8859
69613.23759
61442.8675
64605.84197
66846.15169
71571.29367
92267.85663
81959.39055
77514.59417
82257.1072
86634.84766
78730.70227
80816.43744
91479.16116
88016.09839
92379.23541
93609.9194
96798.0725
94367.18809
89321.10695
95602.70605
89119.46654
83905.12506
92344.43407
84761.11459
83246.13219
75026.06914
80796.33967
78342.65567
70200.22575
78076.31184
67703.17058
72269.28352
75946.52971
64506.89421
76895.83664
84539.60209
81048.9827
75250.64551
79299.62551
86978.61301
81173.44838
76760.35759
93563.94212
86835.13082
84532.3924
92727.13781
92106.7098
99184.59534
88670.13839
97722.13956
92132.89889
88986.9019
86535.36978
89928.27686
83341.87816
83677.28937
81850.54449
78745.1285
77706.9479
71149.66828
73369.6863
74666.47414
76687.36355
75502.35585
77576.76203
94004.0337
75358.21595
71687.02001
80387.11847
81182.27853
81279.96224
73774.64917
83202.76504
90170.14055
76004.54185
83415.95422
91595.95909
82804.73711
93737.94503
86372.41813
98058.68935
99508.19308
91069.0242
90004.11176
88124.8607
91253.59403
85550.65623
85938.07607
79520.22814
81444.129
80803.36403
80391.89711
76611.79652
70963.94009
72805.15432
86315.08641
83123.55762
79250.77457
83020.08789
82019.01583
80775.57823
82617.9239
83157.94591
76839.89664
82480.75242
84800.67667
90808.19455
81065.47703
93532.29654
94830.84247
85788.82605
101246.8476
93106.69445
95662.41503
96466.65198
88440.87402
88685.14467
91371.51893
94297.8266
79713.42976
77784.19562
87673.31247
73927.44229
86564.14693
81959.72677
91449.84595
81165.18271
78704.74529
82660.54352
88450.93511
74543.49493
81361.16026
84576.39454
81041.79929
79003.01875
79226.99618
78735.95294
78808.73107
83612.47642
85321.30362
84200.8098
95282.17614
89246.02475
92244.66885
96490.11839
99440.60774
95420.43148
80223.44656
92201.29083
87977.99813
81124.7424
87321.28974
86820.54094
82819.08235
69604.74472
89831.99154
91617.28445
72132.20339
84607.17164
82712.18213
87064.2233
79390.45648
83445.74336
85432.54448
85445.61717
84907.6134
87794.92219
78079.16735
87146.24005
86605.45288
84441.49722
83201.69759
90425.32048
90708.03435
90238.72084
92384.18956
102417.8907
96386.13356
99258.13501
99055.37232
97206.73255
91443.62191
86269.84051
89062.92199
74995.80843
79809.70442
78324.13086
79651.11264
77235.44069
85998.86834
79890.42837
75659.58731
83422.69261
81755.67694
88815.98447
77218.76892
85340.73044
86203.656
85392.82687
84309.66965
88995.00883
90665.47891
81133.50587
86185.66509
91695.52675
90011.32107
91798.92692
91323.76359
95845.67875
89106.06397
96813.62061
97261.07679
95775.93994
88520.33018
71391.22076
94427.82548
81483.93445
65831.56269
75795.54684
84722.18035
82523.46541
77763.56738
76415.84876
85954.41401
81475.48046
79489.88041
84283.66102
82738.10329
78946.5602
85677.31491
80285.09648
89788.60011
87623.45946
85671.32478
91468.0762
89024.12542
91019.76121
88651.88198
86280.34372
96122.84349
91854.53568
95315.38594
93124.90784
96445.993
80669.08116
85443.04406
84974.98835
83630.98696
84607.96207
80744.58125
81884.14543
74727.19114
77913.75007
75642.60633
81998.38121
78651.26425
81170.1712
82115.63033
78380.10554
84959.1087
81295.92962
76996.18939
84149.24079
83115.83712
84508.44069
82690.00864
84624.75278
84959.03366
91627.8887
91483.48169
90290.10339
87014.42736
87091.58069
96344.27138
24764.80029
21613.66734
16907.57088
11360.8283
14591.10827
12481.09656
12540.71316
10549.19661
10444.32099
10611.06632
31285.26875
31032.57405
29059.3515
24820.26615
26408.30061
23694.07131
21587.61729
20073.75056
17031.88638
19163.49679
30352.45071
33594.26549
31746.60517
31831.20319
28861.45995
30866.91069
28813.35504
28206.75065
23883.38135
22215.94609
32399.15879
33274.98405
37803.39603
36094.27291
34766.0151
37343.74572
33549.83446
31316.23873
29231.7323
32087.23861
36592.949
35259.71759
34743.38648
40352.36507
39035.68038
40120.5333
38025.3061
36722.56273
33877.41294
36693.32494
38965.33735
41148.40262
35671.41609
40842.39442
40369.93088
39979.8458
42391.66749
39907.12155
45251.40074
43533.52809
41126.78308
40611.56853
42969.51731
39766.11715
42167.77249
43276.6093
44987.49693
50595.77239
44814.53681
48556.86543
49395.2758
50014.2746
47885.9122
43148.1837
46160.17567
47789.47592
41753.97191
46665.90073
46944.08075
46924.79889
49734.99176
53936.49005
54375.58558
47427.00787
51778.61743
50068.95483
49660.58868
45840.1938
50016.31383
52116.87615
58333.08171
61865.69466
60817.31222
56613.44905
53425.97317
61991.37532
48834.4742
51833.89273
53341.11033
52066.17224
59064.4112
61651.739
69057.16642
62197.47459
61918.03445
57824.64933
59914.01481
61200.36638
63848.60446
58804.76151
63370.84601
69237.0797
71757.08909
69077.81618
67153.93089
64157.08598
69194.0979
71144.34647
53116.91237
63724.94005
72774.08486
76737.30729
69590.07168
65152.76097
65437.45714
67646.9939
66085.55984
63499.44606
66720.43826
63622.20406
70344.25785
80171.41969
75771.10411
75147.55875
69347.21221
73311.81258
75776.67671
71551.14153
68839.15525
76164.31428
77232.06893
71670.27572
76871.23435
79508.07161
81510.13787
72658.09309
81115.1919
69849.9872
76644.42912
75935.76643
82093.16372
77523.42049
85156.57996
80395.1633
81087.76387
76757.74003
82095.96298
80746.14259
74344.79381
74227.65074
89930.92686
87686.92444
82521.55129
85612.25581
78805.19132
88073.01768
77228.27278
82601.77913
84840.43811
79225.48567
93758.54066
84232.69349
88944.43349
91819.1992
81331.65363
92294.38714
82516.81344
87118.23749
87702.20237
82162.30387
89902.14766
89194.21915
90412.0436
87702.592
84150.38226
88786.21433
83899.01206
80147.05788
91342.92632
84425.24742
93994.27995
92548.43064
88601.28272
90449.36167
86588.43972
87176.40046
85825.69769
83197.99793
85026.13737
86900.99886
4196.617408
5731.099479
4826.583419
6637.199028
5555.321156
6543.819878
5525.321604
5330.347112
6331.35746
6815.092145
6888.101761
5826.78936
6349.340443
7398.770277
6963.61697
7757.482353
8825.888146
6753.79208
7942.505386
7057.90273
7821.314263
7388.823639
7987.833038
8219.663626
6482.421558
7422.815631
8372.616092
8506.132927
8347.936926
9375.945408
5397.230955
7774.547311
7867.850503
7412.850364
9159.992774
7531.868892
7941.203993
10313.72191
9960.099683
10363.73292
10816.03153
11310.0622
10344.3747
9458.025858
11020.98761
11325.06361
11127.39194
10226.5282
13368.46098
10920.16093
11874.18342
12668.11202
12566.88528
14086.59268
12061.01652
14943.76762
11197.72532
13388.41122
13149.90942
13215.47371
4435.636746
7703.176587
7432.529184
7945.509123
9181.393606
8123.800802
10239.98699
9743.24824
9656.790263
11256.42933
11967.02504
12314.20722
10245.74747
11808.3268
13419.14751
12836.91587
12748.50593
12354.33056
15516.33045
11131.60039
13943.42698
13895.30075
16097.75895
14165.52112
13098.5603
15540.99219
13944.79552
14612.16976
14757.21822
13348.84138
4712.556908
7615.941923
6525.547461
8187.128036
8191.220121
8601.892938
8322.120333
11206.51499
11070.82894
11428.62179
14636.6952
10228.28422
12958.34339
11646.46383
12609.26432
16048.46048
12776.0376
13505.24806
14701.04936
16029.4605
18274.60473
15856.46783
16347.90673
15984.70287
15532.64905
16699.9267
18892.87686
16846.40571
18122.30002
16285.56429
4208.882583
7119.76384
7485.166039
7558.229143
9653.500084
8463.674135
8900.319023
9427.909855
8925.851455
13381.28485
10819.43386
12300.23788
13968.53417
12194.99412
14144.48173
16953.67744
15187.54073
14110.61072
14757.29469
14876.10542
14329.16839
15284.46508
17382.79336
18028.92738
19404.7264
18180.50935
18208.64074
16820.1148
20491.28301
20525.2127
4053.273155
6644.748688
6088.393525
8160.344017
9005.843687
8849.798403
10079.12517
11040.13123
11034.63678
12345.40958
10927.48905
10503.05784
11982.05077
11428.56764
14987.74953
15253.56448
15375.73998
18655.294
18537.80516
16221.27193
20313.59478
18293.5945
18745.8006
18525.86692
19611.11006
22017.71565
19201.82477
22064.23094
21681.85451
18873.30967
4143.263458
7585.877943
6281.618035
6950.542461
8725.815972
11070.83841
9882.269036
10276.36502
9362.398934
10615.28638
13126.01438
12500.53966
13296.6354
14701.70963
14349.41534
15629.78408
16100.31608
16729.68308
13565.59121
17934.27125
20419.84607
18768.89107
20131.96816
20308.70198
23335.49917
20166.04834
21919.72679
21183.92351
23797.98597
22023.9509
4455.324094
7339.41859
6219.105341
7455.411858
9190.182088
9334.696476
11498.39211
10207.63347
12329.52592
12626.59697
13284.46439
11599.67891
14533.07973
12041.60699
17114.82698
12399.26724
15118.86429
16495.16358
15591.98212
20314.20475
18309.48205
20629.59452
20102.32666
24219.0041
22974.41399
21224.16392
21842.37994
26134.33433
24458.62704
21576.9847
3939.398277
7731.795968
7168.708256
9715.78933
8888.837787
11748.06496
12453.11075
11916.40992
13395.63868
14015.07139
14768.26653
12846.24603
15662.74582
13926.2355
17943.33999
19105.01546
18464.89261
19084.44188
17886.06721
18909.86694
21825.75878
19765.4156
22373.61763
24646.04788
20514.34264
23758.35266
22990.1494
23865.36369
25810.07146
24881.37474
4748.697385
10308.34565
9131.488186
10185.91389
13200.18462
13701.34703
12281.31498
12275.00375
15581.96996
13209.26691
16213.40842
17215.25078
16839.83643
21057.47695
16207.55677
15763.22255
18018.03979
19302.7034
17124.77768
21622.47272
20998.42756
19963.56123
22847.94156
24776.4383
25191.4458
23787.72315
23121.65123
26141.17619
27870.58807
21776.95709
)
;

boundaryField
{
    inlet
    {
        type            calculated;
        value           nonuniform List<scalar> 
20
(
1508.043941
2641.446938
1244.97572
1258.535053
701.3841835
680.8788334
545.9335123
487.8206878
246.109604
184.0027673
222.9888032
150.6796914
138.5205842
75.00869009
33.93915778
150.6450073
75.00869009
33.93915778
41.06953231
33.93915778
)
;
    }
    outlet
    {
        type            calculated;
        value           nonuniform List<scalar> 
70
(
10611.06632
19163.49679
22215.94609
32087.23861
36693.32494
43533.52809
48556.86543
46924.79889
52116.87615
52066.17224
58804.76151
63724.94005
63622.20406
76164.31428
75935.76643
74227.65074
79225.48567
82162.30387
84425.24742
86900.99886
33.93915778
192.3964507
28182.04
163650.5257
88804.86817
32203.12557
71107.93497
112194.1451
90222.92566
70436.5413
80669.08116
85443.04406
84974.98835
83630.98696
84607.96207
80744.58125
81884.14543
74727.19114
77913.75007
75642.60633
81998.38121
78651.26425
81170.1712
82115.63033
78380.10554
84959.1087
81295.92962
76996.18939
84149.24079
83115.83712
84508.44069
82690.00864
84624.75278
84959.03366
91627.8887
91483.48169
90290.10339
87014.42736
87091.58069
96344.27138
93994.27995
92548.43064
88601.28272
90449.36167
86588.43972
87176.40046
85825.69769
83197.99793
85026.13737
86900.99886
)
;
    }
    wall
    {
        type            calculated;
        value           uniform 0;
    }
    frontAndBack
    {
        type            empty;
    }
}


// ************************************************************************* //
