/*--------------------------------*- C++ -*----------------------------------*\
| =========                 |                                                 |
| \\      /  F ield         | OpenFOAM: The Open Source CFD Toolbox           |
|  \\    /   O peration     | Version:  v1912                                 |
|   \\  /    A nd           | Website:  www.openfoam.com                      |
|    \\/     M anipulation  |                                                 |
\*---------------------------------------------------------------------------*/
FoamFile
{
    version     2.0;
    format      ascii;
    class       volTensorField;
    location    "1.4";
    object      grad(U);
}
// * * * * * * * * * * * * * * * * * * * * * * * * * * * * * * * * * * * * * //

dimensions      [0 0 -1 0 0 0 0];


internalField   nonuniform List<tensor> 
1900
(
(-0.00065596 2.43923e-07 0 2.17963e-08 5.29888e-09 0 0 0 0)
(-0.0106383 5.63958e-06 0 1.77594e-06 9.45426e-07 0 0 0 0)
(-0.053749 4.17054e-05 0 2.09618e-05 1.89255e-05 0 0 0 0)
(-0.118458 0.000152745 0 6.78276e-05 0.000122336 0 0 0 0)
(-0.1412 0.000358385 0 0.00020403 0.000434168 0 0 0 0)
(-0.107308 0.000259487 0 0.000724981 0.00115671 0 0 0 0)
(-0.0532951 -0.00388917 0 0.00234775 0.00147089 0 0 0 0)
(-0.01812 -0.0120925 0 0.00317286 -0.00395762 0 0 0 0)
(0.0209432 -0.034891 0 -0.00356881 -0.0185789 0 0 0 0)
(0.0274181 -0.118221 0 -0.0297333 -0.0682812 0 0 0 0)
(-0.000654163 7.06802e-07 0 3.91222e-08 -3.27088e-10 0 0 0 0)
(-0.0106173 1.32806e-05 0 2.9645e-06 -2.43596e-07 0 0 0 0)
(-0.0536829 7.96854e-05 0 3.2474e-05 -5.63991e-06 0 0 0 0)
(-0.118275 0.000262497 0 0.000112016 -4.1949e-05 0 0 0 0)
(-0.140543 0.00067599 0 0.000420484 -0.000158385 0 0 0 0)
(-0.105164 0.000777236 0 0.00138518 -0.000400334 0 0 0 0)
(-0.0508472 -0.00122517 0 0.00369933 -0.000417872 0 0 0 0)
(-0.0240366 -0.00795731 0 0.00341142 0.00348884 0 0 0 0)
(-0.011963 -0.0294326 0 -0.00385117 0.0116746 0 0 0 0)
(-0.0424592 -0.0739763 0 -0.0480194 0.0383799 0 0 0 0)
(-0.000652957 -3.08933e-13 0 -9.42328e-13 -9.94718e-09 0 0 0 0)
(-0.0106058 3.01733e-13 0 1.85826e-12 -1.40366e-06 0 0 0 0)
(-0.0536399 -4.19765e-13 0 -1.36101e-12 -2.65712e-05 0 0 0 0)
(-0.11807 3.12425e-13 0 5.21501e-13 -0.000160774 0 0 0 0)
(-0.139927 -1.0805e-13 0 -1.18957e-13 -0.000551566 0 0 0 0)
(-0.104029 1.87474e-13 0 8.57197e-14 -0.00151275 0 0 0 0)
(-0.0512689 -1.40097e-13 0 1.07065e-14 -0.00210604 0 0 0 0)
(-0.0256705 -2.05231e-13 0 -2.86162e-13 0.000937579 0 0 0 0)
(-0.0304877 -8.2786e-14 0 -7.97566e-14 0.0138086 0 0 0 0)
(-0.0674333 5.71351e-14 0 9.96111e-14 0.0598027 0 0 0 0)
(-0.000654163 -7.06802e-07 0 -3.91239e-08 -3.2624e-10 0 0 0 0)
(-0.0106173 -1.32806e-05 0 -2.9645e-06 -2.43597e-07 0 0 0 0)
(-0.0536829 -7.96854e-05 0 -3.2474e-05 -5.63991e-06 0 0 0 0)
(-0.118275 -0.000262497 0 -0.000112016 -4.1949e-05 0 0 0 0)
(-0.140543 -0.00067599 0 -0.000420484 -0.000158385 0 0 0 0)
(-0.105164 -0.000777236 0 -0.00138518 -0.000400334 0 0 0 0)
(-0.0508472 0.00122517 0 -0.00369933 -0.000417872 0 0 0 0)
(-0.0240366 0.00795731 0 -0.00341142 0.00348884 0 0 0 0)
(-0.011963 0.0294326 0 0.00385117 0.0116746 0 0 0 0)
(-0.0424592 0.0739763 0 0.0480194 0.0383799 0 0 0 0)
(-0.00065596 -2.43923e-07 0 -2.17971e-08 5.30163e-09 0 0 0 0)
(-0.0106383 -5.63958e-06 0 -1.77594e-06 9.45424e-07 0 0 0 0)
(-0.053749 -4.17054e-05 0 -2.09618e-05 1.89255e-05 0 0 0 0)
(-0.118458 -0.000152745 0 -6.78276e-05 0.000122336 0 0 0 0)
(-0.1412 -0.000358385 0 -0.00020403 0.000434168 0 0 0 0)
(-0.107308 -0.000259487 0 -0.000724981 0.00115671 0 0 0 0)
(-0.0532951 0.00388917 0 -0.00234775 0.00147089 0 0 0 0)
(-0.01812 0.0120925 0 -0.00317286 -0.00395762 0 0 0 0)
(0.0209432 0.034891 0 0.00356881 -0.0185789 0 0 0 0)
(0.0274181 0.118221 0 0.0297333 -0.0682812 0 0 0 0)
(-0.0494007 -0.210588 7.3837e-18 -0.110778 0.105374 -1.10755e-17 -3.09407e-17 -3.68202e-17 2.00136e-33)
(-0.148413 -0.242799 0 -0.145472 0.164208 0 7.76494e-17 2.81678e-17 0)
(-0.200332 -0.307536 0 -0.213252 0.192183 0 1.22877e-16 5.17094e-17 0)
(-0.578143 -0.268884 0 -0.495588 0.323546 0 0 0 0)
(-0.0212268 -0.841322 -1.96509e-16 -1.67085 1.84668 2.94764e-16 9.32752e-16 6.21834e-16 5.32639e-32)
(-0.119208 -0.113916 0 -0.0957882 0.120431 0 -5.09584e-17 -1.77791e-17 0)
(-0.231837 -0.157068 0 -0.110289 0.192282 0 -7.76494e-17 -2.81678e-17 0)
(-0.405823 -0.24759 0 -0.21507 0.339998 0 -1.22877e-16 -5.17094e-17 0)
(-0.760546 -0.229728 0 -0.527588 0.617837 0 0 0 0)
(-0.584271 0.062477 0 -0.727191 0.905009 0 0 0 0)
(-0.14444 -5.1758e-14 0 8.89998e-14 0.152699 0 0 0 0)
(-0.278439 2.83215e-13 0 7.80162e-14 0.23896 0 0 0 0)
(-0.523959 2.13888e-13 0 2.64274e-13 0.464649 0 0 0 0)
(-0.918178 -1.66118e-14 0 5.13353e-15 0.88893 0 0 0 0)
(-0.749913 2.19733e-13 0 -2.42009e-14 1.37912 0 0 0 0)
(-0.119208 0.113916 0 0.0957882 0.120431 0 -5.09584e-17 1.77791e-17 0)
(-0.231837 0.157068 0 0.110289 0.192282 0 -7.76494e-17 2.81678e-17 0)
(-0.405823 0.24759 0 0.21507 0.339998 0 -1.22877e-16 5.17094e-17 0)
(-0.760546 0.229728 0 0.527588 0.617837 0 0 0 0)
(-0.584271 -0.062477 0 0.727191 0.905009 0 0 0 0)
(-0.0494007 0.210588 -7.3837e-18 0.110778 0.105374 -1.10755e-17 1.32857e-16 -7.23785e-17 2.00136e-33)
(-0.148413 0.242799 0 0.145472 0.164208 0 7.76494e-17 -2.81678e-17 0)
(-0.200332 0.307536 0 0.213252 0.192183 0 1.22877e-16 -5.17094e-17 0)
(-0.578143 0.268884 -1.8091e-17 0.495588 0.323546 -2.71365e-17 3.75635e-16 -2.50423e-16 4.90357e-33)
(-0.0212268 0.841322 1.96509e-16 1.67085 1.84668 2.94764e-16 -9.32752e-16 6.21834e-16 5.32639e-32)
(-0.0597241 0.312956 2.20352e-18 -0.255322 -0.661669 1.98317e-17 -5.92797e-16 4.50847e-17 -5.97266e-34)
(0.259527 0.0109949 -6.96682e-19 -0.180535 -0.301835 -6.27014e-18 4.24603e-16 -3.74837e-17 -1.88836e-34)
(0.110945 0.102763 0 0.0467498 -0.153635 0 0 0 0)
(-0.368785 0.431794 -1.63457e-18 0.531423 0.409681 -1.47111e-17 -2.73428e-16 4.44974e-17 4.4305e-34)
(-1.16218 0.405779 5.06237e-18 2.07646 1.65785 4.55613e-17 1.91709e-16 -2.1301e-17 1.37216e-33)
(0.0904377 0.281506 0 -0.304027 -0.21042 0 3.00243e-16 -1.25787e-17 0)
(0.326128 -0.00109883 0 -0.220103 -0.282515 0 -2.1502e-16 1.41967e-17 0)
(0.342937 0.102569 0 0.105487 -0.278329 0 0 0 0)
(0.438314 0.465435 0 0.78673 -0.511189 0 1.54966e-16 -3.16735e-17 0)
(1.04312 0.341944 0 2.99208 -1.11005 0 -9.76515e-18 9.44971e-18 0)
(0.128168 1.15992e-13 0 -3.2307e-13 -0.41449 0 0 0 0)
(0.383783 6.01707e-14 0 -2.49042e-13 -0.37775 0 0 0 0)
(0.478476 2.67617e-13 0 4.27658e-13 -0.359557 0 0 0 0)
(0.862855 1.63275e-13 0 1.37253e-12 -0.864801 0 -5.25089e-17 2.27078e-29 0)
(1.56425 -2.50971e-13 0 2.24528e-12 -2.51016 0 1.95303e-17 -1.74056e-29 0)
(0.0904377 -0.281506 0 0.304027 -0.21042 0 3.00243e-16 1.25787e-17 0)
(0.326128 0.00109883 0 0.220103 -0.282515 0 -2.1502e-16 -1.41967e-17 0)
(0.342937 -0.102569 0 -0.105487 -0.278329 0 0 0 0)
(0.438314 -0.465435 0 -0.78673 -0.511189 0 1.54966e-16 3.16735e-17 0)
(1.04312 -0.341944 0 -2.99208 -1.11005 0 -9.76515e-18 -9.44971e-18 0)
(-0.0597241 -0.312956 0 0.255322 -0.661669 0 -3.00243e-16 -1.25787e-17 0)
(0.259527 -0.0109949 6.96682e-19 0.180535 -0.301835 -6.27014e-18 5.43712e-18 -9.09027e-18 -1.88836e-34)
(0.110945 -0.102763 0 -0.0467498 -0.153635 0 0 0 0)
(-0.368785 -0.431794 1.63457e-18 -0.531423 0.409681 -1.47111e-17 1.60047e-17 -1.23383e-17 4.4305e-34)
(-1.16218 -0.405779 -5.06237e-18 -2.07646 1.65785 4.55613e-17 -1.91709e-16 -2.1301e-17 1.37216e-33)
(0.336714 -0.80879 0 9.82728 0.109202 0 0 0 0)
(0.958451 -0.834016 0 4.94606 0.654213 0 0 0 0)
(-0.589764 0.242746 0 2.31506 0.794174 0 0 0 0)
(-0.443174 0.476623 0 0.600128 0.537182 0 0 0 0)
(-0.0874688 0.217647 0 0.159576 0.217551 0 0 0 0)
(0.156148 0.071263 0 -0.000428279 0.100542 0 0 0 0)
(0.293857 0.0283717 0 -0.00278448 0.0464979 0 0 0 0)
(0.347435 0.00464642 0 0.00107758 0.0289638 0 0 0 0)
(0.369349 0.00357302 0 0.00539935 0.0176848 0 0 0 0)
(0.353243 0.00317171 0 0.00496115 0.0104273 0 0 0 0)
(0.294466 0.0025048 0 0.00345272 0.00537898 0 0 0 0)
(0.190894 0.00150616 0 0.00185942 0.00204726 0 0 0 0)
(0.0805327 0.000617517 0 0.000588044 0.000439189 0 0 0 0)
(0.0174558 0.0001384 0 6.95458e-05 3.56897e-05 0 0 0 0)
(0.00138137 1.16749e-05 0 1.9088e-06 7.01745e-07 0 0 0 0)
(2.63871e-05 2.36937e-07 0 8.09665e-09 2.23555e-09 0 0 0 0)
(8.22211e-08 7.72992e-10 0 3.71204e-12 4.43894e-13 0 0 0 0)
(2.99717e-11 2.59494e-13 0 8.89533e-17 1.59565e-15 0 0 0 0)
(2.27247e-15 1.89589e-16 0 -1.32224e-15 6.26836e-15 0 0 0 0)
(4.60873e-16 -4.45451e-16 0 1.4866e-16 4.51275e-15 0 0 0 0)
(-1.04901e-16 -1.33384e-16 0 4.39756e-16 2.4185e-15 0 0 0 0)
(2.38805e-15 4.29512e-16 0 3.60155e-16 5.45942e-15 0 0 0 0)
(4.0846e-11 6.32087e-14 0 1.54956e-15 2.45657e-15 0 0 0 0)
(1.06375e-07 -1.10253e-13 0 1.48392e-13 2.62463e-13 0 0 0 0)
(3.25056e-05 -1.52246e-14 0 -5.68e-13 4.06413e-13 0 0 0 0)
(0.00163097 -3.40949e-13 0 3.27555e-13 3.08677e-13 0 0 0 0)
(0.0199352 6.48773e-13 0 -3.09506e-13 -1.29076e-12 0 0 0 0)
(0.0899078 3.76554e-13 0 9.29796e-13 8.89314e-13 0 0 0 0)
(0.210438 -9.05829e-13 0 -2.55773e-13 -8.65715e-13 0 0 0 0)
(0.324254 3.16298e-13 0 1.30597e-13 2.82112e-13 0 0 0 0)
(0.395167 -1.05121e-14 0 -2.26697e-13 -2.82991e-13 0 0 0 0)
(0.431546 2.9086e-13 0 -4.43537e-14 -7.05847e-14 0 0 0 0)
(0.448364 -5.88503e-14 0 -9.265e-14 -6.50548e-13 0 0 0 0)
(0.451569 -3.77301e-13 0 8.27936e-14 -1.24966e-13 0 0 0 0)
(0.441614 3.39704e-13 0 2.1684e-14 1.66122e-14 0 0 0 0)
(0.41449 -3.87378e-15 0 1.77415e-14 -2.25095e-13 0 0 0 0)
(0.355562 -5.11919e-15 0 -2.95692e-14 7.04227e-14 0 0 0 0)
(0.453638 2.78845e-14 0 -1.59673e-13 -2.83651e-13 0 0 0 0)
(2.54839 -4.07216e-14 0 -7.88511e-15 -5.07529e-13 0 0 0 0)
(2.25246 -1.64866e-13 0 3.43002e-13 -1.86406e-13 0 0 0 0)
(1.01638 -0.701204 0 8.0087 -0.951044 0 0 0 0)
(-0.405592 -0.729599 0 4.2705 1.70318 0 0 0 0)
(-1.42015 0.209532 0 2.117 1.91589 0 0 0 0)
(-0.855346 0.334947 0 0.490627 0.868744 0 0 0 0)
(-0.190941 0.127935 0 0.0901844 0.277495 0 0 0 0)
(0.13456 0.0383539 0 -0.0117904 0.120583 0 0 0 0)
(0.295486 0.0149371 0 -0.0118741 0.0325288 0 0 0 0)
(0.350353 0.00198431 0 -0.00299316 0.0230553 0 0 0 0)
(0.370616 0.00146455 0 0.00270239 0.0165567 0 0 0 0)
(0.353024 0.00151837 0 0.00279354 0.0107731 0 0 0 0)
(0.294023 0.00127726 0 0.00176759 0.00565398 0 0 0 0)
(0.19056 0.000761806 0 0.000851042 0.00216285 0 0 0 0)
(0.0803589 0.000304843 0 0.000256088 0.000476565 0 0 0 0)
(0.0174027 6.69048e-05 0 3.03977e-05 4.01352e-05 0 0 0 0)
(0.00137503 5.59683e-06 0 8.48947e-07 8.14472e-07 0 0 0 0)
(2.62083e-05 1.13773e-07 0 3.65224e-09 2.65702e-09 0 0 0 0)
(8.14444e-08 3.71526e-10 0 1.82467e-12 7.3921e-13 0 0 0 0)
(2.95961e-11 1.99924e-13 0 1.40841e-15 2.0849e-15 0 0 0 0)
(2.01216e-15 7.97785e-16 0 1.82426e-16 2.14546e-15 0 0 0 0)
(7.89901e-16 -1.00331e-15 0 -1.17182e-15 4.3313e-15 0 0 0 0)
(2.2892e-17 5.67929e-16 0 1.32146e-16 2.34444e-15 0 0 0 0)
(2.63472e-15 8.33018e-16 0 1.22718e-15 8.55301e-15 0 0 0 0)
(4.08824e-11 1.10526e-13 0 7.18659e-17 4.00256e-15 0 0 0 0)
(1.06375e-07 -3.98238e-14 0 2.6085e-13 1.27124e-13 0 0 0 0)
(3.25056e-05 -2.40703e-14 0 -5.6335e-13 4.53826e-13 0 0 0 0)
(0.00163097 -5.60723e-13 0 2.77855e-13 1.98991e-13 0 0 0 0)
(0.0199352 6.86303e-13 0 -6.54167e-13 -5.68644e-13 0 0 0 0)
(0.0899078 4.1809e-13 0 1.02468e-12 6.64715e-13 0 0 0 0)
(0.210438 -9.35544e-13 0 -2.22508e-13 -7.84278e-13 0 0 0 0)
(0.324254 3.36218e-13 0 2.0452e-14 2.74131e-13 0 0 0 0)
(0.395167 -7.41865e-14 0 -3.22304e-13 -6.54505e-13 0 0 0 0)
(0.431546 2.66048e-13 0 -1.37989e-14 -1.81649e-14 0 0 0 0)
(0.448364 -3.2523e-14 0 3.15404e-14 -5.642e-13 0 0 0 0)
(0.451569 -2.73222e-13 0 6.40665e-14 7.72793e-14 0 0 0 0)
(0.441614 2.92356e-13 0 -4.13968e-14 -3.42088e-13 0 0 0 0)
(0.41449 -2.20297e-14 0 -1.37989e-14 -6.46507e-14 0 0 0 0)
(0.355562 -8.69241e-15 0 -2.1684e-14 -1.29092e-13 0 0 0 0)
(0.453638 -1.42192e-13 0 -9.85638e-14 -2.65486e-13 0 0 0 0)
(2.54839 -9.3815e-14 0 -1.34047e-13 -7.68302e-13 0 0 0 0)
(2.25246 -6.21017e-14 0 1.18277e-13 -5.34758e-13 0 0 0 0)
(1.07863 -2.97802e-13 0 1.72092e-12 -2.41977 0 0 0 0)
(-0.755498 -1.1468e-13 0 6.22923e-13 2.44376 0 0 0 0)
(-1.68936 9.08121e-14 0 3.5483e-14 2.59623 0 0 0 0)
(-1.03279 9.71724e-14 0 -3.90313e-13 1.00323 0 0 0 0)
(-0.233627 6.49045e-14 0 1.92199e-13 0.293462 0 0 0 0)
(0.126458 1.36545e-14 0 -6.8009e-14 0.123677 0 0 0 0)
(0.296416 -8.37138e-14 0 -2.12898e-13 0.0297791 0 0 0 0)
(0.351675 -1.28468e-13 0 -1.37004e-13 0.0209842 0 0 0 0)
(0.371032 1.65871e-13 0 5.66742e-14 0.016137 0 0 0 0)
(0.352971 1.89626e-13 0 9.46213e-14 0.0109155 0 0 0 0)
(0.293901 -2.02554e-13 0 -2.27682e-13 0.00569817 0 0 0 0)
(0.190454 -1.34296e-13 0 -2.1105e-13 0.00213427 0 0 0 0)
(0.0802939 9.065e-14 0 1.43549e-13 0.000460753 0 0 0 0)
(0.0173815 1.79553e-13 0 5.77099e-14 3.84808e-05 0 0 0 0)
(0.00137253 -6.5621e-14 0 -1.74802e-13 7.82192e-07 0 0 0 0)
(2.61401e-05 -1.68585e-13 0 1.05172e-13 2.55367e-09 0 0 0 0)
(8.11587e-08 4.23145e-14 0 1.39936e-13 1.17854e-12 0 0 0 0)
(2.94409e-11 4.50753e-14 0 5.3899e-16 3.86414e-16 0 0 0 0)
(1.52186e-15 8.43085e-16 0 1.90434e-15 -3.56712e-15 0 0 0 0)
(4.46246e-16 -3.87567e-16 0 -9.62074e-16 -1.05543e-15 0 0 0 0)
(5.92992e-16 1.09475e-15 0 3.53995e-17 -3.2874e-16 0 0 0 0)
(2.37051e-15 9.11874e-16 0 1.08385e-15 -2.30695e-15 0 0 0 0)
(4.09215e-11 9.77022e-14 0 1.44249e-15 -3.96507e-15 0 0 0 0)
(1.06375e-07 2.06048e-14 0 2.34958e-13 -2.8421e-13 0 0 0 0)
(3.25056e-05 5.68191e-15 0 -2.18984e-13 2.17926e-13 0 0 0 0)
(0.00163097 -6.38394e-13 0 1.15691e-13 1.30289e-13 0 0 0 0)
(0.0199352 7.84257e-13 0 -8.43298e-13 6.0325e-14 0 0 0 0)
(0.0899078 3.13825e-13 0 7.38351e-13 6.1724e-14 0 0 0 0)
(0.210438 -1.01945e-12 0 -3.44234e-13 -6.32829e-13 0 0 0 0)
(0.324254 3.5405e-13 0 9.93031e-14 3.78924e-13 0 0 0 0)
(0.395167 -9.55436e-14 0 -2.33103e-13 -8.40535e-13 0 0 0 0)
(0.431546 3.17131e-13 0 -1.13348e-14 -8.61912e-14 0 0 0 0)
(0.448364 -3.10847e-14 0 -5.51957e-14 -4.8351e-13 0 0 0 0)
(0.451569 -3.12687e-13 0 -2.95692e-15 -1.1041e-14 0 0 0 0)
(0.441614 2.98415e-13 0 2.75979e-14 -4.64041e-13 0 0 0 0)
(0.41449 5.80886e-14 0 3.15404e-14 1.45578e-13 0 0 0 0)
(0.355562 -6.3544e-14 0 -5.51957e-14 -4.12149e-14 0 0 0 0)
(0.453638 -1.58068e-13 0 -7.49085e-14 -2.42792e-13 0 0 0 0)
(2.54839 -1.19055e-13 0 -5.51957e-14 -1.86999e-13 0 0 0 0)
(2.25246 -9.69256e-14 0 -4.10026e-13 -5.05616e-14 0 0 0 0)
(1.01638 0.701204 0 -8.0087 -0.951044 0 0 0 0)
(-0.405592 0.729599 0 -4.2705 1.70318 0 0 0 0)
(-1.42015 -0.209532 0 -2.117 1.91589 0 0 0 0)
(-0.855346 -0.334947 0 -0.490627 0.868744 0 0 0 0)
(-0.190941 -0.127935 0 -0.0901844 0.277495 0 0 0 0)
(0.13456 -0.0383539 0 0.0117904 0.120583 0 0 0 0)
(0.295486 -0.0149371 0 0.0118741 0.0325288 0 0 0 0)
(0.350353 -0.00198431 0 0.00299316 0.0230553 0 0 0 0)
(0.370616 -0.00146455 0 -0.00270239 0.0165567 0 0 0 0)
(0.353024 -0.00151837 0 -0.00279354 0.0107731 0 0 0 0)
(0.294023 -0.00127726 0 -0.00176759 0.00565398 0 0 0 0)
(0.19056 -0.000761806 0 -0.000851042 0.00216285 0 0 0 0)
(0.0803589 -0.000304843 0 -0.000256088 0.000476565 0 0 0 0)
(0.0174027 -6.69048e-05 0 -3.03977e-05 4.01352e-05 0 0 0 0)
(0.00137503 -5.59683e-06 0 -8.48948e-07 8.14472e-07 0 0 0 0)
(2.62083e-05 -1.13773e-07 0 -3.65185e-09 2.65648e-09 0 0 0 0)
(8.14444e-08 -3.71359e-10 0 -1.75115e-12 1.28486e-12 0 0 0 0)
(2.9556e-11 -1.43962e-13 0 -2.92583e-17 -7.29573e-16 0 0 0 0)
(1.57549e-15 3.7834e-16 0 6.43309e-16 -5.68086e-15 0 0 0 0)
(2.4621e-16 -6.1239e-17 0 6.10576e-16 -4.59948e-15 0 0 0 0)
(6.1807e-16 2.0385e-16 0 -5.19439e-16 -3.39698e-15 0 0 0 0)
(3.04406e-15 -2.24823e-16 0 -1.07645e-15 -8.53571e-15 0 0 0 0)
(4.09504e-11 2.85181e-14 0 -4.76467e-16 -1.18289e-14 0 0 0 0)
(1.06375e-07 2.47263e-14 0 7.34658e-14 -5.63564e-13 0 0 0 0)
(3.25056e-05 9.65113e-14 0 -2.18017e-15 1.16703e-14 0 0 0 0)
(0.00163097 -6.06571e-13 0 9.68043e-14 -1.27345e-14 0 0 0 0)
(0.0199352 6.66357e-13 0 -9.51717e-13 3.99426e-13 0 0 0 0)
(0.0899078 2.16445e-13 0 6.92026e-13 -1.16971e-12 0 0 0 0)
(0.210438 -8.43268e-13 0 -3.60251e-13 -2.99003e-13 0 0 0 0)
(0.324254 2.75795e-13 0 3.71832e-13 5.68598e-13 0 0 0 0)
(0.395167 -2.09493e-13 0 -1.22712e-13 -9.66055e-13 0 0 0 0)
(0.431546 3.69909e-13 0 -4.58322e-14 -8.96867e-14 0 0 0 0)
(0.448364 -1.06612e-14 0 -1.03492e-13 -8.10915e-13 0 0 0 0)
(0.451569 -2.67558e-13 0 -4.23824e-14 1.78236e-13 0 0 0 0)
(0.441614 3.37918e-13 0 5.12532e-14 -1.12172e-13 0 0 0 0)
(0.41449 1.00974e-13 0 5.7167e-14 5.17375e-15 0 0 0 0)
(0.355562 -1.21673e-13 0 -2.56266e-14 -3.44159e-13 0 0 0 0)
(0.453638 -1.84602e-13 0 -2.75979e-14 -1.63981e-13 0 0 0 0)
(2.54839 -3.78934e-14 0 -5.7167e-14 -4.05275e-13 0 0 0 0)
(2.25246 -2.24109e-14 0 -4.21853e-13 2.14565e-13 0 0 0 0)
(0.336714 0.80879 0 -9.82728 0.109202 0 0 0 0)
(0.958451 0.834016 0 -4.94606 0.654213 0 0 0 0)
(-0.589764 -0.242746 0 -2.31506 0.794174 0 0 0 0)
(-0.443174 -0.476623 0 -0.600128 0.537182 0 0 0 0)
(-0.0874688 -0.217647 0 -0.159576 0.217551 0 0 0 0)
(0.156148 -0.071263 0 0.000428279 0.100542 0 0 0 0)
(0.293857 -0.0283717 0 0.00278448 0.0464979 0 0 0 0)
(0.347435 -0.00464642 0 -0.00107758 0.0289638 0 0 0 0)
(0.369349 -0.00357302 0 -0.00539935 0.0176848 0 0 0 0)
(0.353243 -0.00317171 0 -0.00496115 0.0104273 0 0 0 0)
(0.294466 -0.0025048 0 -0.00345272 0.00537898 0 0 0 0)
(0.190894 -0.00150616 0 -0.00185942 0.00204726 0 0 0 0)
(0.0805327 -0.000617517 0 -0.000588044 0.000439189 0 0 0 0)
(0.0174558 -0.0001384 0 -6.95458e-05 3.56897e-05 0 0 0 0)
(0.00138137 -1.16749e-05 0 -1.9088e-06 7.01744e-07 0 0 0 0)
(2.63871e-05 -2.36937e-07 0 -8.09619e-09 2.23553e-09 0 0 0 0)
(8.2221e-08 -7.72753e-10 0 -3.80161e-12 7.68634e-13 0 0 0 0)
(2.99505e-11 -3.30353e-13 0 -1.38638e-16 -3.22985e-18 0 0 0 0)
(1.708e-15 -2.82706e-16 0 -3.5175e-16 -2.35009e-15 0 0 0 0)
(1.07992e-16 2.76834e-16 0 5.64093e-16 -1.56851e-15 0 0 0 0)
(1.02219e-16 -5.03334e-17 0 -5.25643e-16 -1.41087e-15 0 0 0 0)
(2.38301e-15 -1.54104e-15 0 -1.36352e-15 -3.23086e-15 0 0 0 0)
(4.09432e-11 -6.37607e-14 0 -3.24272e-15 -4.99546e-15 0 0 0 0)
(1.06375e-07 2.74409e-14 0 -1.32929e-13 -3.13901e-13 0 0 0 0)
(3.25056e-05 1.65923e-13 0 1.88416e-13 -4.03986e-14 0 0 0 0)
(0.00163097 -5.25593e-13 0 6.3499e-14 -1.96068e-13 0 0 0 0)
(0.0199352 4.47682e-13 0 -6.89947e-13 7.97659e-13 0 0 0 0)
(0.0899078 1.10645e-13 0 5.49324e-13 -1.73351e-12 0 0 0 0)
(0.210438 -5.13764e-13 0 -2.98402e-13 1.68727e-13 0 0 0 0)
(0.324254 1.59998e-13 0 3.34131e-13 5.82165e-13 0 0 0 0)
(0.395167 -2.87045e-13 0 -5.66742e-14 -7.90721e-13 0 0 0 0)
(0.431546 3.62263e-13 0 -4.28753e-14 2.56194e-13 0 0 0 0)
(0.448364 4.68565e-14 0 0 -7.95956e-13 0 0 0 0)
(0.451569 -1.09416e-13 0 7.88511e-15 4.78234e-13 0 0 0 0)
(0.441614 2.48069e-13 0 5.91383e-15 1.11052e-13 0 0 0 0)
(0.41449 -9.3987e-15 0 -5.12532e-14 -1.0998e-13 0 0 0 0)
(0.355562 -1.12753e-13 0 -1.18277e-14 -3.12694e-13 0 0 0 0)
(0.453638 -1.75847e-13 0 1.12363e-13 -9.12587e-14 0 0 0 0)
(2.54839 -8.93291e-15 0 2.1684e-14 -6.22698e-14 0 0 0 0)
(2.25246 8.33915e-14 0 -1.61645e-13 1.9065e-13 0 0 0 0)
(2.41719 0.974465 0 -4.22692 -0.0623417 0 0 0 0)
(2.72944 1.03853 0 -2.3404 0.0798982 0 0 0 0)
(0.345794 -0.244539 0 -1.25081 0.132141 0 0 0 0)
(0.0201603 -0.532835 0 -0.466188 0.166393 0 0 0 0)
(0.0661327 -0.298097 0 -0.18789 0.126109 0 0 0 0)
(0.211443 -0.1076 0 -0.0492117 0.0738253 0 0 0 0)
(0.296424 -0.0443025 0 -0.0288181 0.0549016 0 0 0 0)
(0.348594 -0.0169799 0 -0.0149796 0.0309321 0 0 0 0)
(0.369646 -0.010654 0 -0.0104994 0.0167551 0 0 0 0)
(0.353992 -0.00732583 0 -0.00783827 0.00865613 0 0 0 0)
(0.295457 -0.00511451 0 -0.00547649 0.00394588 0 0 0 0)
(0.191971 -0.00299974 0 -0.00298843 0.00133882 0 0 0 0)
(0.0812807 -0.00120511 0 -0.000931594 0.000256963 0 0 0 0)
(0.017709 -0.000259289 0 -0.000107203 1.90565e-05 0 0 0 0)
(0.00141132 -2.09548e-05 0 -2.87249e-06 3.49208e-07 0 0 0 0)
(2.71989e-05 -4.11549e-07 0 -1.19461e-08 1.02961e-09 0 0 0 0)
(8.56249e-08 -1.30953e-09 0 -5.39948e-12 2.13296e-13 0 0 0 0)
(3.14842e-11 -4.12064e-13 0 -4.34417e-16 3.56655e-17 0 0 0 0)
(1.86309e-15 1.60814e-16 0 -3.62868e-16 6.568e-16 0 0 0 0)
(2.96947e-16 1.37008e-16 0 -2.28951e-17 1.52063e-15 0 0 0 0)
(5.38467e-18 -5.44994e-16 0 1.17265e-16 4.02616e-16 0 0 0 0)
(2.10404e-15 -9.5146e-16 0 -1.63066e-16 2.79491e-16 0 0 0 0)
(4.08762e-11 -5.96596e-14 0 -5.60083e-16 1.36119e-15 0 0 0 0)
(1.06375e-07 -6.19956e-16 0 -1.32811e-13 6.25566e-14 0 0 0 0)
(3.25056e-05 9.01671e-14 0 1.29088e-13 -6.52073e-14 0 0 0 0)
(0.00163097 -1.74511e-13 0 2.33766e-14 -2.14325e-13 0 0 0 0)
(0.0199352 -4.51975e-14 0 -2.20155e-13 8.97882e-13 0 0 0 0)
(0.0899078 -5.57362e-14 0 1.96779e-13 -1.52102e-12 0 0 0 0)
(0.210438 2.28305e-13 0 -1.59153e-13 2.57133e-13 0 0 0 0)
(0.324254 -1.92152e-13 0 1.73398e-13 4.98246e-13 0 0 0 0)
(0.395167 -3.24296e-13 0 -1.05631e-14 -6.40757e-13 0 0 0 0)
(0.431546 3.75467e-13 0 -6.99245e-14 2.68775e-13 0 0 0 0)
(0.448364 6.21138e-14 0 -1.16045e-13 -5.50852e-13 0 0 0 0)
(0.451569 1.18531e-13 0 -9.52164e-15 3.7305e-13 0 0 0 0)
(0.441614 7.28338e-14 0 6.18906e-14 -9.27104e-14 0 0 0 0)
(0.41449 -3.72107e-14 0 -6.66515e-14 -1.17238e-13 0 0 0 0)
(0.355562 -1.20243e-13 0 -6.07004e-14 1.57985e-13 0 0 0 0)
(0.453638 -3.76403e-14 0 1.84482e-14 -3.88596e-14 0 0 0 0)
(2.54839 1.05455e-13 0 -1.36874e-14 2.45724e-13 0 0 0 0)
(2.25246 1.39047e-14 0 -8.33143e-15 2.41349e-13 0 0 0 0)
(2.39306 0.800712 0 -0.612098 0.307646 0 0 0 0)
(2.87668 0.911759 0 -0.726195 -0.282093 0 0 0 0)
(0.714624 -0.158434 0 -0.577874 -0.200206 0 0 0 0)
(0.332638 -0.452293 0 -0.350575 -0.0793983 0 0 0 0)
(0.231979 -0.263708 0 -0.17884 0.0331721 0 0 0 0)
(0.279783 -0.120396 0 -0.097343 0.0444169 0 0 0 0)
(0.325468 -0.0611625 0 -0.0557325 0.0386122 0 0 0 0)
(0.364466 -0.0347922 0 -0.0300163 0.0221659 0 0 0 0)
(0.37607 -0.0212419 0 -0.0182251 0.0116282 0 0 0 0)
(0.357681 -0.0132875 0 -0.0120437 0.00522064 0 0 0 0)
(0.298608 -0.00815662 0 -0.00762062 0.00186243 0 0 0 0)
(0.194696 -0.00426003 0 -0.00380904 0.000456827 0 0 0 0)
(0.082908 -0.0015742 0 -0.00111088 6.00667e-05 0 0 0 0)
(0.0182149 -0.000320858 0 -0.000122666 2.77303e-06 0 0 0 0)
(0.00146861 -2.50613e-05 0 -3.20375e-06 8.91624e-09 0 0 0 0)
(2.87198e-05 -4.79814e-07 0 -1.29147e-08 -1.88777e-10 0 0 0 0)
(9.19074e-08 -1.47708e-09 0 -6.17435e-12 3.86188e-13 0 0 0 0)
(3.43309e-11 -4.91444e-13 0 -1.00986e-14 1.22244e-13 0 0 0 0)
(2.02139e-15 9.10434e-16 0 -4.06852e-16 1.12542e-13 0 0 0 0)
(4.69342e-16 1.06871e-16 0 -9.48964e-17 1.12558e-13 0 0 0 0)
(1.90716e-17 -9.8109e-16 0 7.29736e-17 1.12288e-13 0 0 0 0)
(1.87989e-15 -9.33479e-16 0 1.14914e-16 1.12555e-13 0 0 0 0)
(4.08514e-11 -5.94732e-15 0 9.5086e-15 1.23244e-13 0 0 0 0)
(1.06375e-07 -2.16597e-14 0 -2.40458e-14 1.91552e-13 0 0 0 0)
(3.25056e-05 -6.02665e-14 0 1.08141e-13 2.67476e-13 0 0 0 0)
(0.00163097 2.14213e-13 0 -1.81233e-13 -2.68065e-16 0 0 0 0)
(0.0199352 -5.47196e-13 0 4.36681e-13 9.06801e-13 0 0 0 0)
(0.0899078 -4.17584e-13 0 -5.87292e-13 -4.51691e-13 0 0 0 0)
(0.210438 1.03415e-12 0 1.95305e-13 3.69864e-13 0 0 0 0)
(0.324254 -5.16407e-13 0 -1.20806e-13 5.65874e-13 0 0 0 0)
(0.395167 -4.88196e-13 0 -7.88511e-15 -4.49137e-13 0 0 0 0)
(0.431546 4.41818e-13 0 -7.84047e-14 1.06402e-13 0 0 0 0)
(0.448364 1.39158e-13 0 -7.61731e-14 -2.19281e-13 0 0 0 0)
(0.451569 2.09833e-13 0 8.86703e-14 2.89377e-13 0 0 0 0)
(0.441614 -1.30423e-13 0 1.29137e-13 -2.1639e-13 0 0 0 0)
(0.41449 2.47094e-13 0 6.9627e-14 -1.67011e-13 0 0 0 0)
(0.355562 -3.32075e-14 0 6.01053e-14 3.65675e-13 0 0 0 0)
(0.453638 -1.6541e-13 0 3.45159e-14 2.12958e-13 0 0 0 0)
(2.54839 1.99748e-13 0 2.0055e-13 -8.82475e-16 0 0 0 0)
(2.25246 1.16437e-13 0 2.26139e-14 1.79828e-13 0 0 0 0)
(2.30725 0.406172 0 -0.0376473 0.340987 0 0 0 0)
(2.76242 0.549147 0 -0.151379 -0.290086 0 0 0 0)
(0.707756 -0.0492153 0 -0.227161 -0.283897 0 0 0 0)
(0.404684 -0.307943 0 -0.232382 -0.140956 0 0 0 0)
(0.310156 -0.178784 0 -0.157853 -0.0233035 0 0 0 0)
(0.330074 -0.102357 0 -0.108138 0.00723746 0 0 0 0)
(0.361302 -0.0657444 0 -0.0647033 0.00974366 0 0 0 0)
(0.384738 -0.0429827 0 -0.0387405 0.00633341 0 0 0 0)
(0.386965 -0.0269831 0 -0.023828 0.00309299 0 0 0 0)
(0.364211 -0.0167365 0 -0.0149648 0.000801219 0 0 0 0)
(0.303392 -0.00970509 0 -0.00879046 -0.000150691 0 0 0 0)
(0.198244 -0.00473657 0 -0.00407695 -0.000234703 0 0 0 0)
(0.084833 -0.00164266 0 -0.00110935 -8.10778e-05 0 0 0 0)
(0.0187764 -0.000317163 0 -0.00011648 -1.01478e-05 0 0 0 0)
(0.00152951 -2.36272e-05 0 -2.90402e-06 -2.15174e-07 0 0 0 0)
(3.02862e-05 -4.20141e-07 0 -1.19958e-08 1.04643e-09 0 0 0 0)
(9.807e-08 -1.1275e-09 0 -5.55246e-12 1.3139e-09 0 0 0 0)
(3.74336e-11 -6.7576e-13 0 -1.55545e-13 1.31413e-09 0 0 0 0)
(1.1503e-14 -9.17271e-15 0 -2.52619e-14 1.31395e-09 0 0 0 0)
(7.59325e-16 -1.07884e-16 0 2.64734e-14 1.31396e-09 0 0 0 0)
(2.07565e-16 -5.48539e-16 0 9.13293e-15 1.31402e-09 0 0 0 0)
(1.11966e-14 9.60653e-15 0 -2.45842e-15 1.31398e-09 0 0 0 0)
(4.08529e-11 1.64648e-14 0 1.35508e-13 1.31413e-09 0 0 0 0)
(1.06375e-07 1.38367e-13 0 -1.31566e-13 1.314e-09 0 0 0 0)
(3.25056e-05 -9.46772e-14 0 1.28311e-13 1.31401e-09 0 0 0 0)
(0.00163097 4.41565e-13 0 1.29368e-12 1.31574e-09 0 0 0 0)
(0.0199352 -4.80205e-13 0 -8.53572e-13 1.31357e-09 0 0 0 0)
(0.0899078 -5.73148e-13 0 -3.14403e-12 1.30738e-09 0 0 0 0)
(0.210438 1.20887e-12 0 -1.06744e-11 1.26844e-09 0 0 0 0)
(0.324254 -9.8137e-13 0 -2.37161e-11 1.16946e-09 0 0 0 0)
(0.395167 -7.6706e-13 0 -3.49861e-11 9.97749e-10 0 0 0 0)
(0.431546 5.96965e-13 0 -3.96316e-11 7.81074e-10 0 0 0 0)
(0.448364 2.38435e-13 0 -3.71624e-11 5.56695e-10 0 0 0 0)
(0.451569 1.21316e-13 0 -2.93549e-11 3.63171e-10 0 0 0 0)
(0.441614 -3.66958e-13 0 -2.01668e-11 2.17548e-10 0 0 0 0)
(0.41449 5.23689e-13 0 -1.2437e-11 1.23842e-10 0 0 0 0)
(0.355562 2.45909e-13 0 -7.8732e-12 6.51564e-11 0 0 0 0)
(0.453638 -3.90869e-13 0 -3.76581e-12 3.18248e-11 0 0 0 0)
(2.54839 7.35298e-14 0 -2.55239e-12 6.70282e-12 0 0 0 0)
(2.25246 1.88044e-13 0 5.95102e-15 4.30809e-13 0 0 0 0)
(2.28346 0.192586 0 0.0108241 0.187947 0 0 0 0)
(2.69406 0.309598 0 -0.0159893 -0.166503 0 0 0 0)
(0.636566 -0.0147268 0 -0.0999333 -0.226962 0 0 0 0)
(0.399426 -0.201176 0 -0.161324 -0.123097 0 0 0 0)
(0.351705 -0.120903 0 -0.130816 -0.0486617 0 0 0 0)
(0.369546 -0.0885508 0 -0.094363 -0.0247064 0 0 0 0)
(0.392341 -0.0620337 0 -0.0608519 -0.0148815 0 0 0 0)
(0.403855 -0.041201 0 -0.0392528 -0.00846542 0 0 0 0)
(0.398982 -0.0265729 0 -0.024978 -0.00529087 0 0 0 0)
(0.372171 -0.0164133 0 -0.01541 -0.00334061 0 0 0 0)
(0.3091 -0.00915487 0 -0.00854839 -0.00194914 0 0 0 0)
(0.202097 -0.00419294 0 -0.00363537 -0.000840076 0 0 0 0)
(0.0867245 -0.00135781 0 -0.000889392 -0.000190071 0 0 0 0)
(0.0192811 -0.000242936 0 -8.67087e-05 -1.01448e-05 0 0 0 0)
(0.00158084 -1.52815e-05 0 -2.1233e-06 1.20892e-06 0 0 0 0)
(3.15182e-05 -2.71198e-07 0 -8.62978e-09 1.37498e-06 0 0 0 0)
(1.03467e-07 -1.21912e-09 0 -3.60037e-12 1.37546e-06 0 0 0 0)
(3.96571e-11 -4.34875e-13 0 2.0353e-14 1.37546e-06 0 0 0 0)
(1.77421e-13 -1.7051e-13 0 -3.89497e-14 1.37546e-06 0 0 0 0)
(3.36135e-14 6.29281e-14 0 5.73328e-14 1.37546e-06 0 0 0 0)
(-2.78607e-14 1.78022e-14 0 4.88086e-14 1.37546e-06 0 0 0 0)
(1.2366e-13 1.02906e-13 0 -7.74257e-14 1.37546e-06 0 0 0 0)
(4.07269e-11 1.56891e-14 0 -3.56976e-14 1.37546e-06 0 0 0 0)
(1.06375e-07 -1.33405e-13 0 3.18704e-13 1.37546e-06 0 0 0 0)
(3.25056e-05 1.61804e-12 0 -8.93191e-14 1.37546e-06 0 0 0 0)
(0.00163097 -2.13412e-13 0 -4.4013e-12 1.37545e-06 0 0 0 0)
(0.0199352 -8.60043e-12 0 -2.56462e-10 1.37503e-06 0 0 0 0)
(0.0899078 -4.39032e-11 0 -2.7274e-09 1.36906e-06 0 0 0 0)
(0.210438 -1.31872e-10 0 -1.11478e-08 1.33857e-06 0 0 0 0)
(0.324254 -2.61366e-10 0 -2.46544e-08 1.25829e-06 0 0 0 0)
(0.395167 -3.74751e-10 0 -3.75912e-08 1.11832e-06 0 0 0 0)
(0.431546 -4.24573e-10 0 -4.52795e-08 9.31583e-07 0 0 0 0)
(0.448364 -4.02567e-10 0 -4.60591e-08 7.24994e-07 0 0 0 0)
(0.451569 -3.26605e-10 0 -4.08423e-08 5.27741e-07 0 0 0 0)
(0.441614 -2.30757e-10 0 -3.19214e-08 3.61155e-07 0 0 0 0)
(0.41449 -1.46603e-10 0 -2.31085e-08 2.37969e-07 0 0 0 0)
(0.355562 -8.87046e-11 0 -1.72609e-08 1.46276e-07 0 0 0 0)
(0.453638 -5.64934e-11 0 -9.39247e-09 8.59712e-08 0 0 0 0)
(2.54839 -3.00526e-11 0 -9.34529e-09 2.27735e-08 0 0 0 0)
(2.25246 -5.9275e-12 0 1.02203e-11 1.71116e-09 0 0 0 0)
(2.28141 0.0646102 0 0.0140613 0.0713067 0 0 0 0)
(2.65569 0.149325 0 0.0145582 -0.114528 0 0 0 0)
(0.567706 -0.00738714 0 -0.0523467 -0.176953 0 0 0 0)
(0.374925 -0.136126 0 -0.112707 -0.108374 0 0 0 0)
(0.374682 -0.0839718 0 -0.0987568 -0.0664366 0 0 0 0)
(0.397494 -0.0698054 0 -0.0726214 -0.0425156 0 0 0 0)
(0.414409 -0.050094 0 -0.0501797 -0.0262739 0 0 0 0)
(0.419307 -0.0337408 0 -0.0336955 -0.0160147 0 0 0 0)
(0.409941 -0.0220446 0 -0.0215867 -0.00969023 0 0 0 0)
(0.380043 -0.0135163 0 -0.0127601 -0.00536547 0 0 0 0)
(0.314739 -0.00729549 0 -0.00664823 -0.00227677 0 0 0 0)
(0.205624 -0.00304147 0 -0.00261223 -0.00055302 0 0 0 0)
(0.0882526 -0.000842905 0 -0.000604623 5.65406e-05 0 0 0 0)
(0.0196314 -0.000132839 0 -5.16652e-05 0.000182822 0 0 0 0)
(0.00161306 -1.25263e-05 0 -1.15218e-06 0.000192681 0 0 0 0)
(3.23322e-05 -2.59659e-07 0 -3.90983e-09 0.000192896 0 0 0 0)
(1.06386e-07 -6.69053e-10 0 -1.91562e-12 0.000192898 0 0 0 0)
(4.08655e-11 1.4954e-13 0 1.66508e-13 0.000192898 0 0 0 0)
(4.71381e-14 4.90357e-14 0 -6.17629e-14 0.000192898 0 0 0 0)
(8.53264e-14 4.0675e-14 0 -1.93068e-13 0.000192898 0 0 0 0)
(-1.29651e-13 7.18853e-14 0 -2.28463e-13 0.000192898 0 0 0 0)
(-7.02368e-14 -2.43655e-13 0 -3.67789e-13 0.000192898 0 0 0 0)
(4.12346e-11 2.20987e-13 0 -2.17743e-13 0.000192898 0 0 0 0)
(1.06375e-07 2.93888e-13 0 1.0166e-12 0.000192898 0 0 0 0)
(3.25056e-05 -6.78855e-12 0 -4.60555e-12 0.000192898 0 0 0 0)
(0.00163097 -4.1607e-10 0 -9.2081e-10 0.000192897 0 0 0 0)
(0.0199352 -6.15687e-09 0 -3.80224e-08 0.00019285 0 0 0 0)
(0.0899078 -3.51342e-08 0 -3.91359e-07 0.000192211 0 0 0 0)
(0.210438 -1.06747e-07 0 -1.55032e-06 0.000189042 0 0 0 0)
(0.324254 -2.12241e-07 0 -3.41231e-06 0.000180799 0 0 0 0)
(0.395167 -3.14826e-07 0 -5.32101e-06 0.000166268 0 0 0 0)
(0.431546 -3.79022e-07 0 -6.71954e-06 0.000146185 0 0 0 0)
(0.448364 -3.89157e-07 0 -7.33226e-06 0.000122605 0 0 0 0)
(0.451569 -3.50609e-07 0 -7.13227e-06 9.81733e-05 0 0 0 0)