/*--------------------------------*- C++ -*----------------------------------*\
| =========                 |                                                 |
| \\      /  F ield         | OpenFOAM: The Open Source CFD Toolbox           |
|  \\    /   O peration     | Version:  v1912                                 |
|   \\  /    A nd           | Website:  www.openfoam.com                      |
|    \\/     M anipulation  |                                                 |
\*---------------------------------------------------------------------------*/
FoamFile
{
    version     2.0;
    format      ascii;
    class       volScalarField;
    location    "1.4";
    object      p;
}
// * * * * * * * * * * * * * * * * * * * * * * * * * * * * * * * * * * * * * //

dimensions      [1 -1 -2 0 0 0 0];


internalField   nonuniform List<scalar> 
1900
(
10000
10001.8
10029.8
10153.2
10366.4
10561.1
10670.8
10733.7
10745.8
10749.6
10000
10001.8
10029.8
10153.1
10366.2
10560
10668.1
10723.3
10721.9
10717.4
10000
10001.8
10029.7
10153
10365.9
10558.4
10666.3
10721.7
10726.6
10721.6
10000
10001.8
10029.8
10153.1
10366.2
10560
10668.1
10723.3
10721.9
10717.4
10000
10001.8
10029.8
10153.2
10366.4
10561.1
10670.8
10733.7
10745.8
10749.6
10670.4
10704.9
10696.8
10623.5
9992.32
10709
10735.2
10716.4
10699.8
10402.3
10709.8
10723.4
10695.1
10649.6
10339.4
10709
10735.2
10716.4
10699.8
10402.3
10670.4
10704.9
10696.8
10623.5
9992.32
11532.4
11461.3
11650.3
11723.9
12022
11387.6
11435.9
11646.4
11804.7
11770.3
11382.8
11442.4
11637.9
11758.5
11466
11387.6
11435.9
11646.4
11804.7
11770.3
11532.4
11461.3
11650.3
11723.9
12022
10260.6
5693.82
6148.47
6235.82
6267.05
6558.08
6908.88
7417.67
8003.47
8624.61
9219.01
9687.2
9932.65
9994.67
9999.9
10000
10000
10000
10000
10000
10000
10000
10000
10000
10000
9999.87
9993.72
9923.33
9652.33
9144.16
8501.81
7822.37
7155.47
6525.4
5947.25
5434.8
4999.58
4651.6
4133.8
15459.6
10428.9
6028.1
6325.32
6266.5
6280.56
6566.67
6911.26
7418.56
8004.05
8625.52
9219.87
9687.73
9932.84
9994.69
9999.9
10000
10000
10000
10000
10000
10000
10000
10000
10000
10000
9999.87
9993.72
9923.33
9652.33
9144.16
8501.81
7822.37
7155.47
6525.4
5947.25
5434.8
4999.58
4651.6
4133.8
15459.6
9937.5
6515.57
6405.83
6284.84
6288.77
6568.58
6912.46
7418.91
8004.23
8625.78
9220.17
9687.94
9932.92
9994.7
9999.9
10000
10000
10000
10000
10000
10000
10000
10000
10000
10000
9999.87
9993.72
9923.33
9652.33
9144.16
8501.81
7822.37
7155.47
6525.4
5947.25
5434.8
4999.58
4651.6
4133.8
15459.6
10428.9
6028.1
6325.32
6266.5
6280.56
6566.67
6911.26
7418.56
8004.05
8625.52
9219.87
9687.73
9932.84
9994.69
9999.9
10000
10000
10000
10000
10000
10000
10000
10000
10000
10000
9999.87
9993.72
9923.33
9652.33
9144.16
8501.81
7822.37
7155.47
6525.4
5947.25
5434.8
4999.58
4651.6
4133.8
15459.6
10260.6
5693.82
6148.47
6235.82
6267.05
6558.08
6908.88
7417.67
8003.47
8624.61
9219.01
9687.2
9932.65
9994.67
9999.9
10000
10000
10000
10000
10000
10000
10000
10000
10000
10000
9999.87
9993.72
9923.33
9652.33
9144.16
8501.81
7822.37
7155.47
6525.4
5947.25
5434.8
4999.58
4651.6
4133.8
15459.6
12098.5
5117.96
5885.58
6096.15
6225.33
6510.92
6900.34
7412.51
7999.71
8620.69
9215.26
9684.64
9931.75
9994.56
9999.9
10000
10000
10000
10000
10000
10000
10000
10000
10000
10000
9999.87
9993.72
9923.33
9652.33
9144.16
8501.81
7822.37
7155.47
6525.4
5947.25
5434.8
4999.58
4651.6
4133.8
15459.6
13343.6
4573.04
5518.22
5836.5
6103.56
6425.51
6866.21
7392.9
7985.94
8608.79
9205.67
9678.94
9929.91
9994.35
9999.89
10000
10000
10000
10000
10000
10000
10000
10000
10000
10000
9999.87
9993.72
9923.33
9652.33
9144.16
8501.81
7822.37
7155.47
6525.4
5947.25
5434.8
4999.58
4651.6
4133.8
15459.6
14700.1
4445.54
5320.53
5662.3
5979.21
6349.25
6817.9
7360.5
7961.97
8590.35
9192.63
9671.98
9927.83
9994.12
9999.88
10000
10000
10000
10000
10000
10000
10000
10000
10000
10000
9999.87
9993.72
9923.33
9652.33
9144.16
8501.81
7822.37
7155.47
6525.4
5947.25
5434.8
4999.58
4651.6
4133.8
15459.6
15799.2
4386.61
5170.92
5518.88
5862.49
6271.13
6761.66
7320.58
7932.31
8568.73
9178.62
9665.17
9925.97
9993.93
9999.88
10000
10000
10000
10000
10000
10000
10000
10000
10000
10000
9999.87
9993.72
9923.33
9652.33
9144.16
8501.81
7822.37
7155.47
6525.4
5947.25
5434.8
4999.58
4651.6
4133.8
15459.6
16340.9
4355.9
5066.29
5398.27
5758.74
6193.12
6703.09
7277.46
7900.68
8546.91
9165.68
9659.37
9924.52
9993.79
9999.87
9999.99
9999.99
9999.99
9999.99
9999.99
9999.99
9999.99
9999.99
9999.99
9999.99
9999.87
9993.72
9923.33
9652.33
9144.16
8501.8
7822.37
7155.47
6525.4
5947.25
5434.8
4999.58
4651.6
4133.8
15459.6
16362.6
4328.59
4970.45
5279.71
5659.15
6114.93
6642.99
7232.31
7867.37
8524.54
9153.54
9654.65
9923.02
9993.01
9999.16
9999.28
9999.28
9999.28
9999.28
9999.28
9999.28
9999.28
9999.28
9999.28
9999.28
9999.16
9993.01
9922.63
9651.65
9143.55
8501.27
7821.93
7155.13
6525.15
5947.07
5434.68
4999.5
4651.54
4133.78
15459.6
16226.6
4303.81
4848.83
5159.6
5554.02
6025.53
6573.83
7181.88
7832.45
8498.91
9131.69
9635.03
9904.37
9974.48
9980.63
9980.75
9980.75
9980.75
9980.75
9980.75
9980.75
9980.75
9980.75
9980.75
9980.75
9980.63
9974.49
9904.28
9633.98
9127.2
8486.75
7809.5
7144.84
6516.9
5940.65
5429.77
4995.86
4648.77
4132.66
15458.4
15933.9
4227.63
4700.51
5032.65
5446.39
5933.89
6482.8
7084.8
7727.11
8386.13
9012.11
9509.15
9774.92
9844.02
9850.06
9850.18
9850.18
9850.18
9850.18
9850.18
9850.18
9850.18
9850.18
9850.18
9850.18
9850.06
9844.03
9774.98
9509.01
9010.45
8380.86
7715.75
7063.57
6447.77
5882.84
5381.94
4956.93
4616.11
4115.82
15425.6
15432.7
4098
4541.83
4856.71
5247.3
5713.85
6244.5
6826.57
7446.51
8081.82
8684.99
9163.02
9417.77
9483.69
9489.42
9489.53
9489.53
9489.53
9489.53
9489.53
9489.53
9489.53
9489.53
9489.53
9489.53
9489.42
9483.7
9417.85
9163.28
8685.31
8081.8
7444.91
6821.24
6233.08
5694.32
5217.12
4813.36
4487.87
4032.91
15178.9
14551.1
3862.24
4255.91
4557.19
4929.79
5373.59
5877.17
6428.57
7014
7612.39
8179.4
8627.35
8864.5
8925.22
8930.42
8930.52
8930.52
8930.52
8930.52
8930.52
8930.52
8930.52
8930.52
8930.52
8930.52
8930.42
8925.22
8864.53
8627.51
8179.88
7613.32
7015.18
6429.75
5878.19
5373.69
4927.52
4550.45
4245.24
3842.42
14450.3
13293.8
3566.77
3937.57
4220.48
4570.37
4984.66
5453.73
5967.26
6512.39
7068.91
7594.84
8008.01
8224.26
8278.6
8283.13
8283.21
8283.21
8283.21
8283.21
8283.21
8283.21
8283.21
8283.21
8283.21
8283.21
8283.13
8278.6
8224.27
8008.07
7595.1
7069.52
6513.48
5968.97
5456.08
4987.27
4572.83
4222.1
3938.41
3566.21
13274.8
11889.1
3250.64
3612.21
3874.72
4200.89
4584.94
5020.04
5495.31
5999.95
6514.45
6998.98
7376.37
7570.53
7617.96
7621.76
7621.83
7621.83
7621.83
7621.83
7621.83
7621.83
7621.83
7621.83
7621.83
7621.83
7621.76
7617.96
7570.53
7376.38
6999.06
6514.7
6000.5
5496.33
5021.55
4586.89
4203.23
3877.34
3614.93
3252.75
11887.9
10524.2
2937.29
3295.88
3539.66
3841.33
4197.85
4599.54
5039.01
5504.69
5978.97
6423.55
6765.88
6937.93
6978.4
6981.48
6981.53
6981.53
6981.53
6981.53
6981.53
6981.53
6981.53
6981.53
6981.53
6981.53
6981.48
6978.4
6937.93
6765.87
6423.56
5979.02
5504.85
5039.35
4600.07
4198.63
3842.4
3541.06
3297.42
2938.49
10525.5
9149.19
2644.88
2998.88
3226.52
3505.51
3832.49
4206.32
4611.08
5041.23
5477.78
5884.77
6193.63
6344.38
6378.2
6380.61
6380.65
6380.65
6380.65
6380.65
6380.65
6380.65
6380.65
6380.65
6380.65
6380.65
6380.61
6378.2
6344.38
6193.63
5884.76
5477.78
5041.24
4611.13
4206.42
3832.67
3505.8
3226.93
2999.31
2645.19
9149.74
8005.75
2384.54
2719
2941.73
3196.2
3500.96
3844.32
4221.32
4618.61
5021.36
5393.68
5671.2
5801.94
5829.67
5831.5
5831.52
5831.52
5831.52
5831.52
5831.52
5831.52
5831.52
5831.52
5831.52
5831.52
5831.5
5829.67
5801.94
5671.2
5393.68
5021.36
4618.6
4221.3
3844.3
3500.95
3196.21
2941.76
2719.04
2384.57
8005.87
6879.19
2173.3
2478.41
2695.38
2930.83
3206.72
3527.83
3876.02
4245.88
4618.36
4959.78
5208.97
5321.8
5344.28
5345.63
5345.65
5345.65
5345.65
5345.65
5345.65
5345.65
5345.65
5345.65
5345.65
5345.65
5345.63
5344.28
5321.8
5208.97
4959.78
4618.35
4245.87
3876.01
3527.81
3206.69
2930.8
2695.35
2478.38
2173.29
6879.2
6071.64
1993.07
2272.61
2480.13
2705.71
2963.24
3260.45
3585.69
3931.29
4279.19
4594.89
4819.5
4916.32
4934.21
4935.19
4935.2
4935.2
4935.2
4935.2
4935.2
4935.2
4935.2
4935.2
4935.2
4935.2
4935.19
4934.21
4916.32
4819.5
4594.89
4279.19
3931.29
3585.68
3260.44
2963.23
2705.7
2480.12
2272.6
1993.06
6071.63
5347.16
1844.19
2085.6
2278.9
2496.47
2750.31
3044.54
3355.3
3682.02
4009.09
4304.38
4511.01
4596.61
4611.38
4612.11
4612.12
4612.12
4612.12
4612.12
4612.12
4612.12
4612.12
4612.12
4612.12
4612.12
4612.11
4611.38
4596.61
4511.01
4304.38
4009.09
3682.02
3355.29
3044.54
2750.3
2496.47
2278.89
2085.59
1844.19
5347.16
4740.08
1619.82
1849.03
2002.3
2193.18
2416.16
2688.15
2993.92
3317.49
3629.01
3883.85
4035.75
4087.04
4094.12
4094.4
4094.4
4094.4
4094.4
4094.4
4094.4
4094.4
4094.4
4094.4
4094.4
4094.4
4094.4
4094.12
4087.04
4035.75
3883.85
3629.01
3317.49
2993.92
2688.15
2416.16
2193.18
2002.3
1849.03
1619.82
4740.08
22803.2
4833.68
5465.47
6248.46
7119.45
8339.03
9564.29
11025.1
12466.9
13871.4
14961.2
15520.5
15659.3
15671.2
15671.4
15671.4
15671.4
15671.4
15671.4
15671.4
15671.4
15671.4
15671.4
15671.4
15671.4
15671.4
15671.2
15659.3
15520.5
14961.2
13871.4
12466.9
11025.1
9564.29
8339.03
7119.45
6248.46
5465.47
4833.68
22803.2
22803.2
4833.68
5465.47
6248.46
7119.45
8339.03
9564.29
11025.1
12466.9
13871.4
14961.2
15520.5
15659.3
15671.2
15671.4
15671.4
15671.4
15671.4
15671.4
15671.4
15671.4
15671.4
15671.4
15671.4
15671.4
15671.4
15671.2
15659.3
15520.5
14961.2
13871.4
12466.9
11025.1
9564.29
8339.03
7119.45
6248.46
5465.47
4833.68
22803.2
4740.08
1619.82
1849.03
2002.3
2193.18
2416.16
2688.15
2993.92
3317.49
3629.01
3883.85
4035.75
4087.04
4094.12
4094.4
4094.4
4094.4
4094.4
4094.4
4094.4
4094.4
4094.4
4094.4
4094.4
4094.4
4094.4
4094.12
4087.04
4035.75
3883.85
3629.01
3317.49
2993.92
2688.15
2416.16
2193.18
2002.3
1849.03
1619.82
4740.08
5347.16
1844.19
2085.6
2278.9
2496.47
2750.31
3044.54
3355.3
3682.02
4009.09
4304.38
4511.01
4596.61
4611.38
4612.11
4612.12
4612.12
4612.12
4612.12
4612.12
4612.12
4612.12
4612.12
4612.12
4612.12
4612.11
4611.38
4596.61
4511.01
4304.38
4009.09
3682.02
3355.29
3044.54
2750.3
2496.47
2278.89
2085.59
1844.19
5347.16
6071.64
1993.07
2272.61
2480.13
2705.71
2963.24
3260.45
3585.69
3931.29
4279.19
4594.89
4819.5
4916.32
4934.21
4935.19
4935.2
4935.2
4935.2
4935.2
4935.2
4935.2
4935.2
4935.2
4935.2
4935.2
4935.19
4934.21
4916.32
4819.5
4594.89
4279.19
3931.29
3585.68
3260.44
2963.23
2705.7
2480.12
2272.6
1993.06
6071.63
6879.19
2173.3
2478.41
2695.38
2930.83
3206.72
3527.83
3876.02
4245.88
4618.36
4959.78
5208.97
5321.8
5344.28
5345.63
5345.65
5345.65
5345.65
5345.65
5345.65
5345.65
5345.65
5345.65
5345.65
5345.65
5345.63
5344.28
5321.8
5208.97
4959.78
4618.35
4245.87
3876.01
3527.81
3206.69
2930.8
2695.35
2478.38
2173.29
6879.2
8005.75
2384.54
2719
2941.73
3196.2
3500.96
3844.32
4221.32
4618.61
5021.36
5393.68
5671.2
5801.94
5829.67
5831.5
5831.52
5831.52
5831.52
5831.52
5831.52
5831.52
5831.52
5831.52
5831.52
5831.52
5831.5
5829.67
5801.94
5671.2
5393.68
5021.36
4618.6
4221.3
3844.3
3500.95
3196.21
2941.76
2719.04
2384.57
8005.87
9149.19
2644.88
2998.88
3226.52
3505.51
3832.49
4206.32
4611.08
5041.23
5477.78
5884.77
6193.63
6344.38
6378.2
6380.61
6380.65
6380.65
6380.65
6380.65
6380.65
6380.65
6380.65
6380.65
6380.65
6380.65
6380.61
6378.2
6344.38
6193.63
5884.76
5477.78
5041.24
4611.13
4206.42
3832.67
3505.8
3226.93
2999.31
2645.19
9149.74
10524.2
2937.29
3295.88
3539.66
3841.33
4197.85
4599.54
5039.01
5504.69
5978.97
6423.55
6765.88
6937.93
6978.4
6981.48
6981.53
6981.53
6981.53
6981.53
6981.53
6981.53
6981.53
6981.53
6981.53
6981.53
6981.48
6978.4
6937.93
6765.87
6423.56
5979.02
5504.85
5039.35
4600.07
4198.63
3842.4
3541.06
3297.42
2938.49
10525.5
11889.1
3250.64
3612.21
3874.72
4200.89
4584.94
5020.04
5495.31
5999.95
6514.45
6998.98
7376.37
7570.53
7617.96
7621.76
7621.83
7621.83
7621.83
7621.83
7621.83
7621.83
7621.83
7621.83
7621.83
7621.83
7621.76
7617.96
7570.53
7376.38
6999.06
6514.7
6000.5
5496.33
5021.55
4586.89
4203.23
3877.34
3614.93
3252.75
11887.9
13293.8
3566.77
3937.57
4220.48
4570.37
4984.66
5453.73
5967.26
6512.39
7068.91
7594.84
8008.01
8224.26
8278.6
8283.13
8283.21
8283.21
8283.21
8283.21
8283.21
8283.21
8283.21
8283.21
8283.21
8283.21
8283.13
8278.6
8224.27
8008.07
7595.1
7069.52
6513.48
5968.97
5456.08
4987.27
4572.83
4222.1
3938.41
3566.21
13274.8
14551.1
3862.24
4255.91
4557.19
4929.79
5373.59
5877.17
6428.57
7014
7612.39
8179.4
8627.35
8864.5
8925.22
8930.42
8930.52
8930.52
8930.52
8930.52
8930.52
8930.52
8930.52
8930.52
8930.52
8930.52
8930.42
8925.22
8864.53
8627.51
8179.88
7613.32
7015.18
6429.75
5878.19
5373.69
4927.52
4550.45
4245.24
3842.42
14450.3
15432.7
4098
4541.83
4856.71
5247.3
5713.85
6244.5
6826.57
7446.51
8081.82
8684.99
9163.02
9417.77
9483.69
9489.42
9489.53
9489.53
9489.53
9489.53
9489.53
9489.53
9489.53
9489.53
9489.53
9489.53
9489.42
9483.7
9417.85
9163.28
8685.31
8081.8
7444.91
6821.24
6233.08
5694.32
5217.12
4813.36
4487.87
4032.91
15178.9
15933.9
4227.63
4700.51
5032.65
5446.39
5933.89
6482.8
7084.8
7727.11
8386.13
9012.11
9509.15
9774.92
9844.02
9850.06
9850.18
9850.18
9850.18
9850.18
9850.18
9850.18
9850.18
9850.18
9850.18
9850.18
9850.06
9844.03
9774.98
9509.01
9010.45
8380.86
7715.75
7063.57
6447.77
5882.84
5381.94
4956.93
4616.11
4115.82
15425.6
16226.6
4303.81
4848.83
5159.6
5554.02
6025.53
6573.83
7181.88
7832.45
8498.91
9131.69
9635.03
9904.37
9974.48
9980.63
9980.75
9980.75
9980.75
9980.75
9980.75
9980.75
9980.75
9980.75
9980.75
9980.75
9980.63
9974.49
9904.28
9633.98
9127.2
8486.75
7809.5
7144.84
6516.9
5940.65
5429.77
4995.86
4648.77
4132.66
15458.4
16362.6
4328.59
4970.45
5279.71
5659.15
6114.93
6642.99
7232.31
7867.37
8524.54
9153.54
9654.65
9923.02
9993.01
9999.16
9999.28
9999.28
9999.28
9999.28
9999.28
9999.28
9999.28
9999.28
9999.28
9999.28
9999.16
9993.01
9922.63
9651.65
9143.55
8501.27
7821.93
7155.13
6525.15
5947.07
5434.68
4999.5
4651.54
4133.78
15459.6
16340.9
4355.9
5066.29
5398.27
5758.74
6193.12
6703.09
7277.46
7900.68
8546.91
9165.68
9659.37
9924.52
9993.79
9999.87
9999.99
9999.99
9999.99
9999.99
9999.99
9999.99
9999.99
9999.99
9999.99
9999.99
9999.87
9993.72
9923.33
9652.33
9144.16
8501.8
7822.37
7155.47
6525.4
5947.25
5434.8
4999.58
4651.6
4133.8
15459.6
15799.2
4386.61
5170.92
5518.88
5862.49
6271.13
6761.66
7320.58
7932.31
8568.73
9178.62
9665.17
9925.97
9993.93
9999.88
10000
10000
10000
10000
10000
10000
10000
10000
10000
10000
9999.87
9993.72
9923.33
9652.33
9144.16
8501.81
7822.37
7155.47
6525.4
5947.25
5434.8
4999.58
4651.6
4133.8
15459.6
14700.1
4445.54
5320.53
5662.3
5979.21
6349.25
6817.9
7360.5
7961.97
8590.35
9192.63
9671.98
9927.83
9994.12
9999.88
10000
10000
10000
10000
10000
10000
10000
10000
10000
10000
9999.87
9993.72
9923.33
9652.33
9144.16
8501.81
7822.37
7155.47
6525.4
5947.25
5434.8
4999.58
4651.6
4133.8
15459.6
13343.6
4573.04
5518.22
5836.5
6103.56
6425.51
6866.21
7392.9
7985.94
8608.79
9205.67
9678.94
9929.91
9994.35
9999.89
10000
10000
10000
10000
10000
10000
10000
10000
10000
10000
9999.87
9993.72
9923.33
9652.33
9144.16
8501.81
7822.37
7155.47
6525.4
5947.25
5434.8
4999.58
4651.6
4133.8
15459.6
12098.5
5117.96
5885.58
6096.15
6225.33
6510.92
6900.34
7412.51
7999.71
8620.69
9215.26
9684.64
9931.75
9994.56
9999.9
10000
10000
10000
10000
10000
10000
10000
10000
10000
10000
9999.87
9993.72
9923.33
9652.33
9144.16
8501.81
7822.37
7155.47
6525.4
5947.25
5434.8
4999.58
4651.6
4133.8
15459.6
)
;

boundaryField
{
    inlet
    {
        type            fixedValue;
        value           uniform 10000;
    }
    outlet
    {
        type            fixedValue;
        value           uniform 1000;
    }
    obstacle
    {
        type            zeroGradient;
    }
    empty
    {
        type            empty;
    }
}


// ************************************************************************* //
