/*--------------------------------*- C++ -*----------------------------------*\
| =========                 |                                                 |
| \\      /  F ield         | OpenFOAM: The Open Source CFD Toolbox           |
|  \\    /   O peration     | Version:  v1912                                 |
|   \\  /    A nd           | Website:  www.openfoam.com                      |
|    \\/     M anipulation  |                                                 |
\*---------------------------------------------------------------------------*/
FoamFile
{
    version     2.0;
    format      ascii;
    class       volScalarField;
    location    "1.4";
    object      T;
}
// * * * * * * * * * * * * * * * * * * * * * * * * * * * * * * * * * * * * * //

dimensions      [0 0 0 1 0 0 0];


internalField   nonuniform List<scalar> 
1900
(
1
1.00005
1.00085
1.00436
1.01036
1.01575
1.01875
1.02045
1.0208
1.02098
1
1.00005
1.00085
1.00436
1.01035
1.01572
1.01867
1.02016
1.02014
1.02012
1
1.00005
1.00085
1.00436
1.01034
1.01568
1.01862
1.02011
1.02027
1.02024
1
1.00005
1.00085
1.00436
1.01035
1.01572
1.01867
1.02016
1.02014
1.02012
1
1.00005
1.00085
1.00436
1.01036
1.01575
1.01875
1.02045
1.0208
1.02098
1.01892
1.0203
1.02146
1.02251
1.00649
1.02005
1.02119
1.0222
1.02443
1.01759
1.0201
1.02088
1.02156
1.02303
1.01563
1.02005
1.02119
1.0222
1.02443
1.01759
1.01892
1.0203
1.02146
1.02251
1.00649
1.04464
1.03891
1.03924
1.03117
1.01598
1.04105
1.0379
1.03849
1.03592
1.027
1.04085
1.03786
1.03793
1.03597
1.02816
1.04105
1.0379
1.03849
1.03592
1.027
1.04464
1.03891
1.03924
1.03117
1.01598
0.909934
0.830202
0.872233
0.877641
0.875982
0.886517
0.899874
0.918354
0.938479
0.958706
0.97711
0.991
0.998079
0.999848
0.999997
1
1
1
1
1
1
1
1
1
1
0.999996
0.999821
0.997813
0.989988
0.974855
0.954809
0.932348
0.908816
0.885028
0.862118
0.842405
0.827373
0.804812
0.706764
0.642831
0.995702
0.876089
0.887824
0.879688
0.876373
0.886729
0.89998
0.918415
0.938505
0.958733
0.977135
0.991015
0.998084
0.999849
0.999997
1
1
1
1
1
1
1
1
1
1
0.999996
0.999821
0.997813
0.989988
0.974855
0.954809
0.932348
0.908816
0.885028
0.862118
0.842405
0.827373
0.804812
0.706764
0.642831
0.99526
0.907804
0.893957
0.880429
0.876658
0.886785
0.90003
0.918436
0.938513
0.958742
0.977143
0.991021
0.998086
0.999849
0.999997
1
1
1
1
1
1
1
1
1
1
0.999996
0.999821
0.997813
0.989988
0.974855
0.954809
0.932348
0.908816
0.885028
0.862118
0.842405
0.827373
0.804812
0.706764
0.642831
0.995702
0.876089
0.887824
0.879688
0.876373
0.886729
0.89998
0.918415
0.938505
0.958733
0.977135
0.991015
0.998084
0.999849
0.999997
1
1
1
1
1
1
1
1
1
1
0.999996
0.999821
0.997813
0.989988
0.974855
0.954809
0.932348
0.908816
0.885028
0.862118
0.842405
0.827373
0.804812
0.706764
0.642831
0.909934
0.830202
0.872233
0.877641
0.875982
0.886517
0.899874
0.918354
0.938479
0.958706
0.97711
0.991
0.998079
0.999848
0.999997
1
1
1
1
1
1
1
1
1
1
0.999996
0.999821
0.997813
0.989988
0.974855
0.954809
0.932348
0.908816
0.885028
0.862118
0.842405
0.827373
0.804812
0.706764
0.642831
0.723265
0.767445
0.854109
0.87148
0.875305
0.88508
0.899443
0.918057
0.938325
0.958584
0.977
0.990926
0.998053
0.999845
0.999997
1
1
1
1
1
1
1
1
1
1
0.999996
0.999821
0.997813
0.989988
0.974855
0.954809
0.932348
0.908816
0.885028
0.862118
0.842405
0.827373
0.804812
0.706764
0.642831
0.633557
0.738541
0.839628
0.861496
0.871208
0.881923
0.898041
0.91726
0.937837
0.958209
0.976713
0.990761
0.998001
0.999839
0.999997
1
1
1
1
1
1
1
1
1
1
0.999996
0.999821
0.997813
0.989988
0.974855
0.954809
0.932348
0.908816
0.885028
0.862118
0.842405
0.827373
0.804812
0.706764
0.642831
0.63105
0.731999
0.832774
0.855054
0.86611
0.878782
0.896184
0.916105
0.937034
0.957625
0.97632
0.990559
0.997941
0.999832
0.999997
1
1
1
1
1
1
1
1
1
1
0.999996
0.999821
0.997813
0.989988
0.974855
0.954809
0.932348
0.908816
0.885028
0.862118
0.842405
0.827373
0.804812
0.706764
0.642831
0.640802
0.724188
0.826458
0.849644
0.861135
0.875498
0.894049
0.914711
0.936051
0.956941
0.975897
0.990361
0.997888
0.999827
0.999997
1
1
1
1
1
1
1
1
1
1
0.999996
0.999821
0.997813
0.989988
0.974855
0.954809
0.932348
0.908816
0.885028
0.862118
0.842405
0.827373
0.804812
0.706764
0.642831
0.649423
0.71866
0.821986
0.844999
0.856688
0.872249
0.891822
0.913192
0.934996
0.956248
0.975506
0.990192
0.997847
0.999823
0.999996
1
1
1
1
1
1
1
1
1
1
0.999996
0.999821
0.997813
0.989988
0.974855
0.954809
0.932348
0.908816
0.885028
0.862118
0.842405
0.827373
0.804812
0.706764
0.642831
0.651143
0.715252
0.818295
0.840133
0.852363
0.869028
0.889535
0.911582
0.933874
0.955535
0.975139
0.990055
0.997804
0.999801
0.999976
0.99998
0.99998
0.99998
0.99998
0.99998
0.99998
0.99998
0.99998
0.99998
0.99998
0.999976
0.999801
0.997793
0.989968
0.974836
0.954792
0.932333
0.908804
0.885019
0.862111
0.842399
0.827369
0.804809
0.706763
0.642831
0.650775
0.713019
0.813378
0.834745
0.847729
0.865357
0.886889
0.909769
0.932692
0.954717
0.974476
0.989482
0.99727
0.999272
0.999448
0.999451
0.999451
0.999451
0.999451
0.999451
0.999451
0.999451
0.999451
0.999451
0.999451
0.999448
0.999273
0.997267
0.989451
0.97434
0.954327
0.931911
0.908432
0.8847
0.861845
0.842182
0.827196
0.804671
0.706704
0.642818
0.648255
0.709374
0.806852
0.828878
0.842949
0.861579
0.883385
0.906257
0.929107
0.951097
0.97083
0.985789
0.993546
0.995538
0.995713
0.995716
0.995716
0.995716
0.995716
0.995716
0.995716
0.995716
0.995716
0.995716
0.995716
0.995713
0.995539
0.993548
0.985785
0.970779
0.950925
0.928716
0.905481
0.882021
0.859452
0.840065
0.825347
0.803052
0.705804
0.642461
0.642784
0.703973
0.799243
0.820525
0.834043
0.852363
0.874022
0.896733
0.919377
0.941144
0.960669
0.975442
0.983078
0.98503
0.9852
0.985203
0.985203
0.985203
0.985203
0.985203
0.985203
0.985203
0.985203
0.985203
0.985203
0.9852
0.985031
0.98308
0.97545
0.960679
0.941144
0.91932
0.896532
0.873564
0.851527
0.832663
0.818446
0.796628
0.701397
0.639766
0.632941
0.692515
0.784683
0.805738
0.81932
0.837575
0.859047
0.881508
0.903829
0.925227
0.944385
0.958836
0.966258
0.968136
0.968297
0.9683
0.9683
0.9683
0.9683
0.9683
0.9683
0.9683
0.9683
0.9683
0.9683
0.968297
0.968136
0.966259
0.958841
0.944401
0.92526
0.903872
0.881555
0.859091
0.837582
0.819218
0.805409
0.784108
0.691483
0.631701
0.61859
0.677552
0.76752
0.788258
0.801809
0.819813
0.840911
0.862972
0.88489
0.905875
0.924611
0.938667
0.945806
0.94758
0.947727
0.94773
0.94773
0.94773
0.94773
0.94773
0.94773
0.94773
0.94773
0.94773
0.94773
0.947727
0.94758
0.945807
0.938669
0.92462
0.905897
0.884932
0.863043
0.841014
0.819936
0.801934
0.788344
0.767538
0.677416
0.618341
0.602026
0.661411
0.748934
0.769215
0.782712
0.800458
0.821225
0.842882
0.864399
0.884968
0.903267
0.916879
0.923677
0.92532
0.925451
0.925454
0.925454
0.925454
0.925454
0.925454
0.925454
0.925454
0.925454
0.925454
0.925454
0.925451
0.925319
0.923677
0.916879
0.90327
0.884978
0.864422
0.842927
0.821295
0.800555
0.782837
0.769361
0.749082
0.661501
0.601999
0.585378
0.644971
0.729723
0.749512
0.76286
0.780452
0.800867
0.822173
0.84329
0.863451
0.8813
0.894428
0.900837
0.902328
0.902442
0.902444
0.902444
0.902444
0.902444
0.902444
0.902444
0.902444
0.902444
0.902444
0.902444
0.902442
0.902328
0.900837
0.894428
0.8813
0.863453
0.843298
0.822188
0.800894
0.780494
0.76292
0.749595
0.729817
0.645048
0.585393
0.56767
0.628894
0.710475
0.729779
0.743001
0.760254
0.780517
0.801423
0.822193
0.841945
0.859334
0.871943
0.877925
0.879253
0.879348
0.879349
0.879349
0.879349
0.879349
0.879349
0.879349
0.879349
0.879349
0.879349
0.879349
0.879348
0.879253
0.877925
0.871943
0.859334
0.841944
0.822194
0.801426
0.780522
0.760264
0.743018
0.729805
0.710505
0.62892
0.567678
0.552815
0.613513
0.691268
0.710764
0.723729
0.740979
0.760857
0.781609
0.802039
0.821433
0.838361
0.850421
0.855949
0.857111
0.857187
0.857188
0.857188
0.857188
0.857188
0.857188
0.857188
0.857188
0.857188
0.857188
0.857188
0.857187
0.857111
0.855949
0.850421
0.838361
0.821433
0.802038
0.781608
0.760856
0.740978
0.72373
0.710767
0.691271
0.613517
0.552818
0.538162
0.601859
0.675038
0.694569
0.707524
0.724282
0.744159
0.764607
0.78487
0.803968
0.820495
0.832029
0.837115
0.83812
0.838181
0.838182
0.838182
0.838182
0.838182
0.838182
0.838182
0.838182
0.838182
0.838182
0.838182
0.838181
0.83812
0.837115
0.832029
0.820495
0.803967
0.784869
0.764606
0.744158
0.724281
0.707522
0.694567
0.675036
0.601858
0.538163
0.531647
0.592052
0.662173
0.68174
0.695306
0.712106
0.731774
0.752097
0.772216
0.791183
0.807447
0.81853
0.823193
0.82405
0.824097
0.824098
0.824098
0.824098
0.824098
0.824098
0.824098
0.824098
0.824098
0.824098
0.824098
0.824097
0.82405
0.823193
0.81853
0.807447
0.791183
0.772216
0.752097
0.731774
0.712106
0.695305
0.681739
0.662172
0.592051
0.531647
0.521738
0.579912
0.645334
0.66364
0.677362
0.694358
0.714344
0.734312
0.753942
0.772408
0.788198
0.798795
0.803087
0.803824
0.803861
0.803861
0.803861
0.803861
0.803861
0.803861
0.803861
0.803861
0.803861
0.803861
0.803861
0.803861
0.803824
0.803087
0.798795
0.788198
0.772408
0.753942
0.734312
0.714344
0.694357
0.677362
0.66364
0.645334
0.579911
0.521738
0.467652
0.521288
0.58241
0.595528
0.606127
0.618441
0.634322
0.650907
0.667704
0.683595
0.69681
0.70493
0.707736
0.708124
0.708139
0.708139
0.708139
0.708139
0.708139
0.708139
0.708139
0.708139
0.708139
0.708139
0.708139
0.708139
0.708124
0.707736
0.70493
0.69681
0.683595
0.667704
0.650907
0.634322
0.618441
0.606127
0.595528
0.58241
0.521288
0.467652
0.449464
0.463679
0.519192
0.530089
0.537035
0.552283
0.567548
0.585611
0.602546
0.618487
0.630445
0.636447
0.637922
0.638048
0.63805
0.63805
0.63805
0.63805
0.63805
0.63805
0.63805
0.63805
0.63805
0.63805
0.63805
0.63805
0.638048
0.637922
0.636447
0.630445
0.618487
0.602546
0.585611
0.567548
0.552283
0.537035
0.530089
0.519192
0.463679
0.449464
0.449464
0.463679
0.519192
0.530089
0.537035
0.552283
0.567548
0.585611
0.602546
0.618487
0.630445
0.636447
0.637922
0.638048
0.63805
0.63805
0.63805
0.63805
0.63805
0.63805
0.63805
0.63805
0.63805
0.63805
0.63805
0.63805
0.638048
0.637922
0.636447
0.630445
0.618487
0.602546
0.585611
0.567548
0.552283
0.537035
0.530089
0.519192
0.463679
0.449464
0.467652
0.521288
0.58241
0.595528
0.606127
0.618441
0.634322
0.650907
0.667704
0.683595
0.69681
0.70493
0.707736
0.708124
0.708139
0.708139
0.708139
0.708139
0.708139
0.708139
0.708139
0.708139
0.708139
0.708139
0.708139
0.708139
0.708124
0.707736
0.70493
0.69681
0.683595
0.667704
0.650907
0.634322
0.618441
0.606127
0.595528
0.58241
0.521288
0.467652
0.521738
0.579912
0.645334
0.66364
0.677362
0.694358
0.714344
0.734312
0.753942
0.772408
0.788198
0.798795
0.803087
0.803824
0.803861
0.803861
0.803861
0.803861
0.803861
0.803861
0.803861
0.803861
0.803861
0.803861
0.803861
0.803861
0.803824
0.803087
0.798795
0.788198
0.772408
0.753942
0.734312
0.714344
0.694357
0.677362
0.66364
0.645334
0.579911
0.521738
0.531647
0.592052
0.662173
0.68174
0.695306
0.712106
0.731774
0.752097
0.772216
0.791183
0.807447
0.81853
0.823193
0.82405
0.824097
0.824098
0.824098
0.824098
0.824098
0.824098
0.824098
0.824098
0.824098
0.824098
0.824098
0.824097
0.82405
0.823193
0.81853
0.807447
0.791183
0.772216
0.752097
0.731774
0.712106
0.695305
0.681739
0.662172
0.592051
0.531647
0.538162
0.601859
0.675038
0.694569
0.707524
0.724282
0.744159
0.764607
0.78487
0.803968
0.820495
0.832029
0.837115
0.83812
0.838181
0.838182
0.838182
0.838182
0.838182
0.838182
0.838182
0.838182
0.838182
0.838182
0.838182
0.838181
0.83812
0.837115
0.832029
0.820495
0.803967
0.784869
0.764606
0.744158
0.724281
0.707522
0.694567
0.675036
0.601858
0.538163
0.552815
0.613513
0.691268
0.710764
0.723729
0.740979
0.760857
0.781609
0.802039
0.821433
0.838361
0.850421
0.855949
0.857111
0.857187
0.857188
0.857188
0.857188
0.857188
0.857188
0.857188
0.857188
0.857188
0.857188
0.857188
0.857187
0.857111
0.855949
0.850421
0.838361
0.821433
0.802038
0.781608
0.760856
0.740978
0.72373
0.710767
0.691271
0.613517
0.552818
0.56767
0.628894
0.710475
0.729779
0.743001
0.760254
0.780517
0.801423
0.822193
0.841945
0.859334
0.871943
0.877925
0.879253
0.879348
0.879349
0.879349
0.879349
0.879349
0.879349
0.879349
0.879349
0.879349
0.879349
0.879349
0.879348
0.879253
0.877925
0.871943
0.859334
0.841944
0.822194
0.801426
0.780522
0.760264
0.743018
0.729805
0.710505
0.62892
0.567678
0.585378
0.644971
0.729723
0.749512
0.76286
0.780452
0.800867
0.822173
0.84329
0.863451
0.8813
0.894428
0.900837
0.902328
0.902442
0.902444
0.902444
0.902444
0.902444
0.902444
0.902444
0.902444
0.902444
0.902444
0.902444
0.902442
0.902328
0.900837
0.894428
0.8813
0.863453
0.843298
0.822188
0.800894
0.780494
0.76292
0.749595
0.729817
0.645048
0.585393
0.602026
0.661411
0.748934
0.769215
0.782712
0.800458
0.821225
0.842882
0.864399
0.884968
0.903267
0.916879
0.923677
0.92532
0.925451
0.925454
0.925454
0.925454
0.925454
0.925454
0.925454
0.925454
0.925454
0.925454
0.925454
0.925451
0.925319
0.923677
0.916879
0.90327
0.884978
0.864422
0.842927
0.821295
0.800555
0.782837
0.769361
0.749082
0.661501
0.601999
0.61859
0.677552
0.76752
0.788258
0.801809
0.819813
0.840911
0.862972
0.88489
0.905875
0.924611
0.938667
0.945806
0.94758
0.947727
0.94773
0.94773
0.94773
0.94773
0.94773
0.94773
0.94773
0.94773
0.94773
0.94773
0.947727
0.94758
0.945807
0.938669
0.92462
0.905897
0.884932
0.863043
0.841014
0.819936
0.801934
0.788344
0.767538
0.677416
0.618341
0.632941
0.692515
0.784683
0.805738
0.81932
0.837575
0.859047
0.881508
0.903829
0.925227
0.944385
0.958836
0.966258
0.968136
0.968297
0.9683
0.9683
0.9683
0.9683
0.9683
0.9683
0.9683
0.9683
0.9683
0.9683
0.968297
0.968136
0.966259
0.958841
0.944401
0.92526
0.903872
0.881555
0.859091
0.837582
0.819218
0.805409
0.784108
0.691483
0.631701
0.642784
0.703973
0.799243
0.820525
0.834043
0.852363
0.874022
0.896733
0.919377
0.941144
0.960669
0.975442
0.983078
0.98503
0.9852
0.985203
0.985203
0.985203
0.985203
0.985203
0.985203
0.985203
0.985203
0.985203
0.985203
0.9852
0.985031
0.98308
0.97545
0.960679
0.941144
0.91932
0.896532
0.873564
0.851527
0.832663
0.818446
0.796628
0.701397
0.639766
0.648255
0.709374
0.806852
0.828878
0.842949
0.861579
0.883385
0.906257
0.929107
0.951097
0.97083
0.985789
0.993546
0.995538
0.995713
0.995716
0.995716
0.995716
0.995716
0.995716
0.995716
0.995716
0.995716
0.995716
0.995716
0.995713
0.995539
0.993548
0.985785
0.970779
0.950925
0.928716
0.905481
0.882021
0.859452
0.840065
0.825347
0.803052
0.705804
0.642461
0.650775
0.713019
0.813378
0.834745
0.847729
0.865357
0.886889
0.909769
0.932692
0.954717
0.974476
0.989482
0.99727
0.999272
0.999448
0.999451
0.999451
0.999451
0.999451
0.999451
0.999451
0.999451
0.999451
0.999451
0.999451
0.999448
0.999273
0.997267
0.989451
0.97434
0.954327
0.931911
0.908432
0.8847
0.861845
0.842182
0.827196
0.804671
0.706704
0.642818
0.651143
0.715252
0.818295
0.840133
0.852363
0.869028
0.889535
0.911582
0.933874
0.955535
0.975139
0.990055
0.997804
0.999801
0.999976
0.99998
0.99998
0.99998
0.99998
0.99998
0.99998
0.99998
0.99998
0.99998
0.99998
0.999976
0.999801
0.997793
0.989968
0.974836
0.954792
0.932333
0.908804
0.885019
0.862111
0.842399
0.827369
0.804809
0.706763
0.642831
0.649423
0.71866
0.821986
0.844999
0.856688
0.872249
0.891822
0.913192
0.934996
0.956248
0.975506
0.990192
0.997847
0.999823
0.999996
1
1
1
1
1
1
1
1
1
1
0.999996
0.999821
0.997813
0.989988
0.974855
0.954809
0.932348
0.908816
0.885028
0.862118
0.842405
0.827373
0.804812
0.706764
0.642831
0.640802
0.724188
0.826458
0.849644
0.861135
0.875498
0.894049
0.914711
0.936051
0.956941
0.975897
0.990361
0.997888
0.999827
0.999997
1
1
1
1
1
1
1
1
1
1
0.999996
0.999821
0.997813
0.989988
0.974855
0.954809
0.932348
0.908816
0.885028
0.862118
0.842405
0.827373
0.804812
0.706764
0.642831
0.63105
0.731999
0.832774
0.855054
0.86611
0.878782
0.896184
0.916105
0.937034
0.957625
0.97632
0.990559
0.997941
0.999832
0.999997
1
1
1
1
1
1
1
1
1
1
0.999996
0.999821
0.997813
0.989988
0.974855
0.954809
0.932348
0.908816
0.885028
0.862118
0.842405
0.827373
0.804812
0.706764
0.642831
0.633557
0.738541
0.839628
0.861496
0.871208
0.881923
0.898041
0.91726
0.937837
0.958209
0.976713
0.990761
0.998001
0.999839
0.999997
1
1
1
1
1
1
1
1
1
1
0.999996
0.999821
0.997813
0.989988
0.974855
0.954809
0.932348
0.908816
0.885028
0.862118
0.842405
0.827373
0.804812
0.706764
0.642831
0.723265
0.767445
0.854109
0.87148
0.875305
0.88508
0.899443
0.918057
0.938325
0.958584
0.977
0.990926
0.998053
0.999845
0.999997
1
1
1
1
1
1
1
1
1
1
0.999996
0.999821
0.997813
0.989988
0.974855
0.954809
0.932348
0.908816
0.885028
0.862118
0.842405
0.827373
0.804812
0.706764
0.642831
)
;

boundaryField
{
    inlet
    {
        type            fixedValue;
        value           uniform 1;
    }
    outlet
    {
        type            zeroGradient;
    }
    obstacle
    {
        type            zeroGradient;
    }
    empty
    {
        type            empty;
    }
}


// ************************************************************************* //
