/*--------------------------------*- C++ -*----------------------------------*\
| =========                 |                                                 |
| \\      /  F ield         | OpenFOAM: The Open Source CFD Toolbox           |
|  \\    /   O peration     | Version:  v1912                                 |
|   \\  /    A nd           | Website:  www.openfoam.com                      |
|    \\/     M anipulation  |                                                 |
\*---------------------------------------------------------------------------*/
FoamFile
{
    version     2.0;
    format      ascii;
    class       volVectorField;
    location    "3.28";
    object      grad(T);
}
// * * * * * * * * * * * * * * * * * * * * * * * * * * * * * * * * * * * * * //

dimensions      [0 -1 0 1 0 0 0];


internalField   nonuniform List<vector> 
1900
(
(0.883501 1.99125e-08 0)
(-0.61978 1.05129e-06 0)
(0.072681 3.80535e-05 0)
(0.058296 8.88533e-05 0)
(0.0264221 8.09266e-05 0)
(0.0143641 -0.000182733 0)
(0.0158798 -0.000548164 0)
(0.0225579 -0.00247698 0)
(0.0211736 -0.00871199 0)
(-0.0176312 -0.0140637 0)
(0.883502 1.5349e-06 0)
(-0.619742 6.33526e-06 0)
(0.0727688 5.58858e-05 0)
(0.0583389 7.19267e-05 0)
(0.0261505 -4.23375e-05 0)
(0.013735 -0.000476269 0)
(0.0135856 -0.000876436 0)
(0.0143941 -0.00226473 0)
(0.00958689 -0.00847436 0)
(-0.000792022 -0.0138806 0)
(0.883509 9.75782e-14 0)
(-0.619726 1.53957e-13 0)
(0.0727466 2.84061e-13 0)
(0.0581978 -1.64799e-13 0)
(0.0258739 -2.88398e-13 0)
(0.01353 -9.32414e-14 0)
(0.0140914 6.93889e-14 0)
(0.01496 1.9082e-13 0)
(0.00955777 4.14165e-13 0)
(4.85243e-05 4.98733e-14 0)
(0.883502 -1.5349e-06 0)
(-0.619742 -6.33526e-06 0)
(0.0727688 -5.58858e-05 0)
(0.0583389 -7.19267e-05 0)
(0.0261505 4.23375e-05 0)
(0.013735 0.000476269 0)
(0.0135856 0.000876436 0)
(0.0143941 0.00226473 0)
(0.00958689 0.00847436 0)
(-0.000792022 0.0138806 0)
(0.883501 -1.99125e-08 0)
(-0.61978 -1.05129e-06 0)
(0.072681 -3.80535e-05 0)
(0.058296 -8.88533e-05 0)
(0.0264221 -8.09266e-05 0)
(0.0143641 0.000182733 0)
(0.0158798 0.000548164 0)
(0.0225579 0.00247698 0)
(0.0211736 0.00871199 0)
(-0.0176312 0.0140637 0)
(-0.028651 0.00380002 1.02713e-15)
(-0.0629543 0.000692568 -1.24388e-15)
(-0.279348 -0.0194761 -1.56153e-15)
(-0.75864 0.0191968 0)
(-0.613194 0.378708 -6.08969e-15)
(-0.0100232 0.00476891 1.02782e-15)
(-0.0867574 -0.00253273 1.24388e-15)
(-0.269354 -0.030873 1.56153e-15)
(-0.56945 -0.0408272 0)
(-0.534788 0.260117 0)
(-0.0129377 -7.85654e-14 0)
(-0.0988131 -1.49791e-13 0)
(-0.313349 -1.20467e-14 0)
(-0.600279 1.23205e-13 0)
(-0.354045 1.41979e-13 0)
(-0.0100232 -0.00476891 1.02782e-15)
(-0.0867574 0.00253273 1.24388e-15)
(-0.269354 0.030873 1.56153e-15)
(-0.56945 0.0408272 0)
(-0.534788 -0.260117 0)
(-0.028651 -0.00380002 -3.08277e-15)
(-0.0629543 -0.000692568 -1.24388e-15)
(-0.279348 0.0194761 -1.56153e-15)
(-0.75864 -0.0191968 -4.14816e-15)
(-0.613194 -0.378708 6.08969e-15)
(-0.0490259 -0.116154 2.68747e-15)
(-0.378707 -0.0196986 -2.16889e-15)
(-0.223391 0.0140788 0)
(-0.242894 0.0263583 1.5879e-15)
(-0.483861 0.110029 -6.89518e-16)
(-0.181145 -0.143482 -1.34199e-15)
(-0.346346 -0.0240849 1.08415e-15)
(-0.208207 0.00335239 0)
(-0.200154 0.0152919 -9.93046e-16)
(-0.171336 0.113588 1.74063e-16)
(-0.136118 3.39498e-13 0)
(-0.34242 5.37468e-13 0)
(-0.212222 7.8705e-13 0)
(-0.196833 1.5271e-12 3.97403e-16)
(-0.189602 1.90211e-12 -3.48126e-16)
(-0.181145 0.143482 -1.34199e-15)
(-0.346346 0.0240849 1.08415e-15)
(-0.208207 -0.00335239 0)
(-0.200154 -0.0152919 -9.93046e-16)
(-0.171336 -0.113588 1.74063e-16)
(-0.0490259 0.116154 1.34199e-15)
(-0.378707 0.0196986 5.93256e-19)
(-0.223391 -0.0140788 0)
(-0.242894 -0.0263583 7.93827e-19)
(-0.483861 -0.110029 6.89518e-16)
(-0.670518 1.94165 0)
(-0.118141 0.709492 0)
(0.289322 0.227894 0)
(0.0203889 0.124898 0)
(-0.108556 0.064596 0)
(-0.076095 0.0200874 0)
(-0.0251832 0.00801991 0)
(0.00477903 0.00597665 0)
(0.015156 0.00532524 0)
(0.0255097 0.00404811 0)
(0.0332508 0.00350262 0)
(0.0360194 0.00306883 0)
(0.0341136 0.0028261 0)
(0.0285526 0.00261057 0)
(0.0214048 0.00240215 0)
(0.0144237 0.00221673 0)
(0.00878877 0.00207384 0)
(0.00458622 0.00197392 0)
(0.00130678 0.00191754 0)
(-0.00104721 0.00188724 0)
(-0.00300596 0.00187762 0)
(-0.00572053 0.00188632 0)
(-0.00992672 0.00191055 0)
(-0.0157356 0.00196255 0)
(-0.023561 0.00203572 0)
(-0.0333191 0.00213146 0)
(-0.0436004 0.00224083 0)
(-0.0524669 0.00236121 0)
(-0.0580848 0.00248263 0)
(-0.0598644 0.00259708 0)
(-0.0586532 0.00270063 0)
(-0.0560916 0.00276621 0)
(-0.0528836 0.0028157 0)
(-0.0488914 0.00273187 0)
(-0.0408135 0.00255477 0)
(-0.0289705 0.00306607 0)
(-0.0240615 0.00306873 0)
(-0.226334 0.00262793 0)
(-0.557997 -0.0102377 0)
(-0.34421 0.00403845 0)
(-0.529557 0.819892 0)
(-0.323702 0.716283 0)
(0.179058 0.269601 0)
(-0.01761 0.0785452 0)
(-0.120197 0.0373295 0)
(-0.082538 0.00876423 0)
(-0.0264498 0.00351471 0)
(0.00452423 0.00231483 0)
(0.015096 0.00210272 0)
(0.0253896 0.00169376 0)
(0.0331731 0.0014258 0)
(0.0359641 0.00120549 0)
(0.0340781 0.00106983 0)
(0.0285219 0.000962428 0)
(0.0213765 0.00086589 0)
(0.0144007 0.000785393 0)
(0.00877255 0.000726818 0)
(0.00457652 0.000688827 0)
(0.00130169 0.000669528 0)
(-0.00104975 0.000659017 0)
(-0.00300654 0.000655499 0)
(-0.00571976 0.000657859 0)
(-0.0099236 0.000664738 0)
(-0.0157291 0.00068381 0)
(-0.0235511 0.000715208 0)
(-0.0333062 0.000761728 0)
(-0.0435851 0.000822898 0)
(-0.0524502 0.00089952 0)
(-0.0580685 0.000988274 0)
(-0.0598498 0.00108734 0)
(-0.0586427 0.00119535 0)
(-0.056084 0.00130863 0)
(-0.0528858 0.00144085 0)
(-0.0489122 0.00155705 0)
(-0.0407705 0.00165654 0)
(-0.0289213 0.00213239 0)
(-0.0240593 0.00236024 0)
(-0.227584 0.00268447 0)
(-0.556771 -0.000970649 0)
(-0.341723 0.0334059 0)
(-0.448542 1.21036e-12 0)
(-0.278226 1.57702e-14 0)
(0.103798 7.49085e-14 0)
(-0.047181 3.19347e-13 0)
(-0.128856 1.77415e-13 0)
(-0.085932 -1.57702e-13 0)
(-0.0270594 -9.38328e-13 0)
(0.00436827 -2.20389e-12 0)
(0.0149753 9.89581e-13 0)
(0.0253128 3.47733e-12 0)
(0.0331087 6.2726e-12 0)
(0.0359158 8.69333e-12 0)
(0.0340429 6.89553e-12 0)
(0.0284933 -3.52464e-12 0)
(0.0213533 -2.18102e-11 0)
(0.0143832 -3.68629e-11 0)
(0.00876068 -3.05666e-11 0)
(0.00456955 -2.33793e-12 0)
(0.0012981 1.36885e-11 0)
(-0.00105129 3.12132e-11 0)
(-0.00300629 1.86246e-11 0)
(-0.00571784 -2.64861e-11 0)
(-0.00991917 -4.84737e-11 0)
(-0.0157209 -3.1434e-11 0)
(-0.0235383 1.36807e-12 0)
(-0.0332878 7.42777e-12 0)
(-0.0435604 -1.37556e-11 0)
(-0.0524188 -5.21403e-11 0)
(-0.0580302 -9.50352e-11 0)
(-0.0598042 -1.1843e-10 0)
(-0.0585888 -1.13045e-10 0)
(-0.0560201 -7.54762e-11 0)
(-0.0528114 -3.32752e-11 0)
(-0.0488287 -2.65925e-12 0)
(-0.0406461 4.05492e-12 0)
(-0.0287658 2.42546e-11 0)
(-0.0239009 6.71929e-11 0)
(-0.227303 3.39474e-11 0)
(-0.549059 -4.02515e-11 0)
(-0.334209 1.63435e-10 0)
(-0.529557 -0.819892 0)
(-0.323702 -0.716283 0)
(0.179058 -0.269601 0)
(-0.01761 -0.0785452 0)
(-0.120197 -0.0373295 0)
(-0.082538 -0.00876423 0)
(-0.0264498 -0.00351471 0)
(0.00452423 -0.00231483 0)
(0.015096 -0.00210272 0)
(0.0253896 -0.00169376 0)
(0.0331731 -0.0014258 0)
(0.0359641 -0.00120549 0)
(0.0340781 -0.00106983 0)
(0.0285219 -0.000962428 0)
(0.0213765 -0.00086589 0)
(0.0144007 -0.000785393 0)
(0.00877255 -0.000726818 0)
(0.00457652 -0.000688827 0)
(0.00130169 -0.000669528 0)
(-0.00104975 -0.000659017 0)
(-0.00300654 -0.000655499 0)
(-0.00571976 -0.000657859 0)
(-0.0099236 -0.000664738 0)
(-0.0157291 -0.00068381 0)
(-0.0235511 -0.000715209 0)
(-0.0333062 -0.000761728 0)
(-0.0435851 -0.000822898 0)
(-0.0524502 -0.00089952 0)
(-0.0580685 -0.000988274 0)
(-0.0598498 -0.00108734 0)
(-0.0586427 -0.00119535 0)
(-0.056084 -0.00130863 0)
(-0.0528858 -0.00144085 0)
(-0.0489122 -0.00155705 0)
(-0.0407705 -0.00165654 0)
(-0.0289213 -0.00213239 0)
(-0.0240593 -0.00236024 0)
(-0.227584 -0.00268447 0)
(-0.556771 0.000970649 0)
(-0.341723 -0.0334059 0)
(-0.670518 -1.94165 0)
(-0.118141 -0.709492 0)
(0.289322 -0.227894 0)
(0.0203889 -0.124898 0)
(-0.108556 -0.064596 0)
(-0.076095 -0.0200874 0)
(-0.0251832 -0.00801991 0)
(0.00477903 -0.00597665 0)
(0.015156 -0.00532524 0)
(0.0255097 -0.00404811 0)
(0.0332508 -0.00350262 0)
(0.0360194 -0.00306883 0)
(0.0341136 -0.0028261 0)
(0.0285526 -0.00261057 0)
(0.0214048 -0.00240215 0)
(0.0144237 -0.00221673 0)
(0.00878877 -0.00207384 0)
(0.00458622 -0.00197392 0)
(0.00130678 -0.00191754 0)
(-0.00104721 -0.00188724 0)
(-0.00300596 -0.00187762 0)
(-0.00572053 -0.00188632 0)
(-0.00992672 -0.00191055 0)
(-0.0157356 -0.00196255 0)
(-0.023561 -0.00203572 0)
(-0.0333191 -0.00213146 0)
(-0.0436004 -0.00224083 0)
(-0.0524669 -0.00236121 0)
(-0.0580848 -0.00248263 0)
(-0.0598644 -0.00259708 0)
(-0.0586532 -0.00270063 0)
(-0.0560916 -0.00276621 0)
(-0.0528836 -0.0028157 0)
(-0.0488914 -0.00273187 0)
(-0.0408135 -0.00255477 0)
(-0.0289705 -0.00306607 0)
(-0.0240615 -0.00306873 0)
(-0.226334 -0.00262793 0)
(-0.557997 0.0102377 0)
(-0.34421 -0.00403845 0)
(0.169189 -1.40924 0)
(0.513613 -0.281203 0)
(0.418266 -0.113958 0)
(0.0408861 -0.159866 0)
(-0.0679114 -0.0870133 0)
(-0.0544992 -0.0385209 0)
(-0.019063 -0.017359 0)
(0.00591992 -0.01394 0)
(0.0162363 -0.010918 0)
(0.0263939 -0.0085238 0)
(0.0336977 -0.00728022 0)
(0.0363247 -0.00649791 0)
(0.0343245 -0.00600604 0)
(0.0287522 -0.00554065 0)
(0.0215909 -0.00509635 0)
(0.0145801 -0.00470891 0)
(0.0089061 -0.00441041 0)
(0.00466336 -0.00419904 0)
(0.00135018 -0.00407574 0)
(-0.00102764 -0.00400672 0)
(-0.00300664 -0.0039866 0)
(-0.00573952 -0.00401072 0)
(-0.0099678 -0.004071 0)
(-0.0158001 -0.00419088 0)
(-0.0236457 -0.00435824 0)
(-0.0334199 -0.00457491 0)
(-0.0437114 -0.00483224 0)
(-0.0525826 -0.00511477 0)
(-0.0581976 -0.00541022 0)
(-0.0599696 -0.00569564 0)
(-0.0587367 -0.00595257 0)
(-0.0561474 -0.00615535 0)
(-0.0528668 -0.00629408 0)
(-0.0487725 -0.00627299 0)
(-0.0409305 -0.00604686 0)
(-0.0291867 -0.00675014 0)
(-0.0237818 -0.0071818 0)
(-0.220683 -0.00649353 0)
(-0.55624 0.00574488 0)
(-0.347804 -0.00973791 0)
(0.489884 -0.37616 0)
(0.791271 0.0241776 0)
(0.337103 -0.0877427 0)
(0.0353627 -0.136755 0)
(-0.013419 -0.088786 0)
(-0.0205539 -0.051552 0)
(-0.00477799 -0.0286369 0)
(0.010374 -0.022506 0)
(0.019796 -0.0176211 0)
(0.0285411 -0.0141432 0)
(0.0349633 -0.0123908 0)
(0.0370835 -0.0112217 0)
(0.0349229 -0.0104121 0)
(0.0293222 -0.00962673 0)
(0.0221065 -0.00890595 0)
(0.0150008 -0.00828274 0)
(0.00921719 -0.00781258 0)
(0.00486736 -0.00747933 0)
(0.00146883 -0.00728628 0)
(-0.000971807 -0.00717736 0)
(-0.00300944 -0.0071497 0)
(-0.00579168 -0.00719142 0)
(-0.0100783 -0.00729023 0)
(-0.0159778 -0.00748777 0)
(-0.0238856 -0.00775837 0)
(-0.0337218 -0.00812075 0)
(-0.0440612 -0.00853488 0)
(-0.0529618 -0.0090199 0)
(-0.0585841 -0.00950793 0)
(-0.0603306 -0.00996982 0)
(-0.0590514 -0.0103881 0)
(-0.0563907 -0.010717 0)
(-0.053006 -0.0108971 0)
(-0.048717 -0.0109653 0)
(-0.0412105 -0.010759 0)
(-0.0299482 -0.0116865 0)
(-0.0239643 -0.0125738 0)
(-0.216907 -0.0120024 0)
(-0.562065 -0.00192278 0)
(-0.357202 -0.0263049 0)
(0.554968 -0.0241204 0)
(0.791542 0.000266296 0)
(0.263185 -0.0957163 0)
(0.0398807 -0.102414 0)
(0.0141938 -0.0814625 0)
(0.00346273 -0.0564595 0)
(0.00892674 -0.0392602 0)
(0.0165351 -0.0309715 0)
(0.024295 -0.0257311 0)
(0.0314341 -0.0216517 0)
(0.0365129 -0.0195555 0)
(0.0382314 -0.0179713 0)
(0.0358615 -0.0167059 0)
(0.0302036 -0.0155246 0)
(0.022886 -0.0144197 0)
(0.0156338 -0.0135217 0)
(0.0096803 -0.0128336 0)
(0.00517052 -0.0123531 0)
(0.00164118 -0.0120757 0)
(-0.000896036 -0.0119196 0)
(-0.0030202 -0.0118868 0)
(-0.00587494 -0.0119561 0)
(-0.0102534 -0.0121112 0)
(-0.0162512 -0.0124088 0)
(-0.0242557 -0.0128292 0)
(-0.0341682 -0.0133415 0)
(-0.0445779 -0.014022 0)
(-0.0535203 -0.0146747 0)
(-0.059113 -0.0154557 0)
(-0.0608178 -0.0161309 0)
(-0.0594567 -0.0166835 0)
(-0.0566379 -0.0171839 0)
(-0.0531061 -0.0173952 0)
(-0.0486394 -0.017629 0)
(-0.0416255 -0.0175963 0)
(-0.0309356 -0.0190893 0)
(-0.0240862 -0.0204974 0)
(-0.210419 -0.0198554 0)
(-0.570022 -0.00532049 0)
(-0.371299 -0.0365736 0)
(0.513384 -0.0133451 0)
(0.722279 -0.0480713 0)
(0.238156 -0.0958143 0)
(0.0490982 -0.087879 0)
(0.0308645 -0.0777224 0)
(0.0201137 -0.0605006 0)
(0.0197832 -0.0488557 0)
(0.0234111 -0.0405474 0)
(0.0287769 -0.0351914 0)
(0.0344922 -0.0314041 0)
(0.0385099 -0.0289436 0)
(0.0398295 -0.0269941 0)
(0.0372806 -0.025273 0)
(0.0315253 -0.0234769 0)
(0.0240366 -0.0220264 0)
(0.0165293 -0.0207411 0)
(0.0103433 -0.0198254 0)
(0.00559769 -0.0191692 0)
(0.00188657 -0.0187963 0)
(-0.000789837 -0.0185828 0)
(-0.00304459 -0.0185482 0)
(-0.00600785 -0.0186617 0)
(-0.0105145 -0.0188921 0)
(-0.0166697 -0.0193285 0)
(-0.0247844 -0.0198939 0)
(-0.0348712 -0.0207244 0)
(-0.0453459 -0.0215036 0)
(-0.0543434 -0.0227035 0)
(-0.0599872 -0.023609 0)
(-0.0615138 -0.0246555 0)
(-0.0600661 -0.0254763 0)
(-0.0570765 -0.0262171 0)
(-0.0534349 -0.0264638 0)
(-0.0489107 -0.0272386 0)
(-0.0426177 -0.0276743 0)
(-0.0327439 -0.0301147 0)
(-0.0247025 -0.0321601 0)
(-0.202282 -0.0319573 0)
(-0.578175 -0.0148954 0)
(-0.387319 -0.0444039 0)
(0.521505 -0.0512871 0)
(0.712072 -0.0590421 0)
(0.224825 -0.0901347 0)
(0.0573147 -0.0843301 0)
(0.0405766 -0.0781246 0)
(0.0312798 -0.0672885 0)
(0.0281544 -0.0585478 0)
(0.0297025 -0.051566 0)
(0.0331058 -0.0465682 0)
(0.0374547 -0.0432365 0)
(0.0407625 -0.0407145 0)
(0.0417684 -0.0385613 0)
(0.0392508 -0.0361088 0)
(0.0333322 -0.0340677 0)
(0.0255223 -0.0319577 0)
(0.0177547 -0.0304363 0)
(0.0111951 -0.0292298 0)
(0.0061622 -0.0284118 0)
(0.00220624 -0.0279418 0)
(-0.000656933 -0.0276713 0)
(-0.00309617 -0.027643 0)
(-0.00620633 -0.0278138 0)
(-0.010896 -0.0281382 0)
(-0.0172166 -0.0287031 0)
(-0.0256008 -0.0295303 0)
(-0.0357195 -0.0304243 0)
(-0.046485 -0.0318537 0)
(-0.0555491 -0.032938 0)
(-0.0609939 -0.0345635 0)
(-0.0626172 -0.0358432 0)
(-0.0609616 -0.0367856 0)
(-0.0575895 -0.0380194 0)
(-0.0540904 -0.0384754 0)
(-0.0498059 -0.039809 0)
(-0.044397 -0.0409164 0)
(-0.0352582 -0.0441684 0)
(-0.0258618 -0.0472782 0)
(-0.193782 -0.0476217 0)
(-0.582016 -0.0302681 0)
(-0.399735 -0.0497105 0)
(0.505911 -0.0294388 0)
(0.684844 -0.0653025 0)
(0.213788 -0.0849733 0)
(0.0606715 -0.086451 0)
(0.0472864 -0.0805541 0)
(0.0389786 -0.0742753 0)
(0.034934 -0.0677753 0)
(0.034955 -0.0624515 0)
(0.0368034 -0.0586813 0)
(0.0401331 -0.0561184 0)
(0.0430151 -0.0537695 0)
(0.0442676 -0.0513505 0)
(0.0416108 -0.0488281 0)
(0.0355255 -0.046009 0)
(0.0275359 -0.0437917 0)
(0.019158 -0.041821 0)
(0.0122942 -0.0404476 0)
(0.00683884 -0.0394717 0)
(0.00260012 -0.0389239 0)
(-0.000501895 -0.0386041 0)
(-0.00318187 -0.0385877 0)
(-0.00648502 -0.0388189 0)
(-0.0113715 -0.0392303 0)
(-0.0180112 -0.0399489 0)
(-0.026443 -0.0408793 0)
(-0.0371101 -0.0422301 0)
(-0.0477682 -0.0435153 0)
(-0.0569546 -0.045417 0)
(-0.0627868 -0.0468804 0)
(-0.0636551 -0.0485352 0)
(-0.0621632 -0.0496378 0)
(-0.0587049 -0.0508495 0)
(-0.0551594 -0.0513849 0)
(-0.0512629 -0.0526973 0)
(-0.0468186 -0.0542486 0)
(-0.0388744 -0.0569215 0)
(-0.0280303 -0.0612754 0)
(-0.18589 -0.0621144 0)
(-0.580188 -0.0450426 0)
(-0.406054 -0.0520509 0)
(0.486945 -0.0364597 0)
(0.658557 -0.070272 0)
(0.204445 -0.0838686 0)
(0.0615732 -0.0889702 0)
(0.0523095 -0.0848821 0)
(0.0435939 -0.0805646 0)
(0.0395483 -0.0756651 0)
(0.0384657 -0.0720304 0)
(0.0392086 -0.0695429 0)
(0.0421879 -0.0676503 0)
(0.045357 -0.0656142 0)
(0.0465301 -0.0633004 0)
(0.044398 -0.0605014 0)
(0.0381855 -0.0576589 0)
(0.029558 -0.055068 0)
(0.0209772 -0.0529987 0)
(0.013459 -0.0514724 0)
(0.00763044 -0.050412 0)
(0.00304228 -0.04982 0)
(-0.000332917 -0.0494709 0)
(-0.00330317 -0.0494652 0)
(-0.0068256 -0.0497386 0)
(-0.0119849 -0.0502105 0)
(-0.0188056 -0.0510097 0)
(-0.0277991 -0.0520888 0)
(-0.0382596 -0.0534752 0)
(-0.049556 -0.055076 0)
(-0.0587919 -0.0569093 0)
(-0.0639987 -0.0584292 0)
(-0.0652743 -0.0599206 0)
(-0.0631918 -0.0606975 0)
(-0.059273 -0.0616234 0)
(-0.0558711 -0.0619281 0)
(-0.0525654 -0.0625865 0)
(-0.0484675 -0.063936 0)
(-0.0420295 -0.0658195 0)
(-0.0308659 -0.070078 0)
(-0.17814 -0.0712873 0)
(-0.572319 -0.0555723 0)
(-0.406488 -0.0526384 0)
(0.473328 -0.0414685 0)
(0.639159 -0.0693675 0)
(0.19577 -0.081752 0)
(0.0596949 -0.0873777 0)
(0.0553863 -0.0856483 0)
(0.0478605 -0.0822462 0)
(0.0431578 -0.078593 0)
(0.0408546 -0.0768363 0)
(0.0410243 -0.0756119 0)
(0.043919 -0.0745701 0)
(0.0472068 -0.0729435 0)
(0.0491944 -0.0710807 0)
(0.0470472 -0.0683445 0)
(0.0407613 -0.0658546 0)
(0.0320266 -0.0631594 0)
(0.0226228 -0.0612332 0)
(0.0147869 -0.0596858 0)
(0.00843118 -0.058646 0)
(0.00350693 -0.0580544 0)
(-0.000160017 -0.0577059 0)
(-0.00343975 -0.0576988 0)
(-0.0072032 -0.0579687 0)
(-0.0125965 -0.0584417 0)
(-0.0198212 -0.0591985 0)
(-0.0288188 -0.0602951 0)
(-0.0399888 -0.0614429 0)
(-0.0510774 -0.0632005 0)
(-0.0601858 -0.0643831 0)
(-0.0656886 -0.0657382 0)
(-0.065841 -0.0663768 0)
(-0.0638041 -0.0665603 0)
(-0.0598907 -0.0667622 0)
(-0.0560874 -0.0665546 0)
(-0.0531978 -0.0663966 0)
(-0.0499341 -0.0671157 0)
(-0.0447931 -0.0687375 0)
(-0.0332993 -0.0717183 0)
(-0.171912 -0.0725995 0)
(-0.562217 -0.0571909 0)
(-0.403227 -0.0515057 0)
(0.460061 -0.0383687 0)
(0.619738 -0.0660078 0)
(0.18709 -0.0781092 0)
(0.0578186 -0.0826078 0)
(0.0572543 -0.0821042 0)
(0.0503926 -0.0803888 0)
(0.0447615 -0.078209 0)
(0.0413384 -0.0778805 0)
(0.0413925 -0.0774568 0)
(0.0447594 -0.0767381 0)
(0.0487195 -0.0756236 0)
(0.0509619 -0.0736459 0)
(0.049434 -0.0716662 0)
(0.0431821 -0.0688298 0)
(0.0340114 -0.0667875 0)
(0.0243244 -0.0648137 0)
(0.0159521 -0.0635069 0)
(0.00920251 -0.0625403 0)
(0.00394826 -0.0620056 0)
(9.79472e-06 -0.0616828 0)
(-0.00355645 -0.0616568 0)
(-0.00754149 -0.061872 0)
(-0.0131699 -0.0622557 0)
(-0.0205916 -0.062912 0)
(-0.0299619 -0.0636859 0)
(-0.0410593 -0.0649504 0)
(-0.0523893 -0.0658154 0)
(-0.0612373 -0.067467 0)
(-0.0659199 -0.0676858 0)
(-0.0660665 -0.0681696 0)
(-0.0635632 -0.0676599 0)
(-0.0592675 -0.0673557 0)
(-0.0555187 -0.066726 0)
(-0.0531062 -0.0663344 0)
(-0.0507234 -0.0667282 0)
(-0.0464648 -0.0681805 0)
(-0.0345875 -0.0702833 0)
(-0.164141 -0.0706266 0)
(-0.551992 -0.0561488 0)
(-0.40101 -0.0489846 0)
(0.446694 -0.0358239 0)
(0.600864 -0.0620743 0)
(0.179773 -0.0733412 0)
(0.0558451 -0.0762721 0)
(0.0575246 -0.077248 0)
(0.0516141 -0.0765305 0)
(0.0455748 -0.0753252 0)
(0.0415794 -0.0753489 0)
(0.0421251 -0.0749863 0)
(0.0456856 -0.0745307 0)
(0.0501865 -0.073395 0)
(0.0530079 -0.0719333 0)
(0.0516882 -0.0699065 0)
(0.0454626 -0.0679053 0)
(0.0358966 -0.0659074 0)
(0.0257841 -0.0644077 0)
(0.0169777 -0.0632567 0)
(0.00987786 -0.062423 0)
(0.00433324 -0.0619526 0)
(0.000176128 -0.0616529 0)
(-0.00362212 -0.061595 0)
(-0.00778032 -0.0617365 0)
(-0.0135987 -0.0620095 0)
(-0.0211994 -0.0624805 0)
(-0.0307831 -0.0631102 0)
(-0.0420409 -0.0638036 0)
(-0.0535025 -0.0647944 0)
(-0.0619882 -0.0654406 0)
(-0.0663657 -0.0657919 0)
(-0.0658161 -0.0656394 0)
(-0.0630198 -0.0648755 0)
(-0.0589908 -0.064343 0)
(-0.0551032 -0.0637672 0)
(-0.0531999 -0.0633821 0)
(-0.051713 -0.0637536 0)
(-0.048219 -0.0653174 0)
(-0.0356565 -0.0673238 0)
(-0.158292 -0.0676788 0)
(-0.541362 -0.053282 0)
(-0.396323 -0.0461326 0)
(0.434765 -0.032616 0)
(0.583585 -0.0570608 0)
(0.173409 -0.0677438 0)
(0.0540539 -0.0693911 0)
(0.0570053 -0.0719548 0)
(0.0522455 -0.0715962 0)
(0.0459002 -0.0715013 0)
(0.0416649 -0.0716338 0)
(0.0421809 -0.0712259 0)
(0.0462928 -0.0709371 0)
(0.0512224 -0.0696644 0)
(0.0543236 -0.0685361 0)
(0.0533156 -0.0666656 0)
(0.0470358 -0.0649745 0)
(0.0373818 -0.0630364 0)
(0.0268788 -0.0617119 0)
(0.0178646 -0.0606669 0)
(0.0104591 -0.0599483 0)
(0.00469039 -0.0595294 0)
(0.000354403 -0.0592322 0)
(-0.00363704 -0.0591396 0)
(-0.00794091 -0.0592245 0)
(-0.0138868 -0.0594048 0)
(-0.0216522 -0.0597395 0)
(-0.0312369 -0.0602652 0)
(-0.0426823 -0.0608802 0)
(-0.0539668 -0.0617988 0)
(-0.0621985 -0.0623495 0)
(-0.0661114 -0.0624609 0)
(-0.0651835 -0.0620637 0)
(-0.062314 -0.0614124 0)
(-0.0581995 -0.0605753 0)
(-0.0545927 -0.0600668 0)
(-0.0530931 -0.0597418 0)
(-0.0525883 -0.0601851 0)
(-0.0499051 -0.0618443 0)
(-0.036863 -0.0638393 0)
(-0.15061 -0.0642427 0)
(-0.531229 -0.0497384 0)
(-0.39412 -0.0424505 0)
(0.423138 -0.029677 0)
(0.567013 -0.0535474 0)
(0.167891 -0.0646163 0)
(0.0517872 -0.0660247 0)
(0.0553997 -0.0683121 0)
(0.0520511 -0.0680292 0)
(0.0455386 -0.068608 0)
(0.0418448 -0.0684159 0)
(0.0427965 -0.067644 0)
(0.0471903 -0.0667367 0)
(0.0525002 -0.0655102 0)
(0.0558977 -0.0641143 0)
(0.0551203 -0.0625876 0)
(0.0489599 -0.0608024 0)
(0.0390406 -0.0593354 0)
(0.0280674 -0.0582068 0)
(0.0186772 -0.0574622 0)
(0.0109741 -0.056886 0)
(0.00502329 -0.0565376 0)
(0.000551726 -0.0562303 0)
(-0.00361472 -0.0561048 0)
(-0.00803586 -0.0561514 0)
(-0.0140949 -0.0562281 0)
(-0.0220285 -0.0564331 0)
(-0.0318823 -0.0566824 0)
(-0.0435187 -0.0572681 0)
(-0.0549184 -0.0577261 0)
(-0.0626262 -0.0586577 0)
(-0.0660903 -0.0583731 0)
(-0.0648058 -0.0584125 0)
(-0.0615855 -0.0576243 0)
(-0.0576941 -0.0571461 0)
(-0.0543 -0.0569309 0)
(-0.0533138 -0.0570257 0)
(-0.0537391 -0.0578075 0)
(-0.0517403 -0.059571 0)
(-0.0379677 -0.0616113 0)
(-0.144704 -0.0620982 0)
(-0.520363 -0.0481877 0)
(-0.3893 -0.0384063 0)
(0.411763 -0.0280952 0)
(0.549916 -0.0501738 0)
(0.161385 -0.0623402 0)
(0.0504926 -0.0645875 0)
(0.0550737 -0.065772 0)
(0.0519603 -0.0651335 0)
(0.0455275 -0.0661299 0)
(0.0425939 -0.0652947 0)
(0.043799 -0.0641649 0)
(0.048349 -0.063043 0)
(0.0537494 -0.0615683 0)
(0.0571399 -0.0604498 0)
(0.0565071 -0.0590633 0)
(0.0501697 -0.057477 0)
(0.039883 -0.055938 0)
(0.0286839 -0.0546163 0)
(0.0191373 -0.0539015 0)
(0.0113502 -0.0533635 0)
(0.00532227 -0.0530892 0)
(0.000771437 -0.0527708 0)
(-0.00356103 -0.0526179 0)
(-0.00805972 -0.0526332 0)
(-0.0141582 -0.052607 0)
(-0.0220901 -0.0527752 0)
(-0.0320416 -0.0530299 0)
(-0.043688 -0.0538563 0)
(-0.0553058 -0.054553 0)
(-0.062822 -0.0553676 0)
(-0.0658752 -0.055143 0)
(-0.0644619 -0.0550372 0)
(-0.0610936 -0.0544881 0)
(-0.0575314 -0.054343 0)
(-0.0544768 -0.0545036 0)
(-0.0539378 -0.0549805 0)
(-0.055041 -0.0560812 0)
(-0.0535706 -0.0578309 0)
(-0.0392983 -0.059845 0)
(-0.137674 -0.060312 0)
(-0.508399 -0.0459112 0)
(-0.384695 -0.0346705 0)
(0.401862 -0.0248934 0)
(0.534013 -0.0493529 0)
(0.154002 -0.062525 0)
(0.0484802 -0.0654823 0)
(0.0548736 -0.0664234 0)
(0.0517062 -0.0655211 0)
(0.0453833 -0.0658341 0)
(0.0437383 -0.0644367 0)
(0.0449662 -0.0629349 0)
(0.0496925 -0.061032 0)
(0.0549992 -0.0592222 0)
(0.0583116 -0.0577322 0)
(0.057985 -0.0558209 0)
(0.0519716 -0.0538879 0)
(0.0417973 -0.0515779 0)
(0.0300298 -0.0500399 0)
(0.0198844 -0.0491097 0)
(0.0117568 -0.0486137 0)
(0.00559445 -0.0484697 0)
(0.00100592 -0.0482835 0)
(-0.00348215 -0.0481026 0)
(-0.00802542 -0.0479471 0)
(-0.0142317 -0.0477645 0)
(-0.022436 -0.047892 0)
(-0.0329241 -0.0483946 0)
(-0.0449865 -0.049511 0)
(-0.0563748 -0.0510481 0)
(-0.0631947 -0.0523178 0)
(-0.0657718 -0.0528417 0)
(-0.0641746 -0.05318 0)
(-0.0609166 -0.0531863 0)
(-0.0577091 -0.0535877 0)
(-0.0549143 -0.054226 0)
(-0.054834 -0.0551738 0)
(-0.0564859 -0.0565909 0)
(-0.0553673 -0.0582674 0)
(-0.0403585 -0.0601475 0)
(-0.131277 -0.0603423 0)
(-0.495654 -0.045769 0)
(-0.378468 -0.0294292 0)
(0.388193 -0.0257351 0)
(0.513653 -0.0483414 0)
(0.145842 -0.0633291 0)
(0.0467359 -0.0665754 0)
(0.0550363 -0.0671259 0)
(0.0525282 -0.0666313 0)
(0.0465725 -0.0661015 0)
(0.0453877 -0.0641878 0)
(0.0470799 -0.0620492 0)
(0.0519266 -0.0591364 0)
(0.0569293 -0.0562724 0)
(0.0604175 -0.0538728 0)
(0.0602116 -0.0513328 0)
(0.0542584 -0.0490016 0)
(0.0435911 -0.0459846 0)
(0.0310623 -0.0436158 0)
(0.0205117 -0.0418747 0)
(0.0119669 -0.0407453 0)
(0.00564039 -0.0401342 0)
(0.00112517 -0.0397238 0)
(-0.00323682 -0.0395192 0)
(-0.00773389 -0.0395407 0)
(-0.0141051 -0.0397722 0)
(-0.0226973 -0.0405109 0)
(-0.0336017 -0.0417959 0)
(-0.046245 -0.0438607 0)
(-0.0580105 -0.0461374 0)
(-0.0645504 -0.0481003 0)
(-0.0667059 -0.0493212 0)
(-0.064794 -0.0506737 0)
(-0.0614865 -0.0517789 0)
(-0.0585333 -0.0531196 0)
(-0.0560051 -0.05462 0)
(-0.0562167 -0.0562885 0)
(-0.0580222 -0.0579575 0)
(-0.0569979 -0.059407 0)
(-0.0412978 -0.0610951 0)
(-0.123818 -0.0608163 0)
(-0.47861 -0.044833 0)
(-0.368949 -0.0282868 0)
(0.380078 -0.0136766 0)
(0.497787 -0.0453376 0)
(0.136431 -0.0611131 0)
(0.0448215 -0.0656016 0)
(0.0548197 -0.0657159 0)
(0.0526934 -0.0653682 0)
(0.047738 -0.0640128 0)
(0.0476432 -0.061162 0)
(0.0498339 -0.0580865 0)
(0.0552593 -0.0547625 0)
(0.0600714 -0.0508996 0)
(0.0630716 -0.0479382 0)
(0.062679 -0.0440425 0)
(0.0571253 -0.0406529 0)
(0.0469872 -0.036844 0)
(0.0339902 -0.0339194 0)
(0.0226506 -0.0313939 0)
(0.0134341 -0.0296916 0)
(0.00657874 -0.0287281 0)
(0.00159849 -0.028153 0)
(-0.00330565 -0.027936 0)
(-0.00826923 -0.0281087 0)
(-0.0151666 -0.0286629 0)
(-0.024386 -0.0300013 0)
(-0.0361522 -0.0320222 0)
(-0.0491701 -0.0348508 0)
(-0.0604601 -0.0377125 0)
(-0.0662627 -0.040981 0)
(-0.0682517 -0.0433877 0)
(-0.066543 -0.0456016 0)
(-0.0632735 -0.047456 0)
(-0.0604468 -0.0494475 0)
(-0.0579679 -0.0515642 0)
(-0.0580502 -0.0536772 0)
(-0.059491 -0.055516 0)
(-0.0583908 -0.0569644 0)
(-0.0417166 -0.0585487 0)
(-0.115606 -0.0564111 0)
(-0.464307 -0.0399863 0)
(-0.362524 -0.012798 0)
(0.357683 0.0244644 0)
(0.467941 -0.0244316 0)
(0.126315 -0.0349901 0)
(0.0423004 -0.0449557 0)
(0.0552612 -0.0477345 0)
(0.0541694 -0.0485447 0)
(0.0506258 -0.0463534 0)
(0.0510985 -0.0437246 0)
(0.0532466 -0.0410593 0)
(0.0588522 -0.0386482 0)
(0.0635053 -0.0361802 0)
(0.0670253 -0.0341752 0)
(0.067232 -0.0306562 0)
(0.0611951 -0.0285244 0)
(0.0500798 -0.0265059 0)
(0.0363143 -0.0255728 0)
(0.0245857 -0.0248891 0)
(0.0145358 -0.024644 0)
(0.0071231 -0.0245165 0)
(0.00188839 -0.0236662 0)
(-0.00319416 -0.0235032 0)
(-0.00843431 -0.0240539 0)
(-0.015929 -0.0238897 0)
(-0.0259344 -0.0239576 0)
(-0.0382748 -0.0243513 0)
(-0.0517284 -0.025399 0)
(-0.0639179 -0.0267648 0)
(-0.0700193 -0.0286928 0)
(-0.0711585 -0.0307369 0)
(-0.0687144 -0.0322037 0)
(-0.0651926 -0.0333701 0)
(-0.062492 -0.034375 0)
(-0.060081 -0.0357379 0)
(-0.0600248 -0.0368478 0)
(-0.0611898 -0.0378525 0)
(-0.0599203 -0.0383357 0)
(-0.0407647 -0.0369267 0)
(-0.105931 -0.0301544 0)
(-0.436582 -0.0192405 0)
(-0.342749 0.0268971 0)
(0.33296 -0.0275029 0)
(0.440494 -0.0858233 0)
(0.116653 -0.0909406 0)
(0.0325405 -0.104927 0)
(0.0513612 -0.118304 0)
(0.0540242 -0.129409 0)
(0.0523828 -0.138353 0)
(0.0527449 -0.144835 0)
(0.0547257 -0.152539 0)
(0.0599609 -0.158169 0)
(0.0643817 -0.165718 0)
(0.0683948 -0.172551 0)
(0.0681242 -0.180292 0)
(0.0611247 -0.189435 0)
(0.0498316 -0.200231 0)
(0.0355481 -0.210845 0)
(0.0235457 -0.221025 0)
(0.0137931 -0.229176 0)
(0.00752096 -0.235081 0)
(0.00257498 -0.229759 0)
(-0.00367925 -0.229602 0)
(-0.00864166 -0.234639 0)
(-0.0150738 -0.228453 0)
(-0.0248309 -0.220271 0)
(-0.0375412 -0.209991 0)
(-0.0514958 -0.199644 0)
(-0.0636342 -0.188706 0)
(-0.0700904 -0.179705 0)
(-0.0716349 -0.171026 0)
(-0.0690804 -0.164802 0)
(-0.0653659 -0.156457 0)
(-0.0627286 -0.15015 0)
(-0.0603509 -0.142272 0)
(-0.0600879 -0.135365 0)
(-0.0609247 -0.127209 0)
(-0.0574987 -0.118502 0)
(-0.0338328 -0.107843 0)
(-0.0985626 -0.0980679 0)
(-0.40933 -0.0978611 0)
(-0.318064 -0.0653448 0)
(0.301483 -0.290823 0)
(0.406811 -0.42211 0)
(0.107906 -0.439311 0)
(0.0159321 -0.47591 0)
(0.0316695 -0.505271 0)
(0.034849 -0.521206 0)
(0.0357613 -0.537589 0)
(0.0374289 -0.548614 0)
(0.0403976 -0.558849 0)
(0.0461522 -0.567111 0)
(0.0496459 -0.577661 0)
(0.0529814 -0.586665 0)
(0.0509619 -0.598597 0)
(0.0419809 -0.605704 0)
(0.0294487 -0.610496 0)
(0.0162767 -0.607542 0)
(0.0069207 -0.601275 0)
(0.000991114 -0.592269 0)
(0.00656202 -0.58669 0)
(0.0071674 -0.577951 0)
(-0.00789732 -0.577614 0)
(-0.00732684 -0.58585 0)
(-0.00208281 -0.590832 0)
(-0.0081436 -0.599185 0)
(-0.0183978 -0.60489 0)
(-0.031217 -0.606578 0)
(-0.0447045 -0.601576 0)
(-0.052983 -0.592536 0)
(-0.0567976 -0.580982 0)
(-0.0546747 -0.568971 0)
(-0.0510731 -0.557689 0)
(-0.0488232 -0.54579 0)
(-0.0458333 -0.532962 0)
(-0.0455093 -0.519322 0)
(-0.0449402 -0.501364 0)
(-0.0412584 -0.485749 0)
(-0.0210736 -0.45561 0)
(-0.0963122 -0.424431 0)
(-0.405049 -0.415056 0)
(-0.311415 -0.301539 0)
(0.206447 -0.24019 0)
(0.297406 -0.338812 0)
(0.0648093 -0.353723 0)
(-0.0310208 -0.383535 0)
(0.00771234 -0.402447 0)
(0.0228812 -0.408396 0)
(0.0259716 -0.414867 0)
(0.0322581 -0.418555 0)
(0.0369014 -0.420233 0)
(0.0418321 -0.422183 0)
(0.0455393 -0.424716 0)
(0.0482208 -0.426445 0)
(0.0497775 -0.429656 0)
(0.0496583 -0.427674 0)
(0.0480598 -0.421689 0)
(0.0444336 -0.40836 0)
(0.0382633 -0.392469 0)
(0.0278476 -0.375835 0)
(0.021319 -0.364599 0)
(0.011321 -0.360521 0)
(-0.0112912 -0.360289 0)
(-0.0213794 -0.364043 0)
(-0.027924 -0.374872 0)
(-0.0383773 -0.390859 0)
(-0.0446653 -0.406247 0)
(-0.0483025 -0.418118 0)
(-0.0501025 -0.423977 0)
(-0.0502449 -0.42372 0)
(-0.048927 -0.421136 0)
(-0.0466349 -0.415552 0)
(-0.0430278 -0.412792 0)
(-0.0389007 -0.407203 0)
(-0.0348455 -0.402496 0)
(-0.0296385 -0.395801 0)
(-0.0285729 -0.386026 0)
(-0.013408 -0.378816 0)
(0.0252562 -0.357124 0)
(-0.0594834 -0.330738 0)
(-0.290907 -0.318906 0)
(-0.208675 -0.212289 0)
(0.206447 0.24019 0)
(0.297406 0.338812 0)
(0.0648093 0.353723 0)
(-0.0310208 0.383535 0)
(0.00771234 0.402447 0)
(0.0228812 0.408396 0)
(0.0259716 0.414867 0)
(0.0322581 0.418555 0)
(0.0369014 0.420233 0)
(0.0418321 0.422183 0)
(0.0455393 0.424716 0)
(0.0482208 0.426445 0)
(0.0497775 0.429656 0)
(0.0496583 0.427674 0)
(0.0480598 0.421689 0)
(0.0444336 0.40836 0)
(0.0382633 0.392469 0)
(0.0278476 0.375835 0)
(0.021319 0.364599 0)
(0.011321 0.360521 0)
(-0.0112912 0.360289 0)
(-0.0213794 0.364043 0)
(-0.027924 0.374872 0)
(-0.0383773 0.390859 0)
(-0.0446653 0.406247 0)
(-0.0483025 0.418118 0)
(-0.0501025 0.423977 0)
(-0.0502449 0.42372 0)
(-0.048927 0.421136 0)
(-0.0466349 0.415552 0)
(-0.0430278 0.412792 0)
(-0.0389007 0.407203 0)
(-0.0348455 0.402496 0)
(-0.0296385 0.395801 0)
(-0.0285729 0.386026 0)
(-0.013408 0.378816 0)
(0.0252562 0.357124 0)