/*--------------------------------*- C++ -*----------------------------------*\
| =========                 |                                                 |
| \\      /  F ield         | OpenFOAM: The Open Source CFD Toolbox           |
|  \\    /   O peration     | Version:  v1912                                 |
|   \\  /    A nd           | Website:  www.openfoam.com                      |
|    \\/     M anipulation  |                                                 |
\*---------------------------------------------------------------------------*/
FoamFile
{
    version     2.0;
    format      ascii;
    class       volScalarField;
    location    "3.28";
    object      p;
}
// * * * * * * * * * * * * * * * * * * * * * * * * * * * * * * * * * * * * * //

dimensions      [1 -1 -2 0 0 0 0];


internalField   nonuniform List<scalar> 
1900
(
21424.2
12122.4
11347.1
11447.7
11517
11577.2
11623.6
11657.5
11681.6
11678.8
21424.3
12122.4
11347.4
11448.2
11517.7
11576.9
11619.7
11642.6
11623.5
11565.2
21424.3
12122.4
11347.5
11448
11516.8
11575.1
11618.6
11645.9
11628.6
11566
21424.3
12122.4
11347.4
11448.2
11517.7
11576.9
11619.7
11642.6
11623.5
11565.2
21424.2
12122.4
11347.1
11447.7
11517
11577.2
11623.6
11657.5
11681.6
11678.8
11457.4
11421.4
11247
10726.9
8949.99
11474.4
11411.5
11171.2
10842.5
9824.71
11476.4
11392.4
11144.1
10715.7
9634.36
11474.4
11411.5
11171.2
10842.5
9824.71
11457.4
11421.4
11247
10726.9
8949.99
11536
10962.9
10996.5
10912.8
10578.3
11364.7
10953.4
11043.6
10962.3
10382
11348.2
10964.2
11015.1
10892.8
10114.4
11364.7
10953.4
11043.6
10962.3
10382
11536
10962.9
10996.5
10912.8
10578.3
8431.27
3726.02
3990.73
4128.22
3898.96
3685.4
3571.02
3568.69
3591.98
3640.18
3712.88
3798.59
3886.7
3965.76
4028.63
4073.39
4101.67
4117.82
4124.45
4123.9
4118.88
4108.79
4090.3
4059
4011.23
3941.21
3846.63
3729.51
3597.3
3460.25
3327.17
3202.75
3087.33
2982.11
2888.73
2820.63
2768.82
2734.81
2877.67
16434.6
8611.09
3991.09
4164.09
4174.09
3921.6
3692.6
3574.09
3570.46
3593.79
3641.64
3714.15
3799.71
3887.74
3966.74
4029.54
4074.23
4102.47
4118.58
4125.2
4124.63
4119.61
4109.52
4091.04
4059.75
4011.99
3942
3847.44
3730.34
3598.15
3461.12
3328.04
3203.62
3088.2
2982.94
2889.48
2821.57
2769.67
2736.13
2883.85
16499.9
8308.63
4382.28
4284.75
4208.8
3934.76
3696.82
3575.95
3571.95
3594.9
3642.57
3714.93
3800.36
3888.3
3967.23
4029.97
4074.62
4102.82
4118.91
4125.51
4124.94
4119.92
4109.83
4091.35
4060.08
4012.35
3942.38
3847.87
3730.83
3598.71
3461.76
3328.77
3204.46
3089.16
2984.04
2890.73
2823.1
2771.46
2738.34
2888.33
16758
8611.09
3991.09
4164.09
4174.09
3921.6
3692.6
3574.09
3570.46
3593.79
3641.64
3714.15
3799.71
3887.74
3966.74
4029.54
4074.23
4102.47
4118.58
4125.2
4124.63
4119.61
4109.52
4091.04
4059.75
4011.99
3942
3847.44
3730.34
3598.15
3461.12
3328.04
3203.62
3088.2
2982.94
2889.48
2821.57
2769.67
2736.13
2883.85
16499.9
8431.27
3726.02
3990.73
4128.22
3898.96
3685.4
3571.02
3568.69
3591.98
3640.18
3712.88
3798.59
3886.7
3965.76
4028.63
4073.39
4101.67
4117.82
4124.45
4123.9
4118.88
4108.79
4090.3
4059
4011.23
3941.21
3846.63
3729.51
3597.3
3460.25
3327.17
3202.75
3087.33
2982.11
2888.73
2820.63
2768.82
2734.81
2877.67
16434.6
9268.75
3171.31
3730.65
3915.89
3793.62
3643.85
3553.74
3554.77
3580.21
3631.2
3704.91
3791.44
3879.98
3959.45
4022.74
4067.9
4096.51
4112.89
4119.66
4119.19
4114.2
4104.09
4085.55
4054.13
4006.22
3936.03
3841.27
3723.99
3591.65
3454.5
3321.35
3196.94
3081.58
2976.64
2883.68
2815.09
2763.56
2728.26
2851.93
16377.5
9982.63
2804.13
3439.31
3580.81
3594.87
3537.36
3502.6
3514.2
3549.72
3606.44
3683.53
3771.87
3861.59
3942.24
4006.71
4052.93
4082.38
4099.37
4106.49
4106.24
4101.33
4091.17
4072.49
4040.79
3992.47
3921.79
3826.49
3708.66
3575.82
3438.27
3304.84
3180.27
3064.95
2960.24
2868.03
2798.5
2746.1
2708.76
2786.73
15913.7
10553.6
2703.15
3208.84
3347.46
3414.88
3418.07
3427.83
3456.15
3502.62
3567.9
3648.44
3739.4
3830.87
3913.34
3979.54
4027.34
4058.01
4075.89
4083.52
4083.57
4078.76
4068.53
4049.64
4017.49
3968.61
3897.2
3801.22
3682.63
3549.21
3411.27
3277.59
3153.05
3038.15
2934
2842.8
2771.9
2718.37
2679.6
2695.47
15255.6
11450.7
2601.6
3012.27
3158.79
3249.5
3295.23
3333.39
3380.46
3437.62
3510.59
3595.46
3689.51
3783.69
3868.72
3937.57
3987.51
4019.91
4039.02
4047.38
4047.87
4043.18
4032.81
4013.59
3980.82
3931.05
3858.77
3761.46
3642.15
3507.62
3369.09
3235.33
3110.65
2996.35
2892.43
2801.88
2728.39
2672.39
2631.58
2577.22
14394.6
10730.6
2495.15
2835.11
2992.96
3093.05
3164.45
3221.87
3284
3351.29
3430.61
3519.67
3617.09
3714.29
3803.29
3874.97
3927.96
3962.44
3983.14
3992.42
3993.48
3988.91
3978.32
3958.66
3924.98
3874.27
3800.25
3702.44
3580.75
3446.07
3306.62
3172.56
3047.96
2934.88
2830.34
2739.85
2662.31
2603.6
2559.46
2441.25
13443.2
10433.2
2386.53
2676.37
2828.92
2935.99
3021.13
3092.52
3165.73
3240.78
3324.65
3417.1
3517.26
3619.3
3711
3787.59
3843.27
3880.5
3902.98
3913.35
3915.08
3910.63
3899.73
3879.47
3844.86
3792.49
3717.96
3616.82
3496.07
3358.5
3218.95
3085.72
2960.39
2848.37
2743.21
2652
2570.05
2506.48
2459.42
2302.16
12412.3
10107.9
2275.93
2528.41
2667.28
2781.29
2871.65
2950.76
3030.2
3108.82
3194.45
3288.9
3392.07
3495.96
3593.79
3672.68
3732.7
3772.28
3796.78
3808.27
3810.75
3806.41
3795.13
3774.24
3738.41
3685.21
3607.75
3507.89
3382.65
3247.29
3106.96
2974.47
2850.9
2741.16
2636.88
2545.34
2462.66
2394.03
2344.93
2180.09
11405.7
9562.48
2162.59
2384.02
2507.36
2620.38
2714.87
2799.54
2881.65
2961.5
3047.63
3142.76
3246.68
3354.99
3454.19
3538.41
3600.7
3643.11
3669.38
3681.97
3685.19
3680.96
3669.31
3647.81
3611.12
3556.26
3479.04
3375.73
3253.2
3116.36
2978.31
2849.35
2727.56
2620.88
2519.52
2429.01
2345.83
2274.23
2223.21
2067.57
10387.5
8991.06
2054.83
2254.83
2364.99
2475.41
2570.55
2656.97
2737.22
2814.94
2898.69
2993.13
3097.09
3205.7
3308.17
3394.08
3459.19
3503.45
3531.26
3544.77
3548.64
3544.55
3532.67
3510.77
3473.45
3418.25
3339.97
3238.19
3115.14
2982.26
2847.81
2722.73
2606.03
2503.9
2406.74
2318.57
2236.13
2164.16
2112.25
1967.9
9449.19
8374.61
1952.57
2133.95
2233.95
2339.07
2431.96
2517.99
2595.37
2671.04
2753.68
2846.41
2950.93
3060
3164.48
3252.1
3319.06
3364.64
3393.59
3407.77
3412.17
3408.29
3396.37
3374.41
3336.94
3281.85
3203.74
3102.88
2981.06
2851.73
2720.42
2601.41
2488.37
2390.63
2297.02
2211.03
2128.9
2056.79
2004.77
1870.93
8535.81
7765.61
1859.96
2029.32
2122.54
2220.93
2311.27
2395.6
2470.13
2543.64
2623.16
2715.29
2817.73
2927.12
3031.07
3119.84
3187.29
3233.8
3263.52
3278.23
3283.11
3279.49
3267.69
3245.88
3208.68
3153.96
3077.3
2977.45
2859.17
2732.91
2607.22
2492.46
2384.68
2290.76
2200.83
2116.97
2035.16
1962.93
1910.43
1785.97
7704.07
7151.42
1777.08
1933.11
2021.53
2111.03
2198.46
2278.91
2350.58
2422.48
2500.55
2591.61
2693.51
2802.69
2907.36
2997.44
3065.91
3113.18
3143.48
3158.58
3163.93
3160.62
3149.02
3127.52
3090.7
3036.47
2960.2
2861.41
2744.41
2622.21
2499.87
2390.11
2286.43
2196.06
2109
2026.79
1944.91
1872.54
1820.21
1704.44
6911.12
6556.34
1699.58
1843.72
1927.19
2011.96
2097.02
2173.94
2244.12
2315.31
2392.68
2483.21
2584.26
2692.65
2797.27
2886.72
2954.91
3001.89
3032.34
3047.66
3053.48
3050.53
3039.18
3018.2
2982.1
2929.21
2854.29
2757.99
2642.68
2524.39
2405.52
2299.79
2199.55
2111.59
2026.49
1945.19
1863.32
1790.71
1738.07
1630.25
6196.19
5948.72
1628.05
1759.87
1836.87
1916.71
2000.19
2072.42
2141.98
2212.83
2289.63
2380.07
2479.76
2587.6
2692.22
2783.24
2853.19
2900.86
2931.74
2947.17
2953.45
2950.89
2939.82
2919.48
2883.78
2831.2
2755.59
2659.23
2545.4
2430.41
2314.95
2212.86
2115.2
2029.29
1945.66
1865
1783.17
1710.56
1658.43
1558.64
5512.64
5388.65
1556.33
1675.89
1746.34
1822.29
1904.14
1975.08
2044.82
2116.05
2194.6
2285.62
2385.85
2494.92
2600.93
2694.32
2764.99
2813.33
2844.29
2859.47
2865.68
2863.54
2853.33
2833.98
2798.97
2746.54
2670.91
2573.61
2459.49
2345.39
2231.52
2131.35
2035.22
1950.2
1867.17
1786.66
1705.25
1632.96
1581.54
1490.11
4914.74
4791.96
1490.35
1597.17
1660.71
1732.89
1811.99
1880.88
1951.35
2023.96
2104.87
2199.08
2301.09
2411.97
2519.64
2617.18
2692.62
2744.62
2778.33
2795.28
2802.77
2801.06
2790.4
2770.13
2733.21
2678.08
2598.21
2498
2382.52
2268.9
2154.77
2054.54
1958.08
1872.63
1789.19
1708.85
1628.34
1556.82
1507.42
1425.25
4319.2
4362.04
1437.91
1528.37
1581.45
1650.44
1727.17
1796.68
1869.44
1944.47
2027.69
2124.91
2228.66
2344.42
2456.45
2558.72
2636.63
2691.88
2727.57
2745.5
2753.66
2752.39
2741.85
2721.39
2683.08
2625.61
2543.11
2440.11
2320.31
2204.26
2089.23
1988.86
1892.19
1806.22
1722.47
1642.19
1562.37
1491.9
1448.44
1379.03
3904.05
3918.17
1424.13
1498.7
1532.74
1593.74
1666.75
1738.99
1814.06
1891.51
1976.97
2075.76
2181.22
2299.78
2412.44
2516.81
2596.96
2653.37
2690.27
2709.73
2720.26
2719.26
2706.9
2685.4
2646.11
2587.7
2502.86
2398.05
2278.35
2161.78
2046.21
1945.17
1848.68
1762.3
1678.9
1599.08
1520.8
1456.33
1425.66
1369.94
3525.03
4672.63
1431.26
1453.61
1466.14
1510.8
1572.32
1634.45
1701.07
1770.7
1848.38
1937.44
2033
2146.32
2279.03
2435.31
2591.25
2730.64
2840.79
2905.25
2936.74
2936.11
2903.44
2837.73
2726.01
2585.97
2426.5
2270.87
2130.43
2016.81
1911.8
1821.17
1734.08
1656.31
1581.31
1510.15
1441.21
1389.46
1375.75
1366.44
4400.53
41774.4
4537.52
3746.55
4139.58
4571.45
5191.16
5816.33
6543.43
7302.64
8156.94
9054.22
10035.5
11040.5
12099.6
13128.8
14161.5
15079
15874.2
16359.8
16777.1
16778.1
16359.3
15873
15075.6
14156.6
13118.9
12088.7
11021.3
10017.7
9024.61
8122.22
7259.11
6485.07
5745.66
5099.09
4455.69
4003.56
3582.87
4312.63
40067
41774.4
4537.52
3746.55
4139.58
4571.45
5191.16
5816.33
6543.43
7302.64
8156.94
9054.22
10035.5
11040.5
12099.6
13128.8
14161.5
15079
15874.2
16359.8
16777.1
16778.1
16359.3
15873
15075.6
14156.6
13118.9
12088.7
11021.3
10017.7
9024.61
8122.22
7259.11
6485.07
5745.66
5099.09
4455.69
4003.56
3582.87
4312.63
40067
4672.63
1431.26
1453.61
1466.14
1510.8
1572.32
1634.45
1701.07
1770.7
1848.38
1937.44
2033
2146.32
2279.03
2435.31
2591.25
2730.64
2840.79
2905.25
2936.74
2936.11
2903.44
2837.73
2726.01
2585.97
2426.5
2270.87
2130.43
2016.81
1911.8
1821.17
1734.08
1656.31
1581.31
1510.15
1441.21
1389.46
1375.75
1366.44
4400.53
3918.17
1424.13
1498.7
1532.74
1593.74
1666.75
1738.99
1814.06
1891.51
1976.97
2075.76
2181.22
2299.78
2412.44
2516.81
2596.96
2653.37
2690.27
2709.73
2720.26
2719.26
2706.9
2685.4
2646.11
2587.7
2502.86
2398.05
2278.35
2161.78
2046.21
1945.17
1848.68
1762.3
1678.9
1599.08
1520.8
1456.33
1425.66
1369.94
3525.03
4362.04
1437.91
1528.37
1581.45
1650.44
1727.17
1796.68
1869.44
1944.47
2027.69
2124.91
2228.66
2344.42
2456.45
2558.72
2636.63
2691.88
2727.57
2745.5
2753.66
2752.39
2741.85
2721.39
2683.08
2625.61
2543.11
2440.11
2320.31
2204.26
2089.23
1988.86
1892.19
1806.22
1722.47
1642.19
1562.37
1491.9
1448.44
1379.03
3904.05
4791.96
1490.35
1597.17
1660.71
1732.89
1811.99
1880.88
1951.35
2023.96
2104.87
2199.08
2301.09
2411.97
2519.64
2617.18
2692.62
2744.62
2778.33
2795.28
2802.77
2801.06
2790.4
2770.13
2733.21
2678.08
2598.21
2498
2382.52
2268.9
2154.77
2054.54
1958.08
1872.63
1789.19
1708.85
1628.34
1556.82
1507.42
1425.25
4319.2
5388.65
1556.33
1675.89
1746.34
1822.29
1904.14
1975.08
2044.82
2116.05
2194.6
2285.62
2385.85
2494.92
2600.93
2694.32
2764.99
2813.33
2844.29
2859.47
2865.68
2863.54
2853.33
2833.98
2798.97
2746.54
2670.91
2573.61
2459.49
2345.39
2231.52
2131.35
2035.22
1950.2
1867.17
1786.66
1705.25
1632.96
1581.54
1490.11
4914.74
5948.72
1628.05
1759.87
1836.87
1916.71
2000.19
2072.42
2141.98
2212.83
2289.63
2380.07
2479.76
2587.6
2692.22
2783.24
2853.19
2900.86
2931.74
2947.17
2953.45
2950.89
2939.82
2919.48
2883.78
2831.2
2755.59
2659.23
2545.4
2430.41
2314.95
2212.86
2115.2
2029.29
1945.66
1865
1783.17
1710.56
1658.43
1558.64
5512.64
6556.34
1699.58
1843.72
1927.19
2011.96
2097.02
2173.94
2244.12
2315.31
2392.68
2483.21
2584.26
2692.65
2797.27
2886.72
2954.91
3001.89
3032.34
3047.66
3053.48
3050.53
3039.18
3018.2
2982.1
2929.21
2854.29
2757.99
2642.68
2524.39
2405.52
2299.79
2199.55
2111.59
2026.49
1945.19
1863.32
1790.71
1738.07
1630.25
6196.19
7151.42
1777.08
1933.11
2021.53
2111.03
2198.46
2278.91
2350.58
2422.48
2500.55
2591.61
2693.51
2802.69
2907.36
2997.44
3065.91
3113.18
3143.48
3158.58
3163.93
3160.62
3149.02
3127.52
3090.7
3036.47
2960.2
2861.41
2744.41
2622.21
2499.87
2390.11
2286.43
2196.06
2109
2026.79
1944.91
1872.54
1820.21
1704.44
6911.12
7765.61
1859.96
2029.32
2122.54
2220.93
2311.27
2395.6
2470.13
2543.64
2623.16
2715.29
2817.73
2927.12
3031.07
3119.84
3187.29
3233.8
3263.52
3278.23
3283.11
3279.49
3267.69
3245.88
3208.68
3153.96
3077.3
2977.45
2859.17
2732.91
2607.22
2492.46
2384.68
2290.76
2200.83
2116.97
2035.16
1962.93
1910.43
1785.97
7704.07
8374.61
1952.57
2133.95
2233.95
2339.07
2431.96
2517.99
2595.37
2671.04
2753.68
2846.41
2950.93
3060
3164.48
3252.1
3319.06
3364.64
3393.59
3407.77
3412.17
3408.29
3396.37
3374.41
3336.94
3281.85
3203.74
3102.88
2981.06
2851.73
2720.42
2601.41
2488.37
2390.63
2297.02
2211.03
2128.9
2056.79
2004.77
1870.93
8535.81
8991.06
2054.83
2254.83
2364.99
2475.41
2570.55
2656.97
2737.22
2814.94
2898.69
2993.13
3097.09
3205.7
3308.17
3394.08
3459.19
3503.45
3531.26
3544.77
3548.64
3544.55
3532.67
3510.77
3473.45
3418.25
3339.97
3238.19
3115.14
2982.26
2847.81
2722.73
2606.03
2503.9
2406.74
2318.57
2236.13
2164.16
2112.25
1967.9
9449.19
9562.48
2162.59
2384.02
2507.36
2620.38
2714.87
2799.54
2881.65
2961.5
3047.63
3142.76
3246.68
3354.99
3454.19
3538.41
3600.7
3643.11
3669.38
3681.97
3685.19
3680.96
3669.31
3647.81
3611.12
3556.26
3479.04
3375.73
3253.2
3116.36
2978.31
2849.35
2727.56
2620.88
2519.52
2429.01
2345.83
2274.23
2223.21
2067.57
10387.5
10107.9
2275.93
2528.41
2667.28
2781.29
2871.65
2950.76
3030.2
3108.82
3194.45
3288.9
3392.07
3495.96
3593.79
3672.68
3732.7
3772.28
3796.78
3808.27
3810.75
3806.41
3795.13
3774.24
3738.41
3685.21
3607.75
3507.89
3382.65
3247.29
3106.96
2974.47
2850.9
2741.16
2636.88
2545.34
2462.66
2394.03
2344.93
2180.09
11405.7
10433.2
2386.53
2676.37
2828.92
2935.99
3021.13
3092.52
3165.73
3240.78
3324.65
3417.1
3517.26
3619.3
3711
3787.59
3843.27
3880.5
3902.98
3913.35
3915.08
3910.63
3899.73
3879.47
3844.86
3792.49
3717.96
3616.82
3496.07
3358.5
3218.95
3085.72
2960.39
2848.37
2743.21
2652
2570.05
2506.48
2459.42
2302.16
12412.3
10730.6
2495.15
2835.11
2992.96
3093.05
3164.45
3221.87
3284
3351.29
3430.61
3519.67
3617.09
3714.29
3803.29
3874.97
3927.96
3962.44
3983.14
3992.42
3993.48
3988.91
3978.32
3958.66
3924.98
3874.27
3800.25
3702.44
3580.75
3446.07
3306.62
3172.56
3047.96
2934.88
2830.34
2739.85
2662.31
2603.6
2559.46
2441.25
13443.2
11450.7
2601.6
3012.27
3158.79
3249.5
3295.23
3333.39
3380.46
3437.62
3510.59
3595.46
3689.51
3783.69
3868.72
3937.57
3987.51
4019.91
4039.02
4047.38
4047.87
4043.18
4032.81
4013.59
3980.82
3931.05
3858.77
3761.46
3642.15
3507.62
3369.09
3235.33
3110.65
2996.35
2892.43
2801.88
2728.39
2672.39
2631.58
2577.22
14394.6
10553.6
2703.15
3208.84
3347.46
3414.88
3418.07
3427.83
3456.15
3502.62
3567.9
3648.44
3739.4
3830.87
3913.34
3979.54
4027.34
4058.01
4075.89
4083.52
4083.57
4078.76
4068.53
4049.64
4017.49
3968.61
3897.2
3801.22
3682.63
3549.21
3411.27
3277.59
3153.05
3038.15
2934
2842.8
2771.9
2718.37
2679.6
2695.47
15255.6
9982.63
2804.13
3439.31
3580.81
3594.87
3537.36
3502.6
3514.2
3549.72
3606.44
3683.53
3771.87
3861.59
3942.24
4006.71
4052.93
4082.38
4099.37
4106.49
4106.24
4101.33
4091.17
4072.49
4040.79
3992.47
3921.79
3826.49
3708.66
3575.82
3438.27
3304.84
3180.27
3064.95
2960.24
2868.03
2798.5
2746.1
2708.76
2786.73
15913.7
9268.75
3171.31
3730.65
3915.89
3793.62
3643.85
3553.74
3554.77
3580.21
3631.2
3704.91
3791.44
3879.98
3959.45
4022.74
4067.9
4096.51
4112.89
4119.66
4119.19
4114.2
4104.09
4085.55
4054.13
4006.22
3936.03
3841.27
3723.99
3591.65
3454.5
3321.35
3196.94
3081.58
2976.64
2883.68
2815.09
2763.56
2728.26
2851.93
16377.5
)
;

boundaryField
{
    inlet
    {
        type            fixedValue;
        value           uniform 10000;
    }
    outlet
    {
        type            fixedValue;
        value           uniform 1000;
    }
    obstacle
    {
        type            zeroGradient;
    }
    empty
    {
        type            empty;
    }
}


// ************************************************************************* //
