/*--------------------------------*- C++ -*----------------------------------*\
| =========                 |                                                 |
| \\      /  F ield         | OpenFOAM: The Open Source CFD Toolbox           |
|  \\    /   O peration     | Version:  v1912                                 |
|   \\  /    A nd           | Website:  www.openfoam.com                      |
|    \\/     M anipulation  |                                                 |
\*---------------------------------------------------------------------------*/
FoamFile
{
    version     2.0;
    format      ascii;
    class       volScalarField;
    location    "3.28";
    object      T;
}
// * * * * * * * * * * * * * * * * * * * * * * * * * * * * * * * * * * * * * //

dimensions      [0 0 0 1 0 0 0];


internalField   nonuniform List<scalar> 
1900
(
1.1536
1.0231
1.02964
1.03764
1.0413
1.04292
1.04417
1.0461
1.04868
1.05034
1.1536
1.0231
1.02965
1.03766
1.04132
1.04289
1.04406
1.04561
1.04694
1.04752
1.1536
1.02311
1.02965
1.03765
1.04129
1.04283
1.044
1.04565
1.04699
1.04756
1.1536
1.0231
1.02965
1.03766
1.04132
1.04289
1.04406
1.04561
1.04694
1.04752
1.1536
1.0231
1.02964
1.03764
1.0413
1.04292
1.04417
1.0461
1.04868
1.05034
1.04624
1.04626
1.03815
1.01006
0.943614
1.04694
1.04637
1.03581
1.01175
0.964822
1.04712
1.04588
1.03445
1.00647
0.958181
1.04694
1.04637
1.03581
1.01175
0.964822
1.04624
1.04626
1.03815
1.01006
0.943614
0.982865
0.936467
0.913728
0.895872
0.870005
0.977754
0.935442
0.914573
0.897664
0.878367
0.976552
0.935214
0.913929
0.896912
0.878637
0.977754
0.935442
0.914573
0.897664
0.878367
0.982865
0.936467
0.913728
0.895872
0.870005
0.792994
0.702342
0.760505
0.781905
0.766112
0.752052
0.745186
0.745127
0.7465
0.749295
0.753515
0.758439
0.76342
0.76782
0.771272
0.773706
0.775239
0.776123
0.7765
0.776483
0.776212
0.775656
0.774639
0.772926
0.770312
0.766447
0.761149
0.754457
0.74672
0.738483
0.730258
0.722354
0.714833
0.707811
0.701387
0.696587
0.69342
0.68997
0.631179
0.536521
0.861918
0.736312
0.772899
0.785553
0.768057
0.752499
0.745359
0.745225
0.746603
0.749377
0.753585
0.758499
0.763475
0.767871
0.771319
0.773749
0.775279
0.776162
0.776537
0.77652
0.776249
0.775693
0.774676
0.772964
0.77035
0.766487
0.761191
0.754501
0.746767
0.738533
0.730309
0.722406
0.714886
0.707862
0.701435
0.69665
0.693481
0.690034
0.630896
0.536922
0.858585
0.759645
0.782073
0.788189
0.769098
0.752753
0.745467
0.745312
0.746668
0.74943
0.753629
0.758535
0.763506
0.767897
0.771342
0.773769
0.775297
0.776178
0.776554
0.776535
0.776264
0.775709
0.774692
0.772981
0.770369
0.766508
0.761215
0.754529
0.746799
0.73857
0.730353
0.722459
0.714948
0.707935
0.70152
0.696758
0.693609
0.690185
0.631101
0.539194
0.861918
0.736312
0.772899
0.785553
0.768057
0.752499
0.745359
0.745225
0.746603
0.749377
0.753585
0.758499
0.763475
0.767871
0.771319
0.773749
0.775279
0.776162
0.776537
0.77652
0.776249
0.775693
0.774676
0.772964
0.77035
0.766487
0.761191
0.754501
0.746767
0.738533
0.730309
0.722406
0.714886
0.707862
0.701435
0.69665
0.693481
0.690034
0.630896
0.536922
0.792994
0.702342
0.760505
0.781905
0.766112
0.752052
0.745186
0.745127
0.7465
0.749295
0.753515
0.758439
0.76342
0.76782
0.771272
0.773706
0.775239
0.776123
0.7765
0.776483
0.776212
0.775656
0.774639
0.772926
0.770312
0.766447
0.761149
0.754457
0.74672
0.738483
0.730258
0.722354
0.714833
0.707811
0.701387
0.696587
0.69342
0.68997
0.631179
0.536521
0.606676
0.653203
0.747919
0.768226
0.759163
0.74955
0.744176
0.744308
0.745804
0.748773
0.753062
0.75804
0.763051
0.767479
0.770958
0.773416
0.774968
0.775865
0.77625
0.776237
0.775967
0.77541
0.774389
0.772669
0.770044
0.766166
0.760854
0.754146
0.746393
0.738141
0.729902
0.721989
0.714461
0.70745
0.701049
0.696194
0.693022
0.689654
0.632335
0.536688
0.519455
0.654173
0.737055
0.746876
0.746779
0.743186
0.741127
0.741872
0.74398
0.747316
0.751829
0.756931
0.762027
0.766535
0.77009
0.772614
0.774215
0.775149
0.775554
0.775553
0.775287
0.774725
0.773694
0.771954
0.7693
0.765385
0.760027
0.753268
0.745462
0.737158
0.728871
0.720918
0.713364
0.706342
0.699967
0.695009
0.691731
0.688419
0.632081
0.533851
0.506993
0.65961
0.724667
0.731985
0.735635
0.735889
0.736587
0.738344
0.741134
0.745025
0.749778
0.755066
0.760292
0.764928
0.768598
0.771221
0.772897
0.773883
0.774319
0.774335
0.774073
0.773504
0.772457
0.770685
0.767988
0.764014
0.758592
0.751755
0.743874
0.735499
0.727149
0.719149
0.711573
0.704544
0.698198
0.693097
0.68969
0.686474
0.631825
0.529718
0.513063
0.654244
0.71169
0.719737
0.725192
0.728224
0.730723
0.733665
0.737161
0.741578
0.746646
0.752169
0.7576
0.762421
0.766269
0.769031
0.770815
0.771875
0.772354
0.772394
0.772137
0.771557
0.770485
0.768665
0.7659
0.76185
0.756311
0.749379
0.741366
0.732883
0.72445
0.716365
0.708754
0.70167
0.695304
0.68995
0.686299
0.683157
0.630671
0.524159
0.503457
0.646871
0.699277
0.708698
0.715038
0.719856
0.72364
0.727599
0.731808
0.736703
0.742108
0.747912
0.753595
0.758706
0.762761
0.765725
0.767644
0.768804
0.769338
0.76941
0.769157
0.768559
0.767451
0.765562
0.762716
0.758522
0.752893
0.745739
0.737617
0.728966
0.720398
0.712201
0.70456
0.697326
0.690864
0.685117
0.681168
0.678005
0.627878
0.517951
0.499472
0.638597
0.687804
0.697389
0.704489
0.710393
0.715208
0.72
0.724821
0.730121
0.735857
0.74195
0.748031
0.753393
0.7578
0.760965
0.763069
0.764346
0.764949
0.765061
0.764811
0.764186
0.763028
0.761059
0.758075
0.753787
0.74787
0.740651
0.732207
0.723384
0.714702
0.70629
0.698558
0.691121
0.684461
0.678246
0.67377
0.670537
0.62265
0.510986
0.495656
0.629566
0.676759
0.685788
0.693691
0.700173
0.70568
0.711049
0.716258
0.721831
0.727859
0.734304
0.740655
0.746514
0.751156
0.754642
0.756925
0.758344
0.759023
0.75918
0.758932
0.758272
0.757055
0.754976
0.751883
0.747331
0.741362
0.733703
0.725194
0.716104
0.707244
0.698726
0.690943
0.683361
0.676488
0.670033
0.66493
0.661545
0.615941
0.504157
0.48981
0.619975
0.665579
0.673812
0.681995
0.689043
0.695157
0.700912
0.706392
0.712193
0.718469
0.725175
0.731998
0.738113
0.743207
0.74692
0.749428
0.750987
0.751747
0.751951
0.751703
0.751005
0.749722
0.747541
0.744271
0.739616
0.733274
0.72557
0.716723
0.707505
0.698617
0.689959
0.682147
0.674535
0.667518
0.660803
0.6552
0.651646
0.607924
0.497036
0.484666
0.611183
0.655094
0.662633
0.670995
0.678378
0.684852
0.690687
0.696221
0.70207
0.708529
0.715468
0.722544
0.729062
0.734419
0.738416
0.741108
0.742802
0.743639
0.743888
0.743642
0.74291
0.741568
0.739288
0.735905
0.731049
0.724614
0.716642
0.707773
0.698514
0.689605
0.681034
0.673307
0.665766
0.658702
0.651817
0.645925
0.642306
0.600786
0.490508
0.479643
0.602483
0.64488
0.651921
0.660237
0.66774
0.674431
0.680273
0.685866
0.691858
0.698429
0.705659
0.713006
0.719873
0.725509
0.729745
0.732599
0.734414
0.735316
0.735605
0.735364
0.734609
0.733224
0.73087
0.727395
0.722404
0.715833
0.707691
0.698787
0.689441
0.680687
0.67211
0.664465
0.656957
0.649835
0.642736
0.636575
0.63293
0.593044
0.484055
0.475173
0.594733
0.635659
0.642421
0.650524
0.658097
0.664891
0.67072
0.676349
0.68232
0.68908
0.696406
0.704019
0.711068
0.716953
0.721348
0.724345
0.72626
0.727221
0.72755
0.727319
0.72655
0.725135
0.722731
0.719181
0.714141
0.707443
0.6993
0.690339
0.681119
0.672413
0.663983
0.656408
0.64897
0.641808
0.634508
0.628084
0.624371
0.586666
0.478283
0.470999
0.587362
0.626928
0.633532
0.641169
0.648767
0.655483
0.66129
0.666991
0.673059
0.679968
0.687497
0.69534
0.702655
0.708804
0.713391
0.716522
0.718527
0.71954
0.719909
0.719692
0.718915
0.717482
0.715039
0.711424
0.706271
0.699457
0.691168
0.682234
0.672994
0.664413
0.656058
0.648547
0.641125
0.633886
0.626347
0.619657
0.615906
0.579864
0.472806
0.467309
0.580543
0.618536
0.624924
0.632421
0.64007
0.64671
0.65259
0.658423
0.664634
0.671719
0.679415
0.687433
0.694955
0.70123
0.705923
0.709118
0.711186
0.712239
0.712649
0.712451
0.71167
0.710235
0.707776
0.70416
0.698965
0.692146
0.683756
0.67487
0.66564
0.657143
0.648839
0.641321
0.633858
0.626489
0.618722
0.611757
0.607915
0.573896
0.468105
0.463554
0.574066
0.610408
0.616417
0.62374
0.631507
0.637959
0.643987
0.649987
0.656353
0.663652
0.671478
0.679688
0.687424
0.69398
0.698918
0.702239
0.704386
0.705472
0.705925
0.705748
0.704967
0.703541
0.701053
0.697371
0.691999
0.685
0.676496
0.667622
0.658409
0.649974
0.641657
0.634104
0.626555
0.619024
0.611022
0.603798
0.599923
0.567697
0.463618
0.460712
0.567465
0.601967
0.607572
0.614819
0.622706
0.629264
0.635514
0.641746
0.648461
0.656026
0.664116
0.67264
0.680675
0.687561
0.692662
0.696104
0.698303
0.699394
0.699854
0.699704
0.698964
0.697577
0.695085
0.691335
0.685844
0.678618
0.669892
0.660867
0.651547
0.643048
0.634639
0.626952
0.619237
0.611492
0.603281
0.595818
0.591924
0.561768
0.460307
0.456734
0.561256
0.593626
0.598774
0.605951
0.61385
0.620442
0.626978
0.633544
0.640682
0.64874
0.657201
0.666085
0.674438
0.681794
0.68736
0.691142
0.693589
0.694836
0.695398
0.695276
0.694489
0.693002
0.690318
0.686295
0.680376
0.672774
0.663749
0.654551
0.64498
0.636252
0.62758
0.619629
0.611639
0.603665
0.595279
0.587608
0.583807
0.555816
0.456122
0.457088
0.55545
0.585772
0.590187
0.597404
0.605384
0.612301
0.619306
0.626353
0.633949
0.642537
0.651413
0.660969
0.669902
0.677798
0.683674
0.687784
0.690435
0.691782
0.692393
0.692301
0.691515
0.689981
0.687135
0.682849
0.676609
0.668624
0.659032
0.649369
0.639463
0.630472
0.621535
0.613287
0.605013
0.59678
0.588186
0.580302
0.576975
0.551171
0.456915
0.463217
0.554781
0.584353
0.586861
0.593302
0.600985
0.608158
0.615391
0.622663
0.63044
0.639153
0.648145
0.657961
0.666879
0.67477
0.680583
0.684546
0.687058
0.688339
0.689126
0.689047
0.688114
0.686671
0.683969
0.679842
0.673645
0.665681
0.656146
0.646406
0.636446
0.627409
0.618471
0.610159
0.601874
0.593635
0.58512
0.577822
0.575816
0.550718
0.46325
0.449799
0.532707
0.561672
0.562381
0.566054
0.57109
0.575637
0.580925
0.58593
0.592034
0.598622
0.605687
0.613192
0.619701
0.624737
0.6278
0.629213
0.629703
0.629485
0.631507
0.631456
0.629336
0.629441
0.628763
0.627202
0.623703
0.618617
0.61141
0.604047
0.59579
0.589011
0.581745
0.575585
0.569141
0.56307
0.556783
0.551724
0.550987
0.525238
0.439599
0.386149
0.442922
0.467936
0.460745
0.459405
0.462866
0.465697
0.470008
0.474568
0.480156
0.486072
0.492679
0.499333
0.506368
0.512989
0.519584
0.525208
0.530107
0.532866
0.535969
0.53598
0.532864
0.5301
0.525185
0.519546
0.512902
0.506263
0.499124
0.492446
0.485669
0.479621
0.473836
0.468924
0.464254
0.460773
0.456396
0.457086
0.463342
0.440728
0.383342
0.386149
0.442922
0.467936
0.460745
0.459405
0.462866
0.465697
0.470008
0.474568
0.480156
0.486072
0.492679
0.499333
0.506368
0.512989
0.519584
0.525208
0.530107
0.532866
0.535969
0.53598
0.532864
0.5301
0.525185
0.519546
0.512902
0.506263
0.499124
0.492446
0.485669
0.479621
0.473836
0.468924
0.464254
0.460773
0.456396
0.457086
0.463342
0.440728
0.383342
0.449799
0.532707
0.561672
0.562381
0.566054
0.57109
0.575637
0.580925
0.58593
0.592034
0.598622
0.605687
0.613192
0.619701
0.624737
0.6278
0.629213
0.629703
0.629485
0.631507
0.631456
0.629336
0.629441
0.628763
0.627202
0.623703
0.618617
0.61141
0.604047
0.59579
0.589011
0.581745
0.575585
0.569141
0.56307
0.556783
0.551724
0.550987
0.525238
0.439599
0.463217
0.554781
0.584353
0.586861
0.593302
0.600985
0.608158
0.615391
0.622663
0.63044
0.639153
0.648145
0.657961
0.666879
0.67477
0.680583
0.684546
0.687058
0.688339
0.689126
0.689047
0.688114
0.686671
0.683969
0.679842
0.673645
0.665681
0.656146
0.646406
0.636446
0.627409
0.618471
0.610159
0.601874
0.593635
0.58512
0.577822
0.575816
0.550718
0.46325
0.457088
0.55545
0.585772
0.590187
0.597404
0.605384
0.612301
0.619306
0.626353
0.633949
0.642537
0.651413
0.660969
0.669902
0.677798
0.683674
0.687784
0.690435
0.691782
0.692393
0.692301
0.691515
0.689981
0.687135
0.682849
0.676609
0.668624
0.659032
0.649369
0.639463
0.630472
0.621535
0.613287
0.605013
0.59678
0.588186
0.580302
0.576975
0.551171
0.456915
0.456734
0.561256
0.593626
0.598774
0.605951
0.61385
0.620442
0.626978
0.633544
0.640682
0.64874
0.657201
0.666085
0.674438
0.681794
0.68736
0.691142
0.693589
0.694836
0.695398
0.695276
0.694489
0.693002
0.690318
0.686295
0.680376
0.672774
0.663749
0.654551
0.64498
0.636252
0.62758
0.619629
0.611639
0.603665
0.595279
0.587608
0.583807
0.555816
0.456122
0.460712
0.567465
0.601967
0.607572
0.614819
0.622706
0.629264
0.635514
0.641746
0.648461
0.656026
0.664116
0.67264
0.680675
0.687561
0.692662
0.696104
0.698303
0.699394
0.699854
0.699704
0.698964
0.697577
0.695085
0.691335
0.685844
0.678618
0.669892
0.660867
0.651547
0.643048
0.634639
0.626952
0.619237
0.611492
0.603281
0.595818
0.591924
0.561768
0.460307
0.463554
0.574066
0.610408
0.616417
0.62374
0.631507
0.637959
0.643987
0.649987
0.656353
0.663652
0.671478
0.679688
0.687424
0.69398
0.698918
0.702239
0.704386
0.705472
0.705925
0.705748
0.704967
0.703541
0.701053
0.697371
0.691999
0.685
0.676496
0.667622
0.658409
0.649974
0.641657
0.634104
0.626555
0.619024
0.611022
0.603798
0.599923
0.567697
0.463618
0.467309
0.580543
0.618536
0.624924
0.632421
0.64007
0.64671
0.65259
0.658423
0.664634
0.671719
0.679415
0.687433
0.694955
0.70123
0.705923
0.709118
0.711186
0.712239
0.712649
0.712451
0.71167
0.710235
0.707776
0.70416
0.698965
0.692146
0.683756
0.67487
0.66564
0.657143
0.648839
0.641321
0.633858
0.626489
0.618722
0.611757
0.607915
0.573896
0.468105
0.470999
0.587362
0.626928
0.633532
0.641169
0.648767
0.655483
0.66129
0.666991
0.673059
0.679968
0.687497
0.69534
0.702655
0.708804
0.713391
0.716522
0.718527
0.71954
0.719909
0.719692
0.718915
0.717482
0.715039
0.711424
0.706271
0.699457
0.691168
0.682234
0.672994
0.664413
0.656058
0.648547
0.641125
0.633886
0.626347
0.619657
0.615906
0.579864
0.472806
0.475173
0.594733
0.635659
0.642421
0.650524
0.658097
0.664891
0.67072
0.676349
0.68232
0.68908
0.696406
0.704019
0.711068
0.716953
0.721348
0.724345
0.72626
0.727221
0.72755
0.727319
0.72655
0.725135
0.722731
0.719181
0.714141
0.707443
0.6993
0.690339
0.681119
0.672413
0.663983
0.656408
0.64897
0.641808
0.634508
0.628084
0.624371
0.586666
0.478283
0.479643
0.602483
0.64488
0.651921
0.660237
0.66774
0.674431
0.680273
0.685866
0.691858
0.698429
0.705659
0.713006
0.719873
0.725509
0.729745
0.732599
0.734414
0.735316
0.735605
0.735364
0.734609
0.733224
0.73087
0.727395
0.722404
0.715833
0.707691
0.698787
0.689441
0.680687
0.67211
0.664465
0.656957
0.649835
0.642736
0.636575
0.63293
0.593044
0.484055
0.484666
0.611183
0.655094
0.662633
0.670995
0.678378
0.684852
0.690687
0.696221
0.70207
0.708529
0.715468
0.722544
0.729062
0.734419
0.738416
0.741108
0.742802
0.743639
0.743888
0.743642
0.74291
0.741568
0.739288
0.735905
0.731049
0.724614
0.716642
0.707773
0.698514
0.689605
0.681034
0.673307
0.665766
0.658702
0.651817
0.645925
0.642306
0.600786
0.490508
0.48981
0.619975
0.665579
0.673812
0.681995
0.689043
0.695157
0.700912
0.706392
0.712193
0.718469
0.725175
0.731998
0.738113
0.743207
0.74692
0.749428
0.750987
0.751747
0.751951
0.751703
0.751005
0.749722
0.747541
0.744271
0.739616
0.733274
0.72557
0.716723
0.707505
0.698617
0.689959
0.682147
0.674535
0.667518
0.660803
0.6552
0.651646
0.607924
0.497036
0.495656
0.629566
0.676759
0.685788
0.693691
0.700173
0.70568
0.711049
0.716258
0.721831
0.727859
0.734304
0.740655
0.746514
0.751156
0.754642
0.756925
0.758344
0.759023
0.75918
0.758932
0.758272
0.757055
0.754976
0.751883
0.747331
0.741362
0.733703
0.725194
0.716104
0.707244
0.698726
0.690943
0.683361
0.676488
0.670033
0.66493
0.661545
0.615941
0.504157
0.499472
0.638597
0.687804
0.697389
0.704489
0.710393
0.715208
0.72
0.724821
0.730121
0.735857
0.74195
0.748031
0.753393
0.7578
0.760965
0.763069
0.764346
0.764949
0.765061
0.764811
0.764186
0.763028
0.761059
0.758075
0.753787
0.74787
0.740651
0.732207
0.723384
0.714702
0.70629
0.698558
0.691121
0.684461
0.678246
0.67377
0.670537
0.62265
0.510986
0.503457
0.646871
0.699277
0.708698
0.715038
0.719856
0.72364
0.727599
0.731808
0.736703
0.742108
0.747912
0.753595
0.758706
0.762761
0.765725
0.767644
0.768804
0.769338
0.76941
0.769157
0.768559
0.767451
0.765562
0.762716
0.758522
0.752893
0.745739
0.737617
0.728966
0.720398
0.712201
0.70456
0.697326
0.690864
0.685117
0.681168
0.678005
0.627878
0.517951
0.513063
0.654244
0.71169
0.719737
0.725192
0.728224
0.730723
0.733665
0.737161
0.741578
0.746646
0.752169
0.7576
0.762421
0.766269
0.769031
0.770815
0.771875
0.772354
0.772394
0.772137
0.771557
0.770485
0.768665
0.7659
0.76185
0.756311
0.749379
0.741366
0.732883
0.72445
0.716365
0.708754
0.70167
0.695304
0.68995
0.686299
0.683157
0.630671
0.524159
0.506993
0.65961
0.724667
0.731985
0.735635
0.735889
0.736587
0.738344
0.741134
0.745025
0.749778
0.755066
0.760292
0.764928
0.768598
0.771221
0.772897
0.773883
0.774319
0.774335
0.774073
0.773504
0.772457
0.770685
0.767988
0.764014
0.758592
0.751755
0.743874
0.735499
0.727149
0.719149
0.711573
0.704544
0.698198
0.693097
0.68969
0.686474
0.631825
0.529718
0.519455
0.654173
0.737055
0.746876
0.746779
0.743186
0.741127
0.741872
0.74398
0.747316
0.751829
0.756931
0.762027
0.766535
0.77009
0.772614
0.774215
0.775149
0.775554
0.775553
0.775287
0.774725
0.773694
0.771954
0.7693
0.765385
0.760027
0.753268
0.745462
0.737158
0.728871
0.720918
0.713364
0.706342
0.699967
0.695009
0.691731
0.688419
0.632081
0.533851
0.606676
0.653203
0.747919
0.768226
0.759163
0.74955
0.744176
0.744308
0.745804
0.748773
0.753062
0.75804
0.763051
0.767479
0.770958
0.773416
0.774968
0.775865
0.77625
0.776237
0.775967
0.77541
0.774389
0.772669
0.770044
0.766166
0.760854
0.754146
0.746393
0.738141
0.729902
0.721989
0.714461
0.70745
0.701049
0.696194
0.693022
0.689654
0.632335
0.536688
)
;

boundaryField
{
    inlet
    {
        type            fixedValue;
        value           uniform 1;
    }
    outlet
    {
        type            zeroGradient;
    }
    obstacle
    {
        type            zeroGradient;
    }
    empty
    {
        type            empty;
    }
}


// ************************************************************************* //
