/*--------------------------------*- C++ -*----------------------------------*\
| =========                 |                                                 |
| \\      /  F ield         | OpenFOAM: The Open Source CFD Toolbox           |
|  \\    /   O peration     | Version:  v1912                                 |
|   \\  /    A nd           | Website:  www.openfoam.com                      |
|    \\/     M anipulation  |                                                 |
\*---------------------------------------------------------------------------*/
FoamFile
{
    version     2.0;
    format      ascii;
    class       volScalarField;
    location    "9.6";
    object      s;
}
// * * * * * * * * * * * * * * * * * * * * * * * * * * * * * * * * * * * * * //

dimensions      [0 2 -2 0 0 0 0];


internalField   nonuniform List<scalar> 
10000
(
-1.19413e-14
2.51104e-12
-4.48772e-11
-1.57216e-09
3.45124e-08
-3.87891e-07
1.07045e-05
-2.53546e-06
-2.60181e-05
7.50971e-05
-0.000125967
0.000160305
-0.000164869
0.000137446
-8.21909e-05
-3.91631e-05
6.11232e-05
-0.000177291
0.000486758
-0.00033893
0.000616452
-0.000661533
0.000667724
-0.000945632
0.00069373
-0.001017
0.000794574
-0.000905221
0.000879843
-0.000749425
0.000841435
-0.000626425
0.000694375
-0.000514267
0.000500888
-0.000383596
0.000304132
-0.000232745
0.000124517
-7.63754e-05
-2.70937e-05
6.74985e-05
-0.000142819
0.000181852
-0.000217919
0.000251801
-0.000251197
0.000266677
-0.000243514
0.0002231
-0.000196492
0.000127309
-0.000113498
-4.83337e-06
-2.84472e-06
-0.000150257
0.000118724
-0.00028207
0.000224931
-0.000371858
0.000283159
-0.000389687
0.000261657
-0.000303453
0.00013867
-8.46428e-05
-8.71289e-05
0.000268226
-0.000381912
0.000685532
-0.000654699
0.000988713
-0.000738365
0.000926057
-0.000428832
0.000337813
0.000327866
-0.000664833
0.00119718
-0.000980118
0.000787199
-9.2181e-06
-0.00053602
0.000423464
-0.000103775
-5.81605e-05
7.61055e-06
-4.83473e-05
-2.28675e-05
-1.13913e-05
-7.83579e-06
-1.65576e-06
7.72793e-07
5.5118e-07
2.54784e-08
1.88959e-12
-4.474e-10
-6.48936e-11
-2.4302e-12
-1.10809e-14
-2.31108e-12
3.09003e-10
-8.73334e-09
-1.02172e-07
5.03034e-06
-8.98427e-05
-0.000934009
0.00101733
-0.000519492
-0.000549633
0.00187417
-0.00319086
0.00424628
-0.0046028
0.00552042
-0.00441032
0.00221117
-0.00919298
0.0017205
0.00149438
0.00491089
0.00299572
0.0031223
0.00620317
-0.00120777
0.00333193
-0.00831536
0.000780033
-0.0114087
0.00351235
-0.00968522
0.00752733
-0.00789252
0.00987865
-0.00764165
0.0106812
-0.00807853
0.0107557
-0.00848325
0.0104215
-0.00874284
0.00955176
-0.00890036
0.00810192
-0.00884651
0.0063242
-0.00830876
0.00457976
-0.0070143
0.0030741
-0.00489241
0.00175223
-0.00217749
0.000369132
0.000672151
-0.00133241
0.00320613
-0.00341075
0.00524267
-0.00559811
0.00701064
-0.0073712
0.00898326
-0.00815094
0.0112276
-0.00739969
0.0125311
-0.00458713
0.010324
0.000762833
0.00244444
0.00856271
-0.00938416
0.016482
-0.0182862
0.0199023
-0.0221657
0.0196997
-0.00981105
-0.00631715
0.0261246
-0.0362113
0.0125498
0.00862443
-0.0108323
0.00264435
-0.00112255
-0.00170348
0.000398897
-8.94752e-05
-9.4378e-05
0.000115502
0.000119643
6.51407e-05
-7.59321e-07
1.70105e-07
5.82067e-08
6.99821e-09
2.9073e-10
2.50149e-12
-1.85389e-11
5.84491e-09
-5.25153e-07
8.02674e-06
-5.54727e-05
0.00690047
0.0067481
-0.012074
0.0118247
-0.00769154
0.00208586
0.00412091
-0.0117113
0.0150521
-0.0125505
0.0295619
-0.00106019
0.00507805
-0.0627748
-0.00161711
0.00384538
0.0208241
-0.0369658
-0.00662336
0.00807384
0.0344113
0.0315992
0.0346877
0.00531085
-0.00156007
-0.0100046
-0.0127443
-0.00891828
-0.00725125
-0.005007
-0.00653238
-0.00507992
-0.0108679
-0.00812083
-0.0144095
-0.00769417
-0.0143501
-0.000750312
-0.0104689
0.00994717
-0.0044405
0.0197561
0.000277187
0.0256972
0.000233985
0.0267799
-0.00547843
0.0233285
-0.0143431
0.0172802
-0.0217534
0.012229
-0.023135
0.0115256
-0.0160098
0.0159769
-0.00275471
0.0241549
0.00754006
0.0337922
0.00453887
0.0397266
-0.0106784
0.0334063
-0.0209056
0.00808754
-0.00211312
-0.0376534
0.039734
-0.0657992
0.00385215
0.012312
-0.083232
-0.00414315
0.199067
-0.190423
-0.0471031
0.169157
-0.097836
-0.0110594
0.0253273
-0.0270916
0.00811392
0.0101394
-0.00459307
0.00107582
0.0025978
0.00146539
0.000621385
-0.000434584
-2.21694e-05
-2.34562e-06
-2.00008e-07
-7.43991e-09
-7.20279e-11
2.09331e-09
-1.9899e-07
-5.29928e-06
0.000221093
-0.0138902
-0.0549063
0.0171159
0.010762
-0.0199218
0.0159249
-0.0105564
0.00729145
-0.00259651
-0.0301167
0.0088051
0.0128913
0.055832
0.03669
-0.0250859
-0.0957498
-0.0294374
0.103507
0.100142
-0.04466
-0.0618577
-0.0360162
-0.102287
-0.00927951
0.0167711
0.00211856
0.0222576
0.0306262
-0.00277644
0.0142942
0.00184259
-0.00719798
0.0043285
0.00111216
0.00454487
0.0133917
0.0161655
0.013456
0.0309126
0.00870251
0.0330899
0.00594943
0.0222922
-0.000902971
0.0102388
-0.0179688
0.00497613
-0.036789
0.00424704
-0.0405234
0.00262773
-0.0233373
0.000105036
0.00288664
-0.00106717
0.0238593
-0.0054037
0.0371676
-0.0163261
0.0396866
-0.0129575
0.0117048
0.0299895
-0.0444385
0.074241
-0.0820059
0.0538392
-0.0872319
-0.0749995
0.00206853
-0.259915
0.141478
-0.249026
0.0888415
0.796671
-0.460343
-0.503267
0.494184
-0.0571819
-0.194635
0.144121
-0.0156089
-0.0184821
0.0758914
-0.0268249
-0.0332964
0.0240164
0.00796075
0.0010728
-0.00126984
-0.00536653
0.000735688
3.587e-05
2.35064e-06
6.59886e-08
5.62093e-10
3.30162e-08
-6.33878e-06
7.8438e-06
0.0120737
0.0909405
0.0581511
-0.0568816
0.0314214
-0.0147036
0.0170514
-0.0226193
0.0159912
0.0190531
-0.0125747
-0.0635931
-0.031716
0.013574
0.0670267
0.102883
-0.0111189
-0.0396826
-0.029654
-0.0837091
-0.204232
0.0776908
0.261393
0.0635063
-0.111707
0.0539759
-0.021546
-0.0826754
0.00158093
-0.0348729
-0.00286571
0.0207718
0.0107366
0.0351305
0.0381687
0.0510049
0.046639
0.0628039
0.0346177
0.0535529
0.0135067
0.0203517
-0.0172034
-0.0133535
-0.0573181
-0.0221863
-0.0912771
-0.0117056
-0.0951137
-0.0142807
-0.0596758
-0.0496435
-0.00530619
-0.0950119
0.0340905
-0.104387
0.0465212
-0.0590745
0.0545254
0.0105137
0.0741072
0.0662083
0.0506521
0.120685
-0.0859164
0.147039
-0.196571
-0.0184551
-0.166506
-0.0725018
0.134091
-0.0782595
0.449274
-0.172904
0.23384
-0.200021
-0.685239
1.04921
0.0198085
-0.970168
0.6217
0.572311
-0.387577
-0.159027
0.0689105
-0.127687
0.0391296
0.0795709
-0.0231214
-0.00601857
-0.00801222
-0.0120383
0.00847735
-0.000663353
-2.04625e-05
-2.12797e-07
-4.71129e-10
1.97714e-07
-0.000111527
-0.00382581
-0.0342612
-0.0769576
0.0629659
-0.0650053
0.0550232
-0.0438681
0.0286605
0.00618857
-0.042299
0.0232991
0.0943447
0.0122443
-0.0963244
-0.151534
-0.0142381
0.184664
-0.0395926
-0.234727
0.14054
0.341184
-0.0135074
-0.293568
0.075023
0.0949291
-0.252727
-0.0232246
-0.0223746
-0.190255
0.0726117
-0.0115567
-0.0201773
0.231596
-0.022488
0.24265
0.0472837
0.1242
0.0506559
0.0262536
-0.0216343
0.0123577
-0.0989764
0.0380007
-0.132214
0.0438298
-0.108771
0.00833857
-0.0429004
-0.0672532
0.031744
-0.163755
0.0814642
-0.227264
0.0952699
-0.191611
0.0895932
-0.0501857
0.086095
0.120417
0.0780668
0.23007
0.0342238
0.252997
-0.0457933
0.23976
-0.10213
0.200115
-0.0531502
0.0553467
0.101268
-0.155284
0.000131536
-0.350168
0.262743
-0.0467434
0.384519
0.317076
-0.339515
-0.159701
-0.462606
1.0898
0.828339
-1.52368
-1.07863
0.508159
0.446459
-0.0423274
0.106065
-0.00709885
-0.0491914
0.023869
-0.00758681
-0.00390545
0.0106609
-0.0031699
0.000337719
-1.27471e-06
-3.11702e-08
5.86531e-06
-0.000813463
-0.0269273
-0.0514839
-0.0191979
-0.00740717
0.0483648
-0.0559863
0.033369
-0.0215888
0.00244814
0.0389909
-0.128166
0.0533703
0.184791
0.0970816
-0.0476946
-0.140038
-0.06252
0.195893
-0.0701296
-0.166674
0.0102499
-0.0333324
-0.0411823
0.0155507
0.0897405
-0.0695559
0.0775631
-0.137417
0.105011
0.0282049
0.0899405
0.0399349
0.0945305
-0.0848696
0.0372485
-0.17213
0.0212369
-0.172575
0.0125202
-0.116271
-0.0315406
-0.0205025
-0.0864011
0.0978128
-0.112829
0.187821
-0.113263
0.208222
-0.108453
0.177633
-0.0845954
0.143598
-0.00740817
0.113981
0.11215
0.0647973
0.200124
-0.00149598
0.205185
-0.062316
0.173713
-0.10459
0.163429
-0.0888856
0.140708
-0.010971
0.0506292
0.0575837
-0.150866
0.0572765
-0.25155
-0.0636637
-0.0997477
-0.0253528
-0.476879
-0.0802009
-0.00268621
-0.0248137
0.203301
-0.724399
-0.677887
-1.08693
-0.778367
1.31761
1.59226
0.141336
-0.502884
-0.102744
-0.0129122
0.029695
-0.00548287
-0.0303986
0.00528444
-0.00420501
0.011801
-0.0021948
-1.18319e-05
7.33948e-07
0.00028499
0.0182309
0.105043
-0.0260516
0.0240243
-0.0349799
0.0224011
-0.00794461
0.0277481
0.00486753
-0.0267899
0.0334519
-0.0921258
-0.0544911
-0.0163857
0.258068
-0.0767469
-0.044763
-0.129138
0.159448
0.26537
-0.143088
0.199298
-0.0262307
0.0229758
-0.146539
0.0748866
-0.0425081
0.057867
0.0745652
-0.00568739
0.0796533
-0.130138
-0.0404676
-0.206927
-0.0738193
-0.261691
-0.0112274
-0.267261
0.081918
-0.20691
0.138174
-0.116972
0.147988
-0.0584493
0.124033
-0.0518471
0.0861137
-0.0610775
0.0626956
-0.0399514
0.0562174
0.0210078
0.0390057
0.106106
-0.00733403
0.193079
-0.0622848
0.235787
-0.0954479
0.191393
-0.109185
0.0805607
-0.124165
-0.0509245
-0.146719
-0.201686
-0.0844092
-0.282118
0.0533127
-0.210604
0.0192489
-0.140879
-0.294294
-0.275107
-0.196205
-0.494051
-0.0814044
-0.317225
-0.423407
0.0878746
0.0225131
1.15551
1.12088
0.86573
1.39189
0.322681
-1.23548
-0.807934
0.158544
0.068861
-0.0718857
-0.0870925
0.0329605
0.0365457
-0.00492496
0.0111414
-0.0134718
0.0014309
-1.4345e-05
-0.00174409
-0.0389486
0.014952
0.156748
-0.155645
0.0831258
-0.0396399
-0.00349345
-0.0830269
0.0576327
0.0268289
-0.00283256
-0.0674486
-0.283108
0.0534721
0.110792
0.28039
-0.3412
0.050479
0.0206095
-0.137306
-0.144441
-0.194288
-0.00663153
-0.360801
0.30053
-0.054063
0.422831
-0.00319951
0.292346
-0.0726091
0.133215
-0.17468
0.0113902
-0.11055
-0.0822393
-0.00865183
-0.105498
-0.00183785
-0.06732
-0.0780738
-0.0181519
-0.160993
0.00861944
-0.207832
-0.00364601
-0.208407
-0.0367222
-0.179864
-0.0618802
-0.129838
-0.0708332
-0.0582941
-0.0655236
0.0207362
-0.0471918
0.0814017
-0.0216151
0.103007
-0.00465861
0.0996131
-0.0214109
0.10956
-0.0425191
0.155994
0.00627307
0.174137
0.0678227
0.0276763
0.0512952
-0.135226
0.00185525
-0.0306782
0.0974767
0.0815935
0.331902
0.197924
0.42962
0.645046
0.570566
1.09999
0.416308
0.23905
-0.0751875
-0.455213
0.0089112
-0.915205
-1.49272
-0.292745
0.503527
0.147298
-0.0496622
0.0266321
0.136819
-0.00870514
-0.0432664
-0.0146129
0.000557774
0.00302757
-0.000117149
0.00265527
-0.00543163
-0.238658
-0.025763
-0.0180995
0.0704283
-0.00604348
0.0425237
0.0919537
-0.234954
0.189003
-0.172242
0.309982
-0.33866
-0.314569
0.0104884
0.245656
0.362907
-0.132613
0.337798
-0.244524
0.260651
-0.050664
-0.00180206
0.173123
0.241665
0.150118
0.109012
0.0816459
0.0529826
0.0252447
0.00973791
-0.018162
0.0585386
-0.0386516
0.0666005
-0.0248086
-0.000501755
-0.0222959
-0.0607005
-0.0199426
-0.0765016
-0.0188143
-0.06388
-0.0217505
-0.0559832
-0.0113643
-0.0661037
0.015073
-0.0856115
0.048657
-0.099558
0.0905808
-0.0944926
0.138479
-0.0761083
0.178862
-0.0640546
0.199256
-0.064384
0.184723
-0.0581652
0.0994512
-0.0181024
-0.0710724
0.0865585
-0.207394
0.277327
-0.160635
0.367255
-0.0284638
0.137303
-0.040155
-0.173149
-0.259987
-0.188704
-0.311578
-0.379868
-0.299094
-0.535129
-0.172485
-0.410385
-0.0612058
-0.147949
-0.570641
-0.0491625
-0.676247
-0.728896
0.441687
0.792049
0.295565
-0.0302737
-0.0228067
0.0614323
-0.0730202
-0.0158513
0.0237401
0.0147217
-0.00158001
-0.000114983
0.000558558
0.0819366
0.201192
-0.0234722
0.00470728
-0.0639741
0.0122204
-0.0237262
0.146904
0.0741513
0.0221129
0.278686
0.00406493
0.216026
-0.519006
-0.161184
0.145895
-0.150168
0.195694
-0.104381
-0.074737
-0.115618
-0.237241
-0.0167928
0.0377558
0.181921
0.00889478
0.232012
0.0859347
0.109362
0.119871
-0.00276833
0.156226
-0.0298435
0.141048
0.000230135
0.111062
0.0440793
0.101296
0.095247
0.0892801
0.118461
0.0539262
0.0958486
-0.00444806
0.0369138
-0.0659574
-0.0379662
-0.105405
-0.0993649
-0.107724
-0.126017
-0.0775195
-0.12059
-0.0333888
-0.105645
0.00600469
-0.102787
0.0278774
-0.110691
0.0250615
-0.107154
-0.00535373
-0.0881249
-0.0606013
-0.0946861
-0.129351
-0.140198
-0.151759
-0.114833
-0.0750632
0.0353598
-0.00615391
0.239146
-0.0872809
0.220462
0.197274
0.246153
0.448323
0.228593
0.485712
-0.0157306
0.35001
0.296247
-0.113854
0.274812
-0.0870145
-0.100774
0.61427
0.723823
0.0299707
-0.207323
-0.0985717
0.00996505
-0.0529774
0.0255696
0.0114755
-0.00505504
-0.00327093
9.74247e-05
-0.00424257
-0.0708393
-0.0172465
0.0459555
0.0858724
0.0629405
-0.159581
0.126723
-0.345124
0.190722
-0.158533
0.139624
0.575412
0.0304906
0.0462182
-0.37788
0.149023
-0.0289427
-0.300526
-0.0306794
-0.198448
-0.152443
0.0989363
-0.13761
0.265886
-0.209344
0.120882
-0.135964
-0.0574805
-0.0744321
-0.13677
-0.0432506
-0.162182
-0.0642459
-0.15723
-0.0903166
-0.123187
-0.0892698
-0.0718371
-0.0802746
-0.0370529
-0.0716304
-0.0307603
-0.0571251
-0.043257
-0.0343034
-0.059235
-0.0091573
-0.0633632
0.00933354
-0.0425369
0.0158226
0.0114281
0.0105641
0.0933946
-0.00382326
0.1802
-0.0229723
0.239285
-0.0345048
0.243772
-0.0152354
0.188081
0.0556796
0.100649
0.173097
0.0248705
0.274567
-0.0264796
0.261552
-0.0292448
0.116008
-0.00915484
-0.0681328
0.0337792
-0.305101
-0.103379
-0.244291
-0.0583703
-0.181281
0.164513
-0.230143
-0.0358144
-0.03612
-0.191468
0.00292221
0.0103355
-0.311127
0.56488
0.390898
-0.303475
-0.326922
-0.0592481
0.0264689
-0.0408648
0.020639
-0.00591389
-0.00173602
-0.000684696
0.000155608
0.00467114
0.0517405
0.0609693
-0.0117859
-0.104192
0.0523553
-0.0815624
-0.0260207
0.140578
-0.413487
0.0853695
-0.161474
0.0163009
0.501856
0.0250944
0.0837194
0.320835
-0.226351
0.220051
-0.139295
-0.0780358
-0.10385
0.0175324
-0.118103
0.186474
-0.174702
0.317456
-0.0750512
0.361651
-0.00442534
0.338373
0.0146978
0.294175
0.0346025
0.270734
0.0653041
0.275419
0.0878918
0.265532
0.0838138
0.232537
0.055357
0.193644
0.0150149
0.163215
-0.0277878
0.144894
-0.0689218
0.133882
-0.107305
0.121889
-0.140729
0.100707
-0.163189
0.0634705
-0.167653
0.00472454
-0.151878
-0.0793745
-0.118426
-0.188008
-0.0741433
-0.307663
-0.0401672
-0.400504
-0.0473122
-0.401165
-0.100103
-0.265926
-0.158699
-0.052868
-0.152646
0.102139
-0.0864639
0.137501
0.0289704
-0.0331485
-0.0897285
0.0238828
-0.209954
-0.0421364
0.0712826
-0.105354
-0.01169
-0.350794
0.0098828
-0.0535365
-0.435274
0.335937
-0.106961
-0.522499
-0.41272
-0.0562057
0.0354877
-0.0115232
0.0317505
-0.00921418
0.0145246
-0.00212643
0.0001356
-0.00575233
-0.0475023
-0.00779473
0.0579358
0.0596502
-0.0863809
0.327786
-0.376199
0.242346
0.0866392
-0.307223
-0.0593113
0.0829024
0.136841
0.23621
0.157281
0.0939109
0.132665
0.0527729
0.0790709
0.0575266
0.135162
0.0109345
0.0896207
-0.0656889
0.0156458
-0.0259739
-0.0516045
-0.0977861
-0.0982555
-0.131671
-0.105501
-0.0912288
-0.0980376
-0.0175018
-0.0894081
0.0472097
-0.102591
0.0859879
-0.121154
0.102334
-0.123643
0.105449
-0.106308
0.102831
-0.07729
0.0984978
-0.0447146
0.0922127
-0.0100484
0.0819404
0.0309299
0.0678817
0.0828283
0.0545827
0.145449
0.0487714
0.211852
0.0538602
0.270045
0.0687991
0.305767
0.0949622
0.304494
0.133954
0.259263
0.169161
0.192222
0.15835
0.149409
0.0775772
0.152414
-0.0511711
0.164318
-0.159144
0.156127
0.0206441
-0.0325858
0.0996833
0.0944228
-0.14899
0.223757
-0.102899
0.45766
-0.272989
0.413982
-0.100963
-0.0289879
-0.0226154
-0.0214013
-0.401499
-0.246878
0.241089
0.124179
0.0486931
0.0128694
-0.0203823
0.0196168
-0.00755946
0.000308176
0.00460033
0.0248938
-0.027362
-0.0420431
-0.0144027
-0.305939
0.19723
0.126332
-0.0760269
-0.0316871
0.0260811
-0.262683
-0.220332
0.275497
-0.112157
0.108343
0.197825
-0.120585
0.141439
0.0446023
-0.0110995
0.0217649
-0.013374
-0.0118819
0.109884
0.0498662
0.17322
0.0067255
0.156999
0.0288587
0.133976
0.0892731
0.122889
0.14976
0.124052
0.182773
0.115455
0.187886
0.098312
0.173602
0.0796678
0.146455
0.0626782
0.112171
0.0480793
0.07672
0.0352284
0.045129
0.0214981
0.0204913
0.00284661
0.00279489
-0.0236341
-0.0115056
-0.0570208
-0.0275668
-0.0920284
-0.048686
-0.121567
-0.0747958
-0.14095
-0.103936
-0.151572
-0.131369
-0.162936
-0.144409
-0.187011
-0.119493
-0.213214
-0.0474084
-0.202782
0.0426772
-0.111499
0.0222786
0.0367715
-0.267016
0.11703
-0.209976
-0.0747262
0.113826
-0.150565
-0.0462458
-0.0783777
0.0272524
-0.118054
0.0602647
-0.0555732
-0.146316
-0.0597918
0.446467
-0.438556
0.222259
0.399906
0.129048
-0.0180494
-0.0715942
0.015641
-0.0120557
-0.00742396
0.000536336
-0.00514151
-0.0180487
0.062678
0.032575
0.214609
0.217824
-0.42845
0.101373
0.0534973
0.0586794
-0.36163
-0.0646468
-0.154386
-0.0842384
-0.00811764
0.0585191
-0.334315
-0.00195419
-0.0406465
0.02505
-0.0280102
0.0814704
0.00152158
0.0791296
0.0779813
-0.00490835
0.0393416
-0.116587
0.0274365
-0.143451
0.0454286
-0.0980977
0.0740056
-0.0557343
0.0729891
-0.0520416
0.0425682
-0.0678899
-0.0013293
-0.0719087
-0.0442327
-0.0487568
-0.0756112
-0.00207124
-0.0895985
0.0546568
-0.0850159
0.108183
-0.0636347
0.151251
-0.0279159
0.182162
0.0203271
0.200635
0.079178
0.205056
0.144011
0.194544
0.205154
0.174153
0.248331
0.157026
0.258325
0.15717
0.223167
0.17146
0.138059
0.164026
0.0288869
0.0887455
-0.0228352
-0.0682411
0.103225
-0.205358
0.359792
-0.147492
0.190624
-0.0632677
0.00103633
-0.143238
0.349849
-0.264356
0.139356
-0.228755
0.224712
-0.376153
0.426124
-0.693191
0.481999
0.093055
-0.0374316
0.3142
0.028987
0.027177
-0.188786
0.0664386
0.0407289
-0.0213819
-0.00186449
0.000637879
0.00315014
-0.0155836
-0.00217911
-0.077748
-0.258381
0.466674
0.0485863
0.135204
-0.272716
0.315248
0.0202816
-0.260219
-0.220619
0.140246
-0.349369
-0.20619
-0.047705
-0.119655
-0.0456729
0.101014
-0.184151
0.293784
-0.234447
0.278474
-0.104972
0.114135
-0.0148636
-0.00986
0.0764745
-0.0348424
0.155484
-0.026017
0.151277
-0.0418032
0.0954671
-0.0624328
0.0444444
-0.0628616
0.0279285
-0.0424187
0.0407547
-0.0151772
0.0623537
0.00404738
0.0755651
0.00629858
0.0739928
-0.0105304
0.0607487
-0.043135
0.0435441
-0.0846766
0.02957
-0.12599
0.0213666
-0.155981
0.0143616
-0.162754
-0.00175978
-0.13775
-0.0354841
-0.0825045
-0.0815527
-0.0128542
-0.113311
0.0415642
-0.0924732
0.0331952
-0.00386309
-0.087695
0.112241
-0.303915
0.138111
-0.42919
0.028812
-0.149733
0.0844582
0.0475114
0.14533
-0.135236
0.0924467
0.229429
-0.00724218
-0.0295703
0.0796935
-0.119859
0.120173
-0.360538
0.38055
-0.0919745
0.410821
-0.261401
0.0768358
0.187539
0.0309676
0.288579
-0.0477307
0.00968629
0.00164485
0.000599432
-0.00302451
-0.00212402
-0.0437735
-0.0291065
-0.0551812
-0.366312
0.269835
0.0404504
0.23992
0.10288
-0.0579691
-0.0836732
0.179079
-0.327987
-0.134501
-0.0292652
-0.19014
-0.194526
0.294744
-0.16576
0.296338
-0.0718063
-0.0224617
0.184942
-0.165843
0.163969
-0.172447
0.0808818
-0.0855466
0.0364171
-0.03509
-0.0339193
-0.0379379
-0.085647
-0.0332712
-0.0932113
-0.00266512
-0.0637275
0.0289864
-0.0226865
0.0372464
0.00856159
0.0184497
0.0221905
-0.0157662
0.0206111
-0.0499616
0.0101629
-0.0725546
-0.00286058
-0.0789212
-0.0132433
-0.0714547
-0.0166728
-0.0573996
-0.0103358
-0.0445791
0.00484427
-0.0357901
0.0215744
-0.0249513
0.0264421
0.000921703
0.00564415
0.0551051
-0.0445723
0.144741
-0.106331
0.251117
-0.13918
0.305686
-0.102423
0.211133
-0.0596673
-0.0751067
-0.170353
-0.15026
-0.10561
0.0742671
-0.00244613
-0.149746
0.0364568
0.0533698
-0.0509415
-0.0939573
0.0507932
-0.0772238
-0.203625
-0.121092
0.375368
-0.357312
-0.292162
0.422213
-0.100204
0.261119
-0.178535
-0.0685947
0.0209778
0.00326057
0.000419383
0.00129325
-0.0233999
0.0409469
-0.0501723
-0.0769617
-0.222213
-0.168967
-0.642778
0.183534
-0.027196
0.163475
-0.071935
-0.0554199
-0.265264
-0.0341597
-0.194822
-0.196339
0.207566
-0.0770266
0.0210093
-0.136474
-0.157518
0.0919616
0.0231551
-0.00427751
0.0575075
-0.0688818
0.0289546
-0.0318769
-0.0448145
-0.0398617
-0.0936241
-0.058228
-0.0621414
-0.070266
0.0100371
-0.0786254
0.0605908
-0.0949854
0.0671793
-0.122956
0.0429184
-0.156405
0.00847783
-0.187582
-0.0229547
-0.212438
-0.0465283
-0.230552
-0.0616369
-0.24277
-0.0686669
-0.24934
-0.0681879
-0.249407
-0.0620512
-0.241638
-0.0547061
-0.225539
-0.05259
-0.202699
-0.0609073
-0.176714
-0.080265
-0.15211
-0.104529
-0.135049
-0.11605
-0.13001
-0.0928975
-0.120537
-0.0257348
-0.0565062
0.0896772
0.0412948
0.0692394
-0.0636753
-0.0481104
-0.0632576
0.214746
-0.134823
0.197951
-0.100683
0.199992
-0.134417
0.0573278
0.030062
-0.0383351
0.00513988
0.352644
-0.582477
0.189552
0.22348
-0.338836
-0.141667
-0.331978
0.0821835
-0.00942691
0.00212178
6.48107e-05
-0.000665625
-0.00542826
-0.00157996
0.402435
-0.156474
0.14511
0.177586
0.389408
0.195607
0.16795
0.00494429
0.00194992
-0.0821115
-0.0102379
0.114749
-0.312383
0.190896
-0.173263
-0.00749103
-0.130258
0.000700982
0.19753
0.160959
0.0845652
-0.0356667
-0.00812184
-0.172655
0.00218076
-0.190177
-0.0556534
-0.13219
-0.109923
-0.0261483
-0.130331
0.0396492
-0.119508
0.0238819
-0.0946493
-0.0453074
-0.0642181
-0.123363
-0.0300177
-0.185021
0.0038159
-0.224543
0.0302099
-0.244706
0.0433166
-0.249583
0.0412192
-0.242326
0.0258849
-0.225085
0.00188552
-0.199364
-0.0248536
-0.166634
-0.0481666
-0.129352
-0.0630456
-0.0917466
-0.0672127
-0.0591017
-0.0618951
-0.0357537
-0.0529596
-0.0229298
-0.0579327
-0.0158851
-0.105282
-0.0234564
-0.176886
-0.0846821
-0.157419
-0.096521
0.00368025
-0.0567011
0.000767896
-0.213364
0.211184
-0.23596
0.0981634
-0.0904149
0.0915572
-0.10936
0.154868
-0.0487149
0.0409072
-0.0829324
0.439652
-0.113079
0.016538
-0.0188189
0.0395334
-0.270684
0.139732
0.0210717
-0.0345178
0.00259382
2.2345e-05
0.000111797
-0.0103028
-0.168172
-0.126995
0.450585
-0.123621
0.165754
0.141799
-0.320272
0.00499351
0.154737
-0.084119
0.0989881
0.187117
-0.351435
-0.0974659
0.0346945
-0.250962
0.107131
-0.0113155
0.132335
0.0859149
-0.0556181
-0.121271
-0.147546
-0.163518
-0.0645734
-0.0794371
-0.0709335
-0.029015
-0.0707156
0.0127586
-0.0392178
-0.00808157
0.00233298
-0.0734009
0.0301292
-0.124825
0.0420401
-0.13575
0.0434026
-0.115203
0.035969
-0.0814319
0.0201435
-0.0469225
-0.00160204
-0.0172526
-0.0254404
0.0059999
-0.0486558
0.0233853
-0.0710912
0.0369766
-0.0949199
0.0498592
-0.123218
0.0648346
-0.15777
0.0820302
-0.196077
0.0960539
-0.227362
0.0951277
-0.229164
0.0664573
-0.17465
0.0133192
-0.0740926
-0.0170448
-0.0308565
0.0320968
-0.133176
0.0682826
-0.215493
0.0652358
-0.106458
0.184202
-0.29977
0.308168
-0.069583
0.061615
-0.171796
0.0830706
-0.14929
-0.132179
0.110151
-0.0441949
0.00974637
0.0511006
-0.259634
0.0691447
-0.0339451
-0.26054
0.0337445
-0.126549
-0.0734382
0.0101815
0.00642909
-0.00015832
0.000260835
0.0217756
0.0675258
-0.316903
0.0316316
-0.0677315
-0.0485892
-0.261829
0.132357
0.0457328
-0.0578566
-0.0820737
0.229723
-0.194781
-0.286814
0.138576
-0.166633
-0.105378
0.246156
-0.198741
0.074219
-0.0400148
-0.128393
-0.0306594
-0.14166
0.0688778
-0.0280203
0.00138593
-0.0276116
-0.021924
-0.0145049
-0.00390707
-0.0524786
0.00695165
-0.0984049
-0.000689944
-0.107864
-0.00962846
-0.0938799
-0.00974478
-0.0839545
-0.00352921
-0.0881876
0.00418406
-0.102493
0.0114411
-0.120455
0.0183772
-0.138731
0.0255509
-0.156499
0.033367
-0.173031
0.0418916
-0.185605
0.0499823
-0.188323
0.0532651
-0.172223
0.0416744
-0.127971
-0.000251417
-0.0531798
-0.0833605
0.0350629
-0.187295
0.0892111
-0.232115
0.0464631
-0.12583
-0.0872031
0.0390956
-0.161613
-0.00451607
-0.138393
-0.0945261
-0.177538
0.221029
-0.265717
0.014945
0.0775663
0.147247
-0.0211793
-0.0912624
0.138997
-0.139091
0.0118598
-0.0594745
0.292379
-0.175809
-0.0186727
0.263706
-0.0618574
-0.181038
0.0828546
-0.0399464
0.081138
0.0523778
-0.00716623
-0.000163833
-0.00133463
-0.0405494
0.169225
0.368276
0.075391
-0.0457822
-0.195083
0.1007
-0.0811131
0.0571979
0.224489
0.0656019
0.0537168
-0.311093
0.00260226
-0.0120797
-0.235172
0.139832
-0.0152798
-0.223154
0.246923
-0.113061
-0.00345287
0.00727228
-0.0524259
0.143795
-0.105566
0.0156573
-0.00388299
-0.0612017
0.0650667
-0.159227
0.0531629
-0.204782
0.0159294
-0.19043
-0.0035117
-0.165816
-0.00592574
-0.152485
-0.00734022
-0.14011
-0.0162127
-0.116475
-0.0315811
-0.0810116
-0.0490024
-0.0415737
-0.0647222
-0.00775386
-0.076629
0.0128731
-0.0833298
0.0156663
-0.0825958
-0.000956456
-0.0704086
-0.0344587
-0.0426572
-0.0754174
-0.00220382
-0.104091
0.0287658
-0.0911421
0.00278837
-0.0121633
-0.121109
0.116174
-0.282591
0.19937
-0.266817
0.128947
-0.0191636
0.00911915
-0.026921
0.0627678
-0.329418
0.216248
0.0220013
-0.037736
-0.0729907
0.121227
0.162125
-0.131017
-0.019857
-0.122334
0.0959963
-0.280713
0.411449
0.1562
-0.191229
0.21921
-0.205559
0.259707
-0.10394
0.264727
0.0372476
0.00015472
-0.00476333
0.000620457
0.00228321
-0.027376
-0.147637
-0.0358937
0.0261595
0.383746
-0.0473822
0.133264
0.0421175
-0.00318401
0.0419814
-0.25844
0.0299946
-0.0171629
-0.0738339
-0.125084
-0.0488118
0.123496
-0.139077
0.064005
0.207682
-0.253478
0.158118
-0.148298
0.0814377
0.0703063
-0.22081
0.250102
-0.253245
0.154541
-0.236716
-0.0235071
-0.14863
-0.117523
-0.056257
-0.122181
-0.0147488
-0.0961831
-0.00343252
-0.0774604
0.0132489
-0.0716495
0.0451097
-0.0709658
0.0825328
-0.0688429
0.113637
-0.0640888
0.132523
-0.0595451
0.139084
-0.0595802
0.135752
-0.0677726
0.12433
-0.0843034
0.103856
-0.102401
0.0700062
-0.10526
0.0175201
-0.0697565
-0.0521334
0.0121217
-0.118519
0.0924471
-0.13699
0.0512794
-0.0671697
-0.179966
0.046987
-0.342612
0.0374597
-0.0479206
-0.146173
0.168246
-0.249818
-0.150558
0.0409804
0.10528
0.00246838
-0.115744
0.251053
0.0205402
0.158553
-0.249526
0.139122
-0.345953
0.0889512
-0.0190401
-0.148965
0.186233
-0.145036
-0.169406
-0.0921246
0.0864864
0.0351568
-0.101453
0.0101956
0.000583072
-0.000619332
0.033084
-0.235596
-0.0256528
-0.414897
0.124367
-0.144354
-0.0152459
-0.212253
0.285404
0.0185681
0.0816929
0.175771
-0.35822
-0.119172
0.0254537
0.0592138
-0.0150431
-0.0790784
0.165834
-0.15974
-0.008632
0.0517897
-0.0779022
0.319072
-0.256796
0.225563
-0.0929797
-0.117643
-0.0283015
-0.269871
0.00668631
-0.189073
-0.0190752
-0.0458903
-0.0856605
0.0470348
-0.125096
0.0791668
-0.11313
0.0812023
-0.0701995
0.0794896
-0.0233491
0.0849309
0.013092
0.0978756
0.0367007
0.114392
0.050619
0.129277
0.059283
0.136237
0.0668871
0.127047
0.0768937
0.0920839
0.0909068
0.025313
0.10606
-0.0636936
0.112004
-0.134713
0.0922724
-0.119936
0.0376462
0.0164553
-0.0284842
0.160046
-0.0403232
0.0451514
0.0468808
-0.284932
0.130949
-0.160909
0.0840862
0.0534099
-0.0863811
-0.135202
-0.0160378
0.233783
-0.0817657
0.0847253
-0.0577716
0.27577
-0.0937984
0.152245
-0.124314
0.0665517
0.258094
-0.00955884
-0.117267
0.168139
-0.0589924
0.0242172
0.143213
0.0184653
-0.0853496
0.0177775
0.000578063
0.000672859
0.00861187
0.232895
0.0983048
0.120048
0.198237
0.0585343
0.143465
0.0182892
-0.0478232
-0.108425
-0.19275
-0.150074
0.0023823
0.149584
0.0587027
-0.119025
-0.0763946
0.138146
-0.105028
0.0847525
0.0751616
0.0132284
0.268886
-0.135458
-0.018022
-0.0218704
-0.25254
-0.102358
-0.146373
-0.140923
0.069151
-0.159443
0.171188
-0.150767
0.146602
-0.0875942
0.0753373
0.00513128
0.0172942
0.0879748
-0.00934761
0.142279
-0.00955958
0.168395
0.00661666
0.173068
0.0321547
0.16229
0.0643661
0.140028
0.103313
0.10936
0.148841
0.0740411
0.196221
0.0398935
0.230769
0.0154405
0.224864
0.0103068
0.146294
0.02933
-0.010748
0.0630294
-0.178146
0.0835406
-0.211336
0.0624994
-0.0469772
0.0105976
0.0381804
-0.0228628
-0.217389
-0.0730227
-0.0411788
-0.0848452
0.0138482
0.0147498
-0.222278
0.0821591
0.0349662
0.236047
-0.159106
0.148345
-0.0238653
0.0831681
-0.025662
-0.0942657
-0.173065
0.200185
-0.0503472
-0.00777221
0.0593152
-0.0078293
0.00118529
-0.0121373
0.0788576
0.0183645
-0.000642237
-0.000338847
-0.033858
0.0208193
-0.232923
-0.588804
0.00189739
-0.12755
-0.233998
-0.167484
0.276639
0.022481
0.158917
0.288004
-0.138725
-0.122569
-0.13069
-0.0912078
0.233064
-0.082742
0.0382743
0.136594
-0.0853667
0.194061
-0.169525
-0.0706691
-0.0893669
-0.112481
-0.149054
0.0126222
-0.0839854
0.101329
-0.0203886
0.0656559
0.00823924
-0.0197608
0.0399049
-0.0742622
0.0738111
-0.0803012
0.100269
-0.0563167
0.119622
-0.0239188
0.135121
0.00392622
0.147658
0.0224203
0.15634
0.0319508
0.159922
0.0363575
0.15705
0.0427002
0.145805
0.0613681
0.123482
0.104354
0.0873843
0.178586
0.0372629
0.272401
-0.0205508
0.340991
-0.0697152
0.313662
-0.0874749
0.157329
-0.0609187
-0.0180093
-0.00455711
-0.000947528
0.0594984
0.067543
0.139596
-0.309663
0.0488907
0.0635823
-0.232717
0.129167
-0.0767059
0.0487514
-0.161901
0.249585
0.0743937
0.0901768
-0.00217262
0.0475914
0.0671769
0.186823
-0.163362
0.0569518
0.0028885
0.0423023
-0.0227423
0.202684
0.130658
-0.0870379
0.0419174
-0.00689201
-0.00294765
0.00136993
0.0027004
-0.212641
0.0198427
0.145754
-0.0355741
0.00683177
0.245452
0.197755
0.0225568
-0.0998531
-0.0922884
-0.257575
-0.0754882
0.0991625
0.0615755
0.143333
-0.0612062
-0.053983
0.0905251
0.0461382
0.0179637
-0.0508599
0.0103788
-0.0640435
-0.0295334
-0.0811609
-0.0516789
3.07833e-05
0.0194827
0.0200103
0.029099
-0.0267431
-0.00403
-0.0325608
-0.0155085
0.0161994
0.00308506
0.0892896
0.0339911
0.159122
0.0631202
0.210074
0.0845506
0.237835
0.0965984
0.24583
0.0986879
0.240819
0.0900682
0.229811
0.0698303
0.21878
0.0382148
0.212301
-0.000561686
0.212829
-0.034608
0.218757
-0.0430679
0.221605
-0.00441357
0.205562
0.0784106
0.155644
0.145568
0.0761061
0.0959589
-0.0010845
-0.0618888
-0.0525332
-0.0381027
-0.0842433
0.200316
0.0394246
-0.412197
0.189369
-0.034632
-0.139219
-0.098346
0.104577
-0.0803719
-0.00352044
0.028067
0.186892
0.105302
-0.0335378
0.0174294
0.19021
-0.132383
-0.000809855
-0.0653754
-0.0263594
0.0424538
-0.0402436
-0.0138658
-0.128417
0.0010493
0.0153429
-0.00446491
-0.00045233
-0.0438027
0.127185
0.103324
-0.141344
-0.115376
0.06272
-0.165388
-0.0699137
0.135831
-0.00201064
0.0924723
0.297581
0.0885054
-0.127219
-0.0364393
-0.166511
0.0444441
0.0587533
0.127923
0.0331011
-0.209081
0.233315
-0.150758
-0.117791
-0.042646
-0.148531
0.0240349
0.08193