/*--------------------------------*- C++ -*----------------------------------*\
| =========                 |                                                 |
| \\      /  F ield         | OpenFOAM: The Open Source CFD Toolbox           |
|  \\    /   O peration     | Version:  v1912                                 |
|   \\  /    A nd           | Website:  www.openfoam.com                      |
|    \\/     M anipulation  |                                                 |
\*---------------------------------------------------------------------------*/
FoamFile
{
    version     2.0;
    format      ascii;
    class       volVectorField;
    location    "8.52";
    object      grad(T);
}
// * * * * * * * * * * * * * * * * * * * * * * * * * * * * * * * * * * * * * //

dimensions      [0 -1 0 1 0 0 0];


internalField   nonuniform List<vector> 
1900
(
(1.35753 4.17141e-06 0)
(-1.1248 8.55677e-06 0)
(-0.636189 -1.93284e-06 0)
(-0.26472 -2.7484e-05 0)
(-0.0649622 -5.40665e-06 0)
(0.0112209 6.30828e-05 0)
(0.0513079 0.000206881 0)
(0.0730211 0.000295562 0)
(0.0697592 0.00258619 0)
(0.0777947 0.00109871 0)
(1.35754 8.51174e-06 0)
(-1.1248 1.22632e-05 0)
(-0.636225 -5.52109e-06 0)
(-0.264723 -4.14577e-05 0)
(-0.0648716 1.68995e-05 0)
(0.0114332 0.000170389 0)
(0.0515404 0.00043685 0)
(0.0754004 6.31411e-05 0)
(0.0705623 0.00192519 0)
(0.0452992 -0.00153481 0)
(1.35755 -5.52943e-13 0)
(-1.12481 -4.4886e-13 0)
(-0.636243 -4.29344e-13 0)
(-0.264697 -5.12828e-13 0)
(-0.0647503 -4.57533e-13 0)
(0.0116408 -2.43945e-13 0)
(0.0512007 5.96311e-14 0)
(0.0745094 9.1073e-14 0)
(0.0681612 1.84314e-14 0)
(0.0398486 -1.0842e-14 0)
(1.35754 -8.51174e-06 0)
(-1.1248 -1.22632e-05 0)
(-0.636225 5.52109e-06 0)
(-0.264723 4.14577e-05 0)
(-0.0648716 -1.68995e-05 0)
(0.0114332 -0.000170389 0)
(0.0515404 -0.00043685 0)
(0.0754004 -6.31411e-05 0)
(0.0705623 -0.00192519 0)
(0.0452992 0.00153481 0)
(1.35753 -4.17141e-06 0)
(-1.1248 -8.55677e-06 0)
(-0.636189 1.93284e-06 0)
(-0.26472 2.7484e-05 0)
(-0.0649622 5.40665e-06 0)
(0.0112209 -6.30828e-05 0)
(0.0513079 -0.000206881 0)
(0.0730211 -0.000295562 0)
(0.0697592 -0.00258619 0)
(0.0777947 -0.00109871 0)
(0.0332449 -0.0254762 9.42862e-16)
(0.00441885 -0.0188309 -1.13285e-15)
(0.112845 -0.027908 -1.43983e-15)
(0.409564 -0.0558637 0)
(-0.504541 -0.315312 -6.50518e-15)
(0.0156325 -0.0313303 9.38259e-16)
(0.0175733 -0.0237523 1.13285e-15)
(0.0975101 -0.0353656 1.43983e-15)
(0.301619 -0.0591167 0)
(-0.439009 -0.349959 0)
(0.0051362 -1.96413e-14 0)
(0.0124921 -2.6154e-14 0)
(0.0906381 -5.11984e-14 0)
(0.273213 1.64273e-14 0)
(-0.56763 1.35525e-13 0)
(0.0156325 0.0313303 9.38259e-16)
(0.0175733 0.0237523 1.13285e-15)
(0.0975101 0.0353656 1.43983e-15)
(0.301619 0.0591167 0)
(-0.439009 0.349959 0)
(0.0332449 0.0254762 -2.81938e-15)
(0.00441885 0.0188309 -1.13285e-15)
(0.112845 0.027908 -1.43983e-15)
(0.409564 0.0558637 -3.97152e-15)
(-0.504541 0.315312 6.50518e-15)
(-1.8941 0.457616 2.1999e-15)
(-0.972935 0.318528 -1.58961e-15)
(-0.596148 0.219158 0)
(-0.41812 0.196238 1.01787e-15)
(-0.308422 0.0825472 -4.27e-16)
(-1.69176 0.45587 -1.10684e-15)
(-1.01413 0.209337 7.99599e-16)
(-0.615478 0.114195 0)
(-0.459475 0.125289 -6.40807e-16)
(-0.291254 -0.0427736 1.07049e-16)
(-1.74429 2.73788e-13 0)
(-1.07094 1.529e-13 0)
(-0.627164 1.40545e-13 0)
(-0.493402 9.56649e-14 2.57832e-16)
(-0.276097 9.51055e-15 -2.14099e-16)
(-1.69176 -0.45587 -1.10684e-15)
(-1.01413 -0.209337 7.99599e-16)
(-0.615478 -0.114195 0)
(-0.459475 -0.125289 -6.40807e-16)
(-0.291254 0.0427736 1.07049e-16)
(-1.8941 -0.457616 1.10684e-15)
(-0.972935 -0.318528 -9.59303e-18)
(-0.596148 -0.219158 0)
(-0.41812 -0.196238 5.91005e-18)
(-0.308422 -0.0825472 4.27e-16)
(-0.20444 0.847628 0)
(-0.113818 1.04491 0)
(-0.0713407 1.0929 0)
(-0.0493693 1.0254 0)
(-0.0429328 0.9137 0)
(-0.046339 0.790733 0)
(-0.0532086 0.669138 0)
(-0.0574091 0.582343 0)
(-0.0788218 0.508999 0)
(-0.0565044 0.431814 0)
(0.0111344 0.372016 0)
(0.167144 0.366269 0)
(0.352653 0.393999 0)
(0.294249 0.390954 0)
(0.125655 0.311517 0)
(0.0626324 0.244285 0)
(0.0609632 0.157196 0)
(0.0462539 0.0403484 0)
(-0.00661967 -0.0334279 0)
(-0.0824176 -0.0512893 0)
(-0.155234 -0.0663365 0)
(-0.163317 -0.0500635 0)
(-0.126154 -0.023787 0)
(-0.132811 0.000616156 0)
(-0.24921 0.0206494 0)
(-0.404649 0.0269951 0)
(-0.309613 0.0120823 0)
(-0.0260054 0.0010705 0)
(0.24362 0.000235896 0)
(0.312567 7.50744e-05 0)
(0.160636 -0.000264399 0)
(0.0734119 -0.000473875 0)
(0.0717223 -0.000470656 0)
(0.0907129 -0.000377467 0)
(0.0958368 -0.000202551 0)
(0.069819 -0.000366228 0)
(0.0291363 -0.00108745 0)
(0.0032437 -0.00173991 0)
(-0.00654311 -0.00190499 0)
(-0.00482959 -0.00161803 0)
(-0.0668009 0.250188 0)
(-0.00660594 0.567423 0)
(-0.05649 0.742252 0)
(-0.0803258 0.765451 0)
(-0.0885718 0.707308 0)
(-0.0938158 0.603702 0)
(-0.0873447 0.489674 0)
(-0.0792998 0.423789 0)
(-0.0986167 0.372637 0)
(-0.0803634 0.318433 0)
(-0.004181 0.250161 0)
(0.172239 0.243827 0)
(0.35674 0.271719 0)
(0.279844 0.260559 0)
(0.104904 0.206029 0)
(0.0425901 0.158824 0)
(0.0369754 0.105842 0)
(0.0272468 0.0463926 0)
(-0.0146062 0.0183161 0)
(-0.0869088 0.0091219 0)
(-0.158062 -0.00352932 0)
(-0.163983 0.0276641 0)
(-0.125265 0.0287876 0)
(-0.128184 0.0203953 0)
(-0.245286 0.0169124 0)
(-0.406197 0.0128264 0)
(-0.313291 0.00314733 0)
(-0.0273624 0.000211968 0)
(0.243514 0.000105918 0)
(0.312521 4.88071e-05 0)
(0.160584 -0.000184559 0)
(0.0733776 -0.000308458 0)
(0.0717027 -0.000372052 0)
(0.0907215 -0.000405242 0)
(0.0958409 -0.000337959 0)
(0.0697584 -0.000358473 0)
(0.0290279 -0.000591709 0)
(0.00315171 -0.00101389 0)
(-0.00656284 -0.00131279 0)
(-0.00481633 -0.00142531 0)
(-0.00917153 4.92819e-14 0)
(0.0293278 3.3906e-13 0)
(-0.0137327 1.18277e-13 0)
(-0.059535 -2.03041e-13 0)
(-0.0899869 -4.96762e-13 0)
(-0.109651 -4.96762e-13 0)
(-0.105547 -3.78485e-13 0)
(-0.0914561 -5.10561e-13 0)
(-0.109471 -5.00704e-13 0)
(-0.0921337 -2.97663e-13 0)
(-0.0105692 -2.72036e-13 0)
(0.173416 -2.89778e-13 0)
(0.357521 -1.30104e-13 0)
(0.275139 4.13968e-14 0)
(0.0960595 -4.73106e-14 0)
(0.033487 -1.22219e-13 0)
(0.0282559 1.00929e-12 0)
(0.0207918 3.38074e-12 0)
(-0.0174621 1.67164e-12 0)
(-0.0887726 1.38975e-12 0)
(-0.149839 1.77809e-12 0)
(-0.153916 1.5376e-13 0)
(-0.128269 -1.81357e-13 0)
(-0.136266 6.82062e-13 0)
(-0.251411 6.91918e-13 0)
(-0.408654 1.6953e-13 0)
(-0.313282 1.51788e-13 0)
(-0.0268901 6.75162e-13 0)
(0.243572 2.08364e-12 0)
(0.312483 6.60378e-13 0)
(0.160532 -1.49817e-12 0)
(0.0733573 -9.56069e-13 0)
(0.0716942 -3.44973e-13 0)
(0.0907229 -1.71501e-13 0)
(0.0958504 -1.41932e-13 0)
(0.0697452 9.06787e-14 0)
(0.0289457 -2.85835e-13 0)
(0.00303393 -4.96762e-13 0)
(-0.00666279 -3.8637e-13 0)
(-0.00486232 -2.38524e-13 0)
(-0.0668009 -0.250188 0)
(-0.00660594 -0.567423 0)
(-0.05649 -0.742252 0)
(-0.0803258 -0.765451 0)
(-0.0885718 -0.707308 0)
(-0.0938158 -0.603702 0)
(-0.0873447 -0.489674 0)
(-0.0792998 -0.423789 0)
(-0.0986167 -0.372637 0)
(-0.0803634 -0.318433 0)
(-0.004181 -0.250161 0)
(0.172239 -0.243827 0)
(0.35674 -0.271719 0)
(0.279844 -0.260559 0)
(0.104904 -0.206029 0)
(0.0425901 -0.158824 0)
(0.0369754 -0.105842 0)
(0.0272468 -0.0463926 0)
(-0.0146062 -0.0183161 0)
(-0.0869088 -0.0091219 0)
(-0.158062 0.00352932 0)
(-0.163983 -0.0276641 0)
(-0.125265 -0.0287876 0)
(-0.128184 -0.0203953 0)
(-0.245286 -0.0169124 0)
(-0.406197 -0.0128264 0)
(-0.313291 -0.00314733 0)
(-0.0273624 -0.000211968 0)
(0.243514 -0.000105918 0)
(0.312521 -4.88071e-05 0)
(0.160584 0.000184559 0)
(0.0733776 0.000308458 0)
(0.0717027 0.000372052 0)
(0.0907215 0.000405242 0)
(0.0958409 0.000337959 0)
(0.0697584 0.000358473 0)
(0.0290279 0.000591709 0)
(0.00315171 0.00101389 0)
(-0.00656284 0.00131279 0)
(-0.00481633 0.00142531 0)
(-0.20444 -0.847628 0)
(-0.113818 -1.04491 0)
(-0.0713407 -1.0929 0)
(-0.0493693 -1.0254 0)
(-0.0429328 -0.9137 0)
(-0.046339 -0.790733 0)
(-0.0532086 -0.669138 0)
(-0.0574091 -0.582343 0)
(-0.0788218 -0.508999 0)
(-0.0565044 -0.431814 0)
(0.0111344 -0.372016 0)
(0.167144 -0.366269 0)
(0.352653 -0.393999 0)
(0.294249 -0.390954 0)
(0.125655 -0.311517 0)
(0.0626324 -0.244285 0)
(0.0609632 -0.157196 0)
(0.0462539 -0.0403484 0)
(-0.00661967 0.0334279 0)
(-0.0824176 0.0512893 0)
(-0.155234 0.0663365 0)
(-0.163317 0.0500635 0)
(-0.126154 0.023787 0)
(-0.132811 -0.000616156 0)
(-0.24921 -0.0206494 0)
(-0.404649 -0.0269951 0)
(-0.309613 -0.0120823 0)
(-0.0260054 -0.0010705 0)
(0.24362 -0.000235896 0)
(0.312567 -7.50744e-05 0)
(0.160636 0.000264399 0)
(0.0734119 0.000473875 0)
(0.0717223 0.000470656 0)
(0.0907129 0.000377467 0)
(0.0958368 0.000202551 0)
(0.069819 0.000366228 0)
(0.0291363 0.00108745 0)
(0.0032437 0.00173991 0)
(-0.00654311 0.00190499 0)
(-0.00482959 0.00161803 0)
(-0.0167166 -0.883757 0)
(-0.0364943 -0.786248 0)
(-0.0270856 -0.735566 0)
(-0.00371142 -0.700359 0)
(0.00586034 -0.656209 0)
(0.00469581 -0.61227 0)
(0.00390294 -0.553673 0)
(-0.00416021 -0.489133 0)
(-0.0270814 -0.434045 0)
(-0.0220245 -0.364408 0)
(0.0192247 -0.340386 0)
(0.164341 -0.326605 0)
(0.34598 -0.323423 0)
(0.314926 -0.347852 0)
(0.172913 -0.288118 0)
(0.116217 -0.22487 0)
(0.137163 -0.151703 0)
(0.124843 -0.0568748 0)
(0.0336412 -0.0142763 0)
(-0.0714591 -0.00585003 0)
(-0.162101 0.00239498 0)
(-0.191442 0.00339534 0)
(-0.156026 -0.00482816 0)
(-0.150708 -0.015055 0)
(-0.257297 -0.0259888 0)
(-0.402614 -0.0362855 0)
(-0.301282 -0.0200372 0)
(-0.0215005 -0.00195196 0)
(0.244017 -0.00046825 0)
(0.31278 -0.000174393 0)
(0.160868 0.000533863 0)
(0.0734673 0.000921847 0)
(0.0716196 0.000807036 0)
(0.0905633 0.000471767 0)
(0.0958387 0.000150355 0)
(0.0702434 0.000251469 0)
(0.0297642 0.00111725 0)
(0.00355818 0.00187681 0)
(-0.00666211 0.00186256 0)
(-0.00498101 0.00116329 0)
(-0.00325235 -0.300837 0)
(-0.0124795 -0.277606 0)
(-0.0123063 -0.251376 0)
(0.00261863 -0.240354 0)
(0.0157885 -0.241654 0)
(0.0251013 -0.240975 0)
(0.0348261 -0.2389 0)
(0.0293152 -0.237323 0)
(0.0136222 -0.230135 0)
(0.01526 -0.204508 0)
(0.0432248 -0.194324 0)
(0.184993 -0.175019 0)
(0.335758 -0.152898 0)
(0.317183 -0.195726 0)
(0.218824 -0.176945 0)
(0.165353 -0.149258 0)
(0.181988 -0.107544 0)
(0.136541 -0.0737141 0)
(0.0209605 -0.0909487 0)
(-0.0722288 -0.100948 0)
(-0.142642 -0.0992613 0)
(-0.155196 -0.069884 0)
(-0.127916 -0.0390817 0)
(-0.143605 -0.0295368 0)
(-0.265331 -0.0394434 0)
(-0.400006 -0.0563914 0)
(-0.280994 -0.0287539 0)
(-0.00956362 -0.0025384 0)
(0.24512 -0.000469417 0)
(0.313419 -0.000263071 0)
(0.161568 0.000874975 0)
(0.0736454 0.00153069 0)
(0.0713437 0.00139796 0)
(0.0901604 0.000886583 0)
(0.0956234 0.000485446 0)
(0.0705232 0.000463558 0)
(0.0303659 0.000953033 0)
(0.00379327 0.001415 0)
(-0.00716687 0.00127003 0)
(-0.00542224 0.00072807 0)
(0.00566963 -0.0376126 0)
(0.0111688 -0.035224 0)
(0.00881219 -0.0234186 0)
(0.00565692 -0.0156478 0)
(0.00526145 -0.0201803 0)
(0.00734925 -0.0300212 0)
(0.00742232 -0.0454431 0)
(0.00428606 -0.071107 0)
(0.00454088 -0.0802555 0)
(0.0124846 -0.068134 0)
(0.0476412 -0.0564629 0)
(0.204261 -0.0287361 0)
(0.326026 -0.0372796 0)
(0.291753 -0.0896736 0)
(0.217691 -0.103087 0)
(0.183095 -0.0890593 0)
(0.20996 -0.0489714 0)
(0.140835 -0.0385618 0)
(0.00739731 -0.0626961 0)
(-0.0794694 -0.076782 0)
(-0.132166 -0.0794381 0)
(-0.133451 -0.0565045 0)
(-0.117146 -0.0371113 0)
(-0.151057 -0.037957 0)
(-0.283175 -0.0585943 0)
(-0.392313 -0.0779514 0)
(-0.249388 -0.0320514 0)
(0.00575545 -0.00246651 0)
(0.24621 -0.000155371 0)
(0.314076 -0.000137899 0)
(0.162597 0.00114925 0)
(0.0739712 0.00182627 0)
(0.0709989 0.00161705 0)
(0.089684 0.00101116 0)
(0.0954311 0.000617632 0)
(0.070694 0.00071896 0)
(0.030681 0.00113646 0)
(0.00386365 0.00135926 0)
(-0.00732406 0.00127599 0)
(-0.00550326 0.00141785 0)
(-0.000950529 0.00416282 0)
(0.00119842 -0.00244297 0)
(0.006558 -0.00801506 0)
(0.00573916 -0.0101723 0)
(0.00193771 -0.0133584 0)
(0.000757113 -0.0168348 0)
(-0.00476562 -0.0223592 0)
(-0.0042313 -0.0336932 0)
(0.0164872 -0.0277742 0)
(0.0381874 -0.0112093 0)
(0.08119 0.0178992 0)
(0.203479 0.0677926 0)
(0.277036 0.0118807 0)
(0.253768 -0.0305378 0)
(0.219416 -0.0416053 0)
(0.2175 -0.022758 0)
(0.23065 0.0120149 0)
(0.123316 -0.0263123 0)
(-0.0158698 -0.0638214 0)
(-0.088362 -0.084165 0)
(-0.123102 -0.0813657 0)
(-0.114409 -0.0585829 0)
(-0.110043 -0.0451351 0)
(-0.164307 -0.0529549 0)
(-0.303872 -0.0808725 0)
(-0.374428 -0.0943462 0)
(-0.208254 -0.0295446 0)
(0.0211725 -0.00257844 0)
(0.247364 -0.000774858 0)
(0.314676 -0.00168724 0)
(0.163461 -0.000351283 0)
(0.0740962 0.000377557 0)
(0.0705583 0.000178205 0)
(0.0891973 -0.000388285 0)
(0.0953419 -0.000672599 0)
(0.0710232 -0.00014045 0)
(0.0309829 0.000821219 0)
(0.00392772 0.00127234 0)
(-0.00711041 0.00152778 0)
(-0.00528554 0.00206676 0)
(-0.000695949 0.0328618 0)
(-0.000566289 0.0332163 0)
(0.00136395 0.0302233 0)
(0.000507855 0.0251664 0)
(-0.00115875 0.022238 0)
(-0.0013242 0.0212143 0)
(-0.00882307 0.0177084 0)
(-0.000932029 0.0223571 0)
(0.0262071 0.0375855 0)
(0.0564971 0.0458984 0)
(0.12377 0.0677553 0)
(0.198461 0.0944998 0)
(0.231271 0.0542598 0)
(0.240212 0.0421277 0)
(0.225188 0.0309476 0)
(0.234766 0.0505997 0)
(0.206535 0.0559463 0)
(0.067756 -0.0356917 0)
(-0.0483517 -0.0707909 0)
(-0.0963757 -0.0895365 0)
(-0.107515 -0.0786181 0)
(-0.0985377 -0.0588417 0)
(-0.111723 -0.0553833 0)
(-0.185495 -0.0718587 0)
(-0.323061 -0.105098 0)
(-0.342851 -0.101696 0)
(-0.160957 -0.0237558 0)
(0.033479 -0.00341728 0)
(0.247068 -0.00240522 0)
(0.314484 -0.0040226 0)
(0.164587 -0.00238905 0)
(0.0744815 -0.00105998 0)
(0.0702609 -0.000947478 0)
(0.0888641 -0.0017145 0)
(0.0956699 -0.00228187 0)
(0.0721335 -0.00151486 0)
(0.0320425 -9.9461e-06 0)
(0.00454452 0.000924682 0)
(-0.00655852 0.00154335 0)
(-0.00498388 0.00216552 0)
(-0.000608876 0.0425419 0)
(-0.00134409 0.0427457 0)
(-0.00119912 0.0418219 0)
(-0.00195573 0.0389278 0)
(-0.00187072 0.0371648 0)
(-0.00360777 0.0376998 0)
(-0.0036644 0.0385165 0)
(0.014923 0.0528377 0)
(0.0391724 0.0659472 0)
(0.0672601 0.0879562 0)
(0.128024 0.10667 0)
(0.190474 0.100543 0)
(0.226568 0.0935552 0)
(0.231304 0.0852505 0)
(0.22758 0.0682855 0)
(0.24159 0.101127 0)
(0.147496 0.0319128 0)
(0.00118709 -0.0585849 0)
(-0.0677566 -0.0858364 0)
(-0.0959046 -0.0905848 0)
(-0.0935231 -0.0751155 0)
(-0.0920188 -0.0644721 0)
(-0.122586 -0.0708837 0)
(-0.212214 -0.0932837 0)
(-0.332624 -0.124763 0)
(-0.296044 -0.0930165 0)
(-0.113549 -0.0142946 0)
(0.0417467 -0.00118569 0)
(0.246781 -0.000962975 0)
(0.314691 6.91099e-05 0)
(0.166316 0.00531996 0)
(0.0754854 0.00864252 0)
(0.0699275 0.00914763 0)
(0.0879114 0.00713264 0)
(0.0955342 0.00376159 0)
(0.0732125 0.000730623 0)
(0.0333338 -3.21592e-05 0)
(0.00542453 0.000720708 0)
(-0.00591469 0.00154666 0)
(-0.00468599 0.00209326 0)
(-0.000499621 0.0560572 0)
(-0.00126014 0.0563554 0)
(-0.0023151 0.056739 0)
(-0.00397988 0.0563568 0)
(-0.00234206 0.0582918 0)
(-2.17046e-05 0.0616463 0)
(0.00576432 0.0714572 0)
(0.0255013 0.0872914 0)
(0.0600486 0.100461 0)
(0.0957393 0.121568 0)
(0.1359 0.138271 0)
(0.185823 0.139331 0)
(0.216535 0.136421 0)
(0.215861 0.115506 0)
(0.240488 0.133322 0)
(0.199715 0.0951469 0)
(0.0526304 -0.0348242 0)
(-0.0457114 -0.0825216 0)
(-0.079188 -0.0982553 0)
(-0.0860446 -0.0890164 0)
(-0.0823515 -0.0715062 0)
(-0.0944598 -0.0655494 0)
(-0.139486 -0.07335 0)
(-0.237415 -0.0969644 0)
(-0.322804 -0.116362 0)
(-0.2364 -0.0581635 0)
(-0.0724655 0.00897295 0)
(0.0463259 0.016824 0)
(0.248278 0.020349 0)
(0.320539 0.0342332 0)
(0.172848 0.0470366 0)
(0.0781699 0.0494685 0)
(0.0688059 0.0440786 0)
(0.0836739 0.0335229 0)
(0.0895007 0.02372 0)
(0.0684777 0.0157612 0)
(0.0320329 0.00908086 0)
(0.00606592 0.0042056 0)
(-0.00523589 0.00239417 0)
(-0.00445715 0.00243019 0)
(-0.000321511 0.0893425 0)
(-0.000687077 0.089781 0)
(-0.00119775 0.0910232 0)
(-0.000459351 0.0935814 0)
(0.00322641 0.0983331 0)
(0.00907883 0.102463 0)
(0.0210482 0.111079 0)
(0.0428716 0.123785 0)
(0.0722021 0.137084 0)
(0.103696 0.145228 0)
(0.145141 0.16257 0)
(0.18869 0.178571 0)
(0.20361 0.163163 0)
(0.228318 0.152817 0)
(0.20796 0.130583 0)
(0.0795581 0.00416859 0)
(-0.0237117 -0.0759499 0)
(-0.0599374 -0.0975108 0)
(-0.0740152 -0.091731 0)
(-0.0701281 -0.0631133 0)
(-0.0709094 -0.0401994 0)
(-0.0937956 -0.0281592 0)
(-0.152859 -0.0229386 0)
(-0.253662 -0.0362432 0)
(-0.295234 -0.0270863 0)
(-0.175266 0.0705612 0)
(-0.0412885 0.123328 0)
(0.0527091 0.133359 0)
(0.263557 0.168258 0)
(0.340408 0.208161 0)
(0.180997 0.201243 0)
(0.0726349 0.178072 0)
(0.0545618 0.150344 0)
(0.0682931 0.115887 0)
(0.0784184 0.0840435 0)
(0.0591057 0.0545871 0)
(0.0221983 0.0322696 0)
(-0.001019 0.0191032 0)
(-0.00762554 0.00679447 0)
(-0.00465129 0.00362794 0)
(-7.70406e-05 0.144224 0)
(0.000359429 0.144764 0)
(0.00134712 0.143812 0)
(0.00306423 0.140375 0)
(0.00621652 0.138895 0)
(0.0122604 0.139736 0)
(0.0263111 0.147336 0)
(0.0505611 0.160126 0)
(0.0807114 0.173269 0)
(0.120298 0.185519 0)
(0.168031 0.204201 0)
(0.186394 0.206598 0)
(0.191717 0.179675 0)
(0.184466 0.134182 0)
(0.0972447 0.0277589 0)
(0.000693308 -0.0709406 0)
(-0.0453516 -0.0865243 0)
(-0.0609187 -0.0619137 0)
(-0.0460414 -0.0166447 0)
(-0.0363869 0.0325504 0)
(-0.0486684 0.0775689 0)
(-0.0778267 0.108231 0)
(-0.147277 0.112458 0)
(-0.241412 0.101475 0)
(-0.219883 0.153877 0)
(-0.0914554 0.260195 0)
(-0.0119516 0.291413 0)
(0.0896219 0.302054 0)
(0.320359 0.353319 0)
(0.352324 0.348838 0)
(0.143854 0.298323 0)
(0.029122 0.258935 0)
(0.00888174 0.227665 0)
(0.0197844 0.193618 0)
(0.0304302 0.158423 0)
(0.0185864 0.121494 0)
(-0.00216076 0.0845709 0)
(-0.0184829 0.0496742 0)
(-0.0201484 0.0215555 0)
(-0.00750854 0.00885114 0)
(0.00019866 0.204888 0)
(-0.001084 0.203973 0)
(-0.0054267 0.198052 0)
(-0.00519744 0.193647 0)
(0.00261006 0.195028 0)
(0.0172125 0.202296 0)
(0.0406975 0.213217 0)
(0.067862 0.219856 0)
(0.0966712 0.219851 0)
(0.133503 0.219148 0)
(0.165454 0.21131 0)
(0.165057 0.152028 0)
(0.133828 0.109413 0)
(0.081926 0.0447752 0)
(0.0102967 -0.0347381 0)
(-0.0305693 -0.0278745 0)
(-0.0150131 0.0248393 0)
(0.00740118 0.105154 0)
(0.0170137 0.175544 0)
(0.0206595 0.207116 0)
(0.00201927 0.213311 0)
(-0.0601756 0.198123 0)
(-0.159369 0.150379 0)
(-0.213749 0.126987 0)
(-0.142286 0.205175 0)
(-0.0427309 0.268228 0)
(-0.000951879 0.276605 0)
(0.112364 0.280562 0)
(0.30864 0.293264 0)
(0.287412 0.223555 0)
(0.0943637 0.179398 0)
(0.00454631 0.167729 0)
(-0.00838006 0.164512 0)
(0.00156906 0.159308 0)
(0.00891634 0.1514 0)
(-0.0120605 0.144305 0)
(-0.0470095 0.131362 0)
(-0.061743 0.0911829 0)
(-0.0469642 0.04882 0)
(-0.0168937 0.0228724 0)
(-0.000958699 0.26181 0)
(-0.00622811 0.25217 0)
(-0.00860342 0.247735 0)
(0.00015048 0.251668 0)
(0.0145511 0.254837 0)
(0.0297877 0.251805 0)
(0.0432323 0.237017 0)
(0.056954 0.215075 0)
(0.080029 0.204298 0)
(0.112068 0.207634 0)
(0.103352 0.177558 0)
(0.0882028 0.122792 0)
(0.0883638 0.0876592 0)
(0.0455564 0.0860417 0)
(0.0272368 0.123257 0)
(0.0581042 0.19598 0)
(0.0828392 0.250536 0)
(0.0843058 0.267214 0)
(0.0522136 0.254216 0)
(6.96915e-06 0.216525 0)
(-0.057335 0.148608 0)
(-0.13847 0.0671714 0)
(-0.215825 0.00102265 0)
(-0.188609 0.0250144 0)
(-0.0837779 0.107436 0)
(-0.0226227 0.134717 0)
(-6.647e-05 0.136061 0)
(0.105675 0.136543 0)
(0.265426 0.114161 0)
(0.2426 0.0534659 0)
(0.0900575 0.043679 0)
(0.0147771 0.0539309 0)
(0.000767437 0.0649196 0)
(0.00714876 0.0703586 0)
(0.0159722 0.0745705 0)
(-0.000722628 0.0835688 0)
(-0.053351 0.103133 0)
(-0.0980233 0.104355 0)
(-0.0859748 0.0764793 0)
(-0.0325125 0.0452313 0)
(-0.00909117 0.286358 0)
(-0.0146468 0.28699 0)
(-0.00591023 0.300497 0)
(0.00164574 0.312021 0)
(0.00274215 0.315393 0)
(4.03253e-05 0.325608 0)
(0.0053034 0.345715 0)
(0.0363329 0.353806 0)
(0.0895011 0.341633 0)
(0.107735 0.316627 0)
(0.0836963 0.285528 0)
(0.0784272 0.287502 0)
(0.0984144 0.284933 0)
(0.116229 0.27805 0)
(0.116238 0.300916 0)
(0.0920814 0.29429 0)
(0.0536299 0.249453 0)
(0.0109472 0.17631 0)
(-0.0318314 0.0948858 0)
(-0.081108 0.0319175 0)
(-0.141904 -0.0323128 0)
(-0.202394 -0.0964449 0)
(-0.199994 -0.0891034 0)
(-0.111206 0.00163903 0)
(-0.0365722 0.0601038 0)
(-0.015147 0.0696128 0)
(0.000807045 0.0708377 0)
(0.0912606 0.0705231 0)
(0.228584 0.0370768 0)
(0.219493 -0.00522189 0)
(0.0948117 -0.0032427 0)
(0.0250146 0.00811731 0)
(0.00745027 0.0166091 0)
(0.010869 0.0195421 0)
(0.0216462 0.0199076 0)
(0.0154629 0.0210937 0)
(-0.026979 0.0341538 0)
(-0.087427 0.063671 0)
(-0.103938 0.0751257 0)
(-0.0470053 0.0656432 0)
(-0.000349505 0.278656 0)
(0.00739657 0.315079 0)
(0.0155172 0.362633 0)
(0.0145045 0.396063 0)
(0.027644 0.423395 0)
(0.0590071 0.457205 0)
(0.070405 0.495968 0)
(0.0530201 0.522414 0)
(0.0442014 0.51422 0)
(0.0580036 0.463498 0)
(0.0752867 0.409158 0)
(0.0876298 0.362893 0)
(0.0792547 0.318352 0)
(0.0609582 0.25734 0)
(0.0428869 0.186244 0)
(0.0085123 0.113937 0)
(-0.0308505 0.0518205 0)
(-0.0646409 -0.000809894 0)
(-0.0869287 -0.0475211 0)
(-0.122566 -0.0931815 0)
(-0.18103 -0.127041 0)
(-0.193196 -0.119765 0)
(-0.121308 -0.0369077 0)
(-0.0448274 0.0407047 0)
(-0.0182759 0.0615041 0)
(-0.0122792 0.0653431 0)
(0.000810692 0.0656255 0)
(0.0731414 0.064967 0)
(0.192435 0.0261309 0)
(0.203746 -0.0120773 0)
(0.102912 -0.00716888 0)
(0.0339069 0.00309356 0)
(0.0117768 0.00848392 0)
(0.0103273 0.00778731 0)
(0.0174673 0.00262418 0)
(0.0130055 -0.00390723 0)
(-0.0123219 -0.00422628 0)
(-0.0585412 0.0180682 0)
(-0.0840743 0.0488301 0)
(-0.0416502 0.0652434 0)
(0.0260074 0.212319 0)
(0.0662773 0.236625 0)
(0.0721289 0.264091 0)
(0.0601977 0.281955 0)
(0.0616608 0.301988 0)
(0.0699745 0.311462 0)
(0.0681419 0.305367 0)
(0.0539214 0.30254 0)
(0.032727 0.304686 0)
(0.00649331 0.292963 0)
(-0.0132498 0.250767 0)
(-0.00907645 0.189648 0)
(-0.00330038 0.123072 0)
(-0.0110746 0.0718232 0)
(-0.0219509 0.0195002 0)
(-0.0374542 -0.0262869 0)
(-0.0569445 -0.0577567 0)
(-0.084782 -0.0755378 0)
(-0.120844 -0.0944109 0)
(-0.157737 -0.124077 0)
(-0.16752 -0.118504 0)
(-0.115538 -0.0417664 0)
(-0.0453594 0.0401918 0)
(-0.0163726 0.0722106 0)
(-0.0128297 0.0782728 0)
(-0.0111755 0.0800249 0)
(0.000444557 0.0797526 0)
(0.0532022 0.079011 0)
(0.154341 0.041233 0)
(0.187404 0.00165747 0)
(0.109431 0.00204364 0)
(0.0400982 0.00900521 0)
(0.0119733 0.00969544 0)
(0.00522229 0.00569925 0)
(0.0103769 -0.00204132 0)
(0.00886156 -0.0117195 0)
(-0.00580271 -0.0158648 0)
(-0.0362999 -0.00448396 0)
(-0.0584783 0.0200003 0)
(-0.0311889 0.0409841 0)
(0.0230726 0.0709308 0)
(0.0572861 0.056204 0)
(0.0591992 0.0464282 0)
(0.0510242 0.0382375 0)
(0.0560783 0.0396755 0)
(0.0622625 0.0395323 0)
(0.0618074 0.0369588 0)
(0.0523642 0.0405673 0)
(0.0349722 0.0513054 0)
(0.00604522 0.058208 0)
(-0.0242706 0.0583071 0)
(-0.0354214 0.048437 0)
(-0.034286 0.0182815 0)
(-0.0388478 -0.0102981 0)
(-0.0516556 -0.0364875 0)
(-0.0659352 -0.0570991 0)
(-0.0783104 -0.0755324 0)
(-0.0999622 -0.0943766 0)
(-0.133703 -0.109481 0)
(-0.145784 -0.096803 0)
(-0.101712 -0.0325576 0)
(-0.0402702 0.0427706 0)
(-0.0114756 0.0783674 0)
(-0.00813121 0.0860822 0)
(-0.0107457 0.0881467 0)
(-0.0108531 0.0891147 0)
(-0.000166341 0.0890885 0)
(0.0360224 0.0867858 0)
(0.117894 0.0561655 0)
(0.165982 0.0106036 0)
(0.109992 0.00766114 0)
(0.0412805 0.0150413 0)
(0.00859107 0.013083 0)
(-0.000982637 0.00716249 0)
(0.00068201 -0.00389954 0)
(-0.000315308 -0.0164054 0)
(-0.00534955 -0.0258888 0)
(-0.0239803 -0.0197721 0)
(-0.0402596 -9.25698e-05 0)
(-0.0214294 0.0177063 0)
(0.0118161 -0.0266695 0)
(0.0426657 -0.0525906 0)
(0.0548157 -0.0612075 0)
(0.0536905 -0.0592652 0)
(0.0629085 -0.0497317 0)
(0.0673566 -0.0422266 0)
(0.0691392 -0.0349933 0)
(0.0677463 -0.0203288 0)
(0.0497262 -0.00126337 0)
(0.0132404 0.00781495 0)
(-0.0226655 0.010944 0)
(-0.0476466 0.0035645 0)
(-0.0598997 -0.0194127 0)
(-0.063852 -0.0427737 0)
(-0.06705 -0.0574145 0)
(-0.0750793 -0.0663199 0)
(-0.0928664 -0.081307 0)
(-0.117496 -0.0992972 0)
(-0.123182 -0.0880955 0)
(-0.0836106 -0.0311435 0)
(-0.0330219 0.0333817 0)
(-0.008647 0.0642961 0)
(-0.00362278 0.0709784 0)
(-0.00694894 0.070784 0)
(-0.00990748 0.0712837 0)
(-0.010268 0.0724568 0)
(-0.0017997 0.0734588 0)
(0.0214764 0.068224 0)
(0.0809294 0.0480812 0)
(0.140663 -0.000147442 0)
(0.113707 -0.00977673 0)
(0.0453229 0.00963639 0)
(0.00438103 0.0115931 0)
(-0.0111427 0.00785038 0)
(-0.012334 -0.00370948 0)
(-0.0123281 -0.016987 0)
(-0.00904698 -0.0305799 0)
(-0.0114417 -0.0328167 0)
(-0.0223627 -0.016105 0)
(-0.0140373 -0.00310985 0)
(-0.00190594 -0.0429371 0)
(0.024004 -0.0673758 0)
(0.0527673 -0.0836556 0)
(0.0620827 -0.0843909 0)
(0.0724974 -0.0758024 0)
(0.0764649 -0.071992 0)
(0.082909 -0.0643088 0)
(0.0848676 -0.0523578 0)
(0.0620925 -0.0426058 0)
(0.0178087 -0.0362682 0)
(-0.0283665 -0.0330926 0)
(-0.0646742 -0.0427526 0)
(-0.0789392 -0.0617384 0)
(-0.0754677 -0.075182 0)
(-0.0743455 -0.0837364 0)
(-0.088959 -0.0950246 0)
(-0.110089 -0.104176 0)
(-0.106504 -0.0881211 0)
(-0.0680277 -0.0406154 0)
(-0.0287237 0.00989457 0)
(-0.00974292 0.0331558 0)
(-0.00404064 0.0378847 0)
(-0.00522355 0.0356353 0)
(-0.00783699 0.0337665 0)
(-0.00913375 0.0340227 0)
(-0.00875715 0.0353842 0)
(-0.00424521 0.0370447 0)
(0.0115676 0.0322637 0)
(0.0520091 0.0207988 0)
(0.110228 -0.0215375 0)
(0.11942 -0.0547074 0)
(0.0618732 -0.0355099 0)
(0.00687001 -0.0169757 0)
(-0.0157287 -0.00638068 0)
(-0.0232522 -0.00617279 0)
(-0.0262086 -0.0109687 0)
(-0.0206037 -0.0221362 0)
(-0.0100318 -0.0335844 0)
(-0.011633 -0.0288928 0)
(-0.00890679 -0.0318866 0)
(-0.0117339 -0.142373 0)
(0.00342784 -0.0826439 0)
(0.0384194 -0.0722164 0)
(0.0612582 -0.0913691 0)
(0.0748565 -0.0989651 0)
(0.0784321 -0.102805 0)
(0.0880594 -0.101068 0)
(0.0886602 -0.0990096 0)
(0.0652308 -0.0977927 0)
(0.0224077 -0.0979862 0)
(-0.0289141 -0.101518 0)
(-0.0752507 -0.114427 0)
(-0.0911498 -0.12203 0)
(-0.08505 -0.122415 0)
(-0.0861711 -0.125736 0)
(-0.0947752 -0.123706 0)
(-0.0862139 -0.0983507 0)
(-0.056247 -0.0529584 0)
(-0.0287308 -0.0123366 0)
(-0.0125219 0.00549145 0)
(-0.00604966 0.0102871 0)
(-0.0062577 0.00809396 0)
(-0.00759122 0.00486515 0)
(-0.0085029 0.00328259 0)
(-0.00834855 0.0039859 0)
(-0.00735591 0.00551033 0)
(-0.0048068 0.00748731 0)
(0.00582138 0.00629078 0)
(0.0290847 -0.00435627 0)
(0.0679027 -0.0367595 0)
(0.100243 -0.0851959 0)
(0.0816825 -0.0956949 0)
(0.032451 -0.0706273 0)
(-0.000732559 -0.041881 0)
(-0.0167551 -0.0264373 0)
(-0.027711 -0.0133362 0)
(-0.0308403 -0.011155 0)
(-0.0179527 -0.0185432 0)
(-0.0207266 -0.0240947 0)
(-0.0169222 -0.0703986 0)
(0.0556512 -0.509649 0)
(0.0916095 -0.222808 0)
(0.0443594 -0.0661654 0)
(0.0363067 -0.0717029 0)
(0.0614769 -0.0976748 0)
(0.0744381 -0.110666 0)
(0.0865668 -0.112461 0)
(0.0880242 -0.116979 0)
(0.0630786 -0.129768 0)
(0.0142192 -0.143988 0)
(-0.0442093 -0.168773 0)
(-0.0844402 -0.183129 0)
(-0.0866369 -0.171169 0)
(-0.0790393 -0.153572 0)
(-0.075589 -0.133448 0)
(-0.0625696 -0.102962 0)
(-0.0419141 -0.0627009 0)
(-0.0236176 -0.0310839 0)
(-0.0117032 -0.0141502 0)
(-0.00692267 -0.00715992 0)
(-0.00723504 -0.00724387 0)
(-0.00926543 -0.00927929 0)
(-0.00985996 -0.0109936 0)
(-0.00868426 -0.0113231 0)
(-0.00698702 -0.0100683 0)
(-0.00538307 -0.00817344 0)
(-0.00349314 -0.00606118 0)
(0.00015466 -0.00513858 0)
(0.0105242 -0.0124371 0)
(0.0323283 -0.0319656 0)
(0.062628 -0.0694462 0)
(0.075912 -0.10232 0)
(0.058727 -0.0950328 0)
(0.0268543 -0.0669579 0)
(0.00425463 -0.0449128 0)
(-0.0114821 -0.024801 0)
(-0.0256213 -0.0144251 0)
(-0.0225009 -0.0222241 0)
(-0.0616027 -0.0634935 0)
(-0.0535269 -0.188032 0)
(0.264677 -0.387939 0)
(0.430785 -0.171025 0)
(0.18403 -0.0359639 0)
(0.0308945 -0.0260842 0)
(0.0373101 -0.0415803 0)
(0.0641834 -0.0511629 0)
(0.0819757 -0.0522219 0)
(0.0719827 -0.0559272 0)
(0.0392041 -0.0688687 0)
(-0.0151792 -0.0807027 0)
(-0.0666313 -0.0993764 0)
(-0.077559 -0.103971 0)
(-0.0626678 -0.0922355 0)
(-0.0487015 -0.0790971 0)
(-0.0374017 -0.0607529 0)
(-0.0266004 -0.0394688 0)
(-0.0169494 -0.0234263 0)
(-0.00946184 -0.0135621 0)
(-0.00567675 -0.00873639 0)
(-0.00586672 -0.00730819 0)
(-0.00809197 -0.0076406 0)
(-0.00987109 -0.00819746 0)
(-0.00956069 -0.00826911 0)
(-0.0076112 -0.0078869 0)
(-0.00531344 -0.00715555 0)
(-0.00349454 -0.00615017 0)
(-0.00188229 -0.00519576 0)
(-0.00032271 -0.00447853 0)
(0.00323323 -0.00569114 0)
(0.0129667 -0.0120446 0)
(0.032447 -0.0257833 0)
(0.0570263 -0.0433646 0)
(0.0665271 -0.0453817 0)
(0.0475649 -0.0352702 0)
(0.0238687 -0.0238896 0)
(0.00166802 -0.0149159 0)
(-0.0283571 -0.0102433 0)
(-0.0652368 -0.0177549 0)
(-0.180505 -0.0545919 0)
(-0.136932 -0.141144 0)
(0.264677 0.387939 0)
(0.430785 0.171025 0)
(0.18403 0.0359639 0)
(0.0308945 0.0260842 0)
(0.0373101 0.0415803 0)
(0.0641834 0.0511629 0)
(0.0819757 0.0522219 0)
(0.0719827 0.0559272 0)
(0.0392041 0.0688687 0)
(-0.0151792 0.0807027 0)
(-0.0666313 0.0993764 0)
(-0.077559 0.103971 0)
(-0.0626678 0.0922355 0)
(-0.0487015 0.0790971 0)
(-0.0374017 0.0607529 0)
(-0.0266004 0.0394688 0)
(-0.0169494 0.0234263 0)
(-0.00946184 0.0135621 0)
(-0.00567675 0.00873639 0)
(-0.00586672 0.00730819 0)
(-0.00809197 0.0076406 0)
(-0.00987109 0.00819746 0)
(-0.00956069 0.00826911 0)
(-0.0076112 0.0078869 0)
(-0.00531344 0.00715555 0)
(-0.00349454 0.00615017 0)
(-0.00188229 0.00519576 0)
(-0.00032271 0.00447853 0)
(0.00323323 0.00569114 0)
(0.0129667 0.0120446 0)
(0.032447 0.0257833 0)
(0.0570263 0.0433646 0)
(0.0665271 0.0453817 0)
(0.0475649 0.0352702 0)
(0.0238687 0.0238896 0)
(0.00166802 0.0149159 0)
(-0.0283571 0.0102433 0)
(-0.0652368 0.0177549 0)
(-0.180505 0.0545919 0)
(-0.136932 0.141144 0)
(0.0556512 0.509649 0)
(0.0916095 0.222808 0)
(0.0443594 0.0661654 0)
(0.0363067 0.0717029 0)
(0.0614769 0.0976748 0)
(0.0744381 0.110666 0)
(0.0865668 0.112461 0)
(0.0880242 0.116979 0)
(0.0630786 0.129768 0)
(0.0142192 0.143988 0)
(-0.0442093 0.168773 0)
(-0.0844402 0.183129 0)
(-0.0866369 0.171169 0)
(-0.0790393 0.153572 0)
(-0.075589 0.133448 0)
(-0.0625696 0.102962 0)
(-0.0419141 0.0627009 0)
(-0.0236176 0.0310839 0)
(-0.0117032 0.0141502 0)
(-0.00692267 0.00715992 0)
(-0.00723504 0.00724387 0)
(-0.00926543 0.00927929 0)