/*--------------------------------*- C++ -*----------------------------------*\
| =========                 |                                                 |
| \\      /  F ield         | OpenFOAM: The Open Source CFD Toolbox           |
|  \\    /   O peration     | Version:  v1912                                 |
|   \\  /    A nd           | Website:  www.openfoam.com                      |
|    \\/     M anipulation  |                                                 |
\*---------------------------------------------------------------------------*/
FoamFile
{
    version     2.0;
    format      ascii;
    class       volScalarField;
    location    "7.38";
    object      p;
}
// * * * * * * * * * * * * * * * * * * * * * * * * * * * * * * * * * * * * * //

dimensions      [1 -1 -2 0 0 0 0];


internalField   nonuniform List<scalar> 
1900
(
22892.2
9359.57
8560.44
8504.45
8455.01
8422.24
8397.26
8386.7
8381.64
8383.83
22892.2
9359.61
8560.41
8504.41
8454.87
8422.69
8397.35
8389.76
8385.6
8380.55
22892.2
9359.63
8560.4
8504.45
8454.89
8423.15
8397.7
8388.35
8378.04
8370.79
22892.2
9359.61
8560.41
8504.41
8454.87
8422.69
8397.35
8389.76
8385.6
8380.55
22892.2
9359.57
8560.44
8504.45
8455.01
8422.24
8397.26
8386.7
8381.64
8383.83
8510.63
8365.15
8310.95
8152.87
8414.11
8379.29
8282.03
8235.92
8076.12
7980.43
8349.52
8263.48
8223.36
8098.07
8012.7
8379.29
8282.03
8235.92
8076.12
7980.43
8510.63
8365.15
8310.95
8152.87
8414.11
3533.76
2054.65
1443.24
1118.43
860.134
3995.34
2267.42
1555.82
1205.56
925.159
4105.33
2227.74
1507.73
1171.44
883.553
3995.34
2267.42
1555.82
1205.56
925.159
3533.76
2054.65
1443.24
1118.43
860.134
866.986
832.636
797.181
756.752
665.1
587.477
605.585
923.419
1351.69
1392.77
1373.9
1358.66
1306.36
1193.1
1049.69
903.04
760.211
602.9
451.411
366.979
338.093
324.43
313.176
303.3
295.951
291.871
290.498
290.851
291.767
293.52
295.381
297.754
305.953
340.672
488.16
659.741
761.88
820.243
885.446
944.517
806.878
800.242
796.783
768.468
675.403
582.335
595.315
901.474
1351.42
1398.46
1381.34
1362.56
1311.87
1196.84
1052.6
907.794
764.418
605.434
452.362
367.147
338.08
324.438
313.196
303.292
295.919
291.831
290.459
290.817
291.737
293.496
295.358
297.735
305.933
340.611
488.114
659.854
761.812
820.359
885.413
944.647
796.583
786.629
788.046
770.548
684.809
586.446
597.685
889.506
1353.19
1401.4
1384.69
1364.35
1322.4
1219.51
1062.39
908.76
763.019
604.907
452.632
367.27
338.084
324.445
313.205
303.292
295.908
291.817
290.446
290.806
291.727
293.487
295.35
297.727
305.926
340.586
488.095
659.891
761.792
820.427
885.441
944.625
806.878
800.242
796.783
768.468
675.403
582.335
595.315
901.474
1351.42
1398.46
1381.34
1362.56
1311.87
1196.84
1052.6
907.794
764.418
605.434
452.362
367.147
338.08
324.438
313.196
303.292
295.919
291.831
290.459
290.817
291.737
293.496
295.358
297.735
305.933
340.611
488.114
659.854
761.812
820.359
885.413
944.647
866.986
832.636
797.181
756.752
665.1
587.477
605.585
923.419
1351.69
1392.77
1373.9
1358.66
1306.36
1193.1
1049.69
903.04
760.211
602.9
451.411
366.979
338.093
324.43
313.176
303.3
295.951
291.871
290.498
290.851
291.767
293.52
295.381
297.754
305.953
340.672
488.16
659.741
761.88
820.243
885.446
944.517
953.422
853.763
781.183
730.189
651.767
601.616
634.989
954.225
1300.32
1344.27
1329.56
1321.08
1277.3
1171.64
1031.68
892.05
753.978
597.612
447.49
365.907
338.072
324.416
313.101
303.327
296.082
292.049
290.677
291.007
291.904
293.632
295.48
297.827
306.048
340.843
488.28
659.168
761.842
818.362
885.13
944.781
959.366
859.352
760.731
686.259
628.104
622.895
702.646
1003.53
1232
1274.12
1273.89
1260.86
1205.38
1107.51
986.72
862.184
730.854
578.258
436.632
363.435
337.96
324.335
312.959
303.375
296.369
292.469
291.107
291.382
292.232
293.904
295.711
298.002
306.255
341.188
488.527
658.351
761.687
815.682
884.426
944.929
966.508
911.186
840.341
759.769
728.322
756.331
860.228
1059.69
1171.74
1176.07
1190.71
1172
1121.09
1038.26
934.348
822.341
697.395
550.437
422.025
360.306
337.78
324.238
312.879
303.53
296.83
293.12
291.787
291.992
292.779
294.368
296.112
298.312
306.596
341.706
488.771
657.555
761.079
814.178
884.45
945.546
966.971
902.029
830.818
772.802
774.99
812.911
893.137
1042.62
1087.84
1123.2
1125.57
1091.34
1041.22
967.759
875.848
774.916
656.379
517.106
406.177
357.263
337.59
324.167
312.896
303.839
297.486
293.997
292.705
292.834
293.55
295.042
296.7
298.79
307.111
342.474
489.223
657.043
760.69
813.855
884.952
946.245
962.82
894.968
843.828
823.504
843.947
881.442
950.648
1005.9
1036.11
1059.28
1040.48
1013.95
965.786
895.779
814.395
723.613
609.898
480.755
391.275
354.646
337.285
324.048
312.97
304.288
298.324
295.079
293.837
293.891
294.531
295.918
297.478
299.438
307.797
343.379
489.514
656.221
759.887
813.613
885.408
946.778
965.279
915.49
896.781
892.671
897.5
916.025
932.901
943.86
977.844
984.032
973.312
938.203
888.285
825.189
755.651
671.218
559.487
445.242
379.549
352.855
337.044
323.982
313.198
304.96
299.414
296.422
295.236
295.223
295.795
297.081
298.543
300.388
308.807
344.834
490.71
656.339
759.855
814.206
886.533
947.508
974.757
950.834
938.246
905.477
877.521
864.24
866.942
904.048
930.213
918.032
896.176
861.059
813.571
761.151
699.897
616.049
507.271
415.523
371.598
351.309
336.513
323.798
313.464
305.742
300.648
297.928
296.796
296.723
297.246
298.438
299.816
301.551
310.02
346.216
491.348
656.014
759.496
814.476
887.302
947.831
961.089
944.275
893.442
851.496
825.77
827.149
854.593
870.632
858.825
846.123
821.758
786.256
747.982
704.435
644.456
557.137
458.698
395.013
367.035
350.358
336.143
323.865
314.113
306.973
302.328
299.851
298.766
298.639
299.102
300.21
301.516
303.173
311.736
348.372
493.18
656.632
759.811
815.346
888.529
948.457
930.36
934.75
874.198
849.524
827.618
825.099
812.402
805.259
794.992
776.403
750.053
721.703
692.103
650.974
586.456
498.602
422.01
383.493
364.245
349.377
335.787
324.186
315.113
308.581
304.381
302.129
301.088
300.913
301.308
302.356
303.62
305.246
313.899
350.685
494.747
657.326
760.389
816.419
889.84
948.968
985.558
949.08
900.173
860.523
818.979
787.97
765.989
748.499
731.24
710.398
688.67
668.497
641.602
596.176
525.952
449.088
400.872
378.319
363.213
349.264
336.32
325.466
317.097
311.126
307.277
305.16
304.112
303.857
304.165
305.155
306.396
308.036
316.843
354.023
497.716
659.133
761.918
818.307
891.812
950.079
991.02
940.475
900.643
865.654
810.426
759.051
718.667
691.524
671.27
653.381
638.834
622.362
591.745
539.204
471.167
417.645
391.159
375.834
362.526
349.225
336.957
326.863
319.169
313.753
310.25
308.263
307.214
306.883
307.126
308.104
309.398
311.135
320.1
357.19
499.848
660.792
763.877
820.609
893.921
950.846
994.243
950.783
919.362
883.021
806.715
727.357
667.836
636.438
618.475
606.71
596.853
577.912
540.345
485.134
432.358
402.612
386.89
374.909
362.556
349.833
338.377
329.138
322.163
317.272
314.07
312.223
311.204
310.863
311.111
312.198
313.628
315.611
324.95
362.53
505.297
665.887
768.94
825.497
898.024
952.871
1001.28
961.735
935.458
889.768
801.116
691.468
618.341
589.463
577.267
570.522
559.327
533.181
490.773
445.367
415.717
400.075
389.675
379.424
367.888
356.269
346.207
338.322
332.535
328.594
326.072
324.683
323.962
323.837
324.274
325.65
327.302
329.658
339.561
378.516
524.252
686.517
787.505
837.617
904.106
954.21
1007.7
971.248
947.028
887.596
792.099
661.341
584.323
559.526
551.726
546.923
533.171
503.88
466.945
438.497
423.948
416.597
410.621
403.455
394.83
386.289
379.423
374.762
371.965
370.675
370.405
371.103
371.802
373.332
375.087
377.77
379.911
383.245
394.777
438.866
596.073
756.082
842.848
875.689
924.117
958.326
1010.96
977.281
954.05
900.847
802.217
664.713
590.215
572.394
570.881
568.023
554.789
536.45
521.974
517.874
519.76
523.617
526.354
525.729
522.228
517.968
515.139
514.45
514.759
516.013
517.628
520.011
521.711
524.421
526.751
530.077
532.084
535.695
549.931
602.632
770.657
917.249
979.824
970.174
971.156
965.988
1008.33
999.847
1006.28
1000.84
927.088
794.742
713.398
696.318
698.416
698.357
689.374
681.732
679.73
684.525
690.904
695.404
695.186
691.255
685.179
679.222
674.977
672.272
669.778
668.502
667.778
668.207
668.39
669.365
670.246
672.061
673.144
675.579
690.432
739.321
890.056
1025.51
1092.29
1079.33
1042.15
993.095
1004.6
1038.59
1097.1
1138.44
1087.91
970.592
870.41
834.678
822.662
813.86
804.533
802.251
802.941
806.425
808.835
807.589
801.989
793.965
785.255
777.639
771.798
767.982
765.135
763.222
761.78
761.473
761.158
761.57
762.113
763.537
764.733
767.592
779.873
820.445
941.194
1072.51
1145.62
1132.24
1077.95
1005.62
993.837
1061.22
1142.25
1171.57
1123.88
1012.79
915.089
873.806
855.35
847.704
842.631
843.025
845.175
848.632
850.379
848.968
844.593
838.594
833
829.52
828.446
824.986
820.94
818.584
817.636
818.074
818.46
819.509
820.665
822.533
824.314
827.718
835.243
865.86
944.16
1060.91
1127.87
1137.74
1084.88
982.445
1132.69
936.212
1114.32
1132.77
1101.92
1015.59
947.75
918.537
904.551
899.965
898.032
900.054
904.111
908.093
909.646
908.504
904.787
900.033
895.745
892.733
891.559
889.697
888.808
888.662
888.897
889.932
890.697
891.936
893.118
894.828
896.451
899.469
903.432
919.391
958.098
1030.19
1075.83
1086.3
931.643
995.265
11231
955.378
1001.83
1028.03
1011.26
960.24
924.086
911.564
908.462
910.829
914.736
921.564
928.789
934.85
939.083
941.625
942.609
942.646
942.211
941.816
941.638
941.702
942.212
943.242
944.425
945.784
946.635
947.744
948.561
949.753
950.571
952.441
953.548
957.063
963.457
987.834
1004.27
987.42
989.764
7851.31
11231
955.378
1001.83
1028.03
1011.26
960.24
924.086
911.564
908.462
910.829
914.736
921.564
928.789
934.85
939.083
941.625
942.609
942.646
942.211
941.816
941.638
941.702
942.212
943.242
944.425
945.784
946.635
947.744
948.561
949.753
950.571
952.441
953.548
957.063
963.457
987.834
1004.27
987.42
989.764
7851.31
1132.69
936.212
1114.32
1132.77
1101.92
1015.59
947.75
918.537
904.551
899.965
898.032
900.054
904.111
908.093
909.646
908.504
904.787
900.033
895.745
892.733
891.559
889.697
888.808
888.662
888.897
889.932
890.697
891.936
893.118
894.828
896.451
899.469
903.432
919.391
958.098
1030.19
1075.83
1086.3
931.643
995.265
993.837
1061.22
1142.25
1171.57
1123.88
1012.79
915.089
873.806
855.35
847.704
842.631
843.025
845.175
848.632
850.379
848.968
844.593
838.594
833
829.52
828.446
824.986
820.94
818.584
817.636
818.074
818.46
819.509
820.665
822.533
824.314
827.718
835.243
865.86
944.16
1060.91
1127.87
1137.74
1084.88
982.445
1004.6
1038.59
1097.1
1138.44
1087.91
970.592
870.41
834.678
822.662
813.86
804.533
802.251
802.941
806.425
808.835
807.589
801.989
793.965
785.255
777.639
771.798
767.982
765.135
763.222
761.78
761.473
761.158
761.57
762.113
763.537
764.733
767.592
779.873
820.445
941.194
1072.51
1145.62
1132.24
1077.95
1005.62
1008.33
999.847
1006.28
1000.84
927.088
794.742
713.398
696.318
698.416
698.357
689.374
681.732
679.73
684.525
690.904
695.404
695.186
691.255
685.179
679.222
674.977
672.272
669.778
668.502
667.778
668.207
668.39
669.365
670.246
672.061
673.144
675.579
690.432
739.321
890.056
1025.51
1092.29
1079.33
1042.15
993.095
1010.96
977.281
954.05
900.847
802.217
664.713
590.215
572.394
570.881
568.023
554.789
536.45
521.974
517.874
519.76
523.617
526.354
525.729
522.228
517.968
515.139
514.45
514.759
516.013
517.628
520.011
521.711
524.421
526.751
530.077
532.084
535.695
549.931
602.632
770.657
917.249
979.824
970.174
971.156
965.988
1007.7
971.248
947.028
887.596
792.099
661.341
584.323
559.526
551.726
546.923
533.171
503.88
466.945
438.497
423.948
416.597
410.621
403.455
394.83
386.289
379.423
374.762
371.965
370.675
370.405
371.103
371.802
373.332
375.087
377.77
379.911
383.245
394.777
438.866
596.073
756.082
842.848
875.689
924.117
958.326
1001.28
961.735
935.458
889.768
801.116
691.468
618.341
589.463
577.267
570.522
559.327
533.181
490.773
445.367
415.717
400.075
389.675
379.424
367.888
356.269
346.207
338.322
332.535
328.594
326.072
324.683
323.962
323.837
324.274
325.65
327.302
329.658
339.561
378.516
524.252
686.517
787.505
837.617
904.106
954.21
994.243
950.783
919.362
883.021
806.715
727.357
667.836
636.438
618.475
606.71
596.853
577.912
540.345
485.134
432.358
402.612
386.89
374.909
362.556
349.833
338.377
329.138
322.163
317.272
314.07
312.223
311.204
310.863
311.111
312.198
313.628
315.611
324.95
362.53
505.297
665.887
768.94
825.497
898.024
952.871
991.02
940.475
900.643
865.654
810.426
759.051
718.667
691.524
671.27
653.381
638.834
622.362
591.745
539.204
471.167
417.645
391.159
375.834
362.526
349.225
336.957
326.863
319.169
313.753
310.25
308.263
307.214
306.883
307.126
308.104
309.398
311.135
320.1
357.19
499.848
660.792
763.877
820.609
893.921
950.846
985.558
949.08
900.173
860.523
818.979
787.97
765.989
748.499
731.24
710.398
688.67
668.497
641.602
596.176
525.952
449.088
400.872
378.319
363.213
349.264
336.32
325.466
317.097
311.126
307.277
305.16
304.112
303.857
304.165
305.155
306.396
308.036
316.843
354.023
497.716
659.133
761.918
818.307
891.812
950.079
930.36
934.75
874.198
849.524
827.618
825.099
812.402
805.259
794.992
776.403
750.053
721.703
692.103
650.974
586.456
498.602
422.01
383.493
364.245
349.377
335.787
324.186
315.113
308.581
304.381
302.129
301.088
300.913
301.308
302.356
303.62
305.246
313.899
350.685
494.747
657.326
760.389
816.419
889.84
948.968
961.089
944.275
893.442
851.496
825.77
827.149
854.593
870.632
858.825
846.123
821.758
786.256
747.982
704.435
644.456
557.137
458.698
395.013
367.035
350.358
336.143
323.865
314.113
306.973
302.328
299.851
298.766
298.639
299.102
300.21
301.516
303.173
311.736
348.372
493.18
656.632
759.811
815.346
888.529
948.457
974.757
950.834
938.246
905.477
877.521
864.24
866.942
904.048
930.213
918.032
896.176
861.059
813.571
761.151
699.897
616.049
507.271
415.523
371.598
351.309
336.513
323.798
313.464
305.742
300.648
297.928
296.796
296.723
297.246
298.438
299.816
301.551
310.02
346.216
491.348
656.014
759.496
814.476
887.302
947.831
965.279
915.49
896.781
892.671
897.5
916.025
932.901
943.86
977.844
984.032
973.312
938.203
888.285
825.189
755.651
671.218
559.487
445.242
379.549
352.855
337.044
323.982
313.198
304.96
299.414
296.422
295.236
295.223
295.795
297.081
298.543
300.388
308.807
344.834
490.71
656.339
759.855
814.206
886.533
947.508
962.82
894.968
843.828
823.504
843.947
881.442
950.648
1005.9
1036.11
1059.28
1040.48
1013.95
965.786
895.779
814.395
723.613
609.898
480.755
391.275
354.646
337.285
324.048
312.97
304.288
298.324
295.079
293.837
293.891
294.531
295.918
297.478
299.438
307.797
343.379
489.514
656.221
759.887
813.613
885.408
946.778
966.971
902.029
830.818
772.802
774.99
812.911
893.137
1042.62
1087.84
1123.2
1125.57
1091.34
1041.22
967.759
875.848
774.916
656.379
517.106
406.177
357.263
337.59
324.167
312.896
303.839
297.486
293.997
292.705
292.834
293.55
295.042
296.7
298.79
307.111
342.474
489.223
657.043
760.69
813.855
884.952
946.245
966.508
911.186
840.341
759.769
728.322
756.331
860.228
1059.69
1171.74
1176.07
1190.71
1172
1121.09
1038.26
934.348
822.341
697.395
550.437
422.025
360.306
337.78
324.238
312.879
303.53
296.83
293.12
291.787
291.992
292.779
294.368
296.112
298.312
306.596
341.706
488.771
657.555
761.079
814.178
884.45
945.546
959.366
859.352
760.731
686.259
628.104
622.895
702.646
1003.53
1232
1274.12
1273.89
1260.86
1205.38
1107.51
986.72
862.184
730.854
578.258
436.632
363.435
337.96
324.335
312.959
303.375
296.369
292.469
291.107
291.382
292.232
293.904
295.711
298.002
306.255
341.188
488.527
658.351
761.687
815.682
884.426
944.929
953.422
853.763
781.183
730.189
651.767
601.616
634.989
954.225
1300.32
1344.27
1329.56
1321.08
1277.3
1171.64
1031.68
892.05
753.978
597.612
447.49
365.907
338.072
324.416
313.101
303.327
296.082
292.049
290.677
291.007
291.904
293.632
295.48
297.827
306.048
340.843
488.28
659.168
761.842
818.362
885.13
944.781
)
;

boundaryField
{
    inlet
    {
        type            fixedValue;
        value           uniform 10000;
    }
    outlet
    {
        type            fixedValue;
        value           uniform 1000;
    }
    obstacle
    {
        type            zeroGradient;
    }
    empty
    {
        type            empty;
    }
}


// ************************************************************************* //
