/*--------------------------------*- C++ -*----------------------------------*\
| =========                 |                                                 |
| \\      /  F ield         | OpenFOAM: The Open Source CFD Toolbox           |
|  \\    /   O peration     | Version:  v1912                                 |
|   \\  /    A nd           | Website:  www.openfoam.com                      |
|    \\/     M anipulation  |                                                 |
\*---------------------------------------------------------------------------*/
FoamFile
{
    version     2.0;
    format      ascii;
    class       volVectorField;
    location    "7.38";
    object      U;
}
// * * * * * * * * * * * * * * * * * * * * * * * * * * * * * * * * * * * * * //

dimensions      [0 1 -1 0 0 0 0];


internalField   nonuniform List<vector> 
1900
(
(-0.631083 -5.24707e-07 0)
(0.0145582 -1.40058e-06 0)
(0.09619 -2.07007e-06 0)
(0.0937479 -8.89708e-07 0)
(0.094244 -2.13764e-05 0)
(0.0936288 -5.12621e-05 0)
(0.0936911 -0.000102034 0)
(0.0943414 0.00037863 0)
(0.0957015 0.00298904 0)
(0.0888366 0.0121293 0)
(-0.631082 3.37267e-07 0)
(0.0145596 -2.45935e-06 0)
(0.096187 -2.63426e-06 0)
(0.0937451 -2.45857e-06 0)
(0.0942317 -2.55653e-05 0)
(0.0935589 -7.4435e-05 0)
(0.0934614 -0.000123459 0)
(0.0941528 0.000288447 0)
(0.0972797 0.00209224 0)
(0.100262 0.0113651 0)
(-0.631082 -3.25101e-14 0)
(0.0145601 -1.42675e-14 0)
(0.0961847 -1.89239e-14 0)
(0.093742 -2.33051e-14 0)
(0.0942138 -1.32762e-14 0)
(0.0934975 5.61846e-15 0)
(0.0933598 2.51508e-14 0)
(0.0943747 1.2237e-15 0)
(0.0978899 -1.17887e-14 0)
(0.106952 -2.24421e-14 0)
(-0.631082 -3.37267e-07 0)
(0.0145596 2.45935e-06 0)
(0.096187 2.63426e-06 0)
(0.0937451 2.45857e-06 0)
(0.0942317 2.55653e-05 0)
(0.0935589 7.4435e-05 0)
(0.0934614 0.000123459 0)
(0.0941528 -0.000288447 0)
(0.0972797 -0.00209224 0)
(0.100262 -0.0113651 0)
(-0.631083 5.24707e-07 0)
(0.0145582 1.40058e-06 0)
(0.09619 2.07007e-06 0)
(0.0937479 8.89708e-07 0)
(0.094244 2.13764e-05 0)
(0.0936288 5.12621e-05 0)
(0.0936911 0.000102034 0)
(0.0943414 -0.00037863 0)
(0.0957015 -0.00298904 0)
(0.0888366 -0.0121293 0)
(0.0918451 0.0383687 0)
(0.128293 0.0516606 0)
(0.175809 0.0757005 0)
(0.252122 0.117363 0)
(0.397003 0.173793 0)
(0.114911 0.0277117 0)
(0.142026 0.0286073 0)
(0.172734 0.0379718 0)
(0.235542 0.0597859 0)
(0.376864 0.102282 0)
(0.125853 -2.56516e-14 0)
(0.151538 -3.8552e-14 0)
(0.183526 -2.46789e-15 0)
(0.246732 -2.54999e-14 0)
(0.387007 -6.99508e-15 0)
(0.114911 -0.0277117 0)
(0.142026 -0.0286073 0)
(0.172734 -0.0379718 0)
(0.235542 -0.0597859 0)
(0.376864 -0.102282 0)
(0.0918451 -0.0383687 0)
(0.128293 -0.0516606 0)
(0.175809 -0.0757005 0)
(0.252122 -0.117363 0)
(0.397003 -0.173793 0)
(0.847355 0.0301146 0)
(1.10843 -0.0517913 0)
(1.26148 -0.0838754 0)
(1.34864 -0.093997 0)
(1.43541 -0.10838 0)
(0.820494 -0.0175769 0)
(1.12098 -0.04824 0)
(1.29319 -0.0595298 0)
(1.38195 -0.0594349 0)
(1.46166 -0.0784228 0)
(0.816662 8.07732e-16 0)
(1.12502 1.0476e-14 0)
(1.28861 -1.91374e-14 0)
(1.37322 3.01813e-14 0)
(1.45053 -4.01622e-14 0)
(0.820494 0.0175769 0)
(1.12098 0.04824 0)
(1.29319 0.0595298 0)
(1.38195 0.0594349 0)
(1.46166 0.0784228 0)
(0.847355 -0.0301146 0)
(1.10843 0.0517913 0)
(1.26148 0.0838754 0)
(1.34864 0.093997 0)
(1.43541 0.10838 0)
(1.49489 -0.0296749 0)
(1.51266 0.0128454 0)
(1.52836 0.00438325 0)
(1.54583 -0.00826796 0)
(1.58736 -0.0405004 0)
(1.63603 -0.0254654 0)
(1.62535 -0.00522888 0)
(1.43416 0.00982768 0)
(1.14357 -0.0162856 0)
(1.1101 -0.0320855 0)
(1.05533 -0.055861 0)
(0.954386 -0.0752542 0)
(0.828426 -0.0795589 0)
(0.701126 -0.0666179 0)
(0.592234 -0.0508394 0)
(0.504517 -0.0368856 0)
(0.423125 -0.0280164 0)
(0.323298 -0.0217956 0)
(0.204722 -0.0163828 0)
(0.129824 -0.0134731 0)
(0.112341 -0.0127469 0)
(0.112681 -0.012418 0)
(0.115619 -0.0120875 0)
(0.119519 -0.0117454 0)
(0.126044 -0.0116096 0)
(0.136548 -0.0115661 0)
(0.150414 -0.0116535 0)
(0.165535 -0.0115531 0)
(0.18061 -0.0116997 0)
(0.194865 -0.0115659 0)
(0.208754 -0.011868 0)
(0.222435 -0.0116111 0)
(0.230564 -0.0119436 0)
(0.19652 -0.0119239 0)
(0.0510606 -0.0116871 0)
(-0.0716535 -0.0116876 0)
(-0.11036 -0.0116236 0)
(-0.134005 -0.0125463 0)
(-0.149206 -0.0169889 0)
(-0.177216 -0.0133661 0)
(1.4893 -0.0292205 0)
(1.4908 -0.0020669 0)
(1.50536 0.00832267 0)
(1.52063 8.47888e-05 0)
(1.5664 -0.0253882 0)
(1.61887 -0.0239376 0)
(1.60985 -0.011242 0)
(1.44283 0.00968949 0)
(1.14805 -0.00801688 0)
(1.10627 -0.0144735 0)
(1.0474 -0.0266787 0)
(0.944597 -0.036249 0)
(0.821697 -0.0382411 0)
(0.705179 -0.0310733 0)
(0.601133 -0.0268928 0)
(0.513633 -0.0195572 0)
(0.4302 -0.014225 0)
(0.327133 -0.010699 0)
(0.205717 -0.00816484 0)
(0.129977 -0.00674206 0)
(0.112409 -0.0063737 0)
(0.112786 -0.00621369 0)
(0.115719 -0.00605113 0)
(0.119593 -0.00587379 0)
(0.126137 -0.00580493 0)
(0.136665 -0.00578662 0)
(0.150562 -0.00583153 0)
(0.165711 -0.00578089 0)
(0.180815 -0.00585389 0)
(0.195095 -0.00578598 0)
(0.209006 -0.00593759 0)
(0.222708 -0.00580617 0)
(0.230888 -0.00597273 0)
(0.196939 -0.0059517 0)
(0.0516555 -0.00581127 0)
(-0.0708869 -0.00581281 0)
(-0.109451 -0.00572042 0)
(-0.132643 -0.0063752 0)
(-0.149419 -0.00860887 0)
(-0.178477 -0.00668164 0)
(1.47902 1.11203e-14 0)
(1.48673 5.98104e-14 0)
(1.49618 -2.98194e-16 0)
(1.50921 -5.74067e-14 0)
(1.55627 -6.49111e-14 0)
(1.60922 1.56943e-13 0)
(1.60012 3.70771e-13 0)
(1.43568 9.46482e-13 0)
(1.14972 -7.59431e-13 0)
(1.10656 -6.38484e-13 0)
(1.05041 -1.97985e-13 0)
(0.952335 4.16292e-13 0)
(0.834696 1.64678e-13 0)
(0.720016 -2.679e-13 0)
(0.611466 2.47543e-14 0)
(0.512812 7.12905e-13 0)
(0.426749 1.00842e-12 0)
(0.326088 -8.7036e-14 0)
(0.206392 -6.46239e-13 0)
(0.130287 -7.10921e-13 0)
(0.112478 -3.38122e-13 0)
(0.112836 -1.81125e-13 0)
(0.115777 5.1282e-13 0)
(0.119609 8.98242e-13 0)
(0.126136 1.8175e-13 0)
(0.136666 -1.8768e-13 0)
(0.150569 -3.99084e-13 0)
(0.16572 -1.11532e-12 0)
(0.180828 -3.28828e-13 0)
(0.195111 2.25732e-13 0)
(0.209028 -6.20263e-13 0)
(0.22274 -2.06449e-13 0)
(0.230944 6.6463e-13 0)
(0.197044 4.1028e-13 0)
(0.0518435 -3.6282e-13 0)
(-0.070572 -2.23121e-13 0)
(-0.108932 6.04552e-13 0)
(-0.131622 3.05678e-13 0)
(-0.148426 -5.42909e-13 0)
(-0.177558 -1.10804e-13 0)
(1.4893 0.0292205 0)
(1.4908 0.0020669 0)
(1.50536 -0.00832267 0)
(1.52063 -8.47888e-05 0)
(1.5664 0.0253882 0)
(1.61887 0.0239376 0)
(1.60985 0.011242 0)
(1.44283 -0.00968949 0)
(1.14805 0.00801688 0)
(1.10627 0.0144735 0)
(1.0474 0.0266787 0)
(0.944597 0.036249 0)
(0.821697 0.0382411 0)
(0.705179 0.0310733 0)
(0.601133 0.0268928 0)
(0.513633 0.0195572 0)
(0.4302 0.014225 0)
(0.327133 0.010699 0)
(0.205717 0.00816484 0)
(0.129977 0.00674206 0)
(0.112409 0.0063737 0)
(0.112786 0.00621369 0)
(0.115719 0.00605113 0)
(0.119593 0.00587379 0)
(0.126137 0.00580493 0)
(0.136665 0.00578662 0)
(0.150562 0.00583153 0)
(0.165711 0.00578089 0)
(0.180815 0.00585389 0)
(0.195095 0.00578598 0)
(0.209006 0.00593759 0)
(0.222708 0.00580617 0)
(0.230888 0.00597273 0)
(0.196939 0.0059517 0)
(0.0516555 0.00581127 0)
(-0.0708869 0.00581281 0)
(-0.109451 0.00572042 0)
(-0.132643 0.0063752 0)
(-0.149419 0.00860887 0)
(-0.178477 0.00668164 0)
(1.49489 0.0296749 0)
(1.51266 -0.0128454 0)
(1.52836 -0.00438325 0)
(1.54583 0.00826796 0)
(1.58736 0.0405004 0)
(1.63603 0.0254654 0)
(1.62535 0.00522888 0)
(1.43416 -0.00982768 0)
(1.14357 0.0162856 0)
(1.1101 0.0320855 0)
(1.05533 0.055861 0)
(0.954386 0.0752542 0)
(0.828426 0.0795589 0)
(0.701126 0.0666179 0)
(0.592234 0.0508394 0)
(0.504517 0.0368856 0)
(0.423125 0.0280164 0)
(0.323298 0.0217956 0)
(0.204722 0.0163828 0)
(0.129824 0.0134731 0)
(0.112341 0.0127469 0)
(0.112681 0.012418 0)
(0.115619 0.0120875 0)
(0.119519 0.0117454 0)
(0.126044 0.0116096 0)
(0.136548 0.0115661 0)
(0.150414 0.0116535 0)
(0.165535 0.0115531 0)
(0.18061 0.0116997 0)
(0.194865 0.0115659 0)
(0.208754 0.011868 0)
(0.222435 0.0116111 0)
(0.230564 0.0119436 0)
(0.19652 0.0119239 0)
(0.0510606 0.0116871 0)
(-0.0716535 0.0116876 0)
(-0.11036 0.0116236 0)
(-0.134005 0.0125463 0)
(-0.149206 0.0169889 0)
(-0.177216 0.0133661 0)
(1.53862 -0.00519206 0)
(1.54834 0.00256179 0)
(1.55296 0.00852615 0)
(1.55667 0.0195623 0)
(1.58759 0.0606657 0)
(1.5954 0.0367682 0)
(1.56195 0.00138538 0)
(1.33891 0.00900336 0)
(1.11756 0.0410278 0)
(1.07896 0.0799558 0)
(1.01403 0.124465 0)
(0.907689 0.164759 0)
(0.789974 0.167415 0)
(0.680918 0.139465 0)
(0.585939 0.105003 0)
(0.503258 0.077677 0)
(0.422288 0.0597602 0)
(0.320287 0.046067 0)
(0.200558 0.0342673 0)
(0.128118 0.028017 0)
(0.111924 0.0263964 0)
(0.112353 0.0256809 0)
(0.11532 0.025021 0)
(0.119369 0.0244311 0)
(0.126029 0.024145 0)
(0.136595 0.0240185 0)
(0.150454 0.0241873 0)
(0.165585 0.0239798 0)
(0.180662 0.0242832 0)
(0.194937 0.0240138 0)
(0.208854 0.0246229 0)
(0.222581 0.0241215 0)
(0.230675 0.0248066 0)
(0.196557 0.0248724 0)
(0.0511316 0.0246653 0)
(-0.0713383 0.0244732 0)
(-0.109412 0.0249947 0)
(-0.134586 0.024887 0)
(-0.147273 0.0326507 0)
(-0.172751 0.0270887 0)
(1.52308 0.141878 0)
(1.52684 0.140311 0)
(1.5298 0.129526 0)
(1.52346 0.103935 0)
(1.53549 0.145998 0)
(1.46853 0.102171 0)
(1.39904 0.0363133 0)
(1.1788 0.0230449 0)
(1.04506 0.0515784 0)
(0.987343 0.119272 0)
(0.898623 0.210871 0)
(0.789669 0.274324 0)
(0.695838 0.267207 0)
(0.618846 0.222931 0)
(0.547208 0.173435 0)
(0.477197 0.134385 0)
(0.401477 0.10559 0)
(0.301436 0.0806795 0)
(0.187692 0.0598533 0)
(0.124085 0.0498075 0)
(0.110805 0.0471367 0)
(0.111507 0.0458632 0)
(0.114465 0.0447645 0)
(0.118862 0.0438554 0)
(0.125932 0.043365 0)
(0.136719 0.0431118 0)
(0.150579 0.0433929 0)
(0.165731 0.043012 0)
(0.18081 0.0435465 0)
(0.195141 0.0430755 0)
(0.209129 0.0441195 0)
(0.222981 0.0432753 0)
(0.231044 0.0444534 0)
(0.196836 0.0446923 0)
(0.0517304 0.0445957 0)
(-0.0701673 0.043975 0)
(-0.107274 0.0456915 0)
(-0.134757 0.0433811 0)
(-0.146584 0.0546986 0)
(-0.170748 0.048551 0)
(1.48228 0.238332 0)
(1.47527 0.250142 0)
(1.47428 0.243873 0)
(1.48954 0.214054 0)
(1.47717 0.207919 0)
(1.40077 0.153963 0)
(1.29391 0.0803763 0)
(1.11819 0.0813765 0)
(0.991984 0.12231 0)
(0.875131 0.21345 0)
(0.758918 0.333222 0)
(0.659908 0.372209 0)
(0.599166 0.340464 0)
(0.549795 0.283454 0)
(0.497378 0.226281 0)
(0.440296 0.180388 0)
(0.371188 0.143666 0)
(0.274252 0.1101 0)
(0.170135 0.0829598 0)
(0.118693 0.0708788 0)
(0.10913 0.0674661 0)
(0.110199 0.0657243 0)
(0.113227 0.0642018 0)
(0.11807 0.0630057 0)
(0.125679 0.0623466 0)
(0.136808 0.0619708 0)
(0.150712 0.0623543 0)
(0.1659 0.0618002 0)
(0.180968 0.0625549 0)
(0.195361 0.0619152 0)
(0.20943 0.0633341 0)
(0.223437 0.0622426 0)
(0.231454 0.0638084 0)
(0.197149 0.0642809 0)
(0.0525891 0.0642731 0)
(-0.0686456 0.0632295 0)
(-0.105212 0.0665667 0)
(-0.134225 0.0622961 0)
(-0.146379 0.0752664 0)
(-0.170331 0.0692857 0)
(1.39133 0.292985 0)
(1.39314 0.303846 0)
(1.40146 0.300501 0)
(1.41585 0.27387 0)
(1.37288 0.256932 0)
(1.30399 0.206172 0)
(1.19173 0.151671 0)
(1.02157 0.168631 0)
(0.868356 0.234236 0)
(0.730091 0.365862 0)
(0.611113 0.447659 0)
(0.542996 0.4404 0)
(0.511085 0.391904 0)
(0.481962 0.32649 0)
(0.444606 0.265424 0)
(0.398445 0.216399 0)
(0.334511 0.174499 0)
(0.240872 0.134298 0)
(0.150542 0.10363 0)
(0.113076 0.0912579 0)
(0.107191 0.0874265 0)
(0.108524 0.0852545 0)
(0.111702 0.0833117 0)
(0.117063 0.0818495 0)
(0.125275 0.0810633 0)
(0.136801 0.0805903 0)
(0.150768 0.0810815 0)
(0.165999 0.080357 0)
(0.181038 0.081319 0)
(0.195482 0.0805445 0)
(0.209628 0.082274 0)
(0.223802 0.0810213 0)
(0.231753 0.0828776 0)
(0.197276 0.0836283 0)
(0.0532575 0.0837461 0)
(-0.067515 0.0824003 0)
(-0.103821 0.0874545 0)
(-0.133929 0.081836 0)
(-0.146488 0.0955237 0)
(-0.170678 0.0896232 0)
(1.27247 0.36718 0)
(1.27338 0.368555 0)
(1.27479 0.35073 0)
(1.25925 0.318922 0)
(1.20389 0.28975 0)
(1.1274 0.254267 0)
(1.00411 0.253452 0)
(0.840993 0.298871 0)
(0.677088 0.405599 0)
(0.545752 0.503438 0)
(0.466606 0.51987 0)
(0.443282 0.486279 0)
(0.434643 0.420655 0)
(0.41845 0.349913 0)
(0.391781 0.291045 0)
(0.353724 0.242747 0)
(0.292273 0.197247 0)
(0.202865 0.152183 0)
(0.130808 0.121701 0)
(0.107158 0.110846 0)
(0.104518 0.106955 0)
(0.106224 0.104326 0)
(0.109835 0.10199 0)
(0.1159 0.100339 0)
(0.124852 0.0994613 0)
(0.136882 0.0989114 0)
(0.150993 0.0995123 0)
(0.166338 0.0986159 0)
(0.181392 0.0997732 0)
(0.195938 0.0988958 0)
(0.210213 0.10087 0)
(0.224619 0.099517 0)
(0.232594 0.10156 0)
(0.198118 0.102578 0)
(0.0552019 0.102747 0)
(-0.0646921 0.100973 0)
(-0.100337 0.107593 0)
(-0.130947 0.100969 0)
(-0.143593 0.115208 0)
(-0.168232 0.10938 0)
(1.10879 0.421979 0)
(1.10321 0.410036 0)
(1.0793 0.385868 0)
(1.04199 0.361424 0)
(0.985574 0.350858 0)
(0.888281 0.354683 0)
(0.738501 0.38343 0)
(0.572377 0.46329 0)
(0.44289 0.56024 0)
(0.374042 0.584121 0)
(0.356038 0.562677 0)
(0.36392 0.501885 0)
(0.367455 0.428405 0)
(0.359492 0.363726 0)
(0.341309 0.310432 0)
(0.307617 0.262787 0)
(0.245451 0.213331 0)
(0.164415 0.16616 0)
(0.114904 0.139454 0)
(0.102629 0.130284 0)
(0.101938 0.126215 0)
(0.103768 0.123039 0)
(0.107831 0.120305 0)
(0.114575 0.118512 0)
(0.124178 0.117584 0)
(0.136606 0.116985 0)
(0.150768 0.117694 0)
(0.166142 0.116625 0)
(0.181101 0.117971 0)
(0.195646 0.117023 0)
(0.209947 0.119186 0)
(0.224481 0.117776 0)
(0.232332 0.119938 0)
(0.197484 0.121218 0)
(0.0549435 0.121538 0)
(-0.0645932 0.119605 0)
(-0.0999974 0.12784 0)
(-0.131538 0.120255 0)
(-0.144542 0.134914 0)
(-0.16989 0.128971 0)
(0.8886 0.464227 0)
(0.864958 0.45575 0)
(0.824474 0.442524 0)
(0.773694 0.425997 0)
(0.687946 0.431686 0)
(0.555224 0.467441 0)
(0.407049 0.540531 0)
(0.302707 0.620425 0)
(0.262227 0.638554 0)
(0.259574 0.614604 0)
(0.280771 0.559487 0)
(0.300177 0.491523 0)
(0.307842 0.427072 0)
(0.306427 0.371353 0)
(0.293396 0.322583 0)
(0.259099 0.27375 0)
(0.195155 0.220402 0)
(0.129532 0.176301 0)
(0.10159 0.15638 0)
(0.0971215 0.149127 0)
(0.0979731 0.144887 0)
(0.100551 0.141206 0)
(0.105571 0.138243 0)
(0.113368 0.136349 0)
(0.123924 0.135382 0)
(0.136999 0.134733 0)
(0.151468 0.135533 0)
(0.167062 0.134278 0)
(0.182123 0.135802 0)
(0.196831 0.134795 0)
(0.211294 0.137095 0)
(0.226071 0.135629 0)
(0.234017 0.137845 0)
(0.199397 0.139398 0)
(0.0583121 0.139939 0)
(-0.0605691 0.137797 0)
(-0.0953472 0.147349 0)
(-0.127497 0.139113 0)
(-0.140659 0.154194 0)
(-0.16681 0.148215 0)
(0.601912 0.485439 0)
(0.551207 0.493321 0)
(0.506843 0.477721 0)
(0.427214 0.49796 0)
(0.317284 0.551157 0)
(0.211881 0.619289 0)
(0.150982 0.669848 0)
(0.142802 0.673751 0)
(0.159769 0.646417 0)
(0.193078 0.597281 0)
(0.221875 0.539455 0)
(0.241885 0.480445 0)
(0.254437 0.425949 0)
(0.257973 0.37738 0)
(0.245377 0.330373 0)
(0.206358 0.278281 0)
(0.145955 0.224259 0)
(0.10419 0.188859 0)
(0.0933856 0.174392 0)
(0.0929688 0.167824 0)
(0.0943028 0.162973 0)
(0.0973984 0.158786 0)
(0.103182 0.155613 0)
(0.111742 0.153676 0)
(0.122897 0.152734 0)
(0.136288 0.15207 0)
(0.150873 0.152975 0)
(0.166361 0.15158 0)
(0.181384 0.153246 0)
(0.19611 0.152224 0)
(0.210605 0.154637 0)
(0.225507 0.153141 0)
(0.233381 0.155356 0)
(0.198598 0.157055 0)
(0.0583409 0.157734 0)
(-0.0598675 0.155576 0)
(-0.093762 0.166717 0)
(-0.126504 0.157931 0)
(-0.139773 0.173467 0)
(-0.166765 0.167449 0)
(0.228004 0.517554 0)
(0.189155 0.544473 0)
(0.160081 0.563951 0)
(0.100605 0.613109 0)
(0.046544 0.663233 0)
(0.0258425 0.690592 0)
(0.0387572 0.685691 0)
(0.070916 0.659571 0)
(0.107507 0.618574 0)
(0.142413 0.570188 0)
(0.169917 0.517854 0)
(0.192445 0.467249 0)
(0.209316 0.420973 0)
(0.213241 0.376304 0)
(0.195911 0.327826 0)
(0.151926 0.272741 0)
(0.104894 0.225102 0)
(0.0858728 0.201269 0)
(0.0848663 0.191152 0)
(0.0868689 0.18496 0)
(0.0895258 0.179944 0)
(0.0938758 0.175583 0)
(0.100996 0.172342 0)
(0.110818 0.170387 0)
(0.122997 0.169465 0)
(0.137046 0.168753 0)
(0.152033 0.169738 0)
(0.167628 0.168256 0)
(0.182821 0.169976 0)
(0.197665 0.16896 0)
(0.212243 0.171445 0)
(0.227234 0.169903 0)
(0.235098 0.172084 0)
(0.200659 0.17397 0)
(0.0619649 0.174935 0)
(-0.0558282 0.172836 0)
(-0.0891806 0.185298 0)
(-0.122709 0.176252 0)
(-0.136167 0.192309 0)
(-0.164167 0.186416 0)
(-0.0473548 0.545484 0)
(-0.0448155 0.578921 0)
(-0.0439893 0.612509 0)
(-0.0520313 0.647656 0)
(-0.0465454 0.6744 0)
(-0.0296581 0.677522 0)
(-0.00378854 0.659679 0)
(0.0301556 0.628744 0)
(0.0648218 0.588037 0)
(0.0960791 0.542814 0)
(0.124218 0.498099 0)
(0.149586 0.456396 0)
(0.166929 0.415419 0)
(0.16618 0.371338 0)
(0.141715 0.319697 0)
(0.101811 0.266996 0)
(0.0782682 0.232722 0)
(0.0760721 0.216821 0)
(0.0788253 0.207939 0)
(0.0817679 0.20128 0)
(0.0849514 0.195645 0)
(0.0901963 0.191057 0)
(0.0981622 0.187885 0)
(0.108684 0.186085 0)
(0.121356 0.185358 0)
(0.135654 0.184726 0)
(0.150752 0.185882 0)
(0.166267 0.184428 0)
(0.181534 0.186197 0)
(0.196426 0.185273 0)
(0.211047 0.187836 0)
(0.226108 0.186284 0)
(0.233887 0.188424 0)
(0.199545 0.190459 0)
(0.0620945 0.191862 0)
(-0.0548937 0.190008 0)
(-0.0870041 0.203747 0)
(-0.120832 0.194614 0)
(-0.134082 0.211135 0)
(-0.16261 0.20542 0)
(-0.118484 0.532126 0)
(-0.0982199 0.555331 0)
(-0.0858656 0.589646 0)
(-0.0728725 0.622517 0)
(-0.0603411 0.647982 0)
(-0.0533812 0.649521 0)
(-0.0365553 0.628491 0)
(-0.00716254 0.595318 0)
(0.0251531 0.556572 0)
(0.0560136 0.516546 0)
(0.0870203 0.479454 0)
(0.113205 0.442588 0)
(0.126384 0.402318 0)
(0.117448 0.355818 0)
(0.0889765 0.304045 0)
(0.0642776 0.262565 0)
(0.0598889 0.240949 0)
(0.0648698 0.229728 0)
(0.0703354 0.222088 0)
(0.0746694 0.215759 0)
(0.0797286 0.210324 0)
(0.086979 0.206049 0)
(0.0967776 0.203115 0)
(0.108846 0.20147 0)
(0.122658 0.200876 0)
(0.137648 0.200248 0)
(0.153156 0.201504 0)
(0.168794 0.20009 0)
(0.184266 0.201774 0)
(0.199227 0.200899 0)
(0.213861 0.203425 0)
(0.228873 0.201792 0)
(0.236637 0.20381 0)
(0.203147 0.205968 0)
(0.0679711 0.207648 0)
(-0.048656 0.20582 0)
(-0.0799172 0.22045 0)
(-0.114215 0.211468 0)
(-0.127454 0.228565 0)
(-0.156866 0.223418 0)
(-0.12116 0.517026 0)
(-0.0960424 0.533043 0)
(-0.0808921 0.564801 0)
(-0.0635408 0.596897 0)
(-0.0589911 0.617934 0)
(-0.068859 0.616935 0)
(-0.0640068 0.592309 0)
(-0.0384203 0.558723 0)
(-0.00659079 0.524704 0)
(0.0249028 0.491735 0)
(0.0553402 0.461249 0)
(0.0761177 0.427152 0)
(0.0803272 0.386453 0)
(0.0658117 0.338796 0)
(0.0474666 0.293548 0)
(0.0424864 0.266111 0)
(0.0497041 0.253224 0)
(0.0576601 0.244199 0)
(0.0639995 0.23638 0)
(0.0692488 0.229748 0)
(0.075287 0.224407 0)
(0.0833864 0.220282 0)
(0.0938724 0.217544 0)
(0.106457 0.216147 0)
(0.120603 0.215811 0)
(0.135763 0.21526 0)
(0.151357 0.216669 0)
(0.166965 0.21534 0)
(0.182543 0.216914 0)
(0.197531 0.216084 0)
(0.212201 0.218527 0)
(0.227208 0.216765 0)
(0.234893 0.218527 0)
(0.201844 0.220414 0)
(0.0686753 0.221827 0)
(-0.0469677 0.220324 0)
(-0.0768165 0.236278 0)
(-0.111273 0.227938 0)
(-0.123788 0.245844 0)
(-0.153195 0.241775 0)
(-0.10917 0.503465 0)
(-0.0793909 0.51343 0)
(-0.0641193 0.539248 0)
(-0.04515 0.565754 0)
(-0.0538281 0.583745 0)
(-0.0815535 0.579462 0)
(-0.0904839 0.55438 0)
(-0.0689038 0.525324 0)
(-0.0379176 0.499271 0)
(-0.00693202 0.472352 0)
(0.0215366 0.443128 0)
(0.0371244 0.405392 0)
(0.0362076 0.357975 0)
(0.0238288 0.312083 0)
(0.020287 0.28664 0)
(0.0283028 0.273985 0)
(0.0386759 0.262945 0)
(0.0482007 0.253411 0)
(0.0557006 0.245164 0)
(0.0624876 0.238291 0)
(0.0703975 0.232744 0)
(0.0803142 0.22819 0)
(0.0924623 0.224866 0)
(0.106415 0.222829 0)
(0.12151 0.221907 0)
(0.137246 0.220638 0)
(0.153162 0.221623 0)
(0.169024 0.219825 0)
(0.184622 0.220864 0)
(0.199646 0.219637 0)
(0.214361 0.221872 0)
(0.229207 0.219767 0)
(0.236784 0.221346 0)
(0.204101 0.222962 0)
(0.0734045 0.223948 0)
(-0.0402415 0.223399 0)
(-0.0674164 0.244021 0)
(-0.101758 0.23918 0)
(-0.113667 0.259639 0)
(-0.143801 0.258125 0)
(-0.0839117 0.48811 0)
(-0.05544 0.492454 0)
(-0.0446072 0.510538 0)
(-0.0329455 0.52825 0)
(-0.0518349 0.539406 0)
(-0.0967297 0.532647 0)
(-0.114411 0.511109 0)
(-0.0930524 0.487155 0)
(-0.059432 0.464819 0)
(-0.028702 0.434637 0)
(-0.00552969 0.398746 0)
(0.000146422 0.362146 0)
(-0.00542895 0.329457 0)
(-0.00705877 0.301851 0)
(0.0012718 0.277955 0)
(0.0143252 0.260281 0)
(0.0270761 0.246372 0)
(0.0377609 0.233782 0)
(0.0464178 0.222176 0)
(0.0548674 0.212163 0)
(0.064433 0.203536 0)
(0.0758698 0.195721 0)
(0.0893775 0.189336 0)
(0.104409 0.184585 0)
(0.120302 0.181361 0)
(0.136599 0.177766 0)
(0.153149 0.177383 0)
(0.169131 0.173916 0)
(0.184956 0.173734 0)
(0.200269 0.171479 0)
(0.21531 0.173818 0)
(0.230008 0.171371 0)
(0.237596 0.173086 0)
(0.204866 0.174597 0)
(0.0804476 0.178011 0)
(-0.0266085 0.187968 0)
(-0.0474902 0.224509 0)
(-0.0846745 0.235847 0)
(-0.0980123 0.268222 0)
(-0.131524 0.274992 0)
(-0.0528296 0.472095 0)
(-0.0305562 0.4691 0)
(-0.0249249 0.47719 0)
(-0.0238506 0.484452 0)
(-0.0419962 0.484376 0)
(-0.100317 0.476582 0)
(-0.12633 0.455341 0)
(-0.111274 0.42986 0)
(-0.0844259 0.405275 0)
(-0.0647875 0.371922 0)
(-0.0525854 0.33268 0)
(-0.0495809 0.286541 0)
(-0.0436733 0.243411 0)
(-0.0310857 0.210619 0)
(-0.0166524 0.185155 0)
(-0.00205664 0.162825 0)
(0.0114861 0.141974 0)
(0.0232235 0.122451 0)
(0.0336559 0.105404 0)
(0.0439201 0.0915856 0)
(0.0546646 0.0796835 0)
(0.067527 0.0685098 0)
(0.0825065 0.0595987 0)
(0.0987833 0.0528928 0)
(0.115777 0.0483948 0)
(0.132902 0.0433284 0)
(0.150336 0.0425145 0)
(0.166738 0.038299 0)
(0.18327 0.0380373 0)
(0.199405 0.0358097 0)
(0.215253 0.039183 0)
(0.230332 0.037653 0)
(0.23794 0.0410125 0)
(0.207245 0.0468676 0)
(0.100011 0.0657826 0)
(0.00675961 0.101056 0)
(-0.00500763 0.162501 0)
(-0.0476335 0.202282 0)
(-0.0646988 0.259385 0)
(-0.106013 0.286264 0)
(-0.0398538 0.451265 0)
(-0.0324454 0.432764 0)
(-0.0291469 0.410983 0)
(-0.0397021 0.38747 0)
(-0.0477347 0.354922 0)
(-0.115434 0.336609 0)
(-0.153625 0.312025 0)
(-0.143796 0.281384 0)
(-0.121943 0.248953 0)
(-0.107413 0.206962 0)
(-0.0927863 0.164802 0)
(-0.0824087 0.125175 0)
(-0.0683859 0.094977 0)
(-0.0527851 0.0719782 0)
(-0.0351383 0.0526963 0)
(-0.0176842 0.0347557 0)
(-0.0041063 0.0175691 0)
(0.00931695 0.00164635 0)
(0.0211567 -0.0120495 0)
(0.0330183 -0.022673 0)
(0.0456475 -0.0313858 0)
(0.0596697 -0.03978 0)
(0.0755983 -0.0457309 0)
(0.0924566 -0.0499423 0)
(0.109801 -0.052175 0)
(0.12708 -0.055861 0)
(0.144724 -0.0553795 0)
(0.161439 -0.0584141 0)
(0.178277 -0.0579471 0)
(0.19484 -0.0593925 0)
(0.211121 -0.055652 0)
(0.227019 -0.056517 0)
(0.235338 -0.0515514 0)
(0.21282 -0.0422367 0)
(0.132576 -0.0128261 0)
(0.0522956 0.0323932 0)
(0.047528 0.10066 0)
(0.009137 0.162532 0)
(-0.00576923 0.247115 0)
(-0.057795 0.286962 0)
(-0.0505246 0.434759 0)
(-0.0690045 0.392273 0)
(-0.0711121 0.333056 0)
(-0.0892359 0.295201 0)
(-0.0879257 0.241818 0)
(-0.148266 0.207353 0)
(-0.187416 0.178177 0)
(-0.181293 0.150717 0)
(-0.162402 0.125122 0)
(-0.148155 0.0938937 0)
(-0.130081 0.0687864 0)
(-0.114126 0.0462786 0)
(-0.0949985 0.0290575 0)
(-0.0754483 0.0136335 0)
(-0.0551819 2.21367e-05 0)
(-0.0375186 -0.0144542 0)
(-0.0203116 -0.0285387 0)
(-0.00523498 -0.0419182 0)
(0.00959799 -0.0531725 0)
(0.0248343 -0.0615892 0)
(0.0397669 -0.0686746 0)
(0.0554167 -0.0751355 0)
(0.0733191 -0.0791103 0)
(0.0924597 -0.0816947 0)
(0.111769 -0.0823234 0)
(0.131063 -0.0850241 0)
(0.150287 -0.0833741 0)
(0.168872 -0.0850111 0)
(0.187207 -0.0835632 0)
(0.205273 -0.0837274 0)
(0.222711 -0.0789935 0)
(0.239801 -0.0783864 0)
(0.251435 -0.0714861 0)
(0.241419 -0.0566417 0)
(0.187988 -0.0196877 0)
(0.117676 0.0305975 0)
(0.116044 0.102171 0)
(0.0833728 0.15956 0)
(0.0720408 0.240161 0)
(0.00928769 0.28078 0)
(-0.0703676 0.446402 0)
(-0.133058 0.403347 0)
(-0.140156 0.303954 0)
(-0.135316 0.228301 0)
(-0.123575 0.163483 0)
(-0.161835 0.121485 0)
(-0.189338 0.0898583 0)
(-0.185093 0.0659195 0)
(-0.169191 0.0503548 0)
(-0.155218 0.0299016 0)
(-0.136469 0.0159236 0)
(-0.119207 0.00106811 0)
(-0.0992198 -0.0114721 0)
(-0.0793926 -0.0247634 0)
(-0.0599541 -0.0374451 0)
(-0.0423157 -0.0507875 0)
(-0.0264107 -0.0634741 0)
(-0.0116591 -0.074645 0)
(0.00281162 -0.0831428 0)
(0.0177525 -0.0879511 0)
(0.0334642 -0.0912199 0)
(0.0494725 -0.0974323 0)
(0.0661684 -0.103875 0)
(0.0839005 -0.107851 0)
(0.102163 -0.108902 0)
(0.120597 -0.112302 0)
(0.139345 -0.111172 0)
(0.157649 -0.113281 0)
(0.175974 -0.112461 0)
(0.194212 -0.113092 0)
(0.21193 -0.109061 0)
(0.229488 -0.108635 0)
(0.243411 -0.101308 0)
(0.245875 -0.0896039 0)
(0.220866 -0.0592795 0)
(0.177635 -0.00454848 0)
(0.167083 0.0702677 0)
(0.176571 0.16283 0)
(0.160684 0.293309 0)
(0.0596155 0.346082 0)
(-0.50244 0.377108 0)
(-0.294057 0.410366 0)
(-0.259559 0.280357 0)
(-0.210487 0.204144 0)
(-0.203179 0.135674 0)
(-0.220794 0.0857725 0)
(-0.23029 0.0564295 0)
(-0.219912 0.0390716 0)
(-0.199898 0.0320162 0)
(-0.18173 0.0168317 0)
(-0.159775 0.00750375 0)
(-0.140462 -0.00583953 0)
(-0.119844 -0.01808 0)
(-0.100457 -0.0322273 0)
(-0.0819415 -0.0465552 0)
(-0.0644211 -0.0613179 0)
(-0.0477646 -0.0750824 0)
(-0.0312851 -0.0867511 0)
(-0.0140934 -0.0953899 0)
(0.0047026 -0.10099 0)
(0.0267122 -0.10668 0)
(0.051027 -0.112792 0)
(0.0731594 -0.118266 0)
(0.0934768 -0.122041 0)
(0.11298 -0.123162 0)
(0.132021 -0.126941 0)
(0.151332 -0.125922 0)
(0.170242 -0.127954 0)
(0.189203 -0.12708 0)
(0.208098 -0.127442 0)
(0.226461 -0.123397 0)
(0.244663 -0.122169 0)
(0.260303 -0.114305 0)
(0.271888 -0.103344 0)
(0.269081 -0.0760813 0)
(0.255903 -0.0219816 0)
(0.245585 0.0550496 0)
(0.300849 0.143475 0)
(0.322136 0.314416 0)
(0.474208 0.326767 0)
(-0.905541 0.944376 0)
(-0.340207 0.557274 0)
(-0.30993 0.191106 0)
(-0.239591 0.148114 0)
(-0.235082 0.0780718 0)
(-0.238238 0.0271179 0)
(-0.237587 0.00130543 0)
(-0.225505 -0.0140732 0)
(-0.205546 -0.0172701 0)
(-0.187348 -0.0293204 0)
(-0.165867 -0.0349934 0)
(-0.145852 -0.0447456 0)
(-0.125159 -0.0548535 0)
(-0.105873 -0.0677388 0)
(-0.0873792 -0.08132 0)
(-0.069527 -0.0950573 0)
(-0.0516797 -0.107608 0)
(-0.0334576 -0.118024 0)
(-0.0144788 -0.12575 0)
(0.00535383 -0.131472 0)
(0.025349 -0.138492 0)
(0.0457922 -0.143562 0)
(0.0661736 -0.146905 0)
(0.0861967 -0.149788 0)
(0.105948 -0.150722 0)
(0.125106 -0.154739 0)
(0.1444 -0.15405 0)
(0.163273 -0.156408 0)
(0.182287 -0.15614 0)
(0.20132 -0.156876 0)
(0.21994 -0.153572 0)
(0.238723 -0.152139 0)
(0.256011 -0.144828 0)
(0.273678 -0.136371 0)
(0.288096 -0.116373 0)
(0.291987 -0.0728648 0)
(0.285325 -0.00764523 0)
(0.347331 0.0458122 0)
(0.331703 0.457727 0)
(0.877307 0.882699 0)
(-0.905541 -0.944376 0)
(-0.340207 -0.557274 0)
(-0.30993 -0.191106 0)
(-0.239591 -0.148114 0)
(-0.235082 -0.0780718 0)
(-0.238238 -0.0271179 0)
(-0.237587 -0.00130543 0)
(-0.225505 0.0140732 0)
(-0.205546 0.0172701 0)
(-0.187348 0.0293204 0)
(-0.165867 0.0349934 0)
(-0.145852 0.0447456 0)
(-0.125159 0.0548535 0)
(-0.105873 0.0677388 0)
(-0.0873792 0.08132 0)
(-0.069527 0.0950573 0)
(-0.0516797 0.107608 0)
(-0.0334576 0.118024 0)
(-0.0144788 0.12575 0)
(0.00535383 0.131472 0)
(0.025349 0.138492 0)
(0.0457922 0.143562 0)
(0.0661736 0.146905 0)
(0.0861967 0.149788 0)
(0.105948 0.150722 0)
(0.125106 0.154739 0)
(0.1444 0.15405 0)
(0.163273 0.156408 0)
(0.182287 0.15614 0)
(0.20132 0.156876 0)
(0.21994 0.153572 0)
(0.238723 0.152139 0)
(0.256011 0.144828 0)
(0.273678 0.136371 0)
(0.288096 0.116373 0)
(0.291987 0.0728648 0)
(0.285325 0.00764523 0)
(0.347331 -0.0458122 0)
(0.331703 -0.457727 0)
(0.877307 -0.882699 0)
(-0.50244 -0.377108 0)
(-0.294057 -0.410366 0)
(-0.259559 -0.280357 0)
(-0.210487 -0.204144 0)
(-0.203179 -0.135674 0)
(-0.220794 -0.0857725 0)
(-0.23029 -0.0564295 0)
(-0.219912 -0.0390716 0)
(-0.199898 -0.0320162 0)
(-0.18173 -0.0168317 0)
(-0.159775 -0.00750375 0)
(-0.140462 0.00583953 0)
(-0.119844 0.01808 0)
(-0.100457 0.0322273 0)
(-0.0819415 0.0465552 0)
(-0.0644211 0.0613179 0)
(-0.0477646 0.0750824 0)
(-0.0312851 0.0867511 0)
(-0.0140934 0.0953899 0)
(0.0047026 0.10099 0)
(0.0267122 0.10668 0)
(0.051027 0.112792 0)
(0.0731594 0.118266 0)
(0.0934768 0.122041 0)
(0.11298 0.123162 0)
(0.132021 0.126941 0)
(0.151332 0.125922 0)
(0.170242 0.127954 0)
(0.189203 0.12708 0)
(0.208098 0.127442 0)
(0.226461 0.123397 0)
(0.244663 0.122169 0)
(0.260303 0.114305 0)
(0.271888 0.103344 0)
(0.269081 0.0760813 0)
(0.255903 0.0219816 0)
(0.245585 -0.0550496 0)
(0.300849 -0.143475 0)
(0.322136 -0.314416 0)
(0.474208 -0.326767 0)
(-0.0703676 -0.446402 0)
(-0.133058 -0.403347 0)
(-0.140156 -0.303954 0)
(-0.135316 -0.228301 0)
(-0.123575 -0.163483 0)
(-0.161835 -0.121485 0)
(-0.189338 -0.0898583 0)
(-0.185093 -0.0659195 0)
(-0.169191 -0.0503548 0)
(-0.155218 -0.0299016 0)
(-0.136469 -0.0159236 0)
(-0.119207 -0.00106811 0)
(-0.0992198 0.0114721 0)
(-0.0793926 0.0247634 0)
(-0.0599541 0.0374451 0)
(-0.0423157 0.0507875 0)
(-0.0264107 0.0634741 0)
(-0.0116591 0.074645 0)
(0.00281162 0.0831428 0)
(0.0177525 0.0879511 0)
(0.0334642 0.0912199 0)
(0.0494725 0.0974323 0)
(0.0661684 0.103875 0)
(0.0839005 0.107851 0)
(0.102163 0.108902 0)
(0.120597 0.112302 0)
(0.139345 0.111172 0)
(0.157649 0.113281 0)
(0.175974 0.112461 0)
(0.194212 0.113092 0)
(0.21193 0.109061 0)
(0.229488 0.108635 0)
(0.243411 0.101308 0)
(0.245875 0.0896039 0)
(0.220866 0.0592795 0)
(0.177635 0.00454848 0)
(0.167083 -0.0702677 0)
(0.176571 -0.16283 0)
(0.160684 -0.293309 0)
(0.0596155 -0.346082 0)
(-0.0505246 -0.434759 0)
(-0.0690045 -0.392273 0)
(-0.0711121 -0.333056 0)
(-0.0892359 -0.295201 0)
(-0.0879257 -0.241818 0)
(-0.148266 -0.207353 0)
(-0.187416 -0.178177 0)
(-0.181293 -0.150717 0)
(-0.162402 -0.125122 0)
(-0.148155 -0.0938937 0)
(-0.130081 -0.0687864 0)
(-0.114126 -0.0462786 0)
(-0.0949985 -0.0290575 0)
(-0.0754483 -0.0136335 0)
(-0.0551819 -2.21367e-05 0)
(-0.0375186 0.0144542 0)
(-0.0203116 0.0285387 0)
(-0.00523498 0.0419182 0)
(0.00959799 0.0531725 0)
(0.0248343 0.0615892 0)
(0.0397669 0.0686746 0)
(0.0554167 0.0751355 0)
(0.0733191 0.0791103 0)
(0.0924597 0.0816947 0)
(0.111769 0.0823234 0)
(0.131063 0.0850241 0)
(0.150287 0.0833741 0)
(0.168872 0.0850111 0)
(0.187207 0.0835632 0)
(0.205273 0.0837274 0)
(0.222711 0.0789935 0)
(0.239801 0.0783864 0)
(0.251435 0.0714861 0)
(0.241419 0.0566417 0)
(0.187988 0.0196877 0)