/*--------------------------------*- C++ -*----------------------------------*\
| =========                 |                                                 |
| \\      /  F ield         | OpenFOAM: The Open Source CFD Toolbox           |
|  \\    /   O peration     | Version:  v1912                                 |
|   \\  /    A nd           | Website:  www.openfoam.com                      |
|    \\/     M anipulation  |                                                 |
\*---------------------------------------------------------------------------*/
FoamFile
{
    version     2.0;
    format      ascii;
    class       volVectorField;
    location    "5.48";
    object      grad(T);
}
// * * * * * * * * * * * * * * * * * * * * * * * * * * * * * * * * * * * * * //

dimensions      [0 -1 0 1 0 0 0];


internalField   nonuniform List<vector> 
1900
(
(0.475075 1.09977e-05 0)
(-1.17054 -1.99586e-05 0)
(0.186476 -2.03003e-05 0)
(0.158998 -3.08983e-05 0)
(0.0734748 2.58913e-05 0)
(0.0294316 0.000154868 0)
(0.00609568 0.000342208 0)
(-0.00740308 0.000647051 0)
(-0.0176137 0.00210927 0)
(0.000984552 -0.0011261 0)
(0.475066 1.80108e-05 0)
(-1.17057 -1.89578e-05 0)
(0.186465 -3.05568e-05 0)
(0.159044 -1.62382e-05 0)
(0.0736605 0.00011271 0)
(0.0297479 0.000302188 0)
(0.00658787 0.000402921 0)
(-0.00563602 0.000262338 0)
(-0.0193869 0.000236295 0)
(-0.0324645 -0.00275243 0)
(0.475074 1.21431e-13 0)
(-1.17059 3.39138e-12 0)
(0.186479 -5.51859e-13 0)
(0.159141 -2.66714e-13 0)
(0.0737932 -2.38524e-13 0)
(0.0297218 5.65954e-13 0)
(0.00605583 1.09396e-12 0)
(-0.0075697 3.02492e-13 0)
(-0.0206285 -4.04407e-13 0)
(-0.0354834 -6.451e-13 0)
(0.475066 -1.80108e-05 0)
(-1.17057 1.89578e-05 0)
(0.186465 3.05568e-05 0)
(0.159044 1.62382e-05 0)
(0.0736605 -0.00011271 0)
(0.0297479 -0.000302188 0)
(0.00658787 -0.000402921 0)
(-0.00563602 -0.000262338 0)
(-0.0193869 -0.000236295 0)
(-0.0324645 0.00275243 0)
(0.475075 -1.09977e-05 0)
(-1.17054 1.99586e-05 0)
(0.186476 2.03003e-05 0)
(0.158998 3.08983e-05 0)
(0.0734748 -2.58913e-05 0)
(0.0294316 -0.000154868 0)
(0.00609568 -0.000342208 0)
(-0.00740308 -0.000647051 0)
(-0.0176137 -0.00210927 0)
(0.000984552 0.0011261 0)
(-0.0290952 -0.0272112 9.59186e-16)
(-0.0622677 -0.024144 -1.14799e-15)
(0.00947126 -0.033352 -1.45151e-15)
(0.262557 -0.0643073 0)
(-0.487617 -0.317053 -6.43903e-15)
(-0.0498745 -0.0317877 9.54268e-16)
(-0.0522346 -0.0293313 1.14799e-15)
(-0.00482634 -0.0432171 1.45151e-15)
(0.158727 -0.0690637 0)
(-0.420871 -0.316305 0)
(-0.0631745 -6.18702e-13 0)
(-0.0637881 -5.87276e-13 0)
(-0.0146168 -3.19237e-13 0)
(0.144164 8.21365e-15 0)
(-0.544023 3.22679e-14 0)
(-0.0498745 0.0317877 9.54268e-16)
(-0.0522346 0.0293313 1.14799e-15)
(-0.00482634 0.0432171 1.45151e-15)
(0.158727 0.0690637 0)
(-0.420871 0.316305 0)
(-0.0290952 0.0272112 -2.86772e-15)
(-0.0622677 0.024144 -1.14799e-15)
(0.00947126 0.033352 -1.45151e-15)
(0.262557 0.0643073 -3.97247e-15)
(-0.487617 0.317053 6.43903e-15)
(-1.44641 0.453399 2.23804e-15)
(-0.393824 0.224896 -1.73901e-15)
(-0.193721 0.128892 0)
(-0.317498 0.09092 1.26388e-15)
(-0.638061 0.130327 -5.37563e-16)
(-1.2722 0.450791 -1.12585e-15)
(-0.462721 0.123794 8.72893e-16)
(-0.225886 0.0328068 0)
(-0.305537 0.0347518 -7.91895e-16)
(-0.609169 0.0774913 1.35955e-16)
(-1.33371 9.85638e-14 0)
(-0.510038 2.87267e-13 0)
(-0.228022 1.807e-13 0)
(-0.303592 -1.52355e-13 3.17177e-16)
(-0.605073 3.17018e-13 -2.71911e-16)
(-1.2722 -0.450791 -1.12585e-15)
(-0.462721 -0.123794 8.72893e-16)
(-0.225886 -0.0328068 0)
(-0.305537 -0.0347518 -7.91895e-16)
(-0.609169 -0.0774913 1.35955e-16)
(-1.44641 -0.453399 1.12585e-15)
(-0.393824 -0.224896 -6.77313e-18)
(-0.193721 -0.128892 0)
(-0.317498 -0.09092 2.73821e-18)
(-0.638061 -0.130327 5.37563e-16)
(-0.727517 0.333476 0)
(-0.198724 -0.249701 0)
(0.235443 -0.230805 0)
(0.299474 -0.0636212 0)
(0.150009 0.0640294 0)
(-0.0521227 0.0745061 0)
(-0.160328 0.0654745 0)
(-0.182206 0.0326708 0)
(-0.133932 0.0126258 0)
(-0.088215 0.00541223 0)
(-0.0711024 0.00261047 0)
(-0.0684472 0.00235816 0)
(-0.0651921 0.00312479 0)
(-0.0547133 0.00166034 0)
(-0.0381213 0.000444721 0)
(-0.023398 -7.26088e-05 0)
(-0.0150849 -0.000169193 0)
(-0.0115129 -0.000146868 0)
(-0.00986665 -0.000125323 0)
(-0.00858471 -0.000128359 0)
(-0.00720814 -0.000146334 0)
(-0.00586563 -0.000165451 0)
(-0.00463822 -0.000179676 0)
(-0.00354143 -0.000189896 0)
(-0.00256105 -0.000198691 0)
(-0.00168417 -0.000209962 0)
(-0.000743509 -0.000220233 0)
(0.000469849 -0.000232499 0)
(0.00224385 -0.000239368 0)
(0.00404142 -0.000228474 0)
(0.00635075 -0.000219465 0)
(0.00827721 -0.000154657 0)
(0.0106581 -0.000170909 0)
(0.0120474 -2.0716e-06 0)
(0.016634 -0.000352842 0)
(0.0256585 0.000132027 0)
(0.0442123 0.000307142 0)
(-0.0580854 0.00268327 0)
(-0.375125 0.00685396 0)
(-0.287537 -0.0054671 0)
(-0.81997 0.142214 0)
(-0.280774 -0.212163 0)
(0.286841 -0.244151 0)
(0.348666 -0.102422 0)
(0.165177 -0.014846 0)
(-0.0558395 0.0231721 0)
(-0.165129 0.0351773 0)
(-0.188522 0.0182975 0)
(-0.137039 0.00557449 0)
(-0.0892082 0.00223715 0)
(-0.0714543 0.00085089 0)
(-0.0683147 0.000594316 0)
(-0.0651926 0.00146928 0)
(-0.0549903 0.000564477 0)
(-0.0382624 8.59773e-05 0)
(-0.0234418 -7.18143e-05 0)
(-0.0150889 -9.88492e-05 0)
(-0.0115081 -8.63405e-05 0)
(-0.00986409 -7.44786e-05 0)
(-0.00858583 -7.33872e-05 0)
(-0.00721097 -7.95465e-05 0)
(-0.00586844 -8.72916e-05 0)
(-0.00464049 -9.39425e-05 0)
(-0.0035434 -9.96672e-05 0)
(-0.00256327 -0.000105349 0)
(-0.00168662 -0.000112508 0)
(-0.000746244 -0.00011957 0)
(0.00046718 -0.000127953 0)
(0.00224316 -0.000134141 0)
(0.0040416 -0.000132738 0)
(0.00635541 -0.000133253 0)
(0.00827921 -0.000109391 0)
(0.0106754 -0.00011963 0)
(0.0120304 -1.53182e-05 0)
(0.0166534 -0.000170198 0)
(0.025738 0.000132512 0)
(0.0444956 0.000348306 0)
(-0.0565397 0.0019508 0)
(-0.37158 0.00855539 0)
(-0.285277 0.018291 0)
(-0.806318 -5.43087e-12 0)
(-0.311122 -2.26303e-12 0)
(0.267368 1.31642e-11 0)
(0.366181 9.93523e-12 0)
(0.186545 5.69108e-12 0)
(-0.0375705 -1.04478e-12 0)
(-0.161746 -1.41143e-12 0)
(-0.190818 -9.32414e-13 0)
(-0.138604 -1.82934e-12 0)
(-0.0895892 -2.19009e-12 0)
(-0.0715803 -4.10026e-13 0)
(-0.0682673 -1.14531e-12 0)
(-0.0652007 1.20248e-13 0)
(-0.0551158 -7.58942e-13 0)
(-0.0383064 -9.4227e-13 0)
(-0.0234517 -1.04281e-12 0)
(-0.0150891 -1.12757e-12 0)
(-0.0115058 -1.12757e-12 0)
(-0.00986288 -6.09124e-13 0)
(-0.00858619 -3.64686e-13 0)
(-0.00721218 1.51788e-13 0)
(-0.00586982 6.60378e-13 0)
(-0.00464182 7.78654e-13 0)
(-0.00354475 6.91918e-13 0)
(-0.00256479 -7.68798e-14 0)
(-0.00168831 -1.23599e-12 0)
(-0.000748002 -2.196e-12 0)
(0.00046561 -2.41679e-12 0)
(0.00224246 -2.68685e-12 0)
(0.00404168 -2.88398e-12 0)
(0.00635755 -2.12701e-12 0)
(0.00828118 -3.06928e-12 0)
(0.0106855 -5.10561e-12 0)
(0.0120327 -2.77162e-12 0)
(0.016677 -1.24782e-12 0)
(0.0258093 -9.12701e-13 0)
(0.0447413 -6.31794e-12 0)
(-0.0556979 -1.64207e-12 0)
(-0.370372 4.83554e-12 0)
(-0.284705 9.75782e-12 0)
(-0.81997 -0.142214 0)
(-0.280774 0.212163 0)
(0.286841 0.244151 0)
(0.348666 0.102422 0)
(0.165177 0.014846 0)
(-0.0558395 -0.0231721 0)
(-0.165129 -0.0351773 0)
(-0.188522 -0.0182975 0)
(-0.137039 -0.00557449 0)
(-0.0892082 -0.00223715 0)
(-0.0714543 -0.00085089 0)
(-0.0683147 -0.000594316 0)
(-0.0651926 -0.00146928 0)
(-0.0549903 -0.000564477 0)
(-0.0382624 -8.59773e-05 0)
(-0.0234418 7.18143e-05 0)
(-0.0150889 9.88492e-05 0)
(-0.0115081 8.63405e-05 0)
(-0.00986409 7.44786e-05 0)
(-0.00858583 7.33872e-05 0)
(-0.00721097 7.95465e-05 0)
(-0.00586844 8.72916e-05 0)
(-0.00464049 9.39425e-05 0)
(-0.0035434 9.96671e-05 0)
(-0.00256327 0.000105349 0)
(-0.00168662 0.000112508 0)
(-0.000746244 0.00011957 0)
(0.00046718 0.000127953 0)
(0.00224316 0.000134141 0)
(0.0040416 0.000132738 0)
(0.00635541 0.000133253 0)
(0.00827921 0.000109391 0)
(0.0106754 0.00011963 0)
(0.0120304 1.53181e-05 0)
(0.0166534 0.000170198 0)
(0.025738 -0.000132512 0)
(0.0444956 -0.000348306 0)
(-0.0565397 -0.0019508 0)
(-0.37158 -0.00855539 0)
(-0.285277 -0.018291 0)
(-0.727517 -0.333476 0)
(-0.198724 0.249701 0)
(0.235443 0.230805 0)
(0.299474 0.0636212 0)
(0.150009 -0.0640294 0)
(-0.0521227 -0.0745061 0)
(-0.160328 -0.0654745 0)
(-0.182206 -0.0326708 0)
(-0.133932 -0.0126258 0)
(-0.088215 -0.00541223 0)
(-0.0711024 -0.00261047 0)
(-0.0684472 -0.00235816 0)
(-0.0651921 -0.00312479 0)
(-0.0547133 -0.00166034 0)
(-0.0381213 -0.000444721 0)
(-0.023398 7.26088e-05 0)
(-0.0150849 0.000169193 0)
(-0.0115129 0.000146868 0)
(-0.00986665 0.000125323 0)
(-0.00858471 0.000128359 0)
(-0.00720814 0.000146334 0)
(-0.00586563 0.000165451 0)
(-0.00463822 0.000179676 0)
(-0.00354143 0.000189896 0)
(-0.00256105 0.000198691 0)
(-0.00168417 0.000209962 0)
(-0.000743509 0.000220233 0)
(0.000469849 0.000232499 0)
(0.00224385 0.000239368 0)
(0.00404142 0.000228474 0)
(0.00635075 0.000219465 0)
(0.00827721 0.000154657 0)
(0.0106581 0.000170909 0)
(0.0120474 2.07158e-06 0)
(0.016634 0.000352842 0)
(0.0256585 -0.000132027 0)
(0.0442123 -0.000307142 0)
(-0.0580854 -0.00268327 0)
(-0.375125 -0.00685396 0)
(-0.287537 0.0054671 0)
(-0.13094 -0.309191 0)
(-0.0216858 0.0145691 0)
(0.229547 0.0543258 0)
(0.220602 0.00781298 0)
(0.0960714 -0.0763032 0)
(-0.0610434 -0.1079 0)
(-0.144437 -0.0919381 0)
(-0.162673 -0.0523377 0)
(-0.123533 -0.0235698 0)
(-0.0840741 -0.0102694 0)
(-0.0699455 -0.0059606 0)
(-0.0684841 -0.00540917 0)
(-0.0647555 -0.00521175 0)
(-0.0536294 -0.00307482 0)
(-0.0373384 -0.00092336 0)
(-0.0231074 8.59252e-05 0)
(-0.0150469 0.000282683 0)
(-0.01153 0.000245913 0)
(-0.00987274 0.000213057 0)
(-0.00857393 0.000224647 0)
(-0.00719098 0.000261391 0)
(-0.00585078 0.000298093 0)
(-0.00462778 0.000324795 0)
(-0.00353376 0.00034385 0)
(-0.00255324 0.000360003 0)
(-0.00167594 0.000380368 0)
(-0.00073527 0.000399477 0)
(0.000476097 0.000419831 0)
(0.00223983 0.000431136 0)
(0.00402932 0.000412481 0)
(0.0063145 0.000384972 0)
(0.00825107 0.000275296 0)
(0.0105997 0.000270253 0)
(0.0121248 7.81864e-05 0)
(0.0165917 0.000487862 0)
(0.025416 -8.08896e-05 0)
(0.0432227 -0.000433035 0)
(-0.0588591 -0.00362169 0)
(-0.362368 0.00167137 0)
(-0.274936 0.00956966 0)
(-0.0422874 -0.265987 0)
(0.0566396 -0.0396315 0)
(0.232094 -0.034693 0)
(0.215889 -0.0428788 0)
(0.0674263 -0.117928 0)
(-0.0624056 -0.123676 0)
(-0.115308 -0.104988 0)
(-0.126798 -0.0665929 0)
(-0.0989695 -0.0328458 0)
(-0.0734667 -0.01598 0)
(-0.0670393 -0.0103233 0)
(-0.0677058 -0.00877144 0)
(-0.0631767 -0.00739076 0)
(-0.0511621 -0.00432272 0)
(-0.0354954 -0.00136331 0)
(-0.0223916 0.000108478 0)
(-0.0149511 0.000447403 0)
(-0.0115709 0.000422623 0)
(-0.00988387 0.000389572 0)
(-0.00854392 0.000414218 0)
(-0.00714656 0.000472731 0)
(-0.0058125 0.000530252 0)
(-0.00459972 0.000573923 0)
(-0.00351162 0.000607742 0)
(-0.00253005 0.000638026 0)
(-0.00165055 0.000676329 0)
(-0.000709899 0.000714789 0)
(0.000497006 0.00075375 0)
(0.00223892 0.000780438 0)
(0.00400342 0.000760875 0)
(0.006238 0.000723393 0)
(0.00818069 0.000578916 0)
(0.0104995 0.000555749 0)
(0.0122156 0.000352311 0)
(0.0165034 0.000715857 0)
(0.0249011 7.32593e-05 0)
(0.041331 -0.0005211 0)
(-0.0556427 -0.00391884 0)
(-0.369254 0.00702098 0)
(-0.286684 -0.000622524 0)
(0.0871847 -0.192911 0)
(0.201198 0.0166847 0)
(0.226417 0.0184955 0)
(0.140394 -0.0483525 0)
(0.0182122 -0.122455 0)
(-0.0485742 -0.120029 0)
(-0.0894295 -0.101777 0)
(-0.0931539 -0.06621 0)
(-0.0747602 -0.0361763 0)
(-0.0623706 -0.0203542 0)
(-0.062999 -0.0146514 0)
(-0.0656583 -0.0120139 0)
(-0.0604685 -0.00936513 0)
(-0.0478211 -0.00532533 0)
(-0.0330683 -0.00177752 0)
(-0.0213625 3.24374e-05 0)
(-0.0147442 0.000520663 0)
(-0.0115857 0.000548024 0)
(-0.00988084 0.000538059 0)
(-0.0084938 0.000584057 0)
(-0.00707917 0.000666372 0)
(-0.00575327 0.000746383 0)
(-0.00455311 0.000810969 0)
(-0.00347198 0.000865591 0)
(-0.00248715 0.000915908 0)
(-0.00160196 0.000977051 0)
(-0.000660663 0.0010467 0)
(0.000539359 0.00111589 0)
(0.0022467 0.00116059 0)
(0.00397435 0.00114208 0)
(0.00613915 0.00110191 0)
(0.00808952 0.000928277 0)
(0.0103813 0.000899762 0)
(0.012279 0.000689998 0)
(0.0163228 0.000969816 0)
(0.024224 0.000288111 0)
(0.0393758 -0.000550356 0)
(-0.0515913 -0.00300152 0)
(-0.359191 0.00726736 0)
(-0.282301 0.0151583 0)
(0.159686 -0.0826307 0)
(0.260358 0.0252009 0)
(0.169422 -0.00538041 0)
(0.0800634 -0.0803036 0)
(-0.00164395 -0.108666 0)
(-0.0424787 -0.109137 0)
(-0.0634455 -0.0894727 0)
(-0.0635834 -0.0584949 0)
(-0.0547812 -0.035699 0)
(-0.0527246 -0.0229408 0)
(-0.0590022 -0.0180146 0)
(-0.0626118 -0.0147027 0)
(-0.0567313 -0.0106567 0)
(-0.0438504 -0.0058695 0)
(-0.0303324 -0.00201233 0)
(-0.020177 -7.91756e-05 0)
(-0.0144542 0.000491192 0)
(-0.0115541 0.000583154 0)
(-0.00984915 0.000614745 0)
(-0.00842027 0.000689958 0)
(-0.00699013 0.000796041 0)
(-0.00567316 0.000897073 0)
(-0.00448485 0.000983272 0)
(-0.00341049 0.00106243 0)
(-0.00242264 0.00113816 0)
(-0.00152451 0.00121956 0)
(-0.000576105 0.00131717 0)
(0.000606751 0.0014296 0)
(0.00226415 0.00148335 0)
(0.00394688 0.00146822 0)
(0.00603197 0.00141943 0)
(0.00798589 0.00122286 0)
(0.0102699 0.00117106 0)
(0.0122832 0.000966443 0)
(0.0161162 0.00110978 0)
(0.0234362 0.000500638 0)
(0.038161 -0.000590084 0)
(-0.0481093 -0.00135512 0)
(-0.351755 0.00627361 0)
(-0.27908 0.0109551 0)
(0.191095 -0.0540405 0)
(0.275639 -0.00753632 0)
(0.124749 -0.0332126 0)
(0.0408638 -0.0867544 0)
(-0.00957292 -0.0987115 0)
(-0.0300785 -0.0910873 0)
(-0.0406287 -0.0720225 0)
(-0.0413355 -0.048955 0)
(-0.0404989 -0.0324587 0)
(-0.0453293 -0.0239173 0)
(-0.0550605 -0.0200002 0)
(-0.0585679 -0.0163267 0)
(-0.0519565 -0.0110981 0)
(-0.0394911 -0.00587055 0)
(-0.0274885 -0.00200892 0)
(-0.01895 -0.000137127 0)
(-0.014106 0.000467722 0)
(-0.0114667 0.000620206 0)
(-0.00977792 0.000697733 0)
(-0.00831909 0.00080393 0)
(-0.00687959 0.000932183 0)
(-0.00557285 0.00105252 0)
(-0.00439377 0.00116032 0)
(-0.00332273 0.00126606 0)
(-0.00233573 0.00137181 0)
(-0.00142946 0.00147639 0)
(-0.00045826 0.00159653 0)
(0.000699494 0.00175923 0)
(0.00228391 0.00182531 0)
(0.00391276 0.00181838 0)
(0.00590272 0.00176386 0)
(0.00785018 0.00155623 0)
(0.0101342 0.00148136 0)
(0.01222 0.00128751 0)
(0.0158739 0.00133986 0)
(0.0225859 0.000857834 0)
(0.0375875 -0.000172071 0)
(-0.0449772 0.00026979 0)
(-0.347329 0.00574735 0)
(-0.27779 0.00779022 0)
(0.2045 -0.0548335 0)
(0.280429 -0.0357594 0)
(0.0930847 -0.0429381 0)
(0.0169464 -0.0864825 0)
(-0.00581925 -0.0790187 0)
(-0.0167602 -0.0701159 0)
(-0.0228453 -0.054572 0)
(-0.0254584 -0.0399988 0)
(-0.0306541 -0.0289686 0)
(-0.0407191 -0.0242915 0)
(-0.0516877 -0.0213533 0)
(-0.0540333 -0.0170231 0)
(-0.0466553 -0.011004 0)
(-0.0350918 -0.00558189 0)
(-0.0248075 -0.00191837 0)
(-0.0177904 -0.000180751 0)
(-0.0137244 0.000463053 0)
(-0.0113324 0.000686375 0)
(-0.00967211 0.000820014 0)
(-0.00819435 0.000960568 0)
(-0.00675058 0.00111041 0)
(-0.00545332 0.00124783 0)
(-0.00427907 0.00137301 0)
(-0.00320669 0.00149789 0)
(-0.00221995 0.00162284 0)
(-0.00130796 0.00174342 0)
(-0.000303556 0.00187491 0)
(0.000827215 0.00205703 0)
(0.00232116 0.00211946 0)
(0.00388766 0.00209271 0)
(0.00577935 0.00200437 0)
(0.00771366 0.00176025 0)
(0.0100109 0.00162904 0)
(0.0121468 0.00140749 0)
(0.0157021 0.0013738 0)
(0.0219792 0.000951992 0)
(0.0375943 4.96635e-05 0)
(-0.0424051 0.00142775 0)
(-0.344508 0.00664883 0)
(-0.277111 0.00759319 0)
(0.209476 -0.0557711 0)
(0.287102 -0.0484419 0)
(0.0758708 -0.0463842 0)
(0.00609516 -0.068889 0)
(0.00619849 -0.0558724 0)
(-0.00652081 -0.0504608 0)
(-0.0116067 -0.040632 0)
(-0.0166631 -0.0326054 0)
(-0.0253628 -0.026574 0)
(-0.037991 -0.0244554 0)
(-0.0480565 -0.021826 0)
(-0.0485949 -0.0165777 0)
(-0.0409313 -0.0101224 0)
(-0.0307359 -0.00480341 0)
(-0.0222838 -0.0014836 0)
(-0.0166552 0.000102262 0)
(-0.0132704 0.000765429 0)
(-0.0111227 0.00104997 0)
(-0.0095137 0.00123923 0)
(-0.00803926 0.00140951 0)
(-0.00660277 0.00157576 0)
(-0.00531979 0.00172558 0)
(-0.0041528 0.00186257 0)
(-0.00308199 0.00199897 0)
(-0.00209912 0.00213336 0)
(-0.00118655 0.00226025 0)
(-0.000156053 0.00239551 0)
(0.000935146 0.00257928 0)
(0.00231829 0.00262327 0)
(0.00380185 0.00256054 0)
(0.00558235 0.00242143 0)
(0.0074885 0.00212296 0)
(0.00979428 0.00191236 0)
(0.011974 0.00162161 0)
(0.015435 0.00150426 0)
(0.0213099 0.00104375 0)
(0.038046 0.000347849 0)
(-0.038618 0.00202665 0)
(-0.341387 0.00699787 0)
(-0.27688 0.00813624 0)
(0.211562 -0.0450899 0)
(0.289474 -0.0401476 0)
(0.0733811 -0.0417955 0)
(0.00780312 -0.0410368 0)
(0.0119389 -0.0362599 0)
(-0.00207394 -0.0354307 0)
(-0.00563918 -0.0310469 0)
(-0.0119116 -0.0271202 0)
(-0.0228005 -0.0248713 0)
(-0.0361437 -0.0240692 0)
(-0.0440964 -0.0210307 0)
(-0.0427553 -0.0151351 0)
(-0.0353092 -0.00875013 0)
(-0.0267671 -0.00381955 0)
(-0.0200802 -0.000900239 0)
(-0.0156231 0.000575664 0)
(-0.0128112 0.00126961 0)
(-0.0108759 0.00162618 0)
(-0.00932564 0.00187825 0)
(-0.00787006 0.00208404 0)
(-0.00644601 0.00226814 0)
(-0.00517694 0.00242662 0)
(-0.00401563 0.00256523 0)
(-0.00294575 0.00269725 0)
(-0.00196817 0.00282281 0)
(-0.00105534 0.00293634 0)
(3.87358e-06 0.00305344 0)
(0.00104669 0.00321062 0)
(0.00230309 0.00320622 0)
(0.00369316 0.0030847 0)
(0.00535769 0.00287465 0)
(0.0072231 0.00250914 0)
(0.00952781 0.00220871 0)
(0.0117535 0.00184402 0)
(0.0151453 0.00164448 0)
(0.0208649 0.00119045 0)
(0.0385415 0.00071766 0)
(-0.0359969 0.00221763 0)
(-0.33862 0.0071735 0)
(-0.276014 0.00908553 0)
(0.214238 -0.0293416 0)
(0.290276 -0.0285868 0)
(0.075014 -0.0329893 0)
(0.0114294 -0.0258451 0)
(0.0116007 -0.0252936 0)
(-0.00149736 -0.0262779 0)
(-0.0035984 -0.0247397 0)
(-0.010712 -0.0237326 0)
(-0.0224228 -0.0241618 0)
(-0.0342901 -0.0234911 0)
(-0.0394472 -0.0194717 0)
(-0.0367609 -0.0130669 0)
(-0.0300273 -0.00693875 0)
(-0.0231714 -0.00247332 0)
(-0.0180484 0.000201034 0)
(-0.0145643 0.0016254 0)
(-0.012258 0.00236995 0)
(-0.0105362 0.00283451 0)
(-0.00907249 0.00316728 0)
(-0.00766354 0.00341961 0)
(-0.00627264 0.00362064 0)
(-0.0050335 0.00377144 0)
(-0.00389201 0.00388126 0)
(-0.00283378 0.00396844 0)
(-0.00186873 0.00403826 0)
(-0.000964305 0.00409388 0)
(0.00010826 0.00413508 0)
(0.00108237 0.00419703 0)
(0.00219694 0.00408217 0)
(0.00348234 0.0038412 0)
(0.00502772 0.00350347 0)
(0.00684678 0.00301851 0)
(0.00915335 0.00259151 0)
(0.0114303 0.00211589 0)
(0.0148052 0.0018285 0)
(0.0204168 0.0013692 0)
(0.0390358 0.00103468 0)
(-0.0323969 0.00223895 0)
(-0.334769 0.00766147 0)
(-0.275037 0.0101746 0)
(0.21229 -0.0148906 0)
(0.285959 -0.0211631 0)
(0.0760231 -0.0256996 0)
(0.015219 -0.0192953 0)
(0.0115218 -0.0193487 0)
(-0.00154015 -0.0206763 0)
(-0.00318645 -0.0206223 0)
(-0.0113547 -0.0215987 0)
(-0.0225677 -0.0229701 0)
(-0.0316242 -0.0214406 0)
(-0.0340512 -0.0165687 0)
(-0.0306781 -0.010124 0)
(-0.0251009 -0.00455519 0)
(-0.019887 -0.000780543 0)
(-0.0161305 0.00161517 0)
(-0.0135331 0.00292417 0)
(-0.0116461 0.00370822 0)
(-0.0101075 0.00424811 0)
(-0.00876181 0.00463851 0)
(-0.00743319 0.00492266 0)
(-0.00610697 0.00513391 0)
(-0.00492579 0.00527707 0)
(-0.0038258 0.00536604 0)
(-0.00279446 0.00542514 0)
(-0.00184729 0.00546261 0)
(-0.000962034 0.00548591 0)
(0.000103274 0.00547065 0)
(0.000995699 0.00546727 0)
(0.0019602 0.00527185 0)
(0.00313551 0.00494116 0)
(0.00456492 0.00449988 0)
(0.0063443 0.00391565 0)
(0.00865801 0.00337967 0)
(0.0110183 0.00280841 0)
(0.0144257 0.00244722 0)
(0.0200999 0.00195755 0)
(0.0393796 0.00168688 0)
(-0.0296111 0.00244633 0)
(-0.330973 0.00786612 0)
(-0.273593 0.0116412 0)
(0.208194 -0.00488054 0)
(0.279861 -0.0129763 0)
(0.0768139 -0.0171372 0)
(0.0175493 -0.0131152 0)
(0.0102699 -0.0148508 0)
(-0.00272461 -0.0166254 0)
(-0.00448728 -0.0179328 0)
(-0.0129745 -0.0200071 0)
(-0.0222704 -0.0209712 0)
(-0.0281214 -0.0181404 0)
(-0.0285421 -0.0127702 0)
(-0.0251843 -0.00679126 0)
(-0.0210236 -0.00194452 0)
(-0.0172255 0.001345 0)
(-0.0144784 0.00331022 0)
(-0.0125473 0.00457928 0)
(-0.0109823 0.00543771 0)
(-0.00963974 0.00606305 0)
(-0.00842247 0.00652205 0)
(-0.00718616 0.00684155 0)
(-0.00593112 0.00705237 0)
(-0.00480981 0.00716408 0)
(-0.00374933 0.00720259 0)
(-0.00274073 0.00720429 0)
(-0.00181017 0.00718304 0)
(-0.000956561 0.00716445 0)
(9.02969e-05 0.00708433 0)
(0.000890795 0.00699716 0)
(0.00168995 0.00673002 0)
(0.00273844 0.00632161 0)
(0.0040395 0.00578869 0)
(0.00576731 0.00510596 0)
(0.00808638 0.00446403 0)
(0.0105318 0.00379715 0)
(0.0139853 0.00336323 0)
(0.0196841 0.00283518 0)
(0.0395068 0.00248523 0)
(-0.0264423 0.00300429 0)
(-0.325909 0.00912829 0)
(-0.2714 0.0132755 0)
(0.204488 0.00306841 0)
(0.274148 -0.00591521 0)
(0.0758893 -0.00938077 0)
(0.0174222 -0.00857777 0)
(0.00813923 -0.0121241 0)
(-0.00451003 -0.0140028 0)
(-0.00644517 -0.0159652 0)
(-0.0142826 -0.017655 0)
(-0.0207689 -0.0173422 0)
(-0.0237214 -0.0137666 0)
(-0.0231148 -0.00849987 0)
(-0.0202461 -0.00343202 0)
(-0.0172605 0.000701576 0)
(-0.0148233 0.00342141 0)
(-0.0130139 0.0051154 0)
(-0.011483 0.0062787 0)
(-0.0102162 0.00708986 0)
(-0.00906262 0.00769592 0)
(-0.00801162 0.00814565 0)
(-0.00692215 0.0084641 0)
(-0.00579617 0.00868322 0)
(-0.00478104 0.00881188 0)
(-0.00378705 0.00887419 0)
(-0.00281329 0.00890312 0)
(-0.00188569 0.00890625 0)
(-0.00105716 0.0089194 0)
(-5.793e-05 0.00884097 0)
(0.000654274 0.00872679 0)
(0.00130922 0.00844936 0)
(0.00222841 0.00803287 0)
(0.00339347 0.00748743 0)
(0.00506781 0.00679154 0)
(0.00739679 0.00614155 0)
(0.0099575 0.00550922 0)
(0.0134987 0.0051407 0)
(0.0192538 0.00474159 0)
(0.0395426 0.00452696 0)
(-0.0232096 0.00487377 0)
(-0.321076 0.0107021 0)
(-0.269596 0.0160396 0)
(0.199537 0.00687056 0)
(0.267864 0.000863387 0)
(0.0742482 -0.00198024 0)
(0.0149058 -0.00346728 0)
(0.00504214 -0.00861531 0)
(-0.00642608 -0.0107314 0)
(-0.0080067 -0.0132034 0)
(-0.0143014 -0.0139688 0)
(-0.0185234 -0.0124047 0)
(-0.0196005 -0.00842063 0)
(-0.0185834 -0.00355666 0)
(-0.0163175 0.000715466 0)
(-0.0144193 0.00381309 0)
(-0.0129721 0.005975 0)
(-0.011725 0.00752473 0)
(-0.0106447 0.00857808 0)
(-0.00961657 0.00935662 0)
(-0.00862234 0.00995444 0)
(-0.00768222 0.0104161 0)
(-0.00666814 0.0107441 0)
(-0.00559598 0.0109374 0)
(-0.00462578 0.0110087 0)
(-0.00366141 0.011022 0)
(-0.00270983 0.0110333 0)
(-0.00179448 0.011039 0)
(-0.00101947 0.0110712 0)
(-9.53122e-05 0.0109924 0)
(0.000513421 0.010869 0)
(0.00102127 0.0106059 0)
(0.00181149 0.0102209 0)
(0.00284331 0.00971437 0)
(0.00447036 0.00906864 0)
(0.00685069 0.00850629 0)
(0.00956733 0.0080013 0)
(0.0132455 0.00783228 0)
(0.0190927 0.00763823 0)
(0.0396342 0.00754813 0)
(-0.0204917 0.00821247 0)
(-0.315149 0.0142632 0)
(-0.266256 0.0209661 0)
(0.198699 0.0119556 0)
(0.265619 0.00732052 0)
(0.0717161 0.00347137 0)
(0.0110284 0.000313356 0)
(0.00113922 -0.00576799 0)
(-0.00893131 -0.00705071 0)
(-0.00956485 -0.00926247 0)
(-0.013513 -0.00905196 0)
(-0.0154224 -0.00667699 0)
(-0.015195 -0.00247696 0)
(-0.014311 0.00138298 0)
(-0.0131444 0.00470956 0)
(-0.0121922 0.00698167 0)
(-0.0112467 0.0087761 0)
(-0.0105054 0.0100136 0)
(-0.00971771 0.010899 0)
(-0.00888993 0.0114977 0)
(-0.00804166 0.0118686 0)
(-0.00725071 0.0120778 0)
(-0.00641985 0.0122301 0)
(-0.00554119 0.0124462 0)
(-0.00469945 0.0127138 0)
(-0.00376328 0.0129549 0)
(-0.00279693 0.0131261 0)
(-0.00184916 0.0132138 0)
(-0.00110206 0.0132757 0)
(-0.000252799 0.0132073 0)
(0.000281801 0.013116 0)
(0.000684666 0.0129006 0)
(0.00136932 0.0125954 0)
(0.00228312 0.0121615 0)
(0.00390366 0.0116126 0)
(0.00636827 0.0111749 0)
(0.00930799 0.0108451 0)
(0.0131489 0.0109498 0)
(0.01898 0.0110554 0)
(0.0400959 0.0113087 0)
(-0.0167387 0.0128384 0)
(-0.308786 0.0196493 0)
(-0.263137 0.0280503 0)
(0.19507 0.0267727 0)
(0.259688 0.0145692 0)
(0.0674958 0.00946992 0)
(0.00600238 0.00527199 0)
(-0.00205414 -0.000526643 0)
(-0.00979349 -0.000530226 0)
(-0.00993517 -0.00175553 0)
(-0.0118099 -0.000551837 0)
(-0.0121875 0.00189387 0)
(-0.0118337 0.00507047 0)
(-0.0116582 0.00783034 0)
(-0.0109223 0.0101655 0)
(-0.0105007 0.0120082 0)
(-0.0100505 0.0134434 0)
(-0.00967937 0.0145644 0)
(-0.00921449 0.0154682 0)
(-0.00868221 0.0161562 0)
(-0.00806338 0.0166379 0)
(-0.00733382 0.0169322 0)
(-0.00631313 0.0171178 0)
(-0.0051299 0.0173201 0)
(-0.00413556 0.0175151 0)
(-0.0032641 0.0176227 0)
(-0.00246036 0.017631 0)
(-0.00165032 0.0175473 0)
(-0.00102574 0.0174786 0)
(-0.000249241 0.0172993 0)
(0.000217861 0.0171568 0)
(0.000519594 0.0168959 0)
(0.00109933 0.0166017 0)
(0.00189631 0.0161444 0)
(0.00351959 0.0156272 0)
(0.00611108 0.0152465 0)
(0.00935044 0.0150157 0)
(0.0134481 0.0152952 0)
(0.0194386 0.01564 0)
(0.0413524 0.0161013 0)
(-0.0124544 0.0184478 0)
(-0.30049 0.0250303 0)
(-0.258161 0.0399115 0)
(0.18694 0.0424676 0)
(0.248946 0.0236954 0)
(0.0627569 0.0176374 0)
(0.00139535 0.0135489 0)
(-0.004452 0.0083309 0)
(-0.0101155 0.00807766 0)
(-0.00958567 0.00773828 0)
(-0.00999629 0.00949931 0)
(-0.0100046 0.0117691 0)
(-0.00947444 0.0139648 0)
(-0.00940116 0.0161434 0)
(-0.00911841 0.0180489 0)
(-0.00903359 0.0195385 0)
(-0.00878346 0.0210173 0)
(-0.00855427 0.0223975 0)
(-0.00818381 0.0237577 0)
(-0.00776269 0.0249478 0)
(-0.00729385 0.0258295 0)
(-0.0067883 0.0263789 0)
(-0.00604608 0.0266682 0)
(-0.00515831 0.0268649 0)
(-0.00440786 0.0269556 0)
(-0.00365166 0.0267908 0)
(-0.0028696 0.0263391 0)
(-0.00199597 0.0256817 0)
(-0.00134098 0.0252083 0)
(-0.000562921 0.0246004 0)
(-0.000106919 0.0242482 0)
(0.000149747 0.023813 0)
(0.000645121 0.023551 0)
(0.00134406 0.0231563 0)
(0.00303846 0.0227798 0)
(0.00577901 0.0225037 0)
(0.00935489 0.0223406 0)
(0.0137504 0.0227689 0)
(0.0197568 0.0233256 0)
(0.0428017 0.0236902 0)
(-0.00813439 0.0260718 0)
(-0.288103 0.0319609 0)
(-0.248797 0.0516087 0)
(0.176981 0.0564018 0)
(0.235761 0.0420726 0)
(0.0577182 0.0398748 0)
(-0.00296574 0.0334246 0)
(-0.0073264 0.0273362 0)
(-0.0103646 0.0261568 0)
(-0.00856521 0.0263794 0)
(-0.00792568 0.028145 0)
(-0.00788433 0.0307125 0)
(-0.00761845 0.0327489 0)
(-0.00772266 0.0345383 0)
(-0.00765068 0.0357596 0)
(-0.00764022 0.0364917 0)
(-0.00729539 0.0370772 0)
(-0.00703857 0.0375958 0)
(-0.006757 0.0385012 0)
(-0.00668576 0.039982 0)
(-0.00668427 0.0420599 0)
(-0.00652562 0.0443305 0)
(-0.00584486 0.0459485 0)
(-0.00485295 0.0462284 0)
(-0.00420695 0.0451882 0)
(-0.00385816 0.0435243 0)
(-0.0035291 0.0424091 0)
(-0.00273997 0.0420047 0)
(-0.00206775 0.0424521 0)
(-0.00117447 0.0430879 0)
(-0.000540854 0.043457 0)
(-0.000152201 0.0440398 0)
(0.000466466 0.0445148 0)
(0.00115306 0.0449078 0)
(0.00289078 0.045099 0)
(0.0056879 0.0452219 0)
(0.00960593 0.0457211 0)
(0.0143973 0.0469495 0)
(0.0203264 0.0490411 0)
(0.0439987 0.0505895 0)
(-0.00448435 0.0521772 0)
(-0.275882 0.0506827 0)
(-0.239227 0.0656857 0)
(0.173132 -0.280164 0)
(0.23302 -0.0432926 0)
(0.0544234 0.0107796 0)
(-0.0106873 -0.00531249 0)
(-0.0114555 -0.0122637 0)
(-0.0110376 -0.0206937 0)
(-0.00766976 -0.0244601 0)
(-0.00582076 -0.0298248 0)
(-0.00556813 -0.0323414 0)
(-0.00578771 -0.0355454 0)
(-0.00649992 -0.037789 0)
(-0.00723605 -0.0407593 0)
(-0.00776386 -0.0432966 0)
(-0.00771954 -0.0462912 0)
(-0.00718206 -0.0492919 0)
(-0.00588441 -0.0522092 0)
(-0.00433341 -0.0546726 0)
(-0.00310349 -0.0563302 0)
(-0.0030411 -0.0565751 0)
(-0.00421714 -0.0554991 0)
(-0.00589102 -0.055457 0)
(-0.0070136 -0.0560491 0)
(-0.00632961 -0.0551981 0)
(-0.00433399 -0.0523678 0)
(-0.00195456 -0.0488701 0)
(-0.000297186 -0.0452746 0)
(0.000405472 -0.0406141 0)
(0.000810374 -0.0376774 0)
(0.00116908 -0.0333377 0)
(0.00148158 -0.0298551 0)
(0.001907 -0.0258636 0)
(0.00334112 -0.0222346 0)
(0.00637841 -0.0186288 0)
(0.0110197 -0.0144519 0)
(0.0169498 -0.0096709 0)
(0.0232644 -0.00409798 0)
(0.0458237 0.001313 0)
(-0.00804453 -0.00219961 0)
(-0.275085 -0.0499904 0)
(-0.23434 -0.221781 0)
(0.405239 -0.386601 0)
(0.516125 -0.466157 0)
(0.0943172 -0.274463 0)
(-0.0251711 -0.301454 0)
(-0.0221483 -0.319901 0)
(-0.0221175 -0.333256 0)
(-0.0173642 -0.340093 0)
(-0.0155204 -0.348841 0)
(-0.0133969 -0.354573 0)
(-0.012868 -0.359419 0)
(-0.012747 -0.363744 0)
(-0.0129581 -0.36741 0)
(-0.012971 -0.370334 0)
(-0.0130726 -0.373422 0)
(-0.0127413 -0.376185 0)
(-0.0119421 -0.37895 0)
(-0.010657 -0.38142 0)
(-0.00851751 -0.383593 0)
(-0.00572472 -0.384781 0)
(-0.00476744 -0.384462 0)
(-0.00538294 -0.383492 0)
(-0.00395745 -0.382331 0)
(-0.000310728 -0.379193 0)
(0.00256875 -0.375693 0)
(0.00409531 -0.371665 0)
(0.00588804 -0.367621 0)
(0.00614646 -0.362933 0)
(0.00647091 -0.358908 0)
(0.00738558 -0.353837 0)
(0.00766885 -0.348899 0)
(0.00849653 -0.342697 0)
(0.00986249 -0.336895 0)
(0.0131876 -0.329356 0)
(0.0182381 -0.322495 0)
(0.0243747 -0.313055 0)
(0.0309108 -0.297924 0)
(0.0458281 -0.283709 0)
(-0.0539222 -0.285529 0)
(-0.487478 -0.502974 0)
(-0.404771 -0.347297 0)
(0.0964688 -0.0745311 0)
(0.34108 -0.394953 0)
(0.213137 -0.256182 0)
(-0.0544727 -0.271649 0)
(-0.0421014 -0.286589 0)
(-0.0304951 -0.292355 0)
(-0.0226882 -0.295283 0)
(-0.0197743 -0.29788 0)
(-0.0157618 -0.299697 0)
(-0.0146255 -0.300334 0)
(-0.0142001 -0.301521 0)
(-0.0135859 -0.301842 0)
(-0.0135566 -0.302173 0)
(-0.0133579 -0.30245 0)
(-0.012509 -0.302469 0)
(-0.0109288 -0.302208 0)
(-0.00880837 -0.301417 0)
(-0.0063423 -0.30029 0)
(-0.00387818 -0.29916 0)
(-0.00297555 -0.298374 0)
(-0.00383706 -0.2973 0)
(-0.002871 -0.29677 0)
(6.69717e-05 -0.296173 0)
(0.00292083 -0.296378 0)
(0.00582386 -0.295808 0)
(0.00811658 -0.294584 0)
(0.00880173 -0.293495 0)
(0.00957561 -0.291829 0)
(0.010814 -0.290273 0)
(0.0122168 -0.288271 0)
(0.0134739 -0.285554 0)
(0.0161966 -0.283105 0)
(0.0202549 -0.27898 0)
(0.0267283 -0.275772 0)
(0.040627 -0.27017 0)
(0.0515435 -0.258906 0)
(0.0577685 -0.248759 0)
(-0.219337 -0.246515 0)
(-0.334607 -0.420415 0)
(-0.0843234 -0.0878752 0)
(0.0964688 0.0745311 0)
(0.34108 0.394953 0)
(0.213137 0.256182 0)
(-0.0544727 0.271649 0)
(-0.0421014 0.286589 0)
(-0.0304951 0.292355 0)
(-0.0226882 0.295283 0)
(-0.0197743 0.29788 0)
(-0.0157618 0.299697 0)
(-0.0146255 0.300334 0)
(-0.0142001 0.301521 0)
(-0.0135859 0.301842 0)
(-0.0135566 0.302173 0)
(-0.0133579 0.30245 0)