/*--------------------------------*- C++ -*----------------------------------*\
| =========                 |                                                 |
| \\      /  F ield         | OpenFOAM: The Open Source CFD Toolbox           |
|  \\    /   O peration     | Version:  v1912                                 |
|   \\  /    A nd           | Website:  www.openfoam.com                      |
|    \\/     M anipulation  |                                                 |
\*---------------------------------------------------------------------------*/
FoamFile
{
    version     2.0;
    format      ascii;
    class       volVectorField;
    location    "5.48";
    object      U;
}
// * * * * * * * * * * * * * * * * * * * * * * * * * * * * * * * * * * * * * //

dimensions      [0 1 -1 0 0 0 0];


internalField   nonuniform List<vector> 
1900
(
(-0.873893 2.47193e-06 0)
(-0.0733018 9.08794e-06 0)
(0.0600006 -8.9874e-06 0)
(0.061138 -1.56752e-05 0)
(0.0684755 -1.95624e-05 0)
(0.0768006 -0.000151677 0)
(0.0846111 -0.00039155 0)
(0.0908595 0.000466987 0)
(0.094405 0.0032327 0)
(0.0871776 0.0113854 0)
(-0.873894 1.37674e-06 0)
(-0.0732986 9.16526e-06 0)
(0.0600221 -1.05577e-05 0)
(0.0611442 -8.96376e-06 0)
(0.0684384 -2.47693e-05 0)
(0.0766233 -0.000166358 0)
(0.0840349 -0.000405019 0)
(0.0898324 0.000115094 0)
(0.0957574 0.00204228 0)
(0.100148 0.011511 0)
(-0.873894 -3.36511e-14 0)
(-0.0732961 -6.61074e-13 0)
(0.0600257 -8.59329e-13 0)
(0.061133 1.16714e-12 0)
(0.0683887 5.49165e-13 0)
(0.076502 -8.47794e-14 0)
(0.083792 -1.29865e-13 0)
(0.0896362 -7.13112e-14 0)
(0.0962707 -9.68786e-14 0)
(0.107173 -4.89609e-14 0)
(-0.873894 -1.37675e-06 0)
(-0.0732986 -9.16526e-06 0)
(0.0600221 1.05577e-05 0)
(0.0611442 8.96377e-06 0)
(0.0684384 2.47693e-05 0)
(0.0766233 0.000166358 0)
(0.0840349 0.000405019 0)
(0.0898324 -0.000115094 0)
(0.0957574 -0.00204228 0)
(0.100148 -0.011511 0)
(-0.873893 -2.47193e-06 0)
(-0.0733018 -9.08794e-06 0)
(0.0600006 8.9874e-06 0)
(0.061138 1.56752e-05 0)
(0.0684755 1.95624e-05 0)
(0.0768006 0.000151677 0)
(0.0846111 0.00039155 0)
(0.0908595 -0.000466987 0)
(0.094405 -0.0032327 0)
(0.0871776 -0.0113854 0)
(0.0905733 0.0362914 0)
(0.127463 0.0487288 0)
(0.174413 0.0737845 0)
(0.250821 0.114355 0)
(0.392394 0.168106 0)
(0.115699 0.027565 0)
(0.142037 0.0283063 0)
(0.172519 0.0375275 0)
(0.235037 0.0575128 0)
(0.367191 0.100543 0)
(0.127035 -3.31675e-14 0)
(0.152213 -3.60289e-14 0)
(0.184125 2.18437e-14 0)
(0.246391 -1.45985e-15 0)
(0.377999 1.52566e-14 0)
(0.115699 -0.027565 0)
(0.142037 -0.0283063 0)
(0.172519 -0.0375275 0)
(0.235037 -0.0575128 0)
(0.367191 -0.100543 0)
(0.0905733 -0.0362914 0)
(0.127463 -0.0487288 0)
(0.174413 -0.0737845 0)
(0.250821 -0.114355 0)
(0.392394 -0.168106 0)
(0.793573 0.0287646 0)
(0.939703 -0.0543924 0)
(0.892991 -0.0692354 0)
(0.884366 -0.0718915 0)
(0.900712 -0.0639088 0)
(0.772481 -0.015524 0)
(0.967842 -0.0433252 0)
(0.922521 -0.0439541 0)
(0.908773 -0.041996 0)
(0.921762 -0.0387683 0)
(0.770614 6.90139e-15 0)
(0.974915 3.99144e-15 0)
(0.920255 -2.75641e-15 0)
(0.899393 -5.89716e-15 0)
(0.91584 2.89715e-14 0)
(0.772481 0.015524 0)
(0.967842 0.0433252 0)
(0.922521 0.0439541 0)
(0.908773 0.041996 0)
(0.921762 0.0387683 0)
(0.793573 -0.0287646 0)
(0.939703 0.0543924 0)
(0.892991 0.0692354 0)
(0.884366 0.0718915 0)
(0.900712 0.0639088 0)
(1.0956 -0.222122 0)
(1.19311 -0.189244 0)
(0.983676 -0.0896205 0)
(0.660467 -0.11954 0)
(0.425514 -0.161842 0)
(0.215177 -0.128461 0)
(0.0869899 -0.0718005 0)
(-0.00167494 -0.0415313 0)
(-0.0585555 -0.0300391 0)
(-0.0848203 -0.0247949 0)
(-0.0944737 -0.0221615 0)
(-0.100017 -0.0208945 0)
(-0.104669 -0.0194297 0)
(-0.105542 -0.0182912 0)
(-0.0985007 -0.0177969 0)
(-0.0826168 -0.0176401 0)
(-0.0612428 -0.0175785 0)
(-0.0375517 -0.0175151 0)
(-0.012985 -0.0174568 0)
(0.0119823 -0.0174525 0)
(0.0373246 -0.0174054 0)
(0.0631803 -0.0173233 0)
(0.0895242 -0.017295 0)
(0.116248 -0.0172884 0)
(0.143269 -0.0172883 0)
(0.170526 -0.0172879 0)
(0.197831 -0.0173092 0)
(0.22536 -0.0172556 0)
(0.252379 -0.0173674 0)
(0.278729 -0.017228 0)
(0.304435 -0.0174442 0)
(0.328961 -0.0172513 0)
(0.352835 -0.017664 0)
(0.375519 -0.0171247 0)
(0.39747 -0.0182948 0)
(0.415794 -0.0166988 0)
(0.432021 -0.0189858 0)
(0.435513 -0.0174949 0)
(0.4374 -0.0197215 0)
(0.711775 -0.0203093 0)
(1.09701 -0.0942585 0)
(1.20288 -0.0935711 0)
(1.0523 -0.0459893 0)
(0.724414 -0.054791 0)
(0.507359 -0.0815071 0)
(0.265006 -0.068315 0)
(0.101271 -0.0383232 0)
(0.0011422 -0.0211057 0)
(-0.0581636 -0.0148913 0)
(-0.0851061 -0.0123169 0)
(-0.0950591 -0.0110563 0)
(-0.100551 -0.0104628 0)
(-0.105002 -0.00965524 0)
(-0.105908 -0.00910831 0)
(-0.0988522 -0.00888451 0)
(-0.0829193 -0.00881492 0)
(-0.0614821 -0.00878593 0)
(-0.0377221 -0.00875386 0)
(-0.0130877 -0.00872465 0)
(0.0119437 -0.00872269 0)
(0.0373471 -0.00869948 0)
(0.063262 -0.00865875 0)
(0.0896634 -0.00864495 0)
(0.116443 -0.00864195 0)
(0.143519 -0.00864221 0)
(0.170828 -0.00864241 0)
(0.198183 -0.0086534 0)
(0.225757 -0.00862696 0)
(0.252819 -0.008683 0)
(0.279206 -0.00861303 0)
(0.304945 -0.00872092 0)
(0.329493 -0.0086226 0)
(0.353385 -0.00882815 0)
(0.376072 -0.00855137 0)
(0.398023 -0.00914505 0)
(0.416242 -0.00831133 0)
(0.4326 -0.00944468 0)
(0.435888 -0.00868432 0)
(0.438264 -0.00993001 0)
(0.70989 -0.0102097 0)
(1.0646 -4.76582e-13 0)
(1.2017 -1.2079e-14 0)
(1.04998 -1.43332e-12 0)
(0.71349 -4.11442e-12 0)
(0.509277 -3.98769e-12 0)
(0.278247 -2.44685e-12 0)
(0.107679 4.70132e-14 0)
(0.00190106 3.34779e-12 0)
(-0.0585743 3.1887e-12 0)
(-0.0853449 1.79416e-12 0)
(-0.0952169 8.13958e-13 0)
(-0.100717 1.3354e-12 0)
(-0.105177 2.4624e-12 0)
(-0.10606 4.83337e-12 0)
(-0.098954 7.40798e-12 0)
(-0.0829975 8.66147e-12 0)
(-0.0615404 6.02362e-12 0)
(-0.0377595 -2.36056e-12 0)
(-0.013106 -1.34485e-11 0)
(0.0119418 -1.2463e-11 0)
(0.03736 -3.97936e-12 0)
(0.0632892 8.47086e-12 0)
(0.0897054 7.48145e-12 0)
(0.116502 -6.49834e-12 0)
(0.143595 -2.02107e-11 0)
(0.170924 -2.23004e-11 0)
(0.198303 -2.1363e-11 0)
(0.225905 -7.75537e-12 0)
(0.253 5.60814e-13 0)
(0.279428 9.24939e-13 0)
(0.305218 1.54239e-11 0)
(0.329833 5.88625e-12 0)
(0.353813 -3.4497e-12 0)
(0.376627 1.00895e-11 0)
(0.398754 1.14118e-11 0)
(0.417194 -8.06439e-13 0)
(0.433968 -2.29448e-12 0)
(0.437635 1.21811e-11 0)
(0.439979 1.15413e-11 0)
(0.710663 8.10571e-12 0)
(1.09701 0.0942585 0)
(1.20288 0.0935711 0)
(1.0523 0.0459893 0)
(0.724414 0.054791 0)
(0.507359 0.0815071 0)
(0.265006 0.068315 0)
(0.101271 0.0383232 0)
(0.0011422 0.0211057 0)
(-0.0581636 0.0148913 0)
(-0.0851061 0.0123169 0)
(-0.0950591 0.0110563 0)
(-0.100551 0.0104628 0)
(-0.105002 0.00965524 0)
(-0.105908 0.00910831 0)
(-0.0988522 0.00888451 0)
(-0.0829193 0.00881492 0)
(-0.0614821 0.00878593 0)
(-0.0377221 0.00875386 0)
(-0.0130877 0.00872465 0)
(0.0119437 0.00872269 0)
(0.0373471 0.00869948 0)
(0.063262 0.00865875 0)
(0.0896634 0.00864495 0)
(0.116443 0.00864195 0)
(0.143519 0.00864221 0)
(0.170828 0.00864241 0)
(0.198183 0.0086534 0)
(0.225757 0.00862696 0)
(0.252819 0.008683 0)
(0.279206 0.00861303 0)
(0.304945 0.00872092 0)
(0.329493 0.0086226 0)
(0.353385 0.00882815 0)
(0.376072 0.00855137 0)
(0.398023 0.00914505 0)
(0.416242 0.00831133 0)
(0.4326 0.00944468 0)
(0.435888 0.00868432 0)
(0.438264 0.00993001 0)
(0.70989 0.0102097 0)
(1.0956 0.222122 0)
(1.19311 0.189244 0)
(0.983676 0.0896205 0)
(0.660467 0.11954 0)
(0.425514 0.161842 0)
(0.215177 0.128461 0)
(0.0869899 0.0718005 0)
(-0.00167494 0.0415313 0)
(-0.0585555 0.0300391 0)
(-0.0848203 0.0247949 0)
(-0.0944737 0.0221615 0)
(-0.100017 0.0208945 0)
(-0.104669 0.0194297 0)
(-0.105542 0.0182912 0)
(-0.0985007 0.0177969 0)
(-0.0826168 0.0176401 0)
(-0.0612428 0.0175785 0)
(-0.0375517 0.0175151 0)
(-0.012985 0.0174568 0)
(0.0119823 0.0174525 0)
(0.0373246 0.0174054 0)
(0.0631803 0.0173233 0)
(0.0895242 0.017295 0)
(0.116248 0.0172884 0)
(0.143269 0.0172883 0)
(0.170526 0.0172879 0)
(0.197831 0.0173092 0)
(0.22536 0.0172556 0)
(0.252379 0.0173674 0)
(0.278729 0.017228 0)
(0.304435 0.0174442 0)
(0.328961 0.0172513 0)
(0.352835 0.017664 0)
(0.375519 0.0171247 0)
(0.39747 0.0182948 0)
(0.415794 0.0166988 0)
(0.432021 0.0189858 0)
(0.435513 0.0174949 0)
(0.4374 0.0197215 0)
(0.711775 0.0203093 0)
(0.723701 0.349666 0)
(0.808988 0.275247 0)
(0.597972 0.223903 0)
(0.400863 0.262993 0)
(0.239176 0.282565 0)
(0.13297 0.213346 0)
(0.0568348 0.13053 0)
(-0.0147358 0.0825861 0)
(-0.0657187 0.0616936 0)
(-0.0886598 0.0513482 0)
(-0.0966169 0.0462099 0)
(-0.101915 0.0432214 0)
(-0.106522 0.040368 0)
(-0.106681 0.0381288 0)
(-0.0990338 0.0370957 0)
(-0.0829083 0.0367072 0)
(-0.061462 0.0365536 0)
(-0.0377336 0.0364139 0)
(-0.0131235 0.0362907 0)
(0.0118983 0.0362814 0)
(0.0372995 0.0361838 0)
(0.0632132 0.0360129 0)
(0.0896119 0.0359538 0)
(0.116386 0.0359396 0)
(0.143453 0.0359387 0)
(0.170753 0.0359372 0)
(0.198095 0.0359817 0)
(0.225664 0.035868 0)
(0.252722 0.0360994 0)
(0.279116 0.0358125 0)
(0.304875 0.0362496 0)
(0.329473 0.0358576 0)
(0.353421 0.0366786 0)
(0.376209 0.0356204 0)
(0.398235 0.0378564 0)
(0.416929 0.0348532 0)
(0.433031 0.0393623 0)
(0.437952 0.0359754 0)
(0.438262 0.0430048 0)
(0.71696 0.0440379 0)
(-0.0159507 0.28229 0)
(0.119282 0.311599 0)
(0.0569925 0.378464 0)
(0.0322463 0.412794 0)
(0.0180856 0.387294 0)
(0.0230093 0.296682 0)
(-0.00909384 0.196675 0)
(-0.0497035 0.136416 0)
(-0.0844426 0.106688 0)
(-0.097018 0.0908526 0)
(-0.101877 0.0824461 0)
(-0.106249 0.0767381 0)
(-0.110237 0.0719538 0)
(-0.108964 0.0683895 0)
(-0.0999603 0.0666891 0)
(-0.0832685 0.0659905 0)
(-0.0617117 0.0656693 0)
(-0.037978 0.0654 0)
(-0.0133488 0.0651771 0)
(0.0117218 0.0651651 0)
(0.0371837 0.0649947 0)
(0.0631561 0.0646902 0)
(0.0896072 0.064584 0)
(0.116425 0.0645574 0)
(0.143528 0.0645532 0)
(0.170858 0.0645471 0)
(0.198222 0.0646254 0)
(0.225825 0.0644137 0)
(0.25291 0.0648233 0)
(0.279351 0.06431 0)
(0.305167 0.0650628 0)
(0.329867 0.064373 0)
(0.353889 0.065766 0)
(0.376825 0.0639882 0)
(0.398857 0.0676078 0)
(0.418149 0.062992 0)
(0.434044 0.0702316 0)
(0.441967 0.063918 0)
(0.438645 0.077877 0)
(0.708008 0.0812989 0)
(-0.448994 0.308766 0)
(-0.294431 0.386101 0)
(-0.264661 0.467662 0)
(-0.179954 0.465893 0)
(-0.111837 0.401652 0)
(-0.0706143 0.306939 0)
(-0.0733507 0.229436 0)
(-0.0895637 0.177707 0)
(-0.105643 0.146384 0)
(-0.108181 0.128578 0)
(-0.10905 0.117669 0)
(-0.112349 0.109448 0)
(-0.114883 0.103049 0)
(-0.111822 0.0985189 0)
(-0.101181 0.0962871 0)
(-0.0837208 0.0952812 0)
(-0.0619844 0.0947461 0)
(-0.0382462 0.0943245 0)
(-0.013613 0.0939989 0)
(0.0114967 0.0939881 0)
(0.0370132 0.0937486 0)
(0.0630374 0.0933111 0)
(0.0895319 0.0931555 0)
(0.11638 0.0931125 0)
(0.143503 0.0930995 0)
(0.170843 0.093082 0)
(0.198202 0.0931907 0)
(0.225822 0.0928674 0)
(0.252908 0.0934469 0)
(0.279375 0.0927146 0)
(0.305236 0.093739 0)
(0.330033 0.0927944 0)
(0.354102 0.0946483 0)
(0.377165 0.092332 0)
(0.399136 0.0968933 0)
(0.419007 0.0914473 0)
(0.43493 0.100343 0)
(0.445897 0.0919286 0)
(0.438623 0.110895 0)
(0.707993 0.115047 0)
(-0.610227 0.318558 0)
(-0.452888 0.40496 0)
(-0.385878 0.47306 0)
(-0.262207 0.456243 0)
(-0.18655 0.380933 0)
(-0.140733 0.312808 0)
(-0.126579 0.254361 0)
(-0.128371 0.210007 0)
(-0.125147 0.182288 0)
(-0.12183 0.163534 0)
(-0.118081 0.151261 0)
(-0.120224 0.141088 0)
(-0.120498 0.133515 0)
(-0.115202 0.128398 0)
(-0.102758 0.125797 0)
(-0.0844065 0.12452 0)
(-0.0624074 0.123776 0)
(-0.0386229 0.123196 0)
(-0.0139624 0.12277 0)
(0.0112045 0.122766 0)
(0.03679 0.122463 0)
(0.0628774 0.121893 0)
(0.0894241 0.121685 0)
(0.116309 0.121621 0)
(0.143457 0.121592 0)
(0.170813 0.121553 0)
(0.198163 0.121691 0)
(0.225804 0.121243 0)
(0.252892 0.121979 0)
(0.279398 0.12104 0)
(0.305319 0.122286 0)
(0.330242 0.121134 0)
(0.354363 0.123341 0)
(0.377576 0.120651 0)
(0.399457 0.125828 0)
(0.419901 0.119976 0)
(0.435989 0.129791 0)
(0.449459 0.120225 0)
(0.437073 0.142954 0)
(0.70206 0.146281 0)
(-0.647277 0.314977 0)
(-0.498862 0.389504 0)
(-0.418622 0.448075 0)
(-0.295555 0.429302 0)
(-0.234089 0.364983 0)
(-0.196071 0.313425 0)
(-0.170136 0.273306 0)
(-0.16152 0.236305 0)
(-0.145338 0.214121 0)
(-0.13628 0.195847 0)
(-0.129516 0.182685 0)
(-0.129303 0.171484 0)
(-0.126922 0.163237 0)
(-0.118986 0.157918 0)
(-0.104663 0.155105 0)
(-0.0853622 0.153614 0)
(-0.0630324 0.15269 0)
(-0.0391466 0.151966 0)
(-0.0144179 0.151451 0)
(0.0108356 0.151465 0)
(0.0365117 0.151103 0)
(0.0626789 0.150402 0)
(0.0892925 0.150137 0)
(0.116227 0.150045 0)
(0.14341 0.149991 0)
(0.170795 0.149915 0)
(0.198188 0.15008 0)
(0.225801 0.149505 0)
(0.252941 0.150368 0)
(0.279518 0.149241 0)
(0.305538 0.150649 0)
(0.330632 0.14934 0)
(0.354857 0.151794 0)
(0.378272 0.148872 0)
(0.400151 0.154404 0)
(0.421117 0.148396 0)
(0.437539 0.158439 0)
(0.453129 0.148688 0)
(0.436493 0.175439 0)
(0.699667 0.179942 0)
(-0.648094 0.322944 0)
(-0.508388 0.381576 0)
(-0.424178 0.425765 0)
(-0.325596 0.402282 0)
(-0.270435 0.361593 0)
(-0.238597 0.319714 0)
(-0.204059 0.292876 0)
(-0.185267 0.262343 0)
(-0.162788 0.243818 0)
(-0.14908 0.226614 0)
(-0.141013 0.212684 0)
(-0.138301 0.200948 0)
(-0.133117 0.192459 0)
(-0.12257 0.18713 0)
(-0.106494 0.184201 0)
(-0.0863204 0.182532 0)
(-0.0636768 0.18146 0)
(-0.0396893 0.1806 0)
(-0.0148906 0.180009 0)
(0.0104447 0.180049 0)
(0.0361998 0.179634 0)
(0.0624303 0.1788 0)
(0.0890919 0.178473 0)
(0.116053 0.17835 0)
(0.143247 0.178269 0)
(0.170628 0.178144 0)
(0.198046 0.178333 0)
(0.22557 0.17764 0)
(0.252713 0.178616 0)
(0.2793 0.177337 0)
(0.30534 0.178869 0)
(0.330511 0.177473 0)
(0.354714 0.18011 0)
(0.378188 0.177085 0)
(0.399875 0.182821 0)
(0.421066 0.176812 0)
(0.437332 0.186744 0)
(0.4538 0.177573 0)
(0.433485 0.207459 0)
(0.692274 0.210685 0)
(-0.647073 0.331815 0)
(-0.50899 0.378862 0)
(-0.424794 0.413803 0)
(-0.356961 0.379866 0)
(-0.301722 0.366195 0)
(-0.269423 0.329142 0)
(-0.231337 0.310287 0)
(-0.205871 0.286071 0)
(-0.180712 0.270534 0)
(-0.164189 0.254643 0)
(-0.154661 0.240641 0)
(-0.14888 0.229007 0)
(-0.14031 0.220857 0)
(-0.126974 0.215785 0)
(-0.10908 0.21286 0)
(-0.0879327 0.211151 0)
(-0.0648391 0.209957 0)
(-0.04061 0.208979 0)
(-0.0156246 0.208326 0)
(0.00988828 0.208404 0)
(0.0358048 0.20794 0)
(0.0621754 0.206971 0)
(0.0889635 0.206579 0)
(0.116036 0.206421 0)
(0.143331 0.206311 0)
(0.170812 0.206127 0)
(0.198369 0.206337 0)
(0.225944 0.205535 0)
(0.253244 0.206615 0)
(0.280027 0.205215 0)
(0.306308 0.206832 0)
(0.331797 0.205408 0)
(0.356266 0.208171 0)
(0.380085 0.205141 0)
(0.401943 0.21098 0)
(0.423622 0.205073 0)
(0.440174 0.214709 0)
(0.457845 0.206358 0)
(0.4343 0.239587 0)
(0.689935 0.244574 0)
(-0.6405 0.344389 0)
(-0.508881 0.379654 0)
(-0.429597 0.410486 0)
(-0.377246 0.37536 0)
(-0.323293 0.377142 0)
(-0.287211 0.345289 0)
(-0.249075 0.331156 0)
(-0.220115 0.31121 0)
(-0.194002 0.297314 0)
(-0.176428 0.282015 0)
(-0.165471 0.268104 0)
(-0.156749 0.256729 0)
(-0.145108 0.249011 0)
(-0.129478 0.244175 0)
(-0.110266 0.241238 0)
(-0.0885528 0.239385 0)
(-0.0652591 0.238064 0)
(-0.0409691 0.236987 0)
(-0.0159715 0.236282 0)
(0.00954058 0.236403 0)
(0.0354345 0.235892 0)
(0.0617586 0.234787 0)
(0.0884861 0.234327 0)
(0.115479 0.234137 0)
(0.142679 0.23401 0)
(0.17005 0.233766 0)
(0.197538 0.234009 0)
(0.224936 0.233122 0)
(0.252147 0.23431 0)
(0.278876 0.232836 0)
(0.305125 0.234522 0)
(0.33065 0.233146 0)
(0.355082 0.236012 0)
(0.378931 0.233092 0)
(0.400641 0.238967 0)
(0.422385 0.233301 0)
(0.43878 0.242308 0)
(0.456796 0.235201 0)
(0.430863 0.271043 0)
(0.681729 0.274616 0)
(-0.641178 0.361166 0)
(-0.513296 0.386274 0)
(-0.437742 0.415769 0)
(-0.389524 0.383682 0)
(-0.33937 0.389859 0)
(-0.302883 0.361444 0)
(-0.265599 0.351268 0)
(-0.235653 0.334226 0)
(-0.20961 0.321365 0)
(-0.191829 0.306597 0)
(-0.179046 0.29352 0)
(-0.167174 0.283115 0)
(-0.152467 0.276189 0)
(-0.134472 0.271681 0)
(-0.113686 0.268974 0)
(-0.091097 0.267095 0)
(-0.0672719 0.265617 0)
(-0.0425615 0.264431 0)
(-0.0171842 0.263675 0)
(0.0086874 0.263841 0)
(0.0349136 0.263283 0)
(0.0615447 0.262042 0)
(0.0885657 0.261521 0)
(0.11583 0.261317 0)
(0.143279 0.261198 0)
(0.17087 0.260907 0)
(0.198601 0.261204 0)
(0.226153 0.260274 0)
(0.253584 0.261597 0)
(0.280548 0.260107 0)
(0.307046 0.261862 0)
(0.332858 0.260598 0)
(0.357505 0.263555 0)
(0.381593 0.260825 0)
(0.403376 0.266701 0)
(0.425336 0.261354 0)
(0.441693 0.269778 0)
(0.460306 0.26392 0)
(0.431513 0.302731 0)
(0.67787 0.308343 0)
(-0.63717 0.382685 0)
(-0.515139 0.396736 0)
(-0.443616 0.425898 0)
(-0.397282 0.397535 0)
(-0.349181 0.406626 0)
(-0.313133 0.38087 0)
(-0.276893 0.37352 0)
(-0.247268 0.357994 0)
(-0.221748 0.345625 0)
(-0.203528 0.331314 0)
(-0.188332 0.319095 0)
(-0.173289 0.309504 0)
(-0.155934 0.303111 0)
(-0.136232 0.298678 0)
(-0.114502 0.295898 0)
(-0.0914178 0.293862 0)
(-0.0673759 0.292272 0)
(-0.0426381 0.290967 0)
(-0.0173281 0.290147 0)
(0.00841209 0.290351 0)
(0.0344554 0.289741 0)
(0.0608783 0.288366 0)
(0.0877005 0.287798 0)
(0.114778 0.287609 0)
(0.14206 0.287536 0)
(0.169519 0.287231 0)
(0.197149 0.287632 0)
(0.224627 0.286709 0)
(0.252091 0.288218 0)
(0.279157 0.286801 0)
(0.305818 0.28866 0)
(0.331869 0.287606 0)
(0.356723 0.290672 0)
(0.381029 0.288265 0)
(0.40286 0.29413 0)
(0.424894 0.289247 0)
(0.441134 0.296963 0)
(0.459915 0.292536 0)
(0.429189 0.333714 0)
(0.669103 0.337769 0)
(-0.642483 0.408088 0)
(-0.51794 0.411117 0)
(-0.449098 0.43896 0)
(-0.404906 0.414233 0)
(-0.35911 0.424058 0)
(-0.324196 0.399933 0)
(-0.289186 0.394361 0)
(-0.260777 0.379234 0)
(-0.235977 0.367326 0)
(-0.217162 0.353781 0)
(-0.199608 0.342924 0)
(-0.181788 0.33439 0)
(-0.162118 0.32861 0)
(-0.140717 0.32498 0)
(-0.118118 0.321945 0)
(-0.0943576 0.319814 0)
(-0.0697975 0.3181 0)
(-0.0445699 0.316689 0)
(-0.0187713 0.315821 0)
(0.00745257 0.316078 0)
(0.0339592 0.315425 0)
(0.0608182 0.313921 0)
(0.0880462 0.313313 0)
(0.11547 0.313148 0)
(0.143027 0.313129 0)
(0.170708 0.312801 0)
(0.198484 0.313336 0)
(0.226062 0.312401 0)
(0.253651 0.314097 0)
(0.280843 0.312786 0)
(0.307638 0.31475 0)
(0.333854 0.313948 0)
(0.358823 0.31712 0)
(0.383228 0.315142 0)
(0.404996 0.321007 0)
(0.427047 0.316711 0)
(0.443111 0.323892 0)
(0.462165 0.320838 0)
(0.429216 0.364556 0)
(0.664256 0.372128 0)
(-0.63495 0.434763 0)
(-0.518576 0.428281 0)
(-0.451703 0.455287 0)
(-0.409335 0.433565 0)
(-0.366098 0.443175 0)
(-0.332704 0.419965 0)
(-0.298995 0.415362 0)
(-0.271912 0.400343 0)
(-0.247174 0.389208 0)
(-0.226816 0.376703 0)
(-0.206887 0.36692 0)
(-0.18669 0.359022 0)
(-0.164991 0.35406 0)
(-0.142541 0.350017 0)
(-0.119053 0.347058 0)
(-0.0948954 0.344748 0)
(-0.0701492 0.342851 0)
(-0.0448958 0.34126 0)
(-0.0191857 0.340282 0)
(0.00686807 0.340554 0)
(0.0331523 0.339844 0)
(0.0597834 0.338225 0)
(0.0868249 0.337616 0)
(0.114106 0.337546 0)
(0.141563 0.337649 0)
(0.169216 0.337371 0)
(0.196944 0.338143 0)
(0.224614 0.337228 0)
(0.252371 0.339178 0)
(0.279804 0.338051 0)
(0.306902 0.340153 0)
(0.333487 0.339653 0)
(0.35883 0.342914 0)
(0.383572 0.341427 0)
(0.405575 0.347213 0)
(0.427818 0.343562 0)
(0.444004 0.350213 0)
(0.463397 0.34849 0)
(0.428584 0.39412 0)
(0.65417 0.40002 0)
(-0.637847 0.46455 0)
(-0.520586 0.447293 0)
(-0.454697 0.472377 0)
(-0.414849 0.452313 0)
(-0.374192 0.461146 0)
(-0.342593 0.438391 0)
(-0.310305 0.434117 0)
(-0.284658 0.419036 0)
(-0.260015 0.408804 0)
(-0.238704 0.397243 0)
(-0.216658 0.388768 0)
(-0.19435 0.382529 0)
(-0.171535 0.377651 0)
(-0.147888 0.373869 0)
(-0.123631 0.370901 0)
(-0.0987793 0.368562 0)
(-0.0733637 0.366602 0)
(-0.0473959 0.364931 0)
(-0.0209054 0.363921 0)
(0.00597034 0.36426 0)
(0.0330676 0.363521 0)
(0.0604418 0.361789 0)
(0.0881163 0.36115 0)
(0.115889 0.361117 0)
(0.143693 0.361263 0)
(0.171603 0.36092 0)
(0.199483 0.361887 0)
(0.227272 0.360879 0)
(0.255135 0.363008 0)
(0.282664 0.362016 0)
(0.309855 0.364195 0)
(0.336526 0.363959 0)
(0.361907 0.367228 0)
(0.386562 0.366276 0)
(0.408253 0.371958 0)
(0.430133 0.369046 0)
(0.445734 0.375354 0)
(0.464615 0.375019 0)
(0.428055 0.423011 0)
(0.648997 0.434253 0)
(-0.627498 0.489626 0)
(-0.520659 0.465962 0)
(-0.455028 0.490002 0)
(-0.417763 0.470945 0)
(-0.380083 0.478792 0)
(-0.35054 0.456541 0)
(-0.319458 0.452473 0)
(-0.294091 0.437734 0)
(-0.268065 0.428672 0)
(-0.24428 0.418708 0)
(-0.220257 0.411694 0)
(-0.196529 0.40545 0)
(-0.172202 0.400887 0)
(-0.147648 0.397072 0)
(-0.122785 0.394011 0)
(-0.097668 0.391495 0)
(-0.0722779 0.389335 0)
(-0.0466247 0.387452 0)
(-0.0207173 0.386299 0)
(0.00537018 0.386637 0)
(0.0315877 0.385845 0)
(0.0581617 0.384033 0)
(0.0852462 0.38345 0)
(0.112646 0.38358 0)
(0.140254 0.383889 0)
(0.168147 0.383607 0)
(0.19604 0.384906 0)
(0.224055 0.383859 0)
(0.252236 0.386236 0)
(0.280165 0.385431 0)
(0.307856 0.387697 0)
(0.335089 0.387694 0)
(0.361084 0.390868 0)
(0.386229 0.390389 0)
(0.408325 0.395787 0)
(0.430515 0.393459 0)
(0.446594 0.399323 0)
(0.466087 0.399735 0)
(0.428852 0.448761 0)
(0.639492 0.459578 0)
(-0.624945 0.513088 0)
(-0.524427 0.482534 0)
(-0.459886 0.505016 0)
(-0.42515 0.486073 0)
(-0.389635 0.491709 0)
(-0.361273 0.4706 0)
(-0.331466 0.46651 0)
(-0.306346 0.452887 0)
(-0.280002 0.445673 0)
(-0.255624 0.436824 0)
(-0.23079 0.430773 0)
(-0.206031 0.42523 0)
(-0.180908 0.421127 0)
(-0.155686 0.4176 0)
(-0.13021 0.414761 0)
(-0.104445 0.412423 0)
(-0.0782621 0.410413 0)
(-0.0515353 0.408642 0)
(-0.0241415 0.407607 0)
(0.00383178 0.408097 0)
(0.0321033 0.407292 0)
(0.0604972 0.405316 0)
(0.088928 0.404582 0)
(0.117201 0.404614 0)
(0.145312 0.404838 0)
(0.173483 0.404356 0)
(0.201491 0.405847 0)
(0.229542 0.404499 0)
(0.257735 0.406942 0)
(0.28563 0.406186 0)
(0.313299 0.408417 0)
(0.340463 0.408546 0)
(0.366412 0.411445 0)
(0.391327 0.411415 0)
(0.413133 0.416386 0)
(0.434961 0.414538 0)
(0.450755 0.41987 0)
(0.469682 0.421026 0)
(0.43127 0.471281 0)
(0.635457 0.484836 0)
(-0.621764 0.530462 0)
(-0.52439 0.496639 0)
(-0.460727 0.518366 0)
(-0.428184 0.499117 0)
(-0.393755 0.504268 0)
(-0.366214 0.485031 0)
(-0.336533 0.481895 0)
(-0.310686 0.469303 0)
(-0.283114 0.463546 0)
(-0.25701 0.455519 0)
(-0.230458 0.450302 0)
(-0.204365 0.445179 0)
(-0.178243 0.44135 0)
(-0.152318 0.437769 0)
(-0.12634 0.434703 0)
(-0.100308 0.431955 0)
(-0.0741617 0.429379 0)
(-0.0479643 0.426957 0)
(-0.0218555 0.42537 0)
(0.00401247 0.425622 0)
(0.0297802 0.424758 0)
(0.0561014 0.422962 0)
(0.0833061 0.422727 0)
(0.111035 0.423423 0)
(0.138974 0.424229 0)
(0.167221 0.424083 0)
(0.195306 0.426146 0)
(0.223673 0.424718 0)
(0.252227 0.427416 0)
(0.280634 0.426793 0)
(0.308967 0.429081 0)
(0.336854 0.429299 0)
(0.363647 0.431872 0)
(0.389223 0.432159 0)
(0.411614 0.436593 0)
(0.433748 0.435123 0)
(0.450027 0.44004 0)
(0.469267 0.441189 0)
(0.431493 0.49076 0)
(0.631976 0.503451 0)
(-0.625973 0.535409 0)
(-0.525829 0.502812 0)
(-0.464939 0.523641 0)
(-0.434662 0.504694 0)
(-0.402559 0.50963 0)
(-0.37743 0.491919 0)
(-0.34862 0.489297 0)
(-0.322664 0.477834 0)
(-0.294684 0.473581 0)
(-0.268049 0.466865 0)
(-0.241453 0.462891 0)
(-0.215478 0.458331 0)
(-0.189532 0.455189 0)
(-0.163749 0.451882 0)
(-0.137694 0.449005 0)
(-0.111257 0.446222 0)
(-0.0841466 0.44354 0)
(-0.056235 0.441181 0)
(-0.0275378 0.44009 0)
(0.00163009 0.440972 0)
(0.0310501 0.440072 0)
(0.0606771 0.437649 0)
(0.0903752 0.436958 0)
(0.119648 0.43764 0)
(0.148267 0.438625 0)
(0.176595 0.438335 0)
(0.204347 0.440767 0)
(0.232092 0.438917 0)
(0.259938 0.441697 0)
(0.287684 0.440903 0)
(0.315409 0.443121 0)
(0.342667 0.443338 0)
(0.36904 0.445457 0)
(0.394062 0.446246 0)
(0.415904 0.450238 0)
(0.437456 0.449271 0)
(0.453605 0.454028 0)
(0.472123 0.455524 0)
(0.434159 0.503837 0)
(0.63544 0.513367 0)
(-0.640949 0.534728 0)
(-0.524286 0.508148 0)
(-0.468725 0.531071 0)
(-0.439175 0.513789 0)
(-0.408913 0.519257 0)
(-0.384011 0.503992 0)
(-0.354275 0.502571 0)
(-0.326613 0.492114 0)
(-0.296951 0.4886 0)
(-0.26832 0.48248 0)
(-0.239767 0.479148 0)
(-0.212013 0.474267 0)
(-0.184304 0.471058 0)
(-0.157104 0.467008 0)
(-0.130022 0.463111 0)
(-0.103362 0.458578 0)
(-0.0771166 0.453412 0)
(-0.0511314 0.448292 0)
(-0.0249017 0.444769 0)
(0.00174149 0.444285 0)
(0.0285592 0.443336 0)
(0.0555617 0.442298 0)
(0.08283 0.444139 0)
(0.110446 0.447574 0)
(0.138469 0.450996 0)
(0.167384 0.451876 0)
(0.196178 0.45593 0)
(0.225338 0.454331 0)
(0.254582 0.457904 0)
(0.283791 0.457359 0)
(0.312962 0.459903 0)
(0.341759 0.460216 0)
(0.369662 0.461942 0)
(0.395741 0.463159 0)
(0.418579 0.466311 0)
(0.440201 0.465543 0)
(0.456603 0.469909 0)
(0.475626 0.471343 0)
(0.43981 0.515 0)
(0.649107 0.521099 0)
(-1.08366 0.181954 0)
(-0.521935 0.446116 0)
(-0.51934 0.445524 0)
(-0.499094 0.442124 0)
(-0.471897 0.448118 0)
(-0.445982 0.438994 0)
(-0.414067 0.441166 0)
(-0.383021 0.436891 0)
(-0.350227 0.43734 0)
(-0.317865 0.436473 0)
(-0.285646 0.437501 0)
(-0.253757 0.437071 0)
(-0.222032 0.438387 0)
(-0.190487 0.438861 0)
(-0.158903 0.440053 0)
(-0.12732 0.441036 0)
(-0.095731 0.442155 0)
(-0.0646079 0.442858 0)
(-0.0334403 0.443417 0)
(-0.00215573 0.445037 0)
(0.0289938 0.443964 0)
(0.0614399 0.440123 0)
(0.0945975 0.438526 0)
(0.127598 0.435973 0)
(0.161237 0.434574 0)
(0.194279 0.431046 0)
(0.227704 0.431337 0)
(0.260324 0.426695 0)
(0.293356 0.426677 0)
(0.325581 0.423398 0)
(0.358076 0.422886 0)
(0.38942 0.420972 0)
(0.420137 0.420247 0)
(0.447956 0.42028 0)
(0.472563 0.421862 0)
(0.493557 0.421492 0)
(0.508182 0.424868 0)
(0.524536 0.428106 0)
(0.472817 0.459639 0)
(1.05343 0.195191 0)
(-1.02226 1.0294 0)
(-0.231971 1.05599 0)
(-0.50398 0.717793 0)
(-0.494422 0.707758 0)
(-0.47134 0.712643 0)
(-0.446961 0.711718 0)
(-0.415493 0.717003 0)
(-0.383841 0.719345 0)
(-0.350215 0.719876 0)
(-0.318573 0.723169 0)
(-0.286471 0.72374 0)
(-0.254919 0.723038 0)
(-0.223921 0.723829 0)
(-0.192841 0.721795 0)
(-0.161816 0.720989 0)
(-0.130826 0.718816 0)
(-0.0995078 0.717924 0)
(-0.0683829 0.716621 0)
(-0.0368444 0.714713 0)
(-0.00467854 0.714513 0)
(0.0278636 0.713375 0)
(0.0602961 0.70613 0)
(0.0954884 0.706323 0)
(0.128051 0.698322 0)
(0.163204 0.696427 0)
(0.19469 0.689014 0)
(0.22998 0.687488 0)
(0.26091 0.678622 0)
(0.296021 0.674933 0)
(0.326598 0.665788 0)
(0.362367 0.660551 0)
(0.391823 0.649838 0)
(0.428088 0.643666 0)
(0.455184 0.632867 0)
(0.483215 0.627127 0)
(0.503201 0.621243 0)
(0.512919 0.624412 0)
(0.525619 0.635379 0)
(0.206558 1.03929 0)
(1.01023 1.01482 0)
(-1.02226 -1.0294 0)
(-0.231971 -1.05599 0)
(-0.50398 -0.717793 0)
(-0.494422 -0.707758 0)
(-0.47134 -0.712643 0)
(-0.446961 -0.711718 0)
(-0.415493 -0.717003 0)
(-0.383841 -0.719345 0)
(-0.350215 -0.719876 0)
(-0.318573 -0.723169 0)
(-0.286471 -0.72374 0)
(-0.254919 -0.723038 0)
(-0.223921 -0.723829 0)
(-0.192841 -0.721795 0)
(-0.161816 -0.720989 0)
(-0.130826 -0.718816 0)
(-0.0995078 -0.717924 0)
(-0.0683829 -0.716621 0)
(-0.0368444 -0.714713 0)
(-0.00467854 -0.714513 0)
(0.0278636 -0.713375 0)
(0.0602961 -0.70613 0)
(0.0954884 -0.706323 0)
(0.128051 -0.698322 0)
(0.163204 -0.696427 0)
(0.19469 -0.689014 0)
(0.22998 -0.687488 0)
(0.26091 -0.678622 0)
(0.296021 -0.674933 0)
(0.326598 -0.665788 0)
(0.362367 -0.660551 0)
(0.391823 -0.649838 0)
(0.428088 -0.643666 0)
(0.455184 -0.632867 0)
(0.483215 -0.627127 0)
(0.503201 -0.621243 0)
(0.512919 -0.624412 0)
(0.525619 -0.635379 0)
(0.206558 -1.03929 0)
(1.01023 -1.01482 0)
(-1.08366 -0.181954 0)
(-0.521935 -0.446116 0)
(-0.51934 -0.445524 0)
(-0.499094 -0.442124 0)
(-0.471897 -0.448118 0)
(-0.445982 -0.438994 0)
(-0.414067 -0.441166 0)
(-0.383021 -0.436891 0)
(-0.350227 -0.43734 0)
(-0.317865 -0.436473 0)
(-0.285646 -0.437501 0)
(-0.253757 -0.437071 0)
(-0.222032 -0.438387 0)
(-0.190487 -0.438861 0)
(-0.158903 -0.440053 0)
(-0.12732 -0.441036 0)
(-0.095731 -0.442155 0)
(-0.0646079 -0.442858 0)
(-0.0334403 -0.443417 0)
(-0.00215573 -0.445037 0)
(0.0289938 -0.443964 0)
(0.0614399 -0.440123 0)
(0.0945975 -0.438526 0)
(0.127598 -0.435973 0)
(0.161237 -0.434574 0)
(0.194279 -0.431046 0)
(0.227704 -0.431337 0)
(0.260324 -0.426695 0)
(0.293356 -0.426677 0)
(0.325581 -0.423398 0)
(0.358076 -0.422886 0)
(0.38942 -0.420972 0)
(0.420137 -0.420247 0)
(0.447956 -0.42028 0)
(0.472563 -0.421862 0)
(0.493557 -0.421492 0)
(0.508182 -0.424868 0)
(0.524536 -0.428106 0)
(0.472817 -0.459639 0)
(1.05343 -0.195191 0)
(-0.640949 -0.534728 0)
(-0.524286 -0.508148 0)
(-0.468725 -0.531071 0)
(-0.439175 -0.513789 0)
(-0.408913 -0.519257 0)
(-0.384011 -0.503992 0)
(-0.354275 -0.502571 0)
(-0.326613 -0.492114 0)
(-0.296951 -0.4886 0)
(-0.26832 -0.48248 0)
(-0.239767 -0.479148 0)
(-0.212013 -0.474267 0)
(-0.184304 -0.471058 0)
(-0.157104 -0.467008 0)
(-0.130022 -0.463111 0)
(-0.103362 -0.458578 0)
(-0.0771166 -0.453412 0)
(-0.0511314 -0.448292 0)
(-0.0249017 -0.444769 0)
(0.00174149 -0.444285 0)
(0.0285592 -0.443336 0)
(0.0555617 -0.442298 0)
(0.08283 -0.444139 0)
(0.110446 -0.447574 0)
(0.138469 -0.450996 0)
(0.167384 -0.451876 0)
(0.196178 -0.45593 0)
(0.225338 -0.454331 0)
(0.254582 -0.457904 0)
(0.283791 -0.457359 0)
(0.312962 -0.459903 0)
(0.341759 -0.460216 0)
(0.369662 -0.461942 0)
(0.395741 -0.463159 0)
(0.418579 -0.466311 0)
(0.440201 -0.465543 0)
(0.456603 -0.469909 0)
(0.475626 -0.471343 0)
(0.43981 -0.515 0)
(0.649107 -0.521099 0)
(-0.625973 -0.535409 0)
(-0.525829 -0.502812 0)
(-0.464939 -0.523641 0)
(-0.434662 -0.504694 0)
(-0.402559 -0.50963 0)
(-0.37743 -0.491919 0)
(-0.34862 -0.489297 0)
(-0.322664 -0.477834 0)
(-0.294684 -0.473581 0)
(-0.268049 -0.466865 0)
(-0.241453 -0.462891 0)
(-0.215478 -0.458331 0)
(-0.189532 -0.455189 0)
(-0.163749 -0.451882 0)
(-0.137694 -0.449005 0)
(-0.111257 -0.446222 0)
(-0.0841466 -0.44354 0)
(-0.056235 -0.441181 0)
(-0.0275378 -0.44009 0)
(0.00163009 -0.440972 0)
(0.0310501 -0.440072 0)
(0.0606771 -0.437649 0)
(0.0903752 -0.436958 0)
(0.119648 -0.43764 0)
(0.148267 -0.438625 0)
(0.176595 -0.438335 0)
(0.204347 -0.440767 0)
(0.232092 -0.438917 0)
(0.259938 -0.441697 0)
(0.287684 -0.440903 0)
(0.315409 -0.443121 0)
(0.342667 -0.443338 0)
(0.36904 -0.445457 0)
(0.394062 -0.446246 0)
(0.415904 -0.450238 0)
(0.437456 -0.449271 0)
(0.453605 -0.454028 0)
(0.472123 -0.455524 0)
(0.434159 -0.503837 0)