/*--------------------------------*- C++ -*----------------------------------*\
| =========                 |                                                 |
| \\      /  F ield         | OpenFOAM: The Open Source CFD Toolbox           |
|  \\    /   O peration     | Version:  v1912                                 |
|   \\  /    A nd           | Website:  www.openfoam.com                      |
|    \\/     M anipulation  |                                                 |
\*---------------------------------------------------------------------------*/
FoamFile
{
    version     2.0;
    format      ascii;
    class       volVectorField;
    location    "3.74";
    object      grad(rho);
}
// * * * * * * * * * * * * * * * * * * * * * * * * * * * * * * * * * * * * * //

dimensions      [1 -4 0 0 0 0 0];


internalField   nonuniform List<vector> 
1900
(
(107101 -0.866692 0)
(-78889.2 -1.60703 0)
(-10496 1.71767 0)
(-1365.46 3.98876 0)
(-873.976 7.30444 0)
(-1076.8 10.8573 0)
(-1286.17 4.39712 0)
(-1454.28 -44.4349 0)
(-1448.16 -227.998 0)
(-2046.98 -473.687 0)
(107099 -1.32719 0)
(-78886.7 -2.23859 0)
(-10490.4 3.13059 0)
(-1359.87 5.52546 0)
(-867.107 3.45327 0)
(-1079.71 1.07794 0)
(-1341.46 -10.6804 0)
(-1686.68 -63.3449 0)
(-1877.41 -212.967 0)
(-2140.03 -363.939 0)
(107098 -6.14619e-09 0)
(-78884.8 -6.35936e-09 0)
(-10488.2 4.35207e-09 0)
(-1365.13 1.79412e-09 0)
(-878.423 -6.03961e-10 0)
(-1090.94 -1.33227e-09 0)
(-1350.59 -7.81597e-10 0)
(-1656.57 -1.45661e-09 0)
(-1748.75 2.14939e-09 0)
(-2091.68 1.33227e-09 0)
(107099 1.32719 0)
(-78886.7 2.23859 0)
(-10490.4 -3.13059 0)
(-1359.87 -5.52546 0)
(-867.107 -3.45327 0)
(-1079.71 -1.07794 0)
(-1341.46 10.6804 0)
(-1686.68 63.3449 0)
(-1877.41 212.967 0)
(-2140.03 363.939 0)
(107101 0.866692 0)
(-78889.2 1.60703 0)
(-10496 -1.71767 0)
(-1365.46 -3.98876 0)
(-873.976 -7.30444 0)
(-1076.8 -10.8573 0)
(-1286.17 -4.39712 0)
(-1454.28 44.4349 0)
(-1448.16 227.998 0)
(-2046.98 473.687 0)
(-1524.96 -383.591 1.45061e-11)
(127.281 -594.397 -1.74318e-11)
(950.648 -1067.16 -2.20779e-11)
(-5181.03 -927.774 0)
(-5500.63 5687.91 -9.00803e-11)
(-1529.69 -304.183 1.44368e-11)
(-350.521 -525.615 1.74318e-11)
(932.016 -844.603 2.20779e-11)
(-1830.46 -724.522 0)
(-3577.19 4692.08 0)
(-1775.29 1.28722e-09 0)
(-508.482 7.01193e-10 0)
(555.758 -4.93432e-09 0)
(-2852.94 -3.4316e-09 0)
(-1618.76 -7.93016e-09 0)
(-1529.69 304.183 1.44368e-11)
(-350.521 525.615 1.74318e-11)
(932.016 844.603 2.20779e-11)
(-1830.46 724.522 0)
(-3577.19 -4692.08 0)
(-1524.96 383.591 -4.33798e-11)
(127.281 594.397 -1.74318e-11)
(950.648 1067.16 -2.20779e-11)
(-5181.03 927.774 -6.06737e-11)
(-5500.63 -5687.91 9.00803e-11)
(902.292 -2688.78 4.08082e-11)
(-5646.27 393.438 -3.27657e-11)
(-3514.68 846.396 0)
(-5418.44 944.105 2.39471e-11)
(-11605 -3267.18 -1.02297e-11)
(-862.464 -2680.95 -2.03636e-11)
(-4736.37 449.656 1.63888e-11)
(-3274.75 895.14 0)
(-7171.59 13.6433 -1.49848e-11)
(-13840.5 -5398.21 2.49218e-12)
(-336.14 -9.95836e-09 0)
(-4747.75 -4.40294e-09 0)
(-3714.15 1.07239e-08 0)
(-8178.29 -2.03178e-09 5.99409e-12)
(-14511.3 -7.27164e-09 -4.98435e-12)
(-862.464 2680.95 -2.03636e-11)
(-4736.37 -449.656 1.63888e-11)
(-3274.75 -895.14 0)
(-7171.59 -13.6433 -1.49848e-11)
(-13840.5 5398.21 2.49218e-12)
(902.292 2688.78 2.03636e-11)
(-5646.27 -393.438 -1.18491e-14)
(-3514.68 -846.396 0)
(-5418.44 -944.105 2.84334e-14)
(-11605 3267.18 1.02297e-11)
(-26076.3 -28877.2 0)
(-17788.9 2951.97 0)
(1256.53 3107.81 0)
(215.27 2053.5 0)
(-1633.56 1150.86 0)
(-1965.6 571.243 0)
(-1637.31 266.711 0)
(-716.684 78.1625 0)
(-243.838 88.4771 0)
(-240.692 49.2115 0)
(-196.702 39.5202 0)
(-197.376 28.8788 0)
(-184.786 23.1454 0)
(-171.277 20.1375 0)
(-149.202 18.4798 0)
(-122.3 17.3372 0)
(-96.9581 16.3362 0)
(-75.7941 15.4429 0)
(-63.2746 14.7089 0)
(-57.7555 14.2135 0)
(-57.3895 13.8237 0)
(-66.605 13.5728 0)
(-75.9832 13.4795 0)
(-86.1715 13.4109 0)
(-103.257 13.4443 0)
(-127.034 13.6072 0)
(-161.708 13.957 0)
(-211.917 14.5308 0)
(-283.284 15.3871 0)
(-380.368 16.2198 0)
(-493.566 17.0214 0)
(-602.983 17.0036 0)
(-652.898 15.6372 0)
(-631.009 18.2168 0)
(-527.142 15.856 0)
(-438.457 25.4119 0)
(-327.908 17.3798 0)
(3386.29 41.8434 0)
(105432 -112.291 0)
(-121328 -7445.02 0)
(-25036.3 -7381.01 0)
(-16071.3 5382.61 0)
(1224.8 3169.38 0)
(-70.6525 1199.89 0)
(-1772.69 651.421 0)
(-2066.26 288.6 0)
(-1687.07 106.918 0)
(-729.989 34.3198 0)
(-245.634 39.0691 0)
(-245.631 19.0264 0)
(-198.164 14.3249 0)
(-198.547 9.7761 0)
(-185.347 7.36814 0)
(-171.508 6.22573 0)
(-149.293 5.70984 0)
(-122.361 5.43588 0)
(-97.0279 5.20027 0)
(-75.8678 4.97735 0)
(-63.3391 4.78207 0)
(-57.8158 4.63805 0)
(-57.4531 4.48453 0)
(-66.6648 4.34254 0)
(-76.0491 4.22602 0)
(-86.2483 4.08666 0)
(-103.335 3.97322 0)
(-127.105 3.91456 0)
(-161.759 3.97134 0)
(-211.929 4.21769 0)
(-283.266 4.76914 0)
(-380.321 5.62978 0)
(-493.526 6.98761 0)
(-603.035 8.77757 0)
(-652.57 11.1134 0)
(-630.671 16.2533 0)
(-526.015 21.8523 0)
(-437.969 33.7855 0)
(-325.986 40.5177 0)
(3370.82 60.4853 0)
(105356 -36.1208 0)
(-121223 3609.44 0)
(-23161 6.03961e-09 0)
(-14719.7 5.97502e-09 0)
(39.7381 4.74772e-09 0)
(-517.227 6.33029e-09 0)
(-1898.66 1.16594e-08 0)
(-2124.01 -6.65326e-09 0)
(-1711.28 -4.31816e-08 0)
(-736.422 8.15348e-08 0)
(-248.287 2.60931e-07 0)
(-247.89 1.03513e-08 0)
(-199.393 -7.97584e-08 0)
(-199.4 -8.03398e-08 0)
(-185.819 -2.89385e-08 0)
(-171.759 3.7901e-08 0)
(-149.432 8.27944e-08 0)
(-122.448 8.01783e-08 0)
(-97.0914 5.36944e-08 0)
(-75.9157 -3.43806e-08 0)
(-63.3733 -1.20663e-07 0)
(-57.842 -1.21099e-07 0)
(-57.4754 -1.9217e-08 0)
(-66.6802 1.04934e-07 0)
(-76.0577 9.30488e-08 0)
(-86.2451 7.71262e-08 0)
(-103.307 1.30498e-07 0)
(-127.034 1.41204e-07 0)
(-161.62 8.16801e-08 0)
(-211.685 3.58824e-08 0)
(-282.873 4.65405e-08 0)
(-379.723 1.19177e-07 0)
(-492.65 1.34066e-07 0)
(-601.783 8.69284e-08 0)
(-650.723 -4.7671e-08 0)
(-627.885 -1.9049e-07 0)
(-522.042 1.71967e-07 0)
(-433.027 -1.05516e-07 0)
(-320.141 1.01333e-07 0)
(3364 1.48972e-07 0)
(106465 -1.8877e-06 0)
(-122423 -4.16766e-06 0)
(-25036.3 7381.01 0)
(-16071.3 -5382.61 0)
(1224.8 -3169.38 0)
(-70.6525 -1199.89 0)
(-1772.69 -651.421 0)
(-2066.26 -288.6 0)
(-1687.07 -106.918 0)
(-729.989 -34.3198 0)
(-245.634 -39.0691 0)
(-245.631 -19.0264 0)
(-198.164 -14.3249 0)
(-198.547 -9.7761 0)
(-185.347 -7.36814 0)
(-171.508 -6.22573 0)
(-149.293 -5.70984 0)
(-122.361 -5.43588 0)
(-97.0279 -5.20027 0)
(-75.8678 -4.97735 0)
(-63.3391 -4.78207 0)
(-57.8158 -4.63805 0)
(-57.4531 -4.48453 0)
(-66.6648 -4.34254 0)
(-76.0491 -4.22602 0)
(-86.2483 -4.08666 0)
(-103.335 -3.97322 0)
(-127.105 -3.91456 0)
(-161.759 -3.97134 0)
(-211.929 -4.21769 0)
(-283.266 -4.76914 0)
(-380.321 -5.62978 0)
(-493.526 -6.98761 0)
(-603.035 -8.77757 0)
(-652.57 -11.1134 0)
(-630.671 -16.2533 0)
(-526.015 -21.8523 0)
(-437.969 -33.7855 0)
(-325.986 -40.5177 0)
(3370.82 -60.4853 0)
(105356 36.1208 0)
(-121223 -3609.44 0)
(-26076.3 28877.2 0)
(-17788.9 -2951.97 0)
(1256.53 -3107.81 0)
(215.27 -2053.5 0)
(-1633.56 -1150.86 0)
(-1965.6 -571.243 0)
(-1637.31 -266.711 0)
(-716.684 -78.1625 0)
(-243.838 -88.4771 0)
(-240.692 -49.2115 0)
(-196.702 -39.5202 0)
(-197.376 -28.8788 0)
(-184.786 -23.1454 0)
(-171.277 -20.1375 0)
(-149.202 -18.4798 0)
(-122.3 -17.3372 0)
(-96.9581 -16.3362 0)
(-75.7941 -15.4429 0)
(-63.2746 -14.7089 0)
(-57.7555 -14.2135 0)
(-57.3895 -13.8237 0)
(-66.605 -13.5728 0)
(-75.9832 -13.4795 0)
(-86.1715 -13.4109 0)
(-103.257 -13.4443 0)
(-127.034 -13.6072 0)
(-161.708 -13.957 0)
(-211.917 -14.5308 0)
(-283.284 -15.3871 0)
(-380.368 -16.2198 0)
(-493.566 -17.0214 0)
(-602.983 -17.0036 0)
(-652.898 -15.6372 0)
(-631.009 -18.2168 0)
(-527.142 -15.856 0)
(-438.457 -25.4119 0)
(-327.908 -17.3798 0)
(3386.29 -41.8434 0)
(105432 112.291 0)
(-121328 7445.02 0)
(59523.6 41496.5 0)
(-34148.6 -4654.49 0)
(1751.7 -3088.15 0)
(826.291 -2819.57 0)
(-1003.78 -1723.61 0)
(-1628.05 -1024.04 0)
(-1435.32 -500.727 0)
(-633.573 -167.257 0)
(-229.549 -153.506 0)
(-220.633 -101.533 0)
(-187.101 -78.7674 0)
(-189.63 -57.7032 0)
(-180.512 -46.8258 0)
(-168.848 -40.9557 0)
(-147.642 -37.4765 0)
(-121.087 -34.9211 0)
(-95.9204 -32.718 0)
(-74.9324 -30.7987 0)
(-62.6425 -29.2409 0)
(-57.3302 -28.2052 0)
(-57.1247 -27.4593 0)
(-66.5181 -27.0373 0)
(-76.0236 -26.967 0)
(-86.3148 -27.0018 0)
(-103.549 -27.2932 0)
(-127.51 -27.8789 0)
(-162.397 -28.869 0)
(-212.839 -30.3586 0)
(-284.304 -32.3499 0)
(-381.291 -34.4438 0)
(-493.971 -36.2605 0)
(-602.228 -37.2681 0)
(-652.953 -34.724 0)
(-630.417 -38.6574 0)
(-529.225 -36.6542 0)
(-438.362 -49.0423 0)
(-334.069 -43.4437 0)
(3434.27 -72.609 0)
(109964 -150.28 0)
(-126189 1942.23 0)
(70113.5 26069.3 0)
(-51979.7 -3505.78 0)
(2759.19 -2449.78 0)
(1202.55 -2460.4 0)
(-241.021 -1888.57 0)
(-968.201 -1318.47 0)
(-919.998 -681.548 0)
(-426.656 -284.088 0)
(-188.167 -226.37 0)
(-179.427 -158.392 0)
(-159.614 -119.626 0)
(-170.75 -88.745 0)
(-170.939 -73.725 0)
(-163.569 -65.1349 0)
(-144.224 -59.7552 0)
(-118.365 -55.7184 0)
(-93.542 -52.2885 0)
(-72.9055 -49.3021 0)
(-61.1144 -46.8797 0)
(-56.2666 -45.2846 0)
(-56.406 -44.1266 0)
(-66.1773 -43.4401 0)
(-75.9274 -43.2816 0)
(-86.4089 -43.2702 0)
(-103.945 -43.6076 0)
(-128.297 -44.4564 0)
(-163.728 -45.8724 0)
(-214.778 -48.0327 0)
(-286.673 -51.1108 0)
(-383.642 -54.5904 0)
(-496.07 -57.2198 0)
(-601.908 -59.7274 0)
(-654.208 -56.5691 0)
(-633.186 -63.0497 0)
(-536.032 -64.9419 0)
(-445.05 -80.1024 0)
(-347.314 -82.5831 0)
(3257.61 -106.294 0)
(104944 -558.009 0)
(-120646 -7178.04 0)
(76992.8 18158.7 0)
(-61630.7 -1281.76 0)
(2759.07 -1745.01 0)
(1367.1 -1946.96 0)
(96.6261 -1699.71 0)
(-464.922 -1275.44 0)
(-438.549 -742.781 0)
(-194.946 -403.957 0)
(-108.423 -314.572 0)
(-117.771 -213.754 0)
(-119.986 -163.331 0)
(-145.398 -127.069 0)
(-157.76 -107.642 0)
(-155.386 -95.5615 0)
(-138.568 -87.4597 0)
(-113.891 -81.3635 0)
(-89.7373 -76.2025 0)
(-69.7203 -71.8312 0)
(-58.7711 -68.3261 0)
(-54.6773 -66.0853 0)
(-55.3473 -64.4918 0)
(-65.7038 -63.5612 0)
(-75.8599 -63.4169 0)
(-86.629 -63.453 0)
(-104.692 -64.1007 0)
(-129.692 -65.3268 0)
(-165.843 -67.5838 0)
(-217.887 -70.8258 0)
(-290.623 -75.0963 0)
(-387.177 -80.1881 0)
(-498.922 -83.8278 0)
(-601.601 -88.0007 0)
(-656.154 -84.3993 0)
(-638.485 -93.7235 0)
(-545.658 -100.45 0)
(-455.362 -118.401 0)
(-359.309 -125.589 0)
(2976.13 -140.784 0)
(103150 -726.803 0)
(-118478 -4662.86 0)
(85980.3 6634.82 0)
(-71159.7 -538.042 0)
(2118.18 -1236.68 0)
(1246.2 -1634.53 0)
(406.083 -1476.17 0)
(-46.0693 -1111.98 0)
(-80.2091 -728.831 0)
(-14.0189 -480.457 0)
(-4.88018 -370.73 0)
(-33.6852 -260.735 0)
(-76.0813 -204.46 0)
(-117.086 -166.277 0)
(-140.578 -142.348 0)
(-144.121 -126.775 0)
(-130.542 -115.942 0)
(-107.517 -107.453 0)
(-84.3564 -100.432 0)
(-65.3156 -94.5656 0)
(-55.5775 -89.942 0)
(-52.5717 -87.068 0)
(-53.9737 -85.0901 0)
(-65.1416 -83.9727 0)
(-75.8231 -83.8986 0)
(-87.0679 -84.1137 0)
(-105.751 -85.0477 0)
(-131.653 -87.1052 0)
(-169.027 -90.0356 0)
(-222.017 -94.4003 0)
(-295.695 -100.844 0)
(-392.056 -107.356 0)
(-503.598 -111.454 0)
(-602.459 -117.981 0)
(-659.722 -117.468 0)
(-648.653 -129.855 0)
(-559.812 -142.829 0)
(-469.275 -162.661 0)
(-368.883 -171.451 0)
(2678.26 -179.107 0)
(100586 -917.771 0)
(-115439 -6065.21 0)
(82970 -3139.68 0)
(-69215.9 -553.973 0)
(1702.45 -1111.69 0)
(1136.32 -1322.56 0)
(600.173 -1244.84 0)
(255.241 -972.373 0)
(170.013 -711.988 0)
(150.133 -522.5 0)
(103.309 -399.504 0)
(42.4527 -303.646 0)
(-28.9632 -246.086 0)
(-85.5446 -206.668 0)
(-119.695 -179.621 0)
(-129.94 -161.032 0)
(-119.948 -147.077 0)
(-98.9456 -136.089 0)
(-77.3189 -127.008 0)
(-59.6115 -119.62 0)
(-51.5462 -113.83 0)
(-50.0018 -110.351 0)
(-52.3645 -108.08 0)
(-64.5557 -106.855 0)
(-75.9958 -106.98 0)
(-87.7364 -107.451 0)
(-107.575 -109.038 0)
(-134.499 -111.587 0)
(-172.873 -116.351 0)
(-228.302 -121.742 0)
(-303.108 -130.123 0)
(-397.402 -139.095 0)
(-509.159 -143.629 0)
(-607.396 -153.826 0)
(-667.596 -156.755 0)
(-662.924 -173.721 0)
(-577.272 -192.319 0)
(-482.944 -213.935 0)
(-375.157 -222.373 0)
(2256.95 -228.198 0)
(97477.7 -1237.7 0)
(-111698 -8276.04 0)
(82118.6 -840.997 0)
(-69205.4 -548.621 0)
(1377.54 -1021.89 0)
(1117.89 -1105.51 0)
(743.531 -1044.58 0)
(467.407 -868.851 0)
(353.305 -689.48 0)
(287.102 -546.142 0)
(206.016 -433.655 0)
(114.154 -347.381 0)
(17.37 -291.071 0)
(-53.0373 -251.099 0)
(-96.601 -223.148 0)
(-112.76 -200.361 0)
(-106.506 -183.156 0)
(-88.179 -169.238 0)
(-68.486 -157.906 0)
(-52.6163 -148.963 0)
(-46.6457 -141.92 0)
(-47.0305 -137.853 0)
(-50.605 -135.421 0)
(-64.082 -134.179 0)
(-76.3975 -134.661 0)
(-89.0511 -135.55 0)
(-109.736 -138.05 0)
(-138.7 -141.958 0)
(-178.813 -147.991 0)
(-235.287 -156.438 0)
(-312.417 -166.824 0)
(-405.072 -177.982 0)
(-517.794 -181.027 0)
(-615.107 -197.808 0)
(-678.893 -203.721 0)
(-682.925 -222.306 0)
(-598.564 -239.783 0)
(-498.235 -263.275 0)
(-382.627 -264.223 0)
(1699.85 -264.817 0)
(92830.9 -1482.25 0)
(-106168 -10536.8 0)
(81575.9 -2950.69 0)
(-69390.3 -606.163 0)
(1165.81 -957.181 0)
(1114.46 -1007.09 0)
(828.228 -940.605 0)
(597.425 -826.02 0)
(480.987 -693.362 0)
(396.656 -574.778 0)
(294.843 -475.164 0)
(179.851 -400.121 0)
(63.8173 -344.802 0)
(-20.0906 -304.29 0)
(-70.8016 -275.793 0)
(-91.4035 -249.615 0)
(-89.957 -229.218 0)
(-74.6132 -211.965 0)
(-57.7812 -198.566 0)
(-44.2075 -188.013 0)
(-40.8402 -179.618 0)
(-43.7391 -174.924 0)
(-48.8238 -172.538 0)
(-63.8233 -171.427 0)
(-77.317 -172.375 0)
(-91.0021 -174.107 0)
(-113.75 -177.296 0)
(-144.078 -183.283 0)
(-186.827 -190.786 0)
(-246.451 -202.459 0)
(-323.869 -212.791 0)
(-411.088 -232.762 0)
(-528.264 -234.771 0)
(-629.265 -258.946 0)
(-691.203 -274.684 0)
(-697.675 -298.028 0)
(-616.75 -321.022 0)
(-506.494 -355.377 0)
(-376.643 -362.45 0)
(1083.21 -364.385 0)
(87579.2 -1632.68 0)
(-99936.8 -12088.6 0)
(78506.2 -5774.65 0)
(-67284.4 -646.913 0)
(991.192 -850.787 0)
(1133.86 -903.994 0)
(918.022 -850.476 0)
(705.659 -779.782 0)
(595.411 -684.186 0)
(497.366 -588.277 0)
(374.322 -510.001 0)
(239.776 -451.925 0)
(109.716 -406.876 0)
(13.4618 -373.74 0)
(-43.914 -344.499 0)
(-67.8791 -317.728 0)
(-70.2251 -293.491 0)
(-58.6414 -273.095 0)
(-45.405 -257.267 0)
(-34.3567 -245.221 0)
(-34.0333 -235.33 0)
(-40.208 -229.951 0)
(-47.2344 -227.92 0)
(-63.9255 -227.046 0)
(-78.9805 -228.602 0)
(-93.793 -231.327 0)
(-118.578 -236.315 0)
(-151.7 -243.333 0)
(-197.291 -253.55 0)
(-256.493 -264.402 0)
(-341.618 -275.095 0)
(-426.252 -290.225 0)
(-543.026 -289.438 0)
(-653.569 -313.094 0)
(-716.553 -330.495 0)
(-727.578 -350.224 0)
(-653.828 -381.88 0)
(-538.156 -419.77 0)
(-391.308 -450.58 0)
(475.811 -452.053 0)
(81533.1 -1508.16 0)
(-92709.6 -13425.7 0)
(75061.5 -7070.76 0)
(-64645.4 -679.892 0)
(918.081 -778.018 0)
(1114.76 -856.745 0)
(947.923 -876.445 0)
(757.668 -838.936 0)
(665.528 -762.298 0)
(564.507 -682.326 0)
(426.237 -609.159 0)
(279.226 -556.234 0)
(139.16 -513.658 0)
(40.0181 -476.469 0)
(-16.8271 -442.057 0)
(-42.2498 -411.317 0)
(-46.9471 -382.367 0)
(-39.7065 -359.375 0)
(-30.9199 -341.35 0)
(-23.0686 -328.723 0)
(-26.1261 -317.547 0)
(-36.5983 -311.599 0)
(-46.0238 -310.272 0)
(-64.4799 -309.543 0)
(-81.4424 -311.731 0)
(-98.4355 -315.246 0)
(-125.319 -322.124 0)
(-160.686 -330.796 0)
(-207.131 -343.465 0)
(-267.211 -359.313 0)
(-348.752 -371.013 0)
(-424.909 -396.286 0)
(-550.303 -402.419 0)
(-668.829 -436.574 0)
(-726.983 -462.871 0)
(-747.191 -482.839 0)
(-683.767 -519.36 0)
(-572.696 -562.21 0)
(-407.752 -604.364 0)
(64.0835 -605.699 0)
(75077.3 -1204.97 0)
(-85243.8 -14295.7 0)
(70731.7 -8526.01 0)
(-61220.5 -769.457 0)
(820.77 -834.344 0)
(1039.01 -913.944 0)
(935.183 -970.707 0)
(815.655 -936.843 0)
(746.326 -855.363 0)
(644.937 -785.967 0)
(495.828 -708.265 0)
(331.803 -657.171 0)
(186.581 -611.509 0)
(82.4591 -575.199 0)
(18.8689 -546.355 0)
(-10.3599 -518.098 0)
(-20.1721 -492.43 0)
(-19.1153 -470.522 0)
(-15.8674 -453.203 0)
(-11.4198 -441.58 0)
(-17.5323 -430.405 0)
(-33.1974 -424.555 0)
(-45.2524 -423.805 0)
(-65.3312 -422.797 0)
(-84.4769 -424.819 0)
(-103.808 -427.857 0)
(-133.563 -432.997 0)
(-172.265 -439.965 0)
(-224.771 -447.99 0)
(-283.039 -462.626 0)
(-377.246 -467.145 0)
(-456.515 -502.636 0)
(-581.849 -526.751 0)
(-711.822 -571.841 0)
(-761.136 -612.221 0)
(-782.013 -641.795 0)
(-730.312 -681.298 0)
(-620.068 -733.848 0)
(-433.216 -775.863 0)
(-102.952 -794.186 0)
(68340.9 -1012.4 0)
(-77421.2 -14708.4 0)
(65783.4 -9522.97 0)
(-57233.5 -827.659 0)
(778.848 -863.684 0)
(983.358 -924.506 0)
(925.856 -990.527 0)
(868.818 -975.205 0)
(810.918 -926.111 0)
(706.255 -888.314 0)
(550.348 -833.946 0)
(372.464 -804.206 0)
(218.151 -756.506 0)
(102.803 -726.235 0)
(38.1978 -686.691 0)
(9.71493 -650.149 0)
(-1.10172 -620.544 0)
(-1.90605 -595.854 0)
(-3.03018 -578.405 0)
(-1.10003 -566.867 0)
(-9.71999 -556.441 0)
(-30.2379 -551.195 0)
(-44.3304 -550.679 0)
(-65.4575 -549.683 0)
(-86.3179 -551.744 0)
(-106.316 -555.661 0)
(-136.986 -561.012 0)
(-175.134 -570.661 0)
(-228.968 -581.043 0)
(-285.67 -599.872 0)
(-387.307 -610.756 0)
(-482.348 -642.256 0)
(-616.991 -672.249 0)
(-751.191 -699.135 0)
(-794.393 -727.595 0)
(-813.756 -747.888 0)
(-772.473 -773.977 0)
(-663.822 -812.978 0)
(-465.896 -842.741 0)
(-163.848 -862.045 0)
(61669 -904.743 0)
(-69715.1 -14568.2 0)
(60436.9 -10004.8 0)
(-52876.1 -862.747 0)
(727.445 -909.915 0)
(916.784 -965.982 0)
(886.327 -1021.12 0)
(877.729 -1021.43 0)
(830.057 -1016.36 0)
(733.75 -1001.94 0)
(576.878 -973.648 0)
(406.427 -948.891 0)
(261.717 -897.974 0)
(149.736 -858.359 0)
(92.188 -803.207 0)
(53.3817 -759.391 0)
(32.1487 -722.808 0)
(21.4914 -696.852 0)
(12.0651 -681.029 0)
(9.74516 -672.229 0)
(-2.42961 -665.367 0)
(-27.6445 -662.284 0)
(-43.7954 -661.448 0)
(-66.3579 -658.942 0)
(-90.2376 -658.436 0)
(-112.739 -659.707 0)
(-148.017 -664.539 0)
(-191.568 -675.444 0)
(-252.92 -692.364 0)
(-311.671 -716.875 0)
(-418.09 -732.38 0)
(-515.772 -770.35 0)
(-636.66 -800.287 0)
(-765.155 -814.134 0)
(-808.116 -829.004 0)
(-826.709 -838.456 0)
(-793.035 -851.275 0)
(-686.332 -873.478 0)
(-480.499 -889.09 0)
(-162.7 -898.755 0)
(55133.1 -894.547 0)
(-62132.3 -14037.6 0)
(55006.5 -10210.2 0)
(-48469.3 -866.39 0)
(679.366 -917.108 0)
(876.199 -979.118 0)
(872.425 -1009.51 0)
(873.408 -1002.54 0)
(829.698 -1023.41 0)
(747.41 -1018.28 0)
(601.47 -1009.27 0)
(445.386 -979.099 0)
(305.391 -928.959 0)
(194.125 -897.019 0)
(133.567 -847.788 0)
(87.1894 -803.639 0)
(59.163 -766.765 0)
(38.3543 -738.443 0)
(20.6977 -719.463 0)
(13.9921 -708.545 0)
(-0.1368 -701.013 0)
(-26.4615 -697.369 0)
(-41.1097 -696.087 0)
(-62.5542 -694.942 0)
(-87.0553 -696.482 0)
(-112.198 -699.302 0)
(-152.151 -706.598 0)
(-201.947 -717.266 0)
(-268.892 -731.085 0)
(-324.231 -752.488 0)
(-438.838 -761.345 0)
(-547.786 -790.27 0)
(-659.183 -816.26 0)
(-778.864 -832.212 0)
(-817.831 -844.845 0)
(-835.217 -854.038 0)
(-806.221 -864.648 0)
(-700.261 -880.156 0)
(-490.254 -890.957 0)
(-169.107 -896.363 0)
(49008 -900.077 0)
(-54973.8 -13429.8 0)
(49475.1 -10144.8 0)
(-43920.9 -857.086 0)
(618.816 -908.733 0)
(827.744 -963.752 0)
(863.753 -992.208 0)
(864.335 -988.22 0)
(814.893 -1008.34 0)
(747.376 -1006.32 0)
(614.634 -1007.73 0)
(483.816 -969.917 0)
(340.812 -914.402 0)
(227.955 -873.063 0)
(182.172 -822.855 0)
(131.459 -777.033 0)
(94.9742 -736.289 0)
(67.0733 -703.713 0)
(40.8757 -679.855 0)
(27.5234 -665.084 0)
(8.33993 -656.472 0)
(-22.8976 -653.246 0)
(-41.4563 -651.189 0)
(-66.7383 -649.793 0)
(-94.4395 -652.946 0)
(-122.486 -659.26 0)
(-165.327 -670.673 0)
(-215.165 -685.403 0)
(-286.862 -700.203 0)
(-340.831 -724.319 0)
(-454.497 -733.85 0)
(-568.69 -763.885 0)
(-677.077 -796.362 0)
(-792.701 -816.931 0)
(-829.148 -832.183 0)
(-845.792 -844.034 0)
(-818.203 -856.099 0)
(-711.684 -871.466 0)
(-496.116 -881.718 0)
(-171.488 -888.342 0)
(43055.4 -892.736 0)
(-47997.8 -12679.6 0)
(44154.3 -10117.7 0)
(-39569.1 -805.284 0)
(576.579 -854.148 0)
(795.758 -919.359 0)
(848.846 -946.081 0)
(857.862 -950.513 0)
(812.254 -954.787 0)
(747.999 -942.75 0)
(636.551 -943.824 0)
(535.32 -891.811 0)
(398.723 -828.184 0)
(282.342 -770.616 0)
(226.106 -704.839 0)
(170.607 -663.437 0)
(129.817 -623.607 0)
(92.737 -592.936 0)
(57.9219 -569.751 0)
(36.5244 -553.742 0)
(11.27 -542.696 0)
(-21.3707 -536.64 0)
(-37.7819 -533.495 0)
(-64.2472 -534.256 0)
(-96.1782 -540.115 0)
(-129.28 -547.724 0)
(-177.343 -559.115 0)
(-230.403 -574.825 0)
(-306.393 -589.367 0)
(-356.654 -616.211 0)
(-476.966 -634.119 0)
(-608.024 -678.792 0)
(-710.3 -724.62 0)
(-813.383 -754.127 0)
(-843.949 -776.193 0)
(-858.264 -791.473 0)
(-832.655 -806.652 0)
(-724.949 -819.223 0)
(-506.517 -833.801 0)
(-179.724 -831.937 0)
(37645.5 -832.426 0)
(-41619.1 -11966.6 0)
(38714 -9102.42 0)
(-34994.2 -622.876 0)
(508.889 -707.732 0)
(739.154 -787.549 0)
(833.732 -814.255 0)
(855.946 -823.36 0)
(822.374 -818.868 0)
(757.94 -806.523 0)
(663.721 -790.879 0)
(595.25 -740.335 0)
(457.6 -676.536 0)
(346.815 -622.544 0)
(285.454 -568.711 0)
(209.737 -537.545 0)
(162.911 -509.102 0)
(118.97 -486.593 0)
(78.6443 -469.007 0)
(53.5949 -455.351 0)
(24.82 -444.412 0)
(-14.0306 -438.038 0)
(-39.1585 -434.981 0)
(-73.1175 -436.226 0)
(-107.418 -443.055 0)
(-140.796 -450.592 0)
(-191.443 -458.647 0)
(-244.317 -469.803 0)
(-326.743 -474.213 0)
(-383.956 -496.119 0)
(-514.802 -509.773 0)
(-655.9 -546.235 0)
(-749.673 -588.902 0)
(-842.399 -618.243 0)
(-865.137 -642.025 0)
(-875.142 -656.706 0)
(-844.944 -670.811 0)
(-737.847 -682.333 0)
(-508.367 -684.141 0)
(-170.163 -658.155 0)
(32325.7 -626.523 0)
(-35431.4 -10219.2 0)
(34703.6 -8823.2 0)
(-31479.7 -247.779 0)
(417.894 -382.17 0)
(693.108 -524.545 0)
(814.338 -584.264 0)
(853.418 -612.399 0)
(828.479 -604.565 0)
(774.97 -592.433 0)
(700.332 -565.589 0)
(645.505 -507.6 0)
(512.231 -477.351 0)
(386.246 -432.925 0)
(308.013 -408.389 0)
(228.049 -397.315 0)
(178.917 -384.126 0)
(131.374 -372.122 0)
(88.0279 -361.259 0)
(60.2247 -345.984 0)
(27.9528 -329.854 0)
(-12.2826 -320.534 0)
(-36.0355 -318.794 0)
(-72.0275 -324.225 0)
(-110.022 -335.689 0)
(-144.305 -344.963 0)
(-195.855 -348.958 0)
(-245.403 -351.135 0)
(-331.752 -343.185 0)
(-390.92 -352.989 0)
(-525.26 -353.214 0)
(-684.276 -368.111 0)
(-779.689 -391.051 0)
(-864.575 -403.644 0)
(-881.013 -417.764 0)
(-886.003 -424.489 0)
(-857.35 -433.008 0)
(-737.794 -434.718 0)
(-483.218 -407.257 0)
(-124.202 -334.064 0)
(28432.1 -223.476 0)
(-31133.5 -9213.71 0)
(30321.2 15472.7 0)
(-26860.1 1304.99 0)
(242.187 265.692 0)
(544.409 -18.3052 0)
(749.073 -129.549 0)
(836.383 -174.736 0)
(841.614 -193.186 0)
(795.499 -208.357 0)
(745.468 -188.734 0)
(680.28 -101.126 0)
(529.559 153.763 0)
(413.269 668.546 0)
(319.769 1442.33 0)
(233.118 2166.14 0)
(187.188 2842.93 0)
(141.005 3356.35 0)
(103.831 3726.77 0)
(83.8584 3930.49 0)
(49.3451 4049.38 0)
(-3.37328 3958.25 0)
(-42.7159 3960.3 0)
(-89.3974 4059.52 0)
(-127.402 3949.04 0)
(-153.582 3753.6 0)
(-197.39 3399.96 0)
(-238.755 2896.24 0)
(-328.53 2288.57 0)
(-393.62 1521.36 0)
(-529.374 840.87 0)
(-692.36 315.826 0)
(-783.914 36.3843 0)
(-868.14 -50.9057 0)
(-885.223 -80.7245 0)
(-889.832 -85.6207 0)
(-854.801 -91.3962 0)
(-713.032 -93.2487 0)
(-411.373 -46.8573 0)
(6.93573 116.11 0)
(23768.9 1184.14 0)
(-26767.5 16760.6 0)
(50153.8 583896 0)
(-46133.8 49110.3 0)
(-857.285 27845.2 0)
(312.24 32674.4 0)
(663.595 36834.5 0)
(792.095 42514.7 0)
(796.08 48284.3 0)
(779.26 54705 0)
(803.664 61307.2 0)
(975.547 68362.4 0)
(1253.91 75358.1 0)
(1627.96 82363.1 0)
(1751.15 88934.4 0)
(1577.71 95065.7 0)
(1325.84 100491 0)
(983.082 105041 0)
(641.293 108231 0)
(371.1 110920 0)
(54.7039 112219 0)
(-98.1275 113243 0)
(61.5511 113238 0)
(-82.8714 112157 0)
(-404.821 110842 0)
(-673.419 108042 0)
(-1022.03 104902 0)
(-1316.38 100135 0)
(-1656.63 94785.7 0)
(-1785.98 88481.2 0)
(-1686.96 81787.6 0)
(-1459.51 74750.1 0)
(-1133.08 67573.6 0)
(-977.425 60381.3 0)
(-914.466 53546.3 0)
(-896.287 46859.7 0)
(-864.701 40811.2 0)
(-694.875 34838.7 0)
(-281.473 30422.2 0)
(1062.04 25153.8 0)
(44471.3 44646.7 0)
(-47261.9 550067 0)
(635716 -658837 0)
(-562690 -52921.8 0)
(-15596.1 -32472.6 0)
(9206.9 -37185 0)
(10231.5 -41859.6 0)
(11869.8 -48436.3 0)
(12588.6 -55119.2 0)
(13344.8 -62514.5 0)
(13906.3 -70029.8 0)
(14220.3 -78071.9 0)
(14021.1 -86121.1 0)
(13495.8 -94237.7 0)
(12560.5 -102105 0)
(11369.7 -109333 0)
(9799.78 -115737 0)
(7599.41 -121028 0)
(5769.03 -124727 0)
(3926.74 -127742 0)
(2287.38 -129224 0)
(978.168 -130212 0)
(-1088.39 -130181 0)
(-2398.18 -129097 0)
(-4093.5 -127561 0)
(-5877.18 -124382 0)
(-7816.21 -120694 0)
(-9987.23 -115113 0)
(-11558.9 -108800 0)
(-12919.1 -101185 0)
(-13761.2 -93265.2 0)
(-14389.5 -84834.2 0)
(-14630.2 -76458 0)
(-14385.3 -68096.9 0)
(-13915.1 -60148 0)
(-13161.9 -52359.5 0)
(-12438.7 -45263.6 0)
(-10724.2 -38294.5 0)
(-9744.04 -33355.5 0)
(13714.2 -28330.5 0)
(529594 -47534.9 0)
(-594747 -618756 0)
(635716 658837 0)
(-562690 52921.8 0)
(-15596.1 32472.6 0)
(9206.9 37185 0)
(10231.5 41859.6 0)
(11869.8 48436.3 0)
(12588.6 55119.2 0)
(13344.8 62514.5 0)
(13906.3 70029.8 0)
(14220.3 78071.9 0)
(14021.1 86121.1 0)
(13495.8 94237.7 0)
(12560.5 102105 0)
(11369.7 109333 0)
(9799.78 115737 0)
(7599.41 121028 0)
(5769.03 124727 0)
(3926.74 127742 0)
(2287.38 129224 0)
(978.168 130212 0)
(-1088.39 130181 0)
(-2398.18 129097 0)
(-4093.5 127561 0)
(-5877.18 124382 0)
(-7816.21 120694 0)
(-9987.23 115113 0)
(-11558.9 108800 0)
(-12919.1 101185 0)
(-13761.2 93265.2 0)
(-14389.5 84834.2 0)
(-14630.2 76458 0)
(-14385.3 68096.9 0)
(-13915.1 60148 0)
(-13161.9 52359.5 0)
(-12438.7 45263.6 0)
(-10724.2 38294.5 0)
(-9744.04 33355.5 0)
(13714.2 28330.5 0)
(529594 47534.9 0)
(-594747 618756 0)
(50153.8 -583896 0)
(-46133.8 -49110.3 0)
(-857.285 -27845.2 0)
(312.24 -32674.4 0)
(663.595 -36834.5 0)
(792.095 -42514.7 0)
(796.08 -48284.3 0)
(779.26 -54705 0)
(803.664 -61307.2 0)
(975.547 -68362.4 0)
(1253.91 -75358.1 0)
(1627.96 -82363.1 0)
(1751.15 -88934.4 0)
(1577.71 -95065.7 0)
(1325.84 -100491 0)
(983.082 -105041 0)
(641.293 -108231 0)
(371.1 -110920 0)
(54.7039 -112219 0)
(-98.1275 -113243 0)
(61.5511 -113238 0)
(-82.8714 -112157 0)
(-404.821 -110842 0)
(-673.419 -108042 0)
(-1022.03 -104902 0)
(-1316.38 -100135 0)
(-1656.63 -94785.7 0)
(-1785.98 -88481.2 0)
(-1686.96 -81787.6 0)
(-1459.51 -74750.1 0)
(-1133.08 -67573.6 0)
(-977.425 -60381.3 0)
(-914.466 -53546.3 0)
(-896.287 -46859.7 0)
(-864.701 -40811.2 0)
(-694.875 -34838.7 0)
(-281.473 -30422.2 0)
(1062.04 -25153.8 0)
(44471.3 -44646.7 0)
(-47261.9 -550067 0)
(30321.2 -15472.7 0)
(-26860.1 -1304.99 0)
(242.187 -265.692 0)
(544.409 18.3052 0)
(749.073 129.549 0)
(836.383 174.736 0)
(841.614 193.186 0)
(795.499 208.357 0)
(745.468 188.734 0)
(680.28 101.126 0)
(529.559 -153.763 0)
(413.269 -668.546 0)
(319.769 -1442.33 0)
(233.118 -2166.14 0)
(187.188 -2842.93 0)
(141.005 -3356.35 0)
(103.831 -3726.77 0)
(83.8584 -3930.49 0)
(49.3451 -4049.38 0)
(-3.37328 -3958.25 0)
(-42.7159 -3960.3 0)
(-89.3974 -4059.52 0)
(-127.402 -3949.04 0)
(-153.582 -3753.6 0)
(-197.39 -3399.96 0)
(-238.755 -2896.24 0)
(-328.53 -2288.57 0)
(-393.62 -1521.36 0)
(-529.374 -840.87 0)
(-692.36 -315.826 0)
(-783.914 -36.3843 0)
(-868.14 50.9057 0)
(-885.223 80.7245 0)
(-889.832 85.6207 0)
(-854.801 91.3962 0)
(-713.032 93.2487 0)
(-411.373 46.8573 0)
(6.93573 -116.11 0)
(23768.9 -1184.14 0)
(-26767.5 -16760.6 0)
(34703.6 8823.2 0)
(-31479.7 247.779 0)
(417.894 382.17 0)
(693.108 524.545 0)
(814.338 584.264 0)
(853.418 612.399 0)
(828.479 604.565 0)
(774.97 592.433 0)
(700.332 565.589 0)
(645.505 507.6 0)
(512.231 477.351 0)
(386.246 432.925 0)
(308.013 408.389 0)
(228.049 397.315 0)
(178.917 384.126 0)
(131.374 372.122 0)
(88.0279 361.259 0)
(60.2247 345.984 0)
(27.9528 329.854 0)
(-12.2826 320.534 0)
(-36.0355 318.794 0)
(-72.0275 324.225 0)
(-110.022 335.689 0)
(-144.305 344.963 0)
(-195.855 348.958 0)
(-245.403 351.135 0)
(-331.752 343.185 0)
(-390.92 352.989 0)
(-525.26 353.214 0)
(-684.276 368.111 0)
(-779.689 391.051 0)
(-864.575 403.644 0)
(-881.013 417.764 0)
(-886.003 424.489 0)
(-857.35 433.008 0)
(-737.794 434.718 0)
(-483.218 407.257 0)
(-124.202 334.064 0)
(28432.1 223.476 0)
(-31133.5 9213.71 0)
(38714 9102.42 0)
(-34994.2 622.876 0)
(508.889 707.732 0)
(739.154 787.549 0)
(833.732 814.255 0)
(855.946 823.36 0)
(822.374 818.868 0)
(757.94 806.523 0)
(663.721 790.879 0)
(595.25 740.335 0)
(457.6 676.536 0)
(346.815 622.544 0)
(285.454 568.711 0)
(209.737 537.545 0)
(162.911 509.102 0)
(118.97 486.593 0)
(78.6443 469.007 0)
(53.5949 455.351 0)
(24.82 444.412 0)
(-14.0306 438.038 0)
(-39.1585 434.981 0)
(-73.1175 436.226 0)
(-107.418 443.055 0)
(-140.796 450.592 0)
(-191.443 458.647 0)
(-244.317 469.803 0)
(-326.743 474.213 0)
(-383.956 496.119 0)
(-514.802 509.773 0)
(-655.9 546.235 0)
(-749.673 588.902 0)
(-842.399 618.243 0)
(-865.137 642.025 0)
(-875.142 656.706 0)
(-844.944 670.811 0)
(-737.847 682.333 0)
(-508.367 684.141 0)
(-170.163 658.155 0)
(32325.7 626.523 0)
(-35431.4 10219.2 0)
(44154.3 10117.7 0)
(-39569.1 805.284 0)
(576.579 854.148 0)
(795.758 919.359 0)
(848.846 946.081 0)
(857.862 950.513 0)
(812.254 954.787 0)
(747.999 942.75 0)
(636.551 943.824 0)
(535.32 891.811 0)
(398.723 828.184 0)
(282.342 770.616 0)
(226.106 704.839 0)
(170.607 663.437 0)
(129.817 623.607 0)
(92.737 592.936 0)
(57.9219 569.751 0)
(36.5244 553.742 0)
(11.27 542.696 0)
(-21.3707 536.64 0)
(-37.7819 533.495 0)
(-64.2472 534.256 0)
(-96.1782 540.115 0)
(-129.28 547.724 0)
(-177.343 559.115 0)
(-230.403 574.825 0)
(-306.393 589.367 0)
(-356.654 616.211 0)
(-476.966 634.119 0)
(-608.024 678.792 0)
(-710.3 724.62 0)
(-813.383 754.127 0)
(-843.949 776.193 0)
(-858.264 791.473 0)
(-832.655 806.652 0)
(-724.949 819.223 0)
(-506.517 833.801 0)
(-179.724 831.937 0)
(37645.5 832.426 0)
(-41619.1 11966.6 0)
(49475.1 10144.8 0)
(-43920.9 857.086 0)
(618.816 908.733 0)
(827.744 963.752 0)
(863.753 992.208 0)
(864.335 988.22 0)
(814.893 1008.34 0)
(747.376 1006.32 0)
(614.634 1007.73 0)
(483.816 969.917 0)
(340.812 914.402 0)
(227.955 873.063 0)
(182.172 822.855 0)