/*--------------------------------*- C++ -*----------------------------------*\
| =========                 |                                                 |
| \\      /  F ield         | OpenFOAM: The Open Source CFD Toolbox           |
|  \\    /   O peration     | Version:  v1912                                 |
|   \\  /    A nd           | Website:  www.openfoam.com                      |
|    \\/     M anipulation  |                                                 |
\*---------------------------------------------------------------------------*/
FoamFile
{
    version     2.0;
    format      ascii;
    class       volScalarField;
    location    "6.26";
    object      Ma;
}
// * * * * * * * * * * * * * * * * * * * * * * * * * * * * * * * * * * * * * //

dimensions      [0 0 0 0 0 0 0];


internalField   nonuniform List<scalar> 
1900
(
0.744005
0.0641611
0.0935335
0.0897071
0.0922589
0.0939077
0.0954127
0.0976112
0.0984247
0.0902693
0.744003
0.064156
0.0935408
0.089707
0.0922384
0.0938103
0.0952042
0.0970632
0.0995839
0.101378
0.744003
0.0641547
0.0935394
0.089697
0.0922095
0.093773
0.0951535
0.0969269
0.100258
0.107559
0.744003
0.064156
0.0935408
0.089707
0.0922384
0.0938103
0.0952042
0.0970632
0.0995839
0.101378
0.744005
0.0641611
0.0935335
0.0897071
0.0922589
0.0939077
0.0954127
0.0976112
0.0984247
0.0902693
0.0990882
0.137669
0.190685
0.277755
0.426563
0.118088
0.14466
0.177171
0.243908
0.388709
0.126103
0.151004
0.18379
0.247535
0.385979
0.118088
0.14466
0.177171
0.243908
0.388709
0.0990882
0.137669
0.190685
0.277755
0.426563
0.945776
1.34838
1.69434
1.83374
1.74218
0.906481
1.34557
1.70866
1.85998
1.76727
0.902773
1.35443
1.70861
1.85357
1.76384
0.906481
1.34557
1.70866
1.85998
1.76727
0.945776
1.34838
1.69434
1.83374
1.74218
1.78775
1.95509
2.1358
1.96046
1.39319
1.06541
0.899032
0.701536
0.535444
0.405027
0.279303
0.146337
0.056458
0.029842
0.0257456
0.0247291
0.0237017
0.0235106
0.0293607
0.047568
0.0747404
0.105817
0.138325
0.171318
0.204482
0.237748
0.270627
0.304093
0.336009
0.367282
0.398105
0.427838
0.456614
0.480986
0.501041
0.513331
0.527532
0.508272
0.413879
0.115801
1.78141
1.98671
2.15987
2.0403
1.42908
1.07176
0.926804
0.729421
0.550717
0.410923
0.280128
0.144197
0.0504452
0.018853
0.0134006
0.0124272
0.0118498
0.0125501
0.0217125
0.04324
0.0720959
0.104049
0.137075
0.170414
0.203829
0.237291
0.270324
0.303933
0.335948
0.367325
0.39822
0.428042
0.456844
0.481267
0.501313
0.513562
0.52792
0.508671
0.413514
0.113163
1.76394
1.94103
2.1157
2.04045
1.43728
1.0572
0.906313
0.703775
0.531754
0.404202
0.280522
0.144769
0.0486368
0.013438
0.00440557
0.00162747
0.00114579
0.00523426
0.0185287
0.0417219
0.0712048
0.103453
0.136643
0.170086
0.203576
0.237096
0.270175
0.303831
0.335884
0.36731
0.398251
0.428138
0.457003
0.481521
0.501684
0.514089
0.528743
0.509981
0.414914
0.114042
1.78141
1.98671
2.15987
2.0403
1.42908
1.07176
0.926804
0.729421
0.550717
0.410923
0.280128
0.144197
0.0504452
0.018853
0.0134006
0.0124272
0.0118498
0.0125501
0.0217125
0.04324
0.0720959
0.104049
0.137075
0.170414
0.203829
0.237291
0.270324
0.303933
0.335948
0.367325
0.39822
0.428042
0.456844
0.481267
0.501313
0.513562
0.52792
0.508671
0.413514
0.113163
1.78775
1.95509
2.1358
1.96046
1.39319
1.06541
0.899032
0.701536
0.535444
0.405027
0.279303
0.146337
0.056458
0.029842
0.0257456
0.0247291
0.0237017
0.0235106
0.0293607
0.047568
0.0747404
0.105817
0.138325
0.171318
0.204482
0.237748
0.270627
0.304093
0.336009
0.367282
0.398105
0.427838
0.456614
0.480986
0.501041
0.513331
0.527532
0.508272
0.413879
0.115801
1.80524
1.86705
1.88635
1.6301
1.2286
0.974474
0.81143
0.646881
0.51505
0.401201
0.28073
0.152703
0.0749446
0.0562728
0.0526887
0.0510898
0.0491654
0.0479703
0.050682
0.0630352
0.0854528
0.113612
0.144371
0.17625
0.208655
0.241376
0.273879
0.306991
0.338735
0.3698
0.400548
0.430112
0.458952
0.483316
0.50365
0.516239
0.529966
0.510703
0.41804
0.12665
1.53752
1.58115
1.48716
1.19202
0.905855
0.788461
0.697126
0.601237
0.50115
0.394148
0.278028
0.166915
0.112262
0.0986539
0.0941754
0.0912302
0.0880637
0.0858747
0.086777
0.0945567
0.110789
0.133588
0.160481
0.189631
0.220062
0.251302
0.282756
0.314852
0.346082
0.376525
0.407016
0.436069
0.464981
0.48915
0.51012
0.523134
0.535853
0.515388
0.423164
0.143606
1.18722
1.16641
0.981356
0.776174
0.705991
0.699988
0.6543
0.584031
0.482733
0.382879
0.277572
0.190939
0.153717
0.141462
0.1356
0.131083
0.126804
0.123847
0.123797
0.129357
0.141633
0.159897
0.182808
0.208761
0.236676
0.265917
0.295899
0.326501
0.356959
0.386453
0.416494
0.444743
0.473601
0.497345
0.518997
0.532393
0.543986
0.522064
0.431385
0.167556
0.765558
0.661202
0.672467
0.718499
0.744082
0.714681
0.646972
0.555886
0.465985
0.376146
0.285996
0.223798
0.196402
0.184072
0.176526
0.170489
0.165246
0.161665
0.160988
0.165283
0.174994
0.189826
0.209293
0.23217
0.257463
0.284491
0.312775
0.341581
0.371097
0.399415
0.428853
0.456102
0.484766
0.507931
0.530159
0.54377
0.554502
0.531128
0.442452
0.195797
0.707164
0.736852
0.824742
0.832376
0.778127
0.706265
0.620822
0.538201
0.456946
0.375821
0.304411
0.260793
0.238593
0.225687
0.216521
0.209203
0.203183
0.199095
0.198059
0.201483
0.209423
0.221685
0.238367
0.258567
0.281427
0.306285
0.332853
0.359787
0.388307
0.415376
0.444158
0.470363
0.498786
0.521343
0.544064
0.557676
0.567923
0.54356
0.457415
0.22712
0.790464
0.866374
0.894655
0.83652
0.761699
0.688737
0.608399
0.531763
0.457718
0.388797
0.334823
0.30096
0.280464
0.266367
0.255733
0.24729
0.240582
0.236084
0.234695
0.237559
0.24419
0.254452
0.268858
0.28674
0.307371
0.330112
0.354937
0.379932
0.407309
0.432975
0.460899
0.485888
0.513808
0.535509
0.558283
0.571482
0.580748
0.555088
0.471651
0.258056
0.780686
0.875868
0.885809
0.814064
0.751833
0.67602
0.603414
0.531779
0.466039
0.409614
0.367953
0.339685
0.320081
0.305108
0.293475
0.28423
0.277022
0.272364
0.270602
0.272984
0.278619
0.287375
0.300074
0.316196
0.335102
0.356145
0.379578
0.403033
0.429533
0.454102
0.481418
0.505509
0.533157
0.554286
0.57725
0.590194
0.598643
0.57292
0.492497
0.292267
0.753852
0.861784
0.864821
0.798762
0.748354
0.671069
0.60671
0.542369
0.486201
0.440015
0.405072
0.378765
0.358877
0.342941
0.330345
0.320277
0.312616
0.3076
0.305643
0.307697
0.312512
0.319946
0.331084
0.345517
0.362687
0.381917
0.403782
0.425546
0.4509
0.474152
0.500583
0.523582
0.550675
0.571
0.593765
0.606094
0.613006
0.587748
0.510476
0.324669
0.728941
0.84566
0.850804
0.796894
0.749495
0.672503
0.615191
0.557698
0.509808
0.470535
0.439728
0.414977
0.394984
0.378592
0.365527
0.355042
0.347256
0.341903
0.339682
0.341387
0.345572
0.352081
0.362214
0.375597
0.391699
0.409759
0.430703
0.45129
0.475935
0.498298
0.524098
0.546289
0.572927
0.592588
0.615053
0.626906
0.632349
0.607363
0.533566
0.359036
0.710911
0.831403
0.845211
0.801254
0.751378
0.679765
0.629671
0.579606
0.539622
0.503964
0.475167
0.450892
0.430538
0.413568
0.399834
0.388809
0.380595
0.374964
0.372588
0.374033
0.377619
0.383172
0.392196
0.404366
0.41921
0.435897
0.455722
0.474949
0.498752
0.520211
0.545337
0.566785
0.592993
0.612088
0.634279
0.645855
0.650152
0.625222
0.555456
0.392203
0.695872
0.818755
0.846619
0.806801
0.755208
0.692127
0.648344
0.603224
0.567731
0.534577
0.507429
0.48347
0.463118
0.446042
0.432133
0.421352
0.412926
0.407138
0.404518
0.405745
0.408951
0.413947
0.422391
0.433942
0.448137
0.464008
0.483165
0.501474
0.524663
0.545464
0.56998
0.590761
0.616418
0.634888
0.65651
0.667717
0.670669
0.645246
0.579254
0.425214
0.683666
0.80917
0.847298
0.810862
0.766196
0.708523
0.671565
0.629128
0.597088
0.565542
0.53921
0.515606
0.495327
0.477868
0.463434
0.452299
0.44366
0.43787
0.435153
0.436175
0.438849
0.442976
0.450421
0.460904
0.474021
0.488698
0.506903
0.524066
0.546492
0.566621
0.59051
0.610712
0.6359
0.653899
0.675132
0.686239
0.688398
0.663191
0.601916
0.457116
0.675543
0.804275
0.850412
0.8197
0.782045
0.725916
0.692374
0.652024
0.622787
0.592472
0.56682
0.543181
0.523019
0.506418
0.49317
0.481763
0.473053
0.46701
0.464037
0.464908
0.467417
0.471344
0.478644
0.488976
0.501888
0.516116
0.534019
0.550602
0.572545
0.592273
0.615595
0.635275
0.659798
0.677202
0.697638
0.70833
0.70933
0.683977
0.626547
0.487959
0.67654
0.804859
0.855201
0.829818
0.796334
0.742157
0.713018
0.674346
0.647406
0.617779
0.592814
0.569448
0.550332
0.533382
0.518824
0.507106
0.498067
0.491603
0.488234
0.488745
0.490729
0.493978
0.500661
0.510436
0.52279
0.536273
0.553679
0.569548
0.59086
0.610148
0.632952
0.652222
0.676231
0.693207
0.71313
0.723552
0.723902
0.699206
0.647545
0.517316
0.679756
0.807556
0.86009
0.839176
0.80895
0.757144
0.730459
0.692902
0.667148
0.637903
0.61354
0.591155
0.571275
0.55422
0.539599
0.527551
0.517879
0.510724
0.506884
0.507306
0.509374
0.512794
0.519834
0.530085
0.542861
0.556396
0.574013
0.589689
0.610596
0.629669
0.652004
0.67088
0.694075
0.710456
0.729388
0.739148
0.738529
0.714986
0.669081
0.544686
0.681465
0.808121
0.861745
0.844598
0.816152
0.765928
0.741332
0.704755
0.680549
0.651982
0.628252
0.605887
0.586221
0.568803
0.553885
0.541397
0.531119
0.523298
0.518839
0.518814
0.520492
0.523629
0.530623
0.540953
0.553704
0.566838
0.584197
0.59926
0.619557
0.638416
0.660521
0.679273
0.701986
0.718045
0.736336
0.745514
0.744558
0.724389
0.686821
0.569861
0.684714
0.808806
0.853148
0.836139
0.809252
0.761581
0.739316
0.7044
0.681623
0.654012
0.631176
0.61
0.592
0.576354
0.563003
0.551629
0.542392
0.53577
0.532556
0.533393
0.534935
0.536928
0.54239
0.551328
0.562944
0.574665
0.591011
0.604252
0.622747
0.639949
0.660472
0.678198
0.699522
0.714805
0.732082
0.740883
0.740762
0.727434
0.702522
0.591252
0.719588
0.813769
0.828717
0.810968
0.78823
0.744647
0.726324
0.694292
0.673952
0.648616
0.627522
0.607109
0.588992
0.572388
0.557866
0.545366
0.535
0.527197
0.522851
0.522472
0.521984
0.521183
0.523844
0.530385
0.540103
0.549768
0.565449
0.578213
0.596709
0.613401
0.633226
0.650789
0.671504
0.687187
0.705414
0.717359
0.723778
0.726484
0.734403
0.663089
1.62988
0.939503
0.821793
0.793832
0.773129
0.731152
0.709651
0.675367
0.650574
0.621165
0.595086
0.569526
0.546389
0.524729
0.505254
0.487649
0.472015
0.458906
0.449639
0.445227
0.441773
0.43916
0.441309
0.448332
0.458963
0.469902
0.487779
0.502918
0.524279
0.544719
0.568388
0.590761
0.615497
0.637037
0.660508
0.680248
0.698543
0.733283
0.894016
1.553
2.49927
1.63563
0.73607
0.65807
0.630494
0.585877
0.550774
0.509883
0.473414
0.435385
0.399131
0.363723
0.330268
0.298251
0.26841
0.240908
0.216142
0.195111
0.180029
0.173331
0.172165
0.176433
0.189501
0.209636
0.234124
0.260091
0.291222
0.320887
0.354004
0.386319
0.419533
0.451592
0.483123
0.513446
0.542361
0.569919
0.593962
0.66742
1.50492
2.46332
2.49927
1.63563
0.73607
0.65807
0.630494
0.585877
0.550774
0.509883
0.473414
0.435385
0.399131
0.363723
0.330268
0.298251
0.26841
0.240908
0.216142
0.195111
0.180029
0.173331
0.172165
0.176433
0.189501
0.209636
0.234124
0.260091
0.291222
0.320887
0.354004
0.386319
0.419533
0.451592
0.483123
0.513446
0.542361
0.569919
0.593962
0.66742
1.50492
2.46332
1.62988
0.939503
0.821793
0.793832
0.773129
0.731152
0.709651
0.675367
0.650574
0.621165
0.595086
0.569526
0.546389
0.524729
0.505254
0.487649
0.472015
0.458906
0.449639
0.445227
0.441773
0.43916
0.441309
0.448332
0.458963
0.469902
0.487779
0.502918
0.524279
0.544719
0.568388
0.590761
0.615497
0.637037
0.660508
0.680248
0.698543
0.733283
0.894016
1.553
0.719588
0.813769
0.828717
0.810968
0.78823
0.744647
0.726324
0.694292
0.673952
0.648616
0.627522
0.607109
0.588992
0.572388
0.557866
0.545366
0.535
0.527197
0.522851
0.522472
0.521984
0.521183
0.523844
0.530385
0.540103
0.549768
0.565449
0.578213
0.596709
0.613401
0.633226
0.650789
0.671504
0.687187
0.705414
0.717359
0.723778
0.726484
0.734403
0.663089
0.684714
0.808806
0.853148
0.836139
0.809252
0.761581
0.739316
0.7044
0.681623
0.654012
0.631176
0.61
0.592
0.576354
0.563003
0.551629
0.542392
0.53577
0.532556
0.533393
0.534935
0.536928
0.54239
0.551328
0.562944
0.574665
0.591011
0.604252
0.622747
0.639949
0.660472
0.678198
0.699522
0.714805
0.732082
0.740883
0.740762
0.727434
0.702522
0.591252
0.681465
0.808121
0.861745
0.844598
0.816152
0.765928
0.741332
0.704755
0.680549
0.651982
0.628252
0.605887
0.586221
0.568803
0.553885
0.541397
0.531119
0.523298
0.518839
0.518814
0.520492
0.523629
0.530623
0.540953
0.553704
0.566838
0.584197
0.59926
0.619557
0.638416
0.660521
0.679273
0.701986
0.718045
0.736336
0.745514
0.744558
0.724389
0.686821
0.569861
0.679756
0.807556
0.86009
0.839176
0.80895
0.757144
0.730459
0.692902
0.667148
0.637903
0.61354
0.591155
0.571275
0.55422
0.539599
0.527551
0.517879
0.510724
0.506884
0.507306
0.509374
0.512794
0.519834
0.530085
0.542861
0.556396
0.574013
0.589689
0.610596
0.629669
0.652004
0.67088
0.694075
0.710456
0.729388
0.739148
0.738529
0.714986
0.669081
0.544686
0.67654
0.804859
0.855201
0.829818
0.796334
0.742157
0.713018
0.674346
0.647406
0.617779
0.592814
0.569448
0.550332
0.533382
0.518824
0.507106
0.498067
0.491603
0.488234
0.488745
0.490729
0.493978
0.500661
0.510436
0.52279
0.536273
0.553679
0.569548
0.59086
0.610148
0.632952
0.652222
0.676231
0.693207
0.71313
0.723552
0.723902
0.699206
0.647545
0.517316
0.675543
0.804275
0.850412
0.8197
0.782045
0.725916
0.692374
0.652024
0.622787
0.592472
0.56682
0.543181
0.523019
0.506418
0.49317
0.481763
0.473053
0.46701
0.464037
0.464908
0.467417
0.471344
0.478644
0.488976
0.501888
0.516116
0.534019
0.550602
0.572545
0.592273
0.615595
0.635275
0.659798
0.677202
0.697638
0.70833
0.70933
0.683977
0.626547
0.487959
0.683666
0.80917
0.847298
0.810862
0.766196
0.708523
0.671565
0.629128
0.597088
0.565542
0.53921
0.515606
0.495327
0.477868
0.463434
0.452299
0.44366
0.43787
0.435153
0.436175
0.438849
0.442976
0.450421
0.460904
0.474021
0.488698
0.506903
0.524066
0.546492
0.566621
0.59051
0.610712
0.6359
0.653899
0.675132
0.686239
0.688398
0.663191
0.601916
0.457116
0.695872
0.818755
0.846619
0.806801
0.755208
0.692127
0.648344
0.603224
0.567731
0.534577
0.507429
0.48347
0.463118
0.446042
0.432133
0.421352
0.412926
0.407138
0.404518
0.405745
0.408951
0.413947
0.422391
0.433942
0.448137
0.464008
0.483165
0.501474
0.524663
0.545464
0.56998
0.590761
0.616418
0.634888
0.65651
0.667717
0.670669
0.645246
0.579254
0.425214
0.710911
0.831403
0.845211
0.801254
0.751378
0.679765
0.629671
0.579606
0.539622
0.503964
0.475167
0.450892
0.430538
0.413568
0.399834
0.388809
0.380595
0.374964
0.372588
0.374033
0.377619
0.383172
0.392196
0.404366
0.41921
0.435897
0.455722
0.474949
0.498752
0.520211
0.545337
0.566785
0.592993
0.612088
0.634279
0.645855
0.650152
0.625222
0.555456
0.392203
0.728941
0.84566
0.850804
0.796894
0.749495
0.672503
0.615191
0.557698
0.509808
0.470535
0.439728
0.414977
0.394984
0.378592
0.365527
0.355042
0.347256
0.341903
0.339682
0.341387
0.345572
0.352081
0.362214
0.375597
0.391699
0.409759
0.430703
0.45129
0.475935
0.498298
0.524098
0.546289
0.572927
0.592588
0.615053
0.626906
0.632349
0.607363
0.533566
0.359036
0.753852
0.861784
0.864821
0.798762
0.748354
0.671069
0.60671
0.542369
0.486201
0.440015
0.405072
0.378765
0.358877
0.342941
0.330345
0.320277
0.312616
0.3076
0.305643
0.307697
0.312512
0.319946
0.331084
0.345517
0.362687
0.381917
0.403782
0.425546
0.4509
0.474152
0.500583
0.523582
0.550675
0.571
0.593765
0.606094
0.613006
0.587748
0.510476
0.324669
0.780686
0.875868
0.885809
0.814064
0.751833
0.67602
0.603414
0.531779
0.466039
0.409614
0.367953
0.339685
0.320081
0.305108
0.293475
0.28423
0.277022
0.272364
0.270602
0.272984
0.278619
0.287375
0.300074
0.316196
0.335102
0.356145
0.379578
0.403033
0.429533
0.454102
0.481418
0.505509
0.533157
0.554286
0.57725
0.590194
0.598643
0.57292
0.492497
0.292267
0.790464
0.866374
0.894655
0.83652
0.761699
0.688737
0.608399
0.531763
0.457718
0.388797
0.334823
0.30096
0.280464
0.266367
0.255733
0.24729
0.240582
0.236084
0.234695
0.237559
0.24419
0.254452
0.268858
0.28674
0.307371
0.330112
0.354937
0.379932
0.407309
0.432975
0.460899
0.485888
0.513808
0.535509
0.558283
0.571482
0.580748
0.555088
0.471651
0.258056
0.707164
0.736852
0.824742
0.832376
0.778127
0.706265
0.620822
0.538201
0.456946
0.375821
0.304411
0.260793
0.238593
0.225687
0.216521
0.209203
0.203183
0.199095
0.198059
0.201483
0.209423
0.221685
0.238367
0.258567
0.281427
0.306285
0.332853
0.359787
0.388307
0.415376
0.444158
0.470363
0.498786
0.521343
0.544064
0.557676
0.567923
0.54356
0.457415
0.22712
0.765558
0.661202
0.672467
0.718499
0.744082
0.714681
0.646972
0.555886
0.465985
0.376146
0.285996
0.223798
0.196402
0.184072
0.176526
0.170489
0.165246
0.161665
0.160988
0.165283
0.174994
0.189826
0.209293
0.23217
0.257463
0.284491
0.312775
0.341581
0.371097
0.399415
0.428853
0.456102
0.484766
0.507931
0.530159
0.54377
0.554502
0.531128
0.442452
0.195797
1.18722
1.16641
0.981356
0.776174
0.705991
0.699988
0.6543
0.584031
0.482733
0.382879
0.277572
0.190939
0.153717
0.141462
0.1356
0.131083
0.126804
0.123847
0.123797
0.129357
0.141633
0.159897
0.182808
0.208761
0.236676
0.265917
0.295899
0.326501
0.356959
0.386453
0.416494
0.444743
0.473601
0.497345
0.518997
0.532393
0.543986
0.522064
0.431385
0.167556
1.53752
1.58115
1.48716
1.19202
0.905855
0.788461
0.697126
0.601237
0.50115
0.394148
0.278028
0.166915
0.112262
0.0986539
0.0941754
0.0912302
0.0880637
0.0858747
0.086777
0.0945567
0.110789
0.133588
0.160481
0.189631
0.220062
0.251302
0.282756
0.314852
0.346082
0.376525
0.407016
0.436069
0.464981
0.48915
0.51012
0.523134
0.535853
0.515388
0.423164
0.143606
1.80524
1.86705
1.88635
1.6301
1.2286
0.974474
0.81143
0.646881
0.51505
0.401201
0.28073
0.152703
0.0749446
0.0562728
0.0526887
0.0510898
0.0491654
0.0479703
0.050682
0.0630352
0.0854528
0.113612
0.144371
0.17625
0.208655
0.241376
0.273879
0.306991
0.338735
0.3698
0.400548
0.430112
0.458952
0.483316
0.50365
0.516239
0.529966
0.510703
0.41804
0.12665
)
;

boundaryField
{
    inlet
    {
        type            calculated;
        value           uniform 0;
    }
    outlet
    {
        type            calculated;
        value           nonuniform List<scalar> 
165
(
1.80524
1.53752
1.18722
0.765558
0.707164
0.790464
0.780686
0.753852
0.728941
0.710911
0.695872
0.683666
0.675543
0.67654
0.679756
0.681465
0.684714
0.719588
1.62988
2.49927
2.49927
1.63563
0.73607
0.65807
0.630494
0.585877
0.550774
0.509883
0.473414
0.435385
0.399131
0.363723
0.330268
0.298251
0.26841
0.240908
0.216142
0.195111
0.180029
0.173331
0.172165
0.176433
0.189501
0.209636
0.234124
0.260091
0.291222
0.320887
0.354004
0.386319
0.419533
0.451592
0.483123
0.513446
0.542361
0.569919
0.593962
0.66742
1.50492
2.46332
0.12665
0.143606
0.167556
0.195797
0.22712
0.258056
0.292267
0.324669
0.359036
0.392203
0.425214
0.457116
0.487959
0.517316
0.544686
0.569861
0.591252
0.663089
1.553
2.46332
0.115801
0.113163
0.114042
0.113163
0.115801
2.46332
1.553
0.663089
0.591252
0.569861
0.544686
0.517316
0.487959
0.457116
0.425214
0.392203
0.359036
0.324669
0.292267
0.258056
0.22712
0.195797
0.167556
0.143606
0.12665
2.49927
1.63563
0.73607
0.65807
0.630494
0.585877
0.550774
0.509883
0.473414
0.435385
0.399131
0.363723
0.330268
0.298251
0.26841
0.240908
0.216142
0.195111
0.180029
0.173331
0.172165
0.176433
0.189501
0.209636
0.234124
0.260091
0.291222
0.320887
0.354004
0.386319
0.419533
0.451592
0.483123
0.513446
0.542361
0.569919
0.593962
0.66742
1.50492
2.46332
2.49927
1.62988
0.719588
0.684714
0.681465
0.679756
0.67654
0.675543
0.683666
0.695872
0.710911
0.728941
0.753852
0.780686
0.790464
0.707164
0.765558
1.18722
1.53752
1.80524
)
;
    }
    obstacle
    {
        type            calculated;
        value           nonuniform List<scalar> 
40
(
0.744005
0.0641611
0.0935335
0.0897071
0.0922589
0.0939076
0.0954124
0.0976108
0.0983696
0.0894866
0.744005
0.0641611
0.0935335
0.0897071
0.0922589
0.0939076
0.0954124
0.0976108
0.0983696
0.0894866
0.097188
0.134742
0.187451
0.274479
0.419993
0.097188
0.134742
0.187451
0.274479
0.419993
0.936001
1.34559
1.69226
1.83258
1.74081
0.936001
1.34559
1.69226
1.83258
1.74081
)
;
    }
    empty
    {
        type            empty;
    }
}


// ************************************************************************* //
