/*--------------------------------*- C++ -*----------------------------------*\
| =========                 |                                                 |
| \\      /  F ield         | OpenFOAM: The Open Source CFD Toolbox           |
|  \\    /   O peration     | Version:  v1912                                 |
|   \\  /    A nd           | Website:  www.openfoam.com                      |
|    \\/     M anipulation  |                                                 |
\*---------------------------------------------------------------------------*/
FoamFile
{
    version     2.0;
    format      ascii;
    class       volVectorField;
    location    "4.92";
    object      grad(rho);
}
// * * * * * * * * * * * * * * * * * * * * * * * * * * * * * * * * * * * * * //

dimensions      [1 -4 0 0 0 0 0];


internalField   nonuniform List<vector> 
1900
(
(160858 -0.0901937 0)
(-138971 -0.379992 0)
(-16743.8 1.02858 0)
(-4272.07 -0.0541274 0)
(-2748.71 3.70077 0)
(-1910.96 8.20682 0)
(-1422.46 8.23012 0)
(-950.166 14.8137 0)
(-870.142 -130.328 0)
(-37.9135 -133.613 0)
(160858 -0.272086 0)
(-138970 -0.510381 0)
(-16743.4 1.51364 0)
(-4269.4 0.952604 0)
(-2740.45 7.00978 0)
(-1906.44 11.0259 0)
(-1415.85 5.07293 0)
(-1088.72 -0.128803 0)
(-1018.57 -160.714 0)
(-857.961 -168.982 0)
(160857 -1.13687e-09 0)
(-138969 -1.95399e-09 0)
(-16742.3 -4.60076e-09 0)
(-4266.57 -2.34479e-09 0)
(-2738.63 -1.23102e-08 0)
(-1912.9 -9.34364e-09 0)
(-1433.61 -4.08562e-10 0)
(-1115.95 4.95604e-09 0)
(-1039 1.35891e-08 0)
(-950.626 9.96536e-09 0)
(160858 0.272086 0)
(-138970 0.510381 0)
(-16743.4 -1.51364 0)
(-4269.4 -0.952604 0)
(-2740.45 -7.00978 0)
(-1906.44 -11.0259 0)
(-1415.85 -5.07293 0)
(-1088.72 0.128803 0)
(-1018.57 160.714 0)
(-857.961 168.982 0)
(160858 0.0901937 0)
(-138971 0.379992 0)
(-16743.8 -1.02858 0)
(-4272.07 0.0541274 0)
(-2748.71 -3.70077 0)
(-1910.96 -8.20682 0)
(-1422.46 -8.23012 0)
(-950.166 -14.8137 0)
(-870.142 130.328 0)
(-37.9135 133.613 0)
(-149.866 -847.74 1.316e-11)
(-998.699 -806.561 -1.56109e-11)
(-1431.91 -1216.11 -1.97239e-11)
(-2039.28 -1336.45 0)
(-15555.7 -9051.31 -8.31362e-11)
(-734.544 -961.602 1.30068e-11)
(-860.575 -967.387 1.56109e-11)
(-1409.5 -1355.63 1.97239e-11)
(-4683.53 -1007.19 0)
(-14555.9 -7130.92 0)
(-1178.45 6.00164e-09 0)
(-1133.18 4.18768e-09 0)
(-1459.83 2.09709e-09 0)
(-4257.45 1.58123e-09 0)
(-17763.2 1.42743e-09 0)
(-734.544 961.602 1.30068e-11)
(-860.575 967.387 1.56109e-11)
(-1409.5 1355.63 1.97239e-11)
(-4683.53 1007.19 0)
(-14555.9 7130.92 0)
(-149.866 847.74 -3.91736e-11)
(-998.699 806.561 -1.56109e-11)
(-1431.91 1216.11 -1.97239e-11)
(-2039.28 1336.45 -5.31611e-11)
(-15555.7 9051.31 8.31362e-11)
(-23802 11936.2 2.53374e-11)
(-3599.44 3078.23 -2.02936e-11)
(-4078.35 1787.57 0)
(-6340.8 1265.46 1.41609e-11)
(-11570.5 1688.74 -5.77345e-12)
(-19808.2 13893.2 -1.28484e-11)
(-5855.73 2045.22 1.01932e-11)
(-4508.14 601.659 0)
(-6226.38 521.121 -8.87833e-12)
(-10412 1057.57 1.46404e-12)
(-21510.9 -1.07658e-09 0)
(-6922.9 -4.1752e-10 0)
(-4627.08 3.51982e-09 0)
(-6202.36 -7.31441e-09 3.55761e-12)
(-10180.5 -1.4803e-09 -2.92808e-12)
(-19808.2 -13893.2 -1.28484e-11)
(-5855.73 -2045.22 1.01932e-11)
(-4508.14 -601.659 0)
(-6226.38 -521.121 -8.87833e-12)
(-10412 -1057.57 1.46404e-12)
(-23802 -11936.2 1.28484e-11)
(-3599.44 -3078.23 -9.27061e-14)
(-4078.35 -1787.57 0)
(-6340.8 -1265.46 3.81116e-14)
(-11570.5 -1688.74 5.77345e-12)
(-12963.5 7492.37 0)
(-3915.74 3246.1 0)
(2209 2263.84 0)
(180.271 2746.41 0)
(-1973.46 1757.04 0)
(-2323.04 787.079 0)
(-1816.19 289.55 0)
(-1401.86 143.068 0)
(-1298.91 88.868 0)
(-1267.79 76.5379 0)
(-1124.79 68.6466 0)
(-829.056 23.3725 0)
(-512.84 3.23162 0)
(-317.179 -0.438193 0)
(-232.582 -0.341063 0)
(-194.493 -0.270035 0)
(-167.835 -0.751376 0)
(-142.433 -1.52294 0)
(-118.873 -2.04217 0)
(-97.4437 -2.36348 0)
(-77.5961 -2.56465 0)
(-60.5699 -2.67261 0)
(-45.1763 -2.70782 0)
(-30.8582 -2.69646 0)
(-18.7585 -2.657 0)
(-9.39113 -2.63723 0)
(-1.89624 -2.61615 0)
(4.89092 -2.67697 0)
(16.0285 -2.66019 0)
(30.2604 -2.72762 0)
(59.1208 -2.55759 0)
(89.6574 -1.58879 0)
(129.265 -1.34288 0)
(158.954 1.17147 0)
(204.225 0.234449 0)
(231.693 5.29748 0)
(316.038 -4.40149 0)
(2573.78 17.1009 0)
(36377.5 -80.3473 0)
(-34863.8 -2684.63 0)
(-12849.7 4526.59 0)
(-4973.17 2668.02 0)
(2094.39 3099.13 0)
(243.128 2748.56 0)
(-2179.32 1420.52 0)
(-2514.64 476.33 0)
(-1900.74 150.538 0)
(-1427.15 58.0367 0)
(-1306.02 32.8712 0)
(-1267.83 24.4263 0)
(-1128.52 29.5611 0)
(-835.749 7.1017 0)
(-514.503 -0.350177 0)
(-317.274 -1.09647 0)
(-232.508 -0.826008 0)
(-194.489 -0.657165 0)
(-167.939 -0.725518 0)
(-142.543 -1.10185 0)
(-118.915 -1.24322 0)
(-97.4658 -1.30263 0)
(-77.6125 -1.35481 0)
(-60.5801 -1.39501 0)
(-45.1819 -1.42268 0)
(-30.8622 -1.44364 0)
(-18.7659 -1.46235 0)
(-9.40315 -1.49489 0)
(-1.9192 -1.52876 0)
(4.86815 -1.60004 0)
(16.0086 -1.614 0)
(30.2563 -1.64676 0)
(59.2004 -1.5391 0)
(89.7014 -1.13514 0)
(129.485 -0.949292 0)
(159.136 0.711035 0)
(204.703 1.57852 0)
(231.55 5.9283 0)
(316.938 7.13278 0)
(2562.68 20.1735 0)
(36314.8 -47.0641 0)
(-34844.6 696.993 0)
(-12257 4.84461e-10 0)
(-4331 4.45866e-08 0)
(2232.43 8.39409e-08 0)
(-308.05 1.62133e-08 0)
(-2634.47 -1.13687e-08 0)
(-2692.49 1.1401e-08 0)
(-1937.88 -8.63955e-09 0)
(-1436.09 -2.77435e-08 0)
(-1308.68 -7.10543e-09 0)
(-1268.75 -7.78367e-09 0)
(-1129.83 -2.95844e-08 0)
(-837.758 -1.22407e-08 0)
(-515.225 -1.32581e-08 0)
(-317.318 -8.89793e-09 0)
(-232.454 -3.56079e-09 0)
(-194.463 -3.69805e-09 0)
(-167.964 -1.0755e-08 0)
(-142.584 8.3408e-09 0)
(-118.932 -8.38925e-09 0)
(-97.4761 -1.02544e-08 0)
(-77.623 -6.33029e-09 0)
(-60.5897 2.10741e-09 0)
(-45.1904 8.17124e-09 0)
(-30.8697 6.07191e-09 0)
(-18.7734 8.34888e-09 0)
(-9.41045 1.83691e-08 0)
(-1.92683 2.58056e-08 0)
(4.86612 1.77555e-08 0)
(16.0149 1.02302e-08 0)
(30.2822 1.59065e-09 0)
(59.2696 8.62341e-09 0)
(89.829 1.9653e-08 0)
(129.802 5.48975e-08 0)
(159.689 7.48169e-08 0)
(205.743 9.85636e-08 0)
(233.309 1.12936e-07 0)
(320.182 1.5464e-07 0)
(2558.02 7.94112e-08 0)
(36574.3 -1.98387e-07 0)
(-35195 -1.26154e-07 0)
(-12849.7 -4526.59 0)
(-4973.17 -2668.02 0)
(2094.39 -3099.13 0)
(243.128 -2748.56 0)
(-2179.32 -1420.52 0)
(-2514.64 -476.33 0)
(-1900.74 -150.538 0)
(-1427.15 -58.0367 0)
(-1306.02 -32.8712 0)
(-1267.83 -24.4263 0)
(-1128.52 -29.5611 0)
(-835.749 -7.1017 0)
(-514.503 0.350177 0)
(-317.274 1.09647 0)
(-232.508 0.826008 0)
(-194.489 0.657165 0)
(-167.939 0.725518 0)
(-142.543 1.10185 0)
(-118.915 1.24322 0)
(-97.4658 1.30263 0)
(-77.6125 1.35481 0)
(-60.5801 1.39501 0)
(-45.1819 1.42268 0)
(-30.8622 1.44363 0)
(-18.7659 1.46235 0)
(-9.40315 1.49489 0)
(-1.9192 1.52876 0)
(4.86815 1.60004 0)
(16.0086 1.614 0)
(30.2563 1.64676 0)
(59.2004 1.5391 0)
(89.7014 1.13514 0)
(129.485 0.949292 0)
(159.136 -0.711036 0)
(204.703 -1.57852 0)
(231.55 -5.9283 0)
(316.938 -7.13278 0)
(2562.68 -20.1735 0)
(36314.8 47.0641 0)
(-34844.6 -696.993 0)
(-12963.5 -7492.37 0)
(-3915.74 -3246.1 0)
(2209 -2263.84 0)
(180.271 -2746.41 0)
(-1973.46 -1757.04 0)
(-2323.04 -787.079 0)
(-1816.19 -289.55 0)
(-1401.86 -143.068 0)
(-1298.91 -88.868 0)
(-1267.79 -76.5379 0)
(-1124.79 -68.6466 0)
(-829.056 -23.3725 0)
(-512.84 -3.23162 0)
(-317.179 0.438193 0)
(-232.582 0.341063 0)
(-194.493 0.270035 0)
(-167.835 0.751376 0)
(-142.433 1.52294 0)
(-118.873 2.04217 0)
(-97.4437 2.36348 0)
(-77.5961 2.56465 0)
(-60.5699 2.67261 0)
(-45.1763 2.70782 0)
(-30.8582 2.69646 0)
(-18.7585 2.657 0)
(-9.39113 2.63723 0)
(-1.89624 2.61615 0)
(4.89092 2.67697 0)
(16.0285 2.66019 0)
(30.2604 2.72762 0)
(59.1208 2.55759 0)
(89.6574 1.58879 0)
(129.265 1.34288 0)
(158.954 -1.17147 0)
(204.225 -0.23445 0)
(231.693 -5.29748 0)
(316.038 4.40149 0)
(2573.78 -17.1009 0)
(36377.5 80.3473 0)
(-34863.8 2684.63 0)
(14395.8 -30.9821 0)
(-2916.1 -3047.86 0)
(2275.32 -3484.32 0)
(633.704 -3147.83 0)
(-1188.31 -2142.5 0)
(-1815.66 -1120.81 0)
(-1594.53 -516.239 0)
(-1330.51 -283.605 0)
(-1272.51 -183.443 0)
(-1255.2 -154.081 0)
(-1099.49 -111.734 0)
(-802.455 -46.5073 0)
(-501.49 -10.4706 0)
(-315.142 -1.67116 0)
(-232.528 -1.19556 0)
(-194.228 -1.07181 0)
(-167.273 -0.0545384 0)
(-141.86 1.2196 0)
(-118.436 2.3078 0)
(-97.1636 3.03227 0)
(-77.4375 3.48098 0)
(-60.5021 3.72612 0)
(-45.1735 3.81568 0)
(-30.8987 3.80603 0)
(-18.8117 3.72809 0)
(-9.44266 3.66652 0)
(-1.92083 3.60131 0)
(4.86946 3.66706 0)
(16.0173 3.64778 0)
(30.1873 3.79542 0)
(58.5782 3.51472 0)
(88.9902 1.96493 0)
(128.008 0.923548 0)
(158.357 -2.81307 0)
(202.668 -1.87115 0)
(234.292 -8.02577 0)
(310.575 4.58479 0)
(2597.48 -29.0941 0)
(37937.1 -20.1002 0)
(-36695.5 423.819 0)
(13449.2 6189.57 0)
(-7779.53 -2139.18 0)
(2077.1 -2576.7 0)
(1230.15 -2527.31 0)
(-441.164 -2054.9 0)
(-1028 -1292.79 0)
(-1128.3 -728.394 0)
(-1119.42 -422.562 0)
(-1188.25 -295.271 0)
(-1205.44 -226.524 0)
(-1034.69 -151.876 0)
(-745.74 -67.2875 0)
(-475.72 -19.3367 0)
(-309.334 -4.93727 0)
(-232.034 -2.75615 0)
(-193.535 -1.90367 0)
(-165.928 -0.187546 0)
(-140.464 1.7963 0)
(-117.361 3.43438 0)
(-96.4633 4.51777 0)
(-77.0126 5.21045 0)
(-60.2837 5.61039 0)
(-45.1007 5.77959 0)
(-30.9209 5.80606 0)
(-18.8644 5.73842 0)
(-9.48566 5.7063 0)
(-1.88254 5.67831 0)
(4.94719 5.88223 0)
(16.1582 5.97767 0)
(30.1714 6.35505 0)
(57.6478 6.0699 0)
(87.5182 4.15386 0)
(125.336 2.59397 0)
(156.581 -2.12539 0)
(200.037 -1.73922 0)
(236.521 -8.48519 0)
(298.665 -0.178339 0)
(2537.29 -35.2537 0)
(35977.6 -130.264 0)
(-34419.8 -2820.18 0)
(13064.7 5417.63 0)
(-11363.6 -1280.16 0)
(1901.31 -1259.85 0)
(1136.52 -1859.13 0)
(1.31889 -1576.66 0)
(-537.389 -1148.72 0)
(-755.953 -760.276 0)
(-913.141 -502.129 0)
(-1083.6 -387.446 0)
(-1117.02 -284.418 0)
(-946.048 -184.287 0)
(-674.735 -84.89 0)
(-441.407 -29.5179 0)
(-299.164 -10.133 0)
(-229.605 -5.21629 0)
(-191.753 -2.85089 0)
(-163.707 -0.102476 0)
(-138.37 2.67933 0)
(-115.813 4.8568 0)
(-95.4521 6.30053 0)
(-76.3846 7.24668 0)
(-59.9537 7.8078 0)
(-44.985 8.05553 0)
(-30.9383 8.11648 0)
(-18.9078 8.07179 0)
(-9.5006 8.10626 0)
(-1.75129 8.14731 0)
(5.15794 8.56037 0)
(16.4729 8.82668 0)
(30.2761 9.50142 0)
(56.457 9.26558 0)
(85.6407 6.89597 0)
(121.957 5.00287 0)
(154.182 -0.471486 0)
(196.54 -0.386861 0)
(235.796 -7.26358 0)
(284.78 -4.76344 0)
(2472.12 -29.1256 0)
(35253.4 -75.5436 0)
(-33707.4 -1468.06 0)
(14608.7 4643.76 0)
(-14214.2 -493.477 0)
(1519.18 -777.085 0)
(924.856 -1351.79 0)
(243.421 -1140.65 0)
(-241.3 -944.049 0)
(-505.224 -700.124 0)
(-760.15 -539.706 0)
(-978.453 -437.94 0)
(-1009.67 -320.654 0)
(-842.414 -197.605 0)
(-596.599 -94.586 0)
(-403.682 -37.227 0)
(-285.916 -15.485 0)
(-225.016 -8.0694 0)
(-188.607 -3.96131 0)
(-160.598 -0.10145 0)
(-135.685 3.38136 0)
(-113.872 6.00955 0)
(-94.1603 7.76693 0)
(-75.5601 8.9563 0)
(-59.5043 9.69339 0)
(-44.8033 10.0529 0)
(-30.9052 10.2033 0)
(-18.8742 10.264 0)
(-9.41288 10.4662 0)
(-1.44495 10.666 0)
(5.60186 11.389 0)
(17.065 11.9234 0)
(30.5943 12.9487 0)
(55.1371 12.7866 0)
(83.4105 10.0308 0)
(118.236 7.75085 0)
(151.387 1.70829 0)
(193.492 0.87 0)
(232.303 -5.16669 0)
(277.598 -9.1739 0)
(2469.08 -16.9911 0)
(34591 -39.0518 0)
(-33073.5 -1426.6 0)
(16475.6 3896.37 0)
(-16587.3 -160.65 0)
(1074.21 -513.977 0)
(786.185 -897.31 0)
(394.228 -786.824 0)
(-112.887 -750.613 0)
(-366.314 -620.295 0)
(-660.49 -542.269 0)
(-872.511 -451.445 0)
(-885.42 -329.45 0)
(-728.201 -192.743 0)
(-520.189 -95.3079 0)
(-365.183 -41.1313 0)
(-271.067 -19.3379 0)
(-218.5 -10.3172 0)
(-184.075 -4.7607 0)
(-156.632 0.0317419 0)
(-132.481 3.94004 0)
(-111.587 6.83916 0)
(-92.6125 8.80547 0)
(-74.5282 10.2129 0)
(-58.8969 11.1618 0)
(-44.4936 11.7192 0)
(-30.7349 12.0983 0)
(-18.6545 12.4578 0)
(-9.11317 13.0392 0)
(-0.862037 13.6065 0)
(6.36961 14.9324 0)
(17.9759 15.9904 0)
(31.1079 17.6222 0)
(53.6452 17.8854 0)
(80.7881 15.2251 0)
(113.937 13.1196 0)
(147.551 7.27007 0)
(189.915 5.88995 0)
(226.118 0.787173 0)
(273.386 -5.44898 0)
(2443.33 -1.80905 0)
(33895.1 -29.9528 0)
(-32371.7 -1587.6 0)
(17958.4 3515.13 0)
(-18464.2 -84.8621 0)
(809.302 -364.257 0)
(661.931 -526.8 0)
(384.784 -567.304 0)
(-80.8272 -605.847 0)
(-304.457 -565.848 0)
(-597.44 -529.29 0)
(-773.373 -442.489 0)
(-760.377 -314.879 0)
(-616.786 -181.373 0)
(-450.5 -91.9583 0)
(-330.474 -43.9806 0)
(-256.223 -22.8348 0)
(-210.969 -12.5296 0)
(-178.634 -5.62123 0)
(-152.214 -0.187727 0)
(-129.125 3.91274 0)
(-109.183 6.87444 0)
(-90.9093 8.95809 0)
(-73.2895 10.5736 0)
(-58.0528 11.7662 0)
(-43.9008 12.5799 0)
(-30.1934 13.2709 0)
(-17.9675 14.0169 0)
(-8.30599 15.0475 0)
(0.379347 15.9967 0)
(7.8991 17.8648 0)
(19.657 19.3022 0)
(32.4204 21.2458 0)
(52.8272 21.666 0)
(78.818 18.8719 0)
(110.57 16.3768 0)
(144.42 10.3006 0)
(187.245 7.66399 0)
(221.376 2.65425 0)
(275.096 -4.61638 0)
(2445.47 6.24514 0)
(33062.8 -33.2026 0)
(-31544.7 -1754.54 0)
(19465.3 2336.61 0)
(-20325.6 -71.5716 0)
(648.343 -319.124 0)
(590.522 -383.539 0)
(318.056 -460.837 0)
(-111.484 -520.07 0)
(-292.541 -534.983 0)
(-541.617 -506.373 0)
(-665.897 -412.657 0)
(-633.8 -281.141 0)
(-513.386 -160.329 0)
(-387.793 -82.9141 0)
(-298.573 -41.8015 0)
(-240.76 -22.016 0)
(-201.913 -11.1796 0)
(-172.182 -3.99198 0)
(-147.445 1.10088 0)
(-125.676 4.83633 0)
(-106.725 7.54872 0)
(-89.0479 9.62891 0)
(-71.8223 11.4312 0)
(-56.9636 12.9228 0)
(-43.0436 14.1281 0)
(-29.3501 15.3473 0)
(-16.9425 16.7376 0)
(-7.20534 18.4314 0)
(1.85278 19.9956 0)
(9.55483 22.7601 0)
(21.2339 24.7257 0)
(33.3857 26.9862 0)
(51.3577 27.7001 0)
(75.6912 24.9735 0)
(105.677 22.1185 0)
(139.155 16.2519 0)
(182.546 13.5564 0)
(214.284 8.63845 0)
(276.846 0.557072 0)
(2415.79 11.7103 0)
(32198.3 -54.4693 0)
(-30671.3 -1938.7 0)
(19886.8 1107.21 0)
(-21023.3 -76.58 0)
(508.679 -250.909 0)
(525.371 -312.729 0)
(253.218 -415.328 0)
(-152.277 -468.193 0)
(-291.258 -499.666 0)
(-479.562 -461.923 0)
(-556.331 -364.287 0)
(-517.225 -241.245 0)
(-425.768 -138.815 0)
(-336.283 -74.3863 0)
(-271.791 -39.0279 0)
(-226.714 -19.9476 0)
(-193.601 -8.95619 0)
(-166.8 -2.21074 0)
(-143.707 2.49503 0)
(-122.911 6.07985 0)
(-104.565 8.80551 0)
(-87.1681 10.9751 0)
(-70.1153 12.9563 0)
(-55.4539 14.6989 0)
(-41.5644 16.2166 0)
(-27.6788 17.8359 0)
(-14.9956 19.6525 0)
(-5.1665 21.6775 0)
(4.5507 23.4747 0)
(12.4572 26.7041 0)
(23.7295 28.531 0)
(35.2866 30.337 0)
(50.8876 30.5901 0)
(73.4394 27.3116 0)
(102.166 23.4067 0)
(136.169 17.0394 0)
(179.908 14.3961 0)
(208.85 10.5677 0)
(278.057 3.67323 0)
(2392.44 15.9469 0)
(31183.3 -63.4417 0)
(-29669.9 -2074.52 0)
(20427.8 367.749 0)
(-21634.4 -82.1813 0)
(420.781 -198.955 0)
(432.082 -274.866 0)
(168.245 -403.228 0)
(-192.755 -442.709 0)
(-286.499 -464.987 0)
(-411.161 -411.156 0)
(-453.243 -313.126 0)
(-416.527 -203.456 0)
(-352.595 -117.976 0)
(-291.634 -63.3225 0)
(-246.114 -31.5367 0)
(-211.782 -13.1163 0)
(-184.821 -2.08774 0)
(-161.147 5.38193 0)
(-139.455 10.5587 0)
(-119.595 14.3011 0)
(-102.008 17.0913 0)
(-85.048 19.2984 0)
(-68.2339 21.3921 0)
(-53.8219 23.3182 0)
(-40.0208 25.0482 0)
(-26.0392 26.8993 0)
(-13.2405 28.803 0)
(-3.52214 30.573 0)
(6.69655 32.0866 0)
(14.4272 35.0675 0)
(24.7348 35.888 0)
(35.37 36.1068 0)
(48.4422 34.6122 0)
(68.7691 29.5684 0)
(95.7789 23.2127 0)
(130.472 14.5576 0)
(176.31 9.21157 0)
(203.951 4.6134 0)
(282.03 -0.592704 0)
(2351.11 13.0238 0)
(30183.9 -91.4558 0)
(-28685.7 -2241.34 0)
(20226.8 -426.86 0)
(-21569.4 -75.3561 0)
(323.001 -178.547 0)
(328.527 -267.108 0)
(91.4787 -397.734 0)
(-211.79 -412.163 0)
(-260.852 -411.644 0)
(-333.224 -346.658 0)
(-356.184 -255.36 0)
(-329.171 -161.86 0)
(-290.73 -91.8983 0)
(-252.986 -46.1151 0)
(-223.41 -19.0367 0)
(-198.336 -2.75717 0)
(-175.775 8.58437 0)
(-154.614 16.6725 0)
(-135.112 22.2625 0)
(-116.616 26.3195 0)
(-99.7495 29.4575 0)
(-83.0237 31.9867 0)
(-66.2417 34.383 0)
(-51.9307 36.5623 0)
(-38.1136 38.4226 0)
(-24.0605 40.2585 0)
(-11.4556 41.846 0)
(-2.00234 43.129 0)
(8.8818 44.1879 0)
(16.1204 46.6591 0)
(24.7309 46.5204 0)
(34.0573 45.37 0)
(44.5869 42.337 0)
(62.4544 35.7638 0)
(87.701 26.9085 0)
(122.677 16.4874 0)
(170.326 8.42331 0)
(199.402 2.17239 0)
(286.161 -4.55516 0)
(2304.89 4.81388 0)
(29011 -120.867 0)
(-27529.8 -2392.53 0)
(19976.9 -900.044 0)
(-21395.1 -91.8528 0)
(236.002 -176.125 0)
(220.867 -263.615 0)
(28.4649 -383.3 0)
(-206.16 -369.812 0)
(-223.376 -345.465 0)
(-260.559 -279.126 0)
(-275.164 -199.299 0)
(-259.009 -122.671 0)
(-241.059 -66.7741 0)
(-221.422 -28.7626 0)
(-204.332 -3.38902 0)
(-185.165 16.0386 0)
(-166.098 29.5578 0)
(-147.966 39.1289 0)
(-130.159 46.2985 0)
(-112.661 51.9494 0)
(-96.5466 56.4707 0)
(-80.3016 59.8984 0)
(-63.8248 62.6216 0)
(-49.9292 64.5061 0)
(-36.4589 65.4385 0)
(-22.7403 65.7722 0)
(-10.4744 65.4289 0)
(-1.26542 65.1286 0)
(10.0983 64.1632 0)
(16.675 64.3183 0)
(23.4926 61.8679 0)
(31.3386 58.4343 0)
(39.1853 52.9166 0)
(53.9016 44.2455 0)
(77.2035 32.4739 0)
(112.659 19.7114 0)
(162.515 9.91469 0)
(191.444 3.86306 0)
(284.575 -2.73662 0)
(2239.03 2.72137 0)
(27873.7 -171.818 0)
(-26418.5 -2635.68 0)
(19318.1 -1495.56 0)
(-20871.8 -109.698 0)
(157.485 -180.945 0)
(128.886 -256.626 0)
(-10.8573 -352.555 0)
(-175.331 -317.582 0)
(-173.464 -273.103 0)
(-192.374 -210.176 0)
(-205.418 -141.521 0)
(-201.465 -80.3841 0)
(-200.237 -36.2594 0)
(-191.906 -2.36006 0)
(-180.238 23.4694 0)
(-166.587 42.6012 0)
(-153.524 56.1539 0)
(-138.482 66.2363 0)
(-122.758 74.0017 0)
(-106.814 80.2663 0)
(-92.0895 85.3635 0)
(-77.0965 89.2269 0)
(-61.8016 92.2218 0)
(-49.2162 94.1246 0)
(-36.8935 94.7316 0)
(-24.0697 94.4466 0)
(-12.0758 93.3286 0)
(-3.22206 92.4081 0)
(8.10097 90.3614 0)
(13.9085 89.3108 0)
(19.061 85.0879 0)
(25.4315 79.8296 0)
(30.914 71.8306 0)
(42.755 60.9554 0)
(64.059 46.1394 0)
(100.939 29.499 0)
(155.054 16.2016 0)
(187.211 8.84705 0)
(285.061 1.86756 0)
(2141.95 3.12151 0)
(26468.5 -237.191 0)
(-25015 -2886.33 0)
(18458.7 -1959.57 0)
(-20128.3 -112.572 0)
(94.4164 -167.421 0)
(55.4975 -223.364 0)
(-30.2742 -290.836 0)
(-129.597 -242.19 0)
(-119.876 -189.988 0)
(-133.762 -138.01 0)
(-150.092 -84.3625 0)
(-157.575 -37.2339 0)
(-165.872 1.59584 0)
(-163.866 34.8262 0)
(-161.006 57.7686 0)
(-153.669 74.9276 0)
(-143.322 87.993 0)
(-130.767 98.5253 0)
(-116.639 107.238 0)
(-101.713 114.775 0)
(-87.9119 121.057 0)
(-73.6927 125.643 0)
(-59.1051 128.701 0)
(-47.5107 129.988 0)
(-36.1486 129.491 0)
(-24.0923 127.965 0)
(-12.4389 125.686 0)
(-4.12472 124.09 0)
(7.11367 121.215 0)
(11.5933 118.868 0)
(14.3561 113.376 0)
(18.5633 106.74 0)
(20.9974 97.3735 0)
(29.1446 84.6529 0)
(46.891 66.8483 0)
(83.8103 47.9645 0)
(142.614 30.9754 0)
(177.632 24.5359 0)
(279.058 16.3817 0)
(2008.66 12.9138 0)
(25089.3 -317.685 0)
(-23642.4 -3165.85 0)
(17365.8 -2119.19 0)
(-19144.8 -77.1339 0)
(50.7217 -118.386 0)
(9.95873 -155.232 0)
(-28.9989 -198.175 0)
(-78.15 -153.341 0)
(-73.0715 -105.3 0)
(-90.5894 -64.3115 0)
(-108.307 -17.5053 0)
(-118.632 20.7578 0)
(-130.797 50.4838 0)
(-137.776 77.2739 0)
(-141.595 95.6414 0)
(-137.462 111.582 0)
(-130.785 122.129 0)
(-119.936 130.743 0)
(-107.099 137.986 0)
(-93.4976 144.425 0)
(-81.6171 150.066 0)
(-69.731 154.554 0)
(-57.6143 158.199 0)
(-48.4544 160.473 0)
(-38.8428 160.887 0)
(-27.7365 160.066 0)
(-15.8103 158.316 0)
(-7.53103 157.528 0)
(3.06945 155.094 0)
(6.35532 153.06 0)
(7.37422 148.765 0)
(10.0106 142.694 0)
(9.62965 134.911 0)
(13.3398 124.345 0)
(28.7047 108.346 0)
(66.3701 92.983 0)
(132.477 76.2636 0)
(173.148 73.1938 0)
(273.861 65.7748 0)
(1820.03 56.0615 0)
(23405.3 -352.138 0)
(-21929.8 -3303.19 0)
(16460.4 -2457.6 0)
(-18200.2 23.4899 0)
(19.1582 -6.57442 0)
(-21.3901 -34.718 0)
(-28.4516 -55.6153 0)
(-40.0989 -25.5217 0)
(-34.0843 14.7234 0)
(-49.1605 40.4489 0)
(-68.1165 74.5477 0)
(-92.0586 99.1672 0)
(-111.412 117.414 0)
(-120.35 137.209 0)
(-127.946 151.335 0)
(-128.144 163.785 0)
(-124.857 171.899 0)
(-115.487 179.246 0)
(-103.456 185.95 0)
(-90.0717 192.51 0)
(-78.1503 198.731 0)
(-65.8559 203.537 0)
(-53.4021 206.57 0)
(-44.9203 207.51 0)
(-36.5409 206.703 0)
(-26.5696 205.248 0)
(-14.8841 202.952 0)
(-7.23004 201.911 0)
(2.80782 199.471 0)
(5.49432 197.803 0)
(4.36694 195.069 0)
(5.21406 190.226 0)
(3.3159 184.769 0)
(3.54559 178.757 0)
(16.6694 167.842 0)
(52.8941 158.282 0)
(123.545 146.573 0)
(167.524 153.925 0)
(262.549 162.123 0)
(1605.95 157.397 0)
(21852.2 -333.602 0)
(-20457.3 -3325.02 0)
(15240.4 -1827.3 0)
(-16782.9 173.22 0)
(-5.36953 110.794 0)
(-37.2989 79.7001 0)
(-20.1369 76.3172 0)
(-10.3691 84.4169 0)
(-9.4998 118.06 0)
(-32.9406 131.41 0)
(-51.724 151.302 0)
(-77.3253 165.001 0)
(-94.1385 176.263 0)
(-105.089 191.979 0)
(-115.985 201.667 0)
(-117.645 212.855 0)
(-115.885 220.858 0)
(-106.397 229.056 0)
(-94.3171 235.585 0)
(-81.1806 239.162 0)
(-70.9917 239.74 0)
(-62.1771 239.816 0)
(-53.7851 243.911 0)
(-48.3264 250.72 0)
(-41.0231 254.813 0)
(-31.3511 254.089 0)
(-19.0255 248.709 0)
(-10.8857 243.981 0)
(-0.889219 237.005 0)
(2.11353 232.023 0)
(0.0726882 226.462 0)
(0.085192 221.073 0)
(-1.42275 213.572 0)
(-2.9715 209.662 0)
(8.97456 199.502 0)
(45.8742 192.175 0)
(128.278 180.915 0)
(188.133 192.793 0)
(277.208 217.962 0)
(1342.33 232.264 0)
(20049.5 -181.657 0)
(-18869.8 -2552.04 0)
(15303.5 -962.958 0)
(-16332.6 372.08 0)
(-70.9607 276.983 0)
(-54.6135 248.076 0)
(-23.9063 240.187 0)
(0.126144 227.621 0)
(11.1998 252.609 0)
(-17.1275 259.042 0)
(-35.7466 272.153 0)
(-68.0051 278.27 0)
(-85.4152 283.62 0)
(-95.8701 284.614 0)
(-107.829 282.114 0)
(-109.651 281.577 0)
(-109.245 280.93 0)
(-101.296 285.316 0)
(-93.717 293.988 0)
(-86.0672 305.976 0)
(-77.5202 318.633 0)
(-61.8366 325.594 0)
(-42.8946 328.134 0)
(-34.4155 326.854 0)
(-33.2942 320.725 0)
(-32.4512 316.408 0)
(-24.6249 311.913 0)
(-18.5083 313.706 0)
(-8.71526 315.622 0)
(-4.66525 318.299 0)
(-6.18509 321.406 0)
(-7.20749 323.88 0)
(-7.68011 322.27 0)
(-10.0127 324.793 0)
(-0.181388 318.344 0)
(34.9828 313.359 0)
(124.141 302.495 0)
(203.224 309.15 0)
(300.583 338.767 0)
(1220.86 347.759 0)
(19169.2 27.3006 0)
(-18486.7 -2272.98 0)
(15532.1 38776.2 0)
(-15588.1 3574.12 0)
(-124.864 1855.01 0)
(-72.7566 1858.14 0)
(-39.848 2043.69 0)
(1.60091 2259.04 0)
(20.7785 2459.51 0)
(-14.1064 2605.41 0)
(-33.1951 2715.61 0)
(-66.2761 2775.8 0)
(-88.0253 2822.03 0)
(-106.539 2835.87 0)
(-118.912 2836.99 0)
(-118.786 2825.56 0)
(-112.282 2809.54 0)
(-93.8137 2786.39 0)
(-74.4084 2759.15 0)
(-57.4322 2712.65 0)
(-52.0873 2699.26 0)
(-53.0211 2657.67 0)
(-52.5706 2663.22 0)
(-55.4669 2718.18 0)
(-51.0893 2722.72 0)
(-39.8426 2776.02 0)
(-21.6294 2767.07 0)
(-7.31079 2790.12 0)
(3.53647 2771.49 0)
(7.68704 2762.32 0)
(5.45143 2727.78 0)
(0.917335 2685.94 0)
(-0.543246 2625.24 0)
(-6.75456 2536.92 0)
(-2.04348 2416.96 0)
(30.6019 2243.13 0)
(124.222 2048.47 0)
(223.086 1768.39 0)
(314.412 1617.13 0)
(1042.19 1397.55 0)
(17524.1 2887.93 0)
(-17732.3 33857.6 0)
(54037.9 674408 0)
(-51911.2 58086.9 0)
(-1724.54 23122.2 0)
(127.207 24632 0)
(362.414 25652.1 0)
(400.825 27604.3 0)
(344.978 29096.3 0)
(229.659 30730.9 0)
(128.441 32060.5 0)
(34.548 33082.6 0)
(-27.5253 34056.5 0)
(-81.4509 34808.6 0)
(-117.765 35511.6 0)
(-136.107 36105.1 0)
(-146.988 36667.9 0)
(-149.855 37119.7 0)
(-164.779 37503.4 0)
(-143.781 37745.1 0)
(-130.501 37848.5 0)
(-96.5635 37803.4 0)
(15.4148 37746.1 0)
(22.9173 37612.6 0)
(22.447 37468.7 0)
(10.2911 36789.7 0)
(-11.0407 36115.2 0)
(-14.2552 35213.5 0)
(-35.5015 34303.8 0)
(-46.7788 33180.8 0)
(-79.7934 32092.9 0)
(-106.019 30767.7 0)
(-151.284 29486.5 0)
(-210.722 27876.1 0)
(-283.28 26309.9 0)
(-320.106 24370.2 0)
(-333.344 22597.3 0)
(-212.427 20519 0)
(-56.7679 19485.6 0)
(2445.44 17742 0)
(50448.8 50543.5 0)
(-52238.2 609272 0)
(715347 -739711 0)
(-643191 -59259.2 0)
(-32363.2 -24958.6 0)
(2365.16 -25806.8 0)
(2824.41 -26640.8 0)
(3320.52 -28575.2 0)
(3033.7 -30101.9 0)
(2842.3 -31723.6 0)
(2233.03 -32983.7 0)
(1857.17 -33849.4 0)
(1575.13 -34639.2 0)
(1295.66 -35178.5 0)
(1130.51 -35646.2 0)
(995.483 -36006.6 0)
(865.384 -36342.2 0)
(711.256 -36580.1 0)
(528.205 -36784.7 0)
(275.135 -36868.6 0)
(4.17947 -36870.9 0)
(-151.674 -36721 0)
(-236.504 -36604.7 0)
(-322.768 -36448.2 0)
(-844.024 -36283.1 0)
(-1344.11 -35570.6 0)
(-1540.53 -34891.3 0)
(-1752.92 -34006.3 0)
(-1955.23 -33109.5 0)
(-2122.81 -32018.6 0)
(-2319.95 -30960.4 0)
(-2510.7 -29656.9 0)
(-2786.98 -28410.5 0)
(-3067.79 -26802.3 0)
(-3380.41 -25240.7 0)
(-3546.99 -23263.8 0)
(-3586.92 -21550.2 0)
(-2775.49 -19645.6 0)
(-2361.63 -19116 0)
(30970.8 -18194.2 0)
(587544 -52037.4 0)
(-647430 -673955 0)
(715347 739711 0)
(-643191 59259.2 0)
(-32363.2 24958.6 0)
(2365.16 25806.8 0)
(2824.41 26640.8 0)
(3320.52 28575.2 0)
(3033.7 30101.9 0)
(2842.3 31723.6 0)
(2233.03 32983.7 0)
(1857.17 33849.4 0)
(1575.13 34639.2 0)
(1295.66 35178.5 0)
(1130.51 35646.2 0)
(995.483 36006.6 0)
(865.384 36342.2 0)
(711.256 36580.1 0)
(528.205 36784.7 0)
(275.135 36868.6 0)
(4.17947 36870.9 0)
(-151.674 36721 0)
(-236.504 36604.7 0)
(-322.768 36448.2 0)
(-844.024 36283.1 0)
(-1344.11 35570.6 0)
(-1540.53 34891.3 0)
(-1752.92 34006.3 0)
(-1955.23 33109.5 0)
(-2122.81 32018.6 0)
(-2319.95 30960.4 0)
(-2510.7 29656.9 0)
(-2786.98 28410.5 0)
(-3067.79 26802.3 0)
(-3380.41 25240.7 0)
(-3546.99 23263.8 0)
(-3586.92 21550.2 0)
(-2775.49 19645.6 0)
(-2361.63 19116 0)
(30970.8 18194.2 0)
(587544 52037.4 0)
(-647430 673955 0)
(54037.9 -674408 0)
(-51911.2 -58086.9 0)
(-1724.54 -23122.2 0)
(127.207 -24632 0)
(362.414 -25652.1 0)
(400.825 -27604.3 0)
(344.978 -29096.3 0)
(229.659 -30730.9 0)
(128.441 -32060.5 0)
(34.548 -33082.6 0)
(-27.5253 -34056.5 0)
(-81.4509 -34808.6 0)
(-117.765 -35511.6 0)
(-136.107 -36105.1 0)
(-146.988 -36667.9 0)
(-149.855 -37119.7 0)
(-164.779 -37503.4 0)
(-143.781 -37745.1 0)
(-130.501 -37848.5 0)
(-96.5635 -37803.4 0)
(15.4148 -37746.1 0)
(22.9174 -37612.6 0)
(22.447 -37468.7 0)
(10.2911 -36789.7 0)
(-11.0407 -36115.2 0)
(-14.2552 -35213.5 0)
(-35.5015 -34303.8 0)
(-46.7788 -33180.8 0)
(-79.7934 -32092.9 0)
(-106.019 -30767.7 0)
(-151.284 -29486.5 0)
(-210.722 -27876.1 0)
(-283.28 -26309.9 0)
(-320.106 -24370.2 0)
(-333.344 -22597.3 0)
(-212.427 -20519 0)
(-56.7679 -19485.6 0)
(2445.44 -17742 0)
(50448.8 -50543.5 0)
(-52238.2 -609272 0)
(15532.1 -38776.2 0)
(-15588.1 -3574.12 0)
(-124.864 -1855.01 0)
(-72.7566 -1858.14 0)
(-39.848 -2043.69 0)
(1.60091 -2259.04 0)
(20.7785 -2459.51 0)
(-14.1064 -2605.41 0)
(-33.1951 -2715.61 0)
(-66.2761 -2775.8 0)
(-88.0253 -2822.03 0)
(-106.539 -2835.87 0)
(-118.912 -2836.99 0)
(-118.786 -2825.56 0)
(-112.282 -2809.54 0)
(-93.8137 -2786.39 0)
(-74.4084 -2759.15 0)
(-57.4322 -2712.65 0)
(-52.0873 -2699.26 0)
(-53.0211 -2657.67 0)
(-52.5706 -2663.22 0)
(-55.4669 -2718.18 0)
(-51.0893 -2722.72 0)
(-39.8426 -2776.02 0)
(-21.6294 -2767.07 0)
(-7.31079 -2790.12 0)
(3.53647 -2771.49 0)
(7.68704 -2762.32 0)
(5.45143 -2727.78 0)
(0.917335 -2685.94 0)
(-0.543246 -2625.24 0)
(-6.75456 -2536.92 0)
(-2.04348 -2416.96 0)
(30.6019 -2243.13 0)
(124.222 -2048.47 0)
(223.086 -1768.39 0)
(314.412 -1617.13 0)
(1042.19 -1397.55 0)
(17524.1 -2887.93 0)
(-17732.3 -33857.6 0)
(15303.5 962.958 0)
(-16332.6 -372.08 0)
(-70.9607 -276.983 0)
(-54.6135 -248.076 0)
(-23.9063 -240.187 0)
(0.126144 -227.621 0)
(11.1998 -252.609 0)
(-17.1275 -259.042 0)
(-35.7466 -272.153 0)
(-68.0051 -278.27 0)
(-85.4152 -283.62 0)
(-95.8701 -284.614 0)
(-107.829 -282.114 0)
(-109.651 -281.577 0)
(-109.245 -280.93 0)
(-101.296 -285.316 0)
(-93.717 -293.988 0)
(-86.0672 -305.976 0)
(-77.5202 -318.633 0)
(-61.8366 -325.594 0)
(-42.8946 -328.134 0)
(-34.4155 -326.854 0)
(-33.2942 -320.725 0)
(-32.4512 -316.408 0)
(-24.6249 -311.913 0)
(-18.5083 -313.706 0)
(-8.71526 -315.622 0)
(-4.66525 -318.299 0)
(-6.18509 -321.406 0)
(-7.20749 -323.88 0)
(-7.68011 -322.27 0)
(-10.0127 -324.793 0)
(-0.181388 -318.344 0)
(34.9828 -313.359 0)
(124.141 -302.495 0)
(203.224 -309.15 0)
(300.583 -338.767 0)
(1220.86 -347.759 0)
(19169.2 -27.3006 0)
(-18486.7 2272.98 0)
(15240.4 1827.3 0)
(-16782.9 -173.22 0)
(-5.36953 -110.794 0)
(-37.2989 -79.7001 0)
(-20.1369 -76.3172 0)
(-10.3691 -84.4169 0)
(-9.4998 -118.06 0)
(-32.9406 -131.41 0)
(-51.724 -151.302 0)
(-77.3253 -165.001 0)
(-94.1385 -176.263 0)
(-105.089 -191.979 0)
(-115.985 -201.667 0)
(-117.645 -212.855 0)
(-115.885 -220.858 0)
(-106.397 -229.056 0)
(-94.3171 -235.585 0)
(-81.1806 -239.162 0)
(-70.9917 -239.74 0)
(-62.1771 -239.816 0)
(-53.7851 -243.911 0)
(-48.3264 -250.72 0)
(-41.0231 -254.813 0)
(-31.3511 -254.089 0)
(-19.0255 -248.709 0)
(-10.8857 -243.981 0)
(-0.889219 -237.005 0)
(2.11353 -232.023 0)
(0.0726881 -226.462 0)
(0.0851919 -221.073 0)
(-1.42275 -213.572 0)
(-2.9715 -209.662 0)
(8.97456 -199.502 0)
(45.8742 -192.175 0)
(128.278 -180.915 0)
(188.133 -192.793 0)
(277.208 -217.962 0)
(1342.33 -232.264 0)
(20049.5 181.657 0)
(-18869.8 2552.04 0)
(16460.4 2457.6 0)
(-18200.2 -23.4899 0)
(19.1582 6.57442 0)
(-21.3901 34.718 0)
(-28.4516 55.6153 0)
(-40.0989 25.5217 0)
(-34.0843 -14.7234 0)
(-49.1605 -40.4489 0)
(-68.1165 -74.5477 0)
(-92.0586 -99.1672 0)
(-111.412 -117.414 0)
(-120.35 -137.209 0)
(-127.946 -151.335 0)
(-128.144 -163.785 0)
(-124.857 -171.899 0)
(-115.487 -179.246 0)
(-103.456 -185.95 0)
(-90.0717 -192.51 0)
(-78.1503 -198.731 0)
(-65.8559 -203.537 0)
(-53.4021 -206.57 0)
(-44.9203 -207.51 0)
(-36.5409 -206.703 0)
(-26.5696 -205.248 0)
(-14.8841 -202.952 0)
(-7.23004 -201.911 0)
(2.80782 -199.471 0)
(5.49432 -197.803 0)
(4.36694 -195.069 0)
(5.21406 -190.226 0)
(3.3159 -184.769 0)
(3.54559 -178.757 0)
(16.6694 -167.842 0)
(52.8941 -158.282 0)
(123.545 -146.573 0)
(167.524 -153.925 0)
(262.549 -162.123 0)
(1605.95 -157.397 0)
(21852.2 333.602 0)
(-20457.3 3325.02 0)
(17365.8 2119.19 0)
(-19144.8 77.1339 0)
(50.7217 118.386 0)
(9.95873 155.232 0)
(-28.9989 198.175 0)
(-78.15 153.341 0)
(-73.0715 105.3 0)
(-90.5894 64.3115 0)
(-108.307 17.5053 0)
(-118.632 -20.7578 0)
(-130.797 -50.4838 0)
(-137.776 -77.2739 0)
(-141.595 -95.6414 0)
(-137.462 -111.582 0)
(-130.785 -122.129 0)
(-119.936 -130.743 0)
(-107.099 -137.986 0)
(-93.4976 -144.425 0)
(-81.6171 -150.066 0)
(-69.731 -154.554 0)
(-57.6143 -158.199 0)
(-48.4544 -160.473 0)