/*--------------------------------*- C++ -*----------------------------------*\
| =========                 |                                                 |
| \\      /  F ield         | OpenFOAM: The Open Source CFD Toolbox           |
|  \\    /   O peration     | Version:  v1912                                 |
|   \\  /    A nd           | Website:  www.openfoam.com                      |
|    \\/     M anipulation  |                                                 |
\*---------------------------------------------------------------------------*/
FoamFile
{
    version     2.0;
    format      ascii;
    class       volScalarField;
    location    "9.4";
    object      p;
}
// * * * * * * * * * * * * * * * * * * * * * * * * * * * * * * * * * * * * * //

dimensions      [0 2 -2 0 0 0 0];


internalField   nonuniform List<scalar> 
10000
(
2.58472e-06
0.000100253
-0.000123258
-0.000713031
-0.00161918
-0.00278534
-0.00415428
-0.00567114
-0.00728613
-0.00895523
-0.0106398
-0.0123061
-0.0139248
-0.0154705
-0.0169211
-0.0182576
-0.0194638
-0.020526
-0.0214324
-0.0221735
-0.0227415
-0.0231301
-0.0233347
-0.0233519
-0.0231795
-0.0228167
-0.0222635
-0.0215209
-0.0205909
-0.0194762
-0.0181805
-0.0167079
-0.0150634
-0.0132525
-0.0112813
-0.00915648
-0.00688514
-0.0044749
-0.00193382
0.00072965
0.00350667
0.00638805
0.00936425
0.0124254
0.0155615
0.0187621
0.0220167
0.0253144
0.0286442
0.0319951
0.0353558
0.0387148
0.0420609
0.0453824
0.0486681
0.0519064
0.055086
0.0581956
0.0612241
0.0641606
0.0669944
0.0697151
0.0723126
0.0747772
0.0770996
0.079271
0.0812831
0.0831282
0.0847992
0.08629
0.0875947
0.0887089
0.0896285
0.0903507
0.0908737
0.0911967
0.0913202
0.0912459
0.0909769
0.0905176
0.0898742
0.0890542
0.0880672
0.0869245
0.0856396
0.084228
0.0827078
0.0810998
0.0794275
0.077718
0.0760017
0.0743131
0.0726913
0.0711801
0.0698281
0.0686885
0.0678152
0.0672596
0.0670643
0.0671755
-9.12303e-05
5.27223e-06
-0.000212244
-0.000739284
-0.00152478
-0.00252914
-0.00371047
-0.00502537
-0.0064326
-0.00789434
-0.0093764
-0.0108482
-0.0122828
-0.0136562
-0.0149475
-0.0161386
-0.0172136
-0.0181592
-0.0189637
-0.0196176
-0.0201129
-0.0204433
-0.0206039
-0.0205909
-0.0204019
-0.0200356
-0.0194917
-0.0187709
-0.0178746
-0.0168051
-0.0155657
-0.01416
-0.0125924
-0.0108681
-0.00899268
-0.00697226
-0.0048135
-0.00252353
-0.000109884
0.00241949
0.00505628
0.00779179
0.010617
0.0135227
0.0164992
0.0195367
0.0226252
0.0257545
0.0289141
0.0320934
0.0352819
0.0384686
0.0416428
0.0447936
0.0479102
0.0509817
0.0539975
0.0569468
0.0598192
0.0626044
0.0652924
0.0678733
0.0703377
0.0726766
0.0748813
0.0769435
0.0788557
0.0806106
0.0822019
0.0836238
0.0848712
0.08594
0.0868268
0.0875292
0.0880458
0.0883761
0.0885212
0.0884829
0.0882645
0.0878708
0.0873079
0.0865834
0.0857069
0.0846893
0.0835439
0.0822857
0.0809321
0.0795028
0.07802
0.0765089
0.0749973
0.0735166
0.072101
0.070788
0.069618
0.0686326
0.0678712
0.0673698
0.067175
0.0672866
0.000132382
0.000223607
6.31755e-06
-0.000488458
-0.00120535
-0.00211138
-0.00317258
-0.00435281
-0.00561701
-0.00693226
-0.00826826
-0.00959743
-0.0108949
-0.0121386
-0.0133088
-0.0143883
-0.015362
-0.0162168
-0.0169416
-0.017527
-0.017965
-0.0182493
-0.0183748
-0.0183378
-0.0181356
-0.0177666
-0.0172304
-0.0165271
-0.0156581
-0.0146254
-0.0134316
-0.0120803
-0.0105754
-0.00892166
-0.00712432
-0.00518911
-0.0031223
-0.000930586
0.00137889
0.00379861
0.00632067
0.00893683
0.0116385
0.0144169
0.0172628
0.0201669
0.0231195
0.026111
0.0291313
0.0321704
0.0352181
0.038264
0.0412979
0.0443093
0.047288
0.0502235
0.0531058
0.0559246
0.0586699
0.0613321
0.0639016
0.066369
0.0687255
0.0709625
0.0730718
0.0750457
0.0768771
0.0785592
0.0800861
0.0814525
0.0826537
0.083686
0.0845464
0.0852327
0.085744
0.08608
0.0862419
0.0862318
0.0860532
0.0857109
0.0852108
0.0845608
0.0837698
0.0828489
0.0818106
0.0806694
0.0794418
0.0781465
0.0768042
0.0754382
0.0740741
0.0727401
0.0714666
0.0702861
0.0692331
0.0683423
0.0676456
0.0671735
0.0669794
0.0670923
0.000721081
0.000751529
0.000501994
6.39732e-06
-0.000684056
-0.00153948
-0.00253027
-0.00362524
-0.00479394
-0.00600751
-0.007239
-0.00846359
-0.00965865
-0.0108038
-0.0118807
-0.0128733
-0.0137673
-0.0145503
-0.0152115
-0.0157418
-0.0161336
-0.0163805
-0.0164777
-0.0164212
-0.0162085
-0.0158377
-0.0153081
-0.01462
-0.0137742
-0.0127726
-0.0116176
-0.0103124
-0.00886074
-0.007267
-0.00553606
-0.00367337
-0.00168483
0.000423203
0.00264393
0.00497019
0.00739445
0.00990884
0.0125052
0.015175
0.0179095
0.0206998
0.0235367
0.0264107
0.0293124
0.032232
0.0351598
0.0380859
0.0410005
0.0438934
0.0467549
0.0495751
0.0523441
0.0550522
0.05769
0.0602481
0.0627174
0.065089
0.0673544
0.0695054
0.0715344
0.0734339
0.0751973
0.0768183
0.0782911
0.0796109
0.0807733
0.0817749
0.0826129
0.0832856
0.083792
0.0841322
0.0843074
0.0843199
0.0841731
0.0838717
0.0834218
0.0828307
0.0821075
0.0812624
0.0803075
0.0792567
0.0781255
0.0769314
0.0756937
0.0744337
0.073175
0.0719428
0.0707642
0.069668
0.0686841
0.0678427
0.0671718
0.0666997
0.0664774
0.0665391
0.00162747
0.00153974
0.00122107
0.000696011
3.05137e-06
-0.000831167
-0.00178061
-0.00281846
-0.00391841
-0.00505527
-0.00620523
-0.00734614
-0.0084576
-0.00952103
-0.0105196
-0.0114384
-0.0122641
-0.012985
-0.013591
-0.0140733
-0.0144246
-0.0146388
-0.0147112
-0.0146378
-0.0144161
-0.0140442
-0.0135213
-0.0128476
-0.0120236
-0.0110511
-0.00993228
-0.00867004
-0.0072679
-0.00572997
-0.00406085
-0.00226567
-0.000350016
0.00168007
0.00381813
0.00605732
0.00839046
0.01081
0.0133082
0.0158768
0.0185076
0.0211919
0.0239209
0.0266856
0.0294768
0.0322853
0.0351016
0.0379163
0.0407199
0.0435028
0.0462556
0.0489686
0.0516326
0.0542382
0.0567764
0.0592381
0.0616147
0.0638977
0.066079
0.0681508
0.0701056
0.0719367
0.0736374
0.075202
0.0766251
0.0779019
0.0790286
0.0800017
0.0808189
0.0814786
0.08198
0.0823233
0.0825097
0.0825416
0.0824224
0.0821566
0.0817501
0.0812101
0.080545
0.0797649
0.0788811
0.0779065
0.0768558
0.0757451
0.0745923
0.073417
0.0722402
0.0710848
0.0699747
0.0689351
0.0679922
0.067172
0.0664996
0.0660003
0.0657145
0.0656684
0.00279836
0.00255121
0.0021328
0.00155258
0.000831393
-7.50826e-06
-0.000941239
-0.00194699
-0.00300223
-0.00408507
-0.00517468
-0.00625143
-0.0072971
-0.00829491
-0.00922959
-0.0100874
-0.010856
-0.0115246
-0.0120837
-0.0125251
-0.0128418
-0.0130281
-0.0130793
-0.0129917
-0.0127628
-0.0123907
-0.0118747
-0.0112146
-0.0104112
-0.00946576
-0.00838047
-0.00715799
-0.00580165
-0.00431529
-0.00270328
-0.000970465
0.000877843
0.00283591
0.00489758
0.00705632
0.00930527
0.0116372
0.0140447
0.0165199
0.0190548
0.0216412
0.0242706
0.0269343
0.0296236
0.0323295
0.035043
0.0377551
0.0404565
0.0431381
0.0457908
0.0484054
0.0509728
0.0534843
0.055931
0.0583044
0.0605961
0.0627979
0.0649022
0.0669014
0.0687885
0.070557
0.0722005
0.0737136
0.0750912
0.0763288
0.0774226
0.0783696
0.0791676
0.0798149
0.080311
0.0806563
0.0808518
0.0808999
0.0808039
0.0805683
0.0801986
0.0797016
0.0790854
0.0783595
0.0775345
0.0766224
0.0756369
0.0745928
0.0735065
0.0723956
0.0712794
0.0701778
0.0691123
0.0681048
0.0671777
0.0663538
0.0656549
0.0651037
0.0647243
0.064529
0.00418068
0.00374737
0.00320602
0.002549
0.0017773
0.000910921
-2.99567e-05
-0.00102618
-0.00205862
-0.00310844
-0.00415748
-0.00518853
-0.00618541
-0.00713313
-0.00801792
-0.0088273
-0.00955002
-0.0101761
-0.0106968
-0.0111044
-0.0113926
-0.0115558
-0.0115897
-0.0114907
-0.0112565
-0.0108853
-0.0103762
-0.00972915
-0.00894481
-0.00802444
-0.00696998
-0.00578398
-0.00446954
-0.00303033
-0.00147049
0.000205354
0.00199215
0.00388443
0.00587634
0.00796162
0.0101337
0.0123856
0.0147103
0.0171002
0.0195476
0.0220447
0.0245832
0.0271549
0.0297513
0.0323638
0.0349838
0.0376024
0.0402108
0.0428003
0.0453621
0.0478873
0.0503672
0.0527933
0.0551572
0.0574506
0.0596654
0.0617939
0.0638287
0.0657624
0.0675885
0.0693004
0.0708924
0.0723591
0.0736956
0.0748977
0.0759619
0.0768851
0.0776653
0.078301
0.0787916
0.0791376
0.07934
0.0794011
0.0793241
0.079113
0.0787734
0.0783115
0.0777349
0.0770525
0.0762743
0.0754113
0.0744761
0.0734823
0.0724448
0.0713796
0.0703036
0.0692348
0.0681919
0.067194
0.0662604
0.0654102
0.0646632
0.0640389
0.0635428
0.0631711
0.00572442
0.0050887
0.00440785
0.00365697
0.00281658
0.00190383
0.000936573
-6.93355e-05
-0.00109785
-0.00213287
-0.00315874
-0.00416044
-0.00512375
-0.00603538
-0.00688305
-0.00765552
-0.00834262
-0.00893525
-0.0094254
-0.00980607
-0.0100713
-0.0102161
-0.0102363
-0.0101287
-0.009891
-0.00952158
-0.00901967
-0.00838517
-0.0076187
-0.00672147
-0.00569534
-0.0045427
-0.00326651
-0.00187027
-0.000357937
0.00126607
0.00299692
0.00482938
0.00675782
0.00877629
0.0108785
0.0130577
0.0153071
0.0176195
0.0199875
0.0224034
0.0248595
0.0273477
0.0298598
0.0323877
0.0349228
0.0374568
0.0399811
0.0424874
0.0449669
0.0474114
0.0498124
0.0521616
0.0544508
0.0566722
0.0588179
0.0608806
0.0628528
0.0647279
0.0664991
0.0681605
0.0697063
0.0711314
0.0724311
0.0736013
0.0746387
0.0755403
0.0763042
0.0769289
0.0774139
0.0777595
0.0779667
0.0780378
0.0779756
0.077784
0.0774681
0.0770339
0.0764884
0.0758398
0.0750972
0.0742711
0.0733728
0.0724146
0.0714101
0.0703736
0.0693201
0.0682656
0.0672263
0.0662188
0.0652595
0.0643645
0.0635514
0.062837
0.0622074
0.0616423
0.00738504
0.00653817
0.00570669
0.00484908
0.00392565
0.00295117
0.00194161
0.000909874
-0.000130774
-0.00116671
-0.00218453
-0.00317125
-0.00411448
-0.00500255
-0.00582458
-0.00657057
-0.00723141
-0.00779891
-0.00826581
-0.00862578
-0.00887338
-0.00900403
-0.009014
-0.00890036
-0.00866093
-0.00829431
-0.00779979
-0.00717734
-0.00642758
-0.00555171
-0.00455151
-0.00342931
-0.00218793
-0.000830703
0.00063856
0.00221562
0.00389581
0.00567412
0.00754516
0.00950318
0.0115421
0.0136556
0.015837
0.0180794
0.0203756
0.0227182
0.0250998
0.0275127
0.0299488
0.0324004
0.0348591
0.037317
0.0397657
0.0421971
0.0446028
0.0469749
0.0493051
0.0515854
0.0538079
0.0559649
0.0580489
0.0600528
0.0619694
0.0637921
0.0655146
0.067131
0.0686357
0.0700238
0.0712907
0.0724325
0.0734459
0.0743281
0.075077
0.0756914
0.0761706
0.0765148
0.076725
0.0768032
0.0767521
0.0765753
0.0762774
0.0758641
0.0753418
0.074718
0.0740012
0.0732008
0.0723272
0.0713916
0.0704061
0.0693834
0.0683369
0.0672807
0.0662287
0.0651953
0.0641943
0.0632391
0.0623454
0.0615279
0.0607535
0.0599855
0.00912389
0.00806223
0.00707321
0.00609951
0.00508196
0.00403348
0.00296855
0.00189747
0.000831064
-0.000219277
-0.00124217
-0.00222651
-0.00316159
-0.00403724
-0.00484394
-0.00557287
-0.00621596
-0.00676592
-0.00721627
-0.00756131
-0.00779616
-0.00791672
-0.00791964
-0.00780231
-0.0075628
-0.00719988
-0.00671296
-0.00610209
-0.00536793
-0.0045117
-0.00353516
-0.00244056
-0.00123065
9.13615e-05
0.00152181
0.0030566
0.00469125
0.0064209
0.00824034
0.0101441
0.0121262
0.0141807
0.016301
0.0184806
0.0207124
0.0229894
0.0253043
0.0276497
0.0300179
0.0324012
0.0347917
0.0371816
0.0395629
0.0419275
0.0442676
0.0465752
0.0488425
0.0510616
0.053225
0.0553251
0.0573546
0.0593065
0.0611739
0.0629505
0.0646301
0.0662069
0.0676755
0.069031
0.0702691
0.0713859
0.072378
0.0732428
0.0739783
0.074583
0.0750563
0.0753983
0.0756099
0.0756927
0.0756492
0.0754828
0.0751978
0.0747991
0.0742929
0.0736858
0.0729857
0.0722011
0.0713413
0.0704166
0.0694376
0.0684157
0.0673627
0.0662908
0.0652123
0.0641392
0.0630833
0.0620553
0.0610697
0.0601396
0.059213
0.058238
0.0109075
0.00963089
0.00848054
0.00738423
0.00626424
0.0051321
0.0040012
0.0028796
0.00177597
0.00069974
-0.000339547
-0.00133247
-0.00226986
-0.00314297
-0.00394352
-0.00466383
-0.00529684
-0.00583613
-0.00627598
-0.00661136
-0.00683794
-0.0069521
-0.0069509
-0.00683205
-0.00659393
-0.00623549
-0.00575631
-0.00515654
-0.00443689
-0.00359863
-0.00264351
-0.00157377
-0.0003921
0.000898383
0.00229413
0.00379119
0.00538521
0.0070715
0.00884501
0.0107004
0.012632
0.0146339
0.0167
0.0188237
0.0209983
0.0232171
0.0254728
0.0277583
0.0300663
0.0323892
0.0347194
0.0370492
0.0393709
0.0416768
0.0439591
0.04621
0.048422
0.0505875
0.0526991
0.0547493
0.0567312
0.0586378
0.0604626
0.0621991
0.0638413
0.0653838
0.0668211
0.0681484
0.0693615
0.0704565
0.0714301
0.0722796
0.0730031
0.0735989
0.0740664
0.0744056
0.074617
0.0747022
0.0746634
0.0745036
0.0742266
0.0738371
0.0733404
0.0727428
0.0720512
0.0712734
0.0704179
0.0694936
0.0685101
0.0674776
0.0664064
0.065307
0.06419
0.0630658
0.0619439
0.0608332
0.0597472
0.0586976
0.0576145
0.0564317
0.0127072
0.0112175
0.00990431
0.0086811
0.00745258
0.00622931
0.00502396
0.0038427
0.00269229
0.00158045
0.000515107
-0.000495855
-0.00144468
-0.0023239
-0.00312643
-0.00384562
-0.00447538
-0.00501015
-0.00544496
-0.00577542
-0.00599777
-0.00610887
-0.00610618
-0.00598778
-0.00575232
-0.00539901
-0.00492761
-0.00433838
-0.00363215
-0.0028102
-0.00187432
-0.000826753
0.00032984
0.00159239
0.00295745
0.00442118
0.00597935
0.00762741
0.00936045
0.0111733
0.0130604
0.0150161
0.0170344
0.0191091
0.0212335
0.0234011
0.025605
0.0278381
0.0300933
0.0323634
0.0346409
0.0369183
0.0391882
0.041443
0.043675
0.0458769
0.0480411
0.0501602
0.0522271
0.0542345
0.0561755
0.0580433
0.0598314
0.0615337
0.0631442
0.0646574
0.0660681
0.0673715
0.0685634
0.0696399
0.0705978
0.0714342
0.0721471
0.072735
0.073197
0.0735328
0.073743
0.0738287
0.0737919
0.0736352
0.0733621
0.0729767
0.0724838
0.0718891
0.0711989
0.07042
0.0695601
0.0686271
0.0676297
0.0665766
0.0654769
0.0643398
0.0631744
0.0619895
0.0607929
0.0595916
0.0583987
0.0572249
0.0559833
0.0545942
0.014498
0.0127987
0.0113225
0.00996982
0.00862846
0.00730841
0.00602194
0.00477359
0.0035685
0.00241291
0.0013133
0.000276193
-0.000691943
-0.00158482
-0.00239642
-0.00312111
-0.00375369
-0.0042894
-0.004724
-0.00505376
-0.00527546
-0.00538646
-0.00538461
-0.00526836
-0.00503666
-0.00468897
-0.00422525
-0.00364595
-0.00295196
-0.00214465
-0.00122586
-0.000197822
0.000936794
0.00217495
0.00351325
0.00494794
0.00647492
0.00808974
0.00978764
0.0115635
0.0134121
0.0153278
0.0173047
0.0193368
0.0214178
0.0235412
0.0257003
0.0278883
0.0300981
0.0323228
0.034555
0.0367875
0.039013
0.0412241
0.0434134
0.0455735
0.0476971
0.049777
0.0518061
0.0537774
0.055684
0.0575194
0.059277
0.0609508
0.062535
0.064024
0.0654127
0.0666965
0.0678709
0.0689322
0.0698771
0.0707027
0.0714068
0.0719878
0.0724446
0.0727769
0.072985
0.0730696
0.0730325
0.072876
0.0726031
0.0722174
0.0717233
0.0711258
0.0704305
0.0696436
0.0687717
0.0678221
0.0668023
0.0657201
0.0645833
0.0633999
0.0621777
0.0609242
0.0596456
0.0583478
0.0570431
0.0557421
0.0543416
0.052749
0.0162585
0.0143534
0.0127154
0.0112319
0.00977474
0.00835374
0.00698095
0.00565955
0.00439332
0.0031872
0.00204641
0.000976264
-1.79265e-05
-0.000930953
-0.00175781
-0.00249377
-0.00313446
-0.00367592
-0.00411457
-0.00444733
-0.00467153
-0.00478499
-0.004786
-0.00467334
-0.00444627
-0.00410452
-0.00364827
-0.00307814
-0.00239516
-0.0016008
-0.00069691
0.000314216
0.00142991
0.00264716
0.00396257
0.00537245
0.0068728
0.00845926
0.0101272
0.0118717
0.0136874
0.0155691
0.0175109
0.0195069
0.0215511
0.023637
0.0257583
0.0279081
0.0300797
0.0322661
0.0344603
0.0366552
0.0388436
0.0410183
0.043172
0.0452975
0.0473877
0.0494353
0.0514335
0.0533753
0.055254
0.057063
0.0587961
0.0604471
0.0620103
0.0634801
0.0648515
0.0661198
0.0672806
0.06833
0.0692647
0.0700818
0.0707788
0.0713542
0.0718065
0.0721353
0.0723406
0.072423
0.0723838
0.072225
0.0719491
0.0715593
0.0710596
0.0704542
0.0697483
0.0689472
0.068057
0.0670838
0.0660345
0.0649157
0.0637343
0.0624974
0.0612114
0.0598828
0.0585167
0.0571175
0.0556977
0.0542676
0.0527088
0.0509162
0.0179696
0.0158633
0.0140652
0.0124503
0.0108756
0.00935061
0.00788752
0.00648836
0.00515575
0.00389351
0.00270577
0.00159677
0.000570784
-0.000367956
-0.00121537
-0.00196758
-0.00262099
-0.00317236
-0.00361877
-0.00395773
-0.00418712
-0.00430524
-0.00431078
-0.00420287
-0.00398109
-0.00364541
-0.00319626
-0.00263444
-0.00196115
-0.00117793
-0.000286748
0.000710095
0.00180991
0.00300967
0.00430602
0.00569527
0.00717348
0.00873639
0.0103794
0.0120978
0.0138864
0.0157399
0.0176527
0.0196189
0.0216327
0.0236878
0.025778
0.0278965
0.0300368
0.0321921
0.0343554
0.0365198
0.0386782
0.0408236
0.0429488
0.0450468
0.0471104
0.0491326
0.0511065
0.0530254
0.0548825
0.0566713
0.0583857
0.0600195
0.0615669
0.0630226
0.0643812
0.0656382
0.0667892
0.0678302
0.0687576
0.0695686
0.0702606
0.0708317
0.0712804
0.0716061
0.0718083
0.0718876
0.0718449
0.0716817
0.0714002
0.0710032
0.070494
0.0698765
0.0691551
0.0683346
0.0674203
0.0664177
0.0653325
0.0641709
0.0629388
0.0616421
0.0602866
0.0588777
0.0574194
0.0559153
0.054378
0.0528179
0.051102
0.0491133
0.019615
0.0173119
0.0153557
0.0136098
0.0119164
0.0102853
0.00872891
0.00724832
0.00584512
0.00452219
0.00328272
0.00213
0.00106739
9.82233e-05
-0.000774251
-0.00154696
-0.00221703
-0.00278187
-0.00323921
-0.00358711
-0.00382396
-0.00394852
-0.00395993
-0.00385766
-0.00364157
-0.00331192
-0.00286935
-0.00231485
-0.00164979
-0.000875869
4.88666e-06
0.000990107
0.00207708
0.00326278
0.00454383
0.00591658
0.0073771
0.0089212
0.0105444
0.012242
0.0140089
0.01584
0.0177297
0.0196723
0.0216621
0.0236929
0.0257585
0.0278525
0.0299684
0.0320994
0.0342388
0.0363797
0.0385151
0.0406382
0.0427419
0.0448192
0.046863
0.0488665
0.0508228
0.0527251
0.0545668
0.0563415
0.058043
0.0596651
0.0612021
0.0626485
0.0639991
0.0652492
0.0663942
0.0674301
0.0683534
0.0691609
0.0698499
0.0704184
0.0708647
0.0711877
0.071387
0.0714627
0.0714153
0.0712461
0.0709569
0.07055
0.0700282
0.0693949
0.068654
0.0678096
0.0668664
0.0658292
0.0647031
0.0634933
0.0622051
0.0608436
0.0594137
0.0579202
0.0563662
0.0547545
0.053098
0.0514076
0.0495361
0.0473553
0.0211798
0.0186844
0.0165724
0.014696
0.0128835
0.0111449
0.00949306
0.00792819
0.00645108
0.00506378
0.00376866
0.0025682
0.00146492
0.000461385
-0.000439944
-0.00123671
-0.00192674
-0.00250807
-0.00297899
-0.00333809
-0.00358426
-0.00371673
-0.003735
-0.00363894
-0.00342871
-0.00310482
-0.00266813
-0.00211984
-0.00146147
-0.00069488
0.000177795
0.00115411
0.00223131
0.00340635
0.00467587
0.00603621
0.00748346
0.00901344
0.0106217
0.0123037
0.0140544
0.0158687
0.0177413
0.0196664
0.0216384
0.0236512
0.0256988
0.0277749
0.029873
0.0319865
0.0341089
0.0362331
0.0383525
0.0404602
0.0425491
0.0446125
0.0466433
0.0486347
0.0505799
0.052472
0.0543046
0.0560711
0.0577654
0.0593814
0.0609133
0.0623554
0.0637027
0.0649501
0.0660931
0.0671276
0.0680499
0.0688567
0.0695451
0.0701128
0.070558
0.0708793
0.071076
0.0711479
0.0710953
0.070919
0.0706204
0.0702014
0.0696645
0.0690124
0.0682485
0.0673764
0.0664002
0.0653241
0.0641525
0.0628901
0.0615414
0.0601109
0.0586028
0.0570211
0.0553686
0.0536472
0.0518706
0.0500497
0.0480244
0.0456552
0.0226511
0.0199674
0.017702
0.015696
0.0137643
0.0119175
0.0101685
0.00851722
0.00696359
0.00550899
0.00415508
0.00290358
0.00175632
0.000715137
-0.000218192
-0.00104199
-0.0017547
-0.00235497
-0.00284163
-0.00321377
-0.00347074
-0.00361219
-0.00363803
-0.00354846
-0.00334399
-0.00302537
-0.00259368
-0.00205033
-0.001397
-0.000635682
0.000231343
0.00120154
0.00227209
0.00343992
0.00470166
0.00605365
0.00749199
0.00901252
0.0106108
0.0122824
0.0140222
0.0158254
0.0176865
0.0196001
0.0215604
0.0235616
0.0255976
0.0276623
0.0297492
0.031852
0.0339639
0.0360784
0.0381885
0.0402876
0.0423686
0.0444248
0.0464492
0.048435
0.0503755
0.0522638
0.0540934
0.0558578
0.0575507
0.0591661
0.0606981
0.062141
0.0634896
0.0647388
0.065884
0.0669208
0.0678455
0.0686544
0.0693447
0.0699137
0.0703594
0.0706802
0.0708751
0.0709435
0.0708854
0.0707012
0.0703921
0.0699595
0.0694053
0.0687319
0.0679422
0.0670393
0.0660267
0.0649081
0.0636875
0.0623687
0.0609558
0.0594527
0.0578631
0.0561906
0.0544372
0.0526046
0.0507071
0.0487562
0.0465786
0.0440245
0.024017
0.0211488
0.0187322
0.0165978
0.0145472
0.0125915
0.0107444
0.00900509
0.00737294
0.00584874
0.00443351
0.00312834
0.00193441
0.000852925
-0.000114967
-0.000968191
-0.00170579
-0.00232696
-0.00283106
-0.00321764
-0.00348651
-0.00363768
-0.00367148
-0.00358843
-0.00338935
-0.00307528
-0.00264753
-0.00210768
-0.00145759
-0.000699398
0.000164492
0.00113143
0.00219852
0.00336262
0.00462036
0.00596807
0.00740186
0.00891756
0.0105108
0.012177
0.0139114
0.0157089
0.0175643
0.0194722
0.021427
0.0234227
0.0254535
0.0275132
0.0295955
0.0316941
0.0338024
0.0359137
0.0380213
0.0401184
0.0421982
0.0442539
0.0462785
0.0482653
0.0502074
0.0520982
0.053931
0.0556992
0.0573966
0.059017
0.0605545
0.0620033
0.0633581
0.0646136
0.0657651
0.0668082
0.0677387
0.068553
0.0692478
0.0698205
0.0702687
0.0705904
0.0707845
0.07085
0.0707865
0.0705943
0.0702739
0.0698264
0.0692535
0.068557
0.0677392
0.066803
0.0657513
0.0645873
0.0633144
0.0619361
0.060456
0.0588774
0.0572038
0.0554381
0.0535821
0.0516372
0.0496182
0.0475375
0.0452092
0.0424732
0.0252667
0.0222174
0.0196518
0.01739
0.0152209
0.0131563
0.0112103
0.00938184
0.00766968
0.00607411
0.00459561
0.00323469
0.00199197
0.000868065
-0.000136428
-0.00102099
-0.0017852
-0.00242878
-0.00295157
-0.0033536
-0.00363507
-0.0037964
-0.00383823
-0.00376145
-0.00356717
-0.0032567
-0.0028316
-0.00229365
-0.00164487
-0.000887533
-2.41745e-05
0.00094244
0.00200932
0.00317325
0.00443081
0.00577833
0.00721191
0.0087274
0.0103204
0.0119864
0.0137206
0.015518
0.0173734
0.0192815
0.0212366
0.0232331
0.0252649
0.0273261
0.0294103
0.0315112
0.0336223
0.0357371
0.0378488
0.0399507
0.042036
0.0440978
0.0461292
0.0481234
0.0500737
0.0519732
0.0538153
0.0555934
0.0573011
0.0589321
0.0604805
0.0619404
0.0633063
0.0645728
0.0657351
0.0667883
0.0677284
0.0685514
0.0692539
0.0698328
0.0702856
0.0706101
0.0708048
0.0708683
0.0708001
0.0705999
0.0702679
0.069805
0.0692123
0.0684912
0.0676438
0.0666722
0.0655792
0.0643674
0.0630398
0.0615995
0.0600496
0.0583932
0.0566333
0.0547726
0.0528126
0.0507543
0.0486136
0.0464034
0.0439258
0.0410102
0.0263903
0.023163
0.0204503
0.0180622
0.0157752
0.0136016
0.0115564
0.0096379
0.00784461
0.00617633
0.00463307
0.00321482
0.00192168
0.000753741
-0.000288909
-0.00120625
-0.00199836
-0.00266543
-0.00320778
-0.00362587
-0.00392031
-0.00409187
-0.00414155
-0.00407053
-0.00388021
-0.00357219
-0.00314825
-0.0026104
-0.00196083
-0.00120195
-0.000336424
0.000632882
0.00170287
0.00287025
0.00413152
0.00548298
0.00692072
0.00844061
0.0100383
0.0117091
0.0134484
0.0152511
0.0171122
0.0190262
0.0209878
0.022991
0.0250301
0.027099
0.0291915
0.0313013
0.0334219
0.0355468
0.0376692
0.0397825
0.0418799
0.0439544
0.0459991
0.0480073
0.0499721
0.0518867
0.0537443
0.0555383
0.0572623
0.0589097
0.0604746
0.0619509
0.0633329
0.0646152
0.0657926
0.0668604
0.067814
0.0686493
0.0693626
0.0699506
0.0704105
0.0707399
0.0709369
0.0709998
0.0709277
0.0707201
0.0703768
0.0698982
0.0692851
0.0685385
0.0676602
0.0666519
0.0655158
0.0642544
0.0628701
0.0613658
0.0597442
0.058008
0.05616
0.0542028
0.0521375
0.0499651
0.0477023
0.0453629
0.0427369
0.0396438
0.0273785
0.0239756
0.0211176
0.0186042
0.0161999
0.0139176
0.0117729
0.00976395
0.00788876
0.00614681
0.00453768
0.00306093
0.00171617
0.000503022
-0.000578905
-0.00153005
-0.00235095
-0.00304222
-0.00360462
-0.00403903
-0.00434645
-0.00452802
-0.00458505
-0.00451902
-0.0043316
-0.00402465
-0.0036002
-0.00306047
-0.00240784
-0.00164488
-0.000774361
0.000200741
0.00127723
0.00245173
0.00372065
0.00508024
0.00652657
0.00805548
0.00966262
0.0113434
0.0130931
0.0149066
0.016779
0.0187048
0.0206786
0.0226947
0.0247473
0.0268303
0.0289374
0.0310625
0.0331991
0.0353406
0.0374804
0.0396118
0.0417278
0.0438216
0.0458864
0.0479151
0.0499008
0.0518368
0.0537162
0.0555323
0.0572784
0.0589481
0.060535
0.0620331
0.0634365
0.0647396
0.065937
0.0670236
0.0679948
0.0688462
0.0695739
0.0701742
0.0706441
0.0709808
0.071182
0.0712461
0.0711715
0.0709574
0.0706033
0.0701092
0.0694756
0.0687032
0.0677932
0.0667472
0.0655668
0.0642543
0.0628119
0.0612419
0.0595469
0.0577293
0.0557918
0.0537368
0.0515652
0.049278
0.0468927
0.0444243
0.0416505
0.0383814
0.0282225
0.0246463
0.0216444
0.0190067
0.0164856
0.0140948
0.0118506
0.00975091
0.00779332
0.00597703
0.00430127
0.0027652
0.001368
0.000108854
-0.00101308
-0.00199866
-0.00284885
-0.00356467
-0.00414728
-0.00459795
-0.00491805
-0.00510909
-0.00517269
-0.00511061
-0.0049248
-0.00461735
-0.00419052
-0.00364676
-0.00298864
-0.00221889
-0.00134042
-0.00035631
0.000730158
0.00191551
0.00319608
0.00456806
0.00602744
0.00757006
0.00919155
0.0108873
0.0126526
0.0144825
0.0163718
0.0183152
0.0203072
0.0223422
0.0244144
0.0265177
0.0286459
0.0307928
0.0329519
0.0351167
0.0372804
0.0394364
0.0415777
0.0436975
0.0457888
0.0478445
0.0498578
0.0518216
0.0537291
0.0555734
0.0573478
0.0590457
0.0606605
0.062186
0.0636162
0.0649451
0.0661673
0.0672775
0.0682707
0.0691423
0.0698881
0.0705041
0.070987
0.0713338
0.0715418
0.071609
0.0715336
0.0713143
0.0709505
0.0704416
0.0697878
0.0689895
0.0680476
0.0669632
0.0657379
0.0643733
0.0628715
0.0612347
0.059465
0.0575648
0.0555366
0.0533826
0.0511038
0.0487011
0.046193
0.0435953
0.0406742
0.0372297
0.028914
0.0251663
0.0220217
0.0192604
0.0166231
0.0141241
0.0117805
0.00958986
0.0075496
0.00565859
0.00391572
0.00231982
0.000869676
-0.000435927
-0.00159824
-0.00261854
-0.00349817
-0.00423856
-0.00484122
-0.00530778
-0.00563997
-0.00583965
-0.00590875
-0.00584934
-0.0056636
-0.00535386
-0.00492261
-0.00437249
-0.00370628
-0.00292689
-0.00203736
-0.0010409
5.91138e-05
0.00125913
0.00255543
0.00394409
0.00542105
0.00698211
0.00862287
0.0103387
0.012125
0.0139766
0.0158884
0.0178552
0.0198714
0.0219313
0.0240293
0.0261592
0.0283148
0.03049
0.0326781
0.0348727
0.037067
0.0392543
0.0414275
0.0435799
0.0457044
0.0477938
0.0498411
0.0518393
0.0537813
0.0556602
0.057469
0.0592011
0.0608497
0.0624084
0.0638709
0.0652311
0.0664832
0.0676218
0.0686416
0.0695377
0.0703057
0.0709412
0.0714406
0.0718006
0.0720181
0.0720909
0.0720167
0.071794
0.0714217
0.0708991
0.0702259
0.0694021
0.0684284
0.0673055
0.0660348
0.0646176
0.0630557
0.061351
0.0595057
0.0575219
0.0554019
0.053148
0.0507611
0.0482422
0.0456107
0.0428835
0.039815
0.0361955
0.0294449
0.0255269
0.0222406
0.0193564
0.0166034
0.0139965
0.0115536
0.00927204
0.00714901
0.00518309
0.00337289
0.00171692
0.000213615
-0.0011386
-0.00234136
-0.00339633
-0.00430524
-0.00506988
-0.00569212
-0.00617391
-0.00651734
-0.00672456
-0.00679785
-0.00673954
-0.00655209
-0.00623806
-0.00580015
-0.00524118
-0.00456413
-0.00377208
-0.00286826
-0.00185597
-0.000738716
0.000479885
0.00179602
0.00320573
0.00470486
0.00628915
0.00795415
0.00969527
0.0115077
0.0133866
0.0153266
0.0173225
0.0193688
0.0214598
0.0235897
0.0257524
0.0279419
0.0301517
0.0323754
0.0346064
0.036838
0.0390632
0.0412751
0.0434668
0.0456311
0.0477609
0.0498489
0.051888
0.0538711
0.0557909
0.0576406
0.059413
0.0611015
0.0626993
0.0641998
0.0655969
0.0668843
0.0680565
0.0691078
0.070033
0.0708275
0.0714866
0.0720062
0.0723828
0.072613
0.0726941
0.0726236
0.0723997
0.0720207
0.0714858
0.0707942
0.0699458
0.0689408
0.0677797
0.0664635
0.0649934
0.063371
0.061598
0.0596763
0.0576079
0.0553953
0.0530407
0.0505449
0.0479089
0.0451534
0.0422961
0.0390798
0.035285
0.0298073
0.02572
0.0222926
0.0192861
0.0164177
0.0137031
0.0111611
0.00878874
0.00658297
0.00454215
0.00266463
0.000948584
-0.000607839
-0.00200656
-0.00324956
-0.00433887
-0.00527659
-0.00606487
-0.00670591
-0.00720201
-0.00755553
-0.00776897
-0.00784487
-0.00778587
-0.0075947
-0.00727415
-0.00682712
-0.00625664
-0.00556584
-0.00475799
-0.00383647
-0.00280475
-0.00166643
-0.000425229
0.000914976
0.00235015
0.00387608
0.00548844
0.00718272
0.00895429
0.0107983
0.0127099
0.0146838
0.0167147
0.018797
0.0209251
0.0230931
0.025295
0.0275247
0.0297757
0.0320415
0.0343155
0.036591
0.0388609
0.0411182
0.043356
0.0455669
0.0477437
0.0498792
0.051966
0.0539967
0.0559642
0.0578611
0.0596803
0.0614149
0.0630578
0.0646024
0.0660421
0.0673705
0.0685816
0.0696695
0.0706289
0.0714544
0.0721415
0.0726855
0.0730825
0.0733289
0.0734214
0.0733575
0.0731347
0.0727514
0.0722059
0.0714976
0.0706257
0.0695903
0.0683915
0.0670302
0.0655074
0.0638242
0.0619825
0.0599838
0.0578304
0.0555244
0.0530682
0.0504626
0.0477088
0.0448284
0.0418401
0.0384752
0.0345043
0.0299934
0.0257373
0.0221694
0.0190408
0.0160573
0.0132353
0.0105943
0.00813131
0.00584295
0.00372739
0.00178271
6.81686e-06
-0.00160245
-0.00304732
-0.0043301
-0.00545317
-0.00641897
-0.00722999
-0.00788879
-0.00839797
-0.0087602
-0.00897825
-0.00905497
-0.00899326
-0.00879613
-0.0084666
-0.0080078
-0.00742294
-0.00671532
-0.00588838
-0.00494564
-0.00389074
-0.0027274
-0.00145945
-9.08548e-05
0.00137429
0.00293173
0.00457706
0.0063057
0.00811297
0.00999403
0.0119439
0.0139573
0.016029
0.0181533
0.0203247
0.0225371
0.0247845
0.0270607
0.0293593
0.0316739
0.0339976
0.0363236
0.038645
0.0409546
0.0432453
0.0455096
0.0477404
0.0499301
0.0520713
0.0541566
0.0561783
0.0581292
0.0600018
0.0617889
0.0634834
0.0650782
0.0665665
0.0679417
0.0691974
0.0703274
0.0713261
0.0721878
0.0729074
0.0734803
0.0739018
0.0741682
0.0742759
0.0742217
0.074003
0.0736177
0.0730641
0.0723408
0.071447
0.0703824
0.0691471
0.0677413
0.066166
0.0644223
0.0625117
0.0604358
0.0581968
0.0557968
0.0532382
0.0505219
0.0476493
0.0446429
0.0415227
0.038008
0.0338596
0.0299955
0.0255708
0.0218624
0.018612
0.0155135
0.0125843
0.00984456
0.0072911
0.00492038
0.00273034
0.00071884
-0.00111649
-0.00277812
-0.00426856
-0.00559043
-0.00674642
-0.00773931
-0.00857194
-0.00924717
-0.00976794
-0.0101372
-0.0103581
-0.0104336
-0.0103669
-0.0101614
-0.00982018
-0.00934674
-0.00874444
-0.00801675
-0.00716726
-0.00619965
-0.00511769
-0.00392525
-0.00262629
-0.00122485
0.000274891
0.00186862
0.00355186
0.00532001
0.0071683
0.00909183
0.0110856
0.0131443
0.0152626
0.017435
0.0196557
0.0219187
0.024218
0.0265473
0.0289001
0.03127
0.0336501
0.0360336
0.0384132
0.040782
0.0431324
0.0454573
0.0477489
0.0499998
0.0522024
0.054349
0.056432
0.0584436
0.0603763
0.0622227
0.0639752
0.0656266
0.0671699
0.068598
0.0699042
0.0710822
0.0721257
0.0730289
0.0737862
0.0743927
0.0748433
0.075134
0.0752606
0.0752198
0.0750086
0.0746243
0.074065