/*--------------------------------*- C++ -*----------------------------------*\
| =========                 |                                                 |
| \\      /  F ield         | OpenFOAM: The Open Source CFD Toolbox           |
|  \\    /   O peration     | Version:  v1912                                 |
|   \\  /    A nd           | Website:  www.openfoam.com                      |
|    \\/     M anipulation  |                                                 |
\*---------------------------------------------------------------------------*/
FoamFile
{
    version     2.0;
    format      ascii;
    class       volScalarField;
    location    "0.00029";
    object      internalE;
}
// * * * * * * * * * * * * * * * * * * * * * * * * * * * * * * * * * * * * * //

dimensions      [1 -1 -2 0 0 0 0];


internalField   nonuniform List<scalar> 
1300
(
487.5783916
2412.753424
6208.859384
10030.61995
24248.78592
3624.946304
5843.471385
6658.524246
1285.166127
8201.94352
562.3024674
1246.551239
8368.502348
17906.00429
4107.549139
6256.272986
3788.442162
9055.678666
14309.26647
4763.940594
1711.141907
651.2453963
644.4291511
8216.286984
16887.23281
3157.62654
7641.682561
7228.651122
5380.045768
8474.870298
0
0
2701.064453
7618.120983
3626.216085
965.204669
6077.784079
11716.65362
4606.951261
7719.888084
0
350.5671934
4595.571424
9439.660239
3249.13894
4487.869671
3404.308735
5694.07019
7715.317535
9691.067716
0
0
816.322438
8363.486092
6602.609158
2030.666579
3606.877853
6610.610885
8552.482649
4127.93744
0
0
2871.973681
3973.19577
1999.491179
697.3666142
3680.64876
5748.170828
6233.059083
1552.504346
351.1676653
0
1396.100581
9318.183813
2907.972976
1590.050838
829.7490846
4368.901642
5912.918242
1783.820754
0
0
1741.990439
12867.29511
1119.481191
2133.761479
2200.879684
5819.995459
4722.835704
5698.775889
0
0
847.7279522
9094.8019
5127.663582
727.8197016
5686.617372
4749.344096
3751.73932
3976.012858
0
0
130.8388586
13867.37496
5656.317638
231.8828845
2216.279431
4875.794355
3998.407651
1627.654178
0
0
2796.30007
5009.309193
2916.136971
1997.613429
8638.98097
4300.393749
5795.574799
4326.083984
0
0
1181.417416
8101.987139
2990.605757
5054.524674
2405.551736
6305.255792
7761.012982
7774.849249
0
0
1991.324065
6947.494429
805.427669
474.1372872
3757.379524
6257.734612
3462.046473
2972.41282
0
249.2685922
1267.869884
7368.010447
3088.683095
1278.571352
1381.782159
5015.936202
3500.237516
4128.863503
0
0
3370.575038
4492.300372
3529.672649
856.928563
1212.290797
4382.465655
5674.052521
5619.527161
0
0
1927.722567
8647.627927
5312.704219
2456.57803
1805.480943
6450.225505
2844.594865
3476.349536
0
0
1046.584912
4607.654479
2397.659757
501.3958064
3737.589347
5291.709933
5268.071707
652.0753181
0
0
1104.278115
8853.486204
2518.848146
898.3790154
3296.123258
6034.717671
7069.703163
4757.514915
0
0
437.8065194
3333.381585
6396.343549
3193.26127
4132.138083
7682.637279
2569.86235
5628.149531
9804.458441
4179.205672
7562.378743
11726.62032
3544.00511
13716.40698
10272.82236
4348.551961
1477.042739
3766.390024
2294.505188
8507.247384
2323.138187
8736.49529
7515.389205
6980.079895
8124.657181
4870.381606
3116.339355
7759.356815
10686.52181
5988.818961
3994.944292
3381.384085
5426.645221
4214.406951
10008.37095
10989.62852
6031.922007
6691.282481
5919.543537
7626.753966
6932.255079
11427.624
5109.979217
10102.66176
8552.696096
5181.980227
5921.29294
6768.253172
4987.722057
9474.320742
10210.15426
11973.91929
7445.389369
1110.800348
9499.936976
3656.217596
12898.70896
5866.735224
9371.276171
13437.29532
8241.539646
6488.274813
6581.378981
3486.582462
8290.37088
10011.65119
8799.577767
3183.241126
7112.555429
8580.095897
11964.10352
5386.66716
6804.782085
3124.450367
8083.21964
1836.570563
7571.350201
13575.8916
6357.883946
4247.771889
3465.629933
12813.86669
4057.723065
5926.909103
12879.46867
5512.570818
10970.83591
6834.604109
7476.625819
8882.240734
9041.912662
3087.946469
7508.011572
14202.63924
5296.111992
9065.384482
3562.092367
8756.569109
5015.942998
12544.78438
9754.243393
2625.893965
9515.571986
5420.175484
4305.40513
9615.563572
13061.05352
5044.947684
3499.197042
9231.40585
320.0821409
9347.398054
5812.225477
7619.910679
5092.223776
9506.912945
7066.021645
2258.588013
5378.080207
7913.216732
5554.524076
4313.977698
10583.38861
13550.25239
5422.343962
6918.884698
4798.595077
8710.545418
7938.308199
11082.26013
8723.327889
6083.507185
3184.457659
4435.328022
3064.834281
4088.016672
4061.680807
4253.878195
2847.515201
5602.586371
5151.308933
10648.24794
5977.436893
23033.35479
5984.732613
185.2833897
2716.198685
6597.323594
5956.650648
2585.95843
17969.39579
11006.6659
7182.883134
10450.50135
3050.864186
6737.968946
3807.467923
13199.64748
6560.148041
3961.649927
4466.000429
7047.599325
4870.65174
6223.034382
10512.96581
5212.646425
3180.771333
4975.574631
11799.62072
7306.987475
7831.354613
3702.222037
10670.33141
14158.39806
7848.118687
7634.355429
4453.545351
13451.74613
1715.854518
7287.00795
5509.956777
1202.874975
10029.16856
7723.886565
4510.853715
2228.435531
11510.45586
12260.92105
4160.450815
5981.086204
6819.382778
4782.552959
9563.217058
10011.1471
3744.577975
12033.87314
6879.258253
9603.992809
3931.470817
7233.559051
7474.142192
7856.942646
15572.05783
3851.531557
8334.663755
6302.939086
9285.491748
13212.33989
4026.834159
6218.325346
8676.106741
15092.76959
5903.611286
10525.77092
6846.308046
6741.892984
3579.323973
13192.53686
3244.14024
4582.332911
6898.11748
9425.544929
9290.222666
10469.17273
8379.358571
8528.905197
5616.044661
9477.399078
3057.017652
2938.709364
4551.481248
6243.174869
9397.795595
7490.712982
11300.15031
8824.527782
10822.5954
8486.755901
3160.290919
10314.89886
7156.165136
7187.738889
7718.186483
6862.933289
4169.245365
9963.708321
4623.203891
7554.622905
4923.306064
5092.975593
1741.384853
4276.674757
10630.37432
6740.297655
2625.910277
3549.499238
8434.205201
4707.696147
2632.812046
8571.97115
8969.295269
4434.121833
9919.853806
7976.595162
10689.70557
6209.291089
6374.343157
2439.247027
8137.823088
4963.061983
17660.54858
7374.873862
5579.877959
9756.563099
6471.649714
9028.177443
5492.449412
10174.22847
4582.961575
3456.550523
3836.847542
3949.778712
4130.693916
4279.591608
3257.889464
7933.517392
5234.80195
9997.84169
8443.281582
8876.42973
7038.723631
5503.342391
7277.645999
15613.40097
12612.06309
7543.522893
5383.005975
6249.402011
5665.74915
5551.433996
10157.45912
8100.978132
6255.123048
8143.118385
8527.894304
10614.84815
12009.30332
9640.85185
1829.71207
5502.283486
6742.791471
3796.413453
2778.457172
6828.600228
8392.717835
5950.539169
4880.592585
1544.141139
5183.153533
7582.126327
4951.187576
2542.269979
6358.732787
4977.882433
4395.957263
8108.174067
13257.20695
2630.564494
5700.327326
2984.010532
11720.90997
19148.27765
7949.125622
8780.564691
9525.681866
7266.416703
9700.837311
10817.19663
2989.320753
3743.103683
8067.630009
5860.879536
6070.07599
4749.819015
4502.613156
2486.729241
3360.613147
2922.35498
2908.787809
5827.361067
7583.746366
6375.417974
5728.175661
11292.33327
11584.87247
6123.145978
7261.106526
4883.021528
5048.263409
7147.491138
7113.701203
9241.904439
2434.957029
4418.088054
3393.811042
6239.510561
3396.06832
13237.64494
3981.517816
1447.828419
3647.55213
1346.046763
4238.43853
3933.816923
9085.479172
7336.215978
7163.021613
3186.894711
4814.470542
6999.966759
7515.380987
5320.426016
2781.357231
7663.745113
11044.23616
7280.699697
7637.012093
5627.618329
6862.652131
5475.045891
5710.745327
12961.56413
7363.111108
4272.007314
9961.350584
9691.492947
3880.196017
14557.58016
3390.102565
4605.679662
3454.396678
4972.503374
6655.053166
1916.763514
4503.666847
4101.930777
1688.695081
4947.516905
5149.652876
6067.27087
8303.465188
4263.432455
4812.260847
6235.162927
5779.556277
4336.495246
8856.917837
6592.752253
5531.814312
4827.536638
3350.066837
6922.498545
13239.46042
4035.945416
6701.322884
2939.273375
8158.914905
5501.0664
4807.52075
3928.665831
4488.911042
1507.386038
6442.41802
6898.322299
6497.342355
3844.0715
3314.922994
2939.615324
3254.177739
4954.931214
3584.931441
1473.73016
4325.956894
5561.480263
4852.436391
5179.911126
8666.096773
3924.681684
3131.855855
4211.471531
5183.471334
3134.332926
4878.027783
3855.38946
10976.26426
10108.61888
6953.142399
5140.735541
4886.371469
9296.061259
3641.399603
5436.93839
4604.975462
3085.903879
2025.890582
3766.211179
2329.31068
3426.491991
3128.56404
5012.53031
5132.36899
2429.714281
5321.454846
3569.905143
6243.525824
4434.90639
6928.899747
3907.831757
7110.99104
7086.859661
6222.818622
7848.116519
3274.07634
7056.561893
8621.043791
5485.533335
4392.29887
2808.647384
6020.25784
4504.158318
5951.80775
5960.191303
2333.40681
6907.506076
3925.68
4945.171251
3764.402887
7205.849115
2604.286783
1631.781552
2620.511409
1936.301547
526.5544561
3762.503761
2030.888257
6748.243739
5321.424225
4606.256017
4547.625196
5417.709418
4076.519832
4416.40707
5485.504023
6698.505534
6019.474519
8437.188904
6520.203812
6655.052253
3268.045239
3788.913201
5104.169206
4944.033254
4273.097184
3946.416179
3280.016243
3703.639767
7829.394458
4060.941274
6509.20324
3665.500027
3430.737561
3437.413728
5584.539934
3530.083304
2316.303653
5772.959655
3685.062648
5775.283139
5031.630962
2634.324441
2844.009276
8415.098925
7141.214988
8267.578064
8777.977574
10455.88347
7630.920933
7887.896019
5391.248355
2457.960756
5051.48847
1806.863131
3498.398304
3920.187546
4110.375188
5106.273235
5159.416004
2570.985841
2400.431695
3695.649904
3838.958092
2619.604167
2838.647826
2943.573453
4363.541236
3288.022007
5914.35108
2085.701028
4015.090566
6068.108186
8834.447316
6853.659815
5892.064282
5685.352538
2819.352367
7907.371828
4813.123799
7930.188418
2448.591507
3860.448867
5513.170705
1906.315826
2592.084132
3428.678383
2308.726581
2307.310555
3057.612143
5251.393792
2575.54751
3130.027435
3699.181173
8197.323669
5558.719671
4973.148997
4708.060898
3609.271584
5463.808138
4581.266114
3199.001344
6144.919567
2936.643903
4827.843431
7335.488356
5370.882904
5852.677743
8350.28368
7443.14341
5292.156518
2290.615767
3125.589953
13429.38126
7194.744613
2967.298851
916.5568539
4811.734877
4645.414232
3585.849713
1553.45062
6126.174845
4844.696975
8189.941297
5165.109332
2448.374071
7535.666548
5159.311676
5945.265546
9335.114258
2736.66337
10142.09152
4781.259401
10436.42593
4728.522388
9608.50242
7243.081978
4676.656311
13708.9608
6927.514662
4371.552259
2366.62314
11923.91779
15068.47445
7772.579521
12462.85297
6872.053957
3184.802186
3784.294491
8833.789
2350.14865
1781.338781
9357.028248
19348.49998
17011.03269
3475.187638
3175.202973
6636.913629
7551.215342
2786.811811
8548.948077
4695.286929
7827.752894
5519.364814
7525.997762
5474.367183
2372.674063
6670.835289
6271.591048
8072.956159
1328.872409
15631.26653
5700.857438
2970.356167
5449.612462
7532.686188
3854.124311
3131.547794
7370.533031
3106.505629
1326.827167
8980.560899
9094.763842
25545.27281
5657.24253
3652.473681
6543.005177
2829.169247
2018.351979
5356.350811
2852.434974
5832.924672
6343.810303
4937.080202
4913.787396
3270.921633
22633.64267
2345.425564
10896.06139
2522.088921
11939.12737
5978.396287
4380.542479
8759.635595
10132.1677
9276.643912
5619.140876
14137.66047
3109.628972
5204.4141
2049.222589
15068.14326
11432.29928
6601.584252
6666.017412
2491.209947
3768.633933
6158.921828
3855.401817
9521.915883
13287.89088
4788.47312
6013.212451
4317.136548
12731.36307
21256.75081
10661.25125
4044.92235
7389.030792
5905.698582
3155.499085
6246.411808
16179.56628
10241.78701
9772.347881
14940.7564
6196.723949
10702.97702
7553.700132
13935.36841
8992.294028
3238.468912
11026.24218
1685.166421
1971.999396
5911.478836
2200.89176
6320.97162
5404.630844
4222.295332
2475.438802
4032.094824
4969.581116
12109.51079
5519.409571
6223.407491
2528.318235
4934.682381
5162.471856
14291.36793
3925.392205
8229.666365
7283.307253
6303.388302
4122.41637
5339.914417
10597.28923
5895.213206
13633.74042
13510.05439
6377.173462
7962.829897
8319.046558
9882.831309
6593.047611
6004.478433
7106.036819
3443.284106
5592.729138
10258.93309
6799.941064
11174.50346
2899.024763
2516.997484
5589.584277
5830.665481
6636.698233
6964.528689
7407.944531
10138.95551
12556.85844
8272.526294
8862.71047
4003.140509
4790.876982
6477.420823
5830.705865
2125.581704
6124.708618
6072.813336
6204.128954
6425.0922
4263.920034
4820.112634
4761.036184
5613.647692
4300.666324
6142.497781
9342.489146
6871.946896
9690.457207
3995.802755
4342.99689
2496.436533
876.4987779
4023.184803
4863.750144
5249.205081
5270.330444
5153.167072
1397.814961
4652.438053
7599.025462
3024.436067
20109.09088
7659.07267
6659.975436
4218.201237
7152.445937
3077.012582
6778.615483
3372.238842
4607.457517
6707.286485
3402.659299
2048.151805
7677.390109
3118.462182
5796.031591
6835.809044
6012.804453
4460.708906
7444.528593
6646.954818
4159.057288
6444.908644
5134.74874
5656.806674
8922.1598
4772.684213
4353.441098
7186.981956
2760.629773
9016.988493
6106.443697
6881.955337
11452.35041
7685.284188
5121.211935
3941.52559
3137.84803
12145.84478
8153.804027
9059.6383
9406.626354
6397.965081
9354.101825
12559.06389
14006.74374
10430.2615
3610.368918
8370.259558
364.7942111
6857.732892
8330.42038
4859.430783
7366.487923
6126.769126
5495.910686
10055.99668
3005.315565
6385.58209
6356.523435
8255.768296
3685.275736
9605.000224
10959.25256
10177.95437
4855.731597
6793.862321
11194.4619
9550.21957
9793.03263
8342.070884
7085.496497
5767.150632
6923.17792
6153.531479
9563.095289
8258.46465
5978.773754
1855.886092
2801.949298
8826.336201
6975.945348
6023.466872
12514.51008
14763.27601
5050.741881
2295.589684
5794.993899
6045.372237
6197.164756
14798.79629
2267.153572
6722.176952
8592.141827
8530.214784
5485.323521
3632.443553
2293.053171
4699.650755
3997.964534
9225.252024
7294.612746
7489.630398
5406.115247
5982.837295
9315.633546
9465.566986
7085.001479
2067.459439
6673.713781
10217.53438
2944.907948
3423.127175
6141.490085
8510.934862
8868.073531
11995.04867
6300.870496
3915.156305
6820.621438
4748.895321
7591.219631
2999.392824
3637.007949
4213.076209
4698.218994
9024.410522
5332.373989
8104.110832
5144.550393
6032.817553
3453.434227
13763.87221
18356.83561
3910.002795
5176.049344
6865.435417
3019.338529
1487.792404
2396.691988
10067.58253
8661.501561
9599.233155
7100.294539
6314.979656
5913.187391
13601.07382
2812.157061
5791.741493
1453.244527
6672.777055
2051.469822
7754.498369
2243.80318
10247.33841
2539.840139
8500.362716
6950.488738
10890.29847
6261.116355
7478.507929
13041.42773
6526.114754
4737.501306
12207.06288
5777.054784
8215.755345
6155.926358
794.1411936
3087.29989
8706.318318
8424.84692
1777.586543
2394.563105
3154.970483
11092.29816
5777.180125
6739.423954
6648.648313
8107.418969
3778.052243
8403.301639
10433.61509
11820.67794
2058.65686
8828.051623
10502.18805
3833.912283
11861.69774
5492.283636
2209.284468
7226.085075
9052.389653
15330.56703
9026.458734
9206.547699
15234.04119
6045.094031
4136.904776
4168.34323
3897.508918
8744.052916
900.6934542
2393.454489
3462.018146
5391.928505
6170.827466
6336.804452
10917.25753
3057.32513
5399.663607
14924.60076
17.72082103
3764.289588
8648.967646
5202.336295
10253.27736
11639.68238
9231.295464
6175.61241
6881.387066
8554.855486
8480.402435
2513.311518
9540.80597
7610.74102
13484.35233
9241.526424
2712.031831
2197.324958
1683.523964
7214.7552
4594.492988
1184.774848
5762.548637
4792.211239
1278.495634
5218.212123
3773.168806
6661.619642
6237.392415
3844.290689
8655.0989
9918.068861
2979.938482
8222.518014
7260.391721
6022.519273
8709.938077
6858.316009
6024.233354
5201.444846
10192.30597
10705.63077
12105.28375
9446.482867
10896.06342
10113.81967
7153.818933
9302.526027
1582.710738
2686.428571
1416.428946
5418.1571
3456.846635
5526.376525
5731.270827
4950.674465
5186.928038
9610.743655
8362.808059
9462.557208
6037.581325
4054.470947
5517.653759
1403.021213
2508.810063
7126.428607
8175.17582
2450.209868
3524.718635
4666.156976
10924.70504
8807.08911
2781.125921
9193.504255
1263.126042
8496.088775
)
;

boundaryField
{
    inlet
    {
        type            zeroGradient;
    }
    outlet
    {
        type            zeroGradient;
    }
    wall
    {
        type            calculated;
        value           uniform 0;
    }
    frontAndBack
    {
        type            empty;
    }
}


// ************************************************************************* //
