/*--------------------------------*- C++ -*----------------------------------*\
| =========                 |                                                 |
| \\      /  F ield         | OpenFOAM: The Open Source CFD Toolbox           |
|  \\    /   O peration     | Version:  v1912                                 |
|   \\  /    A nd           | Website:  www.openfoam.com                      |
|    \\/     M anipulation  |                                                 |
\*---------------------------------------------------------------------------*/
FoamFile
{
    version     2.0;
    format      ascii;
    class       volScalarField;
    location    "0.00029";
    object      rhoMMean;
}
// * * * * * * * * * * * * * * * * * * * * * * * * * * * * * * * * * * * * * //

dimensions      [1 -3 0 0 0 0 0];


internalField   nonuniform List<scalar> 
1300
(
0.008914068966
0.01030684138
0.02289470345
0.05987504828
0.03500208276
0.02510724138
0.03523993103
0.03703557241
0.03079224828
0.02901486897
0.0104809931
0.01049925517
0.03395783448
0.1063928
0.0511681931
0.03124588966
0.05258246897
0.05384685517
0.03959663448
0.0378736
0.005501613793
0.006188648276
0.03048558621
0.1095625103
0.05093881379
0.03005922759
0.05814376552
0.06683791724
0.0463074069
0.04469906207
0.003554758621
0.003376041379
0.02655078621
0.1040427448
0.04655092414
0.02877267586
0.05893635862
0.07851024828
0.05088369655
0.04928046897
0.002152965517
0.003037089655
0.02822238621
0.1029758897
0.04608314483
0.0244114069
0.05551444138
0.07145562759
0.05576686897
0.05021013793
0.00150702069
0.001882717241
0.02643609655
0.1030445931
0.04464471724
0.02338497931
0.05287153103
0.06736493793
0.05153431724
0.048804
0.0010948
0.002203406897
0.02777353103
0.1021373103
0.04373754483
0.0219422069
0.05039353103
0.06425457931
0.04894107586
0.0461014069
0.001204703448
0.001378855172
0.02731532414
0.1021701517
0.04393496552
0.02377448276
0.0513458069
0.06670986207
0.04511628966
0.04500182069
0.0007008413793
0.00134222069
0.0279292
0.1055637931
0.04248685517
0.02306907586
0.05333908966
0.063984
0.04580343448
0.04330249655
0.000503862069
0.001136110345
0.02712302069
0.1007816138
0.04521728276
0.02423246897
0.04852406897
0.06605456552
0.04721435862
0.0395326069
0.0005313655172
0.0010124
0.02743925517
0.1030308966
0.04434262069
0.02362783448
0.05059017931
0.06690271724
0.04636753103
0.04283526897
0.0003527586207
0.0009666344828
0.02692604138
0.1002915586
0.0420518069
0.02215744828
0.05127286897
0.06463929655
0.04460797241
0.04341685517
0.0001969793103
0.001071972414
0.02502038621
0.1027739034
0.04396235862
0.02236355862
0.04906044138
0.06584377931
0.04449773793
0.0434262069
0.0002565517241
0.0007467172414
0.02732489655
0.1029987172
0.04482788966
0.02240475862
0.04953657931
0.06449275862
0.04671049655
0.04240913103
0.0001282758621
0.0007467172414
0.02638108966
0.09965474483
0.04378386207
0.02245553103
0.04931666207
0.06661376552
0.04747547586
0.04078775172
0.0001969793103
0.000948262069
0.0286069931
0.1021748276
0.04215257931
0.02496081379
0.05149702069
0.06362755862
0.04542361379
0.04265622069
0.0002244827586
0.0008474896552
0.02696724138
0.1010607724
0.04216638621
0.02493331034
0.05142397241
0.06148295172
0.04719175172
0.04233987586
0.0001603448276
0.0004260275862
0.02803921379
0.1023894069
0.04222584828
0.02451195862
0.04955451034
0.06557386207
0.04793335172
0.04111278621
0.0001282758621
0.000907062069
0.02637630345
0.1022984276
0.04266122759
0.0228722069
0.04863017931
0.06298595862
0.04648612414
0.04048510345
9.620689655e-05
0.0006184413793
0.02395765517
0.09547186207
0.04249153103
0.02409517241
0.04799748966
0.06142348966
0.04552427586
0.04222573793
0.03054810793
0.02760087811
0.02776725485
0.02626919598
0.02635229312
0.02531457612
0.02650344555
0.0276120691
0.02557469563
0.02645006964
0.02575969328
0.02784631891
0.02727297665
0.0276312358
0.02877488704
0.02918597698
0.02783888832
0.02696727516
0.02947609062
0.02888376321
0.02903142771
0.03012537255
0.02919340711
0.02909526748
0.03012161192
0.03161572812
0.03326448501
0.03334363996
0.03686054177
0.03736225062
0.03606405034
0.03189465076
0.02882350252
0.02875939008
0.02830244525
0.02821595106
0.02656334291
0.02754437782
0.02709907889
0.02614858323
0.02712916369
0.02569943257
0.02901978226
0.02795574043
0.02808020492
0.02696333275
0.02712209689
0.02665754037
0.02865005922
0.03044226478
0.02855173757
0.02952139993
0.03111759841
0.03086500041
0.02899740028
0.03232508918
0.02998568399
0.0311929021
0.0325366841
0.03480042282
0.04525198948
0.04058051771
0.03482647454
0.03301170497
0.03242286549
0.031064859
0.02900483064
0.02797848597
0.02869142612
0.02767636356
0.02724995821
0.02655582166
0.02734075883
0.02821971145
0.02822732383
0.02827648466
0.0271521819
0.02841213991
0.02952552412
0.02862749522
0.02977454353
0.03071769972
0.02839727895
0.02902317932
0.02801636515
0.03046464675
0.02990652904
0.03174046531
0.03369116253
0.03238535037
0.05304743998
0.05101758711
0.04329798581
0.0405880393
0.03927910215
0.03468705867
0.03492112646
0.03345333411
0.03167993171
0.03087243078
0.03084225461
0.02954020306
0.03040869205
0.02861621334
0.02921991352
0.02918588609
0.02758941445
0.02880846001
0.02837059123
0.0295252512
0.03031027951
0.03013307558
0.03091012768
0.03082703058
0.03226473763
0.02976684025
0.03205314271
0.03265702444
0.03179705624
0.0302196609
0.0624352377
0.05912277234
0.0509382508
0.04941386754
0.04708619803
0.04253919125
0.04109745089
0.03812811168
0.03836584952
0.03343095241
0.03320422381
0.033223209
0.03102340121
0.03256649644
0.0305101381
0.03201213938
0.03154767327
0.03005006911
0.03089526721
0.02965016992
0.02968786732
0.03022718215
0.02994055622
0.03071036025
0.02967246125
0.03134423584
0.0325515451
0.03221924654
0.02994440774
0.03010647852
0.05652976931
0.06105457579
0.05593001178
0.05494172806
0.0526363496
0.05110820615
0.0468443367
0.04528619831
0.04128272142
0.0411316601
0.03804895673
0.03757375466
0.03650173734
0.03561920535
0.03456635503
0.0334117857
0.03446078451
0.0322005343
0.03202323948
0.0335250587
0.03267986087
0.03145356696
0.03224611601
0.03003484482
0.0323820442
0.03178210462
0.03173285317
0.03174082888
0.03106871026
0.03284220408
0.05275338393
0.06016773812
0.05876414988
0.05934116187
0.05863565184
0.05678658265
0.05451899268
0.05024035298
0.04994951263
0.04876137033
0.04420711421
0.04293532957
0.03840730731
0.03973926202
0.03836245246
0.03775838895
0.03649072784
0.03761521245
0.03497377524
0.03468329775
0.0344718849
0.03446812427
0.03461184584
0.03300069576
0.03252136919
0.03336280639
0.03280038272
0.03298950477
0.0346798098
0.03269490338
0.05116488823
0.05599448732
0.05719042401
0.05523265972
0.06077134717
0.06256758678
0.05906196655
0.05485872114
0.05524715688
0.05385494092
0.04971929595
0.04809319438
0.04837266237
0.0447578927
0.04265255541
0.0428331564
0.04022620074
0.04099188066
0.03788312588
0.03889773367
0.03744562066
0.03832420995
0.03774325524
0.03673983844
0.03573229713
0.03546062277
0.03394009132
0.03523416742
0.03400438527
0.03409106176
0.0506740071
0.0526625831
0.05010836788
0.05193845263
0.0547300418
0.06063927127
0.05820585014
0.05992945525
0.06214503318
0.05684335562
0.05562467339
0.05588909934
0.0511833278
0.05053780609
0.04888547103
0.04623696702
0.04541415053
0.04219991678
0.04453895867
0.04049035355
0.04187119708
0.0397659503
0.04088640098
0.04006770939
0.04024097091
0.03927910215
0.03877299705
0.03769445829
0.03712827342
0.03592857687
0.0497309418
0.05331938628
0.04831240145
0.04971186599
0.05414578124
0.05550791263
0.05640163532
0.05714180806
0.0594205895
0.06273323616
0.05713052618
0.05999778327
0.05865078572
0.05518368022
0.0532590349
0.05363985804
0.05010030087
0.04876118855
0.0486215
0.0467839845
0.0469613706
0.04569004005
0.04477275342
0.04343336839
0.04369027262
0.04264485202
0.04167133849
0.04148991948
0.04062233906
0.03893194319
0.0492548305
0.05280263522
0.04998023389
0.04957997137
0.04919529631
0.05401710234
0.05228552102
0.05426272424
0.05845826661
0.05930006765
0.05757518909
0.06042391572
0.06037924265
0.05868820973
0.0578168695
0.05644748997
0.05736037889
0.05373845237
0.05147756563
0.05052367249
0.04636519191
0.04919126341
0.04736869952
0.04630832804
0.04654624735
0.04583312528
0.04466369561
0.04476183548
0.04292780796
0.04384803718
0.04807439124
0.05159111114
0.04728623879
0.04922474549
0.04870110901
0.05209300191
0.05051220924
0.05214986534
0.05603603647
0.05571125917
0.05743255793
0.06043556117
0.06062468322
0.05802828216
0.05950753838
0.06134478082
0.05734130308
0.0554285759
0.05831123859
0.0549831854
0.0537119462
0.05207759584
0.05192698854
0.05119166708
0.0498136756
0.05011955846
0.04812364296
0.04744473047
0.04930435449
0.04692358254
0.04913834195
0.05059870325
0.04888216486
0.0461574485
0.05028162899
0.05130063437
0.0500890194
0.04891967983
0.05448165908
0.05374148587
0.05370057298
0.05956000537
0.05781347244
0.06046976988
0.06299344656
0.06326951749
0.05866610042
0.06008088063
0.05887338985
0.05932593709
0.05552671577
0.05596458455
0.05596816294
0.05231945756
0.05253463132
0.05185104887
0.05320987407
0.05058751267
0.05112682708
0.05067794951
0.0472367144
0.05238347868
0.04854637835
0.04742923351
0.04823306431
0.04961812299
0.04860627571
0.04708986777
0.05055357614
0.05197220739
0.04978404463
0.05229331495
0.05761664735
0.05425887272
0.06072273219
0.05825473829
0.06147336876
0.06267306612
0.06046197645
0.06015627446
0.06059808615
0.05815256512
0.05925466696
0.05904298164
0.05381366491
0.05743228526
0.05453806849
0.05324399239
0.056922601
0.05374221299
0.04896838661
0.05071967955
0.04751957945
0.04761404958
0.04759551873
0.04940258566
0.04906267496
0.04719552889
0.04975726619
0.04900993529
0.04756525193
0.05118360047
0.05480937899
0.05011194631
0.05566613164
0.05745842834
0.05680171558
0.06043959447
0.06041675803
0.06141623223
0.06212613915
0.05956027805
0.05926970947
0.05891502942
0.06044638859
0.05720582961
0.05611124901
0.05699817757
0.05483276032
0.05610005802
0.04870890334
0.05176482712
0.04803293346
0.04787838418
0.04910118974
0.05322491658
0.04647864696
0.04764816751
0.05132310724
0.05084396245
0.04656926519
0.04953851358
0.04954218332
0.04915383852
0.05284024192
0.05332296556
0.05636063152
0.05658323611
0.05864702509
0.05945846795
0.0610504521
0.06142393577
0.06257510752
0.05959797521
0.06034521522
0.06165424243
0.05796793083
0.05813743172
0.05870755821
0.05770001739
0.04937607948
0.04994638783
0.05087808077
0.04630493098
0.04841788039
0.04880273723
0.04865919716
0.04778794695
0.04913852374
0.05073087096
0.04842934405
0.05002490695
0.05161779953
0.04827443121
0.05144748061
0.05106280595
0.05154571095
0.05205548653
0.05527715101
0.05851870883
0.05931116775
0.0594014228
0.06304287954
0.06120948913
0.06207679654
0.06168432744
0.0630767257
0.06073337784
0.0599602674
0.06226188529
0.04822490722
0.04997620017
0.04816877049
0.04807797009
0.04793864471
0.05168530903
0.04803329702
0.04719874417
0.0499649187
0.04803320613
0.0506929916
0.04841402927
0.05166668768
0.05024411361
0.05123634014
0.05181711276
0.05305165462
0.05326234107
0.05250812515
0.05385117985
0.05603200317
0.05578316554
0.05842799933
0.05919037322
0.06240845886
0.05942462231
0.06332968752
0.06270691177
0.06209614451
0.06097863662
0.0476481679
0.05161367491
0.04682929419
0.04555760008
0.04666346265
0.05110802437
0.0476481679
0.04764440688
0.04927399721
0.04825553758
0.04886327043
0.04852693897
0.05053862452
0.04806310897
0.04797643316
0.05199898623
0.04864433604
0.05307779767
0.05253417687
0.05397949562
0.05445873175
0.05464336605
0.0574661309
0.05583948405
0.05994862244
0.0602698204
0.06033705773
0.06140495085
0.06031843588
0.0654651102
0.04788599632
0.04897654369
0.04653505637
0.0475876343
0.04749343645
0.04724808717
0.04704419529
0.04624448789
0.04868955485
0.04574644945
0.04674243582
0.04765201942
0.04791617223
0.04741409972
0.04734228463
0.04756534321
0.04860645709
0.04860260597
0.04847089313
0.05010451595
0.05162871784
0.0511500275
0.05206273468
0.05490027028
0.05582077181
0.05664313301
0.05525495081
0.05993752234
0.05925851848
0.06051838585
0.03191911724
0.03046666207
0.03054471724
0.03098009655
0.03035697931
0.02855655172
0.02804322759
0.02625737931
0.02427834483
0.02067281379
0.0387624
0.0383318069
0.03423231724
0.03547354483
0.03533146207
0.03612817931
0.03475455172
0.03331634483
0.02875386207
0.02541434483
0.03307761379
0.03269322759
0.03451191724
0.0340397931
0.03271638621
0.0335953931
0.03246451034
0.03214315862
0.02765851034
0.02452587586
0.03162582069
0.03254668966
0.03319230345
0.03278475862
0.03202946207
0.03201521379
0.02960102069
0.03126426207
0.02753034483
0.02497929655
0.02910150345
0.031502
0.03124555862
0.03112184828
0.03164408276
0.02994486897
0.03282606897
0.02997671724
0.02662350345
0.02644511724
0.03301369655
0.03270213793
0.0297706069
0.03070495172
0.02963787586
0.03008194483
0.02994475862
0.02823608276
0.02868961379
0.02878571034
0.03195586207
0.03197902069
0.03362735172
0.03156190345
0.0290790069
0.03128697931
0.02865297931
0.02947274483
0.02783744828
0.0273612
0.03389336552
0.03244190345
0.03358202759
0.03067321379
0.03384771034
0.03054449655
0.02928055172
0.02961515862
0.02924391724
0.02776428966
0.03578977931
0.03502936552
0.03384748966
0.03305924138
0.03384325517
0.03191477241
0.03241373793
0.0296105931
0.02927142069
0.02941361379
0.03926648276
0.03676543448
0.0379245931
0.03700873103
0.03492848276
0.03602795862
0.03264267586
0.03137416552
0.0328213931
0.03068702069
0.04196929655
0.04047553103
0.04219388966
0.03850128276
0.03795176552
0.03601426207
0.03715983448
0.03657346207
0.03532255172
0.03409958621
0.04362307586
0.0466556
0.04496986207
0.04362753103
0.0429818069
0.04393441379
0.03988948966
0.04004037241
0.03568422069
0.03747584828
0.05042048276
0.05202371034
0.04741111724
0.04802042759
0.04892693793
0.04510704828
0.0425648
0.04564765517
0.04150663448
0.0413278069
0.05264303448
0.05303165517
0.05402089655
0.05174488276
0.05183630345
0.0510898069
0.04920208276
0.04913783448
0.04784627586
0.04569831724
0.05387969655
0.05259248276
0.05329310345
0.05369641379
0.05340278621
0.05331125517
0.0505992
0.05233136552
0.05116285517
0.04954582069
0.05746597241
0.05846
0.05776394483
0.05622430345
0.05702168276
0.05616973793
0.05708158621
0.05353573793
0.05436964138
0.05474478621
0.05928911724
0.06108987586
0.0615110069
0.06047121379
0.05619256552
0.06046186207
0.05738346207
0.05967383448
0.05714528276
0.05722355862
0.06198246897
0.05633932414
0.05980678621
0.06244535172
0.0627341931
0.06152915862
0.06063612414
0.06069113103
0.06042544828
0.05969677241
0.06143751724
0.060888
0.06190006897
0.06085169655
0.06178994483
0.06036131034
0.06190062069
0.06260035862
0.06295834483
0.06379235862
0.0599029931
0.05963753103
0.06229413793
0.06127238621
0.05959187586
0.06139142069
0.06110335172
0.06121303448
0.06264233103
0.06302737931
0.02617381877
0.0316081459
0.03044330143
0.03048428355
0.03035241171
0.02979956962
0.02979978797
0.02824526476
0.02947830418
0.03120007183
0.03088299574
0.03144498197
0.03125008831
0.03038876748
0.03123191042
0.03217486766
0.0335256806
0.03236039944
0.03318128374
0.03272749138
0.03313589362
0.03319461691
0.0339831164
0.03567381003
0.03488498268
0.03599981064
0.03704720918
0.03727824026
0.03507601387
0.03209290342
0.02822766649
0.0386047756
0.03766389296
0.0368379141
0.03742837784
0.03510708172
0.03620774539
0.03811152166
0.03715768924
0.03904776771
0.03796101566
0.03766357222
0.03954544517
0.03816881337
0.03727280722
0.04010926134
0.03801852119
0.04027778208
0.04042418532
0.04008692961
0.04174213518
0.04017540005
0.04041523101
0.04138697202
0.04093870149
0.04379263536
0.04653091755
0.04625612582
0.04643370695
0.03920808293
0.02657990931
0.03647677828
0.03723365905
0.03731135025
0.03809370841
0.03697682246
0.03691087528
0.03699817606
0.03628113663
0.03755043333
0.03707247629
0.03510644671
0.03803293314
0.0370504939
0.03775453312
0.03826799682
0.03733756118
0.03935528086
0.03915942938
0.03702882572
0.03910298739
0.03972458247
0.04014165842
0.03715016784
0.03839367222
0.04168998357
0.04378972813
0.04325913938
0.04567754273
0.03596754383
0.02759789043
0.0354904588
0.03788951638
0.0362916291
0.03666672967
0.0345824896
0.03604425651
0.03431802466
0.03682398444
0.03431439356
0.03578859422
0.03510241087
0.03675602692
0.03352586266
0.03699024684
0.0369859995
0.03686282614
0.03734846103
0.03673002957
0.03650844868
0.03616338749
0.0381963518
0.04033529405
0.0398880913
0.03963222402
0.03868219129
0.04144816309
0.04443126241
0.04325043582
0.03603596713
0.02870928488
0.03555822951
0.03567036736
0.0338282193
0.03287550917
0.0343923291
0.03234867819
0.03449257695
0.03508543544
0.03573740078
0.0347887544
0.0320146183
0.0344587586
0.03195245358
0.03442158073
0.03469733866
0.0361719098
0.03381156159
0.03635158433
0.03417873528
0.03758858225
0.03679015747
0.0361719098
0.03778054842
0.03766800829
0.03712512288
0.04062262411
0.04120735474
0.0438981016
0.03780613888
0.02665561719
0.03456132595
0.03378286748
0.0334511198
0.03374221782
0.03364748066
0.0322583312
0.03232358709
0.03307394701
0.03377061344
0.03363124036
0.03433199177
0.03256537335
0.03140147342
0.03435649986
0.03370117386
0.03516005875
0.03474164457
0.03436865518
0.03343000503
0.03470099521
0.0343853888
0.0346352451
0.03579506039
0.03693016983
0.03835677214
0.03857803633
0.04017659048
0.04315572946
0.03935211426
0.02437726852
0.03205388966
0.03196532793
0.03209455048
0.03300725715
0.03177294712
0.03000393489
0.02978653753
0.03067930195
0.02862427341
0.02926757675
0.03205847908
0.0317239801
0.03200999612
0.03301928124
0.03390040906
0.03235192976
0.03441458697
0.03279836055
0.03356697534
0.03370735018
0.03506629391
0.03478877751
0.03591477706
0.0360671754
0.03699620436
0.03821467701
0.03948573681
0.04134751236
0.03795290204
0.02247521552
0.02979322315
0.02988399104
0.03143135508
0.03047675557
0.03101339849
0.02914671353
0.02781591032
0.03085172348
0.02997907301
0.02838075667
0.02949376273
0.03125432433
0.03121450849
0.03203544652
0.02993589391
0.03200397411
0.02959249348
0.03025128082
0.03160175359
0.0308516284
0.03230362522
0.03246568028
0.03275362444
0.03441142619
0.03553632883
0.03593883491
0.03803886292
0.04106211278
0.03797169939
0.02140176811
0.03052885622
0.02690907272
0.02620390003
0.0282814436
0.02938560287
0.02742091984
0.02840928868
0.02803696857
0.02894393926
0.02859111928
0.02792871746
0.03011460574
0.02970347065
0.03016067899
0.03160644287
0.03047459062
0.02898652317
0.03156753502
0.02960680787
0.03096712411
0.03010641339
0.0307540176
0.03238556848
0.03175360183
0.03504797843
0.0345984962
0.0363031595
0.04018333609
0.03814442039
0.01999285358
0.02853563497
0.02536842234
0.02600414136
0.02542940237
0.02677681374
0.02597749116
0.02641907042
0.02609926824
0.0266627165
0.02785402031
0.027606764
0.02767524069
0.02917930893
0.02887413286
0.02846318106
0.02878298321
0.02811320949
0.02990238353
0.0314666067
0.030663582
0.02965827916
0.02925130458
0.02945303251
0.03191198051
0.03126867309
0.0331490885
0.03622163299
0.03629353664
0.03679989074
)
;

boundaryField
{
    inlet
    {
        type            calculated;
        value           nonuniform List<scalar> 
20
(
0.008914068966
0.0104809931
0.005501613793
0.003554758621
0.002152965517
0.00150702069
0.0010948
0.001204703448
0.0007008413793
0.000503862069
0.0005313655172
0.0003527586207
0.0001969793103
0.0002565517241
0.0001282758621
0.0001969793103
0.0002244827586
0.0001603448276
0.0001282758621
9.620689655e-05
)
;
    }
    outlet
    {
        type            calculated;
        value           nonuniform List<scalar> 
70
(
0.02067281379
0.02541434483
0.02452587586
0.02497929655
0.02644511724
0.02878571034
0.0273612
0.02776428966
0.02941361379
0.03068702069
0.03409958621
0.03747584828
0.0413278069
0.04569831724
0.04954582069
0.05474478621
0.05722355862
0.05969677241
0.06379235862
0.06302737931
9.620689655e-05
0.0006184413793
0.02395765517
0.09547186207
0.04249153103
0.02409517241
0.04799748966
0.06142348966
0.04552427586
0.04222573793
0.04788599632
0.04897654369
0.04653505637
0.0475876343
0.04749343645
0.04724808717
0.04704419529
0.04624448789
0.04868955485
0.04574644945
0.04674243582
0.04765201942
0.04791617223
0.04741409972
0.04734228463
0.04756534321
0.04860645709
0.04860260597
0.04847089313
0.05010451595
0.05162871784
0.0511500275
0.05206273468
0.05490027028
0.05582077181
0.05664313301
0.05525495081
0.05993752234
0.05925851848
0.06051838585
0.0599029931
0.05963753103
0.06229413793
0.06127238621
0.05959187586
0.06139142069
0.06110335172
0.06121303448
0.06264233103
0.06302737931
)
;
    }
    wall
    {
        type            calculated;
        value           uniform 8.275862069e-301;
    }
    frontAndBack
    {
        type            empty;
    }
}


// ************************************************************************* //
