/*--------------------------------*- C++ -*----------------------------------*\
| =========                 |                                                 |
| \\      /  F ield         | OpenFOAM: The Open Source CFD Toolbox           |
|  \\    /   O peration     | Version:  v1912                                 |
|   \\  /    A nd           | Website:  www.openfoam.com                      |
|    \\/     M anipulation  |                                                 |
\*---------------------------------------------------------------------------*/
FoamFile
{
    version     2.0;
    format      ascii;
    class       volScalarField;
    location    "7.26";
    object      Ma;
}
// * * * * * * * * * * * * * * * * * * * * * * * * * * * * * * * * * * * * * //

dimensions      [0 0 0 0 0 0 0];


internalField   nonuniform List<scalar> 
1900
(
0.58801
0.00767907
0.0936934
0.092858
0.0939096
0.0941885
0.0952807
0.0969645
0.0990993
0.0929502
0.588009
0.00768042
0.0936903
0.0928494
0.0938875
0.0941333
0.0950623
0.0965528
0.100845
0.104675
0.588009
0.0076809
0.0936868
0.0928416
0.0938639
0.094082
0.0949411
0.0967695
0.101428
0.110934
0.588009
0.00768042
0.0936903
0.0928494
0.0938875
0.0941333
0.0950623
0.0965528
0.100845
0.104675
0.58801
0.00767907
0.0936934
0.092858
0.0939096
0.0941885
0.0952807
0.0969645
0.0990993
0.0929502
0.102596
0.142687
0.196814
0.284104
0.43315
0.122318
0.14979
0.182239
0.248794
0.393636
0.130474
0.156728
0.18925
0.252721
0.390567
0.122318
0.14979
0.182239
0.248794
0.393636
0.102596
0.142687
0.196814
0.284104
0.43315
0.95029
1.34436
1.60944
1.78724
1.95543
0.90824
1.3432
1.63124
1.8072
1.97604
0.903807
1.35226
1.63194
1.80136
1.97413
0.90824
1.3432
1.63124
1.8072
1.97604
0.95029
1.34436
1.60944
1.78724
1.95543
2.08377
2.13668
2.17799
2.24923
2.38309
2.40374
2.2662
1.63787
1.39293
1.33734
1.23976
1.10269
0.954882
0.816372
0.702737
0.604722
0.489707
0.335804
0.209051
0.168547
0.166235
0.171105
0.177571
0.187657
0.204003
0.226323
0.252154
0.278021
0.303603
0.327629
0.350325
0.372156
0.392052
0.38075
0.234528
0.0194914
0.112013
0.156049
0.1675
0.206999
2.05234
2.07545
2.10638
2.1694
2.31332
2.36773
2.2462
1.64413
1.39109
1.32728
1.2217
1.08564
0.951029
0.823935
0.714382
0.614488
0.494991
0.336704
0.20839
0.167589
0.165377
0.17036
0.176833
0.187007
0.203464
0.2259
0.251844
0.277825
0.303487
0.327598
0.350338
0.372244
0.392202
0.380981
0.234905
0.0113928
0.110095
0.153222
0.166316
0.207938
2.03557
2.06477
2.08734
2.14012
2.28995
2.34892
2.23429
1.64217
1.39005
1.32799
1.22695
1.09936
0.968393
0.834959
0.711073
0.608783
0.493149
0.337734
0.208789
0.16739
0.165127
0.170158
0.176606
0.186758
0.203232
0.2257
0.251673
0.277679
0.303359
0.327493
0.350247
0.372182
0.392179
0.381022
0.235052
0.00684358
0.109187
0.151435
0.164471
0.206396
2.05234
2.07545
2.10638
2.1694
2.31332
2.36773
2.2462
1.64413
1.39109
1.32728
1.2217
1.08564
0.951029
0.823935
0.714382
0.614488
0.494991
0.336704
0.20839
0.167589
0.165377
0.17036
0.176833
0.187007
0.203464
0.2259
0.251844
0.277825
0.303487
0.327598
0.350338
0.372244
0.392202
0.380981
0.234905
0.0113928
0.110095
0.153222
0.166316
0.207938
2.08377
2.13668
2.17799
2.24923
2.38309
2.40374
2.2662
1.63787
1.39293
1.33734
1.23976
1.10269
0.954882
0.816372
0.702737
0.604722
0.489707
0.335804
0.209051
0.168547
0.166235
0.171105
0.177571
0.187657
0.204003
0.226323
0.252154
0.278021
0.303603
0.327629
0.350325
0.372156
0.392052
0.38075
0.234528
0.0194914
0.112013
0.156049
0.1675
0.206999
2.28256
2.30265
2.31237
2.34937
2.43356
2.36655
2.17671
1.5745
1.38087
1.30942
1.19856
1.06415
0.934297
0.814527
0.70867
0.610379
0.490943
0.333147
0.20949
0.172019
0.169928
0.17453
0.180883
0.190951
0.207135
0.229182
0.254734
0.280338
0.305786
0.329649
0.352357
0.374079
0.393984
0.382684
0.236916
0.0380532
0.115076
0.159786
0.169438
0.203743
2.36872
2.3801
2.39122
2.38859
2.36058
2.17819
1.89884
1.45376
1.29627
1.19395
1.08819
0.983768
0.886232
0.787444
0.691619
0.59632
0.476349
0.322636
0.21245
0.18189
0.180229
0.184033
0.190012
0.20004
0.215883
0.23722
0.262027
0.286894
0.311974
0.335377
0.358093
0.379506
0.399485
0.388214
0.24454
0.0674862
0.125199
0.16769
0.179452
0.208985
2.31186
2.30378
2.31239
2.30843
2.18447
1.99568
1.69923
1.38355
1.1929
1.08523
0.9985
0.919686
0.83955
0.751843
0.665836
0.575824
0.455974
0.309629
0.218559
0.196204
0.194995
0.197842
0.203369
0.213196
0.228575
0.24899
0.272805
0.296629
0.321155
0.343867
0.366523
0.387471
0.4075
0.396249
0.255829
0.0968508
0.141415
0.178746
0.193358
0.219824
2.15014
2.15505
2.1583
2.12318
1.98407
1.78621
1.49873
1.22982
1.07281
0.99877
0.932342
0.871553
0.796798
0.716258
0.639143
0.552508
0.431177
0.297449
0.229258
0.214306
0.213182
0.215025
0.220021
0.229561
0.244373
0.26374
0.286433
0.309013
0.332841
0.354683
0.37718
0.397556
0.417567
0.406277
0.269855
0.126097
0.162289
0.193671
0.210425
0.23439
1.9436
1.94126
1.89832
1.80107
1.66148
1.46624
1.22604
1.04203
0.974446
0.934076
0.890923
0.82931
0.752257
0.680922
0.612101
0.524942
0.401622
0.28853
0.24358
0.234428
0.233179
0.234303
0.238999
0.248325
0.262636
0.281013
0.302645
0.323979
0.347118
0.368081
0.390416
0.410246
0.430286
0.419119
0.287421
0.15476
0.183677
0.208297
0.226479
0.248108
1.64867
1.60988
1.5275
1.4294
1.29623
1.11539
0.969661
0.939671
0.933161
0.905161
0.852605
0.780537
0.712531
0.652135
0.586474
0.493564
0.37361
0.290123
0.263432
0.257178
0.255103
0.255434
0.259758
0.268747
0.282418
0.299682
0.320136
0.340056
0.362328
0.382221
0.404154
0.423246
0.443027
0.431678
0.304472
0.183197
0.209223
0.228729
0.248052
0.268082
1.2918
1.22345
1.13947
1.0414
0.941906
0.900029
0.926882
0.940108
0.917272
0.867008
0.800831
0.736756
0.680302
0.625751
0.556489
0.455962
0.351278
0.298955
0.284279
0.279535
0.277028
0.27733
0.28167
0.290639
0.303998
0.320504
0.340159
0.358997
0.380708
0.399818
0.421523
0.440058
0.459746
0.448691
0.326617
0.211273
0.232597
0.246287
0.266345
0.284472
0.911826
0.86913
0.833487
0.841412
0.895821
0.94715
0.954678
0.930152
0.878687
0.819525
0.758893
0.704815
0.655852
0.600591
0.522851
0.422507
0.347355
0.318288
0.308601
0.303417
0.300086
0.300042
0.304187
0.312799
0.325489
0.340893
0.359554
0.376899
0.397814
0.41593
0.437145
0.454926
0.47418
0.463185
0.345791
0.238418
0.258364
0.267902
0.288412
0.305228
0.747584
0.78865
0.843331
0.909215
0.958886
0.966182
0.939125
0.893109
0.836429
0.778005
0.724803
0.678132
0.630335
0.568465
0.483084
0.398352
0.353858
0.338026
0.330616
0.325332
0.322673
0.322876
0.327208
0.335885
0.348378
0.363164
0.381323
0.397668
0.418091
0.435515
0.456348
0.473423
0.492149
0.481526
0.36873
0.265057
0.282509
0.287987
0.308919
0.324513
0.76075
0.80554
0.860028
0.912191
0.946956
0.941381
0.905226
0.854077
0.797906
0.744978
0.699672
0.655576
0.603737
0.534121
0.453911
0.397756
0.373338
0.361729
0.353467
0.3477
0.344369
0.344444
0.348644
0.357035
0.369001
0.382881
0.4003
0.415517
0.435269
0.45196
0.472321
0.48866
0.506728
0.496479
0.388487
0.291024
0.307838
0.310205
0.331109
0.345524
0.740784
0.775967
0.825996
0.880525
0.91323
0.90709
0.868749
0.816758
0.765257
0.718235
0.675749
0.628467
0.569322
0.49785
0.436722
0.404586
0.388955
0.37925
0.372253
0.366963
0.364508
0.36543
0.370311
0.379164
0.391348
0.405025
0.422281
0.43698
0.456327
0.472566
0.492494
0.508124
0.525483
0.515819
0.412098
0.315249
0.329667
0.328828
0.349996
0.363342
0.720056
0.74346
0.787631
0.834801
0.86988
0.866059
0.830763
0.781523
0.7366
0.694012
0.651156
0.600115
0.539172
0.480719
0.441818
0.421192
0.409561
0.399823
0.391638
0.386271
0.384146
0.385162
0.39001
0.39864
0.410426
0.423377
0.440049
0.453909
0.472521
0.48807
0.507302
0.522076
0.538489
0.529114
0.42981
0.337887
0.352361
0.349941
0.37089
0.383717
0.692204
0.70517
0.746334
0.784771
0.818383
0.823447
0.798323
0.755058
0.715724
0.672897
0.625604
0.568923
0.510043
0.468666
0.44987
0.436447
0.424666
0.414988
0.407434
0.402978
0.401671
0.403013
0.407924
0.416446
0.428025
0.440344
0.456556
0.46985
0.48753
0.502348
0.520889
0.534697
0.550201
0.540826
0.444807
0.353256
0.367149
0.363747
0.385528
0.398536
0.662744
0.667671
0.699338
0.733548
0.759801
0.780387
0.766235
0.725663
0.684584
0.633091
0.577784
0.53333
0.502622
0.477509
0.454146
0.436962
0.422979
0.410559
0.400496
0.394148
0.390936
0.390263
0.393397
0.4004
0.41077
0.42191
0.437745
0.450766
0.468088
0.482963
0.502093
0.51618
0.532221
0.521998
0.426417
0.334491
0.358682
0.365752
0.396111
0.414286
0.635062
0.633923
0.651987
0.683289
0.700349
0.72655
0.712583
0.671031
0.628935
0.581941
0.536593
0.488261
0.446233
0.412122
0.38311
0.356442
0.331148
0.308444
0.290314
0.278012
0.26983
0.264495
0.26486
0.271096
0.282428
0.295286
0.314167
0.330093
0.350459
0.369211
0.391758
0.409947
0.429129
0.418792
0.326276
0.23615
0.289609
0.329197
0.387085
0.420778
0.609147
0.595528
0.57924
0.573807
0.56436
0.595675
0.578514
0.527621
0.472879
0.413047
0.357829
0.307425
0.262941
0.221822
0.184163
0.149472
0.118807
0.0934936
0.0772627
0.0731289
0.0800413
0.094161
0.11593
0.141114
0.167441
0.193734
0.220517
0.245786
0.271246
0.295993
0.31996
0.34335
0.362523
0.353711
0.272026
0.151574
0.197303
0.260229
0.363857
0.417295
0.595393
0.55441
0.484268
0.449945
0.401121
0.427622
0.419106
0.375874
0.328741
0.28411
0.240899
0.201635
0.163365
0.126607
0.0914684
0.0603564
0.0326933
0.0203479
0.034089
0.0551357
0.0773959
0.101117
0.12602
0.152271
0.178389
0.205988
0.231827
0.258505
0.283859
0.309459
0.332874
0.357376
0.376269
0.37652
0.324094
0.219212
0.237254
0.2572
0.358439
0.404045
0.625242
0.588295
0.463603
0.376816
0.315489
0.330663
0.328346
0.300748
0.267532
0.23683
0.203268
0.172379
0.140384
0.112139
0.0889
0.0756567
0.0728168
0.0778084
0.086277
0.0953955
0.106892
0.125291
0.146746
0.168114
0.188766
0.212622
0.234122
0.25838
0.281166
0.305066
0.326434
0.349947
0.367567
0.376425
0.352508
0.284462
0.261424
0.334796
0.466607
0.494852
0.972053
0.714957
0.518382
0.405989
0.361297
0.36425
0.353975
0.327764
0.295239
0.264075
0.230284
0.198872
0.167477
0.140958
0.118658
0.103723
0.0960608
0.0940079
0.0955343
0.100375
0.113948
0.136312
0.160334
0.183561
0.205279
0.229965
0.251865
0.276382
0.299456
0.323585
0.345238
0.368536
0.386353
0.401494
0.399795
0.377484
0.361313
0.465396
0.644103
0.907477
2.32937
1.01745
0.495388
0.385666
0.36051
0.35683
0.342729
0.31977
0.290048
0.262576
0.232047
0.204862
0.179675
0.160606
0.147065
0.13947
0.136216
0.136181
0.138581
0.144227
0.157049
0.171904
0.18856
0.207303
0.225996
0.24892
0.268543
0.291624
0.313333
0.336426
0.356911
0.379292
0.396682
0.415408
0.426921
0.427128
0.411492
0.494762
0.886689
2.22591
2.32937
1.01745
0.495388
0.385666
0.36051
0.35683
0.342729
0.31977
0.290048
0.262576
0.232047
0.204862
0.179675
0.160606
0.147065
0.13947
0.136216
0.136181
0.138581
0.144227
0.157049
0.171904
0.18856
0.207303
0.225996
0.24892
0.268543
0.291624
0.313333
0.336426
0.356911
0.379292
0.396682
0.415408
0.426921
0.427128
0.411492
0.494762
0.886689
2.22591
0.972053
0.714957
0.518382
0.405989
0.361297
0.36425
0.353975
0.327764
0.295239
0.264075
0.230284
0.198872
0.167477
0.140958
0.118658
0.103723
0.0960608
0.0940079
0.0955343
0.100375
0.113948
0.136312
0.160334
0.183561
0.205279
0.229965
0.251865
0.276382
0.299456
0.323585
0.345238
0.368536
0.386353
0.401494
0.399795
0.377484
0.361313
0.465396
0.644103
0.907477
0.625242
0.588295
0.463603
0.376816
0.315489
0.330663
0.328346
0.300748
0.267532
0.23683
0.203268
0.172379
0.140384
0.112139
0.0889
0.0756567
0.0728168
0.0778084
0.086277
0.0953955
0.106892
0.125291
0.146746
0.168114
0.188766
0.212622
0.234122
0.25838
0.281166
0.305066
0.326434
0.349947
0.367567
0.376425
0.352508
0.284462
0.261424
0.334796
0.466607
0.494852
0.595393
0.55441
0.484268
0.449945
0.401121
0.427622
0.419106
0.375874
0.328741
0.28411
0.240899
0.201635
0.163365
0.126607
0.0914684
0.0603564
0.0326933
0.0203479
0.034089
0.0551357
0.0773959
0.101117
0.12602
0.152271
0.178389
0.205988
0.231827
0.258505
0.283859
0.309459
0.332874
0.357376
0.376269
0.37652
0.324094
0.219212
0.237254
0.2572
0.358439
0.404045
0.609147
0.595528
0.57924
0.573807
0.56436
0.595675
0.578514
0.527621
0.472879
0.413047
0.357829
0.307425
0.262941
0.221822
0.184163
0.149472
0.118807
0.0934936
0.0772627
0.0731289
0.0800413
0.094161
0.11593
0.141114
0.167441
0.193734
0.220517
0.245786
0.271246
0.295993
0.31996
0.34335
0.362523
0.353711
0.272026
0.151574
0.197303
0.260229
0.363857
0.417295
0.635062
0.633923
0.651987
0.683289
0.700349
0.72655
0.712583
0.671031
0.628935
0.581941
0.536593
0.488261
0.446233
0.412122
0.38311
0.356442
0.331148
0.308444
0.290314
0.278012
0.26983
0.264495
0.26486
0.271096
0.282428
0.295286
0.314167
0.330093
0.350459
0.369211
0.391758
0.409947
0.429129
0.418792
0.326276
0.23615
0.289609
0.329197
0.387085
0.420778
0.662744
0.667671
0.699338
0.733548
0.759801
0.780387
0.766235
0.725663
0.684584
0.633091
0.577784
0.53333
0.502622
0.477509
0.454146
0.436962
0.422979
0.410559
0.400496
0.394148
0.390936
0.390263
0.393397
0.4004
0.41077
0.42191
0.437745
0.450766
0.468088
0.482963
0.502093
0.51618
0.532221
0.521998
0.426417
0.334491
0.358682
0.365752
0.396111
0.414286
0.692204
0.70517
0.746334
0.784771
0.818383
0.823447
0.798323
0.755058
0.715724
0.672897
0.625604
0.568923
0.510043
0.468666
0.44987
0.436447
0.424666
0.414988
0.407434
0.402978
0.401671
0.403013
0.407924
0.416446
0.428025
0.440344
0.456556
0.46985
0.48753
0.502348
0.520889
0.534697
0.550201
0.540826
0.444807
0.353256
0.367149
0.363747
0.385528
0.398536
0.720056
0.74346
0.787631
0.834801
0.86988
0.866059
0.830763
0.781523
0.7366
0.694012
0.651156
0.600115
0.539172
0.480719
0.441818
0.421192
0.409561
0.399823
0.391638
0.386271
0.384146
0.385162
0.39001
0.39864
0.410426
0.423377
0.440049
0.453909
0.472521
0.48807
0.507302
0.522076
0.538489
0.529114
0.42981
0.337887
0.352361
0.349941
0.37089
0.383717
0.740784
0.775967
0.825996
0.880525
0.91323
0.90709
0.868749
0.816758
0.765257
0.718235
0.675749
0.628467
0.569322
0.49785
0.436722
0.404586
0.388955
0.37925
0.372253
0.366963
0.364508
0.36543
0.370311
0.379164
0.391348
0.405025
0.422281
0.43698
0.456327
0.472566
0.492494
0.508124
0.525483
0.515819
0.412098
0.315249
0.329667
0.328828
0.349996
0.363342
0.76075
0.80554
0.860028
0.912191
0.946956
0.941381
0.905226
0.854077
0.797906
0.744978
0.699672
0.655576
0.603737
0.534121
0.453911
0.397756
0.373338
0.361729
0.353467
0.3477
0.344369
0.344444
0.348644
0.357035
0.369001
0.382881
0.4003
0.415517
0.435269
0.45196
0.472321
0.48866
0.506728
0.496479
0.388487
0.291024
0.307838
0.310205
0.331109
0.345524
0.747584
0.78865
0.843331
0.909215
0.958886
0.966182
0.939125
0.893109
0.836429
0.778005
0.724803
0.678132
0.630335
0.568465
0.483084
0.398352
0.353858
0.338026
0.330616
0.325332
0.322673
0.322876
0.327208
0.335885
0.348378
0.363164
0.381323
0.397668
0.418091
0.435515
0.456348
0.473423
0.492149
0.481526
0.36873
0.265057
0.282509
0.287987
0.308919
0.324513
0.911826
0.86913
0.833487
0.841412
0.895821
0.94715
0.954678
0.930152
0.878687
0.819525
0.758893
0.704815
0.655852
0.600591
0.522851
0.422507
0.347355
0.318288
0.308601
0.303417
0.300086
0.300042
0.304187
0.312799
0.325489
0.340893
0.359554
0.376899
0.397814
0.41593
0.437145
0.454926
0.47418
0.463185
0.345791
0.238418
0.258364
0.267902
0.288412
0.305228
1.2918
1.22345
1.13947
1.0414
0.941906
0.900029
0.926882
0.940108
0.917272
0.867008
0.800831
0.736756
0.680302
0.625751
0.556489
0.455962
0.351278
0.298955
0.284279
0.279535
0.277028
0.27733
0.28167
0.290639
0.303998
0.320504
0.340159
0.358997
0.380708
0.399818
0.421523
0.440058
0.459746
0.448691
0.326617
0.211273
0.232597
0.246287
0.266345
0.284472
1.64867
1.60988
1.5275
1.4294
1.29623
1.11539
0.969661
0.939671
0.933161
0.905161
0.852605
0.780537
0.712531
0.652135
0.586474
0.493564
0.37361
0.290123
0.263432
0.257178
0.255103
0.255434
0.259758
0.268747
0.282418
0.299682
0.320136
0.340056
0.362328
0.382221
0.404154
0.423246
0.443027
0.431678
0.304472
0.183197
0.209223
0.228729
0.248052
0.268082
1.9436
1.94126
1.89832
1.80107
1.66148
1.46624
1.22604
1.04203
0.974446
0.934076
0.890923
0.82931
0.752257
0.680922
0.612101
0.524942
0.401622
0.28853
0.24358
0.234428
0.233179
0.234303
0.238999
0.248325
0.262636
0.281013
0.302645
0.323979
0.347118
0.368081
0.390416
0.410246
0.430286
0.419119
0.287421
0.15476
0.183677
0.208297
0.226479
0.248108
2.15014
2.15505
2.1583
2.12318
1.98407
1.78621
1.49873
1.22982
1.07281
0.99877
0.932342
0.871553
0.796798
0.716258
0.639143
0.552508
0.431177
0.297449
0.229258
0.214306
0.213182
0.215025
0.220021
0.229561
0.244373
0.26374
0.286433
0.309013
0.332841
0.354683
0.37718
0.397556
0.417567
0.406277
0.269855
0.126097
0.162289
0.193671
0.210425
0.23439
2.31186
2.30378
2.31239
2.30843
2.18447
1.99568
1.69923
1.38355
1.1929
1.08523
0.9985
0.919686
0.83955
0.751843
0.665836
0.575824
0.455974
0.309629
0.218559
0.196204
0.194995
0.197842
0.203369
0.213196
0.228575
0.24899
0.272805
0.296629
0.321155
0.343867
0.366523
0.387471
0.4075
0.396249
0.255829
0.0968508
0.141415
0.178746
0.193358
0.219824
2.36872
2.3801
2.39122
2.38859
2.36058
2.17819
1.89884
1.45376
1.29627
1.19395
1.08819
0.983768
0.886232
0.787444
0.691619
0.59632
0.476349
0.322636
0.21245
0.18189
0.180229
0.184033
0.190012
0.20004
0.215883
0.23722
0.262027
0.286894
0.311974
0.335377
0.358093
0.379506
0.399485
0.388214
0.24454
0.0674862
0.125199
0.16769
0.179452
0.208985
2.28256
2.30265
2.31237
2.34937
2.43356
2.36655
2.17671
1.5745
1.38087
1.30942
1.19856
1.06415
0.934297
0.814527
0.70867
0.610379
0.490943
0.333147
0.20949
0.172019
0.169928
0.17453
0.180883
0.190951
0.207135
0.229182
0.254734
0.280338
0.305786
0.329649
0.352357
0.374079
0.393984
0.382684
0.236916
0.0380532
0.115076
0.159786
0.169438
0.203743
)
;

boundaryField
{
    inlet
    {
        type            calculated;
        value           uniform 0;
    }
    outlet
    {
        type            calculated;
        value           nonuniform List<scalar> 
165
(
2.28256
2.36872
2.31186
2.15014
1.9436
1.64867
1.2918
0.911826
0.747584
0.76075
0.740784
0.720056
0.692204
0.662744
0.635062
0.609147
0.595393
0.625242
0.972053
2.32937
2.32937
1.01745
0.495388
0.385666
0.36051
0.35683
0.342729
0.31977
0.290048
0.262576
0.232047
0.204862
0.179675
0.160606
0.147065
0.13947
0.136216
0.136181
0.138581
0.144227
0.157049
0.171904
0.18856
0.207303
0.225996
0.24892
0.268543
0.291624
0.313333
0.336426
0.356911
0.379292
0.396682
0.415408
0.426921
0.427128
0.411492
0.494762
0.886689
2.22591
0.203743
0.208985
0.219824
0.23439
0.248108
0.268082
0.284472
0.305228
0.324513
0.345524
0.363342
0.383717
0.398536
0.414286
0.420778
0.417295
0.404045
0.494852
0.907477
2.22591
0.206999
0.207938
0.206396
0.207938
0.206999
2.22591
0.907477
0.494852
0.404045
0.417295
0.420778
0.414286
0.398536
0.383717
0.363342
0.345524
0.324513
0.305228
0.284472
0.268082
0.248108
0.23439
0.219824
0.208985
0.203743
2.32937
1.01745
0.495388
0.385666
0.36051
0.35683
0.342729
0.31977
0.290048
0.262576
0.232047
0.204862
0.179675
0.160606
0.147065
0.13947
0.136216
0.136181
0.138581
0.144227
0.157049
0.171904
0.18856
0.207303
0.225996
0.24892
0.268543
0.291624
0.313333
0.336426
0.356911
0.379292
0.396682
0.415408
0.426921
0.427128
0.411492
0.494762
0.886689
2.22591
2.32937
0.972053
0.625242
0.595393
0.609147
0.635062
0.662744
0.692204
0.720056
0.740784
0.76075
0.747584
0.911826
1.2918
1.64867
1.9436
2.15014
2.31186
2.36872
2.28256
)
;
    }
    obstacle
    {
        type            calculated;
        value           nonuniform List<scalar> 
40
(
0.58801
0.00767907
0.0936934
0.092858
0.0939096
0.0941885
0.0952806
0.0969635
0.099048
0.0921288
0.58801
0.00767907
0.0936934
0.092858
0.0939096
0.0941885
0.0952806
0.0969635
0.099048
0.0921288
0.10065
0.139619
0.193535
0.280767
0.426466
0.10065
0.139619
0.193535
0.280767
0.426466
0.940124
1.3416
1.60787
1.78573
1.95422
0.940124
1.3416
1.60787
1.78573
1.95422
)
;
    }
    empty
    {
        type            empty;
    }
}


// ************************************************************************* //
