/*--------------------------------*- C++ -*----------------------------------*\
| =========                 |                                                 |
| \\      /  F ield         | OpenFOAM: The Open Source CFD Toolbox           |
|  \\    /   O peration     | Version:  v1912                                 |
|   \\  /    A nd           | Website:  www.openfoam.com                      |
|    \\/     M anipulation  |                                                 |
\*---------------------------------------------------------------------------*/
FoamFile
{
    version     2.0;
    format      ascii;
    class       volScalarField;
    location    "6e-05";
    object      internalE;
}
// * * * * * * * * * * * * * * * * * * * * * * * * * * * * * * * * * * * * * //

dimensions      [1 -1 -2 0 0 0 0];


internalField   nonuniform List<scalar> 
1300
(
1085.769712
0
2713.972124
7906.274366
15807.31271
6295.366479
1703.16133
9516.98342
6026.599346
1719.834323
714.7215746
1929.953118
8173.21342
12287.87399
5255.47951
5492.848216
12505.38084
14057.40596
149.9956652
15984.10235
477.4013651
0
5320.805034
8148.773171
5707.292792
2638.466816
4086.905553
18594.89642
3813.993971
5277.036831
1106.332307
2362.620994
1612.593183
6275.3548
3366.223557
3221.611021
4415.423189
6700.568448
1651.854003
2595.037485
562.5327623
647.2584984
2811.80593
5216.553895
5579.656797
1381.424499
5462.504488
16317.57527
6004.714383
3388.306518
141.3079661
447.9571296
3261.563994
5984.403848
10251.05417
513.0163006
4870.917331
3821.350211
5559.579812
2593.399034
0
0
2745.339322
6115.530147
4843.055813
1742.136987
3679.862423
1669.424028
5712.998348
5540.114927
0
0
313.660934
6771.280364
9587.955369
1695.00206
2391.383616
5594.990534
5813.852369
3672.372097
173.3616818
0
558.0051667
10189.19183
4815.292123
230.3613282
4089.072242
6146.619218
2911.402933
1007.237645
0
392.2989209
3813.202403
9145.47615
3985.495879
238.414515
5375.165848
5240.25444
1196.195734
2826.598462
0
0
537.0217981
4438.060251
4360.608237
1594.265971
2968.236243
3437.813314
5134.217089
4213.768528
0
448.6431545
315.2504147
9258.196278
7891.957712
120.5072886
3336.077583
4608.754835
2626.631337
4749.456926
0
212.0155626
1450.206371
7063.080387
3221.824021
3754.772114
3493.092442
2168.646708
3172.743873
5527.627862
425.1022224
0
885.6630361
8983.301334
952.4215401
1606.571987
1149.10316
7189.271311
4929.429508
3529.168989
0
0
854.4472264
5198.674012
5685.973324
5085.12775
1655.531812
3910.070026
6975.20211
3974.611541
0
0
5784.725825
9229.140515
1670.592177
3170.774092
5788.106183
4927.903788
6592.709701
4489.078797
0
774.1173055
3885.911485
7941.579716
4198.668976
5564.488667
3800.927625
5066.483316
4011.779796
6342.874497
0
0
1368.981946
3751.20584
2550.314573
804.3306166
2414.620579
5881.885377
5510.326891
3361.697115
0
0
2373.013053
8551.869324
4843.155463
2281.886232
4278.187999
8472.234848
3942.390987
837.1704898
0
245.2351265
1614.016999
5408.362295
1296.330014
1864.641321
2117.591608
7650.424974
9383.014054
2820.588527
10299.30518
4827.993158
5984.31337
4248.833931
5552.512998
4936.050281
5371.140616
3011.752344
3470.668575
6710.261489
6572.646645
10024.93887
3830.820581
10927.72284
2777.476531
3169.279399
13437.14434
1375.206665
10458.07345
8076.711859
8006.930575
2380.584741
13737.02631
221.04994
6644.924817
15276.93768
13755.47326
6867.48697
10765.44236
4739.029607
3675.588538
5591.026125
8062.979226
12404.82017
1801.197119
9912.917555
803.9598331
9319.324338
3042.218339
5099.511571
6620.911957
3142.068142
4029.193778
10201.68344
5015.20609
4599.234124
4475.356812
10353.64841
3860.002811
14950.95698
11858.35637
6999.334245
3687.28646
6560.051561
6834.964401
8500.451193
5370.816377
5735.180976
7899.408264
4824.767825
8540.589527
8457.21248
7792.797038
6347.045728
2078.744593
4123.852155
5523.247347
6147.970985
9640.46153
16335.047
10456.26316
6578.639555
1918.379556
9866.261997
6688.041781
4803.525141
3114.087455
2661.924246
4830.047567
18627.05028
6481.737272
6397.075015
6929.197261
6284.975585
9571.388235
973.9269628
17687.74086
18535.8668
8096.675521
6541.433648
13013.25661
14186.12088
4720.6026
4859.394904
4717.008776
1261.323205
6314.951029
4319.558238
6318.603494
2236.935634
5653.4578
4800.712107
1222.11793
3609.463339
7409.3458
3776.76944
5638.801372
9078.670721
2916.146809
6719.067127
4607.508888
918.5208132
6550.195103
8945.107708
7258.06004
4553.638789
6011.099127
8069.392111
11736.21377
7263.394881
2662.226128
9464.412677
6939.055273
7255.743991
6915.956282
3572.892592
2710.406114
2578.414847
13118.00907
10449.84436
4589.348147
6090.840345
8095.692083
635.6698868
3131.798578
11539.08231
3865.341524
4910.802416
2372.793714
9064.302321
3960.027574
6746.420509
6313.108675
7603.973549
4984.822739
6412.428928
1493.123735
14249.55434
12275.78982
12365.94727
4012.317051
8178.285014
9737.39112
12141.2515
4085.348719
4661.547152
5572.702576
2984.347513
5153.058769
5624.534756
2409.21886
5703.705371
3778.899375
6281.429186
5233.193748
3127.925435
8316.866394
7590.982884
3242.716843
5225.559473
1245.809708
4678.591826
7963.702438
10522.78642
5178.338337
9878.929035
3466.481469
10696.1433
10495.75492
8608.272541
5174.547203
5856.928736
5131.818188
3951.137374
8915.383053
12136.67142
5434.49235
6390.978817
9418.636899
7925.656503
5297.270161
6842.818757
12424.50567
11457.08993
2055.182849
10464.4098
6267.513798
9535.833372
7039.678875
6169.678663
1039.885376
7542.856812
10094.56973
3317.945622
14203.09009
4206.231291
8722.014233
8780.090706
4813.614264
3987.499428
3400.031767
1480.480378
9086.332928
4141.516853
4154.460651
5571.475288
4356.655138
5995.312421
5868.460419
3966.051939
2477.935888
5193.330067
8131.818986
7913.756538
2331.481637
5848.901613
1838.298949
3242.06176
6033.875285
4281.562813
8304.519153
3069.938811
4171.979685
15569.69642
3080.574252
4956.727091
11414.34933
8186.179466
6290.312256
5253.066994
2636.277621
3918.331711
7435.551974
1885.818216
5671.739264
7940.141139
3757.542752
7715.5106
5319.364232
5430.427172
5023.709797
5280.332521
5246.803363
4894.95921
5708.958219
6528.077836
4860.781399
3041.504343
4573.720921
8454.380424
7006.888198
4757.360525
2795.01135
12897.1911
3437.368783
9482.026948
5353.840753
8275.648703
12705.92122
20401.83971
4593.289647
3104.830045
5682.653148
3163.951683
13049.7001
6955.047909
4916.055294
5912.905303
3882.03255
5713.030212
3759.421901
4597.301716
8943.52134
10526.45341
7330.024498
7220.771673
9104.686093
5808.288665
6626.425361
4871.949038
2475.398642
1679.569517
4546.496825
2280.47045
4855.476392
10585.05603
8800.395482
3991.744055
4922.003389
8641.246136
4613.939885
7000.586435
8151.731474
5477.384486
6080.289683
4944.221766
5764.765114
2898.089926
5824.347993
2411.441384
6855.241551
4665.431748
8806.789821
14964.88414
9464.530303
8990.297787
5119.283797
4199.715982
7424.377142
5813.685797
4729.156849
5850.087514
5818.68926
1815.555071
6280.364149
5983.76506
8878.357654
5274.343429
3959.624158
12577.37942
1168.28443
5447.507233
4776.131804
5803.484967
5458.625412
3467.145028
5712.893255
4356.270858
6287.308849
3160.924774
10907.52242
912.5175685
3212.919524
6877.878439
7213.541749
7671.841112
3093.613383
7619.485621
8361.620374
3983.619523
3689.668895
5838.824923
2238.471991
7965.031424
1776.438042
4651.568699
2809.739907
6180.130952
4609.761203
9553.118551
3287.541252
3080.091105
1780.928341
4803.591181
4637.373839
4948.212324
2971.543394
5868.932217
8967.988999
4625.247698
4001.133105
6575.540582
6767.93705
6962.73075
6601.212624
6417.897497
4574.471553
9406.023581
6523.255068
5015.976579
2419.539606
2373.735514
4464.361279
4861.991481
4078.085619
2108.312308
2931.964995
5282.580105
4136.722368
9893.799928
4478.040909
4362.651099
2122.985828
3730.508273
5155.318121
2011.791238
2833.384866
3000.425138
5277.303481
3173.585337
1283.991148
5168.974092
5083.561284
5637.791109
7974.154431
6854.198816
6949.800007
7623.975617
6498.313464
4864.788453
3849.293605
8265.542186
4513.898051
3897.140861
6573.994462
6868.163834
5450.700557
6226.497211
4329.083482
3188.662186
5623.602757
5227.77154
3965.366849
1786.109232
3718.813168
6499.08019
9013.278598
5940.513163
4129.605823
4095.441179
6846.838716
5101.637835
5401.96912
1712.159239
6752.509916
1661.648262
1886.224011
6438.233842
4681.959388
1995.226799
8007.512316
3574.919515
4132.785595
4757.393025
5869.580797
5169.639492
5204.790642
6100.470779
4090.247213
7164.014089
4346.100206
5777.766829
4333.826141
2191.910209
4573.121423
3976.072458
1949.364084
5343.857752
6758.106993
3207.442361
3758.364323
2203.578884
2693.931741
2016.334309
5302.347668
5560.352549
6076.393241
7515.3496
5348.902284
4666.072335
9590.94108
11302.15101
10851.37912
4948.786161
9081.7833
6483.992401
3302.006687
7616.91693
3438.318907
9724.918606
2727.399564
4049.783747
7211.658521
2728.260476
2849.680383
4092.323948
2634.61948
3297.328512
5415.289383
4511.854905
4540.508962
6078.442492
4582.649059
2020.137431
4482.940178
4811.935498
6883.82837
6627.443917
5838.176185
4243.153844
7851.299719
7759.958355
7166.84336
12341.67346
8228.274732
7293.722079
7947.372226
4789.449861
7474.390963
5081.186674
2250.873832
4632.559225
5429.459134
2532.423744
2733.576862
1430.491821
2652.851753
2882.694302
4373.962832
8498.879658
3267.933905
4236.530299
2063.536161
2215.490794
7787.211373
7863.827057
2041.971009
5434.038832
6023.093429
7066.987407
8349.729806
4455.407289
7082.114581
5851.965298
7051.05755
5771.689356
4052.548603
10163.25971
2888.57979
3731.777954
3022.89697
3944.633263
4912.682731
526.9408958
1812.883169
4564.380542
4425.730954
2537.750841
7140.584329
3665.218344
4872.521933
7956.885811
4641.110381
5070.274158
1927.951797
6813.521192
6042.613481
2637.652089
7059.664164
4276.594458
3200.042883
6670.56242
3437.845736
6448.533458
1962.000829
5298.107533
11451.47154
5938.39376
7690.802281
4637.961014
5960.044129
5595.044096
2287.154204
4498.501594
3179.555548
3892.393229
3633.852948
3654.023466
1230.944775
3307.169639
1337.343232
3991.78631
3972.57655
4511.81558
2728.034708
3019.841103
2276.358459
6129.320943
2384.72096
5398.369075
6222.646894
4836.144586
3321.864745
5181.175477
3933.771005
2763.508161
4939.663186
5321.361388
4321.514789
5711.457705
3243.384981
7673.781529
4907.048331
5686.620017
2734.166613
2893.556984
4875.786668
1390.134676
8670.077523
3917.234986
11666.46937
9775.3172
3894.597345
6395.81037
11573.85417
4857.71405
2262.08318
3094.318567
6328.663335
3801.210958
1826.881688
5041.066495
7009.281108
180.0539711
6535.213377
12387.58699
4524.457707
6413.127759
7988.617866
2367.903475
5616.074399
10487.41822
9985.032715
8262.154661
12837.51353
9801.749291
7943.246438
6207.915684
3472.332446
2099.876408
10020.848
6356.890638
7442.064878
5149.353044
4048.283898
1745.462065
7833.57876
9050.246884
2071.902935
3769.257873
2014.276677
921.1251532
9538.749116
1120.943543
4825.979388
9929.709375
9200.662155
8913.596556
6485.062637
3277.079042
22672.67802
16781.92473
10961.06058
9882.150083
824.5420861
3303.924121
8990.807009
10674.8489
9390.444933
9018.305735
1869.369715
2277.653175
4655.549307
5115.948568
281.1389608
7035.418076
1296.073188
3263.206986
8453.100872
7011.107223
8888.216153
4917.585737
10534.17519
4647.374054
8907.238145
1339.145661
10620.01196
6540.165585
5409.726035
3880.324412
5671.615622
6731.568184
11860.00255
12113.45924
3306.253284
11688.35694
7218.149991
11142.26754
15188.34041
7542.401645
7610.23349
5662.083658
3281.160093
7232.131828
4678.139972
2167.994671
9620.130482
7804.766684
7099.493347
8256.656909
6407.174899
6372.081769
7371.523775
6926.722392
6396.946142
5604.102749
11084.0012
1484.778087
5122.436237
9253.00047
4746.098167
8363.418362
3363.506517
8065.953379
6879.534249
4294.721494
5936.050207
8762.684484
7028.123309
12044.08408
4334.230991
4569.262878
5365.370733
7155.257338
8375.964873
9610.053152
10886.32369
9199.541467
8249.060602
14860.57822
5786.978608
4771.828657
6319.034734
4642.512109
2172.173197
5526.528045
5423.190837
15049.49686
13075.66114
8299.179065
8088.058469
5551.426201
6186.820538
3362.160807
7654.283235
4927.882055
6408.043054
5558.058278
4948.159548
4305.533082
1940.355015
11863.6211
6616.221009
2253.725349
11181.66427
2458.478328
5714.616576
2831.606992
6473.668935
9694.367182
6295.516458
8458.590442
4074.988469
5783.603361
5461.508152
6356.48255
6010.226736
7793.029604
7490.02703
5119.168904
8495.31416
8223.630804
3317.313711
4784.149958
3098.796106
3679.378006
5415.173668
4533.3765
5126.277382
3345.333884
4153.936561
7878.932411
4270.134301
1287.536595
6967.432968
12339.29737
8074.368501
2547.478126
5483.419569
5848.551304
2868.192412
3219.94075
3144.012696
4907.048294
2173.66568
6977.512516
4336.116532
1840.928157
2754.565325
3671.756231
1977.900537
6029.867408
2929.136753
7272.691136
297.9047718
8054.677416
4613.447768
5390.768153
1136.663672
1793.667955
4858.811572
6536.414569
4676.40663
2631.328391
4212.209251
1757.947278
10712.18986
5584.162702
2780.55178
6301.734602
2615.779602
8398.099906
3587.654899
7233.401626
4970.402721
6029.037645
4609.939034
4789.875473
1526.402797
6647.296146
2511.31585
3188.905714
4862.801718
10258.75092
6461.1358
2754.087049
5993.635439
5747.648534
5836.767714
5156.03793
14865.75161
3840.113945
1976.552841
10800.22284
7569.402142
8759.936512
1183.766572
2979.65664
8627.784229
3512.987744
1195.329315
5699.434967
4168.4418
4474.861972
7206.870107
2108.795667
338.1576913
5350.144564
11020.58885
4292.846264
4640.850263
3671.770395
6779.893372
4520.210421
4440.049058
5714.453096
3950.242278
1644.698078
3784.761282
2833.727385
10865.22917
5123.355449
9437.41455
5030.206702
17967.30372
12044.90443
7136.675501
9087.597895
8297.676385
822.177836
4943.023073
3928.156726
11199.86651
5723.708002
5901.504525
2548.342628
6581.319294
1697.71738
5885.153544
4909.928922
9838.030586
3863.863316
5710.279021
16582.13042
5916.584941
6107.327416
3495.609864
7766.563263
8731.151623
5437.481898
9292.724682
6435.823862
3940.916644
12735.85383
7680.020067
4637.28715
11120.96277
15988.8256
12490.20983
2574.449782
5369.504065
352.8717648
3233.779843
3375.578177
1880.005951
3885.637181
8630.750212
5934.357997
2200.587976
7998.610485
5710.84616
7833.011716
2690.4236
8025.912495
2336.414306
2984.381889
9012.249816
3271.930007
11814.26325
5830.385715
7166.266294
9881.566854
3991.860476
5964.07944
8030.573345
2715.471901
14298.81441
5932.475989
4707.746724
3262.563021
4921.822964
2419.853694
3378.794908
13292.92514
1607.384372
7500.991487
9103.13923
6654.684278
5735.855303
2774.906739
9129.490997
2182.942851
6986.121943
5074.240322
2419.899848
1300.61818
4247.906236
11927.11228
8887.067973
5677.866284
5982.102365
6327.142359
2724.584321
7266.779592
3629.415788
4793.975619
10767.21424
14701.16287
5817.789127
4638.808117
3207.427526
6331.7187
7740.302808
2747.733243
8479.470669
4888.617421
1884.484163
6337.597831
6267.302595
4423.430966
5647.046244
4912.566129
7944.863393
5686.142508
5759.770811
5167.458806
4419.899335
2391.00916
8589.166409
4414.623764
15603.80818
6419.727097
4874.621969
6321.832092
6975.38045
16802.89668
1773.690022
7361.323127
9605.125156
4079.160873
460.8845151
11713.79738
4028.509736
13084.33641
2747.124885
5181.703303
5985.371006
6914.370958
3100.715553
2394.271868
3861.819759
6397.186289
11149.29044
6708.038854
5941.242589
4417.894927
2056.802716
8391.181717
2905.956969
4192.453657
3865.571444
3947.858774
5216.566864
9152.360593
4651.780788
3818.496604
5623.73978
13519.05726
12019.85437
2130.293185
4757.203639
8517.220372
3726.869771
4535.334675
10093.04844
12193.92006
3532.39586
6541.8416
5193.272029
9441.833718
5546.226747
7141.835327
14589.91374
7918.505018
4868.756682
2029.08549
6477.973545
444.3974268
8782.504111
8965.379997
5399.57341
5602.115007
4438.974907
9975.911832
11488.4611
9165.176128
8282.742877
5132.387889
5625.151462
6095.857998
3545.336605
2990.69054
1921.582557
6282.923146
4679.483138
12304.47545
1434.454291
5964.165333
12038.93042
7099.283516
7292.096257
9238.57079
8616.974377
3313.658434
3141.31547
6922.501413
3065.734965
6810.843068
4339.328052
6458.226593
6443.980442
8205.148829
3747.022404
7468.933438
12174.26081
9527.73378
5177.584049
5982.333587
10537.29029
3366.505728
)
;

boundaryField
{
    inlet
    {
        type            zeroGradient;
    }
    outlet
    {
        type            zeroGradient;
    }
    wall
    {
        type            calculated;
        value           uniform 0;
    }
    frontAndBack
    {
        type            empty;
    }
}


// ************************************************************************* //
