/*--------------------------------*- C++ -*----------------------------------*\
| =========                 |                                                 |
| \\      /  F ield         | OpenFOAM: The Open Source CFD Toolbox           |
|  \\    /   O peration     | Version:  v1912                                 |
|   \\  /    A nd           | Website:  www.openfoam.com                      |
|    \\/     M anipulation  |                                                 |
\*---------------------------------------------------------------------------*/
FoamFile
{
    version     2.0;
    format      ascii;
    class       volScalarField;
    location    "6e-05";
    object      linearKE;
}
// * * * * * * * * * * * * * * * * * * * * * * * * * * * * * * * * * * * * * //

dimensions      [1 -1 -2 0 0 0 0];


internalField   nonuniform List<scalar> 
1300
(
476.7735097
0
24643.51078
91950.98725
60419.70503
5687.325407
26371.22939
18677.38565
18880.00161
28979.0482
9752.564096
1963.458605
24558.26412
184750.6879
43954.82242
13654.13333
64817.22973
70291.42175
22316.95474
80893.86581
1965.20537
0
18424.03366
155212.235
128567.2763
17595.08442
39705.5902
140083.1139
49027.48989
31258.08357
7769.188642
6763.314958
29445.42514
155681.2292
82093.00429
34936.16527
82571.42881
115768.077
34034.83444
39754.63415
1985.123496
2118.259192
20204.129
130259.6506
120525.8938
16692.57826
95155.10643
170058.7683
77293.9842
39349.47734
2022.473543
1380.936472
21213.0984
147291.7243
150971.0122
20892.13447
133652.2826
106150.7127
106040.6958
50746.47464
0
0
29471.15337
135162.8323
111124.0689
20714.00373
68717.77935
70686.44391
127477.1341
68996.82666
0
0
18229.49461
152942.2747
175028.143
29699.59374
63016.53553
99866.9358
126238.8704
27621.90388
1642.781292
0
18559.09853
182751.5094
81294.37456
11592.34923
72364.61496
117684.7194
66078.42856
47313.51001
0
1890.285319
47270.59337
171094.3114
59490.59217
13092.16111
98579.6202
95817.58841
22320.87532
53382.37639
0
0
20480.53385
169234.6659
95954.85942
13600.97849
90507.95051
79922.16978
124071.816
114826.5058
0
3019.882284
16355.76926
166881.5871
123343.3205
5304.968451
96432.76851
124413.8038
53474.55534
49054.00511
0
3152.102126
20328.33864
200561.5567
85106.42523
60663.43906
69902.70742
82505.54136
64693.25571
89727.43805
1357.566311
0
21291.79005
195923.0116
45285.22625
29270.5214
60659.86903
155553.9234
109926.2339
48143.63819
0
0
40033.66417
111272.0824
67521.41859
45143.58284
33960.71586
82724.15569
96205.78108
41766.51819
0
0
47074.43271
153221.6533
102518.907
37798.56436
86834.32491
104413.1559
85861.70615
46084.42031
0
2253.597083
30147.45393
162855.0683
149746.7776
59277.16052
84185.8376
102283.22
76642.01815
93570.08801
0
0
19355.16054
136678.556
46488.56795
17501.27453
60386.0453
96729.84
77736.53434
69795.8135
0
0
41329.00557
194933.2541
86296.52497
23126.84437
81997.59733
102497.6442
89730.56811
37347.0176
0
1967.181473
30931.44072
168479.7861
61805.92226
21982.32009
48646.81652
108680.2771
130250.9433
69572.12711
23361.20725
22354.34324
16096.13918
4606.710129
28437.11551
19184.59112
14546.39517
18015.89483
15241.84273
14205.05107
35724.44253
23425.3192
14206.93224
10003.13914
5813.954843
16010.03322
30088.97926
12570.33523
15146.85785
26532.49405
17262.2745
9223.542744
25698.75198
352.596837
8253.419806
18693.36557
26188.1817
15899.00109
11342.65177
6526.519175
17719.65646
36340.85573
41515.18095
37936.66727
12274.17686
20983.77824
15854.73956
25672.60585
9175.780313
24845.71969
20428.37142
8492.887159
12694.34888
24354.65354
24318.17807
6537.42243
21223.17397
35980.58482
23496.31589
25125.26323
9562.117732
9010.453397
13845.88093
9107.594412
9458.325162
13067.068
18231.38976
14728.90995
20272.1823
14140.93527
59985.3258
68943.87911
31643.04236
41248.67329
22589.89818
33097.92213
19439.8538
24066.15122
51764.62254
31397.78132
37739.37989
25496.36424
29483.50159
36258.33169
27730.72687
22453.17907
15090.20667
17784.9247
18389.38609
52983.57128
11668.51092
25299.48625
13018.49479
9037.628143
15198.9974
11043.61418
25733.08112
15388.62941
18082.38168
13901.45644
91990.58236
100348.3542
52663.02581
68297.00982
76870.45184
14871.50298
69758.95044
41273.84379
33294.21355
14084.62854
24240.63251
32050.67266
17639.9164
21908.97669
18262.91823
15837.20931
20756.36083
36690.11195
19087.95529
21362.68845
22543.65491
5984.259917
16516.71275
27345.26733
20089.11968
13925.2315
13933.07345
13952.42768
26844.80026
9250.453901
79141.47887
114978.0398
87820.47954
84528.58948
68773.96541
45048.38849
25097.26649
32943.27016
87192.03206
80341.85313
55405.16258
40156.48727
31619.37801
30122.92521
11101.80692
43862.94956
33464.39326
49742.3185
8908.622158
26874.54582
14274.78176
30051.51817
36339.16815
35516.90884
9985.524953
30316.77324
17925.83551
20102.06029
21800.31512
31990.56995
62075.99089
101788.3481
128183.2628
109042.0944
77152.6248
63098.64451
79681.94189
68052.78732
37904.05046
60563.68572
29808.64542
49929.39966
38800.95061
47040.98373
38442.28586
30450.42456
53142.7663
24396.39796
24436.40216
40169.57419
18229.2106
25399.05159
29443.45195
30780.51203
27594.76326
37269.02434
17818.90134
43027.00696
34126.59316
28375.35938
101649.4559
105852.8309
82370.31722
67754.10609
97540.3723
97697.34643
48051.86241
81245.43994
82808.58278
95151.12243
70000.00318
60419.84345
51515.2624
77443.45821
42615.33529
47374.66242
64874.8899
65157.65258
31902.02715
55162.04197
7552.858881
31364.7969
43684.94471
21129.26258
21010.42697
33003.34675
37098.79843
21356.24187
11017.60605
42695.32049
60069.39772
33858.27617
58349.34354
71325.4631
102915.4796
100132.4643
70063.7753
89747.84151
88260.51619
30054.06818
61427.51163
55921.19104
100467.3618
76323.01969
50429.75443
80603.91234
19674.86362
36902.81303
63064.40028
44225.43266
65131.50267
41965.81159
55957.28805
54638.10526
15799.26642
22255.49879
45841.52881
57062.09528
48842.5463
32203.28163
47794.06004
88531.80959
87839.43169
66044.05826
69700.75952
94195.128
101589.5575
107410.1693
94744.773
83344.02373
105152.278
86803.02771
45942.18246
58286.28099
65469.61073
95774.57448
89857.3239
59573.95612
69161.16181
60503.04181
49215.0285
48420.25469
38300.68354
75487.74935
37403.78856
55661.97241
49632.30281
62629.20063
75705.44793
83094.15743
99361.6293
47017.98612
76640.64168
93684.28101
96624.9489
124880.6035
87532.67282
117018.2314
108290.9126
84338.38972
71590.43664
91515.61551
100467.6381
91357.28223
130910.257
83831.76464
87215.01506
80723.47506
65668.90025
49448.11053
66961.1394
37099.18567
53375.1962
32531.47914
58396.50638
104915.6197
80927.78752
41753.97475
35366.44508
55554.53348
74880.8458
132474.8565
90567.15439
103254.0475
95132.58836
100762.5769
128762.4664
56020.04339
101099.5269
64214.90193
105819.4673
117210.0902
136395.6265
187783.3625
157251.0121
134541.0906
93790.56472
84243.92459
104888.7743
51031.36032
69867.90764
59496.62871
84082.14087
18085.40154
101198.4297
48946.95102
62210.47766
19744.46281
75958.46945
91537.24126
29620.61824
141804.1069
89042.41451
93530.71298
61125.28774
67740.43729
111486.4424
68335.84661
111087.2335
86439.29279
95056.90756
55626.59366
80619.30217
110993.0822
90880.1185
100041.4882
58280.96614
93983.70114
132098.8833
73205.18071
51978.27142
108549.1193
53662.23395
121158.218
36817.62618
106932.6885
69184.88617
99505.70947
51693.0972
33198.70478
87106.81114
50965.15321
62444.0529
98786.61982
80799.4962
84855.66122
56864.51789
105348.216
122239.5075
71608.38122
73255.98769
103860.8059
69873.46436
106218.6751
81708.53916
116616.1552
70288.91812
135816.0504
90473.20958
62782.67872
52386.34987
43190.75704
62814.26551
101484.1477
61016.50383
56030.77769
46943.95489
53506.97679
51772.98553
117008.8892
71833.91452
72445.86989
75669.57686
97743.20993
63432.15618
58614.54859
95348.0025
54041.21612
79350.27197
87199.77363
54411.72159
80683.97896
115061.5025
88037.42707
104272.1639
102213.6883
93069.98329
104388.009
112475.8276
55402.25735
75776.99398
91179.53172
71672.70921
53789.47132
77407.49022
86825.02132
79748.63299
118965.389
67118.42131
63164.87259
104782.4076
62922.58447
98870.11178
48958.73251
67101.23139
86173.38673
101431.6692
95966.67931
72977.23594
62534.50654
126747.6311
80724.12143
102972.5078
60427.3937
56744.91859
75654.92026
64391.82493
95589.24106
103431.4375
56878.20356
123501.1526
82257.14682
83011.95067
92561.04949
108212.8516
79565.03273
85654.22454
113862.4967
68402.64512
91236.52268
96759.41357
100600.962
59987.12364
60683.61213
101911.2277
87731.51688
54928.37071
71161.75085
137822.1538
30795.27412
70979.28859
58626.5198
45841.34597
58980.49235
84436.47384
86357.5647
79504.01534
128871.7416
79754.48737
115957.5445
108706.7648
174001.5888
92288.04714
59075.55921
80541.01775
88336.00619
79351.35253
108137.0649
75960.52591
110005.592
72035.6567
46289.1013
78425.26617
64874.80695
70277.02778
86076.28005
75841.34671
58496.64645
92163.96685
113696.9863
83793.53024
109341.9531
121084.3514
68992.47437
82029.10137
61037.42861
117804.3183
103736.6412
101683.2353
87035.17616
133140.22
132936.0748
164921.5107
125180.0017
149758.0208
151394.1835
159610.4696
82445.28776
97215.12633
102131.0787
66844.97165
63577.70915
99012.16367
65775.60433
38846.8089
73640.01649
71477.69467
65852.4133
73764.93546
155396.0473
95070.44202
61193.57425
50497.91927
56269.61373
69167.9937
98049.95563
50762.84948
86782.66229
63248.28676
80816.27299
122133.7394
85839.2131
125153.6984
88362.79584
84748.76524
125680.3125
78605.17001
140924.4032
77526.41309
77687.05448
83595.61902
74250.95947
82461.03073
40613.37654
55139.65996
94092.52245
75786.50767
83914.10915
83454.22224
92882.74472
116225.6246
86540.40874
86064.56312
56590.64184
40342.88146
91300.24393
117304.9889
73814.90772
121969.2053
66719.05919
81110.08679
90370.26077
93305.50244
121011.3479
67009.24812
131352.6719
113579.9729
111486.6971
115765.4733
69884.50708
84359.72006
107462.8904
63972.64382
110456.7779
41144.71764
130822.0262
59397.199
84982.15519
55740.77713
72100.65202
29487.20121
93664.32227
91701.82336
107571.0206
45424.55728
73156.69518
103085.0898
93488.78799
67124.27334
141046.2974
117374.3652
67594.01105
84516.24611
79849.15435
97152.06722
49847.17536
136149.6867
102317.9894
102084.866
91216.28501
5187.411484
10828.07226
9533.77545
9100.847009
2314.129852
3766.531132
6070.600174
4584.532104
18214.83568
2012.720616
11284.43974
14123.79771
11142.6118
11526.97626
7662.160237
4777.219832
9643.123757
8666.634319
8261.952673
8391.660171
2879.813081
10943.97632
15355.30718
6549.184891
19856.64339
25188.67728
13249.50735
12404.71525
13666.31695
11467.78338
22741.11948
15640.42018
13339.88045
24889.66523
7993.768319
19254.90146
11569.31582
12944.67384
4649.693116
1251.337761
21767.15517
20239.5263
17569.4055
17551.76581
23555.36892
11963.69762
14920.75
13297.92387
17742.29205
10367.33777
16221.90462
13445.88863
20026.35886
11681.49323
20359.01294
24959.69651
22741.87814
15265.77848
13814.72557
27966.16268
37613.46185
43552.07336
20255.40264
14573.0526
8590.215814
11700.60777
22399.78225
31716.72727
35342.38305
10483.80009
16684.13519
10120.48819
60478.92664
58432.13646
5736.009156
25673.54083
20369.47382
25975.25586
17098.03791
32207.99806
37842.64179
37345.11884
66305.36534
36241.22045
29978.44147
29705.00538
61130.15107
25575.55418
50765.83503
27232.26504
48138.05067
34760.76283
69594.1594
33451.90002
43085.67352
74142.07756
37006.75588
28220.85808
57847.65429
32938.90433
78300.67734
41449.79915
51447.69658
77424.99098
30198.94268
21134.85674
62993.53085
48195.91816
54145.82514
29182.713
80462.89145
70569.14103
79183.29324
53959.35284
51100.55461
74714.06251
81393.24136
18879.59116
59638.50598
40293.81464
93044.75701
100846.2063
72015.86637
109078.3048
83681.98883
58136.83053
74631.31441
71155.5454
81940.36214
99914.31407
44752.27429
109176.8707
82550.33566
101262.7178
119585.4682
109313.3411
78436.59936
87252.04807
70628.02117
99113.10599
95015.47282
81298.67099
79976.39412
58784.84137
94141.23753
75640.36504
84393.18671
117209.3316
147736.0939
52937.36171
95204.91834
112636.1616
89765.77788
59133.87897
93811.55294
153547.2316
72224.92694
65456.92366
97275.11964
98945.38147
64109.8552
180264.8294
106114.6671
73114.99512
64768.82475
101562.633
114446.0966
89620.78209
104200.9257
102959.4848
43357.42411
113621.6813
57259.44937
67261.74876
57771.44512
134697.7365
73122.69171
62878.19822
115472.8906
72902.60441
113746.5771
97931.36818
53195.32043
117121.6682
60606.84577
69947.02584
108687.5643
73573.30673
96505.63324
81360.6735
83166.5387
82413.71689
78651.14657
41539.91923
147486.1438
137715.7895
69275.28598
108305.9919
87907.72809
78451.95577
3072.845049
7476.754543
1485.822464
10310.76978
3745.195476
3629.889631
4177.889967
4672.162969
5794.240591
9553.429798
5510.834518
7714.054989
5918.440449
10412.32846
317.2746954
5428.158295
14259.40715
9011.766557
3191.9938
6456.786145
4872.667763
6603.267408
8941.462056
13494.63054
9513.752424
3161.700883
9457.877025
4236.814255
4785.916852
8468.730038
4137.256827
10697.75825
9040.908484
7701.119424
9446.036722
12073.64849
4882.151865
7986.225191
4549.616113
13337.36961
4073.532065
9241.621074
8390.863783
7206.648557
15057.32715
4847.192342
5305.758239
2894.569494
10291.47083
12553.40148
19872.09732
5091.521631
6750.736412
18280.80538
11241.91155
11084.77341
2748.414211
8105.82049
9238.543108
8944.304958
1581.88923
11074.05044
16917.80974
7507.318679
17284.97215
7972.376247
2834.067709
9587.842024
9137.492967
11368.89946
11475.01793
3758.543647
8239.228345
7090.461618
8817.205509
9296.12625
6177.152186
3832.604069
8761.46742
12122.16485
12424.82622
12103.82764
12591.68123
7861.790532
26822.2652
17414.66638
6106.273819
7893.234662
12040.19362
3376.715202
8663.093831
7986.946193
17041.50718
4181.118837
6567.020207
4828.810211
6470.631852
5918.549378
13252.77582
12368.98838
6451.865999
7957.848312
3608.123932
9793.584709
6975.243446
6893.078615
4800.980335
10381.7599
14625.82708
13584.91404
8415.301735
16766.99194
6612.240093
14890.4949
8377.224185
7834.835116
5882.885988
9182.859067
13278.43616
10489.81543
6571.235775
926.6467337
3011.035548
9068.541779
4093.408452
6690.377595
13086.85154
7564.818651
5446.512437
17672.71137
5689.287811
7110.971046
4954.947215
12297.17461
1409.73176
8597.728906
11535.16676
10243.31662
7622.31934
12831.48273
8285.955308
10251.6049
10538.71254
9499.70988
10697.49184
7018.126511
17367.29631
8866.711889
7529.26933
1714.590668
972.5909036
7118.952622
3116.198949
11574.90036
5977.513903
13066.33267
15021.95552
18514.72955
11649.58434
10431.86241
16279.97143
6217.670208
4247.375559
7692.726581
7388.013288
1595.054849
10368.81942
12997.65519
16453.55766
19218.03931
16361.19281
11611.98547
6244.247429
17982.07115
3907.690927
3908.119019
13516.99736
15688.3776
10455.76975
7131.388884
7325.348942
12576.93888
12905.06705
5988.051716
18726.99741
7047.552516
4211.544689
12392.01411
9327.477859
9984.204518
9522.363395
5118.903019
15888.89855
10050.67345
10875.17546
6032.081537
5180.881738
9621.089003
12997.21162
9895.004501
18095.78808
10829.41744
12349.15609
5525.127732
13247.71654
21842.27831
5497.940378
10488.81196
18072.81148
6036.644406
1398.531496
11664.00795
4421.030683
10527.38106
8621.673585
7226.311465
21883.75951
14638.05946
12223.88457
16106.09774
1969.600339
8470.256123
8849.076282
12823.49448
7624.550242
7891.971645
13174.12926
5828.350537
4701.857906
7224.520403
4383.430299
9215.830945
13176.16217
7101.451426
11012.63716
11961.53066
14041.51036
15866.9564
10024.09781
9970.794595
2950.0641
11974.71364
6374.139749
7675.345635
8534.797599
15065.15716
6411.369383
9882.131679
14296.72079
18776.80239
6086.37488
11182.24338
27518.05572
6848.784175
8026.414898
11324.99207
5280.632945
1098.553882
9701.620228
11568.66742
17330.74164
10308.86597
10975.20606
21407.01833
13485.97666
12324.97612
11441.07231
9022.19324
4902.84571
10339.29533
3246.20283
7599.818407
2737.620874
12733.75638
16380.24709
10557.35953
7150.595149
14749.7495
10767.55473
7323.888132
10689.36432
15272.06799
10464.92549
5272.576696
6672.548877
11998.02484
9766.143963
26254.47281
3909.522389
8949.504964
5665.304385
28049.47325
9371.72807
14582.42166
15499.76376
6807.41228
15064.26819
5003.590927
15947.58606
8474.990818
)
;

boundaryField
{
    inlet
    {
        type            zeroGradient;
    }
    outlet
    {
        type            zeroGradient;
    }
    wall
    {
        type            calculated;
        value           uniform 0;
    }
    frontAndBack
    {
        type            empty;
    }
}


// ************************************************************************* //
