/*--------------------------------*- C++ -*----------------------------------*\
| =========                 |                                                 |
| \\      /  F ield         | OpenFOAM: The Open Source CFD Toolbox           |
|  \\    /   O peration     | Version:  v1912                                 |
|   \\  /    A nd           | Website:  www.openfoam.com                      |
|    \\/     M anipulation  |                                                 |
\*---------------------------------------------------------------------------*/
FoamFile
{
    version     2.0;
    format      ascii;
    class       volVectorField;
    location    "6e-05";
    object      momentumMean;
}
// * * * * * * * * * * * * * * * * * * * * * * * * * * * * * * * * * * * * * //

dimensions      [1 -2 -1 0 0 0 0];


internalField   nonuniform List<vector> 
1300
(
(-0.8933436012 2.205387547 -1.277886129)
(-0.04925430539 1.924303324 0.3494962222)
(20.09203594 2.70414393 0.356413695)
(92.37531932 4.385732155 -0.4395367223)
(46.34551127 3.475251856 0.0969542447)
(15.90237353 1.280987116 1.000058934)
(33.57675011 -2.160645161 -1.991720426)
(38.80048556 -0.3621329692 -0.02747164692)
(24.53894741 0.227043707 -1.908416)
(27.07200402 -0.7409031166 1.677182229)
(-1.64935955 4.694064782 0.6252649836)
(0.6281658034 6.095124111 0.1804555727)
(32.51519966 10.69602827 0.05486733935)
(174.6537933 25.68061084 -1.696966866)
(83.4470599 13.35480156 1.164887854)
(29.37029142 7.17460948 -1.276367968)
(58.87268841 10.81486893 -0.01373280654)
(73.87800922 9.560435575 1.545500103)
(49.26593122 6.633820193 -0.0902214459)
(40.22052805 6.562537932 0.1864492564)
(-0.7004882226 2.533434943 -0.2748943322)
(0.3782169271 2.841028345 -0.0570430535)
(37.3816379 9.803893814 -0.15173926)
(190.0694544 25.94837317 0.2865684125)
(89.74182365 14.44127889 -0.7499719575)
(30.59068955 8.931726475 1.027130169)
(78.19565506 15.02108303 -1.216998461)
(114.12993 16.97368724 -1.604711035)
(66.57836442 13.45670727 -0.8450548949)
(57.22175055 11.28123908 0.5329946758)
(-0.7009714699 2.921567281 -0.4519153437)
(0.7591071535 1.99908938 -0.07904503584)
(35.1530307 8.094237298 -0.442376837)
(174.7430409 26.97009604 -2.10339523)
(86.32124233 15.2653719 0.4054129392)
(37.20352089 9.274181825 0.3362963121)
(90.19205792 19.02678843 -0.8746207431)
(123.4760839 22.54484678 0.1431984436)
(80.99613827 13.95162612 -0.2812997988)
(69.38370616 13.00004288 -0.7261268997)
(-0.2464786915 1.265665221 0.02175017708)
(0.4467722151 1.805517715 -0.128087686)
(34.20621729 6.203824073 -0.3537249548)
(179.3671028 25.88600282 0.6470035454)
(101.7039759 12.29536152 0.3745849335)
(39.34130927 8.319584103 0.2969150656)
(83.21909397 14.78112508 -1.471888891)
(120.07347 20.67762621 -0.8600709703)
(92.52317116 15.68195772 0.1108633881)
(79.09884542 17.91232283 -0.07873730001)
(-0.2354929573 1.5359195 -0.1137472282)
(0.2323892424 0.7125480124 0.07924927173)
(33.48456884 5.632799264 -0.4944615661)
(183.5560503 27.18485002 -0.3752007887)
(95.59182933 12.96837427 0.2028666765)
(33.08700791 5.432055034 -0.5243187269)
(89.79841633 14.81714923 0.5360609808)
(117.5219336 17.26096716 0.4200456598)
(104.660751 17.8914337 0.6031617099)
(79.98419739 15.13319124 0.5627764181)
(-0.1416086386 1.089465605 -0.06927532276)
(0.8038531 1.042269663 0.2453273102)
(31.09321435 7.247841942 -0.1905643367)
(175.5383891 24.67369945 0.1181892973)
(88.33467763 10.58997558 1.087873724)
(24.29168402 5.214130819 -0.1581893317)
(81.39565952 12.79650463 -0.49408295)
(104.2561323 16.33935971 -0.2975605777)
(88.9009484 13.86747724 0.9756256981)
(73.31082488 13.94198436 -0.6277006201)
(-0.08415629055 0.5417181768 -0.002512977252)
(0.5639742343 0.6139069044 0.008480724442)
(38.81359888 8.351440564 0.3892090623)
(181.0888003 24.53390941 -0.6806289891)
(87.47377326 11.87979105 -0.3984402578)
(34.62502717 5.475018047 0.08278870424)
(83.14609804 13.10535655 -0.3406807845)
(119.7179647 16.57257255 -1.686363218)
(82.13401264 11.56451857 0.3085503608)
(70.58576002 11.4809365 0.08802340336)
(-0.0558199513 0.5387739328 0.04958271748)
(0.9143313302 0.8434740318 -0.005792677423)
(35.54472698 7.148829896 -0.453055362)
(186.7131332 26.01063284 0.1165609661)
(86.77624122 11.42481734 0.7130412416)
(37.75489652 6.573829837 -0.01592446729)
(83.1219851 12.58029872 -0.9697291601)
(112.8021011 15.67675197 -0.2538035662)
(89.25918363 12.03285057 0.3344466563)
(71.84613667 10.79082817 -0.5542577522)
(-0.03088230751 0.1824141291 0.01573193708)
(0.5672308743 0.2468980503 -0.07505726047)
(32.38969248 6.386792456 0.02558888122)
(179.5543285 26.56428241 -0.8778310615)
(88.75164099 11.64599403 0.6561387038)
(33.70477242 5.616240715 0.8538056087)
(78.86339577 13.39866011 0.696161951)
(116.8864612 17.50829163 -0.758502145)
(83.64418909 10.70720365 0.01858081083)
(65.31753933 9.698319091 -0.1584223803)
(-0.01805546358 0.3433012619 0.03078646718)
(0.7719468263 0.482543601 -0.02045643429)
(34.91472358 5.971834038 0.2311376281)
(182.0401945 27.22061547 -0.7554712291)
(91.34098708 11.20112489 0.1235615132)
(33.52726732 5.397162555 -0.07779657417)
(81.90310993 13.14687789 -0.2560913861)
(115.6767284 16.8023154 -0.1166179212)
(84.14285041 12.151593 0.4933041004)
(75.85086556 12.0209711 0.4209300442)
(-0.0003556955472 0.1168037231 0.01962011647)
(1.078710197 0.2806501509 -0.07596613068)
(37.82091545 7.442824112 -0.7680963678)
(173.764124 24.60274384 -0.9483549234)
(90.04669669 11.0068798 -0.5454223731)
(29.92846677 5.753702172 0.05314483994)
(84.9834504 13.46707237 -1.403332524)
(114.7338515 16.75103849 -0.1851736644)
(82.70781533 12.79884955 -0.7551334506)
(80.36467329 11.9638975 -0.1523715522)
(-0.01769976803 0.2264975388 0.01116635071)
(1.142395866 0.3741307399 0.2603706522)
(32.47857698 6.124114258 -0.8982155389)
(183.6111871 25.23989644 1.838570397)
(92.00869772 11.82634645 0.07247737608)
(34.35120283 6.733189198 -0.6694306441)
(79.3927959 10.72180071 -0.08805124743)
(125.7067402 17.9539117 -0.7201915429)
(79.22281148 10.50065659 0.5964508499)
(73.18432813 9.304023799 0.4339171566)
(-0.0003556955472 0.1168037231 0.01962011647)
(0.2679553457 0.091978626 -0.04610640522)
(35.04094169 6.485391674 -0.9058051444)
(183.9332845 25.9954899 -1.119335822)
(85.50205656 9.438096396 -2.153507286)
(31.73987329 6.681332518 -0.3904052555)
(82.25614781 12.54726127 1.017086183)
(118.5710153 16.47337739 0.2757706301)
(77.44194032 11.17500503 -0.217567854)
(70.74323108 10.51839841 -0.3955040034)
(0 0 0)
(0.7843402059 0.300570219 -0.06547443825)
(36.61070446 6.895848238 0.08964142666)
(169.3230344 23.74359354 -0.5547074834)
(93.49094116 11.87405231 0.4120646624)
(34.07132214 5.848060592 -0.2027929826)
(76.0024008 12.18274156 -1.467914769)
(116.1695265 17.25010338 -0.3884602099)
(94.20220793 12.01025952 -0.2002728597)
(65.44973005 9.204315296 -0.32416786)
(-0.01769976803 0.2264975388 0.01116635071)
(0.9209405858 0.1894507532 0.2341448895)
(37.00983669 6.266220919 0.5189542249)
(187.3508588 25.81734412 -3.092130826)
(86.81057389 10.84948743 0.956007049)
(34.22761199 5.699904931 0.09122897618)
(87.42191106 11.572455 -0.9630236389)
(117.680101 15.49646665 -0.8003073894)
(85.67410609 12.30720156 -0.5140881232)
(75.85524131 11.30464724 0.1994075574)
(0 0 0)
(0.5863499709 0.2703906703 -0.04094291484)
(39.9073928 7.703817689 -0.181493144)
(169.6267223 25.85312543 -2.038157607)
(87.19125355 9.656275131 -0.456793913)
(35.93291737 6.009652167 0.5223165456)
(82.62195366 13.52226585 -0.9718045477)
(107.1470524 15.47951312 -2.056680865)
(79.34848664 10.13289877 -0.04238793055)
(74.48238552 11.55691866 -0.4759457614)
(0 0 0)
(0 0 0)
(35.23837581 6.75139831 0.2651711818)
(180.3665515 24.65763808 1.0770947)
(86.30218268 10.36957606 -0.6858026668)
(39.54755473 7.52745273 -0.3341910173)
(81.99398534 13.12705616 0.0146525401)
(112.2125884 15.64885889 0.1024927481)
(85.44639979 12.52701609 -0.6381942193)
(69.74899511 10.06874617 0.2396328293)
(0 0 0)
(0.9743436192 0.1831031411 0.135885614)
(39.57694886 7.276506362 0.3942646965)
(182.4525885 25.2379234 -0.6829869843)
(90.96523333 11.7898667 -0.1457330984)
(39.01865198 6.711171268 0.2996942473)
(72.71329684 12.11888448 0.6077415731)
(113.361738 16.37884569 0.6331777538)
(87.70542591 11.19052504 -1.765891567)
(71.77768697 11.18067452 -1.737144366)
(0 0 0)
(0.2876257741 0.1376033659 0.004577849201)
(36.4307978 7.458041772 0.5899951822)
(171.7066443 28.14363718 0.764354723)
(81.12293658 10.91997465 1.593890126)
(41.60298296 5.978314174 0.06986029132)
(80.49181877 12.23642508 -0.1493506222)
(116.0534336 17.76227665 -0.2187650956)
(89.24486662 12.59866393 1.04979723)
(77.74777881 10.91077587 0.7021420527)
(25.41103366 -0.1200765472 -0.4827039083)
(22.43073162 -0.01935236192 -0.7889073014)
(23.46328437 0.6351167171 -0.933034041)
(20.1353557 0.8543622402 -0.09062115542)
(22.71829728 0.6981133577 0.01348932681)
(18.51155665 1.935643068 0.4472985119)
(22.84240438 2.943749776 0.4327952838)
(25.03252267 1.412641964 -0.8919058216)
(18.94767986 1.660723125 -1.493527005)
(23.52412916 2.267590885 -0.4284388627)
(24.04431808 1.228329317 -0.394193386)
(26.22773031 3.48622969 0.0416382137)
(24.449846 2.214744937 0.06788721917)
(23.51723716 2.593874125 0.2935182045)
(26.51971273 3.052881404 -0.1616713109)
(28.46198647 4.77674172 -0.4981231429)
(30.1173444 3.196456635 -1.516810154)
(26.20711973 3.716012411 -0.7888832078)
(28.80400108 4.642569952 0.5936880736)
(24.05650217 3.576283366 -0.4140536434)
(26.21224371 3.427881504 -1.029511542)
(28.10071872 6.35866593 -0.764786459)
(28.90820109 4.20450768 -0.9399705691)
(27.2345873 5.565924725 0.4542695878)
(30.18551543 5.941312945 -0.3824896623)
(25.70441358 5.850805638 -1.208792552)
(29.78281749 5.690058424 -0.7342344039)
(33.68178304 7.886146251 -0.8142641999)
(27.43162075 7.029508482 -0.8450218102)
(31.72632678 8.438177459 -0.7592916358)
(36.74064788 4.526155557 0.229301792)
(36.90673747 2.885809992 1.608227288)
(31.16339204 2.50193108 -0.75538228)
(31.70761188 2.112479023 -0.6210384758)
(27.44934648 1.101957601 -0.2386123124)
(29.17239941 2.129664453 0.3295309861)
(26.42057297 1.358661314 -0.563850507)
(28.45602805 1.08272932 -0.5069870397)
(30.78861233 2.593316923 0.2871272974)
(26.76026527 1.27288761 -1.74071021)
(27.44044991 1.810342959 -0.8600458749)
(26.60525145 1.60222397 -0.7702819322)
(32.48169063 3.811453036 0.9929268935)
(26.36335483 3.017369909 0.9505442713)
(33.19066694 3.097115662 -1.096603566)
(31.30679956 4.007935984 0.486842836)
(27.54576737 4.327808133 1.048165086)
(30.65000703 4.335729914 0.4911862873)
(30.26946341 4.416902303 0.9626406411)
(31.90448604 4.999789019 1.597149747)
(27.82203216 3.541333321 1.094667855)
(31.77814291 4.283791599 -0.6054890215)
(30.80194734 3.992941499 0.4004764811)
(30.96934617 4.175648339 -0.01417310479)
(28.35289519 5.243569332 -0.8671679979)
(31.85447073 6.195983882 -0.9007222181)
(36.92837823 7.983831908 0.07247808339)
(30.12806288 6.838482522 -0.2679192037)
(29.38058929 5.600275734 -1.095351658)
(33.453818 6.361167439 -1.181353996)
(60.5014613 7.61729254 0.09932597664)
(61.27663197 6.984019783 0.4194049317)
(46.74851437 5.558953104 -1.597557799)
(43.28231118 3.840190091 0.3633147883)
(43.75534671 3.879473987 -0.01316259341)
(41.61842123 2.964360396 0.0119829778)
(36.1743242 3.638604851 -0.1154187467)
(34.62932074 2.46213915 0.6858356501)
(38.80899823 3.456432532 0.1533815801)
(33.49768612 2.399170816 -0.7296371552)
(36.83000554 2.757759859 -0.1055054167)
(34.96845298 2.784365283 -0.8547997074)
(33.79729795 2.639558119 -0.6526595708)
(31.84503838 2.176602371 -0.8977955763)
(34.01453827 4.581305031 0.05481594552)
(32.63241813 3.470737296 0.9617416482)
(33.54179897 4.147908524 -1.195425853)
(37.9309459 4.80057497 -0.4144501996)
(36.8517305 5.792500743 -1.442712205)
(34.61894644 4.776029376 0.4453066828)
(35.42929393 5.952631334 0.11580629)
(34.50387245 5.377288267 -1.701507112)
(32.95920148 5.245524772 0.4512924506)
(33.29603481 4.761020924 -0.4234115872)
(33.83399208 6.024167088 0.8974287841)
(29.7883305 5.443969791 -1.640351471)
(33.64891133 6.018852177 -0.06918685336)
(33.43437131 4.1656201 -0.01891964258)
(36.62867798 7.351128724 -0.5532968025)
(35.81435277 6.594668723 0.6559500571)
(83.13939037 15.83835182 -0.5328736973)
(78.95676536 12.23942061 -0.01822505348)
(63.60935139 9.461223262 0.2317649983)
(62.75504825 7.031023366 0.3078672002)
(63.013803 6.510023179 -0.3120603493)
(49.25577403 5.716108006 -0.3031768279)
(51.70971266 4.691215731 0.03654578061)
(50.62310517 4.587614831 -0.8545027049)
(42.56587749 3.84249596 -0.3856595221)
(41.8860168 2.978926458 -0.0411276387)
(41.44111189 3.458032679 -0.7928624915)
(37.80992904 4.281931056 -0.4727709208)
(37.88764113 2.840957805 -0.7792655165)
(43.0900386 3.852001102 0.2571579981)
(37.11175444 5.266966323 -1.454383255)
(38.4939797 3.045653146 0.6583550363)
(37.78900731 4.317686631 -0.4507096993)
(35.12737895 4.531143731 -0.5390353573)
(39.97246916 5.208822317 -0.08564209739)
(39.78074104 4.104051511 -0.7526779398)
(43.84256154 7.432234796 -1.130636362)
(36.07666731 5.489774708 -0.9923604662)
(39.35439454 5.783756854 -1.128152642)
(41.89647882 6.348004297 -1.08356057)
(42.26732458 5.945623887 -0.5640624986)
(37.90913404 5.230920669 -0.6606900333)
(38.09383951 6.58676394 -0.9673234227)
(46.11488129 7.269844808 -1.261278776)
(39.19108655 6.515408467 -0.7268828302)
(40.35549201 6.444263556 -0.6348480865)
(101.6560098 20.5724056 -1.168920665)
(88.48093164 17.0604838 -1.499706958)
(77.70408232 11.91905263 -0.4232388854)
(82.1068803 13.93149196 -0.5529576193)
(67.41065221 11.05079903 1.817784)
(63.4340822 7.559939213 -1.017740332)
(64.80275513 9.265940326 -0.5094674289)
(60.32791373 8.180578072 0.5877016064)
(54.19014109 6.327620844 -0.5066757414)
(49.46172471 6.32469809 0.8593848758)
(48.13371913 4.688445132 -1.927772603)
(50.71694201 5.709326068 -0.1638726385)
(44.69689989 4.482032319 -0.6865882878)
(43.42753991 3.905828015 -0.1045611618)
(42.77879742 4.196532987 0.1800750101)
(43.9657101 5.486762713 -0.6230191323)
(50.47244489 4.647319319 -0.4633348277)
(42.73060636 4.015747707 -0.1528185042)
(48.96281911 5.102999707 -0.3015212621)
(40.88090634 5.248170088 -1.130401648)
(45.25463717 5.449772391 -0.4368958095)
(45.81101806 6.61368943 -0.5896625063)
(44.07161657 5.658001526 0.7683264111)
(44.11643459 6.075975376 -1.65390167)
(42.08042394 5.716905064 0.06341147886)
(47.47071494 5.996059082 0.2704188398)
(46.90648074 7.582046518 0.1218925299)
(43.37103609 6.679127834 -1.067829708)
(37.0737221 4.576435854 -1.142585848)
(43.80894841 7.339070429 0.455688706)
(88.49838546 17.58308417 1.15042422)
(109.4245488 19.89979471 0.1106217489)
(91.72218919 19.49586449 -2.041970766)
(88.75250194 15.70043677 0.918261644)
(85.8521532 13.76569605 -0.8455936597)
(80.80628739 14.35900464 -0.6969242496)
(73.10757506 12.41325914 0.4263741921)
(71.70465491 9.552209496 0.2963540456)
(65.2056771 8.665206072 0.1639986211)
(64.66818049 10.35780936 0.5683586629)
(60.06394829 5.363781631 -1.344424409)
(60.42884007 7.677695665 -0.6158167544)
(55.02301962 6.079139211 0.09384771302)
(57.08955906 5.913915207 -0.1578252566)
(51.64671094 5.392832999 -1.101781135)
(53.33239249 6.356259687 0.1242551543)
(50.84769367 5.434696015 -0.7482399207)
(49.98972706 5.429472037 -1.547098382)
(50.44306583 6.967238321 0.6498276379)
(47.94771547 6.74369771 1.05698238)
(51.29911896 6.423115116 -0.1845549985)
(47.92728438 6.342089947 -0.2513944793)
(49.25705739 6.225105485 -0.4699051436)
(49.26741638 7.738675717 0.2932519183)
(50.63834405 6.135069313 -0.4341313312)
(46.95145216 7.165326683 0.001361401235)
(49.77010827 6.274640827 0.1559661789)
(49.36564758 8.113295596 0.1205959171)
(46.38073121 7.376372045 0.6409242316)
(54.43414139 8.238315676 -1.702909364)
(83.83506558 15.029428 -0.2741618382)
(93.99757866 19.86239506 -0.05632860364)
(98.68065851 19.98581843 0.4195315917)
(89.46754331 19.69607976 -0.04964792725)
(87.61193377 17.73208012 1.07436454)
(92.20110942 16.01016739 -1.271480955)
(83.18861252 15.74597912 0.546794347)
(77.74766554 12.81160147 1.374694026)
(85.43555053 11.57887577 -0.9085257605)
(77.15150578 13.50772645 0.1002578941)
(71.8762903 8.46565035 0.034699075)
(65.83689078 8.693840721 -0.6687743806)
(60.51304652 8.50228204 -0.02563119242)
(60.38855714 7.15191774 -1.213125508)
(59.51674462 7.033848306 -0.9561646748)
(60.0470026 6.728720768 -1.291749076)
(53.13690975 6.088679119 -0.1598091994)
(62.63419953 5.519711363 -1.00393641)
(52.38390925 6.177675325 -0.2881963021)
(51.77254396 6.593469655 -1.632596305)
(59.5272 6.588089731 0.1600766677)
(55.49296597 6.998525219 0.04146839292)
(54.2194687 7.987653318 0.2864987062)
(52.94316262 7.068544215 0.372422858)
(54.43071108 5.422994029 -0.2188616966)
(53.08633791 7.032919657 -0.2378634305)
(50.03925195 8.184407195 0.6841170805)
(51.55860546 6.812300779 0.1032702468)
(55.52252452 8.376343859 0.03565541266)
(43.98835011 6.180780091 -0.04674678335)
(88.20978872 14.19145592 -1.104354615)
(91.82958258 14.62909579 -1.878459432)
(100.6722934 17.71299991 0.5884930221)
(91.34941314 16.25667309 -0.7532407272)
(96.96954976 20.13387113 -1.024157182)
(106.6937652 20.84544127 0.3120802316)
(96.41658431 18.14436586 -1.297881306)
(90.03076639 15.6658366 0.1243026607)
(89.24194313 16.20202478 -0.3514215858)
(86.73221809 13.84024868 -1.223518877)
(81.42515246 14.18317245 1.305620193)
(80.75664408 12.1777887 -0.2507975514)
(79.2507836 12.34534252 0.05482132697)
(71.00868289 9.860540205 0.8385021212)
(69.57460529 8.71703223 -1.039040887)
(66.23096994 8.686389865 -0.9710138211)
(58.45206439 7.037708789 -0.7215233935)
(67.40658354 7.498615846 -1.167067398)
(60.40293567 8.140627174 -0.02328454685)
(54.61437638 6.4404817 -0.6393758756)
(57.51828617 6.475004799 -0.6950444155)
(65.95606593 9.339255938 -0.6918755228)
(55.8180655 7.89441022 -1.183002318)
(57.39462886 7.91511031 -1.615498376)
(60.96454005 9.58298206 0.4942351464)
(59.31143145 8.417663927 -1.262914932)
(51.1325228 7.697450142 -0.1492932605)
(62.89343865 7.982530207 -1.343684239)
(57.94923155 9.309436053 -0.7675940077)
(57.51056963 8.27316042 -0.6276749862)
(89.64745471 13.19478304 -0.373966571)
(93.92859762 16.04281222 0.1220313223)
(86.40528232 14.41208097 0.7524373005)
(97.51186993 16.05407736 -0.6194047939)
(94.08144053 17.3990509 0.7136230591)
(95.41007769 17.83625496 -0.2473141878)
(105.3561111 20.85557341 0.1629704012)
(95.93515231 18.75301817 -1.58244266)
(96.86079253 17.92332371 1.142220846)
(93.23669124 17.83237153 -2.314446976)
(84.60204746 13.17559472 2.335930913)
(88.49106554 14.58365121 -0.6121861577)
(76.01746039 12.32038676 -0.2881738013)
(79.79941035 11.62111551 0.2609479352)
(80.23596591 11.71300751 1.192422579)
(77.3696905 11.20996893 1.358391827)
(72.02841006 11.59803106 -1.063447808)
(70.43038259 9.16961953 -0.254517546)
(68.59666296 7.368210551 0.2833921805)
(63.89329399 7.815853325 -1.062450974)
(65.61423739 8.148456001 -0.06973924566)
(66.36799726 7.877318186 -0.03776441313)
(62.48043841 8.116259083 -0.2919040841)
(63.83179399 9.788399277 0.1479630892)
(65.59391215 8.586106569 -0.3930470687)
(67.0548315 9.045573061 0.03185148051)
(61.12520846 7.687616827 -0.7348540897)
(53.51153192 8.329407845 -0.4556109653)
(74.41676408 10.50516689 1.202433313)
(57.95865196 8.729214993 -0.5194241581)
(76.56107003 10.62439811 -1.245660098)
(95.24715477 14.44734191 0.2619237798)
(83.38539325 13.51444533 -0.1477830191)
(80.7624546 13.29700552 -1.000830207)
(88.68188947 15.46454023 -0.1075582663)
(95.59434388 18.00389875 0.2212454299)
(99.31929855 17.15225751 -0.8370225175)
(93.18116432 18.87384852 -0.3347801311)
(97.81278583 20.22840545 0.7122964807)
(99.97439962 20.4355015 1.576243611)
(89.89414329 16.67578445 -0.3628429079)
(97.52223005 18.06187915 0.4515513067)
(95.66084328 17.05565749 -0.9604212371)
(86.37315069 14.81697839 0.2817408726)
(86.67674537 14.52874616 1.598043528)
(78.75255981 11.14054913 -0.6847854994)
(82.59966998 11.98685877 1.576325089)
(73.51378735 9.940341166 1.656470847)
(79.61189974 11.543847 0.8637510897)
(75.80536538 10.83574171 0.6288370912)
(66.30469096 7.869066018 1.118237006)
(69.35728027 9.095132247 -0.3098456555)
(69.98227833 8.375970275 -0.003369724578)
(64.33229965 9.311146036 -1.3070358)
(73.61201362 8.41423647 0.4700986169)
(63.33551654 6.846702022 -0.6181026498)
(66.47144545 9.927040928 -1.070718901)
(66.9001019 9.294587001 -1.094667759)
(73.14939439 10.22199954 -0.3504316038)
(64.02685599 9.988645575 -0.5661172077)
(80.36660409 13.24611933 0.1089163248)
(94.1250997 12.12753403 -0.02378375215)
(85.74313735 12.10963583 1.075009058)
(84.61995618 13.23424262 -0.01201059137)
(88.19080799 13.27010777 0.2233289668)
(85.55556156 12.65182441 0.6968640396)
(93.33062531 15.95292478 -1.777087814)
(89.02652178 15.46170026 -0.2218130326)
(96.16277388 16.52551195 -0.6962030619)
(103.8292154 19.01828431 -1.060959524)
(102.9866605 19.94683549 -0.8112377967)
(96.24619446 17.4628785 1.245663175)
(95.42059253 16.72311349 -0.1210400943)
(96.38779183 16.20502689 1.118250229)
(88.5428553 15.72248416 0.140623694)
(86.30895873 13.82203693 -0.5272518049)
(94.45622698 16.07149803 1.084373521)
(83.90240628 11.77351628 1.038255397)
(80.16662515 12.40742408 -0.387784167)
(81.61696004 11.84902602 -0.03193856413)
(70.90851363 9.991204236 0.7394997042)
(84.24535913 10.56747995 0.574534699)
(75.09687927 9.715335698 0.4565962178)
(66.86185849 8.913341127 -0.1676535959)
(74.52348074 9.921159982 -1.215492103)
(74.27238011 10.35626555 0.4699920641)
(74.37900774 9.949229016 0.1125057135)
(63.06846716 8.649783584 0.1893001658)
(69.65147281 8.551365524 0.4706121498)
(72.60117436 10.08468896 0.07687800595)
(79.4288676 10.42380425 -0.7719003187)
(94.10097891 12.63978324 -0.3661408749)
(88.30073846 13.276597 -0.3631838423)
(80.15685977 11.61975188 -1.824332168)
(87.70213521 13.33565735 0.6730419531)
(91.50721255 12.44555104 -0.4478771442)
(82.38440312 12.74691539 -0.5466997449)
(84.69901278 12.76096897 -0.5857022357)
(95.84490113 15.31080179 0.9234840942)
(95.14225786 18.63399259 -0.5244780969)
(98.73373752 18.23006822 -1.679699492)
(98.11930514 19.5603801 -0.9862532282)
(104.7360189 20.32280685 0.5358291095)
(95.31129111 16.86497007 -0.1505322173)
(90.73258249 17.23637919 -0.4714424876)
(94.73839873 14.37452676 -0.6299005438)
(90.43262618 15.92154198 0.6563363902)
(83.70938662 12.34339765 0.248292726)
(87.53182756 13.84119964 0.1113307891)
(83.76376613 12.60610995 1.077132396)
(85.32974918 13.42797201 0.7108091725)
(76.01019862 10.94934526 0.4876663722)
(84.30053462 11.16702733 0.7827276249)
(78.78096524 11.2631696 1.246941302)
(73.24902616 10.53534787 1.19104657)
(81.39505788 11.61381629 0.2980274256)
(69.41553536 8.822129188 0.3066436693)
(74.84599722 9.638250243 -0.751153161)
(79.57439428 11.12513559 -0.3470501594)
(65.90739016 9.959056972 -0.07896538075)
(83.5640999 12.18913002 -0.9117352987)
(87.60481322 12.42988662 -0.008661435281)
(84.73232666 13.2493151 -0.9136801936)
(82.49737847 11.61606198 -0.1711338581)
(83.58590744 12.18034116 -0.8190202831)
(93.16246518 12.79122953 -2.055071919)
(85.16167304 12.98824794 -0.05633854784)
(77.06570784 12.30043635 -0.3193043222)
(97.00795454 15.36479221 -1.165911418)
(89.59430937 13.74069505 -1.350765654)
(85.01477683 14.29529803 0.5244753515)
(96.92519562 16.15223381 -0.7285254775)
(98.74089103 18.75491482 -2.170573852)
(101.3855009 20.11558342 -0.9842003067)
(92.8632482 18.26919133 0.1222501408)
(103.3946498 19.13455129 -1.349648744)
(91.63716632 16.46689468 1.136047519)
(85.66981006 15.95696172 -1.081248325)
(88.69996543 14.68463169 -0.1639919611)
(89.31669533 15.20730465 0.2726148927)
(83.08647941 14.33017387 -1.322939936)
(80.84013663 13.36401818 0.6835820261)
(79.43356508 11.5755012 -0.5910009722)
(83.65801466 11.90547987 0.1794452961)
(78.04600085 11.36590249 0.1628790129)
(72.17624336 10.20766488 0.1587533622)
(76.38393699 10.79716362 0.3739945744)
(78.07412601 11.81310676 1.129041836)
(81.89467274 12.16562839 0.4361080283)
(75.60172291 9.890045907 -0.2956123215)
(86.15608843 13.93900137 -0.9535600573)
(97.60361892 14.45447039 0.3963348202)
(77.18523602 10.93501621 1.204577839)
(74.5471391 10.85234797 -0.4485664223)
(84.26273888 12.71184437 0.07072582896)
(87.4540819 13.64186069 -0.5538400093)
(85.06241412 13.60937818 0.2741570695)
(74.07540334 10.20201994 -0.1538347021)
(86.55436411 12.68873898 -1.826442172)
(93.89980434 14.58961448 0.4369799923)
(77.83735198 11.63290572 -1.003374656)
(84.26542976 14.26584537 0.5910655904)
(95.52412134 15.59109062 -1.58405352)
(84.62244928 15.08487028 0.9064014849)
(102.1720257 19.74788441 -1.161668611)
(95.26584342 18.23933569 -1.798911101)
(99.78626858 18.53347912 -1.136396526)
(103.8286223 20.51683483 -1.491690196)
(96.98123932 16.96373019 -0.7515617308)
(94.2719779 16.40524035 0.4502474529)
(86.64432053 14.58854665 -0.7538437625)
(90.72229138 14.12286365 -0.5807257892)
(90.74786134 13.14147364 -0.3040806709)
(87.52177854 14.10728361 1.146272932)
(79.74862105 12.49215308 -0.5282663368)
(83.3157001 10.73301102 0.5127108904)
(83.05465461 12.61940003 0.4753632745)
(81.31494622 12.31870662 -0.05454692086)
(79.17074791 9.794514055 1.575683885)
(71.64281328 11.89423522 1.018189913)
(76.96878775 10.68373043 0.01720134266)
(91.21389294 13.41411911 -1.490477907)
(89.55093228 12.47800663 -0.5343646643)
(83.38401654 12.81978191 -0.6089014521)
(91.00678197 12.9549856 -0.1805456147)
(84.94493576 11.90234621 -0.3001467697)
(85.46434528 12.04623276 -1.462094849)
(87.07224847 13.49596236 0.1052062936)
(90.33302608 12.07601608 -1.386773648)
(79.82370994 11.3343874 -0.3716249277)
(87.70618729 14.89352037 -1.385790593)
(86.63405123 11.80467718 -1.47231791)
(94.95177131 15.05579717 -0.07740301085)
(83.18818864 13.16107423 -1.250675525)
(93.45015617 15.2906712 -0.4762586019)
(97.17947975 17.33218395 -0.34549326)
(90.55969332 16.66090193 -0.1726138367)
(106.4908588 19.94785337 -0.2486043788)
(96.67017236 16.71641819 -1.004193743)
(97.00309827 16.26327044 -0.1843790294)
(95.30112396 15.86015675 0.1886609565)
(89.21684348 14.61689512 0.05246611975)
(92.29497212 16.5791525 -0.2213775569)
(93.19175839 14.3102275 -1.908906231)
(95.2628161 13.90216788 -1.660488229)
(81.71607598 13.07306497 1.119683257)
(83.02648146 12.46561035 -0.3716564758)
(87.44091625 13.59083329 -0.8626415709)
(75.31624133 10.6275568 -0.6113493158)
(89.27763212 13.69718207 -0.2071306398)
(88.15392504 12.93219582 -0.996688689)
(97.11669184 12.72082628 -0.4178840088)
(83.32133068 11.87433322 -0.1781091005)
(83.41726663 12.66885108 -0.3794953309)
(85.47113471 12.96267897 -0.0380342994)
(91.4215773 12.42754984 -0.818971466)
(79.40203141 11.1029183 0.1990569631)
(87.16261771 13.42204711 0.6764255999)
(92.07964127 14.00070891 -1.118313425)
(84.03242023 13.36212624 -0.519103304)
(81.31890633 12.42801655 0.2204141607)
(80.80964371 12.05407055 0.2843094501)
(83.0301994 12.22189308 0.2186568708)
(82.73611118 13.08318856 -0.05504904181)
(90.57946648 14.43285823 0.375049821)
(89.58594622 15.85275039 -0.9629973417)
(87.6292566 12.63215895 -1.490144253)
(95.80133001 17.16999879 0.8689058098)
(94.97502776 16.92814716 -1.800005542)
(100.3579294 19.07933483 -0.1568444983)
(98.44181421 19.04480978 -0.8549106731)
(103.402797 17.51119144 -2.947481539)
(93.84307593 16.62492989 1.542569279)
(78.05006423 13.95765418 0.4969384256)
(91.72977605 14.88695542 0.7101232324)
(88.25496107 14.36745204 -1.339570821)
(79.88084926 13.30727556 -0.7960012409)
(87.42475592 15.2858383 0.4997997493)
(89.08805778 13.30612193 0.6210697159)
(81.60287682 11.27691192 1.261513153)
(76.46544148 11.57861836 -0.6361232011)
(90.78042958 14.41307126 -0.4410508793)
(96.57998298 13.86017712 -0.07735621391)
(76.85553212 10.36600451 0.05291032863)
(87.53190005 12.30970924 0.3562198553)
(89.5505639 12.62228626 -1.030919044)
(93.69462227 13.83423266 0.3265812548)
(84.61500761 13.27760556 -0.02187997193)
(86.90631143 11.83177759 1.217326105)
(92.54376461 12.99173418 0.4924094371)
(90.60204795 14.088517 1.635092418)
(91.25567608 13.63470448 -0.8764944206)
(92.98232028 14.50658751 -0.7792397145)
(80.24048377 11.41468066 0.1443958338)
(90.82407709 12.97332544 -0.08394502867)
(89.63640718 13.64605576 -0.826434652)
(87.8697485 13.84911165 0.201208389)
(88.74213371 14.17018579 -0.4449278074)
(93.98133001 16.39841372 -0.14357894)
(93.90702501 15.89564859 -1.087325535)
(95.06639112 16.07749014 0.8317402224)
(96.84727544 16.7425396 -1.976756816)
(107.7026788 18.92574343 -0.4819702044)
(99.16482079 16.80320453 -1.256615124)
(99.69673907 16.22661454 -1.806224805)
(102.3945695 17.01569105 0.6862450831)
(95.27504543 14.66907967 0.7089184498)
(86.38173641 13.8583793 -0.771821235)
(91.98569572 13.08151843 -0.6055685971)
(89.34158679 13.35211156 -0.8126034328)
(80.02850189 11.59186526 -0.4513564367)
(80.55336122 10.57025324 -0.3408858229)
(80.07342982 10.71883999 -0.9164489739)
(82.88219388 12.4130388 -0.4163435615)
(84.14334067 12.47203125 -0.5149704415)
(87.84010799 12.98149359 1.057236287)
(83.57649754 10.78789401 -1.542838748)
(79.91336905 11.51677936 -0.2977759924)
(89.51900566 12.36182833 -0.3403379352)
(86.50139082 12.3178625 -0.319155689)
(97.27705337 14.10181305 0.08601475583)
(82.552016 11.11280889 -0.7873553868)
(90.28729392 12.27171556 -0.8071584148)
(89.41883578 14.10352051 1.471791215)
(89.89281185 12.80912523 -0.4243743599)
(92.07763563 14.93428606 -0.7447448438)
(92.38066723 13.61316883 0.2359665636)
(92.98513961 13.16754607 0.1405682447)
(83.3782867 12.70881058 -1.742828764)
(87.53880153 13.26531437 1.06593044)
(96.36529899 15.88318131 0.8731027268)
(94.08347325 14.33096369 -2.292832567)
(95.49791575 17.83817387 0.2528253222)
(94.71590839 16.65639328 -0.2841715582)
(95.84979937 16.34545704 -1.229859709)
(91.55803209 15.30950149 0.1637588705)
(100.8999009 15.42427495 -2.330039609)
(96.25270911 16.98233161 -1.496414164)
(94.54212597 14.76965784 0.4966319514)
(86.61384747 12.99513754 -0.6003233648)
(76.56671372 12.69315322 0.999819872)
(96.94019384 13.86131355 -0.6743554207)
(82.62110574 11.16735802 -0.3544087059)
(69.51572534 10.22973063 0.08108863264)
(78.11142361 11.91447146 -0.6392165555)
(87.66828725 11.83998891 -0.5631722458)