/*--------------------------------*- C++ -*----------------------------------*\
| =========                 |                                                 |
| \\      /  F ield         | OpenFOAM: The Open Source CFD Toolbox           |
|  \\    /   O peration     | Version:  v1912                                 |
|   \\  /    A nd           | Website:  www.openfoam.com                      |
|    \\/     M anipulation  |                                                 |
\*---------------------------------------------------------------------------*/
FoamFile
{
    version     2.0;
    format      ascii;
    class       volVectorField;
    location    "8.18";
    object      grad(rho);
}
// * * * * * * * * * * * * * * * * * * * * * * * * * * * * * * * * * * * * * //

dimensions      [1 -4 0 0 0 0 0];


internalField   nonuniform List<vector> 
1900
(
(5816.36 0.0814586 0)
(-23358.4 -0.101106 0)
(3069.74 -0.550082 0)
(1270.73 -0.751646 0)
(-103.439 -0.619218 0)
(-544.864 3.51622 0)
(-837.343 9.40296 0)
(-892.008 -10.8346 0)
(-633.31 30.5672 0)
(619.157 -52.0139 0)
(5816.34 0.109308 0)
(-23359 -0.140076 0)
(3069.09 -0.913619 0)
(1270.66 -0.836506 0)
(-99.1712 -0.141081 0)
(-534.842 5.91058 0)
(-851.694 7.9216 0)
(-870.844 -35.6824 0)
(-674.49 -18.7192 0)
(-521.039 -129.407 0)
(5816.33 6.14619e-09 0)
(-23359.4 5.61329e-09 0)
(3069.04 6.4837e-09 0)
(1271.5 5.47118e-09 0)
(-96.692 5.56e-09 0)
(-536.802 3.37508e-09 0)
(-878.936 -1.54543e-09 0)
(-918.649 -1.95399e-10 0)
(-727.035 3.01981e-10 0)
(-663.589 1.77636e-11 0)
(5816.34 -0.109308 0)
(-23359 0.140076 0)
(3069.09 0.913619 0)
(1270.66 0.836506 0)
(-99.1712 0.141081 0)
(-534.842 -5.91058 0)
(-851.694 -7.9216 0)
(-870.844 35.6824 0)
(-674.49 18.7192 0)
(-521.039 129.407 0)
(5816.36 -0.0814586 0)
(-23358.4 0.101106 0)
(3069.74 0.550082 0)
(1270.73 0.751646 0)
(-103.439 0.619218 0)
(-544.864 -3.51622 0)
(-837.343 -9.40296 0)
(-892.008 10.8346 0)
(-633.31 -30.5672 0)
(619.157 52.0139 0)
(-277.86 -966.206 1.23521e-11)
(-2578.5 -768.58 -1.45451e-11)
(-3748.8 -797.893 -1.82175e-11)
(-4131.57 -913.498 0)
(-25727.4 -7353.33 -7.50598e-11)
(-891.066 -1148.76 1.21775e-11)
(-1851.72 -918.082 1.45451e-11)
(-3437.33 -824.584 1.82175e-11)
(-6491.94 -426.601 0)
(-23977.4 -6090.17 0)
(-1288.66 -9.65411e-10 0)
(-1890.98 -2.53209e-10 0)
(-3225.73 -1.4803e-09 0)
(-6287.51 2.01859e-10 0)
(-26221.6 -2.43192e-09 0)
(-891.066 1148.76 1.21775e-11)
(-1851.72 918.082 1.45451e-11)
(-3437.33 824.584 1.82175e-11)
(-6491.94 426.601 0)
(-23977.4 6090.17 0)
(-277.86 966.206 -3.6707e-11)
(-2578.5 768.58 -1.45451e-11)
(-3748.8 797.893 -1.82175e-11)
(-4131.57 913.498 -4.84064e-11)
(-25727.4 7353.33 7.50598e-11)
(-43107.9 14519.3 1.72378e-11)
(-15465.6 6262.73 -9.84425e-12)
(-7793.7 3053.06 0)
(-5689.37 2115.44 4.86376e-12)
(-1608.04 1351.66 -1.72481e-12)
(-38645.8 18844.9 -8.83753e-12)
(-17966.5 5464.05 5.01643e-12)
(-8805.04 1853.86 0)
(-6155.83 1257.09 -3.08913e-12)
(-3370.36 364.205 4.44121e-13)
(-40176.5 -1.03172e-09 0)
(-19801.7 -1.13869e-09 0)
(-9117.93 1.13489e-09 0)
(-6339.7 -3.1928e-10 1.2508e-12)
(-3454.92 1.63612e-09 -8.88242e-13)
(-38645.8 -18844.9 -8.83753e-12)
(-17966.5 -5464.05 5.01643e-12)
(-8805.04 -1853.86 0)
(-6155.83 -1257.09 -3.08913e-12)
(-3370.36 -364.205 4.44121e-13)
(-43107.9 -14519.3 8.83753e-12)
(-15465.6 -6262.73 -1.88613e-13)
(-7793.7 -3053.06 0)
(-5689.37 -2115.44 6.37103e-14)
(-1608.04 -1351.66 1.72481e-12)
(1693.68 -8142.65 0)
(525.36 -6398.75 0)
(-190.619 -3967.01 0)
(-414.082 -3333.65 0)
(-638.065 -3027.89 0)
(-780.066 -3108.69 0)
(-1078.98 -3026.93 0)
(-1417.96 -2847.63 0)
(-761.872 -2249.51 0)
(861.131 -2071.12 0)
(3878.39 -2145.21 0)
(3891.23 -2264.27 0)
(711.631 -1694.38 0)
(-628.868 -1342.79 0)
(-706.816 -949.516 0)
(-330.683 -625.31 0)
(-77.0362 -349.646 0)
(-45.3861 -41.7921 0)
(-440.772 133.38 0)
(-1252.38 144.059 0)
(-2025.63 77.9704 0)
(-2681.33 91.0506 0)
(-3225.8 131.03 0)
(-2719.64 107.629 0)
(-1249.69 26.4498 0)
(-307.308 -0.588556 0)
(-124.667 -1.67328 0)
(-96.8096 -1.71186 0)
(15.9233 -2.14092 0)
(830.826 -2.88577 0)
(2269.38 -0.468583 0)
(2423.22 -2.50274 0)
(1430.43 -6.81578 0)
(898.983 -7.29739 0)
(747.249 -5.86854 0)
(673.436 -0.393279 0)
(746.691 5.54367 0)
(942.039 8.59985 0)
(994.854 15.3069 0)
(1086.85 16.1863 0)
(78.7166 -3485.21 0)
(804.074 -4703.36 0)
(288.712 -3045.19 0)
(-356.658 -2437.4 0)
(-667.17 -2028.6 0)
(-784.376 -2012.68 0)
(-993.959 -1949.02 0)
(-1213.35 -1794.56 0)
(-607.316 -1199.86 0)
(895.252 -1127.03 0)
(3850.62 -1188.13 0)
(3906.84 -1578.06 0)
(838.513 -1086.05 0)
(-499.388 -850.44 0)
(-575.793 -514.297 0)
(-225.75 -246.345 0)
(7.03235 -92.43 0)
(-3.70866 76.9567 0)
(-459.018 516.195 0)
(-1281.48 543.808 0)
(-2018.65 377.876 0)
(-2657.1 131.461 0)
(-3225.17 82.7353 0)
(-2740.54 38.8925 0)
(-1264.06 8.18314 0)
(-310.104 -0.534632 0)
(-124.7 -0.697609 0)
(-96.8382 -0.641154 0)
(15.7984 -0.853934 0)
(830.858 -1.24014 0)
(2269.32 -0.390884 0)
(2422.59 -1.35461 0)
(1429.92 -3.9318 0)
(898.999 -4.2942 0)
(747.9 -3.75694 0)
(674.686 -0.768807 0)
(747.814 2.56313 0)
(943.689 3.64211 0)
(996.767 6.34766 0)
(1084.11 7.64449 0)
(-17.3412 -1.36457e-09 0)
(653.365 4.60238e-10 0)
(468.567 1.2596e-09 0)
(-118.346 2.07511e-09 0)
(-514.51 2.29312e-09 0)
(-756.917 1.08196e-09 0)
(-1015.53 1.07389e-09 0)
(-1200.02 1.8248e-09 0)
(-567.682 -4.84461e-11 0)
(864.544 -9.93145e-10 0)
(3747.18 -1.86517e-09 0)
(3920.93 -5.65204e-11 0)
(923.303 7.04083e-09 0)
(-462.539 4.73157e-09 0)
(-531.079 2.07026e-08 0)
(-207.958 3.31048e-08 0)
(17.0151 1.7707e-08 0)
(131.669 6.22532e-09 0)
(-304.96 -4.23096e-09 0)
(-1292.62 -1.16028e-08 0)
(-2145.59 -1.86114e-08 0)
(-2767.19 -9.65692e-09 0)
(-3252.73 -4.29555e-09 0)
(-2741.33 -4.40052e-09 0)
(-1261.16 -4.69927e-09 0)
(-309.891 2.50709e-09 0)
(-124.698 -1.01333e-09 0)
(-96.8551 3.258e-09 0)
(15.749 -8.27621e-10 0)
(830.96 4.1381e-09 0)
(2269.35 6.81475e-09 0)
(2422.19 -9.69729e-09 0)
(1429.57 -9.56003e-09 0)
(899.034 -2.52727e-09 0)
(748.274 -2.26889e-09 0)
(675.274 -2.85832e-09 0)
(747.974 -2.60801e-09 0)
(943.14 -3.39123e-09 0)
(996.018 -1.64717e-09 0)
(1087.05 7.99361e-10 0)
(78.7166 3485.21 0)
(804.074 4703.36 0)
(288.712 3045.19 0)
(-356.658 2437.4 0)
(-667.17 2028.6 0)
(-784.376 2012.68 0)
(-993.959 1949.02 0)
(-1213.35 1794.56 0)
(-607.316 1199.86 0)
(895.252 1127.03 0)
(3850.62 1188.13 0)
(3906.84 1578.06 0)
(838.513 1086.05 0)
(-499.388 850.44 0)
(-575.793 514.297 0)
(-225.75 246.345 0)
(7.03235 92.43 0)
(-3.70866 -76.9567 0)
(-459.018 -516.195 0)
(-1281.48 -543.808 0)
(-2018.65 -377.876 0)
(-2657.1 -131.461 0)
(-3225.17 -82.7353 0)
(-2740.54 -38.8925 0)
(-1264.06 -8.18314 0)
(-310.104 0.534632 0)
(-124.7 0.697609 0)
(-96.8382 0.641154 0)
(15.7984 0.853934 0)
(830.858 1.24014 0)
(2269.32 0.390884 0)
(2422.59 1.35461 0)
(1429.92 3.9318 0)
(898.999 4.2942 0)
(747.9 3.75694 0)
(674.686 0.768807 0)
(747.814 -2.56313 0)
(943.689 -3.64211 0)
(996.767 -6.34766 0)
(1084.11 -7.64449 0)
(1693.68 8142.65 0)
(525.36 6398.75 0)
(-190.619 3967.01 0)
(-414.082 3333.65 0)
(-638.065 3027.89 0)
(-780.066 3108.69 0)
(-1078.98 3026.93 0)
(-1417.96 2847.63 0)
(-761.872 2249.51 0)
(861.131 2071.12 0)
(3878.39 2145.21 0)
(3891.23 2264.27 0)
(711.631 1694.38 0)
(-628.868 1342.79 0)
(-706.816 949.516 0)
(-330.683 625.31 0)
(-77.0362 349.646 0)
(-45.3861 41.7921 0)
(-440.772 -133.38 0)
(-1252.38 -144.059 0)
(-2025.63 -77.9704 0)
(-2681.33 -91.0506 0)
(-3225.8 -131.03 0)
(-2719.64 -107.629 0)
(-1249.69 -26.4498 0)
(-307.308 0.588556 0)
(-124.667 1.67328 0)
(-96.8096 1.71186 0)
(15.9233 2.14092 0)
(830.826 2.88577 0)
(2269.38 0.468583 0)
(2423.22 2.50274 0)
(1430.43 6.81578 0)
(898.983 7.29739 0)
(747.249 5.86854 0)
(673.436 0.393279 0)
(746.691 -5.54367 0)
(942.039 -8.59985 0)
(994.854 -15.3069 0)
(1086.85 -16.1863 0)
(-1582.85 7447.33 0)
(-1492.93 4793.86 0)
(-1079.71 3357.6 0)
(-879.342 2502.87 0)
(-841.93 1971.76 0)
(-789.962 1854.9 0)
(-1059.41 1802.68 0)
(-1464.41 1888.68 0)
(-915.694 2007.76 0)
(869.28 1974.95 0)
(3939.67 2527.02 0)
(3642.1 1948.96 0)
(407.201 1251.57 0)
(-816.913 799.377 0)
(-874.352 328.022 0)
(-480.703 166.971 0)
(-261.788 78.5935 0)
(-258.508 -65.2255 0)
(-596.694 -225.74 0)
(-1280.37 -346.337 0)
(-1977.33 -324.973 0)
(-2662.36 -267.927 0)
(-3234.84 -242.349 0)
(-2699.11 -175.875 0)
(-1212.79 -41.7907 0)
(-295.696 0.681177 0)
(-124.033 2.8351 0)
(-96.5779 3.17696 0)
(16.3903 3.96141 0)
(829.845 5.08997 0)
(2269.01 -0.346342 0)
(2425.84 3.19412 0)
(1432.35 10.4888 0)
(898.422 12.3146 0)
(744.322 10.6134 0)
(668.973 4.01408 0)
(743.472 -5.53068 0)
(939.471 -12.5757 0)
(994.22 -18.3016 0)
(1087.65 -14.5148 0)
(-2195.41 2342.59 0)
(-2333.38 2629.11 0)
(-1921.54 2624.53 0)
(-1500.04 2274.22 0)
(-1153.15 1956 0)
(-937.685 1573.81 0)
(-1056.93 1209.47 0)
(-1195.43 1259.95 0)
(-596.262 1485.4 0)
(1357.14 1679.81 0)
(3820.48 2431.97 0)
(2795.75 1161.98 0)
(-232.901 518.966 0)
(-1417.99 14.6929 0)
(-1226.39 -366.529 0)
(-490.595 -353.508 0)
(-201.719 -365.733 0)
(-224.37 -370.063 0)
(-628.05 -418.076 0)
(-1332.99 -497.716 0)
(-1975.97 -520.159 0)
(-2611.88 -496.319 0)
(-3132.25 -456.49 0)
(-2537.38 -278.293 0)
(-1099.34 -55.4114 0)
(-270.532 2.05628 0)
(-122.603 4.5494 0)
(-95.8485 5.37513 0)
(17.5163 6.30779 0)
(827.201 8.1569 0)
(2267.76 -0.539368 0)
(2432.25 3.31633 0)
(1438.18 13.9952 0)
(899.405 18.3283 0)
(740.82 18.2236 0)
(660.272 12.3069 0)
(732.43 0.579184 0)
(931.11 -12.1321 0)
(993.325 -17.0967 0)
(1099.08 -11.9395 0)
(-1483.17 188.067 0)
(-1221.24 623.519 0)
(-1421.71 1015.82 0)
(-1523.56 1102.05 0)
(-1516.87 1058.78 0)
(-1509.35 692.422 0)
(-1361.86 274.781 0)
(-1198.51 589.7 0)
(-511.095 1133.62 0)
(1781.43 1464.53 0)
(3440.67 1599.05 0)
(1798.66 89.4195 0)
(-698.366 -284.9 0)
(-1670.21 -555.591 0)
(-1229.16 -354.446 0)
(-479.936 -227.266 0)
(-277.74 -317.922 0)
(-308.948 -376.493 0)
(-719.706 -513.291 0)
(-1378.75 -636.358 0)
(-1975.98 -648.51 0)
(-2601.01 -630.307 0)
(-3024.74 -591.339 0)
(-2312.62 -341.914 0)
(-942.636 -60.836 0)
(-237.915 5.12966 0)
(-120.834 7.42117 0)
(-94.8835 8.47061 0)
(19.071 9.66635 0)
(823.247 12.5346 0)
(2264.35 2.45921 0)
(2439.85 6.83679 0)
(1446.82 20.0339 0)
(902.497 25.6036 0)
(738.519 26.7908 0)
(651.97 20.1685 0)
(719.922 9.10045 0)
(922.438 -6.50284 0)
(994.405 -10.5185 0)
(1100.05 -5.7881 0)
(-1673.94 -18.8298 0)
(-1535.73 -183.47 0)
(-1460.41 -265.444 0)
(-1458.65 -238.785 0)
(-1547.88 -162.627 0)
(-1693.17 -293.023 0)
(-1155.91 -296.45 0)
(-367.82 222.47 0)
(246.754 1055.21 0)
(1805.65 1718.11 0)
(2495.38 971.665 0)
(980.306 -455.729 0)
(-854.457 -930.084 0)
(-1485.01 -1094.48 0)
(-910.001 -479.676 0)
(-455.399 -380.33 0)
(-345.52 -397.777 0)
(-412.635 -459.33 0)
(-878.466 -664.02 0)
(-1463.3 -807.327 0)
(-1970.14 -806.623 0)
(-2556.79 -772.302 0)
(-2854.35 -697.132 0)
(-2026.17 -360.973 0)
(-764.911 -52.9816 0)
(-204.757 9.71549 0)
(-119.383 11.2923 0)
(-93.6849 12.1912 0)
(21.4325 13.8092 0)
(820.255 17.4576 0)
(2262.27 5.38953 0)
(2449.19 8.30363 0)
(1456.27 22.3424 0)
(905.916 27.8901 0)
(735.582 30.1612 0)
(643.225 22.8383 0)
(706.729 12.9387 0)
(912.205 -5.36043 0)
(994.014 -10.0692 0)
(1093.46 -5.85752 0)
(-1416.87 -194.778 0)
(-1458.89 -38.3056 0)
(-1475.01 -22.1457 0)
(-1424.48 -20.3256 0)
(-1569.14 -1.18078 0)
(-1638.3 94.6746 0)
(-865.11 602.563 0)
(103.994 814.325 0)
(930.156 988.31 0)
(1700.92 1054.95 0)
(1345.88 147.683 0)
(-33.9322 -943.961 0)
(-1313.89 -1670.81 0)
(-1236.18 -1179.33 0)
(-540.98 -603.387 0)
(-401.015 -576.599 0)
(-353.868 -502.123 0)
(-565.51 -623.182 0)
(-1055.05 -840.628 0)
(-1516.16 -929.116 0)
(-1942.23 -895.59 0)
(-2495.5 -869.313 0)
(-2628.37 -759.347 0)
(-1691.89 -336.936 0)
(-585.427 -36.025 0)
(-175.979 14.2802 0)
(-118.449 15.0034 0)
(-92.4582 15.9553 0)
(24.1458 18.0792 0)
(815.134 22.4713 0)
(2255.53 11.149 0)
(2456.19 12.5795 0)
(1465.69 23.3742 0)
(910.031 25.9673 0)
(733.651 28.6355 0)
(635.374 21.9384 0)
(692.749 13.6262 0)
(900.267 -5.50329 0)
(993.926 -11.5462 0)
(1091.13 -6.97497 0)
(-1318.88 -495.637 0)
(-1369.37 -427.34 0)
(-1443.09 -376.745 0)
(-1438.44 -316.579 0)
(-1437.06 -183.608 0)
(-1111.38 201.221 0)
(-462.431 683.771 0)
(3.89963 681.962 0)
(478.632 426.141 0)
(995.59 -183.263 0)
(569.15 -1157.52 0)
(-772.059 -2042.93 0)
(-1081.26 -1960.08 0)
(-456.405 -1007.37 0)
(-329.191 -833.759 0)
(-357.817 -680.56 0)
(-390.409 -628.357 0)
(-738.831 -810.996 0)
(-1173.27 -973.86 0)
(-1516.26 -987.648 0)
(-1912.51 -945.649 0)
(-2425.5 -946.403 0)
(-2341.33 -770.826 0)
(-1329.15 -279.338 0)
(-426.466 -21.9188 0)
(-155.584 12.1742 0)
(-117.769 12.0613 0)
(-90.721 13.3063 0)
(27.7116 15.9929 0)
(813.577 20.4228 0)
(2252.73 4.2197 0)
(2460.97 1.00866 0)
(1469.17 10.7146 0)
(910.986 11.0768 0)
(731.7 14.8194 0)
(628.761 12.5417 0)
(680.285 9.12059 0)
(887.948 -6.08428 0)
(992.596 -12.1926 0)
(1088.17 -7.93161 0)
(-1307.15 -940.139 0)
(-1344.32 -897.516 0)
(-1368.28 -812.648 0)
(-1238.37 -634.448 0)
(-1070.16 -414.861 0)
(-802.466 -130.284 0)
(-401.851 -68.2891 0)
(-144.268 -209.525 0)
(96.3939 -411.266 0)
(174.848 -868.152 0)
(-446.169 -1843.21 0)
(-807.307 -2206.29 0)
(-315.982 -1398.42 0)
(-150.815 -1016.22 0)
(-226.058 -857.307 0)
(-203.082 -690.839 0)
(-479.56 -780.79 0)
(-898.449 -967.462 0)
(-1225.28 -1044.91 0)
(-1488.98 -1014.72 0)
(-1902.49 -1002.82 0)
(-2327.04 -1010.36 0)
(-1985.56 -713.638 0)
(-970.214 -204.091 0)
(-304.515 -18.2146 0)
(-143.234 0.860356 0)
(-117.358 0.657295 0)
(-88.6695 2.74062 0)
(31.0035 6.33205 0)
(803.788 10.8863 0)
(2236.82 -9.65456 0)
(2462.45 -15.6722 0)
(1475.39 1.01236 0)
(913.987 5.62008 0)
(735.063 6.40639 0)
(629.882 2.18253 0)
(674.8 0.601496 0)
(879.729 -8.14838 0)
(992.146 -12.3188 0)
(1089.22 -8.44893 0)
(-1253.96 -1484.03 0)
(-1246.52 -1379.32 0)
(-1189.59 -1279.54 0)
(-1055.12 -1131.17 0)
(-951.226 -982.076 0)
(-777.413 -787.293 0)
(-538.791 -765.241 0)
(-326.605 -942.516 0)
(-156.044 -1141.52 0)
(-384.288 -1612.71 0)
(-720.326 -2080.31 0)
(-343.443 -1524.51 0)
(65.5286 -943.765 0)
(65.0353 -837.817 0)
(-15.643 -683.039 0)
(-284.082 -740.479 0)
(-656.972 -951.481 0)
(-993.349 -1082.7 0)
(-1218.81 -1078.15 0)
(-1475.69 -1023.37 0)
(-1908.32 -1035.38 0)
(-2146.84 -996.748 0)
(-1564.38 -546.838 0)
(-659.017 -97.8418 0)
(-228.967 21.7455 0)
(-137.398 33.55 0)
(-115.957 35.8934 0)
(-85.2526 40.8905 0)
(35.5611 46.3315 0)
(798.172 53.7052 0)
(2227.14 46.9803 0)
(2471.25 78.0603 0)
(1489.68 124.228 0)
(916.184 137.852 0)
(728.387 131.916 0)
(623.167 96.7014 0)
(670.33 42.9915 0)
(875.497 5.40507 0)
(992.306 -8.14858 0)
(1085.42 -8.98143 0)
(-1115.25 -1880.18 0)
(-1147.26 -1791.22 0)
(-1129.15 -1676.1 0)
(-951.728 -1509.33 0)
(-738.789 -1340.6 0)
(-593.515 -1192.36 0)
(-551.429 -1254.66 0)
(-506.869 -1408.95 0)
(-549.433 -1587.39 0)
(-729.796 -1809.79 0)
(-361.177 -1407.81 0)
(287.905 -688.656 0)
(345.743 -634.206 0)
(100.431 -619.433 0)
(-132.26 -724.654 0)
(-461.763 -905.25 0)
(-809.335 -1035.35 0)
(-1020.51 -1018.01 0)
(-1168.11 -925.182 0)
(-1447.77 -872.63 0)
(-1876.83 -877.272 0)
(-1856.25 -737.758 0)
(-1119.34 -221.561 0)
(-422.307 120.168 0)
(-177.901 198.412 0)
(-129.601 216.653 0)
(-110.284 229.542 0)
(-78.6109 245.033 0)
(43.3522 256.398 0)
(804.414 279.584 0)
(2260.29 368.135 0)
(2536.88 565.022 0)
(1533.01 663.756 0)
(921.395 619.766 0)
(695.409 505.452 0)
(544.191 362.453 0)
(586.824 242.812 0)
(830.448 121.355 0)
(978.283 29.0936 0)
(1077.85 -8.06428 0)
(-979.186 -1897.68 0)
(-1049.86 -1988.32 0)
(-917.946 -1872.32 0)
(-731.826 -1721.16 0)
(-645.787 -1687.21 0)
(-694.603 -1746.53 0)
(-747.498 -1752.57 0)
(-647.235 -1551.96 0)
(-542.312 -1337.49 0)
(-211.229 -959.289 0)
(360.041 -397.608 0)
(402.025 -392.703 0)
(132.234 -573.098 0)
(-22.1239 -673.094 0)
(-291.066 -753.311 0)
(-583.484 -793.565 0)
(-765.633 -694.69 0)
(-887.183 -487.154 0)
(-1078.72 -248.983 0)
(-1429.53 -181.167 0)
(-1778.35 -204.853 0)
(-1514.97 214.703 0)
(-737.647 810.643 0)
(-254.315 1065.39 0)
(-135.991 1139.51 0)
(-107.4 1181.71 0)
(-88.6092 1212.17 0)
(-59.3734 1243.63 0)
(68.8556 1270.41 0)
(905.846 1356.78 0)
(2502.2 1747.43 0)
(2756.12 2102.2 0)
(1542.44 2088.82 0)
(763.636 1849.69 0)
(480.431 1517.31 0)
(370.078 1121.49 0)
(437.999 733.314 0)
(669.551 397.065 0)
(867.593 148.214 0)
(1017.75 -11.2001 0)
(-993.143 -1764.03 0)
(-1122.82 -1890.86 0)
(-871.71 -1898.23 0)
(-773.351 -1842.63 0)
(-763.236 -1728.18 0)
(-656.495 -1431.76 0)
(-363.932 -1029.06 0)
(-106.885 -730.214 0)
(21.6871 -492.954 0)
(175.909 -250.626 0)
(184.806 -224.063 0)
(118.797 -389.227 0)
(75.5486 -297.688 0)
(-73.2292 -172.792 0)
(-248.351 -6.91905 0)
(-405.273 286.646 0)
(-514.066 688.894 0)
(-591.009 1055.59 0)
(-873.248 1194.77 0)
(-1405.24 1122.47 0)
(-1495.36 1198.36 0)
(-877.685 1773.96 0)
(-299.585 2237.68 0)
(-105.4 2362.14 0)
(-65.8118 2390.85 0)
(-59.5783 2408.69 0)
(-50.6214 2415.58 0)
(-22.4955 2425.14 0)
(152.385 2462.2 0)
(1264.09 2599.17 0)
(2978.6 3048.51 0)
(2865.87 3060.67 0)
(1289.69 2812.64 0)
(370.663 2523.24 0)
(-6.30825 2281.56 0)
(-211.294 1968.48 0)
(-111.263 1468.18 0)
(266.625 937.746 0)
(584.864 460.708 0)
(855.377 0.325687 0)
(-1354.77 -1303.19 0)
(-1179.18 -967.998 0)
(-871.474 -753.98 0)
(-567.957 -475.181 0)
(-249.859 -155.76 0)
(-20.9103 109.039 0)
(-71.4626 199.348 0)
(-130.621 179.568 0)
(-80.1626 198.239 0)
(47.8834 291.547 0)
(226.479 528.441 0)
(331.078 954.836 0)
(340.799 1373.8 0)
(258.071 1726.09 0)
(151.665 1979.89 0)
(87.026 2154.37 0)
(-24.6554 2247.23 0)
(-399.703 2126.78 0)
(-1014.26 1707.16 0)
(-1426.07 1373.04 0)
(-1150.55 1663.32 0)
(-513.446 2132.41 0)
(-170.852 2280.89 0)
(-106.714 2277.04 0)
(-91.1385 2242.32 0)
(-83.5672 2218.43 0)
(-72.7523 2196.57 0)
(-14.4492 2179.6 0)
(236.555 2215.31 0)
(1470.84 2304.31 0)
(2946.92 2387.49 0)
(2528.82 2047.67 0)
(1024.55 1844.42 0)
(251.862 1746.07 0)
(-54.1513 1784.27 0)
(-413.719 1843.75 0)
(-555.255 1704.54 0)
(-301.288 1332.45 0)
(-35.7394 793.57 0)
(360.668 59.2562 0)
(-1048.78 -172.927 0)
(-593.579 445.783 0)
(-396.813 1070.15 0)
(-196.885 1585.86 0)
(-200.26 2002.58 0)
(-314.299 2260.74 0)
(-295.968 2512.46 0)
(-107.954 2788.56 0)
(129.594 2904.44 0)
(494.104 3042.43 0)
(823.976 3182.61 0)
(933.418 3194.43 0)
(818.76 3056.54 0)
(510.822 2802.43 0)
(164.348 2477.75 0)
(-147.663 2084.17 0)
(-540.653 1556.64 0)
(-1111.43 885.624 0)
(-1599.57 366.886 0)
(-1447.5 439.653 0)
(-763.596 980.1 0)
(-282.563 1296.38 0)
(-160.218 1339 0)
(-142.574 1322.05 0)
(-122.287 1303.17 0)
(-103.664 1295.16 0)
(-88.0443 1289.57 0)
(-4.43046 1283.6 0)
(272.56 1307.32 0)
(1430 1305.78 0)
(2731.3 1056.1 0)
(2342.55 729.911 0)
(999.051 696.781 0)
(312.699 699.279 0)
(87.8182 787.484 0)
(-288.128 953.281 0)
(-603.968 1070.82 0)
(-611.218 998.661 0)
(-642.03 705.593 0)
(-410.809 68.3206 0)
(255.359 585.214 0)
(18.6945 1351.18 0)
(227.149 2230.75 0)
(330.565 2903.89 0)
(400.474 3516.89 0)
(470.433 4138.24 0)
(437.168 4853.33 0)
(247.101 5191.31 0)
(164.47 5048.26 0)
(315.939 4496.15 0)
(372.953 3675.98 0)
(209.594 2797.97 0)
(-36.9421 1912.33 0)
(-299.672 1181.56 0)
(-540.481 684.431 0)
(-800.593 253.444 0)
(-1179.62 -253.551 0)
(-1546.19 -637.779 0)
(-1444.01 -469.956 0)
(-835.153 193.544 0)
(-324.984 696.725 0)
(-167.594 836.425 0)
(-146.11 856.358 0)
(-141.24 859.698 0)
(-117.058 867.961 0)
(-96.6794 879.917 0)
(-83.8882 892.447 0)
(2.6624 899.828 0)
(257.928 897.619 0)
(1228.74 845.114 0)
(2391.99 418.192 0)
(2182.57 132.708 0)
(995.034 188.301 0)
(339.267 226.917 0)
(190.615 258.162 0)
(-140.689 321.458 0)
(-511.526 402.447 0)
(-653.232 390.306 0)
(-932.249 233.057 0)
(-1051.99 -80.1878 0)
(1560.94 568.674 0)
(992.115 1232.5 0)
(1099.44 1898.37 0)
(1042.49 2340.77 0)
(989.203 2693.92 0)
(973.541 2973.76 0)
(718.808 3213.8 0)
(79.8908 3230.79 0)
(-540.288 2966.37 0)
(-828.278 2233.11 0)
(-812.455 1224.74 0)
(-766.094 435.095 0)
(-738.866 -71.1896 0)
(-672.427 -367.21 0)
(-730.02 -594.523 0)
(-1051.54 -835.392 0)
(-1399.47 -998.712 0)
(-1319.97 -749.347 0)
(-798.483 -111.119 0)
(-323.243 440.839 0)
(-144.092 638.911 0)
(-128.736 679.612 0)
(-137.792 684.857 0)
(-131.393 692.019 0)
(-102.803 705.586 0)
(-80.0688 720.367 0)
(-68.857 737.6 0)
(0.553489 749.947 0)
(219.836 720.149 0)
(968.009 656.279 0)
(2044.8 158.778 0)
(2121.02 -130.185 0)
(1089.83 -5.86678 0)
(380.02 140.027 0)
(178.921 131.941 0)
(-149.09 142 0)
(-537.624 184.505 0)
(-774.448 125.438 0)
(-1095.42 -63.2129 0)
(-1115.86 -153.384 0)
(2312.91 100.423 0)
(1300.04 297.628 0)
(1295.11 433.847 0)
(1097.18 467.407 0)
(1010.45 511.252 0)
(971.415 604.568 0)
(684.849 657.485 0)
(8.66635 649.528 0)
(-796.931 486.747 0)
(-1362.36 45.2404 0)
(-1359.68 -462.889 0)
(-1039.21 -720.886 0)
(-810.072 -769.753 0)
(-803.975 -838.365 0)
(-991.638 -1037.97 0)
(-1190.08 -1147.49 0)
(-1096.7 -875.939 0)
(-690.874 -276.197 0)
(-297.109 243.198 0)
(-112.397 472.582 0)
(-94.893 531.855 0)
(-123.319 543.637 0)
(-134.154 551.89 0)
(-121.265 566.57 0)
(-89.7404 584.235 0)
(-65.8297 599.952 0)
(-55.3837 617.486 0)
(-14.1543 628.983 0)
(167.665 590.982 0)
(687.787 515.173 0)
(1634.12 36.8412 0)
(2023.92 -425.154 0)
(1255.42 -384.841 0)
(472.063 -172.261 0)
(192.516 -174.986 0)
(-90.0365 -122.196 0)
(-527.487 -8.60611 0)
(-891.941 -17.9585 0)
(-1200.93 -202.09 0)
(-1079.34 -138.197 0)
(1982.12 -345.939 0)
(1313.41 -537.004 0)
(1263.05 -562.159 0)
(1117.08 -631.111 0)
(1121.38 -583.491 0)
(1114.46 -540.966 0)
(762.133 -576.247 0)
(-84.6382 -647.212 0)
(-1122.6 -843.895 0)
(-1743.38 -1118.47 0)
(-1550.72 -1181.74 0)
(-1061.8 -1101.11 0)
(-852.073 -1068.11 0)
(-930.886 -1115.68 0)
(-1027.9 -1096.38 0)
(-895.403 -819.529 0)
(-559.86 -303.542 0)
(-241.526 151.757 0)
(-76.9327 400.676 0)
(-45.0826 482.085 0)
(-75.6209 512.375 0)
(-109.43 534.489 0)
(-115.692 557.954 0)
(-100.224 582.09 0)
(-70.6355 602.798 0)
(-48.0268 617.902 0)
(-40.8817 632.816 0)
(-24.9872 644.26 0)
(110.164 624.233 0)
(434.019 511.424 0)
(1138.67 167.863 0)
(1714.67 -466.419 0)
(1333.53 -671.519 0)
(582.244 -546.82 0)
(227.166 -569.888 0)
(11.2402 -571.587 0)
(-437.177 -481.827 0)
(-960.896 -289.463 0)
(-1211.28 -259.598 0)
(-749.068 -146.364 0)
(1208.57 939.367 0)
(1091.68 -1138.5 0)
(1204.43 -1074.43 0)
(1076.62 -1200.78 0)
(1097.32 -1208.81 0)
(978.396 -1359.41 0)
(582.466 -1626.03 0)
(-249.249 -1843.81 0)
(-1251.05 -1966.74 0)
(-1687.93 -1836.97 0)
(-1342.95 -1432.41 0)
(-929.711 -1125.31 0)
(-824.11 -970.274 0)
(-831.208 -802.24 0)
(-706.259 -506.088 0)
(-426.081 -89.4109 0)
(-160.733 285.698 0)
(-12.2638 507.575 0)
(21.207 599.239 0)
(-4.75971 635.533 0)
(-44.3945 667.959 0)
(-79.3969 708.039 0)
(-88.2837 749.832 0)
(-78.0525 786.78 0)
(-55.2308 815.887 0)
(-36.9031 832.305 0)
(-29.9844 845.016 0)
(-22.4247 856.47 0)
(39.6597 857.073 0)
(248.012 748.967 0)
(691.839 496.785 0)
(1215.06 -108.221 0)
(1177.94 -587.823 0)
(569.999 -689.287 0)
(168.651 -800.987 0)
(-5.17723 -919.482 0)
(-255.622 -996.754 0)
(-677.794 -706.235 0)
(-1063.04 -449.134 0)
(-319.182 -184.815 0)
(-684.883 34772.4 0)
(-627.154 420.563 0)
(1203.03 -1135.25 0)
(987.582 -1524.15 0)
(968.512 -1800.64 0)
(712.408 -2222.11 0)
(295.353 -2706.76 0)
(-412.96 -3033.2 0)
(-1116.01 -2917.93 0)
(-1228.48 -2254.03 0)
(-864.939 -1527.9 0)
(-616.47 -1072.17 0)
(-540.755 -715.47 0)
(-483.58 -305.629 0)
(-340.993 138.271 0)
(-132.409 474.913 0)
(15.4171 644.394 0)
(60.6139 697.987 0)
(46.3718 702.639 0)
(21.1379 716.289 0)
(-5.75137 747.033 0)
(-30.5337 797.792 0)
(-39.8141 857.226 0)
(-36.5713 910.939 0)
(-26.7655 954.686 0)
(-19.9569 981.6 0)
(-17.5958 1001.54 0)
(-13.3684 1016.73 0)
(6.56996 1027.2 0)
(86.8319 977.826 0)
(312.648 768.77 0)
(669.499 265.55 0)
(773.594 -460.542 0)
(376.831 -886.724 0)
(5.34124 -1087.24 0)
(-177.408 -1203.8 0)
(-231.685 -1220.98 0)
(-433.19 -1073.67 0)
(-708.822 -727.575 0)
(2296.4 7544.77 0)
(25292.9 -26554.2 0)
(-33510.2 3052.46 0)
(-669.567 -715.133 0)
(435.431 -1723.94 0)
(424.732 -2918.13 0)
(105.23 -3782.22 0)
(-199.126 -4265.35 0)
(-452.745 -4116.46 0)
(-500.214 -3195.64 0)
(-348.442 -1915.38 0)
(-204.065 -1015.5 0)
(-146.822 -413.389 0)
(-85.4454 98.0375 0)
(-8.51185 514.41 0)
(45.8998 818.957 0)
(61.6367 949.999 0)
(54.2292 956.19 0)
(43.863 921.657 0)
(38.8435 903.165 0)
(38.0202 905.257 0)
(34.1448 925.132 0)
(26.7889 966.766 0)
(20.7489 1018.71 0)
(15.8637 1060.11 0)
(12.8603 1090.64 0)
(8.24486 1105.26 0)
(3.86926 1121.18 0)
(2.30101 1128.77 0)
(2.16909 1133.53 0)
(-1.01694 1106.58 0)
(5.46437 996.528 0)
(30.4477 629.631 0)
(67.5686 -83.3363 0)
(-33.9083 -873.446 0)
(-136.893 -1079.23 0)
(-134.056 -1092.36 0)
(-130.23 -775.029 0)
(-202.331 -369.907 0)
(7242.01 2326.01 0)
(595.354 614.439 0)
(25292.9 26554.2 0)
(-33510.2 -3052.46 0)
(-669.567 715.133 0)
(435.431 1723.94 0)
(424.732 2918.13 0)
(105.23 3782.22 0)
(-199.126 4265.35 0)
(-452.745 4116.46 0)
(-500.214 3195.64 0)
(-348.442 1915.38 0)
(-204.065 1015.5 0)
(-146.822 413.389 0)
(-85.4454 -98.0375 0)
(-8.51185 -514.41 0)
(45.8998 -818.957 0)
(61.6367 -949.999 0)
(54.2292 -956.19 0)
(43.863 -921.657 0)
(38.8435 -903.165 0)
(38.0202 -905.257 0)
(34.1448 -925.132 0)
(26.7889 -966.766 0)
(20.7489 -1018.71 0)
(15.8637 -1060.11 0)
(12.8603 -1090.64 0)
(8.24486 -1105.26 0)
(3.86926 -1121.18 0)
(2.30101 -1128.77 0)
(2.16909 -1133.53 0)
(-1.01694 -1106.58 0)
(5.46437 -996.528 0)
(30.4477 -629.631 0)
(67.5686 83.3363 0)
(-33.9083 873.446 0)
(-136.893 1079.23 0)
(-134.056 1092.36 0)
(-130.23 775.029 0)
(-202.331 369.907 0)
(7242.01 -2326.01 0)
(595.354 -614.439 0)
(-684.883 -34772.4 0)
(-627.154 -420.563 0)
(1203.03 1135.25 0)
(987.582 1524.15 0)
(968.512 1800.64 0)
(712.408 2222.11 0)
(295.353 2706.76 0)
(-412.96 3033.2 0)
(-1116.01 2917.93 0)
(-1228.48 2254.03 0)
(-864.939 1527.9 0)
(-616.47 1072.17 0)
(-540.755 715.47 0)
(-483.58 305.629 0)
(-340.993 -138.271 0)
(-132.409 -474.913 0)
(15.4171 -644.394 0)
(60.6139 -697.987 0)
(46.3718 -702.639 0)
(21.1379 -716.289 0)
(-5.75137 -747.033 0)
(-30.5337 -797.792 0)
(-39.8141 -857.226 0)
(-36.5713 -910.939 0)
(-26.7655 -954.686 0)
(-19.9569 -981.6 0)
(-17.5958 -1001.54 0)
(-13.3684 -1016.73 0)
(6.56996 -1027.2 0)
(86.8319 -977.826 0)
(312.648 -768.77 0)
(669.499 -265.55 0)
(773.594 460.542 0)
(376.831 886.724 0)
(5.34124 1087.24 0)
(-177.408 1203.8 0)
(-231.685 1220.98 0)
(-433.19 1073.67 0)
(-708.822 727.575 0)
(2296.4 -7544.77 0)
(1208.57 -939.367 0)
(1091.68 1138.5 0)
(1204.43 1074.43 0)
(1076.62 1200.78 0)
(1097.32 1208.81 0)
(978.396 1359.41 0)
(582.466 1626.03 0)
(-249.249 1843.81 0)
(-1251.05 1966.74 0)
(-1687.93 1836.97 0)
(-1342.95 1432.41 0)
(-929.711 1125.31 0)
(-824.11 970.274 0)
(-831.208 802.24 0)
(-706.259 506.088 0)
(-426.081 89.4109 0)
(-160.733 -285.698 0)
(-12.2638 -507.575 0)
(21.207 -599.239 0)
(-4.75971 -635.533 0)
(-44.3945 -667.959 0)
(-79.3969 -708.039 0)
(-88.2837 -749.832 0)
(-78.0525 -786.78 0)
(-55.2308 -815.887 0)
(-36.9031 -832.305 0)
(-29.9844 -845.016 0)
(-22.4247 -856.47 0)
(39.6597 -857.073 0)
(248.012 -748.967 0)
(691.839 -496.785 0)
(1215.06 108.221 0)
(1177.94 587.823 0)
(569.999 689.287 0)
(168.651 800.987 0)
(-5.17723 919.482 0)
(-255.622 996.754 0)
(-677.794 706.235 0)
(-1063.04 449.134 0)
(-319.182 184.815 0)
(1982.12 345.939 0)
(1313.41 537.004 0)
(1263.05 562.159 0)
(1117.08 631.111 0)
(1121.38 583.491 0)
(1114.46 540.966 0)
(762.133 576.247 0)
(-84.6382 647.212 0)
(-1122.6 843.895 0)
(-1743.38 1118.47 0)
(-1550.72 1181.74 0)
(-1061.8 1101.11 0)
(-852.073 1068.11 0)
(-930.886 1115.68 0)
(-1027.9 1096.38 0)
(-895.403 819.529 0)
(-559.86 303.542 0)
(-241.526 -151.757 0)
(-76.9327 -400.676 0)
(-45.0826 -482.085 0)
(-75.6209 -512.375 0)
(-109.43 -534.489 0)
(-115.692 -557.954 0)
(-100.224 -582.09 0)
(-70.6355 -602.798 0)
(-48.0268 -617.902 0)
(-40.8817 -632.816 0)
(-24.9872 -644.26 0)
(110.164 -624.233 0)
(434.019 -511.424 0)
(1138.67 -167.863 0)
(1714.67 466.419 0)
(1333.53 671.519 0)
(582.244 546.82 0)
(227.166 569.888 0)
(11.2402 571.587 0)
(-437.177 481.827 0)
(-960.896 289.463 0)
(-1211.28 259.598 0)
(-749.068 146.364 0)
(2312.91 -100.423 0)
(1300.04 -297.628 0)
(1295.11 -433.847 0)
(1097.18 -467.407 0)
(1010.45 -511.252 0)
(971.415 -604.568 0)
(684.849 -657.485 0)
(8.66635 -649.528 0)
(-796.931 -486.747 0)
(-1362.36 -45.2404 0)
(-1359.68 462.889 0)
(-1039.21 720.886 0)
(-810.072 769.753 0)
(-803.975 838.365 0)
(-991.638 1037.97 0)
(-1190.08 1147.49 0)
(-1096.7 875.939 0)
(-690.874 276.197 0)
(-297.109 -243.198 0)
(-112.397 -472.582 0)
(-94.893 -531.855 0)
(-123.319 -543.637 0)
(-134.154 -551.89 0)
(-121.265 -566.57 0)
(-89.7404 -584.235 0)
(-65.8297 -599.952 0)
(-55.3837 -617.486 0)
(-14.1543 -628.983 0)
(167.665 -590.982 0)
(687.787 -515.173 0)
(1634.12 -36.8412 0)
(2023.92 425.154 0)
(1255.42 384.841 0)
(472.063 172.261 0)
(192.516 174.986 0)
(-90.0365 122.196 0)
(-527.487 8.60611 0)
(-891.941 17.9585 0)
(-1200.93 202.09 0)
(-1079.34 138.197 0)
(1560.94 -568.674 0)
(992.115 -1232.5 0)
(1099.44 -1898.37 0)
(1042.49 -2340.77 0)
(989.203 -2693.92 0)
(973.541 -2973.76 0)
(718.808 -3213.8 0)
(79.8908 -3230.79 0)
(-540.288 -2966.37 0)
(-828.278 -2233.11 0)
(-812.455 -1224.74 0)
(-766.094 -435.095 0)
(-738.866 71.1896 0)
(-672.427 367.21 0)
(-730.02 594.523 0)
(-1051.54 835.392 0)
(-1399.47 998.712 0)
(-1319.97 749.347 0)
(-798.483 111.119 0)
(-323.243 -440.839 0)
(-144.092 -638.911 0)
(-128.736 -679.612 0)
(-137.792 -684.857 0)
(-131.393 -692.019 0)
(-102.803 -705.586 0)
(-80.0688 -720.367 0)
(-68.857 -737.6 0)
(0.553489 -749.947 0)
(219.836 -720.149 0)
(968.009 -656.279 0)
(2044.8 -158.778 0)
(2121.02 130.185 0)
(1089.83 5.86678 0)
(380.02 -140.027 0)
(178.921 -131.941 0)
(-149.09 -142 0)
(-537.624 -184.505 0)
(-774.448 -125.438 0)
(-1095.42 63.2129 0)
(-1115.86 153.384 0)
(255.359 -585.214 0)
(18.6945 -1351.18 0)
(227.149 -2230.75 0)
(330.565 -2903.89 0)
(400.474 -3516.89 0)
(470.433 -4138.24 0)
(437.168 -4853.33 0)
(247.101 -5191.31 0)
(164.47 -5048.26 0)
(315.939 -4496.15 0)
(372.953 -3675.98 0)
(209.594 -2797.97 0)
(-36.9421 -1912.33 0)
(-299.672 -1181.56 0)
(-540.481 -684.431 0)
(-800.593 -253.444 0)
(-1179.62 253.551 0)
(-1546.19 637.779 0)
(-1444.01 469.956 0)
(-835.153 -193.544 0)
(-324.984 -696.725 0)
(-167.594 -836.425 0)
(-146.11 -856.358 0)
(-141.24 -859.698 0)
(-117.058 -867.961 0)