/*--------------------------------*- C++ -*----------------------------------*\
| =========                 |                                                 |
| \\      /  F ield         | OpenFOAM: The Open Source CFD Toolbox           |
|  \\    /   O peration     | Version:  v1912                                 |
|   \\  /    A nd           | Website:  www.openfoam.com                      |
|    \\/     M anipulation  |                                                 |
\*---------------------------------------------------------------------------*/
FoamFile
{
    version     2.0;
    format      ascii;
    class       volVectorField;
    location    "0.32";
    object      U;
}
// * * * * * * * * * * * * * * * * * * * * * * * * * * * * * * * * * * * * * //

dimensions      [0 1 -1 0 0 0 0];


internalField   nonuniform List<vector> 
4800
(
(-4.63278 0.000261146 0)
(-0.5498 -0.00121928 0)
(0.684657 0.0010248 0)
(0.640693 0.00261591 0)
(0.610284 -0.00123653 0)
(0.584021 -0.0020897 0)
(0.565317 -0.00206474 0)
(0.548304 -0.0015985 0)
(0.53115 -0.000749477 0)
(0.513356 -0.00132208 0)
(0.496876 -0.00259178 0)
(0.484623 -0.00385528 0)
(0.478292 -0.00434849 0)
(0.477404 -0.00390483 0)
(0.480465 -0.00303621 0)
(0.485147 -0.00139836 0)
(0.49021 0.00130833 0)
(0.493516 0.00285905 0)
(0.495738 0.00321936 0)
(0.495603 0.00322395 0)
(0.495865 0.00301538 0)
(0.493247 0.00265816 0)
(0.489891 0.00204687 0)
(0.484643 0.00184271 0)
(0.476663 0.00188183 0)
(0.464436 0.00223039 0)
(0.452062 0.00286324 0)
(0.440995 0.003584 0)
(0.434399 0.00436504 0)
(0.432653 0.00477448 0)
(0.43298 0.00556465 0)
(0.430364 0.00568278 0)
(0.422419 0.00578761 0)
(0.410925 0.00551167 0)
(0.394243 0.00471714 0)
(0.375863 0.00398381 0)
(0.358764 0.00376286 0)
(0.341185 0.00382179 0)
(0.321523 0.00947525 0)
(0.283812 0.0209122 0)
(-4.63289 0.000831002 0)
(-0.549561 -0.00621239 0)
(0.682555 -0.00231901 0)
(0.64022 0.00214766 0)
(0.612948 -0.00139974 0)
(0.586016 -0.00204484 0)
(0.565814 -0.00154283 0)
(0.547167 -0.00196202 0)
(0.529061 -0.00338736 0)
(0.511747 -0.00619889 0)
(0.496823 -0.00922867 0)
(0.486169 -0.0114231 0)
(0.480833 -0.0114161 0)
(0.480345 -0.00884326 0)
(0.483208 -0.0045219 0)
(0.486342 0.000615384 0)
(0.491052 0.00616598 0)
(0.492954 0.00923838 0)
(0.494637 0.0102232 0)
(0.494291 0.00964181 0)
(0.494546 0.00843435 0)
(0.492273 0.00723474 0)
(0.489774 0.00603614 0)
(0.485117 0.00631194 0)
(0.47705 0.00726393 0)
(0.46514 0.00877164 0)
(0.452772 0.0107931 0)
(0.441735 0.0128746 0)
(0.435279 0.0147941 0)
(0.43306 0.0154355 0)
(0.432476 0.0160722 0)
(0.429029 0.0148725 0)
(0.420621 0.0135997 0)
(0.409127 0.0120564 0)
(0.392554 0.0108963 0)
(0.373956 0.010674 0)
(0.356249 0.0109617 0)
(0.338117 0.0120175 0)
(0.320605 0.0187358 0)
(0.294193 0.0204304 0)
(-4.63323 0.00120488 0)
(-0.548323 -0.0102384 0)
(0.677251 -0.00282844 0)
(0.638151 0.0035277 0)
(0.615428 -0.00256803 0)
(0.587135 -0.00358516 0)
(0.565021 -0.00322399 0)
(0.545145 -0.00400385 0)
(0.527021 -0.00599607 0)
(0.510689 -0.00937052 0)
(0.497897 -0.0135291 0)
(0.489578 -0.0171929 0)
(0.485312 -0.0178927 0)
(0.484471 -0.0144434 0)
(0.486319 -0.00799614 0)
(0.488328 1.20649e-05 0)
(0.492956 0.00806181 0)
(0.492953 0.0126631 0)
(0.493154 0.0146672 0)
(0.492837 0.014062 0)
(0.492031 0.01241 0)
(0.490805 0.0104282 0)
(0.4893 0.0088724 0)
(0.485489 0.00923573 0)
(0.477672 0.0108856 0)
(0.466424 0.0134399 0)
(0.454087 0.0169308 0)
(0.442693 0.0202492 0)
(0.436725 0.0235339 0)
(0.434135 0.0246882 0)
(0.432116 0.0247316 0)
(0.427577 0.0230482 0)
(0.419088 0.0211082 0)
(0.407781 0.0191373 0)
(0.392602 0.018429 0)
(0.374906 0.0189866 0)
(0.356986 0.0205641 0)
(0.339102 0.0218901 0)
(0.32311 0.0279334 0)
(0.304258 0.0275398 0)
(-4.63393 0.00142549 0)
(-0.546803 -0.0132491 0)
(0.671152 -0.00459659 0)
(0.635388 0.00313848 0)
(0.617825 -0.00432733 0)
(0.588886 -0.00487345 0)
(0.564662 -0.00491482 0)
(0.542852 -0.00566957 0)
(0.524621 -0.00739568 0)
(0.5098 -0.0110776 0)
(0.499133 -0.0162188 0)
(0.492909 -0.021519 0)
(0.489745 -0.023696 0)
(0.488767 -0.0200549 0)
(0.489904 -0.0119755 0)
(0.490606 -0.00202821 0)
(0.494169 0.00818319 0)
(0.492134 0.0141128 0)
(0.491186 0.0172093 0)
(0.490792 0.0168645 0)
(0.489375 0.0153123 0)
(0.489757 0.0132496 0)
(0.489086 0.0113478 0)
(0.486164 0.0114437 0)
(0.478895 0.0137589 0)
(0.468605 0.0174924 0)
(0.456498 0.0223872 0)
(0.444716 0.0265722 0)
(0.438711 0.0308572 0)
(0.435245 0.0326224 0)
(0.431299 0.0318929 0)
(0.425531 0.0299803 0)
(0.417329 0.0276728 0)
(0.406645 0.025698 0)
(0.393393 0.0256501 0)
(0.377686 0.0267924 0)
(0.360139 0.0286208 0)
(0.342525 0.0293566 0)
(0.326518 0.0318182 0)
(0.311353 0.0283225 0)
(-4.63466 0.00127071 0)
(-0.545157 -0.0157442 0)
(0.666391 -0.00604175 0)
(0.633067 0.0018365 0)
(0.618423 -0.00630218 0)
(0.591045 -0.00615522 0)
(0.56561 -0.00649825 0)
(0.541743 -0.00714345 0)
(0.522783 -0.00833171 0)
(0.5089 -0.0113548 0)
(0.500196 -0.016961 0)
(0.495908 -0.0236332 0)
(0.494214 -0.0276095 0)
(0.493462 -0.0245157 0)
(0.493384 -0.0162224 0)
(0.491835 -0.00582101 0)
(0.494911 0.00586521 0)
(0.491535 0.0127363 0)
(0.489512 0.0171117 0)
(0.487838 0.0175357 0)
(0.487022 0.0165874 0)
(0.488318 0.014968 0)
(0.48844 0.0132078 0)
(0.486282 0.013233 0)
(0.480576 0.0162056 0)
(0.471251 0.0207042 0)
(0.459171 0.0263993 0)
(0.447181 0.0317789 0)
(0.440496 0.0365653 0)
(0.435589 0.0386945 0)
(0.429926 0.037746 0)
(0.423516 0.0357357 0)
(0.415661 0.0335211 0)
(0.406094 0.03199 0)
(0.394724 0.032509 0)
(0.380706 0.033836 0)
(0.36391 0.0349483 0)
(0.346015 0.0343848 0)
(0.329238 0.0345328 0)
(0.315116 0.0306613 0)
(-4.63547 0.000944537 0)
(-0.543438 -0.0173045 0)
(0.661314 -0.00760386 0)
(0.629192 -0.000789613 0)
(0.617926 -0.00849842 0)
(0.593814 -0.00757749 0)
(0.568177 -0.00794229 0)
(0.542618 -0.0078889 0)
(0.522393 -0.0084023 0)
(0.508742 -0.0105408 0)
(0.500992 -0.0157105 0)
(0.498187 -0.0235481 0)
(0.497496 -0.0293609 0)
(0.496527 -0.0279206 0)
(0.49537 -0.0205055 0)
(0.492566 -0.010372 0)
(0.49483 0.00180251 0)
(0.490022 0.00901055 0)
(0.488486 0.014738 0)
(0.485702 0.0164336 0)
(0.485363 0.0167893 0)
(0.486909 0.016057 0)
(0.487798 0.0149109 0)
(0.486114 0.0150358 0)
(0.482537 0.018438 0)
(0.474144 0.0231188 0)
(0.461756 0.0291301 0)
(0.450299 0.035741 0)
(0.442451 0.0404319 0)
(0.435554 0.0428954 0)
(0.428548 0.0424017 0)
(0.421584 0.0407468 0)
(0.414541 0.0389382 0)
(0.406229 0.0377248 0)
(0.396381 0.0382401 0)
(0.383828 0.0393142 0)
(0.367692 0.0393961 0)
(0.349564 0.03766 0)
(0.332101 0.035958 0)
(0.318393 0.0317084 0)
(-4.63634 0.000321904 0)
(-0.541955 -0.0178961 0)
(0.655513 -0.00943888 0)
(0.62385 -0.00383911 0)
(0.616172 -0.00961534 0)
(0.596933 -0.00913204 0)
(0.572328 -0.00956924 0)
(0.545422 -0.00850853 0)
(0.523571 -0.00750508 0)
(0.509607 -0.00937396 0)
(0.502417 -0.0147517 0)
(0.499809 -0.0225031 0)
(0.498936 -0.0292514 0)
(0.497571 -0.029828 0)
(0.49567 -0.0240382 0)
(0.492385 -0.014728 0)
(0.493989 -0.00302745 0)
(0.488711 0.00404954 0)
(0.487653 0.0111036 0)
(0.484118 0.0147091 0)
(0.483968 0.0165172 0)
(0.485495 0.0168519 0)
(0.486769 0.0167285 0)
(0.485521 0.0170537 0)
(0.483928 0.0207745 0)
(0.476598 0.0254391 0)
(0.463902 0.0312526 0)
(0.453214 0.0384834 0)
(0.443754 0.0432001 0)
(0.435229 0.046069 0)
(0.427254 0.0462169 0)
(0.420107 0.0452229 0)
(0.413891 0.0437459 0)
(0.406393 0.0426069 0)
(0.397849 0.0423701 0)
(0.386163 0.0422505 0)
(0.371149 0.0407158 0)
(0.352943 0.0379465 0)
(0.335208 0.0353612 0)
(0.321847 0.0320672 0)
(-4.63715 -0.000543399 0)
(-0.540891 -0.0174643 0)
(0.649322 -0.0110802 0)
(0.617573 -0.00671377 0)
(0.613417 -0.0111396 0)
(0.599761 -0.0110007 0)
(0.577599 -0.0117557 0)
(0.55025 -0.00980717 0)
(0.526747 -0.00692456 0)
(0.511489 -0.00726379 0)
(0.503775 -0.0123661 0)
(0.500619 -0.0206786 0)
(0.498886 -0.0281301 0)
(0.497027 -0.0302231 0)
(0.494713 -0.026342 0)
(0.491552 -0.0182525 0)
(0.492613 -0.00781281 0)
(0.488041 -0.00112211 0)
(0.487288 0.00679611 0)
(0.48337 0.0125667 0)
(0.482704 0.0164261 0)
(0.484332 0.0183401 0)
(0.485653 0.0192754 0)
(0.484435 0.0198711 0)
(0.484357 0.0237527 0)
(0.477982 0.0285339 0)
(0.465256 0.0336005 0)
(0.455534 0.0406231 0)
(0.444718 0.0452854 0)
(0.435251 0.0485103 0)
(0.426789 0.0493734 0)
(0.419543 0.0490487 0)
(0.413766 0.0476517 0)
(0.406362 0.0459668 0)
(0.39867 0.0433853 0)
(0.387513 0.0414547 0)
(0.372977 0.0381632 0)
(0.356059 0.0344814 0)
(0.339076 0.0318 0)
(0.326425 0.0290411 0)
(-4.63796 -0.00160969 0)
(-0.540255 -0.0164566 0)
(0.64349 -0.0123366 0)
(0.611314 -0.00909058 0)
(0.609762 -0.0119575 0)
(0.601547 -0.0124365 0)
(0.583143 -0.0140502 0)
(0.556662 -0.011616 0)
(0.531929 -0.00709546 0)
(0.514625 -0.00613333 0)
(0.505573 -0.0108018 0)
(0.501352 -0.019044 0)
(0.49854 -0.0267185 0)
(0.495775 -0.0299575 0)
(0.493155 -0.0272826 0)
(0.490338 -0.0209155 0)
(0.491127 -0.0120609 0)
(0.487926 -0.00542721 0)
(0.487249 0.00290604 0)
(0.48361 0.0104956 0)
(0.482399 0.0161734 0)
(0.483124 0.0200955 0)
(0.484855 0.0224102 0)
(0.483551 0.0239018 0)
(0.484098 0.0280317 0)
(0.47837 0.0326979 0)
(0.465972 0.0367658 0)
(0.456768 0.042816 0)
(0.445641 0.0473208 0)
(0.435751 0.0503034 0)
(0.427068 0.0517 0)
(0.419399 0.0516068 0)
(0.412873 0.0498862 0)
(0.404794 0.047108 0)
(0.396926 0.0421191 0)
(0.387126 0.0372612 0)
(0.37448 0.0318014 0)
(0.359754 0.0275955 0)
(0.344404 0.024886 0)
(0.332463 0.0229165 0)
(-4.63875 -0.00288551 0)
(-0.540074 -0.0153271 0)
(0.638552 -0.0132592 0)
(0.605919 -0.0109525 0)
(0.606237 -0.012048 0)
(0.601988 -0.0130364 0)
(0.587905 -0.0153573 0)
(0.563847 -0.0128677 0)
(0.538735 -0.00777302 0)
(0.5189 -0.00589471 0)
(0.507718 -0.0100351 0)
(0.502202 -0.0182319 0)
(0.49827 -0.0255052 0)
(0.49469 -0.0292221 0)
(0.491844 -0.0271212 0)
(0.488984 -0.0223528 0)
(0.489466 -0.0150033 0)
(0.488428 -0.00827983 0)
(0.487251 -5.66395e-05 0)
(0.484562 0.00865137 0)
(0.482806 0.0159719 0)
(0.48258 0.0219353 0)
(0.48459 0.0260372 0)
(0.483286 0.0290385 0)
(0.483127 0.0332527 0)
(0.477633 0.0375831 0)
(0.465772 0.0407977 0)
(0.456678 0.0453431 0)
(0.446024 0.0487157 0)
(0.43648 0.0513753 0)
(0.427573 0.0528551 0)
(0.419015 0.0524495 0)
(0.410991 0.0501348 0)
(0.402168 0.0458803 0)
(0.393122 0.0395696 0)
(0.384734 0.0320497 0)
(0.374874 0.0250577 0)
(0.363238 0.0202829 0)
(0.350572 0.0175556 0)
(0.339917 0.015741 0)
(-4.63955 -0.00416709 0)
(-0.540553 -0.01423 0)
(0.634547 -0.014027 0)
(0.601696 -0.0124446 0)
(0.603763 -0.0121277 0)
(0.601739 -0.0121867 0)
(0.591564 -0.015529 0)
(0.570768 -0.0130392 0)
(0.546259 -0.00850877 0)
(0.524215 -0.00650336 0)
(0.510505 -0.0102398 0)
(0.503496 -0.0178082 0)
(0.498561 -0.0243919 0)
(0.494337 -0.0288134 0)
(0.491376 -0.02681 0)
(0.488328 -0.0227426 0)
(0.488229 -0.0163002 0)
(0.489547 -0.00944152 0)
(0.486865 -0.00163836 0)
(0.48661 0.00739122 0)
(0.483675 0.0158037 0)
(0.482968 0.0237287 0)
(0.484373 0.0299378 0)
(0.483574 0.0346411 0)
(0.481754 0.0390868 0)
(0.475983 0.0426419 0)
(0.464556 0.0446584 0)
(0.455301 0.0475236 0)
(0.445464 0.0497075 0)
(0.436793 0.0516413 0)
(0.427704 0.0527274 0)
(0.418131 0.051689 0)
(0.408406 0.0483458 0)
(0.397733 0.0435081 0)
(0.389035 0.0353916 0)
(0.381682 0.0270593 0)
(0.374527 0.0198497 0)
(0.366675 0.01478 0)
(0.35721 0.0118804 0)
(0.348716 0.01016 0)
(-4.64025 -0.00538055 0)
(-0.542 -0.0127771 0)
(0.631315 -0.014728 0)
(0.598577 -0.0137894 0)
(0.602177 -0.012009 0)
(0.601291 -0.0117124 0)
(0.594379 -0.0145665 0)
(0.577162 -0.012799 0)
(0.553719 -0.00933663 0)
(0.530412 -0.00749308 0)
(0.51431 -0.01055 0)
(0.505646 -0.0173783 0)
(0.49989 -0.0228996 0)
(0.495064 -0.0271877 0)
(0.491716 -0.0258382 0)
(0.488575 -0.0225006 0)
(0.488242 -0.0164045 0)
(0.490514 -0.00957226 0)
(0.487679 -0.00265706 0)
(0.487539 0.00584845 0)
(0.485083 0.0153826 0)
(0.484152 0.0250848 0)
(0.484571 0.0336203 0)
(0.483938 0.0400904 0)
(0.479747 0.0446556 0)
(0.473018 0.0470804 0)
(0.46188 0.0482714 0)
(0.452589 0.0496394 0)
(0.443867 0.0495967 0)
(0.435909 0.0507407 0)
(0.426846 0.0508368 0)
(0.416128 0.049118 0)
(0.404733 0.0450063 0)
(0.393628 0.0391608 0)
(0.385125 0.0315077 0)
(0.379084 0.0237613 0)
(0.374025 0.0170691 0)
(0.370351 0.0118133 0)
(0.364569 0.00882225 0)
(0.357898 0.00625207 0)
(-4.6408 -0.00652198 0)
(-0.544516 -0.0103013 0)
(0.628989 -0.0155459 0)
(0.596581 -0.0154033 0)
(0.60111 -0.0108605 0)
(0.600701 -0.0114365 0)
(0.596619 -0.0126251 0)
(0.583111 -0.012934 0)
(0.56124 -0.0100237 0)
(0.537491 -0.00875915 0)
(0.519215 -0.0108501 0)
(0.508748 -0.0163939 0)
(0.502349 -0.0206887 0)
(0.497348 -0.0247952 0)
(0.493427 -0.0236274 0)
(0.489802 -0.020604 0)
(0.489199 -0.0157319 0)
(0.491066 -0.00945901 0)
(0.488391 -0.00351225 0)
(0.487441 0.00440482 0)
(0.48689 0.0147806 0)
(0.485332 0.0260059 0)
(0.485266 0.036452 0)
(0.483514 0.0444699 0)
(0.477445 0.0492838 0)
(0.468709 0.0506401 0)
(0.457747 0.0512044 0)
(0.448327 0.0509524 0)
(0.440711 0.0493665 0)
(0.433187 0.0489525 0)
(0.423948 0.0479076 0)
(0.412935 0.0449615 0)
(0.40148 0.0403598 0)
(0.390465 0.0354038 0)
(0.382601 0.0289161 0)
(0.377563 0.0225326 0)
(0.374728 0.0164234 0)
(0.374287 0.0115533 0)
(0.371912 0.00783783 0)
(0.366309 0.00427747 0)
(-4.64111 -0.00762295 0)
(-0.547965 -0.00846939 0)
(0.627889 -0.016345 0)
(0.595573 -0.0169184 0)
(0.600218 -0.00968604 0)
(0.599776 -0.0108256 0)
(0.598353 -0.0119589 0)
(0.5884 -0.0130341 0)
(0.568867 -0.0107638 0)
(0.545356 -0.00976032 0)
(0.525448 -0.0108824 0)
(0.513021 -0.0145786 0)
(0.505816 -0.0173652 0)
(0.500637 -0.0211888 0)
(0.496226 -0.0211646 0)
(0.49246 -0.018625 0)
(0.491288 -0.0153221 0)
(0.491017 -0.0102882 0)
(0.488493 -0.00482692 0)
(0.486344 0.00264285 0)
(0.4889 0.013039 0)
(0.48658 0.0255303 0)
(0.486203 0.0376311 0)
(0.482523 0.0467099 0)
(0.47454 0.0519059 0)
(0.46325 0.0527111 0)
(0.451978 0.052174 0)
(0.442259 0.0506953 0)
(0.435659 0.047827 0)
(0.428777 0.045854 0)
(0.419905 0.0439488 0)
(0.409109 0.0410546 0)
(0.397907 0.0371842 0)
(0.388195 0.033107 0)
(0.381485 0.02802 0)
(0.377629 0.0232347 0)
(0.376544 0.0179145 0)
(0.378181 0.0132254 0)
(0.378052 0.00844448 0)
(0.373732 0.00353334 0)
(-4.6411 -0.00844492 0)
(-0.55218 -0.00552877 0)
(0.628075 -0.0167332 0)
(0.595683 -0.0181009 0)
(0.599984 -0.00918662 0)
(0.599294 -0.00951763 0)
(0.599839 -0.0108906 0)
(0.592962 -0.0114781 0)
(0.576245 -0.0118834 0)
(0.553744 -0.0107597 0)
(0.533223 -0.0109973 0)
(0.518919 -0.0124155 0)
(0.510326 -0.0134325 0)
(0.504549 -0.0169832 0)
(0.49945 -0.0187687 0)
(0.495209 -0.0171514 0)
(0.493385 -0.0157183 0)
(0.490407 -0.0124225 0)
(0.488019 -0.00632824 0)
(0.485002 0.000691801 0)
(0.489642 0.0100027 0)
(0.487687 0.0235804 0)
(0.487256 0.03694 0)
(0.48121 0.0464471 0)
(0.470767 0.0512499 0)
(0.457493 0.0519039 0)
(0.444999 0.0508674 0)
(0.43533 0.0484635 0)
(0.429318 0.0450543 0)
(0.423105 0.0425451 0)
(0.415274 0.0404432 0)
(0.405726 0.0378403 0)
(0.395536 0.0351329 0)
(0.38722 0.0323159 0)
(0.382087 0.0289586 0)
(0.379447 0.0255274 0)
(0.37945 0.0210469 0)
(0.381848 0.0160066 0)
(0.382785 0.00989224 0)
(0.380013 0.00323255 0)
(-4.64079 -0.00885395 0)
(-0.55722 -0.00250504 0)
(0.629086 -0.0170561 0)
(0.596689 -0.0189859 0)
(0.600497 -0.00886295 0)
(0.599491 -0.00790716 0)
(0.601278 -0.00962554 0)
(0.596863 -0.0110236 0)
(0.582916 -0.0126993 0)
(0.562382 -0.0113485 0)
(0.542145 -0.0104723 0)
(0.526368 -0.0101812 0)
(0.515815 -0.00990586 0)
(0.508718 -0.0134437 0)
(0.502621 -0.0171289 0)
(0.497403 -0.0173843 0)
(0.494695 -0.0178333 0)
(0.489682 -0.0160595 0)
(0.487387 -0.00926031 0)
(0.483875 -0.00223166 0)
(0.488284 0.00692854 0)
(0.488022 0.0212302 0)
(0.487053 0.0351381 0)
(0.47896 0.0446767 0)
(0.466143 0.0491247 0)
(0.451068 0.0496531 0)
(0.437476 0.0479061 0)
(0.428102 0.0451551 0)
(0.422171 0.0422751 0)
(0.417185 0.0396587 0)
(0.410786 0.0377869 0)
(0.402801 0.0360662 0)
(0.394606 0.034247 0)
(0.388037 0.033093 0)
(0.38426 0.0316387 0)
(0.382745 0.0290052 0)
(0.383497 0.0249324 0)
(0.385373 0.0188858 0)
(0.386293 0.0110814 0)
(0.384325 0.00247084 0)
(-4.64017 -0.00899776 0)
(-0.563015 -6.49643e-05 0)
(0.630461 -0.0176039 0)
(0.598356 -0.019659 0)
(0.601818 -0.00832866 0)
(0.600459 -0.00636834 0)
(0.602665 -0.00792421 0)
(0.599852 -0.00948357 0)
(0.588679 -0.0111264 0)
(0.570597 -0.0110432 0)
(0.551043 -0.00951102 0)
(0.534402 -0.00845447 0)
(0.521988 -0.00813075 0)
(0.513148 -0.012438 0)
(0.5055 -0.0176445 0)
(0.498862 -0.0198908 0)
(0.495232 -0.0211333 0)
(0.489072 -0.0205416 0)
(0.487221 -0.0132062 0)
(0.483084 -0.00559463 0)
(0.485853 0.0051599 0)
(0.487304 0.019532 0)
(0.484991 0.0333699 0)
(0.475502 0.0426119 0)
(0.460648 0.0460291 0)
(0.44402 0.0461336 0)
(0.429923 0.0440617 0)
(0.420827 0.0417238 0)
(0.416035 0.0389839 0)
(0.411799 0.0373244 0)
(0.406814 0.0364999 0)
(0.401006 0.0351311 0)
(0.395091 0.035009 0)
(0.390647 0.0354779 0)
(0.388082 0.0353089 0)
(0.387074 0.0332097 0)
(0.387641 0.0288938 0)
(0.388336 0.0213275 0)
(0.388305 0.0113956 0)
(0.386365 0.000749813 0)
(-4.63934 -0.00888634 0)
(-0.569201 0.00159529 0)
(0.63173 -0.0179653 0)
(0.600402 -0.0199089 0)
(0.603758 -0.00779008 0)
(0.602123 -0.00496824 0)
(0.604355 -0.00597783 0)
(0.602724 -0.00726572 0)
(0.594161 -0.00973129 0)
(0.578163 -0.0100653 0)
(0.559284 -0.00868736 0)
(0.542043 -0.00802285 0)
(0.528116 -0.0089406 0)
(0.517476 -0.0145839 0)
(0.508049 -0.0207299 0)
(0.500019 -0.0244234 0)
(0.495517 -0.0252025 0)
(0.488789 -0.0248381 0)
(0.487608 -0.0167653 0)
(0.482527 -0.00813687 0)
(0.484188 0.00421546 0)
(0.484967 0.0190205 0)
(0.48102 0.0323053 0)
(0.470244 0.0407048 0)
(0.453628 0.0428613 0)
(0.436158 0.042565 0)
(0.422658 0.0404246 0)
(0.414679 0.0382518 0)
(0.410573 0.0369347 0)
(0.407176 0.036576 0)
(0.403695 0.0359331 0)
(0.400207 0.0359881 0)
(0.396889 0.0370546 0)
(0.394529 0.0384662 0)
(0.39301 0.0389975 0)
(0.391715 0.0371973 0)
(0.391106 0.0318131 0)
(0.389948 0.0225202 0)
(0.388825 0.0103509 0)
(0.386458 -0.00205463 0)
(-4.6386 -0.00849171 0)
(-0.574738 0.00185882 0)
(0.6319 -0.0173519 0)
(0.602419 -0.0194027 0)
(0.605983 -0.00726549 0)
(0.60435 -0.00369899 0)
(0.606469 -0.00412324 0)
(0.605592 -0.00499303 0)
(0.59881 -0.00737835 0)
(0.584594 -0.00854674 0)
(0.566163 -0.00781953 0)
(0.54827 -0.00836734 0)
(0.533278 -0.0116059 0)
(0.521325 -0.0192356 0)
(0.510655 -0.0259071 0)
(0.501744 -0.0300762 0)
(0.496378 -0.0300454 0)
(0.489878 -0.0278799 0)
(0.489159 -0.0188736 0)
(0.483141 -0.0097614 0)
(0.483376 0.00389222 0)
(0.48138 0.0192193 0)
(0.475017 0.0315502 0)
(0.462526 0.0384599 0)
(0.44493 0.0397548 0)
(0.428079 0.0388047 0)
(0.416277 0.036773 0)
(0.40962 0.035798 0)
(0.40612 0.0357544 0)
(0.40371 0.0362202 0)
(0.401779 0.0367222 0)
(0.400697 0.0381009 0)
(0.399862 0.0398363 0)
(0.399356 0.0416564 0)
(0.398249 0.041991 0)
(0.395874 0.0394743 0)
(0.393323 0.0326378 0)
(0.390125 0.0214336 0)
(0.387828 0.008003 0)
(0.385812 -0.00491224 0)
(-4.63839 -0.00794463 0)
(-0.578208 0.000203805 0)
(0.629818 -0.0158072 0)
(0.603668 -0.0178127 0)
(0.608114 -0.00637641 0)
(0.606946 -0.00285516 0)
(0.609099 -0.00281693 0)
(0.608565 -0.00310378 0)
(0.602771 -0.00507579 0)
(0.589565 -0.0062043 0)
(0.571288 -0.00751648 0)
(0.552628 -0.00998039 0)
(0.536695 -0.0157114 0)
(0.524148 -0.0249514 0)
(0.513013 -0.0322672 0)
(0.503812 -0.0362347 0)
(0.497755 -0.0349039 0)
(0.492054 -0.0306701 0)
(0.491657 -0.0207651 0)
(0.485214 -0.0106533 0)
(0.482976 0.00413705 0)
(0.476585 0.018674 0)
(0.466908 0.0297807 0)
(0.452467 0.0350062 0)
(0.435001 0.0359875 0)
(0.419967 0.0355342 0)
(0.410594 0.0347264 0)
(0.405505 0.0347598 0)
(0.402811 0.0359697 0)
(0.401219 0.037202 0)
(0.40109 0.0389774 0)
(0.402127 0.0409583 0)
(0.403239 0.043317 0)
(0.404056 0.044137 0)
(0.402737 0.0433534 0)
(0.398574 0.0395251 0)
(0.393974 0.0305656 0)
(0.388902 0.0186957 0)
(0.387086 0.0054135 0)
(0.385871 -0.00680068 0)
(-4.63845 -0.00684933 0)
(-0.580342 -0.00153468 0)
(0.627494 -0.0137736 0)
(0.603538 -0.0148213 0)
(0.609327 -0.00499787 0)
(0.609533 -0.00205374 0)
(0.612071 -0.00193819 0)
(0.611733 -0.0021244 0)
(0.606274 -0.00368724 0)
(0.59328 -0.00485657 0)
(0.574517 -0.00649312 0)
(0.554973 -0.010898 0)
(0.53837 -0.0190786 0)
(0.525959 -0.0304206 0)
(0.515889 -0.0382509 0)
(0.507491 -0.0414097 0)
(0.500689 -0.0391688 0)
(0.496215 -0.0318542 0)
(0.495766 -0.0209699 0)
(0.488249 -0.0104931 0)
(0.482283 0.00406183 0)
(0.470107 0.0161132 0)
(0.457326 0.0257277 0)
(0.440816 0.0299001 0)
(0.424784 0.0317385 0)
(0.41281 0.0325114 0)
(0.406039 0.0337485 0)
(0.402373 0.035527 0)
(0.400351 0.0374137 0)
(0.399847 0.0395577 0)
(0.401265 0.041952 0)
(0.403588 0.0446884 0)
(0.406396 0.0459107 0)
(0.407545 0.0458911 0)
(0.405144 0.0429756 0)
(0.3993 0.0365224 0)
(0.393318 0.0268379 0)
(0.388609 0.0155439 0)
(0.387124 0.00314598 0)
(0.386065 -0.00800595 0)
(-4.63882 -0.00603493 0)
(-0.581848 -0.0023617 0)
(0.625872 -0.0115626 0)
(0.60286 -0.0117259 0)
(0.609555 -0.00301539 0)
(0.611556 -0.000716802 0)
(0.614947 -0.00162829 0)
(0.614916 -0.00235422 0)
(0.609523 -0.00380211 0)
(0.5962 -0.004325 0)
(0.576419 -0.00698516 0)
(0.555046 -0.0132699 0)
(0.537606 -0.0237131 0)
(0.526448 -0.0357226 0)
(0.518703 -0.0434257 0)
(0.512311 -0.0452843 0)
(0.505808 -0.0422743 0)
(0.502309 -0.0328493 0)
(0.501211 -0.0210618 0)
(0.491872 -0.0106774 0)
(0.480395 0.00234497 0)
(0.462278 0.0116041 0)
(0.446503 0.0191582 0)
(0.428967 0.0228608 0)
(0.415671 0.026695 0)
(0.407323 0.0302887 0)
(0.402843 0.0343997 0)
(0.399905 0.0373597 0)
(0.398422 0.0399551 0)
(0.399321 0.0427756 0)
(0.401612 0.0459533 0)
(0.40516 0.0478738 0)
(0.408503 0.0477138 0)
(0.408898 0.0459385 0)
(0.405008 0.0406797 0)
(0.39856 0.0326454 0)
(0.393673 0.0226931 0)
(0.389386 0.0118247 0)
(0.388012 0.00123772 0)
(0.387987 -0.00779916 0)
(-4.63925 -0.00497501 0)
(-0.582946 -0.00212487 0)
(0.624812 -0.00856771 0)
(0.601837 -0.00866394 0)
(0.609004 -0.000999007 0)
(0.612501 0.000990182 0)
(0.617169 -0.00142403 0)
(0.617735 -0.00312827 0)
(0.612541 -0.00496523 0)
(0.598491 -0.00578176 0)
(0.576907 -0.00930722 0)
(0.553873 -0.0163793 0)
(0.536122 -0.02711 0)
(0.526461 -0.0390023 0)
(0.521349 -0.0465346 0)
(0.517476 -0.0480647 0)
(0.51232 -0.0446929 0)
(0.509858 -0.0339599 0)
(0.507179 -0.0215836 0)
(0.495171 -0.0110748 0)
(0.476914 -0.00119479 0)
(0.454519 0.00449518 0)
(0.434712 0.0101593 0)
(0.418172 0.0149911 0)
(0.408595 0.0216522 0)
(0.404069 0.0288904 0)
(0.400569 0.0350986 0)
(0.397917 0.0396079 0)
(0.397558 0.0433183 0)
(0.399454 0.0468524 0)
(0.402493 0.0498275 0)
(0.406418 0.0506322 0)
(0.408898 0.0497698 0)
(0.407959 0.0452793 0)
(0.403134 0.0379257 0)
(0.398538 0.0288658 0)
(0.394685 0.018673 0)
(0.391283 0.00902655 0)
(0.390511 0.000235784 0)
(0.391874 -0.00635309 0)
(-4.63974 -0.00392553 0)
(-0.583813 -0.00167057 0)
(0.623783 -0.00495028 0)
(0.600553 -0.0052291 0)
(0.607692 0.0013909 0)
(0.612085 0.00278014 0)
(0.618031 -0.00129116 0)
(0.619437 -0.00451 0)
(0.614627 -0.00761402 0)
(0.600144 -0.00893075 0)
(0.577266 -0.0127218 0)
(0.552919 -0.019593 0)
(0.534879 -0.0295917 0)
(0.526119 -0.0406144 0)
(0.523306 -0.0474418 0)
(0.522928 -0.0485082 0)
(0.520101 -0.0450925 0)
(0.518232 -0.034142 0)
(0.513239 -0.0222006 0)
(0.497191 -0.013459 0)
(0.471961 -0.00610487 0)
(0.446039 -0.00437463 0)
(0.424142 -0.000357883 0)
(0.409772 0.00711814 0)
(0.404247 0.01711 0)
(0.402281 0.0276248 0)
(0.399349 0.035986 0)
(0.397296 0.0420219 0)
(0.398017 0.0468467 0)
(0.400268 0.0509086 0)
(0.403271 0.0537216 0)
(0.406459 0.0542456 0)
(0.407431 0.0512011 0)
(0.40482 0.0442206 0)
(0.401742 0.0353142 0)
(0.398186 0.0256506 0)
(0.396035 0.0155968 0)
(0.393895 0.00664329 0)
(0.394446 -0.000185492 0)
(0.39732 -0.00415506 0)
(-4.64021 -0.00298382 0)
(-0.584525 -0.00120377 0)
(0.622554 -0.00117984 0)
(0.598994 -0.00238247 0)
(0.605741 0.00365799 0)
(0.610182 0.00454831 0)
(0.617311 -0.000879888 0)
(0.619568 -0.0060357 0)
(0.615177 -0.0109398 0)
(0.601014 -0.0129384 0)
(0.578254 -0.0163794 0)
(0.553439 -0.0222874 0)
(0.53464 -0.0307954 0)
(0.526219 -0.0401366 0)
(0.525733 -0.0457074 0)
(0.527887 -0.0456148 0)
(0.527448 -0.0426253 0)
(0.525878 -0.0328862 0)
(0.51794 -0.0232282 0)
(0.497075 -0.0179777 0)
(0.466778 -0.0123872 0)
(0.436795 -0.0134506 0)
(0.41519 -0.0093515 0)
(0.404083 5.09286e-05 0)
(0.401933 0.0124203 0)
(0.401705 0.0249305 0)
(0.398976 0.0352161 0)
(0.397831 0.0432948 0)
(0.399069 0.0497551 0)
(0.401407 0.0546884 0)
(0.403651 0.057392 0)
(0.404882 0.056335 0)
(0.403594 0.051007 0)
(0.401288 0.0430594 0)
(0.399349 0.0333392 0)
(0.397784 0.0232379 0)
(0.397368 0.0138218 0)
(0.397568 0.00586231 0)
(0.399912 0.000723274 0)
(0.403468 -0.00146971 0)
(-4.64055 -0.00227051 0)
(-0.58512 -0.000877393 0)
(0.620868 0.002191 0)
(0.596811 0.00029952 0)
(0.602958 0.00612376 0)
(0.60707 0.00610488 0)
(0.61496 -0.000701694 0)
(0.617738 -0.00795325 0)
(0.614563 -0.0141549 0)
(0.601724 -0.0164364 0)
(0.579848 -0.0193936 0)
(0.554639 -0.0241159 0)
(0.535536 -0.0306768 0)
(0.527565 -0.0372949 0)
(0.528331 -0.0412979 0)
(0.532086 -0.040247 0)
(0.533298 -0.0381092 0)
(0.531351 -0.0305284 0)
(0.520444 -0.0248069 0)
(0.494053 -0.0233179 0)
(0.461682 -0.0199516 0)
(0.428668 -0.0216664 0)
(0.408461 -0.0166029 0)
(0.400272 -0.00600851 0)
(0.400373 0.00758815 0)
(0.400727 0.021303 0)
(0.399536 0.033181 0)
(0.399475 0.0433475 0)
(0.400785 0.051442 0)
(0.402988 0.0568298 0)
(0.403209 0.0586112 0)
(0.401535 0.0562726 0)
(0.399317 0.0506824 0)
(0.397759 0.0417847 0)
(0.396944 0.031928 0)
(0.397452 0.0223703 0)
(0.399191 0.0133492 0)
(0.402033 0.00648668 0)
(0.405904 0.00255334 0)
(0.40937 0.00140063 0)
(-4.64065 -0.00163281 0)
(-0.585577 -0.000631742 0)
(0.619182 0.00483051 0)
(0.594332 0.00259586 0)
(0.599229 0.00784052 0)
(0.602698 0.0065472 0)
(0.610987 -0.00163834 0)
(0.614697 -0.0100719 0)
(0.61306 -0.0168185 0)
(0.602141 -0.01898 0)
(0.581876 -0.0212495 0)
(0.557607 -0.0244143 0)
(0.53839 -0.0281389 0)
(0.530157 -0.0325876 0)
(0.530576 -0.0346453 0)
(0.53484 -0.03308 0)
(0.536994 -0.032492 0)
(0.533871 -0.0282678 0)
(0.520241 -0.0264818 0)
(0.489964 -0.0288439 0)
(0.454499 -0.0275912 0)
(0.42232 -0.0288605 0)
(0.403548 -0.0227125 0)
(0.39737 -0.0113236 0)
(0.398568 0.00227259 0)
(0.40016 0.0165349 0)
(0.400692 0.0298399 0)
(0.401772 0.041418 0)
(0.404211 0.050527 0)
(0.404562 0.0560902 0)
(0.402001 0.0570193 0)
(0.398675 0.0549172 0)
(0.396327 0.0488339 0)
(0.39482 0.0407021 0)
(0.395009 0.0316844 0)
(0.397557 0.0224339 0)
(0.401521 0.0143345 0)
(0.406343 0.00834704 0)
(0.410994 0.00476884 0)
(0.41404 0.00330352 0)
(-4.64067 -0.00126908 0)
(-0.586042 -0.000832786 0)
(0.617421 0.0066112 0)
(0.59146 0.0045024 0)
(0.594545 0.00791479 0)
(0.597794 0.00553908 0)
(0.606256 -0.00324705 0)
(0.610925 -0.0119185 0)
(0.610941 -0.0182419 0)
(0.602814 -0.0197364 0)
(0.585386 -0.0207656 0)
(0.562278 -0.0218875 0)
(0.542858 -0.0241634 0)
(0.533092 -0.0261529 0)
(0.532498 -0.0270768 0)
(0.536383 -0.0256655 0)
(0.538158 -0.0267218 0)
(0.533 -0.0268215 0)
(0.515743 -0.0285549 0)
(0.484777 -0.0345445 0)
(0.447974 -0.0360102 0)
(0.418066 -0.0357853 0)
(0.401694 -0.0284069 0)
(0.395991 -0.0170347 0)
(0.39765 -0.00343016 0)
(0.400268 0.0111688 0)
(0.402139 0.0256418 0)
(0.404723 0.0383245 0)
(0.407479 0.0479229 0)
(0.40592 0.0531524 0)
(0.401603 0.0540663 0)
(0.397153 0.0522502 0)
(0.393726 0.0472637 0)
(0.392809 0.0399995 0)
(0.394578 0.0314163 0)
(0.39851 0.0230354 0)
(0.404255 0.0162912 0)
(0.409372 0.0107215 0)
(0.414284 0.0071719 0)
(0.416791 0.00401766 0)
(-4.64057 -0.0010298 0)
(-0.586576 -0.00141966 0)
(0.615065 0.00734224 0)
(0.587816 0.00619354 0)
(0.589456 0.00624796 0)
(0.593107 0.00346297 0)
(0.601552 -0.0048605 0)
(0.607311 -0.0131782 0)
(0.609153 -0.0182045 0)
(0.603953 -0.0186277 0)
(0.589458 -0.0180875 0)
(0.568248 -0.0185345 0)
(0.548347 -0.0191703 0)
(0.536929 -0.0196883 0)
(0.534539 -0.0200053 0)
(0.536558 -0.0193414 0)
(0.53617 -0.0220579 0)
(0.528478 -0.0264677 0)
(0.507162 -0.0302586 0)
(0.477604 -0.0387443 0)
(0.442419 -0.0423895 0)
(0.415963 -0.0418249 0)
(0.4015 -0.0339227 0)
(0.395459 -0.0224622 0)
(0.397172 -0.00876808 0)
(0.401008 0.00628864 0)
(0.404229 0.0219474 0)
(0.408521 0.0353443 0)
(0.41053 0.0450856 0)
(0.407013 0.0493992 0)
(0.40166 0.0502134 0)
(0.396215 0.0484932 0)
(0.39247 0.0443457 0)
(0.392395 0.037775 0)
(0.395835 0.0306731 0)
(0.400889 0.0238478 0)
(0.406523 0.0182734 0)
(0.410586 0.0128752 0)
(0.415559 0.00890228 0)
(0.417287 0.00351111 0)
(-4.64039 -0.000995696 0)
(-0.587428 -0.00225679 0)
(0.611927 0.00694664 0)
(0.583706 0.00776662 0)
(0.584787 0.00483785 0)
(0.588644 0.00170066 0)
(0.597388 -0.00584613 0)
(0.6042 -0.0128681 0)
(0.608018 -0.0165989 0)
(0.605478 -0.0160987 0)
(0.594197 -0.0150025 0)
(0.575068 -0.0145197 0)
(0.554798 -0.0144085 0)
(0.541095 -0.013952 0)
(0.5359 -0.0141163 0)
(0.534928 -0.0147725 0)
(0.531365 -0.0191125 0)
(0.520847 -0.0265604 0)
(0.496439 -0.032349 0)
(0.469961 -0.0415427 0)
(0.438641 -0.0472467 0)
(0.415107 -0.0460811 0)
(0.402114 -0.038249 0)
(0.395708 -0.0273874 0)
(0.39709 -0.0136591 0)
(0.401895 0.0020402 0)
(0.406247 0.0187545 0)
(0.411789 0.0323998 0)
(0.41242 0.0415557 0)
(0.407577 0.0449448 0)
(0.401575 0.0456598 0)
(0.395745 0.0446222 0)
(0.392495 0.0404519 0)
(0.39395 0.0350459 0)
(0.398833 0.0295764 0)
(0.404122 0.0235436 0)
(0.408696 0.0185399 0)
(0.411234 0.0130511 0)
(0.41509 0.00862581 0)
(0.415673 0.00197112 0)
(-4.64019 -0.00138251 0)
(-0.588669 -0.00335952 0)
(0.608136 0.0062102 0)
(0.579889 0.00857451 0)
(0.581479 0.00374066 0)
(0.584991 0.000996456 0)
(0.594045 -0.00516543 0)
(0.601919 -0.010827 0)
(0.607216 -0.0133754 0)
(0.60714 -0.0124851 0)
(0.598974 -0.0116156 0)
(0.582421 -0.0113927 0)
(0.562102 -0.0112616 0)
(0.545623 -0.0101924 0)
(0.536636 -0.0102816 0)
(0.531879 -0.0118157 0)
(0.524565 -0.0168376 0)
(0.511177 -0.0258433 0)
(0.485553 -0.0305782 0)
(0.462823 -0.0444614 0)
(0.434714 -0.0486755 0)
(0.414772 -0.048017 0)
(0.402904 -0.0412735 0)
(0.396783 -0.0313576 0)
(0.398269 -0.0178117 0)
(0.403497 -0.00147081 0)
(0.408417 0.0158885 0)
(0.414093 0.0292435 0)
(0.413442 0.0380857 0)
(0.407707 0.0413486 0)
(0.401475 0.0419937 0)
(0.395878 0.0408067 0)
(0.394213 0.0367312 0)
(0.397379 0.0327837 0)
(0.402589 0.0273296 0)
(0.407371 0.0213199 0)