/*--------------------------------*- C++ -*----------------------------------*\
| =========                 |                                                 |
| \\      /  F ield         | OpenFOAM: The Open Source CFD Toolbox           |
|  \\    /   O peration     | Version:  v1912                                 |
|   \\  /    A nd           | Website:  www.openfoam.com                      |
|    \\/     M anipulation  |                                                 |
\*---------------------------------------------------------------------------*/
FoamFile
{
    version     2.0;
    format      ascii;
    class       volScalarField;
    location    "4.8";
    object      Ma;
}
// * * * * * * * * * * * * * * * * * * * * * * * * * * * * * * * * * * * * * //

dimensions      [0 0 0 0 0 0 0];


internalField   nonuniform List<scalar> 
1900
(
0.801108
0.08908
0.00365283
0.000323855
0.00986368
0.0219375
0.0360351
0.0490926
0.0602091
0.0614047
0.801107
0.0890828
0.00365713
0.000293357
0.00978253
0.0216897
0.0355073
0.0489461
0.0619017
0.0733723
0.801107
0.0890853
0.00366467
0.000270835
0.00973576
0.0215829
0.0353896
0.0491157
0.062915
0.0777045
0.801107
0.0890828
0.00365713
0.000293357
0.00978253
0.0216897
0.0355073
0.0489461
0.0619017
0.0733723
0.801108
0.08908
0.00365283
0.000323855
0.00986368
0.0219375
0.0360351
0.0490926
0.0602091
0.0614047
0.0718737
0.10331
0.14806
0.21397
0.333811
0.0897324
0.111007
0.136177
0.187924
0.300842
0.0955157
0.116577
0.143592
0.194743
0.303945
0.0897324
0.111007
0.136177
0.187924
0.300842
0.0718737
0.10331
0.14806
0.21397
0.333811
0.559661
0.567651
0.587196
0.626945
0.684407
0.548677
0.587443
0.605061
0.640768
0.700547
0.553716
0.592207
0.602013
0.633672
0.695959
0.548677
0.587443
0.605061
0.640768
0.700547
0.559661
0.567651
0.587196
0.626945
0.684407
0.69397
0.814362
0.526838
0.276071
0.158439
0.177903
0.22393
0.248811
0.268538
0.286625
0.297628
0.292643
0.270933
0.240001
0.205137
0.168301
0.130029
0.090838
0.0525602
0.0285104
0.0514037
0.0920044
0.135794
0.180578
0.225763
0.271089
0.31644
0.361783
0.406833
0.451303
0.494926
0.536221
0.575908
0.611874
0.646451
0.676331
0.705174
0.719292
0.715659
1.57426
0.842041
1.07423
0.72782
0.3256
0.0863715
0.158018
0.219547
0.246639
0.267031
0.285705
0.297508
0.292572
0.270632
0.23943
0.204235
0.166964
0.128045
0.0877018
0.0465985
0.0142845
0.0451608
0.0888294
0.133824
0.179269
0.224889
0.270534
0.316132
0.36168
0.406894
0.451511
0.495233
0.536625
0.576359
0.612377
0.646942
0.676757
0.705528
0.719378
0.715874
1.57244
0.850239
1.11168
0.789008
0.363597
0.027912
0.151705
0.22061
0.24753
0.267416
0.285832
0.297591
0.292718
0.270673
0.239324
0.20398
0.166539
0.127387
0.0866351
0.0444342
0.00117664
0.0428892
0.0877573
0.133177
0.178855
0.224635
0.270407
0.31612
0.36178
0.407111
0.451862
0.495736
0.53733
0.577328
0.613699
0.648741
0.6791
0.708649
0.722957
0.719174
1.5757
0.842041
1.07423
0.72782
0.3256
0.0863715
0.158018
0.219547
0.246639
0.267031
0.285705
0.297508
0.292572
0.270632
0.23943
0.204235
0.166964
0.128045
0.0877018
0.0465985
0.0142845
0.0451608
0.0888294
0.133824
0.179269
0.224889
0.270534
0.316132
0.36168
0.406894
0.451511
0.495233
0.536625
0.576359
0.612377
0.646942
0.676757
0.705528
0.719378
0.715874
1.57244
0.69397
0.814362
0.526838
0.276071
0.158439
0.177903
0.22393
0.248811
0.268538
0.286625
0.297628
0.292643
0.270933
0.240001
0.205137
0.168301
0.130029
0.090838
0.0525602
0.0285104
0.0514037
0.0920044
0.135794
0.180578
0.225763
0.271089
0.31644
0.361783
0.406833
0.451303
0.494926
0.536221
0.575908
0.611874
0.646451
0.676331
0.705174
0.719292
0.715659
1.57426
0.406732
0.373605
0.382525
0.35837
0.279605
0.231403
0.252353
0.267215
0.282315
0.297302
0.30548
0.298917
0.277082
0.246599
0.212496
0.176826
0.140499
0.104887
0.0738893
0.0591847
0.0729879
0.105593
0.145488
0.18815
0.23205
0.276541
0.321316
0.366243
0.411013
0.455226
0.498756
0.539916
0.579672
0.6157
0.650517
0.68053
0.709842
0.725385
0.72176
1.57464
1.16655
0.661602
0.629473
0.526975
0.415777
0.331767
0.31631
0.308097
0.313047
0.321798
0.324401
0.31443
0.292264
0.263044
0.23102
0.198298
0.166305
0.13717
0.114939
0.106168
0.11432
0.137222
0.169865
0.207644
0.248201
0.290315
0.333337
0.376895
0.420656
0.463912
0.506905
0.547384
0.586939
0.622647
0.657504
0.687201
0.716779
0.734632
0.730049
1.57318
1.38472
0.845827
0.767143
0.611077
0.488837
0.417593
0.380522
0.359467
0.353006
0.354091
0.350518
0.336857
0.314242
0.286475
0.256913
0.227502
0.199826
0.175973
0.159012
0.152918
0.158551
0.175477
0.20201
0.234702
0.271285
0.31033
0.350957
0.392556
0.434838
0.476644
0.51879
0.558224
0.597386
0.632543
0.667326
0.696523
0.72649
0.746352
0.744618
1.59045
1.42766
0.895991
0.806113
0.65995
0.551213
0.488058
0.440907
0.413439
0.397666
0.392064
0.382121
0.365067
0.341986
0.315564
0.288302
0.261875
0.237752
0.2177
0.203975
0.199389
0.203599
0.21671
0.238693
0.266989
0.299735
0.335571
0.373561
0.412899
0.453457
0.493505
0.534624
0.572811
0.611447
0.645953
0.680605
0.709321
0.739529
0.760561
0.758501
1.5816
1.45904
0.913838
0.822422
0.69514
0.606527
0.546547
0.497937
0.465589
0.444619
0.432187
0.417109
0.397312
0.373915
0.348675
0.32339
0.299444
0.278092
0.260752
0.249141
0.24553
0.248813
0.2593
0.277926
0.302649
0.331992
0.364777
0.400134
0.437088
0.475819
0.513911
0.553887
0.590732
0.628755
0.66255
0.697017
0.725312
0.755813
0.777916
0.778202
1.59484
1.47208
0.923784
0.836171
0.727779
0.655907
0.596061
0.54908
0.514031
0.490252
0.472516
0.453673
0.43203
0.408606
0.384464
0.360872
0.338964
0.319768
0.304406
0.294255
0.291341
0.293959
0.302519
0.318614
0.34047
0.366889
0.396888
0.429735
0.464258
0.5011
0.53705
0.575678
0.610966
0.64801
0.680732
0.71444
0.741749
0.771596
0.792971
0.795321
1.5892
1.50798
0.940712
0.854569
0.762135
0.702192
0.642483
0.597519
0.561977
0.535787
0.513923
0.492095
0.469034
0.445585
0.422307
0.400062
0.379755
0.362204
0.348307
0.339202
0.336821
0.338933
0.346004
0.36015
0.379717
0.403695
0.43127
0.461901
0.49418
0.529376
0.563385
0.600945
0.635103
0.671625
0.703995
0.73772
0.765051
0.795136
0.81735
0.822507
1.60574
1.52001
0.956044
0.872728
0.793359
0.742189
0.68317
0.640518
0.605047
0.576987
0.552525
0.529129
0.505698
0.482808
0.460652
0.439798
0.420973
0.404847
0.392151
0.3839
0.381985
0.383693
0.389532
0.402074
0.419695
0.441479
0.466741
0.495182
0.525005
0.558283
0.589909
0.625811
0.658214
0.693372
0.724495
0.757064
0.783183
0.812056
0.833323
0.843434
1.60482
1.55506
0.979368
0.898328
0.827898
0.782146
0.724761
0.68447
0.64945
0.620261
0.593922
0.569231
0.545261
0.522459
0.500805
0.480714
0.46291
0.447811
0.435947
0.428261
0.42669
0.428056
0.432906
0.444241
0.460418
0.480568
0.504103
0.530987
0.558979
0.591098
0.621103
0.656116
0.68766
0.722279
0.753076
0.785364
0.81129
0.839672
0.860887
0.874136
1.62084
1.56271
0.997381
0.920159
0.857725
0.81737
0.762424
0.724231
0.688997
0.658875
0.631256
0.605986
0.582094
0.559901
0.539196
0.520292
0.503667
0.489664
0.478695
0.471669
0.470541
0.471636
0.475538
0.485666
0.500341
0.518705
0.540257
0.56529
0.590983
0.621519
0.64944
0.683033
0.713257
0.746887
0.776945
0.808448
0.833723
0.860983
0.88107
0.899911
1.62424
1.57908
1.02006
0.946624
0.890388
0.853432
0.801289
0.765111
0.729687
0.699408
0.671118
0.645627
0.621717
0.599726
0.57967
0.561403
0.545307
0.53175
0.521095
0.514292
0.513391
0.514233
0.517443
0.526857
0.540713
0.558089
0.578484
0.60252
0.626636
0.656319
0.68279
0.715441
0.744791
0.777835
0.807597
0.838715
0.863921
0.890677
0.910881
0.933439
1.63711
1.59046
1.04197
0.971935
0.920744
0.886326
0.837322
0.802906
0.767058
0.736816
0.707905
0.68221
0.658185
0.63673
0.616933
0.59918
0.583722
0.570772
0.560602
0.554186
0.553633
0.554238
0.556669
0.565212
0.578063
0.594269
0.613328
0.636277
0.658734
0.687657
0.712804
0.744643
0.773249
0.80582
0.835234
0.865845
0.890653
0.916311
0.935052
0.963691
1.64388
1.60373
1.06557
0.998673
0.952093
0.919418
0.874092
0.84098
0.804676
0.774668
0.745198
0.719531
0.695699
0.674299
0.654738
0.637235
0.621976
0.609157
0.599016
0.592654
0.592306
0.592737
0.594669
0.602817
0.615265
0.630921
0.649182
0.671605
0.692708
0.721208
0.745299
0.776479
0.804485
0.836884
0.866363
0.896987
0.922103
0.947581
0.966295
0.999537
1.65398
1.6139
1.09082
1.02736
0.983488
0.951552
0.909002
0.876174
0.839357
0.809375
0.77952
0.754104
0.729731
0.708405
0.688908
0.671619
0.656562
0.643905
0.633831
0.627559
0.627432
0.627617
0.62892
0.63654
0.648479
0.663515
0.680934
0.702902
0.722704
0.751052
0.774436
0.805407
0.833152
0.86588
0.895765
0.926682
0.951812
0.976883
0.994781
1.03308
1.65992
1.62828
1.11498
1.05364
1.01287
0.981429
0.940994
0.908495
0.872111
0.842605
0.812235
0.787359
0.762922
0.742022
0.722622
0.705507
0.690452
0.677679
0.667388
0.661028
0.661118
0.661217
0.662195
0.669698
0.681586
0.696424
0.713255
0.735129
0.753592
0.781634
0.803997
0.834362
0.861364
0.893813
0.923455
0.95455
0.979586
1.00453
1.02168
1.06451
1.66507
1.6331
1.13314
1.07434
1.03704
1.00625
0.968146
0.935707
0.900406
0.870927
0.840305
0.816144
0.791206
0.77066
0.75116
0.734107
0.719066
0.706289
0.695948
0.689628
0.68997
0.689837
0.690223
0.697328
0.70892
0.723398
0.739532
0.761452
0.778774
0.806862
0.828578
0.858837
0.885443
0.918231
0.947891
0.979173
1.00387
1.02792
1.04274
1.08874
1.66188
1.62824
1.14555
1.09093
1.05815
1.02667
0.991768
0.958586
0.924802
0.895869
0.865022
0.842251
0.817529
0.798079
0.778746
0.761972
0.746901
0.733932
0.723244
0.716758
0.717386
0.717255
0.717453
0.724771
0.736731
0.751453
0.767093
0.789215
0.805342
0.833142
0.853724
0.883454
0.908926
0.941595
0.97081
1.00207
1.02624
1.04968
1.06211
1.10321
1.64553
1.6051
1.14659
1.09862
1.06973
1.03972
1.01003
0.976146
0.94489
0.915851
0.885291
0.863684
0.838992
0.820721
0.800935
0.783807
0.767494
0.752565
0.73954
0.731011
0.730884
0.730816
0.731762
0.74067
0.754313
0.770631
0.786143
0.809484
0.824812
0.852968
0.872627
0.902675
0.926817
0.959702
0.988224
1.01894
1.04105
1.0624
1.07142
1.11055
1.60851
1.76177
1.10454
1.10176
1.08889
1.06171
1.02965
0.992081
0.957388
0.923542
0.890468
0.864098
0.836694
0.814303
0.792044
0.772638
0.755229
0.740282
0.729846
0.721817
0.723155
0.723042
0.721839
0.731335
0.74188
0.760555
0.77725
0.803828
0.824406
0.855817
0.881572
0.915446
0.945755
0.982514
1.01665
1.05098
1.0789
1.09508
1.10383
1.08735
1.72911
2.44154
1.74982
1.61913
1.64987
1.65705
1.65629
1.64759
1.6427
1.63091
1.62467
1.61533
1.60797
1.60065
1.59392
1.58763
1.58201
1.57491
1.57915
1.56813
1.58039
1.58101
1.56446
1.58167
1.56742
1.58769
1.58193
1.59906
1.59719
1.61335
1.61565
1.62868
1.6347
1.6451
1.6517
1.65807
1.6565
1.64117
1.60465
1.72309
2.42176
2.44154
1.74982
1.61913
1.64987
1.65705
1.65629
1.64759
1.6427
1.63091
1.62467
1.61533
1.60797
1.60065
1.59392
1.58763
1.58201
1.57491
1.57915
1.56813
1.58039
1.58101
1.56446
1.58167
1.56742
1.58769
1.58193
1.59906
1.59719
1.61335
1.61565
1.62868
1.6347
1.6451
1.6517
1.65807
1.6565
1.64117
1.60465
1.72309
2.42176
1.76177
1.10454
1.10176
1.08889
1.06171
1.02965
0.992081
0.957388
0.923542
0.890468
0.864098
0.836694
0.814303
0.792044
0.772638
0.755229
0.740282
0.729846
0.721817
0.723155
0.723042
0.721839
0.731335
0.74188
0.760555
0.77725
0.803828
0.824406
0.855817
0.881572
0.915446
0.945755
0.982514
1.01665
1.05098
1.0789
1.09508
1.10383
1.08735
1.72911
1.6051
1.14659
1.09862
1.06973
1.03972
1.01003
0.976146
0.94489
0.915851
0.885291
0.863684
0.838992
0.820721
0.800935
0.783807
0.767494
0.752565
0.73954
0.731011
0.730884
0.730816
0.731762
0.74067
0.754313
0.770631
0.786143
0.809484
0.824812
0.852968
0.872627
0.902675
0.926817
0.959702
0.988224
1.01894
1.04105
1.0624
1.07142
1.11055
1.60851
1.62824
1.14555
1.09093
1.05815
1.02667
0.991768
0.958586
0.924802
0.895869
0.865022
0.842251
0.817529
0.798079
0.778746
0.761972
0.746901
0.733932
0.723244
0.716758
0.717386
0.717255
0.717453
0.724771
0.736731
0.751453
0.767093
0.789215
0.805342
0.833142
0.853724
0.883454
0.908926
0.941595
0.97081
1.00207
1.02624
1.04968
1.06211
1.10321
1.64553
1.6331
1.13314
1.07434
1.03704
1.00625
0.968146
0.935707
0.900406
0.870927
0.840305
0.816144
0.791206
0.77066
0.75116
0.734107
0.719066
0.706289
0.695948
0.689628
0.68997
0.689837
0.690223
0.697328
0.70892
0.723398
0.739532
0.761452
0.778774
0.806862
0.828578
0.858837
0.885443
0.918231
0.947891
0.979173
1.00387
1.02792
1.04274
1.08874
1.66188
1.62828
1.11498
1.05364
1.01287
0.981429
0.940994
0.908495
0.872111
0.842605
0.812235
0.787359
0.762922
0.742022
0.722622
0.705507
0.690452
0.677679
0.667388
0.661028
0.661118
0.661217
0.662195
0.669698
0.681586
0.696424
0.713255
0.735129
0.753592
0.781634
0.803997
0.834362
0.861364
0.893813
0.923455
0.95455
0.979586
1.00453
1.02168
1.06451
1.66507
1.6139
1.09082
1.02736
0.983488
0.951552
0.909002
0.876174
0.839357
0.809375
0.77952
0.754104
0.729731
0.708405
0.688908
0.671619
0.656562
0.643905
0.633831
0.627559
0.627432
0.627617
0.62892
0.63654
0.648479
0.663515
0.680934
0.702902
0.722704
0.751052
0.774436
0.805407
0.833152
0.86588
0.895765
0.926682
0.951812
0.976883
0.994781
1.03308
1.65992
1.60373
1.06557
0.998673
0.952093
0.919418
0.874092
0.84098
0.804676
0.774668
0.745198
0.719531
0.695699
0.674299
0.654738
0.637235
0.621976
0.609157
0.599016
0.592654
0.592306
0.592737
0.594669
0.602817
0.615265
0.630921
0.649182
0.671605
0.692708
0.721208
0.745299
0.776479
0.804485
0.836884
0.866363
0.896987
0.922103
0.947581
0.966295
0.999537
1.65398
1.59046
1.04197
0.971935
0.920744
0.886326
0.837322
0.802906
0.767058
0.736816
0.707905
0.68221
0.658185
0.63673
0.616933
0.59918
0.583722
0.570772
0.560602
0.554186
0.553633
0.554238
0.556669
0.565212
0.578063
0.594269
0.613328
0.636277
0.658734
0.687657
0.712804
0.744643
0.773249
0.80582
0.835234
0.865845
0.890653
0.916311
0.935052
0.963691
1.64388
1.57908
1.02006
0.946624
0.890388
0.853432
0.801289
0.765111
0.729687
0.699408
0.671118
0.645627
0.621717
0.599726
0.57967
0.561403
0.545307
0.53175
0.521095
0.514292
0.513391
0.514233
0.517443
0.526857
0.540713
0.558089
0.578484
0.60252
0.626636
0.656319
0.68279
0.715441
0.744791
0.777835
0.807597
0.838715
0.863921
0.890677
0.910881
0.933439
1.63711
1.56271
0.997381
0.920159
0.857725
0.81737
0.762424
0.724231
0.688997
0.658875
0.631256
0.605986
0.582094
0.559901
0.539196
0.520292
0.503667
0.489664
0.478695
0.471669
0.470541
0.471636
0.475538
0.485666
0.500341
0.518705
0.540257
0.56529
0.590983
0.621519
0.64944
0.683033
0.713257
0.746887
0.776945
0.808448
0.833723
0.860983
0.88107
0.899911
1.62424
1.55506
0.979368
0.898328
0.827898
0.782146
0.724761
0.68447
0.64945
0.620261
0.593922
0.569231
0.545261
0.522459
0.500805
0.480714
0.46291
0.447811
0.435947
0.428261
0.42669
0.428056
0.432906
0.444241
0.460418
0.480568
0.504103
0.530987
0.558979
0.591098
0.621103
0.656116
0.68766
0.722279
0.753076
0.785364
0.81129
0.839672
0.860887
0.874136
1.62084
1.52001
0.956044
0.872728
0.793359
0.742189
0.68317
0.640518
0.605047
0.576987
0.552525
0.529129
0.505698
0.482808
0.460652
0.439798
0.420973
0.404847
0.392151
0.3839
0.381985
0.383693
0.389532
0.402074
0.419695
0.441479
0.466741
0.495182
0.525005
0.558283
0.589909
0.625811
0.658214
0.693372
0.724495
0.757064
0.783183
0.812056
0.833323
0.843434
1.60482
1.50798
0.940712
0.854569
0.762135
0.702192
0.642483
0.597519
0.561977
0.535787
0.513923
0.492095
0.469034
0.445585
0.422307
0.400062
0.379755
0.362204
0.348307
0.339202
0.336821
0.338933
0.346004
0.36015
0.379717
0.403695
0.43127
0.461901
0.49418
0.529376
0.563385
0.600945
0.635103
0.671625
0.703995
0.73772
0.765051
0.795136
0.81735
0.822507
1.60574
1.47208
0.923784
0.836171
0.727779
0.655907
0.596061
0.54908
0.514031
0.490252
0.472516
0.453673
0.43203
0.408606
0.384464
0.360872
0.338964
0.319768
0.304406
0.294255
0.291341
0.293959
0.302519
0.318614
0.34047
0.366889
0.396888
0.429735
0.464258
0.5011
0.53705
0.575678
0.610966
0.64801
0.680732
0.71444
0.741749
0.771596
0.792971
0.795321
1.5892
1.45904
0.913838
0.822422
0.69514
0.606527
0.546547
0.497937
0.465589
0.444619
0.432187
0.417109
0.397312
0.373915
0.348675
0.32339
0.299444
0.278092
0.260752
0.249141
0.24553
0.248813
0.2593
0.277926
0.302649
0.331992
0.364777
0.400134
0.437088
0.475819
0.513911
0.553887
0.590732
0.628755
0.66255
0.697017
0.725312
0.755813
0.777916
0.778202
1.59484
1.42766
0.895991
0.806113
0.65995
0.551213
0.488058
0.440907
0.413439
0.397666
0.392064
0.382121
0.365067
0.341986
0.315564
0.288302
0.261875
0.237752
0.2177
0.203975
0.199389
0.203599
0.21671
0.238693
0.266989
0.299735
0.335571
0.373561
0.412899
0.453457
0.493505
0.534624
0.572811
0.611447
0.645953
0.680605
0.709321
0.739529
0.760561
0.758501
1.5816
1.38472
0.845827
0.767143
0.611077
0.488837
0.417593
0.380522
0.359467
0.353006
0.354091
0.350518
0.336857
0.314242
0.286475
0.256913
0.227502
0.199826
0.175973
0.159012
0.152918
0.158551
0.175477
0.20201
0.234702
0.271285
0.31033
0.350957
0.392556
0.434838
0.476644
0.51879
0.558224
0.597386
0.632543
0.667326
0.696523
0.72649
0.746352
0.744618
1.59045
1.16655
0.661602
0.629473
0.526975
0.415777
0.331767
0.31631
0.308097
0.313047
0.321798
0.324401
0.31443
0.292264
0.263044
0.23102
0.198298
0.166305
0.13717
0.114939
0.106168
0.11432
0.137222
0.169865
0.207644
0.248201
0.290315
0.333337
0.376895
0.420656
0.463912
0.506905
0.547384
0.586939
0.622647
0.657504
0.687201
0.716779
0.734632
0.730049
1.57318
0.406732
0.373605
0.382525
0.35837
0.279605
0.231403
0.252353
0.267215
0.282315
0.297302
0.30548
0.298917
0.277082
0.246599
0.212496
0.176826
0.140499
0.104887
0.0738893
0.0591847
0.0729879
0.105593
0.145488
0.18815
0.23205
0.276541
0.321316
0.366243
0.411013
0.455226
0.498756
0.539916
0.579672
0.6157
0.650517
0.68053
0.709842
0.725385
0.72176
1.57464
)
;

boundaryField
{
    inlet
    {
        type            calculated;
        value           uniform 0;
    }
    outlet
    {
        type            calculated;
        value           nonuniform List<scalar> 
165
(
0.406732
1.16655
1.38472
1.42766
1.45904
1.47208
1.50798
1.52001
1.55506
1.56271
1.57908
1.59046
1.60373
1.6139
1.62828
1.6331
1.62824
1.6051
1.76177
2.44154
2.44154
1.74982
1.61913
1.64987
1.65705
1.65629
1.64759
1.6427
1.63091
1.62467
1.61533
1.60797
1.60065
1.59392
1.58763
1.58201
1.57491
1.57915
1.56813
1.58039
1.58101
1.56446
1.58167
1.56742
1.58769
1.58193
1.59906
1.59719
1.61335
1.61565
1.62868
1.6347
1.6451
1.6517
1.65807
1.6565
1.64117
1.60465
1.72309
2.42176
1.57464
1.57318
1.59045
1.5816
1.59484
1.5892
1.60574
1.60482
1.62084
1.62424
1.63711
1.64388
1.65398
1.65992
1.66507
1.66188
1.64553
1.60851
1.72911
2.42176
1.57426
1.57244
1.5757
1.57244
1.57426
2.42176
1.72911
1.60851
1.64553
1.66188
1.66507
1.65992
1.65398
1.64388
1.63711
1.62424
1.62084
1.60482
1.60574
1.5892
1.59484
1.5816
1.59045
1.57318
1.57464
2.44154
1.74982
1.61913
1.64987
1.65705
1.65629
1.64759
1.6427
1.63091
1.62467
1.61533
1.60797
1.60065
1.59392
1.58763
1.58201
1.57491
1.57915
1.56813
1.58039
1.58101
1.56446
1.58167
1.56742
1.58769
1.58193
1.59906
1.59719
1.61335
1.61565
1.62868
1.6347
1.6451
1.6517
1.65807
1.6565
1.64117
1.60465
1.72309
2.42176
2.44154
1.76177
1.6051
1.62824
1.6331
1.62828
1.6139
1.60373
1.59046
1.57908
1.56271
1.55506
1.52001
1.50798
1.47208
1.45904
1.42766
1.38472
1.16655
0.406732
)
;
    }
    obstacle
    {
        type            calculated;
        value           nonuniform List<scalar> 
40
(
0.801108
0.08908
0.00365282
0.000323245
0.0098636
0.0219373
0.0360349
0.0490923
0.06018
0.0608903
0.801108
0.08908
0.00365282
0.000323245
0.0098636
0.0219373
0.0360349
0.0490923
0.06018
0.0608903
0.0696809
0.0997792
0.143895
0.211273
0.326948
0.0696809
0.0997792
0.143895
0.211273
0.326948
0.555471
0.56706
0.5869
0.626676
0.683712
0.555471
0.56706
0.5869
0.626676
0.683712
)
;
    }
    empty
    {
        type            empty;
    }
}


// ************************************************************************* //
