/*--------------------------------*- C++ -*----------------------------------*\
| =========                 |                                                 |
| \\      /  F ield         | OpenFOAM: The Open Source CFD Toolbox           |
|  \\    /   O peration     | Version:  v1912                                 |
|   \\  /    A nd           | Website:  www.openfoam.com                      |
|    \\/     M anipulation  |                                                 |
\*---------------------------------------------------------------------------*/
FoamFile
{
    version     2.0;
    format      ascii;
    class       volVectorField;
    location    "5.08";
    object      grad(p);
}
// * * * * * * * * * * * * * * * * * * * * * * * * * * * * * * * * * * * * * //

dimensions      [1 -2 -2 0 0 0 0];


internalField   nonuniform List<vector> 
1900
(
(136052 0.115688 0)
(-128294 -0.252848 0)
(-8497.05 1.69762 0)
(-1492.42 -0.37907 0)
(-1676.8 -0.220646 0)
(-1497.19 0.297762 0)
(-1253.16 -1.32945 0)
(-808.787 16.4506 0)
(-617.832 -93.3835 0)
(215.156 -82.2376 0)
(136052 -0.0402371 0)
(-128293 -0.131215 0)
(-8497.17 2.17638 0)
(-1494.34 -0.378402 0)
(-1676.12 0.25717 0)
(-1498.3 1.02675 0)
(-1237.01 -4.54144 0)
(-900.841 -1.04983 0)
(-716.52 -132.341 0)
(-567.843 -109.71 0)
(136052 -1.42819e-08 0)
(-128292 1.18305e-08 0)
(-8497.3 -1.58629e-08 0)
(-1494.34 -8.88178e-11 0)
(-1675.4 1.42109e-10 0)
(-1501.99 2.43361e-09 0)
(-1255.24 3.37508e-09 0)
(-936.587 2.64677e-09 0)
(-726.492 2.64677e-09 0)
(-635.707 1.24345e-09 0)
(136052 0.040237 0)
(-128293 0.131215 0)
(-8497.17 -2.17638 0)
(-1494.34 0.378402 0)
(-1676.12 -0.25717 0)
(-1498.3 -1.02675 0)
(-1237.01 4.54144 0)
(-900.841 1.04983 0)
(-716.52 132.341 0)
(-567.843 109.71 0)
(136052 -0.115688 0)
(-128294 0.252848 0)
(-8497.05 -1.69762 0)
(-1492.42 0.37907 0)
(-1676.8 0.220646 0)
(-1497.19 -0.297762 0)
(-1253.16 1.32945 0)
(-808.787 -16.4506 0)
(-617.832 93.3835 0)
(215.156 82.2376 0)
(-316.47 -772.444 9.15102e-12)
(-1845.88 -680.301 -1.07435e-11)
(-2143.7 -859.79 -1.34712e-11)
(-340.281 -1337.58 0)
(-14068.1 -9086.47 -5.76758e-11)
(-837.463 -870.554 9.01144e-12)
(-1483.22 -797.74 1.07435e-11)
(-2230.37 -1022.95 1.34712e-11)
(-3386.1 -1097.7 0)
(-13334.5 -7520.73 0)
(-1215.53 1.70556e-09 0)
(-1751.29 1.01284e-09 0)
(-2258.78 -1.20891e-09 0)
(-3083.73 4.03717e-10 0)
(-16598.7 -3.17207e-09 0)
(-837.463 870.554 9.01144e-12)
(-1483.22 797.74 1.07435e-11)
(-2230.37 1022.95 1.34712e-11)
(-3386.1 1097.7 0)
(-13334.5 7520.73 0)
(-316.47 772.444 -2.71739e-11)
(-1845.88 680.301 -1.07435e-11)
(-2143.7 859.79 -1.34712e-11)
(-340.281 1337.58 -3.6055e-11)
(-14068.1 9086.47 5.76758e-11)
(-26046 10533.1 1.41068e-11)
(-4871.7 2843.4 -1.03024e-11)
(-4025.75 1558.32 0)
(-5444.93 1106.48 6.53988e-12)
(-8052.1 1395.2 -2.47287e-12)
(-22120.9 12168.6 -7.21201e-12)
(-6872.42 1967.14 5.194e-12)
(-4443.42 517.334 0)
(-5378.98 460.189 -4.11172e-12)
(-7622.47 843.451 6.35074e-13)
(-23572 -4.93432e-10 0)
(-7799.71 1.51825e-10 0)
(-4552.74 1.4803e-10 0)
(-5356.66 3.62818e-10 1.65023e-12)
(-7456.49 3.11642e-10 -1.27015e-12)
(-22120.9 -12168.6 -7.21201e-12)
(-6872.42 -1967.14 5.194e-12)
(-4443.42 -517.334 0)
(-5378.98 -460.189 -4.11172e-12)
(-7622.47 -843.451 6.35074e-13)
(-26046 -10533.1 7.21201e-12)
(-4871.7 -2843.4 -8.56338e-14)
(-4025.75 -1558.32 0)
(-5444.93 -1106.48 3.33235e-14)
(-8052.1 -1395.2 2.47287e-12)
(-7171.3 3814.27 0)
(-1030.93 893.769 0)
(2201.39 182.45 0)
(1015.94 972.237 0)
(-771.225 1055.13 0)
(-1495.3 661.182 0)
(-1319.82 250.027 0)
(-900.922 93.8685 0)
(-681.769 45.4007 0)
(-629.316 31.4728 0)
(-590.487 37.7139 0)
(-491.217 20.4443 0)
(-336.855 6.51442 0)
(-202.15 0.0282095 0)
(-128.605 -0.894121 0)
(-97.6912 -0.719533 0)
(-82.9538 -0.664662 0)
(-71.5328 -0.782263 0)
(-60.5504 -1.01112 0)
(-49.849 -1.21343 0)
(-39.6828 -1.34595 0)
(-30.9321 -1.41209 0)
(-23.2239 -1.42915 0)
(-16.3278 -1.42374 0)
(-10.5777 -1.41218 0)
(-5.92008 -1.41117 0)
(-1.76457 -1.40617 0)
(2.46437 -1.4503 0)
(9.45288 -1.45516 0)
(18.0146 -1.45706 0)
(32.666 -1.40455 0)
(47.1702 -0.916095 0)
(65.1281 -0.719327 0)
(77.7073 0.324621 0)
(101.819 -0.743416 0)
(123.839 2.07313 0)
(189.146 -2.55923 0)
(625.702 12.339 0)
(7178.32 -11.4872 0)
(-7644.59 -724.258 0)
(-7340.08 2268.37 0)
(-1697.07 108.927 0)
(2093.09 -325.72 0)
(1196.4 852.555 0)
(-751.752 856.402 0)
(-1585.76 422.219 0)
(-1391.47 138.844 0)
(-926.839 39.6148 0)
(-688.301 16.1607 0)
(-629.039 8.84 0)
(-591.037 18.5187 0)
(-494.543 6.83672 0)
(-338.465 1.77158 0)
(-202.694 -0.530286 0)
(-128.614 -0.714565 0)
(-97.6484 -0.552458 0)
(-82.9403 -0.489257 0)
(-71.5465 -0.488747 0)
(-60.5805 -0.563215 0)
(-49.8752 -0.638946 0)
(-39.6992 -0.690669 0)
(-30.9402 -0.721271 0)
(-23.2272 -0.736962 0)
(-16.33 -0.748002 0)
(-10.5812 -0.760004 0)
(-5.92461 -0.777996 0)
(-1.77485 -0.794555 0)
(2.45254 -0.834643 0)
(9.44469 -0.851609 0)
(18.0076 -0.864509 0)
(32.7088 -0.856769 0)
(47.2257 -0.611055 0)
(65.2559 -0.493038 0)
(77.7085 0.266187 0)
(102.032 0.194074 0)
(123.784 2.37914 0)
(190.057 2.27023 0)
(625.578 10.8689 0)
(7183.62 2.11046 0)
(-7650.67 178.584 0)
(-7280 -6.33029e-09 0)
(-1785.57 3.63507e-08 0)
(2417.72 6.0711e-08 0)
(1359.83 4.24065e-08 0)
(-896.414 1.17078e-09 0)
(-1704.05 6.28184e-09 0)
(-1431.12 2.02666e-09 0)
(-936.612 -2.20268e-08 0)
(-690.721 -1.18733e-08 0)
(-628.63 2.172e-09 0)
(-591.07 -6.77842e-09 0)
(-496.089 -4.82039e-09 0)
(-338.998 -3.97662e-09 0)
(-202.873 -5.00206e-09 0)
(-128.611 1.88536e-09 0)
(-97.6257 4.46108e-09 0)
(-82.9353 3.47197e-09 0)
(-71.5543 -6.53619e-09 0)
(-60.5941 -3.70613e-09 0)
(-49.886 -1.21115e-11 0)
(-39.7067 3.97258e-09 0)
(-30.9456 8.6557e-09 0)
(-23.2317 1.11547e-08 0)
(-16.3345 1.02383e-08 0)
(-10.5864 9.64077e-09 0)
(-5.93013 1.09367e-08 0)
(-1.78105 1.04805e-08 0)
(2.44777 4.93343e-09 0)
(9.44419 -1.06985e-09 0)
(18.0131 -9.03923e-09 0)
(32.7398 -1.02746e-08 0)
(47.276 -2.58379e-10 0)
(65.3833 1.61245e-08 0)
(77.9072 1.95601e-08 0)
(102.434 1.66897e-08 0)
(124.443 1.55108e-08 0)
(191.615 5.81111e-08 0)
(625.655 2.34923e-08 0)
(7227.11 -3.20592e-08 0)
(-7697.15 -3.57048e-08 0)
(-7340.08 -2268.37 0)
(-1697.07 -108.927 0)
(2093.09 325.72 0)
(1196.4 -852.555 0)
(-751.752 -856.402 0)
(-1585.76 -422.219 0)
(-1391.47 -138.844 0)
(-926.839 -39.6148 0)
(-688.301 -16.1607 0)
(-629.039 -8.84 0)
(-591.037 -18.5187 0)
(-494.543 -6.83672 0)
(-338.465 -1.77158 0)
(-202.694 0.530286 0)
(-128.614 0.714565 0)
(-97.6484 0.552458 0)
(-82.9403 0.489257 0)
(-71.5465 0.488747 0)
(-60.5805 0.563215 0)
(-49.8752 0.638946 0)
(-39.6992 0.690669 0)
(-30.9402 0.721271 0)
(-23.2272 0.736962 0)
(-16.33 0.748002 0)
(-10.5812 0.760004 0)
(-5.92461 0.777996 0)
(-1.77485 0.794555 0)
(2.45254 0.834643 0)
(9.44469 0.851609 0)
(18.0076 0.864509 0)
(32.7088 0.856769 0)
(47.2257 0.611055 0)
(65.2559 0.493038 0)
(77.7085 -0.266187 0)
(102.032 -0.194075 0)
(123.784 -2.37914 0)
(190.057 -2.27023 0)
(625.578 -10.8689 0)
(7183.62 -2.11047 0)
(-7650.67 -178.584 0)
(-7171.3 -3814.27 0)
(-1030.93 -893.769 0)
(2201.39 -182.45 0)
(1015.94 -972.237 0)
(-771.225 -1055.13 0)
(-1495.3 -661.182 0)
(-1319.82 -250.027 0)
(-900.922 -93.8685 0)
(-681.769 -45.4007 0)
(-629.316 -31.4728 0)
(-590.487 -37.7139 0)
(-491.217 -20.4443 0)
(-336.855 -6.51442 0)
(-202.15 -0.0282095 0)
(-128.605 0.894121 0)
(-97.6912 0.719533 0)
(-82.9538 0.664662 0)
(-71.5328 0.782263 0)
(-60.5504 1.01112 0)
(-49.849 1.21343 0)
(-39.6828 1.34595 0)
(-30.9321 1.41209 0)
(-23.2239 1.42915 0)
(-16.3278 1.42374 0)
(-10.5777 1.41218 0)
(-5.92008 1.41117 0)
(-1.76457 1.40617 0)
(2.46437 1.4503 0)
(9.45288 1.45516 0)
(18.0146 1.45706 0)
(32.666 1.40455 0)
(47.1702 0.916095 0)
(65.1281 0.719327 0)
(77.7073 -0.324621 0)
(101.819 0.743416 0)
(123.839 -2.07313 0)
(189.146 2.55923 0)
(625.702 -12.339 0)
(7178.32 11.4872 0)
(-7644.59 724.258 0)
(3742.26 -1398.17 0)
(-189.148 -714.275 0)
(1918.65 -1165.37 0)
(857.658 -1513.04 0)
(-534.121 -1379.44 0)
(-1185.33 -878.292 0)
(-1118.45 -401.969 0)
(-828.449 -178.832 0)
(-656.715 -95.3911 0)
(-623.897 -69.7723 0)
(-584.756 -62.475 0)
(-478.817 -37.8223 0)
(-327.52 -13.2432 0)
(-198.677 -1.55443 0)
(-128.155 0.661412 0)
(-97.7428 0.581503 0)
(-82.8853 0.591508 0)
(-71.3449 0.953841 0)
(-60.3448 1.43554 0)
(-49.6956 1.8225 0)
(-39.5935 2.07382 0)
(-30.8973 2.19862 0)
(-23.2238 2.23205 0)
(-16.3431 2.22417 0)
(-10.5931 2.20427 0)
(-5.93363 2.20278 0)
(-1.7622 2.19831 0)
(2.4696 2.26797 0)
(9.43946 2.28443 0)
(17.9678 2.29203 0)
(32.4189 2.14039 0)
(46.8602 1.3858 0)
(64.6253 0.929105 0)
(77.7249 -0.539612 0)
(101.18 0.549563 0)
(124.859 -2.51177 0)
(184.671 3.03789 0)
(631.034 -18.6416 0)
(7651.8 -0.0890843 0)
(-8119.22 168.227 0)
(3677.88 296.035 0)
(-1257.98 -709.555 0)
(1583.29 -1129.28 0)
(894.529 -1373.89 0)
(-286.707 -1326.56 0)
(-719.596 -918.184 0)
(-753.773 -516.17 0)
(-644.355 -259.828 0)
(-590.109 -154.995 0)
(-600.503 -112.844 0)
(-562.773 -88.6966 0)
(-450.425 -52.0875 0)
(-306.912 -19.5764 0)
(-190.613 -3.57055 0)
(-126.788 0.332642 0)
(-97.7309 0.665813 0)
(-82.6318 0.902464 0)
(-70.8202 1.55405 0)
(-59.8236 2.30413 0)
(-49.3161 2.89246 0)
(-39.3682 3.27815 0)
(-30.7982 3.47694 0)
(-23.1993 3.5434 0)
(-16.3464 3.55564 0)
(-10.5901 3.5581 0)
(-5.91855 3.59478 0)
(-1.70302 3.63218 0)
(2.54454 3.79595 0)
(9.48326 3.88546 0)
(17.9009 3.97153 0)
(31.9253 3.78404 0)
(46.1692 2.76846 0)
(63.5423 2.11791 0)
(77.3321 0.177958 0)
(100.262 1.09433 0)
(125.689 -1.86156 0)
(176.002 1.4364 0)
(619.829 -20.474 0)
(7104.5 -17.6794 0)
(-7552.1 -708.076 0)
(3343.77 273.146 0)
(-1562.64 -442.594 0)
(1278.47 -585.51 0)
(667.55 -1102.3 0)
(-94.9836 -1048.35 0)
(-404.401 -777.039 0)
(-484.038 -498.772 0)
(-480.408 -292.404 0)
(-515.076 -200.253 0)
(-560.01 -149.896 0)
(-526.208 -111.093 0)
(-412.21 -63.0652 0)
(-280.767 -25.2942 0)
(-179.492 -6.36891 0)
(-124.073 -0.727655 0)
(-97.1937 0.407701 0)
(-82.0294 1.1208 0)
(-69.9942 2.11763 0)
(-59.0551 3.14276 0)
(-48.757 3.93124 0)
(-39.0303 4.4541 0)
(-30.6417 4.73511 0)
(-23.1479 4.84714 0)
(-16.3289 4.89856 0)
(-10.5554 4.95106 0)
(-5.86224 5.05921 0)
(-1.56834 5.16643 0)
(2.71367 5.47588 0)
(9.60865 5.68029 0)
(17.87 5.88472 0)
(31.2596 5.70979 0)
(45.2546 4.45749 0)
(62.129 3.68635 0)
(76.7386 1.37941 0)
(99.2147 2.06335 0)
(125.189 -0.821116 0)
(166.736 -0.408169 0)
(612.614 -15.3663 0)
(6989.2 1.02886 0)
(-7419.86 -252.649 0)
(3514.59 705.741 0)
(-2085.41 -215.069 0)
(947.576 -388.665 0)
(448.518 -841.337 0)
(26.7238 -769.503 0)
(-190.001 -616.669 0)
(-286.761 -431.01 0)
(-356.691 -293.659 0)
(-452.783 -223.13 0)
(-514.585 -175.019 0)
(-479.099 -122.965 0)
(-367.747 -68.8025 0)
(-252.277 -28.555 0)
(-166.94 -9.04003 0)
(-120.257 -2.34874 0)
(-95.9496 -0.303918 0)
(-80.984 1.02974 0)
(-68.8718 2.38781 0)
(-58.0759 3.64488 0)
(-48.0525 4.58437 0)
(-38.5936 5.21898 0)
(-30.4195 5.58333 0)
(-23.0418 5.7649 0)
(-16.2463 5.89853 0)
(-10.4353 6.05784 0)
(-5.711 6.29798 0)
(-1.3015 6.53032 0)
(3.03972 7.04109 0)
(9.87723 7.40991 0)
(17.9293 7.76204 0)
(30.55 7.62177 0)
(44.2193 6.23886 0)
(60.5762 5.30981 0)
(75.7681 2.8584 0)
(98.1413 2.8792 0)
(123.308 0.0692433 0)
(161.985 -2.61923 0)
(621.214 -7.2627 0)
(6875.85 8.62974 0)
(-7309.63 -265.885 0)
(3816.6 720.239 0)
(-2617.25 -155.993 0)
(674.978 -321.498 0)
(300.561 -615.906 0)
(121.514 -519.987 0)
(-78.2165 -459.058 0)
(-172.774 -349.641 0)
(-280.088 -278.687 0)
(-400.75 -230.667 0)
(-463.488 -185.554 0)
(-423.854 -123.827 0)
(-321.233 -68.4967 0)
(-223.178 -29.2545 0)
(-154.238 -10.7457 0)
(-115.654 -3.69903 0)
(-93.9381 -0.927861 0)
(-79.4355 0.91777 0)
(-67.4742 2.56241 0)
(-56.9384 3.95275 0)
(-47.2401 4.97031 0)
(-38.0677 5.68659 0)
(-30.1157 6.14304 0)
(-22.8442 6.43627 0)
(-16.0466 6.72084 0)
(-10.1705 7.07306 0)
(-5.40694 7.53047 0)
(-0.852242 7.9794 0)
(3.56127 8.814 0)
(10.3034 9.43904 0)
(18.0742 10.0326 0)
(29.7918 10.0625 0)
(43.0267 8.75254 0)
(58.8715 7.87008 0)
(74.3963 5.62503 0)
(96.527 5.40912 0)
(119.89 2.89761 0)
(159.671 -1.04494 0)
(623.453 0.993509 0)
(6739.98 8.09321 0)
(-7171.95 -324.735 0)
(4058.32 567.856 0)
(-3089.27 -147.924 0)
(504.386 -273.576 0)
(257.247 -375.743 0)
(177.869 -346.58 0)
(-25.8495 -339.737 0)
(-112.95 -289.51 0)
(-242.043 -261.503 0)
(-363.037 -232.159 0)
(-411.63 -184.777 0)
(-366.299 -119.239 0)
(-276.613 -64.7479 0)
(-196.626 -29.1563 0)
(-142.313 -12.1063 0)
(-110.797 -4.88391 0)
(-91.5007 -1.47615 0)
(-77.6207 0.686682 0)
(-65.9472 2.53784 0)
(-55.7556 3.99789 0)
(-46.3817 5.0597 0)
(-37.4635 5.84451 0)
(-29.6971 6.39972 0)
(-22.485 6.82453 0)
(-15.6326 7.28296 0)
(-9.65507 7.83671 0)
(-4.83763 8.50342 0)
(-0.0646455 9.14423 0)
(4.44628 10.2348 0)
(11.0515 11.0001 0)
(18.5301 11.6623 0)
(29.3164 11.6866 0)
(42.1066 10.303 0)
(57.5624 9.27857 0)
(73.3966 6.93643 0)
(95.513 6.25032 0)
(117.088 3.96893 0)
(160.151 -0.700208 0)
(630.02 5.87126 0)
(6561.96 8.69507 0)
(-7004.5 -368.332 0)
(4221.27 387.618 0)
(-3428.08 -122.399 0)
(455.444 -212.967 0)
(230.213 -223.957 0)
(156.211 -247.934 0)
(-23.222 -264.618 0)
(-97.385 -256.579 0)
(-224.822 -250.09 0)
(-326.814 -226.334 0)
(-354.674 -172.818 0)
(-308.19 -107.915 0)
(-234.426 -57.2431 0)
(-172.45 -26.2299 0)
(-130.849 -11.1087 0)
(-105.411 -4.20506 0)
(-88.5701 -0.710905 0)
(-75.5675 1.54208 0)
(-64.2834 3.37705 0)
(-54.5082 4.79779 0)
(-45.4606 5.84592 0)
(-36.7764 6.67543 0)
(-29.1713 7.34088 0)
(-21.9931 7.93934 0)
(-15.0713 8.6315 0)
(-8.99438 9.443 0)
(-4.14697 10.3448 0)
(0.816154 11.218 0)
(5.34961 12.6408 0)
(11.679 13.5355 0)
(18.7358 14.1996 0)
(28.4819 14.1496 0)
(40.7063 12.6301 0)
(55.6273 11.3298 0)
(71.4782 8.83179 0)
(93.6674 7.92235 0)
(113.192 5.95703 0)
(161.504 1.71973 0)
(632.507 9.42724 0)
(6379.38 4.93083 0)
(-6825.4 -404.899 0)
(4313.89 332.195 0)
(-3668.01 -84.4357 0)
(406.521 -171.675 0)
(223.552 -169.574 0)
(138.687 -200.273 0)
(-34.18 -222.57 0)
(-98.9504 -235.899 0)
(-212.899 -235.415 0)
(-288.575 -208.44 0)
(-297.517 -152.59 0)
(-254.926 -93.1101 0)
(-197.898 -48.9829 0)
(-152.17 -22.8078 0)
(-121.09 -9.5076 0)
(-100.777 -3.19041 0)
(-85.9626 0.297826 0)
(-73.6814 2.88352 0)
(-62.8099 4.84978 0)
(-53.3765 6.28637 0)
(-44.5723 7.33728 0)
(-36.0229 8.21492 0)
(-28.4791 8.97969 0)
(-21.2413 9.71525 0)
(-14.1836 10.5649 0)
(-8.00408 11.5196 0)
(-3.12719 12.4837 0)
(2.14784 13.4007 0)
(6.67953 15.001 0)
(12.5537 15.7672 0)
(19.1219 16.1715 0)
(27.8039 15.7721 0)
(39.3893 13.8569 0)
(53.9022 11.9801 0)
(70.1131 9.2112 0)
(92.7428 8.01251 0)
(111.111 6.15344 0)
(163.495 2.97203 0)
(633.114 11.239 0)
(6162.7 2.83959 0)
(-6619.08 -432.373 0)
(4460.02 229.743 0)
(-3913.63 -56.5341 0)
(373.402 -121.428 0)
(202.655 -130.888 0)
(105.142 -178.206 0)
(-57.5529 -203.052 0)
(-109.763 -224.68 0)
(-198.362 -219.677 0)
(-247.001 -185.598 0)
(-243.538 -130.058 0)
(-208.351 -77.4266 0)
(-166.68 -40.014 0)
(-134.41 -17.9241 0)
(-111.944 -6.04327 0)
(-95.9619 0.602862 0)
(-82.717 5.03516 0)
(-71.181 8.1251 0)
(-61.0043 10.2621 0)
(-52.1112 11.7408 0)
(-43.6022 12.8051 0)
(-35.1937 13.7219 0)
(-27.7255 14.5406 0)
(-20.4655 15.3115 0)
(-13.3325 16.1331 0)
(-7.14533 16.9199 0)
(-2.33435 17.6772 0)
(3.24193 18.3502 0)
(7.63011 19.6012 0)
(12.807 19.8518 0)
(18.7405 19.563 0)
(26.2515 18.3469 0)
(37.0522 15.5638 0)
(51.1505 12.616 0)
(67.6549 8.99045 0)
(90.7209 6.82005 0)
(108.335 4.13097 0)
(166.404 1.22758 0)
(632.379 9.12552 0)
(5951.9 -4.61727 0)
(-6411.48 -460.64 0)
(4480.8 62.7913 0)
(-4006.41 -37.0188 0)
(334.871 -90.0623 0)
(168.838 -115.946 0)
(69.147 -171.485 0)
(-78.9637 -190.591 0)
(-114.971 -207.716 0)
(-175.238 -193.041 0)
(-202.215 -154.578 0)
(-193.279 -103.317 0)
(-168.156 -59.0768 0)
(-140.559 -28.7215 0)
(-119.434 -10.8372 0)
(-103.236 -0.355105 0)
(-90.1012 7.00195 0)
(-78.7139 11.9329 0)
(-68.6445 15.3384 0)
(-59.3256 17.6771 0)
(-50.9259 19.3307 0)
(-42.6633 20.521 0)
(-34.3505 21.5434 0)
(-26.9473 22.4354 0)
(-19.7068 23.1983 0)
(-12.6337 23.8986 0)
(-6.51611 24.4 0)
(-1.7489 24.9466 0)
(4.00183 25.3795 0)
(8.12652 26.1082 0)
(12.5169 25.8505 0)
(17.6717 24.9307 0)
(23.9502 23.0005 0)
(33.8668 19.4612 0)
(47.5679 15.4293 0)
(64.5279 10.8618 0)
(88.06 7.87374 0)
(105.722 4.90325 0)
(168.308 1.77156 0)
(627.482 6.89357 0)
(5710.02 -10.5974 0)
(-6170.74 -479.791 0)
(4484.85 -101.881 0)
(-4060.92 -32.8727 0)
(297.344 -75.7613 0)
(124.193 -109.793 0)
(33.2117 -168.235 0)
(-92.4666 -176.542 0)
(-112.124 -182.732 0)
(-147.156 -159.898 0)
(-160.539 -121.371 0)
(-151.509 -77.3813 0)
(-136.468 -41.8533 0)
(-120.195 -17.0335 0)
(-107.076 -0.791618 0)
(-94.754 10.5758 0)
(-84.1208 18.0295 0)
(-74.6837 23.4262 0)
(-65.6457 27.4884 0)
(-57.1571 30.5437 0)
(-49.3707 32.7736 0)
(-41.47 34.3146 0)
(-33.3489 35.4343 0)
(-26.1308 36.1424 0)
(-19.0554 36.4332 0)
(-12.1745 36.459 0)
(-6.13549 36.2299 0)
(-1.39043 36.0581 0)
(4.36133 35.6081 0)
(8.08397 35.4418 0)
(11.6723 34.1225 0)
(15.9941 32.1485 0)
(20.9809 29.1512 0)
(29.7563 24.5942 0)
(42.8638 19.2145 0)
(60.3741 13.5376 0)
(84.979 9.72555 0)
(102.455 6.76596 0)
(168.322 3.8236 0)
(620.46 7.53768 0)
(5482.92 -17.0378 0)
(-5938.93 -523.21 0)
(4350.95 -248.5 0)
(-3981.25 -35.1841 0)
(260.748 -73.1181 0)
(79.7269 -108.266 0)
(4.82524 -161.462 0)
(-92.9334 -156.643 0)
(-98.9322 -149.139 0)
(-116.108 -121.87 0)
(-122.699 -86.6993 0)
(-116.653 -51.0876 0)
(-110.003 -22.9332 0)
(-100.991 -1.54622 0)
(-92.8288 13.6598 0)
(-85.0995 24.1897 0)
(-77.7181 31.3666 0)
(-69.5989 36.7684 0)
(-61.7858 40.7552 0)
(-54.2326 43.847 0)
(-47.2922 46.2111 0)
(-40.0994 47.899 0)
(-32.5891 49.1268 0)
(-25.9847 49.8428 0)
(-19.4017 50.0151 0)
(-12.8296 49.8578 0)
(-6.90248 49.4692 0)
(-2.3481 49.0869 0)
(3.40798 48.2356 0)
(6.69495 47.8045 0)
(9.34332 45.8101 0)
(12.8812 43.1536 0)
(16.6706 39.3096 0)
(24.2914 33.9981 0)
(36.9133 27.4768 0)
(55.384 20.7102 0)
(81.5347 16.0239 0)
(100.035 12.485 0)
(169.051 9.0973 0)
(607.379 11.0545 0)
(5198.57 -24.053 0)
(-5650.14 -537.462 0)
(4211.48 -382.507 0)
(-3891.92 -28.7234 0)
(226.92 -60.3379 0)
(39.0624 -91.2028 0)
(-13.4063 -136.328 0)
(-80.5919 -122.867 0)
(-78.615 -107.535 0)
(-86.987 -81.6151 0)
(-92.331 -52.1138 0)
(-90.0618 -23.3835 0)
(-88.7281 0.452423 0)
(-84.9325 18.3933 0)
(-82.2756 30.8535 0)
(-77.6911 40.1706 0)
(-71.9995 47.42 0)
(-65.6365 52.7442 0)
(-58.8245 56.821 0)
(-51.8995 60.1325 0)
(-45.4661 62.7896 0)
(-38.6604 64.6706 0)
(-31.4758 65.8314 0)
(-25.2749 66.2094 0)
(-19.041 65.9314 0)
(-12.7005 65.38 0)
(-6.87837 64.6852 0)
(-2.57913 64.2653 0)
(3.12555 63.1792 0)
(5.7467 62.3053 0)
(7.19049 60.0052 0)
(9.72993 57.1791 0)
(12.1583 53.0087 0)
(18.3538 47.4435 0)
(30.059 40.2719 0)
(49.3377 32.8287 0)
(77.053 27.5763 0)
(95.7801 24.3872 0)
(166.944 20.4179 0)
(588.515 21.8464 0)
(4954.35 -28.8192 0)
(-5397.83 -575.097 0)
(3954.68 -412.62 0)
(-3670.79 -7.03204 0)
(200.54 -36.9734 0)
(6.50048 -60.7894 0)
(-25.6877 -98.3804 0)
(-65.1883 -83.0738 0)
(-59.1803 -63.7817 0)
(-62.7021 -39.482 0)
(-66.5845 -12.7211 0)
(-65.9981 9.38966 0)
(-69.7455 25.8423 0)
(-71.6953 39.6388 0)
(-71.8435 49.7176 0)
(-69.1355 58.2392 0)
(-65.6017 64.0834 0)
(-60.5397 68.3504 0)
(-54.6663 71.3874 0)
(-48.4811 73.7175 0)
(-42.919 75.6343 0)
(-37.1682 77.2121 0)
(-31.1063 78.6556 0)
(-25.8884 79.7127 0)
(-20.201 80.1694 0)
(-14.0304 80.2298 0)
(-7.97665 79.9655 0)
(-3.79935 80.0004 0)
(1.51932 79.1359 0)
(3.63642 78.363 0)
(4.40353 76.4865 0)
(6.13909 74.2205 0)
(7.28902 70.8559 0)
(12.0177 66.3201 0)
(22.83 60.2132 0)
(43.1501 54.4086 0)
(73.4002 50.9353 0)
(93.1368 51.2362 0)
(166.603 48.5443 0)
(559.932 49.8738 0)
(4623.34 -13.5822 0)
(-5068.18 -544.648 0)
(3807.09 -403.4 0)
(-3529.93 39.6963 0)
(175.118 10.6889 0)
(-20.1116 -7.88981 0)
(-34.8804 -32.2895 0)
(-47.2514 -16.4816 0)
(-36.6084 2.45438 0)
(-37.7831 19.2279 0)
(-45.2364 38.4399 0)
(-52.9007 52.2866 0)
(-59.5789 62.3614 0)
(-61.9254 72.4663 0)
(-64.3515 80.0097 0)
(-63.8476 86.6774 0)
(-62.256 91.1651 0)
(-58.5981 94.5988 0)
(-53.6526 97.2089 0)
(-47.8071 99.5183 0)
(-42.0985 101.682 0)
(-35.7489 103.432 0)
(-29.0661 104.615 0)
(-23.8161 105.027 0)
(-18.5427 104.868 0)
(-12.897 104.591 0)
(-7.09944 104.005 0)
(-3.37855 103.852 0)
(1.5477 102.922 0)
(3.19361 102.231 0)
(3.19856 100.694 0)
(4.30408 98.6333 0)
(4.54525 96.2701 0)
(8.09805 93.0395 0)
(18.5806 88.4308 0)
(40.3972 84.849 0)
(73.996 83.2594 0)
(93.476 89.1958 0)
(165.631 92.2641 0)
(528.648 99.4852 0)
(4381.44 12.5027 0)
(-4859.9 -466.298 0)
(3604.2 -185.843 0)
(-3271.76 107.813 0)
(154.685 68.5857 0)
(-34.9151 48.9915 0)
(-33.967 34.6931 0)
(-31.7078 45.3466 0)
(-24.7693 61.4322 0)
(-28.0252 69.8853 0)
(-34.7279 81.6677 0)
(-42.9464 89.929 0)
(-50.2996 96.7774 0)
(-54.6887 104.494 0)
(-58.1492 110.086 0)
(-58.3858 116.68 0)
(-57.9683 121.553 0)
(-54.7157 126.039 0)
(-49.9256 129.301 0)
(-44.171 130.654 0)
(-39.1481 130.088 0)
(-34.3413 129.219 0)
(-29.5693 130.807 0)
(-25.6447 134.237 0)
(-20.6207 136.355 0)
(-14.8624 135.849 0)
(-8.68876 133.043 0)
(-4.84279 130.628 0)
(-0.0424239 127.144 0)
(1.48998 124.672 0)
(0.936432 121.528 0)
(1.87557 118.929 0)
(1.89858 116.222 0)
(4.46356 113.709 0)
(14.9373 109.033 0)
(38.1667 105.44 0)
(77.5889 102.365 0)
(101.814 110.162 0)
(176.518 116.578 0)
(483.071 128.703 0)
(4078.13 45.6165 0)
(-4630.89 -188.445 0)
(3731.9 290.401 0)
(-3284.76 220.529 0)
(118.435 173.141 0)
(-52.7717 148.74 0)
(-38.3927 135.435 0)
(-21.4846 135.941 0)
(-12.962 149.092 0)
(-18.2834 153.18 0)
(-25.9217 160.789 0)
(-38.3404 163.853 0)
(-45.5431 166.299 0)
(-49.1003 167.836 0)
(-52.6093 167.609 0)
(-52.7976 167.759 0)
(-53.2368 167.535 0)
(-51.1319 169.934 0)
(-49.2058 175.183 0)
(-47.049 182.998 0)
(-43.4809 191.661 0)
(-35.056 197.056 0)
(-24.2312 198.022 0)
(-18.47 194.79 0)
(-16.9894 188.746 0)
(-16.0887 184.604 0)
(-12.1305 181.955 0)
(-9.06283 183.482 0)
(-4.19126 185.583 0)
(-2.21866 187.361 0)
(-2.3362 189.665 0)
(-0.808435 191.325 0)
(-0.48432 192.154 0)
(1.17 193.461 0)
(10.6126 191.461 0)
(33.972 190.147 0)
(78.5455 188.166 0)
(107.172 199.531 0)
(183.498 212.696 0)
(460.267 217.091 0)
(4075.83 114.751 0)
(-4722.26 112.851 0)
(4096.55 10743 0)
(-3384.76 1297.38 0)
(85.5062 743.116 0)
(-71.2497 693.042 0)
(-46.3 733.07 0)
(-18.5479 759.123 0)
(-8.15715 791.061 0)
(-16.7533 801.074 0)
(-24.4435 808.332 0)
(-37.637 804.007 0)
(-46.4617 802.725 0)
(-53.4264 790.828 0)
(-58.2226 777.755 0)
(-58.4571 758.9 0)
(-55.8731 738.169 0)
(-47.3459 716.168 0)
(-37.3361 694.295 0)
(-28.2917 672.368 0)
(-25.6013 665.814 0)
(-28.2115 659.424 0)
(-31.7528 660.58 0)
(-34.5839 671.292 0)
(-30.4365 673.398 0)
(-21.406 695.274 0)
(-9.77043 702.48 0)
(-1.34665 718.395 0)
(3.6955 727.272 0)
(5.42335 734.132 0)
(4.75695 738.333 0)
(4.27418 736.972 0)
(3.95692 733.103 0)
(3.79605 722.867 0)
(11.7434 707.462 0)
(34.9916 679.88 0)
(86.6314 652.204 0)
(125.451 612.668 0)
(193.439 602.792 0)
(388.689 525.025 0)
(3977.68 1022.99 0)
(-4850.21 9589.67 0)
(15334.4 168659 0)
(-12921 15114.8 0)
(-463.927 5748.06 0)
(-62.4524 5668.81 0)
(25.2856 5768.9 0)
(34.3969 6108.16 0)
(27.4641 6348.8 0)
(-1.63959 6634.1 0)
(-23.0957 6834.28 0)
(-43.7439 6993.69 0)
(-58.2431 7140.33 0)
(-73.1621 7236.27 0)
(-83.3758 7331.39 0)
(-90.9446 7395.08 0)
(-94.4151 7453.88 0)
(-93.4106 7488.58 0)
(-91.413 7516.37 0)
(-74.4937 7521.5 0)
(-55.954 7523.85 0)
(-40.0999 7504.4 0)
(-12.795 7485 0)
(-6.11784 7446.76 0)
(6.12068 7420.96 0)
(11.935 7267.91 0)
(10.1499 7132.9 0)
(14.8279 6949.18 0)
(10.9727 6771.65 0)
(8.44026 6540.7 0)
(0.401438 6323.11 0)
(-5.84856 6056.44 0)
(-14.0774 5805.44 0)
(-23.5384 5484.3 0)
(-30.8112 5197.94 0)
(-19.2766 4804.96 0)
(13.7776 4502.75 0)
(59.5569 4128.26 0)
(99.0423 4083.22 0)
(865.183 3949.56 0)
(12810.8 12710.5 0)
(-14949 151209 0)
(181187 -187068 0)
(-160371 -16869.9 0)
(-9016.95 -7236.1 0)
(-51.1637 -7031.23 0)
(377.073 -7118.2 0)
(540.265 -7448.78 0)
(498.656 -7714.55 0)
(451.065 -7994.75 0)
(322.072 -8180.93 0)
(257.287 -8305.01 0)
(187.293 -8402.53 0)
(130.69 -8438.93 0)
(94.8156 -8462.23 0)
(59.5735 -8450.8 0)
(34.2258 -8429.68 0)
(12.8774 -8388.34 0)
(-5.61268 -8346.11 0)
(-21.0897 -8287.65 0)
(-42.077 -8246.91 0)
(-65.6472 -8185.92 0)
(-87.3041 -8137.18 0)
(-96.2912 -8082.04 0)
(-202.779 -8030.9 0)
(-298.997 -7877.96 0)
(-316.909 -7733.01 0)
(-349.457 -7559.63 0)
(-389.93 -7385.75 0)
(-426.805 -7166.37 0)
(-461.892 -6951.6 0)
(-494.578 -6687.47 0)
(-547.38 -6432.29 0)
(-581.611 -6104.82 0)
(-642.9 -5804.31 0)
(-634.921 -5405.69 0)
(-565.456 -5125.42 0)
(-278.82 -4833.19 0)
(21.2358 -4897.88 0)
(8702.23 -4958.01 0)
(145882 -14826.3 0)
(-162809 -169639 0)
(181187 187068 0)
(-160371 16869.9 0)
(-9016.95 7236.1 0)
(-51.1637 7031.23 0)
(377.073 7118.2 0)
(540.265 7448.78 0)
(498.656 7714.55 0)
(451.065 7994.75 0)
(322.072 8180.93 0)
(257.287 8305.01 0)
(187.293 8402.53 0)
(130.69 8438.93 0)
(94.8156 8462.23 0)
(59.5735 8450.8 0)
(34.2258 8429.68 0)
(12.8774 8388.34 0)
(-5.61268 8346.11 0)
(-21.0897 8287.65 0)
(-42.077 8246.91 0)
(-65.6472 8185.92 0)
(-87.3041 8137.18 0)
(-96.2912 8082.04 0)
(-202.779 8030.9 0)
(-298.997 7877.96 0)
(-316.909 7733.01 0)
(-349.457 7559.63 0)
(-389.93 7385.75 0)
(-426.805 7166.37 0)
(-461.892 6951.6 0)
(-494.578 6687.47 0)
(-547.38 6432.29 0)
(-581.611 6104.82 0)
(-642.9 5804.31 0)
(-634.921 5405.69 0)
(-565.456 5125.42 0)
(-278.82 4833.19 0)
(21.2358 4897.88 0)
(8702.23 4958.01 0)
(145882 14826.3 0)
(-162809 169639 0)
(15334.4 -168659 0)
(-12921 -15114.8 0)
(-463.927 -5748.06 0)
(-62.4524 -5668.81 0)
(25.2856 -5768.9 0)
(34.3969 -6108.16 0)
(27.4641 -6348.8 0)
(-1.63959 -6634.1 0)
(-23.0957 -6834.28 0)
(-43.7439 -6993.69 0)
(-58.2431 -7140.33 0)
(-73.1621 -7236.27 0)
(-83.3758 -7331.39 0)
(-90.9446 -7395.08 0)
(-94.4151 -7453.88 0)
(-93.4106 -7488.58 0)
(-91.413 -7516.37 0)
(-74.4937 -7521.5 0)
(-55.954 -7523.85 0)
(-40.0999 -7504.4 0)
(-12.795 -7485 0)
(-6.11784 -7446.76 0)
(6.12068 -7420.96 0)
(11.935 -7267.91 0)
(10.1499 -7132.9 0)
(14.8279 -6949.18 0)
(10.9727 -6771.65 0)
(8.44026 -6540.7 0)
(0.401438 -6323.11 0)
(-5.84856 -6056.44 0)
(-14.0774 -5805.44 0)
(-23.5384 -5484.3 0)
(-30.8112 -5197.94 0)
(-19.2766 -4804.96 0)
(13.7776 -4502.75 0)
(59.5569 -4128.26 0)
(99.0423 -4083.22 0)
(865.183 -3949.56 0)
(12810.8 -12710.5 0)
(-14949 -151209 0)
(4096.55 -10743 0)
(-3384.76 -1297.38 0)
(85.5062 -743.116 0)
(-71.2497 -693.042 0)
(-46.3 -733.07 0)
(-18.5479 -759.123 0)
(-8.15715 -791.061 0)
(-16.7533 -801.074 0)
(-24.4435 -808.332 0)
(-37.637 -804.007 0)
(-46.4617 -802.725 0)
(-53.4264 -790.828 0)
(-58.2226 -777.755 0)
(-58.4571 -758.9 0)
(-55.8731 -738.169 0)
(-47.3459 -716.168 0)
(-37.3361 -694.295 0)
(-28.2917 -672.368 0)
(-25.6013 -665.814 0)
(-28.2115 -659.424 0)
(-31.7528 -660.58 0)
(-34.5839 -671.292 0)
(-30.4365 -673.398 0)
(-21.406 -695.274 0)
(-9.77043 -702.48 0)
(-1.34665 -718.395 0)
(3.6955 -727.272 0)
(5.42335 -734.132 0)
(4.75695 -738.333 0)
(4.27418 -736.972 0)
(3.95692 -733.103 0)
(3.79605 -722.867 0)
(11.7434 -707.462 0)
(34.9916 -679.88 0)
(86.6314 -652.204 0)
(125.451 -612.668 0)
(193.439 -602.792 0)
(388.689 -525.025 0)
(3977.68 -1022.99 0)
(-4850.21 -9589.67 0)
(3731.9 -290.401 0)
(-3284.76 -220.529 0)
(118.435 -173.141 0)
(-52.7717 -148.74 0)
(-38.3927 -135.435 0)
(-21.4846 -135.941 0)
(-12.962 -149.092 0)
(-18.2834 -153.18 0)
(-25.9217 -160.789 0)
(-38.3404 -163.853 0)
(-45.5431 -166.299 0)
(-49.1003 -167.836 0)
(-52.6093 -167.609 0)
(-52.7976 -167.759 0)
(-53.2368 -167.535 0)
(-51.1319 -169.934 0)
(-49.2058 -175.183 0)
(-47.049 -182.998 0)
(-43.4809 -191.661 0)
(-35.056 -197.056 0)
(-24.2312 -198.022 0)
(-18.47 -194.79 0)
(-16.9894 -188.746 0)
(-16.0887 -184.604 0)
(-12.1305 -181.955 0)
(-9.06283 -183.482 0)
(-4.19126 -185.583 0)
(-2.21866 -187.361 0)
(-2.3362 -189.665 0)
(-0.808435 -191.325 0)
(-0.48432 -192.154 0)
(1.17 -193.461 0)
(10.6126 -191.461 0)
(33.972 -190.147 0)
(78.5455 -188.166 0)
(107.172 -199.531 0)
(183.498 -212.696 0)
(460.267 -217.091 0)
(4075.83 -114.751 0)
(-4722.26 -112.851 0)
(3604.2 185.843 0)
(-3271.76 -107.813 0)
(154.685 -68.5857 0)
(-34.9151 -48.9915 0)
(-33.967 -34.6931 0)
(-31.7078 -45.3466 0)
(-24.7693 -61.4322 0)
(-28.0252 -69.8853 0)
(-34.7279 -81.6677 0)
(-42.9464 -89.929 0)
(-50.2996 -96.7774 0)
(-54.6887 -104.494 0)
(-58.1492 -110.086 0)
(-58.3858 -116.68 0)
(-57.9683 -121.553 0)
(-54.7157 -126.039 0)
(-49.9256 -129.301 0)
(-44.171 -130.654 0)
(-39.1481 -130.088 0)
(-34.3413 -129.219 0)
(-29.5693 -130.807 0)
(-25.6447 -134.237 0)
(-20.6207 -136.355 0)
(-14.8624 -135.849 0)
(-8.68876 -133.043 0)
(-4.84279 -130.628 0)
(-0.0424239 -127.144 0)
(1.48998 -124.672 0)
(0.936432 -121.528 0)
(1.87557 -118.929 0)
(1.89858 -116.222 0)
(4.46356 -113.709 0)
(14.9373 -109.033 0)
(38.1667 -105.44 0)
(77.5889 -102.365 0)
(101.814 -110.162 0)
(176.518 -116.578 0)
(483.071 -128.703 0)
(4078.13 -45.6165 0)
(-4630.89 188.445 0)
(3807.09 403.4 0)
(-3529.93 -39.6963 0)
(175.118 -10.6889 0)
(-20.1116 7.88981 0)
(-34.8804 32.2895 0)
(-47.2514 16.4816 0)
(-36.6084 -2.45438 0)
(-37.7831 -19.2279 0)
(-45.2364 -38.4399 0)
(-52.9007 -52.2866 0)
(-59.5789 -62.3614 0)
(-61.9254 -72.4663 0)
(-64.3515 -80.0097 0)
(-63.8476 -86.6774 0)
(-62.256 -91.1651 0)
(-58.5981 -94.5988 0)
(-53.6526 -97.2089 0)
(-47.8071 -99.5183 0)
(-42.0985 -101.682 0)
(-35.7489 -103.432 0)
(-29.0661 -104.615 0)
(-23.8161 -105.027 0)
(-18.5427 -104.868 0)
(-12.897 -104.591 0)
(-7.09944 -104.005 0)
(-3.37855 -103.852 0)
(1.5477 -102.922 0)
(3.19361 -102.231 0)
(3.19856 -100.694 0)
(4.30408 -98.6333 0)
(4.54525 -96.2701 0)
(8.09805 -93.0395 0)
(18.5806 -88.4308 0)
(40.3972 -84.849 0)
(73.996 -83.2594 0)
(93.476 -89.1958 0)
(165.631 -92.2641 0)
(528.648 -99.4852 0)
(4381.44 -12.5027 0)
(-4859.9 466.298 0)
(3954.68 412.62 0)
(-3670.79 7.03204 0)
(200.54 36.9734 0)
(6.50048 60.7894 0)
(-25.6877 98.3804 0)
(-65.1883 83.0738 0)
(-59.1803 63.7817 0)
(-62.7021 39.482 0)
(-66.5845 12.7211 0)
(-65.9981 -9.38966 0)
(-69.7455 -25.8423 0)
(-71.6953 -39.6388 0)
(-71.8435 -49.7176 0)
(-69.1355 -58.2392 0)
(-65.6017 -64.0834 0)
(-60.5397 -68.3504 0)
(-54.6663 -71.3874 0)
(-48.4811 -73.7175 0)
(-42.919 -75.6343 0)
(-37.1682 -77.2121 0)
(-31.1063 -78.6556 0)
(-25.8884 -79.7127 0)
(-20.201 -80.1694 0)
(-14.0304 -80.2298 0)
(-7.97665 -79.9655 0)
(-3.79935 -80.0004 0)