/*--------------------------------*- C++ -*----------------------------------*\
| =========                 |                                                 |
| \\      /  F ield         | OpenFOAM: The Open Source CFD Toolbox           |
|  \\    /   O peration     | Version:  v1912                                 |
|   \\  /    A nd           | Website:  www.openfoam.com                      |
|    \\/     M anipulation  |                                                 |
\*---------------------------------------------------------------------------*/
FoamFile
{
    version     2.0;
    format      ascii;
    class       volVectorField;
    location    "7.04";
    object      grad(T);
}
// * * * * * * * * * * * * * * * * * * * * * * * * * * * * * * * * * * * * * //

dimensions      [0 -1 0 1 0 0 0];


internalField   nonuniform List<vector> 
1900
(
(0.991017 -5.44393e-07 0)
(-1.61012 1.5874e-06 0)
(-0.177565 -2.67703e-06 0)
(0.0461079 -1.00539e-06 0)
(0.0920611 1.84044e-05 0)
(0.105494 -1.99834e-05 0)
(0.0765757 1.56358e-05 0)
(0.0373669 -0.00023654 0)
(0.0112561 0.0013001 0)
(0.0253866 -3.67502e-06 0)
(0.991018 -1.34929e-06 0)
(-1.61012 1.85894e-06 0)
(-0.177567 -7.40213e-06 0)
(0.046129 -2.0991e-06 0)
(0.0920421 4.08472e-05 0)
(0.105491 1.30389e-05 0)
(0.0763591 -3.42863e-05 0)
(0.0386513 -0.000523468 0)
(0.011489 -0.000283913 0)
(-0.00356949 -0.00126678 0)
(0.991017 1.14925e-13 0)
(-1.61013 0 0)
(-0.177569 -3.90313e-14 0)
(0.0461561 -2.71051e-14 0)
(0.0920763 -3.03577e-14 0)
(0.105419 9.75782e-15 0)
(0.0760392 8.0231e-14 0)
(0.0371172 2.05998e-14 0)
(0.0105128 1.84314e-14 0)
(-0.00661828 4.87891e-14 0)
(0.991018 1.34929e-06 0)
(-1.61012 -1.85894e-06 0)
(-0.177567 7.40213e-06 0)
(0.046129 2.0991e-06 0)
(0.0920421 -4.08472e-05 0)
(0.105491 -1.30389e-05 0)
(0.0763591 3.42863e-05 0)
(0.0386513 0.000523468 0)
(0.011489 0.000283913 0)
(-0.00356949 0.00126678 0)
(0.991017 5.44393e-07 0)
(-1.61012 -1.5874e-06 0)
(-0.177565 2.67703e-06 0)
(0.0461079 1.00539e-06 0)
(0.0920611 -1.84044e-05 0)
(0.105494 1.99834e-05 0)
(0.0765757 -1.56358e-05 0)
(0.0373669 0.00023654 0)
(0.0112561 -0.0013001 0)
(0.0253866 3.67502e-06 0)
(-0.000391527 -0.0237881 9.46052e-16)
(-0.0101841 -0.0194517 -1.13558e-15)
(0.0997077 -0.0307949 -1.44205e-15)
(0.389556 -0.0602101 0)
(-0.513922 -0.32282 -6.49856e-15)
(-0.0178534 -0.0280594 9.41753e-16)
(-0.00270786 -0.0235212 1.13558e-15)
(0.0819593 -0.0393503 1.44205e-15)
(0.281261 -0.0654575 0)
(-0.448119 -0.357378 0)
(-0.0290414 4.91034e-14 0)
(-0.0116184 1.90211e-14 0)
(0.0713776 -3.01167e-15 0)
(0.252303 5.33887e-14 0)
(-0.578049 5.16287e-14 0)
(-0.0178534 0.0280594 9.41753e-16)
(-0.00270786 0.0235212 1.13558e-15)
(0.0819593 0.0393503 1.44205e-15)
(0.281261 0.0654575 0)
(-0.448119 0.357378 0)
(-0.000391527 0.0237881 -2.82956e-15)
(-0.0101841 0.0194517 -1.13558e-15)
(0.0997077 0.0307949 -1.44205e-15)
(0.389556 0.0602101 -3.97396e-15)
(-0.513922 0.32282 6.49856e-15)
(-1.88619 0.451087 2.19888e-15)
(-0.96348 0.316779 -1.59045e-15)
(-0.583779 0.213672 0)
(-0.407887 0.198199 1.02266e-15)
(-0.272421 0.101407 -4.29577e-16)
(-1.68192 0.449107 -1.10623e-15)
(-1.00501 0.208229 7.99995e-16)
(-0.60169 0.108716 0)
(-0.439252 0.128015 -6.43856e-16)
(-0.308407 -0.00614155 1.08111e-16)
(-1.73384 6.57092e-14 0)
(-1.06165 1.39e-14 0)
(-0.612886 -1.84716e-13 0)
(-0.465519 8.50355e-14 2.59085e-16)
(-0.307187 1.20467e-13 -2.16223e-16)
(-1.68192 -0.449107 -1.10623e-15)
(-1.00501 -0.208229 7.99995e-16)
(-0.60169 -0.108716 0)
(-0.439252 -0.128015 -6.43856e-16)
(-0.308407 0.00614155 1.08111e-16)
(-1.88619 -0.451087 1.10623e-15)
(-0.96348 -0.316779 -9.54036e-18)
(-0.583779 -0.213672 0)
(-0.407887 -0.198199 5.9691e-18)
(-0.272421 -0.101407 4.29577e-16)
(-0.175208 0.414379 0)
(-0.120088 0.441297 0)
(-0.138187 0.428076 0)
(-0.103953 0.327319 0)
(0.0235397 0.191718 0)
(0.392704 0.148069 0)
(0.576353 0.210213 0)
(0.217913 0.187759 0)
(-0.0606392 0.139954 0)
(-0.157159 0.0862213 0)
(-0.205925 0.0523258 0)
(-0.181819 0.0293423 0)
(-0.142146 0.0230091 0)
(-0.143547 0.019877 0)
(-0.187161 0.0169057 0)
(-0.231063 0.014998 0)
(-0.19996 0.00944989 0)
(-0.109917 0.0027104 0)
(-0.0515775 0.000387054 0)
(-0.0360497 0.000336434 0)
(-0.0322991 0.000750645 0)
(-0.0276169 0.00026372 0)
(-0.0195226 -0.000169892 0)
(-0.0108002 -0.000350445 0)
(-0.00453574 -0.000361387 0)
(-0.00133803 -0.000321415 0)
(0.000313879 -0.000276003 0)
(0.00138518 -0.000237261 0)
(0.00254521 -0.000220993 0)
(0.00417168 -0.000180058 0)
(0.00688761 -0.00015186 0)
(0.00897488 -4.66545e-05 0)
(0.0133484 -6.04425e-05 0)
(0.0346803 -0.000146457 0)
(0.132199 -0.000316526 0)
(0.264749 -0.00106399 0)
(0.259484 -0.000615736 0)
(0.202926 0.00575731 0)
(0.132094 4.29974e-05 0)
(0.0301955 -0.00176264 0)
(-0.142021 0.0650142 0)
(-0.0733955 0.232731 0)
(-0.135163 0.304461 0)
(-0.141875 0.316974 0)
(-0.00764713 0.171062 0)
(0.393605 0.163985 0)
(0.564517 0.167749 0)
(0.190967 0.100429 0)
(-0.0828725 0.044513 0)
(-0.167103 0.000881336 0)
(-0.205495 0.00763289 0)
(-0.177349 0.0147111 0)
(-0.138139 0.0116796 0)
(-0.143845 0.00762085 0)
(-0.189204 0.0067367 0)
(-0.233132 0.00712116 0)
(-0.201594 0.00445381 0)
(-0.110684 0.00113367 0)
(-0.0517548 0.000178364 0)
(-0.0360026 0.000125426 0)
(-0.0323025 0.000341716 0)
(-0.0277123 0.000107724 0)
(-0.0195747 -8.6752e-05 0)
(-0.0108145 -0.000154402 0)
(-0.00453306 -0.000149875 0)
(-0.0013307 -0.000135598 0)
(0.000321369 -0.000119752 0)
(0.00138955 -0.000106771 0)
(0.00255152 -0.0001038 0)
(0.00417832 -8.2123e-05 0)
(0.00689746 -7.73063e-05 0)
(0.00898087 -3.81129e-05 0)
(0.0133329 -4.82955e-05 0)
(0.0346511 -0.000122723 0)
(0.132072 -0.000185641 0)
(0.264676 -0.000711051 0)
(0.260325 -0.00051007 0)
(0.202946 0.00321823 0)
(0.131192 -0.000369419 0)
(0.030076 -0.00065952 0)
(-0.10133 -7.11631e-13 0)
(-0.0504302 1.99887e-12 0)
(-0.11368 3.83808e-12 0)
(-0.142759 8.83132e-12 0)
(-0.0209663 4.28556e-12 0)
(0.39174 3.1777e-12 0)
(0.557864 -6.26866e-12 0)
(0.182062 -2.48992e-11 0)
(-0.0895984 -3.78347e-11 0)
(-0.167888 -1.7091e-11 0)
(-0.201901 7.32132e-12 0)
(-0.180642 1.22673e-11 0)
(-0.144209 7.44157e-12 0)
(-0.144985 1.09741e-11 0)
(-0.187307 2.0038e-11 0)
(-0.231727 2.31783e-11 0)
(-0.201702 1.19006e-11 0)
(-0.111161 -3.85385e-12 0)
(-0.0518708 -1.37023e-11 0)
(-0.0360022 -1.6949e-11 0)
(-0.0323042 -1.27482e-11 0)
(-0.0277416 -6.34751e-13 0)
(-0.0195988 9.78345e-12 0)
(-0.0108185 8.65982e-12 0)
(-0.00453027 -7.24444e-12 0)
(-0.00132927 -1.67046e-11 0)
(0.000322265 -2.663e-11 0)
(0.00138982 -3.71389e-11 0)
(0.00255238 -1.96359e-11 0)
(0.00417939 -1.67992e-11 0)
(0.00690041 -1.82205e-11 0)
(0.00898332 3.13236e-12 0)
(0.0133238 1.47589e-11 0)
(0.0346404 6.79499e-12 0)
(0.132028 2.61786e-12 0)
(0.264655 8.52183e-12 0)
(0.260627 1.35841e-11 0)
(0.202967 1.59378e-11 0)
(0.130966 -3.01605e-13 0)
(0.0301111 -2.5942e-12 0)
(-0.142021 -0.0650142 0)
(-0.0733955 -0.232731 0)
(-0.135163 -0.304461 0)
(-0.141875 -0.316974 0)
(-0.00764713 -0.171062 0)
(0.393605 -0.163985 0)
(0.564517 -0.167749 0)
(0.190967 -0.100429 0)
(-0.0828725 -0.044513 0)
(-0.167103 -0.000881336 0)
(-0.205495 -0.00763289 0)
(-0.177349 -0.0147111 0)
(-0.138139 -0.0116796 0)
(-0.143845 -0.00762085 0)
(-0.189204 -0.0067367 0)
(-0.233132 -0.00712116 0)
(-0.201594 -0.00445381 0)
(-0.110684 -0.00113367 0)
(-0.0517548 -0.000178364 0)
(-0.0360026 -0.000125426 0)
(-0.0323025 -0.000341716 0)
(-0.0277123 -0.000107724 0)
(-0.0195747 8.6752e-05 0)
(-0.0108145 0.000154402 0)
(-0.00453306 0.000149875 0)
(-0.0013307 0.000135598 0)
(0.000321369 0.000119752 0)
(0.00138955 0.000106771 0)
(0.00255152 0.0001038 0)
(0.00417832 8.2123e-05 0)
(0.00689746 7.73063e-05 0)
(0.00898087 3.81129e-05 0)
(0.0133329 4.82955e-05 0)
(0.0346511 0.000122723 0)
(0.132072 0.000185641 0)
(0.264676 0.000711051 0)
(0.260325 0.00051007 0)
(0.202946 -0.00321823 0)
(0.131192 0.000369419 0)
(0.030076 0.00065952 0)
(-0.175208 -0.414379 0)
(-0.120088 -0.441297 0)
(-0.138187 -0.428076 0)
(-0.103953 -0.327319 0)
(0.0235397 -0.191718 0)
(0.392704 -0.148069 0)
(0.576353 -0.210213 0)
(0.217913 -0.187759 0)
(-0.0606392 -0.139954 0)
(-0.157159 -0.0862213 0)
(-0.205925 -0.0523258 0)
(-0.181819 -0.0293423 0)
(-0.142146 -0.0230091 0)
(-0.143547 -0.019877 0)
(-0.187161 -0.0169057 0)
(-0.231063 -0.014998 0)
(-0.19996 -0.00944989 0)
(-0.109917 -0.0027104 0)
(-0.0515775 -0.000387054 0)
(-0.0360497 -0.000336434 0)
(-0.0322991 -0.000750645 0)
(-0.0276169 -0.00026372 0)
(-0.0195226 0.000169892 0)
(-0.0108002 0.000350445 0)
(-0.00453574 0.000361387 0)
(-0.00133803 0.000321415 0)
(0.000313879 0.000276003 0)
(0.00138518 0.000237261 0)
(0.00254521 0.000220993 0)
(0.00417168 0.000180058 0)
(0.00688761 0.00015186 0)
(0.00897488 4.66545e-05 0)
(0.0133484 6.04425e-05 0)
(0.0346803 0.000146457 0)
(0.132199 0.000316526 0)
(0.264749 0.00106399 0)
(0.259484 0.000615736 0)
(0.202926 -0.00575731 0)
(0.132094 -4.29974e-05 0)
(0.0301955 0.00176264 0)
(-0.0102429 -0.471334 0)
(-0.0279996 -0.36844 0)
(-0.0601712 -0.301723 0)
(-0.0374614 -0.164345 0)
(0.0687319 -0.100655 0)
(0.383045 -0.0100574 0)
(0.525936 -0.130177 0)
(0.203883 -0.204115 0)
(-0.0448881 -0.199341 0)
(-0.123634 -0.167949 0)
(-0.169319 -0.116144 0)
(-0.153791 -0.0666734 0)
(-0.127569 -0.0366954 0)
(-0.140361 -0.0277683 0)
(-0.188505 -0.0266592 0)
(-0.230848 -0.0262542 0)
(-0.195776 -0.0177078 0)
(-0.105887 -0.00507697 0)
(-0.0504706 -0.000817817 0)
(-0.0361762 -0.000768239 0)
(-0.0322609 -0.00112577 0)
(-0.0272451 -0.00050608 0)
(-0.0192496 0.000232491 0)
(-0.010711 0.000607008 0)
(-0.00454818 0.000650625 0)
(-0.00137579 0.000576242 0)
(0.000277241 0.000501439 0)
(0.00136009 0.000432153 0)
(0.00252294 0.000394278 0)
(0.00414264 0.000340807 0)
(0.00682516 0.000280728 0)
(0.00893045 0.00010342 0)
(0.0133775 7.44382e-05 0)
(0.034778 0.00017445 0)
(0.1325 0.000438174 0)
(0.264779 0.0011726 0)
(0.257019 0.000410901 0)
(0.202556 -0.00598077 0)
(0.134865 -0.00116915 0)
(0.0310706 0.00154378 0)
(-0.00359818 -0.135398 0)
(-0.00602493 -0.124283 0)
(0.0166516 -0.0928105 0)
(0.0541489 0.00362606 0)
(0.147984 0.0793323 0)
(0.369436 0.139118 0)
(0.416387 -0.0123893 0)
(0.158787 -0.159116 0)
(-0.0342351 -0.158151 0)
(-0.0949639 -0.153712 0)
(-0.127961 -0.123531 0)
(-0.120289 -0.0799042 0)
(-0.112473 -0.0564662 0)
(-0.135584 -0.0489563 0)
(-0.184982 -0.046268 0)
(-0.222552 -0.0431135 0)
(-0.181797 -0.0262917 0)
(-0.0958018 -0.00696725 0)
(-0.048019 -0.001356 0)
(-0.0362787 -0.0012564 0)
(-0.0320669 -0.0013579 0)
(-0.0265075 -0.000590014 0)
(-0.0185963 0.000400501 0)
(-0.010445 0.000986967 0)
(-0.00455871 0.00110386 0)
(-0.00146155 0.00101308 0)
(0.000194676 0.000901633 0)
(0.00129537 0.000794897 0)
(0.00246912 0.000732427 0)
(0.00407783 0.000651319 0)
(0.00669235 0.000561611 0)
(0.00879991 0.000316375 0)
(0.0134012 0.000200293 0)
(0.0349785 0.000325146 0)
(0.133 0.000687509 0)
(0.264707 0.00146167 0)
(0.253912 0.000117676 0)
(0.201601 -0.00469864 0)
(0.137859 -0.00190789 0)
(0.0323405 0.000634146 0)
(0.000468281 0.0490388 0)
(0.0130394 0.0572731 0)
(0.0630864 0.0871511 0)
(0.128422 0.131136 0)
(0.199297 0.19732 0)
(0.294658 0.223593 0)
(0.238546 0.0526185 0)
(0.0634218 -0.108434 0)
(-0.0396801 -0.140686 0)
(-0.0902731 -0.150205 0)
(-0.0981948 -0.121194 0)
(-0.0891648 -0.0840614 0)
(-0.0977463 -0.0670323 0)
(-0.130534 -0.0604512 0)
(-0.182875 -0.0602531 0)
(-0.211598 -0.0573398 0)
(-0.160944 -0.0317038 0)
(-0.0818583 -0.00768698 0)
(-0.0449674 -0.00184132 0)
(-0.036178 -0.00162482 0)
(-0.0316188 -0.00141013 0)
(-0.0255506 -0.000413587 0)
(-0.01773 0.000781764 0)
(-0.0100332 0.00153767 0)
(-0.00452302 0.00172855 0)
(-0.00157067 0.00163552 0)
(6.69932e-05 0.00148653 0)
(0.00119704 0.00133231 0)
(0.00238459 0.00124326 0)
(0.00397803 0.00113591 0)
(0.00650239 0.00101324 0)
(0.00858227 0.000698362 0)
(0.013386 0.000479934 0)
(0.0352475 0.000637498 0)
(0.133595 0.00111037 0)
(0.264229 0.00199402 0)
(0.251082 -0.000102135 0)
(0.200604 -0.00371029 0)
(0.140004 -0.00217216 0)
(0.0335202 0.000206081 0)
(0.00433672 0.0994184 0)
(0.0307015 0.115155 0)
(0.0878288 0.149916 0)
(0.160311 0.171826 0)
(0.237079 0.187069 0)
(0.229997 0.133532 0)
(0.0964333 -0.0225906 0)
(-0.0274884 -0.112485 0)
(-0.0744872 -0.14702 0)
(-0.0761807 -0.134949 0)
(-0.0642224 -0.103426 0)
(-0.0680962 -0.081462 0)
(-0.0897213 -0.0725555 0)
(-0.129052 -0.0701562 0)
(-0.181984 -0.0743163 0)
(-0.195041 -0.0667129 0)
(-0.13395 -0.0309982 0)
(-0.0670253 -0.00716516 0)
(-0.0421773 -0.00235337 0)
(-0.0358632 -0.00195324 0)
(-0.0308997 -0.00132472 0)
(-0.0243953 -6.25971e-05 0)
(-0.016716 0.00131215 0)
(-0.00953269 0.00217147 0)
(-0.00446442 0.00240809 0)
(-0.00169477 0.00231038 0)
(-9.75088e-05 0.00213166 0)
(0.00106094 0.00193345 0)
(0.00227986 0.00181961 0)
(0.00385617 0.00169178 0)
(0.00627071 0.0015406 0)
(0.008286 0.00117947 0)
(0.0133426 0.000871359 0)
(0.035586 0.00103411 0)
(0.134307 0.00158213 0)
(0.263539 0.00233523 0)
(0.248415 -0.000315064 0)
(0.199606 -0.00323287 0)
(0.141633 -0.00257689 0)
(0.0346322 -0.000182286 0)
(0.015633 0.154349 0)
(0.0617004 0.180962 0)
(0.117697 0.189236 0)
(0.164224 0.167777 0)
(0.162395 0.110807 0)
(0.0926229 -0.00109733 0)
(0.00147582 -0.109363 0)
(-0.0564826 -0.143443 0)
(-0.0613277 -0.137402 0)
(-0.0482645 -0.108789 0)
(-0.0466527 -0.0891298 0)
(-0.0594169 -0.0803125 0)
(-0.0868515 -0.0765623 0)
(-0.132231 -0.0801707 0)
(-0.179557 -0.0869443 0)
(-0.169855 -0.0673246 0)
(-0.103561 -0.0252785 0)
(-0.0542551 -0.00607814 0)
(-0.039945 -0.00268985 0)
(-0.0351868 -0.00208027 0)
(-0.0297969 -0.00100856 0)
(-0.0230097 0.000517533 0)
(-0.0155771 0.0020234 0)
(-0.00897715 0.00293319 0)
(-0.00438915 0.00318761 0)
(-0.00183704 0.00308837 0)
(-0.000296236 0.00288142 0)
(0.000896335 0.00265546 0)
(0.0021517 0.00253659 0)
(0.00370917 0.00239027 0)
(0.00600872 0.00222756 0)
(0.00793737 0.00185491 0)
(0.0132459 0.00150016 0)
(0.0359324 0.00171331 0)
(0.134849 0.0023207 0)
(0.262401 0.00307305 0)
(0.245717 0.000137144 0)
(0.198425 -0.00242375 0)
(0.142944 -0.00247917 0)
(0.0358277 -0.000543973 0)
(0.0299821 0.179694 0)
(0.0643208 0.199486 0)
(0.0751232 0.14834 0)
(0.0847339 0.0860867 0)
(0.0743457 0.00234816 0)
(0.017833 -0.0810767 0)
(-0.0407364 -0.139608 0)
(-0.0545084 -0.139103 0)
(-0.0410935 -0.1108 0)
(-0.0296636 -0.0939305 0)
(-0.0367811 -0.0838643 0)
(-0.0559856 -0.0797376 0)
(-0.0895847 -0.0815733 0)
(-0.139056 -0.0913083 0)
(-0.169605 -0.0928049 0)
(-0.135617 -0.056988 0)
(-0.0749302 -0.0181342 0)
(-0.0452581 -0.00551441 0)
(-0.0383248 -0.00324148 0)
(-0.034243 -0.00219966 0)
(-0.0283963 -0.000649244 0)
(-0.0214736 0.00113644 0)
(-0.0143882 0.0027135 0)
(-0.00841081 0.00363743 0)
(-0.00431489 0.00389152 0)
(-0.00198983 0.00378918 0)
(-0.000514683 0.00358452 0)
(0.000728652 0.0033583 0)
(0.00202432 0.00322592 0)
(0.00355838 0.00307343 0)
(0.00575483 0.00291282 0)
(0.00758505 0.00256981 0)
(0.0132061 0.00223019 0)
(0.0363767 0.00240484 0)
(0.135617 0.00297551 0)
(0.261435 0.00329981 0)
(0.243118 0.000412672 0)
(0.197085 -0.00184762 0)
(0.143444 -0.00237656 0)
(0.036497 -0.00081337 0)
(0.0347052 0.174481 0)
(0.0314859 0.148991 0)
(0.00842053 0.0781097 0)
(0.0235411 0.0109326 0)
(0.0013102 -0.0653707 0)
(-0.0441712 -0.133766 0)
(-0.0544407 -0.136771 0)
(-0.0287226 -0.113733 0)
(-0.0177976 -0.091999 0)
(-0.0223079 -0.0849002 0)
(-0.0329759 -0.0805967 0)
(-0.0572092 -0.0812099 0)
(-0.0980015 -0.0900061 0)
(-0.143054 -0.101067 0)
(-0.146484 -0.0861115 0)
(-0.0978995 -0.0404254 0)
(-0.0539596 -0.0125385 0)
(-0.0399039 -0.00530224 0)
(-0.0367508 -0.00362629 0)
(-0.0326888 -0.00208169 0)
(-0.0265821 -8.6549e-05 0)
(-0.0197692 0.00192409 0)
(-0.0131671 0.00352652 0)
(-0.00784198 0.00441557 0)
(-0.00424292 0.00465477 0)
(-0.00213288 0.0045536 0)
(-0.000711442 0.00436474 0)
(0.000550777 0.00416441 0)
(0.00187719 0.00400189 0)
(0.00340745 0.00385037 0)
(0.00552342 0.00369367 0)
(0.00727956 0.00339359 0)
(0.0130869 0.0031229 0)
(0.0366506 0.00327242 0)
(0.135711 0.00381844 0)
(0.259932 0.00371897 0)
(0.240756 0.000825726 0)
(0.195737 -0.00126859 0)
(0.14394 -0.00225865 0)
(0.0373341 -0.000702406 0)
(0.00541855 0.126357 0)
(-0.0285464 0.0505094 0)
(-0.0579146 0.000491049 0)
(-0.053529 -0.0589881 0)
(-0.0650911 -0.114731 0)
(-0.0509708 -0.129014 0)
(-0.0214315 -0.105187 0)
(-0.0113647 -0.086658 0)
(-0.0133096 -0.0832446 0)
(-0.0186759 -0.0791601 0)
(-0.033225 -0.0785123 0)
(-0.0650529 -0.0858062 0)
(-0.10872 -0.099228 0)
(-0.135303 -0.100812 0)
(-0.111168 -0.0659887 0)
(-0.0647198 -0.0255713 0)
(-0.0410842 -0.00945619 0)
(-0.0366699 -0.00542209 0)
(-0.0352213 -0.00372342 0)
(-0.030832 -0.00166244 0)
(-0.0245362 0.000571377 0)
(-0.0179919 0.00269538 0)
(-0.0119873 0.00428548 0)
(-0.00732359 0.00513872 0)
(-0.00418187 0.00537486 0)
(-0.00226932 0.00530402 0)
(-0.000889721 0.00514653 0)
(0.000378997 0.00497749 0)
(0.00172169 0.00481506 0)
(0.00326137 0.00468974 0)
(0.00531466 0.00456306 0)
(0.00703504 0.00434435 0)
(0.0130893 0.00420343 0)
(0.0370469 0.00441345 0)
(0.136047 0.00484603 0)
(0.258551 0.00441927 0)
(0.238312 0.00160476 0)
(0.194113 -0.000368566 0)
(0.14399 -0.0016224 0)
(0.0379967 -0.000279359 0)
(-0.0383843 0.0408794 0)
(-0.0898031 -0.0210105 0)
(-0.0970952 -0.0476531 0)
(-0.0874913 -0.079113 0)
(-0.0661695 -0.0965601 0)
(-0.0349742 -0.0888885 0)
(-0.0136247 -0.0841144 0)
(-0.00757796 -0.0792989 0)
(-0.0105723 -0.0768296 0)
(-0.0177477 -0.0743423 0)
(-0.0393804 -0.0802836 0)
(-0.0771715 -0.0930236 0)
(-0.112461 -0.102226 0)
(-0.111023 -0.0835408 0)
(-0.07398 -0.0415413 0)
(-0.0434227 -0.0156463 0)
(-0.0345431 -0.00733815 0)
(-0.0343796 -0.00507537 0)
(-0.0331279 -0.0031446 0)
(-0.0285502 -0.000606292 0)
(-0.0223828 0.00184783 0)
(-0.0161901 0.00400754 0)
(-0.0108126 0.0055184 0)
(-0.00679221 0.00628353 0)
(-0.00408363 0.00648774 0)
(-0.0023529 0.00641358 0)
(-0.0010261 0.00626932 0)
(0.000231359 0.00609679 0)
(0.0015999 0.00593305 0)
(0.00316462 0.00582219 0)
(0.00519058 0.00572317 0)
(0.00693301 0.00558924 0)
(0.0131535 0.00559716 0)
(0.0372699 0.00582309 0)
(0.135717 0.00614491 0)
(0.256808 0.00519564 0)
(0.236143 0.00222777 0)
(0.192627 0.000204739 0)
(0.144026 -0.00113378 0)
(0.0386283 0.000361655 0)
(-0.0542208 0.0161587 0)
(-0.113859 -0.0122318 0)
(-0.113904 -0.0331781 0)
(-0.100658 -0.0502692 0)
(-0.074511 -0.0693448 0)
(-0.0389776 -0.0790149 0)
(-0.0121907 -0.076421 0)
(-0.00434483 -0.0730009 0)
(-0.00853325 -0.0701892 0)
(-0.0220044 -0.0726957 0)
(-0.0512269 -0.0848143 0)
(-0.0861971 -0.0966989 0)
(-0.0995817 -0.0900863 0)
(-0.0768256 -0.0553461 0)
(-0.0457426 -0.0233568 0)
(-0.0317604 -0.00973987 0)
(-0.0308977 -0.00556268 0)
(-0.0326288 -0.00385813 0)
(-0.0309148 -0.00158348 0)
(-0.0260211 0.00118107 0)
(-0.0200902 0.00380765 0)
(-0.0144548 0.0059356 0)
(-0.0097941 0.00732758 0)
(-0.00638949 0.00798454 0)
(-0.00405656 0.00812836 0)
(-0.0024798 0.00802295 0)
(-0.00119499 0.00785208 0)
(5.49585e-05 0.00765622 0)
(0.00145708 0.00747206 0)
(0.00305912 0.00735516 0)
(0.00509019 0.0072642 0)
(0.0069136 0.00719336 0)
(0.0133147 0.0073364 0)
(0.0375748 0.00752572 0)
(0.135443 0.00767335 0)
(0.254776 0.0060355 0)
(0.233503 0.00276039 0)
(0.190874 0.000966631 0)
(0.144141 -0.000685533 0)
(0.0394377 0.000992023 0)
(-0.0657424 0.0259226 0)
(-0.137346 0.00624362 0)
(-0.133749 -0.0211486 0)
(-0.122343 -0.0371792 0)
(-0.0938699 -0.0664367 0)
(-0.0417931 -0.0729485 0)
(-0.00782938 -0.0661358 0)
(-0.00157282 -0.0649749 0)
(-0.0102783 -0.0653482 0)
(-0.0318409 -0.0744766 0)
(-0.0625108 -0.0869334 0)
(-0.0822518 -0.0870344 0)
(-0.0726123 -0.0626655 0)
(-0.0467202 -0.0300786 0)
(-0.0300322 -0.0118038 0)
(-0.0262757 -0.0051314 0)
(-0.0288753 -0.00313668 0)
(-0.0305451 -0.0011779 0)
(-0.0282719 0.00159693 0)
(-0.0233551 0.00448802 0)
(-0.0178011 0.00707876 0)
(-0.0127982 0.00899042 0)
(-0.00883818 0.0101071 0)
(-0.00602055 0.0105368 0)
(-0.00404663 0.0105096 0)
(-0.00261913 0.0102824 0)
(-0.00137949 0.0100174 0)
(-0.00013484 0.00974973 0)
(0.0013098 0.0095427 0)
(0.00296432 0.00943572 0)
(0.00503466 0.0093975 0)
(0.00700258 0.00939808 0)
(0.0134738 0.00966224 0)
(0.0375945 0.00989456 0)
(0.134281 0.0100357 0)
(0.252074 0.00788193 0)
(0.231258 0.00401014 0)
(0.189307 0.00226332 0)
(0.144051 0.000403653 0)
(0.0402448 0.00205829 0)
(-0.0731842 0.0119959 0)
(-0.159219 0.00423576 0)
(-0.155748 -0.0217387 0)
(-0.144299 -0.0359504 0)
(-0.10898 -0.0579175 0)
(-0.0386877 -0.0579079 0)
(-0.00450707 -0.0545613 0)
(-0.00358584 -0.0574225 0)
(-0.0176894 -0.0633905 0)
(-0.0428047 -0.074359 0)
(-0.0633281 -0.0785611 0)
(-0.0628117 -0.0625006 0)
(-0.0446971 -0.0333476 0)
(-0.0278134 -0.0134086 0)
(-0.0217026 -0.00426811 0)
(-0.0234084 -0.00116483 0)
(-0.0270879 6.67268e-05 0)
(-0.0280674 0.00194231 0)
(-0.0254549 0.00459578 0)
(-0.0207386 0.00729816 0)
(-0.0157515 0.00961631 0)
(-0.0115366 0.0112692 0)
(-0.00830391 0.0121866 0)
(-0.00600156 0.0124798 0)
(-0.00430178 0.0123809 0)
(-0.00295411 0.0121149 0)
(-0.00170825 0.0118599 0)
(-0.00040249 0.0115941 0)
(0.00115449 0.0114791 0)
(0.0029192 0.0115646 0)
(0.00505391 0.0117595 0)
(0.00716871 0.0119806 0)
(0.0137931 0.0124681 0)
(0.0379346 0.0128896 0)
(0.133503 0.0131556 0)
(0.24897 0.0102069 0)
(0.228088 0.00573672 0)
(0.187398 0.00387566 0)
(0.143944 0.00160899 0)
(0.0410322 0.00338666 0)
(-0.0732203 -0.00596499 0)
(-0.169854 -0.0034199 0)
(-0.172474 -0.0172844 0)
(-0.157206 -0.0259183 0)
(-0.115029 -0.0366906 0)
(-0.0385589 -0.0402327 0)
(-0.00736164 -0.0457139 0)
(-0.010081 -0.0520719 0)
(-0.0265988 -0.0615764 0)
(-0.0464598 -0.065878 0)
(-0.0510836 -0.0555855 0)
(-0.0386825 -0.0326734 0)
(-0.0253054 -0.0126609 0)
(-0.0186982 -0.00203017 0)
(-0.0182337 0.00213824 0)
(-0.0220985 0.00322207 0)
(-0.0258811 0.00407398 0)
(-0.0261808 0.0059786 0)
(-0.0231108 0.00872389 0)
(-0.0185171 0.0115222 0)
(-0.0139745 0.0139462 0)
(-0.0103214 0.0158697 0)
(-0.00767161 0.0172456 0)
(-0.00583333 0.0181381 0)
(-0.00439829 0.0186888 0)
(-0.00312113 0.0191103 0)
(-0.00188131 0.0193935 0)
(-0.000501829 0.019621 0)
(0.00128141 0.0198452 0)
(0.00323457 0.0202965 0)
(0.00543554 0.0206102 0)
(0.0076854 0.0210555 0)
(0.0143497 0.021619 0)
(0.038257 0.0223504 0)
(0.131696 0.0228974 0)
(0.244925 0.0185973 0)
(0.225157 0.0120378 0)
(0.185329 0.00826909 0)
(0.143579 0.00385903 0)
(0.0419579 0.00531511 0)
(-0.0707316 -0.0114221 0)
(-0.170127 -0.00308684 0)
(-0.177429 -0.00333829 0)
(-0.162999 -0.00420951 0)
(-0.122773 -0.0133432 0)
(-0.0473829 -0.0254499 0)
(-0.0159158 -0.0355083 0)
(-0.0188716 -0.0424241 0)
(-0.0309935 -0.0472796 0)
(-0.0370316 -0.0388405 0)
(-0.0313309 -0.0196053 0)
(-0.021448 -0.00157938 0)
(-0.0151682 0.00888298 0)
(-0.0135524 0.0146975 0)
(-0.0166413 0.0170244 0)
(-0.0215431 0.0179694 0)
(-0.0244316 0.0198896 0)
(-0.0235865 0.0233962 0)
(-0.0201129 0.0276035 0)
(-0.0157063 0.0315993 0)
(-0.011562 0.0350476 0)
(-0.00835718 0.037847 0)
(-0.00611804 0.040068 0)
(-0.00461076 0.041875 0)
(-0.00336497 0.0434908 0)
(-0.0022751 0.0451196 0)
(-0.00121611 0.0463945 0)
(3.27815e-05 0.0476839 0)
(0.0018055 0.048713 0)
(0.00365637 0.0497769 0)
(0.00578531 0.0503307 0)
(0.0081409 0.0512144 0)
(0.0150409 0.051718 0)
(0.0391665 0.0528401 0)
(0.129887 0.0532912 0)
(0.238505 0.0453586 0)
(0.218136 0.0316561 0)
(0.179517 0.0218179 0)
(0.141097 0.00839169 0)
(0.0424353 0.00562737 0)
(-0.0651882 -0.00536697 0)
(-0.162064 0.00474378 0)
(-0.173556 0.0154128 0)
(-0.166847 0.0236069 0)
(-0.135497 0.0136039 0)
(-0.0599181 0.00044187 0)
(-0.0237186 -0.00461409 0)
(-0.0214241 -0.00211416 0)
(-0.0231455 0.00546568 0)
(-0.0197918 0.0220784 0)
(-0.0151774 0.0389415 0)
(-0.0112302 0.0519944 0)
(-0.00962042 0.0617284 0)
(-0.0108528 0.0696379 0)
(-0.0150808 0.0765449 0)
(-0.0193375 0.0834659 0)
(-0.0206516 0.0912568 0)
(-0.0187474 0.099678 0)
(-0.015206 0.107745 0)
(-0.0113438 0.114882 0)
(-0.00795395 0.121448 0)
(-0.00548349 0.127691 0)
(-0.0037901 0.13338 0)
(-0.00253502 0.138238 0)
(-0.00127165 0.142245 0)
(-0.000323064 0.145817 0)
(0.000589676 0.148202 0)
(0.00173237 0.150722 0)
(0.00329835 0.152405 0)
(0.00479348 0.153898 0)
(0.00682077 0.154307 0)
(0.00902226 0.154785 0)
(0.0159163 0.15364 0)
(0.039773 0.152661 0)
(0.124486 0.147855 0)
(0.224076 0.122896 0)
(0.202472 0.0847018 0)
(0.162911 0.0567215 0)
(0.127978 0.022604 0)
(0.0392941 0.00732221 0)
(-0.0609885 -0.00279536 0)
(-0.150103 0.017229 0)
(-0.159251 0.0526506 0)
(-0.164742 0.0827081 0)
(-0.145096 0.0903895 0)
(-0.0649384 0.0873386 0)
(-0.0183788 0.0900825 0)
(-0.00915834 0.102983 0)
(-0.00768064 0.119331 0)
(-0.00477311 0.137096 0)
(-0.00250274 0.151995 0)
(0.000510308 0.165534 0)
(0.00183368 0.177208 0)
(0.00072536 0.187117 0)
(-0.0033161 0.195724 0)
(-0.00736616 0.204633 0)
(-0.00880909 0.213918 0)
(-0.00769817 0.222839 0)
(-0.00546144 0.230635 0)
(-0.00250149 0.236973 0)
(0.000781063 0.242354 0)
(0.00314096 0.247583 0)
(0.00404539 0.25201 0)
(0.00393239 0.255304 0)
(0.00393851 0.257465 0)
(0.00346454 0.25901 0)
(0.00351041 0.259602 0)
(0.00408309 0.260099 0)
(0.0048661 0.259877 0)
(0.00548937 0.259234 0)
(0.0066402 0.257785 0)
(0.00749861 0.255618 0)
(0.0129937 0.252427 0)
(0.033591 0.247308 0)
(0.101204 0.235622 0)
(0.177649 0.190697 0)
(0.154368 0.131237 0)
(0.119677 0.0955521 0)
(0.0934941 0.0415598 0)
(0.0277093 0.00502469 0)
(-0.045892 -0.0344273 0)
(-0.108634 0.0261275 0)
(-0.110458 0.0921248 0)
(-0.130481 0.126227 0)
(-0.131035 0.159196 0)
(-0.0602139 0.172692 0)
(-0.00864312 0.178686 0)
(0.0067606 0.187233 0)
(0.0097272 0.198072 0)
(0.0116842 0.208225 0)
(0.0122261 0.21731 0)
(0.013066 0.224726 0)
(0.011178 0.229352 0)
(0.00699047 0.230197 0)
(0.00179848 0.229739 0)
(-0.0018051 0.230564 0)
(-0.00310831 0.232958 0)
(-0.00263841 0.236275 0)
(-0.00158529 0.239888 0)
(-5.06901e-05 0.243533 0)
(0.00226988 0.245561 0)
(0.00382065 0.243659 0)
(0.00364997 0.239413 0)
(0.00272172 0.235462 0)
(0.00229968 0.23224 0)
(0.00173629 0.229607 0)
(0.00163941 0.227508 0)
(0.00199719 0.225393 0)
(0.00246496 0.22349 0)
(0.00277804 0.221161 0)
(0.00333565 0.21906 0)
(0.00385861 0.21615 0)
(0.00790824 0.2139 0)
(0.0235797 0.208156 0)
(0.0699346 0.195786 0)
(0.123487 0.151544 0)
(0.110787 0.10364 0)
(0.0764944 0.0942968 0)
(0.0407421 0.0461066 0)
(0.00408747 -0.027886 0)
(-0.0026357 -0.411527 0)
(-0.0281525 -0.0937265 0)
(-0.0627917 0.107576 0)
(-0.10011 0.133658 0)
(-0.100321 0.180781 0)
(-0.0461579 0.207397 0)
(-0.00436643 0.214601 0)
(0.0095231 0.213608 0)
(0.0125485 0.213849 0)
(0.013765 0.213213 0)
(0.0133978 0.213156 0)
(0.0121148 0.211918 0)
(0.00710626 0.209012 0)
(0.00109772 0.204607 0)
(-0.00296293 0.201482 0)
(-0.00426392 0.200302 0)
(-0.00330533 0.200731 0)
(-0.00102041 0.201961 0)
(0.00153275 0.203194 0)
(0.00296542 0.203712 0)
(0.000901732 0.202965 0)
(-0.00278347 0.200519 0)
(-0.00385309 0.197421 0)
(-0.00297994 0.194207 0)
(-0.00170336 0.191315 0)
(-0.00109491 0.189033 0)
(-0.000550587 0.187295 0)
(0.00021144 0.185605 0)
(0.000787642 0.184194 0)
(0.00122022 0.182504 0)
(0.001812 0.181066 0)
(0.00252659 0.179416 0)
(0.00528993 0.178012 0)
(0.0161354 0.17377 0)
(0.0466504 0.159781 0)
(0.0888532 0.120888 0)
(0.0992027 0.0720049 0)
(0.0642362 0.0560435 0)
(-0.0242458 -0.109543 0)
(-0.0435927 -0.413616 0)
(0.260352 -0.781323 0)
(0.391592 -0.434419 0)
(0.108658 0.0126197 0)
(-0.0599376 0.0804399 0)
(-0.0599773 0.135594 0)
(-0.0276234 0.163866 0)
(-0.00265732 0.170795 0)
(0.0060359 0.165862 0)
(0.00934625 0.162741 0)
(0.0110164 0.157134 0)
(0.010978 0.152282 0)
(0.00907316 0.146361 0)
(0.00413295 0.140951 0)
(-0.000266549 0.138427 0)
(-0.00234984 0.138956 0)
(-0.00252865 0.140985 0)
(-0.00150946 0.143095 0)
(-0.000264721 0.14438 0)
(0.000101934 0.144395 0)
(-0.000271601 0.142678 0)
(-0.000806989 0.140393 0)
(-0.00152146 0.140605 0)
(-0.00243258 0.142347 0)
(-0.0031622 0.143634 0)
(-0.00268593 0.144313 0)
(-0.00213747 0.144355 0)
(-0.0016646 0.144573 0)
(-0.00099087 0.14445 0)
(-0.000523268 0.144252 0)
(-0.000236001 0.14392 0)
(0.00036064 0.143681 0)
(0.000915143 0.143669 0)
(0.00246713 0.143621 0)
(0.00601146 0.14227 0)
(0.0189759 0.131578 0)
(0.0389031 0.101252 0)
(0.0483 0.0452234 0)
(-0.0984522 -0.0243225 0)
(-0.411838 -0.413906 0)
(-0.288928 -0.759214 0)
(0.331654 -0.400925 0)
(0.73692 -0.326932 0)
(0.433345 -0.0425654 0)
(0.018393 0.0100078 0)
(-0.0199284 0.0387211 0)
(-0.0122371 0.0515679 0)
(-0.00244308 0.054688 0)
(0.00176155 0.0517903 0)
(0.00413791 0.0502523 0)
(0.00368697 0.0463854 0)
(0.00301597 0.0426463 0)
(0.0011956 0.0381228 0)
(-0.000538666 0.0344715 0)
(-0.000824785 0.0332749 0)
(-0.000497944 0.0338922 0)
(-0.000275633 0.0351967 0)
(-3.44741e-05 0.0362302 0)
(0.000233003 0.0367274 0)
(-0.000107037 0.0367467 0)
(-0.000891029 0.0365105 0)
(-0.00109615 0.0361039 0)
(-0.000900591 0.0362104 0)
(-0.000934218 0.0367482 0)
(-0.00108588 0.0377653 0)
(-0.00100814 0.0389029 0)
(-0.000844663 0.0395065 0)
(-0.000458854 0.0402445 0)
(-9.76872e-05 0.0407577 0)
(0.0002762 0.0411713 0)
(0.000669765 0.0415873 0)
(0.00157067 0.0421113 0)
(0.00246874 0.042843 0)
(0.00394142 0.0437235 0)
(0.00453048 0.0443729 0)
(0.00712375 0.0421867 0)
(0.00563907 0.0320735 0)
(-0.021805 0.00766739 0)
(-0.378198 -0.040677 0)
(-0.732414 -0.282634 0)
(-0.376344 -0.37335 0)
(0.331654 0.400925 0)
(0.73692 0.326932 0)
(0.433345 0.0425654 0)
(0.018393 -0.0100078 0)
(-0.0199284 -0.0387211 0)
(-0.0122371 -0.0515679 0)
(-0.00244308 -0.054688 0)
(0.00176155 -0.0517903 0)
(0.00413791 -0.0502523 0)
(0.00368697 -0.0463854 0)
(0.00301597 -0.0426463 0)
(0.0011956 -0.0381228 0)
(-0.000538666 -0.0344715 0)
(-0.000824785 -0.0332749 0)
(-0.000497944 -0.0338922 0)
(-0.000275633 -0.0351967 0)
(-3.44741e-05 -0.0362302 0)
(0.000233003 -0.0367274 0)
(-0.000107037 -0.0367467 0)
(-0.000891029 -0.0365105 0)
(-0.00109615 -0.0361039 0)
(-0.000900591 -0.0362104 0)
(-0.000934218 -0.0367482 0)
(-0.00108588 -0.0377653 0)
(-0.00100814 -0.0389029 0)
(-0.000844663 -0.0395065 0)
(-0.000458854 -0.0402445 0)
(-9.76872e-05 -0.0407577 0)
(0.0002762 -0.0411713 0)
(0.000669765 -0.0415873 0)
(0.00157067 -0.0421113 0)
(0.00246874 -0.042843 0)
(0.00394142 -0.0437235 0)
(0.00453048 -0.0443729 0)
(0.00712375 -0.0421867 0)
(0.00563907 -0.0320735 0)
(-0.021805 -0.00766739 0)
(-0.378198 0.040677 0)
(-0.732414 0.282634 0)
(-0.376344 0.37335 0)
(0.260352 0.781323 0)