/*--------------------------------*- C++ -*----------------------------------*\
| =========                 |                                                 |
| \\      /  F ield         | OpenFOAM: The Open Source CFD Toolbox           |
|  \\    /   O peration     | Version:  v1912                                 |
|   \\  /    A nd           | Website:  www.openfoam.com                      |
|    \\/     M anipulation  |                                                 |
\*---------------------------------------------------------------------------*/
FoamFile
{
    version     2.0;
    format      ascii;
    class       volVectorField;
    location    "5.26";
    object      grad(rho);
}
// * * * * * * * * * * * * * * * * * * * * * * * * * * * * * * * * * * * * * //

dimensions      [1 -4 0 0 0 0 0];


internalField   nonuniform List<vector> 
1900
(
(156925 0.0727554 0)
(-141570 -0.911949 0)
(-15246.6 0.555818 0)
(-3735.42 -2.30721 0)
(-2232.28 -1.69937 0)
(-1474.33 -2.88134 0)
(-1196.71 -6.28571 0)
(-911.162 27.0871 0)
(-666.373 17.9198 0)
(297.305 -46.773 0)
(156924 -0.244001 0)
(-141569 -1.1813 0)
(-15248 0.576993 0)
(-3737.67 -1.66657 0)
(-2232.85 0.208446 0)
(-1478.91 -0.768762 0)
(-1166.74 -6.6025 0)
(-886.956 13.2239 0)
(-740.233 -18.5335 0)
(-625.115 -86.2231 0)
(156923 -3.09086e-08 0)
(-141569 3.31468e-08 0)
(-15247.1 -5.09637e-08 0)
(-3735.79 -6.34159e-09 0)
(-2231.38 -2.6823e-09 0)
(-1481.14 -2.0961e-09 0)
(-1182.72 -3.8014e-09 0)
(-923.093 4.52971e-09 0)
(-765.82 9.14824e-09 0)
(-734.156 6.02185e-09 0)
(156924 0.244001 0)
(-141569 1.1813 0)
(-15248 -0.576993 0)
(-3737.67 1.66657 0)
(-2232.85 -0.208446 0)
(-1478.91 0.768762 0)
(-1166.74 6.6025 0)
(-886.956 -13.2239 0)
(-740.233 18.5335 0)
(-625.115 86.2231 0)
(156925 -0.0727555 0)
(-141570 0.911949 0)
(-15246.6 -0.555818 0)
(-3735.42 2.30721 0)
(-2232.28 1.69937 0)
(-1474.33 2.88134 0)
(-1196.71 6.28571 0)
(-911.162 -27.0871 0)
(-666.373 -17.9198 0)
(297.305 46.773 0)
(-280.827 -788.583 1.28909e-11)
(-1736.51 -677.735 -1.52717e-11)
(-2498.87 -709.681 -1.9238e-11)
(-2650.65 -934.455 0)
(-20929.7 -8291.77 -8.05391e-11)
(-837.747 -922.673 1.27484e-11)
(-1207.22 -795.423 1.52717e-11)
(-2291.9 -880.697 1.9238e-11)
(-5466.82 -697.209 0)
(-19527 -6316.32 0)
(-1193.95 4.66615e-09 0)
(-1422.56 4.32403e-09 0)
(-2262.02 3.70074e-10 0)
(-4825.66 -2.62416e-09 0)
(-22035.7 -7.8773e-09 0)
(-837.747 922.673 1.27484e-11)
(-1207.22 795.423 1.52717e-11)
(-2291.9 880.697 1.9238e-11)
(-5466.82 697.209 0)
(-19527 6316.32 0)
(-280.827 788.583 -3.83877e-11)
(-1736.51 677.735 -1.52717e-11)
(-2498.87 709.681 -1.9238e-11)
(-2650.65 934.455 -5.15283e-11)
(-20929.7 8291.77 8.05391e-11)
(-32723 14466 2.15268e-11)
(-5083.13 4046.69 -1.58241e-11)
(-2001.02 2218.42 0)
(-4362.17 1530.14 1.13853e-11)
(-10946.3 2287.46 -4.677e-12)
(-28650.3 17836.6 -1.09813e-11)
(-7805.59 2936.63 7.97299e-12)
(-2614.01 694.155 0)
(-4136.77 520.921 -7.14854e-12)
(-9663.14 1272.61 1.19606e-12)
(-30530.7 -3.18488e-09 0)
(-9383.21 -1.59417e-09 0)
(-2842.43 1.61188e-09 0)
(-4188.41 6.3856e-10 2.86569e-12)
(-9251.05 5.14209e-09 -2.39211e-12)
(-28650.3 -17836.6 -1.09813e-11)
(-7805.59 -2936.63 7.97299e-12)
(-2614.01 -694.155 0)
(-4136.77 -520.921 -7.14854e-12)
(-9663.14 -1272.61 1.19606e-12)
(-32723 -14466 1.09813e-11)
(-5083.13 -4046.69 -1.21873e-13)
(-2001.02 -2218.42 0)
(-4362.17 -1530.14 4.60828e-14)
(-10946.3 -2287.46 4.677e-12)
(-11070.8 8770.07 0)
(-792.114 2585.96 0)
(4244.95 2084.35 0)
(1815.5 2893.98 0)
(-1442.39 2097.18 0)
(-2513.28 1219.49 0)
(-2499.21 549.287 0)
(-1903.55 238.023 0)
(-1317.67 109.777 0)
(-1055.64 52.6791 0)
(-1001.03 40.1513 0)
(-935.881 50.862 0)
(-764.139 25.2108 0)
(-517.3 5.92216 0)
(-313.31 -1.68994 0)
(-204.377 -2.86266 0)
(-158.965 -2.44919 0)
(-136.423 -2.29046 0)
(-118.332 -2.50511 0)
(-99.5522 -2.84162 0)
(-80.2898 -3.13116 0)
(-63.0628 -3.29734 0)
(-48.0889 -3.36093 0)
(-35.1092 -3.38098 0)
(-24.0932 -3.39186 0)
(-14.7359 -3.42581 0)
(-5.77981 -3.48077 0)
(4.78509 -3.59839 0)
(21.7236 -3.62992 0)
(40.8356 -3.57096 0)
(69.0188 -3.4416 0)
(94.7754 -2.60762 0)
(125.975 -2.39396 0)
(146.741 -0.697569 0)
(196.933 -3.41172 0)
(238.44 2.13898 0)
(367.303 -5.63189 0)
(1827.2 13.9561 0)
(18726.5 -79.4251 0)
(-12610.1 -1738.12 0)
(-10970.3 5480.37 0)
(-1669.47 1619.04 0)
(4066.47 424.149 0)
(1562.57 1020.76 0)
(-1697.8 1212.18 0)
(-2688.62 799.935 0)
(-2613.69 337.581 0)
(-1960.13 109.938 0)
(-1337.56 45.6426 0)
(-1063.23 17.731 0)
(-999.749 11.0805 0)
(-936.382 24.4198 0)
(-768.867 8.49943 0)
(-519.448 0.98271 0)
(-313.924 -1.37583 0)
(-204.385 -1.64462 0)
(-158.886 -1.36029 0)
(-136.411 -1.23965 0)
(-118.37 -1.3029 0)
(-99.6008 -1.42588 0)
(-80.3269 -1.5401 0)
(-63.0825 -1.61184 0)
(-48.0979 -1.64903 0)
(-35.1154 -1.67517 0)
(-24.1026 -1.70324 0)
(-14.7506 -1.74663 0)
(-5.80397 -1.80012 0)
(4.76108 -1.88256 0)
(21.715 -1.92587 0)
(40.8376 -1.92275 0)
(69.0968 -1.88403 0)
(94.8699 -1.47813 0)
(126.113 -1.30768 0)
(146.597 -0.550917 0)
(197.278 -1.29568 0)
(238.392 2.37955 0)
(367.651 1.70817 0)
(1816.44 9.60842 0)
(18657.1 -58.5647 0)
(-12583.7 -337.938 0)
(-10681.6 -6.42718e-08 0)
(-2263.02 1.85484e-07 0)
(4070.9 4.74772e-09 0)
(2044.75 3.56886e-09 0)
(-1506.63 1.05128e-08 0)
(-2767.71 1.39686e-08 0)
(-2699.94 6.54022e-09 0)
(-1988.47 -2.72752e-08 0)
(-1344.5 -3.52688e-08 0)
(-1065.7 -1.79251e-09 0)
(-999.088 7.44455e-09 0)
(-936.632 -1.63586e-08 0)
(-770.957 -1.45015e-08 0)
(-520.173 -2.04362e-08 0)
(-314.074 -2.50951e-08 0)
(-204.372 -1.37587e-08 0)
(-158.848 -2.01051e-09 0)
(-136.406 7.21039e-09 0)
(-118.386 3.62538e-09 0)
(-99.6212 5.07069e-09 0)
(-80.3439 8.9383e-09 0)
(-63.0945 1.47841e-08 0)
(-48.1073 1.92412e-08 0)
(-35.125 1.71176e-08 0)
(-24.114 1.61164e-08 0)
(-14.7641 1.87163e-08 0)
(-5.81935 1.64636e-08 0)
(4.74851 9.78611e-09 0)
(21.7119 7.36381e-09 0)
(40.8477 6.30607e-09 0)
(69.1482 2.01939e-08 0)
(94.943 4.47965e-08 0)
(126.245 5.38155e-08 0)
(146.744 6.21725e-08 0)
(197.785 4.74045e-08 0)
(239.314 7.42759e-08 0)
(369.406 1.02245e-07 0)
(1809.67 2.80907e-08 0)
(18625.4 -2.77515e-07 0)
(-12571.5 -1.01805e-06 0)
(-10970.3 -5480.37 0)
(-1669.47 -1619.04 0)
(4066.47 -424.149 0)
(1562.57 -1020.76 0)
(-1697.8 -1212.18 0)
(-2688.62 -799.935 0)
(-2613.69 -337.581 0)
(-1960.13 -109.938 0)
(-1337.56 -45.6426 0)
(-1063.23 -17.731 0)
(-999.749 -11.0805 0)
(-936.382 -24.4198 0)
(-768.867 -8.49943 0)
(-519.448 -0.98271 0)
(-313.924 1.37583 0)
(-204.385 1.64462 0)
(-158.886 1.36029 0)
(-136.411 1.23965 0)
(-118.37 1.3029 0)
(-99.6008 1.42588 0)
(-80.3269 1.5401 0)
(-63.0825 1.61184 0)
(-48.0979 1.64903 0)
(-35.1154 1.67517 0)
(-24.1026 1.70324 0)
(-14.7506 1.74663 0)
(-5.80397 1.80012 0)
(4.76108 1.88256 0)
(21.715 1.92587 0)
(40.8376 1.92275 0)
(69.0968 1.88403 0)
(94.8699 1.47813 0)
(126.113 1.30768 0)
(146.597 0.550917 0)
(197.278 1.29568 0)
(238.392 -2.37955 0)
(367.651 -1.70817 0)
(1816.44 -9.60842 0)
(18657.1 58.5647 0)
(-12583.7 337.938 0)
(-11070.8 -8770.07 0)
(-792.114 -2585.96 0)
(4244.95 -2084.35 0)
(1815.5 -2893.98 0)
(-1442.39 -2097.18 0)
(-2513.28 -1219.49 0)
(-2499.21 -549.287 0)
(-1903.55 -238.023 0)
(-1317.67 -109.777 0)
(-1055.64 -52.6791 0)
(-1001.03 -40.1513 0)
(-935.881 -50.862 0)
(-764.139 -25.2108 0)
(-517.3 -5.92216 0)
(-313.31 1.68994 0)
(-204.377 2.86266 0)
(-158.965 2.44919 0)
(-136.423 2.29046 0)
(-118.332 2.50511 0)
(-99.5522 2.84162 0)
(-80.2898 3.13116 0)
(-63.0628 3.29734 0)
(-48.0889 3.36093 0)
(-35.1092 3.38098 0)
(-24.0932 3.39186 0)
(-14.7359 3.42581 0)
(-5.77981 3.48077 0)
(4.78509 3.59839 0)
(21.7236 3.62992 0)
(40.8356 3.57096 0)
(69.0188 3.4416 0)
(94.7754 2.60762 0)
(125.975 2.39396 0)
(146.741 0.697569 0)
(196.933 3.41172 0)
(238.44 -2.13898 0)
(367.303 5.63189 0)
(1827.2 -13.9561 0)
(18726.5 79.4251 0)
(-12610.1 1738.12 0)
(5220.12 -2488.22 0)
(1509.86 -840.936 0)
(3666.87 -1958.51 0)
(1262.07 -3203.77 0)
(-942.744 -2538.05 0)
(-1920.4 -1672.81 0)
(-2130.41 -859.649 0)
(-1749.86 -430.604 0)
(-1244.3 -200.963 0)
(-1028.33 -114.882 0)
(-997.123 -91.8017 0)
(-927.589 -83.5917 0)
(-746.145 -47.5514 0)
(-505.058 -13.3334 0)
(-309.125 1.18278 0)
(-203.918 3.69645 0)
(-159.152 3.24615 0)
(-136.362 3.11542 0)
(-118.069 3.58272 0)
(-99.2643 4.24195 0)
(-80.0839 4.7927 0)
(-62.9612 5.11076 0)
(-48.0558 5.23988 0)
(-35.1032 5.29139 0)
(-24.0854 5.32502 0)
(-14.7118 5.38955 0)
(-5.72365 5.50707 0)
(4.82687 5.71857 0)
(21.6879 5.77515 0)
(40.7218 5.69049 0)
(68.5826 5.37491 0)
(94.3221 4.01506 0)
(125.075 3.47609 0)
(147.068 0.702055 0)
(195.897 3.91813 0)
(239.728 -2.51142 0)
(360.642 6.6254 0)
(1850.29 -30.0155 0)
(19675.9 13.25 0)
(-13815.5 282.528 0)
(5223.68 3479.97 0)
(-1516.05 -709.094 0)
(2278.03 -2438.06 0)
(1553.8 -2674.22 0)
(-235.03 -2345.28 0)
(-1213.83 -1733.74 0)
(-1499.94 -1111.21 0)
(-1351.22 -594.171 0)
(-1052.78 -300.767 0)
(-965.094 -187.79 0)
(-972.977 -151.373 0)
(-897.686 -117.2 0)
(-706.084 -67.0884 0)
(-476.902 -20.8466 0)
(-299.143 -0.107637 0)
(-202.634 4.28904 0)
(-159.425 4.26487 0)
(-136.131 4.357 0)
(-117.388 5.16278 0)
(-98.5406 6.1881 0)
(-79.563 7.03409 0)
(-62.6863 7.53643 0)
(-47.9326 7.76994 0)
(-35.0304 7.90828 0)
(-24.0028 8.03927 0)
(-14.5734 8.21339 0)
(-5.49287 8.4845 0)
(5.02103 8.93544 0)
(21.7157 9.12667 0)
(40.5109 9.1252 0)
(67.6382 8.70869 0)
(93.1886 6.79631 0)
(123.265 5.90493 0)
(146.991 2.71521 0)
(194.392 5.5712 0)
(240.359 -1.02122 0)
(344.371 4.25684 0)
(1821.2 -36.396 0)
(18518.6 -49.8269 0)
(-12405.8 -1679.68 0)
(4753.11 3037.22 0)
(-4192.96 -1021.37 0)
(1773.2 -1336.98 0)
(1351.47 -1782.41 0)
(-36.4623 -1888.8 0)
(-731.196 -1521.25 0)
(-1032.28 -1087.63 0)
(-968.891 -623.263 0)
(-852.697 -367.451 0)
(-884.371 -252.687 0)
(-929.101 -206.052 0)
(-846.369 -146.769 0)
(-653.295 -82.2501 0)
(-440.513 -28.3143 0)
(-284.903 -3.11576 0)
(-199.705 3.5606 0)
(-159.087 4.55304 0)
(-135.497 5.19234 0)
(-116.304 6.44964 0)
(-97.461 7.85381 0)
(-78.7846 8.99643 0)
(-62.2521 9.7013 0)
(-47.6975 10.0823 0)
(-34.8437 10.3748 0)
(-23.7914 10.695 0)
(-14.2828 11.0864 0)
(-5.02786 11.5421 0)
(5.44569 12.3719 0)
(21.8707 12.8256 0)
(40.319 12.9669 0)
(66.3384 12.5331 0)
(91.6203 10.1697 0)
(121.142 9.10408 0)
(146.747 5.74769 0)
(192.296 8.01449 0)
(238.461 1.10052 0)
(326.553 0.678291 0)
(1798.18 -28.8302 0)
(18092.4 -6.53204 0)
(-12067.8 -817.325 0)
(4355.07 1825.38 0)
(-5731.19 -782.234 0)
(1544.66 -675.66 0)
(1022.05 -1381.54 0)
(16.6338 -1472.83 0)
(-441.792 -1284.7 0)
(-634.613 -934.846 0)
(-657.233 -582.916 0)
(-695.678 -390.423 0)
(-809.564 -301.29 0)
(-870.912 -242.964 0)
(-778.386 -166.668 0)
(-591.936 -89.5092 0)
(-400.646 -33.249 0)
(-268.427 -6.46382 0)
(-195.244 1.76196 0)
(-157.853 3.91738 0)
(-134.303 5.28489 0)
(-114.823 7.0176 0)
(-96.0864 8.7328 0)
(-77.7827 10.1102 0)
(-61.6399 11.0064 0)
(-47.2836 11.5796 0)
(-34.44 12.1097 0)
(-23.3171 12.719 0)
(-13.7572 13.4341 0)
(-4.25407 14.1548 0)
(6.25785 15.4406 0)
(22.289 16.2272 0)
(40.229 16.5379 0)
(64.9427 16.1056 0)
(89.8843 13.5261 0)
(119.004 12.2405 0)
(145.941 8.80692 0)
(189.914 9.75639 0)
(233.29 3.51165 0)
(315.529 -3.43168 0)
(1814.26 -15.2324 0)
(17758.7 14.8472 0)
(-11830.7 -750.089 0)
(4367.59 1347.89 0)
(-6603.05 -398.327 0)
(1195.69 -412.026 0)
(583.29 -1150.38 0)
(56.8554 -1112.13 0)
(-212.773 -985.484 0)
(-356.011 -734.697 0)
(-444.265 -518.507 0)
(-581.312 -387.033 0)
(-742.274 -327.496 0)
(-799.374 -258.714 0)
(-698.494 -172.746 0)
(-524.728 -89.2212 0)
(-360.488 -34.507 0)
(-251.165 -8.43175 0)
(-189.701 0.480985 0)
(-155.692 3.35876 0)
(-132.509 5.39763 0)
(-112.982 7.50977 0)
(-94.4809 9.43307 0)
(-76.5936 10.9692 0)
(-60.8361 12.0429 0)
(-46.6343 12.8583 0)
(-33.7457 13.718 0)
(-22.5152 14.7219 0)
(-12.8991 15.8477 0)
(-3.0943 16.9912 0)
(7.44265 18.8689 0)
(22.9282 20.0531 0)
(40.2018 20.6404 0)
(63.4361 20.3636 0)
(87.8958 17.8511 0)
(116.595 16.5387 0)
(144.353 13.3188 0)
(187.194 13.5619 0)
(225.753 9.04297 0)
(308.491 -0.309847 0)
(1815.79 0.200936 0)
(17384.2 14.5723 0)
(-11508.6 -816.196 0)
(4487.98 1172.95 0)
(-7427.11 -272.949 0)
(819.956 -471.386 0)
(347.403 -872.111 0)
(175.532 -756.154 0)
(-78.0812 -705.155 0)
(-184.617 -561.481 0)
(-322.212 -453.439 0)
(-511.613 -384.332 0)
(-685.911 -340.862 0)
(-721.79 -262.229 0)
(-615.057 -168.276 0)
(-458.724 -85.3394 0)
(-322.794 -34.1986 0)
(-234.711 -9.94248 0)
(-183.882 -0.723721 0)
(-153.115 2.87933 0)
(-130.303 5.59261 0)
(-110.935 8.05004 0)
(-92.7528 10.1436 0)
(-75.2678 11.8029 0)
(-59.8195 13.0377 0)
(-45.6693 14.0907 0)
(-32.6442 15.2642 0)
(-21.2649 16.6099 0)
(-11.5704 18.0614 0)
(-1.34266 19.5224 0)
(9.20843 21.7948 0)
(23.996 23.1202 0)
(40.5282 23.6551 0)
(62.2549 23.1607 0)
(86.1985 20.3714 0)
(114.636 18.6161 0)
(143.073 15.148 0)
(185.793 14.6587 0)
(219.922 10.9919 0)
(307.009 0.657415 0)
(1828.6 8.50676 0)
(16972 7.97826 0)
(-11148.7 -898.316 0)
(4512.62 1007.87 0)
(-8187.59 -215.298 0)
(618.312 -468.181 0)
(308.877 -552.321 0)
(217.74 -520.579 0)
(-25.179 -510.469 0)
(-113.449 -448.665 0)
(-273.559 -406.959 0)
(-472.828 -383.69 0)
(-624.611 -339.477 0)
(-633.064 -250.614 0)
(-528.037 -152.538 0)
(-395.526 -74.811 0)
(-287.833 -29.4021 0)
(-218.908 -8.09426 0)
(-177.346 0.651043 0)
(-149.605 5.21684 0)
(-127.526 8.39241 0)
(-108.596 11.0622 0)
(-90.8645 13.2019 0)
(-73.8048 14.9216 0)
(-58.6314 16.3094 0)
(-44.4887 17.6183 0)
(-31.3182 19.1197 0)
(-19.8197 20.7931 0)
(-10.0925 22.5172 0)
(0.50336 24.2605 0)
(10.9096 26.8973 0)
(24.7208 28.2546 0)
(40.2408 28.5817 0)
(60.2717 27.6627 0)
(83.5164 24.3514 0)
(111.561 21.8367 0)
(140.54 17.7325 0)
(183.189 16.429 0)
(212.26 12.5882 0)
(306.096 3.58706 0)
(1822.84 13.0879 0)
(16510.4 -6.64335 0)
(-10729.9 -1019.88 0)
(4595.57 862.181 0)
(-8849.49 -175.077 0)
(495.188 -374.31 0)
(296.91 -370.705 0)
(215.863 -378.832 0)
(-8.78219 -392.848 0)
(-84.8715 -380.12 0)
(-259.6 -377.27 0)
(-446.585 -371.877 0)
(-557.674 -318.216 0)
(-541.648 -224.711 0)
(-445.647 -130.974 0)
(-340.066 -62.6096 0)
(-258.503 -23.6447 0)
(-205.751 -5.3176 0)
(-171.055 3.61466 0)
(-145.655 9.29581 0)
(-124.67 13.1845 0)
(-106.3 16.1567 0)
(-89.0338 18.3773 0)
(-72.2733 20.1733 0)
(-57.2209 21.7043 0)
(-42.9612 23.1903 0)
(-29.5849 24.8406 0)
(-17.991 26.6015 0)
(-8.229 28.3038 0)
(2.87821 29.9998 0)
(13.0573 32.6715 0)
(25.6192 33.6457 0)
(39.9578 33.4229 0)
(58.1784 31.7235 0)
(80.5844 27.5678 0)
(108.258 23.9546 0)
(137.862 19.1409 0)
(180.836 16.8297 0)
(207.547 12.6812 0)
(307.49 5.89649 0)
(1818.74 15.2923 0)
(15976.6 -18.1537 0)
(-10250.7 -1126.07 0)
(4765.03 593.774 0)
(-9379.12 -130.764 0)
(429.798 -291.906 0)
(304.519 -269.001 0)
(196.402 -297.569 0)
(-26.4196 -324.612 0)
(-98.4368 -345.907 0)
(-265.615 -363.772 0)
(-415.921 -353.605 0)
(-482.798 -286.493 0)
(-452.631 -192.307 0)
(-371.83 -107.096 0)
(-292.1 -48.3457 0)
(-232.624 -14.4724 0)
(-192.64 3.9458 0)
(-163.264 14.6472 0)
(-140.384 21.1202 0)
(-120.915 25.8763 0)
(-103.592 29.2865 0)
(-86.994 31.6941 0)
(-70.5988 33.5809 0)
(-55.7241 35.1286 0)
(-41.4665 36.4773 0)
(-28.0311 37.7735 0)
(-16.4825 39.0094 0)
(-6.81776 40.1838 0)
(4.71231 41.118 0)
(14.423 42.8593 0)
(25.4449 42.5963 0)
(38.3886 41.0434 0)
(54.6295 37.8536 0)
(76.03 32.1598 0)
(103.441 26.7508 0)
(133.674 20.5275 0)
(176.964 16.9571 0)
(201.725 11.9461 0)
(308.612 6.06515 0)
(1799.67 13.2904 0)
(15410.5 -39.0353 0)
(-9735.4 -1225.39 0)
(4896.41 413.861 0)
(-9702.96 -75.6669 0)
(361.978 -198.09 0)
(291.453 -202.345 0)
(162.274 -257.058 0)
(-55.3628 -289.576 0)
(-122.607 -324.202 0)
(-267.018 -338.942 0)
(-372.116 -313.362 0)
(-402.241 -238.883 0)
(-368.775 -151.387 0)
(-306.92 -78.3128 0)
(-250.81 -29.4769 0)
(-208.113 -0.409679 0)
(-177.69 18.2102 0)
(-154.505 29.3978 0)
(-134.834 36.7848 0)
(-116.801 42.1851 0)
(-100.694 46.0055 0)
(-84.8956 48.6405 0)
(-68.9636 50.6674 0)
(-54.4298 52.2368 0)
(-40.4125 53.4012 0)
(-27.1449 54.3222 0)
(-15.6683 55.04 0)
(-6.19707 55.8296 0)
(5.45639 56.0964 0)
(14.4818 56.8411 0)
(23.8694 55.465 0)
(35.3876 52.7025 0)
(49.6178 48.1981 0)
(69.8853 41.14 0)
(97.0486 33.9943 0)
(128.424 26.2094 0)
(172.567 21.438 0)
(197.051 16.0551 0)
(308.786 10.9988 0)
(1775.28 14.2697 0)
(14783 -50.6154 0)
(-9159.64 -1299.02 0)
(5121.52 26.9492 0)
(-9968.82 -45.894 0)
(307.727 -127.446 0)
(247.696 -161.018 0)
(112.342 -234.725 0)
(-91.1222 -265.746 0)
(-146.008 -300.737 0)
(-255.169 -300.846 0)
(-319.5 -260.752 0)
(-326.712 -185.524 0)
(-297.901 -108.731 0)
(-254.353 -46.717 0)
(-217.029 -4.8664 0)
(-186.671 22.0659 0)
(-163.916 38.6591 0)
(-145.365 50.471 0)
(-128.061 59.4448 0)
(-112.03 66.0255 0)
(-97.3713 70.7018 0)
(-82.5015 73.8272 0)
(-67.1333 75.9358 0)
(-53.0897 77.1317 0)
(-39.4569 77.5317 0)
(-26.4519 77.4911 0)
(-15.0299 77.0956 0)
(-5.79974 76.7905 0)
(5.68709 75.8781 0)
(13.8145 75.1666 0)
(21.4568 72.3722 0)
(31.3859 67.9934 0)
(43.4874 61.7638 0)
(62.3427 52.9511 0)
(89.0531 43.7462 0)
(121.574 34.1675 0)
(167.179 27.9643 0)
(191.665 22.073 0)
(306.892 17.0936 0)
(1740.29 18.442 0)
(14145 -61.1094 0)
(-8587.66 -1418.34 0)
(4913.17 -307.558 0)
(-9851.74 -28.183 0)
(251.04 -89.0498 0)
(188.075 -142.585 0)
(61.3544 -224.029 0)
(-118.975 -241.802 0)
(-156.43 -262.944 0)
(-228.486 -244.661 0)
(-260.988 -196.911 0)
(-255.749 -128.248 0)
(-235.015 -63.5131 0)
(-206.832 -11.9333 0)
(-184.528 23.5841 0)
(-166.171 46.834 0)
(-150.318 62.1931 0)
(-134.475 73.7725 0)
(-119.845 82.4012 0)
(-105.953 88.8702 0)
(-93.1758 93.5989 0)
(-79.8519 96.8681 0)
(-65.7792 99.1276 0)
(-52.8918 100.4 0)
(-40.0663 100.809 0)
(-27.5651 100.754 0)
(-16.3434 100.288 0)
(-7.37038 99.9005 0)
(3.89157 98.7615 0)
(11.1034 97.5968 0)
(16.9569 94.1606 0)
(25.1649 89.0844 0)
(35.1226 81.9946 0)
(52.5229 72.331 0)
(78.9481 61.9152 0)
(113.216 51.5948 0)
(160.912 45.068 0)
(186.576 39.4329 0)
(305.287 34.5123 0)
(1699.92 33.6901 0)
(13398.5 -63.1452 0)
(-7906.57 -1438.97 0)
(4863.27 -645.104 0)
(-9758.26 -6.33334 0)
(197.485 -42.5049 0)
(117.625 -104.093 0)
(16.7333 -191.398 0)
(-128.623 -198.199 0)
(-148.763 -206.2 0)
(-191.537 -175.422 0)
(-207.32 -124.607 0)
(-198.165 -65.3582 0)
(-185.815 -10.8201 0)
(-170.423 28.7528 0)
(-160.399 56.5059 0)
(-149.466 76.6722 0)
(-137.957 91.8389 0)
(-125.891 102.835 0)
(-113.513 111.147 0)
(-101.239 117.625 0)
(-89.6643 122.632 0)
(-77.1738 126.115 0)
(-63.7303 128.119 0)
(-51.4692 128.693 0)
(-39.1157 128.403 0)
(-26.9539 127.928 0)
(-15.852 127.302 0)
(-7.27098 127.096 0)
(3.46716 125.735 0)
(9.38096 124.185 0)
(13.2539 120.494 0)
(19.6623 115.563 0)
(27.3433 108.579 0)
(42.9935 99.2514 0)
(69.0709 88.9635 0)
(105.339 79.0063 0)
(155.459 73.6634 0)
(181.493 69.3159 0)
(301.358 64.144 0)
(1646.19 64.9842 0)
(12725.9 -55.1954 0)
(-7369.34 -1501.06 0)
(4390.21 -880.197 0)
(-9271.05 25.5438 0)
(156.835 1.80881 0)
(44.5956 -56.8203 0)
(-29.3293 -143.239 0)
(-133.239 -140.375 0)
(-134.482 -133.85 0)
(-149.86 -95.5552 0)
(-154.926 -44.8874 0)
(-146.1 3.2507 0)
(-144.327 40.7868 0)
(-141.954 70.8878 0)
(-138.352 92.9334 0)
(-132.122 110.646 0)
(-125.107 123.156 0)
(-115.87 132.092 0)
(-105.593 138.056 0)
(-94.8862 142.087 0)
(-84.9951 144.962 0)
(-74.5645 147.289 0)
(-63.2945 149.748 0)
(-52.6175 152.031 0)
(-40.8037 153.726 0)
(-28.6264 154.866 0)
(-17.1452 155.329 0)
(-8.87999 155.835 0)
(1.08658 154.661 0)
(6.0526 153.508 0)
(8.64837 150.491 0)
(13.6829 146.757 0)
(19.4041 140.882 0)
(33.6211 133.223 0)
(59.4391 124.816 0)
(98.4724 117.49 0)
(151.574 116.469 0)
(177.403 118.136 0)
(301.113 117.512 0)
(1584.92 124.933 0)
(11889.4 -5.8804 0)
(-6691.93 -1377.21 0)
(4181.1 -765.583 0)
(-8908.33 101.212 0)
(118.116 68.0913 0)
(-22.1481 19.4003 0)
(-63.7828 -44.6142 0)
(-119.575 -31.2573 0)
(-105.573 -13.561 0)
(-105.809 19.3886 0)
(-112.107 56.9131 0)
(-115.606 89.8381 0)
(-120.638 113.792 0)
(-120.173 135.681 0)
(-122.087 152.295 0)
(-120.342 166.391 0)
(-117.291 176.969 0)
(-111.533 184.96 0)
(-103.881 190.744 0)
(-94.5849 195.29 0)
(-84.6515 199.051 0)
(-72.5612 201.957 0)
(-59.1612 203.994 0)
(-47.6357 204.854 0)
(-36.3829 204.928 0)
(-25.4095 204.866 0)
(-14.9189 204.294 0)
(-7.91497 204.192 0)
(1.22532 202.571 0)
(5.36316 201.343 0)
(6.74805 198.484 0)
(10.402 195.21 0)
(14.3013 190.225 0)
(27.5122 183.912 0)
(53.9104 177.115 0)
(97.2955 172.332 0)
(156.081 174.723 0)
(182.498 182.924 0)
(307.908 187.549 0)
(1527.28 208.05 0)
(11278.4 62.8286 0)
(-6431.92 -1062.33 0)
(4102.5 -275 0)
(-8467.69 211.365 0)
(77.9979 146.988 0)
(-64.0116 104.632 0)
(-78.1449 58.7504 0)
(-103.315 69.6116 0)
(-85.678 90.1787 0)
(-81.9487 111.692 0)
(-87.0381 136.744 0)
(-91.2895 156.705 0)
(-100.151 174.207 0)
(-104.851 190.091 0)
(-108.759 202.63 0)
(-108.345 217.086 0)
(-107.213 229.573 0)
(-102.595 240.84 0)
(-95.6387 248.889 0)
(-86.8819 252.363 0)
(-78.5702 251.713 0)
(-69.8011 250.251 0)
(-60.5023 252.539 0)
(-51.7179 257.829 0)
(-40.7927 261.153 0)
(-29.2369 259.763 0)
(-17.7941 254.128 0)
(-10.5404 248.94 0)
(-1.65963 241.964 0)
(2.11464 237.071 0)
(2.73891 231.105 0)
(5.72405 226.881 0)
(8.51719 222.09 0)
(20.9877 216.813 0)
(48.2801 210.138 0)
(96.1676 205.277 0)
(161.78 206.234 0)
(189.762 216.629 0)
(325.325 218.787 0)
(1464.73 239.809 0)
(10665.2 106.834 0)
(-6335.47 -514.79 0)
(4662.23 671.219 0)
(-8501.68 381.697 0)
(15.2636 296.827 0)
(-107.177 250.38 0)
(-97.5298 206.542 0)
(-89.29 210.771 0)
(-65.0237 230.635 0)
(-60.9372 245.927 0)
(-68.7308 267.598 0)
(-79.506 280.659 0)
(-88.4655 291.524 0)
(-92.7828 300.943 0)
(-96.074 306.865 0)
(-94.3787 313.686 0)
(-94.4004 319.251 0)
(-92.9194 327.708 0)
(-92.7769 339.498 0)
(-91.8638 354.488 0)
(-86.686 369.907 0)
(-71.7654 379.396 0)
(-51.8589 381.578 0)
(-39.335 376.532 0)
(-34.5196 365.315 0)
(-32.1792 356.351 0)
(-25.3481 349.519 0)
(-19.6364 349.533 0)
(-10.2126 350.345 0)
(-5.10138 350.809 0)
(-3.07127 350.965 0)
(1.71513 351.344 0)
(4.59968 351.541 0)
(15.9949 350.52 0)
(42.7937 346.213 0)
(93.5332 344.849 0)
(167.021 347.674 0)
(194.596 370.646 0)
(330.245 382.471 0)
(1419.4 386.714 0)
(10551.2 204.681 0)
(-6792.58 312.095 0)
(5931 41397.1 0)
(-8828.47 3948.09 0)
(-48.5446 2054.97 0)
(-151.013 1943.46 0)
(-116.313 2005.05 0)
(-80.0975 2049.1 0)
(-51.8009 2113.74 0)
(-46.3297 2143.8 0)
(-53.569 2178.64 0)
(-68.2342 2191.22 0)
(-80.6038 2195.41 0)
(-90.0676 2187.82 0)
(-96.4797 2167.56 0)
(-96.4105 2137.7 0)
(-93.7008 2094.65 0)
(-83.0838 2045.65 0)
(-69.8325 1989.61 0)
(-57.5793 1935.56 0)
(-54.5683 1907.44 0)
(-58.5548 1882.13 0)
(-63.2621 1885.5 0)
(-67.3887 1921.25 0)
(-60.2397 1930.93 0)
(-44.4588 1980.02 0)
(-24.3635 1992.47 0)
(-9.74489 2021.41 0)
(-0.430182 2025.91 0)
(2.71251 2033.45 0)
(3.25395 2022.99 0)
(6.27863 2007.15 0)
(7.72294 1977.74 0)
(15.8543 1939.12 0)
(42.8153 1886.37 0)
(97.5748 1819.07 0)
(186.64 1753.14 0)
(223.294 1692.5 0)
(340.81 1672.92 0)
(1293.41 1539.1 0)
(10593.3 3360.44 0)
(-7850.15 37031.9 0)
(44977.9 663745 0)
(-46413.2 51158.7 0)
(-1916.47 15307.2 0)
(-155.282 15027.5 0)
(4.26524 15478.7 0)
(15.4513 16179.3 0)
(26.2357 16898.8 0)
(1.59967 17573.7 0)
(-23.0328 18103.3 0)
(-63.3444 18574.6 0)
(-91.7427 18937.3 0)
(-119.621 19198.6 0)
(-144.379 19413.9 0)
(-164.64 19543.2 0)
(-183.095 19626.1 0)
(-194.133 19653.4 0)
(-198.869 19646 0)
(-171.048 19582.6 0)
(-138.171 19520.3 0)
(-92.9048 19405 0)
(-14.1663 19324.5 0)
(4.44176 19229.4 0)
(22.1168 19072.8 0)
(27.1171 18763.3 0)
(14.5339 18374.8 0)
(12.5934 17934.5 0)
(1.39459 17457.6 0)
(-7.92061 16887.3 0)
(-28.4199 16291.8 0)
(-41.886 15612.7 0)
(-60.9571 14914.6 0)
(-72.0511 14090 0)
(-72.8866 13316.4 0)
(-34.8548 12329.5 0)
(45.0494 11565.8 0)
(117.293 10736.9 0)
(182.43 10565.1 0)
(3045.55 10461.1 0)
(44753.3 44339.7 0)
(-43112.6 596308 0)
(688538 -713410 0)
(-633687 -48352.2 0)
(-34865.9 -14083.2 0)
(14.2429 -13002.5 0)
(993.626 -13050.5 0)
(1288.31 -13424.6 0)
(1291.87 -13934.6 0)
(1114.36 -14429.9 0)
(910.957 -14769.7 0)
(735.489 -15059.5 0)
(520.7 -15208.3 0)
(369.182 -15246.4 0)
(235.579 -15222.4 0)
(108.063 -15100.7 0)
(12.4928 -14923.1 0)
(-63.8692 -14695.8 0)
(-138.08 -14458.4 0)
(-178.744 -14197.7 0)
(-225.646 -13996.3 0)
(-247.175 -13768.4 0)
(-232.491 -13611 0)
(-310.019 -13456.4 0)
(-509.397 -13256.6 0)
(-717.002 -12932.8 0)
(-823.085 -12559.8 0)
(-893.6 -12176.8 0)
(-1009.51 -11759.2 0)
(-1120.71 -11254.9 0)
(-1224.98 -10724.1 0)
(-1320.84 -10111.7 0)
(-1459.62 -9489.48 0)
(-1524.21 -8730.96 0)
(-1653.68 -8079.62 0)
(-1589.45 -7229.7 0)
(-1348.02 -6790.86 0)
(-740.942 -6481.27 0)
(75.0244 -6930.14 0)
(33839.8 -7784.83 0)
(575136 -42420.6 0)
(-619194 -644834 0)
(688538 713410 0)
(-633687 48352.2 0)
(-34865.9 14083.2 0)
(14.2429 13002.5 0)
(993.626 13050.5 0)
(1288.31 13424.6 0)
(1291.87 13934.6 0)
(1114.36 14429.9 0)
(910.957 14769.7 0)
(735.489 15059.5 0)
(520.7 15208.3 0)
(369.182 15246.4 0)
(235.579 15222.4 0)
(108.063 15100.7 0)
(12.4928 14923.1 0)
(-63.8692 14695.8 0)
(-138.08 14458.4 0)
(-178.744 14197.7 0)
(-225.646 13996.3 0)
(-247.175 13768.4 0)
(-232.49 13611 0)
(-310.019 13456.4 0)
(-509.397 13256.6 0)
(-717.002 12932.8 0)
(-823.085 12559.8 0)
(-893.6 12176.8 0)
(-1009.51 11759.2 0)
(-1120.71 11254.9 0)
(-1224.98 10724.1 0)
(-1320.84 10111.7 0)
(-1459.62 9489.48 0)
(-1524.21 8730.96 0)
(-1653.68 8079.62 0)
(-1589.45 7229.7 0)
(-1348.02 6790.86 0)
(-740.942 6481.27 0)
(75.0244 6930.14 0)
(33839.8 7784.83 0)
(575136 42420.6 0)
(-619194 644834 0)
(44977.9 -663745 0)
(-46413.2 -51158.7 0)
(-1916.47 -15307.2 0)
(-155.282 -15027.5 0)
(4.26524 -15478.7 0)
(15.4513 -16179.3 0)
(26.2357 -16898.8 0)
(1.59967 -17573.7 0)
(-23.0328 -18103.3 0)
(-63.3444 -18574.6 0)
(-91.7427 -18937.3 0)
(-119.621 -19198.6 0)
(-144.379 -19413.9 0)
(-164.64 -19543.2 0)
(-183.095 -19626.1 0)
(-194.133 -19653.4 0)
(-198.869 -19646 0)
(-171.048 -19582.6 0)
(-138.171 -19520.3 0)
(-92.9048 -19405 0)
(-14.1663 -19324.5 0)
(4.44176 -19229.4 0)
(22.1168 -19072.8 0)
(27.1171 -18763.3 0)
(14.5339 -18374.8 0)
(12.5934 -17934.5 0)
(1.39459 -17457.6 0)
(-7.92061 -16887.3 0)
(-28.4199 -16291.8 0)
(-41.886 -15612.7 0)
(-60.9571 -14914.6 0)
(-72.0511 -14090 0)
(-72.8866 -13316.4 0)
(-34.8548 -12329.5 0)
(45.0494 -11565.8 0)
(117.293 -10736.9 0)
(182.43 -10565.1 0)
(3045.55 -10461.1 0)
(44753.3 -44339.7 0)
(-43112.6 -596308 0)
(5931 -41397.1 0)
(-8828.47 -3948.09 0)
(-48.5446 -2054.97 0)
(-151.013 -1943.46 0)
(-116.313 -2005.05 0)
(-80.0975 -2049.1 0)
(-51.8009 -2113.74 0)
(-46.3297 -2143.8 0)
(-53.569 -2178.64 0)
(-68.2342 -2191.22 0)
(-80.6038 -2195.41 0)
(-90.0676 -2187.82 0)
(-96.4797 -2167.56 0)
(-96.4105 -2137.7 0)
(-93.7008 -2094.65 0)
(-83.0838 -2045.65 0)
(-69.8325 -1989.61 0)
(-57.5793 -1935.56 0)
(-54.5683 -1907.44 0)
(-58.5548 -1882.13 0)
(-63.2621 -1885.5 0)
(-67.3887 -1921.25 0)
(-60.2397 -1930.93 0)
(-44.4588 -1980.02 0)
(-24.3635 -1992.47 0)
(-9.74489 -2021.41 0)
(-0.430182 -2025.91 0)
(2.71251 -2033.45 0)
(3.25395 -2022.99 0)
(6.27863 -2007.15 0)
(7.72294 -1977.74 0)
(15.8543 -1939.12 0)
(42.8153 -1886.37 0)
(97.5748 -1819.07 0)
(186.64 -1753.14 0)
(223.294 -1692.5 0)
(340.81 -1672.92 0)
(1293.41 -1539.1 0)
(10593.3 -3360.44 0)
(-7850.15 -37031.9 0)
(4662.23 -671.219 0)
(-8501.68 -381.697 0)
(15.2636 -296.827 0)
(-107.177 -250.38 0)
(-97.5298 -206.542 0)
(-89.29 -210.771 0)
(-65.0237 -230.635 0)
(-60.9372 -245.927 0)
(-68.7308 -267.598 0)
(-79.506 -280.659 0)
(-88.4655 -291.524 0)
(-92.7828 -300.943 0)
(-96.074 -306.865 0)
(-94.3787 -313.686 0)
(-94.4004 -319.251 0)
(-92.9194 -327.708 0)
(-92.7769 -339.498 0)
(-91.8638 -354.488 0)
(-86.686 -369.907 0)
(-71.7654 -379.396 0)
(-51.8589 -381.578 0)
(-39.335 -376.532 0)
(-34.5196 -365.315 0)
(-32.1792 -356.351 0)
(-25.3481 -349.519 0)
(-19.6364 -349.533 0)
(-10.2126 -350.345 0)
(-5.10138 -350.809 0)
(-3.07127 -350.965 0)
(1.71513 -351.344 0)
(4.59968 -351.541 0)
(15.9949 -350.52 0)
(42.7937 -346.213 0)
(93.5332 -344.849 0)
(167.021 -347.674 0)
(194.596 -370.646 0)
(330.245 -382.471 0)
(1419.4 -386.714 0)
(10551.2 -204.681 0)
(-6792.58 -312.095 0)
(4102.5 275 0)
(-8467.69 -211.365 0)
(77.9979 -146.988 0)
(-64.0116 -104.632 0)
(-78.1449 -58.7504 0)
(-103.315 -69.6116 0)
(-85.678 -90.1787 0)
(-81.9487 -111.692 0)
(-87.0381 -136.744 0)
(-91.2895 -156.705 0)
(-100.151 -174.207 0)
(-104.851 -190.091 0)
(-108.759 -202.63 0)
(-108.345 -217.086 0)
(-107.213 -229.573 0)
(-102.595 -240.84 0)
(-95.6387 -248.889 0)
(-86.8819 -252.363 0)
(-78.5702 -251.713 0)
(-69.8011 -250.251 0)
(-60.5023 -252.539 0)
(-51.7179 -257.829 0)
(-40.7927 -261.153 0)
(-29.2369 -259.763 0)
(-17.7941 -254.128 0)
(-10.5404 -248.94 0)
(-1.65963 -241.964 0)
(2.11464 -237.071 0)
(2.73891 -231.105 0)
(5.72405 -226.881 0)
(8.51719 -222.09 0)
(20.9877 -216.813 0)
(48.2801 -210.138 0)
(96.1676 -205.277 0)
(161.78 -206.234 0)
(189.762 -216.629 0)
(325.325 -218.787 0)
(1464.73 -239.809 0)
(10665.2 -106.834 0)
(-6335.47 514.79 0)
(4181.1 765.583 0)
(-8908.33 -101.212 0)
(118.116 -68.0913 0)
(-22.1481 -19.4003 0)
(-63.7828 44.6142 0)
(-119.575 31.2573 0)
(-105.573 13.561 0)
(-105.809 -19.3886 0)
(-112.107 -56.9131 0)
(-115.606 -89.8381 0)
(-120.638 -113.792 0)
(-120.173 -135.681 0)
(-122.087 -152.295 0)
(-120.342 -166.391 0)
(-117.291 -176.969 0)
(-111.533 -184.96 0)
(-103.881 -190.744 0)
(-94.5849 -195.29 0)
(-84.6515 -199.051 0)
(-72.5612 -201.957 0)
(-59.1612 -203.994 0)
(-47.6357 -204.854 0)
(-36.3829 -204.928 0)
(-25.4095 -204.866 0)
(-14.9189 -204.294 0)
(-7.91497 -204.192 0)
(1.22532 -202.571 0)
(5.36316 -201.343 0)
(6.74805 -198.484 0)
(10.402 -195.21 0)
(14.3013 -190.225 0)
(27.5122 -183.912 0)
(53.9104 -177.115 0)
(97.2955 -172.332 0)
(156.081 -174.723 0)
(182.498 -182.924 0)
(307.908 -187.549 0)
(1527.28 -208.05 0)
(11278.4 -62.8286 0)
(-6431.92 1062.33 0)
(4390.21 880.197 0)
(-9271.05 -25.5438 0)
(156.835 -1.80881 0)
(44.5956 56.8203 0)
(-29.3293 143.239 0)
(-133.239 140.375 0)
(-134.482 133.85 0)
(-149.86 95.5552 0)
(-154.926 44.8874 0)
(-146.1 -3.2507 0)
(-144.327 -40.7868 0)
(-141.954 -70.8878 0)
(-138.352 -92.9334 0)
(-132.122 -110.646 0)
(-125.107 -123.156 0)
(-115.87 -132.092 0)
(-105.593 -138.056 0)
(-94.8862 -142.087 0)
(-84.9951 -144.962 0)
(-74.5645 -147.289 0)
(-63.2945 -149.748 0)
(-52.6175 -152.031 0)
(-40.8037 -153.726 0)
(-28.6264 -154.866 0)
(-17.1452 -155.329 0)
(-8.87999 -155.835 0)
(1.08658 -154.661 0)
(6.0526 -153.508 0)