/*--------------------------------*- C++ -*----------------------------------*\
| =========                 |                                                 |
| \\      /  F ield         | OpenFOAM: The Open Source CFD Toolbox           |
|  \\    /   O peration     | Version:  v1912                                 |
|   \\  /    A nd           | Website:  www.openfoam.com                      |
|    \\/     M anipulation  |                                                 |
\*---------------------------------------------------------------------------*/
FoamFile
{
    version     2.0;
    format      ascii;
    class       volVectorField;
    location    "1.08";
    object      U;
}
// * * * * * * * * * * * * * * * * * * * * * * * * * * * * * * * * * * * * * //

dimensions      [0 1 -1 0 0 0 0];


internalField   nonuniform List<vector> 
4800
(
(-6.1902 -0.000944362 0)
(-2.3204 -0.00620239 0)
(-1.04891 0.000601845 0)
(-1.07877 0.0344506 0)
(-0.945397 0.0122523 0)
(-0.765734 0.0156791 0)
(-0.547698 0.00886335 0)
(-0.325759 -0.000176843 0)
(-0.108487 -0.00406304 0)
(0.115683 -0.00116661 0)
(0.340677 0.00132487 0)
(0.513327 0.00508614 0)
(0.653216 0.00892832 0)
(0.724103 0.0101052 0)
(0.745762 0.0104604 0)
(0.762406 0.0135553 0)
(0.717424 0.0112731 0)
(0.377983 0.0107952 0)
(-0.500979 0.0109261 0)
(-0.903736 0.00864482 0)
(-0.894442 0.00409924 0)
(-0.830226 -0.00421301 0)
(-0.732134 -0.00869583 0)
(-0.632222 -0.00836332 0)
(-0.530957 -0.00382937 0)
(-0.420853 0.00244185 0)
(-0.304238 0.00610403 0)
(-0.181059 0.00617348 0)
(-0.0580371 0.00327627 0)
(0.0593729 -0.00393032 0)
(0.157924 -0.014603 0)
(0.224178 -0.0283357 0)
(0.257242 -0.0396314 0)
(0.275231 -0.0437308 0)
(0.309335 -0.0437525 0)
(0.373777 -0.0315292 0)
(0.461908 -0.0192468 0)
(0.588791 -0.00698185 0)
(0.743916 -0.00642373 0)
(0.855007 -0.0112663 0)
(-6.19 -0.00360662 0)
(-2.32044 -0.0137834 0)
(-1.05781 0.0139735 0)
(-1.08498 0.05479 0)
(-0.953738 0.0162767 0)
(-0.780274 0.00829439 0)
(-0.556431 -0.00892663 0)
(-0.323118 -0.0192531 0)
(-0.0944636 -0.0121173 0)
(0.125036 0.011538 0)
(0.342229 0.0188872 0)
(0.510638 0.0220941 0)
(0.651025 0.0296441 0)
(0.726361 0.0358741 0)
(0.749008 0.0411214 0)
(0.761475 0.0494941 0)
(0.708614 0.0328561 0)
(0.366049 0.0216063 0)
(-0.516526 0.0144346 0)
(-0.915199 -0.00245144 0)
(-0.899588 -0.0103705 0)
(-0.828481 -0.0198707 0)
(-0.725544 -0.0229696 0)
(-0.62448 -0.0145106 0)
(-0.524262 0.00190144 0)
(-0.417247 0.0149088 0)
(-0.303858 0.0198959 0)
(-0.187545 0.0132447 0)
(-0.0718936 -0.00701855 0)
(0.0360713 -0.0385321 0)
(0.130287 -0.078316 0)
(0.207994 -0.112707 0)
(0.267101 -0.122602 0)
(0.312701 -0.103758 0)
(0.357061 -0.0666904 0)
(0.399094 -0.0233622 0)
(0.468934 -0.00311804 0)
(0.585821 0.000428238 0)
(0.743762 -0.0100814 0)
(0.882108 -0.0240023 0)
(-6.18752 -0.00621055 0)
(-2.31878 -0.00207112 0)
(-1.06322 0.0234925 0)
(-1.09116 0.06432 0)
(-0.968322 0.0231954 0)
(-0.805476 0.00903691 0)
(-0.571759 -0.0153965 0)
(-0.323103 -0.0307244 0)
(-0.0815616 -0.0198422 0)
(0.138495 0.00897188 0)
(0.345435 0.0223335 0)
(0.510359 0.026654 0)
(0.65207 0.0397361 0)
(0.73732 0.0527441 0)
(0.764733 0.0592574 0)
(0.77046 0.0676285 0)
(0.701496 0.0486369 0)
(0.353158 0.0338086 0)
(-0.534342 0.0247769 0)
(-0.932707 0.00151902 0)
(-0.911286 -0.00990496 0)
(-0.831343 -0.0258498 0)
(-0.719077 -0.0273762 0)
(-0.612756 -0.0139765 0)
(-0.513378 0.00974885 0)
(-0.412453 0.027397 0)
(-0.308543 0.0314324 0)
(-0.203791 0.0178861 0)
(-0.104072 -0.013544 0)
(-0.0130693 -0.0589227 0)
(0.0748913 -0.10648 0)
(0.168297 -0.142342 0)
(0.261945 -0.155463 0)
(0.341782 -0.141645 0)
(0.395784 -0.11068 0)
(0.422103 -0.061796 0)
(0.46388 -0.0238798 0)
(0.565888 -0.0237502 0)
(0.720741 -0.0507171 0)
(0.86726 -0.0816127 0)
(-6.18179 -0.00974091 0)
(-2.31809 0.0345755 0)
(-1.06243 0.0294808 0)
(-1.09786 0.061497 0)
(-0.987554 0.0296287 0)
(-0.834423 0.0113572 0)
(-0.590103 -0.0130693 0)
(-0.327427 -0.0328399 0)
(-0.0718917 -0.0299783 0)
(0.154547 -0.00780775 0)
(0.35105 0.0135858 0)
(0.51541 0.0224448 0)
(0.65715 0.041559 0)
(0.748853 0.0601769 0)
(0.782352 0.0653634 0)
(0.781556 0.07159 0)
(0.694256 0.0618478 0)
(0.33782 0.04595 0)
(-0.558429 0.0335826 0)
(-0.952861 0.00168094 0)
(-0.924655 -0.00982181 0)
(-0.829991 -0.0246159 0)
(-0.708444 -0.0225046 0)
(-0.59855 -0.00599131 0)
(-0.500991 0.019247 0)
(-0.407211 0.0382068 0)
(-0.31437 0.038258 0)
(-0.226326 0.0170496 0)
(-0.145932 -0.0267704 0)
(-0.065603 -0.0799472 0)
(0.0302514 -0.120865 0)
(0.139553 -0.147261 0)
(0.255165 -0.159173 0)
(0.363999 -0.155471 0)
(0.434786 -0.138459 0)
(0.458279 -0.102169 0)
(0.463519 -0.0631568 0)
(0.53965 -0.0587781 0)
(0.678117 -0.0865633 0)
(0.820862 -0.127781 0)
(-6.17104 -0.0117538 0)
(-2.32105 0.0816631 0)
(-1.06054 0.0307809 0)
(-1.10308 0.0537751 0)
(-1.00519 0.0320673 0)
(-0.859206 0.0116917 0)
(-0.610432 -0.00676789 0)
(-0.337699 -0.027099 0)
(-0.0678742 -0.0385471 0)
(0.170858 -0.0325962 0)
(0.367308 -0.00965441 0)
(0.53206 0.0092822 0)
(0.666924 0.0312297 0)
(0.761406 0.0539816 0)
(0.799218 0.0647635 0)
(0.795784 0.0728238 0)
(0.698265 0.0688155 0)
(0.329169 0.0571279 0)
(-0.578632 0.0461694 0)
(-0.971616 0.0165398 0)
(-0.934439 0.00492145 0)
(-0.823232 -0.0108772 0)
(-0.695466 -0.00688419 0)
(-0.584517 0.00859144 0)
(-0.490755 0.0305455 0)
(-0.405925 0.0440471 0)
(-0.326854 0.0403901 0)
(-0.2561 0.0140588 0)
(-0.192053 -0.0363967 0)
(-0.109968 -0.0859414 0)
(-0.00133141 -0.112597 0)
(0.118601 -0.133928 0)
(0.253047 -0.147536 0)
(0.371458 -0.156467 0)
(0.453165 -0.160082 0)
(0.477379 -0.145641 0)
(0.470955 -0.112323 0)
(0.526348 -0.101872 0)
(0.645385 -0.122921 0)
(0.778073 -0.167309 0)
(-6.16308 -0.00890672 0)
(-2.32419 -0.0227512 0)
(-1.06184 0.0257582 0)
(-1.10872 0.0435384 0)
(-1.01752 0.0309303 0)
(-0.876083 0.013844 0)
(-0.628628 0.00485098 0)
(-0.353446 -0.0190048 0)
(-0.0736746 -0.0434416 0)
(0.179631 -0.0538393 0)
(0.389371 -0.0398253 0)
(0.559328 -0.0163352 0)
(0.690149 0.010293 0)
(0.781751 0.0449674 0)
(0.819127 0.0656768 0)
(0.814293 0.0701301 0)
(0.709103 0.0746914 0)
(0.328557 0.0686021 0)
(-0.592067 0.0605046 0)
(-0.990934 0.0382797 0)
(-0.94696 0.0260763 0)
(-0.820277 0.0138722 0)
(-0.686073 0.0177756 0)
(-0.574783 0.0290159 0)
(-0.485764 0.0415245 0)
(-0.41154 0.0465822 0)
(-0.347984 0.0367817 0)
(-0.292939 0.00255477 0)
(-0.232488 -0.0467299 0)
(-0.139186 -0.0819227 0)
(-0.0257794 -0.0971916 0)
(0.106004 -0.111193 0)
(0.243445 -0.136082 0)
(0.363313 -0.158335 0)
(0.451521 -0.175291 0)
(0.485238 -0.172883 0)
(0.486444 -0.146535 0)
(0.523278 -0.134186 0)
(0.619634 -0.146894 0)
(0.740551 -0.18608 0)
(-6.16951 -0.0068572 0)
(-2.31445 -0.134343 0)
(-1.06198 0.0155281 0)
(-1.11472 0.0330757 0)
(-1.02612 0.0299474 0)
(-0.883237 0.000449543 0)
(-0.64102 -0.000733 0)
(-0.370941 -0.0175346 0)
(-0.086893 -0.0447846 0)
(0.178915 -0.0650585 0)
(0.404702 -0.0640742 0)
(0.586882 -0.0477334 0)
(0.722837 -0.0194752 0)
(0.810977 0.0238454 0)
(0.850738 0.0572951 0)
(0.838563 0.0797148 0)
(0.723649 0.0837284 0)
(0.336759 0.0806599 0)
(-0.595643 0.0791113 0)
(-1.00588 0.0650986 0)
(-0.957206 0.0562012 0)
(-0.821027 0.0489742 0)
(-0.683219 0.0511565 0)
(-0.574071 0.0545809 0)
(-0.492714 0.0562611 0)
(-0.431387 0.0497871 0)
(-0.382925 0.02407 0)
(-0.332983 -0.0151663 0)
(-0.259963 -0.0515023 0)
(-0.157506 -0.0708848 0)
(-0.0424053 -0.0813317 0)
(0.0894285 -0.098188 0)
(0.224214 -0.123765 0)
(0.341492 -0.15619 0)
(0.439511 -0.179455 0)
(0.493194 -0.18088 0)
(0.50638 -0.158993 0)
(0.526796 -0.146996 0)
(0.598867 -0.151986 0)
(0.707656 -0.185501 0)
(-6.1775 -0.00729772 0)
(-2.3028 -0.12086 0)
(-1.06886 0.0107679 0)
(-1.12495 0.0250663 0)
(-1.03072 0.0204007 0)
(-0.882902 -0.00880148 0)
(-0.648891 -0.00310631 0)
(-0.386762 -0.0175774 0)
(-0.102684 -0.0416671 0)
(0.17165 -0.0666235 0)
(0.410913 -0.0727591 0)
(0.607654 -0.0698298 0)
(0.758323 -0.0473755 0)
(0.852658 -0.00266947 0)
(0.893791 0.0458564 0)
(0.873571 0.0835277 0)
(0.74294 0.0940489 0)
(0.349773 0.0967321 0)
(-0.592359 0.101931 0)
(-1.01368 0.0953278 0)
(-0.962003 0.0863269 0)
(-0.822359 0.0844916 0)
(-0.686437 0.0858605 0)
(-0.584731 0.0801597 0)
(-0.51657 0.0649081 0)
(-0.469415 0.0379564 0)
(-0.428244 0.00158543 0)
(-0.366193 -0.0291851 0)
(-0.276815 -0.0490782 0)
(-0.16993 -0.0629908 0)
(-0.0554093 -0.0675072 0)
(0.0708659 -0.0819683 0)
(0.196519 -0.117083 0)
(0.317384 -0.157294 0)
(0.426112 -0.173792 0)
(0.505337 -0.171084 0)
(0.527501 -0.151095 0)
(0.53439 -0.139786 0)
(0.582705 -0.138104 0)
(0.67644 -0.171642 0)
(-6.18725 -0.0061329 0)
(-2.28569 -0.127963 0)
(-1.07797 0.0085448 0)
(-1.1365 0.0187051 0)
(-1.03335 0.0162738 0)
(-0.879795 -0.0162055 0)
(-0.653609 -0.00941382 0)
(-0.398711 -0.0179858 0)
(-0.118302 -0.0377497 0)
(0.16167 -0.0610579 0)
(0.410028 -0.0752785 0)
(0.621065 -0.0735138 0)
(0.787887 -0.0635356 0)
(0.897081 -0.0296862 0)
(0.945451 0.0246672 0)
(0.920075 0.0830749 0)
(0.770166 0.0988253 0)
(0.367306 0.111063 0)
(-0.590453 0.120468 0)
(-1.02326 0.120909 0)
(-0.966999 0.112023 0)
(-0.82696 0.113031 0)
(-0.697618 0.110795 0)
(-0.609397 0.0967049 0)
(-0.556551 0.0674846 0)
(-0.520896 0.0259794 0)
(-0.47116 -0.0124368 0)
(-0.389914 -0.0305073 0)
(-0.289386 -0.041283 0)
(-0.180129 -0.0472957 0)
(-0.069983 -0.0529001 0)
(0.0457914 -0.0720691 0)
(0.168096 -0.10614 0)
(0.29869 -0.137271 0)
(0.423912 -0.145042 0)
(0.515349 -0.143599 0)
(0.548084 -0.129525 0)
(0.538985 -0.120557 0)
(0.561977 -0.122205 0)
(0.641903 -0.158353 0)
(-6.19771 -0.005759 0)
(-2.26913 -0.0938247 0)
(-1.0887 0.00973424 0)
(-1.14725 0.0162964 0)
(-1.0374 0.010775 0)
(-0.878735 -0.023778 0)
(-0.657607 -0.0185966 0)
(-0.406869 -0.0211432 0)
(-0.131043 -0.0334223 0)
(0.150108 -0.0534682 0)
(0.405247 -0.0700662 0)
(0.628182 -0.0718883 0)
(0.808556 -0.0676306 0)
(0.93463 -0.0471646 0)
(1.0001 -0.00134821 0)
(0.977918 0.0657291 0)
(0.813461 0.104481 0)
(0.385917 0.123081 0)
(-0.5869 0.134767 0)
(-1.03385 0.143682 0)
(-0.975672 0.127785 0)
(-0.835794 0.126595 0)
(-0.717688 0.118357 0)
(-0.647099 0.0964001 0)
(-0.608263 0.0583506 0)
(-0.573059 0.0185667 0)
(-0.503468 -0.00332146 0)
(-0.406152 -0.0144232 0)
(-0.298689 -0.0200135 0)
(-0.192855 -0.026653 0)
(-0.088157 -0.0372868 0)
(0.0224499 -0.0558209 0)
(0.148055 -0.0780228 0)
(0.290496 -0.0975009 0)
(0.425134 -0.105897 0)
(0.522473 -0.111676 0)
(0.559594 -0.107463 0)
(0.539084 -0.104519 0)
(0.538468 -0.112045 0)
(0.606551 -0.146383 0)
(-6.20866 -0.00493112 0)
(-2.25474 -0.0900062 0)
(-1.09916 0.0138715 0)
(-1.15862 0.0180323 0)
(-1.04548 0.00796498 0)
(-0.881782 -0.0257789 0)
(-0.661115 -0.0254091 0)
(-0.410062 -0.0251409 0)
(-0.137115 -0.0307479 0)
(0.141897 -0.0431383 0)
(0.4018 -0.054527 0)
(0.62897 -0.0573222 0)
(0.820577 -0.0585909 0)
(0.95981 -0.0463192 0)
(1.04289 -0.0228714 0)
(1.03479 0.0287889 0)
(0.873461 0.0919121 0)
(0.410386 0.122358 0)
(-0.577555 0.139383 0)
(-1.04731 0.155359 0)
(-0.98923 0.133292 0)
(-0.853595 0.121644 0)
(-0.747923 0.101202 0)
(-0.688871 0.0755085 0)
(-0.655976 0.049857 0)
(-0.60636 0.0281026 0)
(-0.52323 0.0129813 0)
(-0.4212 0.0100003 0)
(-0.313908 0.00562986 0)
(-0.209227 -0.00204348 0)
(-0.105638 -0.0143364 0)
(0.00640722 -0.029197 0)
(0.138756 -0.0391171 0)
(0.285544 -0.0531394 0)
(0.421262 -0.0687539 0)
(0.520287 -0.0858412 0)
(0.560153 -0.0946105 0)
(0.532987 -0.0990609 0)
(0.517426 -0.106845 0)
(0.573281 -0.134109 0)
(-6.21664 -0.00480407 0)
(-2.24548 -0.0286069 0)
(-1.10783 0.0239579 0)
(-1.16895 0.0205405 0)
(-1.05477 0.00658621 0)
(-0.88836 -0.0227809 0)
(-0.665234 -0.0271991 0)
(-0.409533 -0.0273221 0)
(-0.135862 -0.0276238 0)
(0.140635 -0.0314279 0)
(0.402254 -0.033777 0)
(0.627603 -0.0336106 0)
(0.825673 -0.0372453 0)
(0.969228 -0.0371919 0)
(1.06424 -0.0304743 0)
(1.07857 -0.00871349 0)
(0.947473 0.0531478 0)
(0.45107 0.10053 0)
(-0.559362 0.129521 0)
(-1.062 0.150928 0)
(-1.01298 0.120118 0)
(-0.883998 0.0984257 0)
(-0.785901 0.0713434 0)
(-0.727539 0.0530634 0)
(-0.682344 0.037179 0)
(-0.618604 0.0348692 0)
(-0.529771 0.0399862 0)
(-0.431619 0.0397769 0)
(-0.331112 0.0358299 0)
(-0.229549 0.0261549 0)
(-0.123591 0.0122107 0)
(-0.00471349 0.00200757 0)
(0.130626 -0.00207566 0)
(0.274031 -0.0161897 0)
(0.405565 -0.0397505 0)
(0.50439 -0.0697812 0)
(0.549285 -0.0931554 0)
(0.525956 -0.101339 0)
(0.50542 -0.103411 0)
(0.545151 -0.116139 0)
(-6.21869 -0.00415333 0)
(-2.24718 0.00605901 0)
(-1.1199 0.0363732 0)
(-1.18243 0.0230169 0)
(-1.0672 0.00951489 0)
(-0.897706 -0.00949771 0)
(-0.669907 -0.0212832 0)
(-0.407579 -0.0257051 0)
(-0.129353 -0.0204695 0)
(0.14646 -0.0193845 0)
(0.407177 -0.014542 0)
(0.627336 -0.00866693 0)
(0.824853 -0.0120182 0)
(0.964854 -0.0220852 0)
(1.05907 -0.0303562 0)
(1.09403 -0.0360809 0)
(1.00907 -0.00308604 0)
(0.509986 0.0475274 0)
(-0.533058 0.0942273 0)
(-1.06704 0.122727 0)
(-1.0508 0.10392 0)
(-0.925837 0.0711968 0)
(-0.823867 0.0422124 0)
(-0.752221 0.0280316 0)
(-0.68975 0.0332865 0)
(-0.621018 0.0470864 0)
(-0.538313 0.0587135 0)
(-0.446055 0.0625064 0)
(-0.351688 0.0618392 0)
(-0.250013 0.0543997 0)
(-0.137478 0.0425957 0)
(-0.0146319 0.0332423 0)
(0.117852 0.0290448 0)
(0.253776 0.0129643 0)
(0.377953 -0.0185267 0)
(0.476395 -0.0585219 0)
(0.529872 -0.0960413 0)
(0.522665 -0.10181 0)
(0.505011 -0.0984378 0)
(0.523192 -0.0908861 0)
(-6.21765 -0.00246163 0)
(-2.25335 0.0468496 0)
(-1.13712 0.0427982 0)
(-1.20124 0.0304594 0)
(-1.08488 0.00861116 0)
(-0.911814 -0.000841451 0)
(-0.67656 -0.013013 0)
(-0.406826 -0.0183459 0)
(-0.121895 -0.00801225 0)
(0.156288 -0.00301975 0)
(0.413503 0.00341997 0)
(0.628332 0.00824986 0)
(0.817852 0.00832458 0)
(0.950914 -0.00657896 0)
(1.03735 -0.0278481 0)
(1.08157 -0.0510804 0)
(1.0326 -0.0502231 0)
(0.576946 -0.0197385 0)
(-0.496793 0.0329248 0)
(-1.05811 0.0699759 0)
(-1.09129 0.0771809 0)
(-0.969583 0.0449657 0)
(-0.851721 0.0172575 0)
(-0.760623 0.0118602 0)
(-0.685041 0.0261489 0)
(-0.614055 0.0479461 0)
(-0.539617 0.0653849 0)
(-0.457767 0.0753716 0)
(-0.366636 0.0806785 0)
(-0.266098 0.0792724 0)
(-0.150852 0.0706959 0)
(-0.0276431 0.0617238 0)
(0.098641 0.0555465 0)
(0.224429 0.0363631 0)
(0.34117 -0.00118475 0)
(0.440419 -0.0474393 0)
(0.5038 -0.0955376 0)
(0.524361 -0.09522 0)
(0.51372 -0.0872053 0)
(0.516553 -0.0595063 0)
(-6.21303 -0.00205821 0)
(-2.27131 0.105443 0)
(-1.15424 0.0447938 0)
(-1.22388 0.0270319 0)
(-1.10377 0.00244219 0)
(-0.922861 0.00984009 0)
(-0.680691 -0.0052426 0)
(-0.405776 -0.0112347 0)
(-0.114011 0.00364514 0)
(0.16651 0.0160752 0)
(0.418134 0.0244864 0)
(0.625637 0.0300381 0)
(0.803126 0.0256147 0)
(0.927947 0.00688937 0)
(1.00043 -0.0329422 0)
(1.04895 -0.0744429 0)
(1.0227 -0.0864923 0)
(0.623375 -0.0784519 0)
(-0.456449 -0.036795 0)
(-1.03576 0.00728179 0)
(-1.11096 0.0343015 0)
(-1.00003 0.013968 0)
(-0.867252 -0.0027136 0)
(-0.759058 -0.00270665 0)
(-0.671966 0.0124665 0)
(-0.600696 0.0342812 0)
(-0.53468 0.0547803 0)
(-0.4595 0.0718992 0)
(-0.372328 0.0862419 0)
(-0.276361 0.0939553 0)
(-0.163701 0.0938055 0)
(-0.044972 0.0869576 0)
(0.0712047 0.0772159 0)
(0.18504 0.0542669 0)
(0.295047 0.0137671 0)
(0.399245 -0.0327787 0)
(0.474655 -0.0822343 0)
(0.527658 -0.0873034 0)
(0.533773 -0.0671197 0)
(0.523407 -0.0274948 0)
(-6.20447 -0.0016692 0)
(-2.29401 0.13731 0)
(-1.16281 0.0428777 0)
(-1.24478 0.0235333 0)
(-1.12474 -0.00326372 0)
(-0.932609 0.0178038 0)
(-0.679948 0.00231211 0)
(-0.401047 -0.00583264 0)
(-0.103914 0.00862162 0)
(0.178694 0.0290284 0)
(0.423589 0.0394853 0)
(0.624104 0.0474836 0)
(0.783467 0.0442422 0)
(0.894598 0.0145558 0)
(0.948793 -0.0427383 0)
(1.00245 -0.0978216 0)
(0.997161 -0.111296 0)
(0.640428 -0.119542 0)
(-0.422475 -0.0914742 0)
(-1.0041 -0.0531387 0)
(-1.10811 -0.0244904 0)
(-1.01609 -0.0162402 0)
(-0.874735 -0.0209044 0)
(-0.754753 -0.0181381 0)
(-0.657822 -0.00787077 0)
(-0.584616 0.00787744 0)
(-0.523636 0.0285952 0)
(-0.454728 0.0528628 0)
(-0.369115 0.0777119 0)
(-0.273083 0.0960676 0)
(-0.169125 0.107254 0)
(-0.0646625 0.105895 0)
(0.0375163 0.0955197 0)
(0.138313 0.0694711 0)
(0.243786 0.0310708 0)
(0.353748 -0.0152011 0)
(0.451725 -0.0552912 0)
(0.524158 -0.0692972 0)
(0.554118 -0.041908 0)
(0.539542 0.000535739 0)
(-6.19388 -0.000271336 0)
(-2.31638 0.159647 0)
(-1.1561 0.0357599 0)
(-1.26003 0.0175348 0)
(-1.15035 -0.00839958 0)
(-0.941534 0.023012 0)
(-0.674648 0.00792738 0)
(-0.391343 -0.0017541 0)
(-0.092274 0.00797011 0)
(0.190846 0.0357048 0)
(0.430854 0.0464122 0)
(0.620398 0.055394 0)
(0.757289 0.0522269 0)
(0.845147 0.0100081 0)
(0.887486 -0.0577332 0)
(0.954381 -0.113083 0)
(0.970255 -0.121633 0)
(0.64024 -0.134186 0)
(-0.401181 -0.123249 0)
(-0.981835 -0.102078 0)
(-1.08863 -0.0807161 0)
(-1.01492 -0.054553 0)
(-0.873054 -0.041937 0)
(-0.748439 -0.0341591 0)
(-0.646402 -0.0288123 0)
(-0.56999 -0.0219688 0)
(-0.506973 -0.00594809 0)
(-0.43731 0.0230255 0)
(-0.352089 0.0588596 0)
(-0.25932 0.0873343 0)
(-0.165826 0.107045 0)
(-0.0800162 0.112274 0)
(0.00114028 0.106009 0)
(0.0892752 0.08151 0)
(0.193282 0.0489548 0)
(0.313078 0.011497 0)
(0.430446 -0.0196 0)
(0.516083 -0.038513 0)
(0.571986 -0.0155832 0)
(0.567369 0.0197002 0)
(-6.18022 -7.72792e-05 0)
(-2.33155 0.234288 0)
(-1.13051 0.0190821 0)
(-1.26351 0.00238788 0)
(-1.17863 -0.00601023 0)
(-0.947589 0.0250732 0)
(-0.667592 0.00962057 0)
(-0.378087 0.00406972 0)
(-0.0784927 0.00627099 0)
(0.202168 0.0353599 0)
(0.435846 0.046504 0)
(0.611887 0.0503813 0)
(0.726244 0.0413925 0)
(0.784079 -0.00571459 0)
(0.827599 -0.0709757 0)
(0.914268 -0.112114 0)
(0.94952 -0.117899 0)
(0.635728 -0.133954 0)
(-0.393811 -0.124838 0)
(-0.975658 -0.125021 0)
(-1.07145 -0.118108 0)
(-0.998949 -0.0951668 0)
(-0.862872 -0.071619 0)
(-0.741686 -0.0558686 0)
(-0.640858 -0.0514554 0)
(-0.561525 -0.0503887 0)
(-0.489941 -0.0402874 0)
(-0.411463 -0.0135983 0)
(-0.324197 0.0273789 0)
(-0.234691 0.0656301 0)
(-0.154527 0.0940135 0)
(-0.0893826 0.107412 0)
(-0.0256476 0.108768 0)
(0.0483354 0.0945918 0)
(0.151141 0.0716893 0)
(0.279783 0.045206 0)
(0.409985 0.0219444 0)
(0.506147 -0.00327647 0)
(0.582316 0.00741706 0)
(0.595492 0.030513 0)
(-6.16175 0.000703114 0)
(-2.31587 0.299811 0)
(-1.0951 -0.0106362 0)
(-1.24899 -0.0194369 0)
(-1.19345 -0.00130401 0)
(-0.951131 0.0245583 0)
(-0.660031 0.0078566 0)
(-0.363327 0.00958789 0)
(-0.063213 0.00592577 0)
(0.211931 0.032483 0)
(0.436699 0.0398341 0)
(0.598472 0.0340279 0)
(0.690447 0.0141417 0)
(0.723849 -0.0289989 0)
(0.78243 -0.076195 0)
(0.884887 -0.0950449 0)
(0.933339 -0.105569 0)
(0.630123 -0.123357 0)
(-0.390945 -0.121439 0)
(-0.981807 -0.123873 0)
(-1.06804 -0.123858 0)
(-0.980656 -0.113031 0)
(-0.846664 -0.0955409 0)
(-0.731125 -0.0806519 0)
(-0.635786 -0.0754973 0)
(-0.556013 -0.0753929 0)
(-0.475184 -0.0688728 0)
(-0.385507 -0.0472746 0)
(-0.291772 -0.00988191 0)
(-0.202165 0.0313394 0)
(-0.133571 0.0678807 0)
(-0.0865573 0.0935203 0)
(-0.0390516 0.107319 0)
(0.027224 0.109235 0)
(0.122763 0.102041 0)
(0.253658 0.0834015 0)
(0.387821 0.0627129 0)
(0.49488 0.0341885 0)
(0.580971 0.0278241 0)
(0.621398 0.0450469 0)
(-6.14423 0.00357375 0)
(-2.19852 0.249795 0)
(-1.05853 -0.0557157 0)
(-1.22739 -0.0502101 0)
(-1.1904 -0.0144649 0)
(-0.947027 0.0237061 0)
(-0.652 0.00535578 0)
(-0.348437 0.0119079 0)
(-0.0474153 0.0114652 0)
(0.220326 0.0284809 0)
(0.434773 0.0287092 0)
(0.579135 0.0104032 0)
(0.649136 -0.0151649 0)
(0.676255 -0.0517804 0)
(0.755015 -0.07565 0)
(0.865922 -0.0775009 0)
(0.918012 -0.0915472 0)
(0.620976 -0.105254 0)
(-0.389273 -0.107992 0)
(-0.991939 -0.112776 0)
(-1.06926 -0.11398 0)
(-0.973484 -0.107954 0)
(-0.837713 -0.10137 0)
(-0.72369 -0.0968224 0)
(-0.629625 -0.0957059 0)
(-0.548424 -0.0952491 0)
(-0.462195 -0.0891609 0)
(-0.364718 -0.0714725 0)
(-0.261298 -0.0403851 0)
(-0.16998 -0.00398542 0)
(-0.103797 0.0336833 0)
(-0.0662246 0.0698105 0)
(-0.0354022 0.101881 0)
(0.0223116 0.120809 0)
(0.10637 0.128 0)
(0.230483 0.119081 0)
(0.365446 0.104419 0)
(0.481262 0.0788461 0)
(0.572113 0.0579561 0)
(0.642285 0.0721203 0)
(-6.13588 0.00693073 0)
(-1.96197 0.0110915 0)
(-1.0228 -0.10067 0)
(-1.18549 -0.0762216 0)
(-1.1678 -0.0308494 0)
(-0.938236 0.0121916 0)
(-0.64412 0.00773992 0)
(-0.332537 0.0118926 0)
(-0.032108 0.0187334 0)
(0.224722 0.0264132 0)
(0.42244 0.0135169 0)
(0.553088 -0.0107598 0)
(0.613106 -0.0468183 0)
(0.65123 -0.0697304 0)
(0.743365 -0.0726144 0)
(0.853137 -0.067384 0)
(0.901513 -0.0803526 0)
(0.608146 -0.0887726 0)
(-0.389637 -0.0919292 0)
(-0.999005 -0.0946122 0)
(-1.06963 -0.0951402 0)
(-0.972087 -0.0938562 0)
(-0.837131 -0.0954242 0)
(-0.72317 -0.100082 0)
(-0.626177 -0.104085 0)
(-0.538652 -0.104748 0)
(-0.448435 -0.0968304 0)
(-0.344882 -0.0789741 0)
(-0.239096 -0.0557575 0)
(-0.146927 -0.0301529 0)
(-0.0752076 0.00114612 0)
(-0.0335574 0.0374777 0)
(-0.00840527 0.0813425 0)
(0.0315803 0.122688 0)
(0.10559 0.146201 0)
(0.209711 0.149721 0)
(0.34171 0.142017 0)
(0.463193 0.123069 0)
(0.55925 0.1006 0)
(0.653332 0.110119 0)
(-6.14071 0.00746571 0)
(-2.03682 -0.107071 0)
(-1.00374 -0.135338 0)
(-1.13321 -0.103783 0)
(-1.12304 -0.051293 0)
(-0.922 0.00482812 0)
(-0.634941 0.0145285 0)
(-0.319329 0.016797 0)
(-0.0219327 0.0260308 0)
(0.224361 0.0165452 0)
(0.405564 -0.00793353 0)
(0.531467 -0.0347697 0)
(0.588282 -0.0676668 0)
(0.648031 -0.079046 0)
(0.745155 -0.0671383 0)
(0.848632 -0.0558569 0)
(0.88369 -0.0750476 0)
(0.59035 -0.0812077 0)
(-0.391668 -0.0829551 0)
(-1.00275 -0.0781027 0)
(-1.06984 -0.074518 0)
(-0.977061 -0.0746205 0)
(-0.843809 -0.0797563 0)
(-0.728794 -0.0917793 0)
(-0.624086 -0.101129 0)
(-0.528294 -0.101044 0)
(-0.432344 -0.0908383 0)
(-0.33139 -0.0739241 0)
(-0.229538 -0.0561294 0)
(-0.136628 -0.0403429 0)
(-0.0562638 -0.0211207 0)
(0.00172908 0.0059142 0)
(0.0390311 0.0530113 0)
(0.0656291 0.110041 0)
(0.118759 0.149852 0)
(0.204413 0.168691 0)
(0.321453 0.175389 0)
(0.447762 0.169683 0)
(0.552626 0.154061 0)
(0.658716 0.155284 0)
(-6.1496 0.00777128 0)
(-2.17136 -0.186764 0)
(-1.00605 -0.151056 0)
(-1.08615 -0.122893 0)
(-1.06226 -0.0644766 0)
(-0.896014 -0.0115497 0)
(-0.622611 0.0245126 0)
(-0.312332 0.0244966 0)
(-0.0181156 0.0324172 0)
(0.221326 0.00585096 0)
(0.38902 -0.0229284 0)
(0.508652 -0.045494 0)
(0.578892 -0.0728818 0)
(0.658246 -0.0762048 0)
(0.75674 -0.060552 0)
(0.846248 -0.0481996 0)
(0.863353 -0.0724541 0)
(0.569948 -0.0827181 0)
(-0.387984 -0.0804821 0)
(-1.0007 -0.0660435 0)
(-1.06671 -0.0579299 0)
(-0.986653 -0.0567726 0)
(-0.859333 -0.0631544 0)
(-0.743145 -0.0791043 0)
(-0.625288 -0.0901726 0)
(-0.518083 -0.0895174 0)
(-0.41818 -0.080118 0)
(-0.321744 -0.0651794 0)
(-0.227264 -0.0499615 0)
(-0.13579 -0.0400719 0)
(-0.0510841 -0.0299038 0)
(0.0261594 -0.0170005 0)
(0.0840714 0.0157689 0)
(0.119444 0.0723995 0)
(0.150225 0.131515 0)
(0.219596 0.170562 0)
(0.316995 0.196001 0)
(0.438561 0.207681 0)
(0.55195 0.204576 0)
(0.656014 0.194624 0)
(-6.16484 0.00864809 0)
(-2.29223 -0.252441 0)
(-1.01614 -0.143706 0)
(-1.05945 -0.107834 0)
(-0.991935 -0.0720676 0)
(-0.859215 -0.0246722 0)
(-0.609249 0.0239261 0)
(-0.312334 0.0295128 0)
(-0.019648 0.0328901 0)
(0.215359 -0.00162415 0)
(0.37791 -0.0273886 0)
(0.495309 -0.0451255 0)
(0.584268 -0.0666428 0)
(0.677614 -0.065053 0)
(0.77094 -0.0502728 0)
(0.842749 -0.0415033 0)
(0.839592 -0.0734929 0)
(0.54884 -0.0875964 0)
(-0.375735 -0.0820114 0)
(-0.992725 -0.0589943 0)
(-1.05762 -0.0434896 0)
(-0.99463 -0.0410879 0)
(-0.874888 -0.0435819 0)
(-0.757798 -0.0581275 0)
(-0.628287 -0.0706876 0)
(-0.510451 -0.072867 0)
(-0.407621 -0.066624 0)
(-0.316027 -0.0536155 0)
(-0.229536 -0.0405333 0)
(-0.141668 -0.0346381 0)
(-0.0530259 -0.030522 0)
(0.0322351 -0.0272133 0)
(0.110675 -0.0135337 0)
(0.1691 0.0224049 0)
(0.207223 0.0825903 0)
(0.255048 0.147247 0)
(0.339718 0.200143 0)
(0.438972 0.236731 0)
(0.550152 0.237349 0)
(0.641688 0.213992 0)
(-6.1823 0.00847484 0)
(-2.33631 -0.21711 0)
(-1.02298 -0.120785 0)
(-1.04141 -0.0623691 0)
(-0.932309 -0.058635 0)
(-0.819423 -0.0266282 0)
(-0.593639 0.0167712 0)
(-0.314592 0.0297178 0)
(-0.0263366 0.0289983 0)
(0.207282 -0.00358441 0)
(0.374985 -0.021246 0)
(0.491491 -0.0386723 0)
(0.598306 -0.0520532 0)
(0.700905 -0.052869 0)
(0.785404 -0.0397196 0)
(0.834698 -0.0364697 0)
(0.812044 -0.0739133 0)
(0.529077 -0.0919494 0)
(-0.354884 -0.08233 0)
(-0.979634 -0.0567859 0)
(-1.03995 -0.0364065 0)
(-0.996578 -0.0297453 0)
(-0.888216 -0.0273342 0)
(-0.771665 -0.0359689 0)
(-0.634711 -0.0483194 0)
(-0.507589 -0.0524297 0)
(-0.401786 -0.0505678 0)
(-0.314213 -0.0403715 0)
(-0.233407 -0.0298901 0)
(-0.150528 -0.0252691 0)
(-0.061819 -0.0240812 0)
(0.0290662 -0.0275276 0)
(0.116158 -0.0280031 0)
(0.198447 -0.0135066 0)
(0.266117 0.0243705 0)
(0.32224 0.092373 0)
(0.388761 0.171359 0)
(0.461644 0.234223 0)
(0.545427 0.240468 0)
(0.602765 0.208512 0)
(-6.19596 0.00634158 0)
(-2.33634 -0.163298 0)
(-1.02842 -0.0845468 0)
(-1.02142 -0.0113836 0)
(-0.895138 -0.028038 0)
(-0.784636 -0.0197194 0)
(-0.576241 0.00927926 0)
(-0.315309 0.0243038 0)
(-0.0357851 0.0269626 0)
(0.197016 0.00539834 0)
(0.376525 -0.00718232 0)
(0.493188 -0.0264024 0)
(0.615631 -0.035383 0)
(0.724206 -0.0400023 0)
(0.799402 -0.0301991 0)
(0.822806 -0.0354744 0)
(0.78154 -0.0731028 0)
(0.510574 -0.0945228 0)
(-0.327955 -0.0800663 0)
(-0.960545 -0.0564759 0)
(-1.01785 -0.0333841 0)
(-0.990163 -0.0233109 0)
(-0.895862 -0.0165909 0)
(-0.781227 -0.0167399 0)
(-0.643208 -0.024831 0)
(-0.508318 -0.0295965 0)
(-0.398479 -0.0319931 0)
(-0.312209 -0.0274666 0)
(-0.235507 -0.0192593 0)
(-0.159538 -0.0134866 0)
(-0.0762262 -0.015594 0)
(0.0165003 -0.02512 0)
(0.114523 -0.0293484 0)
(0.213687 -0.0238091 0)
(0.307638 -0.00526445 0)
(0.395429 0.0364248 0)
(0.462926 0.107832 0)
(0.498976 0.175838 0)
(0.527709 0.187988 0)
(0.552551 0.153291 0)
(-6.20304 0.00279886 0)
(-2.32517 -0.0809679 0)
(-1.03355 -0.0412651 0)
(-1.01247 0.0343529 0)
(-0.879016 0.00406195 0)
(-0.764438 -0.00275006 0)
(-0.563682 0.0145244 0)
(-0.31216 0.024255 0)
(-0.0425937 0.0226266 0)
(0.186837 0.0180284 0)
(0.375314 0.00867897 0)
(0.492693 -0.0113814 0)
(0.627147 -0.0178113 0)
(0.741057 -0.0243863 0)
(0.808694 -0.0212405 0)
(0.809405 -0.0342594 0)
(0.749639 -0.073361 0)
(0.491724 -0.0950308 0)
(-0.29523 -0.0746582 0)
(-0.933746 -0.053527 0)
(-0.999711 -0.029425 0)
(-0.975285 -0.0206017 0)
(-0.894142 -0.00783895 0)
(-0.785878 -0.00140272 0)
(-0.652374 -0.00516669 0)
(-0.511412 -0.00908585 0)
(-0.397462 -0.0117778 0)
(-0.311962 -0.0100306 0)
(-0.237909 -0.0062193 0)
(-0.167764 -0.00289845 0)
(-0.0907829 -0.00788551 0)
(0.00276846 -0.0193405 0)
(0.109823 -0.0282926 0)
(0.225267 -0.0239015 0)
(0.338177 -0.00504953 0)
(0.440992 0.0151106 0)
(0.521451 0.0499389 0)
(0.539645 0.0873029 0)
(0.517518 0.0930818 0)
(0.506622 0.0575948 0)
(-6.20457 -0.00101279 0)
(-2.3162 -0.0411257 0)
(-1.03286 0.00561881 0)
(-1.01094 0.0756036 0)
(-0.878996 0.038392 0)
(-0.761274 0.0211231 0)
(-0.558636 0.0236097 0)
(-0.310073 0.029382 0)
(-0.0480342 0.0246055 0)
(0.177824 0.0180611 0)
(0.370685 0.0146326 0)
(0.489778 -0.00191878 0)
(0.632921 -0.00713081 0)
(0.75022 -0.0112185 0)
(0.808579 -0.013318 0)
(0.79083 -0.0313592 0)
(0.718466 -0.0719191 0)
(0.477045 -0.0894648 0)
(-0.258836 -0.0648226 0)
(-0.906125 -0.0448143 0)
(-0.983089 -0.0233484 0)
(-0.955632 -0.0180806 0)
(-0.882542 -0.0034245 0)
(-0.782801 0.0106383 0)
(-0.658917 0.0163372 0)
(-0.514833 0.0140506 0)
(-0.396902 0.00953491 0)
(-0.309007 0.00726234 0)
(-0.235702 0.00846715 0)
(-0.172691 0.0106756 0)
(-0.0990901 0.00345071 0)
(-0.00688137 -0.00684847 0)
(0.110511 -0.0161212 0)
(0.239255 -0.0129021 0)
(0.36262 0.0048348 0)
(0.465772 0.0264909 0)
(0.534689 0.0347765 0)
(0.536042 0.0131666 0)
(0.498954 -0.0178295 0)
(0.494348 -0.0502118 0)
(-6.20355 -0.00435642 0)
(-2.30569 -0.045863 0)
(-1.02159 0.0491418 0)
(-1.00828 0.100289 0)
(-0.885164 0.0644474 0)
(-0.767958 0.0445082 0)
(-0.560122 0.0398217 0)
(-0.30931 0.039375 0)
(-0.0524915 0.0275575 0)
(0.167937 0.0173871 0)
(0.35841 0.0112985 0)
(0.482934 -0.00345575 0)
(0.632951 -0.000662273 0)
(0.749558 0.00627349 0)
(0.800127 -0.00462348 0)
(0.768697 -0.0306038 0)
(0.689836 -0.0677475 0)
(0.472288 -0.0761565 0)
(-0.218632 -0.0487964 0)
(-0.882599 -0.0287775 0)
(-0.968544 -0.0131114 0)
(-0.935338 -0.0102877 0)
(-0.863707 0.00241094 0)
(-0.77157 0.0194675 0)
(-0.66109 0.0360865 0)
(-0.516567 0.0360185 0)
(-0.393374 0.0307321 0)
(-0.301266 0.0248994 0)
(-0.229922 0.0247999 0)
(-0.174087 0.0265159 0)
(-0.102093 0.0163655 0)
(-0.00903007 0.0104124 0)
(0.116499 0.00368091 0)
(0.256174 0.00477022 0)
(0.382108 0.0132481 0)
(0.4778 0.020481 0)
(0.51509 -0.000997461 0)
(0.495736 -0.058386 0)
(0.470785 -0.113893 0)
(0.512384 -0.126292 0)
(-6.20081 -0.00700775 0)
(-2.29673 -0.0134849 0)
(-1.0211 0.0854065 0)
(-1.01496 0.110319 0)
(-0.90019 0.0857003 0)
(-0.78223 0.0616975 0)
(-0.568508 0.0560041 0)
(-0.31769 0.0518227 0)
(-0.0663936 0.0365105 0)
(0.149266 0.0133963 0)
(0.336361 0.00493093 0)
(0.473469 -0.00637188 0)
(0.632283 0.00282997 0)
(0.745117 0.0151024 0)
(0.785661 0.00102934 0)
(0.746073 -0.0300661 0)
(0.666869 -0.0584022 0)
(0.478743 -0.0544248 0)
(-0.175368 -0.0273798 0)
(-0.862669 -0.00567522 0)
(-0.955648 0.000187668 0)
(-0.914669 0.00379226 0)
(-0.840123 0.0152849 0)
(-0.751515 0.0321521 0)
(-0.649594 0.0513589 0)
(-0.512223 0.0563126 0)
(-0.387796 0.0508977 0)
(-0.291664 0.0422069 0)
(-0.22123 0.0410474 0)
(-0.168631 0.0412463 0)
(-0.0963589 0.0292788 0)
(-0.00100037 0.0291787 0)
(0.128518 0.0268743 0)
(0.270971 0.0252656 0)
(0.390762 0.0217227 0)
(0.468565 0.00851007 0)
(0.470694 -0.0411988 0)
(0.437605 -0.112259 0)
(0.452011 -0.16605 0)
(0.541849 -0.157492 0)
(-6.19702 -0.0103181 0)
(-2.2925 -9.33462e-05 0)
(-1.01574 0.109925 0)
(-1.02974 0.102142 0)
(-0.92189 0.104337 0)
(-0.794937 0.0789746 0)
(-0.579062 0.0732545 0)
(-0.337115 0.0673268 0)
(-0.097026 0.04446 0)
(0.116943 0.00858421 0)
(0.312087 -0.0110991 0)
(0.46797 -0.0155693 0)
(0.633635 0.00133752 0)
(0.738929 0.0123686 0)
(0.768429 0.00379837 0)
(0.727364 -0.0299422 0)
(0.655045 -0.0445739 0)
(0.496922 -0.030081 0)
(-0.132616 -0.00446338 0)
(-0.846826 0.0205209 0)
(-0.945634 0.0150706 0)
(-0.892546 0.0179017 0)
(-0.810777 0.0284375 0)
(-0.723996 0.0451493 0)
(-0.628043 0.0684487 0)