/*--------------------------------*- C++ -*----------------------------------*\
| =========                 |                                                 |
| \\      /  F ield         | OpenFOAM: The Open Source CFD Toolbox           |
|  \\    /   O peration     | Version:  v1912                                 |
|   \\  /    A nd           | Website:  www.openfoam.com                      |
|    \\/     M anipulation  |                                                 |
\*---------------------------------------------------------------------------*/
FoamFile
{
    version     2.0;
    format      ascii;
    class       volVectorField;
    location    "1.24";
    object      grad(rho);
}
// * * * * * * * * * * * * * * * * * * * * * * * * * * * * * * * * * * * * * //

dimensions      [1 -4 0 0 0 0 0];


internalField   nonuniform List<vector> 
1900
(
(-0.0389946 2.61465e-05 0)
(0.462195 -1.40852e-05 0)
(23.097 -0.000292953 0)
(268.038 -0.10028 0)
(1054.47 -1.83255 0)
(1921.56 -7.97814 0)
(1996.57 -10.5061 0)
(1208 -25.8407 0)
(711.835 5.11461 0)
(-41.0043 -122.679 0)
(-0.0389825 4.19536e-05 0)
(0.461876 -3.27787e-05 0)
(22.9968 0.000100201 0)
(266.206 -0.130627 0)
(1046.59 -2.52865 0)
(1912.89 -10.7085 0)
(1978.71 -12.6229 0)
(1223.62 -38.9862 0)
(614.997 20.7935 0)
(209.913 -204.067 0)
(-0.0389854 4.86722e-09 0)
(0.462254 -2.43361e-09 0)
(22.9664 1.247e-08 0)
(265.51 1.56319e-09 0)
(1043.89 -1.27898e-08 0)
(1911.47 -1.96998e-08 0)
(1968.3 -3.09086e-09 0)
(1241.42 3.6593e-09 0)
(546.754 5.68434e-09 0)
(125.705 3.42837e-09 0)
(-0.0389825 -4.19438e-05 0)
(0.461876 3.27736e-05 0)
(22.9968 -0.000100187 0)
(266.206 0.130627 0)
(1046.59 2.52865 0)
(1912.89 10.7085 0)
(1978.71 12.6229 0)
(1223.62 38.9862 0)
(614.997 -20.7935 0)
(209.913 204.067 0)
(-0.0389946 -2.61415e-05 0)
(0.462195 1.40825e-05 0)
(23.097 0.000292953 0)
(268.038 0.10028 0)
(1054.47 1.83255 0)
(1921.56 7.97814 0)
(1996.57 10.5061 0)
(1208 25.8407 0)
(711.835 -5.11461 0)
(-41.0043 122.679 0)
(-397.307 192.388 1.44086e-11)
(-227.46 150.155 -1.74966e-11)
(-1376.82 9.2016 -2.20843e-11)
(-6023.28 686.494 0)
(-1136.73 6745.35 -8.98293e-11)
(-86.0354 114.983 1.44433e-11)
(-491.172 24.0844 1.74966e-11)
(-1096.53 -187.342 2.20843e-11)
(-3066.04 169.55 0)
(-460.074 5883.97 0)
(-23.8261 3.15368e-09 0)
(-492.453 2.99955e-09 0)
(-1273.33 -2.22045e-09 0)
(-2947.04 9.42007e-10 0)
(2541 -4.86383e-09 0)
(-86.0354 -114.983 1.44433e-11)
(-491.172 -24.0844 1.74966e-11)
(-1096.53 187.342 2.20843e-11)
(-3066.04 -169.55 0)
(-460.074 -5883.97 0)
(-397.307 -192.388 -4.32952e-11)
(-227.46 -150.155 -1.74966e-11)
(-1376.82 -9.2016 -2.20843e-11)
(-6023.28 -686.494 -5.96867e-11)
(-1136.73 -6745.35 8.98293e-11)
(8820.73 -3237.87 4.22376e-11)
(1335.14 -380.793 -3.57761e-11)
(2414.01 99.2008 0)
(4382.19 407.229 2.81514e-11)
(-1043.1 -6736.22 -1.30476e-11)
(6465.73 -3343.71 -2.107e-11)
(2135.55 -230.447 1.78823e-11)
(2674.96 12.95 0)
(1366.13 -347.089 -1.75997e-11)
(-6420.09 -11742.2 3.12277e-12)
(7010.35 -6.99777e-09 0)
(2154.18 -2.80877e-09 0)
(2329.87 6.5791e-10 0)
(-824.216 -2.08983e-09 7.03569e-12)
(-9013.27 -3.27224e-09 -6.24555e-12)
(6465.73 3343.71 -2.107e-11)
(2135.55 230.447 1.78823e-11)
(2674.96 -12.95 0)
(1366.13 347.089 -1.75997e-11)
(-6420.09 11742.2 3.12277e-12)
(8820.73 3237.87 2.107e-11)
(1335.14 380.793 1.14682e-14)
(2414.01 -99.2008 0)
(4382.19 -407.229 1.22644e-14)
(-1043.1 6736.22 1.30476e-11)
(-24722.5 -53118 0)
(-20235.4 1903.92 0)
(1015.98 2633.62 0)
(744.185 1406.43 0)
(2172.39 386.358 0)
(3534.09 367.397 0)
(4397.93 32.7345 0)
(4926.03 36.8588 0)
(4867.59 52.1295 0)
(4056.21 45.5647 0)
(2503.99 24.9567 0)
(947.484 6.67591 0)
(170.223 0.57133 0)
(10.087 0.0100365 0)
(0.130239 2.47074e-05 0)
(0.000250639 1.18854e-08 0)
(5.10945e-08 0 0)
(0 0 0)
(0 -6.45948e-11 0)
(0 0 0)
(0 -6.45948e-11 0)
(0 0 0)
(0 0 0)
(-6.71786e-08 -6.45948e-11 0)
(-0.000323891 2.00244e-09 0)
(-0.161519 1.87325e-09 0)
(-12.0489 1.14333e-08 0)
(-197.034 -8.26813e-09 0)
(-1071.22 4.13407e-09 0)
(-2787.35 -6.58867e-09 0)
(-4486.64 -2.32541e-09 0)
(-5430.01 3.22974e-10 0)
(-5711.63 1.2273e-09 0)
(-5653.2 1.45338e-09 0)
(-5441.15 -4.39245e-09 0)
(-5071.75 3.55271e-10 0)
(-3926.56 -4.23096e-09 0)
(-941.22 -2.80987e-09 0)
(84055.4 -7.75138e-09 0)
(-129729 -2.50628e-08 0)
(-23159.5 -20819.3 0)
(-16115.8 5852.72 0)
(1059.4 1905.05 0)
(391.949 772.013 0)
(2061.94 104.786 0)
(3510.63 194.06 0)
(4356.39 -8.25271 0)
(4933.77 9.58672 0)
(4869.73 23.0287 0)
(4053.34 20.3848 0)
(2500.25 10.7755 0)
(945.316 2.92872 0)
(169.627 0.261598 0)
(10.0337 0.00478677 0)
(0.129268 1.21202e-05 0)
(0.000248192 6.58867e-09 0)
(4.93827e-08 0 0)
(0 0 0)
(0 0 0)
(0 0 0)
(0 0 0)
(-1.61487e-11 0 0)
(0 0 0)
(-6.74693e-08 0 0)
(-0.000323891 -2.4546e-09 0)
(-0.161519 0 0)
(-12.0489 1.51798e-08 0)
(-197.034 -9.81841e-09 0)
(-1071.22 3.22974e-10 0)
(-2787.35 -7.36381e-09 0)
(-4486.64 -7.10543e-10 0)
(-5430.01 2.4546e-09 0)
(-5711.63 2.97136e-09 0)
(-5653.2 3.87569e-10 0)
(-5441.15 -2.4546e-09 0)
(-5071.75 2.35771e-09 0)
(-3926.56 -6.13651e-10 0)
(-941.22 -1.2273e-09 0)
(84055.4 -1.55028e-09 0)
(-129729 -2.19622e-09 0)
(-20385.5 -3.22974e-10 0)
(-13624.6 -4.52164e-10 0)
(-462.043 1.48568e-09 0)
(220.471 6.36259e-09 0)
(2004.26 1.16271e-09 0)
(3501.2 -2.55149e-09 0)
(4344.26 2.00244e-09 0)
(4935.13 3.48812e-09 0)
(4870.74 -8.39732e-10 0)
(4052.65 -1.80865e-09 0)
(2498.91 -3.61731e-09 0)
(944.425 7.4284e-09 0)
(169.373 3.94028e-09 0)
(10.0109 -2.5192e-09 0)
(0.128847 -1.09811e-09 0)
(0.000247113 -9.04327e-10 0)
(4.91889e-08 0 0)
(-1.61487e-11 0 0)
(0 0 0)
(0 0 0)
(0 0 0)
(0 0 0)
(0 0 0)
(-6.78891e-08 0 0)
(-0.000323891 -5.10299e-09 0)
(-0.161519 -3.03596e-09 0)
(-12.0489 1.195e-08 0)
(-197.034 -1.78282e-08 0)
(-1071.22 3.48812e-09 0)
(-2787.35 -1.87325e-09 0)
(-4486.64 -9.04327e-10 0)
(-5430.01 3.22974e-10 0)
(-5711.63 1.16271e-09 0)
(-5653.2 4.19866e-09 0)
(-5441.15 5.39367e-09 0)
(-5071.75 1.71176e-09 0)
(-3926.56 -5.49056e-10 0)
(-941.22 0 0)
(84055.4 5.49056e-10 0)
(-129729 2.86801e-08 0)
(-23159.5 20819.3 0)
(-16115.8 -5852.72 0)
(1059.4 -1905.05 0)
(391.949 -772.013 0)
(2061.94 -104.786 0)
(3510.63 -194.06 0)
(4356.39 8.25271 0)
(4933.77 -9.58672 0)
(4869.73 -23.0287 0)
(4053.34 -20.3848 0)
(2500.25 -10.7755 0)
(945.316 -2.92872 0)
(169.627 -0.261598 0)
(10.0337 -0.00478678 0)
(0.129268 -1.21329e-05 0)
(0.000248193 -9.49543e-09 0)
(4.9625e-08 0 0)
(0 0 0)
(-1.61487e-11 0 0)
(1.61487e-11 0 0)
(-1.61487e-11 0 0)
(0 0 0)
(0 0 0)
(-6.89711e-08 0 0)
(-0.000323892 3.87569e-10 0)
(-0.161519 -7.17002e-09 0)
(-12.0489 7.493e-09 0)
(-197.034 -1.66009e-08 0)
(-1071.22 1.27898e-08 0)
(-2787.35 -1.2273e-09 0)
(-4486.64 -9.68922e-10 0)
(-5430.01 3.6819e-09 0)
(-5711.63 2.4546e-09 0)
(-5653.2 1.02383e-08 0)
(-5441.15 8.75259e-09 0)
(-5071.75 -3.22974e-11 0)
(-3926.56 -4.00488e-09 0)
(-941.22 1.87325e-09 0)
(84055.4 3.48812e-09 0)
(-129729 2.06703e-08 0)
(-24722.5 53118 0)
(-20235.4 -1903.92 0)
(1015.98 -2633.62 0)
(744.185 -1406.43 0)
(2172.39 -386.358 0)
(3534.09 -367.397 0)
(4397.93 -32.7345 0)
(4926.03 -36.8588 0)
(4867.59 -52.1295 0)
(4056.21 -45.5647 0)
(2503.99 -24.9567 0)
(947.484 -6.67591 0)
(170.223 -0.57133 0)
(10.087 -0.0100365 0)
(0.130239 -2.47126e-05 0)
(0.000250643 -9.17246e-09 0)
(5.19504e-08 0 0)
(0 0 0)
(0 0 0)
(0 0 0)
(0 0 0)
(0 0 0)
(0 0 0)
(-6.77761e-08 0 0)
(-0.000323893 2.39001e-09 0)
(-0.161519 -5.61975e-09 0)
(-12.0489 4.13407e-09 0)
(-197.034 -7.55759e-09 0)
(-1071.22 1.15625e-08 0)
(-2787.35 0 0)
(-4486.64 -1.2273e-09 0)
(-5430.01 4.39245e-09 0)
(-5711.63 5.94272e-09 0)
(-5653.2 5.42596e-09 0)
(-5441.15 4.23096e-09 0)
(-5071.75 3.22974e-11 0)
(-3926.56 1.90555e-09 0)
(-941.22 2.22852e-09 0)
(84055.4 7.13772e-09 0)
(-129729 1.35649e-08 0)
(103266 61778.2 0)
(-46324.1 -3907.65 0)
(1421.67 -3090.94 0)
(1394.32 -1968.85 0)
(2585.99 -884.366 0)
(3705.33 -519.025 0)
(4515.71 -184.704 0)
(4930.55 -118.518 0)
(4866.75 -103.322 0)
(4067.07 -78.9761 0)
(2520.31 -41.2106 0)
(958.105 -10.5441 0)
(173.119 -0.866592 0)
(10.3304 -0.0147991 0)
(0.13444 -3.58709e-05 0)
(0.000260861 -8.20963e-09 0)
(5.27289e-08 0 0)
(0 0 0)
(0 0 0)
(0 0 0)
(0 0 0)
(0 0 0)
(0 0 0)
(-6.88556e-08 0 0)
(-0.000323893 -1.05302e-09 0)
(-0.161519 -5.85009e-10 0)
(-12.0489 1.05302e-09 0)
(-197.034 1.36502e-10 0)
(-1071.22 3.31505e-09 0)
(-2787.35 -2.49604e-09 0)
(-4486.64 -1.85253e-09 0)
(-5430.01 -9.75016e-10 0)
(-5711.63 4.42657e-09 0)
(-5653.2 2.55454e-09 0)
(-5441.15 -2.69104e-09 0)
(-5071.75 -3.31505e-10 0)
(-3926.56 1.72578e-09 0)
(-941.22 4.48507e-10 0)
(84055.4 -8.38514e-10 0)
(-129729 4.60207e-09 0)
(119834 33093.5 0)
(-68756 -2819.15 0)
(2666.74 -2710.95 0)
(2521.89 -1903.54 0)
(3347.71 -1108.68 0)
(4116.48 -616.486 0)
(4720.71 -361.778 0)
(5002.03 -238.375 0)
(4906.15 -171.773 0)
(4110.24 -111.711 0)
(2561.18 -52.0498 0)
(980.665 -12.4149 0)
(178.817 -0.982167 0)
(10.7915 -0.0164916 0)
(0.142248 -3.98362e-05 0)
(0.000279729 -1.22657e-08 0)
(5.9437e-08 0 0)
(0 0 0)
(0 0 0)
(0 0 0)
(0 0 0)
(0 0 0)
(0 0 0)
(-6.82121e-08 0 0)
(-0.000323893 -5.85009e-11 0)
(-0.161519 1.67703e-09 0)
(-12.0489 -4.75808e-09 0)
(-197.034 1.01987e-08 0)
(-1071.22 -1.71603e-09 0)
(-2787.35 3.70506e-10 0)
(-4486.64 4.09507e-09 0)
(-5430.01 -9.16515e-10 0)
(-5711.63 5.36259e-09 0)
(-5653.2 2.8958e-09 0)
(-5441.15 1.65753e-10 0)
(-5071.75 -8.87264e-10 0)
(-3926.56 -1.19927e-09 0)
(-941.22 -1.85253e-10 0)
(84055.4 -5.07008e-10 0)
(-129729 -4.87508e-09 0)
(130614 16739.1 0)
(-80826.6 -512.349 0)
(2303.99 -1691.35 0)
(2938.33 -1514.55 0)
(3826.24 -1058.4 0)
(4425.07 -660.936 0)
(4880.07 -469.118 0)
(5113.64 -322.049 0)
(4988.8 -217.235 0)
(4182.44 -128.402 0)
(2616 -54.7731 0)
(1007.32 -12.2098 0)
(185.066 -0.924532 0)
(11.2769 -0.0151443 0)
(0.150332 -3.62516e-05 0)
(0.000299249 -9.67216e-09 0)
(6.4546e-08 0 0)
(0 0 0)
(0 0 0)
(0 0 0)
(0 0 0)
(0 0 0)
(0 0 0)
(-6.89141e-08 0 0)
(-0.000323892 -1.56003e-10 0)
(-0.161519 -5.03108e-09 0)
(-12.0489 -9.04815e-09 0)
(-197.034 4.73858e-09 0)
(-1071.22 -1.09202e-09 0)
(-2787.35 -2.61304e-09 0)
(-4486.64 7.27362e-09 0)
(-5430.01 -1.79403e-09 0)
(-5711.63 1.67703e-09 0)
(-5653.2 -9.45765e-10 0)
(-5441.15 -3.31505e-10 0)
(-5071.75 -8.09263e-10 0)
(-3926.56 -2.60329e-09 0)
(-941.22 -2.88605e-09 0)
(84055.4 6.82511e-11 0)
(-129729 -1.30652e-08 0)
(135769 5267.99 0)
(-86516.2 -173.764 0)
(1700.98 -1330.7 0)
(3131.82 -1329.84 0)
(4170.28 -988.119 0)
(4684.34 -687.244 0)
(5047.28 -497.792 0)
(5244.75 -342.359 0)
(5092.76 -220.194 0)
(4266.79 -120.636 0)
(2673.15 -47.1815 0)
(1032.56 -9.67595 0)
(190.568 -0.68281 0)
(11.6823 -0.0107438 0)
(0.156841 -2.69297e-05 0)
(0.000314663 -1.9733e-06 0)
(6.87386e-08 -1.9662e-06 0)
(0 -1.9692e-06 0)
(0 -1.96865e-06 0)
(0 -1.96657e-06 0)
(0 -1.96977e-06 0)
(0 -1.9683e-06 0)
(0 -1.96805e-06 0)
(-6.83486e-08 -1.96916e-06 0)
(-0.000323898 -1.96963e-06 0)
(-0.161519 -1.98086e-06 0)
(-12.0489 -1.96485e-06 0)
(-197.034 -1.98051e-06 0)
(-1071.22 -1.95335e-06 0)
(-2787.35 -1.89305e-06 0)
(-4486.64 -1.67038e-06 0)
(-5430.01 -1.36101e-06 0)
(-5711.63 -9.81275e-07 0)
(-5653.2 -6.35457e-07 0)
(-5441.15 -3.69999e-07 0)
(-5071.75 -2.00541e-07 0)
(-3926.56 -9.99489e-08 0)
(-941.22 -4.60207e-08 0)
(84055.4 -1.15832e-08 0)
(-129729 -8.58014e-10 0)
(135824 -509.98 0)
(-87185.3 -208.763 0)
(1189.96 -1239.66 0)
(3268.45 -1154.99 0)
(4445.47 -878.461 0)
(4897.57 -647.275 0)
(5212.41 -463.617 0)
(5381.15 -310.408 0)
(5202.46 -188.062 0)
(4349.17 -94.7291 0)
(2722.92 -33.3758 0)
(1052.12 -6.08404 0)
(194.38 -0.379906 0)
(11.9348 -0.00915564 0)
(0.160683 -0.00390745 0)
(0.000323305 -0.0038959 0)
(6.84851e-08 -0.0038959 0)
(-2.37904e-09 -0.0038959 0)
(2.53504e-09 -0.0038959 0)
(-1.05302e-09 -0.0038959 0)
(-1.65753e-09 -0.0038959 0)
(1.63803e-09 -0.0038959 0)
(-8.38514e-10 -0.00389589 0)
(-7.04351e-08 -0.0038959 0)
(-0.000323903 -0.0038959 0)
(-0.161519 -0.00389591 0)
(-12.0489 -0.00389589 0)
(-197.034 -0.00389436 0)
(-1071.22 -0.00386925 0)
(-2787.35 -0.00373415 0)
(-4486.64 -0.00339538 0)
(-5430.01 -0.00285804 0)
(-5711.63 -0.00221304 0)
(-5653.2 -0.00157731 0)
(-5441.15 -0.00104187 0)
(-5071.75 -0.000649449 0)
(-3926.56 -0.000371438 0)
(-941.22 -0.000205757 0)
(84055.4 -5.76804e-05 0)
(-129729 -1.34437e-05 0)
(135162 -2017.05 0)
(-87219.4 -420.793 0)
(789.153 -1170.1 0)
(3479.88 -960.032 0)
(4659.54 -745.441 0)
(5084.09 -553.08 0)
(5371.89 -385.108 0)
(5510.29 -247.553 0)
(5300.6 -139.494 0)
(4415.85 -62.7736 0)
(2758.57 -19.4022 0)
(1064.35 -3.62551 0)
(196.422 -1.06438 0)
(12.0447 -0.936705 0)
(0.16191 -0.935536 0)
(0.000325792 -0.935534 0)
(7.02986e-08 -0.935534 0)
(-1.40402e-09 -0.935534 0)
(2.76904e-09 -0.935534 0)
(1.36502e-09 -0.935534 0)
(2.12553e-09 -0.935534 0)
(6.3571e-09 -0.935534 0)
(-3.29555e-09 -0.935534 0)
(-7.18197e-08 -0.935534 0)
(-0.000323904 -0.935534 0)
(-0.161519 -0.935534 0)
(-12.0489 -0.93553 0)
(-197.034 -0.93519 0)
(-1071.22 -0.929746 0)
(-2787.35 -0.901685 0)
(-4486.64 -0.833618 0)
(-5430.01 -0.726996 0)
(-5711.63 -0.59668 0)
(-5653.2 -0.461612 0)
(-5441.14 -0.338202 0)
(-5071.75 -0.237455 0)
(-3926.56 -0.15604 0)
(-941.22 -0.102239 0)
(84055.4 -0.0362393 0)
(-129729 -0.0225395 0)
(133457 -2999.23 0)
(-86369.2 -731.617 0)
(670.327 -962.91 0)
(3677.67 -773.375 0)
(4837.62 -594.154 0)
(5244.8 -424.151 0)
(5506.83 -281.662 0)
(5617.83 -173.443 0)
(5380.53 -103.216 0)
(4464.89 -62.7437 0)
(2779.92 -43.8691 0)
(1069.79 -38.8438 0)
(196.971 -38.4267 0)
(12.059 -38.4282 0)
(0.161812 -38.4286 0)
(0.000324884 -38.4286 0)
(8.91359e-08 -38.4286 0)
(1.50152e-09 -38.4286 0)
(6.82511e-10 -38.4286 0)
(-1.03352e-09 -38.4286 0)
(-1.48202e-09 -38.4286 0)
(-2.73004e-09 -38.4286 0)
(3.80256e-09 -38.4286 0)
(-7.18197e-08 -38.4286 0)
(-0.000323881 -38.4286 0)
(-0.161515 -38.4286 0)
(-12.0485 -38.4284 0)
(-197.029 -38.4149 0)
(-1071.18 -38.2088 0)
(-2787.26 -37.1974 0)
(-4486.47 -34.8518 0)
(-5429.78 -31.2805 0)
(-5711.37 -26.9196 0)
(-5652.95 -22.265 0)
(-5440.93 -17.751 0)
(-5071.58 -13.7367 0)
(-3926.43 -10.1407 0)
(-941.105 -7.62741 0)
(84055.5 -3.44474 0)
(-129729 -4.38156 0)
(131458 -2817 0)
(-85257.1 -729.641 0)
(748.914 -645.33 0)
(3835.23 -544.803 0)
(4996.07 -468.554 0)
(5385.22 -408.465 0)
(5613.49 -370.354 0)
(5682.24 -355.48 0)
(5407.27 -361.596 0)
(4473.04 -378.047 0)
(2781.6 -392.929 0)
(1069.6 -400.833 0)
(196.823 -402.742 0)
(12.0428 -402.889 0)
(0.161502 -402.891 0)
(0.000323932 -402.891 0)
(6.3766e-08 -402.891 0)
(-1.11152e-08 -402.891 0)
(-9.94516e-09 -402.891 0)
(-2.43754e-09 -402.891 0)
(4.23157e-09 -402.891 0)
(1.16222e-08 -402.891 0)
(8.17063e-09 -402.891 0)
(-7.87813e-08 -402.891 0)
(-0.000323517 -402.891 0)
(-0.161333 -402.891 0)
(-12.0357 -402.889 0)
(-196.823 -402.747 0)
(-1070.04 -400.686 0)
(-2784.12 -391.099 0)
(-4480.94 -370.007 0)
(-5422.37 -339.212 0)
(-5702.94 -302.366 0)
(-5644.37 -262.807 0)
(-5432.93 -223.125 0)
(-5064.42 -185.72 0)
(-3920.67 -149.973 0)
(-934.768 -124.959 0)
(84058.5 -71.7212 0)
(-129721 -153.89 0)
(129903 -2775.16 0)
(-84276.5 -783.715 0)
(848.444 -842.112 0)
(3848.02 -881.86 0)
(4969 -969.744 0)
(5339.43 -1070.19 0)
(5557.89 -1181.1 0)
(5626.27 -1297 0)
(5358.78 -1407.14 0)
(4434.7 -1504.87 0)
(2757.96 -1577.69 0)
(1060.34 -1613.34 0)
(194.99 -1621.55 0)
(11.9151 -1622.15 0)
(0.159529 -1622.16 0)
(0.000319382 -1622.16 0)
(8.60354e-08 -1622.16 0)
(8.44364e-09 -1622.16 0)
(7.15662e-09 -1622.16 0)
(5.9866e-09 -1622.16 0)
(-2.24254e-09 -1622.16 0)
(-7.81963e-09 -1622.16 0)
(-7.31262e-09 -1622.16 0)
(-7.13322e-08 -1622.16 0)
(-0.000319275 -1622.16 0)
(-0.15947 -1622.16 0)
(-11.9099 -1622.15 0)
(-194.906 -1621.55 0)
(-1059.96 -1613.32 0)
(-2757.7 -1576.99 0)
(-4436.47 -1501.36 0)
(-5364.6 -1396.19 0)
(-5637.75 -1274.52 0)
(-5576.6 -1145.58 0)
(-5366.65 -1014.92 0)
(-5001.08 -887.837 0)
(-3867.88 -763.644 0)
(-865.698 -680.607 0)
(84027.6 -485.282 0)
(-129504 -1465.45 0)
(127892 -5915.35 0)
(-83394.4 -1605.43 0)
(654.337 -1846.45 0)
(3712.24 -1975.9 0)
(4814.58 -2173.62 0)
(5181.56 -2380.42 0)
(5394.93 -2596.47 0)
(5464.42 -2815.13 0)
(5206.95 -3029.7 0)
(4308.7 -3224.96 0)
(2677.08 -3374.37 0)
(1027.33 -3450.68 0)
(188.333 -3468.98 0)
(11.4533 -3470.36 0)
(0.152369 -3470.38 0)
(0.000302679 -3470.38 0)
(6.56576e-08 -3470.38 0)
(-8.97015e-09 -3470.38 0)
(-1.01402e-08 -3470.38 0)
(-3.88056e-09 -3470.38 0)
(4.36807e-09 -3470.38 0)
(7.41012e-09 -3470.38 0)
(6.1231e-09 -3470.38 0)
(-6.90701e-08 -3470.38 0)
(-0.000302757 -3470.38 0)
(-0.152384 -3470.38 0)
(-11.4532 -3470.36 0)
(-188.309 -3468.98 0)
(-1027.1 -3450.77 0)
(-2676.23 -3374.7 0)
(-4306.7 -3224.95 0)
(-5203.77 -3027.09 0)
(-5461.45 -2807.08 0)
(-5394.21 -2579.36 0)
(-5184.56 -2350.06 0)
(-4822.27 -2124.72 0)
(-3720.98 -1907.56 0)
(-666.528 -1772.77 0)
(83302.2 -1517.44 0)
(-127773 -5594.42 0)
(122375 -11746.5 0)
(-80355.5 -2848.29 0)
(491.44 -2866.35 0)
(3532.74 -3003.36 0)
(4579.19 -3245.68 0)
(4931.96 -3512.19 0)
(5138.99 -3787.01 0)
(5208.78 -4067.1 0)
(4963.85 -4345.5 0)
(4102.57 -4605.37 0)
(2540.45 -4811.61 0)
(969.17 -4922.22 0)
(176.03 -4950.06 0)
(10.5603 -4952.24 0)
(0.137993 -4952.28 0)
(0.000268258 -4952.28 0)
(6.4624e-08 -4952.28 0)
(3.80256e-09 -4952.28 0)
(-5.46009e-10 -4952.28 0)
(-1.36502e-09 -4952.28 0)
(-1.32602e-09 -4952.28 0)
(-1.22852e-09 -4952.28 0)
(-2.22304e-09 -4952.28 0)
(-6.09775e-08 -4952.28 0)
(-0.000268293 -4952.28 0)
(-0.138006 -4952.28 0)
(-10.5608 -4952.24 0)
(-176.029 -4950.06 0)
(-969.106 -4922.25 0)
(-2540.09 -4811.84 0)
(-4101.5 -4606.19 0)
(-4961.93 -4347.47 0)
(-5206.3 -4070.52 0)
(-5136.19 -3790.97 0)
(-4928.53 -3514.77 0)
(-4574.67 -3244.33 0)
(-3528.72 -2995.46 0)
(-489.773 -2854.29 0)
(80344.9 -2827.71 0)
(-122387 -11639.4 0)
(113255 -16272.7 0)
(-74837.1 -3761.46 0)
(504.906 -3445.17 0)
(3346.71 -3567.7 0)
(4324.26 -3811.64 0)
(4659.91 -4083.36 0)
(4860.2 -4367.43 0)
(4926.23 -4659.1 0)
(4688.26 -4954.05 0)
(3859.53 -5237 0)
(2371.74 -5470.97 0)
(893.921 -5602.54 0)
(159.409 -5636.94 0)
(9.31334 -5639.69 0)
(0.11757 -5639.74 0)
(0.000219294 -5639.74 0)
(4.77368e-08 -5639.74 0)
(-5.59659e-09 -5639.74 0)
(-6.4156e-09 -5639.74 0)
(-4.19257e-09 -5639.74 0)
(7.02011e-10 -5639.74 0)
(5.34309e-09 -5639.74 0)
(7.97563e-09 -5639.74 0)
(-4.31542e-08 -5639.74 0)
(-0.000219302 -5639.74 0)
(-0.117574 -5639.74 0)
(-9.31361 -5639.69 0)
(-159.411 -5636.94 0)
(-893.918 -5602.54 0)
(-2371.66 -5471.04 0)
(-3859.22 -5237.38 0)
(-4687.58 -4955.22 0)
(-4925.18 -4661.38 0)
(-4858.68 -4370.94 0)
(-4657.79 -4088.09 0)
(-4321.85 -3818.03 0)
(-3345.13 -3576.43 0)
(-504.88 -3455.31 0)
(74836.6 -3772.13 0)
(-113265 -16271.1 0)
(102240 -18580.1 0)
(-67994.5 -4141.44 0)
(678.155 -3621.88 0)
(3179.6 -3727.56 0)
(4082.28 -3951.94 0)
(4396.38 -4218.3 0)
(4584.18 -4487.36 0)
(4643.49 -4774.48 0)
(4406.96 -5066.73 0)
(3604.45 -5353 0)
(2188.2 -5597.14 0)
(809.237 -5739.06 0)
(140.231 -5776.82 0)
(7.86256 -5779.83 0)
(0.0940878 -5779.87 0)
(0.000164622 -5779.87 0)
(3.01377e-08 -5779.87 0)
(-3.48081e-09 -5779.87 0)
(-2.65204e-09 -5779.87 0)
(-7.80013e-10 -5779.87 0)
(1.81353e-09 -5779.87 0)
(5.01158e-09 -5779.87 0)
(4.13407e-09 -5779.87 0)
(-3.2741e-08 -5779.87 0)
(-0.000164615 -5779.87 0)
(-0.0940882 -5779.87 0)
(-7.86261 -5779.83 0)
(-140.232 -5776.82 0)
(-809.242 -5739.06 0)
(-2188.2 -5597.14 0)
(-3604.43 -5353.09 0)
(-4406.88 -5067.09 0)
(-4643.27 -4775.3 0)
(-4583.75 -4488.82 0)
(-4395.74 -4220.66 0)
(-4081.62 -3955.56 0)
(-3179.19 -3732.39 0)
(-678.349 -3627.12 0)
(67995.1 -4146.35 0)
(-102243 -18584.6 0)
(90355.4 -18500.2 0)
(-60422.8 -4109.42 0)
(903.738 -3581.51 0)
(3028.65 -3667.92 0)
(3851.36 -3889.46 0)
(4143.96 -4126.11 0)
(4324.24 -4386.61 0)
(4367.94 -4655.77 0)
(4130.77 -4938.75 0)
(3348.41 -5220.25 0)
(1999.72 -5466.29 0)
(720.775 -5611.58 0)
(120.129 -5649.97 0)
(6.3688 -5652.93 0)
(0.0708728 -5652.98 0)
(0.000113681 -5652.98 0)
(1.80378e-08 -5652.98 0)
(6.82511e-10 -5652.98 0)
(-1.65753e-10 -5652.98 0)
(-2.38879e-09 -5652.98 0)
(6.72761e-10 -5652.98 0)
(1.71603e-09 -5652.98 0)
(2.48629e-09 -5652.98 0)
(-1.92273e-08 -5652.98 0)
(-0.000113681 -5652.98 0)
(-0.0708725 -5652.98 0)
(-6.36879 -5652.93 0)
(-120.129 -5649.97 0)
(-720.777 -5611.58 0)
(-1999.73 -5466.28 0)
(-3348.44 -5220.25 0)
(-4130.8 -4938.78 0)
(-4367.94 -4655.87 0)
(-4324.21 -4386.89 0)
(-4143.92 -4126.7 0)
(-3851.33 -3890.45 0)
(-3028.63 -3669.24 0)
(-903.788 -3582.94 0)
(60423 -4110.51 0)
(-90355.6 -18502.3 0)
(79409.9 -18256.7 0)
(-53618.3 -3821.57 0)
(1103.6 -3400.08 0)
(2882.85 -3468.41 0)
(3640.75 -3690.69 0)
(3917.31 -3941.03 0)
(4073.79 -4177.77 0)
(4111.43 -4437 0)
(3863.01 -4706.34 0)
(3096.1 -4980.11 0)
(1811.09 -5223.02 0)
(632.233 -5366.09 0)
(100.389 -5402.74 0)
(4.96552 -5405.41 0)
(0.0505097 -5405.45 0)
(7.27699e-05 -5405.45 0)
(1.03352e-08 -5405.45 0)
(1.29677e-09 -5405.45 0)
(8.19013e-10 -5405.45 0)
(-1.46252e-10 -5405.45 0)
(1.07252e-10 -5405.45 0)
(-1.46252e-10 -5405.45 0)
(1.22852e-09 -5405.45 0)
(-9.67216e-09 -5405.45 0)
(-7.27676e-05 -5405.45 0)
(-0.0505096 -5405.45 0)
(-4.96552 -5405.41 0)
(-100.389 -5402.74 0)
(-632.233 -5366.09 0)
(-1811.1 -5223.02 0)
(-3096.11 -4980.1 0)
(-3863.03 -4706.32 0)
(-4111.45 -4436.96 0)
(-4073.82 -4177.75 0)
(-3917.35 -3941.05 0)
(-3640.79 -3690.73 0)
(-2882.86 -3468.47 0)
(-1103.57 -3400.15 0)
(53618.3 -3821.56 0)
(-79409.8 -18257 0)
(68035.1 -16919.4 0)
(-46106.4 -3382.55 0)
(1244.06 -3130.64 0)
(2748.61 -3208.42 0)
(3395.92 -3401.16 0)
(3674.59 -3656.83 0)
(3846.31 -3877.13 0)
(3858.59 -4115.76 0)
(3607.41 -4363.24 0)
(2850.52 -4620.53 0)
(1627.77 -4855.82 0)
(547.593 -4994.67 0)
(82.2423 -5028.85 0)
(3.75841 -5031.16 0)
(0.0345257 -5031.19 0)
(4.40469e-05 -5031.19 0)
(4.92383e-09 -5031.19 0)
(-9.55515e-10 -5031.19 0)
(2.34004e-10 -5031.19 0)
(8.48264e-10 -5031.19 0)
(-6.3376e-10 -5031.19 0)
(-8.19013e-10 -5031.19 0)
(-2.92505e-11 -5031.19 0)
(-5.61609e-09 -5031.19 0)
(-4.40419e-05 -5031.19 0)
(-0.0345257 -5031.19 0)
(-3.75841 -5031.16 0)
(-82.2422 -5028.85 0)
(-547.593 -4994.67 0)
(-1627.77 -4855.81 0)
(-2850.53 -4620.53 0)
(-3607.42 -4363.23 0)
(-3858.6 -4115.73 0)
(-3846.32 -3877.09 0)
(-3674.61 -3656.78 0)
(-3395.94 -3401.09 0)
(-2748.62 -3208.33 0)
(-1244.04 -3130.55 0)
(46106.4 -3382.48 0)
(-68035 -16919.4 0)
(59024.7 -13623.5 0)
(-40330.9 -2619.04 0)
(1271.39 -2602.8 0)
(2622.16 -2645.31 0)
(3208.65 -2770.36 0)
(3458.66 -2904.57 0)
(3631.55 -3056.1 0)
(3642.99 -3216.73 0)
(3376.59 -3393.86 0)
(2621.44 -3586.49 0)
(1450.56 -3772.37 0)
(465.491 -3886.19 0)
(65.2248 -3914.1 0)
(2.70845 -3915.9 0)
(0.0220667 -3915.92 0)
(2.4481e-05 -3915.92 0)
(1.20902e-09 -3915.92 0)
(-5.36259e-10 -3915.92 0)
(4.48507e-10 -3915.92 0)
(-6.82511e-11 -3915.92 0)
(-3.60756e-10 -3915.92 0)
(-1.28702e-09 -3915.92 0)
(4.29007e-10 -3915.92 0)
(-4.45582e-09 -3915.92 0)
(-2.44735e-05 -3915.92 0)
(-0.0220667 -3915.92 0)
(-2.70845 -3915.9 0)
(-65.2248 -3914.1 0)
(-465.491 -3886.19 0)
(-1450.56 -3772.37 0)
(-2621.44 -3586.49 0)
(-3376.59 -3393.86 0)
(-3642.99 -3216.72 0)
(-3631.56 -3056.08 0)
(-3458.66 -2904.55 0)
(-3208.65 -2770.33 0)
(-2622.16 -2645.27 0)
(-1271.39 -2602.76 0)
(40330.9 -2619.02 0)
(-59024.7 -13623.5 0)
(51594.3 -6532.08 0)
(-35486.5 -1335.54 0)
(1218.74 -1272.38 0)
(2587.14 -1323.24 0)
(3146.09 -1286.36 0)
(3399.24 -1117.12 0)
(3545.51 -885.68 0)
(3533.1 -643.157 0)
(3251.1 -492.348 0)
(2485.78 -543.206 0)
(1338.96 -760.966 0)
(411.009 -923.055 0)
(53.6137 -959.008 0)
(2.0037 -960.916 0)
(0.0142297 -960.934 0)
(1.3413e-05 -960.934 0)
(1.36502e-10 -960.934 0)
(-2.24254e-10 -960.934 0)
(-9.65266e-10 -960.934 0)
(1.65753e-10 -960.934 0)
(-8.77514e-11 -960.934 0)
(-1.64778e-09 -960.934 0)
(5.75259e-10 -960.934 0)
(-3.02255e-09 -960.934 0)
(-1.33991e-05 -960.934 0)
(-0.0142297 -960.934 0)
(-2.0037 -960.916 0)
(-53.6137 -959.008 0)
(-411.009 -923.055 0)
(-1338.96 -760.966 0)
(-2485.78 -543.206 0)
(-3251.1 -492.348 0)
(-3533.1 -643.157 0)
(-3545.51 -885.678 0)
(-3399.24 -1117.12 0)
(-3146.09 -1286.35 0)
(-2587.14 -1323.24 0)
(-1218.74 -1272.37 0)
(35486.5 -1335.54 0)
(-51594.3 -6532.08 0)
(48460.6 183712 0)
(-35262.5 38074.3 0)
(1283.24 38376.5 0)
(2608.69 43956.1 0)
(3407.28 50399.4 0)
(3844.76 58823.8 0)
(4088.29 66451.1 0)
(4022.02 74718.7 0)
(3472.9 81988.8 0)
(2362.59 87290.5 0)
(1084.53 89618.1 0)
(274.651 90009.5 0)
(28.7399 90013 0)
(0.852058 90011.9 0)
(0.00482895 90011.9 0)
(3.66142e-06 90011.9 0)
(3.48081e-09 90011.9 0)
(1.61853e-09 90011.9 0)
(5.36259e-10 90011.9 0)
(1.13102e-09 90011.9 0)
(-6.2401e-10 90011.9 0)
(-1.53077e-09 90011.9 0)
(-1.42352e-09 90011.9 0)
(3.70506e-10 90011.9 0)
(-3.66372e-06 90011.9 0)
(-0.00482895 90011.9 0)
(-0.852058 90011.9 0)
(-28.7399 90013 0)
(-274.651 90009.5 0)
(-1084.52 89618.1 0)
(-2362.59 87290.5 0)
(-3472.9 81988.8 0)
(-4022.02 74718.7 0)
(-4088.29 66451.1 0)
(-3844.76 58823.8 0)
(-3407.28 50399.4 0)
(-2608.69 43956.1 0)
(-1283.24 38376.5 0)
(35262.5 38074.3 0)
(-48460.6 183712 0)
(262557 -270958 0)
(-175537 -51640.8 0)
(6886.68 -54945.8 0)
(14172.8 -63294.1 0)
(17473.1 -73242.2 0)
(18867.3 -85854.3 0)
(18862.4 -97935.9 0)
(18505.9 -110777 0)
(15365.8 -122354 0)
(9837.64 -131142 0)
(3959.08 -135516 0)
(791.519 -136573 0)
(55.905 -136662 0)
(0.936301 -136663 0)
(0.00251414 -136663 0)
(7.22526e-07 -136663 0)
(2.23084e-08 -136663 0)
(6.4741e-09 -136663 0)
(5.34309e-09 -136663 0)
(5.07008e-10 -136663 0)
(-6.63011e-10 -136663 0)
(-9.28215e-09 -136663 0)
(8.97015e-10 -136663 0)
(8.73614e-09 -136663 0)
(-7.16091e-07 -136663 0)
(-0.00251413 -136663 0)
(-0.936302 -136663 0)
(-55.905 -136662 0)
(-791.519 -136573 0)
(-3959.08 -135516 0)
(-9837.64 -131142 0)
(-15365.8 -122354 0)
(-18505.9 -110777 0)
(-18862.4 -97935.9 0)
(-18867.3 -85854.3 0)
(-17473.1 -73242.2 0)
(-14172.8 -63294.1 0)
(-6886.68 -54945.8 0)
(175537 -51640.8 0)
(-262557 -270958 0)
(262557 270958 0)
(-175537 51640.8 0)
(6886.68 54945.8 0)
(14172.8 63294.1 0)
(17473.1 73242.2 0)
(18867.3 85854.3 0)
(18862.4 97935.9 0)
(18505.9 110777 0)
(15365.8 122354 0)
(9837.64 131142 0)
(3959.08 135516 0)
(791.519 136573 0)
(55.905 136662 0)
(0.936302 136663 0)
(0.00251413 136663 0)
(7.23267e-07 136663 0)
(-2.10213e-08 136663 0)
(-1.69653e-08 136663 0)
(-1.54442e-08 136663 0)
(-6.98111e-09 136663 0)
(-2.69104e-09 136663 0)
(-2.37904e-09 136663 0)
(2.02803e-09 136663 0)
(-2.49604e-09 136663 0)
(-6.89336e-07 136663 0)
(-0.00251414 136663 0)
(-0.936301 136663 0)
(-55.905 136662 0)
(-791.519 136573 0)
(-3959.08 135516 0)
(-9837.64 131142 0)
(-15365.8 122354 0)
(-18505.9 110777 0)
(-18862.4 97935.9 0)
(-18867.3 85854.3 0)
(-17473.1 73242.2 0)
(-14172.8 63294.1 0)
(-6886.68 54945.8 0)
(175537 51640.8 0)
(-262557 270958 0)
(48460.6 -183712 0)
(-35262.5 -38074.3 0)
(1283.24 -38376.5 0)
(2608.69 -43956.1 0)
(3407.28 -50399.4 0)
(3844.76 -58823.8 0)
(4088.29 -66451.1 0)
(4022.02 -74718.7 0)
(3472.9 -81988.8 0)
(2362.59 -87290.5 0)
(1084.53 -89618.1 0)
(274.651 -90009.5 0)
(28.7399 -90013 0)
(0.852058 -90011.9 0)
(0.00482894 -90011.9 0)
(3.66116e-06 -90011.9 0)
(1.63803e-09 -90011.9 0)
(2.26204e-09 -90011.9 0)
(2.53504e-10 -90011.9 0)
(8.38514e-10 -90011.9 0)
(-1.04327e-09 -90011.9 0)
(-2.31079e-09 -90011.9 0)
(-6.63011e-10 -90011.9 0)
(7.80013e-11 -90011.9 0)
(-3.66115e-06 -90011.9 0)
(-0.00482896 -90011.9 0)
(-0.852058 -90011.9 0)
(-28.7399 -90013 0)
(-274.651 -90009.5 0)
(-1084.52 -89618.1 0)
(-2362.59 -87290.5 0)
(-3472.9 -81988.8 0)
(-4022.02 -74718.7 0)
(-4088.29 -66451.1 0)
(-3844.76 -58823.8 0)
(-3407.28 -50399.4 0)
(-2608.69 -43956.1 0)
(-1283.24 -38376.5 0)
(35262.5 -38074.3 0)
(-48460.6 -183712 0)
(51594.3 6532.08 0)
(-35486.5 1335.54 0)
(1218.74 1272.38 0)
(2587.14 1323.24 0)
(3146.09 1286.36 0)
(3399.24 1117.12 0)
(3545.51 885.68 0)
(3533.1 643.157 0)
(3251.1 492.348 0)
(2485.78 543.206 0)
(1338.96 760.966 0)
(411.009 923.055 0)
(53.6137 959.008 0)
(2.0037 960.916 0)
(0.0142297 960.934 0)
(1.34081e-05 960.934 0)
(-1.38452e-09 960.934 0)
(5.65509e-10 960.934 0)
(-1.45277e-09 960.934 0)
(-1.26752e-10 960.934 0)
(2.43754e-10 960.934 0)
(-4.87508e-10 960.934 0)
(2.27179e-09 960.934 0)
(-3.17855e-09 960.934 0)
(-1.34034e-05 960.934 0)
(-0.0142297 960.934 0)
(-2.0037 960.916 0)
(-53.6137 959.008 0)
(-411.009 923.055 0)
(-1338.96 760.966 0)
(-2485.78 543.206 0)
(-3251.1 492.348 0)
(-3533.1 643.157 0)
(-3545.51 885.678 0)
(-3399.24 1117.12 0)
(-3146.09 1286.35 0)
(-2587.14 1323.24 0)
(-1218.74 1272.37 0)
(35486.5 1335.54 0)
(-51594.3 6532.08 0)
(59024.7 13623.5 0)
(-40330.9 2619.04 0)
(1271.39 2602.8 0)
(2622.16 2645.31 0)
(3208.65 2770.36 0)
(3458.66 2904.57 0)
(3631.55 3056.1 0)
(3642.99 3216.73 0)
(3376.59 3393.86 0)
(2621.44 3586.49 0)
(1450.56 3772.37 0)
(465.491 3886.19 0)
(65.2248 3914.1 0)
(2.70845 3915.9 0)
(0.0220667 3915.92 0)
(2.44803e-05 3915.92 0)
(7.41012e-10 3915.92 0)
(-4.58257e-10 3915.92 0)
(-9.16515e-10 3915.92 0)
(9.75016e-11 3915.92 0)
(5.85009e-11 3915.92 0)
(-9.45765e-10 3915.92 0)
(1.34552e-09 3915.92 0)
(-3.46131e-09 3915.92 0)
(-2.44732e-05 3915.92 0)
(-0.0220667 3915.92 0)
(-2.70845 3915.9 0)
(-65.2248 3914.1 0)
(-465.491 3886.19 0)
(-1450.56 3772.37 0)
(-2621.44 3586.49 0)
(-3376.59 3393.86 0)
(-3642.99 3216.72 0)
(-3631.56 3056.08 0)
(-3458.66 2904.55 0)
(-3208.65 2770.33 0)
(-2622.16 2645.27 0)
(-1271.39 2602.76 0)
(40330.9 2619.02 0)
(-59024.7 13623.5 0)
(68035.1 16919.4 0)
(-46106.4 3382.55 0)
(1244.06 3130.64 0)
(2748.61 3208.42 0)
(3395.92 3401.16 0)
(3674.59 3656.83 0)
(3846.31 3877.13 0)
(3858.59 4115.76 0)
(3607.41 4363.24 0)
(2850.52 4620.53 0)
(1627.77 4855.82 0)
(547.593 4994.67 0)
(82.2423 5028.85 0)
(3.75841 5031.16 0)
(0.0345257 5031.19 0)
(4.40481e-05 5031.19 0)
(3.90006e-09 5031.19 0)
(-1.75503e-09 5031.19 0)
(-2.14503e-10 5031.19 0)
(3.51006e-10 5031.19 0)
(-1.56003e-10 5031.19 0)
(9.16515e-10 5031.19 0)
(-3.21755e-10 5031.19 0)
(-5.35284e-09 5031.19 0)
(-4.40459e-05 5031.19 0)
(-0.0345257 5031.19 0)
(-3.75841 5031.16 0)
(-82.2422 5028.85 0)
(-547.593 4994.67 0)
(-1627.77 4855.81 0)
(-2850.53 4620.53 0)
(-3607.42 4363.23 0)
(-3858.6 4115.73 0)
(-3846.32 3877.09 0)
(-3674.61 3656.78 0)
(-3395.94 3401.09 0)
(-2748.62 3208.33 0)
(-1244.04 3130.55 0)
(46106.4 3382.48 0)
(-68035 16919.4 0)
(79409.9 18256.7 0)
(-53618.3 3821.57 0)
(1103.6 3400.08 0)
(2882.85 3468.41 0)
(3640.75 3690.69 0)
(3917.31 3941.03 0)
(4073.79 4177.77 0)
(4111.43 4437 0)
(3863.01 4706.34 0)