/*--------------------------------*- C++ -*----------------------------------*\
| =========                 |                                                 |
| \\      /  F ield         | OpenFOAM: The Open Source CFD Toolbox           |
|  \\    /   O peration     | Version:  v1912                                 |
|   \\  /    A nd           | Website:  www.openfoam.com                      |
|    \\/     M anipulation  |                                                 |
\*---------------------------------------------------------------------------*/
FoamFile
{
    version     2.0;
    format      ascii;
    class       volScalarField;
    location    "1.24";
    object      Ma;
}
// * * * * * * * * * * * * * * * * * * * * * * * * * * * * * * * * * * * * * //

dimensions      [0 0 0 0 0 0 0];


internalField   nonuniform List<scalar> 
1900
(
4.52587e-07
1.04814e-07
6.15009e-06
0.000330035
0.0038333
0.0152876
0.0308839
0.0418242
0.0486081
0.0450138
4.52104e-07
1.04687e-07
6.14662e-06
0.000328546
0.00380535
0.015165
0.0306714
0.042114
0.0495815
0.0510665
4.51805e-07
1.04672e-07
6.15288e-06
0.000328127
0.0037959
0.0151301
0.0306111
0.0422458
0.0494779
0.0539699
4.52104e-07
1.04688e-07
6.14662e-06
0.000328546
0.00380535
0.015165
0.0306714
0.042114
0.0495815
0.0510665
4.52587e-07
1.04814e-07
6.15009e-06
0.000330035
0.0038333
0.0152876
0.0308839
0.0418242
0.0486081
0.0450138
0.0505419
0.066241
0.0826676
0.106946
0.173017
0.0600874
0.0735651
0.0926762
0.13021
0.198707
0.0629235
0.0751279
0.0950558
0.135229
0.202557
0.0600874
0.0735651
0.0926762
0.13021
0.198707
0.0505419
0.066241
0.0826676
0.106946
0.173017
0.196229
0.162208
0.145296
0.143891
0.222496
0.203196
0.169745
0.142936
0.113378
0.113706
0.207635
0.17259
0.139963
0.0914374
0.00522515
0.203196
0.169745
0.142936
0.113378
0.113706
0.196229
0.162208
0.145296
0.143891
0.222496
0.4223
0.187791
0.245386
0.282422
0.294549
0.265738
0.216818
0.160122
0.103444
0.0537188
0.0188827
0.00333608
0.000197575
2.55415e-06
4.91862e-09
1.01824e-12
1.1727e-16
1.31173e-16
2.20129e-16
6.48727e-17
7.94535e-17
1.47627e-16
1.80823e-16
6.70889e-16
1.36646e-12
6.36476e-09
3.17294e-06
0.000236507
0.00387346
0.0214743
0.0605258
0.11679
0.183475
0.256436
0.332893
0.409702
0.481871
0.549035
0.683588
1.48112
0.112519
0.183234
0.125972
0.250959
0.288845
0.266971
0.217515
0.160078
0.10323
0.0535814
0.0188268
0.00332294
0.000196467
2.53436e-06
4.86923e-09
1.00006e-12
1.50678e-17
7.25659e-17
4.26714e-16
1.9046e-16
1.27133e-16
3.3835e-16
4.35138e-16
9.00586e-16
1.36736e-12
6.36476e-09
3.17294e-06
0.000236507
0.00387346
0.0214743
0.0605258
0.11679
0.183475
0.256436
0.332893
0.409702
0.481871
0.549035
0.683588
1.48112
0.210414
0.236196
0.0258751
0.239014
0.287678
0.267299
0.217823
0.160083
0.103164
0.0535337
0.0188051
0.00331764
0.00019603
2.52681e-06
4.85091e-09
9.9563e-13
3.77067e-17
4.36443e-17
3.99826e-16
2.95696e-16
2.42281e-16
5.77429e-16
6.39897e-16
6.45091e-16
1.36918e-12
6.36477e-09
3.17294e-06
0.000236507
0.00387346
0.0214743
0.0605258
0.11679
0.183475
0.256436
0.332893
0.409702
0.481871
0.549035
0.683588
1.48112
0.112519
0.183234
0.125972
0.250959
0.288845
0.266971
0.217515
0.160078
0.10323
0.0535814
0.0188268
0.00332294
0.000196467
2.53436e-06
4.86923e-09
1.00449e-12
1.14149e-16
2.36292e-17
1.34274e-16
1.14066e-16
1.05812e-16
2.37721e-16
9.18376e-17
3.39588e-16
1.37137e-12
6.36477e-09
3.17294e-06
0.000236507
0.00387346
0.0214743
0.0605258
0.11679
0.183475
0.256436
0.332893
0.409702
0.481871
0.549035
0.683588
1.48112
0.4223
0.187791
0.245386
0.282422
0.294549
0.265738
0.216818
0.160122
0.103444
0.0537188
0.0188827
0.00333608
0.000197575
2.55415e-06
4.91864e-09
1.02245e-12
1.89564e-16
1.40769e-18
7.62675e-17
7.79811e-17
9.95413e-18
1.14955e-16
4.45365e-16
1.45464e-16
1.36785e-12
6.36478e-09
3.17294e-06
0.000236507
0.00387346
0.0214743
0.0605258
0.11679
0.183475
0.256436
0.332893
0.409702
0.481871
0.549035
0.683588
1.48112
1.21644
0.48271
0.382411
0.331695
0.308509
0.267501
0.21761
0.160871
0.104125
0.0542129
0.0191283
0.00339747
0.000202577
2.63909e-06
5.12335e-09
1.06583e-12
9.75974e-17
5.50662e-17
6.03653e-17
5.88643e-17
2.33564e-17
1.06207e-16
2.47309e-16
2.78497e-16
1.37073e-12
6.36478e-09
3.17294e-06
0.000236507
0.00387346
0.0214743
0.0605258
0.11679
0.183475
0.256436
0.332893
0.409702
0.481871
0.549035
0.683588
1.48112
1.49399
0.647198
0.479021
0.384881
0.332967
0.279767
0.223761
0.164137
0.106083
0.0553514
0.0196281
0.0035145
0.000211831
2.79444e-06
5.49715e-09
1.17043e-12
1.30223e-16
9.38262e-17
1.34643e-16
2.50318e-16
1.05724e-16
1.39801e-18
8.53434e-17
1.18693e-16
1.36882e-12
6.36478e-09
3.17294e-06
0.000236507
0.00387346
0.0214743
0.0605258
0.11679
0.183475
0.256436
0.332893
0.409702
0.481871
0.549035
0.683588
1.48112
1.50216
0.674915
0.50838
0.416623
0.355911
0.295052
0.232304
0.16892
0.108772
0.0567703
0.0202016
0.00364107
0.00022151
2.95502e-06
5.88372e-09
1.26922e-12
1.50773e-16
1.24219e-16
1.10473e-16
1.11445e-16
4.77358e-17
1.77182e-17
1.07277e-16
1.64871e-17
1.3714e-12
6.36477e-09
3.17294e-06
0.000236507
0.00387346
0.0214743
0.0605258
0.11679
0.183475
0.256436
0.332893
0.409702
0.481871
0.549035
0.683588
1.48112
1.48871
0.679862
0.52132
0.440287
0.375623
0.30863
0.240553
0.173856
0.111583
0.0581916
0.0207384
0.00375214
0.000229602
3.08527e-06
6.18442e-09
1.35006e-12
1.79251e-15
1.85835e-15
1.87299e-15
1.81533e-15
1.88072e-15
1.87407e-15
1.96984e-15
1.8818e-15
1.37013e-12
6.36483e-09
3.17294e-06
0.000236507
0.00387346
0.0214743
0.0605258
0.11679
0.183475
0.256436
0.332893
0.409702
0.481871
0.549035
0.683588
1.48112
1.48317
0.679637
0.528847
0.457156
0.389854
0.318746
0.247235
0.178026
0.113954
0.059337
0.0211387
0.00382733
0.000234554
3.15682e-06
6.36403e-09
3.72984e-11
3.72649e-11
3.728e-11
3.72771e-11
3.72694e-11
3.72885e-11
3.72795e-11
3.72764e-11
3.72816e-11
3.73143e-11
6.36502e-09
3.17294e-06
0.000236507
0.00387346
0.0214743
0.0605258
0.11679
0.183475
0.256436
0.332893
0.409702
0.481871
0.549035
0.683588
1.48112
1.4793
0.678196
0.537497
0.468425
0.399399
0.325751
0.251964
0.18096
0.115571
0.0600611
0.0213625
0.00386199
0.000236459
3.1828e-06
7.40496e-08
7.37684e-08
7.37684e-08
7.37684e-08
7.37684e-08
7.37684e-08
7.37684e-08
7.37683e-08
7.37683e-08
7.37684e-08
7.37683e-08
7.40425e-08
3.1738e-06
0.000236507
0.00387346
0.0214743
0.0605258
0.11679
0.183475
0.256436
0.332893
0.409702
0.481871
0.549035
0.683588
1.48112
1.47709
0.678417
0.543793
0.475881
0.405293
0.32995
0.254656
0.182524
0.116363
0.060395
0.0214535
0.00387436
0.000237387
1.79856e-05
1.77052e-05
1.77052e-05
1.77052e-05
1.77052e-05
1.77052e-05
1.77052e-05
1.77052e-05
1.77052e-05
1.77052e-05
1.77052e-05
1.77052e-05
1.77052e-05
1.79873e-05
0.000237168
0.00387349
0.0214743
0.0605257
0.11679
0.183475
0.256436
0.332893
0.409702
0.481871
0.549035
0.683588
1.48112
1.47845
0.680592
0.54737
0.48001
0.40844
0.332178
0.256068
0.183299
0.116717
0.0604993
0.0214795
0.00394013
0.000764196
0.000726856
0.000726851
0.000726851
0.000726851
0.000726851
0.000726851
0.000726851
0.000726851
0.000726851
0.000726851
0.000726851
0.000726851
0.000726851
0.000726858
0.000764303
0.00394034
0.0214843
0.0605258
0.116786
0.183471
0.256432
0.332892
0.409702
0.481869
0.549039
0.683566
1.48113
1.48087
0.682715
0.548724
0.481483
0.409466
0.332766
0.256397
0.183518
0.116948
0.0609442
0.0227632
0.00857308
0.00766114
0.00765786
0.00765786
0.00765786
0.00765786
0.00765786
0.00765786
0.00765786
0.00765786
0.00765786
0.00765786
0.00765786
0.00765786
0.00765786
0.00765786
0.00766117
0.00857314
0.0227622
0.0609479
0.116967
0.183562
0.256492
0.332951
0.409765
0.481906
0.54915
0.683266
1.48138
1.48334
0.682711
0.550496
0.482932
0.410916
0.334242
0.258093
0.185831
0.120665
0.0680938
0.038315
0.0321292
0.0319156
0.0319157
0.0319157
0.0319157
0.0319157
0.0319157
0.0319157
0.0319157
0.0319157
0.0319157
0.0319157
0.0319157
0.0319157
0.0319157
0.0319157
0.0319156
0.0321296
0.0383165
0.0680893
0.120648
0.185797
0.258038
0.334154
0.410775
0.482716
0.550184
0.682485
1.48352
1.49046
0.684275
0.555009
0.487474
0.416282
0.340727
0.266494
0.197553
0.138475
0.0967753
0.0791603
0.0765041
0.076435
0.0764362
0.0764362
0.0764362
0.0764362
0.0764362
0.0764362
0.0764362
0.0764362
0.0764362
0.0764362
0.0764362
0.0764362
0.0764362
0.0764362
0.076435
0.0765041
0.0791611
0.0967774
0.138478
0.197551
0.266477
0.340675
0.416169
0.487285
0.55477
0.684022
1.4903
1.50158
0.693358
0.566417
0.499784
0.430583
0.357735
0.287986
0.225878
0.176931
0.147094
0.136498
0.13509
0.135068
0.135069
0.135069
0.135069
0.135069
0.135069
0.135069
0.135069
0.135069
0.135069
0.135069
0.135069
0.135069
0.135069
0.135069
0.135068
0.13509
0.136498
0.147095
0.176934
0.225882
0.287986
0.357726
0.430562
0.499752
0.56638
0.693319
1.50152
1.51642
0.713277
0.587239
0.522724
0.45637
0.387788
0.324313
0.270685
0.231605
0.209995
0.202936
0.202061
0.202056
0.202057
0.202057
0.202057
0.202057
0.202057
0.202057
0.202057
0.202057
0.202057
0.202057
0.202057
0.202057
0.202057
0.202057
0.202056
0.202061
0.202936
0.209995
0.231605
0.270686
0.324315
0.38779
0.456372
0.522727
0.587244
0.713282
1.51641
1.52719
0.743083
0.619542
0.556519
0.494675
0.430102
0.37371
0.327852
0.296415
0.279969
0.274814
0.274191
0.274187
0.274189
0.274189
0.274189
0.274189
0.274189
0.274189
0.274189
0.274189
0.274189
0.274189
0.274189
0.274189
0.274189
0.274189
0.274187
0.274191
0.274814
0.279969
0.296415
0.327851
0.373709
0.430103
0.494677
0.556522
0.619547
0.743088
1.52719
1.5475
0.781123
0.660174
0.600248
0.54097
0.483062
0.431926
0.392781
0.366758
0.353613
0.34955
0.349035
0.349025
0.349025
0.349025
0.349025
0.349025
0.349025
0.349025
0.349025
0.349025
0.349025
0.349025
0.349025
0.349025
0.349025
0.349025
0.349025
0.349035
0.34955
0.353613
0.366758
0.392781
0.431926
0.483062
0.54097
0.600249
0.660174
0.781123
1.54751
1.54814
0.824912
0.715918
0.649532
0.599112
0.541558
0.496688
0.461229
0.438713
0.427491
0.424058
0.4236
0.423583
0.423583
0.423583
0.423583
0.423583
0.423583
0.423583
0.423583
0.423583
0.423583
0.423583
0.423583
0.423583
0.423583
0.423583
0.423583
0.4236
0.424058
0.427491
0.438713
0.461229
0.496688
0.541558
0.599112
0.649532
0.715918
0.824912
1.54814
1.56965
0.867318
0.761797
0.698169
0.649199
0.600179
0.55798
0.526451
0.506345
0.49654
0.493593
0.493218
0.49321
0.49321
0.49321
0.49321
0.49321
0.49321
0.49321
0.49321
0.49321
0.49321
0.49321
0.49321
0.49321
0.49321
0.49321
0.49321
0.493218
0.493593
0.49654
0.506345
0.526451
0.55798
0.600179
0.649199
0.698169
0.761797
0.867318
1.56965
1.56066
0.918215
0.832347
0.759185
0.71189
0.657114
0.618081
0.588369
0.570024
0.560697
0.557563
0.556998
0.556951
0.55695
0.55695
0.55695
0.55695
0.55695
0.55695
0.55695
0.55695
0.55695
0.55695
0.55695
0.55695
0.55695
0.55695
0.556951
0.556998
0.557563
0.560697
0.570024
0.588369
0.618081
0.657114
0.71189
0.759185
0.832347
0.918215
1.56066
1.62768
1.01268
0.919726
0.867396
0.823844
0.780238
0.742995
0.714808
0.697443
0.690844
0.690617
0.691345
0.691496
0.691502
0.691502
0.691502
0.691502
0.691502
0.691502
0.691502
0.691502
0.691502
0.691502
0.691502
0.691502
0.691502
0.691502
0.691496
0.691345
0.690617
0.690844
0.697443
0.714808
0.742995
0.780238
0.823844
0.867396
0.919726
1.01268
1.62768
2.15507
1.63435
1.56768
1.57691
1.55492
1.55413
1.53459
1.52307
1.50881
1.49864
1.4935
1.49227
1.49217
1.49217
1.49217
1.49217
1.49217
1.49217
1.49217
1.49217
1.49217
1.49217
1.49217
1.49217
1.49217
1.49217
1.49217
1.49217
1.49227
1.4935
1.49864
1.50881
1.52307
1.53459
1.55413
1.55492
1.57691
1.56768
1.63435
2.15507
2.15507
1.63435
1.56768
1.57691
1.55492
1.55413
1.53459
1.52307
1.50881
1.49864
1.4935
1.49227
1.49217
1.49217
1.49217
1.49217
1.49217
1.49217
1.49217
1.49217
1.49217
1.49217
1.49217
1.49217
1.49217
1.49217
1.49217
1.49217
1.49227
1.4935
1.49864
1.50881
1.52307
1.53459
1.55413
1.55492
1.57691
1.56768
1.63435
2.15507
1.62768
1.01268
0.919726
0.867396
0.823844
0.780238
0.742995
0.714808
0.697443
0.690844
0.690617
0.691345
0.691496
0.691502
0.691502
0.691502
0.691502
0.691502
0.691502
0.691502
0.691502
0.691502
0.691502
0.691502
0.691502
0.691502
0.691502
0.691496
0.691345
0.690617
0.690844
0.697443
0.714808
0.742995
0.780238
0.823844
0.867396
0.919726
1.01268
1.62768
1.56066
0.918215
0.832347
0.759185
0.71189
0.657114
0.618081
0.588369
0.570024
0.560697
0.557563
0.556998
0.556951
0.55695
0.55695
0.55695
0.55695
0.55695
0.55695
0.55695
0.55695
0.55695
0.55695
0.55695
0.55695
0.55695
0.55695
0.556951
0.556998
0.557563
0.560697
0.570024
0.588369
0.618081
0.657114
0.71189
0.759185
0.832347
0.918215
1.56066
1.56965
0.867318
0.761797
0.698169
0.649199
0.600179
0.55798
0.526451
0.506345
0.49654
0.493593
0.493218
0.49321
0.49321
0.49321
0.49321
0.49321
0.49321
0.49321
0.49321
0.49321
0.49321
0.49321
0.49321
0.49321
0.49321
0.49321
0.49321
0.493218
0.493593
0.49654
0.506345
0.526451
0.55798
0.600179
0.649199
0.698169
0.761797
0.867318
1.56965
1.54814
0.824912
0.715918
0.649532
0.599112
0.541558
0.496688
0.461229
0.438713
0.427491
0.424058
0.4236
0.423583
0.423583
0.423583
0.423583
0.423583
0.423583
0.423583
0.423583
0.423583
0.423583
0.423583
0.423583
0.423583
0.423583
0.423583
0.423583
0.4236
0.424058
0.427491
0.438713
0.461229
0.496688
0.541558
0.599112
0.649532
0.715918
0.824912
1.54814
1.5475
0.781123
0.660174
0.600248
0.54097
0.483062
0.431926
0.392781
0.366758
0.353613
0.34955
0.349035
0.349025
0.349025
0.349025
0.349025
0.349025
0.349025
0.349025
0.349025
0.349025
0.349025
0.349025
0.349025
0.349025
0.349025
0.349025
0.349025
0.349035
0.34955
0.353613
0.366758
0.392781
0.431926
0.483062
0.54097
0.600249
0.660174
0.781123
1.54751
1.52719
0.743083
0.619542
0.556519
0.494675
0.430102
0.37371
0.327852
0.296415
0.279969
0.274814
0.274191
0.274187
0.274189
0.274189
0.274189
0.274189
0.274189
0.274189
0.274189
0.274189
0.274189
0.274189
0.274189
0.274189
0.274189
0.274189
0.274187
0.274191
0.274814
0.279969
0.296415
0.327851
0.373709
0.430103
0.494677
0.556522
0.619547
0.743088
1.52719
1.51642
0.713277
0.587239
0.522724
0.45637
0.387788
0.324313
0.270685
0.231605
0.209995
0.202936
0.202061
0.202056
0.202057
0.202057
0.202057
0.202057
0.202057
0.202057
0.202057
0.202057
0.202057
0.202057
0.202057
0.202057
0.202057
0.202057
0.202056
0.202061
0.202936
0.209995
0.231605
0.270686
0.324315
0.38779
0.456372
0.522727
0.587244
0.713282
1.51641
1.50158
0.693358
0.566417
0.499784
0.430583
0.357735
0.287986
0.225878
0.176931
0.147094
0.136498
0.13509
0.135068
0.135069
0.135069
0.135069
0.135069
0.135069
0.135069
0.135069
0.135069
0.135069
0.135069
0.135069
0.135069
0.135069
0.135069
0.135068
0.13509
0.136498
0.147095
0.176934
0.225882
0.287986
0.357726
0.430562
0.499752
0.56638
0.693319
1.50152
1.49046
0.684275
0.555009
0.487474
0.416282
0.340727
0.266494
0.197553
0.138475
0.0967753
0.0791603
0.0765041
0.076435
0.0764362
0.0764362
0.0764362
0.0764362
0.0764362
0.0764362
0.0764362
0.0764362
0.0764362
0.0764362
0.0764362
0.0764362
0.0764362
0.0764362
0.076435
0.0765041
0.0791611
0.0967774
0.138478
0.197551
0.266477
0.340675
0.416169
0.487285
0.55477
0.684022
1.4903
1.48334
0.682711
0.550496
0.482932
0.410916
0.334242
0.258093
0.185831
0.120665
0.0680938
0.038315
0.0321292
0.0319156
0.0319157
0.0319157
0.0319157
0.0319157
0.0319157
0.0319157
0.0319157
0.0319157
0.0319157
0.0319157
0.0319157
0.0319157
0.0319157
0.0319157
0.0319156
0.0321296
0.0383165
0.0680893
0.120648
0.185797
0.258038
0.334154
0.410775
0.482716
0.550184
0.682485
1.48352
1.48087
0.682715
0.548724
0.481483
0.409466
0.332766
0.256397
0.183518
0.116948
0.0609442
0.0227632
0.00857308
0.00766114
0.00765786
0.00765786
0.00765786
0.00765786
0.00765786
0.00765786
0.00765786
0.00765786
0.00765786
0.00765786
0.00765786
0.00765786
0.00765786
0.00765786
0.00766117
0.00857314
0.0227622
0.0609479
0.116967
0.183562
0.256492
0.332951
0.409765
0.481906
0.54915
0.683266
1.48138
1.47845
0.680592
0.54737
0.48001
0.40844
0.332178
0.256068
0.183299
0.116717
0.0604993
0.0214795
0.00394013
0.000764196
0.000726856
0.000726851
0.000726851
0.000726851
0.000726851
0.000726851
0.000726851
0.000726851
0.000726851
0.000726851
0.000726851
0.000726851
0.000726851
0.000726858
0.000764303
0.00394034
0.0214843
0.0605258
0.116786
0.183471
0.256432
0.332892
0.409702
0.481869
0.549039
0.683566
1.48113
1.47709
0.678417
0.543793
0.475881
0.405293
0.32995
0.254656
0.182524
0.116363
0.060395
0.0214535
0.00387436
0.000237387
1.79856e-05
1.77052e-05
1.77052e-05
1.77052e-05
1.77052e-05
1.77052e-05
1.77052e-05
1.77052e-05
1.77052e-05
1.77052e-05
1.77052e-05
1.77052e-05
1.77052e-05
1.79873e-05
0.000237168
0.00387349
0.0214743
0.0605257
0.11679
0.183475
0.256436
0.332893
0.409702
0.481871
0.549035
0.683588
1.48112
1.4793
0.678196
0.537497
0.468425
0.399399
0.325751
0.251964
0.18096
0.115571
0.0600611
0.0213625
0.00386199
0.000236459
3.1828e-06
7.40496e-08
7.37684e-08
7.37683e-08
7.37683e-08
7.37684e-08
7.37684e-08
7.37684e-08
7.37684e-08
7.37683e-08
7.37684e-08
7.37683e-08
7.40427e-08
3.1738e-06
0.000236507
0.00387346
0.0214743
0.0605258
0.11679
0.183475
0.256436
0.332893
0.409702
0.481871
0.549035
0.683588
1.48112
1.48317
0.679637
0.528847
0.457156
0.389854
0.318746
0.247235
0.178026
0.113954
0.059337
0.0211387
0.00382733
0.000234554
3.15682e-06
6.36401e-09
3.72946e-11
3.72734e-11
3.72809e-11
3.72693e-11
3.72637e-11
3.7272e-11
3.72634e-11
3.72663e-11
3.72672e-11
3.73285e-11
6.36486e-09
3.17294e-06
0.000236507
0.00387346
0.0214743
0.0605258
0.11679
0.183475
0.256436
0.332893
0.409702
0.481871
0.549035
0.683588
1.48112
1.48871
0.679862
0.52132
0.440287
0.375623
0.30863
0.240553
0.173856
0.111583
0.0581916
0.0207384
0.00375214
0.000229602
3.08527e-06
6.18444e-09
1.34974e-12
1.69643e-15
1.71573e-15
1.80037e-15
1.80413e-15
1.87391e-15
1.8003e-15
1.86284e-15
1.86931e-15
1.37037e-12
6.36485e-09
3.17294e-06
0.000236507
0.00387346
0.0214743
0.0605258
0.11679
0.183475
0.256436
0.332893
0.409702
0.481871
0.549035
0.683588
1.48112
1.50216
0.674915
0.50838
0.416623
0.355911
0.295052
0.232304
0.16892
0.108772
0.0567703
0.0202016
0.00364107
0.00022151
2.95502e-06
5.88371e-09
1.26904e-12
1.44172e-16
5.33949e-17
8.42665e-19
9.22177e-17
1.1711e-18
0
9.55516e-17
4.93947e-17
1.37433e-12
6.3648e-09
3.17294e-06
0.000236507
0.00387346
0.0214743
0.0605258
0.11679
0.183475
0.256436
0.332893
0.409702
0.481871
0.549035
0.683588
1.48112
1.49399
0.647198
0.479021
0.384881
0.332967
0.279767
0.223761
0.164137
0.106083
0.0553514
0.0196281
0.0035145
0.000211831
2.79444e-06
5.49716e-09
1.17301e-12
1.12578e-16
1.67228e-16
6.9464e-17
2.05017e-16
7.52237e-17
0
2.42289e-18
6.13124e-17
1.38473e-12
6.36477e-09
3.17294e-06
0.000236507
0.00387346
0.0214743
0.0605258
0.11679
0.183475
0.256436
0.332893
0.409702
0.481871
0.549035
0.683588
1.48112
1.21644
0.48271
0.382411
0.331695
0.308509
0.267501
0.21761
0.160871
0.104125
0.0542129
0.0191283
0.00339747
0.000202577
2.63909e-06
5.12334e-09
1.07776e-12
2.34285e-16
2.46689e-16
3.98889e-16
3.01503e-16
2.16513e-16
6.92975e-17
2.0705e-17
1.37786e-16
1.37353e-12
6.36476e-09
3.17294e-06
0.000236507
0.00387346
0.0214743
0.0605258
0.11679
0.183475
0.256436
0.332893
0.409702
0.481871
0.549035
0.683588
1.48112
)
;

boundaryField
{
    inlet
    {
        type            calculated;
        value           uniform 0;
    }
    outlet
    {
        type            calculated;
        value           nonuniform List<scalar> 
165
(
1.21644
1.49399
1.50216
1.48871
1.48317
1.4793
1.47709
1.47845
1.48087
1.48334
1.49046
1.50158
1.51642
1.52719
1.5475
1.54814
1.56965
1.56066
1.62768
2.15507
2.15507
1.63435
1.56768
1.57691
1.55492
1.55413
1.53459
1.52307
1.50881
1.49864
1.4935
1.49227
1.49217
1.49217
1.49217
1.49217
1.49217
1.49217
1.49217
1.49217
1.49217
1.49217
1.49217
1.49217
1.49217
1.49217
1.49217
1.49217
1.49227
1.4935
1.49864
1.50881
1.52307
1.53459
1.55413
1.55492
1.57691
1.56768
1.63435
2.15507
1.48112
1.48112
1.48112
1.48112
1.48112
1.48112
1.48112
1.48113
1.48138
1.48352
1.4903
1.50152
1.51641
1.52719
1.54751
1.54814
1.56965
1.56066
1.62768
2.15507
1.48112
1.48112
1.48112
1.48112
1.48112
2.15507
1.62768
1.56066
1.56965
1.54814
1.54751
1.52719
1.51641
1.50152
1.4903
1.48352
1.48138
1.48113
1.48112
1.48112
1.48112
1.48112
1.48112
1.48112
1.48112
2.15507
1.63435
1.56768
1.57691
1.55492
1.55413
1.53459
1.52307
1.50881
1.49864
1.4935
1.49227
1.49217
1.49217
1.49217
1.49217
1.49217
1.49217
1.49217
1.49217
1.49217
1.49217
1.49217
1.49217
1.49217
1.49217
1.49217
1.49217
1.49227
1.4935
1.49864
1.50881
1.52307
1.53459
1.55413
1.55492
1.57691
1.56768
1.63435
2.15507
2.15507
1.62768
1.56066
1.56965
1.54814
1.5475
1.52719
1.51642
1.50158
1.49046
1.48334
1.48087
1.47845
1.47709
1.4793
1.48317
1.48871
1.50216
1.49399
1.21644
)
;
    }
    obstacle
    {
        type            calculated;
        value           nonuniform List<scalar> 
40
(
4.52587e-07
1.04814e-07
6.15009e-06
0.000330035
0.00383329
0.0152876
0.0308839
0.0418186
0.0485455
0.0442933
4.52587e-07
1.04814e-07
6.15009e-06
0.000330035
0.00383329
0.0152876
0.0308839
0.0418186
0.0485455
0.0442933
0.0500832
0.0657159
0.0824911
0.106711
0.165393
0.0500832
0.0657159
0.0824911
0.106711
0.165393
0.195746
0.162124
0.145291
0.143009
0.216038
0.195746
0.162124
0.145291
0.143009
0.216038
)
;
    }
    empty
    {
        type            empty;
    }
}


// ************************************************************************* //
