/*--------------------------------*- C++ -*----------------------------------*\
| =========                 |                                                 |
| \\      /  F ield         | OpenFOAM: The Open Source CFD Toolbox           |
|  \\    /   O peration     | Version:  v1912                                 |
|   \\  /    A nd           | Website:  www.openfoam.com                      |
|    \\/     M anipulation  |                                                 |
\*---------------------------------------------------------------------------*/
FoamFile
{
    version     2.0;
    format      ascii;
    class       volScalarField;
    location    "0.00034";
    object      rhoMMean;
}
// * * * * * * * * * * * * * * * * * * * * * * * * * * * * * * * * * * * * * //

dimensions      [1 -3 0 0 0 0 0];


internalField   nonuniform List<scalar> 
1300
(
0.009130952941
0.01058455294
0.02289196471
0.06057229412
0.03485584706
0.02474398824
0.03485945882
0.03657861176
0.03069468235
0.02931145882
0.01045956471
0.01058455294
0.03397694118
0.1063985882
0.05129374118
0.03153103529
0.05350022353
0.05322270588
0.03990009412
0.03759048235
0.005372388235
0.006173317647
0.03033158824
0.1090984588
0.05031264706
0.02993278824
0.05865777647
0.06642098824
0.04649529412
0.04431845882
0.003508682353
0.003520364706
0.02653788235
0.1046715529
0.04662872941
0.02921448235
0.06013464706
0.07767397647
0.05059785882
0.04904282353
0.002258329412
0.003078823529
0.02876458824
0.1027812471
0.04529584706
0.02406443529
0.05634882353
0.07073069412
0.05509894118
0.05028909412
0.001480764706
0.001996576471
0.0259554
0.1030235294
0.04446357647
0.02340388235
0.05278970588
0.06749174118
0.05208270588
0.04885135294
0.001136952941
0.002102094118
0.02788549412
0.1031168941
0.04300988235
0.02260304706
0.05078144706
0.06387763529
0.04819849412
0.04671022353
0.001140847059
0.001371447059
0.02766268235
0.1028358588
0.04390521176
0.02396281176
0.05171069412
0.06723388235
0.04566682353
0.04448304706
0.0007071882353
0.001254247059
0.026893
0.1053285882
0.04246282353
0.02266943529
0.05316495294
0.06495969412
0.04532310588
0.04342815294
0.0005391764706
0.001090129412
0.02724061176
0.1013900471
0.0444442
0.02392738824
0.04867109412
0.06555756471
0.04592876471
0.04011112941
0.0005938823529
0.0009494705882
0.02789727059
0.1024685882
0.04442472941
0.02371654118
0.05082798824
0.06683954118
0.04661685882
0.04343594118
0.0003555882353
0.0009612470588
0.02689309412
0.1006320471
0.04227543529
0.02217708235
0.05158997647
0.06476869412
0.04466672941
0.04335768235
0.0002539647059
0.001054988235
0.0250254
0.1017921765
0.04355332941
0.02213804706
0.04873785882
0.06558881176
0.04481489412
0.04302184706
0.0002500705882
0.0006916117647
0.02752230588
0.1025818
0.04402212941
0.02248176471
0.04908927059
0.06426827059
0.04614749412
0.04200589412
0.0001094117647
0.0006916117647
0.02667037647
0.1000033059
0.04412394118
0.0230954
0.04946052941
0.06670667059
0.04680368235
0.04152930588
0.0001992588235
0.0008947647059
0.02854947059
0.1022540353
0.0425842
0.02486907059
0.05088658824
0.06366744706
0.04655
0.04253329412
0.0001914705882
0.0007502117647
0.02689708235
0.1010771059
0.04252161176
0.02499804706
0.05121862353
0.06195115294
0.04712450588
0.04240783529
0.0001680117647
0.0004766823529
0.02831127059
0.1025896824
0.04207608235
0.02406035294
0.04952654118
0.06548357647
0.04799543529
0.04134552941
0.0001406588235
0.0008557294118
0.02608817647
0.1016250118
0.04255304706
0.0230368
0.04952748235
0.06287772941
0.04526051765
0.04129490588
8.205882353e-05
0.0006720470588
0.02406814118
0.09640392941
0.04296695294
0.02399804706
0.04900721176
0.06080270588
0.04564364706
0.04295109412
0.03042294094
0.02831147189
0.02772919211
0.0263968294
0.02596233106
0.02529603363
0.02641638506
0.02792524272
0.0259750066
0.02658654258
0.02607811453
0.02801552073
0.02753298622
0.02774843745
0.02840863023
0.02888146443
0.02830528928
0.02784513064
0.02939286728
0.02887473891
0.02870121898
0.03120830717
0.0299724046
0.02979528947
0.03117263602
0.03173582525
0.03376648428
0.03326447164
0.03744524509
0.0375578988
0.03585518984
0.03169702403
0.02863347189
0.02895523909
0.02884556046
0.02814100451
0.02677312569
0.02772903684
0.02719792351
0.02734953318
0.02779005864
0.02564048656
0.02894240871
0.02787079116
0.02832132748
0.0271498096
0.02700523508
0.02700484768
0.02884594833
0.03072225472
0.02840495749
0.02952484377
0.03128857428
0.03097979277
0.02951224597
0.0324502368
0.03060631645
0.03143001876
0.03271136981
0.03493494962
0.04520441457
0.04042508993
0.03532415381
0.03369247705
0.03189972263
0.03176171884
0.02971486705
0.02886855629
0.02932863788
0.02806363463
0.02787689624
0.02755856945
0.0275971381
0.02846277147
0.02848530238
0.02850478052
0.02749746989
0.02883288538
0.0299435365
0.02935773856
0.02992092829
0.03097963772
0.0285241809
0.02930595215
0.02868502597
0.03114353484
0.0303521413
0.0316266898
0.03304901992
0.03247276774
0.05267412506
0.05083028155
0.04324181299
0.04051521298
0.0394341276
0.03521494057
0.03467428176
0.03380207764
0.03187108712
0.03128215935
0.03066428546
0.02957616527
0.0305325418
0.02884281802
0.02973098254
0.02951209092
0.02813756411
0.02929327682
0.02925760567
0.02985310343
0.03057424051
0.03087363208
0.0306834535
0.03090555297
0.03283982887
0.03041316285
0.0318577916
0.03324194096
0.03179402709
0.02978887428
0.06180789834
0.05880857485
0.05091383446
0.04857416134
0.04724210834
0.04201522335
0.04077908844
0.03851349976
0.03834944765
0.03376045672
0.03345120953
0.03321002007
0.03191935608
0.03222500751
0.03107946075
0.03174896599
0.031330273
0.03032327296
0.03098307789
0.02935460849
0.02975359075
0.03012354937
0.02975343545
0.03147546775
0.02974365787
0.03251493134
0.03212220973
0.03136555679
0.03036184136
0.02989198243
0.05612406167
0.06114527293
0.05589257225
0.05503335384
0.05222389864
0.05024784691
0.04658183865
0.04510826391
0.04097575948
0.04098843481
0.0384974618
0.03704305579
0.03701372229
0.03527298707
0.03521486305
0.03340630349
0.03491249618
0.03209623888
0.0319065257
0.03384706147
0.03265958343
0.03162981987
0.0323314783
0.03034244099
0.0326888394
0.03235087892
0.03181648051
0.03118929418
0.03106342253
0.03260169169
0.05274194968
0.06034692128
0.05878275954
0.05883102849
0.05862496676
0.05701582118
0.05438324921
0.04974904146
0.05040838165
0.04861624769
0.04394644635
0.04270068903
0.03921500373
0.03961742559
0.03884214761
0.03767994242
0.03732946162
0.03758363708
0.03551738468
0.03441674368
0.03435228199
0.03502812489
0.03451351416
0.03342241898
0.03282050579
0.03340294057
0.03308109613
0.03332603612
0.03412079228
0.0325855762
0.05164146401
0.05579939652
0.05624993308
0.05501121078
0.06129297729
0.06277977016
0.05915287321
0.05556118182
0.05529707424
0.05367517532
0.04945911763
0.0483681001
0.04770860526
0.04495062667
0.04306438751
0.04286130129
0.04067980775
0.04124581755
0.03865853952
0.03885779764
0.03797330642
0.03832026921
0.03685287716
0.03681454139
0.03572993864
0.03519882479
0.03438466802
0.03565562131
0.03437191489
0.03386653989
0.05069799538
0.05323097645
0.04966533433
0.05209207762
0.05511025811
0.06039198314
0.05785618165
0.06064577016
0.06250650449
0.05634654851
0.055519173
0.05640467282
0.05109071726
0.05012502764
0.04871881316
0.04654029498
0.04565495029
0.04267197573
0.04456424283
0.04133296492
0.04243681357
0.03958542751
0.0406793426
0.04047679939
0.03985548558
0.0395370807
0.03906370415
0.03752590039
0.03698493117
0.0359906065
0.04992913226
0.05249121426
0.04897353099
0.04936891779
0.05349203194
0.05566108283
0.05518770596
0.05719958385
0.05927843452
0.06174343636
0.05835162358
0.05988653033
0.0575019509
0.05547786191
0.05284192775
0.05344353085
0.04959414666
0.04895397532
0.04866428407
0.04723515048
0.04708423891
0.04593548429
0.0452141145
0.04334445599
0.04360535643
0.04273941237
0.04137794909
0.0415129006
0.04081468174
0.03839137895
0.04868619455
0.05227553024
0.04941772942
0.04926291214
0.04960751971
0.0538296825
0.05194070052
0.05402635309
0.05818092387
0.05923681332
0.05774634774
0.06056871089
0.06030522306
0.05925872332
0.05793613892
0.05609237336
0.05801358584
0.05375606289
0.05153796824
0.05052165484
0.04688130774
0.04895718292
0.04839696804
0.04628252461
0.04701641429
0.04655289239
0.04531104041
0.04448718305
0.04307408747
0.0435436369
0.04775992676
0.05208863703
0.04764132332
0.04875073405
0.04888653793
0.05210154536
0.05007088659
0.05216287683
0.0555773753
0.05588287195
0.0573769318
0.06000903909
0.06052763237
0.05816824806
0.05974531868
0.06151499949
0.05718308073
0.05526186824
0.05829349975
0.05551306791
0.05365936993
0.0523715259
0.05197277603
0.05074703959
0.05013496093
0.04980364807
0.04825896439
0.04777642988
0.04943330183
0.04722239802
0.04914040338
0.05079805057
0.04905066828
0.04656900827
0.0498292313
0.05146434863
0.04993852247
0.0487221754
0.05422584454
0.05391628753
0.05326680266
0.05927194181
0.05813304254
0.05973561788
0.06318203729
0.06280933622
0.05887303683
0.06013780798
0.05960020171
0.0586599402
0.05617295083
0.05682290041
0.0563467031
0.05266801997
0.05281290436
0.05222656356
0.05255552162
0.05099425688
0.05071113544
0.05169920069
0.0469873909
0.05169270756
0.04815601129
0.04738652797
0.04816555615
0.0501031951
0.04830692324
0.04718085396
0.05070479819
0.051708901
0.04986169486
0.05315407217
0.05689980513
0.05489840187
0.06116467405
0.05867346878
0.06113565015
0.06237124288
0.06035356954
0.05982245548
0.0607527066
0.0584350215
0.05928164162
0.05850558856
0.05432856507
0.0572478528
0.05537459917
0.05328917873
0.05648806979
0.05340190966
0.04911458758
0.05080790592
0.04778550999
0.04744770482
0.04754776004
0.04925305679
0.04916590908
0.04781163549
0.04955878601
0.04903737276
0.04793391168
0.05129364844
0.05405475673
0.05045680524
0.0555096282
0.05675515331
0.05691599768
0.06102299725
0.06054023017
0.06093233135
0.06134804956
0.05966481874
0.05962296448
0.05862206975
0.06084549425
0.0571190839
0.05631103241
0.05751462622
0.05503061094
0.05645583927
0.04886431775
0.05199538424
0.04810422464
0.04764101322
0.04931469839
0.05259385769
0.04637960519
0.04798523318
0.05042778226
0.0505470059
0.04676567893
0.04918882739
0.04918890491
0.0496620488
0.05214668424
0.05384572046
0.05553223595
0.0569806927
0.05785579403
0.05930096471
0.06143136947
0.06164376838
0.06252903466
0.05941698125
0.06093928971
0.06109027869
0.05825187856
0.05842868383
0.05942988866
0.05795905723
0.0490052193
0.04929232275
0.05065668429
0.04643726436
0.04831685572
0.04939488863
0.04790481116
0.04828157219
0.04880572829
0.05075306715
0.04886072213
0.05019277515
0.05184111007
0.04878655985
0.05126767759
0.05115533429
0.05203677285
0.0526939133
0.05523894993
0.05854446682
0.05941995627
0.05924260831
0.06274456363
0.06155098074
0.06221986578
0.06130901526
0.06311147023
0.06034340408
0.06112579479
0.06197867605
0.04873774862
0.0506790595
0.04821054038
0.04795277001
0.04802708694
0.05215294438
0.04839743359
0.04702595916
0.05072091369
0.04798233608
0.05009639187
0.04877999001
0.05121658866
0.05041502899
0.05116495707
0.05126760006
0.05301912022
0.05303774602
0.05260692064
0.05429304851
0.05671314449
0.05549038264
0.05848657509
0.05922680292
0.06208757919
0.05913714486
0.06429566344
0.06262870315
0.06176337914
0.06136362238
0.04780185806
0.05147397099
0.04734475173
0.04609922662
0.04739004527
0.05008027679
0.04788541054
0.04762168974
0.04901484208
0.0488638526
0.04906373083
0.04792053902
0.05085304523
0.04847113032
0.04788228047
0.05158036468
0.04926932693
0.0529479334
0.05180841393
0.05391331206
0.05376866069
0.05430259422
0.05760498105
0.05632355268
0.06011488968
0.06049509079
0.06093553945
0.06130565312
0.06099374078
0.06582759469
0.04787922793
0.04842324899
0.04685564699
0.04797217062
0.04646300225
0.04810750976
0.04750238897
0.04635660898
0.04891532915
0.04594808209
0.04662384708
0.04774075873
0.04801761961
0.04762474229
0.04731252074
0.04807566639
0.04858393877
0.04873172106
0.04919555268
0.04996464796
0.05168613775
0.05199874731
0.05261951801
0.05490802511
0.05572194959
0.05697373436
0.05603111898
0.05953910238
0.06088437249
0.06022441301
0.03128068235
0.03042875294
0.03072574118
0.03154252941
0.03008503529
0.02802197647
0.02736541176
0.0264752
0.02459174118
0.02051615294
0.03813355294
0.03885631765
0.03548468235
0.03566428235
0.03519928235
0.03612501176
0.03423052941
0.03288263529
0.02905369412
0.02500583529
0.03335495294
0.03321856471
0.03446502353
0.03426548235
0.03250377647
0.03362468235
0.03180836471
0.03165545882
0.02790848235
0.02431051765
0.03154243529
0.03219111765
0.0338512
0.03310127059
0.03178509412
0.03153835294
0.02958090588
0.03036663529
0.02741622353
0.02545127059
0.02999101176
0.03154614118
0.03172212941
0.03128448235
0.03126501176
0.02967882353
0.03246065882
0.02898312941
0.02682642353
0.02591627059
0.03280048235
0.03211665882
0.02992110588
0.03018656471
0.02937794118
0.02927232941
0.02965536471
0.02778377647
0.02787751765
0.02795558824
0.03184341176
0.03182004706
0.03316747059
0.03124174118
0.02945230588
0.03156209412
0.02924896471
0.02899091765
0.02812369412
0.02711172941
0.03385157647
0.03278556471
0.03395329412
0.03125731765
0.03359770588
0.0304638
0.02947567059
0.02979222353
0.02832694118
0.02744784706
0.03615701176
0.035473
0.03352352941
0.03297998824
0.03378945882
0.03174587059
0.03244508235
0.03006167059
0.02901447059
0.02895216471
0.03986438824
0.03703192941
0.03827857647
0.03641496471
0.03528152941
0.03548468235
0.03294512941
0.03124962353
0.0329608
0.03089403529
0.04149407059
0.0402668
0.04153709412
0.03830156471
0.0383954
0.03556692941
0.03682525882
0.03634857647
0.03500030588
0.03358602353
0.04453765882
0.04634675294
0.04506904706
0.04350223529
0.04211530588
0.04326384706
0.03956378824
0.03981357647
0.03533994118
0.03725891765
0.04989789412
0.05084337647
0.04762417647
0.04814378824
0.04847934118
0.0455142
0.04275202353
0.04522537647
0.04147431765
0.04078650588
0.05281335294
0.05404728235
0.05416828235
0.05166044706
0.05100777647
0.05132043529
0.04902278824
0.048085
0.04781165882
0.04492468235
0.05452072941
0.05352832941
0.0532038
0.05362985882
0.05320361176
0.05347315294
0.05100749412
0.05259823529
0.05122650588
0.04934722353
0.05775930588
0.0575288
0.05782977647
0.05708308235
0.05800158824
0.05648169412
0.05648605882
0.05254343529
0.05436829412
0.05441854118
0.0590486
0.06219836471
0.06193623529
0.06080308235
0.05695865882
0.0602678
0.05797803529
0.06037711765
0.05795058824
0.05680251765
0.06206483529
0.05745072941
0.05912685882
0.06267847059
0.06212381176
0.06202589412
0.06080716471
0.06088903529
0.06098695294
0.05937664706
0.06157276471
0.06196748235
0.06249089412
0.06105343529
0.06312742353
0.06106891765
0.06189729412
0.0634946
0.06310832941
0.06386243529
0.06034197647
0.06011165882
0.06313948235
0.06156478824
0.06144815294
0.06272501176
0.06107271765
0.06182255294
0.06297944706
0.06390545882
0.02583873449
0.03184614019
0.0305550861
0.03051279747
0.03053948801
0.03025335041
0.0312973545
0.02953842441
0.02943430365
0.03074049024
0.03011060708
0.03156009572
0.03101892237
0.03099543226
0.03154073817
0.0320940289
0.03436716151
0.03248786138
0.03300638302
0.03304444595
0.03344719509
0.03342361217
0.03444779276
0.03537198523
0.03502768155
0.0364966202
0.0375599822
0.03715027258
0.03613774307
0.03179577362
0.02847911396
0.03857550282
0.03789813224
0.03729972046
0.03777684914
0.0348845297
0.03681522783
0.03910518011
0.03804923413
0.03955930684
0.03840526243
0.03741336604
0.0391169554
0.03795031537
0.0371557998
0.03956003636
0.03867019226
0.04078272369
0.03998756942
0.04011271595
0.04279633636
0.04061580034
0.04046828867
0.04133108354
0.04157337545
0.04453010918
0.04678619657
0.04606704919
0.04703648995
0.03963917791
0.02765189433
0.03759527073
0.0367573085
0.03791053165
0.03873722618
0.03659783005
0.03680852117
0.03671232676
0.03634901419
0.03721311914
0.03662370405
0.03508400761
0.03737611525
0.03728370651
0.03806956341
0.0382739339
0.03798842234
0.03923837593
0.03940524705
0.03706130103
0.03904905879
0.03971293626
0.0402281559
0.03773599984
0.03921935823
0.041767674
0.0433471375
0.0447265518
0.0463628889
0.03578150945
0.02872627017
0.03630144324
0.03729369012
0.03615618391
0.03757024352
0.03610873812
0.03594872483
0.03447643811
0.03664656663
0.03489126904
0.03565060946
0.03535620505
0.03615980665
0.03353543523
0.03732638231
0.03758438458
0.03749752613
0.03830793576
0.03692992805
0.03623941894
0.03684289483
0.03823875354
0.04008867968
0.04001967296
0.04059752668
0.03952566714
0.04185916905
0.04503956991
0.04444342698
0.03633793361
0.02820807774
0.03583894301
0.03575283661
0.03476964884
0.03348654664
0.03489795044
0.03329024206
0.03424925224
0.03496154322
0.03608792743
0.03540700358
0.03195377417
0.03553530551
0.03287735011
0.03505111612
0.03555011449
0.03700388422
0.03455228944
0.03680775137
0.03542493533
0.03734971726
0.0372176061
0.03655469984
0.03868237559
0.03925292926
0.03872551445
0.04105321882
0.0419509008
0.04451329462
0.03819091048
0.02618591044
0.03543894222
0.03350241097
0.03386634611
0.03385249404
0.03406178653
0.03233845215
0.03274012148
0.03367388446
0.03399890625
0.03395327721
0.0344426364
0.03296385516
0.03144318152
0.0342330074
0.03428577252
0.03516668556
0.03480640314
0.03506489224
0.03366997914
0.0354146388
0.03483784328
0.03541107028
0.0369523953
0.03707127208
0.04011635505
0.03936128682
0.0406058827
0.04456272969
0.03880505844
0.02392048733
0.03212829854
0.03229288407
0.03260554028
0.0327597044
0.03267757731
0.03039022859
0.02997835208
0.03073624388
0.02892872892
0.02986854596
0.031243839
0.03191894217
0.03257452534
0.03333249978
0.03407371177
0.0328558364
0.03485536777
0.03292803896
0.03351500362
0.03403260677
0.03513676145
0.03506455887
0.03671099004
0.03681362861
0.03808961839
0.03849441004
0.03989771205
0.04200012921
0.0386073042
0.02277568259
0.03021284577
0.02963031967
0.0319802336
0.03087319706
0.03127044212
0.02905212199
0.02827727847
0.03122665862
0.03047235375
0.02914280093
0.029668041
0.03100471003
0.03073832888
0.0323778028
0.03040500075
0.03181549018
0.03052980249
0.03092001192
0.03231093612
0.03176867586
0.03179519534
0.03274812233
0.03371406633
0.03571387445
0.03614499818
0.03745785473
0.03813465906
0.04167974361
0.03819513889
0.02126275894
0.03046905663
0.02759301386
0.02643298323
0.0282016313
0.02949722354
0.02778514291
0.02885308035
0.02848585353
0.02900158196
0.02863121918
0.0285289238
0.03004300261
0.02992712969
0.03033349552
0.03192680691
0.03031702166
0.02921621664
0.03155660364
0.02975862111
0.03147094088
0.03026414711
0.03106112106
0.03321307216
0.03207233207
0.03483258177
0.03543453066
0.03681233144
0.04008211823
0.03804885734
0.01997169828
0.02854399346
0.02496582295
0.02574183664
0.02519321148
0.02652116467
0.02640750941
0.02662518957
0.02671919369
0.02723229954
0.02774185618
0.02714145354
0.02821605061
0.02906396262
0.02968678392
0.02893689383
0.02874533681
0.02881684454
0.02935260323
0.03168025297
0.03038497431
0.03137835552
0.02990777839
0.03104417483
0.03250496515
0.03168680342
0.03388169456
0.03648297755
0.03708338011
0.03703460398
)
;

boundaryField
{
    inlet
    {
        type            calculated;
        value           nonuniform List<scalar> 
20
(
0.009130952941
0.01045956471
0.005372388235
0.003508682353
0.002258329412
0.001480764706
0.001136952941
0.001140847059
0.0007071882353
0.0005391764706
0.0005938823529
0.0003555882353
0.0002539647059
0.0002500705882
0.0001094117647
0.0001992588235
0.0001914705882
0.0001680117647
0.0001406588235
8.205882353e-05
)
;
    }
    outlet
    {
        type            calculated;
        value           nonuniform List<scalar> 
70
(
0.02051615294
0.02500583529
0.02431051765
0.02545127059
0.02591627059
0.02795558824
0.02711172941
0.02744784706
0.02895216471
0.03089403529
0.03358602353
0.03725891765
0.04078650588
0.04492468235
0.04934722353
0.05441854118
0.05680251765
0.05937664706
0.06386243529
0.06390545882
8.205882353e-05
0.0006720470588
0.02406814118
0.09640392941
0.04296695294
0.02399804706
0.04900721176
0.06080270588
0.04564364706
0.04295109412
0.04787922793
0.04842324899
0.04685564699
0.04797217062
0.04646300225
0.04810750976
0.04750238897
0.04635660898
0.04891532915
0.04594808209
0.04662384708
0.04774075873
0.04801761961
0.04762474229
0.04731252074
0.04807566639
0.04858393877
0.04873172106
0.04919555268
0.04996464796
0.05168613775
0.05199874731
0.05261951801
0.05490802511
0.05572194959
0.05697373436
0.05603111898
0.05953910238
0.06088437249
0.06022441301
0.06034197647
0.06011165882
0.06313948235
0.06156478824
0.06144815294
0.06272501176
0.06107271765
0.06182255294
0.06297944706
0.06390545882
)
;
    }
    wall
    {
        type            calculated;
        value           uniform 8.529411765e-301;
    }
    frontAndBack
    {
        type            empty;
    }
}


// ************************************************************************* //
