/*--------------------------------*- C++ -*----------------------------------*\
| =========                 |                                                 |
| \\      /  F ield         | OpenFOAM: The Open Source CFD Toolbox           |
|  \\    /   O peration     | Version:  v1912                                 |
|   \\  /    A nd           | Website:  www.openfoam.com                      |
|    \\/     M anipulation  |                                                 |
\*---------------------------------------------------------------------------*/
FoamFile
{
    version     2.0;
    format      ascii;
    class       volVectorField;
    location    "2.98";
    object      grad(rho);
}
// * * * * * * * * * * * * * * * * * * * * * * * * * * * * * * * * * * * * * //

dimensions      [1 -4 0 0 0 0 0];


internalField   nonuniform List<vector> 
1900
(
(54754.8 0.0114091 0)
(-39323.6 -0.0476586 0)
(-3534.51 0.206691 0)
(331.278 -0.0704347 0)
(544.165 0.379122 0)
(675.504 -2.29499 0)
(689.073 -13.1894 0)
(563.842 -66.3578 0)
(517.401 -143.507 0)
(-722.103 -279.721 0)
(54754.7 -0.00976055 0)
(-39323.5 -0.133788 0)
(-3534.53 0.068265 0)
(331.45 -1.57741 0)
(541.94 -3.5051 0)
(661.936 -8.39237 0)
(625.01 -13.6127 0)
(433.524 -39.9998 0)
(304.037 -69.9514 0)
(-21.4741 -320.665 0)
(54754.6 2.23821e-09 0)
(-39323.6 -1.59872e-09 0)
(-3535.95 -3.14415e-09 0)
(327.704 2.30926e-09 0)
(537.35 7.94032e-09 0)
(665.397 6.57252e-10 0)
(657.466 -8.27782e-09 0)
(507.503 -2.64677e-09 0)
(236.735 4.10338e-09 0)
(-247.712 4.61853e-09 0)
(54754.7 0.00976055 0)
(-39323.5 0.133788 0)
(-3534.53 -0.068265 0)
(331.45 1.57741 0)
(541.94 3.5051 0)
(661.936 8.39237 0)
(625.01 13.6127 0)
(433.524 39.9998 0)
(304.037 69.9514 0)
(-21.4741 320.665 0)
(54754.8 -0.0114091 0)
(-39323.6 0.0476586 0)
(-3534.51 -0.206691 0)
(331.278 0.0704347 0)
(544.165 -0.379122 0)
(675.504 2.29499 0)
(689.073 13.1894 0)
(563.842 66.3578 0)
(517.401 143.507 0)
(-722.103 279.721 0)
(-1162.76 415.735 1.50769e-11)
(-989.048 445.882 -1.83482e-11)
(-4173.25 272.099 -2.30404e-11)
(-16780.4 2572 0)
(-6195.62 20030.8 -8.55098e-11)
(-329.259 275.123 1.5152e-11)
(-1286.78 53.2328 1.83482e-11)
(-2935.9 -349.651 2.30404e-11)
(-8163.93 914.486 0)
(-3122.05 16374.2 0)
(-527.667 4.56961e-09 0)
(-1473.22 5.22e-09 0)
(-3421.35 -2.41782e-09 0)
(-8012.17 -6.05576e-10 0)
(5839.85 -1.31112e-08 0)
(-329.259 -275.123 1.5152e-11)
(-1286.78 -53.2328 1.83482e-11)
(-2935.9 349.651 2.30404e-11)
(-8163.93 -914.486 0)
(-3122.05 -16374.2 0)
(-1162.76 -415.735 -4.53808e-11)
(-989.048 -445.882 -1.83482e-11)
(-4173.25 -272.099 -2.30404e-11)
(-16780.4 -2572 -6.1142e-11)
(-6195.62 -20030.8 8.55098e-11)
(24511.7 -3259.46 4.61455e-11)
(7449.19 -126.13 -4.03875e-11)
(7342.69 1094.83 0)
(5694.77 331.211 3.32352e-11)
(-8491.88 -8311.82 -1.52511e-11)
(17842.2 -3111.7 -2.30237e-11)
(8602.34 312.463 2.01918e-11)
(7453.28 79.2919 0)
(1638.24 -1887.31 -2.07641e-11)
(-15021 -17368.2 3.61943e-12)
(19407.8 -1.37264e-08 0)
(8217.47 -1.73081e-08 0)
(6391.37 -1.65793e-08 0)
(-2015.73 -6.03729e-08 8.28289e-12)
(-17353.3 -8.18578e-08 -7.23886e-12)
(17842.2 3111.7 -2.30237e-11)
(8602.34 -312.463 2.01918e-11)
(7453.28 -79.2919 0)
(1638.24 1887.31 -2.07641e-11)
(-15021 17368.2 3.61943e-12)
(24511.7 3259.46 2.30237e-11)
(7449.19 126.13 3.79863e-15)
(7342.69 -1094.83 0)
(5694.77 -331.211 9.97498e-15)
(-8491.88 8311.82 1.52511e-11)
(-42128.3 -61199.7 0)
(-32334.4 6728.06 0)
(-258.404 4925.49 0)
(-678.264 2063.35 0)
(-1497.42 1017.32 0)
(-787.954 457.368 0)
(-1.43929 333.288 0)
(341.95 275.455 0)
(614.456 232.032 0)
(921.664 194.354 0)
(1171.01 190.309 0)
(1399.5 185.727 0)
(1592.66 182.448 0)
(1701.38 178.819 0)
(1666.53 174.694 0)
(1460.06 170.369 0)
(1124.74 166.165 0)
(723.691 162.237 0)
(394.702 159.775 0)
(114.403 157.631 0)
(-216.627 157.653 0)
(-503.008 159.472 0)
(-843.421 161.405 0)
(-1264.85 164.234 0)
(-1631.13 166.569 0)
(-1889.43 168.029 0)
(-2001.33 168.208 0)
(-1990.52 167.192 0)
(-1902.2 165.551 0)
(-1776.4 164.026 0)
(-1639.38 163.25 0)
(-1511.21 163.253 0)
(-1405.2 164.555 0)
(-1317.47 163.539 0)
(-1175.77 160.15 0)
(-957.511 157.629 0)
(-624.771 147.198 0)
(1519.69 186.02 0)
(149569 651.079 0)
(-179467 6274.36 0)
(-39526.6 -23666.9 0)
(-26987.3 9125.27 0)
(-885.984 4312.11 0)
(-1405 1023.49 0)
(-1626.16 462.766 0)
(-843.565 187.934 0)
(-15.4261 140.882 0)
(334.112 112.235 0)
(608.829 99.5067 0)
(917.817 81.4425 0)
(1170.67 79.5904 0)
(1399.03 76.9425 0)
(1592.24 75.0607 0)
(1700.8 73.0598 0)
(1665.8 70.7432 0)
(1459.28 68.3213 0)
(1123.98 66.0344 0)
(723.096 64.0296 0)
(394.289 62.8314 0)
(114.224 61.9179 0)
(-216.452 61.9543 0)
(-502.655 62.7669 0)
(-842.956 63.7746 0)
(-1264.34 65.3497 0)
(-1630.74 66.915 0)
(-1889.26 68.2754 0)
(-2001.42 69.2046 0)
(-1990.81 69.6977 0)
(-1902.56 70.0241 0)
(-1776.69 70.5376 0)
(-1639.51 71.5653 0)
(-1511.12 73.2177 0)
(-1405.14 75.7185 0)
(-1317.79 77.6757 0)
(-1176.08 78.6212 0)
(-958.996 81.1183 0)
(-622.222 76.6542 0)
(1567.18 96.82 0)
(150177 290.576 0)
(-180169 7014.18 0)
(-35126.7 -2.35771e-08 0)
(-24195.1 -9.36625e-10 0)
(-2615.29 -2.19622e-09 0)
(-1798.07 -2.74528e-09 0)
(-1740.49 -7.10543e-10 0)
(-881.593 3.22974e-09 0)
(-23.4608 2.16393e-08 0)
(329.914 3.01012e-08 0)
(605.498 -1.51152e-08 0)
(915.871 -5.03839e-08 0)
(1169.7 -6.79214e-08 0)
(1398.19 -5.2128e-08 0)
(1591.53 9.45668e-08 0)
(1700.13 4.72382e-07 0)
(1665.15 1.06094e-06 0)
(1458.69 1.39241e-06 0)
(1123.49 1.16642e-06 0)
(722.759 3.48166e-07 0)
(394.087 -1.02496e-06 0)
(114.148 -1.55247e-06 0)
(-216.38 2.59606e-07 0)
(-502.478 2.64025e-06 0)
(-842.67 2.57497e-06 0)
(-1263.94 2.52123e-06 0)
(-1630.28 2.85651e-06 0)
(-1888.77 2.96025e-06 0)
(-2000.92 3.5208e-06 0)
(-1990.28 4.15367e-06 0)
(-1901.96 4.07635e-06 0)
(-1775.95 3.18552e-06 0)
(-1638.6 1.77096e-06 0)
(-1510.01 9.46055e-07 0)
(-1403.9 5.08296e-07 0)
(-1316.62 7.81985e-07 0)
(-1174.76 5.06229e-07 0)
(-958.083 1.6627e-06 0)
(-620.204 4.49535e-06 0)
(1581.92 5.29109e-06 0)
(151581 3.93253e-06 0)
(-181667 1.67016e-06 0)
(-39526.6 23666.9 0)
(-26987.3 -9125.27 0)
(-885.984 -4312.11 0)
(-1405 -1023.49 0)
(-1626.16 -462.766 0)
(-843.565 -187.934 0)
(-15.4261 -140.882 0)
(334.112 -112.235 0)
(608.829 -99.5067 0)
(917.817 -81.4425 0)
(1170.67 -79.5904 0)
(1399.03 -76.9425 0)
(1592.24 -75.0607 0)
(1700.8 -73.0598 0)
(1665.8 -70.7432 0)
(1459.28 -68.3213 0)
(1123.98 -66.0344 0)
(723.096 -64.0296 0)
(394.289 -62.8314 0)
(114.224 -61.9179 0)
(-216.452 -61.9543 0)
(-502.655 -62.7669 0)
(-842.956 -63.7746 0)
(-1264.34 -65.3497 0)
(-1630.74 -66.915 0)
(-1889.26 -68.2754 0)
(-2001.42 -69.2046 0)
(-1990.81 -69.6976 0)
(-1902.56 -70.0241 0)
(-1776.69 -70.5376 0)
(-1639.51 -71.5653 0)
(-1511.12 -73.2177 0)
(-1405.14 -75.7185 0)
(-1317.79 -77.6757 0)
(-1176.08 -78.6212 0)
(-958.996 -81.1183 0)
(-622.222 -76.6542 0)
(1567.18 -96.8199 0)
(150177 -290.576 0)
(-180169 -7014.18 0)
(-42128.3 61199.7 0)
(-32334.4 -6728.06 0)
(-258.404 -4925.49 0)
(-678.264 -2063.35 0)
(-1497.42 -1017.32 0)
(-787.954 -457.368 0)
(-1.43929 -333.288 0)
(341.95 -275.455 0)
(614.456 -232.032 0)
(921.664 -194.354 0)
(1171.01 -190.309 0)
(1399.5 -185.727 0)
(1592.66 -182.448 0)
(1701.38 -178.819 0)
(1666.53 -174.694 0)
(1460.06 -170.369 0)
(1124.74 -166.165 0)
(723.691 -162.237 0)
(394.702 -159.775 0)
(114.403 -157.631 0)
(-216.627 -157.653 0)
(-503.008 -159.472 0)
(-843.421 -161.405 0)
(-1264.85 -164.234 0)
(-1631.13 -166.569 0)
(-1889.43 -168.029 0)
(-2001.33 -168.208 0)
(-1990.52 -167.192 0)
(-1902.2 -165.551 0)
(-1776.4 -164.026 0)
(-1639.38 -163.25 0)
(-1511.21 -163.253 0)
(-1405.2 -164.555 0)
(-1317.47 -163.539 0)
(-1175.77 -160.15 0)
(-957.511 -157.629 0)
(-624.771 -147.198 0)
(1519.69 -186.02 0)
(149569 -651.079 0)
(-179467 -6274.36 0)
(100812 67826.3 0)
(-62283.2 -7083.9 0)
(1314.42 -3943.89 0)
(206.188 -3185.26 0)
(-767.63 -1788.46 0)
(-478.791 -987.944 0)
(82.5103 -727.213 0)
(388.564 -623.725 0)
(653.196 -503.6 0)
(939.539 -452.758 0)
(1175.69 -436.506 0)
(1403.42 -424.697 0)
(1596.08 -414.802 0)
(1704.99 -404.786 0)
(1670.26 -394.362 0)
(1463.72 -383.861 0)
(1128.19 -373.83 0)
(726.416 -364.847 0)
(396.7 -358.828 0)
(115.348 -354.155 0)
(-217.405 -354.151 0)
(-504.6 -358.115 0)
(-845.407 -362.967 0)
(-1266.98 -369.594 0)
(-1632.67 -375.819 0)
(-1890.09 -380.722 0)
(-2001 -383.613 0)
(-1989.48 -384.693 0)
(-1900.99 -385.274 0)
(-1775.57 -386.717 0)
(-1639.17 -390.224 0)
(-1511.83 -396.179 0)
(-1405.26 -404.082 0)
(-1315.39 -411.427 0)
(-1172.74 -409.966 0)
(-952.588 -415.443 0)
(-637.084 -414.37 0)
(1306.02 -469.008 0)
(147061 -1147.77 0)
(-176508 -10283.9 0)
(116878 30073.9 0)
(-85435.3 -4422.34 0)
(2655.07 -3472.38 0)
(924.522 -3090.05 0)
(228.658 -2208.34 0)
(68.9169 -1531.36 0)
(304.519 -1204.15 0)
(532.436 -1037.76 0)
(758.433 -900.564 0)
(976.733 -837.726 0)
(1195.54 -807.118 0)
(1418.32 -786.894 0)
(1610.01 -769.843 0)
(1719.14 -753.315 0)
(1684.7 -736.426 0)
(1477.89 -719.102 0)
(1141.21 -702.358 0)
(736.686 -687.516 0)
(403.933 -677.245 0)
(118.404 -669.667 0)
(-220.025 -669.838 0)
(-510.649 -676.494 0)
(-853.418 -684.975 0)
(-1276.1 -695.87 0)
(-1641.02 -706.175 0)
(-1896.59 -714.212 0)
(-2005.34 -718.797 0)
(-1992.68 -720.928 0)
(-1904.8 -722.336 0)
(-1781.62 -726.271 0)
(-1648.6 -733.691 0)
(-1524.24 -745.892 0)
(-1419.85 -760.129 0)
(-1324.25 -777.668 0)
(-1181.26 -777.393 0)
(-964.395 -797.312 0)
(-669.786 -812.652 0)
(927.527 -873.129 0)
(141456 -1692.04 0)
(-169707 -14347.3 0)
(122714 15756.2 0)
(-94609.5 -2196.23 0)
(2598.27 -2922.17 0)
(1424.26 -2655.31 0)
(734.382 -2345.39 0)
(488.882 -1901.33 0)
(558.16 -1627.41 0)
(681.111 -1441.61 0)
(845.952 -1337.18 0)
(1029.59 -1274.48 0)
(1224.67 -1238.3 0)
(1439.34 -1215.09 0)
(1628.44 -1195.79 0)
(1737.2 -1178.98 0)
(1703.23 -1161.22 0)
(1496.55 -1142.19 0)
(1158.63 -1122.64 0)
(750.616 -1104.82 0)
(413.9 -1092.07 0)
(122.486 -1082.62 0)
(-223.984 -1083.04 0)
(-519.187 -1091.36 0)
(-864.078 -1101.78 0)
(-1287.41 -1114.12 0)
(-1650.35 -1124.75 0)
(-1902.25 -1130.91 0)
(-2007.47 -1131.94 0)
(-1992.89 -1128.31 0)
(-1906.14 -1125.08 0)
(-1786.52 -1123.67 0)
(-1658.08 -1127.65 0)
(-1537.31 -1137.21 0)
(-1435.89 -1145.55 0)
(-1332.02 -1158.77 0)
(-1191.67 -1150.07 0)
(-986.564 -1169.7 0)
(-710.144 -1192.07 0)
(458.612 -1250.34 0)
(134077 -2129.97 0)
(-160583 -17130.1 0)
(129709 1328.16 0)
(-103434 -1780.21 0)
(2212.68 -2430.36 0)
(1480.33 -2500.22 0)
(955.223 -2382.1 0)
(760.783 -2108.13 0)
(747.516 -1926.07 0)
(812.121 -1788.68 0)
(919.485 -1706.96 0)
(1072.02 -1665.93 0)
(1252.78 -1636.3 0)
(1459.29 -1617.5 0)
(1644.81 -1605.04 0)
(1752.46 -1595.19 0)
(1720.15 -1585.5 0)
(1515.07 -1571.87 0)
(1177.22 -1555.53 0)
(766.144 -1538.96 0)
(425.328 -1526.24 0)
(127.106 -1516.51 0)
(-228.449 -1517.02 0)
(-528.708 -1525.22 0)
(-875.351 -1535.1 0)
(-1298.24 -1545.17 0)
(-1657.21 -1551.26 0)
(-1903.52 -1550.53 0)
(-2002.83 -1540.84 0)
(-1986.07 -1526.76 0)
(-1900.34 -1509.56 0)
(-1784.09 -1497.62 0)
(-1661.64 -1488.06 0)
(-1541.49 -1484.2 0)
(-1440.63 -1475.59 0)
(-1328.6 -1470.17 0)
(-1191.8 -1446.29 0)
(-1004.88 -1450.68 0)
(-747.489 -1474.29 0)
(23.7322 -1526.96 0)
(126153 -2249.67 0)
(-150581 -18136.3 0)
(122050 -9433.97 0)
(-98231.4 -1818.15 0)
(1904.45 -2305.76 0)
(1470.76 -2408.82 0)
(1112.21 -2310.43 0)
(928.324 -2170 0)
(865.99 -2059.32 0)
(892.25 -1984.04 0)
(964.238 -1939.26 0)
(1097.68 -1917.17 0)
(1271.34 -1898.84 0)
(1469.46 -1890.79 0)
(1649.95 -1887.97 0)
(1756.02 -1893.26 0)
(1725.7 -1896.98 0)
(1525.43 -1896.21 0)
(1190.34 -1888.68 0)
(778.844 -1877.93 0)
(435.538 -1868.12 0)
(131.372 -1859.53 0)
(-232.372 -1859.71 0)
(-536.611 -1865.87 0)
(-883.308 -1872.03 0)
(-1302.98 -1875.4 0)
(-1655.51 -1872.23 0)
(-1892.21 -1857.87 0)
(-1984.57 -1833.72 0)
(-1962.75 -1799.82 0)
(-1878.06 -1767.37 0)
(-1765.79 -1734.15 0)
(-1645.15 -1706.72 0)
(-1525.29 -1683.66 0)
(-1422.36 -1651.51 0)
(-1303.79 -1622.66 0)
(-1172.89 -1585.71 0)
(-1013.55 -1572.05 0)
(-783.653 -1595.8 0)
(-288.569 -1659.87 0)
(118071 -2065.18 0)
(-140341 -18772.7 0)
(118253 -6627.68 0)
(-96565.5 -1725.04 0)
(1643.48 -2156.05 0)
(1475.83 -2221.14 0)
(1185.36 -2158.04 0)
(1002.77 -2111.86 0)
(926.714 -2059.76 0)
(927.81 -2033.16 0)
(983.926 -2017.47 0)
(1110.97 -2007.94 0)
(1278.19 -1999.03 0)
(1469.76 -1995.65 0)
(1642.43 -2005.85 0)
(1743.77 -2021.28 0)
(1717.31 -2040.34 0)
(1523.07 -2051.33 0)
(1194.83 -2054.2 0)
(785.957 -2050.32 0)
(443.06 -2044.54 0)
(135.21 -2037.33 0)
(-234.552 -2036.54 0)
(-540.58 -2039.59 0)
(-884.533 -2040.17 0)
(-1298.43 -2035.56 0)
(-1640.31 -2021.28 0)
(-1866.41 -1994.98 0)
(-1946.89 -1953.62 0)
(-1922.13 -1907.42 0)
(-1837.07 -1854.67 0)
(-1725.64 -1810.32 0)
(-1612.98 -1765.82 0)
(-1488.29 -1727.12 0)
(-1381.85 -1681.13 0)
(-1265.2 -1637.49 0)
(-1143.04 -1594.75 0)
(-1014.59 -1573.93 0)
(-832.108 -1599.65 0)
(-428.587 -1669.38 0)
(109663 -1815.54 0)
(-129881 -18852.2 0)
(113604 -9402.36 0)
(-93922.4 -1649.48 0)
(1426.39 -1972.69 0)
(1468.84 -2044.13 0)
(1217.52 -2008.35 0)
(1023.04 -2003.7 0)
(941.829 -1989.56 0)
(932.998 -1994.79 0)
(988.541 -1993.69 0)
(1115.45 -1987.14 0)
(1283.18 -1978.57 0)
(1462.88 -1980.81 0)
(1625.25 -1992.05 0)
(1722.79 -2017.51 0)
(1696.74 -2042.04 0)
(1512.07 -2061.5 0)
(1191.31 -2069.86 0)
(788.154 -2070.62 0)
(448.049 -2067.54 0)
(139.08 -2060.76 0)
(-234.548 -2058.64 0)
(-540.113 -2059.16 0)
(-879.42 -2055.29 0)
(-1284.78 -2044.96 0)
(-1616.41 -2025 0)
(-1827.01 -1989.96 0)
(-1900.19 -1943.64 0)
(-1867.4 -1885.59 0)
(-1784.49 -1831.04 0)
(-1680.18 -1776.73 0)
(-1564.97 -1728.17 0)
(-1443.68 -1688.13 0)
(-1335.99 -1635.65 0)
(-1220.56 -1590.68 0)
(-1111.64 -1553.17 0)
(-1018.28 -1537.6 0)
(-875.633 -1562.31 0)
(-496.601 -1620.39 0)
(101513 -1676.66 0)
(-119801 -18766.8 0)
(107134 -11398.8 0)
(-89406 -1576.94 0)
(1263.19 -1773.62 0)
(1441.46 -1863.62 0)
(1224.32 -1862.51 0)
(1020.88 -1879.66 0)
(935.298 -1886.64 0)
(923.831 -1910.89 0)
(991.298 -1913.86 0)
(1125.54 -1908.99 0)
(1284.3 -1898.62 0)
(1456.76 -1899.56 0)
(1607.05 -1914.57 0)
(1695.6 -1939.13 0)
(1674.93 -1967.02 0)
(1496.26 -1986.54 0)
(1186.03 -1995.89 0)
(788.191 -1996.72 0)
(452.56 -1993.71 0)
(143.784 -1985.75 0)
(-233.003 -1982.33 0)
(-537.351 -1982.11 0)
(-870.853 -1976.78 0)
(-1269.24 -1966.01 0)
(-1587.31 -1945.4 0)
(-1788.01 -1911.58 0)
(-1846.31 -1863.11 0)
(-1813.63 -1808.43 0)
(-1732.16 -1751.59 0)
(-1626.52 -1700.07 0)
(-1527.61 -1653.52 0)
(-1399.13 -1611.84 0)
(-1287.94 -1563.94 0)
(-1185.72 -1521.41 0)
(-1091.88 -1488.8 0)
(-1023.4 -1478.35 0)
(-911.887 -1495.92 0)
(-538.779 -1541.28 0)
(93140 -1577.27 0)
(-109554 -18436.3 0)
(100625 -12352.8 0)
(-84647.2 -1496.46 0)
(1150.14 -1624.49 0)
(1383.19 -1721.32 0)
(1202.05 -1758.15 0)
(999.778 -1785.19 0)
(911.74 -1799.73 0)
(906.771 -1823.45 0)
(990.375 -1825.1 0)
(1130.14 -1811.22 0)
(1292.27 -1804.25 0)
(1447.51 -1799.03 0)
(1587.12 -1815.05 0)
(1672.25 -1836.63 0)
(1651.06 -1863.13 0)
(1484.25 -1879.91 0)
(1181.5 -1886.02 0)
(790.252 -1883.75 0)
(458.616 -1878.47 0)
(150.051 -1868.02 0)
(-231.041 -1863.51 0)
(-534.765 -1864.33 0)
(-863.905 -1860.42 0)
(-1254.55 -1853.03 0)
(-1563.95 -1836.81 0)
(-1747.7 -1807.79 0)
(-1800.8 -1763.18 0)
(-1759.93 -1715.6 0)
(-1680.07 -1660.95 0)
(-1585.68 -1620.72 0)
(-1479.95 -1571.65 0)
(-1357.35 -1540.18 0)
(-1248.85 -1495.4 0)
(-1148.15 -1460.26 0)
(-1070.13 -1433.95 0)
(-1025.14 -1428.06 0)
(-936.275 -1440.61 0)
(-574.99 -1473.98 0)
(85232.7 -1499.9 0)
(-99893.7 -18019.3 0)
(93350.9 -13361 0)
(-79067.8 -1414.44 0)
(1046.5 -1499.03 0)
(1312.66 -1575.73 0)
(1162.77 -1647.08 0)
(980.815 -1673.73 0)
(898.434 -1688.66 0)
(899.386 -1706.57 0)
(1003.08 -1702 0)
(1145.63 -1698.03 0)
(1296.05 -1685.18 0)
(1446.35 -1692.41 0)
(1570.82 -1700.81 0)
(1649.27 -1728.6 0)
(1633.23 -1750.34 0)
(1474.2 -1766.54 0)
(1182.33 -1767.74 0)
(795.471 -1761.34 0)
(467.719 -1752.52 0)
(158.197 -1739.02 0)
(-229.447 -1733.66 0)
(-534.372 -1736.5 0)
(-859.965 -1735.63 0)
(-1246.49 -1732.89 0)
(-1543.72 -1723.17 0)
(-1717.05 -1696.48 0)
(-1757.47 -1660.41 0)
(-1715.11 -1609.64 0)
(-1640.73 -1569.35 0)
(-1540.47 -1521.25 0)
(-1450 -1480.31 0)
(-1325.66 -1446.02 0)
(-1210.93 -1405.31 0)
(-1126.5 -1373.07 0)
(-1060.86 -1351.25 0)
(-1029.82 -1347.28 0)
(-956.133 -1355.41 0)
(-595.909 -1381.36 0)
(77196.4 -1407.43 0)
(-90129.3 -17467.7 0)
(85949.1 -14038.8 0)
(-73216.6 -1329.8 0)
(994.715 -1395.27 0)
(1240.52 -1451.66 0)
(1107.62 -1546.31 0)
(959.706 -1568.53 0)
(880.089 -1586.19 0)
(893.915 -1596.27 0)
(998.603 -1587.8 0)
(1146.35 -1586.85 0)
(1297.69 -1577.68 0)
(1432.46 -1580.05 0)
(1552.25 -1597.37 0)
(1624.52 -1618.79 0)
(1614.49 -1643.82 0)
(1467.48 -1655.06 0)
(1186.52 -1652.96 0)
(804.919 -1641.38 0)
(480.118 -1628.85 0)
(168.224 -1612.35 0)
(-228.614 -1606.37 0)
(-536.665 -1611.6 0)
(-860.421 -1614.11 0)
(-1242.54 -1617.13 0)
(-1528.87 -1611.5 0)
(-1687.22 -1591.97 0)
(-1717.11 -1553.68 0)
(-1672.18 -1515.18 0)
(-1594.9 -1467.01 0)
(-1499.88 -1433.39 0)
(-1407.45 -1390.28 0)
(-1285.08 -1354.78 0)
(-1178.56 -1319.28 0)
(-1096.06 -1289.77 0)
(-1045.28 -1270.12 0)
(-1029.15 -1269.79 0)
(-969.112 -1276.15 0)
(-625.117 -1293.23 0)
(69731.3 -1315.96 0)
(-81104.4 -16723.8 0)
(78098.7 -14415.4 0)
(-66884 -1257.63 0)
(929.069 -1321.65 0)
(1167.12 -1368.23 0)
(1050.15 -1443.24 0)
(942.38 -1455.89 0)
(871.705 -1472.8 0)
(897.837 -1468.77 0)
(1012.16 -1456.39 0)
(1155.39 -1446.89 0)
(1302.59 -1445.75 0)
(1427.38 -1450.36 0)
(1533.5 -1474.33 0)
(1604.51 -1502.5 0)
(1598.27 -1532.13 0)
(1465.39 -1548.06 0)
(1195.51 -1546.71 0)
(818.705 -1533.46 0)
(495.697 -1518.33 0)
(179.86 -1499.36 0)
(-228.725 -1493.06 0)
(-541.829 -1500.67 0)
(-865.297 -1505.69 0)
(-1243.98 -1510.76 0)
(-1519.48 -1505.16 0)
(-1661.33 -1481.8 0)
(-1683.47 -1441.64 0)
(-1631.6 -1398.28 0)
(-1561.91 -1349.65 0)
(-1466.53 -1316.81 0)
(-1374.25 -1272.71 0)
(-1257.25 -1245.05 0)
(-1148.28 -1214.33 0)
(-1079.12 -1193.19 0)
(-1041.6 -1183.4 0)
(-1035.63 -1188.07 0)
(-978.72 -1197 0)
(-634.271 -1211.99 0)
(62326.9 -1233.18 0)
(-72171.7 -15967.6 0)
(70400.2 -14445.7 0)
(-60599 -1176.6 0)
(888.14 -1232.32 0)
(1123.35 -1285.45 0)
(1023.14 -1336.67 0)
(931.219 -1342.53 0)
(867.681 -1359.65 0)
(909.724 -1348.53 0)
(1019.69 -1332.64 0)
(1156.6 -1331.06 0)
(1294.34 -1326.64 0)
(1404.92 -1346.84 0)
(1502.01 -1368.64 0)
(1568.82 -1406.19 0)
(1570.59 -1437.66 0)
(1453.42 -1457.55 0)
(1200.58 -1455.72 0)
(832.272 -1440.99 0)
(512.979 -1424.39 0)
(192.572 -1404.47 0)
(-229.877 -1398.25 0)
(-548.838 -1407.35 0)
(-870.141 -1414.14 0)
(-1242.02 -1420.89 0)
(-1500.96 -1415.72 0)
(-1626.01 -1388.52 0)
(-1636.64 -1347.16 0)
(-1583.54 -1296.84 0)
(-1516.39 -1252.72 0)
(-1425.74 -1210.15 0)
(-1338.29 -1173.32 0)
(-1228.82 -1143.32 0)
(-1128.59 -1121.84 0)
(-1066.26 -1105.37 0)
(-1040.35 -1103.12 0)
(-1042.25 -1110.1 0)
(-992.156 -1118.97 0)
(-659.986 -1129.22 0)
(55512.3 -1150.21 0)
(-63988.2 -15130.2 0)
(62610.1 -14169.9 0)
(-54151 -1117.3 0)
(824.182 -1180.38 0)
(1066.56 -1250 0)
(995.148 -1290.3 0)
(920.237 -1297.4 0)
(865.922 -1299.37 0)
(923.857 -1281.64 0)
(1029 -1257.61 0)
(1161.18 -1249.01 0)
(1287.39 -1237.51 0)
(1386.9 -1252.14 0)
(1476.3 -1265.46 0)
(1538 -1295.08 0)
(1548.78 -1322.09 0)
(1447.99 -1342.19 0)
(1211.47 -1345.86 0)
(848.897 -1339.26 0)
(530.892 -1329.36 0)
(205.045 -1313.4 0)
(-231.506 -1307.73 0)
(-557.139 -1314.15 0)
(-878.343 -1315.08 0)
(-1245.5 -1314.23 0)
(-1488.28 -1303.12 0)
(-1595.27 -1275.85 0)
(-1595.12 -1238.05 0)
(-1540.59 -1199.12 0)
(-1478.38 -1162.49 0)
(-1390.01 -1134.08 0)
(-1309.85 -1103.82 0)
(-1207.64 -1086.99 0)
(-1111.71 -1071.61 0)
(-1061.08 -1066.32 0)
(-1046.16 -1072.94 0)
(-1050.9 -1081.31 0)
(-997.147 -1085.64 0)
(-664.376 -1086 0)
(48835 -1095.65 0)
(-55980.4 -14207.9 0)
(55273.6 -13900.9 0)
(-48081.8 -1076.42 0)
(760.271 -1141.85 0)
(1017.43 -1230.13 0)
(977.46 -1268.65 0)
(922.482 -1280.88 0)
(882.868 -1270.07 0)
(949.962 -1237.78 0)
(1051.14 -1199.36 0)
(1175.97 -1179.97 0)
(1291.33 -1154.29 0)
(1377.99 -1153.77 0)
(1460.63 -1153.85 0)
(1514.24 -1166.76 0)
(1525.2 -1182.34 0)
(1430.52 -1190.4 0)
(1203.4 -1186.37 0)
(848.17 -1173.64 0)
(537.9 -1161.96 0)
(213.423 -1146.48 0)
(-230.605 -1141.66 0)
(-555.924 -1149.24 0)
(-870.21 -1153.02 0)
(-1230.5 -1158.58 0)
(-1463.98 -1154.81 0)
(-1563.3 -1139.32 0)
(-1562.7 -1113.38 0)
(-1510.73 -1092.97 0)
(-1453.72 -1072.26 0)
(-1369.2 -1063.35 0)
(-1292.91 -1050.67 0)
(-1197.78 -1047.85 0)
(-1108.67 -1047.31 0)
(-1067.54 -1056.33 0)
(-1054.8 -1066.72 0)
(-1054.49 -1068.6 0)
(-996.667 -1062.45 0)
(-669.634 -1047.71 0)
(42867.5 -1042.97 0)
(-48791.4 -13329.6 0)
(47813.5 -12773.3 0)
(-41856 -967.845 0)
(676.062 -1090.27 0)
(944.376 -1215.87 0)
(946.242 -1261.96 0)
(918.867 -1272.12 0)
(907.459 -1246.39 0)
(991.992 -1198.62 0)
(1084.7 -1155.92 0)
(1204.61 -1121.34 0)
(1312.64 -1092.26 0)
(1387.32 -1069.52 0)
(1463.78 -1048.21 0)
(1510.55 -1028.69 0)
(1525.99 -1012.32 0)
(1444.1 -996.325 0)
(1227.62 -971.902 0)
(872.421 -941.948 0)
(557.064 -922.252 0)
(224.608 -909.642 0)
(-234.168 -905.885 0)
(-568.082 -912.351 0)
(-887.342 -925.305 0)
(-1247.22 -948.304 0)
(-1469.72 -964.82 0)
(-1555.34 -973.024 0)
(-1550.46 -980.123 0)
(-1500.97 -991.729 0)
(-1449.84 -997.303 0)
(-1369.2 -1007.23 0)
(-1294.9 -1008.73 0)
(-1204.41 -1016.87 0)
(-1119.89 -1027.58 0)
(-1079.78 -1041.81 0)
(-1057.98 -1049.56 0)
(-1046.79 -1043.77 0)
(-977.018 -1024.51 0)
(-645.596 -969.908 0)
(36999.8 -902.611 0)
(-41708.4 -11823 0)
(41789.4 -12154 0)
(-36823.6 -715.511 0)
(521.267 -922.337 0)
(851.984 -1105.47 0)
(923.25 -1155.22 0)
(937.483 -1157.62 0)
(953.701 -1115.55 0)
(1037.14 -1064.99 0)
(1125.6 -1029.16 0)
(1237.32 -981.051 0)
(1341.26 -958.745 0)
(1420.44 -914.727 0)
(1499.98 -874.402 0)
(1548.82 -821.024 0)
(1556.38 -769.592 0)
(1469.47 -733.086 0)
(1255.8 -695.417 0)
(896.015 -654.51 0)
(569.031 -620.686 0)
(229.194 -597.365 0)
(-233.215 -594.949 0)
(-574.638 -614.329 0)
(-904.856 -643.742 0)
(-1268.58 -680.099 0)
(-1487.81 -712.823 0)
(-1578.05 -743.692 0)
(-1580.72 -786.895 0)
(-1527.29 -831.073 0)
(-1468.66 -862.89 0)
(-1380.21 -889.049 0)
(-1302.19 -903.427 0)
(-1215.94 -916.072 0)
(-1132.71 -933.524 0)
(-1088.72 -942.623 0)
(-1056.68 -947.707 0)
(-1030.36 -933.019 0)
(-925.493 -884.034 0)
(-552.164 -743.504 0)
(32409.1 -574.724 0)
(-36277.8 -10203.1 0)
(35622.9 -1277.75 0)
(-31032.7 8.15055 0)
(300.282 -412.258 0)
(719.964 -653.145 0)
(895.989 -735.192 0)
(957.088 -739.246 0)
(996.718 -702.872 0)
(1075.25 -662.15 0)
(1165.59 -624.358 0)
(1272.46 -583.212 0)
(1376.55 -556.08 0)
(1468.6 -516.457 0)
(1554.08 -471.101 0)
(1611.55 -386.225 0)
(1610.73 -168.075 0)
(1515.57 256.495 0)
(1303.34 815.4 0)
(944.434 1408.44 0)
(612.13 1872.81 0)
(249.409 2088.4 0)
(-250.514 2089.28 0)
(-615.1 1875.41 0)
(-950.721 1413.38 0)
(-1313.79 824.007 0)
(-1531 270.216 0)
(-1626.72 -148.458 0)
(-1634.66 -365.581 0)
(-1574.2 -442.827 0)
(-1505.71 -485.119 0)
(-1408.27 -508.255 0)
(-1320.94 -537.059 0)
(-1233.41 -547.322 0)
(-1145.47 -575.497 0)
(-1093.45 -581.34 0)
(-1048.73 -590.92 0)
(-985.436 -572.894 0)
(-794.394 -483.426 0)
(-347.534 -264.012 0)
(27884.2 120.648 0)
(-31555.8 1865.31 0)
(40180.2 483583 0)
(-35989.6 35790.1 0)
(-115.981 29807.8 0)
(540.793 34837.7 0)
(840.279 39964.2 0)
(968.628 46533.3 0)
(1027.99 53191.9 0)
(1112.8 60733.1 0)
(1201.67 68367.8 0)
(1303.11 76741.7 0)
(1405.59 85073.3 0)
(1502.33 94092.4 0)
(1625.47 102917 0)
(1840.83 112212 0)
(2175.73 121163 0)
(2417.18 130268 0)
(2365.85 138955 0)
(1914.97 147206 0)
(1224.27 153847 0)
(437.796 159021 0)
(-438.463 159024 0)
(-1225.96 153853 0)
(-1918.02 147216 0)
(-2370.17 138970 0)
(-2424.91 130290 0)
(-2190.73 121192 0)
(-1864.39 112250 0)
(-1642.48 102963 0)
(-1531.71 94139.9 0)
(-1430.26 85130.6 0)
(-1339.84 76787.5 0)
(-1252.98 68438.4 0)
(-1165.49 60789.6 0)
(-1103.58 53271 0)
(-1048.54 46591.1 0)
(-926.774 40000.6 0)
(-627.843 34799.4 0)
(29.9442 29662.6 0)
(34461 35263.4 0)
(-37469.7 479122 0)
(531688 -553292 0)
(-468307 -39725.3 0)
(-617.567 -34461.1 0)
(10507 -39696.2 0)
(12166.4 -45654.3 0)
(13703.7 -53434.2 0)
(14680.2 -61312.1 0)
(15699.3 -70205.2 0)
(16592.1 -79294.7 0)
(17370.5 -89250.4 0)
(18096.3 -99289.1 0)
(18663.2 -110131 0)
(19014.4 -120876 0)
(19194.2 -132215 0)
(19011 -143371 0)
(18660.5 -154857 0)
(17625.2 -165889 0)
(15295.1 -176210 0)
(11996.9 -184274 0)
(5237.82 -190352 0)
(-5230.54 -190355 0)
(-11993.2 -184278 0)
(-15291.8 -176215 0)
(-17624.5 -165893 0)
(-18662.6 -154858 0)
(-19010.5 -143365 0)
(-19200.8 -132201 0)
(-19026.1 -120838 0)
(-18689.9 -110088 0)
(-18129.7 -99191.4 0)
(-17406.1 -89143.4 0)
(-16649.5 -79118 0)
(-15761.4 -69978.4 0)
(-14775.7 -61007.1 0)
(-13836.6 -53014.5 0)
(-12348.3 -45109.3 0)
(-10756.5 -38951.9 0)
(99.6073 -33521 0)
(461000 -38377.2 0)
(-522892 -543168 0)
(531688 553292 0)
(-468307 39725.3 0)
(-617.567 34461.1 0)
(10507 39696.2 0)
(12166.4 45654.3 0)
(13703.7 53434.2 0)
(14680.2 61312.1 0)
(15699.3 70205.2 0)
(16592.1 79294.7 0)
(17370.5 89250.4 0)
(18096.3 99289.1 0)
(18663.2 110131 0)
(19014.4 120876 0)
(19194.2 132215 0)
(19011 143371 0)
(18660.5 154857 0)
(17625.2 165889 0)
(15295.1 176210 0)
(11996.9 184274 0)
(5237.82 190352 0)
(-5230.54 190355 0)
(-11993.2 184278 0)
(-15291.8 176215 0)
(-17624.5 165893 0)
(-18662.6 154858 0)
(-19010.5 143365 0)
(-19200.8 132201 0)
(-19026.1 120838 0)
(-18689.9 110088 0)
(-18129.7 99191.4 0)
(-17406.1 89143.4 0)
(-16649.5 79118 0)
(-15761.4 69978.4 0)
(-14775.7 61007.1 0)
(-13836.6 53014.5 0)
(-12348.3 45109.3 0)
(-10756.5 38951.9 0)
(99.6073 33521 0)
(461000 38377.2 0)
(-522892 543168 0)
(40180.2 -483583 0)
(-35989.6 -35790.1 0)
(-115.981 -29807.8 0)
(540.793 -34837.7 0)
(840.279 -39964.2 0)
(968.628 -46533.3 0)
(1027.99 -53191.9 0)
(1112.8 -60733.1 0)
(1201.67 -68367.8 0)
(1303.11 -76741.7 0)
(1405.59 -85073.3 0)
(1502.33 -94092.4 0)
(1625.47 -102917 0)
(1840.83 -112212 0)
(2175.73 -121163 0)
(2417.18 -130268 0)
(2365.85 -138955 0)
(1914.97 -147206 0)
(1224.27 -153847 0)
(437.796 -159021 0)
(-438.463 -159024 0)
(-1225.96 -153853 0)
(-1918.02 -147216 0)
(-2370.17 -138970 0)
(-2424.91 -130290 0)
(-2190.73 -121192 0)
(-1864.39 -112250 0)
(-1642.48 -102963 0)
(-1531.71 -94139.9 0)
(-1430.26 -85130.6 0)
(-1339.84 -76787.5 0)
(-1252.98 -68438.4 0)
(-1165.49 -60789.6 0)
(-1103.58 -53271 0)
(-1048.54 -46591.1 0)
(-926.774 -40000.6 0)
(-627.843 -34799.4 0)
(29.9442 -29662.6 0)
(34461 -35263.4 0)
(-37469.7 -479122 0)
(35622.9 1277.75 0)
(-31032.7 -8.15055 0)
(300.282 412.258 0)
(719.964 653.145 0)
(895.989 735.192 0)
(957.088 739.246 0)
(996.718 702.872 0)
(1075.25 662.15 0)
(1165.59 624.358 0)
(1272.46 583.212 0)
(1376.55 556.08 0)
(1468.6 516.457 0)
(1554.08 471.101 0)
(1611.55 386.225 0)
(1610.73 168.075 0)
(1515.57 -256.495 0)
(1303.34 -815.4 0)
(944.434 -1408.44 0)
(612.13 -1872.81 0)
(249.409 -2088.4 0)
(-250.514 -2089.28 0)
(-615.1 -1875.41 0)
(-950.721 -1413.38 0)
(-1313.79 -824.007 0)
(-1531 -270.216 0)
(-1626.72 148.458 0)
(-1634.66 365.581 0)
(-1574.2 442.827 0)
(-1505.71 485.119 0)
(-1408.27 508.255 0)
(-1320.94 537.059 0)
(-1233.41 547.322 0)
(-1145.47 575.497 0)
(-1093.45 581.34 0)
(-1048.73 590.92 0)
(-985.436 572.894 0)
(-794.394 483.426 0)
(-347.534 264.012 0)
(27884.2 -120.648 0)
(-31555.8 -1865.31 0)
(41789.4 12154 0)
(-36823.6 715.511 0)
(521.267 922.337 0)
(851.984 1105.47 0)
(923.25 1155.22 0)
(937.483 1157.62 0)
(953.701 1115.55 0)
(1037.14 1064.99 0)
(1125.6 1029.16 0)
(1237.32 981.051 0)
(1341.26 958.745 0)
(1420.44 914.727 0)
(1499.98 874.402 0)
(1548.82 821.024 0)
(1556.38 769.592 0)
(1469.47 733.086 0)
(1255.8 695.417 0)
(896.015 654.51 0)
(569.031 620.686 0)
(229.194 597.365 0)
(-233.215 594.949 0)
(-574.638 614.329 0)
(-904.856 643.742 0)
(-1268.58 680.099 0)
(-1487.81 712.823 0)
(-1578.05 743.692 0)
(-1580.72 786.895 0)
(-1527.29 831.073 0)
(-1468.66 862.89 0)
(-1380.21 889.049 0)
(-1302.19 903.427 0)
(-1215.94 916.072 0)
(-1132.71 933.524 0)
(-1088.72 942.623 0)
(-1056.68 947.707 0)
(-1030.36 933.019 0)
(-925.493 884.034 0)
(-552.164 743.504 0)
(32409.1 574.724 0)
(-36277.8 10203.1 0)
(47813.5 12773.3 0)
(-41856 967.845 0)
(676.062 1090.27 0)
(944.376 1215.87 0)
(946.242 1261.96 0)
(918.867 1272.12 0)
(907.459 1246.39 0)
(991.992 1198.62 0)
(1084.7 1155.92 0)
(1204.61 1121.34 0)
(1312.64 1092.26 0)
(1387.32 1069.52 0)
(1463.78 1048.21 0)
(1510.55 1028.69 0)
(1525.99 1012.32 0)
(1444.1 996.325 0)
(1227.62 971.902 0)
(872.421 941.948 0)
(557.064 922.252 0)
(224.608 909.642 0)
(-234.168 905.885 0)
(-568.082 912.351 0)
(-887.342 925.305 0)
(-1247.22 948.304 0)
(-1469.72 964.82 0)
(-1555.34 973.024 0)
(-1550.46 980.123 0)
(-1500.97 991.729 0)
(-1449.84 997.303 0)
(-1369.2 1007.23 0)
(-1294.9 1008.73 0)
(-1204.41 1016.87 0)
(-1119.89 1027.58 0)
(-1079.78 1041.81 0)
(-1057.98 1049.56 0)
(-1046.79 1043.77 0)
(-977.018 1024.51 0)
(-645.596 969.908 0)
(36999.8 902.611 0)
(-41708.4 11823 0)
(55273.6 13900.9 0)
(-48081.8 1076.42 0)
(760.271 1141.85 0)
(1017.43 1230.13 0)
(977.46 1268.65 0)
(922.482 1280.88 0)
(882.868 1270.07 0)
(949.962 1237.78 0)
(1051.14 1199.36 0)
(1175.97 1179.97 0)
(1291.33 1154.29 0)
(1377.99 1153.77 0)
(1460.63 1153.85 0)
(1514.24 1166.76 0)
(1525.2 1182.34 0)
(1430.52 1190.4 0)
(1203.4 1186.37 0)
(848.17 1173.64 0)
(537.9 1161.96 0)
(213.423 1146.48 0)
(-230.605 1141.66 0)
(-555.924 1149.24 0)
(-870.21 1153.02 0)
(-1230.5 1158.58 0)
(-1463.98 1154.81 0)
(-1563.3 1139.32 0)
(-1562.7 1113.38 0)
(-1510.73 1092.97 0)
(-1453.72 1072.26 0)
(-1369.2 1063.35 0)
(-1292.91 1050.67 0)
(-1197.78 1047.85 0)
(-1108.67 1047.31 0)
(-1067.54 1056.33 0)
(-1054.8 1066.72 0)
(-1054.49 1068.6 0)
(-996.667 1062.45 0)
(-669.634 1047.71 0)
(42867.5 1042.97 0)
(-48791.4 13329.6 0)
(62610.1 14169.9 0)
(-54151 1117.3 0)
(824.182 1180.38 0)
(1066.56 1250 0)
(995.148 1290.3 0)
(920.237 1297.4 0)
(865.922 1299.37 0)
(923.857 1281.64 0)
(1029 1257.61 0)
(1161.18 1249.01 0)
(1287.39 1237.51 0)
(1386.9 1252.14 0)
(1476.3 1265.46 0)
(1538 1295.08 0)
(1548.78 1322.09 0)
(1447.99 1342.19 0)
(1211.47 1345.86 0)
(848.897 1339.26 0)
(530.892 1329.36 0)
(205.045 1313.4 0)
(-231.506 1307.73 0)
(-557.139 1314.15 0)
(-878.343 1315.08 0)
(-1245.5 1314.23 0)
(-1488.28 1303.12 0)
(-1595.27 1275.85 0)
(-1595.12 1238.05 0)