/*--------------------------------*- C++ -*----------------------------------*\
| =========                 |                                                 |
| \\      /  F ield         | OpenFOAM: The Open Source CFD Toolbox           |
|  \\    /   O peration     | Version:  v1912                                 |
|   \\  /    A nd           | Website:  www.openfoam.com                      |
|    \\/     M anipulation  |                                                 |
\*---------------------------------------------------------------------------*/
FoamFile
{
    version     2.0;
    format      ascii;
    class       volVectorField;
    location    "0.52";
    object      U;
}
// * * * * * * * * * * * * * * * * * * * * * * * * * * * * * * * * * * * * * //

dimensions      [0 1 -1 0 0 0 0];


internalField   nonuniform List<vector> 
1900
(
(0 0 0)
(-3.48478e-17 5.36712e-17 0)
(4.43313e-17 -1.97936e-17 0)
(-4.3838e-19 0 0)
(1.8115e-17 1.55684e-16 0)
(4.45934e-14 3.99679e-16 0)
(1.2296e-10 1.62675e-12 0)
(2.26089e-08 5.41453e-10 0)
(4.17497e-07 1.87278e-08 0)
(1.23712e-06 1.42492e-07 0)
(0 0 0)
(-4.60288e-17 -4.66926e-17 0)
(6.63878e-17 -1.77254e-16 0)
(-1.0462e-17 -3.56539e-17 0)
(4.29471e-17 1.47183e-17 0)
(5.03176e-14 1.79906e-15 0)
(1.40693e-10 6.72468e-12 0)
(2.70019e-08 1.84742e-09 0)
(5.23037e-07 5.47824e-08 0)
(1.63685e-06 2.94194e-07 0)
(0 0 0)
(-4.79936e-17 0 0)
(7.90195e-17 -5.04991e-17 0)
(-4.55509e-20 0 0)
(5.08638e-17 0 0)
(6.09077e-14 1.48071e-16 0)
(1.69172e-10 9.95847e-15 0)
(3.19598e-08 -1.70111e-15 0)
(5.99399e-07 -1.95359e-14 0)
(1.81963e-06 -1.06315e-14 0)
(0 0 0)
(0 0 0)
(0 -1.12798e-16 0)
(-9.67974e-18 -1.70022e-17 0)
(9.98166e-17 -9.54154e-17 0)
(5.02115e-14 -1.84093e-15 0)
(1.40714e-10 -6.72265e-12 0)
(2.70018e-08 -1.84743e-09 0)
(5.23037e-07 -5.47825e-08 0)
(1.63685e-06 -2.94194e-07 0)
(0 0 0)
(0 -9.51616e-17 0)
(0 -2.85104e-16 0)
(0 -1.58476e-16 0)
(-5.24023e-17 -2.40569e-16 0)
(4.46946e-14 -4.94714e-16 0)
(1.22968e-10 -1.63314e-12 0)
(2.26088e-08 -5.41455e-10 0)
(4.17497e-07 -1.87278e-08 0)
(1.23712e-06 -1.42492e-07 0)
(1.14976e-06 4.5055e-07 0)
(-3.99134e-05 -2.69305e-06 0)
(-0.000733478 -8.44148e-05 0)
(-0.0054171 -0.000880341 0)
(-0.0223418 -0.00369359 0)
(1.16344e-06 5.97925e-07 0)
(-6.31711e-05 -7.6227e-06 0)
(-0.00102365 -0.000151571 0)
(-0.00670517 -0.00105627 0)
(-0.02324 -0.00338699 0)
(1.2119e-06 -1.14234e-14 0)
(-7.56646e-05 -2.27304e-14 0)
(-0.00114248 2.38247e-14 0)
(-0.00710134 -3.00112e-14 0)
(-0.0240369 1.49305e-14 0)
(1.16344e-06 -5.97925e-07 0)
(-6.31711e-05 7.6227e-06 0)
(-0.00102365 0.000151571 0)
(-0.00670517 0.00105627 0)
(-0.02324 0.00338699 0)
(1.14976e-06 -4.5055e-07 0)
(-3.99134e-05 2.69305e-06 0)
(-0.000733478 8.44148e-05 0)
(-0.0054171 0.000880341 0)
(-0.0223418 0.00369359 0)
(-0.0543838 0.00277256 0)
(-0.0745845 0.00363886 0)
(-0.0909524 0.00906852 0)
(-0.113292 0.0231343 0)
(-0.164695 0.050348 0)
(-0.0552706 0.00162141 0)
(-0.078306 0.00324936 0)
(-0.0935309 0.0060955 0)
(-0.0911033 0.021175 0)
(-0.0659459 0.0609885 0)
(-0.0557636 6.3077e-15 0)
(-0.0799149 5.35406e-15 0)
(-0.0933138 -3.10344e-15 0)
(-0.077193 1.35063e-14 0)
(-0.0124798 1.19749e-14 0)
(-0.0552706 -0.00162141 0)
(-0.078306 -0.00324936 0)
(-0.0935309 -0.0060955 0)
(-0.0911033 -0.021175 0)
(-0.0659459 -0.0609885 0)
(-0.0543838 -0.00277256 0)
(-0.0745845 -0.00363886 0)
(-0.0909524 -0.00906852 0)
(-0.113292 -0.0231343 0)
(-0.164695 -0.050348 0)
(-0.318021 0.0267903 0)
(-0.146027 -0.110996 0)
(-0.154293 -0.0594008 0)
(-0.104486 -0.0231318 0)
(-0.049718 -0.00188643 0)
(-0.0126732 7.80676e-05 0)
(-0.00116622 2.23178e-05 0)
(-2.4321e-05 7.83497e-07 0)
(-7.47893e-08 2.94945e-09 0)
(-2.38508e-11 9.9205e-13 0)
(-1.14331e-15 1.80865e-16 0)
(6.79669e-17 -1.84095e-16 0)
(1.72085e-17 4.36013e-17 0)
(-6.7734e-17 -1.10734e-16 0)
(-1.51508e-19 5.92886e-17 0)
(1.58504e-16 -7.54372e-17 0)
(-1.89889e-17 -1.77635e-17 0)
(-5.721e-17 -6.25183e-17 0)
(-1.15326e-16 2.34617e-16 0)
(4.32563e-17 -4.6139e-17 0)
(4.3266e-17 6.18262e-17 0)
(4.36386e-17 -1.47875e-16 0)
(1.67504e-17 1.21345e-16 0)
(-1.49018e-16 4.1848e-16 0)
(-6.1163e-17 1.24575e-17 0)
(1.58307e-16 9.45849e-18 0)
(1.04346e-16 -1.8917e-17 0)
(-8.48952e-17 -9.91988e-18 0)
(-2.12159e-17 4.00486e-16 0)
(1.29069e-15 5.60127e-16 0)
(2.92122e-11 9.11429e-15 0)
(9.22282e-08 -1.34957e-16 0)
(3.04333e-05 2.54923e-14 0)
(0.00149664 -9.39968e-14 0)
(0.0168614 8.19185e-14 0)
(0.0700621 1.81629e-15 0)
(0.162053 2.6333e-14 0)
(0.274626 3.53575e-15 0)
(0.380358 2.02649e-14 0)
(1.01331 6.58019e-15 0)
(0.0139622 0.0369963 0)
(-0.014974 -0.078864 0)
(-0.10262 -0.0414225 0)
(-0.0980588 -0.0128433 0)
(-0.0503999 -0.000564481 0)
(-0.0130509 0.000281832 0)
(-0.00120863 3.09036e-05 0)
(-2.53994e-05 6.93432e-07 0)
(-7.90537e-08 2.21348e-09 0)
(-2.55986e-11 7.28318e-13 0)
(-1.29173e-15 7.95897e-17 0)
(1.28939e-16 2.4223e-16 0)
(3.13703e-17 1.78558e-16 0)
(-1.17638e-16 0 0)
(-7.86563e-18 -2.30695e-19 0)
(1.28508e-16 4.52162e-17 0)
(1.3397e-17 0 0)
(-4.71273e-17 6.64401e-17 0)
(-1.63467e-16 4.47548e-16 0)
(3.56317e-17 1.78327e-16 0)
(4.95695e-17 8.28195e-17 0)
(1.06532e-16 2.63684e-16 0)
(6.31737e-17 2.83755e-16 0)
(-1.98001e-16 6.31643e-16 0)
(-1.62587e-16 3.59884e-16 0)
(7.31674e-17 -9.87374e-17 0)
(1.32847e-16 -3.54117e-16 0)
(2.54482e-17 6.02114e-17 0)
(2.04944e-17 2.157e-16 0)
(1.34959e-15 1.49952e-17 0)
(2.92145e-11 4.04869e-15 0)
(9.22282e-08 -3.77671e-15 0)
(3.04333e-05 1.73622e-14 0)
(0.00149664 -9.4832e-14 0)
(0.0168614 1.024e-13 0)
(0.0700621 -2.50553e-14 0)
(0.162053 1.45393e-14 0)
(0.274626 -4.21857e-15 0)
(0.380358 -9.60159e-15 0)
(1.01331 -1.46082e-14 0)
(0.107424 3.34507e-14 0)
(0.0361497 1.51209e-14 0)
(-0.0796118 -1.8135e-14 0)
(-0.0958133 -4.59103e-14 0)
(-0.0510485 -3.21884e-14 0)
(-0.0132948 -2.58096e-14 0)
(-0.00123298 -4.05533e-14 0)
(-2.59098e-05 -1.41071e-14 0)
(-8.08185e-08 1.77517e-14 0)
(-2.62885e-11 1.31452e-14 0)
(-1.24171e-15 6.82857e-17 0)
(2.4866e-17 3.97718e-16 0)
(-3.8774e-19 8.02818e-17 0)
(-1.58884e-16 2.15469e-16 0)
(-1.85298e-17 -7.03619e-17 0)
(1.62871e-16 0 0)
(2.98892e-18 0 0)
(1.36097e-18 4.0833e-17 0)
(-8.61751e-17 3.92643e-16 0)
(-6.01643e-17 2.90214e-16 0)
(6.19594e-17 1.92861e-16 0)
(1.41195e-16 5.10066e-16 0)
(5.09924e-17 4.59313e-16 0)
(-1.6328e-16 4.06484e-16 0)
(-2.38321e-16 5.89656e-16 0)
(-6.40555e-17 2.26542e-16 0)
(2.32073e-16 -1.10272e-16 0)
(7.32009e-17 2.08087e-16 0)
(-6.54611e-17 2.76834e-18 0)
(1.25893e-15 -5.2783e-16 0)
(2.92158e-11 -6.22876e-18 0)
(9.22282e-08 -4.26324e-15 0)
(3.04333e-05 1.76231e-14 0)
(0.00149664 -1.10289e-13 0)
(0.0168614 9.13901e-14 0)
(0.0700621 -3.35547e-14 0)
(0.162053 8.6305e-15 0)
(0.274626 -1.27311e-14 0)
(0.380358 -1.11234e-14 0)
(1.01331 -3.12078e-14 0)
(0.0139622 -0.0369963 0)
(-0.014974 0.078864 0)
(-0.10262 0.0414225 0)
(-0.0980588 0.0128433 0)
(-0.0503999 0.000564481 0)
(-0.0130509 -0.000281832 0)
(-0.00120863 -3.09036e-05 0)
(-2.53994e-05 -6.93432e-07 0)
(-7.90537e-08 -2.21344e-09 0)
(-2.56075e-11 -7.10465e-13 0)
(-1.19549e-15 -1.04274e-16 0)
(6.41287e-18 2.18007e-16 0)
(3.30539e-17 6.15955e-17 0)
(-4.63239e-17 3.79032e-16 0)
(-5.36964e-17 7.08233e-17 0)
(8.28109e-17 0 0)
(-7.66041e-18 0 0)
(-2.04009e-17 0 0)
(2.67493e-18 1.34264e-16 0)
(-3.92855e-17 1.04966e-16 0)
(5.90176e-17 5.90579e-17 0)
(1.72907e-16 1.30573e-16 0)
(2.42199e-17 2.30695e-18 0)
(-2.33458e-16 6.2749e-17 0)
(-1.95417e-16 3.76725e-16 0)
(-9.83262e-18 4.37628e-16 0)
(2.54476e-16 7.75135e-17 0)
(9.10739e-17 -3.09131e-17 0)
(-1.78742e-16 0 0)
(1.20733e-15 -3.39814e-16 0)
(2.92147e-11 -4.06161e-15 0)
(9.22282e-08 -2.08968e-14 0)
(3.04333e-05 7.34878e-15 0)
(0.00149664 -1.04483e-13 0)
(0.0168614 8.95334e-14 0)
(0.0700621 -3.19957e-14 0)
(0.162053 4.1173e-15 0)
(0.274626 -1.78125e-14 0)
(0.380358 -1.32231e-14 0)
(1.01331 -1.61868e-14 0)
(-0.318021 -0.0267903 0)
(-0.146027 0.110996 0)
(-0.154293 0.0594008 0)
(-0.104486 0.0231318 0)
(-0.049718 0.00188643 0)
(-0.0126732 -7.80676e-05 0)
(-0.00116622 -2.23178e-05 0)
(-2.4321e-05 -7.83497e-07 0)
(-7.47893e-08 -2.94944e-09 0)
(-2.38574e-11 -1.00883e-12 0)
(-1.05981e-15 -2.66914e-16 0)
(4.9754e-17 4.03716e-17 0)
(-1.37387e-17 -3.20666e-17 0)
(1.45321e-17 1.43492e-16 0)
(-4.05551e-17 1.52489e-16 0)
(2.39169e-17 0 0)
(-4.86041e-17 0 0)
(3.37766e-18 0 0)
(9.05132e-21 -7.61293e-17 0)
(-9.93892e-21 -7.86669e-17 0)
(-3.98936e-20 0 0)
(3.99794e-17 -2.33002e-17 0)
(-1.44926e-20 -3.57808e-16 0)
(-9.6335e-17 -1.61256e-16 0)
(-8.49816e-17 1.09811e-16 0)
(-1.72428e-17 2.85831e-16 0)
(1.5407e-16 0 0)
(5.84847e-17 -3.94027e-16 0)
(-1.00246e-16 -7.72828e-17 0)
(1.23281e-15 -1.22499e-16 0)
(2.92121e-11 -9.29585e-15 0)
(9.22282e-08 -2.06061e-14 0)
(3.04333e-05 -2.91323e-14 0)
(0.00149664 -7.48568e-14 0)
(0.0168614 7.79888e-14 0)
(0.0700621 -3.66633e-14 0)
(0.162053 -2.15374e-14 0)
(0.274626 -1.57443e-14 0)
(0.380358 -2.61454e-14 0)
(1.01331 -1.50721e-14 0)
(-0.87183 -0.029003 0)
(-0.297986 0.122791 0)
(-0.208445 0.0643243 0)
(-0.120767 0.0260031 0)
(-0.0529949 0.00582159 0)
(-0.0129001 0.000671332 0)
(-0.00114645 2.26257e-05 0)
(-2.31066e-05 1.57294e-07 0)
(-6.92511e-08 4.0148e-11 0)
(-2.16708e-11 -4.29865e-14 0)
(-1.00424e-15 -1.02725e-16 0)
(5.68188e-17 4.61738e-17 0)
(-2.50577e-17 6.00329e-17 0)
(-1.23487e-17 -3.58665e-17 0)
(6.78449e-18 6.00329e-17 0)
(-2.14097e-17 4.80542e-17 0)
(-4.88807e-18 0 0)
(-7.80359e-18 -5.5715e-19 0)
(-8.84968e-20 -7.34741e-17 0)
(-2.79554e-19 -1.47645e-17 0)
(5.91054e-19 0 0)
(4.34424e-22 -4.31095e-17 0)
(-5.47613e-20 -1.78427e-16 0)
(-3.36577e-17 -1.95072e-16 0)
(2.54878e-17 -4.39452e-17 0)
(-1.83516e-17 7.36831e-17 0)
(3.24349e-17 -7.89063e-17 0)
(-1.25389e-18 -2.00226e-16 0)
(7.85924e-18 -2.04056e-16 0)
(1.39814e-15 -5.85704e-17 0)
(2.92074e-11 4.5111e-15 0)
(9.22282e-08 -1.23722e-15 0)
(3.04333e-05 -7.979e-14 0)
(0.00149664 1.01178e-14 0)
(0.0168614 4.18636e-14 0)
(0.0700621 -1.74638e-14 0)
(0.162053 -3.04302e-14 0)
(0.274626 -1.18182e-14 0)
(0.380358 -3.24909e-15 0)
(1.01331 -1.17074e-14 0)
(-1.0103 0.0193558 0)
(-0.365404 0.0652117 0)
(-0.250956 0.0382414 0)
(-0.144266 0.0196479 0)
(-0.0617106 0.00595884 0)
(-0.0146871 0.00109481 0)
(-0.00128186 7.52534e-05 0)
(-2.56135e-05 1.18038e-06 0)
(-7.63072e-08 2.80594e-09 0)
(-2.38018e-11 7.10144e-13 0)
(-1.09795e-15 1.17001e-17 0)
(7.76334e-17 -4.61738e-17 0)
(-2.4958e-17 0 0)
(-2.13363e-17 2.79968e-17 0)
(9.7372e-18 7.64688e-17 0)
(-4.94049e-17 1.9347e-16 0)
(-3.18363e-17 5.84311e-17 0)
(-4.67669e-17 0 0)
(-3.64784e-19 2.26342e-17 0)
(-1.29092e-18 1.3692e-16 0)
(2.47891e-18 2.25646e-17 0)
(7.66848e-21 0 0)
(6.30542e-19 -5.13274e-17 0)
(-5.79529e-17 -5.80829e-17 0)
(3.79098e-17 -4.61738e-17 0)
(-3.7506e-17 0 0)
(5.83216e-17 -4.83328e-17 0)
(-6.01865e-18 -5.89186e-17 0)
(1.55355e-17 -1.42073e-16 0)
(1.42479e-15 0 0)
(2.92247e-11 1.51336e-15 0)
(9.22282e-08 -9.64977e-15 0)
(3.04333e-05 -9.49459e-14 0)
(0.00149664 8.7024e-14 0)
(0.0168614 -5.36551e-14 0)
(0.0700621 5.3603e-14 0)
(0.162053 -7.72825e-15 0)
(0.274626 -6.6475e-15 0)
(0.380358 8.47533e-15 0)
(1.01331 6.63932e-15 0)
(-1.01505 0.0073235 0)
(-0.377583 0.0216341 0)
(-0.268774 0.0141276 0)
(-0.157423 0.00812822 0)
(-0.0676804 0.00268589 0)
(-0.0162128 0.000528364 0)
(-0.00143107 3.93802e-05 0)
(-2.8937e-05 6.87644e-07 0)
(-8.72266e-08 1.80824e-09 0)
(-2.74956e-11 4.9395e-13 0)
(-1.23902e-15 7.24295e-18 0)
(1.50685e-18 0 0)
(7.7095e-17 2.17985e-17 0)
(9.3082e-17 1.42352e-16 0)
(-8.87458e-17 4.65917e-17 0)
(-8.18222e-17 3.6354e-17 0)
(-7.23002e-17 1.27169e-16 0)
(-9.73569e-17 4.61042e-17 0)
(-3.27775e-18 0 0)
(-3.38949e-18 2.47235e-17 0)
(1.35464e-17 0 0)
(3.08222e-19 8.77511e-18 0)
(2.2865e-18 1.12335e-16 0)
(-2.34326e-17 1.66449e-17 0)
(7.08504e-19 4.61738e-17 0)
(-4.20378e-18 -3.09915e-17 0)
(3.89391e-17 6.4699e-17 0)
(-3.01685e-17 0 0)
(7.4653e-21 -3.96969e-18 0)
(1.33595e-15 0 0)
(2.92117e-11 -4.29361e-15 0)
(9.22282e-08 -2.36254e-14 0)
(3.04333e-05 -1.60728e-14 0)
(0.00149664 7.03976e-14 0)
(0.0168614 -7.54239e-14 0)
(0.0700621 9.49726e-14 0)
(0.162053 1.04058e-14 0)
(0.274626 8.42664e-15 0)
(0.380358 1.55487e-14 0)
(1.01331 3.07981e-14 0)
(-1.01346 0.00289398 0)
(-0.37997 0.00386201 0)
(-0.273882 0.00259845 0)
(-0.161456 0.00155666 0)
(-0.0697368 0.00051465 0)
(-0.0167749 9.84847e-05 0)
(-0.0014884 7.06845e-06 0)
(-3.02586e-05 1.18483e-07 0)
(-9.16862e-08 2.99966e-10 0)
(-2.9046e-11 9.22685e-14 0)
(-1.32222e-15 0 0)
(1.18116e-17 0 0)
(1.09293e-16 -7.84188e-17 0)
(1.11552e-17 3.72594e-17 0)
(-8.18455e-17 0 0)
(-3.3012e-17 -8.9144e-17 0)
(4.67416e-18 -1.49804e-16 0)
(-4.76422e-18 -4.61042e-17 0)
(-9.65963e-18 0 0)
(1.22777e-17 0 0)
(5.87093e-17 0 0)
(1.44245e-18 0 0)
(7.04649e-18 4.33184e-17 0)
(-5.59841e-17 0 0)
(-1.77837e-18 0 0)
(-1.13191e-17 9.35315e-17 0)
(4.83543e-17 0 0)
(-4.72689e-17 0 0)
(-1.37636e-19 0 0)
(1.32462e-15 0 0)
(2.92142e-11 -1.37964e-15 0)
(9.22282e-08 6.47339e-16 0)
(3.04333e-05 2.57207e-14 0)
(0.00149664 1.52859e-14 0)
(0.0168614 -5.35318e-14 0)
(0.0700621 7.45979e-14 0)
(0.162053 1.17443e-14 0)
(0.274626 -1.3347e-14 0)
(0.380358 2.06107e-14 0)
(1.01331 1.70717e-14 0)
(-1.01331 0.000360526 0)
(-0.380336 0.000245599 0)
(-0.274591 0.000159573 0)
(-0.162025 9.68559e-05 0)
(-0.070047 3.07795e-05 0)
(-0.0168577 5.3994e-06 0)
(-0.00149633 3.45008e-07 0)
(-3.04278e-05 5.06986e-09 0)
(-9.22146e-08 1.13064e-11 0)
(-2.92256e-11 -3.25508e-15 0)
(-1.35593e-15 4.74274e-17 0)
(3.9777e-17 0 0)
(1.78665e-16 -1.66449e-17 0)
(2.97753e-17 0 0)
(-1.43552e-16 -3.26629e-17 0)
(-4.80007e-17 -1.28493e-16 0)
(1.09458e-17 -3.35683e-17 0)
(3.30695e-17 0 0)
(-3.20601e-17 0 0)
(3.92871e-17 0 0)
(1.00344e-16 0 0)
(4.63322e-18 0 0)
(1.39017e-17 -9.33226e-17 0)
(-8.18406e-17 2.29824e-18 0)
(-8.20575e-18 3.97666e-17 0)
(-3.88954e-17 1.35527e-16 0)
(4.06057e-17 3.97666e-17 0)
(-3.98491e-17 0 0)
(-9.79949e-18 0 0)
(1.41783e-15 0 0)
(2.92081e-11 3.22987e-15 0)
(9.22282e-08 1.95744e-14 0)
(3.04333e-05 -1.2172e-14 0)
(0.00149664 -1.0327e-14 0)
(0.0168614 -9.60382e-15 0)
(0.0700621 3.14504e-14 0)
(0.162053 9.3193e-15 0)
(0.274626 -4.33003e-14 0)
(0.380358 2.867e-14 0)
(1.01331 1.60422e-14 0)
(-1.01331 1.06174e-05 0)
(-0.380357 3.99602e-06 0)
(-0.274626 2.12225e-06 0)
(-0.162053 1.30661e-06 0)
(-0.070062 3.90659e-07 0)
(-0.0168614 6.08373e-08 0)
(-0.00149664 3.28858e-09 0)
(-3.04333e-05 3.90983e-11 0)
(-9.22283e-08 5.70635e-14 0)
(-2.92135e-11 -8.31407e-16 0)
(-1.39258e-15 -4.74274e-17 0)
(8.51992e-18 -4.23434e-17 0)
(7.65491e-17 4.56166e-17 0)
(6.18114e-17 -1.86645e-17 0)
(-3.39309e-17 7.70956e-17 0)
(-1.39145e-17 3.38469e-17 0)
(-4.97412e-17 0 0)
(4.59102e-17 0 0)
(-4.96786e-17 0 0)
(4.90169e-17 -4.61738e-17 0)
(-4.66345e-17 0 0)
(-3.23075e-17 -4.61738e-17 0)
(5.53574e-17 -4.33184e-17 0)
(-3.09772e-19 -8.99797e-17 0)
(4.94491e-17 -4.63827e-17 0)
(-4.62473e-17 -1.41446e-16 0)
(4.68375e-17 -4.62434e-17 0)
(-4.95052e-17 4.93078e-17 0)
(-6.44325e-17 0 0)
(1.41283e-15 0 0)
(2.92222e-11 2.46497e-15 0)
(9.22282e-08 4.67298e-14 0)
(3.04333e-05 -1.50371e-14 0)
(0.00149664 2.60539e-14 0)
(0.0168614 2.00804e-14 0)
(0.0700621 3.02819e-15 0)
(0.162053 1.65095e-14 0)
(0.274626 -1.67725e-14 0)
(0.380358 3.34888e-14 0)
(1.01331 5.21379e-14 0)
(-1.01331 6.60563e-08 0)
(-0.380358 1.48889e-08 0)
(-0.274626 3.97183e-09 0)
(-0.162053 2.60374e-09 0)
(-0.0700621 7.12261e-10 0)
(-0.0168614 9.70908e-11 0)
(-0.00149664 4.15417e-12 0)
(-3.04333e-05 2.124e-14 0)
(-9.22283e-08 -3.38119e-14 0)
(-2.92264e-11 5.20169e-16 0)
(-1.47773e-15 -1.72716e-17 0)
(6.75828e-17 -1.51266e-16 0)
(1.20287e-19 -5.55757e-17 0)
(3.77952e-18 -1.51127e-16 0)
(9.45987e-17 -9.68048e-18 0)
(-3.14124e-17 1.66727e-16 0)
(-1.74985e-16 6.85991e-17 0)
(-4.62479e-17 -3.5379e-17 0)
(5.54672e-17 0 0)
(3.61226e-18 4.61738e-17 0)
(-8.83033e-19 0 0)
(-5.51578e-17 4.61738e-17 0)
(-3.97931e-17 4.61042e-17 0)
(-1.13372e-18 0 0)
(-9.78501e-19 4.60345e-17 0)
(1.76277e-17 -2.69521e-17 0)
(-2.66736e-17 0 0)
(-1.20892e-22 -4.93774e-17 0)
(-2.83976e-17 0 0)
(1.35528e-15 0 0)
(2.92146e-11 2.30117e-15 0)
(9.22283e-08 2.7111e-14 0)
(3.04333e-05 9.29403e-15 0)
(0.00149664 7.59234e-14 0)
(0.0168614 -7.83775e-15 0)
(0.0700621 4.82685e-16 0)
(0.162053 8.50516e-15 0)
(0.274626 1.47158e-14 0)
(0.380358 4.13894e-14 0)
(1.01331 5.77258e-14 0)
(-1.01331 9.22524e-11 0)
(-0.380358 1.54154e-11 0)
(-0.274626 3.61086e-13 0)
(-0.162053 5.19009e-13 0)
(-0.0700621 6.21829e-14 0)
(-0.0168614 1.81986e-14 0)
(-0.00149664 -1.30606e-13 0)
(-3.04333e-05 -1.51528e-15 0)
(-9.22282e-08 -1.10862e-14 0)
(-2.92149e-11 -3.51492e-16 0)
(-1.52562e-15 0 0)
(1.01702e-16 0 0)
(5.02319e-18 0 0)
(2.16148e-17 -2.98075e-17 0)
(1.24224e-16 0 0)
(1.92837e-18 4.31791e-18 0)
(-9.12988e-17 -2.37485e-17 0)
(8.65825e-18 -1.23548e-16 0)
(1.08906e-16 -3.18968e-17 0)
(8.3683e-18 0 0)
(2.75863e-18 0 0)
(-5.46246e-17 0 0)
(-1.2296e-16 -4.61042e-17 0)
(-1.67308e-17 0 0)
(-2.91243e-18 0 0)
(3.4416e-17 0 0)
(-6.13696e-17 0 0)
(2.68998e-23 -5.81525e-17 0)
(-1.99252e-19 0 0)
(1.30487e-15 1.33716e-17 0)
(2.92279e-11 3.14643e-15 0)
(9.22283e-08 -2.88496e-14 0)
(3.04333e-05 -8.85965e-15 0)
(0.00149664 2.92196e-14 0)
(0.0168614 -1.56914e-14 0)
(0.0700621 -1.91244e-14 0)
(0.162053 -2.69013e-14 0)
(0.274626 5.80633e-15 0)
(0.380358 -5.93497e-15 0)
(1.01331 8.89017e-15 0)
(-1.01331 1.09184e-13 0)
(-0.380358 5.01974e-14 0)
(-0.274626 -4.80123e-14 0)
(-0.162053 -3.1079e-14 0)
(-0.0700621 -1.97079e-14 0)
(-0.0168614 -7.42502e-14 0)
(-0.00149664 -6.6885e-14 0)
(-3.04333e-05 -7.60421e-15 0)
(-9.22282e-08 -1.03608e-14 0)
(-2.92255e-11 -2.47597e-15 0)
(-1.45252e-15 6.71366e-17 0)
(-1.8617e-17 1.53704e-16 0)
(2.1878e-18 1.71324e-17 0)
(8.63117e-17 0 0)
(2.28687e-16 -8.53136e-17 0)
(4.93372e-18 -2.15756e-16 0)
(-1.83565e-16 -7.76528e-17 0)
(-6.9747e-17 1.77592e-17 0)
(8.87878e-18 5.22328e-18 0)
(5.42006e-18 0 0)
(6.1213e-18 -7.89063e-17 0)
(5.16136e-17 0 0)
(-2.42486e-17 -6.96437e-17 0)
(-7.52018e-17 0 0)
(-2.28557e-17 0 0)
(-3.87987e-17 -7.89063e-17 0)
(-1.67747e-18 -7.89063e-17 0)
(-1.84515e-22 -1.5837e-16 0)
(-3.92353e-19 -6.26097e-17 0)
(1.32678e-15 -7.89063e-17 0)
(2.92218e-11 -1.15859e-14 0)
(9.22282e-08 -3.50573e-14 0)
(3.04333e-05 -5.76814e-15 0)
(0.00149664 -5.47465e-14 0)
(0.0168614 6.02407e-15 0)
(0.0700621 -4.32503e-14 0)
(0.162053 -4.67221e-14 0)
(0.274626 7.92432e-15 0)
(0.380358 -2.44618e-14 0)
(1.01331 -1.06207e-14 0)
(-1.01331 4.14282e-14 0)
(-0.380358 3.47301e-14 0)
(-0.274626 -3.55785e-14 0)
(-0.162053 -2.20918e-14 0)
(-0.0700621 7.52317e-14 0)
(-0.0168614 -8.08e-14 0)
(-0.00149664 7.88911e-14 0)
(-3.04333e-05 -1.25106e-14 0)
(-9.22282e-08 -1.16742e-14 0)
(-2.92083e-11 -2.85484e-15 0)
(-1.45638e-15 6.1306e-15 0)
(1.74219e-19 5.98414e-15 0)
(1.78624e-17 6.01346e-15 0)
(1.12824e-16 5.87751e-15 0)
(1.58233e-17 5.84973e-15 0)
(1.55696e-17 5.86567e-15 0)
(-5.65379e-17 5.97132e-15 0)
(-7.99787e-18 5.92473e-15 0)
(1.80639e-18 5.80585e-15 0)
(2.09091e-17 5.80724e-15 0)
(8.20763e-17 5.77827e-15 0)
(2.15559e-16 5.80669e-15 0)
(2.3745e-17 5.86825e-15 0)
(-2.09406e-16 5.80404e-15 0)
(-1.03617e-16 5.80627e-15 0)
(-9.23628e-17 5.79617e-15 0)
(-3.91117e-17 5.77806e-15 0)
(-5.58807e-20 5.65688e-15 0)
(-1.07087e-18 5.69762e-15 0)
(1.33783e-15 5.72792e-15 0)
(2.92053e-11 2.75162e-16 0)
(9.22282e-08 1.07068e-14 0)
(3.04333e-05 5.11413e-14 0)
(0.00149664 -5.51734e-14 0)
(0.0168614 8.35004e-14 0)
(0.0700621 -5.13674e-15 0)
(0.162053 -2.89706e-14 0)
(0.274626 2.94352e-14 0)
(0.380358 1.70588e-14 0)
(1.01331 1.09904e-14 0)
(-1.01331 1.74862e-11 0)
(-0.380358 2.26844e-11 0)
(-0.274626 6.13307e-11 0)
(-0.162053 8.8669e-11 0)
(-0.0700621 1.12285e-10 0)
(-0.0168614 1.22914e-10 0)
(-0.00149664 1.25861e-10 0)
(-3.04333e-05 1.25714e-10 0)
(-9.22284e-08 1.25934e-10 0)
(-2.91982e-11 1.25768e-10 0)
(-1.07945e-14 1.25778e-10 0)
(2.12763e-15 1.25767e-10 0)
(-1.2282e-15 1.25772e-10 0)
(-1.35158e-14 1.2576e-10 0)
(-2.62e-15 1.25745e-10 0)
(9.91132e-15 1.25753e-10 0)
(-8.2649e-15 1.25763e-10 0)
(-1.43533e-14 1.25733e-10 0)
(4.71269e-15 1.25732e-10 0)
(1.47917e-14 1.25745e-10 0)
(-1.15639e-16 1.25763e-10 0)
(-1.72916e-14 1.25743e-10 0)
(-3.82738e-15 1.25729e-10 0)
(4.31203e-15 1.25729e-10 0)
(6.95829e-16 1.25736e-10 0)
(-3.37417e-15 1.25731e-10 0)
(-3.56398e-15 1.25728e-10 0)
(-8.25205e-16 1.25723e-10 0)
(4.21925e-15 1.25728e-10 0)
(1.06862e-14 1.25738e-10 0)
(2.92171e-11 1.25752e-10 0)
(9.22284e-08 1.25889e-10 0)
(3.04333e-05 1.25566e-10 0)
(0.00149664 1.25673e-10 0)
(0.0168614 1.23042e-10 0)
(0.0700621 1.12231e-10 0)
(0.162053 8.86621e-11 0)
(0.274626 6.12592e-11 0)
(0.380358 2.27637e-11 0)
(1.01331 1.75327e-11 0)
(-1.01331 6.42803e-08 0)
(-0.380358 7.41957e-08 0)
(-0.274626 1.59421e-07 0)
(-0.162053 2.04586e-07 0)
(-0.0700621 2.43572e-07 0)
(-0.0168614 2.61048e-07 0)
(-0.00149664 2.65174e-07 0)
(-3.04333e-05 2.65501e-07 0)
(-9.22282e-08 2.65506e-07 0)
(-2.91614e-11 2.65506e-07 0)
(-4.20451e-14 2.65507e-07 0)
(2.62671e-15 2.65506e-07 0)
(3.96441e-14 2.65506e-07 0)
(2.98852e-14 2.65507e-07 0)
(-2.80518e-15 2.65507e-07 0)
(-4.17994e-14 2.65507e-07 0)
(-1.39714e-14 2.65506e-07 0)
(3.95751e-14 2.65507e-07 0)
(2.92128e-14 2.65507e-07 0)
(5.84844e-15 2.65507e-07 0)
(-1.48062e-15 2.65507e-07 0)
(-1.35151e-14 2.65507e-07 0)
(-5.22236e-14 2.65507e-07 0)
(-2.00652e-14 2.65507e-07 0)
(4.56651e-14 2.65507e-07 0)
(3.34591e-14 2.65507e-07 0)
(4.65867e-15 2.65507e-07 0)
(2.42838e-16 2.65507e-07 0)
(-1.0967e-15 2.65507e-07 0)
(-1.08405e-16 2.65507e-07 0)
(2.92439e-11 2.65507e-07 0)
(9.22282e-08 2.65506e-07 0)
(3.04333e-05 2.65501e-07 0)
(0.00149664 2.65174e-07 0)
(0.0168614 2.61047e-07 0)
(0.0700621 2.43573e-07 0)
(0.162053 2.04586e-07 0)
(0.274626 1.59421e-07 0)
(0.380358 7.41959e-08 0)
(1.01331 6.42805e-08 0)
(-1.01331 2.41842e-05 0)
(-0.380355 2.53652e-05 0)
(-0.274622 4.45276e-05 0)
(-0.162051 5.17279e-05 0)
(-0.0700609 5.84676e-05 0)
(-0.016861 6.1423e-05 0)
(-0.0014966 6.21451e-05 0)
(-3.04322e-05 6.22049e-05 0)
(-9.2224e-08 6.2206e-05 0)
(-2.9364e-11 6.2206e-05 0)
(2.85996e-14 6.2206e-05 0)
(1.50479e-14 6.2206e-05 0)
(-2.33029e-14 6.2206e-05 0)
(1.20612e-14 6.2206e-05 0)
(5.1455e-15 6.2206e-05 0)
(2.51277e-15 6.2206e-05 0)
(5.14437e-14 6.2206e-05 0)
(2.8478e-14 6.2206e-05 0)
(2.25769e-14 6.2206e-05 0)
(6.76533e-15 6.2206e-05 0)
(-1.82941e-14 6.2206e-05 0)
(-3.68508e-14 6.2206e-05 0)
(3.32837e-15 6.2206e-05 0)
(5.29581e-14 6.2206e-05 0)
(-1.60458e-14 6.2206e-05 0)
(-6.75754e-14 6.2206e-05 0)
(-1.46815e-14 6.2206e-05 0)
(-4.39208e-15 6.2206e-05 0)
(3.85651e-16 6.2206e-05 0)
(5.94999e-14 6.2206e-05 0)
(2.92119e-11 6.2206e-05 0)
(9.22244e-08 6.2206e-05 0)
(3.04322e-05 6.22049e-05 0)
(0.0014966 6.21451e-05 0)
(0.016861 6.1423e-05 0)
(0.0700609 5.84676e-05 0)
(0.162051 5.17279e-05 0)
(0.274622 4.45276e-05 0)
(0.380355 2.53652e-05 0)
(1.01331 2.41842e-05 0)
(-1.01321 0.0013218 0)
(-0.380249 0.0012858 0)
(-0.274485 0.0019137 0)
(-0.161975 0.00206018 0)
(-0.0700153 0.00223363 0)
(-0.0168464 0.00230892 0)
(-0.00149486 0.00232835 0)
(-3.03858e-05 0.00233006 0)
(-9.20447e-08 0.00233009 0)
(-2.90591e-11 0.00233009 0)
(-8.86e-15 0.00233009 0)
(8.98356e-15 0.00233009 0)
(-1.12274e-14 0.00233009 0)
(-7.05463e-14 0.00233009 0)
(-2.34075e-14 0.00233009 0)
(2.28881e-14 0.00233009 0)
(-3.18403e-14 0.00233009 0)
(-1.15285e-13 0.00233009 0)
(-7.31427e-14 0.00233009 0)
(2.08553e-14 0.00233009 0)
(3.94972e-14 0.00233009 0)
(1.99723e-14 0.00233009 0)
(-4.63193e-14 0.00233009 0)
(-1.30018e-13 0.00233009 0)
(-3.4602e-14 0.00233009 0)
(4.80943e-14 0.00233009 0)
(7.60479e-14 0.00233009 0)
(1.36144e-14 0.00233009 0)
(-2.72389e-14 0.00233009 0)
(-1.49576e-14 0.00233009 0)
(2.91147e-11 0.00233009 0)
(9.20448e-08 0.00233009 0)
(3.03858e-05 0.00233006 0)
(0.00149486 0.00232835 0)
(0.0168464 0.00230892 0)
(0.0700153 0.00223363 0)
(0.161975 0.00206018 0)
(0.274485 0.0019137 0)
(0.380249 0.0012858 0)
(1.01321 0.0013218 0)
(-1.01187 0.0160445 0)
(-0.37928 0.0147812 0)
(-0.273404 0.0195723 0)
(-0.161371 0.0200179 0)
(-0.0696382 0.021063 0)
(-0.0167183 0.0215197 0)
(-0.00147859 0.0216464 0)
(-2.99262e-05 0.0216583 0)
(-9.01873e-08 0.0216585 0)
(-2.85705e-11 0.0216585 0)
(1.13942e-14 0.0216585 0)
(6.96419e-14 0.0216585 0)
(7.84797e-14 0.0216585 0)
(4.54298e-14 0.0216585 0)
(-1.74163e-14 0.0216585 0)
(-4.3931e-14 0.0216585 0)
(-1.63688e-15 0.0216585 0)
(6.23114e-14 0.0216585 0)
(4.15436e-14 0.0216585 0)
(-4.16153e-15 0.0216585 0)
(-3.5245e-15 0.0216585 0)
(1.97382e-14 0.0216585 0)
(4.86501e-14 0.0216585 0)
(6.88856e-14 0.0216585 0)
(7.66459e-15 0.0216585 0)
(-3.33176e-14 0.0216585 0)
(-2.22264e-14 0.0216585 0)
(6.42188e-15 0.0216585 0)
(2.12418e-14 0.0216585 0)
(3.80794e-14 0.0216585 0)
(2.82943e-11 0.0216585 0)
(9.01874e-08 0.0216585 0)
(2.99262e-05 0.0216583 0)
(0.00147859 0.0216464 0)
(0.0167183 0.0215197 0)
(0.0696382 0.021063 0)
(0.161371 0.0200179 0)
(0.273404 0.0195723 0)
(0.37928 0.0147812 0)
(1.01187 0.0160445 0)
(-1.00635 0.0696423 0)
(-0.376828 0.0619436 0)
(-0.270894 0.0767369 0)
(-0.159668 0.0761458 0)
(-0.0685351 0.0786331 0)
(-0.0163098 0.0797484 0)
(-0.00142288 0.0800845 0)
(-2.82704e-05 0.0801176 0)
(-8.32935e-08 0.0801183 0)
(-2.56371e-11 0.0801183 0)
(-2.72616e-14 0.0801183 0)
(-1.95613e-14 0.0801183 0)
(-1.38067e-14 0.0801183 0)
(2.59083e-14 0.0801183 0)
(3.60449e-14 0.0801183 0)
(3.19451e-14 0.0801183 0)
(3.54659e-14 0.0801183 0)
(2.81326e-14 0.0801183 0)
(2.27336e-14 0.0801183 0)
(1.87573e-14 0.0801183 0)
(2.16745e-14 0.0801183 0)
(1.14801e-14 0.0801183 0)
(-5.4423e-15 0.0801183 0)
(-2.41584e-14 0.0801183 0)
(-3.94747e-14 0.0801183 0)
(-4.72882e-14 0.0801183 0)
(-5.07703e-14 0.0801183 0)
(-4.11971e-14 0.0801183 0)
(-2.07859e-14 0.0801183 0)
(-7.74272e-16 0.0801183 0)
(2.5533e-11 0.0801183 0)
(8.32938e-08 0.0801183 0)
(2.82704e-05 0.0801176 0)
(0.00142288 0.0800845 0)
(0.0163098 0.0797484 0)
(0.0685351 0.0786331 0)
(0.159668 0.0761458 0)
(0.270894 0.0767369 0)
(0.376828 0.0619436 0)
(1.00635 0.0696423 0)
(-0.996563 0.163133 0)
(-0.373112 0.140799 0)
(-0.266429 0.171163 0)
(-0.155841 0.168153 0)
(-0.0661755 0.171953 0)
(-0.0154249 0.17359 0)
(-0.00130263 0.174101 0)
(-2.47583e-05 0.174153 0)
(-6.90649e-08 0.174154 0)
(-1.99719e-11 0.174154 0)
(3.86661e-14 0.174154 0)
(4.26755e-14 0.174154 0)
(1.20887e-14 0.174154 0)
(-1.83448e-14 0.174154 0)
(-5.16796e-14 0.174154 0)
(-6.76463e-14 0.174154 0)
(-4.03197e-14 0.174154 0)
(-4.96975e-14 0.174154 0)
(-3.51227e-14 0.174154 0)
(-6.73216e-15 0.174154 0)
(1.82174e-14 0.174154 0)
(4.48105e-14 0.174154 0)
(2.44447e-14 0.174154 0)
(1.68801e-14 0.174154 0)
(1.38894e-14 0.174154 0)
(-1.21021e-14 0.174154 0)
(5.93407e-15 0.174154 0)
(-2.32504e-15 0.174154 0)
(-1.89505e-14 0.174154 0)
(5.53298e-15 0.174154 0)
(1.97972e-11 0.174154 0)
(6.90652e-08 0.174154 0)
(2.47583e-05 0.174153 0)
(0.00130263 0.174101 0)
(0.0154249 0.17359 0)
(0.0661755 0.171953 0)
(0.155841 0.168153 0)
(0.266429 0.171163 0)
(0.373112 0.140799 0)
(0.996563 0.163133 0)
(-0.971499 0.255739 0)
(-0.381198 0.237695 0)
(-0.277051 0.288212 0)
(-0.158626 0.277689 0)
(-0.0665965 0.282106 0)
(-0.0150252 0.284519 0)
(-0.00120162 0.285414 0)
(-2.10935e-05 0.285506 0)
(-5.31018e-08 0.285508 0)
(-1.34929e-11 0.285508 0)
(-6.62674e-15 0.285508 0)
(1.68336e-14 0.285508 0)
(3.07043e-14 0.285508 0)
(1.20331e-14 0.285508 0)
(-3.58641e-14 0.285508 0)
(-3.0008e-14 0.285508 0)
(1.43511e-15 0.285508 0)
(1.03133e-14 0.285508 0)
(3.41223e-14 0.285508 0)
(3.06944e-14 0.285508 0)
(2.6512e-14 0.285508 0)
(2.35363e-14 0.285508 0)
(-1.078e-14 0.285508 0)
(-2.1088e-14 0.285508 0)
(-3.47167e-14 0.285508 0)
(-5.11644e-14 0.285508 0)
(-1.42094e-14 0.285508 0)
(-1.31457e-14 0.285508 0)
(-1.96494e-14 0.285508 0)
(-2.0079e-15 0.285508 0)
(1.34573e-11 0.285508 0)
(5.31019e-08 0.285508 0)
(2.10935e-05 0.285506 0)
(0.00120162 0.285414 0)
(0.0150252 0.284519 0)
(0.0665965 0.282106 0)
(0.158626 0.277689 0)
(0.277051 0.288212 0)
(0.381198 0.237695 0)
(0.971499 0.255739 0)
(-0.894429 0.38339 0)
(-0.331716 0.341733 0)
(-0.227858 0.391317 0)
(-0.130017 0.383555 0)
(-0.0534575 0.387272 0)
(-0.0112336 0.389608 0)
(-0.000795598 0.390406 0)
(-1.18101e-05 0.390476 0)
(-2.42843e-08 0.390478 0)
(-4.92609e-12 0.390478 0)
(1.78943e-14 0.390478 0)
(3.34007e-14 0.390478 0)
(1.96405e-14 0.390478 0)
(1.15043e-14 0.390478 0)
(1.35319e-14 0.390478 0)
(-1.93149e-14 0.390478 0)
(-5.41375e-14 0.390478 0)
(-4.53744e-14 0.390478 0)
(-3.0533e-14 0.390478 0)
(-1.29948e-14 0.390478 0)
(1.58137e-14 0.390478 0)
(3.80553e-14 0.390478 0)
(2.3864e-14 0.390478 0)
(4.2758e-15 0.390478 0)
(5.29713e-15 0.390478 0)
(2.46572e-15 0.390478 0)
(9.31501e-15 0.390478 0)
(-4.17227e-15 0.390478 0)
(-2.05789e-14 0.390478 0)
(-1.471e-14 0.390478 0)
(4.89696e-12 0.390478 0)
(2.42844e-08 0.390478 0)
(1.18101e-05 0.390476 0)
(0.000795598 0.390406 0)
(0.0112336 0.389608 0)
(0.0534575 0.387272 0)
(0.130017 0.383555 0)
(0.227858 0.391317 0)
(0.331716 0.341733 0)
(0.894429 0.38339 0)
(-0.93052 0.946051 0)
(-0.371776 0.91072 0)
(-0.245476 0.984381 0)
(-0.151139 1.00978 0)
(-0.0600881 1.01944 0)
(-0.0121275 1.02437 0)
(-0.000807845 1.02541 0)
(-1.10258e-05 1.02546 0)
(-2.03849e-08 1.02546 0)
(-3.64599e-12 1.02546 0)
(5.48874e-14 1.02546 0)
(5.46712e-14 1.02546 0)
(2.94514e-14 1.02546 0)
(4.1531e-14 1.02546 0)
(6.5165e-15 1.02546 0)
(-6.49277e-14 1.02546 0)
(-7.38168e-14 1.02546 0)
(-4.85562e-14 1.02546 0)
(-3.40027e-14 1.02546 0)
(-6.51104e-15 1.02546 0)
(1.58125e-14 1.02546 0)
(4.6961e-14 1.02546 0)
(1.98124e-14 1.02546 0)
(-3.52069e-16 1.02546 0)
(2.02077e-14 1.02546 0)
(6.55341e-15 1.02546 0)
(2.10544e-15 1.02546 0)
(-4.6728e-15 1.02546 0)
(-1.6638e-14 1.02546 0)
(-6.18338e-15 1.02546 0)
(3.57661e-12 1.02546 0)
(2.03848e-08 1.02546 0)
(1.10258e-05 1.02546 0)
(0.000807845 1.02541 0)
(0.0121275 1.02437 0)
(0.0600881 1.01944 0)
(0.151139 1.00978 0)
(0.245476 0.984381 0)
(0.371776 0.91072 0)
(0.93052 0.946051 0)
(-0.93052 -0.946051 0)
(-0.371776 -0.91072 0)
(-0.245476 -0.984381 0)
(-0.151139 -1.00978 0)
(-0.0600881 -1.01944 0)
(-0.0121275 -1.02437 0)
(-0.000807845 -1.02541 0)
(-1.10258e-05 -1.02546 0)
(-2.0385e-08 -1.02546 0)
(-3.55707e-12 -1.02546 0)
(1.92851e-14 -1.02546 0)
(-3.46073e-15 -1.02546 0)
(-2.17214e-14 -1.02546 0)
(-1.46327e-14 -1.02546 0)
(-1.39452e-14 -1.02546 0)
(-1.10239e-14 -1.02546 0)
(3.06772e-14 -1.02546 0)
(3.45054e-14 -1.02546 0)