/*--------------------------------*- C++ -*----------------------------------*\
| =========                 |                                                 |
| \\      /  F ield         | OpenFOAM: The Open Source CFD Toolbox           |
|  \\    /   O peration     | Version:  v1912                                 |
|   \\  /    A nd           | Website:  www.openfoam.com                      |
|    \\/     M anipulation  |                                                 |
\*---------------------------------------------------------------------------*/
FoamFile
{
    version     2.0;
    format      ascii;
    class       volScalarField;
    location    "6.48";
    object      Ma;
}
// * * * * * * * * * * * * * * * * * * * * * * * * * * * * * * * * * * * * * //

dimensions      [0 0 0 0 0 0 0];


internalField   nonuniform List<scalar> 
1900
(
0.716229
0.0581232
0.0964927
0.0927589
0.0933256
0.0931936
0.0936101
0.0945815
0.0962356
0.0901754
0.716228
0.0581288
0.096483
0.092756
0.0933476
0.0931794
0.0934509
0.0941885
0.0974678
0.101681
0.716228
0.058131
0.0964782
0.0927569
0.0933553
0.093138
0.0933376
0.0943713
0.0981891
0.107829
0.716228
0.0581288
0.096483
0.092756
0.0933476
0.0931794
0.0934509
0.0941885
0.0974678
0.101681
0.716229
0.0581232
0.0964927
0.0927589
0.0933256
0.0931936
0.0936101
0.0945815
0.0962356
0.0901754
0.100102
0.140458
0.19533
0.28348
0.433261
0.120205
0.147839
0.181414
0.248291
0.393373
0.128203
0.154382
0.188317
0.252266
0.390697
0.120205
0.147839
0.181414
0.248291
0.393373
0.100102
0.140458
0.19533
0.28348
0.433261
0.94931
1.33516
1.60748
1.89148
2.00334
0.907323
1.33631
1.62599
1.91593
2.01782
0.902885
1.34539
1.62652
1.91118
2.01287
0.907323
1.33631
1.62599
1.91593
2.01782
0.94931
1.33516
1.60748
1.89148
2.00334
1.97014
2.01728
2.20778
2.18612
1.80932
1.21889
1.08191
0.924348
0.737766
0.583539
0.466629
0.35594
0.223181
0.107786
0.059818
0.048795
0.0466311
0.0468882
0.0504316
0.0614201
0.0818688
0.109326
0.140104
0.171902
0.203716
0.235326
0.266301
0.297754
0.327745
0.357374
0.386681
0.414725
0.441019
0.46175
0.480111
0.492329
0.484136
0.368634
0.227328
0.0209349
2.02091
2.08483
2.24628
2.18244
1.83139
1.21219
1.07538
0.945067
0.763162
0.600826
0.47539
0.358433
0.222608
0.105243
0.0554334
0.0437687
0.0417297
0.0423237
0.0464761
0.0582936
0.0795966
0.107703
0.138928
0.171042
0.203089
0.234883
0.265999
0.297589
0.327671
0.357401
0.386776
0.414907
0.441221
0.461987
0.480375
0.492596
0.484561
0.368989
0.226598
0.0117753
1.99855
2.05183
2.21583
2.16601
1.81464
1.21065
1.0659
0.928544
0.741022
0.583325
0.468007
0.358664
0.224049
0.104973
0.0540217
0.0420482
0.0400635
0.040801
0.045171
0.0572507
0.0788349
0.107156
0.138521
0.170728
0.202843
0.234687
0.265843
0.297476
0.327589
0.35736
0.386773
0.414959
0.44132
0.462165
0.480667
0.493039
0.485303
0.370081
0.227852
0.00434638
2.02091
2.08483
2.24628
2.18244
1.83139
1.21219
1.07538
0.945067
0.763162
0.600826
0.47539
0.358433
0.222608
0.105243
0.0554334
0.0437687
0.0417297
0.0423237
0.0464761
0.0582936
0.0795966
0.107703
0.138928
0.171042
0.203089
0.234883
0.265999
0.297589
0.327671
0.357401
0.386776
0.414907
0.441221
0.461987
0.480375
0.492596
0.484561
0.368989
0.226598
0.0117753
1.97014
2.01728
2.20778
2.18612
1.80932
1.21889
1.08191
0.924348
0.737766
0.583539
0.466629
0.35594
0.223181
0.107786
0.059818
0.048795
0.0466311
0.0468882
0.0504316
0.0614201
0.0818688
0.109326
0.140104
0.171902
0.203716
0.235326
0.266301
0.297754
0.327745
0.357374
0.386681
0.414725
0.441019
0.46175
0.480111
0.492329
0.484136
0.368634
0.227328
0.0209349
1.90978
1.92527
2.02811
1.94385
1.58347
1.16449
1.0035
0.849116
0.694716
0.56873
0.46536
0.357124
0.224408
0.114986
0.0741105
0.065171
0.0628612
0.0621369
0.0644728
0.0733698
0.0912159
0.116489
0.145758
0.176539
0.207651
0.238755
0.269388
0.300498
0.330338
0.359762
0.388999
0.416875
0.443271
0.464046
0.482547
0.494924
0.486272
0.37128
0.232846
0.0415285
1.78384
1.78909
1.71565
1.56458
1.23941
0.98272
0.858691
0.745213
0.641902
0.546628
0.454712
0.348857
0.223172
0.133818
0.10531
0.0983333
0.0953046
0.0931819
0.0939465
0.100229
0.114033
0.135059
0.160915
0.189185
0.218466
0.248201
0.277888
0.308029
0.337429
0.366258
0.395261
0.422644
0.449223
0.469978
0.488867
0.501253
0.491492
0.376887
0.242448
0.074803
1.53262
1.51361
1.39753
1.15977
0.903751
0.790336
0.746854
0.687635
0.619678
0.529484
0.440128
0.336836
0.225746
0.161017
0.141256
0.134758
0.130605
0.127365
0.127073
0.131672
0.142524
0.15975
0.182005
0.207298
0.234231
0.262108
0.290462
0.319198
0.347933
0.375861
0.404454
0.431056
0.457729
0.478339
0.497686
0.509863
0.498684
0.385056
0.25645
0.108209
1.11644
1.02721
0.91292
0.783942
0.742423
0.758416
0.731925
0.673148
0.589981
0.509057
0.425504
0.327079
0.237513
0.194001
0.179019
0.171995
0.166584
0.162452
0.161428
0.164952
0.173758
0.188002
0.207078
0.229469
0.253936
0.279745
0.306556
0.333623
0.361535
0.388349
0.416386
0.442017
0.468652
0.488988
0.508709
0.520552
0.508068
0.395828
0.274314
0.141807
0.768082
0.682787
0.721867
0.785175
0.809335
0.784193
0.720369
0.640451
0.56671
0.493162
0.411623
0.32302
0.258375
0.229318
0.216728
0.20873
0.202223
0.197473
0.195935
0.198836
0.206169
0.218137
0.234609
0.254457
0.276635
0.300421
0.325686
0.351049
0.378096
0.403745
0.43119
0.455818
0.482368
0.502397
0.522513
0.533961
0.520581
0.410241
0.296433
0.17557
0.757499
0.799159
0.867918
0.869761
0.826915
0.765763
0.694778
0.620817
0.552885
0.481743
0.40453
0.333252
0.28898
0.266898
0.254462
0.245179
0.237657
0.23236
0.230404
0.232742
0.239008
0.249165
0.263468
0.281082
0.301133
0.322932
0.346609
0.370202
0.39623
0.420562
0.44722
0.47068
0.496867
0.516302
0.536417
0.547141
0.532514
0.423825
0.318082
0.209497
0.797619
0.864098
0.897394
0.860786
0.803014
0.746734
0.676382
0.607248
0.541602
0.473423
0.405338
0.352673
0.32132
0.302915
0.290096
0.279919
0.271811
0.266216
0.264254
0.266099
0.271541
0.280334
0.293015
0.308944
0.327374
0.347616
0.370072
0.39231
0.417582
0.440906
0.467026
0.489628
0.515647
0.534698
0.554859
0.565099
0.549992
0.443815
0.345391
0.243254
0.772575
0.84763
0.874305
0.836553
0.786158
0.732999
0.665504
0.600311
0.537971
0.476293
0.421703
0.382636
0.357056
0.339296
0.325544
0.314421
0.305677
0.299758
0.297334
0.298978
0.303711
0.311262
0.322412
0.336674
0.353422
0.371965
0.393064
0.413675
0.43795
0.46006
0.48538
0.506948
0.532527
0.550956
0.570832
0.580302
0.564444
0.460628
0.370009
0.276462
0.732946
0.813409
0.844441
0.820525
0.783271
0.721518
0.659818
0.597162
0.539294
0.486071
0.44338
0.412426
0.390133
0.37273
0.358516
0.346983
0.338011
0.332241
0.329567
0.33099
0.335195
0.341879
0.352034
0.365255
0.380985
0.398464
0.41876
0.43824
0.461903
0.483184
0.507918
0.528684
0.553854
0.571707
0.591128
0.599793
0.583878
0.481848
0.398198
0.309449
0.695753
0.778518
0.823013
0.813526
0.78337
0.714875
0.65966
0.601734
0.551387
0.507541
0.472974
0.445438
0.424131
0.406365
0.391546
0.379408
0.370014
0.363827
0.361041
0.36225
0.3659
0.37163
0.380641
0.392626
0.407128
0.423298
0.44255
0.460731
0.483621
0.504047
0.52814
0.548154
0.572915
0.590252
0.609296
0.617485
0.60148
0.501474
0.42513
0.341557
0.670478
0.753834
0.809896
0.811855
0.783556
0.712977
0.66308
0.610715
0.567496
0.530199
0.500142
0.474949
0.454272
0.436487
0.4215
0.409394
0.400607
0.394386
0.391546
0.392622
0.395945
0.40114
0.409574
0.420958
0.434865
0.450279
0.468939
0.486291
0.508611
0.528431
0.551949
0.571287
0.595515
0.612259
0.630657
0.638302
0.621891
0.523624
0.453302
0.372697
0.658108
0.740382
0.799986
0.809979
0.781456
0.715726
0.672141
0.626258
0.590896
0.557015
0.529309
0.505227
0.485007
0.467075
0.451502
0.439186
0.4299
0.423534
0.420602
0.421471
0.424246
0.428533
0.435921
0.446215
0.459064
0.473317
0.491077
0.507364
0.528939
0.548109
0.571006
0.589718
0.61347
0.629731
0.647663
0.655015
0.638537
0.543465
0.480117
0.403199
0.646377
0.729861
0.792233
0.810959
0.782356
0.723847
0.685321
0.642619
0.610785
0.579235
0.553547
0.530192
0.509516
0.491361
0.477496
0.465931
0.456447
0.45
0.446844
0.447576
0.450214
0.454364
0.461712
0.471987
0.484786
0.498731
0.516326
0.532184
0.553324
0.572153
0.594523
0.612713
0.635836
0.65153
0.668646
0.675461
0.658731
0.567044
0.508291
0.431455
0.64024
0.723162
0.783746
0.812694
0.786336
0.732239
0.699824
0.659688
0.63194
0.602196
0.577709
0.554476
0.534756
0.517168
0.501258
0.488272
0.478215
0.471134
0.467379
0.467653
0.469775
0.473352
0.480266
0.490226
0.502748
0.516208
0.533516
0.54891
0.569446
0.587936
0.609854
0.627622
0.650253
0.665491
0.682021
0.688348
0.671678
0.585187
0.533136
0.458724
0.639462
0.721262
0.779636
0.816973
0.793564
0.741899
0.712699
0.673863
0.647899
0.618769
0.594815
0.571553
0.550642
0.532574
0.517351
0.504684
0.494804
0.487719
0.484052
0.484588
0.486924
0.490596
0.49764
0.507803
0.520526
0.533854
0.551136
0.566164
0.586034
0.604137
0.625415
0.642628
0.664363
0.678869
0.694247
0.699603
0.682863
0.602945
0.556492
0.481548
0.635805
0.715189
0.772871
0.814763
0.793315
0.743813
0.717733
0.68035
0.656491
0.627962
0.604682
0.58211
0.562282
0.544755
0.530156
0.517955
0.508153
0.500906
0.49697
0.497181
0.498981
0.501939
0.508295
0.517832
0.529901
0.542312
0.558935
0.57305
0.591947
0.609422
0.630126
0.646946
0.668025
0.681902
0.696346
0.700843
0.68532
0.616037
0.577808
0.506107
0.631893
0.711332
0.759668
0.798061
0.778413
0.731485
0.708164
0.672674
0.650946
0.622991
0.600093
0.577929
0.558794
0.542024
0.52725
0.514949
0.505119
0.497883
0.493905
0.49375
0.494207
0.494885
0.498753
0.506066
0.51623
0.526513
0.542051
0.55479
0.573107
0.589937
0.609983
0.626465
0.647031
0.66077
0.675207
0.680859
0.67137
0.62328
0.598685
0.525889
0.678064
0.731276
0.739074
0.75445
0.733771
0.68925
0.667387
0.630623
0.608072
0.578197
0.552956
0.527279
0.503111
0.480117
0.459432
0.44115
0.425509
0.413006
0.404581
0.400749
0.397619
0.394889
0.396336
0.402457
0.412425
0.422672
0.439409
0.453144
0.472269
0.48998
0.511207
0.530332
0.55376
0.572455
0.593166
0.608935
0.619563
0.61805
0.653995
0.616075
1.4233
0.905024
0.742387
0.700519
0.676577
0.633475
0.606443
0.566797
0.536882
0.501412
0.469129
0.43718
0.407356
0.379296
0.353676
0.330519
0.309901
0.292633
0.280277
0.274186
0.270814
0.270035
0.275657
0.287415
0.303743
0.321031
0.344827
0.366335
0.392685
0.418111
0.445896
0.472318
0.500688
0.526292
0.551732
0.575147
0.597971
0.653058
0.849663
1.32073
2.49212
1.42901
0.656785
0.568195
0.538935
0.496436
0.461343
0.42111
0.383834
0.346173
0.309573
0.274307
0.240284
0.207406
0.175476
0.144469
0.114643
0.0873116
0.0664735
0.0598428
0.0677947
0.0863561
0.112778
0.142668
0.173861
0.205281
0.238211
0.270233
0.303297
0.335565
0.367479
0.398551
0.428043
0.456934
0.482021
0.509064
0.531759
0.618575
1.26719
2.44888
2.49212
1.42901
0.656785
0.568195
0.538935
0.496436
0.461343
0.42111
0.383834
0.346173
0.309573
0.274307
0.240284
0.207406
0.175476
0.144469
0.114643
0.0873116
0.0664735
0.0598428
0.0677947
0.0863561
0.112778
0.142668
0.173861
0.205281
0.238211
0.270233
0.303297
0.335565
0.367479
0.398551
0.428043
0.456934
0.482021
0.509064
0.531759
0.618575
1.26719
2.44888
1.4233
0.905024
0.742387
0.700519
0.676577
0.633475
0.606443
0.566797
0.536882
0.501412
0.469129
0.43718
0.407356
0.379296
0.353676
0.330519
0.309901
0.292633
0.280277
0.274186
0.270814
0.270035
0.275657
0.287415
0.303743
0.321031
0.344827
0.366335
0.392685
0.418111
0.445896
0.472318
0.500688
0.526292
0.551732
0.575147
0.597971
0.653058
0.849663
1.32073
0.678064
0.731276
0.739074
0.75445
0.733771
0.68925
0.667387
0.630623
0.608072
0.578197
0.552956
0.527279
0.503111
0.480117
0.459432
0.44115
0.425509
0.413006
0.404581
0.400749
0.397619
0.394889
0.396336
0.402457
0.412425
0.422672
0.439409
0.453144
0.472269
0.48998
0.511207
0.530332
0.55376
0.572455
0.593166
0.608935
0.619563
0.61805
0.653995
0.616075
0.631893
0.711332
0.759668
0.798061
0.778413
0.731485
0.708164
0.672674
0.650946
0.622991
0.600093
0.577929
0.558794
0.542024
0.52725
0.514949
0.505119
0.497883
0.493905
0.49375
0.494207
0.494885
0.498753
0.506066
0.51623
0.526513
0.542051
0.55479
0.573107
0.589937
0.609983
0.626465
0.647031
0.66077
0.675207
0.680859
0.67137
0.62328
0.598685
0.525889
0.635805
0.715189
0.772871
0.814763
0.793315
0.743813
0.717733
0.68035
0.656491
0.627962
0.604682
0.58211
0.562282
0.544755
0.530156
0.517955
0.508153
0.500906
0.49697
0.497181
0.498981
0.501939
0.508295
0.517832
0.529901
0.542312
0.558935
0.57305
0.591947
0.609422
0.630126
0.646946
0.668025
0.681902
0.696346
0.700843
0.68532
0.616037
0.577808
0.506107
0.639462
0.721262
0.779636
0.816973
0.793564
0.741899
0.712699
0.673863
0.647899
0.618769
0.594815
0.571553
0.550642
0.532574
0.517351
0.504684
0.494804
0.487719
0.484052
0.484588
0.486924
0.490596
0.49764
0.507803
0.520526
0.533854
0.551136
0.566164
0.586034
0.604137
0.625415
0.642628
0.664363
0.678869
0.694247
0.699603
0.682863
0.602945
0.556492
0.481548
0.64024
0.723162
0.783746
0.812694
0.786336
0.732239
0.699824
0.659688
0.63194
0.602196
0.577709
0.554476
0.534756
0.517168
0.501258
0.488272
0.478215
0.471134
0.467379
0.467653
0.469775
0.473352
0.480266
0.490226
0.502748
0.516208
0.533516
0.54891
0.569446
0.587936
0.609854
0.627622
0.650253
0.665491
0.682021
0.688348
0.671678
0.585187
0.533136
0.458724
0.646377
0.729861
0.792233
0.810959
0.782356
0.723847
0.685321
0.642619
0.610785
0.579235
0.553547
0.530192
0.509516
0.491361
0.477496
0.465931
0.456447
0.45
0.446844
0.447576
0.450214
0.454364
0.461712
0.471987
0.484786
0.498731
0.516326
0.532184
0.553324
0.572153
0.594523
0.612713
0.635836
0.65153
0.668646
0.675461
0.658731
0.567044
0.508291
0.431455
0.658108
0.740382
0.799986
0.809979
0.781456
0.715726
0.672141
0.626258
0.590896
0.557015
0.529309
0.505227
0.485007
0.467075
0.451502
0.439186
0.4299
0.423534
0.420602
0.421471
0.424246
0.428533
0.435921
0.446215
0.459064
0.473317
0.491077
0.507364
0.528939
0.548109
0.571006
0.589718
0.61347
0.629731
0.647663
0.655015
0.638537
0.543465
0.480117
0.403199
0.670478
0.753834
0.809896
0.811855
0.783556
0.712977
0.66308
0.610715
0.567496
0.530199
0.500142
0.474949
0.454272
0.436487
0.4215
0.409394
0.400607
0.394386
0.391546
0.392622
0.395945
0.40114
0.409574
0.420958
0.434865
0.450279
0.468939
0.486291
0.508611
0.528431
0.551949
0.571287
0.595515
0.612259
0.630657
0.638302
0.621891
0.523624
0.453302
0.372697
0.695753
0.778518
0.823013
0.813526
0.78337
0.714875
0.65966
0.601734
0.551387
0.507541
0.472974
0.445438
0.424131
0.406365
0.391546
0.379408
0.370014
0.363827
0.361041
0.36225
0.3659
0.37163
0.380641
0.392626
0.407128
0.423298
0.44255
0.460731
0.483621
0.504047
0.52814
0.548154
0.572915
0.590252
0.609296
0.617485
0.60148
0.501474
0.42513
0.341557
0.732946
0.813409
0.844441
0.820525
0.783271
0.721518
0.659818
0.597162
0.539294
0.486071
0.44338
0.412426
0.390133
0.37273
0.358516
0.346983
0.338011
0.332241
0.329567
0.33099
0.335195
0.341879
0.352034
0.365255
0.380985
0.398464
0.41876
0.43824
0.461903
0.483184
0.507918
0.528684
0.553854
0.571707
0.591128
0.599793
0.583878
0.481848
0.398198
0.309449
0.772575
0.84763
0.874305
0.836553
0.786158
0.732999
0.665504
0.600311
0.537971
0.476293
0.421703
0.382636
0.357056
0.339296
0.325544
0.314421
0.305677
0.299758
0.297334
0.298978
0.303711
0.311262
0.322412
0.336674
0.353422
0.371965
0.393064
0.413675
0.43795
0.46006
0.48538
0.506948
0.532527
0.550956
0.570832
0.580302
0.564444
0.460628
0.370009
0.276462
0.797619
0.864098
0.897394
0.860786
0.803014
0.746734
0.676382
0.607248
0.541602
0.473423
0.405338
0.352673
0.32132
0.302915
0.290096
0.279919
0.271811
0.266216
0.264254
0.266099
0.271541
0.280334
0.293015
0.308944
0.327374
0.347616
0.370072
0.39231
0.417582
0.440906
0.467026
0.489628
0.515647
0.534698
0.554859
0.565099
0.549992
0.443815
0.345391
0.243254
0.757499
0.799159
0.867918
0.869761
0.826915
0.765763
0.694778
0.620817
0.552885
0.481743
0.40453
0.333252
0.28898
0.266898
0.254462
0.245179
0.237657
0.23236
0.230404
0.232742
0.239008
0.249165
0.263468
0.281082
0.301133
0.322932
0.346609
0.370202
0.39623
0.420562
0.44722
0.47068
0.496867
0.516302
0.536417
0.547141
0.532514
0.423825
0.318082
0.209497
0.768082
0.682787
0.721867
0.785175
0.809335
0.784193
0.720369
0.640451
0.56671
0.493162
0.411623
0.32302
0.258375
0.229318
0.216728
0.20873
0.202223
0.197473
0.195935
0.198836
0.206169
0.218137
0.234609
0.254457
0.276635
0.300421
0.325686
0.351049
0.378096
0.403745
0.43119
0.455818
0.482368
0.502397
0.522513
0.533961
0.520581
0.410241
0.296433
0.17557
1.11644
1.02721
0.91292
0.783942
0.742423
0.758416
0.731925
0.673148
0.589981
0.509057
0.425504
0.327079
0.237513
0.194001
0.179019
0.171995
0.166584
0.162452
0.161428
0.164952
0.173758
0.188002
0.207078
0.229469
0.253936
0.279745
0.306556
0.333623
0.361535
0.388349
0.416386
0.442017
0.468652
0.488988
0.508709
0.520552
0.508068
0.395828
0.274314
0.141807
1.53262
1.51361
1.39753
1.15977
0.903751
0.790336
0.746854
0.687635
0.619678
0.529484
0.440128
0.336836
0.225746
0.161017
0.141256
0.134758
0.130605
0.127365
0.127073
0.131672
0.142524
0.15975
0.182005
0.207298
0.234231
0.262108
0.290462
0.319198
0.347933
0.375861
0.404454
0.431056
0.457729
0.478339
0.497686
0.509863
0.498684
0.385056
0.25645
0.108209
1.78384
1.78909
1.71565
1.56458
1.23941
0.98272
0.858691
0.745213
0.641902
0.546628
0.454712
0.348857
0.223172
0.133818
0.10531
0.0983333
0.0953046
0.0931819
0.0939465
0.100229
0.114033
0.135059
0.160915
0.189185
0.218466
0.248201
0.277888
0.308029
0.337429
0.366258
0.395261
0.422644
0.449223
0.469978
0.488867
0.501253
0.491492
0.376887
0.242448
0.074803
1.90978
1.92527
2.02811
1.94385
1.58347
1.16449
1.0035
0.849116
0.694716
0.56873
0.46536
0.357124
0.224408
0.114986
0.0741105
0.065171
0.0628612
0.0621369
0.0644728
0.0733698
0.0912159
0.116489
0.145758
0.176539
0.207651
0.238755
0.269388
0.300498
0.330338
0.359762
0.388999
0.416875
0.443271
0.464046
0.482547
0.494924
0.486272
0.37128
0.232846
0.0415285
)
;

boundaryField
{
    inlet
    {
        type            calculated;
        value           uniform 0;
    }
    outlet
    {
        type            calculated;
        value           nonuniform List<scalar> 
165
(
1.90978
1.78384
1.53262
1.11644
0.768082
0.757499
0.797619
0.772575
0.732946
0.695753
0.670478
0.658108
0.646377
0.64024
0.639462
0.635805
0.631893
0.678064
1.4233
2.49212
2.49212
1.42901
0.656785
0.568195
0.538935
0.496436
0.461343
0.42111
0.383834
0.346173
0.309573
0.274307
0.240284
0.207406
0.175476
0.144469
0.114643
0.0873116
0.0664735
0.0598428
0.0677947
0.0863561
0.112778
0.142668
0.173861
0.205281
0.238211
0.270233
0.303297
0.335565
0.367479
0.398551
0.428043
0.456934
0.482021
0.509064
0.531759
0.618575
1.26719
2.44888
0.0415285
0.074803
0.108209
0.141807
0.17557
0.209497
0.243254
0.276462
0.309449
0.341557
0.372697
0.403199
0.431455
0.458724
0.481548
0.506107
0.525889
0.616075
1.32073
2.44888
0.0209349
0.0117753
0.00434638
0.0117753
0.0209349
2.44888
1.32073
0.616075
0.525889
0.506107
0.481548
0.458724
0.431455
0.403199
0.372697
0.341557
0.309449
0.276462
0.243254
0.209497
0.17557
0.141807
0.108209
0.074803
0.0415285
2.49212
1.42901
0.656785
0.568195
0.538935
0.496436
0.461343
0.42111
0.383834
0.346173
0.309573
0.274307
0.240284
0.207406
0.175476
0.144469
0.114643
0.0873116
0.0664735
0.0598428
0.0677947
0.0863561
0.112778
0.142668
0.173861
0.205281
0.238211
0.270233
0.303297
0.335565
0.367479
0.398551
0.428043
0.456934
0.482021
0.509064
0.531759
0.618575
1.26719
2.44888
2.49212
1.4233
0.678064
0.631893
0.635805
0.639462
0.64024
0.646377
0.658108
0.670478
0.695753
0.732946
0.772575
0.797619
0.757499
0.768082
1.11644
1.53262
1.78384
1.90978
)
;
    }
    obstacle
    {
        type            calculated;
        value           nonuniform List<scalar> 
40
(
0.716229
0.0581232
0.0964927
0.0927589
0.0933256
0.0931936
0.09361
0.094581
0.0961873
0.0893884
0.716229
0.0581232
0.0964927
0.0927589
0.0933256
0.0931936
0.09361
0.094581
0.0961873
0.0893884
0.0981454
0.137344
0.191989
0.280049
0.426478
0.0981454
0.137344
0.191989
0.280049
0.426478
0.939127
1.33254
1.60572
1.89022
2.00112
0.939127
1.33254
1.60572
1.89022
2.00112
)
;
    }
    empty
    {
        type            empty;
    }
}


// ************************************************************************* //
