/*--------------------------------*- C++ -*----------------------------------*\
| =========                 |                                                 |
| \\      /  F ield         | OpenFOAM: The Open Source CFD Toolbox           |
|  \\    /   O peration     | Version:  v1912                                 |
|   \\  /    A nd           | Website:  www.openfoam.com                      |
|    \\/     M anipulation  |                                                 |
\*---------------------------------------------------------------------------*/
FoamFile
{
    version     2.0;
    format      ascii;
    class       volTensorField;
    location    "3.92";
    object      grad(U);
}
// * * * * * * * * * * * * * * * * * * * * * * * * * * * * * * * * * * * * * //

dimensions      [0 0 -1 0 0 0 0];


internalField   nonuniform List<tensor> 
1900
(
(-4.18057 1.30491e-05 0 -4.01206e-05 5.54381e-06 0 0 0 0)
(3.1838 2.25215e-05 0 -7.55981e-05 1.57518e-05 0 0 0 0)
(0.0774672 5.80201e-05 0 -0.000109249 -1.58415e-06 0 0 0 0)
(0.00393437 0.00059318 0 -0.000103003 7.8529e-05 0 0 0 0)
(0.0478254 0.00142651 0 0.000262896 0.00108378 0 0 0 0)
(0.0752704 0.00271291 0 0.0015136 0.00290473 0 0 0 0)
(0.0894766 0.00450579 0 0.00412413 0.00660211 0 0 0 0)
(0.0987146 -0.0158464 0 0.0101772 0.0113861 0 0 0 0)
(0.131477 -0.0432043 0 0.0132184 -0.0206396 0 0 0 0)
(0.128691 -0.0962339 0 -0.00807077 -0.056096 0 0 0 0)
(-4.18068 8.24647e-06 0 -4.89373e-05 -4.81033e-06 0 0 0 0)
(3.18373 -2.96495e-05 0 -0.000107089 -8.23881e-06 0 0 0 0)
(0.0774398 4.75708e-06 0 -0.000108829 -2.73319e-05 0 0 0 0)
(0.00430651 0.000492187 0 4.30765e-06 -6.62589e-05 0 0 0 0)
(0.049442 0.00139969 0 0.000851497 -0.000620512 0 0 0 0)
(0.0791316 0.00280542 0 0.00306492 -0.00149277 0 0 0 0)
(0.0981402 0.00397557 0 0.00691557 -0.00333342 0 0 0 0)
(0.107809 -0.0113953 0 0.0140401 -0.00599855 0 0 0 0)
(0.113229 -0.0242778 0 0.0120026 0.012513 0 0 0 0)
(0.0841734 -0.0520113 0 -0.0234965 0.0372058 0 0 0 0)
(-4.18072 1.93971e-14 0 4.66207e-14 -1.46697e-06 0 0 0 0)
(3.18374 4.3575e-14 0 -2.11555e-13 -1.5026e-05 0 0 0 0)
(0.0775786 -1.06394e-13 0 1.79978e-13 5.7832e-05 0 0 0 0)
(0.00489469 2.09402e-14 0 7.5081e-14 -2.45401e-05 0 0 0 0)
(0.050886 6.96881e-14 0 -1.36881e-14 -0.000926543 0 0 0 0)
(0.0813344 9.83726e-16 0 -6.76271e-14 -0.00282392 0 0 0 0)
(0.100452 -4.40345e-14 0 -1.30104e-13 -0.00653738 0 0 0 0)
(0.103802 -1.37829e-13 0 -1.14519e-13 -0.0107751 0 0 0 0)
(0.0939408 -9.94263e-14 0 -7.92823e-15 0.0162532 0 0 0 0)
(0.0684647 9.05143e-14 0 8.10441e-14 0.0377805 0 0 0 0)
(-4.18068 -8.24647e-06 0 4.89373e-05 -4.81033e-06 0 0 0 0)
(3.18373 2.96495e-05 0 0.000107089 -8.23881e-06 0 0 0 0)
(0.0774398 -4.75708e-06 0 0.000108829 -2.73319e-05 0 0 0 0)
(0.00430651 -0.000492187 0 -4.30765e-06 -6.62589e-05 0 0 0 0)
(0.049442 -0.00139969 0 -0.000851497 -0.000620512 0 0 0 0)
(0.0791316 -0.00280542 0 -0.00306492 -0.00149277 0 0 0 0)
(0.0981402 -0.00397557 0 -0.00691557 -0.00333342 0 0 0 0)
(0.107809 0.0113953 0 -0.0140401 -0.00599855 0 0 0 0)
(0.113229 0.0242778 0 -0.0120026 0.012513 0 0 0 0)
(0.0841734 0.0520113 0 0.0234965 0.0372058 0 0 0 0)
(-4.18057 -1.30491e-05 0 4.01206e-05 5.54381e-06 0 0 0 0)
(3.1838 -2.25215e-05 0 7.55981e-05 1.57518e-05 0 0 0 0)
(0.0774672 -5.80201e-05 0 0.000109249 -1.58415e-06 0 0 0 0)
(0.00393437 -0.00059318 0 0.000103003 7.8529e-05 0 0 0 0)
(0.0478254 -0.00142651 0 -0.000262896 0.00108378 0 0 0 0)
(0.0752704 -0.00271291 0 -0.0015136 0.00290473 0 0 0 0)
(0.0894766 -0.00450579 0 -0.00412413 0.00660211 0 0 0 0)
(0.0987146 0.0158464 0 -0.0101772 0.0113861 0 0 0 0)
(0.131477 0.0432043 0 -0.0132184 -0.0206396 0 0 0 0)
(0.128691 0.0962339 0 0.00807077 -0.056096 0 0 0 0)
(0.0635146 -0.122712 2.09307e-18 -0.0403352 0.0633386 -3.1396e-18 -2.63507e-17 -2.57193e-17 5.67327e-34)
(0.0178265 -0.056027 0 -0.0368988 0.0633065 0 4.14888e-17 1.97169e-17 0)
(0.0317945 -0.050623 0 -0.059508 0.0474814 0 5.33587e-17 2.76981e-17 0)
(-0.198218 -0.00893658 0 -0.171659 0.0038221 0 0 0 0)
(-0.103232 -0.218218 -5.61247e-17 -0.687698 0.606886 8.41871e-17 3.68139e-16 2.45426e-16 1.52126e-32)
(0.0357769 -0.0843621 0 -0.0468082 0.101975 0 -3.36392e-17 -1.4274e-17 0)
(-0.00481981 -0.0691704 0 -0.0616705 0.137881 0 -4.14888e-17 -1.97169e-17 0)
(-0.066947 -0.0941405 0 -0.133298 0.184968 0 -5.33587e-17 -2.76981e-17 0)
(-0.263296 -0.0854484 0 -0.352023 0.28905 0 0 0 0)
(-0.226287 0.0269716 0 -0.519879 0.446149 0 0 0 0)
(0.0170301 5.18223e-14 0 2.98917e-14 0.112021 0 0 0 0)
(-0.0484591 2.11117e-13 0 1.01124e-13 0.160692 0 0 0 0)
(-0.146308 6.31157e-15 0 4.42434e-13 0.243193 0 0 0 0)
(-0.3448 -1.78065e-13 0 2.57447e-13 0.4243 0 0 0 0)
(-0.30088 1.39983e-13 0 2.36363e-13 0.610313 0 0 0 0)
(0.0357769 0.0843621 0 0.0468082 0.101975 0 -3.36392e-17 1.4274e-17 0)
(-0.00481981 0.0691704 0 0.0616705 0.137881 0 -4.14888e-17 1.97169e-17 0)
(-0.066947 0.0941405 0 0.133298 0.184968 0 -5.33587e-17 2.76981e-17 0)
(-0.263296 0.0854484 0 0.352023 0.28905 0 0 0 0)
(-0.226287 -0.0269716 0 0.519879 0.446149 0 0 0 0)
(0.0635146 0.122712 -2.09307e-18 0.0403352 0.0633386 -3.1396e-18 9.36291e-17 -5.42672e-17 5.67327e-34)
(0.0178265 0.056027 0 0.0368988 0.0633065 0 4.14888e-17 -1.97169e-17 0)
(0.0317945 0.050623 0 0.059508 0.0474814 0 5.33587e-17 -2.76981e-17 0)
(-0.198218 0.00893658 8.80345e-18 0.171659 0.0038221 1.32052e-17 1.36886e-16 -9.12576e-17 -2.38618e-33)
(-0.103232 0.218218 5.61247e-17 0.687698 0.606886 8.41871e-17 -3.68139e-16 2.45426e-16 1.52126e-32)
(0.150328 0.144538 8.66543e-19 -0.131353 -0.244527 7.79889e-18 -2.48911e-16 1.98528e-17 -2.34877e-34)
(0.422474 -0.00274821 -1.27496e-20 -0.111706 -0.0229736 -1.14746e-19 9.23709e-17 -9.19774e-18 -3.45578e-36)
(0.283652 0.0805348 0 -0.0490993 0.0617003 0 0 0 0)
(0.112682 0.237497 -1.75973e-18 0.325755 0.484468 -1.58375e-17 2.97371e-17 1.23765e-17 4.76974e-34)
(-0.537627 0.0788904 3.23026e-18 1.3567 1.17774 2.90723e-17 -1.29726e-18 1.44139e-19 8.75563e-34)
(0.242374 0.118314 0 -0.183938 -0.0964531 0 1.26433e-16 -6.24424e-18 0)
(0.427436 -0.016971 0 -0.173918 -0.0801892 0 -4.78676e-17 4.25293e-18 0)
(0.420052 0.0593526 0 -0.0777619 -0.0676231 0 0 0 0)
(0.669231 0.278579 0 0.436874 -0.244557 0 -2.80067e-17 -1.50131e-17 0)
(1.18596 0.202514 0 1.85798 -0.480268 0 2.45282e-17 5.21533e-18 0)
(0.27541 2.79848e-13 0 1.6222e-13 -0.221763 0 0 0 0)
(0.447711 1.23267e-13 0 9.68369e-13 -0.122051 0 0 0 0)
(0.508324 -7.25002e-15 0 2.8087e-12 -0.0752605 0 0 0 0)
(0.923078 -3.41319e-13 0 3.29756e-12 -0.406306 0 1.64656e-17 1.90662e-29 0)
(1.55072 -6.43912e-13 0 2.61381e-12 -1.38537 0 -4.90564e-17 5.46571e-30 0)
(0.242374 -0.118314 0 0.183938 -0.0964531 0 1.26433e-16 6.24424e-18 0)
(0.427436 0.016971 0 0.173918 -0.0801892 0 -4.78676e-17 -4.25293e-18 0)
(0.420052 -0.0593526 0 0.0777619 -0.0676231 0 0 0 0)
(0.669231 -0.278579 0 -0.436874 -0.244557 0 -2.80067e-17 1.50131e-17 0)
(1.18596 -0.202514 0 -1.85798 -0.480268 0 2.45282e-17 -5.21533e-18 0)
(0.150328 -0.144538 0 0.131353 -0.244527 0 -1.26433e-16 -6.24424e-18 0)
(0.422474 0.00274821 1.27496e-20 0.111706 -0.0229736 -1.14746e-19 3.36422e-18 -6.91888e-19 -3.45578e-36)
(0.283652 -0.0805348 0 0.0490993 0.0617003 0 0 0 0)
(0.112682 -0.237497 1.75973e-18 -0.325755 0.484468 -1.58375e-17 9.81069e-18 -1.45906e-17 4.76974e-34)
(-0.537627 -0.0788904 -3.23026e-18 -1.3567 1.17774 2.90723e-17 1.29726e-18 1.44139e-19 8.75563e-34)
(0.449315 -0.706661 0 9.0355 0.348574 0 0 0 0)
(0.677843 -0.751883 0 5.94053 0.840983 0 0 0 0)
(-0.992985 -0.0352723 0 3.79098 1.30592 0 0 0 0)
(-1.05094 0.436339 0 1.45436 1.24665 0 0 0 0)
(-0.648421 0.418945 0 0.34033 0.846661 0 0 0 0)
(-0.425949 0.174248 0 0.0745695 0.551383 0 0 0 0)
(-0.301604 0.0492433 0 0.0460349 0.438492 0 0 0 0)
(-0.132172 0.0206407 0 0.0146468 0.393109 0 0 0 0)
(0.0367447 0.0127393 0 0.00773447 0.366405 0 0 0 0)
(0.12284 0.00606466 0 0.0013726 0.351935 0 0 0 0)
(0.172139 0.00351063 0 -0.000452463 0.344986 0 0 0 0)
(0.208128 0.00219723 0 -0.00123225 0.340663 0 0 0 0)
(0.235191 0.00161341 0 -0.0018566 0.337339 0 0 0 0)
(0.255953 0.00112868 0 -0.00197282 0.335128 0 0 0 0)
(0.271543 0.000879632 0 -0.00180443 0.333418 0 0 0 0)
(0.283821 0.000726011 0 -0.00150201 0.332031 0 0 0 0)
(0.293658 0.000601935 0 -0.0011529 0.330857 0 0 0 0)
(0.301719 0.000549056 0 -0.000791766 0.329911 0 0 0 0)
(0.307697 -5.63104e-05 0 -0.000418774 0.328937 0 0 0 0)
(0.311478 -0.000187301 0 -2.09987e-05 0.330095 0 0 0 0)
(0.314769 0.000638587 0 0.000404339 0.329583 0 0 0 0)
(0.317347 0.000395163 0 0.000837263 0.327898 0 0 0 0)
(0.3179 -0.000138436 0 0.00125297 0.328224 0 0 0 0)
(0.317171 -0.00010563 0 0.00165385 0.328382 0 0 0 0)
(0.315373 -0.000133397 0 0.0020164 0.328602 0 0 0 0)
(0.311763 -0.000164005 0 0.00232583 0.328859 0 0 0 0)
(0.305906 -0.00020182 0 0.00256162 0.329185 0 0 0 0)
(0.297355 -0.000257219 0 0.00269942 0.32957 0 0 0 0)
(0.286008 -0.000253723 0 0.00272633 0.330094 0 0 0 0)
(0.271728 -0.000391312 0 0.00261764 0.330445 0 0 0 0)
(0.25386 -4.25814e-06 0 0.0023572 0.331512 0 0 0 0)
(0.230529 -0.000463832 0 0.0020616 0.330474 0 0 0 0)
(0.1993 0.000730248 0 0.000957978 0.333212 0 0 0 0)
(0.16271 -0.00046129 0 0.000338367 0.328249 0 0 0 0)
(0.125179 0.000392524 0 -0.00276622 0.334538 0 0 0 0)
(0.099019 -0.000783579 0 -0.00539753 0.327415 0 0 0 0)
(0.0759212 -0.000999488 0 -0.00804072 0.337257 0 0 0 0)
(-0.00832246 -0.00775797 0 -0.0143763 0.329381 0 0 0 0)
(2.17919 -0.0152032 0 -0.00319841 0.377451 0 0 0 0)
(2.21761 -0.00533244 0 -0.0396032 0.398835 0 0 0 0)
(1.37326 -0.517946 0 6.02163 -0.0492277 0 0 0 0)
(-0.0527282 -0.667679 0 4.66057 1.88447 0 0 0 0)
(-1.79097 -0.0177266 0 3.25222 2.53537 0 0 0 0)
(-1.66837 0.32079 0 1.2529 2.00572 0 0 0 0)
(-0.894491 0.261747 0 0.172655 1.03545 0 0 0 0)
(-0.466252 0.0962688 0 -0.0408107 0.565594 0 0 0 0)
(-0.304777 0.0241434 0 -0.0349195 0.436475 0 0 0 0)
(-0.133817 0.00989071 0 -0.0386615 0.39632 0 0 0 0)
(0.0370391 0.00633489 0 -0.0290995 0.365522 0 0 0 0)
(0.122891 0.00273791 0 -0.0265994 0.352529 0 0 0 0)
(0.172642 0.00178945 0 -0.0238844 0.344675 0 0 0 0)
(0.20877 0.00108787 0 -0.0206964 0.340461 0 0 0 0)
(0.235885 0.000798777 0 -0.0178229 0.337122 0 0 0 0)
(0.256717 0.000561667 0 -0.0150632 0.334915 0 0 0 0)
(0.272346 0.000439928 0 -0.0124386 0.333242 0 0 0 0)
(0.284643 0.000363917 0 -0.00993751 0.331891 0 0 0 0)
(0.294484 0.000301357 0 -0.00755491 0.330747 0 0 0 0)
(0.302544 0.000274225 0 -0.00527707 0.329822 0 0 0 0)
(0.30852 -2.88239e-05 0 -0.00307854 0.328859 0 0 0 0)
(0.3123 -9.48447e-05 0 -0.000926914 0.330016 0 0 0 0)
(0.315588 0.000317083 0 0.00120748 0.329503 0 0 0 0)
(0.318158 0.000194484 0 0.00334263 0.327821 0 0 0 0)
(0.318698 -7.32181e-05 0 0.00549343 0.328145 0 0 0 0)
(0.317951 -5.7811e-05 0 0.00768138 0.328296 0 0 0 0)
(0.316128 -7.23246e-05 0 0.00992049 0.328508 0 0 0 0)
(0.31249 -8.76117e-05 0 0.0122344 0.328755 0 0 0 0)
(0.3066 -0.000105333 0 0.0146549 0.329072 0 0 0 0)
(0.29801 -0.000129886 0 0.0172267 0.329449 0 0 0 0)
(0.286615 -0.000122836 0 0.020011 0.329956 0 0 0 0)
(0.272275 -0.000180247 0 0.0230788 0.330321 0 0 0 0)
(0.254347 3.0717e-05 0 0.0265052 0.331301 0 0 0 0)
(0.230867 -0.000165257 0 0.030484 0.330336 0 0 0 0)
(0.199525 0.00044758 0 0.034839 0.332895 0 0 0 0)
(0.162656 -8.93524e-05 0 0.0398003 0.327825 0 0 0 0)
(0.12481 0.000342186 0 0.0453958 0.334481 0 0 0 0)
(0.0987612 -0.0002211 0 0.0503816 0.326476 0 0 0 0)
(0.075334 -0.000357972 0 0.0577414 0.337175 0 0 0 0)
(-0.00740663 -0.00452115 0 0.0599554 0.329912 0 0 0 0)
(2.1756 0.00127421 0 0.0599239 0.363843 0 0 0 0)
(2.21258 0.00686431 0 0.0672062 0.382173 0 0 0 0)
(1.56064 -4.78927e-13 0 1.56125e-12 -1.29196 0 0 0 0)
(-0.127802 1.51602e-13 0 2.97663e-13 2.23953 0 0 0 0)
(-1.98431 1.04256e-12 0 -9.6494e-13 3.29833 0 0 0 0)
(-1.94682 -1.82069e-12 0 5.07234e-13 2.36141 0 0 0 0)
(-1.02477 -5.25343e-12 0 -5.85075e-12 1.0929 0 0 0 0)
(-0.486334 -4.99904e-12 0 -2.38377e-11 0.561895 0 0 0 0)
(-0.300978 -5.1037e-12 0 -5.39943e-11 0.431055 0 0 0 0)
(-0.130479 -8.47695e-12 0 -7.66649e-11 0.395909 0 0 0 0)
(0.0402537 3.83421e-12 0 -9.6977e-11 0.363057 0 0 0 0)
(0.124357 1.49933e-11 0 -8.38561e-11 0.352357 0 0 0 0)
(0.173856 6.36598e-12 0 -6.51182e-11 0.344234 0 0 0 0)
(0.209891 -1.40422e-12 0 -4.54261e-11 0.340054 0 0 0 0)
(0.23683 -3.13836e-12 0 -4.78311e-11 0.336754 0 0 0 0)
(0.25752 6.67471e-12 0 -8.58718e-11 0.334563 0 0 0 0)
(0.273034 3.1022e-11 0 -1.4676e-10 0.332893 0 0 0 0)
(0.285242 4.92204e-11 0 -1.89955e-10 0.331538 0 0 0 0)
(0.295014 6.07881e-12 0 -1.75491e-10 0.330391 0 0 0 0)
(0.303021 -1.02065e-10 0 -1.10488e-10 0.329466 0 0 0 0)
(0.308963 -9.29886e-11 0 -3.97072e-11 0.328506 0 0 0 0)
(0.312725 5.72196e-11 0 1.15362e-11 0.329665 0 0 0 0)
(0.316011 1.19318e-10 0 5.0133e-11 0.329158 0 0 0 0)
(0.318594 -4.15636e-11 0 8.42248e-11 0.327485 0 0 0 0)
(0.319163 -1.89609e-10 0 7.94972e-11 0.327821 0 0 0 0)
(0.318459 -6.32979e-11 0 1.15684e-11 0.327988 0 0 0 0)
(0.316697 1.24675e-10 0 -5.73454e-11 0.328218 0 0 0 0)
(0.313141 1.48897e-10 0 -7.44137e-11 0.328485 0 0 0 0)
(0.307359 6.77464e-11 0 -8.78963e-11 0.328821 0 0 0 0)
(0.298913 -2.50918e-11 0 -1.84146e-10 0.329209 0 0 0 0)
(0.28771 -3.80904e-11 0 -3.84363e-10 0.329713 0 0 0 0)
(0.273617 -2.84845e-11 0 -6.12452e-10 0.330054 0 0 0 0)
(0.256014 -9.47633e-14 0 -7.60726e-10 0.330953 0 0 0 0)
(0.232953 1.70992e-11 0 -7.53763e-10 0.329843 0 0 0 0)
(0.20201 -3.80014e-11 0 -6.03711e-10 0.332089 0 0 0 0)
(0.165781 5.51913e-11 0 -4.28463e-10 0.326766 0 0 0 0)
(0.128257 1.21855e-11 0 -1.52957e-10 0.332703 0 0 0 0)
(0.10261 -1.26753e-10 0 -6.61048e-11 0.324413 0 0 0 0)
(0.0787063 -1.53103e-11 0 -1.95911e-10 0.334223 0 0 0 0)
(-0.00768755 1.15915e-10 0 -2.96949e-10 0.326874 0 0 0 0)
(2.1813 3.51152e-11 0 -7.91152e-11 0.365306 0 0 0 0)
(2.21973 -4.18386e-11 0 8.22732e-11 0.318114 0 0 0 0)
(1.37326 0.517946 0 -6.02163 -0.0492277 0 0 0 0)
(-0.0527282 0.667679 0 -4.66057 1.88447 0 0 0 0)
(-1.79097 0.0177266 0 -3.25222 2.53537 0 0 0 0)
(-1.66837 -0.32079 0 -1.2529 2.00572 0 0 0 0)
(-0.894491 -0.261747 0 -0.172655 1.03545 0 0 0 0)
(-0.466252 -0.0962688 0 0.0408107 0.565594 0 0 0 0)
(-0.304777 -0.0241434 0 0.0349195 0.436475 0 0 0 0)
(-0.133817 -0.00989071 0 0.0386615 0.39632 0 0 0 0)
(0.0370391 -0.00633489 0 0.0290995 0.365522 0 0 0 0)
(0.122891 -0.00273791 0 0.0265994 0.352529 0 0 0 0)
(0.172642 -0.00178945 0 0.0238844 0.344675 0 0 0 0)
(0.20877 -0.00108787 0 0.0206964 0.340461 0 0 0 0)
(0.235885 -0.000798777 0 0.0178229 0.337122 0 0 0 0)
(0.256717 -0.000561667 0 0.0150632 0.334915 0 0 0 0)
(0.272346 -0.000439928 0 0.0124386 0.333242 0 0 0 0)
(0.284643 -0.000363916 0 0.00993751 0.331891 0 0 0 0)
(0.294484 -0.000301357 0 0.00755491 0.330747 0 0 0 0)
(0.302544 -0.000274225 0 0.00527707 0.329822 0 0 0 0)
(0.30852 2.88237e-05 0 0.00307854 0.328859 0 0 0 0)
(0.3123 9.48448e-05 0 0.000926914 0.330016 0 0 0 0)
(0.315588 -0.000317083 0 -0.00120748 0.329503 0 0 0 0)
(0.318158 -0.000194484 0 -0.00334263 0.327821 0 0 0 0)
(0.318698 7.32177e-05 0 -0.00549343 0.328145 0 0 0 0)
(0.317951 5.78109e-05 0 -0.00768138 0.328296 0 0 0 0)
(0.316128 7.23248e-05 0 -0.00992049 0.328508 0 0 0 0)
(0.31249 8.7612e-05 0 -0.0122344 0.328755 0 0 0 0)
(0.3066 0.000105333 0 -0.0146549 0.329072 0 0 0 0)
(0.29801 0.000129886 0 -0.0172267 0.329449 0 0 0 0)
(0.286615 0.000122836 0 -0.020011 0.329956 0 0 0 0)
(0.272275 0.000180247 0 -0.0230788 0.330321 0 0 0 0)
(0.254347 -3.07171e-05 0 -0.0265052 0.331301 0 0 0 0)
(0.230867 0.000165257 0 -0.030484 0.330336 0 0 0 0)
(0.199525 -0.00044758 0 -0.034839 0.332895 0 0 0 0)
(0.162656 8.93525e-05 0 -0.0398003 0.327825 0 0 0 0)
(0.12481 -0.000342185 0 -0.0453958 0.334481 0 0 0 0)
(0.0987612 0.0002211 0 -0.0503816 0.326476 0 0 0 0)
(0.075334 0.000357972 0 -0.0577414 0.337175 0 0 0 0)
(-0.00740663 0.00452116 0 -0.0599554 0.329912 0 0 0 0)
(2.1756 -0.00127421 0 -0.0599239 0.363843 0 0 0 0)
(2.21258 -0.00686431 0 -0.0672062 0.382173 0 0 0 0)
(0.449315 0.706661 0 -9.0355 0.348574 0 0 0 0)
(0.677843 0.751883 0 -5.94053 0.840983 0 0 0 0)
(-0.992985 0.0352723 0 -3.79098 1.30592 0 0 0 0)
(-1.05094 -0.436339 0 -1.45436 1.24665 0 0 0 0)
(-0.648421 -0.418945 0 -0.34033 0.846661 0 0 0 0)
(-0.425949 -0.174248 0 -0.0745695 0.551383 0 0 0 0)
(-0.301604 -0.0492433 0 -0.0460349 0.438492 0 0 0 0)
(-0.132172 -0.0206407 0 -0.0146468 0.393109 0 0 0 0)
(0.0367447 -0.0127393 0 -0.00773447 0.366405 0 0 0 0)
(0.12284 -0.00606466 0 -0.0013726 0.351935 0 0 0 0)
(0.172139 -0.00351063 0 0.000452463 0.344986 0 0 0 0)
(0.208128 -0.00219723 0 0.00123225 0.340663 0 0 0 0)
(0.235191 -0.00161341 0 0.0018566 0.337339 0 0 0 0)
(0.255953 -0.00112868 0 0.00197282 0.335128 0 0 0 0)
(0.271543 -0.000879632 0 0.00180443 0.333418 0 0 0 0)
(0.283821 -0.000726011 0 0.00150201 0.332031 0 0 0 0)
(0.293658 -0.000601935 0 0.0011529 0.330857 0 0 0 0)
(0.301719 -0.000549057 0 0.000791766 0.329911 0 0 0 0)
(0.307697 5.63102e-05 0 0.000418774 0.328937 0 0 0 0)
(0.311478 0.000187301 0 2.09985e-05 0.330095 0 0 0 0)
(0.314769 -0.000638587 0 -0.000404339 0.329583 0 0 0 0)
(0.317347 -0.000395163 0 -0.000837264 0.327898 0 0 0 0)
(0.3179 0.000138436 0 -0.00125297 0.328224 0 0 0 0)
(0.317171 0.00010563 0 -0.00165385 0.328382 0 0 0 0)
(0.315373 0.000133397 0 -0.0020164 0.328602 0 0 0 0)
(0.311763 0.000164005 0 -0.00232583 0.328859 0 0 0 0)
(0.305906 0.00020182 0 -0.00256162 0.329185 0 0 0 0)
(0.297355 0.000257219 0 -0.00269942 0.32957 0 0 0 0)
(0.286008 0.000253723 0 -0.00272632 0.330094 0 0 0 0)
(0.271728 0.000391312 0 -0.00261764 0.330445 0 0 0 0)
(0.25386 4.25811e-06 0 -0.0023572 0.331512 0 0 0 0)
(0.230529 0.000463832 0 -0.0020616 0.330474 0 0 0 0)
(0.1993 -0.000730248 0 -0.000957977 0.333212 0 0 0 0)
(0.16271 0.00046129 0 -0.000338365 0.328249 0 0 0 0)
(0.125179 -0.000392524 0 0.00276622 0.334538 0 0 0 0)
(0.099019 0.000783579 0 0.00539753 0.327415 0 0 0 0)
(0.0759212 0.000999488 0 0.00804072 0.337257 0 0 0 0)
(-0.00832246 0.00775797 0 0.0143763 0.329381 0 0 0 0)
(2.17919 0.0152032 0 0.00319841 0.377451 0 0 0 0)
(2.21761 0.00533244 0 0.0396032 0.398835 0 0 0 0)
(2.22375 0.766053 0 -5.17062 0.0310786 0 0 0 0)
(2.39229 1.17084 0 -3.35177 0.515676 0 0 0 0)
(0.100406 0.251901 0 -2.29845 0.677582 0 0 0 0)
(-0.217768 -0.475267 0 -0.999761 0.647871 0 0 0 0)
(-0.313507 -0.516106 0 -0.44645 0.599135 0 0 0 0)
(-0.32825 -0.262139 0 -0.190094 0.504776 0 0 0 0)
(-0.270859 -0.0944026 0 -0.119489 0.426923 0 0 0 0)
(-0.111695 -0.042679 0 -0.0587949 0.382808 0 0 0 0)
(0.0457061 -0.0247569 0 -0.0317802 0.361356 0 0 0 0)
(0.128086 -0.0123269 0 -0.0215613 0.349613 0 0 0 0)
(0.174858 -0.00687023 0 -0.0170215 0.343746 0 0 0 0)
(0.210394 -0.0046018 0 -0.0138079 0.339386 0 0 0 0)
(0.23715 -0.00332854 0 -0.0109842 0.336306 0 0 0 0)
(0.257568 -0.00236611 0 -0.00897999 0.334189 0 0 0 0)
(0.272979 -0.00187432 0 -0.00742047 0.332472 0 0 0 0)
(0.285184 -0.00155159 0 -0.00604566 0.331069 0 0 0 0)
(0.294994 -0.00128366 0 -0.00473019 0.329886 0 0 0 0)
(0.303037 -0.00116052 0 -0.00343797 0.328941 0 0 0 0)
(0.308989 0.000112443 0 -0.002181 0.327983 0 0 0 0)
(0.312735 0.000392823 0 -0.000982961 0.329168 0 0 0 0)
(0.315997 -0.00132367 0 0.000148463 0.328675 0 0 0 0)
(0.318563 -0.000814604 0 0.0012323 0.326997 0 0 0 0)
(0.319108 0.000301785 0 0.00230361 0.327338 0 0 0 0)
(0.318373 0.000239217 0 0.00333841 0.327517 0 0 0 0)
(0.316581 0.00030057 0 0.00435799 0.327759 0 0 0 0)
(0.312989 0.00036517 0 0.00536667 0.32804 0 0 0 0)
(0.307167 0.000440023 0 0.0063752 0.328384 0 0 0 0)
(0.298664 0.00055261 0 0.00739345 0.328772 0 0 0 0)
(0.287369 0.000520396 0 0.00840944 0.329302 0 0 0 0)
(0.273139 0.000826078 0 0.00938934 0.329583 0 0 0 0)
(0.255258 -5.30852e-05 0 0.0102995 0.33075 0 0 0 0)
(0.232136 0.000886592 0 0.0107751 0.329406 0 0 0 0)
(0.200866 -0.00151615 0 0.0120373 0.332252 0 0 0 0)
(0.164931 0.000490543 0 0.0120628 0.32734 0 0 0 0)
(0.127982 -0.000807345 0 0.0148911 0.332395 0 0 0 0)
(0.101772 0.00127675 0 0.0164798 0.326951 0 0 0 0)
(0.0802873 0.000849272 0 0.0186113 0.334452 0 0 0 0)
(-0.00938515 0.0259908 0 0.0256038 0.327251 0 0 0 0)
(2.18728 0.0232405 0 0.0133063 0.398488 0 0 0 0)
(2.2296 -0.007553 0 -0.00523835 0.362218 0 0 0 0)
(2.13069 0.92037 0 -1.04481 0.445523 0 0 0 0)
(2.52623 1.15022 0 -1.33794 0.499383 0 0 0 0)
(0.68718 0.0464974 0 -1.07808 0.316585 0 0 0 0)
(0.286937 -0.49106 0 -0.649005 0.293759 0 0 0 0)
(-0.0477878 -0.504736 0 -0.428166 0.38266 0 0 0 0)
(-0.163267 -0.293068 0 -0.247847 0.427465 0 0 0 0)
(-0.191565 -0.14256 0 -0.144468 0.401078 0 0 0 0)
(-0.0586331 -0.0720063 0 -0.0617885 0.369135 0 0 0 0)
(0.0678191 -0.0382832 0 -0.026369 0.355614 0 0 0 0)
(0.134248 -0.0196763 0 -0.0165224 0.346964 0 0 0 0)
(0.178152 -0.011564 0 -0.0109901 0.342205 0 0 0 0)
(0.212731 -0.008077 0 -0.00772198 0.337957 0 0 0 0)
(0.238793 -0.00570192 0 -0.00530034 0.335159 0 0 0 0)
(0.258522 -0.00415989 0 -0.00396425 0.333121 0 0 0 0)
(0.273601 -0.00335248 0 -0.00316531 0.33138 0 0 0 0)
(0.285683 -0.00277525 0 -0.00257934 0.329974 0 0 0 0)
(0.295455 -0.002287 0 -0.00206475 0.3288 0 0 0 0)
(0.303468 -0.0020552 0 -0.00158289 0.327877 0 0 0 0)
(0.30937 0.000244497 0 -0.0011471 0.326954 0 0 0 0)
(0.313048 0.000743889 0 -0.000789854 0.328189 0 0 0 0)
(0.316245 -0.00236255 0 -0.000522211 0.327718 0 0 0 0)
(0.318772 -0.00145838 0 -0.000318759 0.326034 0 0 0 0)
(0.319282 0.000551525 0 -0.000125176 0.326376 0 0 0 0)
(0.318506 0.000440194 0 1.39826e-05 0.326563 0 0 0 0)
(0.316679 0.000547578 0 0.000130693 0.326816 0 0 0 0)
(0.31305 0.000657905 0 0.000215621 0.327106 0 0 0 0)
(0.307184 0.000779653 0 0.000271257 0.327458 0 0 0 0)
(0.298613 0.00098403 0 0.000301763 0.327842 0 0 0 0)
(0.287201 0.000892611 0 0.000256147 0.328414 0 0 0 0)
(0.272793 0.00155356 0 5.72266e-05 0.328571 0 0 0 0)
(0.254446 -0.000135779 0 -0.000273177 0.330024 0 0 0 0)
(0.231341 0.00168452 0 -0.00141408 0.328319 0 0 0 0)
(0.199702 -0.00229973 0 -0.00145762 0.33147 0 0 0 0)
(0.164269 0.000582945 0 -0.00310026 0.32724 0 0 0 0)
(0.127932 -0.000545407 0 -0.00182098 0.331207 0 0 0 0)
(0.101128 0.00250151 0 -0.00161327 0.328384 0 0 0 0)
(0.0823722 0.00136934 0 -0.00098048 0.333659 0 0 0 0)
(-0.0128647 0.0596885 0 0.00532169 0.329506 0 0 0 0)
(2.14513 0.0445889 0 0.0060442 0.396473 0 0 0 0)
(2.19331 -0.0227094 0 -0.0170902 0.404697 0 0 0 0)
(1.94128 0.817955 0 -0.167775 0.5001 0 0 0 0)
(2.36023 1.04659 0 -0.430503 0.144021 0 0 0 0)
(0.764287 0.0537545 0 -0.441029 0.0944558 0 0 0 0)
(0.408514 -0.411595 0 -0.436349 0.126822 0 0 0 0)
(0.0730636 -0.387262 0 -0.316852 0.274864 0 0 0 0)
(-0.0548679 -0.244391 0 -0.266151 0.348251 0 0 0 0)
(-0.0915663 -0.150612 0 -0.146198 0.363891 0 0 0 0)
(0.00210986 -0.0864894 0 -0.0660645 0.355901 0 0 0 0)
(0.0893261 -0.0461218 0 -0.0340815 0.350783 0 0 0 0)
(0.142905 -0.0252492 0 -0.0229198 0.343702 0 0 0 0)
(0.183339 -0.01555 0 -0.014769 0.340295 0 0 0 0)
(0.215876 -0.0113907 0 -0.0101929 0.336593 0 0 0 0)
(0.240772 -0.00798816 0 -0.00721458 0.333897 0 0 0 0)
(0.259625 -0.00600768 0 -0.00549958 0.331871 0 0 0 0)
(0.274314 -0.00490679 0 -0.00439642 0.330058 0 0 0 0)
(0.286245 -0.00403779 0 -0.00355087 0.328621 0 0 0 0)
(0.295954 -0.00330439 0 -0.00281831 0.327439 0 0 0 0)
(0.303922 -0.00293951 0 -0.00214394 0.326523 0 0 0 0)
(0.309753 0.000413198 0 -0.00153806 0.325633 0 0 0 0)
(0.313337 0.00112854 0 -0.00104346 0.326932 0 0 0 0)
(0.316451 -0.00340067 0 -0.000669128 0.326478 0 0 0 0)
(0.318945 -0.00210776 0 -0.000370461 0.324767 0 0 0 0)
(0.319429 0.00081195 0 -6.65131e-05 0.325105 0 0 0 0)
(0.31862 0.000663566 0 0.000179331 0.325306 0 0 0 0)
(0.316775 0.000823258 0 0.000407437 0.325575 0 0 0 0)
(0.313124 0.000983716 0 0.000622764 0.325889 0 0 0 0)
(0.30725 0.00114928 0 0.000810326 0.32627 0 0 0 0)
(0.298649 0.00147359 0 0.000985253 0.326633 0 0 0 0)
(0.287133 0.00122307 0 0.00112844 0.327335 0 0 0 0)
(0.272629 0.00237744 0 0.00101881 0.327241 0 0 0 0)
(0.25384 -0.000296307 0 0.000817387 0.329122 0 0 0 0)
(0.230995 0.00228023 0 -0.000505689 0.326743 0 0 0 0)
(0.199241 -0.00255549 0 -6.08086e-05 0.330057 0 0 0 0)
(0.164581 0.000236975 0 -0.00151277 0.32696 0 0 0 0)
(0.129415 0.00029521 0 -6.08872e-05 0.32927 0 0 0 0)
(0.102582 0.00363976 0 0.000396862 0.328981 0 0 0 0)
(0.0869701 0.00192986 0 0.00136799 0.331459 0 0 0 0)
(-0.00261591 0.0865208 0 0.00723668 0.3303 0 0 0 0)
(2.16569 0.0956973 0 0.0136696 0.375807 0 0 0 0)
(2.20731 0.000371532 0 -0.0279333 0.397307 0 0 0 0)
(1.87752 0.577239 0 0.0263495 0.570024 0 0 0 0)
(2.26291 0.759328 0 -0.117423 0.180449 0 0 0 0)
(0.681546 0.0299238 0 -0.188499 0.0901572 0 0 0 0)
(0.406599 -0.317212 0 -0.302395 0.124928 0 0 0 0)
(0.116221 -0.291359 0 -0.248449 0.253577 0 0 0 0)
(0.00118084 -0.207278 0 -0.21948 0.309695 0 0 0 0)
(0.00124583 -0.135188 0 -0.131628 0.334708 0 0 0 0)
(0.0494063 -0.0846371 0 -0.0695139 0.343147 0 0 0 0)
(0.109395 -0.050039 0 -0.0415711 0.343183 0 0 0 0)
(0.152859 -0.0297835 0 -0.0284754 0.339639 0 0 0 0)
(0.190417 -0.018414 0 -0.0191855 0.336707 0 0 0 0)
(0.22001 -0.0142424 0 -0.0134017 0.333954 0 0 0 0)
(0.243316 -0.010252 0 -0.00993917 0.331362 0 0 0 0)
(0.261237 -0.00785867 0 -0.00775305 0.329373 0 0 0 0)
(0.275478 -0.00648446 0 -0.0062195 0.327548 0 0 0 0)
(0.287204 -0.0052997 0 -0.00500489 0.326123 0 0 0 0)
(0.29681 -0.00430906 0 -0.00394307 0.324955 0 0 0 0)
(0.304702 -0.00379531 0 -0.00297806 0.324062 0 0 0 0)
(0.310431 0.000638796 0 -0.00211144 0.323217 0 0 0 0)
(0.313886 0.0015581 0 -0.0013996 0.324604 0 0 0 0)
(0.316894 -0.00444863 0 -0.000845532 0.324167 0 0 0 0)
(0.319353 -0.00278162 0 -0.000385516 0.322409 0 0 0 0)
(0.319812 0.00107082 0 9.09543e-05 0.322733 0 0 0 0)
(0.318963 0.000893056 0 0.000493024 0.322941 0 0 0 0)
(0.317107 0.00110947 0 0.000889094 0.323224 0 0 0 0)
(0.313439 0.00132814 0 0.001258 0.323534 0 0 0 0)
(0.307533 0.00149612 0 0.00162615 0.323965 0 0 0 0)
(0.29892 0.00200988 0 0.00196992 0.324276 0 0 0 0)
(0.287233 0.00147867 0 0.0022375 0.325145 0 0 0 0)
(0.272493 0.00327576 0 0.00222755 0.324636 0 0 0 0)
(0.252977 -0.000615669 0 0.00228492 0.327161 0 0 0 0)
(0.230495 0.00258577 0 0.000717411 0.324076 0 0 0 0)
(0.198731 -0.00209088 0 0.00126763 0.327258 0 0 0 0)
(0.164269 -0.000175774 0 0.000525687 0.32563 0 0 0 0)
(0.129772 0.0014025 0 0.00237365 0.326783 0 0 0 0)
(0.102505 0.00461137 0 0.00349371 0.328145 0 0 0 0)
(0.0889633 0.00264039 0 0.00486887 0.328752 0 0 0 0)
(-0.0010104 0.102424 0 0.0098714 0.329652 0 0 0 0)
(2.11124 0.109159 0 0.0142134 0.364864 0 0 0 0)
(2.15322 -0.00199133 0 -0.0753307 0.391773 0 0 0 0)
(1.80274 0.442547 0 0.0628205 0.424627 0 0 0 0)
(2.1532 0.58417 0 -0.0322933 0.185244 0 0 0 0)
(0.586041 0.000253016 0 -0.101585 0.120103 0 0 0 0)
(0.350744 -0.254118 0 -0.210084 0.153713 0 0 0 0)
(0.152964 -0.209214 0 -0.209182 0.247603 0 0 0 0)
(0.0577057 -0.16621 0 -0.158459 0.29605 0 0 0 0)
(0.052946 -0.118377 0 -0.10893 0.319833 0 0 0 0)
(0.0888915 -0.078323 0 -0.0648682 0.331778 0 0 0 0)
(0.128872 -0.0495017 0 -0.0439808 0.334348 0 0 0 0)
(0.164477 -0.0314896 0 -0.0300356 0.334754 0 0 0 0)
(0.197864 -0.0210285 0 -0.0213056 0.332046 0 0 0 0)
(0.224787 -0.0165415 0 -0.0155415 0.329937 0 0 0 0)
(0.246215 -0.0124023 0 -0.0119659 0.327559 0 0 0 0)
(0.26321 -0.00968254 0 -0.00951823 0.325595 0 0 0 0)
(0.276962 -0.00803878 0 -0.0076972 0.323814 0 0 0 0)
(0.288438 -0.00653702 0 -0.00617766 0.322411 0 0 0 0)
(0.297908 -0.00529097 0 -0.00483912 0.321275 0 0 0 0)
(0.305687 -0.00461412 0 -0.00363531 0.32041 0 0 0 0)
(0.311274 0.000936152 0 -0.00256103 0.319616 0 0 0 0)
(0.314557 0.00204424 0 -0.00169087 0.321118 0 0 0 0)
(0.317428 -0.00551633 0 -0.00102022 0.320698 0 0 0 0)
(0.319848 -0.00348951 0 -0.00046548 0.318872 0 0 0 0)
(0.320275 0.00132431 0 0.000117087 0.319183 0 0 0 0)
(0.319389 0.00113634 0 0.00060349 0.319401 0 0 0 0)
(0.317512 0.00139546 0 0.00107999 0.319692 0 0 0 0)
(0.313834 0.00169771 0 0.0015504 0.32003 0 0 0 0)
(0.307936 0.00186436 0 0.00193814 0.320501 0 0 0 0)
(0.299238 0.00261051 0 0.00237497 0.320756 0 0 0 0)
(0.287381 0.00156975 0 0.00264097 0.322037 0 0 0 0)
(0.272674 0.00432029 0 0.00208397 0.320758 0 0 0 0)
(0.252385 -0.000836296 0 0.00208808 0.324059 0 0 0 0)
(0.230014 0.00237398 0 -0.000114952 0.320534 0 0 0 0)
(0.199056 -0.00105751 0 -0.000139421 0.323458 0 0 0 0)
(0.165646 -0.000220435 0 -0.00226858 0.322665 0 0 0 0)
(0.132275 0.00271834 0 -0.00118058 0.322864 0 0 0 0)
(0.104986 0.00553664 0 -0.00224816 0.325042 0 0 0 0)
(0.0931158 0.0033824 0 -0.00320232 0.323559 0 0 0 0)
(0.00638883 0.12132 0 -0.0026962 0.325915 0 0 0 0)
(2.08358 0.155559 0 0.0182285 0.346824 0 0 0 0)
(2.12102 0.0263018 0 -0.0777887 0.384261 0 0 0 0)
(1.78586 0.346561 0 -0.0160849 0.375192 0 0 0 0)
(2.10448 0.465878 0 -0.0259832 0.188217 0 0 0 0)
(0.510221 -0.000460464 0 -0.088337 0.147656 0 0 0 0)
(0.302915 -0.194349 0 -0.166858 0.186259 0 0 0 0)
(0.165969 -0.154198 0 -0.172955 0.254389 0 0 0 0)
(0.0977878 -0.137675 0 -0.139085 0.285608 0 0 0 0)
(0.0914329 -0.10076 0 -0.0962496 0.309273 0 0 0 0)
(0.111993 -0.0706503 0 -0.0654196 0.321256 0 0 0 0)
(0.142961 -0.047171 0 -0.0475162 0.325908 0 0 0 0)
(0.174709 -0.0320016 0 -0.0335928 0.327483 0 0 0 0)
(0.204384 -0.0230555 0 -0.0244163 0.325776 0 0 0 0)
(0.22901 -0.0185662 0 -0.0183807 0.324007 0 0 0 0)
(0.24912 -0.0144365 0 -0.0142953 0.321981 0 0 0 0)
(0.265351 -0.0114672 0 -0.0114801 0.320152 0 0 0 0)
(0.278698 -0.00955239 0 -0.00925045 0.318457 0 0 0 0)
(0.289958 -0.00774669 0 -0.00737228 0.317107 0 0 0 0)
(0.29926 -0.00623709 0 -0.00572788 0.316032 0 0 0 0)
(0.306897 -0.00539355 0 -0.00427427 0.315198 0 0 0 0)
(0.312304 0.00132073 0 -0.00299057 0.314458 0 0 0 0)
(0.315371 0.0026004 0 -0.00195987 0.316103 0 0 0 0)
(0.318075 -0.00661348 0 -0.00117253 0.315699 0 0 0 0)
(0.320449 -0.0042415 0 -0.000524851 0.313785 0 0 0 0)
(0.320842 0.00158131 0 0.000162347 0.314083 0 0 0 0)
(0.319891 0.00138407 0 0.000744962 0.314324 0 0 0 0)
(0.318019 0.00171568 0 0.00132303 0.314614 0 0 0 0)
(0.314266 0.00210769 0 0.0019456 0.314948 0 0 0 0)
(0.308327 0.0021957 0 0.00258806 0.315564 0 0 0 0)
(0.299597 0.00348943 0 0.00318543 0.315472 0 0 0 0)
(0.286953 0.00148015 0 0.00409559 0.317308 0 0 0 0)
(0.271961 0.00522472 0 0.00402917 0.315404 0 0 0 0)
(0.250858 -0.000831259 0 0.00477477 0.319208 0 0 0 0)