/*--------------------------------*- C++ -*----------------------------------*\
| =========                 |                                                 |
| \\      /  F ield         | OpenFOAM: The Open Source CFD Toolbox           |
|  \\    /   O peration     | Version:  v1912                                 |
|   \\  /    A nd           | Website:  www.openfoam.com                      |
|    \\/     M anipulation  |                                                 |
\*---------------------------------------------------------------------------*/
FoamFile
{
    version     2.0;
    format      ascii;
    class       volScalarField;
    location    "0.08";
    object      normT;
}
// * * * * * * * * * * * * * * * * * * * * * * * * * * * * * * * * * * * * * //

dimensions      [0 -1 0 0 0 0 0];


internalField   nonuniform List<scalar> 
4800
(
9.33498e-14
0
4.66749e-14
0
0
0
0
7.93473e-13
7.93473e-13
9.62228e-13
4.42797e-13
6.55113e-13
3.9879e-13
2.95198e-13
0
0
2.80049e-13
1.32017e-13
1.40025e-13
0
2.80049e-13
2.83912e-13
3.73399e-13
9.33498e-14
0
0
5.28066e-13
1.40025e-13
1.40025e-13
6.34847e-13
9.98886e-13
3.9879e-13
4.20074e-13
4.66749e-13
4.4033e-13
1.47599e-13
5.15541e-13
1.1065e-12
3.36577e-13
9.28546
4.66749e-14
0
0
0
0
0
0
9.33498e-14
8.76942e-13
0
9.33498e-14
2.80049e-13
0
0
2.80049e-13
2.80049e-13
1.40025e-13
3.9879e-13
0
0
0
4.20074e-13
5.32176e-13
2.95198e-13
2.80049e-13
3.9879e-13
5.28066e-13
5.32176e-13
4.80547e-13
3.9879e-13
1.32017e-13
1.18998e-12
2.37996e-13
4.42797e-13
0
9.33498e-14
6.34847e-13
7.97581e-13
1.74953e-12
4.72658e-06
9.33498e-14
0
0
0
0
0
9.33498e-14
0
1.32017e-13
9.33498e-14
1.40025e-13
0
1.68289e-13
3.9879e-13
0
3.73399e-13
2.95198e-13
1.40025e-13
3.73399e-13
1.40025e-13
1.98025e-13
4.75992e-13
5.63975e-13
3.39798e-13
1.40025e-13
6.06774e-13
1.867e-13
1.05819e-12
3.30041e-13
6.93872e-13
3.73399e-13
3.13105e-13
7.37995e-13
1.40025e-13
4.873e-13
2.72159e-13
2.33374e-13
1.07757e-12
4.80547e-13
2.41893e-09
2.95198e-13
0
1.40025e-13
2.33374e-13
2.80049e-13
0
0
1.32017e-13
4.4033e-13
2.51352e-13
1.68289e-13
3.9879e-13
4.4033e-13
3.9879e-13
4.66749e-13
0
4.66749e-13
2.72159e-13
3.9879e-13
2.95198e-13
9.33498e-14
3.73399e-13
7.76825e-13
4.59694e-13
4.66749e-13
5.28066e-13
8.41444e-13
7.5261e-13
7.65525e-13
2.33374e-13
3.30041e-13
5.63975e-13
2.80049e-13
1.40025e-13
2.80049e-13
3.9605e-13
8.03025e-13
5.6204e-13
1.25676e-12
7.49201e-12
1.867e-13
3.13105e-13
2.33374e-13
6.60083e-13
7.54056e-13
7.10931e-13
3.73399e-13
3.9605e-13
3.13105e-13
5.32176e-13
5.63975e-13
2.95198e-13
1.68289e-13
3.55465e-13
3.73399e-13
9.33498e-14
2.33374e-13
3.9605e-13
1.40025e-13
3.9605e-13
2.80049e-13
3.30041e-13
8.76942e-13
5.63975e-13
6.13912e-13
7.5261e-13
7.76825e-13
7.10931e-13
7.65525e-13
2.72159e-13
5.13424e-13
2.33374e-13
3.84891e-13
5.63975e-13
8.41444e-13
9.33498e-14
6.79597e-13
5.32176e-13
4.22659e-13
6.13912e-13
3.36577e-13
0
1.00541e-12
6.50106e-13
2.33374e-13
2.33374e-13
8.86823e-13
1.40025e-13
0
8.31023e-13
7.10931e-13
3.30041e-13
8.41444e-13
4.66749e-13
5.84835e-13
2.80049e-13
6.06774e-13
5.6204e-13
7.12461e-13
1.40025e-13
5.13424e-13
6.06774e-13
7.06319e-13
5.84835e-13
8.96595e-13
3.9879e-13
8.03025e-13
4.66749e-13
3.73399e-13
5.04866e-13
6.68283e-13
9.33498e-14
2.33374e-13
5.63975e-13
7.12461e-13
6.68283e-13
4.30321e-13
7.10931e-13
2.80049e-13
8.51737e-13
9.33498e-14
5.84835e-13
0
8.31023e-13
6.53449e-13
6.53449e-13
3.73399e-13
3.9605e-13
6.34847e-13
3.13105e-13
5.04866e-13
5.44318e-13
1.98025e-13
5.9773e-13
3.13105e-13
3.9605e-13
4.4033e-13
2.51352e-13
3.9879e-13
2.95198e-13
2.80049e-13
4.4033e-13
3.39798e-13
1.08262e-12
4.66749e-13
8.60643e-13
3.9879e-13
3.13105e-13
6.93872e-13
5.28066e-13
9.17016e-13
6.34847e-13
3.9879e-13
3.73399e-13
9.33498e-14
8.34946e-13
8.31023e-13
5.63975e-13
3.30041e-13
5.21841e-13
9.33498e-14
2.80049e-13
5.13424e-13
2.80049e-13
2.80049e-13
2.80049e-13
2.80049e-13
3.64543e-13
5.13424e-13
1.06435e-12
1.06435e-12
3.13105e-13
2.33374e-13
1.98025e-13
2.72159e-13
3.64543e-13
2.51352e-13
1.05303e-12
2.72159e-13
3.9605e-13
2.80049e-13
2.33374e-13
1.05303e-12
4.80547e-13
1.10945e-12
7.5261e-13
5.63975e-13
4.42797e-13
2.80049e-13
5.04866e-13
2.95198e-13
2.33374e-13
5.63975e-13
1.40025e-13
5.04866e-13
1.68289e-13
5.28066e-13
7.5261e-13
6.73155e-13
3.64543e-13
3.36577e-13
2.33374e-13
0
2.33374e-13
2.33374e-13
0
5.63975e-13
5.21841e-13
5.04866e-13
4.4033e-13
4.66749e-13
5.44318e-13
3.30041e-13
1.02791e-12
4.66749e-13
6.06774e-13
8.86823e-13
3.84891e-13
1.00215e-12
3.13105e-13
5.84835e-13
9.17016e-13
5.63975e-13
1.14805e-12
5.13424e-13
3.73399e-13
7.59812e-13
6.68283e-13
2.51352e-13
3.30041e-13
5.84835e-13
2.80049e-13
3.64543e-13
4.4033e-13
3.30041e-13
3.73399e-13
2.33374e-13
5.6204e-13
8.76942e-13
6.89147e-13
4.20074e-13
3.30041e-13
2.80049e-13
2.95198e-13
2.33374e-13
2.80049e-13
3.13105e-13
5.44318e-13
5.13424e-13
8.76942e-13
4.22659e-13
2.98865e-13
3.39798e-13
4.30321e-13
5.6204e-13
3.64543e-13
2.33374e-13
4.80547e-13
2.95198e-13
2.33374e-13
2.33374e-13
2.33374e-13
6.34847e-13
7.59812e-13
6.60083e-13
6.79597e-13
4.20074e-13
6.60083e-13
8.58108e-13
6.50106e-13
3.30041e-13
3.64543e-13
4.42797e-13
1.40025e-13
6.93872e-13
3.30041e-13
3.9879e-13
8.34946e-13
3.73399e-13
1.867e-13
2.95198e-13
5.13424e-13
4.66749e-13
2.33374e-13
6.34847e-13
4.4033e-13
5.63975e-13
2.95198e-13
7.26091e-13
7.26091e-13
2.80049e-13
2.72159e-13
3.9879e-13
3.84891e-13
1.40025e-13
2.33374e-13
3.64543e-13
3.64543e-13
5.84835e-13
5.84835e-13
0
3.30041e-13
2.80049e-13
5.13424e-13
6.68283e-13
4.80547e-13
7.12461e-13
7.12461e-13
7.76825e-13
6.93872e-13
5.28066e-13
1.40025e-13
2.33374e-13
7.10931e-13
1.98025e-13
4.4033e-13
4.66749e-13
6.63375e-13
4.17473e-13
4.80547e-13
3.26724e-13
2.33374e-13
5.13424e-13
6.34847e-13
4.66749e-14
4.66749e-14
4.66749e-13
3.64543e-13
3.9605e-13
3.9605e-13
5.63975e-13
2.33374e-13
9.33498e-14
2.72159e-13
2.80049e-13
5.63975e-13
0
2.80049e-13
5.63975e-13
5.13424e-13
2.33374e-13
2.33374e-13
2.37996e-13
7.94845e-13
4.80547e-13
6.13912e-13
4.4033e-13
6.50106e-13
6.93872e-13
6.06774e-13
2.33374e-13
4.66749e-13
1.68289e-13
2.80049e-13
5.13424e-13
2.95198e-13
2.80049e-13
2.33374e-13
6.73155e-13
3.84891e-13
9.33498e-14
7.59812e-13
5.13424e-13
6.06774e-13
0
5.13424e-13
2.33374e-13
2.80049e-13
2.80049e-13
3.9605e-13
2.80049e-13
2.80049e-13
3.73399e-13
3.73399e-13
5.84835e-13
2.33374e-13
3.9605e-13
1.40025e-13
0
0
5.63975e-13
2.80049e-13
5.21841e-13
3.73399e-13
6.53449e-13
4.66749e-13
2.33374e-13
8.31023e-13
4.66749e-13
4.4033e-13
6.50106e-13
2.33374e-13
3.13105e-13
2.80049e-13
7.98946e-13
2.95198e-13
9.24116e-13
0
5.32176e-13
2.95198e-13
4.17473e-13
2.80049e-13
5.63975e-13
3.73399e-13
2.33374e-13
4.66749e-13
0
2.33374e-13
5.63975e-13
2.80049e-13
5.13424e-13
3.73399e-13
5.04866e-13
3.9879e-13
1.00541e-12
6.06774e-13
4.20074e-13
3.30041e-13
4.66749e-13
0
2.33374e-13
3.73399e-13
3.64543e-13
2.98865e-13
6.60083e-13
5.63975e-13
6.13912e-13
4.01513e-13
2.98865e-13
6.93872e-13
4.4033e-13
2.72159e-13
5.32176e-13
8.76942e-13
5.63975e-13
2.33374e-13
0
5.13424e-13
3.30041e-13
2.83912e-13
3.9605e-13
4.66749e-13
4.4033e-13
2.80049e-13
5.13424e-13
0
3.73399e-13
8.60643e-13
5.15541e-13
9.45095e-13
2.83912e-13
5.63975e-13
7.76825e-13
6.68283e-13
5.32176e-13
4.66749e-13
6.34847e-13
3.9605e-13
5.63975e-13
3.64543e-13
3.64543e-13
0
4.4033e-13
5.84835e-13
2.80049e-13
4.66749e-13
4.4033e-13
2.51352e-13
6.06774e-13
6.68283e-13
3.9605e-13
2.33374e-13
5.32176e-13
4.4033e-13
6.68283e-13
6.13912e-13
6.34847e-13
7.82414e-13
3.36577e-13
3.9879e-13
5.46316e-13
2.80049e-13
3.9605e-13
4.4033e-13
1.40025e-13
4.4033e-13
6.53449e-13
3.9605e-13
1.19546e-12
6.60083e-14
8.41444e-13
2.33374e-13
2.37996e-13
6.53449e-13
6.55113e-13
1.98025e-13
5.46316e-13
3.13105e-13
9.34664e-13
7.93473e-13
5.13424e-13
5.84835e-13
2.33374e-13
5.13424e-13
2.72159e-13
6.93872e-13
2.33374e-13
6.53449e-13
7.12461e-13
3.30041e-13
5.13424e-13
3.30041e-13
5.21841e-13
2.33374e-13
4.66749e-13
2.51352e-13
1.68289e-13
1.92446e-13
4.59694e-13
2.72159e-13
1.867e-13
4.4033e-13
2.80049e-13
4.66749e-13
2.33374e-13
2.95198e-13
2.33374e-13
4.80547e-13
3.30041e-13
8.27081e-13
3.30041e-13
2.33374e-13
5.63975e-13
3.9605e-13
4.66749e-13
8.41444e-13
2.33374e-13
8.9781e-13
0
6.06774e-13
6.26209e-13
0
3.9605e-13
2.80049e-13
5.13424e-13
3.73399e-13
3.73399e-13
3.84891e-13
3.30041e-13
7.65525e-13
3.30041e-13
3.30041e-13
5.13424e-13
5.13424e-13
5.84835e-13
3.13105e-13
6.68283e-13
1.40025e-13
5.9773e-13
6.06774e-13
9.33498e-14
5.44318e-13
3.64543e-13
6.06774e-13
4.66749e-13
4.20074e-13
0
5.13424e-13
3.30041e-13
2.33374e-13
3.30041e-13
5.13424e-13
2.33374e-13
2.80049e-13
0
2.51352e-13
5.60099e-13
6.53449e-13
0
3.64543e-13
2.80049e-13
0
0
2.80049e-13
2.51352e-13
3.36577e-13
3.64543e-13
9.33498e-14
3.73399e-13
3.36577e-13
3.30041e-13
5.21841e-13
7.54056e-13
2.33374e-13
1.40025e-13
9.29991e-13
3.9879e-13
7.10931e-13
8.41444e-13
9.33498e-14
5.13424e-13
6.53449e-13
7.94845e-13
1.867e-13
8.86823e-13
3.76305e-13
6.93872e-13
2.80049e-13
2.33374e-13
2.80049e-13
4.20074e-13
9.33498e-14
4.4033e-13
0
0
2.33374e-13
6.93872e-13
2.33374e-13
4.80547e-13
5.13424e-13
2.80049e-13
5.63975e-13
7.10931e-13
3.64543e-13
3.30041e-13
5.13424e-13
2.33374e-13
2.33374e-13
0
0
2.51352e-13
6.93872e-13
4.01513e-13
8.68203e-13
9.746e-13
6.68283e-13
5.6204e-13
6.68283e-13
6.93872e-13
8.76942e-13
1.68289e-13
5.44318e-13
6.06774e-13
8.27081e-13
6.06774e-13
2.72159e-13
3.9605e-13
5.13424e-13
5.63975e-13
2.98865e-13
5.04866e-13
4.66749e-13
5.32176e-13
4.66749e-13
0
2.33374e-13
5.60099e-13
0
0
3.64543e-13
5.63975e-13
9.33498e-13
8.85594e-13
6.06774e-13
3.64543e-13
2.80049e-13
3.64543e-13
0
3.73399e-13
2.80049e-13
2.33374e-13
1.40025e-13
6.53449e-13
1.40025e-13
6.53449e-13
4.42797e-13
4.80547e-13
4.66749e-13
2.72159e-13
3.9879e-13
2.95198e-13
2.33374e-13
3.30041e-13
2.80049e-13
4.66749e-14
4.66749e-14
2.37996e-13
2.33374e-13
2.33374e-13
3.30041e-13
2.72159e-13
2.33374e-13
7.94845e-13
5.13424e-13
4.66749e-13
7.46798e-13
9.33498e-13
7.93473e-13
6.53449e-13
2.33374e-13
2.80049e-13
2.80049e-13
2.33374e-13
1.14425e-12
3.73399e-13
0
2.80049e-13
3.73399e-13
3.30041e-13
6.22721e-13
4.4033e-13
3.64543e-13
8.76942e-13
1.40025e-13
6.06774e-13
4.4033e-13
3.73399e-13
1.47599e-13
8.9781e-13
5.44318e-13
9.33498e-14
2.33374e-13
2.80049e-13
0
2.33374e-13
0
6.26209e-13
3.9605e-13
5.13424e-13
2.33374e-13
2.51352e-13
5.32176e-13
5.21841e-13
5.84835e-13
7.93473e-13
5.13424e-13
2.80049e-13
8.86823e-13
2.33374e-13
3.30041e-13
5.84835e-13
9.33498e-13
6.08566e-13
5.04866e-13
9.29991e-13
4.30321e-13
4.80547e-13
5.84835e-13
6.22721e-13
1.06435e-12
5.94074e-13
5.04866e-13
5.04866e-13
1.06435e-12
3.73399e-13
5.63975e-13
2.51352e-13
8.34946e-13
5.32176e-13
8.15142e-13
3.73399e-13
3.30041e-13
2.80049e-13
3.30041e-13
2.33374e-13
2.33374e-13
3.30041e-13
8.27081e-13
2.33374e-13
8.03025e-13
9.33498e-14
6.06774e-13
2.72159e-13
8.27081e-13
5.63975e-13
3.9605e-13
5.84835e-13
3.64543e-13
1.40025e-13
4.4033e-13
5.44318e-13
9.45095e-13
8.91723e-13
1.54098e-12
1.02791e-12
9.24116e-13
1.8257e-12
1.867e-13
8.56837e-13
1.00541e-12
5.84835e-13
3.13105e-13
8.68203e-13
2.33374e-13
6.34847e-13
3.9879e-13
9.29991e-13
2.33374e-13
6.53449e-13
3.84891e-13
4.30321e-13
5.21841e-13
4.66749e-13
6.60083e-14
2.80049e-13
7.94845e-13
2.37996e-13
2.33374e-13
8.86823e-13
4.69077e-13
7.93473e-13
2.95198e-13
1.40025e-13
2.33374e-13
7.94845e-13
0
4.69077e-13
3.26724e-13
7.37995e-13
2.98865e-13
6.06774e-13
5.21841e-13
6.27946e-13
9.33498e-13
4.66749e-13
1.50305e-12
1.07454e-12
9.746e-13
7.46798e-13
1.56552e-12
2.83912e-13
7.93473e-13
7.37995e-13
8.31023e-13
2.33374e-13
6.08566e-13
4.96161e-13
8.60643e-13
1.98025e-13
5.13424e-13
4.873e-13
5.84835e-13
5.13424e-13
7.93473e-13
8.9781e-13
7.59812e-13
9.29991e-13
7.26091e-13
4.66749e-13
5.63975e-13
1.31769e-12
1.14805e-12
1.68094e-12
2.33374e-13
6.60083e-13
6.53449e-13
5.13424e-13
5.32176e-13
5.84835e-13
6.93872e-13
6.06774e-13
8.40148e-13
5.6974e-13
8.41444e-13
8.34946e-13
1.06537e-12
2.48475e-12
5.21841e-13
1.55785e-12
5.15541e-13
1.91367e-12
2.72159e-13
2.51352e-13
8.41444e-13
7.76825e-13
7.5261e-13
2.37996e-13
4.80547e-13
5.60099e-13
5.21841e-13
3.30041e-13
3.13105e-13
5.13424e-13
4.66749e-13
2.72159e-13
7.26091e-13
2.72159e-13
4.66749e-13
1.07454e-12
7.30578e-13
1.04368e-13
8.76942e-13
1.02472e-12
1.65548e-12
7.65525e-13
5.13424e-13
9.20573e-13
5.21841e-13
2.80049e-13
9.17016e-13
9.20573e-13
4.01513e-13
5.44318e-13
1.12408e-12
2.83912e-13
9.06263e-13
2.33374e-13
2.33374e-13
1.00541e-12
1.97419e-12
6.63375e-13
1.00541e-12
2.33374e-13
1.04368e-13
4.30321e-13
0
3.13105e-13
1.40025e-13
6.68283e-13
3.13105e-13
1.32017e-13
3.30041e-13
0
8.27081e-13
1.40025e-13
6.06774e-13
1.04889e-12
8.31023e-13
4.66749e-13
7.76825e-13
1.19637e-12
1.1202e-12
1.70347e-12
3.13105e-13
5.02704e-13
6.60083e-13
7.93473e-13
4.20074e-13
1.40025e-13
3.73399e-13
1.08964e-12
4.66749e-13
1.27483e-12
5.32176e-13
9.38154e-13
9.62228e-13
1.02472e-12
6.68283e-13
5.63975e-13
4.66749e-13
8.05734e-13
2.51352e-13
5.21841e-13
5.32176e-13
6.53449e-13
6.50106e-13
2.95198e-13
8.31023e-13
3.73399e-13
1.40025e-13
4.01513e-13
2.33374e-13
4.66749e-14
3.30041e-13
0
3.30041e-13
0
5.13424e-13
8.03025e-13
5.13424e-13
5.21841e-13
2.72159e-13
5.84835e-13
4.66749e-13
7.94845e-13
8.27081e-13
5.84835e-13
8.41444e-13
5.21841e-13
2.33374e-13
2.33374e-13
5.13424e-13
2.33374e-13
9.17016e-13
4.66749e-13
2.33374e-13
2.51352e-13
4.4033e-13
1.40025e-13
6.06774e-13
3.64543e-13
2.33374e-13
0
4.66749e-13
4.66749e-13
3.13105e-13
8.05734e-13
2.51352e-13
5.13424e-13
6.63375e-13
3.26724e-13
5.13424e-13
2.37996e-13
3.30041e-13
0
4.66749e-13
8.27081e-13
5.13424e-13
3.73399e-13
3.73399e-13
5.13424e-13
1.40025e-13
3.73399e-13
6.93872e-13
0
2.33374e-13
2.80049e-13
0
2.33374e-13
3.64543e-13
2.33374e-13
0
3.30041e-13
0
4.4033e-13
3.64543e-13
2.80049e-13
3.64543e-13
3.73399e-13
2.33374e-13
2.72159e-13
2.80049e-13
4.66749e-14
3.73399e-13
0
5.84835e-13
3.9879e-13
9.20573e-13
2.33374e-13
2.98865e-13
1.40025e-13
3.9605e-13
2.33374e-13
5.63975e-13
6.26209e-13
6.34847e-13
5.13424e-13
5.04866e-13
4.20074e-13
9.33498e-14
1.02685e-12
6.68283e-13
2.80049e-13
2.51352e-13
8.56837e-13
5.13424e-13
7.46798e-13
3.64543e-13
3.73399e-13
6.53449e-13
3.9605e-13
2.33374e-13
3.9605e-13
5.6204e-13
3.30041e-13
6.06774e-13
2.72159e-13
2.33374e-13
0
0
2.80049e-13
1.40025e-13
6.53449e-13
4.66749e-14
3.73399e-13
1.68289e-13
7.48255e-13
1.40025e-13
5.63975e-13
2.33374e-13
5.60099e-13
4.66749e-13
4.66749e-13
8.41444e-13
1.40025e-13
4.66749e-13
6.34847e-13
8.31023e-13
2.51352e-13
8.86823e-13
2.51352e-13
4.80547e-13
1.07352e-12
8.34946e-13
3.9605e-13
4.66749e-14
2.33374e-13
3.73399e-13
8.86823e-13
9.33498e-14
3.73399e-13
0
9.33498e-13
4.66749e-13
6.68283e-13
7.94845e-13
0
4.66749e-13
2.33374e-13
2.33374e-13
2.33374e-13
3.73399e-13
2.72159e-13
4.20074e-13
1.40025e-13
2.51352e-13
2.33374e-13
5.21841e-13
0
2.80049e-13
6.34847e-13
2.33374e-13
0
3.30041e-13
5.60099e-13
1.40025e-13
8.05734e-13
5.60099e-13
3.13105e-13
4.66749e-13
3.30041e-13
5.84835e-13
4.66749e-14
6.93872e-13
5.60099e-13
2.80049e-13
7.46798e-13
3.64543e-13
3.73399e-13
6.53449e-13
5.84835e-13
2.80049e-13
3.9605e-13
1.24544e-12
6.93872e-13
7.94845e-13
0
2.33374e-13
5.63975e-13
2.37996e-13
9.33498e-14
6.55113e-13
5.21841e-13
3.64543e-13
3.84891e-13
7.59812e-13
1.40025e-13
2.95198e-13
1.98025e-13
2.33374e-13
9.33498e-14
7.94845e-13
3.64543e-13
5.63975e-13
3.73399e-13
5.63975e-13
4.66749e-13
3.73399e-13
5.60099e-13
4.20074e-13
6.06774e-13
4.66749e-14
7.82414e-13
4.4033e-13
9.33498e-14
2.51352e-13
0
2.80049e-13
2.33374e-13
2.80049e-13
5.63975e-13
3.64543e-13
9.33498e-14
3.26724e-13
3.13105e-13
2.33374e-13
4.66749e-13
1.40025e-13
2.80049e-13
3.64543e-13
9.33498e-13
5.13424e-13
3.9605e-13
5.32176e-13
1.16687e-12
1.98025e-13
5.67825e-13
3.73399e-13
0
1.32017e-13
5.84835e-13
0
9.33498e-14
4.66749e-13
2.33374e-13
2.80049e-13
2.80049e-13
6.34847e-13
1.40025e-13
1.40025e-13
1.40025e-13
3.64543e-13
3.76305e-13
2.33374e-13
5.84835e-13
4.4033e-13
4.66749e-13
2.80049e-13
0
2.80049e-13
2.33374e-13
8.76942e-13
0
7.98946e-13
6.06774e-13
7.26091e-13
2.72159e-13
5.60099e-13
5.84835e-13
2.33374e-13
2.72159e-13
9.29991e-13
6.27946e-13
7.46798e-13
8.31023e-13
2.33374e-13
1.40025e-13
3.73399e-13
4.20074e-13
3.9879e-13
5.63975e-13
7.46798e-13
2.80049e-13
4.66749e-13
3.73399e-13
2.33374e-13
3.73399e-13
0
0
1.40025e-13
2.72159e-13
0
2.72159e-13
4.66749e-13
9.33498e-14
2.51352e-13
2.80049e-13
5.21841e-13
2.33374e-13
2.37996e-13
2.37996e-13
2.33374e-13
9.33498e-14
5.63975e-13
6.34847e-13
5.21841e-13
5.77337e-13
5.63975e-13
2.33374e-13
5.63975e-13
0
2.72159e-13
2.95198e-13
5.84835e-13
2.72159e-13
3.9879e-13
6.93872e-13
7.5261e-13
3.30041e-13
7.26091e-13
7.00123e-13
5.15541e-13
1.40025e-13
2.80049e-13
2.33374e-13
0
0
0
0
0
0
2.33374e-13
9.33498e-14
0
4.75992e-13
2.33374e-13
2.33374e-13
0
2.33374e-13
0
5.13424e-13
0
7.92099e-13
7.94845e-13
7.48255e-13
7.00123e-13
5.63975e-13
2.33374e-13
2.33374e-13
1.40025e-13
2.72159e-13
5.13424e-13
9.33498e-14
0
2.72159e-13
3.73399e-13
4.66749e-13
4.66749e-14
5.32176e-13
7.76825e-13
5.63975e-13
6.53449e-13
2.80049e-13
2.33374e-13
1.40025e-13
0
2.33374e-13
0
0
5.13424e-13
4.4033e-13
2.33374e-13
2.51352e-13
6.60083e-13
5.13424e-13
2.72159e-13
9.33498e-14
2.51352e-13
9.33498e-14
4.873e-13
1.40025e-13
7.30578e-13
1.08864e-12
1.05613e-12
8.60643e-13
2.80049e-13
5.84835e-13
5.60099e-13
2.51352e-13
6.93872e-13
2.51352e-13
3.64543e-13
2.98865e-13
2.98865e-13
3.64543e-13
1.68289e-13
3.30041e-13
3.9879e-13
7.10931e-13
4.59694e-13
1.867e-13
2.80049e-13
3.64543e-13
9.33498e-14
2.80049e-13
4.4033e-13
0
8.41444e-13
1.04889e-12
8.58108e-13
1.05613e-12
7.26091e-13
8.31023e-13
6.34847e-13
6.68283e-13
5.6974e-13
3.64543e-13
2.80049e-13
2.33374e-13
0
7.94845e-13
8.85594e-13
1.02366e-12
1.02366e-12
5.63975e-13
4.80547e-13
6.26209e-13
3.64543e-13
5.13424e-13
1.40025e-13
6.68283e-13
2.33374e-13
1.40025e-13
3.26724e-13
3.9605e-13
4.20074e-13
8.86823e-13
2.33374e-13
6.73155e-13
0
4.01513e-13
5.63975e-13
3.30041e-13
2.33374e-13
2.72159e-13
3.30041e-13
7.26091e-13
9.33498e-13
2.80049e-13
7.59812e-13
5.60099e-13
2.80049e-13
3.13105e-13
8.91723e-13
2.33374e-13
7.12461e-13
2.72159e-13
3.13105e-13
2.51352e-13
4.42797e-13
2.37996e-13
4.20074e-13
1.06537e-12
5.60099e-13
6.68283e-13
3.30041e-13
8.31023e-13
8.27081e-13
3.30041e-13
2.33374e-13
3.30041e-13
5.84835e-13
2.33374e-13
2.80049e-13
5.21841e-13
7.59812e-13
3.9879e-13
3.55465e-13
4.20074e-13
2.95198e-13
5.13424e-13
2.33374e-13
2.33374e-13
0
2.33374e-13
2.33374e-13
2.37996e-13
5.60099e-13
8.71959e-13
7.93473e-13
7.93473e-13
7.46798e-13
4.66749e-13
5.21841e-13
8.86823e-13
5.21841e-13
4.66749e-13
3.30041e-13
0
4.66749e-14
4.20074e-13
2.80049e-13
3.73399e-13
3.30041e-13
6.60083e-13
1.06537e-12
2.33374e-13
5.63975e-13
0
5.13424e-13
5.63975e-13
0
0
2.80049e-13
5.90396e-13
1.40025e-13
9.81283e-13
1.40025e-13
6.06774e-13
8.60643e-13
24.0706
32.621
38.8326
42.3335
45.229
49.7265
49.1867
41.8857
38.3817
39.2106
35.5524
29.1453
26.0222
22.5185
18.8391
15.6205
12.6217
6.97151
5.2006
6.68709
7.69136
6.27303
5.89152
5.73884
5.3756
3.95234
2.67565
2.13112
1.20982
0.198738
0.163447
0.247238
0.452725
0.735197
0.531668
0.549835
0.539525
0.496837
0.68878
0.467955
0.0373558
0.231446
0.533652
0.770048
0.974134
1.13763
1.13177
0.944089
0.627347
0.403424
0.491881
0.542298
0.344029
0.0275216
0.208424
0.485091
0.832124
1.16317
1.23002
1.16566
1.07924
0.933216
0.64342
0.33227
0.259303
0.422602
0.465887
0.32115
0.321359
0.507081
0.806942
1.27316
1.3373
0.609099
0.391785
0.300313
0.191959
0.070414
0.161089
0.167916
9.62002
22.542
36.9502
50.2337
60.5947
73.317
86.6596
87.5531
85.0903
88.7965
90.2049
79.8481
70.8483
58.0979
43.4492
28.2179
13.5738
6.70546
7.58887
10.1025
12.5828
12.5491
11.6632
11.0308
10.656
8.36953
4.93427
3.21393
2.04647
1.69062
1.62323
1.85076
2.16696
2.42138
2.19056
2.18051
2.16492
2.03713
1.48605
1.01206
0.917656
0.978572
1.39414
2.09667
2.6368
2.85209
2.84673
2.60945
2.18339
1.50232
0.911739
0.579338
0.450749
0.414946
0.636401
1.12777
1.70502
2.31014
2.63023
2.65942
2.59456
2.29656
1.69701
1.05442
0.671818
0.288795
0.0875975
0.13932
0.437739
0.909194
1.33105
1.89799
2.39863
1.68089
1.19725
1.01802
0.592665
0.406929
0.470457
0.636702
4.84291e-06
0.0189612
0.0583442
1.89321
5.99352
9.6482
17.7422
32.7616
44.0205
52.3532
66.1498
74.6976
78.6709
79.9631
76.0685
66.3418
45.6514
31.4332
17.0324
6.25602
1.55998
4.76747
5.18162
5.2365
6.32973
8.38508
7.97119
6.70775
6.42224
6.15167
5.21479
4.99885
4.51074
3.73827
3.34832
2.92594
2.90336
3.03124
2.93876
2.77987
2.59877
2.44141
2.47367
2.91582
3.4857
3.69483
3.73955
3.74617
3.65378
3.28571
2.92826
2.65319
2.27354
1.91808
1.77084
1.86243
2.15431
2.46305
2.83343
3.15909
3.29599
3.19671
2.97527
2.73145
2.37259
2.01966
1.80341
1.65999
1.51106
1.58434
1.91002
2.26002
2.58049
2.46563
1.82299
1.51382
1.40556
1.26728
1.30051
1.56007
2.48054e-09
2.23338e-07
1.03173e-07
1.06224e-06
1.95414e-06
7.81022e-05
2.47004e-05
0.0204205
0.0842959
0.697037
3.69029
13.3684
24.1996
42.7148
64.9819
88.8126
98.7654
95.2163
85.5707
62.8512
45.6917
29.5069
16.6257
7.19411
2.2553
5.77825
9.00459
9.32136
8.78624
8.37755
7.17841
5.07551
3.68829
3.26235
3.40219
3.37548
3.15386
3.01029
2.99075
2.98476
2.97643
2.81694
2.67101
2.54919
2.61212
2.77233
3.02153
3.35645
3.74096
3.80645
3.66817
3.59283
3.56253
3.44515
3.07325
2.66471
2.41319
2.29665
2.32085
2.53646
2.85577
3.06925
3.22962
3.32431
3.35103
3.45202
3.45695
3.27083
3.01281
2.72291
2.64985
2.63136
2.72347
2.91455
2.48235
2.0828
2.00375
1.97089
2.01908
2.35682
7.65439e-12
8.95672e-11
1.7249e-10
6.39941e-11
3.17382e-10
2.16831e-09
2.96936e-08
1.01224e-08
5.8399e-07
1.28601e-07
1.95836e-06
6.38069e-06
0.0337484
0.0678133
2.00109
10.4163
35.234
61.5288
92.6268
101.661
96.3893
90.0199
72.1776
54.6774
33.684
18.7675
9.10555
1.18658
0.979875
2.02415
2.80888
2.68226
1.7479
2.39855
3.38178
4.01279
3.92799
3.40889
2.95832
2.53312
2.21252
1.87641
1.79571
1.61518
1.19802
1.0342
1.16071
1.45309
2.03896
2.76422
3.20421
3.44437
3.62727
3.74081
3.62904
3.14415
2.68328
2.31028
1.93604
1.64847
1.57113
1.74715
2.19587
2.77789
3.42055
3.99696
4.18087
4.06673
3.86729
3.57581
3.30726
3.1649
3.06804
2.98541
2.82874
2.65224
2.52217
2.46491
2.40405
2.59151
6.59484e-13
5.10058e-13
1.29867e-12
8.29674e-13
1.18444e-12
2.9735e-12
3.03528e-11
4.86797e-11
4.08158e-10
1.40625e-10
2.13016e-10
1.05869e-10
6.57915e-08
2.26193e-07
8.98927e-07
5.47829e-06
0.0565132
0.531447
5.75641
28.651
52.8902
79.9372
96.7658
102.542
99.5765
81.6828
65.1829
44.2718
27.8108
14.8645
5.87332
1.94529
1.52124
2.37875
2.01898
2.15801
2.32108
2.145
1.67645
1.1768
1.14873
1.2254
0.992602
0.561063
0.162945
0.245878
0.363337
0.374327
0.198738
0.550706
1.38067
2.04635
2.3268
2.49954
2.78241
2.80852
2.22958
1.76107
1.45914
1.15474
0.866441
0.790143
0.931891
1.38071
2.09528
2.74126
3.12782
3.32343
3.34301
3.14479
2.78217
2.61675
2.59342
2.54165
2.64852
2.6277
2.49901
2.43769
2.36818
2.27866
3.24714e-13
3.16325e-13
4.28767e-13
1.14231e-12
8.19039e-13
8.16865e-13
1.41874e-12
1.16544e-12
1.94061e-12
9.07777e-13
1.50895e-12
1.85022e-12
1.24455e-10
1.32304e-09
1.57374e-09
5.22512e-10
2.29158e-06
1.58497e-06
1.60467e-05
0.0401507
0.169864
2.86236
19.1486
41.5934
72.5828
93.5303
103.288
101.841
85.3365
68.1248
44.2012
27.509
14.0182
7.60287
6.3238
4.49569
3.93111
2.86434
1.43859
0.549373
0.808069
1.49942
1.43961
0.834556
0.253214
0.224707
0.803076
1.18019
1.35704
1.45173
1.35635
0.753483
0.260953
0.618064
0.879024
1.41765
1.75692
1.66384
1.45608
1.15824
0.844343
0.652172
0.517137
0.455489
0.451041
0.567639
1.01912
1.36994
1.58504
1.6245
1.44821
1.24288
1.47332
2.03764
2.55775
2.75861
2.66222
2.27656
2.09267
1.85607
3.81233e-13
8.77844e-13
1.32726e-12
8.77524e-13
6.14626e-13
9.76652e-13
1.36051e-12
4.91504e-14
1.4084e-12
2.4116e-12
2.41051e-12
2.23128e-12
9.04579e-13
2.82089e-12
7.52808e-13
2.52312e-12
1.96825e-10
1.15143e-10
1.29996e-08
1.93541e-05
2.08693e-06
6.05615e-06
0.000780133
0.010512
1.8951
14.623
33.1849
62.8125
87.2303
104.535
103.114
88.7534
71.4468
48.9795
31.8424
19.4452
12.4242
7.84683
3.9306
1.83237
0.73038
0.239064
0.529892
0.689899
0.512
0.527665
0.495263
0.694585
1.36008
1.85122
2.41552
2.7005
2.24555
1.56329
1.1817
0.748697
0.210272
0.771898
1.10491
1.34623
1.33763
1.08933
0.654759
0.111065
0.3813
0.70587
0.62034
0.462291
0.498258
0.696538
0.854969
0.697385
0.572446
1.28012
1.85857
2.25207
2.49773
2.4307
1.81564
1.40376
1.02249e-12
7.45583e-13
1.47406e-12
1.05841e-12
1.19557e-12
9.12217e-13
2.48348e-12
1.08131e-12
1.23751e-13
5.32437e-13
9.58082e-13
7.65373e-13
1.211e-12
1.19214e-12
1.1434e-12
9.48043e-13
1.18644e-12
2.47016e-12
7.9239e-12
1.48564e-08
3.01797e-09
5.04788e-09
1.33842e-06
6.13546e-06
3.74536e-06
0.00035334
0.0486432
1.18159
11.0189
27.0856
58.6689
85.2487
105.105
102.11
87.236
71.5761
48.119
30.8073
17.6461
12.665
9.49215
6.30418
4.61633
3.21155
1.9964
0.673436
0.53675
0.800476
0.356008
0.700255
1.43388
2.38831
3.22296
3.25143
2.97271
2.6974
2.25244
1.41856
0.608962
0.0599798
0.478472
0.774036
0.852759
0.649755
0.173028
0.511453
1.02244
1.11286
1.09436
1.00843
1.07622
0.859119
0.45251
0.203245
0.236014
0.606247
0.961103
1.5612
1.68119
0.890103
4.82226e-13
6.77723e-13
6.84813e-13
1.06036e-12
7.11067e-13
2.44219e-12
1.41164e-12
2.05732e-12
2.95187e-13
6.48097e-13
6.90427e-13
5.13459e-13
1.03168e-12
1.39423e-12
2.63635e-12
2.2872e-12
2.59413e-12
2.1532e-12
2.89506e-12
5.43396e-12
4.24571e-12
1.32515e-11
4.87219e-10
2.94161e-09
7.10978e-09
4.46376e-08
2.78643e-06
1.83928e-06
0.000284369
0.0401049
1.0747
8.98908
25.7179
57.1773
84.1063
103.595
100.754
88.754
70.7511
48.2139
32.9574
20.4183
13.6563
8.64402
5.29234
2.81555
1.07855
0.541494
0.656801
0.496271
0.28335
0.368309
1.26049
2.29595
2.9665
3.30273
3.34079
3.20111
2.80007
2.27248
1.65518
0.998042
0.468784
0.289804
0.472826
0.395584
0.404629
0.737386
0.883271
1.03004
1.26675
1.30943
1.35674
1.50116
1.50112
1.1159
0.493464
0.100521
0.729848
0.784913
3.11624e-13
6.42485e-13
4.70027e-13
6.752e-13
8.7179e-13
1.20998e-12
2.75595e-12
2.50619e-13
1.17895e-12
3.86968e-13
2.1291e-12
1.06365e-12
7.205e-13
2.03381e-12
2.34185e-12
1.2201e-12
4.46143e-13
1.78666e-12
1.52583e-12
2.96893e-12
2.46257e-12
2.5096e-12
5.5707e-12
2.84232e-12
1.19478e-11
9.12669e-11
1.85123e-09
3.053e-09
5.86542e-08
1.61478e-06
1.58295e-06
0.000749154
0.0265651
1.33983
8.18506
22.8344
56.3253
85.4816
105.101
97.8277
85.9875
67.9118
43.8539
26.6272
17.4911
13.7049
9.40629
5.37333
2.42143
1.03892
0.521866
0.248665
0.572499
0.497011
0.782017
1.40284
2.13073
2.97537
3.54545
3.67091
3.53803
3.22048
2.6597
1.9435
1.20066
0.7124
0.590356
0.548736
0.477403
0.717177
0.871967
0.779608
1.50673
1.8428
2.16028
2.2797
2.00584
1.36691
0.730684
0.116153
9.78074e-13
8.7334e-13
3.56071e-13
1.16723e-12
1.64708e-12
1.06394e-12
5.84784e-13
1.73773e-12
1.17204e-12
8.98943e-13
1.33633e-12
2.11747e-12
5.25806e-13
1.43358e-12
9.85944e-13
8.39918e-13
1.82148e-12
5.88996e-13
1.58315e-12
1.22886e-12
2.05813e-12
1.82236e-12
9.69157e-13
2.9776e-12
1.44777e-12
1.1816e-12
2.88875e-12
7.1431e-12
5.37582e-10
1.32357e-09
2.43196e-09
1.00113e-06
7.99465e-05
3.75679e-05
0.00117967
0.0130927
1.52421
8.36669
27.582
61.3491
88.2834
105.207
97.3417
82.074
60.67
41.7769
27.1488
16.8755
10.3633
6.9805
4.85072
2.37402
0.875658
0.41157
0.46482
0.433581
0.321393
0.18438
1.00106
2.34378
3.38072
3.79776
3.65537
3.34139
2.94241
2.45808
1.81694
1.14473
0.74047
0.677887
1.05458
1.29552
0.589389
1.32805
2.14185
2.58228
3.07212
3.03652
2.15842
1.04884
4.68379e-13
6.62794e-13
1.41361e-12
1.19147e-12
9.40287e-13
1.21463e-12
7.43393e-13
1.20345e-12
1.59444e-12
5.03535e-13
1.10769e-12
1.0558e-12
7.33691e-13
3.13234e-13
1.28174e-12
1.34265e-12
2.83408e-12
1.45241e-12
1.72127e-12
1.38949e-12
5.95387e-13
2.70913e-12
2.83699e-12
1.62684e-12
1.01337e-12
1.35962e-12
1.60656e-12
2.1346e-12
1.60892e-12
2.32848e-12
4.09943e-11
3.66978e-09
9.89095e-08
9.1532e-08
1.60592e-05
0.000157286
0.000277167
0.00889132
0.0477804
2.45615
9.48213
31.8165
68.9363
97.6973
103.545
93.0398
77.557
52.3762
30.1141
18.0727
13.9999
10.423
6.1235
3.54404
2.0388
0.825315
0.233137
0.723335
0.826645
0.626844
0.714295
1.43348
2.2151
2.85017
3.19096
3.15945
3.03833
3.00331
2.69365
1.955
1.20105
0.641524
1.18201
1.01499
1.17159
2.35162
2.72839
3.13651
3.10049
1.72729
1.41001e-13
9.28319e-13
7.85174e-13
1.24263e-12
1.35973e-12
4.73985e-13
6.05791e-13
1.51696e-12
1.37021e-12
1.85014e-12
1.70031e-12
5.62958e-13
8.41879e-13
1.51141e-12
8.32909e-13
2.17548e-12
2.03691e-13
2.86652e-12
5.70831e-13
2.69266e-12
2.98899e-12
2.61813e-12
7.6955e-13
4.97277e-13
1.76077e-12
1.92285e-12
3.37736e-12
4.12576e-12
3.88967e-12
4.28278e-12
3.58064e-12
4.94678e-11
1.73837e-09
2.23871e-09
5.87104e-08
1.18635e-06
2.93081e-06
8.04609e-05
0.000281272
0.00100512
0.00799386
0.186354
3.9341
14.9557
44.1689
77.2033
102.901
103.591
86.5275
61.6983
40.1628
25.8768
15.8334
9.88335
7.25549
5.4851
3.29447
1.45458
0.80408
0.347963
0.541611
0.481735
0.496112
0.156251
0.523688
1.54429
2.64077
3.45825
3.95324
3.78625
3.21888
2.31218
1.35415
0.834095
1.14366
0.668762
1.5914
2.12198
2.72799
2.45609
4.14696e-13
2.44528e-13
9.0767e-13
6.35175e-13
4.04315e-13
5.39464e-13
1.14423e-12
6.57156e-13
1.23079e-12
8.68892e-13
1.51103e-12
1.3503e-12
1.70626e-12
2.0923e-12
1.56088e-12
1.0525e-12
5.37178e-13
6.34595e-13
1.57934e-12
1.99216e-12
1.62742e-12
2.4938e-12
9.90905e-13
3.16099e-12
6.83728e-13
1.62316e-12
3.30121e-12
2.24283e-12
2.6784e-12
1.16586e-13
2.23673e-12
2.12837e-12
3.34864e-12
2.57764e-12
1.37456e-09
6.53896e-09
8.60706e-08
9.77559e-08
9.69371e-06
8.24735e-06
0.000190901
0.000168961
0.000845841
0.00320635
0.806324
5.69214
22.0187
61.1583
98.404
108.114
95.5205
77.6674
51.6479
24.4834
10.6928
9.83305
8.75505
6.03325
4.22783
3.33259
2.03777
0.767488
0.560019
0.840133
0.924251
0.908252
0.670082
0.69488
2.61657
4.06459
4.32621
4.0543
2.98296
1.46545
0.503517
1.22711
0.614978
1.12322
2.05988
2.79675
2.45899e-13
5.03614e-13
3.23798e-13
2.08705e-13
1.44896e-13
2.45044e-13
6.82223e-13
1.92403e-12
1.11374e-13
1.46587e-12
9.08093e-13
3.45123e-13
1.56772e-12
1.28306e-12
1.37822e-12
1.81401e-12
1.10541e-12
2.03769e-12
2.31469e-12
1.61225e-12
1.83786e-12
1.71206e-12