/*--------------------------------*- C++ -*----------------------------------*\
| =========                 |                                                 |
| \\      /  F ield         | OpenFOAM: The Open Source CFD Toolbox           |
|  \\    /   O peration     | Version:  v1912                                 |
|   \\  /    A nd           | Website:  www.openfoam.com                      |
|    \\/     M anipulation  |                                                 |
\*---------------------------------------------------------------------------*/
FoamFile
{
    version     2.0;
    format      ascii;
    class       volVectorField;
    location    "5.38";
    object      grad(p);
}
// * * * * * * * * * * * * * * * * * * * * * * * * * * * * * * * * * * * * * //

dimensions      [1 -2 -2 0 0 0 0];


internalField   nonuniform List<vector> 
1900
(
(131253 0.399283 0)
(-129094 -0.928913 0)
(-7772.98 0.36173 0)
(-993.986 -1.72092 0)
(-807.668 -1.46772 0)
(-575.263 0.332244 0)
(-629.525 3.14411 0)
(-687.876 21.8301 0)
(-670.261 66.5557 0)
(168.985 -37.4052 0)
(131252 0.364368 0)
(-129094 -1.02352 0)
(-7773.77 0.424052 0)
(-995.816 -1.12125 0)
(-805.615 0.271389 0)
(-570.651 4.47968 0)
(-608.027 6.74622 0)
(-624.464 8.03828 0)
(-729.496 15.8509 0)
(-849.116 -95.7956 0)
(131252 -5.3646e-08 0)
(-129094 6.26521e-08 0)
(-7773.08 -5.06084e-08 0)
(-994.139 -2.66454e-09 0)
(-802.067 1.40332e-09 0)
(-568.788 3.17968e-09 0)
(-625.966 1.98952e-09 0)
(-678.771 1.06581e-09 0)
(-774.095 1.72307e-09 0)
(-952.88 -1.01252e-09 0)
(131252 -0.364368 0)
(-129094 1.02352 0)
(-7773.77 -0.424052 0)
(-995.816 1.12125 0)
(-805.615 -0.271389 0)
(-570.651 -4.47968 0)
(-608.027 -6.74622 0)
(-624.464 -8.03828 0)
(-729.496 -15.8509 0)
(-849.116 95.7956 0)
(131253 -0.399283 0)
(-129094 0.928913 0)
(-7772.98 -0.36173 0)
(-993.986 1.72092 0)
(-807.668 1.46772 0)
(-575.263 -0.332244 0)
(-629.525 -3.14411 0)
(-687.876 -21.8301 0)
(-670.261 -66.5557 0)
(168.985 37.4052 0)
(-616.385 -826.923 8.9598e-12)
(-2186.99 -705.72 -1.04709e-11)
(-2191.58 -755.926 -1.31179e-11)
(353.06 -1123.65 0)
(-16383.6 -8563.9 -5.6778e-11)
(-1209.25 -973.029 8.81038e-12)
(-1641.83 -830.545 1.04709e-11)
(-2079.6 -935.758 1.31179e-11)
(-2544.14 -977.328 0)
(-15496.4 -7226.66 0)
(-1559.82 -9.17141e-10 0)
(-1857.17 -1.1297e-09 0)
(-2119.6 -2.39315e-09 0)
(-2235.42 -9.08364e-10 0)
(-18380.1 -1.74464e-09 0)
(-1209.25 973.029 8.81038e-12)
(-1641.83 830.545 1.04709e-11)
(-2079.6 935.758 1.31179e-11)
(-2544.14 977.328 0)
(-15496.4 7226.66 0)
(-616.385 826.923 -2.65806e-11)
(-2186.99 705.72 -1.04709e-11)
(-2191.58 755.926 -1.31179e-11)
(353.06 1123.65 -3.51285e-11)
(-16383.6 8563.9 5.6778e-11)
(-31457.6 11291.5 1.21076e-11)
(-5306.39 3329.57 -7.85148e-12)
(-1807.63 1817.16 0)
(-3385.33 1153.3 5.36009e-12)
(-7046.81 1618.91 -2.09234e-12)
(-27543.3 13492.6 -6.22384e-12)
(-7409.82 2313.25 3.97588e-12)
(-2353.05 580.475 0)
(-3308.05 393.621 -3.37473e-12)
(-6567.41 894.554 5.42009e-13)
(-28999.2 -4.48575e-11 0)
(-8568.25 1.13869e-10 0)
(-2484.26 1.69412e-09 0)
(-3301.06 -1.74153e-09 1.35463e-12)
(-6344.85 5.16806e-09 -1.08402e-12)
(-27543.3 -13492.6 -6.22384e-12)
(-7409.82 -2313.25 3.97588e-12)
(-2353.05 -580.475 0)
(-3308.05 -393.621 -3.37473e-12)
(-6567.41 -894.554 5.42009e-13)
(-31457.6 -11291.5 6.22384e-12)
(-5306.39 -3329.57 -1.00276e-13)
(-1807.63 -1817.16 0)
(-3385.33 -1153.3 3.47337e-14)
(-7046.81 -1618.91 2.09234e-12)
(-6670.01 4045.62 0)
(-706.378 -222.116 0)
(2594.86 -32.9283 0)
(2102.89 1350.02 0)
(-40.8563 1262.34 0)
(-1310.12 804.663 0)
(-1572.01 418.933 0)
(-1274.47 180.611 0)
(-842.576 76.0447 0)
(-574.041 31.4582 0)
(-491.977 17.5354 0)
(-460.625 21.8875 0)
(-401.092 16.4647 0)
(-297.816 6.73079 0)
(-186.697 0.548512 0)
(-112.698 -1.18692 0)
(-78.3129 -1.24583 0)
(-63.8002 -1.08551 0)
(-55.2874 -1.05166 0)
(-47.2252 -1.13917 0)
(-38.6639 -1.26039 0)
(-30.7379 -1.35108 0)
(-23.7897 -1.4009 0)
(-17.7651 -1.42862 0)
(-12.5438 -1.45066 0)
(-8.02629 -1.48821 0)
(-3.44774 -1.52968 0)
(2.34702 -1.58954 0)
(11.2068 -1.61871 0)
(20.6313 -1.57448 0)
(33.5365 -1.51864 0)
(44.8455 -1.1578 0)
(58.7569 -1.19005 0)
(67.8228 -0.238656 0)
(93.3772 -1.81948 0)
(124.144 0.828703 0)
(202.596 -0.976934 0)
(396.587 9.11598 0)
(3001.44 -10.7954 0)
(-2132.61 -434.193 0)
(-7128.07 2545.89 0)
(-1246.13 -202.8 0)
(2911.41 -190.972 0)
(2156.75 328.731 0)
(-216.505 389.715 0)
(-1426.46 406.813 0)
(-1639.05 256.259 0)
(-1316.35 93.6133 0)
(-858.909 32.0794 0)
(-579.982 12.2638 0)
(-492.665 4.49152 0)
(-460.278 10.1071 0)
(-402.545 6.09411 0)
(-299.162 2.1889 0)
(-187.345 -0.0923399 0)
(-112.828 -0.698428 0)
(-78.2939 -0.679781 0)
(-63.7758 -0.591075 0)
(-55.2858 -0.558107 0)
(-47.2395 -0.58303 0)
(-38.6805 -0.628429 0)
(-30.7497 -0.666221 0)
(-23.797 -0.691095 0)
(-17.7709 -0.710252 0)
(-12.5514 -0.730095 0)
(-8.03584 -0.758913 0)
(-3.46015 -0.788881 0)
(2.33398 -0.829538 0)
(11.2026 -0.859076 0)
(20.6329 -0.854156 0)
(33.5669 -0.844774 0)
(44.865 -0.689577 0)
(58.8502 -0.715084 0)
(67.7598 -0.151101 0)
(93.4985 -0.800775 0)
(124.287 0.846525 0)
(203.153 1.0224 0)
(396.5 6.05817 0)
(2998.32 1.29683 0)
(-2129.94 -17.0451 0)
(-6869.04 -5.28951e-08 0)
(-1502.56 1.03251e-07 0)
(2749.49 5.95039e-08 0)
(2271.82 -1.63909e-09 0)
(-18.1415 6.49178e-09 0)
(-1348.95 -2.11548e-09 0)
(-1663.12 2.01859e-10 0)
(-1339.69 -7.57778e-09 0)
(-866.242 -1.7376e-08 0)
(-582.067 -7.58585e-09 0)
(-492.604 3.16918e-09 0)
(-460.159 -9.34606e-09 0)
(-403.395 -4.30767e-09 0)
(-299.616 -7.602e-09 0)
(-187.537 -3.90395e-09 0)
(-112.869 -3.04403e-09 0)
(-78.2817 -5.5713e-10 0)
(-63.7648 -1.13041e-10 0)
(-55.285 -4.92535e-10 0)
(-47.2456 6.25762e-10 0)
(-38.6881 2.50709e-09 0)
(-30.7562 5.07069e-09 0)
(-23.8025 6.58059e-09 0)
(-17.7765 5.53093e-09 0)
(-12.558 3.29433e-09 0)
(-8.04339 7.10543e-10 0)
(-3.46829 -2.11548e-09 0)
(2.32659 -4.06543e-09 0)
(11.1997 -5.03839e-09 0)
(20.6355 -3.84743e-09 0)
(33.5843 2.8341e-09 0)
(44.8832 9.34606e-09 0)
(58.9136 6.97624e-09 0)
(67.7978 1.81269e-09 0)
(93.6674 3.61731e-09 0)
(124.675 1.99558e-08 0)
(204.112 1.28423e-08 0)
(396.667 5.1474e-09 0)
(2994.72 -7.84948e-08 0)
(-2128.03 -2.90176e-07 0)
(-7128.07 -2545.89 0)
(-1246.13 202.8 0)
(2911.41 190.972 0)
(2156.75 -328.731 0)
(-216.505 -389.715 0)
(-1426.46 -406.813 0)
(-1639.05 -256.259 0)
(-1316.35 -93.6133 0)
(-858.909 -32.0794 0)
(-579.982 -12.2638 0)
(-492.665 -4.49152 0)
(-460.278 -10.1071 0)
(-402.545 -6.09411 0)
(-299.162 -2.1889 0)
(-187.345 0.0923399 0)
(-112.828 0.698428 0)
(-78.2939 0.679781 0)
(-63.7758 0.591075 0)
(-55.2858 0.558107 0)
(-47.2395 0.58303 0)
(-38.6805 0.628429 0)
(-30.7497 0.666221 0)
(-23.797 0.691095 0)
(-17.7709 0.710252 0)
(-12.5514 0.730095 0)
(-8.03584 0.758913 0)
(-3.46015 0.788881 0)
(2.33398 0.829537 0)
(11.2026 0.859076 0)
(20.6329 0.854156 0)
(33.5669 0.844774 0)
(44.865 0.689577 0)
(58.8502 0.715084 0)
(67.7598 0.151101 0)
(93.4985 0.800775 0)
(124.287 -0.846525 0)
(203.153 -1.0224 0)
(396.5 -6.05817 0)
(2998.32 -1.29683 0)
(-2129.94 17.0451 0)
(-6670.01 -4045.62 0)
(-706.378 222.116 0)
(2594.86 32.9283 0)
(2102.89 -1350.02 0)
(-40.8563 -1262.34 0)
(-1310.12 -804.663 0)
(-1572.01 -418.933 0)
(-1274.47 -180.611 0)
(-842.576 -76.0447 0)
(-574.041 -31.4582 0)
(-491.977 -17.5354 0)
(-460.625 -21.8875 0)
(-401.092 -16.4647 0)
(-297.816 -6.73079 0)
(-186.697 -0.548512 0)
(-112.698 1.18692 0)
(-78.3129 1.24583 0)
(-63.8002 1.08551 0)
(-55.2874 1.05166 0)
(-47.2252 1.13917 0)
(-38.6639 1.26039 0)
(-30.7379 1.35108 0)
(-23.7897 1.4009 0)
(-17.7651 1.42862 0)
(-12.5438 1.45066 0)
(-8.02629 1.48821 0)
(-3.44774 1.52968 0)
(2.34702 1.58954 0)
(11.2068 1.61871 0)
(20.6313 1.57448 0)
(33.5365 1.51864 0)
(44.8455 1.1578 0)
(58.7569 1.19005 0)
(67.8228 0.238656 0)
(93.3772 1.81948 0)
(124.144 -0.828703 0)
(202.596 0.976934 0)
(396.587 -9.11598 0)
(3001.44 10.7954 0)
(-2132.61 434.193 0)
(915.586 -1826.99 0)
(688.138 -69.6906 0)
(2291.25 -151.964 0)
(1406.52 -1244.38 0)
(-77.5103 -1427.98 0)
(-1031.93 -1119.74 0)
(-1325.12 -620.16 0)
(-1149.68 -311.594 0)
(-784.233 -137.751 0)
(-550.15 -63.537 0)
(-487.457 -41.5782 0)
(-459.205 -39.5126 0)
(-394.719 -29.7847 0)
(-290.734 -12.6566 0)
(-183.127 -1.67419 0)
(-111.852 1.64164 0)
(-78.3355 1.83384 0)
(-63.8693 1.58459 0)
(-55.2503 1.57208 0)
(-47.1252 1.76451 0)
(-38.5667 2.00311 0)
(-30.6751 2.17783 0)
(-23.7568 2.27524 0)
(-17.7464 2.33205 0)
(-12.5227 2.37642 0)
(-7.99731 2.44606 0)
(-3.41093 2.53065 0)
(2.37475 2.63518 0)
(11.1884 2.68294 0)
(20.572 2.61084 0)
(33.3407 2.4659 0)
(44.6816 1.86636 0)
(58.3816 1.75034 0)
(68.0818 0.559855 0)
(92.9691 2.41238 0)
(123.924 -0.775641 0)
(198.599 0.965606 0)
(402.557 -16.5335 0)
(3272.8 10.6352 0)
(-2405.98 112.81 0)
(797.599 139.299 0)
(159.957 -118.035 0)
(1625.69 -825.02 0)
(1246.7 -1236.09 0)
(98.9098 -1396.72 0)
(-680.855 -1116.5 0)
(-925.642 -743.947 0)
(-876.52 -414.287 0)
(-634.825 -193.475 0)
(-494.177 -101.722 0)
(-471.249 -71.7007 0)
(-450.022 -59.0225 0)
(-378.63 -41.7363 0)
(-274.526 -18.17 0)
(-174.833 -3.08729 0)
(-109.771 1.94951 0)
(-78.3558 2.53943 0)
(-64.0154 2.32164 0)
(-55.1339 2.37739 0)
(-46.8634 2.69611 0)
(-38.3176 3.06778 0)
(-30.5094 3.34276 0)
(-23.6587 3.50942 0)
(-17.6777 3.62542 0)
(-12.4452 3.72726 0)
(-7.89321 3.86931 0)
(-3.28523 4.05163 0)
(2.4789 4.26357 0)
(11.1933 4.38427 0)
(20.454 4.32614 0)
(32.924 4.13734 0)
(44.2438 3.31844 0)
(57.6992 3.06594 0)
(68.3218 1.80084 0)
(92.3091 3.49438 0)
(122.868 0.0279431 0)
(189.554 0.232125 0)
(402.704 -19.4252 0)
(2980.57 5.09425 0)
(-2104.97 -378.077 0)
(936.077 321.9 0)
(-241.114 -118.993 0)
(1213.85 -445.518 0)
(855.61 -847.277 0)
(37.7364 -1119.38 0)
(-402.895 -942.234 0)
(-648.446 -709.415 0)
(-619.226 -414.58 0)
(-483.035 -220.794 0)
(-432.804 -132.406 0)
(-446.31 -101.021 0)
(-430.33 -77.2221 0)
(-355.352 -51.3544 0)
(-253.49 -22.8788 0)
(-163.74 -5.03099 0)
(-106.43 1.56079 0)
(-77.9769 2.77375 0)
(-64.0255 2.7978 0)
(-54.8894 3.01464 0)
(-46.46 3.4825 0)
(-37.9436 3.99086 0)
(-30.2495 4.37457 0)
(-23.4844 4.63255 0)
(-17.5365 4.84414 0)
(-12.2877 5.04773 0)
(-7.68474 5.28819 0)
(-3.03101 5.61445 0)
(2.69529 6.01602 0)
(11.2487 6.22502 0)
(20.3341 6.21483 0)
(32.3696 6.02018 0)
(43.6491 5.01647 0)
(56.9192 4.7127 0)
(68.4947 3.42926 0)
(91.2607 4.79982 0)
(120.78 1.16494 0)
(179.853 -0.791745 0)
(407.242 -15.3346 0)
(2927.19 17.4473 0)
(-2046.56 -111.88 0)
(993.128 182.315 0)
(-579.555 -223.23 0)
(923.893 -311.029 0)
(597.342 -731.455 0)
(7.40521 -847.418 0)
(-285.802 -789.381 0)
(-417.175 -600.011 0)
(-405.666 -365.095 0)
(-362.911 -222.479 0)
(-378.76 -153.105 0)
(-418.073 -122.364 0)
(-402.162 -90.8925 0)
(-326.263 -56.5202 0)
(-229.887 -25.4152 0)
(-151.283 -6.53931 0)
(-102.25 0.766762 0)
(-77.1638 2.47558 0)
(-63.7832 2.84822 0)
(-54.4741 3.29364 0)
(-45.9227 3.91558 0)
(-37.458 4.54285 0)
(-29.891 5.02757 0)
(-23.2062 5.38964 0)
(-17.2776 5.7267 0)
(-12.0173 6.07563 0)
(-7.34709 6.44986 0)
(-2.58386 6.89842 0)
(3.06726 7.53738 0)
(11.3849 7.85675 0)
(20.2566 7.89903 0)
(31.7692 7.6783 0)
(42.9838 6.5627 0)
(56.1697 6.15696 0)
(68.4058 4.88201 0)
(90.1271 5.60044 0)
(117.48 2.44452 0)
(173.655 -2.12956 0)
(420.28 -7.79291 0)
(2887.54 21.1405 0)
(-2013.98 -112.825 0)
(896.65 18.4854 0)
(-716.519 -210.654 0)
(724.106 -218.785 0)
(338.726 -624.626 0)
(-18.0831 -678.49 0)
(-164.486 -612.333 0)
(-239.588 -461.401 0)
(-255.423 -306.175 0)
(-278.754 -207.068 0)
(-336.33 -162.69 0)
(-386.36 -133.235 0)
(-366.88 -97.2232 0)
(-292.255 -57.0355 0)
(-205.327 -25.347 0)
(-138.51 -6.98093 0)
(-97.7427 0.227578 0)
(-75.9712 2.22005 0)
(-63.2372 2.93313 0)
(-53.8609 3.60011 0)
(-45.2562 4.3566 0)
(-36.8721 5.07784 0)
(-29.4335 5.65309 0)
(-22.8107 6.12953 0)
(-16.8754 6.61565 0)
(-11.5909 7.14143 0)
(-6.89187 7.69081 0)
(-1.98304 8.27966 0)
(3.61877 9.18388 0)
(11.5971 9.65722 0)
(20.1621 9.77233 0)
(31.0819 9.56451 0)
(42.1831 8.43663 0)
(55.2996 7.96963 0)
(67.9584 6.77366 0)
(88.9119 7.07623 0)
(113.331 4.80161 0)
(169.988 -0.407941 0)
(429.666 0.398196 0)
(2825.97 20.1513 0)
(-1958.21 -138.423 0)
(807.947 -24.4752 0)
(-808.198 -195.687 0)
(524.975 -236.986 0)
(154.353 -546.833 0)
(19.251 -481.717 0)
(-76.6066 -435.987 0)
(-122.15 -337.408 0)
(-160.582 -252.029 0)
(-224.644 -192.597 0)
(-307.612 -167.475 0)
(-354.986 -138.302 0)
(-328.733 -97.4423 0)
(-257 -54.9189 0)
(-181.652 -24.0841 0)
(-126.638 -7.11999 0)
(-93.3837 -0.298948 0)
(-74.5566 2.05088 0)
(-62.4533 3.15296 0)
(-53.1024 4.0634 0)
(-44.4987 4.9513 0)
(-36.2087 5.7538 0)
(-28.8776 6.40782 0)
(-22.2787 6.98461 0)
(-16.3025 7.59466 0)
(-10.9813 8.25038 0)
(-6.25025 8.91899 0)
(-1.14509 9.61968 0)
(4.39473 10.6628 0)
(11.9519 11.1584 0)
(20.1672 11.203 0)
(30.4821 10.8473 0)
(41.447 9.55108 0)
(54.5672 8.82028 0)
(67.5449 7.48517 0)
(88.2268 7.38137 0)
(110.268 5.50289 0)
(169.411 0.36275 0)
(440.092 5.40785 0)
(2753.76 19.5885 0)
(-1900 -156.299 0)
(684.494 -15.5293 0)
(-921.302 -184.628 0)
(385.728 -274.99 0)
(102.895 -375.549 0)
(88.7326 -323.971 0)
(-25.4245 -302.766 0)
(-62.3203 -250.709 0)
(-115.877 -209.952 0)
(-197.275 -183.863 0)
(-284.009 -168.328 0)
(-318.874 -136.196 0)
(-286.529 -90.9721 0)
(-221.565 -48.8525 0)
(-159.266 -20.4556 0)
(-115.589 -5.54068 0)
(-88.9053 0.727286 0)
(-72.6448 3.43186 0)
(-61.2978 4.85601 0)
(-52.1279 5.97876 0)
(-43.6272 6.94576 0)
(-35.4685 7.79271 0)
(-28.2475 8.50646 0)
(-21.667 9.16839 0)
(-15.6557 9.87937 0)
(-10.3147 10.6295 0)
(-5.57236 11.3733 0)
(-0.302682 12.1503 0)
(5.10156 13.2753 0)
(12.1178 13.7244 0)
(19.8623 13.6227 0)
(29.49 13.0272 0)
(40.2298 11.4566 0)
(53.3088 10.323 0)
(66.5718 8.63651 0)
(87.0017 8.10229 0)
(106.568 6.01623 0)
(169.896 1.73742 0)
(448.193 7.85701 0)
(2670.15 15.7074 0)
(-1826.47 -183.02 0)
(615.068 26.3513 0)
(-1058.22 -144.476 0)
(340.997 -230.31 0)
(107.153 -214.405 0)
(89.3868 -216.591 0)
(-6.00796 -216.659 0)
(-32.7102 -196.222 0)
(-96.1672 -181.481 0)
(-184.534 -175.847 0)
(-261.678 -161.655 0)
(-280.443 -125.7 0)
(-244.565 -79.9093 0)
(-189.048 -41.1284 0)
(-139.915 -16.147 0)
(-106.225 -3.32791 0)
(-84.7374 2.75225 0)
(-70.578 5.85391 0)
(-59.9991 7.67546 0)
(-51.0886 9.04874 0)
(-42.7507 10.118 0)
(-34.7047 11.0144 0)
(-27.5519 11.7729 0)
(-20.9557 12.4702 0)
(-14.8944 13.1916 0)
(-9.54164 13.9266 0)
(-4.78479 14.6259 0)
(0.687684 15.3427 0)
(5.91156 16.3906 0)
(12.2867 16.6133 0)
(19.4955 16.228 0)
(28.3948 15.261 0)
(38.841 13.3129 0)
(51.8497 11.6812 0)
(65.4049 9.61268 0)
(85.7018 8.59421 0)
(104.135 6.43322 0)
(171.185 3.33954 0)
(453.554 8.89964 0)
(2569.83 12.2255 0)
(-1738.78 -206.508 0)
(570.665 41.1448 0)
(-1168.63 -107.951 0)
(318.342 -179.096 0)
(116.115 -156.757 0)
(86.5608 -157.979 0)
(-5.79623 -165.305 0)
(-28.4215 -163.856 0)
(-96.2424 -166.981 0)
(-178.169 -170.041 0)
(-235.686 -150.921 0)
(-240.101 -110.95 0)
(-205.033 -66.6099 0)
(-160.121 -31.8917 0)
(-122.84 -10.0221 0)
(-97.3775 2.03434 0)
(-80.0574 8.40506 0)
(-67.9006 11.8534 0)
(-58.2192 14.194 0)
(-49.7742 15.8825 0)
(-41.733 17.1013 0)
(-33.8738 18.039 0)
(-26.8446 18.7539 0)
(-20.2999 19.3133 0)
(-14.2522 19.8073 0)
(-8.93258 20.2555 0)
(-4.20773 20.6577 0)
(1.39791 20.9789 0)
(6.32592 21.5464 0)
(11.961 21.165 0)
(18.5592 20.1385 0)
(26.681 18.476 0)
(36.7801 15.8518 0)
(49.7431 13.4716 0)
(63.5971 10.7691 0)
(83.9378 9.21221 0)
(101.504 6.88216 0)
(172.273 4.51182 0)
(456.756 8.75762 0)
(2462.57 7.18996 0)
(-1639.26 -228.147 0)
(550.692 74.6923 0)
(-1270.46 -70.5675 0)
(293.965 -132.928 0)
(127.502 -114.434 0)
(81.1504 -124.977 0)
(-11.672 -135.956 0)
(-34.3259 -144.713 0)
(-102.127 -155.275 0)
(-169.058 -155.969 0)
(-204.736 -130.703 0)
(-199.198 -90.1059 0)
(-168.382 -49.7811 0)
(-134.518 -19.9716 0)
(-107.223 -1.6303 0)
(-88.4683 9.52416 0)
(-75.2754 15.6873 0)
(-64.9996 19.4815 0)
(-56.1165 22.1856 0)
(-48.287 24.1012 0)
(-40.6726 25.4258 0)
(-33.1122 26.392 0)
(-26.324 27.0596 0)
(-19.9406 27.4894 0)
(-13.9865 27.8048 0)
(-8.72217 28.048 0)
(-4.08773 28.249 0)
(1.54411 28.2345 0)
(6.09086 28.4159 0)
(10.93 27.5434 0)
(16.9043 25.9788 0)
(24.2639 23.7161 0)
(34.0186 20.5016 0)
(46.9519 17.4333 0)
(61.3004 14.1207 0)
(81.9561 12.0818 0)
(99.6052 9.54941 0)
(172.992 7.66088 0)
(456.134 10.0245 0)
(2341.54 4.02301 0)
(-1525.85 -240.871 0)
(574.64 35.1417 0)
(-1368.7 -38.1527 0)
(276.071 -81.3203 0)
(123.777 -79.3617 0)
(65.8208 -102.606 0)
(-24.8148 -116.397 0)
(-47.0377 -131.548 0)
(-107.089 -141.813 0)
(-154.491 -135.302 0)
(-172.218 -105.006 0)
(-162.122 -66.4552 0)
(-137.449 -31.1255 0)
(-113.721 -6.04823 0)
(-94.4167 9.87613 0)
(-80.6897 19.2232 0)
(-70.4621 25.4364 0)
(-61.6386 29.8326 0)
(-53.7675 33.0228 0)
(-46.6519 35.2798 0)
(-39.5255 36.765 0)
(-32.2994 37.7082 0)
(-25.7872 38.1739 0)
(-19.5818 38.2716 0)
(-13.714 38.1983 0)
(-8.50458 38.0146 0)
(-4.02796 37.8637 0)
(1.55882 37.402 0)
(5.65995 37.0159 0)
(9.61256 35.6407 0)
(14.871 33.5068 0)
(21.4029 30.5915 0)
(30.7258 26.6859 0)
(43.5943 22.8527 0)
(58.4402 18.8719 0)
(79.5328 16.31 0)
(97.2439 13.5207 0)
(172.731 11.4527 0)
(453.25 12.8369 0)
(2220.8 4.52422 0)
(-1411.02 -261.774 0)
(547.79 1.38751 0)
(-1382.68 -13.8083 0)
(254.255 -44.6371 0)
(106.991 -58.5849 0)
(45.4614 -90.8863 0)
(-39.561 -102.79 0)
(-58.8176 -117.519 0)
(-105.745 -120.119 0)
(-133.589 -106.209 0)
(-138.393 -75.5748 0)
(-128.004 -41.364 0)
(-110.172 -12.4364 0)
(-95.007 8.4494 0)
(-82.8706 21.6693 0)
(-73.4739 29.9736 0)
(-65.0519 35.8264 0)
(-57.689 40.0132 0)
(-50.8673 43.0898 0)
(-44.6809 45.2902 0)
(-38.3326 46.7667 0)
(-31.7545 47.7382 0)
(-25.781 48.2498 0)
(-19.9171 48.4069 0)
(-14.2342 48.3939 0)
(-9.0446 48.241 0)
(-4.67804 48.1893 0)
(0.727124 47.713 0)
(4.39365 47.1173 0)
(7.54845 45.5925 0)
(12.0387 43.308 0)
(17.6911 40.1917 0)
(26.5612 36.0667 0)
(39.422 31.9744 0)
(54.9956 27.9958 0)
(76.7995 25.6347 0)
(94.9246 23.4205 0)
(172.334 21.9474 0)
(449.458 22.6012 0)
(2076.91 9.96553 0)
(-1277.96 -253.334 0)
(562.671 -61.5407 0)
(-1413.05 7.95028 0)
(232.922 -10.2059 0)
(79.2097 -32.8894 0)
(23.223 -72.5952 0)
(-50.4793 -82.9701 0)
(-63.736 -95.7026 0)
(-96.1907 -90.2796 0)
(-111.567 -70.9217 0)
(-109.731 -42.3193 0)
(-101.279 -12.8438 0)
(-89.4468 9.55137 0)
(-80.8555 25.3146 0)
(-73.6752 36.2478 0)
(-67.0474 44.0493 0)
(-60.7876 49.4448 0)
(-54.6393 53.4305 0)
(-48.6823 56.433 0)
(-43.1086 58.6825 0)
(-37.1665 60.1936 0)
(-30.8702 60.9919 0)
(-25.1428 61.1438 0)
(-19.4429 60.9806 0)
(-13.8739 60.8153 0)
(-8.70179 60.6308 0)
(-4.53668 60.6719 0)
(0.525795 60.1607 0)
(3.61655 59.4574 0)
(5.94186 57.9102 0)
(9.66661 55.7486 0)
(14.4249 52.79 0)
(22.8073 48.9112 0)
(35.8168 45.1713 0)
(52.3311 41.7681 0)
(75.1239 40.4414 0)
(93.6907 39.3033 0)
(171.941 38.2664 0)
(441.704 40.7129 0)
(1954.9 24.9312 0)
(-1176.5 -240.796 0)
(496.149 -128.159 0)
(-1333.21 30.5608 0)
(214.9 16.4752 0)
(46.8701 -10.562 0)
(-2.79822 -52.998 0)
(-61.8282 -57.5217 0)
(-65.8613 -65.0128 0)
(-81.8652 -54.0144 0)
(-87.3731 -32.4481 0)
(-82.4266 -6.4748 0)
(-78.0195 14.7242 0)
(-73.4008 31.8588 0)
(-69.2814 43.651 0)
(-64.8172 52.8259 0)
(-60.7567 59.1022 0)
(-56.0118 63.4995 0)
(-50.9549 66.3453 0)
(-45.8062 68.0586 0)
(-41.0571 69.0381 0)
(-36.1072 69.7496 0)
(-30.8389 70.7079 0)
(-25.7919 71.8125 0)
(-20.2336 72.7633 0)
(-14.5713 73.4427 0)
(-9.18275 73.7629 0)
(-5.13103 74.0474 0)
(-0.443274 73.6051 0)
(2.22498 73.1182 0)
(3.97451 71.8423 0)
(7.10469 70.1698 0)
(11.1025 67.6412 0)
(19.2195 64.3959 0)
(32.5386 61.426 0)
(50.4378 59.1622 0)
(74.4243 59.7721 0)
(92.8286 61.0614 0)
(173.692 62.4079 0)
(436.608 69.6816 0)
(1805.64 54.5693 0)
(-1069.94 -187.572 0)
(468.622 -8.22488 0)
(-1273.68 70.4527 0)
(193.295 50.7651 0)
(12.2628 22.9813 0)
(-22.029 -12.7117 0)
(-62.0572 -10.6576 0)
(-60.3563 -10.9788 0)
(-64.8102 2.05013 0)
(-65.7558 19.7482 0)
(-64.2736 38.1601 0)
(-64.3395 52.271 0)
(-61.5719 64.3677 0)
(-60.6508 73.4704 0)
(-58.7859 80.6654 0)
(-56.7619 86.1182 0)
(-53.8079 90.3012 0)
(-50.2459 93.3066 0)
(-46.0875 95.4256 0)
(-41.4791 96.8395 0)
(-35.5575 97.7511 0)
(-28.8823 98.4979 0)
(-23.1621 98.9449 0)
(-17.8719 99.0172 0)
(-12.9107 98.8785 0)
(-8.11913 98.4437 0)
(-4.68871 98.2095 0)
(-0.369621 97.3269 0)
(1.91787 96.7082 0)
(3.10073 95.3372 0)
(5.61829 93.8145 0)
(8.86091 91.3448 0)
(16.818 88.459 0)
(30.7735 85.9965 0)
(50.7373 84.5907 0)
(76.954 86.7254 0)
(96.2306 90.2372 0)
(180.248 93.2825 0)
(434.151 106.904 0)
(1707 96.4743 0)
(-1048.34 -8.13907 0)
(556.114 177.068 0)
(-1276.37 123.404 0)
(169.155 91.2629 0)
(-14.2985 66.5676 0)
(-35.2139 37.9056 0)
(-60.1582 38.0506 0)
(-53.6157 41.9595 0)
(-52.2555 53.5356 0)
(-52.5762 66.7083 0)
(-51.0865 77.9644 0)
(-52.765 88.4825 0)
(-52.9722 97.4131 0)
(-53.5763 104.298 0)
(-52.6293 111.688 0)
(-51.4713 118.385 0)
(-49.0847 124.631 0)
(-46.0169 129.403 0)
(-42.4018 131.986 0)
(-38.8161 132.572 0)
(-34.5091 132.358 0)
(-29.6886 132.998 0)
(-25.2915 134.293 0)
(-20.2977 134.589 0)
(-15.1239 132.943 0)
(-9.82739 129.619 0)
(-6.20725 126.875 0)
(-1.89 123.327 0)
(0.307625 121.059 0)
(1.18602 118.369 0)
(3.25749 116.705 0)
(5.94174 114.421 0)
(14.0657 112.133 0)
(28.811 110.064 0)
(51.1402 108.893 0)
(79.8654 111.433 0)
(99.1473 116.088 0)
(189.753 117.626 0)
(439.683 131.557 0)
(1694.78 131.864 0)
(-1155.07 181.329 0)
(758.168 478.587 0)
(-1356.36 213.898 0)
(138.525 185.333 0)
(-39.1543 154.279 0)
(-49.5091 124.58 0)
(-58.1508 121.725 0)
(-45.4343 127.316 0)
(-40.9613 136.542 0)
(-42.2153 149.166 0)
(-43.2912 157.842 0)
(-45.598 165.036 0)
(-46.3315 170.424 0)
(-46.8946 173.541 0)
(-45.2108 176.714 0)
(-44.2895 179.401 0)
(-43.1908 183.719 0)
(-43.1592 190.156 0)
(-43.0343 198.747 0)
(-41.12 207.804 0)
(-35.1463 213.613 0)
(-27.0182 214.284 0)
(-21.6295 209.946 0)
(-19.1729 202.469 0)
(-17.6996 196.917 0)
(-13.9659 193.509 0)
(-10.7517 193.954 0)
(-5.97464 195.086 0)
(-2.85976 195.838 0)
(-1.09513 196.829 0)
(1.81359 197.886 0)
(4.45554 198.727 0)
(12.6191 198.74 0)
(27.6514 198.082 0)
(52.0566 199.675 0)
(83.8874 205.203 0)
(102.198 218.453 0)
(195.154 226.161 0)
(447.871 235.375 0)
(1754.96 203.059 0)
(-1350.14 441.597 0)
(1223.42 10134.3 0)
(-1558.96 1249.88 0)
(111.704 727.16 0)
(-72.8419 635.934 0)
(-66.5842 620.685 0)
(-57.5216 601.232 0)
(-39.337 606.193 0)
(-31.2002 596.86 0)
(-32.0505 598.881 0)
(-35.7934 591.596 0)
(-40.6407 584.48 0)
(-44.7765 572.262 0)
(-47.5153 556.588 0)
(-46.9831 536.964 0)
(-44.7212 512.824 0)
(-38.72 487.101 0)
(-31.5353 460.587 0)
(-25.3961 437.967 0)
(-24.4907 425.945 0)
(-28.2642 420.182 0)
(-33.2221 420.381 0)
(-36.6769 428.222 0)
(-32.8527 433.202 0)
(-23.758 453.926 0)
(-12.6826 467.448 0)
(-4.68854 484.723 0)
(-0.0744498 497.704 0)
(1.98796 507.019 0)
(3.15969 514.739 0)
(5.08582 518.76 0)
(6.76412 519.95 0)
(13.4443 517.623 0)
(29.7118 511.655 0)
(58.0024 505.779 0)
(97.9608 501.918 0)
(119.344 509.669 0)
(206.06 528.868 0)
(417.421 497.818 0)
(1893.5 1064.89 0)
(-1776.28 9220.62 0)
(11728.3 159863 0)
(-10421.4 11977.9 0)
(-453.093 3266.43 0)
(-141.757 2993.56 0)
(-82.9495 2953.39 0)
(-72.1161 2985.79 0)
(-49.6475 3113.36 0)
(-48.0078 3198.29 0)
(-47.2872 3275.17 0)
(-57.1681 3342.46 0)
(-64.2297 3380.14 0)
(-73.2088 3399.47 0)
(-80.9091 3404.85 0)
(-87.3839 3388.75 0)
(-92.3388 3362.08 0)
(-93.5286 3325.45 0)
(-90.5067 3283.75 0)
(-76.4161 3237.21 0)
(-58.2585 3199.41 0)
(-40.5084 3162.02 0)
(-19.2699 3137.7 0)
(-9.27446 3111.38 0)
(5.59593 3074.42 0)
(15.3006 3022.74 0)
(15.7112 2954.01 0)
(18.4047 2880.57 0)
(15.5103 2797.95 0)
(13.5559 2695.19 0)
(10.2197 2587.2 0)
(6.83464 2462.22 0)
(3.35943 2334.15 0)
(4.62618 2178.04 0)
(16.2378 2040.83 0)
(42.6738 1857.54 0)
(87.6361 1735.06 0)
(128.167 1671.89 0)
(183.734 1717.78 0)
(964.398 1804.41 0)
(10160.6 9995.54 0)
(-11261.6 142593 0)
(166816 -172699 0)
(-152461 -12582.2 0)
(-8545.9 -3670.16 0)
(-374.499 -3243.63 0)
(-74.0783 -3134.42 0)
(96.629 -3080.68 0)
(165.444 -3159.86 0)
(124.728 -3200.85 0)
(106.873 -3239.47 0)
(65.3563 -3262.68 0)
(14.2928 -3247.97 0)
(-20.9695 -3210.86 0)
(-57.8387 -3150.24 0)
(-88.1978 -3066.87 0)
(-105.727 -2968.03 0)
(-114.199 -2861.33 0)
(-116.565 -2752.46 0)
(-106.669 -2646.45 0)
(-96.9441 -2562.47 0)
(-87.7276 -2485.39 0)
(-82.0236 -2429.39 0)
(-97.6609 -2380.27 0)
(-118.266 -2318.42 0)
(-139.781 -2263.35 0)
(-149.684 -2189.25 0)
(-155.079 -2124.32 0)
(-178.716 -2047.41 0)
(-201.096 -1954.96 0)
(-221.334 -1852.8 0)
(-238.766 -1735.88 0)
(-267.085 -1612.11 0)
(-269.203 -1462.2 0)
(-279.129 -1337.55 0)
(-236.657 -1189.39 0)
(-80.9439 -1136.25 0)
(102.699 -1196.33 0)
(333.761 -1375.83 0)
(8394.17 -1733.36 0)
(137563 -11087.6 0)
(-148817 -155031 0)
(166816 172699 0)
(-152461 12582.2 0)
(-8545.9 3670.16 0)
(-374.499 3243.63 0)
(-74.0783 3134.42 0)
(96.629 3080.68 0)
(165.444 3159.86 0)
(124.728 3200.85 0)
(106.873 3239.47 0)
(65.3563 3262.68 0)
(14.2928 3247.97 0)
(-20.9695 3210.86 0)
(-57.8387 3150.24 0)
(-88.1978 3066.87 0)
(-105.727 2968.03 0)
(-114.199 2861.33 0)
(-116.565 2752.46 0)
(-106.669 2646.45 0)
(-96.9441 2562.47 0)
(-87.7276 2485.39 0)
(-82.0236 2429.39 0)
(-97.6609 2380.27 0)
(-118.266 2318.42 0)
(-139.781 2263.35 0)
(-149.684 2189.25 0)
(-155.079 2124.32 0)
(-178.716 2047.41 0)
(-201.096 1954.96 0)
(-221.334 1852.8 0)
(-238.766 1735.88 0)
(-267.085 1612.11 0)
(-269.203 1462.2 0)
(-279.129 1337.55 0)
(-236.657 1189.39 0)
(-80.9439 1136.25 0)
(102.699 1196.33 0)
(333.761 1375.83 0)
(8394.17 1733.36 0)
(137563 11087.6 0)
(-148817 155031 0)
(11728.3 -159863 0)
(-10421.4 -11977.9 0)
(-453.093 -3266.43 0)
(-141.757 -2993.56 0)
(-82.9495 -2953.39 0)
(-72.1161 -2985.79 0)
(-49.6475 -3113.36 0)
(-48.0078 -3198.29 0)
(-47.2872 -3275.17 0)
(-57.1681 -3342.46 0)
(-64.2297 -3380.14 0)
(-73.2088 -3399.47 0)
(-80.9091 -3404.85 0)
(-87.3839 -3388.75 0)
(-92.3388 -3362.08 0)
(-93.5286 -3325.45 0)
(-90.5067 -3283.75 0)
(-76.4161 -3237.21 0)
(-58.2585 -3199.41 0)
(-40.5084 -3162.02 0)
(-19.2699 -3137.7 0)
(-9.27446 -3111.38 0)
(5.59593 -3074.42 0)
(15.3006 -3022.74 0)
(15.7112 -2954.01 0)
(18.4047 -2880.57 0)
(15.5103 -2797.95 0)
(13.5559 -2695.19 0)
(10.2197 -2587.2 0)
(6.83464 -2462.22 0)
(3.35943 -2334.15 0)
(4.62618 -2178.04 0)
(16.2378 -2040.83 0)
(42.6738 -1857.54 0)
(87.6361 -1735.06 0)
(128.167 -1671.89 0)
(183.734 -1717.78 0)
(964.398 -1804.41 0)
(10160.6 -9995.54 0)
(-11261.6 -142593 0)
(1223.42 -10134.3 0)
(-1558.96 -1249.88 0)
(111.704 -727.16 0)
(-72.8419 -635.934 0)
(-66.5842 -620.685 0)
(-57.5216 -601.232 0)
(-39.337 -606.193 0)
(-31.2002 -596.86 0)
(-32.0505 -598.881 0)
(-35.7934 -591.596 0)
(-40.6407 -584.48 0)
(-44.7765 -572.262 0)
(-47.5153 -556.588 0)
(-46.9831 -536.964 0)
(-44.7212 -512.824 0)
(-38.72 -487.101 0)
(-31.5353 -460.587 0)
(-25.3961 -437.967 0)
(-24.4907 -425.945 0)
(-28.2642 -420.182 0)
(-33.2221 -420.381 0)
(-36.6769 -428.222 0)
(-32.8527 -433.202 0)
(-23.758 -453.926 0)
(-12.6826 -467.448 0)
(-4.68854 -484.723 0)
(-0.0744498 -497.704 0)
(1.98796 -507.019 0)
(3.15969 -514.739 0)
(5.08582 -518.76 0)
(6.76412 -519.95 0)
(13.4443 -517.623 0)
(29.7118 -511.655 0)
(58.0024 -505.779 0)
(97.9608 -501.918 0)
(119.344 -509.669 0)
(206.06 -528.868 0)
(417.421 -497.818 0)
(1893.5 -1064.89 0)
(-1776.28 -9220.62 0)
(758.168 -478.587 0)
(-1356.36 -213.898 0)
(138.525 -185.333 0)
(-39.1543 -154.279 0)
(-49.5091 -124.58 0)
(-58.1508 -121.725 0)
(-45.4343 -127.316 0)
(-40.9613 -136.542 0)
(-42.2153 -149.166 0)
(-43.2912 -157.842 0)
(-45.598 -165.036 0)
(-46.3315 -170.424 0)
(-46.8946 -173.541 0)
(-45.2108 -176.714 0)
(-44.2895 -179.401 0)
(-43.1908 -183.719 0)
(-43.1592 -190.156 0)
(-43.0343 -198.747 0)
(-41.12 -207.804 0)
(-35.1463 -213.613 0)
(-27.0182 -214.284 0)
(-21.6295 -209.946 0)
(-19.1729 -202.469 0)
(-17.6996 -196.917 0)
(-13.9659 -193.509 0)
(-10.7517 -193.954 0)
(-5.97464 -195.086 0)
(-2.85976 -195.838 0)
(-1.09513 -196.829 0)
(1.81359 -197.886 0)
(4.45554 -198.727 0)
(12.6191 -198.74 0)
(27.6514 -198.082 0)
(52.0566 -199.675 0)
(83.8874 -205.203 0)
(102.198 -218.453 0)
(195.154 -226.161 0)
(447.871 -235.375 0)
(1754.96 -203.059 0)
(-1350.14 -441.597 0)
(556.114 -177.068 0)
(-1276.37 -123.404 0)
(169.155 -91.2629 0)
(-14.2985 -66.5676 0)
(-35.2139 -37.9056 0)
(-60.1582 -38.0506 0)
(-53.6157 -41.9595 0)
(-52.2555 -53.5356 0)
(-52.5762 -66.7083 0)
(-51.0865 -77.9644 0)
(-52.765 -88.4825 0)
(-52.9722 -97.4131 0)
(-53.5763 -104.298 0)
(-52.6293 -111.688 0)
(-51.4713 -118.385 0)
(-49.0847 -124.631 0)
(-46.0169 -129.403 0)
(-42.4018 -131.986 0)
(-38.8161 -132.572 0)
(-34.5091 -132.358 0)
(-29.6886 -132.998 0)
(-25.2915 -134.293 0)
(-20.2977 -134.589 0)
(-15.1239 -132.943 0)
(-9.82739 -129.619 0)
(-6.20725 -126.875 0)
(-1.89 -123.327 0)
(0.307625 -121.059 0)
(1.18602 -118.369 0)
(3.25749 -116.705 0)
(5.94174 -114.421 0)
(14.0657 -112.133 0)
(28.811 -110.064 0)
(51.1402 -108.893 0)
(79.8654 -111.433 0)
(99.1473 -116.088 0)
(189.753 -117.626 0)
(439.683 -131.557 0)
(1694.78 -131.864 0)
(-1155.07 -181.329 0)
(468.622 8.22488 0)
(-1273.68 -70.4527 0)
(193.295 -50.7651 0)
(12.2628 -22.9813 0)
(-22.029 12.7117 0)
(-62.0572 10.6576 0)
(-60.3563 10.9788 0)
(-64.8102 -2.05013 0)
(-65.7558 -19.7482 0)
(-64.2736 -38.1601 0)
(-64.3395 -52.271 0)
(-61.5719 -64.3677 0)
(-60.6508 -73.4704 0)
(-58.7859 -80.6654 0)
(-56.7619 -86.1182 0)
(-53.8079 -90.3012 0)
(-50.2459 -93.3066 0)
(-46.0875 -95.4256 0)
(-41.4791 -96.8395 0)
(-35.5575 -97.7511 0)
(-28.8823 -98.4979 0)
(-23.1621 -98.9449 0)
(-17.8719 -99.0172 0)
(-12.9107 -98.8785 0)
(-8.11913 -98.4437 0)
(-4.68871 -98.2095 0)
(-0.369621 -97.3269 0)
(1.91787 -96.7082 0)
(3.10073 -95.3372 0)
(5.61829 -93.8145 0)
(8.86091 -91.3448 0)
(16.818 -88.459 0)
(30.7735 -85.9965 0)
(50.7373 -84.5907 0)
(76.954 -86.7254 0)
(96.2306 -90.2372 0)
(180.248 -93.2825 0)
(434.151 -106.904 0)
(1707 -96.4743 0)
(-1048.34 8.13907 0)
(496.149 128.159 0)
(-1333.21 -30.5608 0)
(214.9 -16.4752 0)
(46.8701 10.562 0)
(-2.79822 52.998 0)
(-61.8282 57.5217 0)
(-65.8613 65.0128 0)
(-81.8652 54.0144 0)
(-87.3731 32.4481 0)
(-82.4266 6.4748 0)
(-78.0195 -14.7242 0)
(-73.4008 -31.8588 0)
(-69.2814 -43.651 0)
(-64.8172 -52.8259 0)
(-60.7567 -59.1022 0)
(-56.0118 -63.4995 0)
(-50.9549 -66.3453 0)
(-45.8062 -68.0586 0)
(-41.0571 -69.0381 0)
(-36.1072 -69.7496 0)
(-30.8389 -70.7079 0)
(-25.7919 -71.8125 0)