/*--------------------------------*- C++ -*----------------------------------*\
| =========                 |                                                 |
| \\      /  F ield         | OpenFOAM: The Open Source CFD Toolbox           |
|  \\    /   O peration     | Version:  v1912                                 |
|   \\  /    A nd           | Website:  www.openfoam.com                      |
|    \\/     M anipulation  |                                                 |
\*---------------------------------------------------------------------------*/
FoamFile
{
    version     2.0;
    format      ascii;
    class       volScalarField;
    location    "3e-05";
    object      rhoNMean;
}
// * * * * * * * * * * * * * * * * * * * * * * * * * * * * * * * * * * * * * //

dimensions      [0 -3 0 0 0 0 0];


internalField   nonuniform List<scalar> 
1300
(
1.266666667e+23
1.333333333e+23
4.8e+23
1.26e+24
6.8e+23
4.6e+23
8.466666667e+23
7.666666667e+23
6.2e+23
6.266666667e+23
1.933333333e+23
2.066666667e+23
7.733333333e+23
2.326666667e+24
1.166666667e+24
7.466666667e+23
1.02e+24
1.186666667e+24
8e+23
7.933333333e+23
1e+23
9.333333333e+22
6.533333333e+23
2.22e+24
1.14e+24
4.266666667e+23
1.153333333e+24
1.366666667e+24
9.8e+23
8.4e+23
6e+22
6.666666667e+22
5.8e+23
2.006666667e+24
1.113333333e+24
5.2e+23
1.173333333e+24
1.606666667e+24
1.006666667e+24
9.866666667e+23
3.333333333e+22
4.666666667e+22
5e+23
2.166666667e+24
1.18e+24
6.066666667e+23
1.14e+24
1.46e+24
1.093333333e+24
1.033333333e+24
3.333333333e+22
2.666666667e+22
5.066666667e+23
2.246666667e+24
1.02e+24
4.8e+23
1.226666667e+24
1.526666667e+24
1.3e+24
1.046666667e+24
2e+22
4e+22
4.8e+23
2.153333333e+24
9.466666667e+23
3.866666667e+23
1.106666667e+24
1.286666667e+24
1.033333333e+24
1.006666667e+24
2e+22
6.666666667e+21
6.733333333e+23
2.08e+24
9.6e+23
5.266666667e+23
1.08e+24
1.366666667e+24
9e+23
8.4e+23
1e-277
3.333333333e+22
6.4e+23
2.34e+24
9.133333333e+23
5.333333333e+23
1.193333333e+24
1.313333333e+24
1.1e+24
8.2e+23
1e-277
2e+22
4.666666667e+23
2.14e+24
9.133333333e+23
5.2e+23
1.02e+24
1.486666667e+24
9.666666667e+23
9.4e+23
6.666666667e+21
4e+22
5.466666667e+23
2.193333333e+24
9.4e+23
5.666666667e+23
1.02e+24
1.286666667e+24
9.533333333e+23
9.133333333e+23
1e-277
4.666666667e+22
6.133333333e+23
1.953333333e+24
1.026666667e+24
5.2e+23
1.22e+24
1.193333333e+24
1.073333333e+24
1.086666667e+24
6.666666667e+21
3.333333333e+22
5.2e+23
2.24e+24
1.1e+24
5e+23
1.066666667e+24
1.48e+24
9.333333333e+23
9.4e+23
1e-277
1e-277
5e+23
2.12e+24
1.02e+24
4.333333333e+23
1.106666667e+24
1.353333333e+24
8.866666667e+23
1.013333333e+24
1e-277
2.666666667e+22
4.8e+23
2.073333333e+24
9.733333333e+23
5.133333333e+23
1.126666667e+24
1.28e+24
1.06e+24
9e+23
6.666666667e+21
2.666666667e+22
5.6e+23
2.393333333e+24
8.933333333e+23
5.066666667e+23
1.193333333e+24
1.346666667e+24
9.6e+23
9.666666667e+23
1e-277
6.666666667e+21
5.666666667e+23
2.04e+24
8.933333333e+23
5.4e+23
1.126666667e+24
1.273333333e+24
9.8e+23
9.2e+23
1e-277
1e-277
5.533333333e+23
2.226666667e+24
1.02e+24
5.866666667e+23
1.1e+24
1.433333333e+24
9.533333333e+23
8.466666667e+23
1e-277
3.333333333e+22
6.466666667e+23
2.14e+24
9.866666667e+23
5.466666667e+23
9.266666667e+23
1.386666667e+24
1.16e+24
9.466666667e+23
1e-277
6.666666667e+21
5.733333333e+23
2.04e+24
8.4e+23
5.866666667e+23
1.02e+24
1.3e+24
1.02e+24
9.4e+23
5.546262226e+23
4.83238685e+23
5.216781301e+23
4.61273294e+23
4.502905928e+23
4.008684579e+23
4.61273294e+23
5.326608232e+23
3.843944117e+23
4.887300377e+23
4.447992441e+23
5.052040839e+23
4.502905965e+23
4.777473363e+23
5.436435251e+23
5.711002688e+23
5.491348693e+23
5.326608276e+23
5.326608276e+23
4.942213824e+23
5.216781301e+23
6.260137562e+23
6.095397049e+23
5.930656637e+23
6.589618486e+23
5.601175667e+23
6.644531973e+23
8.18210962e+23
7.468234223e+23
1.065321655e+24
7.523147772e+23
5.930656589e+23
5.161867814e+23
5.106954327e+23
4.887300337e+23
4.502905965e+23
4.722559915e+23
4.502905928e+23
5.765916175e+23
4.063598066e+23
4.777473363e+23
4.283252016e+23
5.656089201e+23
4.83238685e+23
5.381521764e+23
6.205224074e+23
5.052040798e+23
5.546262226e+23
5.656089201e+23
6.040483562e+23
5.052040839e+23
5.985570125e+23
5.875743102e+23
5.985570125e+23
5.765916175e+23
6.754358893e+23
7.578061259e+23
6.0953971e+23
6.699445406e+23
8.621417519e+23
8.895984956e+23
8.511590474e+23
7.468234284e+23
6.260137562e+23
6.26013751e+23
5.985570125e+23
5.656089201e+23
5.271694745e+23
5.546262226e+23
5.106954327e+23
5.875743102e+23
5.765916175e+23
5.491348738e+23
5.052040798e+23
5.985570125e+23
5.491348738e+23
5.326608232e+23
6.809272436e+23
6.205224074e+23
5.820829615e+23
6.644531973e+23
5.985570125e+23
6.205224023e+23
6.369964537e+23
7.028926385e+23
6.150310536e+23
6.699445461e+23
6.91909941e+23
8.127196066e+23
7.742801721e+23
1.08728705e+24
9.994254622e+23
8.841071469e+23
8.346850082e+23
7.632974683e+23
6.754358948e+23
7.028926385e+23
6.589618432e+23
6.315051049e+23
5.820829663e+23
5.820829615e+23
5.765916175e+23
5.711002688e+23
6.315050997e+23
5.930656637e+23
6.315051049e+23
6.424877971e+23
5.271694789e+23
6.589618486e+23
6.589618432e+23
7.028926385e+23
6.260137562e+23
6.699445406e+23
7.468234284e+23
7.687888234e+23
7.028926327e+23
6.91909941e+23
8.950898444e+23
7.413320736e+23
8.40176357e+23
1.383819882e+24
1.037864903e+24
1.015899517e+24
1.08728705e+24
9.774600674e+23
8.40176357e+23
8.895984956e+23
8.017369092e+23
6.809272436e+23
6.754358948e+23
6.754358893e+23
6.974012898e+23
6.150310587e+23
6.424877971e+23
5.656089201e+23
6.644531973e+23
7.907542118e+23
5.711002688e+23
9.060725418e+23
6.479791458e+23
7.193666847e+23
8.127196133e+23
7.68788817e+23
7.523147772e+23
7.523147772e+23
8.456676987e+23
7.962455671e+23
7.632974746e+23
6.589618432e+23
7.578061259e+23
1.169657281e+24
1.367345825e+24
1.191622676e+24
1.153183235e+24
9.719687187e+23
1.17514863e+24
9.22546588e+23
8.841071396e+23
9.280379368e+23
8.841071469e+23
7.797715144e+23
8.841071469e+23
7.632974746e+23
7.907542118e+23
7.248580335e+23
7.083839873e+23
7.248580275e+23
7.13875336e+23
7.797715208e+23
7.248580275e+23
7.523147772e+23
7.248580335e+23
6.754358893e+23
7.248580335e+23
7.852628696e+23
7.413320736e+23
8.566504032e+23
8.18210962e+23
8.017369092e+23
9.280379368e+23
1.125726491e+24
1.131217831e+24
1.13121784e+24
1.213588071e+24
9.829514161e+23
1.114743794e+24
1.021390865e+24
9.774600674e+23
1.070813004e+24
9.44511983e+23
8.95089837e+23
8.127196133e+23
8.072282645e+23
7.907542118e+23
8.511590544e+23
8.895984956e+23
7.742801657e+23
8.895984956e+23
7.523147772e+23
7.413320736e+23
8.291936595e+23
7.852628696e+23
7.358407249e+23
8.072282645e+23
7.962455671e+23
8.182109553e+23
7.632974746e+23
8.291936595e+23
9.609860213e+23
7.578061259e+23
1.13121784e+24
1.142200528e+24
1.246536164e+24
1.147691886e+24
1.142200528e+24
1.328906395e+24
1.186131327e+24
1.037864903e+24
1.114743794e+24
1.125726491e+24
9.939341135e+23
1.026882214e+24
9.774600754e+23
8.182109553e+23
8.786157981e+23
8.237023108e+23
7.413320736e+23
9.500033317e+23
8.18210962e+23
7.193666788e+23
7.742801721e+23
9.66477378e+23
7.68788817e+23
7.468234284e+23
9.115638906e+23
8.456676987e+23
7.248580335e+23
9.44511983e+23
8.346850014e+23
8.895984956e+23
1.153183235e+24
1.032373554e+24
1.021390865e+24
1.213588071e+24
1.103761087e+24
1.202605374e+24
1.202605374e+24
1.103761087e+24
1.21907942e+24
1.076304353e+24
9.335292778e+23
1.092778399e+24
8.950898444e+23
1.026882206e+24
9.774600754e+23
1.037864912e+24
8.676330935e+23
8.456677057e+23
9.66477378e+23
8.731244422e+23
8.786157981e+23
9.005811931e+23
8.786157909e+23
8.127196133e+23
9.170552393e+23
9.445119752e+23
7.962455671e+23
7.413320797e+23
1.032373554e+24
8.18210962e+23
9.335292855e+23
1.197114015e+24
9.66477378e+23
9.939341216e+23
1.109252436e+24
1.076304353e+24
1.257518861e+24
1.120235133e+24
1.081795701e+24
1.268501559e+24
9.939341135e+23
1.164165933e+24
1.142200538e+24
9.829514161e+23
9.390206343e+23
9.390206343e+23
1.004916811e+24
9.005811931e+23
9.939341216e+23
8.95089837e+23
8.950898444e+23
9.884427729e+23
9.554946726e+23
8.237023108e+23
1.048847609e+24
8.401763501e+23
8.786157981e+23
8.895984956e+23
1.065321646e+24
8.127196133e+23
9.22546588e+23
1.169657272e+24
9.994254704e+23
1.054338958e+24
1.059830298e+24
1.04335626e+24
1.076304353e+24
1.125726482e+24
1.180639979e+24
1.230062117e+24
1.202605364e+24
1.17514863e+24
1.186131327e+24
1.098269739e+24
1.054338958e+24
9.66477378e+23
1.098269739e+24
1.015899517e+24
9.719687267e+23
1.004916811e+24
7.687888234e+23
1.026882214e+24
9.554946726e+23
9.44511983e+23
9.994254704e+23
9.774600674e+23
1.092778399e+24
9.115638906e+23
9.994254622e+23
9.939341216e+23
9.554946805e+23
1.142200528e+24
1.037864912e+24
9.829514242e+23
1.043356252e+24
1.13121784e+24
1.021390865e+24
1.026882206e+24
1.164165933e+24
1.257518861e+24
1.169657272e+24
1.213588071e+24
1.273992907e+24
1.09277839e+24
1.054338958e+24
1.186131327e+24
1.081795693e+24
9.829514242e+23
1.103761096e+24
1.037864903e+24
1.070813004e+24
8.566504032e+23
1.114743785e+24
9.005811931e+23
8.511590544e+23
9.609860213e+23
8.072282645e+23
9.500033317e+23
1.026882206e+24
8.950898444e+23
1.04335626e+24
1.09277839e+24
1.048847609e+24
1.026882214e+24
1.0488476e+24
1.04335626e+24
1.076304353e+24
9.609860213e+23
1.059830307e+24
9.554946805e+23
8.95089837e+23
1.098269748e+24
1.114743794e+24
1.114743785e+24
1.120235143e+24
1.197114025e+24
1.076304344e+24
9.66477378e+23
9.994254704e+23
9.884427648e+23
9.719687267e+23
1.015899517e+24
9.554946726e+23
8.950898444e+23
9.554946805e+23
9.115638831e+23
1.004916819e+24
9.829514242e+23
9.939341135e+23
9.060725418e+23
1.114743794e+24
1.043356252e+24
1.010408168e+24
8.511590544e+23
1.021390857e+24
1.032373563e+24
1.103761096e+24
9.390206265e+23
1.065321655e+24
1.169657281e+24
9.774600674e+23
1.026882214e+24
1.13121784e+24
9.500033239e+23
1.230062117e+24
9.554946805e+23
1.081795693e+24
1.120235143e+24
1.103761096e+24
1.114743785e+24
1.004916819e+24
1.081795701e+24
1.0488476e+24
1.08728705e+24
9.939341216e+23
1.032373554e+24
9.500033317e+23
8.621417519e+23
1.026882206e+24
9.115638906e+23
9.719687267e+23
1.098269739e+24
1.153183235e+24
1.059830307e+24
1.09277839e+24
1.032373563e+24
1.04335626e+24
1.037864903e+24
1.125726491e+24
9.774600754e+23
1.021390857e+24
1.032373563e+24
1.142200538e+24
9.060725344e+23
1.197114025e+24
1.147691886e+24
1.032373554e+24
1.26301021e+24
1.065321655e+24
1.037864903e+24
1.070813004e+24
1.021390865e+24
1.081795693e+24
1.054338958e+24
1.13121784e+24
8.676330935e+23
9.939341216e+23
1.048847609e+24
9.445119752e+23
1.120235143e+24
1.103761096e+24
1.120235133e+24
1.054338958e+24
1.125726491e+24
1.065321646e+24
1.098269748e+24
9.280379368e+23
9.994254622e+23
1.103761096e+24
1.037864912e+24
9.829514161e+23
9.884427729e+23
1.065321655e+24
9.225465804e+23
1.015899517e+24
1.010408168e+24
9.6647737e+23
1.098269748e+24
1.081795701e+24
1.246536153e+24
1.004916819e+24
1.076304353e+24
1.01040816e+24
8.511590544e+23
1.032373563e+24
1.004916811e+24
9.280379368e+23
9.44511983e+23
1.01040816e+24
8.40176357e+23
9.609860292e+23
1.109252436e+24
1.125726491e+24
8.786157981e+23
1.114743785e+24
9.939341216e+23
1.21907942e+24
1.125726482e+24
9.939341216e+23
1.180639979e+24
1.142200528e+24
1.13121784e+24
1.257518861e+24
1.026882206e+24
1.076304353e+24
1.202605374e+24
9.994254622e+23
9.774600754e+23
1.142200538e+24
9.335292778e+23
1.125726491e+24
1.164165933e+24
1.180639969e+24
1.120235143e+24
1.17514863e+24
1.098269739e+24
1.08728705e+24
9.44511983e+23
1.059830298e+24
1.08728705e+24
1.010408168e+24
1.054338949e+24
9.390206343e+23
1.098269748e+24
1.120235133e+24
1.04335626e+24
9.719687267e+23
9.829514161e+23
1.180639979e+24
1.032373563e+24
1.213588061e+24
9.500033317e+23
1.120235143e+24
1.021390857e+24
1.147691886e+24
1.092778399e+24
1.114743785e+24
1.092778399e+24
1.010408168e+24
1.004916811e+24
1.120235143e+24
1.070813004e+24
1.147691877e+24
1.004916819e+24
1.142200538e+24
1.065321646e+24
1.224570769e+24
1.092778399e+24
1.09277839e+24
1.037864912e+24
9.719687267e+23
1.158674574e+24
9.774600754e+23
8.841071469e+23
9.939341135e+23
1.032373563e+24
1.026882214e+24
1.114743785e+24
9.554946805e+23
9.719687267e+23
1.087287041e+24
1.04335626e+24
1.08728705e+24
1.125726482e+24
1.010408168e+24
1.076304353e+24
1.026882206e+24
1.169657281e+24
1.136709189e+24
1.098269739e+24
1.125726491e+24
1.076304353e+24
1.147691877e+24
1.04335626e+24
9.554946805e+23
1.076304344e+24
1.092778399e+24
1.059830307e+24
1.147691877e+24
1.098269748e+24
1.125726491e+24
1.180639969e+24
1.202605374e+24
1.120235143e+24
1.098269739e+24
1.010408168e+24
1.08728705e+24
9.170552318e+23
9.994254704e+23
1.021390865e+24
9.939341135e+23
9.939341216e+23
9.44511983e+23
9.994254622e+23
1.04335626e+24
1.098269748e+24
1.09277839e+24
1.010408168e+24
1.125726491e+24
1.032373554e+24
1.08728705e+24
9.994254704e+23
1.032373554e+24
1.081795701e+24
1.103761096e+24
1.109252436e+24
1.114743794e+24
9.719687267e+23
9.170552318e+23
1.13121784e+24
8.333333333e+23
8.933333333e+23
7.733333333e+23
5.466666667e+23
7.466666667e+23
7.066666667e+23
6.266666667e+23
7.2e+23
6.066666667e+23
5.466666667e+23
1.093333333e+24
1.186666667e+24
1.02e+24
1.006666667e+24
1.013333333e+24
9.8e+23
8.866666667e+23
8.8e+23
7.466666667e+23
8.733333333e+23
8.466666667e+23
1.013333333e+24
9.466666667e+23
1.02e+24
9.133333333e+23
1.053333333e+24
9.8e+23
1.02e+24
7.866666667e+23
7.666666667e+23
8.266666667e+23
8.933333333e+23
1.033333333e+24
1.073333333e+24
9.866666667e+23
1.126666667e+24
1.013333333e+24
9.733333333e+23
9.933333333e+23
1e+24
9.266666667e+23
7.133333333e+23
8.333333333e+23
9.6e+23
9.933333333e+23
1.06e+24
1.133333333e+24
1.053333333e+24
9.866666667e+23
1.053333333e+24
8e+23
9.133333333e+23
7.933333333e+23
1.006666667e+24
9.8e+23
1.033333333e+24
1.12e+24
1.033333333e+24
1.313333333e+24
1.153333333e+24
8.533333333e+23
8.533333333e+23
9.8e+23
8.533333333e+23
9.066666667e+23
1.053333333e+24
1.08e+24
1.24e+24
1.126666667e+24
1.2e+24
8.866666667e+23
9.8e+23
8.6e+23
8.2e+23
9.266666667e+23
9.133333333e+23
8.466666667e+23
9.533333333e+23
1.113333333e+24
1.08e+24
8.333333333e+23
9.666666667e+23
9.4e+23
8.8e+23
9.333333333e+23
9.666666667e+23
9.933333333e+23
8.8e+23
8.733333333e+23
1.093333333e+24
8.2e+23
1.02e+24
9.333333333e+23
8.733333333e+23
8.733333333e+23
1.08e+24
8.266666667e+23
9.333333333e+23
9.866666667e+23
9.666666667e+23
9.666666667e+23
9.466666667e+23
1.086666667e+24
9.6e+23
1.066666667e+24
1.013333333e+24
9.466666667e+23
1.086666667e+24
1.1e+24
1.06e+24
9.333333333e+23
1.026666667e+24
1.04e+24
9.133333333e+23
1.053333333e+24
1.013333333e+24
9.666666667e+23
1.073333333e+24
9e+23
1.02e+24
8.933333333e+23
1.086666667e+24
9.866666667e+23
7.466666667e+23
9.133333333e+23
9.066666667e+23
8.866666667e+23
9.4e+23
9.266666667e+23
8.466666667e+23
9.266666667e+23
1e+24
1.033333333e+24
1e+24
9.066666667e+23
1.133333333e+24
1.033333333e+24
9.466666667e+23
9.266666667e+23
1.126666667e+24
9.733333333e+23
8.666666667e+23
9.533333333e+23
9.4e+23
1.04e+24
9.266666667e+23
1.006666667e+24
8.4e+23
9.933333333e+23
8.933333333e+23
9.6e+23
8.666666667e+23
9.8e+23
1.053333333e+24
8.733333333e+23
9.4e+23
9.066666667e+23
1.146666667e+24
1.02e+24
9.8e+23
1.133333333e+24
9.733333333e+23
1.053333333e+24
1.066666667e+24
8.8e+23
1.08e+24
1.006666667e+24
1.06e+24
9.133333333e+23
9.466666667e+23
1.08e+24
9.8e+23
1e+24
1.066666667e+24
9.4e+23
1.04e+24
9.733333333e+23
1.073333333e+24
1.006666667e+24
9.133333333e+23
1.093333333e+24
9.8e+23
1.08e+24
1.08e+24
9.666666667e+23
9.666666667e+23
1.046666667e+24
9.866666667e+23
1.006666667e+24
1e+24
1.093333333e+24
9.933333333e+23
9.8e+23
1.073333333e+24
9.066666667e+23
1.026666667e+24
1.066666667e+24
9.266666667e+23
1.04e+24
9.266666667e+23
4.023608125e+23
6.200314098e+23
3.759764969e+23
4.221490492e+23
3.364000202e+23
5.210902326e+23
4.419372859e+23
3.100157049e+23
3.495921813e+23
3.69380418e+23
4.551294391e+23
3.825725758e+23
3.298039447e+23
3.627843355e+23
3.957647336e+23
3.429961025e+23
5.276863062e+23
3.891686547e+23
3.69380418e+23
3.627843355e+23
5.144941537e+23
4.221490492e+23
4.551294391e+23
5.144941537e+23
4.287451281e+23
5.408784639e+23
5.013019959e+23
5.54070627e+23
7.453569076e+23
6.20031416e+23
4.456912755e+23
4.392319774e+23
4.779877447e+23
3.617204555e+23
4.715284463e+23
4.456912755e+23
4.327726878e+23
4.973656214e+23
5.038249201e+23
5.361213893e+23
5.813364406e+23
5.296620955e+23
4.586098632e+23
3.488018644e+23
5.619585647e+23
5.10284214e+23
6.136329096e+23
5.748771524e+23
5.684178586e+23
5.425806779e+23
5.619585647e+23
6.200922094e+23
4.973656214e+23
6.78225854e+23
5.619585647e+23
6.846851412e+23
6.330107971e+23
8.074117309e+23
8.009524293e+23
8.590860817e+23
3.860120662e+23
5.568698607e+23
4.619488661e+23
4.366365995e+23
4.492927285e+23
3.923401329e+23
3.860120662e+23
3.733559293e+23
4.303085328e+23
4.239804662e+23
4.619488617e+23
4.999172661e+23
4.872611327e+23
4.176523955e+23
4.556207995e+23
5.252295327e+23
5.378856609e+23
4.872611327e+23
5.252295327e+23
4.872611281e+23
5.821821326e+23
4.999172661e+23
6.201505267e+23
5.18901466e+23
5.442137327e+23
6.517908597e+23
6.074943993e+23
6.391347326e+23
7.467118587e+23
8.35304799e+23
3.721239199e+23
4.589528303e+23
4.403466386e+23
4.217404426e+23
3.039011984e+23
3.163053319e+23
3.163053319e+23
4.217404387e+23
4.341445732e+23
4.217404426e+23
5.271755483e+23
3.597197893e+23
4.589528346e+23
4.837610914e+23
4.093363119e+23
5.643879452e+23
5.085693525e+23
4.465487039e+23
4.465487039e+23
4.899631567e+23
5.767920759e+23
5.085693572e+23
5.147714178e+23
5.333776186e+23
4.527507692e+23
5.271755483e+23
6.946313172e+23
6.946313172e+23
8.558850079e+23
8.868953425e+23
3.831019792e+23
4.986406668e+23
5.168836227e+23
4.317498496e+23
3.52697057e+23
3.831019792e+23
3.162111574e+23
3.587780407e+23
3.040491898e+23
4.135068982e+23
4.439118131e+23
4.317498496e+23
5.047216551e+23
4.499927968e+23
4.864787037e+23
5.290455903e+23
5.533695204e+23
4.621547685e+23
4.317498496e+23
4.256688619e+23
4.19587882e+23
4.49992801e+23
6.202603416e+23
6.202603473e+23
6.810701852e+23
6.263413253e+23
5.655314931e+23
6.202603473e+23
8.69580675e+23
1.015524294e+24
3.63836905e+23
4.413759136e+23
3.399787473e+23
4.234822993e+23
3.459432836e+23
3.22085129e+23
3.63836905e+23
3.459432836e+23
3.876950627e+23
3.63836905e+23
3.280496655e+23
2.743688136e+23
4.234822993e+23
3.101560474e+23
4.413759176e+23
4.771631541e+23
5.010213073e+23
6.262766398e+23
5.368085484e+23
4.294468349e+23
5.725957849e+23
5.427730878e+23
5.845248586e+23
5.547021667e+23
5.785603244e+23
6.859220279e+23
5.785603244e+23
6.799574946e+23
8.46964591e+23
1.008007163e+24
3.862630752e+23
4.447877796e+23
2.926235418e+23
3.979680169e+23
3.043284808e+23
3.687056627e+23
3.628531918e+23
3.979680134e+23
3.628531918e+23
3.57000721e+23
4.155254257e+23
2.984760126e+23
3.862630752e+23
4.389353089e+23
3.979680169e+23
4.155254294e+23
4.799026044e+23
4.740501377e+23
3.979680169e+23
5.501322538e+23
5.910995545e+23
5.325748461e+23
5.676896661e+23
5.969520253e+23
6.905915587e+23
6.554767279e+23
6.496242628e+23
6.730341462e+23
8.837230885e+23
1.018329925e+24
4.423292661e+23
4.136065829e+23
2.527595806e+23
3.906284428e+23
3.446721524e+23
2.757377243e+23
3.619057632e+23
2.814822578e+23
3.848839069e+23
3.791393709e+23
3.906284394e+23
3.102049399e+23
4.48073802e+23
4.021175112e+23
4.997746253e+23
3.274385476e+23
4.136065829e+23
4.365847302e+23
4.136065865e+23
5.45730908e+23
4.653074098e+23
5.22752769e+23
5.227527645e+23
6.72110703e+23
6.204098797e+23
5.91687195e+23
5.859426642e+23
8.099795652e+23
8.501913093e+23
1.034016466e+24
2.989470365e+23
4.681623362e+23
3.497116276e+23
3.102280567e+23
2.98947034e+23
3.384306073e+23
3.440711175e+23
3.215090742e+23
3.497116276e+23
3.497116276e+23
3.77914175e+23
3.102280567e+23
4.117572389e+23
4.343192757e+23
4.850838705e+23
4.343192794e+23
4.850838664e+23
4.963648908e+23
4.738028503e+23
5.189269269e+23
5.640510122e+23
4.963648908e+23
6.148155981e+23
6.317371337e+23
5.358484616e+23
6.937827392e+23
6.712207045e+23
6.768612147e+23
8.460765112e+23
1.043494373e+24
2.82549427e+23
5.096970014e+23
2.714690573e+23
2.936297967e+23
3.878129358e+23
4.542951572e+23
2.880896119e+23
3.324110879e+23
4.044334936e+23
3.157905361e+23
4.65375523e+23
4.432147875e+23
5.096970056e+23
5.706390342e+23
3.656521997e+23
4.321344178e+23
4.432147838e+23
4.764558966e+23
3.822727542e+23
5.152371862e+23
5.152371905e+23
5.096970056e+23
5.650988494e+23
6.260408873e+23
6.814427358e+23
6.149605125e+23
6.149605176e+23
7.534651387e+23
9.30751046e+23
9.085903144e+23
)
;

boundaryField
{
    inlet
    {
        type            calculated;
        value           nonuniform List<scalar> 
20
(
1.266666667e+23
1.933333333e+23
1e+23
6e+22
3.333333333e+22
3.333333333e+22
2e+22
2e+22
1e-277
1e-277
6.666666667e+21
1e-277
6.666666667e+21
1e-277
1e-277
6.666666667e+21
1e-277
1e-277
1e-277
1e-277
)
;
    }
    outlet
    {
        type            calculated;
        value           nonuniform List<scalar> 
70
(
5.466666667e+23
8.733333333e+23
7.666666667e+23
1e+24
1.053333333e+24
1.153333333e+24
1.2e+24
1.08e+24
1.093333333e+24
9.666666667e+23
1.06e+24
1.02e+24
8.466666667e+23
1.126666667e+24
8.933333333e+23
9.8e+23
9.466666667e+23
9.133333333e+23
1e+24
9.266666667e+23
1e-277
6.666666667e+21
5.733333333e+23
2.04e+24
8.4e+23
5.866666667e+23
1.02e+24
1.3e+24
1.02e+24
9.4e+23
1.125726491e+24
1.180639969e+24
1.202605374e+24
1.120235143e+24
1.098269739e+24
1.010408168e+24
1.08728705e+24
9.170552318e+23
9.994254704e+23
1.021390865e+24
9.939341135e+23
9.939341216e+23
9.44511983e+23
9.994254622e+23
1.04335626e+24
1.098269748e+24
1.09277839e+24
1.010408168e+24
1.125726491e+24
1.032373554e+24
1.08728705e+24
9.994254704e+23
1.032373554e+24
1.081795701e+24
1.103761096e+24
1.109252436e+24
1.114743794e+24
9.719687267e+23
9.170552318e+23
1.13121784e+24
1.093333333e+24
9.933333333e+23
9.8e+23
1.073333333e+24
9.066666667e+23
1.026666667e+24
1.066666667e+24
9.266666667e+23
1.04e+24
9.266666667e+23
)
;
    }
    wall
    {
        type            calculated;
        value           uniform 1e-300;
    }
    frontAndBack
    {
        type            empty;
    }
}


// ************************************************************************* //
