/*--------------------------------*- C++ -*----------------------------------*\
| =========                 |                                                 |
| \\      /  F ield         | OpenFOAM: The Open Source CFD Toolbox           |
|  \\    /   O peration     | Version:  v1912                                 |
|   \\  /    A nd           | Website:  www.openfoam.com                      |
|    \\/     M anipulation  |                                                 |
\*---------------------------------------------------------------------------*/
FoamFile
{
    version     2.0;
    format      ascii;
    class       volVectorField;
    location    "5.4";
    object      grad(T);
}
// * * * * * * * * * * * * * * * * * * * * * * * * * * * * * * * * * * * * * //

dimensions      [0 -1 0 1 0 0 0];


internalField   nonuniform List<vector> 
1900
(
(0.481346 1.13583e-05 0)
(-1.14576 -2.78676e-05 0)
(0.191958 -2.49086e-06 0)
(0.159258 -4.07032e-05 0)
(0.0681446 -1.81315e-05 0)
(0.0225519 8.20119e-05 0)
(-8.30319e-05 0.000160525 0)
(-0.0135662 0.000657307 0)
(-0.0213174 0.0026338 0)
(0.000457426 -0.000348949 0)
(0.48133 1.83131e-05 0)
(-1.14578 -2.86025e-05 0)
(0.191945 -4.89434e-06 0)
(0.159242 -2.14814e-05 0)
(0.0682674 4.43505e-05 0)
(0.0227305 0.000218105 0)
(0.000492263 0.000262242 0)
(-0.0110929 0.000290893 0)
(-0.0223237 0.00119134 0)
(-0.0323687 -0.00180065 0)
(0.481336 6.50521e-15 0)
(-1.14579 2.79616e-12 0)
(0.191965 -5.43185e-13 0)
(0.159307 -2.30935e-13 0)
(0.0683842 1.58294e-13 0)
(0.0227698 5.11743e-13 0)
(-1.02432e-05 9.17235e-13 0)
(-0.0126371 1.75641e-13 0)
(-0.023409 -4.00071e-13 0)
(-0.0358973 -6.34258e-13 0)
(0.48133 -1.83131e-05 0)
(-1.14578 2.86025e-05 0)
(0.191945 4.89434e-06 0)
(0.159242 2.14814e-05 0)
(0.0682674 -4.43505e-05 0)
(0.0227305 -0.000218105 0)
(0.000492263 -0.000262242 0)
(-0.0110929 -0.000290893 0)
(-0.0223237 -0.00119134 0)
(-0.0323687 0.00180065 0)
(0.481346 -1.13583e-05 0)
(-1.14576 2.78676e-05 0)
(0.191958 2.49086e-06 0)
(0.159258 4.07032e-05 0)
(0.0681446 1.81315e-05 0)
(0.0225519 -8.20119e-05 0)
(-8.30319e-05 -0.000160525 0)
(-0.0135662 -0.000657307 0)
(-0.0213174 -0.0026338 0)
(0.000457426 0.000348949 0)
(-0.0306482 -0.026048 9.59861e-16)
(-0.0735704 -0.0236158 -1.14884e-15)
(-0.0118664 -0.0312301 -1.45077e-15)
(0.251112 -0.0626428 0)
(-0.446037 -0.322084 -6.4276e-15)
(-0.0520832 -0.030653 9.55154e-16)
(-0.0633874 -0.028731 1.14884e-15)
(-0.0254812 -0.0405288 1.45077e-15)
(0.143065 -0.0669689 0)
(-0.384269 -0.318846 0)
(-0.0650548 -6.04953e-13 0)
(-0.0741528 -6.1343e-13 0)
(-0.0342105 -3.64412e-13 0)
(0.129576 -8.21365e-14 0)
(-0.509752 9.03502e-14 0)
(-0.0520832 0.030653 9.55154e-16)
(-0.0633874 0.028731 1.14884e-15)
(-0.0254812 0.0405288 1.45077e-15)
(0.143065 0.0669689 0)
(-0.384269 0.318846 0)
(-0.0306482 0.026048 -2.87017e-15)
(-0.0735704 0.0236158 -1.14884e-15)
(-0.0118664 0.0312301 -1.45077e-15)
(0.251112 0.0626428 -3.96518e-15)
(-0.446037 0.322084 6.4276e-15)
(-1.35248 0.445055 2.25486e-15)
(-0.386416 0.195214 -1.77111e-15)
(-0.252249 0.122003 0)
(-0.372979 0.0865802 1.2704e-15)
(-0.67364 0.127444 -5.36527e-16)
(-1.18573 0.441066 -1.13413e-15)
(-0.454614 0.107719 8.88495e-16)
(-0.277511 0.035686 0)
(-0.359842 0.0351757 -7.95893e-16)
(-0.654367 0.0757603 1.35662e-16)
(-1.24337 8.21365e-14 0)
(-0.496308 2.78001e-13 0)
(-0.281136 1.36529e-13 0)
(-0.360266 -1.31096e-13 3.18781e-16)
(-0.649515 3.5506e-13 -2.71323e-16)
(-1.18573 -0.441066 -1.13413e-15)
(-0.454614 -0.107719 8.88495e-16)
(-0.277511 -0.035686 0)
(-0.359842 -0.0351757 -7.95893e-16)
(-0.654367 -0.0757603 1.35662e-16)
(-1.35248 -0.445055 1.13413e-15)
(-0.386416 -0.195214 -5.87921e-18)
(-0.252249 -0.122003 0)
(-0.372979 -0.0865802 2.60751e-18)
(-0.67364 -0.127444 5.36527e-16)
(-0.730252 0.280658 0)
(-0.169429 -0.220211 0)
(0.26925 -0.17663 0)
(0.301262 -0.0485558 0)
(0.125349 0.0526119 0)
(-0.0785938 0.0668526 0)
(-0.1654 0.0582124 0)
(-0.166497 0.0267865 0)
(-0.116122 0.0102583 0)
(-0.0805877 0.00434206 0)
(-0.07133 0.00251708 0)
(-0.0701028 0.00314825 0)
(-0.0645225 0.00278697 0)
(-0.0506363 0.00129651 0)
(-0.0330986 0.000209253 0)
(-0.0202661 -0.000127647 0)
(-0.0139894 -0.000157237 0)
(-0.011357 -0.000131708 0)
(-0.00990153 -0.000123708 0)
(-0.00854219 -0.000138132 0)
(-0.00706368 -0.000160675 0)
(-0.00566937 -0.000179074 0)
(-0.0044305 -0.000190275 0)
(-0.00334202 -0.000197142 0)
(-0.00238411 -0.000202665 0)
(-0.00154155 -0.000210766 0)
(-0.000667767 -0.000219043 0)
(0.0004396 -0.000230494 0)
(0.00210849 -0.000235902 0)
(0.0038576 -0.000226602 0)
(0.00620704 -0.000216056 0)
(0.00822464 -0.000149993 0)
(0.0106659 -0.000159136 0)
(0.0120672 1.19409e-05 0)
(0.0163282 -0.000302062 0)
(0.024497 0.000141401 0)
(0.0425152 0.000173556 0)
(-0.0646109 0.00294159 0)
(-0.387431 0.00713298 0)
(-0.29417 -0.00795035 0)
(-0.80755 0.118048 0)
(-0.226698 -0.164164 0)
(0.30902 -0.185365 0)
(0.329709 -0.0959433 0)
(0.134232 -0.0107071 0)
(-0.0781656 0.0254926 0)
(-0.169051 0.0361739 0)
(-0.172451 0.0146131 0)
(-0.118678 0.00428309 0)
(-0.081371 0.00166776 0)
(-0.071433 0.000658749 0)
(-0.0700096 0.00131701 0)
(-0.0646811 0.00107064 0)
(-0.0508605 0.000438012 0)
(-0.0332161 3.02903e-05 0)
(-0.020293 -8.84261e-05 0)
(-0.0139887 -9.52025e-05 0)
(-0.0113531 -8.202e-05 0)
(-0.00990096 -7.51504e-05 0)
(-0.00854462 -7.84149e-05 0)
(-0.00706686 -8.64339e-05 0)
(-0.0056719 -9.39651e-05 0)
(-0.00443226 -9.9489e-05 0)
(-0.00334349 -0.000103996 0)
(-0.00238586 -0.000108564 0)
(-0.00154362 -0.000114676 0)
(-0.000670314 -0.000120988 0)
(0.000437033 -0.000129104 0)
(0.00210766 -0.000134894 0)
(0.00385769 -0.000134266 0)
(0.00621164 -0.000133948 0)
(0.00822699 -0.000110731 0)
(0.0106855 -0.000118831 0)
(0.0120561 -4.14362e-07 0)
(0.016349 -0.000132109 0)
(0.0245585 0.000174299 0)
(0.042826 0.000336311 0)
(-0.0629942 0.00214831 0)
(-0.384297 0.00906479 0)
(-0.292349 0.0164825 0)
(-0.796035 -5.07604e-12 0)
(-0.257695 1.30183e-11 0)
(0.289096 8.47255e-12 0)
(0.352072 4.57533e-12 0)
(0.160676 2.73219e-12 0)
(-0.0649557 -1.77415e-13 0)
(-0.168565 -5.48015e-13 0)
(-0.175774 -8.69333e-13 0)
(-0.119888 -1.96536e-12 0)
(-0.0816421 -1.13348e-12 0)
(-0.071432 1.63616e-13 0)
(-0.069983 -1.59279e-12 0)
(-0.0647782 -7.29372e-13 0)
(-0.050939 -1.11969e-12 0)
(-0.0332517 -7.60913e-13 0)
(-0.0203026 -8.59477e-13 0)
(-0.0139876 -9.85638e-13 0)
(-0.0113511 -1.00929e-12 0)
(-0.00990048 -5.79555e-13 0)
(-0.00854547 -3.33146e-13 0)
(-0.0070682 1.26162e-13 0)
(-0.00567317 6.84033e-13 0)
(-0.00443341 8.53563e-13 0)
(-0.00334466 7.23459e-13 0)
(-0.00238721 3.74543e-14 0)
(-0.00154517 -1.05858e-12 0)
(-0.000671964 -2.08758e-12 0)
(0.000435554 -2.3813e-12 0)
(0.00210699 -2.73613e-12 0)
(0.00385788 -3.10476e-12 0)
(0.00621389 -2.57054e-12 0)
(0.00822904 -3.30977e-12 0)
(0.010698 -4.92031e-12 0)
(0.0120633 -3.21515e-12 0)
(0.016379 -2.62968e-12 0)
(0.0246333 -2.05013e-12 0)
(0.0430895 -6.33174e-12 0)
(-0.0620717 -5.73642e-12 0)
(-0.383261 5.19431e-12 0)
(-0.292012 6.24106e-12 0)
(-0.80755 -0.118048 0)
(-0.226698 0.164164 0)
(0.30902 0.185365 0)
(0.329709 0.0959433 0)
(0.134232 0.0107071 0)
(-0.0781656 -0.0254926 0)
(-0.169051 -0.0361739 0)
(-0.172451 -0.0146131 0)
(-0.118678 -0.00428309 0)
(-0.081371 -0.00166776 0)
(-0.071433 -0.000658749 0)
(-0.0700096 -0.00131701 0)
(-0.0646811 -0.00107064 0)
(-0.0508605 -0.000438012 0)
(-0.0332161 -3.02903e-05 0)
(-0.020293 8.84261e-05 0)
(-0.0139887 9.52025e-05 0)
(-0.0113531 8.202e-05 0)
(-0.00990096 7.51504e-05 0)
(-0.00854462 7.84149e-05 0)
(-0.00706686 8.64339e-05 0)
(-0.0056719 9.39651e-05 0)
(-0.00443226 9.9489e-05 0)
(-0.00334349 0.000103996 0)
(-0.00238586 0.000108564 0)
(-0.00154362 0.000114676 0)
(-0.000670314 0.000120988 0)
(0.000437033 0.000129104 0)
(0.00210766 0.000134894 0)
(0.00385769 0.000134266 0)
(0.00621164 0.000133948 0)
(0.00822699 0.000110731 0)
(0.0106855 0.000118831 0)
(0.0120561 4.14344e-07 0)
(0.016349 0.000132109 0)
(0.0245585 -0.000174299 0)
(0.042826 -0.000336312 0)
(-0.0629942 -0.00214831 0)
(-0.384297 -0.00906479 0)
(-0.292349 -0.0164825 0)
(-0.730252 -0.280658 0)
(-0.169429 0.220211 0)
(0.26925 0.17663 0)
(0.301262 0.0485558 0)
(0.125349 -0.0526119 0)
(-0.0785938 -0.0668526 0)
(-0.1654 -0.0582124 0)
(-0.166497 -0.0267865 0)
(-0.116122 -0.0102583 0)
(-0.0805877 -0.00434206 0)
(-0.07133 -0.00251708 0)
(-0.0701028 -0.00314825 0)
(-0.0645225 -0.00278697 0)
(-0.0506363 -0.00129651 0)
(-0.0330986 -0.000209253 0)
(-0.0202661 0.000127647 0)
(-0.0139894 0.000157237 0)
(-0.011357 0.000131708 0)
(-0.00990153 0.000123708 0)
(-0.00854219 0.000138132 0)
(-0.00706368 0.000160675 0)
(-0.00566937 0.000179074 0)
(-0.0044305 0.000190275 0)
(-0.00334202 0.000197142 0)
(-0.00238411 0.000202665 0)
(-0.00154155 0.000210766 0)
(-0.000667767 0.000219043 0)
(0.0004396 0.000230494 0)
(0.00210849 0.000235902 0)
(0.0038576 0.000226602 0)
(0.00620704 0.000216055 0)
(0.00822464 0.000149993 0)
(0.0106659 0.000159136 0)
(0.0120672 -1.19409e-05 0)
(0.0163282 0.000302062 0)
(0.024497 -0.000141401 0)
(0.0425152 -0.000173556 0)
(-0.0646109 -0.00294159 0)
(-0.387431 -0.00713298 0)
(-0.29417 0.00795035 0)
(-0.123693 -0.290964 0)
(-0.00607033 0.0382425 0)
(0.247329 0.0590076 0)
(0.218804 0.0120264 0)
(0.0721112 -0.0845309 0)
(-0.0811836 -0.106665 0)
(-0.14814 -0.0823809 0)
(-0.149255 -0.0438465 0)
(-0.107555 -0.0190453 0)
(-0.0774208 -0.00890477 0)
(-0.0708033 -0.00602802 0)
(-0.0700712 -0.00598296 0)
(-0.0637029 -0.00496997 0)
(-0.0495028 -0.00237781 0)
(-0.0324586 -0.000459448 0)
(-0.0200943 0.000193523 0)
(-0.0139853 0.000256137 0)
(-0.0113695 0.00021303 0)
(-0.00989627 0.000206245 0)
(-0.00852425 0.000238782 0)
(-0.00704487 0.000283325 0)
(-0.00565625 0.000318304 0)
(-0.00442297 0.000339365 0)
(-0.00333741 0.000352344 0)
(-0.00237933 0.000362488 0)
(-0.00153575 0.000376924 0)
(-0.000660885 0.000392794 0)
(0.000444641 0.000411984 0)
(0.00210425 0.000420578 0)
(0.00384535 0.000404367 0)
(0.0061689 0.000375274 0)
(0.00819401 0.0002605 0)
(0.0106067 0.000242109 0)
(0.0121329 4.79146e-05 0)
(0.0162919 0.00042276 0)
(0.0243312 -7.58777e-05 0)
(0.0414289 -0.000244428 0)
(-0.0654904 -0.00385646 0)
(-0.373841 0.0015411 0)
(-0.280782 0.00952812 0)
(-0.0328778 -0.269598 0)
(0.0802176 -0.0312006 0)
(0.255741 -0.0244276 0)
(0.20716 -0.0490005 0)
(0.0395209 -0.122789 0)
(-0.0751333 -0.122015 0)
(-0.114121 -0.0963236 0)
(-0.114711 -0.0568032 0)
(-0.0870443 -0.0271011 0)
(-0.069742 -0.014476 0)
(-0.0687969 -0.0104917 0)
(-0.0691003 -0.00909861 0)
(-0.061488 -0.00695901 0)
(-0.0468976 -0.00334491 0)
(-0.0309639 -0.000711761 0)
(-0.0196687 0.000274867 0)
(-0.0139729 0.000417961 0)
(-0.0113983 0.000380379 0)
(-0.00987954 0.000383468 0)
(-0.00847753 0.000437496 0)
(-0.00699714 0.000506429 0)
(-0.00562241 0.000560731 0)
(-0.00440173 0.000595756 0)
(-0.00332221 0.000620723 0)
(-0.00236298 0.000642352 0)
(-0.00151546 0.000671246 0)
(-0.000637672 0.000705612 0)
(0.000463671 0.000744421 0)
(0.00210343 0.000766949 0)
(0.00382051 0.000752225 0)
(0.00608886 0.000714501 0)
(0.00811274 0.000561543 0)
(0.0104928 0.000517156 0)
(0.012206 0.000294671 0)
(0.0162284 0.000641104 0)
(0.023943 7.562e-05 0)
(0.0394547 -0.000328327 0)
(-0.0624186 -0.004036 0)
(-0.381821 0.0069457 0)
(-0.293652 -0.00228777 0)
(0.106035 -0.2015 0)
(0.230185 0.026434 0)
(0.230177 0.0175912 0)
(0.124019 -0.0643166 0)
(0.00175172 -0.126009 0)
(-0.0556809 -0.115604 0)
(-0.0852992 -0.092661 0)
(-0.0825493 -0.0567239 0)
(-0.0667671 -0.031166 0)
(-0.0614155 -0.019014 0)
(-0.0656214 -0.0149315 0)
(-0.0666669 -0.0120561 0)
(-0.0581584 -0.00860453 0)
(-0.0434827 -0.00415355 0)
(-0.0289704 -0.00103097 0)
(-0.0190057 0.000237586 0)
(-0.0138836 0.00049758 0)
(-0.0114028 0.000504781 0)
(-0.00984122 0.000535933 0)
(-0.00840576 0.000616166 0)
(-0.00692611 0.00071009 0)
(-0.00557017 0.000785052 0)
(-0.00436516 0.000837927 0)
(-0.00329251 0.000881445 0)
(-0.00233064 0.000922165 0)
(-0.00147479 0.000969637 0)
(-0.000590371 0.00103261 0)
(0.000503748 0.00110611 0)
(0.00211177 0.00114408 0)
(0.00379481 0.0011367 0)
(0.00598515 0.00109786 0)
(0.00800384 0.000912436 0)
(0.0103495 0.000857296 0)
(0.0122523 0.000619765 0)
(0.0160808 0.000892416 0)
(0.023397 0.000278483 0)
(0.0374668 -0.000394458 0)
(-0.0584809 -0.0030107 0)
(-0.372156 0.00704807 0)
(-0.28968 0.0141973 0)
(0.186768 -0.0962861 0)
(0.291342 0.0202545 0)
(0.16829 -0.0160864 0)
(0.0687823 -0.0911302 0)
(-0.00990166 -0.110822 0)
(-0.0429984 -0.103488 0)
(-0.0573824 -0.0802659 0)
(-0.0554517 -0.0505792 0)
(-0.0507056 -0.0317615 0)
(-0.0540979 -0.0221652 0)
(-0.062092 -0.0183141 0)
(-0.0630034 -0.0143913 0)
(-0.0538728 -0.00954797 0)
(-0.0395995 -0.0045845 0)
(-0.0267325 -0.00126511 0)
(-0.0181957 0.000123317 0)
(-0.0137154 0.000468437 0)
(-0.0113614 0.000538678 0)
(-0.0097722 0.000611615 0)
(-0.00830971 0.000720344 0)
(-0.00683439 0.000836493 0)
(-0.00549922 0.000930501 0)
(-0.00430884 0.00100302 0)
(-0.00324103 0.00106998 0)
(-0.002278 0.00113726 0)
(-0.00140904 0.00120826 0)
(-0.000506162 0.00129443 0)
(0.000571091 0.00141196 0)
(0.00213291 0.00146786 0)
(0.00377597 0.00146842 0)
(0.00587275 0.00142343 0)
(0.00788092 0.00121576 0)
(0.0102108 0.00113987 0)
(0.0122399 0.000905585 0)
(0.0158995 0.00104161 0)
(0.022703 0.000488601 0)
(0.0362851 -0.00049661 0)
(-0.0552467 -0.00131922 0)
(-0.365239 0.0060194 0)
(-0.286763 0.0100974 0)
(0.218338 -0.0606545 0)
(0.307468 -0.0146128 0)
(0.122842 -0.0371889 0)
(0.0327286 -0.0936375 0)
(-0.0101567 -0.0954133 0)
(-0.026236 -0.0839826 0)
(-0.0343144 -0.063688 0)
(-0.0358087 -0.0432928 0)
(-0.0393863 -0.0298558 0)
(-0.048457 -0.023786 0)
(-0.0581302 -0.020225 0)
(-0.0582196 -0.0156264 0)
(-0.0487083 -0.00972562 0)
(-0.0355011 -0.0045641 0)
(-0.0244338 -0.00131576 0)
(-0.0173352 4.22415e-05 0)
(-0.0134833 0.00043249 0)
(-0.0112648 0.000563915 0)
(-0.00966617 0.000678582 0)
(-0.00818905 0.000813453 0)
(-0.0067236 0.00094797 0)
(-0.0054097 0.00105921 0)
(-0.00423075 0.0011529 0)
(-0.00316316 0.00124711 0)
(-0.0021974 0.0013465 0)
(-0.00132333 0.00144823 0)
(-0.000394075 0.00155859 0)
(0.000670869 0.00172496 0)
(0.00216618 0.001807 0)
(0.00375199 0.00181904 0)
(0.00574167 0.00177369 0)
(0.00773059 0.00156063 0)
(0.0100506 0.00147055 0)
(0.0121576 0.00125107 0)
(0.015679 0.00129842 0)
(0.0219147 0.00087354 0)
(0.0357247 -8.82878e-05 0)
(-0.0522019 0.000320247 0)
(-0.361155 0.00557654 0)
(-0.28575 0.00686104 0)
(0.231135 -0.0569624 0)
(0.313954 -0.0402403 0)
(0.0921394 -0.0454146 0)
(0.0126751 -0.0852718 0)
(-0.000597851 -0.0709611 0)
(-0.0124267 -0.062097 0)
(-0.0181723 -0.0479699 0)
(-0.0228497 -0.0363667 0)
(-0.0319081 -0.0279845 0)
(-0.0448174 -0.0247716 0)
(-0.0542291 -0.0213583 0)
(-0.0528857 -0.0159146 0)
(-0.0432127 -0.00945852 0)
(-0.0314954 -0.0043373 0)
(-0.0222936 -0.00132023 0)
(-0.016511 -4.85126e-05 0)
(-0.0132127 0.000403698 0)
(-0.0111242 0.00060563 0)
(-0.00953174 0.000766768 0)
(-0.00805011 0.000927781 0)
(-0.00659757 0.00107867 0)
(-0.00530174 0.00120502 0)
(-0.00412778 0.00131704 0)
(-0.00305448 0.00143333 0)
(-0.00208419 0.00155551 0)
(-0.00120465 0.00167756 0)
(-0.000239492 0.00180672 0)
(0.000810463 0.00199696 0)
(0.00222357 0.00208113 0)
(0.00374388 0.00207819 0)
(0.00562373 0.00200358 0)
(0.00758881 0.00175792 0)
(0.00991249 0.00161814 0)
(0.012074 0.00137352 0)
(0.0155357 0.00133998 0)
(0.0213667 0.000966984 0)
(0.0357519 9.61615e-05 0)
(-0.0497879 0.00148496 0)
(-0.358936 0.00657115 0)
(-0.285525 0.00649389 0)
(0.234452 -0.0533232 0)
(0.318596 -0.0471265 0)
(0.0794485 -0.0469681 0)
(0.00811103 -0.0589306 0)
(0.0121754 -0.0481611 0)
(-0.00408088 -0.0442704 0)
(-0.0095197 -0.0365353 0)
(-0.01655 -0.0307338 0)
(-0.0282129 -0.0269223 0)
(-0.0420718 -0.025264 0)
(-0.0495952 -0.0214389 0)
(-0.0467525 -0.0150986 0)
(-0.037552 -0.00850137 0)
(-0.0276587 -0.00369523 0)
(-0.020301 -0.00102314 0)
(-0.0156739 0.000143094 0)
(-0.012853 0.00065506 0)
(-0.0109149 0.000917162 0)
(-0.00935573 0.00112101 0)
(-0.0078885 0.00130035 0)
(-0.00645643 0.0014619 0)
(-0.00518 0.00160037 0)
(-0.00401074 0.00172804 0)
(-0.00293336 0.00186215 0)
(-0.00196205 0.0020005 0)
(-0.00108125 0.00213468 0)
(-8.62949e-05 0.00227558 0)
(0.000935302 0.0024779 0)
(0.00224446 0.00255147 0)
(0.00367726 0.00251946 0)
(0.00543304 0.00239893 0)
(0.00735917 0.00210165 0)
(0.00968018 0.00188666 0)
(0.0118896 0.00157608 0)
(0.0152872 0.00146095 0)
(0.0207161 0.00104091 0)
(0.0362238 0.000353451 0)
(-0.0459623 0.00210038 0)
(-0.356328 0.0070401 0)
(-0.285825 0.00702863 0)
(0.237107 -0.0395161 0)
(0.320078 -0.0366616 0)
(0.0807646 -0.0384663 0)
(0.0115255 -0.0328445 0)
(0.0135292 -0.0317848 0)
(-0.00122366 -0.0321636 0)
(-0.00512794 -0.0290951 0)
(-0.0135863 -0.0267698 0)
(-0.0266372 -0.0260297 0)
(-0.0395334 -0.0247181 0)
(-0.0444333 -0.0201736 0)
(-0.0404187 -0.0134565 0)
(-0.032224 -0.00721764 0)
(-0.0242891 -0.00292446 0)
(-0.0185949 -0.000612255 0)
(-0.0148939 0.000516559 0)
(-0.0124668 0.00109178 0)
(-0.0106752 0.00142733 0)
(-0.00916249 0.00168199 0)
(-0.00772162 0.00188507 0)
(-0.00630846 0.00205906 0)
(-0.00504528 0.00220731 0)
(-0.00387551 0.00234178 0)
(-0.00279192 0.00247757 0)
(-0.00182157 0.00261274 0)
(-0.00093958 0.00273788 0)
(9.12473e-05 0.00286598 0)
(0.00107632 0.00305131 0)
(0.00226361 0.00308196 0)
(0.00359689 0.00299675 0)
(0.00522112 0.00280796 0)
(0.00709516 0.00244262 0)
(0.00940603 0.00213735 0)
(0.0116638 0.00175628 0)
(0.01502 0.00155687 0)
(0.0202995 0.00113011 0)
(0.0367729 0.000658614 0)
(-0.0433444 0.00228825 0)
(-0.354187 0.00722657 0)
(-0.285536 0.00793631 0)
(0.237203 -0.022776 0)
(0.319608 -0.0264533 0)
(0.0831268 -0.029624 0)
(0.0145496 -0.0230696 0)
(0.0128315 -0.0231829 0)
(-0.00148896 -0.024834 0)
(-0.00432204 -0.0244046 0)
(-0.0135961 -0.024704 0)
(-0.0262358 -0.0255771 0)
(-0.0364286 -0.023586 0)
(-0.0387431 -0.0181485 0)
(-0.0342677 -0.011359 0)
(-0.027403 -0.00563507 0)
(-0.0212935 -0.00183149 0)
(-0.0169851 0.00034133 0)
(-0.0140318 0.00151309 0)
(-0.0119753 0.00215315 0)
(-0.0103462 0.00259087 0)
(-0.00891463 0.00291293 0)
(-0.00752514 0.0031521 0)
(-0.00614591 0.00333978 0)
(-0.00490756 0.00348363 0)
(-0.0037503 0.00359467 0)
(-0.00267225 0.00368951 0)
(-0.00171121 0.00377228 0)
(-0.000837216 0.0038433 0)
(0.000215739 0.00389848 0)
(0.00114343 0.00399278 0)
(0.00219189 0.00391106 0)
(0.00341323 0.00370683 0)
(0.00489906 0.00339064 0)
(0.00671295 0.00290312 0)
(0.0090188 0.00246415 0)
(0.0113302 0.00196912 0)
(0.0146838 0.00167759 0)
(0.0198505 0.00123039 0)
(0.0373399 0.000878761 0)
(-0.0396332 0.00221942 0)
(-0.350885 0.00766485 0)
(-0.285141 0.0089858 0)
(0.233563 -0.0077671 0)
(0.313479 -0.0179406 0)
(0.0840252 -0.0225636 0)
(0.0177323 -0.0172427 0)
(0.011829 -0.0186655 0)
(-0.0024009 -0.0205577 0)
(-0.00500265 -0.0215419 0)
(-0.0147161 -0.0231946 0)
(-0.0255598 -0.0239617 0)
(-0.0323749 -0.0208782 0)
(-0.032651 -0.0149942 0)
(-0.0283603 -0.00858417 0)
(-0.0230429 -0.0035652 0)
(-0.01853 -0.000350676 0)
(-0.0153719 0.00165587 0)
(-0.0131479 0.00278421 0)
(-0.0114282 0.00348981 0)
(-0.00994306 0.0040014 0)
(-0.00862167 0.00437352 0)
(-0.0073103 0.00463973 0)
(-0.00598898 0.00483839 0)
(-0.00479966 0.00497793 0)
(-0.00367711 0.00506899 0)
(-0.00262077 0.00513369 0)
(-0.00167337 0.00518103 0)
(-0.000817969 0.00521863 0)
(0.000235292 0.00521545 0)
(0.00108845 0.00523899 0)
(0.00198806 0.00506771 0)
(0.00309538 0.00476569 0)
(0.00444663 0.00434113 0)
(0.00620237 0.00374801 0)
(0.00850599 0.00318717 0)
(0.0109058 0.00258291 0)
(0.0143081 0.00220599 0)
(0.0195297 0.00172189 0)
(0.0377259 0.00142463 0)
(-0.0368051 0.00230811 0)
(-0.347666 0.00784184 0)
(-0.284263 0.0104522 0)
(0.227399 -0.000888581 0)
(0.305349 -0.0102784 0)
(0.0837994 -0.0143187 0)
(0.0183059 -0.0122878 0)
(0.00963702 -0.0154665 0)
(-0.00426076 -0.0176122 0)
(-0.00686303 -0.0196661 0)
(-0.0159278 -0.0215468 0)
(-0.0240036 -0.0212554 0)
(-0.0277872 -0.0171015 0)
(-0.0268961 -0.0112191 0)
(-0.0232543 -0.00545592 0)
(-0.0194689 -0.0011678 0)
(-0.0162623 0.00164086 0)
(-0.0139642 0.003327 0)
(-0.0122646 0.00446363 0)
(-0.0108024 0.00527842 0)
(-0.00949462 0.00588382 0)
(-0.00829952 0.0063253 0)
(-0.00707718 0.0066282 0)
(-0.00582 0.00682951 0)
(-0.00468534 0.00693902 0)
(-0.00360021 0.00697634 0)
(-0.00256428 0.00697626 0)
(-0.00162935 0.00695197 0)
(-0.000804049 0.00693222 0)
(0.000235357 0.0068521 0)
(0.00100106 0.00677587 0)
(0.0017358 0.00651834 0)
(0.00271307 0.0061187 0)
(0.00391839 0.00558162 0)
(0.00560095 0.00486877 0)
(0.00789606 0.00417543 0)
(0.0103847 0.00345249 0)
(0.0138541 0.00298227 0)
(0.0190976 0.00244702 0)
(0.0379048 0.00207611 0)
(-0.0334494 0.00272827 0)
(-0.343037 0.00903142 0)
(-0.282625 0.0117708 0)
(0.224515 0.00474131 0)
(0.300538 -0.00449374 0)
(0.0820889 -0.00823568 0)
(0.0166262 -0.00902105 0)
(0.0066981 -0.0136971 0)
(-0.00644774 -0.0155691 0)
(-0.00879415 -0.0177852 0)
(-0.0162477 -0.0186101 0)
(-0.0212762 -0.0170122 0)
(-0.0227036 -0.0125263 0)
(-0.0214288 -0.00710879 0)
(-0.0186744 -0.00230957 0)
(-0.0162042 0.00131071 0)
(-0.0141987 0.00365724 0)
(-0.0126518 0.00515809 0)
(-0.0112675 0.00623298 0)
(-0.0100597 0.00701742 0)
(-0.00893424 0.00760987 0)
(-0.00790437 0.00804771 0)
(-0.00682443 0.00835482 0)
(-0.00568946 0.00856646 0)
(-0.00465816 0.00868963 0)
(-0.00364122 0.00874351 0)
(-0.00264426 0.00876079 0)
(-0.00171581 0.00874816 0)
(-0.000914211 0.00874875 0)
(8.46313e-05 0.00866541 0)
(0.00076683 0.00855371 0)
(0.00135478 0.00827623 0)
(0.00219273 0.00785575 0)
(0.00324215 0.00728859 0)
(0.0048473 0.00654184 0)
(0.00714122 0.00580851 0)
(0.00975602 0.00508804 0)
(0.0133392 0.00465101 0)
(0.0186565 0.00421015 0)
(0.037997 0.00392878 0)
(-0.0301027 0.00432987 0)
(-0.338953 0.0104951 0)
(-0.281623 0.0148981 0)
(0.2185 0.00705351 0)
(0.292844 0.000955678 0)
(0.0794367 -0.00226872 0)
(0.0130431 -0.00482733 0)
(0.00332705 -0.0108562 0)
(-0.00820021 -0.0125562 0)
(-0.00979339 -0.0146817 0)
(-0.0151829 -0.0142568 0)
(-0.0181411 -0.0115926 0)
(-0.018244 -0.00717175 0)
(-0.0170509 -0.00236367 0)
(-0.015141 0.00144979 0)
(-0.013719 0.00419654 0)
(-0.0125549 0.00613897 0)
(-0.0114821 0.00755249 0)
(-0.0104729 0.00855173 0)
(-0.00947556 0.00930949 0)
(-0.00850181 0.00989676 0)
(-0.00758166 0.0103506 0)
(-0.00657728 0.0106713 0)
(-0.00549737 0.0108587 0)
(-0.00451473 0.0109237 0)
(-0.00353165 0.0109266 0)
(-0.0025598 0.0109234 0)
(-0.00164095 0.010911 0)
(-0.000883782 0.01093 0)
(4.74066e-05 0.0108421 0)
(0.000626023 0.0107144 0)
(0.00106322 0.0104409 0)
(0.00176135 0.0100478 0)
(0.00265226 0.00951369 0)
(0.00417469 0.00881345 0)
(0.00649513 0.00814674 0)
(0.0092693 0.00752694 0)
(0.0130082 0.007263 0)
(0.0184016 0.0069912 0)
(0.0380201 0.00676552 0)
(-0.0271218 0.00739851 0)
(-0.332853 0.0139292 0)
(-0.278382 0.019216 0)
(0.218639 0.0100808 0)
(0.291554 0.0064829 0)
(0.0765162 0.00222532 0)
(0.00835105 -0.00154624 0)
(-0.000749723 -0.00804276 0)
(-0.0101341 -0.00873679 0)
(-0.0104329 -0.0101557 0)
(-0.0132709 -0.00878399 0)
(-0.0144488 -0.00557197 0)
(-0.0138103 -0.00134533 0)
(-0.0131208 0.00220828 0)
(-0.0123528 0.00515955 0)
(-0.0116856 0.00721678 0)
(-0.0109648 0.00885377 0)
(-0.0103268 0.0100052 0)
(-0.00957436 0.0108388 0)
(-0.00876354 0.0114023 0)
(-0.00793094 0.0117576 0)
(-0.00715795 0.0119722 0)
(-0.00633482 0.0121389 0)
(-0.0054463 0.0123583 0)
(-0.0045928 0.0126124 0)
(-0.00364151 0.0128355 0)
(-0.00265929 0.0129949 0)
(-0.00170946 0.013075 0)
(-0.000980532 0.013134 0)
(-0.000123064 0.0130577 0)
(0.000380172 0.0129646 0)
(0.000712381 0.0127387 0)
(0.00129924 0.0124314 0)
(0.0020527 0.0119755 0)
(0.00353006 0.0113866 0)
(0.00590149 0.0108524 0)
(0.00890442 0.0104199 0)
(0.012823 0.0104644 0)
(0.0181771 0.010556 0)
(0.0383895 0.0106975 0)
(-0.0231995 0.0121347 0)
(-0.327565 0.0194471 0)
(-0.276529 0.0256551 0)
(0.215033 0.0267119 0)
(0.285274 0.0137112 0)
(0.0716995 0.00742458 0)
(0.00314837 0.00354231 0)
(-0.00360202 -0.00197048 0)
(-0.0102363 -0.0015548 0)
(-0.00983888 -0.00183506 0)
(-0.0107658 6.41887e-05 0)
(-0.0109729 0.00285952 0)
(-0.0107466 0.00591104 0)
(-0.0107825 0.00832819 0)
(-0.0103146 0.0104287 0)
(-0.0101591 0.0120587 0)
(-0.00986781 0.013373 0)
(-0.00956927 0.0144041 0)
(-0.00912659 0.0152208 0)
(-0.00859019 0.0158218 0)
(-0.00795262 0.0162389 0)
(-0.00721424 0.0165058 0)
(-0.0062052 0.0166929 0)
(-0.00504103 0.0168985 0)
(-0.00405494 0.0170927 0)
(-0.00316305 0.0172126 0)
(-0.00232903 0.0172528 0)
(-0.00150692 0.0172024 0)
(-0.000900371 0.0171615 0)
(-0.000115873 0.0169973 0)
(0.000318567 0.0168719 0)
(0.000549424 0.0166158 0)
(0.00102595 0.0163272 0)
(0.00164545 0.0158705 0)
(0.00309238 0.0153362 0)
(0.00556356 0.0148771 0)
(0.00889547 0.0145681 0)
(0.0131393 0.0148254 0)
(0.0186262 0.0152176 0)
(0.0395414 0.015618 0)
(-0.0186904 0.0180089 0)
(-0.319825 0.0255862 0)
(-0.2724 0.0405215 0)
(0.206111 0.0422671 0)
(0.272968 0.0227622 0)
(0.066717 0.0152346 0)
(-0.000702365 0.0119257 0)
(-0.00566149 0.0072493 0)
(-0.0100036 0.00743171 0)
(-0.00887276 0.00796803 0)
(-0.008747 0.00993709 0)
(-0.00881458 0.0122154 0)
(-0.00854048 0.0142076 0)
(-0.00876743 0.016127 0)
(-0.00875787 0.0177759 0)
(-0.00884827 0.0190753 0)
(-0.00870474 0.0204486 0)
(-0.00854619 0.0217228 0)
(-0.00820822 0.0229638 0)
(-0.0077825 0.0240194 0)
(-0.00727176 0.0247602 0)
(-0.0067205 0.0251691 0)
(-0.0059564 0.0253593 0)
(-0.00506101 0.0255662 0)
(-0.00429014 0.0257657 0)
(-0.00348726 0.025726 0)
(-0.00266905 0.025371 0)
(-0.00179737 0.0247782 0)
(-0.00117822 0.02434 0)
(-0.000402168 0.0237567 0)
(1.25542e-05 0.0234173 0)
(0.000187455 0.0229741 0)
(0.000581053 0.0227001 0)
(0.00109777 0.0222978 0)
(0.00257276 0.0218917 0)
(0.0051613 0.0215061 0)
(0.00885464 0.0212328 0)
(0.0134489 0.0215512 0)
(0.0189409 0.0221464 0)
(0.0410793 0.0223466 0)
(-0.0135938 0.0247512 0)
(-0.305871 0.0318545 0)
(-0.262137 0.0523558 0)
(0.196237 0.0574359 0)
(0.259225 0.0408598 0)
(0.061257 0.0371076 0)
(-0.00454654 0.0314434 0)
(-0.00793256 0.0261184 0)
(-0.00954376 0.0257209 0)
(-0.0074246 0.0266724 0)
(-0.0066729 0.0282501 0)
(-0.00685774 0.0305351 0)
(-0.00697727 0.0321367 0)
(-0.00734399 0.0335219 0)
(-0.00747352 0.0344461 0)
(-0.00758362 0.0349623 0)
(-0.00731659 0.0354157 0)
(-0.00714553 0.0358255 0)
(-0.00691351 0.0366468 0)
(-0.00685904 0.0380754 0)
(-0.00684464 0.0401531 0)
(-0.006637 0.0424801 0)
(-0.00582255 0.0441446 0)
(-0.0046494 0.044404 0)
(-0.00390097 0.0432879 0)
(-0.00354337 0.0415719 0)
(-0.00324243 0.040458 0)
(-0.00250048 0.0400661 0)
(-0.00188469 0.0405356 0)
(-0.00100495 0.0411848 0)
(-0.000435592 0.0415848 0)
(-0.000141769 0.0422078 0)
(0.000374301 0.0427107 0)
(0.000866452 0.0431522 0)
(0.00232947 0.0433644 0)
(0.00492868 0.0434027 0)
(0.00893884 0.0437779 0)
(0.0140197 0.0447752 0)
(0.0193927 0.0469923 0)
(0.0420515 0.0484886 0)
(-0.0095283 0.049671 0)
(-0.293224 0.0485869 0)
(-0.252644 0.0664684 0)
(0.190137 -0.251657 0)
(0.253379 -0.0413005 0)
(0.057643 0.00536307 0)
(-0.0112919 -0.010742 0)
(-0.0111759 -0.0170317 0)
(-0.00946976 -0.0254036 0)
(-0.00643555 -0.0290716 0)
(-0.0050248 -0.0348943 0)
(-0.00506925 -0.0379762 0)
(-0.00566224 -0.0415972 0)
(-0.00654204 -0.0441158 0)
(-0.00736985 -0.0473807 0)
(-0.00791394 -0.0500454 0)
(-0.00787294 -0.0532223 0)
(-0.00735981 -0.0563437 0)
(-0.00604014 -0.0593465 0)
(-0.00440375 -0.0617726 0)
(-0.00302731 -0.0633283 0)
(-0.00287411 -0.0633785 0)
(-0.0041024 -0.0620617 0)
(-0.00588661 -0.0620377 0)
(-0.00701925 -0.0629489 0)
(-0.00621422 -0.062363 0)
(-0.00412009 -0.0597957 0)
(-0.00172256 -0.0564092 0)
(-0.000100216 -0.0528995 0)
(0.000608827 -0.0481767 0)
(0.000998296 -0.0452752 0)
(0.00127243 -0.0407973 0)
(0.00149118 -0.0372611 0)
(0.00172767 -0.0330444 0)
(0.00281414 -0.0292598 0)
(0.00555977 -0.0253936 0)
(0.0101772 -0.020892 0)
(0.0165465 -0.0160205 0)
(0.0225192 -0.00969464 0)
(0.0436605 -0.00343941 0)
(-0.0134991 -0.00714205 0)
(-0.289684 -0.0472937 0)
(-0.244905 -0.196036 0)
(0.398944 -0.375743 0)
(0.506899 -0.455423 0)
(0.0907043 -0.285549 0)
(-0.026127 -0.313991 0)
(-0.0220609 -0.332187 0)
(-0.0211459 -0.346254 0)
(-0.0165702 -0.353599 0)
(-0.0152536 -0.362029 0)
(-0.0133169 -0.36866 0)
(-0.0128936 -0.373499 0)
(-0.0129172 -0.377932 0)
(-0.0131875 -0.381746 0)
(-0.0132127 -0.384514 0)
(-0.0133858 -0.387724 0)
(-0.0130471 -0.390537 0)
(-0.012145 -0.393394 0)
(-0.010696 -0.395823 0)
(-0.00839208 -0.397944 0)
(-0.00541646 -0.3991 0)
(-0.0045305 -0.398729 0)
(-0.00550437 -0.397522 0)
(-0.00421449 -0.396292 0)
(-0.000504814 -0.392975 0)
(0.00249491 -0.390267 0)
(0.00414502 -0.386506 0)
(0.00604843 -0.382973 0)
(0.00634211 -0.378666 0)
(0.00667549 -0.375292 0)
(0.00758089 -0.370688 0)
(0.00784519 -0.366362 0)
(0.00857679 -0.360616 0)
(0.00970212 -0.355454 0)
(0.0129922 -0.347911 0)
(0.0179711 -0.342056 0)
(0.0248099 -0.332813 0)
(0.0315163 -0.317703 0)
(0.0445112 -0.303608 0)
(-0.0517878 -0.300788 0)
(-0.475249 -0.490182 0)
(-0.395978 -0.34096 0)
(0.113355 -0.0905241 0)
(0.340294 -0.386891 0)
(0.193932 -0.263416 0)
(-0.0562345 -0.279767 0)
(-0.0422659 -0.29466 0)
(-0.0301025 -0.300735 0)
(-0.0216365 -0.303955 0)
(-0.0195386 -0.305992 0)
(-0.016123 -0.308401 0)
(-0.0145968 -0.308904 0)
(-0.0144891 -0.310169 0)
(-0.013713 -0.310535 0)
(-0.0136745 -0.310714 0)
(-0.013677 -0.311015 0)
(-0.0128234 -0.311016 0)
(-0.0111334 -0.310783 0)
(-0.00878806 -0.309966 0)
(-0.00618538 -0.308803 0)
(-0.00363105 -0.307676 0)
(-0.00258148 -0.30695 0)
(-0.00353819 -0.305654 0)
(-0.00263766 -0.304909 0)
(-0.000408333 -0.304017 0)
(0.00211367 -0.304809 0)
(0.0053066 -0.304413 0)
(0.00745427 -0.303604 0)
(0.00801037 -0.302954 0)
(0.00868689 -0.301873 0)
(0.00987742 -0.300867 0)
(0.0111966 -0.299489 0)
(0.0122389 -0.297389 0)
(0.0150574 -0.295689 0)
(0.0184708 -0.291832 0)
(0.0247255 -0.290004 0)
(0.0400144 -0.284822 0)
(0.0506623 -0.274226 0)
(0.0599598 -0.264954 0)
(-0.193288 -0.258194 0)
(-0.328395 -0.411794 0)
(-0.101109 -0.105798 0)
(0.113355 0.0905241 0)
(0.340294 0.386891 0)
(0.193932 0.263416 0)
(-0.0562345 0.279767 0)
(-0.0422659 0.29466 0)
(-0.0301025 0.300735 0)
(-0.0216365 0.303955 0)
(-0.0195386 0.305992 0)
(-0.016123 0.308401 0)
(-0.0145968 0.308904 0)
(-0.0144891 0.310169 0)
(-0.013713 0.310535 0)
(-0.0136745 0.310714 0)
(-0.013677 0.311015 0)
(-0.0128234 0.311016 0)