/*--------------------------------*- C++ -*----------------------------------*\
| =========                 |                                                 |
| \\      /  F ield         | OpenFOAM: The Open Source CFD Toolbox           |
|  \\    /   O peration     | Version:  v1912                                 |
|   \\  /    A nd           | Website:  www.openfoam.com                      |
|    \\/     M anipulation  |                                                 |
\*---------------------------------------------------------------------------*/
FoamFile
{
    version     2.0;
    format      ascii;
    class       volScalarField;
    location    "6.7";
    object      p;
}
// * * * * * * * * * * * * * * * * * * * * * * * * * * * * * * * * * * * * * //

dimensions      [0 2 -2 0 0 0 0];


internalField   nonuniform List<scalar> 
10000
(
3.88081e-06
0.000102501
-0.000120797
-0.000710534
-0.00161667
-0.00278282
-0.00415176
-0.00566861
-0.0072836
-0.0089527
-0.0106373
-0.0123036
-0.0139223
-0.015468
-0.0169185
-0.0182551
-0.0194613
-0.0205234
-0.0214299
-0.022171
-0.022739
-0.0231276
-0.0233322
-0.0233494
-0.023177
-0.0228142
-0.0222609
-0.0215183
-0.0205883
-0.0194737
-0.018178
-0.0167054
-0.0150609
-0.01325
-0.0112788
-0.00915396
-0.00688262
-0.00447238
-0.00193129
0.000732188
0.00350921
0.00639058
0.00936677
0.012428
0.015564
0.0187647
0.0220192
0.0253169
0.0286468
0.0319977
0.0353583
0.0387173
0.0420634
0.045385
0.0486706
0.0519089
0.0550885
0.0581981
0.0612266
0.0641631
0.0669969
0.0697176
0.0723151
0.0747797
0.0771021
0.0792735
0.0812856
0.0831307
0.0848018
0.0862925
0.0875973
0.0887114
0.089631
0.0903532
0.0908762
0.0911992
0.0913227
0.0912484
0.0909794
0.0905202
0.0898767
0.0890567
0.0880697
0.0869271
0.0856421
0.0842305
0.0827103
0.0811023
0.0794301
0.0777205
0.0760042
0.0743157
0.0726939
0.0711826
0.0698307
0.068691
0.0678177
0.0672621
0.0670669
0.0671781
-8.89826e-05
7.67022e-06
-0.000209789
-0.000736802
-0.00152228
-0.00252663
-0.00370795
-0.00502285
-0.00643008
-0.00789181
-0.00937387
-0.0108457
-0.0122802
-0.0136536
-0.014945
-0.016136
-0.0172111
-0.0181566
-0.0189612
-0.0196151
-0.0201104
-0.0204408
-0.0206013
-0.0205883
-0.0203994
-0.0200331
-0.0194892
-0.0187683
-0.017872
-0.0168026
-0.0155632
-0.0141574
-0.0125899
-0.0108656
-0.00899015
-0.00696973
-0.00481098
-0.00252101
-0.000107358
0.00242202
0.00505881
0.00779433
0.0106196
0.0135252
0.0165017
0.0195392
0.0226278
0.025757
0.0289166
0.032096
0.0352844
0.0384711
0.0416453
0.0447961
0.0479127
0.0509842
0.054
0.0569493
0.0598217
0.0626069
0.0652949
0.0678758
0.0703403
0.0726792
0.0748838
0.076946
0.0788582
0.0806131
0.0822044
0.0836263
0.0848737
0.0859425
0.0868293
0.0875317
0.0880483
0.0883787
0.0885237
0.0884854
0.088267
0.0878733
0.0873104
0.086586
0.0857094
0.0846919
0.0835464
0.0822883
0.0809347
0.0795053
0.0780226
0.0765114
0.0749999
0.0735191
0.0721035
0.0707905
0.0696205
0.0686351
0.0678738
0.0673723
0.0671775
0.0672891
0.000134843
0.000226062
8.7856e-06
-0.000485972
-0.00120285
-0.00210887
-0.00317006
-0.00435029
-0.00561449
-0.00692974
-0.00826574
-0.0095949
-0.0108924
-0.0121361
-0.0133063
-0.0143858
-0.0153595
-0.0162143
-0.0169391
-0.0175245
-0.0179625
-0.0182467
-0.0183723
-0.0183353
-0.018133
-0.0177641
-0.0172278
-0.0165246
-0.0156556
-0.0146228
-0.0134291
-0.0120777
-0.0105729
-0.00891913
-0.00712178
-0.00518658
-0.00311977
-0.000928063
0.00138141
0.00380113
0.0063232
0.00893937
0.0116411
0.0144194
0.0172653
0.0201694
0.0231221
0.0261135
0.0291339
0.032173
0.0352206
0.0382665
0.0413004
0.0443118
0.0472905
0.0502261
0.0531083
0.0559271
0.0586725
0.0613347
0.0639041
0.0663716
0.0687281
0.0709651
0.0730744
0.0750483
0.0768796
0.0785617
0.0800887
0.081455
0.0826563
0.0836886
0.0845489
0.0852353
0.0857465
0.0860825
0.0862444
0.0862344
0.0860558
0.0857134
0.0852134
0.0845633
0.0837724
0.0828514
0.0818131
0.0806719
0.0794443
0.078149
0.0768067
0.0754407
0.0740767
0.0727426
0.0714691
0.0702886
0.0692356
0.0683448
0.0676482
0.067176
0.0669819
0.0670948
0.000723578
0.00075401
0.000504479
8.89198e-06
-0.000681552
-0.00153697
-0.00252776
-0.00362272
-0.00479142
-0.00600499
-0.00723648
-0.00846106
-0.00965612
-0.0108012
-0.0118782
-0.0128708
-0.0137648
-0.0145478
-0.015209
-0.0157393
-0.016131
-0.016378
-0.0164752
-0.0164187
-0.0162059
-0.0158351
-0.0153056
-0.0146174
-0.0137717
-0.0127701
-0.0116151
-0.0103099
-0.00885822
-0.00726447
-0.00553353
-0.00367083
-0.00168229
0.000425731
0.00264645
0.00497271
0.00739697
0.00991137
0.0125077
0.0151775
0.0179121
0.0207024
0.0235392
0.0264132
0.0293149
0.0322345
0.0351624
0.0380885
0.041003
0.043896
0.0467574
0.0495776
0.0523466
0.0550548
0.0576926
0.0602506
0.0627199
0.0650915
0.0673569
0.0695079
0.0715369
0.0734365
0.0751999
0.0768208
0.0782937
0.0796134
0.0807759
0.0817775
0.0826155
0.0832881
0.0837945
0.0841347
0.0843099
0.0843224
0.0841756
0.0838742
0.0834243
0.0828333
0.08211
0.0812649
0.0803101
0.0792593
0.0781281
0.0769339
0.0756962
0.0744363
0.0731775
0.0719453
0.0707667
0.0696705
0.0686866
0.0678452
0.0671744
0.0667022
0.0664799
0.0665416
0.00162999
0.00154224
0.00122357
0.000698514
5.55877e-06
-0.000828654
-0.00177809
-0.00281594
-0.00391589
-0.00505275
-0.00620271
-0.00734362
-0.00845508
-0.0095185
-0.0105171
-0.0114359
-0.0122616
-0.0129825
-0.0135884
-0.0140707
-0.0144221
-0.0146363
-0.0147086
-0.0146353
-0.0144135
-0.0140417
-0.0135188
-0.012845
-0.0120211
-0.0110486
-0.00992975
-0.00866751
-0.00726539
-0.00572745
-0.00405833
-0.00226313
-0.000347475
0.00168261
0.00382066
0.00605984
0.00839298
0.0108125
0.0133107
0.0158794
0.0185102
0.0211945
0.0239234
0.0266881
0.0294793
0.0322878
0.0351041
0.0379188
0.0407224
0.0435054
0.0462581
0.0489711
0.0516351
0.0542408
0.0567789
0.0592407
0.0616173
0.0639003
0.0660815
0.0681533
0.0701081
0.0719392
0.07364
0.0752045
0.0766276
0.0779044
0.0790311
0.0800042
0.0808215
0.0814811
0.0819825
0.0823258
0.0825122
0.0825441
0.0824249
0.0821591
0.0817526
0.0812126
0.0805476
0.0797674
0.0788836
0.077909
0.0768583
0.0757476
0.0745948
0.0734195
0.0722428
0.0710873
0.0699772
0.0689377
0.0679947
0.0671746
0.0665021
0.0660028
0.065717
0.0656709
0.00280088
0.00255372
0.00213531
0.00155509
0.000833904
-4.99452e-06
-0.000938721
-0.00194447
-0.0029997
-0.00408255
-0.00517216
-0.00624891
-0.00729458
-0.00829238
-0.00922706
-0.0100849
-0.0108535
-0.0115221
-0.0120812
-0.0125226
-0.0128393
-0.0130256
-0.0130768
-0.0129892
-0.0127603
-0.0123882
-0.0118722
-0.0112121
-0.0104086
-0.00946323
-0.00837793
-0.00715546
-0.00579912
-0.00431277
-0.00270076
-0.000967937
0.00088038
0.00283845
0.00490011
0.00705885
0.00930778
0.0116397
0.0140472
0.0165224
0.0190573
0.0216437
0.0242731
0.0269368
0.0296261
0.032332
0.0350456
0.0377576
0.040459
0.0431407
0.0457933
0.0484079
0.0509754
0.0534868
0.0559336
0.0583069
0.0605986
0.0628005
0.0649047
0.0669039
0.0687911
0.0705595
0.0722031
0.0737162
0.0750937
0.0763313
0.0774251
0.0783722
0.0791701
0.0798174
0.0803136
0.0806588
0.0808543
0.0809024
0.0808064
0.0805708
0.0802011
0.0797041
0.079088
0.078362
0.077537
0.0766249
0.0756394
0.0745953
0.073509
0.0723982
0.0712819
0.0701804
0.0691148
0.0681073
0.0671803
0.0663563
0.0656575
0.0651062
0.0647269
0.0645316
0.0041832
0.00374989
0.00320853
0.00255152
0.00177981
0.000913436
-2.74394e-05
-0.00102366
-0.0020561
-0.00310591
-0.00415496
-0.00518601
-0.00618289
-0.0071306
-0.0080154
-0.00882477
-0.00954749
-0.0101736
-0.0106942
-0.0111019
-0.0113901
-0.0115533
-0.0115871
-0.0114882
-0.011254
-0.0108827
-0.0103736
-0.00972663
-0.00894229
-0.00802191
-0.00696744
-0.00578144
-0.00446701
-0.0030278
-0.00146797
0.000207872
0.00199468
0.00388697
0.00587888
0.00796415
0.0101362
0.0123882
0.0147128
0.0171027
0.0195501
0.0220472
0.0245857
0.0271574
0.0297538
0.0323663
0.0349863
0.0376049
0.0402134
0.0428029
0.0453646
0.0478898
0.0503697
0.0527958
0.0551597
0.0574531
0.0596679
0.0617965
0.0638312
0.0657649
0.067591
0.0693029
0.070895
0.0723616
0.0736982
0.0749003
0.0759644
0.0768876
0.0776678
0.0783035
0.0787942
0.0791401
0.0793426
0.0794037
0.0793266
0.0791156
0.0787759
0.078314
0.0777375
0.0770551
0.0762768
0.0754138
0.0744786
0.0734849
0.0724473
0.0713821
0.0703061
0.0692373
0.0681944
0.0671965
0.0662629
0.0654128
0.0646658
0.0640414
0.0635454
0.0631736
0.00572694
0.00509123
0.00441037
0.00365949
0.0028191
0.00190635
0.00093909
-6.6816e-05
-0.00109532
-0.00213035
-0.00315621
-0.00415791
-0.00512122
-0.00603286
-0.00688053
-0.007653
-0.00834008
-0.00893271
-0.00942286
-0.00980355
-0.0100688
-0.0102136
-0.0102338
-0.0101262
-0.00988846
-0.00951905
-0.00901714
-0.00838265
-0.00761618
-0.00671895
-0.0056928
-0.00454015
-0.00326397
-0.00186774
-0.000355416
0.00126859
0.00299944
0.0048319
0.00676036
0.00877884
0.010881
0.0130602
0.0153096
0.017622
0.01999
0.0224059
0.024862
0.0273502
0.0298624
0.0323902
0.0349253
0.0374593
0.0399837
0.0424899
0.0449695
0.0474139
0.0498149
0.0521641
0.0544533
0.0566747
0.0588205
0.0608831
0.0628554
0.0647304
0.0665017
0.068163
0.0697088
0.0711339
0.0724336
0.0736039
0.0746412
0.0755429
0.0763067
0.0769314
0.0774164
0.077762
0.0779693
0.0780403
0.0779781
0.0777865
0.0774707
0.0770364
0.0764909
0.0758423
0.0750998
0.0742737
0.0733753
0.0724172
0.0714127
0.0703761
0.0693227
0.0682681
0.0672288
0.0662214
0.0652621
0.0643671
0.0635539
0.0628395
0.06221
0.0616448
0.00738757
0.0065407
0.00570922
0.0048516
0.00392817
0.00295369
0.00194413
0.000912392
-0.000128253
-0.00116419
-0.002182
-0.00316872
-0.00411195
-0.00500003
-0.00582206
-0.00656805
-0.00722888
-0.00779637
-0.00826327
-0.00862325
-0.00887085
-0.00900151
-0.00901148
-0.00889783
-0.0086584
-0.00829177
-0.00779725
-0.00717481
-0.00642506
-0.0055492
-0.00454899
-0.00342678
-0.00218538
-0.00082816
0.000641094
0.00221814
0.00389833
0.00567664
0.00754768
0.00950572
0.0115447
0.0136582
0.0158395
0.0180819
0.0203781
0.0227207
0.0251024
0.0275152
0.0299514
0.0324029
0.0348617
0.0373195
0.0397682
0.0421996
0.0446054
0.0469774
0.0493076
0.0515879
0.0538104
0.0559674
0.0580515
0.0600553
0.0619719
0.0637946
0.0655171
0.0671335
0.0686382
0.0700263
0.0712932
0.0724351
0.0734484
0.0743306
0.0750796
0.0756939
0.0761731
0.0765173
0.0767275
0.0768057
0.0767546
0.0765778
0.07628
0.0758666
0.0753443
0.0747205
0.0740037
0.0732033
0.0723297
0.0713941
0.0704086
0.0693859
0.0683395
0.0672832
0.0662312
0.0651979
0.0641969
0.0632416
0.0623479
0.0615305
0.060756
0.059988
0.00912641
0.00806475
0.00707574
0.00610203
0.00508449
0.00403601
0.00297107
0.00189999
0.000833583
-0.000216756
-0.00123965
-0.00222398
-0.00315906
-0.00403471
-0.00484142
-0.00557035
-0.00621344
-0.00676339
-0.00721373
-0.00755877
-0.00779362
-0.00791419
-0.00791712
-0.00779979
-0.00756027
-0.00719734
-0.00671041
-0.00609955
-0.0053654
-0.00450918
-0.00353264
-0.00243804
-0.00122811
9.39059e-05
0.00152435
0.00305913
0.00469377
0.00642341
0.00824286
0.0101466
0.0121288
0.0141832
0.0163036
0.0184831
0.0207149
0.0229919
0.0253069
0.0276522
0.0300204
0.0324037
0.0347943
0.0371841
0.0395654
0.04193
0.0442701
0.0465778
0.0488451
0.0510642
0.0532275
0.0553276
0.0573571
0.059309
0.0611765
0.0629531
0.0646327
0.0662094
0.067678
0.0690336
0.0702716
0.0713884
0.0723805
0.0732453
0.0739808
0.0745855
0.0750588
0.0754008
0.0756124
0.0756952
0.0756517
0.0754854
0.0752003
0.0748017
0.0742954
0.0736883
0.0729882
0.0722036
0.0713439
0.0704191
0.0694401
0.0684182
0.0673652
0.0662933
0.0652148
0.0641418
0.0630858
0.0620578
0.0610723
0.0601422
0.0592155
0.0582405
0.0109101
0.00963341
0.00848307
0.00738676
0.00626677
0.00513463
0.00400372
0.00288213
0.00177849
0.000702259
-0.000337025
-0.00132994
-0.00226733
-0.00314043
-0.00394099
-0.00466131
-0.00529432
-0.00583361
-0.00627345
-0.00660882
-0.0068354
-0.00694956
-0.00694837
-0.00682954
-0.00659141
-0.00623297
-0.00575377
-0.00515399
-0.00443435
-0.0035961
-0.002641
-0.00157126
-0.000389579
0.000900918
0.00229668
0.00379373
0.00538775
0.00707402
0.00884752
0.0107029
0.0126345
0.0146365
0.0167025
0.0188262
0.0210009
0.0232196
0.0254753
0.0277609
0.0300688
0.0323917
0.0347219
0.0370517
0.0393734
0.0416793
0.0439616
0.0462126
0.0484246
0.0505901
0.0527016
0.0547519
0.0567337
0.0586404
0.0604651
0.0622016
0.0638439
0.0653863
0.0668236
0.0681509
0.069364
0.070459
0.0714326
0.0722822
0.0730056
0.0736015
0.074069
0.0744081
0.0746196
0.0747048
0.074666
0.0745062
0.0742292
0.0738396
0.0733429
0.0727453
0.0720537
0.071276
0.0704204
0.0694961
0.0685127
0.0674801
0.0664089
0.0653095
0.0641925
0.0630683
0.0619465
0.0608358
0.0597498
0.0587001
0.057617
0.0564342
0.0127097
0.0112201
0.00990683
0.00868363
0.0074551
0.00623184
0.00502649
0.00384523
0.00269482
0.00158297
0.000517625
-0.000493332
-0.00144215
-0.00232137
-0.00312389
-0.00384309
-0.00447286
-0.00500764
-0.00544244
-0.00577289
-0.00599523
-0.00610633
-0.00610364
-0.00598526
-0.00574981
-0.0053965
-0.00492508
-0.00433585
-0.0036296
-0.00280766
-0.00187179
-0.00082424
0.00033235
0.00159491
0.00295999
0.00442372
0.0059819
0.00762994
0.00936297
0.0111758
0.0130629
0.0150187
0.017037
0.0191116
0.021236
0.0234036
0.0256075
0.0278406
0.0300959
0.0323659
0.0346434
0.0369209
0.0391907
0.0414455
0.0436775
0.0458794
0.0480436
0.0501628
0.0522296
0.054237
0.056178
0.0580458
0.0598339
0.0615362
0.0631467
0.0646599
0.0660706
0.0673741
0.0685659
0.0696424
0.0706003
0.0714367
0.0721497
0.0727376
0.0731995
0.0735354
0.0737455
0.0738313
0.0737944
0.0736378
0.0733646
0.0729792
0.0724863
0.0718917
0.0712014
0.0704225
0.0695626
0.0686296
0.0676322
0.0665791
0.0654794
0.0643423
0.0631769
0.061992
0.0607954
0.0595942
0.0584012
0.0572274
0.0559859
0.0545967
0.0145006
0.0128012
0.0113251
0.00997235
0.00863098
0.00731094
0.00602447
0.00477612
0.00357103
0.00241544
0.00131582
0.000278711
-0.00068942
-0.00158228
-0.00239388
-0.00311858
-0.00375116
-0.00428688
-0.00472148
-0.00505124
-0.00527293
-0.00538392
-0.00538207
-0.00526583
-0.00503414
-0.00468645
-0.00422274
-0.00364342
-0.00294942
-0.00214211
-0.00122332
-0.000195296
0.000939306
0.00217746
0.00351577
0.00495048
0.00647747
0.00809229
0.00979017
0.0115661
0.0134146
0.0153303
0.0173072
0.0193394
0.0214204
0.0235438
0.0257029
0.0278908
0.0301007
0.0323253
0.0345575
0.03679
0.0390155
0.0412266
0.0434159
0.045576
0.0476996
0.0497796
0.0518087
0.05378
0.0556866
0.0575219
0.0592795
0.0609534
0.0625375
0.0640265
0.0654153
0.066699
0.0678735
0.0689348
0.0698796
0.0707052
0.0714093
0.0719903
0.0724472
0.0727795
0.0729875
0.0730722
0.0730351
0.0728786
0.0726056
0.0722199
0.0717258
0.0711283
0.070433
0.0696461
0.0687743
0.0678247
0.0668049
0.0657226
0.0645858
0.0634024
0.0621802
0.0609267
0.0596482
0.0583503
0.0570456
0.0557446
0.0543442
0.0527515
0.016261
0.014356
0.0127179
0.0112344
0.00977726
0.00835626
0.00698347
0.00566208
0.00439585
0.00318973
0.00204893
0.000978783
-1.5409e-05
-0.00092843
-0.00175528
-0.00249123
-0.00313193
-0.00367339
-0.00411206
-0.00444482
-0.00466901
-0.00478246
-0.00478346
-0.0046708
-0.00444374
-0.004102
-0.00364576
-0.00307563
-0.00239264
-0.00159825
-0.000694362
0.000316757
0.00143244
0.00264967
0.00396508
0.00537497
0.00687533
0.00846181
0.0101297
0.0118742
0.01369
0.0155716
0.0175134
0.0195094
0.0215536
0.0236396
0.0257608
0.0279106
0.0300822
0.0322686
0.0344628
0.0366577
0.0388461
0.0410208
0.0431745
0.0453
0.0473902
0.0494378
0.051436
0.0533778
0.0552565
0.0570656
0.0587986
0.0604496
0.0620128
0.0634826
0.064854
0.0661223
0.0672831
0.0683325
0.0692672
0.0700843
0.0707814
0.0713567
0.0718091
0.0721379
0.0723432
0.0724255
0.0723864
0.0722275
0.0719516
0.0715619
0.0710621
0.0704568
0.0697508
0.0689498
0.0680595
0.0670864
0.066037
0.0649182
0.0637369
0.0624999
0.0612139
0.0598853
0.0585192
0.05712
0.0557002
0.0542701
0.0527113
0.0509187
0.0179721
0.0158659
0.0140677
0.0124529
0.0108781
0.00935313
0.00789004
0.00649089
0.00515828
0.00389604
0.0027083
0.00159929
0.000573302
-0.000365439
-0.00121284
-0.00196504
-0.00261845
-0.00316982
-0.00361625
-0.00395522
-0.00418461
-0.00430272
-0.00430824
-0.00420033
-0.00397854
-0.00364288
-0.00319375
-0.00263193
-0.00195863
-0.00117541
-0.000284205
0.000712644
0.00181245
0.0030122
0.00430852
0.00569778
0.007176
0.00873893
0.010382
0.0121004
0.013889
0.0157424
0.0176552
0.0196214
0.0216352
0.0236904
0.0257805
0.0278991
0.0300394
0.0321946
0.0343579
0.0365223
0.0386808
0.0408262
0.0429514
0.0450493
0.0471129
0.0491351
0.051109
0.0530279
0.054885
0.0566739
0.0583882
0.060022
0.0615694
0.0630251
0.0643838
0.0656408
0.0667917
0.0678327
0.0687602
0.0695711
0.0702631
0.0708342
0.071283
0.0716086
0.0718109
0.0718902
0.0718474
0.0716842
0.0714027
0.0710057
0.0704965
0.069879
0.0691576
0.0683372
0.0674228
0.0664202
0.0653351
0.0641734
0.0629413
0.0616446
0.0602891
0.0588802
0.0574219
0.0559178
0.0543805
0.0528204
0.0511045
0.0491159
0.0196175
0.0173145
0.0153582
0.0136123
0.0119189
0.0102878
0.00873143
0.00725084
0.00584765
0.00452472
0.00328525
0.00213253
0.00106991
0.00010074
-0.000771735
-0.00154443
-0.00221449
-0.00277933
-0.00323667
-0.00358458
-0.00382144
-0.00394601
-0.00395741
-0.00385512
-0.00363902
-0.00330938
-0.00286681
-0.00231233
-0.00164728
-0.000873356
7.41509e-06
0.000992652
0.00207963
0.00326532
0.00454635
0.00591909
0.00737961
0.00892372
0.0105469
0.0122445
0.0140115
0.0158425
0.0177322
0.0196749
0.0216646
0.0236954
0.025761
0.0278551
0.0299709
0.0321019
0.0342413
0.0363822
0.0385177
0.0406408
0.0427444
0.0448217
0.0468655
0.048869
0.0508253
0.0527276
0.0545693
0.0563441
0.0580455
0.0596676
0.0612046
0.062651
0.0640016
0.0652517
0.0663967
0.0674326
0.0683559
0.0691634
0.0698525
0.0704209
0.0708672
0.0711902
0.0713896
0.0714652
0.0714178
0.0712487
0.0709594
0.0705525
0.0700307
0.0693975
0.0686565
0.0678121
0.0668689
0.0658317
0.0647056
0.0634958
0.0622076
0.0608461
0.0594163
0.0579227
0.0563687
0.054757
0.0531006
0.0514101
0.0495386
0.0473579
0.0211823
0.0186869
0.0165749
0.0146985
0.012886
0.0111475
0.00949558
0.00793071
0.0064536
0.00506631
0.0037712
0.00257073
0.00146746
0.00046391
-0.000437428
-0.0012342
-0.00192422
-0.00250553
-0.00297645
-0.00333555
-0.00358174
-0.00371421
-0.00373249
-0.00363642
-0.00342617
-0.00310227
-0.00266558
-0.0021173
-0.00145896
-0.000692373
0.000180307
0.00115664
0.00223386
0.00340891
0.00467841
0.00603873
0.00748596
0.00901594
0.0106243
0.0123062
0.014057
0.0158713
0.0177438
0.0196689
0.0216409
0.0236537
0.0257013
0.0277774
0.0298755
0.0319891
0.0341114
0.0362356
0.038355
0.0404627
0.0425517
0.0446151
0.0466459
0.0486373
0.0505824
0.0524745
0.0543071
0.0560737
0.057768
0.059384
0.0609158
0.062358
0.0637052
0.0649526
0.0660956
0.0671302
0.0680525
0.0688592
0.0695476
0.0701153
0.0705605
0.0708818
0.0710785
0.0711504
0.0710978
0.0709215
0.0706229
0.070204
0.069667
0.0690149
0.068251
0.0673789
0.0664027
0.0653266
0.0641551
0.0628927
0.0615439
0.0601134
0.0586053
0.0570237
0.0553711
0.0536497
0.0518731
0.0500523
0.0480269
0.0456578
0.0226536
0.0199699
0.0177045
0.0156986
0.0137669
0.01192
0.010171
0.00851975
0.00696611
0.00551152
0.0041576
0.00290611
0.00175886
0.000717671
-0.000215669
-0.00103947
-0.00175219
-0.00235244
-0.00283909
-0.00321122
-0.0034682
-0.00360966
-0.00363551
-0.00354596
-0.00334147
-0.00302283
-0.00259114
-0.00204778
-0.00139446
-0.000633167
0.000233849
0.00120405
0.00227462
0.00344247
0.00470421
0.00605619
0.00749451
0.00901503
0.0106134
0.0122849
0.0140248
0.0158279
0.017689
0.0196026
0.0215629
0.0235641
0.0256001
0.0276648
0.0297518
0.0318545
0.0339665
0.0360809
0.0381911
0.0402901
0.0423711
0.0444273
0.0464517
0.0484376
0.050378
0.0522663
0.0540959
0.0558603
0.0575532
0.0591686
0.0607006
0.0621436
0.0634921
0.0647413
0.0658865
0.0669234
0.067848
0.068657
0.0693472
0.0699163
0.070362
0.0706828
0.0708776
0.070946
0.0708879
0.0707038
0.0703946
0.069962
0.0694078
0.0687344
0.0679447
0.0670418
0.0660293
0.0649107
0.06369
0.0623712
0.0609583
0.0594552
0.0578657
0.0561931
0.0544398
0.0526072
0.0507096
0.0487587
0.0465811
0.044027
0.0240195
0.0211513
0.0187348
0.0166003
0.0145497
0.012594
0.0107469
0.00900762
0.00737546
0.00585126
0.00443603
0.00313087
0.00193695
0.000855466
-0.000112433
-0.000965669
-0.00170328
-0.00232445
-0.00282853
-0.0032151
-0.00348396
-0.00363514
-0.00366895
-0.00358592
-0.00338684
-0.00307276
-0.00264499
-0.00210513
-0.00145504
-0.000696866
0.000167006
0.00113393
0.00220103
0.00336516
0.00462291
0.00597062
0.0074044
0.00892008
0.0105133
0.0121795
0.0139139
0.0157114
0.0175669
0.0194748
0.0214295
0.0234252
0.025456
0.0275157
0.0295981
0.0316967
0.0338049
0.0359162
0.0380238
0.0401209
0.0422007
0.0442564
0.046281
0.0482678
0.05021
0.0521007
0.0539335
0.0557017
0.0573991
0.0590195
0.060557
0.0620058
0.0633606
0.0646161
0.0657676
0.0668107
0.0677412
0.0685555
0.0692504
0.0698231
0.0702712
0.070593
0.070787
0.0708525
0.070789
0.0705968
0.0702764
0.069829
0.069256
0.0685595
0.0677418
0.0668055
0.0657538
0.0645898
0.0633169
0.0619387
0.0604585
0.05888
0.0572063
0.0554406
0.0535846
0.0516397
0.0496207
0.04754
0.0452118
0.0424757
0.0252692
0.02222
0.0196544
0.0173925
0.0152235
0.0131588
0.0112129
0.00938438
0.00767221
0.00607663
0.00459812
0.00323721
0.0019945
0.000870604
-0.000133887
-0.00101845
-0.00178268
-0.00242626
-0.00294906
-0.00335107
-0.00363253
-0.00379385
-0.00383569
-0.00375893
-0.00356466
-0.00325419
-0.00282908
-0.00229111
-0.00164232
-0.000884985
-2.16429e-05
0.000944952
0.00201182
0.00317577
0.00443334
0.00578088
0.00721446
0.00872994
0.010323
0.0119889
0.0137231
0.0155205
0.0173759
0.019284
0.0212392
0.0232356
0.0252674
0.0273286
0.0294128
0.0315137
0.0336249
0.0357396
0.0378514
0.0399533
0.0420385
0.0441003
0.0461317
0.0481259
0.0500762
0.0519757
0.0538178
0.0555959
0.0573036
0.0589347
0.0604831
0.061943
0.0633088
0.0645754
0.0657376
0.0667909
0.0677309
0.0685539
0.0692564
0.0698354
0.0702881
0.0706127
0.0708073
0.0708708
0.0708026
0.0706024
0.0702705
0.0698076
0.0692148
0.0684937
0.0676463
0.0666748
0.0655817
0.0643699
0.0630423
0.061602
0.0600522
0.0583958
0.0566358
0.0547752
0.0528151
0.0507568
0.0486161
0.046406
0.0439283
0.0410128
0.0263928
0.0231655
0.0204528
0.0180647
0.0157777
0.0136041
0.0115589
0.00964044
0.00784715
0.00617886
0.00463559
0.00321734
0.0019242
0.000756271
-0.000286368
-0.00120371
-0.00199583
-0.00266291
-0.00320527
-0.00362336
-0.00391778
-0.00408933
-0.004139
-0.00406799
-0.00387769
-0.00356968
-0.00314575
-0.00260788
-0.00195829
-0.0011994
-0.000333876
0.000635413
0.00170538
0.00287275
0.00413403
0.00548551
0.00692327
0.00844316
0.0100408
0.0117116
0.0134509
0.0152536
0.0171147
0.0190288
0.0209903
0.0229936
0.0250327
0.0271016
0.029194
0.0313038
0.0334244
0.0355493
0.0376718
0.0397851
0.0418824
0.0439569
0.0460017
0.0480099
0.0499747
0.0518892
0.0537468
0.0555409
0.0572648
0.0589122
0.0604771
0.0619534
0.0633354
0.0646177
0.0657952
0.0668629
0.0678165
0.0686518
0.0693651
0.0699531
0.0704131
0.0707425
0.0709394
0.0710023
0.0709303
0.0707226
0.0703793
0.0699007
0.0692876
0.0685411
0.0676627
0.0666545
0.0655184
0.0642569
0.0628726
0.0613683
0.0597467
0.0580105
0.0561625
0.0542053
0.05214
0.0499676
0.0477048
0.0453654
0.0427394
0.0396464
0.027381
0.0239782
0.0211201
0.0186067
0.0162024
0.0139201
0.0117754
0.00976649
0.0078913
0.00614934
0.00454021
0.00306345
0.00171868
0.000505541
-0.000576374
-0.00152751
-0.0023484
-0.00303968
-0.0036021
-0.00403652
-0.00434394
-0.00452549
-0.00458251
-0.00451647
-0.00432906
-0.00402213
-0.00359769
-0.00305797
-0.00240532
-0.00164234
-0.000771808
0.000203289
0.00127976
0.00245424
0.00372315
0.00508276
0.00652911
0.00805803
0.00966517
0.0113459
0.0130956
0.0149091
0.0167815
0.0187073
0.0206812
0.0226973
0.0247498
0.0268328
0.02894
0.0310651
0.0332016
0.0353432
0.037483
0.0396143
0.0417303
0.0438242
0.0458889
0.0479176
0.0499033
0.0518393
0.0537187
0.0555348
0.0572809
0.0589506
0.0605375
0.0620357
0.0634391
0.0647421
0.0659395
0.0670261
0.0679973
0.0688487
0.0695764
0.0701767
0.0706466
0.0709833
0.0711846
0.0712486
0.071174
0.0709599
0.0706058
0.0701117
0.0694781
0.0687057
0.0677957
0.0667497
0.0655694
0.0642568
0.0628144
0.0612444
0.0595494
0.0577319
0.0557944
0.0537393
0.0515677
0.0492805
0.0468953
0.0444268
0.0416531
0.0383839
0.028225
0.0246489
0.021647
0.0190092
0.0164882
0.0140973
0.0118532
0.00975343
0.00779585
0.00597957
0.00430381
0.00276773
0.00137052
0.000111368
-0.00101056
-0.00199613
-0.0028463
-0.00356213
-0.00414475
-0.00459543
-0.00491555
-0.00510658
-0.00517016
-0.00510807
-0.00492225
-0.00461481
-0.004188
-0.00364426
-0.00298613
-0.00221637
-0.00133788
-0.000353756
0.000732705
0.00191804
0.00319859
0.00457056
0.00602996
0.0075726
0.0091941
0.0108899
0.0126552
0.014485
0.0163743
0.0183177
0.0203097
0.0223448
0.0244169
0.0265202
0.0286485
0.0307953
0.0329544
0.0351192
0.037283
0.0394389
0.0415803
0.0437001
0.0457913
0.0478471
0.0498603
0.0518241
0.0537316
0.055576
0.0573504
0.0590482
0.060663
0.0621885
0.0636187
0.0649476
0.0661699
0.06728
0.0682732
0.0691448
0.0698906
0.0705066
0.0709896
0.0713363
0.0715444
0.0716115
0.0715361
0.0713169
0.070953
0.0704441
0.0697903
0.068992
0.0680501
0.0669658
0.0657404
0.0643759
0.0628741
0.0612372
0.0594675
0.0575673
0.0555391
0.0533851
0.0511063
0.0487036
0.0461955
0.0435978
0.0406767
0.0372323
0.0289165
0.0251688
0.0220242
0.0192629
0.0166256
0.0141266
0.011783
0.00959238
0.00755213
0.00566112
0.00391826
0.00232236
0.000872204
-0.00043341
-0.00159572
-0.00261602
-0.00349564
-0.00423601
-0.00483867
-0.00530524
-0.00563746
-0.00583714
-0.00590624
-0.00584681
-0.00566105
-0.0053513
-0.00492007
-0.00436997
-0.00370377
-0.00292438
-0.00203484
-0.00103836
6.16681e-05
0.00126168
0.00255795
0.0039466
0.00542356
0.00698463
0.0086254
0.0103413
0.0121275
0.0139791
0.015891
0.0178577
0.0198739
0.0219339
0.0240318
0.0261617
0.0283174
0.0304925
0.0326806
0.0348752
0.0370695
0.0392568
0.0414301
0.0435825
0.0457069
0.0477963
0.0498436
0.0518418
0.0537838
0.0556627
0.0574716
0.0592036
0.0608522
0.0624109
0.0638734
0.0652336
0.0664857
0.0676243
0.0686442
0.0695403
0.0703082
0.0709437
0.0714432
0.0718031
0.0720207
0.0720934
0.0720192
0.0717966
0.0714243
0.0709016
0.0702284
0.0694046
0.0684309
0.0673081
0.0660373
0.0646201
0.0630582
0.0613536
0.0595082
0.0575244
0.0554044
0.0531505
0.0507637
0.0482447
0.0456133
0.042886
0.0398175
0.0361981
0.0294475
0.0255294
0.0222431
0.019359
0.0166059
0.013999
0.0115561
0.00927456
0.00715152
0.00518561
0.00337543
0.00171946
0.000216154
-0.00113607
-0.00233884
-0.00339382
-0.00430272
-0.00506734
-0.00568957
-0.00617137
-0.00651481
-0.00672205
-0.00679534
-0.00673703
-0.00654956
-0.00623551
-0.00579759
-0.00523864
-0.00456161
-0.00376958
-0.00286575
-0.00185345
-0.000736171
0.00048244
0.00179857
0.00320825
0.00470737
0.00629165
0.00795666
0.00969781
0.0115103
0.0133891
0.0153292
0.0173251
0.0193713
0.0214623
0.0235922
0.025755
0.0279444
0.0301543
0.032378
0.034609
0.0368405
0.0390657
0.0412776
0.0434693
0.0456336
0.0477634
0.0498514
0.0518905
0.0538736
0.0557935
0.0576431
0.0594156
0.061104
0.0627018
0.0642023
0.0655994
0.0668869
0.068059
0.0691103
0.0700356
0.07083
0.0714891
0.0720088
0.0723853
0.0726156
0.0726966
0.0726261
0.0724022
0.0720233
0.0714883
0.0707968
0.0699483
0.0689433
0.0677822
0.066466
0.064996
0.0633735
0.0616005
0.0596788
0.0576105
0.0553978
0.0530432
0.0505474
0.0479114
0.0451559
0.0422986
0.0390823
0.0352875
0.0298099
0.0257225
0.0222952
0.0192886
0.0164202
0.0137056
0.0111636
0.00879126
0.00658549
0.00454467
0.00266715
0.000951121
-0.000605296
-0.00200402
-0.00324703
-0.00433636
-0.00527408
-0.00606235
-0.00670338
-0.00719946
-0.00755299
-0.00776644
-0.00784235
-0.00778337
-0.00759219
-0.00727162
-0.00682457
-0.00625408
-0.0055633
-0.00475548
-0.00383397
-0.00280225
-0.00166391
-0.000422683
0.000917531
0.00235269
0.00387861
0.00549095
0.00718523
0.00895681
0.0108009
0.0127125
0.0146864
0.0167172
0.0187995
0.0209276
0.0230956
0.0252976
0.0275272
0.0297782
0.0320441
0.0343181
0.0365935
0.0388634
0.0411207
0.0433585
0.0455694
0.0477463
0.0498817
0.0519685
0.0539992
0.0559667
0.0578636
0.0596829
0.0614174
0.0630604
0.064605
0.0660446
0.067373
0.0685841
0.069672
0.0706314
0.071457
0.072144
0.072688
0.073085
0.0733314
0.073424
0.07336
0.0731373
0.0727539
0.0722085
0.0715001
0.0706282
0.0695928
0.0683941
0.0670328
0.0655099
0.0638268
0.061985
0.0599864
0.0578329
0.0555269
0.0530707
0.0504651
0.0477113
0.0448309
0.0418427
0.0384778
0.0345068
0.029996
0.0257398
0.0221719
0.0190433
0.0160598
0.0132378
0.0105968
0.00813384
0.00584548
0.00372991
0.00178523
9.34325e-06
-0.00159991
-0.00304478
-0.00432756
-0.00545064
-0.00641646
-0.00722748
-0.00788627
-0.00839543
-0.00875765
-0.00897571
-0.00905244
-0.00899075
-0.00879362
-0.00846409
-0.00800527
-0.00742039
-0.00671277
-0.00588584
-0.00494313
-0.00388824
-0.00272489
-0.00145693
-8.83079e-05
0.00137685
0.00293428
0.00457958
0.00630821
0.00811548
0.00999654
0.0119464
0.0139599
0.0160315
0.0181559
0.0203272
0.0225396
0.024787
0.0270632
0.0293619
0.0316764
0.0340001
0.0363262
0.0386475
0.0409571
0.0432478
0.0455122
0.047743
0.0499327
0.0520739
0.0541591
0.0561808
0.0581317
0.0600043
0.0617914
0.0634859
0.0650807
0.066569
0.0679442
0.0691999
0.0703299
0.0713286
0.0721903
0.07291
0.0734828
0.0739044
0.0741708
0.0742784
0.0742242
0.0740056
0.0736203
0.0730666
0.0723433
0.0714496
0.070385
0.0691496
0.0677438
0.0661685
0.0644248
0.0625142
0.0604384
0.0581993
0.0557993
0.0532407
0.0505244
0.0476518
0.0446455
0.0415253
0.0380106
0.0338621
0.029998
0.0255733
0.021865
0.0186145
0.0155161
0.0125869
0.0098471
0.00729364
0.00492291
0.00273286
0.000721355
-0.00111398
-0.00277559
-0.00426602
-0.00558788
-0.00674388
-0.00773679
-0.00856943
-0.00924466
-0.00976542
-0.0101347
-0.0103555
-0.010431
-0.0103644
-0.0101588
-0.00981768
-0.00934423
-0.0087419
-0.0080142
-0.00716471
-0.00619711
-0.00511517
-0.00392275
-0.00262378
-0.00122232
0.000277439
0.00187117
0.0035544
0.00532253
0.0071708
0.00909433
0.0110881
0.0131468
0.0152652
0.0174375
0.0196582
0.0219212
0.0242205
0.0265498
0.0289027
0.0312726
0.0336527
0.0360361
0.0384158
0.0407845
0.043135
0.0454598
0.0477514
0.0500024
0.052205
0.0543516
0.0564345
0.0584461
0.0603788
0.0622252
0.0639777
0.0656292
0.0671724
0.0686005
0.0699068
0.0710847
0.0721282
0.0730314
0.0737888
0.0743952
0.0748459
0.0751365
0.0752631
0.0752223