/*--------------------------------*- C++ -*----------------------------------*\
| =========                 |                                                 |
| \\      /  F ield         | OpenFOAM: The Open Source CFD Toolbox           |
|  \\    /   O peration     | Version:  v1912                                 |
|   \\  /    A nd           | Website:  www.openfoam.com                      |
|    \\/     M anipulation  |                                                 |
\*---------------------------------------------------------------------------*/
FoamFile
{
    version     2.0;
    format      ascii;
    class       volScalarField;
    location    "2";
    object      rho;
}
// * * * * * * * * * * * * * * * * * * * * * * * * * * * * * * * * * * * * * //

dimensions      [1 -3 0 0 0 0 0];


internalField   nonuniform List<scalar> 
1900
(
15909.3
14709.1
14718
14723
14729.2
14737.9
14762.6
14804.3
14844.7
14901.3
15909.3
14709.2
14718
14723.1
14728.9
14736.7
14759.4
14796.9
14833.2
14889.1
15909.4
14709.2
14718.1
14723
14728.4
14735.2
14758.8
14798.6
14841.8
14886.5
15909.3
14709.2
14718
14723.1
14728.9
14736.7
14759.4
14796.9
14833.2
14889.1
15909.3
14709.1
14718
14723
14729.2
14737.9
14762.6
14804.3
14844.7
14901.3
14844.5
14894.1
14867.2
14724.9
13876
14928.4
14977.6
14935.5
14869.5
14491.3
14917.7
14948.8
14893.4
14784.7
14388.6
14928.4
14977.6
14935.5
14869.5
14491.3
14844.5
14894.1
14867.2
14724.9
13876
15986.6
16210.6
16643.1
17049.9
17931.8
15842.9
16190.8
16648.2
17102.6
17326
15846.9
16204.4
16641.7
16973.3
16634.3
15842.9
16190.8
16648.2
17102.6
17326
15986.6
16210.6
16643.1
17049.9
17931.8
16857.3
9051.87
9159.94
9404.14
9419.16
9502.84
9699.04
9915.3
10252.2
10654.6
11117.3
11617.9
12140.5
12666.5
13168.6
13595.6
13874.8
13982.2
13999.3
14000.1
14000.1
13999.2
13979.6
13862.6
13566.5
13119.5
12596
12045.2
11490.9
10945.1
10414.7
9905.18
9422.53
8975.31
8574.79
8218.78
7882.74
7583.47
7489.84
41207.8
15373.8
9101.92
9294.21
9426.92
9434.32
9510.53
9701.17
9917.81
10253.4
10655.1
11117.5
11618
12140.4
12666.5
13168.5
13595.6
13874.7
13982.1
13999.3
14000.1
14000.1
13999.1
13979.6
13862.5
13566.4
13119.5
12595.9
12045.2
11490.9
10945.1
10414.7
9905.17
9422.52
8975.3
8574.78
8218.77
7882.74
7583.47
7489.84
41207.8
14506.2
9504.43
9366.36
9450.21
9442.62
9512.91
9702.14
9918.63
10253.9
10655.2
11117.4
11617.9
12140.3
12666.4
13168.5
13595.5
13874.6
13982.1
13999.3
14000.1
14000.1
13999.1
13979.6
13862.5
13566.4
13119.4
12595.9
12045.1
11490.9
10945
10414.7
9905.17
9422.52
8975.3
8574.78
8218.77
7882.74
7583.47
7489.84
41207.8
15373.8
9101.92
9294.21
9426.92
9434.32
9510.53
9701.17
9917.81
10253.4
10655.1
11117.5
11618
12140.4
12666.5
13168.5
13595.6
13874.7
13982.1
13999.3
14000.1
14000.1
13999.1
13979.6
13862.5
13566.4
13119.5
12595.9
12045.2
11490.9
10945.1
10414.7
9905.17
9422.52
8975.3
8574.78
8218.77
7882.74
7583.47
7489.84
41207.8
16857.3
9051.87
9159.94
9404.14
9419.16
9502.84
9699.04
9915.3
10252.2
10654.6
11117.3
11617.9
12140.5
12666.5
13168.6
13595.6
13874.8
13982.2
13999.3
14000.1
14000.1
13999.2
13979.6
13862.6
13566.5
13119.5
12596
12045.2
11490.9
10945.1
10414.7
9905.18
9422.53
8975.31
8574.79
8218.78
7882.74
7583.47
7489.84
41207.8
25559.4
8572.82
8905.45
9238.4
9366.04
9474.61
9673.06
9904.82
10244.9
10650.3
11114.2
11615.5
12138.3
12664.5
13166.5
13593.7
13873.3
13981.5
13999
13999.8
13999.8
13998.9
13979.4
13862.3
13566.2
13119.2
12595.8
12045
11490.8
10944.9
10414.6
9905.12
9422.48
8975.28
8574.77
8218.76
7882.73
7583.46
7489.83
41207.8
32588.7
7916.46
8552.45
8946.68
9211.27
9390.05
9606.37
9869.56
10220.2
10634
11101.4
11604.6
12128.1
12654.6
13156.9
13584.7
13865.7
13975.1
13993
13993.8
13993.8
13992.9
13973.3
13856.4
13560.5
13113.9
12590.8
12040.6
11487
10941.8
10412
9903.04
9420.87
8974.07
8573.88
8218.12
7882.27
7583.17
7489.64
41207.7
36838.2
7774.33
8332.93
8750.08
9039.04
9263.36
9504.08
9799.33
10159
10581.4
11050.7
11553
12073.8
12596.8
13096.3
13523.1
13804.9
13915.5
13933.8
13934.6
13934.6
13933.7
13914.3
13798
13503.8
13060
12540.6
11994.5
11445.4
10904.9
10379.8
9875.52
9397.72
8954.92
8558.27
8205.56
7872.1
7575.81
7484.19
41203.6
39183.4
7683.02
8130.26
8521.13
8827.71
9090.87
9344.24
9648.77
10011.9
10431.3
10893.9
11386.3
11896.2
12408.6
12899
13319.2
13597.8
13707.7
13726
13726.9
13726.9
13725.9
13707
13592.9
13304.1
12868.6
12359.3
11824.6
11287.7
10759.8
10247.6
9756.14
9290.96
8860.31
8474.93
8132.55
7808.37
7524.49
7442.01
41133.2
40101.9
7591.24
7910.1
8269.96
8564.95
8809.6
9060.53
9369.36
9732.81
10146
10597
11074.9
11568.9
12065.8
12542.3
12951.5
13223.2
13330.5
13348.3
13349.2
13349.2
13348.3
13330.2
13220.2
12940.9
12518.8
12025.2
11507.4
10988
10477.9
9983.53
9509.86
9062.22
8648.48
8278.87
7951.16
7642.8
7379.87
7311.82
40720.7
41131
7445.26
7644.48
7925.47
8181.06
8424.08
8685.45
8998.35
9360.93
9766.81
10205.7
10668.4
11146
11626.7
12087.9
12483.8
12746.1
12849.1
12866
12866.8
12866.8
12866
12849
12744.7
12477.3
12071.6
11596.4
11097.7
10597.4
10106.4
9630.92
9175.62
8745.69
8348.56
7993.97
7680.12
7390.03
7146.54
7085.57
39603.4
39397.7
7131.31
7277.48
7522.72
7768.43
8005.04
8271.88
8587.44
8948.33
9346.67
9773.76
10222.2
10684.4
11149.2
11594.6
11976
12226.8
12324
12339.6
12340.3
12340.3
12339.6
12324
12226.3
11972.6
11584.6
11128.7
10649.6
10168.8
9696.83
9239.8
8802.3
8389.23
8007.31
7666.22
7364.8
7093.27
6862.39
6794.81
37763.7
37384.1
6779.55
6898.57
7122.03
7352.93
7581.64
7851.78
8168.54
8526.37
8916.63
9332.33
9767.25
10214.6
10663.8
11093.2
11458.9
11696.8
11787
11801.1
11801.7
11801.7
11801.1
11787.1
11696.8
11457.5
11087.9
10651.4
10191.8
9730.24
9276.95
8837.9
8417.67
8020.66
7653.03
7324.6
7034.85
6780.54
6555.4
6470.4
35458.6
34817.4
6408.68
6529.23
6729.91
6943.01
7167.21
7440.09
7757.03
8110.03
8491.8
8896.16
9318.09
9751.07
10184.7
10597.7
10946.9
11170.6
11253.3
11265.7
11266.2
11266.2
11265.7
11253.4
11170.8
10946.6
10595.5
10178.3
9737.87
9295.03
8859.84
8438.33
8034.55
7653.36
7299.06
6982.95
6704.65
6463.67
6240.16
6133.53
32963.6
31972.8
6029.6
6156.82
6341.19
6545.42
6768.87
7045.18
7359.71
7707.93
8080.18
8473.56
8882.51
9301.2
9719.17
10115.4
10447.3
10656.1
10730.8
10741.5
10741.9
10741.9
10741.5
10730.9
10656.3
10447.5
10114.9
9716.61
9294.79
8870.05
8452.47
8047.5
7660.24
7293.01
6952.97
6647.95
6381.2
6148.59
5924.61
5799.22
30337.9
29084.2
5650.54
5778.83
5963.84
6169.35
6396.16
6671.02
6984.08
7323.63
7687.77
8069.13
8465.24
8869.34
9271.46
9650.63
9964.82
10158.2
10224.9
10233.9
10234.2
10234.2
10233.9
10224.9
10158.3
9965.11
9650.85
9270.98
8867.11
8459.87
8058.86
7670.61
7297.12
6946.12
6616.64
6325.46
6067.53
5840.62
5613.02
5476.26
27818.9
26054.8
5281.13
5411.17
5611.87
5822.53
6052.29
6325.08
6629.15
6963.99
7315.88
7686.77
8069.19
8458.78
8844.97
9207.02
9503.38
9681.31
9740.02
9747.49
9747.74
9747.74
9747.49
9740.03
9681.37
9503.6
9207.41
8845.34
8458.67
8067.85
7683.21
7308.86
6952.16
6610.79
6297.92
6015.96
5767.45
5543.7
5310.14
5168.59
25221
23320.6
4942.47
5077.31
5296.01
5509.73
5742.38
6004.54
6305.63
6626.15
6970.76
7328.15
7698.11
8073.24
8444.08
8789.47
9068.3
9230.98
9282.09
9288.13
9288.32
9288.32
9288.13
9282.09
9231
9068.41
8789.78
8444.61
8073.89
7698.58
7328
6969.41
6622.73
6299.55
5993.95
5727.83
5485.27
5264.66
5026.46
4881.77
22853.2
20668.4
4638.06
4776.12
5012.17
5226.4
5462.07
5716.94
6006.17
6320.86
6651.59
6999.18
7356.47
7719
8075.83
8405.8
8667.92
8815.92
8859.88
8864.68
8864.82
8864.82
8864.68
8859.88
8815.91
8667.96
8405.97
8076.23
7719.68
7357.4
7000.26
6652.56
6321.49
6005.86
5715.49
5458.55
5219.1
5001.53
4756.31
4612.63
20457.2
18519.4
4390.83
4530.74
4772.01
4989.72
5221.7
5469.08
5750
6051.76
6373.78
6709.3
7055.3
7405.21
7749.13
8065.11
8311.85
8446.2
8483.73
8487.48
8487.57
8487.57
8487.48
8483.73
8446.2
8311.85
8065.18
7749.34
7405.67
7056.08
6710.44
6375.26
6053.55
5751.96
5471.07
5223.43
4990.6
4771.88
4527.05
4384.29
18436.5
16380.1
4159.76
4294.68
4540.56
4759.26
4999.5
5241.45
5520.82
5816.99
6130.32
6456.29
6790.59
7128.62
7460.01
7762.76
7995.12
8116.7
8148.42
8151.29
8151.36
8151.36
8151.29
8148.42
8116.69
7995.1
7762.77
7460.09
7128.84
6791.04
6457.04
6131.43
5818.52
5522.72
5243.8
5002.03
4761.98
4543.06
4295.95
4159.72
16361.3
14766
3974.03
4096.3
4333.67
4549.43
4790.2
5032.87
5309.59
5603.09
5913.12
6232.3
6555.69
6878.32
7191.73
7475.59
7690.42
7799.59
7826.53
7828.77
7828.81
7828.81
7828.77
7826.53
7799.59
7690.41
7475.58
7191.74
6878.38
6555.87
6232.64
5913.7
5603.96
5310.78
5034.46
4792.11
4551.71
4336.07
4098.4
3975.62
14763.3
13048.5
3786.38
3886.17
4107.05
4311.82
4553.63
4795.23
5075.76
5371.63
5684.22
6005.92
6331.63
6654.22
6961.14
7230.24
7424.56
7516.73
7537.46
7539
7539.02
7539.02
7539
7537.46
7516.73
7424.56
7230.23
6961.13
6654.23
6331.69
6006.07
5684.51
5372.09
5076.43
4796.14
4554.79
4313.25
4108.61
3887.65
3787.59
13050.4
12893.7
3705.09
3793.63
3991.85
4182.45
4417.37
4657.96
4937.03
5236.72
5556.87
5893.45
6239.88
6583.37
6904.91
7176.06
7359.95
7440.34
7456.8
7457.89
7457.91
7457.91
7457.89
7456.8
7440.34
7359.95
7176.05
6904.89
6583.37
6239.9
5893.52
5557.03
5236.98
4937.43
4658.51
4418.09
4183.35
3992.88
3794.7
3706.05
12895.8
99504
13152.8
13329.4
15180.2
16900.4
19155.9
21351.9
23931.5
26477.9
29264.6
31954.1
34706.4
37275.7
39512.4
41098.5
41866.6
42063.2
42083.1
42083.7
42083.7
42083.7
42083.7
42083.1
42063.2
41866.6
41098.5
39512.4
37275.6
34706.3
31954
29264.4
26477.6
23931.2
21351.5
19155.6
16900.2
15180.1
13329.5
13153
99505.7
99504
13152.8
13329.4
15180.2
16900.4
19155.9
21351.9
23931.5
26477.9
29264.6
31954.1
34706.4
37275.7
39512.4
41098.5
41866.6
42063.2
42083.1
42083.7
42083.7
42083.7
42083.7
42083.1
42063.2
41866.6
41098.5
39512.4
37275.6
34706.3
31954
29264.4
26477.6
23931.2
21351.5
19155.6
16900.2
15180.1
13329.5
13153
99505.7
12893.7
3705.09
3793.63
3991.85
4182.45
4417.37
4657.96
4937.03
5236.72
5556.87
5893.45
6239.88
6583.37
6904.91
7176.06
7359.95
7440.34
7456.8
7457.89
7457.91
7457.91
7457.89
7456.8
7440.34
7359.95
7176.05
6904.89
6583.37
6239.9
5893.52
5557.03
5236.98
4937.43
4658.51
4418.09
4183.35
3992.88
3794.7
3706.05
12895.8
13048.5
3786.38
3886.17
4107.05
4311.82
4553.63
4795.23
5075.76
5371.63
5684.22
6005.92
6331.63
6654.22
6961.14
7230.24
7424.56
7516.73
7537.46
7539
7539.02
7539.02
7539
7537.46
7516.73
7424.56
7230.23
6961.13
6654.23
6331.69
6006.07
5684.51
5372.09
5076.43
4796.14
4554.79
4313.25
4108.61
3887.65
3787.59
13050.4
14766
3974.03
4096.3
4333.67
4549.43
4790.2
5032.87
5309.59
5603.09
5913.12
6232.3
6555.69
6878.32
7191.73
7475.59
7690.42
7799.59
7826.53
7828.77
7828.81
7828.81
7828.77
7826.53
7799.59
7690.41
7475.58
7191.74
6878.38
6555.87
6232.64
5913.7
5603.96
5310.78
5034.46
4792.11
4551.71
4336.07
4098.4
3975.62
14763.3
16380.1
4159.76
4294.68
4540.56
4759.26
4999.5
5241.45
5520.82
5816.99
6130.32
6456.29
6790.59
7128.62
7460.01
7762.76
7995.12
8116.7
8148.42
8151.29
8151.36
8151.36
8151.29
8148.42
8116.69
7995.1
7762.77
7460.09
7128.84
6791.04
6457.04
6131.43
5818.52
5522.72
5243.8
5002.03
4761.98
4543.06
4295.95
4159.72
16361.3
18519.4
4390.83
4530.74
4772.01
4989.72
5221.7
5469.08
5750
6051.76
6373.78
6709.3
7055.3
7405.21
7749.13
8065.11
8311.85
8446.2
8483.73
8487.48
8487.57
8487.57
8487.48
8483.73
8446.2
8311.85
8065.18
7749.34
7405.67
7056.08
6710.44
6375.26
6053.55
5751.96
5471.07
5223.43
4990.6
4771.88
4527.05
4384.29
18436.5
20668.4
4638.06
4776.12
5012.17
5226.4
5462.07
5716.94
6006.17
6320.86
6651.59
6999.18
7356.47
7719
8075.83
8405.8
8667.92
8815.92
8859.88
8864.68
8864.82
8864.82
8864.68
8859.88
8815.91
8667.96
8405.97
8076.23
7719.68
7357.4
7000.26
6652.56
6321.49
6005.86
5715.49
5458.55
5219.1
5001.53
4756.31
4612.63
20457.2
23320.6
4942.47
5077.31
5296.01
5509.73
5742.38
6004.54
6305.63
6626.15
6970.76
7328.15
7698.11
8073.24
8444.08
8789.47
9068.3
9230.98
9282.09
9288.13
9288.32
9288.32
9288.13
9282.09
9231
9068.41
8789.78
8444.61
8073.89
7698.58
7328
6969.41
6622.73
6299.55
5993.95
5727.83
5485.27
5264.66
5026.46
4881.77
22853.2
26054.8
5281.13
5411.17
5611.87
5822.53
6052.29
6325.08
6629.15
6963.99
7315.88
7686.77
8069.19
8458.78
8844.97
9207.02
9503.38
9681.31
9740.02
9747.49
9747.74
9747.74
9747.49
9740.03
9681.37
9503.6
9207.41
8845.34
8458.67
8067.85
7683.21
7308.86
6952.16
6610.79
6297.92
6015.96
5767.45
5543.7
5310.14
5168.59
25221
29084.2
5650.54
5778.83
5963.84
6169.35
6396.16
6671.02
6984.08
7323.63
7687.77
8069.13
8465.24
8869.34
9271.46
9650.63
9964.82
10158.2
10224.9
10233.9
10234.2
10234.2
10233.9
10224.9
10158.3
9965.11
9650.85
9270.98
8867.11
8459.87
8058.86
7670.61
7297.12
6946.12
6616.64
6325.46
6067.53
5840.62
5613.02
5476.26
27818.9
31972.8
6029.6
6156.82
6341.19
6545.42
6768.87
7045.18
7359.71
7707.93
8080.18
8473.56
8882.51
9301.2
9719.17
10115.4
10447.3
10656.1
10730.8
10741.5
10741.9
10741.9
10741.5
10730.9
10656.3
10447.5
10114.9
9716.61
9294.79
8870.05
8452.47
8047.5
7660.24
7293.01
6952.97
6647.95
6381.2
6148.59
5924.61
5799.22
30337.9
34817.4
6408.68
6529.23
6729.91
6943.01
7167.21
7440.09
7757.03
8110.03
8491.8
8896.16
9318.09
9751.07
10184.7
10597.7
10946.9
11170.6
11253.3
11265.7
11266.2
11266.2
11265.7
11253.4
11170.8
10946.6
10595.5
10178.3
9737.87
9295.03
8859.84
8438.33
8034.55
7653.36
7299.06
6982.95
6704.65
6463.67
6240.16
6133.53
32963.6
37384.1
6779.55
6898.57
7122.03
7352.93
7581.64
7851.78
8168.54
8526.37
8916.63
9332.33
9767.25
10214.6
10663.8
11093.2
11458.9
11696.8
11787
11801.1
11801.7
11801.7
11801.1
11787.1
11696.8
11457.5
11087.9
10651.4
10191.8
9730.24
9276.95
8837.9
8417.67
8020.66
7653.03
7324.6
7034.85
6780.54
6555.4
6470.4
35458.6
39397.7
7131.31
7277.48
7522.72
7768.43
8005.04
8271.88
8587.44
8948.33
9346.67
9773.76
10222.2
10684.4
11149.2
11594.6
11976
12226.8
12324
12339.6
12340.3
12340.3
12339.6
12324
12226.3
11972.6
11584.6
11128.7
10649.6
10168.8
9696.83
9239.8
8802.3
8389.23
8007.31
7666.22
7364.8
7093.27
6862.39
6794.81
37763.7
41131
7445.26
7644.48
7925.47
8181.06
8424.08
8685.45
8998.35
9360.93
9766.81
10205.7
10668.4
11146
11626.7
12087.9
12483.8
12746.1
12849.1
12866
12866.8
12866.8
12866
12849
12744.7
12477.3
12071.6
11596.4
11097.7
10597.4
10106.4
9630.92
9175.62
8745.69
8348.56
7993.97
7680.12
7390.03
7146.54
7085.57
39603.4
40101.9
7591.24
7910.1
8269.96
8564.95
8809.6
9060.53
9369.36
9732.81
10146
10597
11074.9
11568.9
12065.8
12542.3
12951.5
13223.2
13330.5
13348.3
13349.2
13349.2
13348.3
13330.2
13220.2
12940.9
12518.8
12025.2
11507.4
10988
10477.9
9983.53
9509.86
9062.22
8648.48
8278.87
7951.16
7642.8
7379.87
7311.82
40720.7
39183.4
7683.02
8130.26
8521.13
8827.71
9090.87
9344.24
9648.77
10011.9
10431.3
10893.9
11386.3
11896.2
12408.6
12899
13319.2
13597.8
13707.7
13726
13726.9
13726.9
13725.9
13707
13592.9
13304.1
12868.6
12359.3
11824.6
11287.7
10759.8
10247.6
9756.14
9290.96
8860.31
8474.93
8132.55
7808.37
7524.49
7442.01
41133.2
36838.2
7774.33
8332.93
8750.08
9039.04
9263.36
9504.08
9799.33
10159
10581.4
11050.7
11553
12073.8
12596.8
13096.3
13523.1
13804.9
13915.5
13933.8
13934.6
13934.6
13933.7
13914.3
13798
13503.8
13060
12540.6
11994.5
11445.4
10904.9
10379.8
9875.52
9397.72
8954.92
8558.27
8205.56
7872.1
7575.81
7484.19
41203.6
32588.7
7916.46
8552.45
8946.68
9211.27
9390.05
9606.37
9869.56
10220.2
10634
11101.4
11604.6
12128.1
12654.6
13156.9
13584.7
13865.7
13975.1
13993
13993.8
13993.8
13992.9
13973.3
13856.4
13560.5
13113.9
12590.8
12040.6
11487
10941.8
10412
9903.04
9420.87
8974.07
8573.88
8218.12
7882.27
7583.17
7489.64
41207.7
25559.4
8572.82
8905.45
9238.4
9366.04
9474.61
9673.06
9904.82
10244.9
10650.3
11114.2
11615.5
12138.3
12664.5
13166.5
13593.7
13873.3
13981.5
13999
13999.8
13999.8
13998.9
13979.4
13862.3
13566.2
13119.2
12595.8
12045
11490.8
10944.9
10414.6
9905.12
9422.48
8975.28
8574.77
8218.76
7882.73
7583.46
7489.83
41207.8
)
;

boundaryField
{
    inlet
    {
        type            calculated;
        value           uniform 14000.1;
    }
    outlet
    {
        type            calculated;
        value           nonuniform List<scalar> 
165
(
2109.82
2376.86
2378.23
2360.02
2344.83
2321.38
2355.62
2390.69
2438.09
2493.79
2553.42
2621.14
2685.26
2752.08
2805.21
2863.16
2882.84
2889.19
3052.13
3428.78
3428.78
3059.18
2889.41
2881.95
2864.56
2807.36
2756.84
2695.98
2639.31
2577.4
2519.96
2461.58
2408.19
2362.43
2330.47
2315.09
2311.13
2310.72
2310.71
2310.71
2310.71
2310.71
2310.72
2311.13
2315.09
2330.47
2362.43
2408.19
2461.58
2519.97
2577.4
2639.32
2695.99
2756.85
2807.37
2864.58
2881.96
2889.41
3059.17
3428.77
2301.44
2301.44
2301.53
2302.99
2311.41
2334.29
2372.42
2421.05
2474.49
2532.09
2587.74
2647.65
2702.5
2761.46
2809.6
2864.43
2883.24
2889.21
3051.91
3428.77
2301.44
2301.44
2301.44
2301.44
2301.44
3428.77
3051.91
2889.21
2883.24
2864.43
2809.6
2761.46
2702.5
2647.65
2587.74
2532.09
2474.49
2421.05
2372.42
2334.29
2311.41
2302.99
2301.53
2301.44
2301.44
3428.78
3059.18
2889.41
2881.95
2864.56
2807.36
2756.84
2695.98
2639.31
2577.4
2519.96
2461.58
2408.19
2362.43
2330.47
2315.09
2311.13
2310.72
2310.71
2310.71
2310.71
2310.71
2310.72
2311.13
2315.09
2330.47
2362.43
2408.19
2461.58
2519.97
2577.4
2639.32
2695.99
2756.85
2807.37
2864.58
2881.96
2889.41
3059.17
3428.77
3428.78
3052.13
2889.19
2882.84
2863.16
2805.21
2752.08
2685.26
2621.14
2553.42
2493.79
2438.09
2390.69
2355.62
2321.38
2344.83
2360.02
2378.23
2376.86
2109.82
)
;
    }
    obstacle
    {
        type            calculated;
        value           nonuniform List<scalar> 
40
(
15909.3
14709.1
14718
14723
14729.2
14737.9
14762.6
14804.3
14844.7
14901.3
15909.3
14709.1
14718
14723
14729.2
14737.9
14762.6
14804.3
14844.7
14901.3
14844.5
14894.1
14867.2
14724.9
13876
14844.5
14894.1
14867.2
14724.9
13876
15986.6
16210.6
16643.1
17049.9
17931.8
15986.6
16210.6
16643.1
17049.9
17931.8
)
;
    }
    empty
    {
        type            empty;
    }
}


// ************************************************************************* //
