/*--------------------------------*- C++ -*----------------------------------*\
| =========                 |                                                 |
| \\      /  F ield         | OpenFOAM: The Open Source CFD Toolbox           |
|  \\    /   O peration     | Version:  v1912                                 |
|   \\  /    A nd           | Website:  www.openfoam.com                      |
|    \\/     M anipulation  |                                                 |
\*---------------------------------------------------------------------------*/
FoamFile
{
    version     2.0;
    format      ascii;
    class       volScalarField;
    location    "6.4";
    object      s;
}
// * * * * * * * * * * * * * * * * * * * * * * * * * * * * * * * * * * * * * //

dimensions      [0 2 -2 0 0 0 0];


internalField   nonuniform List<scalar> 
10000
(
-2.17435e-17
8.17144e-15
-2.88777e-13
-1.07021e-11
5.18911e-10
-1.35697e-08
7.5446e-07
4.50516e-06
-6.20169e-06
8.62741e-07
1.30997e-05
-3.11976e-05
4.66328e-05
-5.33988e-05
4.75548e-05
-2.93067e-05
6.65917e-07
4.24891e-05
-7.90406e-05
0.000115519
-0.00018136
0.000187866
-0.000221053
0.000255873
-0.00022373
0.000264114
-0.000216688
0.000216757
-0.000191394
0.000141826
-0.000138667
6.70071e-05
-6.52088e-05
4.14481e-06
1.11981e-05
-4.49069e-05
7.24563e-05
-7.98475e-05
0.000107979
-9.91326e-05
0.000116207
-0.000101309
0.000102113
-8.72215e-05
7.39852e-05
-6.11237e-05
4.10814e-05
-3.02421e-05
1.21582e-05
-3.13715e-06
-5.70408e-06
1.26154e-05
-8.43331e-06
1.28916e-05
3.50954e-06
-9.4851e-07
2.39017e-05
-2.11518e-05
4.09199e-05
-3.46976e-05
4.01124e-05
-2.76592e-05
1.10814e-05
6.42032e-06
-4.30836e-05
5.6047e-05
-9.80492e-05
8.68867e-05
-0.000111223
5.59501e-05
-4.72101e-05
-4.69375e-05
7.17393e-05
-0.000153721
0.000131496
-0.00013864
2.1361e-05
3.85947e-05
-0.000133199
9.22776e-05
-1.85329e-05
-4.18743e-05
2.20163e-05
1.2801e-06
4.80666e-06
9.28743e-06
6.95697e-06
5.50655e-06
3.08294e-06
7.60653e-07
-5.0725e-07
-6.51742e-07
-2.38928e-07
3.27651e-08
7.46464e-10
-4.00658e-12
-4.10453e-12
-3.23944e-13
-6.87197e-15
-1.77377e-17
-8.10659e-15
1.88129e-12
-9.02445e-11
-9.68936e-10
1.28486e-07
-4.69307e-06
-0.000178755
-0.000241679
0.000555882
-0.000580719
0.000221372
0.000426396
-0.0011826
0.00188543
-0.00237557
0.00254351
-0.00265719
0.00217913
-0.00113386
0.00162753
9.37215e-05
-0.00175246
0.000868147
-0.00386521
0.00328877
-0.00443193
0.00554277
-0.00478194
0.00693657
-0.005336
0.00703646
-0.00590128
0.00622431
-0.00608853
0.00503596
-0.00556224
0.00378986
-0.00431279
0.00257836
-0.00260337
0.00138447
-0.000777135
0.000190314
0.000881262
-0.000962965
0.00218486
-0.00196776
0.00302019
-0.00267459
0.00331426
-0.00293196
0.00301988
-0.00263628
0.00212621
-0.00177998
0.000703498
-0.000484374
-0.00102286
0.000979169
-0.00261638
0.00217146
-0.00346918
0.0025083
-0.00299419
0.00143906
-0.000955152
-0.00111033
0.00216521
-0.00415544
0.00492451
-0.00555148
0.00504865
-0.00321694
0.000644581
0.00264659
-0.00611987
0.00773085
-0.00597629
0.00197664
0.00471085
-0.00547541
0.0015283
0.00142974
-0.00052311
0.000498767
0.000291034
0.000124925
0.000118368
7.31345e-06
-5.74448e-05
-7.43393e-05
-5.21662e-05
-1.25025e-05
1.0654e-05
1.60593e-08
6.76525e-09
9.83626e-10
6.37338e-11
1.49057e-12
7.18401e-15
-2.68867e-13
8.27783e-11
-8.92775e-09
2.53517e-07
-4.26646e-06
0.00097716
0.00529701
-0.000559478
-0.00521173
0.00850706
-0.0081452
0.00469783
0.000399602
-0.00608205
0.011885
-0.0149569
0.0176644
-0.0237954
0.0155387
-0.0157984
0.027547
-0.00811601
0.0139939
-0.0113736
0.000743601
-0.00464277
-0.00698573
-0.000226514
-0.0123257
0.00686458
-0.0153823
0.0155848
-0.0157714
0.0235222
-0.0171269
0.0286611
-0.019968
0.0301914
-0.0230722
0.0284683
-0.0251325
0.0248765
-0.0253479
0.0207858
-0.0237046
0.0168317
-0.0205866
0.0129622
-0.0163316
0.00865047
-0.0112127
0.00324875
-0.00542169
-0.0034235
0.00116514
-0.010621
0.00885782
-0.0168301
0.0172569
-0.0205592
0.0242398
-0.0209889
0.0261519
-0.0176821
0.0200785
-0.00980606
0.00706529
0.00355106
-0.00722957
0.0201816
-0.0179108
0.0321585
-0.0274859
0.0328632
-0.0307335
0.0177585
0.0155916
-0.0307367
0.0658098
-0.0548963
-0.0167781
0.0437469
-0.0154953
-0.00221182
0.00633927
-0.002412
0.000225768
0.000190616
-0.00129258
-0.00119393
-0.000993604
-0.000484288
0.000134719
0.000391257
-5.42376e-05
-1.31711e-06
-7.26754e-08
-3.39644e-09
-7.18968e-11
-3.85772e-13
1.09963e-11
-1.52089e-09
-1.94434e-07
1.32564e-05
-0.00181621
-0.0211093
-0.0333053
0.0284155
-0.00329451
-0.0172058
0.025399
-0.0223021
0.0131466
-0.00404546
-0.0100538
0.0247451
-0.0202887
0.0335456
-0.0510737
0.0174633
-0.0379152
0.0500631
-0.0211529
0.0341178
-0.047694
0.0341907
-0.0234112
0.0311402
-0.0012002
0.0351798
-0.00638881
0.0179859
-0.0163514
0.00723399
-0.0213519
-0.00747062
-0.0189273
-0.01995
-0.00417414
-0.0235661
0.0137826
-0.0234187
0.0239584
-0.0231323
0.025463
-0.021514
0.0222726
-0.0193796
0.0175201
-0.0199111
0.0139897
-0.0230094
0.0158051
-0.0243872
0.0267246
-0.0208343
0.0447476
-0.014463
0.0589367
-0.0111601
0.0551418
-0.0132895
0.0280526
-0.0123393
-0.010071
0.00610416
-0.0325573
0.0433995
-0.0254
0.0705627
-0.0086208
0.03821
-0.0168697
-0.0273566
-0.0350108
0.0696292
0.0187406
0.0176313
-0.12137
-0.0789868
0.168539
-0.0572836
-0.057895
0.0540617
-0.0219767
-0.0167106
0.0152999
-0.00528485
-0.00777027
-0.00240047
-0.00233108
0.000484578
0.00324164
0.00310021
-0.00165215
9.36473e-05
2.25369e-06
7.95047e-08
1.34746e-09
6.28226e-12
4.30797e-10
-1.35965e-07
-1.27849e-06
0.00159603
0.0294855
0.108738
0.0252362
-0.0658234
0.0432887
-0.0138609
-0.00121397
0.00166941
0.00828192
-0.0061618
-0.00231061
-0.0125442
0.0227581
0.00251676
-0.00115002
-0.00127341
-0.0113885
-0.0354748
0.00262141
0.0631377
-0.00298361
-0.00886407
0.056066
-0.0912469
0.00290897
-0.0302035
0.0438897
-0.0674074
0.0197107
-0.0743048
0.0674948
-0.0291262
0.0956294
-0.0231238
0.0520664
-0.0360661
-0.000212099
-0.0174608
-0.0169231
0.021927
-0.018741
0.043897
-0.0303145
0.034132
-0.0412831
0.0111113
-0.0282748
0.00180408
0.0139334
0.0111477
0.0658226
0.01622
0.0934225
-0.00740696
0.0709306
-0.054331
0.0084172
-0.0811975
-0.048133
-0.0355905
-0.0558673
0.083346
-0.0130007
0.15391
0.0231241
0.0566505
-0.0346183
-0.153104
-0.0553288
-0.132873
0.231512
0.137465
-0.204
-0.155785
0.0537268
0.155746
-0.187678
-0.0892297
0.170814
-0.0485556
-0.10947
0.0806054
0.0459426
-0.0477482
0.0069578
0.00896396
-0.00114246
0.00763179
0.0104233
0.004764
-0.0109745
0.00250291
-9.00382e-05
-1.46568e-06
-1.46498e-08
-3.3338e-11
7.26667e-09
-4.8564e-06
-0.000611883
-0.0137985
-0.094968
-0.12658
0.0824921
-0.0521431
0.0479998
-0.0484591
0.0393742
-0.024303
-0.00487774
0.0164948
0.0132948
-0.026753
0.0361222
-0.0587079
0.0790914
-0.0945628
0.118485
-0.125439
0.122507
-0.0902895
0.113876
-0.143501
0.100855
-0.0550977
-0.0642278
-0.0575139
0.0498647
0.126795
-0.0329575
0.14918
-0.183159
0.103345
-0.208281
0.143261
-0.131249
0.196737
-0.0785862
0.155594
-0.0843478
0.046011
-0.0917551
-0.046328
-0.0443121
-0.0776062
0.0484657
-0.0600341
0.13219
-0.0346422
0.163703
-0.0405856
0.134247
-0.0800345
0.0600276
-0.107269
-0.0163645
-0.0704563
-0.0391573
0.0336371
-0.0156909
0.155436
-0.0208912
0.187164
-0.141538
0.0253168
-0.207945
-0.226254
-0.019552
-0.0630065
0.317419
0.224041
0.145864
-0.315615
-0.413161
0.394656
0.175029
-0.304001
-0.126896
0.239027
0.0780465
-0.180458
0.0171266
0.218623
-0.0742211
-0.0554495
0.0902861
-0.0125871
-0.00693909
0.00923685
0.00289284
-0.0036744
-0.0178575
0.0101969
-0.00154194
5.17468e-05
1.5553e-07
-6.22112e-10
3.84371e-07
1.05953e-05
-0.00194324
-0.0119735
0.0309447
-0.0316065
-0.0248079
0.0776723
-0.0797158
0.0731817
-0.0739211
0.0645297
-0.0214996
-0.0394246
0.0184198
-0.0188855
0.0447221
-0.0304075
-0.0276807
0.178486
-0.149321
0.114664
-0.277897
0.239567
-0.207052
0.335138
-0.347262
0.257691
-0.201329
0.254435
-0.196164
0.15806
-0.234335
0.0127712
-0.0811723
-0.0307995
0.106187
-0.0586108
0.174533
-0.0941736
0.190722
-0.136441
0.216176
-0.16532
0.229809
-0.18446
0.194095
-0.163056
0.118586
-0.0884984
0.0488224
0.00110702
0.0201155
0.0610545
0.0111135
0.0827138
-0.0265032
0.0857277
-0.102056
0.0711972
-0.185576
0.0379403
-0.218512
0.0613713
-0.162598
0.0938941
-0.0155518
0.0674274
0.139668
-0.12199
0.201916
-0.302881
-0.0337757
0.0342146
0.129739
0.262885
0.15127
-0.0506354
-0.428722
-0.0105557
0.673251
0.187791
-0.429951
-0.245691
0.231183
0.148775
-0.205923
0.0856883
0.0585505
-0.0720211
0.0224846
-0.0115508
-0.0109449
0.00147495
-0.00273628
-0.0015889
0.000295477
0.000201726
-1.06866e-05
3.20691e-08
1.47969e-05
0.00232367
0.0449157
0.137586
-0.0166751
0.033336
-0.0234772
0.0161374
-0.0626184
0.119655
-0.108625
0.0824794
-0.104322
0.225487
-0.271736
0.273771
-0.331733
0.281474
-0.426401
0.413817
-0.0977846
0.123105
-0.138237
-0.0915379
0.121396
-0.0709261
0.225327
-0.218348
0.153749
-0.349495
0.207205
-0.25778
0.337302
-0.128196
0.303728
-0.126859
0.150323
-0.166006
0.00359472
-0.158334
-0.0252326
-0.108952
-0.0119049
-0.00462745
0.0345609
0.120197
0.0792551
0.187388
0.0864464
0.169446
0.0433184
0.0862667
-0.0367648
-0.0180846
-0.108552
-0.0951506
-0.115927
-0.121454
-0.0524994
-0.0808711
0.0186815
0.0525814
0.0237415
0.180979
-0.0652582
0.124396
-0.0419735
-0.138194
0.179059
-0.216061
0.255245
-0.015739
0.0924695
0.259283
-0.114371
-0.132249
-0.00178339
0.2909
0.421384
0.239821
-0.489121
-0.868382
-0.289182
0.459502
0.394003
-0.121448
-0.252133
0.0720308
0.0103237
0.0414611
0.00575633
-0.0655086
0.0064877
0.00320535
-0.00631037
-0.018421
0.0224019
-0.00377585
9.75639e-05
-4.34315e-08
-0.000206506
-0.0141615
-0.1213
-0.0797076
0.15896
-0.104965
0.0687038
0.0197828
-0.0813399
0.041498
-0.035839
0.0531019
-0.0825471
-0.0220032
0.263374
-0.2773
0.514901
-0.51587
0.335266
-0.72803
0.590019
-0.309507
0.352922
-0.336191
0.222775
-0.126523
0.106731
-0.0351701
0.00912425
0.0465262
0.0248883
0.0312602
0.0338583
-0.0936711
0.0190285
-0.164097
0.0728717
-0.147489
0.101507
-0.0964474
0.10348
-0.0730808
0.0616622
-0.0824238
-0.00747853
-0.0458737
-0.0504381
0.0288764
-0.0680322
0.0681853
-0.0605725
0.0594041
-0.0169499
0.0412316
0.028283
0.037945
-0.000447725
0.0579735
-0.106863
0.129661
-0.193004
0.24005
-0.165013
0.262854
0.00830168
0.117792
0.218106
-0.118609
0.248998
-0.330027
0.00385156
-0.204322
-0.187909
0.110749
0.0811381
0.183947
-0.055554
-0.390409
-0.73536
-0.55768
-0.0590576
0.389749
0.772759
0.458753
-0.157064
-0.399499
-0.185571
0.167676
0.128722
0.0256857
-0.117277
-0.00529683
0.0474882
-0.0156519
0.0105053
0.0219725
0.0174924
-0.013003
0.00113584
-1.2118e-05
0.00080865
0.0300145
0.102639
-0.100104
0.0626831
0.036809
-0.0664284
-0.0337785
0.212084
-0.319185
0.439331
-0.560072
0.665942
-0.757252
0.457719
-0.369084
0.310279
0.382498
-0.214973
0.0362682
-0.279563
0.255523
-0.0817112
0.090236
0.21683
-0.0608731
0.0457031
-0.266474
0.0394652
-0.261206
0.0641566
-0.131814
0.07821
0.0148903
0.11298
0.153116
0.0864069
0.222217
-0.0487246
0.193857
-0.207433
0.106194
-0.337005
-0.00538654
-0.371356
-0.089589
-0.310555
-0.113912
-0.185891
-0.0962031
-0.0340247
-0.0525589
0.0969674
0.0146706
0.17314
0.107608
0.168271
0.19146
0.0618407
0.183323
-0.08355
0.0499607
-0.122602
-0.173362
-0.0340313
-0.371638
0.0859093
-0.365834
0.160442
-0.157572
-0.0129712
-0.149474
-0.348459
-0.29178
-0.39737
0.028833
0.06334
0.514972
0.76788
0.657358
0.572413
0.130392
-0.0922931
-0.282731
-0.447604
-0.150181
0.019848
0.192341
0.115556
-0.020629
-0.028627
0.0957731
-0.0348592
-0.0431908
0.0336079
0.00708087
-0.0274302
-0.00441537
0.00216762
-5.72206e-05
-0.00143904
-0.0250918
0.0364888
0.163051
-0.0226124
-0.0205855
0.0933554
-0.214318
0.181842
-0.018441
-0.26436
0.593782
-0.814992
0.946306
-0.996751
0.590101
-0.708713
0.476899
0.145965
-0.0592688
-0.119184
0.0503817
-0.119452
-0.0368162
-0.0660864
0.144368
-0.10949
0.26615
-0.0710985
0.188954
-0.10456
0.0858082
-0.117666
0.0652746
-0.0818914
0.071724
-0.0405665
-0.00489074
-0.0340264
-0.0462317
-0.0308104
-0.0316224
-0.0277191
0.00720347
-0.0303821
0.0258227
-0.0395588
0.0232145
-0.0615319
0.00632353
-0.106566
-0.0121463
-0.173566
-0.00490759
-0.244903
0.040683
-0.282193
0.0919381
-0.242704
0.105484
-0.123207
0.0616119
0.00529736
-0.0102584
0.0533863
-0.0746518
-0.00357418
-0.0923566
-0.0176759
-0.0510098
0.251291
0.16619
0.43264
0.469437
0.246785
0.554972
0.185423
0.0498701
-0.0172929
-0.395754
-0.398314
-0.532284
-0.338028
-0.247437
-0.212066
0.0639356
0.0451462
0.356635
0.19282
-0.149281
-0.0980575
-0.0162227
-0.144095
0.00157109
0.0508062
-0.0127608
-0.0154757
0.0103337
0.000430595
-7.40332e-05
0.00106819
-0.00654811
-0.132246
-0.122471
-0.0303679
-0.0384975
-0.211911
0.706996
-1.07154
1.16747
-0.848116
0.533641
-0.183817
0.0109711
0.122737
-0.0883364
-0.366963
0.2373
-0.161056
0.405941
-0.361401
0.320646
-0.155432
0.151499
-0.104208
0.0244173
-0.234898
-0.0356751
-0.325997
-0.0399704
-0.260097
0.101691
-0.0900359
0.242468
-0.0145224
0.285597
-0.0898186
0.236856
-0.146544
0.167604
-0.14532
0.0948764
-0.128349
0.0151081
-0.113707
-0.0570068
-0.0813447
-0.101401
-0.0346719
-0.105911
0.00407791
-0.0747719
0.0176216
-0.0308059
0.0132703
-0.00188325
0.019655
-0.00586339
0.0514958
-0.0295115
0.100958
-0.0333084
0.165992
-0.00163334
0.26148
0.0559447
0.361925
0.0731331
0.365102
-0.0519274
0.0832233
-0.138037
-0.422323
-0.296843
-0.800913
-0.488754
-0.501153
-0.160778
0.0544545
0.0430115
0.284015
-0.081376
0.014979
0.00642772
0.043201
0.254037
0.180315
0.209644
-0.100429
-0.240165
-0.083164
0.0192182
-0.028368
0.107542
0.0432579
-0.0211275
-0.0101922
0.00787279
-0.00113483
-1.77212e-05
-5.49293e-05
0.0165587
0.0441103
0.0192308
-0.0290988
0.528976
-0.569306
0.0603659
0.625412
-1.24693
1.14094
-0.771424
0.418046
0.0517707
0.0691902
0.0873091
-0.199693
-0.209626
0.0465856
-0.280145
-0.032359
0.0809288
-0.0466838
0.225281
0.0151489
0.376364
-0.0207851
0.37478
-0.0255802
0.272157
0.0250617
0.216122
-0.00399801
0.111058
-0.0588734
-0.0381037
-0.0960928
-0.103545
-0.0956646
-0.0873311
-0.076981
-0.052875
-0.0642622
-0.0212895
-0.0618882
0.0121575
-0.057535
0.0497202
-0.0408482
0.0951299
-0.0154809
0.141522
0.00834822
0.166914
0.0203099
0.150676
0.016405
0.0905637
-0.00249854
-0.00215907
-0.0319027
-0.12754
-0.0641193
-0.299864
-0.0968386
-0.451331
-0.122003
-0.398385
-0.0943644
-0.0781402
-0.0216129
0.281896
0.209883
0.406629
0.349904
0.227039
0.0279341
0.061152
0.230627
-0.0428366
0.356126
0.0682917
-0.0114315
0.030328
0.0226487
-0.0225455
-0.00790897
0.0665047
-0.0381379
-0.0155585
0.0197253
0.0316182
0.00902496
0.0679734
-0.0418295
-0.0371726
0.0108548
0.0086751
-0.00132029
1.37831e-05
-0.000201013
-0.0106783
-0.0676649
-0.0960667
-0.36907
-0.389784
1.43972
-1.59295
1.02341
-0.197217
-0.167761
-0.134737
0.384418
-0.496009
0.615432
-0.23602
0.126301
-0.245046
0.0043205
0.00282224
-0.247078
-0.0240397
-0.0772772
-0.135846
-0.0325223
-0.181054
-0.187706
-0.0845501
-0.223545
0.0279845
-0.0428952
0.0932111
0.0911878
0.175275
0.14829
0.229981
0.194118
0.221781
0.211335
0.167505
0.176254
0.0956056
0.112417
0.0225653
0.0406779
-0.040599
-0.0345906
-0.0894836
-0.106218
-0.124754
-0.158554
-0.143294
-0.175558
-0.136077
-0.14894
-0.0964696
-0.079863
-0.0307338
0.0250656
0.043152
0.159739
0.103416
0.310531
0.139358
0.398421
0.169197
0.308009
0.178839
0.110085
0.128911
-0.0319341
-0.0294841
-0.125882
-0.0920796
-0.272427
0.0743739
-0.360042
-0.297886
0.0090261
-0.243361
0.0558441
-0.0192239
-0.0954367
-0.102596
-0.1759
-0.0465304
0.0994414
0.060065
-0.0337178
-0.141781
-0.0352349
0.0413359
0.0133927
0.0513516
-0.0313782
0.0266623
0.0384199
-0.00343651
-0.00241723
5.05897e-05
0.000542029
0.0188217
0.0698952
0.160866
0.646395
-1.25332
-0.281957
1.2056
-0.908446
0.206165
0.218133
-0.205296
0.110526
0.0783397
0.128753
0.066031
0.258629
-0.306549
0.394773
-0.341333
0.159536
-0.0489213
0.162803
-0.0155556
0.127048
-0.0954745
0.0541264
-0.100153
-0.0129841
-0.0386877
-0.0547767
-0.0858532
-0.0697759
-0.1546
-0.107306
-0.169916
-0.16026
-0.154187
-0.178641
-0.123002
-0.149395
-0.0652037
-0.0890883
0.0090194
-0.0157194
0.0763255
0.0522459
0.122114
0.0991492
0.141693
0.120134
0.132236
0.120994
0.0924554
0.11167
0.0286623
0.100257
-0.0458221
0.0891852
-0.12147
0.0714977
-0.192788
0.0248271
-0.231671
-0.0747634
-0.218641
-0.182944
-0.217765
-0.216946
-0.202993
-0.13583
-0.0386991
-0.0702139
0.2088
-0.104157
0.202493
0.210202
-0.197486
0.140446
-0.17105
0.256796
0.0997628
0.120771
0.154917
-0.116339
0.0402517
0.162883
0.0642084
0.0147218
-0.0403889
0.0381313
0.100007
0.0491701
0.0217905
-0.0403538
0.0422315
-0.0173447
-0.0235228
-0.000456012
0.000128878
-0.000606527
-0.0140139
-0.0676937
-0.274401
0.600624
1.61132
-1.51146
0.30743
-0.136079
0.656297
-0.823225
0.382619
-0.300204
-0.250998
0.171563
-0.0200728
0.239016
-0.139197
0.338611
-0.215293
0.281632
-0.102751
0.212753
-0.278315
0.136502
-0.257484
0.0299049
-0.114408
0.0884613
0.00789383
0.157588
0.0492458
0.2308
0.0497551
0.301042
0.0559013
0.312729
0.0945356
0.264128
0.131244
0.185443
0.134079
0.0921366
0.097139
-0.00346074
0.0289079
-0.0846367
-0.0541162
-0.137877
-0.132756
-0.159507
-0.193835
-0.154707
-0.231776
-0.131811
-0.239771
-0.0946524
-0.202396
-0.0381405
-0.103798
0.0427522
0.0501562
0.134903
0.211411
0.216597
0.295016
0.258706
0.253671
0.167514
0.125121
-0.0671541
0.0700688
-0.23382
0.144108
-0.129929
-0.00633901
0.110277
0.00829987
0.0998214
-0.180699
0.0492075
0.154724
0.0772052
0.170962
-0.113515
-0.0560619
0.164514
0.144922
0.117636
-0.0440968
0.0418362
0.0402138
0.0244136
-0.0454869
-0.0369622
-0.00314363
-0.0809016
0.00327943
0.0027692
8.328e-05
0.000867125
0.0203513
0.0482171
-0.239922
-0.941053
0.987256
0.880633
0.531087
-0.853725
0.172842
0.0604912
0.284102
-0.445634
0.187864
-0.140216
0.083659
0.0988146
-0.103166
0.0743373
-0.0652571
0.18748
-0.0688129
0.046434
-0.192578
0.140431
-0.374169
0.183643
-0.233989
0.145643
-0.148258
0.0466121
-0.160621
0.0174966
-0.171943
0.0507901
-0.172111
0.110748
-0.156307
0.150279
-0.119588
0.172438
-0.067295
0.1967
-0.00561183
0.226541
0.057325
0.254044
0.111098
0.273219
0.146157
0.282599
0.155464
0.279063
0.134104
0.25262
0.0801562
0.191757
-0.00261887
0.0992379
-0.101777
0.0019984
-0.194776
-0.0622631
-0.251742
-0.0764886
-0.232224
-0.0644801
-0.107906
-0.0720217
0.0443938
-0.164251
0.103585
-0.234661
0.0327722
-0.027193
-0.0943467
0.0648954
-0.184792
0.227613
-0.185617
-0.0314865
-0.159906
-0.0220165
0.111624
-0.231323
-0.144807
0.0205192
-0.0187442
-0.0353267
-0.098648
-0.105745
-0.0560942
-0.0781395
-0.15239
0.0225098
-0.0928734
0.0317355
0.0307744
0.000756336
6.2692e-05
-0.000837471
-0.00360849
0.0746977
0.0485729
-0.746829
-1.10362
-0.817306
-0.731324
0.395091
0.254925
-0.268623
0.139758
-0.190723
0.329197
-0.309415
0.36188
-0.0223397
0.0147435
0.164481
0.0928513
0.0772874
-0.137799
0.0466679
-0.147639
-0.0756854
-0.140012
0.0981231
-0.0787507
0.131704
-0.0949833
0.111218
-0.0730015
0.171393
-0.0417912
0.225653
-0.0264224
0.200932
-0.0459198
0.113083
-0.0777439
0.00794446
-0.104451
-0.0837444
-0.125911
-0.151201
-0.144366
-0.190769
-0.156195
-0.199205
-0.154631
-0.175036
-0.134639
-0.121511
-0.095703
-0.0471881
-0.0430507
0.0363326
0.0132276
0.116955
0.063696
0.179743
0.106373
0.201569
0.144796
0.157674
0.176641
0.0570034
0.196593
-0.0406829
0.209281
-0.0940746
0.13076
-0.0556283
-0.0379335
0.0526802
0.00451968
0.13594
-0.105352
0.105903
0.0158899
0.160035
-0.0570719
-0.12902
0.204171
-0.054263
-0.202764
0.0233167
-0.0304623
0.0331387
-0.0883322
-0.0842924
-0.0798571
-0.055445
-0.0438077
0.0856174
-0.0129212
0.0832246
-0.00852917
0.00151648
-3.21965e-05
0.000638391
0.000336776
0.0762881
0.305374
0.00202582
-0.422208
0.747152
-0.0669278
0.343644
-0.252329
0.0142221
0.106648
-0.092894
0.00318618
-0.260924
0.259627
-0.21134
0.128
-0.0654414
0.0787656
-0.162902
0.0559509
0.00627618
-0.161917
0.0763758
-0.0542273
0.152692
-0.0538825
0.0287374
-0.0696734
-0.0345331
-0.0267449
-0.0174885
-0.0522353
0.0118638
-0.164922
0.0124675
-0.260084
0.00210761
-0.272518
0.00105225
-0.213053
0.0134794
-0.121899
0.0321672
-0.0333189
0.0470886
0.0318944
0.051869
0.063952
0.0463935
0.0615984
0.0354051
0.0304718
0.0243274
-0.0180514
0.0152824
-0.066535
0.00701097
-0.0908752
-0.000360068
-0.0672821
-0.0020101
0.00723142
0.00364815
0.0980544
-0.000465558
0.157124
-0.0325431
0.159404
-0.0520935
0.0695148
-0.0651775
-0.0218861
-0.0446273
-0.0660053
0.226057
-0.122169
0.0791194
-0.273272
0.126139
0.00997074
-0.228628
0.0625903
0.0504162
0.0111834
0.149184
-0.0260016
0.0711598
-0.103226
0.00480244
0.087261
0.00372614
0.216124
0.00598035
0.092679
-0.0703019
5.67096e-05
0.000640831
-0.000160051
-0.000420658
-0.00482418
-0.0645278
0.307665
0.505563
-0.311074
0.537999
-0.047842
0.619725
-0.282805
0.111974
-0.0975862
0.167614
0.0390344
-0.180749
0.321798
-0.253464
0.1511
-0.0778243
0.092112
-0.100231
0.186272
-0.201355
0.0413157
-0.00488857
0.0457956
0.0160221
-0.109819
-0.0103169
-0.105952
0.0290131
-0.0219372
0.00335692
-0.0010479
-0.076486
-0.0362457
-0.101489
-0.0717175
-0.0600232
-0.0781244
-0.00484239
-0.0607336
0.0261296
-0.0396034
0.0278827
-0.0287724
0.0133341
-0.030422
-0.00193308
-0.0402856
-0.0080025
-0.0539526
-0.00386583
-0.0690294
0.00269561
-0.0839999
-0.00134385
-0.0965093
-0.0259944
-0.101721
-0.0664056
-0.0893562
-0.0977576
-0.0426675
-0.0923151
0.0492598
-0.0500349
0.159175
0.00651653
0.208529
0.0706782
0.133946
0.0747282
-0.097574
0.104849
-0.222452
0.18828
0.148627
0.191395
-0.163005
0.006746
0.128308
-0.179171
-0.0115678
-0.0695947
0.034081
0.135831
0.000959229
0.0935251
-0.0694112
0.0700089
0.213774
0.0562093
0.182396
-0.0555327
0.0514515
-0.017572
0.0268626
-0.00605087
-0.00011423
0.000409317
0.0108718
0.0357745
0.118136
0.680552
0.0690167
0.171685
-0.325535
-0.409562
-0.582991
0.403926
0.13497
0.0446208
-0.187131
0.11031
-0.0165692
-0.279725
0.211813
-0.209322
0.231314
-0.100672
0.110769
-0.134211
0.141407
0.0187233
0.042434
-0.104431
-0.0230442
-0.0666984
0.0464647
-0.00228117
0.0147543
-0.0147549
-0.0792184
-0.0353747
-0.1094
-0.0362862
-0.0874703
-0.0226243
-0.0663355
-0.0117775
-0.06305
-0.0124195
-0.0686029
-0.0171696
-0.0721081
-0.0136211
-0.0697643
0.00380854
-0.0628882
0.0310152
-0.0533559
0.0573903
-0.0415859
0.0700322
-0.0286986
0.0572698
-0.0206129
0.0119468
-0.0276845
-0.0650254
-0.0535078
-0.160524
-0.0792755
-0.24491
-0.0703737
-0.271086
-0.019812
-0.189904
0.0283615
0.00528423
0.0588664
0.19194
-0.00890453
0.0331535
-0.0436448
-0.176757
-0.00838086
0.424244
-0.170766
-0.115225
0.194554
-0.131719
-0.0539388
-0.16256
-0.0460105
0.128119
-0.0795065
-0.035615
-0.064944
-0.0456889
0.190193
0.107039
-0.0729133
-0.033371
-0.036257
0.0201478
-0.00710548
-0.00853943
0.000149041
-0.000473288
-0.0139474
-0.058259
-0.122052
0.386309
0.15972
-0.213492
-0.0541176
0.45889
0.418573
0.40624
-0.555497
0.118853
0.0717521
-0.0743081
-0.185331
0.0174377
0.102129
-0.0517341
0.295483
-0.201844
0.246857
-0.161059
0.187394
-0.157628
-0.0663665
-0.127286
0.00921879
0.0246532
0.0767475
-0.0398008
0.0434112
-0.145811
-0.00791282
-0.148018
-0.0666915
-0.10726
-0.121863
-0.0865632
-0.165541
-0.0899388
-0.18871
-0.101978
-0.184614
-0.113249
-0.156949
-0.122025
-0.117546
-0.129326
-0.0776913
-0.135188
-0.0427704
-0.137324
-0.0128703
-0.131842
0.0133995
-0.116515
0.0356255
-0.0968669
0.051409
-0.0907544
0.058823
-0.119949
0.056153
-0.181852
0.0332961
-0.226074
-0.0317769
-0.190928
-0.130225
-0.0975493
-0.125017
0.0207254
0.116253
0.00461059
0.0675001
0.0559307
-0.336277
0.341589
0.278476
-0.281489
0.119926
0.0736252
0.108849
-0.111542
-0.066725
0.15372
-0.0838919
0.0194697
0.0335329
-0.0504734
0.0352111
0.0360044
-0.220774
0.00473472
-0.0318543
-0.00566248
-0.0233429
0.0011892
0.000258367
0.000554269
0.0142417
-0.0298999
-0.192257
0.208789
0.311146
0.108778
-0.0199675
-0.381121
-0.390634
-0.0754409
-0.158837
0.445163
-0.245587
-0.147691
-0.0732521
0.191633
-0.00661023
0.206567
0.123942
-0.110458
0.155381
-0.225769
0.100984
-0.246464
0.109028
-0.00881173
0.243108
-6.50607e-05
0.0556863
-0.0940013
-0.0707993
-0.144007
-0.0469007
-0.163094
-0.0131791
-0.159698
-0.0182752
-0.137581
-0.0358243
-0.0967951
-0.0425524
-0.0439191
-0.0338616
0.00741399
-0.0152902
0.0460986
0.00485025
0.0689118
0.0193358
0.077972
0.0242619
0.0756193
0.0207203
0.0611743
0.0157728
0.0304117
0.0209502
-0.0222974
0.0452661
-0.0971154
0.0824894
-0.175278
0.102969
-0.209622
0.0707531
-0.152639
-0.00838787
-0.04247
-0.0618265
-0.0448518
-0.0574766
-0.169573
0.0416099
0.011783
-0.0779292
0.204311
-0.302593
-0.0464131
0.281758
-0.00457528
-0.121753
-0.129893
0.104987
-0.00222346
-0.0538622
0.0862181
-0.0496027
-0.016749
0.124886
0.0205257
-0.000360068
-0.152436
-0.0948943
0.035595
0.00579637
-0.0298559
0.0231466
0.00134424
4.36336e-05
-0.000650319
-0.00975807
-0.0235953
-0.299301
-0.292451
-0.0862708
-0.423289
0.10607
0.211258
0.40883
0.233966
-0.156256
0.132992
-0.423437
0.00176615
0.141695
0.147308
0.0230667
0.188681
-0.165843
-0.0748548
0.0423869
-0.157485
0.128939
-0.0272049
0.190287
0.0981563
0.0530344
-0.177636
0.00372552
-0.212568
0.0248562
-0.0886944
0.00493389
-0.026681
-0.0450587
-0.0234312
-0.0800607
-0.022681
-0.079676
-0.00649605
-0.0559939
0.0198596
-0.029136
0.0468579
-0.0091648
0.0672875
0.00481596
0.0773001
0.0184265
0.0752108
0.037337
0.0599827
0.0653201
0.0311096
0.102563
-0.00945322
0.141869
-0.0545527
0.162861
-0.0918129
0.130978
-0.110099
0.0178935
-0.110313
-0.145862
-0.108773
-0.230764
-0.11863
-0.11096
-0.113774
0.0432099
-0.108143
-0.108302
0.106467
-0.178595
0.244081
-0.102561
-0.172061
0.238465
0.0360252
0.143091
-0.134392
-0.0224885
-0.074485
0.0564445
0.168724
-0.150338
-0.139298
0.0287416
-0.026093
0.0491092
-0.0303214
-0.0062063
0.026805
-0.042712
-0.0216512
0.0717359
-0.00390776
0.000228149
0.000695444
0.0162516
0.0044571
-0.186997
-0.435108
0.0167613
-0.201797
-0.0794279
-0.136278
-0.244381
-0.129939
-0.0536555
-0.00402724
-0.293524
0.399968
0.0106188
0.0859462
-0.00430158
0.0511903
-0.160374
0.183359
-0.00796739
-0.0334689
0.20521
-0.0927206
0.181473
-0.0801688
-0.119747
-0.0220329
-0.0131976
-0.067282
0.132738
-0.199542
0.106975
-0.277343
0.0322912
-0.248119
-0.00535039
-0.155342
-0.00369875
-0.061014
0.0175207
0.00337404
0.0426147
0.0356777
0.0643244
0.0450977
0.0817962
0.0402449
0.096659
0.0261931
0.110005
0.00630207
0.121394
-0.0144753
0.129525
-0.0265986
0.133729
-0.016219
0.134692
0.0253597
0.131493
0.0793698
0.114563
0.0810786
0.0662797
-0.0429135
-0.0132916
-0.241752
-0.0752391
-0.253291
-0.0479494
0.0104772
-0.124249
0.0740931
-0.133551
0.0744941
0.0949916
-0.259256
0.0590963
0.104073
0.0217175
-0.0151683
-0.00828449
-0.190087
-0.140467
0.262521
0.0285027
-0.058589
0.0137191
-0.0137025
0.0397575
0.0866482
-0.0568668
0.0868411
0.0481428
0.0533343
0.000730828
0.00237863
0.000122322
-0.000923244
-0.00603126
0.0341281
0.0246016
-0.236116
-0.128071
-0.239315
0.177469
0.109391
0.265694
0.044198
-0.153712
-0.0487273
0.0803093
0.209196
-0.211629
0.19469
-0.0729079
0.0363121
-0.01405
0.151201
-0.225243
0.165907
-0.0266007
0.0167255
0.150701
-0.169051
0.0642585
-0.00281702
-0.117874
0.0442019
-0.216406
-0.0780107
-0.147101
-0.138094
-0.000133958
-0.095094
0.117076
-0.0114095
0.170764
0.0620614
0.180356
0.10679
0.173406
0.126158
0.16587
0.131009
0.16237
0.129953
0.161535
0.126132
0.159519
0.11799
0.151042
0.10156
0.129918
0.073876
0.0921328
0.0382971
0.0437185
0.00996553
0.0091209
0.0116352
0.0225531
0.0457285
0.081476
0.0575096
0.0879575
-0.0309545
-0.0851825
-0.165507
-0.291297
-0.0568756
-0.209283
0.120003
-0.195169
0.0944765
0.0996599
-0.0278585
-0.0432561
0.0751306
0.200615
0.00134376
0.100984
-0.0899593
-0.268163
0.113442
0.00965507
-0.0262533
0.0483028
0.0120926
-0.0896984
0.0787007
-0.0753033
0.12871
-0.00116979
-0.0399946
-0.0519074
-0.00246315
-0.000144155
0.000780473
0.0198246
0.0244838
-0.0308611
-0.239568
0.301013
-0.0412007
0.355689
-0.202694
-0.147806
-0.283154
0.135924
0.0890517
-0.00868175
0.0346486
-0.0327641
0.200445
-0.20141
0.158986
0.0551235
-0.0730368
-0.0203014
0.198221
-0.0269149
0.197176
-0.0785589
-0.126296
0.0141833
-0.238913
0.00379372
-0.176299
-0.0904352
-0.0296411
-0.0491335
0.0638361
0.0674084
0.0804272
0.148612
0.067412
0.162715
0.0601468
0.133444
0.0642266
0.0955002
0.0728139
0.0708246
0.0799614
0.0659799
0.0839182
0.0786813
0.0862516
0.103671
0.0903196
0.134458
0.0991607
0.161665
0.111719
0.171182
0.118092
0.148132
0.0995297
0.0930312
0.0435453
0.0434887
-0.0247017
0.0611446
-0.0317228
0.138482
0.0565984
0.113228
0.0894481
-0.151857
-0.0256823
-0.291694
0.0369253
-0.0858949
-0.188777
0.201813
-0.134408
0.0379729
-0.0515076
0.0573505
0.0668809
0.145372
0.0362601
-0.251962
0.0562062
0.0121907
-0.0384836
-0.0281176
0.079643
0.019735
0.00623602
0.112516
0.00983298
-0.0565954
0.00121411
-0.0230218
-0.0299909
0.000257551
-0.00147823
-0.0112158
0.0708871
-0.191893
-0.20698
-0.0247439
0.0181624
0.194587
-0.228869
0.262709
0.0826394
0.07354
-0.161066
0.1029
0.0619537
-0.0305643
0.0668818
-0.113884
0.360616
-0.236149
0.0292822
0.11062
0.1553
-0.0425134
0.0196932
-0.298429
-0.0314321
-0.1371
-0.0178288
-0.00993954
-0.0920358
0.0619867
-0.020962
0.0538736
0.0770965
0.037363
0.0938979
0.0519288
0.0525736
0.0810619
0.0113329
0.102105
-0.000931195
0.109378
0.0128503
0.107044
0.0379055
0.098949
0.0623473
0.0855234
0.0817373
0.0657088
0.0980966
0.0407072
0.116929
0.0175601
0.142269
0.00980883
0.168594
0.0303898
0.173097
0.073522
0.123391
0.09642
0.0198054
0.038453
-0.0533794
-0.0883579
0.0153983
-0.142466
0.156407
-0.102517
0.0982914
-0.179076
-0.0692805
0.00350396
-0.119493
-0.0108575
0.143114
-0.105232
0.123198
0.0514927
-0.0215841
0.0724709
0.140361
-0.223594
-0.0141953
-0.0629308
0.0268772
-0.0312228
-0.0087994
0.0113221
-0.0916125
0.00201819
-0.0506238
-0.0332903
0.0923379
-0.0159133
-0.0208998
0.00149062
0.00107906
-0.00473979
0.0426742
-0.0131073
0.0878235
0.0898073
0.0415591
0.157022
-0.221258
0.0701305
-0.37064
0.159927
0.0446965
0.117523
-0.120803
0.01756
0.0507649
0.112118
0.0917752
-0.23567
0.247867
0.109649
-0.0558862
-0.155399
-0.0944622
-0.186587
0.14485
-0.0590349
0.0522787
-0.138418
-0.0202827
-0.0240568