/*--------------------------------*- C++ -*----------------------------------*\
| =========                 |                                                 |
| \\      /  F ield         | OpenFOAM: The Open Source CFD Toolbox           |
|  \\    /   O peration     | Version:  v1912                                 |
|   \\  /    A nd           | Website:  www.openfoam.com                      |
|    \\/     M anipulation  |                                                 |
\*---------------------------------------------------------------------------*/
FoamFile
{
    version     2.0;
    format      ascii;
    class       volTensorField;
    location    "6.32";
    object      grad(U);
}
// * * * * * * * * * * * * * * * * * * * * * * * * * * * * * * * * * * * * * //

dimensions      [0 0 -1 0 0 0 0];


internalField   nonuniform List<tensor> 
1900
(
(-4.33914 1.81691e-06 0 1.28863e-05 1.0603e-05 0 0 0 0)
(4.49391 5.11386e-05 0 3.06372e-06 1.43783e-05 0 0 0 0)
(0.739668 5.05356e-05 0 -2.35207e-05 6.84697e-05 0 0 0 0)
(-0.00547811 2.66548e-05 0 -6.7241e-05 2.41609e-05 0 0 0 0)
(0.0195297 -0.000563163 0 -8.09303e-05 -2.33469e-05 0 0 0 0)
(0.0134867 -0.00110317 0 -0.000320598 -0.00103068 0 0 0 0)
(0.0162841 0.00175568 0 -0.000945894 -0.0020141 0 0 0 0)
(0.0152977 0.0169916 0 -0.00259835 0.0024799 0 0 0 0)
(-0.0360735 0.0567306 0 0.0062052 0.0267854 0 0 0 0)
(-0.0242685 0.203295 0 0.0560813 0.111343 0 0 0 0)
(-4.33913 2.31644e-05 0 1.26766e-05 9.15717e-07 0 0 0 0)
(4.49387 6.72814e-06 0 -4.29807e-06 -2.73263e-06 0 0 0 0)
(0.739598 -4.0753e-05 0 -6.06978e-05 -5.02229e-05 0 0 0 0)
(-0.00553552 -0.000118471 0 -0.000140235 -5.32682e-05 0 0 0 0)
(0.0192763 -0.000491681 0 -0.00014239 -7.68776e-05 0 0 0 0)
(0.0126218 -0.000887581 0 -0.000388794 0.000509895 0 0 0 0)
(0.0140064 0.00175491 0 -0.00121704 0.00102629 0 0 0 0)
(0.0224488 0.011808 0 -0.00302406 -0.00124578 0 0 0 0)
(0.0226061 0.0521327 0 0.00949851 -0.0159653 0 0 0 0)
(0.100039 0.142855 0 0.0893219 -0.0579764 0 0 0 0)
(-4.33913 1.05479e-12 0 6.93889e-13 -2.30374e-05 0 0 0 0)
(4.49384 -9.90585e-13 0 3.03577e-14 -2.32914e-05 0 0 0 0)
(0.739532 -4.99948e-13 0 -3.02221e-13 -3.64937e-05 0 0 0 0)
(-0.0055598 3.40828e-13 0 -7.10288e-13 5.82146e-05 0 0 0 0)
(0.0192811 5.30854e-13 0 -5.23128e-13 0.000200449 0 0 0 0)
(0.0124121 -3.95857e-13 0 -8.45678e-14 0.00104158 0 0 0 0)
(0.0136489 -9.44892e-13 0 -2.26327e-14 0.00197561 0 0 0 0)
(0.0260133 -2.23521e-13 0 8.43916e-13 -0.00246823 0 0 0 0)
(0.0562724 5.28848e-13 0 9.22521e-13 -0.0216403 0 0 0 0)
(0.156705 7.27207e-13 0 8.33074e-13 -0.106734 0 0 0 0)
(-4.33913 -2.31644e-05 0 -1.26766e-05 9.15716e-07 0 0 0 0)
(4.49387 -6.72815e-06 0 4.29807e-06 -2.73263e-06 0 0 0 0)
(0.739598 4.0753e-05 0 6.06978e-05 -5.02229e-05 0 0 0 0)
(-0.00553552 0.000118471 0 0.000140235 -5.32682e-05 0 0 0 0)
(0.0192763 0.000491681 0 0.00014239 -7.68776e-05 0 0 0 0)
(0.0126218 0.000887581 0 0.000388794 0.000509895 0 0 0 0)
(0.0140064 -0.00175491 0 0.00121704 0.00102629 0 0 0 0)
(0.0224488 -0.011808 0 0.00302406 -0.00124578 0 0 0 0)
(0.0226061 -0.0521327 0 -0.00949851 -0.0159653 0 0 0 0)
(0.100039 -0.142855 0 -0.0893219 -0.0579764 0 0 0 0)
(-4.33914 -1.81691e-06 0 -1.28863e-05 1.0603e-05 0 0 0 0)
(4.49391 -5.11386e-05 0 -3.06372e-06 1.43783e-05 0 0 0 0)
(0.739668 -5.05356e-05 0 2.35207e-05 6.84697e-05 0 0 0 0)
(-0.00547811 -2.66548e-05 0 6.7241e-05 2.41609e-05 0 0 0 0)
(0.0195297 0.000563163 0 8.09303e-05 -2.33469e-05 0 0 0 0)
(0.0134867 0.00110317 0 0.000320598 -0.00103068 0 0 0 0)
(0.0162841 -0.00175568 0 0.000945894 -0.0020141 0 0 0 0)
(0.0152977 -0.0169916 0 0.00259835 0.0024799 0 0 0 0)
(-0.0360735 -0.0567306 0 -0.0062052 0.0267854 0 0 0 0)
(-0.0242685 -0.203295 0 -0.0560813 0.111343 0 0 0 0)
(0.172795 0.412616 -2.09313e-17 0.240812 -0.231208 3.13969e-17 5.64722e-17 7.30427e-17 -5.67344e-33)
(0.514974 0.565618 0 0.294912 -0.455348 0 -1.58136e-16 -4.65195e-17 0)
(0.808793 0.975261 0 0.29956 -0.78694 0 -2.5951e-16 -8.38632e-17 0)
(1.50012 1.60201 0 0.351568 -1.44912 0 0 0 0)
(2.80215 1.85897 2.7151e-16 1.14495 -3.51445 -4.07264e-16 -2.28112e-15 -1.52074e-15 -7.35928e-32)
(0.246817 0.159123 0 0.18409 -0.201741 0 9.9987e-17 3.12634e-17 0)
(0.43478 0.169002 0 0.148166 -0.330978 0 1.58136e-16 4.65195e-17 0)
(0.759577 0.414915 0 0.0658123 -0.616668 0 2.5951e-16 8.38632e-17 0)
(1.68667 0.864571 0 -0.0615987 -1.31489 0 0 0 0)
(3.71391 0.577274 0 -0.169246 -3.08101 0 0 0 0)
(0.301861 1.81939e-13 0 2.93638e-13 -0.288568 0 0 0 0)
(0.457486 2.33937e-13 0 4.25894e-13 -0.367802 0 0 0 0)
(0.757075 1.01944e-13 0 2.2324e-13 -0.623068 0 0 0 0)
(1.59685 -1.05302e-13 0 2.25875e-14 -1.34518 0 0 0 0)
(3.47226 -1.28528e-13 0 1.04871e-13 -3.64073 0 0 0 0)
(0.246817 -0.159123 0 -0.18409 -0.201741 0 9.9987e-17 -3.12634e-17 0)
(0.43478 -0.169002 0 -0.148166 -0.330978 0 1.58136e-16 -4.65195e-17 0)
(0.759577 -0.414915 0 -0.0658123 -0.616668 0 2.5951e-16 -8.38632e-17 0)
(1.68667 -0.864571 0 0.0615987 -1.31489 0 0 0 0)
(3.71391 -0.577274 0 0.169246 -3.08101 0 0 0 0)
(0.172795 -0.412616 2.09313e-17 -0.240812 -0.231208 3.13969e-17 -2.56446e-16 1.3557e-16 -5.67344e-33)
(0.514974 -0.565618 0 -0.294912 -0.455348 0 -1.58136e-16 4.65195e-17 0)
(0.808793 -0.975261 0 -0.29956 -0.78694 0 -2.5951e-16 8.38632e-17 0)
(1.50012 -1.60201 9.71958e-17 -0.351568 -1.44912 1.45794e-16 -9.31493e-16 6.20995e-16 -2.6345e-32)
(2.80215 -1.85897 -2.7151e-16 -1.14495 -3.51445 -4.07264e-16 2.28112e-15 -1.52074e-15 -7.35928e-32)
(4.2255 -0.784843 -1.85095e-17 0.0258775 4.46526 -1.66585e-16 2.28318e-15 -1.19121e-16 5.017e-33)
(2.50113 -0.285223 8.95888e-18 0.537424 2.75863 8.06299e-17 -2.56125e-15 1.99705e-16 2.42831e-33)
(1.76843 -0.0406286 0 0.718894 2.43261 0 0 0 0)
(0.389737 0.136276 -5.0136e-18 0.690353 2.07734 -4.51224e-17 2.52082e-15 -2.15218e-16 1.35894e-33)
(-0.373139 -0.030758 5.01289e-18 0.637122 1.94848 4.51161e-17 -1.07277e-15 1.19196e-16 1.35875e-33)
(4.34679 -0.949139 0 -0.667899 -0.660519 0 -1.14198e-15 -7.67908e-18 0)
(2.76909 -0.203341 0 0.316743 1.00879 0 1.28872e-15 -5.83118e-17 0)
(1.86667 -0.056166 0 0.401173 1.32623 0 0 0 0)
(0.403725 0.0679589 0 0.376086 1.55674 0 -1.59134e-15 8.36888e-17 0)
(-0.391032 -0.0106539 0 0.35457 1.22989 0 2.75658e-16 -5.86855e-18 0)
(4.34537 -2.14915e-13 0 -4.92819e-13 0.811083 0 0 0 0)
(2.74164 -9.41148e-14 0 -2.224e-13 1.85481 0 0 0 0)
(1.75545 1.36137e-13 0 -8.03113e-15 2.00255 0 0 0 0)
(0.345701 6.49184e-14 0 -9.9208e-14 1.95531 0 6.41066e-16 1.40291e-29 0)
(-0.453087 -7.4827e-13 0 3.10678e-13 1.55888 0 -5.51317e-16 -1.17549e-30 0)
(4.34679 0.949139 0 0.667899 -0.660519 0 -1.14198e-15 7.67908e-18 0)
(2.76909 0.203341 0 -0.316743 1.00879 0 1.28872e-15 5.83118e-17 0)
(1.86667 0.056166 0 -0.401173 1.32623 0 0 0 0)
(0.403725 -0.0679589 0 -0.376086 1.55674 0 -1.59134e-15 -8.36888e-17 0)
(-0.391032 0.0106539 0 -0.35457 1.22989 0 2.75658e-16 5.86855e-18 0)
(4.2255 0.784843 0 -0.0258775 4.46526 0 1.14198e-15 -7.67908e-18 0)
(2.50113 0.285223 -8.95888e-18 -0.537424 2.75863 8.06299e-17 -1.61855e-17 8.30809e-17 2.42831e-33)
(1.76843 0.0406286 0 -0.718894 2.43261 0 0 0 0)
(0.389737 -0.136276 5.0136e-18 -0.690353 2.07734 -4.51224e-17 2.07912e-17 -6.25626e-17 1.35894e-33)
(-0.373139 0.030758 -5.01289e-18 -0.637122 1.94848 4.51161e-17 1.07277e-15 1.19196e-16 1.35875e-33)
(-0.00141401 -0.461838 0 0.834278 1.81987 0 0 0 0)
(0.473168 0.0752027 0 1.14597 1.78402 0 0 0 0)
(0.10797 0.712228 0 0.824071 1.32741 0 0 0 0)
(-1.21545 0.537589 0 1.38903 0.12379 0 0 0 0)
(-1.96706 -0.125163 0 1.13836 0.345276 0 0 0 0)
(-1.49732 -0.360232 0 0.48442 0.763505 0 0 0 0)
(-1.05167 -0.243119 0 0.868973 1.2326 0 0 0 0)
(-1.03921 -0.0171537 0 0.910373 1.3133 0 0 0 0)
(-0.843945 0.178304 0 0.564933 1.04814 0 0 0 0)
(-0.697511 0.186974 0 0.270134 0.738729 0 0 0 0)
(-0.700641 0.126392 0 0.123744 0.507513 0 0 0 0)
(-0.668869 0.0743727 0 0.0643963 0.35159 0 0 0 0)
(-0.433809 0.0368803 0 0.0295825 0.263248 0 0 0 0)
(-0.166209 0.0151263 0 0.00957804 0.225624 0 0 0 0)
(-0.0439321 0.00651581 0 0.00341133 0.210729 0 0 0 0)
(-0.011564 0.00443332 0 0.00348159 0.202999 0 0 0 0)
(0.00375254 0.0047987 0 0.00377273 0.195006 0 0 0 0)
(0.029915 0.00384707 0 0.00123279 0.186984 0 0 0 0)
(0.0712577 0.00136629 0 -0.000472327 0.182933 0 0 0 0)
(0.112185 0.000157716 0 -0.000542045 0.181984 0 0 0 0)
(0.138205 0.000161094 0 -9.09331e-05 0.181771 0 0 0 0)
(0.14968 0.000284322 0 0.000490469 0.181209 0 0 0 0)
(0.15326 0.000243874 0 0.00105972 0.180757 0 0 0 0)
(0.153754 0.000228578 0 0.00156378 0.180364 0 0 0 0)
(0.153507 0.000262802 0 0.00199595 0.179966 0 0 0 0)
(0.152274 8.82914e-05 0 0.00235326 0.179463 0 0 0 0)
(0.152672 0.000418622 0 0.00265703 0.17968 0 0 0 0)
(0.150708 7.07011e-06 0 0.00297396 0.178037 0 0 0 0)
(0.146274 5.18899e-05 0 0.00320586 0.179654 0 0 0 0)
(0.1445 -0.000240828 0 0.0033837 0.177893 0 0 0 0)
(0.14175 0.000300392 0 0.00358636 0.180459 0 0 0 0)
(0.137333 -0.000972912 0 0.00369447 0.176935 0 0 0 0)
(0.125161 0.000607575 0 0.00368113 0.183582 0 0 0 0)
(0.106227 -0.00141843 0 0.00261698 0.175164 0 0 0 0)
(0.0840411 -0.00146127 0 0.00256403 0.187985 0 0 0 0)
(0.0696734 0.000340815 0 0.000412908 0.179878 0 0 0 0)
(-0.0469783 -0.0022944 0 0.00392639 0.188479 0 0 0 0)
(-0.329174 -0.00174143 0 0.00379078 0.18527 0 0 0 0)
(-0.960884 -0.000431496 0 -0.00739623 0.187792 0 0 0 0)
(-0.712811 0.00127648 0 -0.0275408 0.186784 0 0 0 0)
(0.0710586 -0.19765 0 0.248697 1.97025 0 0 0 0)
(0.375357 0.0462778 0 0.308656 2.58176 0 0 0 0)
(0.0273858 0.32428 0 -0.251378 1.71174 0 0 0 0)
(-1.14474 0.279401 0 0.32932 0.133479 0 0 0 0)
(-2.08322 -0.00870458 0 0.466995 -0.136216 0 0 0 0)
(-1.51267 -0.186973 0 -0.104985 0.563727 0 0 0 0)
(-0.935628 -0.122193 0 0.159097 1.10208 0 0 0 0)
(-1.04471 -0.0127447 0 0.217386 1.39945 0 0 0 0)
(-0.923887 0.0922086 0 0.115598 1.16105 0 0 0 0)
(-0.764976 0.09246 0 0.0656971 0.786529 0 0 0 0)
(-0.736619 0.0593834 0 0.0610278 0.518324 0 0 0 0)
(-0.684362 0.0356952 0 0.0386656 0.352056 0 0 0 0)
(-0.439802 0.0186996 0 0.0103241 0.262668 0 0 0 0)
(-0.167959 0.00759769 0 -0.00128051 0.22528 0 0 0 0)
(-0.0438733 0.00321891 0 -0.00257845 0.210671 0 0 0 0)
(-0.0112924 0.00225524 0 -0.00119368 0.202882 0 0 0 0)
(0.00372698 0.00239791 0 -0.00110747 0.195432 0 0 0 0)
(0.0299403 0.00189221 0 -0.00114939 0.186386 0 0 0 0)
(0.0715023 0.000643265 0 -0.00129429 0.182208 0 0 0 0)
(0.112543 5.5e-05 0 -0.000708353 0.18169 0 0 0 0)
(0.138558 7.30724e-05 0 -4.82762e-06 0.181665 0 0 0 0)
(0.150034 0.000141184 0 0.000719352 0.181136 0 0 0 0)
(0.153601 0.000120873 0 0.00142334 0.180688 0 0 0 0)
(0.154073 0.000112279 0 0.00208228 0.180298 0 0 0 0)
(0.1538 0.000129161 0 0.00269676 0.179902 0 0 0 0)
(0.152545 4.2606e-05 0 0.00327178 0.179394 0 0 0 0)
(0.152927 0.000208121 0 0.00382266 0.179599 0 0 0 0)
(0.150947 2.66301e-06 0 0.00438399 0.177955 0 0 0 0)
(0.146495 2.71268e-05 0 0.00493871 0.179574 0 0 0 0)
(0.14471 -0.000120065 0 0.00551223 0.177777 0 0 0 0)
(0.141943 0.000153899 0 0.00615352 0.180402 0 0 0 0)
(0.137489 -0.000489238 0 0.0068272 0.176744 0 0 0 0)
(0.125196 0.000330184 0 0.00753776 0.183747 0 0 0 0)
(0.106295 -0.000697561 0 0.00800031 0.174656 0 0 0 0)
(0.0839845 -0.000731628 0 0.00939997 0.188623 0 0 0 0)
(0.0699375 0.000291695 0 0.00991265 0.179679 0 0 0 0)
(-0.0465091 -0.00128013 0 0.0135862 0.187451 0 0 0 0)
(-0.33069 -0.000948171 0 0.0185814 0.187566 0 0 0 0)
(-0.965222 1.87163e-05 0 0.014654 0.193437 0 0 0 0)
(-0.715584 0.000717219 0 0.00492485 0.189049 0 0 0 0)
(-0.0151841 -2.14555e-12 0 -2.76373e-12 2.0098 0 0 0 0)
(0.327692 7.9279e-13 0 3.18519e-11 2.72489 0 0 0 0)
(0.113982 8.49289e-12 0 -2.15263e-11 1.69164 0 0 0 0)
(-1.00647 -5.23751e-11 0 -1.17938e-10 0.495467 0 0 0 0)
(-2.0934 -3.85027e-11 0 -6.76846e-10 -0.229246 0 0 0 0)
(-1.58689 5.53893e-11 0 -4.77975e-10 0.555311 0 0 0 0)
(-0.957892 2.5536e-11 0 -1.98054e-10 1.05619 0 0 0 0)
(-1.05187 -1.23853e-11 0 1.90337e-10 1.39539 0 0 0 0)
(-0.888072 1.44617e-11 0 1.87198e-10 1.14381 0 0 0 0)
(-0.713386 2.62207e-11 0 -2.89541e-11 0.761456 0 0 0 0)
(-0.708505 8.5093e-12 0 -9.5805e-11 0.50815 0 0 0 0)
(-0.68362 1.45524e-13 0 -6.66306e-11 0.353195 0 0 0 0)
(-0.44543 6.49511e-12 0 -5.35315e-11 0.262745 0 0 0 0)
(-0.169963 8.88506e-12 0 -5.59904e-11 0.224635 0 0 0 0)
(-0.0439069 1.39208e-12 0 -5.29084e-11 0.210511 0 0 0 0)
(-0.0111361 -1.04623e-11 0 -4.11743e-11 0.202505 0 0 0 0)
(0.00376542 -3.40878e-11 0 -1.98928e-11 0.195006 0 0 0 0)
(0.0298607 -5.79715e-11 0 1.14405e-12 0.18602 0 0 0 0)
(0.071386 -3.35774e-11 0 3.21762e-11 0.181997 0 0 0 0)
(0.11256 1.79777e-11 0 4.64021e-11 0.181597 0 0 0 0)
(0.13862 5.73931e-11 0 5.66998e-11 0.181619 0 0 0 0)
(0.150096 5.22834e-11 0 6.83841e-11 0.181095 0 0 0 0)
(0.153656 -9.08469e-12 0 7.86714e-11 0.180649 0 0 0 0)
(0.154125 -6.77347e-11 0 8.31135e-11 0.180264 0 0 0 0)
(0.153853 -6.12387e-11 0 7.84819e-11 0.179877 0 0 0 0)
(0.152602 -3.56085e-11 0 6.65552e-11 0.179376 0 0 0 0)
(0.152995 -9.13107e-12 0 5.11433e-11 0.179584 0 0 0 0)
(0.151033 5.69058e-11 0 3.73232e-11 0.177945 0 0 0 0)
(0.146603 3.41055e-11 0 2.6011e-11 0.179565 0 0 0 0)
(0.144854 1.59264e-11 0 2.22104e-11 0.177758 0 0 0 0)
(0.142132 7.35365e-11 0 1.50793e-11 0.180391 0 0 0 0)
(0.137735 2.0015e-11 0 5.67728e-13 0.1767 0 0 0 0)
(0.125503 -4.82137e-11 0 -2.81942e-11 0.183754 0 0 0 0)
(0.106768 -6.43488e-12 0 -7.03204e-11 0.17443 0 0 0 0)
(0.0845974 4.89026e-11 0 -1.11268e-10 0.18855 0 0 0 0)
(0.0708912 1.24767e-11 0 -1.68285e-10 0.17946 0 0 0 0)
(-0.0444565 -2.3505e-11 0 -2.32462e-10 0.186545 0 0 0 0)
(-0.328863 -1.55423e-11 0 -2.91206e-10 0.188261 0 0 0 0)
(-0.964856 -1.99801e-11 0 -2.42399e-10 0.193063 0 0 0 0)
(-0.715641 -8.55825e-12 0 -1.34285e-10 0.188133 0 0 0 0)
(0.0710586 0.19765 0 -0.248697 1.97025 0 0 0 0)
(0.375357 -0.0462778 0 -0.308656 2.58176 0 0 0 0)
(0.0273858 -0.32428 0 0.251378 1.71174 0 0 0 0)
(-1.14474 -0.279401 0 -0.32932 0.133479 0 0 0 0)
(-2.08322 0.00870458 0 -0.466995 -0.136216 0 0 0 0)
(-1.51267 0.186973 0 0.104985 0.563727 0 0 0 0)
(-0.935628 0.122193 0 -0.159097 1.10208 0 0 0 0)
(-1.04471 0.0127447 0 -0.217386 1.39945 0 0 0 0)
(-0.923887 -0.0922086 0 -0.115598 1.16105 0 0 0 0)
(-0.764976 -0.09246 0 -0.0656971 0.786529 0 0 0 0)
(-0.736619 -0.0593834 0 -0.0610278 0.518324 0 0 0 0)
(-0.684362 -0.0356952 0 -0.0386656 0.352056 0 0 0 0)
(-0.439802 -0.0186996 0 -0.0103241 0.262668 0 0 0 0)
(-0.167959 -0.00759769 0 0.00128051 0.22528 0 0 0 0)
(-0.0438733 -0.00321891 0 0.00257845 0.210671 0 0 0 0)
(-0.0112924 -0.00225524 0 0.00119368 0.202882 0 0 0 0)
(0.00372698 -0.00239791 0 0.00110747 0.195432 0 0 0 0)
(0.0299403 -0.00189221 0 0.00114939 0.186386 0 0 0 0)
(0.0715023 -0.000643265 0 0.00129429 0.182208 0 0 0 0)
(0.112543 -5.5e-05 0 0.000708353 0.18169 0 0 0 0)
(0.138558 -7.30723e-05 0 4.82762e-06 0.181665 0 0 0 0)
(0.150034 -0.000141184 0 -0.000719351 0.181136 0 0 0 0)
(0.153601 -0.000120873 0 -0.00142334 0.180688 0 0 0 0)
(0.154073 -0.000112279 0 -0.00208228 0.180298 0 0 0 0)
(0.1538 -0.000129161 0 -0.00269676 0.179902 0 0 0 0)
(0.152545 -4.26061e-05 0 -0.00327178 0.179394 0 0 0 0)
(0.152927 -0.000208121 0 -0.00382266 0.179599 0 0 0 0)
(0.150947 -2.6629e-06 0 -0.00438399 0.177955 0 0 0 0)
(0.146495 -2.71267e-05 0 -0.00493871 0.179574 0 0 0 0)
(0.14471 0.000120065 0 -0.00551223 0.177777 0 0 0 0)
(0.141943 -0.000153899 0 -0.00615351 0.180402 0 0 0 0)
(0.137489 0.000489238 0 -0.0068272 0.176744 0 0 0 0)
(0.125196 -0.000330184 0 -0.00753776 0.183747 0 0 0 0)
(0.106295 0.000697561 0 -0.0080003 0.174656 0 0 0 0)
(0.0839845 0.000731628 0 -0.00939997 0.188623 0 0 0 0)
(0.0699375 -0.000291695 0 -0.00991265 0.179679 0 0 0 0)
(-0.0465091 0.00128013 0 -0.0135862 0.187451 0 0 0 0)
(-0.33069 0.000948171 0 -0.0185814 0.187566 0 0 0 0)
(-0.965222 -1.87163e-05 0 -0.014654 0.193437 0 0 0 0)
(-0.715584 -0.000717219 0 -0.00492485 0.189049 0 0 0 0)
(-0.00141401 0.461838 0 -0.834278 1.81987 0 0 0 0)
(0.473168 -0.0752027 0 -1.14597 1.78402 0 0 0 0)
(0.10797 -0.712228 0 -0.824071 1.32741 0 0 0 0)
(-1.21545 -0.537589 0 -1.38903 0.12379 0 0 0 0)
(-1.96706 0.125163 0 -1.13836 0.345276 0 0 0 0)
(-1.49732 0.360232 0 -0.48442 0.763505 0 0 0 0)
(-1.05167 0.243119 0 -0.868973 1.2326 0 0 0 0)
(-1.03921 0.0171537 0 -0.910373 1.3133 0 0 0 0)
(-0.843945 -0.178304 0 -0.564933 1.04814 0 0 0 0)
(-0.697511 -0.186974 0 -0.270134 0.738729 0 0 0 0)
(-0.700641 -0.126392 0 -0.123744 0.507513 0 0 0 0)
(-0.668869 -0.0743727 0 -0.0643963 0.35159 0 0 0 0)
(-0.433809 -0.0368803 0 -0.0295825 0.263248 0 0 0 0)
(-0.166209 -0.0151263 0 -0.00957804 0.225624 0 0 0 0)
(-0.0439321 -0.00651581 0 -0.00341133 0.210729 0 0 0 0)
(-0.011564 -0.00443332 0 -0.00348159 0.202999 0 0 0 0)
(0.00375254 -0.0047987 0 -0.00377273 0.195006 0 0 0 0)
(0.029915 -0.00384707 0 -0.00123279 0.186984 0 0 0 0)
(0.0712577 -0.00136629 0 0.000472327 0.182933 0 0 0 0)
(0.112185 -0.000157716 0 0.000542045 0.181984 0 0 0 0)
(0.138205 -0.000161094 0 9.09328e-05 0.181771 0 0 0 0)
(0.14968 -0.000284322 0 -0.000490469 0.181209 0 0 0 0)
(0.15326 -0.000243874 0 -0.00105973 0.180757 0 0 0 0)
(0.153754 -0.000228578 0 -0.00156378 0.180364 0 0 0 0)
(0.153507 -0.000262802 0 -0.00199595 0.179966 0 0 0 0)
(0.152274 -8.82915e-05 0 -0.00235326 0.179463 0 0 0 0)
(0.152672 -0.000418622 0 -0.00265703 0.17968 0 0 0 0)
(0.150708 -7.07e-06 0 -0.00297396 0.178037 0 0 0 0)
(0.146275 -5.18898e-05 0 -0.00320586 0.179654 0 0 0 0)
(0.1445 0.000240828 0 -0.0033837 0.177893 0 0 0 0)
(0.14175 -0.000300392 0 -0.00358636 0.180459 0 0 0 0)
(0.137333 0.000972912 0 -0.00369447 0.176935 0 0 0 0)
(0.125161 -0.000607575 0 -0.00368113 0.183582 0 0 0 0)
(0.106227 0.00141843 0 -0.00261698 0.175164 0 0 0 0)
(0.0840411 0.00146127 0 -0.00256403 0.187985 0 0 0 0)
(0.0696734 -0.000340815 0 -0.000412908 0.179878 0 0 0 0)
(-0.0469783 0.0022944 0 -0.00392639 0.188479 0 0 0 0)
(-0.329174 0.00174143 0 -0.00379078 0.18527 0 0 0 0)
(-0.960884 0.000431496 0 0.00739623 0.187792 0 0 0 0)
(-0.712811 -0.00127648 0 0.0275408 0.186784 0 0 0 0)
(0.068137 -0.00389848 0 -1.00027 0.957643 0 0 0 0)
(0.268667 -0.321743 0 -1.10343 0.695893 0 0 0 0)
(-0.218259 -0.917131 0 -1.66395 0.688254 0 0 0 0)
(-1.26012 -0.596935 0 -2.04927 0.745061 0 0 0 0)
(-1.65009 0.275326 0 -1.84673 0.960057 0 0 0 0)
(-1.36144 0.543235 0 -1.31434 1.13667 0 0 0 0)
(-1.06864 0.327244 0 -1.31955 1.23163 0 0 0 0)
(-0.860352 -0.108059 0 -1.04042 1.05825 0 0 0 0)
(-0.614716 -0.353074 0 -0.590643 0.813152 0 0 0 0)
(-0.566236 -0.322298 0 -0.316561 0.601994 0 0 0 0)
(-0.649164 -0.224746 0 -0.203361 0.450188 0 0 0 0)
(-0.643209 -0.144195 0 -0.142065 0.332381 0 0 0 0)
(-0.412345 -0.0766933 0 -0.0739517 0.256092 0 0 0 0)
(-0.153565 -0.0318367 0 -0.0290806 0.22317 0 0 0 0)
(-0.0399811 -0.0135989 0 -0.014295 0.209702 0 0 0 0)
(-0.0112049 -0.00959957 0 -0.0125771 0.201464 0 0 0 0)
(0.00510804 -0.00966801 0 -0.0126608 0.193092 0 0 0 0)
(0.0326323 -0.00720456 0 -0.00759524 0.186896 0 0 0 0)
(0.0728984 -0.00294347 0 -0.0026172 0.183431 0 0 0 0)
(0.112718 -0.00066531 0 -0.000445335 0.182216 0 0 0 0)
(0.138318 -0.000457417 0 -8.72957e-06 0.18179 0 0 0 0)
(0.149721 -0.000612094 0 -5.26156e-05 0.181151 0 0 0 0)
(0.153322 -0.000508414 0 -9.10707e-05 0.180679 0 0 0 0)
(0.153854 -0.000473825 0 -2.86228e-05 0.180291 0 0 0 0)
(0.153644 -0.000539975 0 0.000129884 0.179905 0 0 0 0)
(0.152442 -0.000169046 0 0.000377943 0.179425 0 0 0 0)
(0.152832 -0.000859119 0 0.000695396 0.179667 0 0 0 0)
(0.15088 -1.36379e-05 0 0.000914809 0.178027 0 0 0 0)
(0.146492 -8.91133e-05 0 0.00129003 0.179628 0 0 0 0)
(0.144713 0.0004854 0 0.00172132 0.177907 0 0 0 0)
(0.141972 -0.000585442 0 0.0020681 0.180348 0 0 0 0)
(0.137611 0.0018884 0 0.00254932 0.17702 0 0 0 0)
(0.125913 -0.00111988 0 0.00303681 0.183035 0 0 0 0)
(0.107074 0.00262607 0 0.00530123 0.175657 0 0 0 0)
(0.0853016 0.00284455 0 0.00628427 0.186397 0 0 0 0)
(0.0693883 7.54075e-05 0 0.0098385 0.179505 0 0 0 0)
(-0.0480855 0.00348946 0 0.00454296 0.188402 0 0 0 0)
(-0.32534 -0.000399931 0 0.00280799 0.182765 0 0 0 0)
(-0.950584 0.000410904 0 0.00925399 0.180802 0 0 0 0)
(-0.706155 -0.00070294 0 0.0227476 0.18313 0 0 0 0)
(0.0366878 0.0231439 0 -1.7087 0.403954 0 0 0 0)
(-0.0567189 -0.202594 0 -1.7242 0.273266 0 0 0 0)
(-0.628544 -0.554972 0 -2.28663 0.392812 0 0 0 0)
(-1.36763 -0.243846 0 -2.52022 0.968942 0 0 0 0)
(-1.42883 0.422008 0 -2.33809 1.27975 0 0 0 0)
(-1.06217 0.523796 0 -1.89303 1.22805 0 0 0 0)
(-0.77862 0.122442 0 -1.49699 0.921356 0 0 0 0)
(-0.432718 -0.318962 0 -0.993012 0.692472 0 0 0 0)
(-0.269326 -0.524253 0 -0.617239 0.534979 0 0 0 0)
(-0.394707 -0.464174 0 -0.418584 0.436918 0 0 0 0)
(-0.560094 -0.33346 0 -0.321412 0.358035 0 0 0 0)
(-0.557926 -0.22397 0 -0.223666 0.282363 0 0 0 0)
(-0.336443 -0.120771 0 -0.106924 0.238098 0 0 0 0)
(-0.115502 -0.0508683 0 -0.0401451 0.218881 0 0 0 0)
(-0.0301475 -0.0236342 0 -0.0210336 0.208143 0 0 0 0)
(-0.0101818 -0.0176693 0 -0.0191015 0.19902 0 0 0 0)
(0.00782642 -0.016226 0 -0.0175417 0.19112 0 0 0 0)
(0.0381363 -0.0113567 0 -0.0115043 0.186198 0 0 0 0)
(0.0772678 -0.00503021 0 -0.00469052 0.183314 0 0 0 0)
(0.114412 -0.00146647 0 -0.00106385 0.182211 0 0 0 0)
(0.138522 -0.00102913 0 -0.000216036 0.181612 0 0 0 0)
(0.149579 -0.00117902 0 -0.000378603 0.18084 0 0 0 0)
(0.153249 -0.000930248 0 -0.0006258 0.180316 0 0 0 0)
(0.153914 -0.00084371 0 -0.000719404 0.179921 0 0 0 0)
(0.153825 -0.000949164 0 -0.000643801 0.179544 0 0 0 0)
(0.152729 -0.000274361 0 -0.000425938 0.179087 0 0 0 0)
(0.153103 -0.00152954 0 -7.68667e-05 0.179344 0 0 0 0)
(0.151189 -4.03803e-05 0 7.95292e-05 0.177704 0 0 0 0)
(0.146935 -0.000147643 0 0.000530359 0.17927 0 0 0 0)
(0.145136 0.000803426 0 0.00102861 0.177646 0 0 0 0)
(0.142428 -0.00100155 0 0.00138247 0.179865 0 0 0 0)
(0.138117 0.0030711 0 0.00190743 0.176903 0 0 0 0)
(0.12741 -0.00164672 0 0.00228599 0.181954 0 0 0 0)
(0.108902 0.00401017 0 0.00497069 0.176276 0 0 0 0)
(0.0877374 0.00442812 0 0.00636003 0.184036 0 0 0 0)
(0.0681483 0.00136837 0 0.0103527 0.178973 0 0 0 0)
(-0.0531595 0.00479449 0 0.00302391 0.187638 0 0 0 0)
(-0.32669 -0.00443423 0 -0.0011615 0.18212 0 0 0 0)
(-0.947192 0.000793959 0 0.00157663 0.181982 0 0 0 0)
(-0.703377 0.00065933 0 0.00859762 0.184129 0 0 0 0)
(0.0531955 -0.129834 0 -2.53222 0.342996 0 0 0 0)
(-0.288247 -0.332479 0 -2.83519 0.192919 0 0 0 0)
(-0.985332 -0.246753 0 -3.10026 0.589793 0 0 0 0)
(-1.30971 0.257755 0 -3.03178 1.17715 0 0 0 0)
(-1.0457 0.525008 0 -2.45328 1.22839 0 0 0 0)
(-0.550926 0.197869 0 -1.84881 0.843939 0 0 0 0)
(-0.201348 -0.188855 0 -1.24528 0.492299 0 0 0 0)
(-0.0125928 -0.480386 0 -0.779516 0.281379 0 0 0 0)
(-0.0611762 -0.599335 0 -0.566217 0.244623 0 0 0 0)
(-0.281166 -0.492809 0 -0.464075 0.269089 0 0 0 0)
(-0.461333 -0.37368 0 -0.382978 0.252719 0 0 0 0)
(-0.436522 -0.259771 0 -0.257817 0.228 0 0 0 0)
(-0.235497 -0.137868 0 -0.116431 0.220663 0 0 0 0)
(-0.0707976 -0.0607022 0 -0.047228 0.214528 0 0 0 0)
(-0.0197026 -0.0327379 0 -0.0293257 0.205677 0 0 0 0)
(-0.00784003 -0.0260033 0 -0.0265269 0.196014 0 0 0 0)
(0.012429 -0.0220238 0 -0.0222221 0.188927 0 0 0 0)
(0.0450161 -0.0147273 0 -0.0145813 0.185025 0 0 0 0)
(0.0829592 -0.00678544 0 -0.00660674 0.182768 0 0 0 0)
(0.11703 -0.00230498 0 -0.00193275 0.181888 0 0 0 0)
(0.138979 -0.00177855 0 -0.000612919 0.181176 0 0 0 0)
(0.149326 -0.00186132 0 -0.000754659 0.180264 0 0 0 0)
(0.152994 -0.00139401 0 -0.00113135 0.17967 0 0 0 0)
(0.153836 -0.00121773 0 -0.00134892 0.179265 0 0 0 0)
(0.153926 -0.0013437 0 -0.00134638 0.17891 0 0 0 0)
(0.152989 -0.000361206 0 -0.00117226 0.178487 0 0 0 0)
(0.153319 -0.00219171 0 -0.000810812 0.178765 0 0 0 0)
(0.151465 -8.48476e-05 0 -0.000730818 0.177163 0 0 0 0)
(0.147406 -0.000145068 0 -0.00022032 0.178687 0 0 0 0)
(0.145534 0.00105803 0 0.000308671 0.177271 0 0 0 0)
(0.142819 -0.00130132 0 0.000621295 0.179203 0 0 0 0)
(0.138481 0.00390224 0 0.00112331 0.176821 0 0 0 0)
(0.128864 -0.00172415 0 0.0012939 0.180718 0 0 0 0)
(0.111 0.00463222 0 0.0040088 0.177062 0 0 0 0)
(0.0904879 0.00544409 0 0.00568764 0.181504 0 0 0 0)
(0.0661735 0.00354655 0 0.00960608 0.17859 0 0 0 0)
(-0.059181 0.00652162 0 0.00185785 0.185831 0 0 0 0)
(-0.326734 -0.0058504 0 -0.00261707 0.18249 0 0 0 0)
(-0.94118 0.0023468 0 0.00173733 0.185043 0 0 0 0)
(-0.69939 0.00136551 0 0.011371 0.186823 0 0 0 0)
(-0.255262 -0.121476 0 -2.99287 0.334043 0 0 0 0)
(-0.604107 0.0352295 0 -3.39056 0.471811 0 0 0 0)
(-0.81799 0.393467 0 -3.2399 0.903799 0 0 0 0)
(-0.744169 0.371529 0 -2.66621 0.998384 0 0 0 0)
(-0.28887 0.100916 0 -1.85289 0.607697 0 0 0 0)
(0.101897 -0.185527 0 -1.21801 0.254604 0 0 0 0)
(0.25179 -0.419662 0 -0.773607 0.0797313 0 0 0 0)
(0.221653 -0.557631 0 -0.574522 0.00962097 0 0 0 0)
(0.0346447 -0.536096 0 -0.499741 0.091025 0 0 0 0)
(-0.218131 -0.456373 0 -0.465061 0.154163 0 0 0 0)
(-0.361337 -0.373055 0 -0.389832 0.166161 0 0 0 0)
(-0.301071 -0.25486 0 -0.249992 0.187289 0 0 0 0)
(-0.133512 -0.133753 0 -0.112492 0.206956 0 0 0 0)
(-0.0315645 -0.0653093 0 -0.055443 0.208306 0 0 0 0)
(-0.0101991 -0.0414752 0 -0.0400391 0.200214 0 0 0 0)
(-0.00333653 -0.0338097 0 -0.0346501 0.191363 0 0 0 0)
(0.0193376 -0.0268153 0 -0.0269503 0.185716 0 0 0 0)
(0.0531839 -0.0172921 0 -0.0173527 0.182922 0 0 0 0)
(0.0894564 -0.0080525 0 -0.00836788 0.181459 0 0 0 0)
(0.120188 -0.00300006 0 -0.00303047 0.180883 0 0 0 0)
(0.139657 -0.00259403 0 -0.00129091 0.180162 0 0 0 0)
(0.149079 -0.00263056 0 -0.00124176 0.179162 0 0 0 0)
(0.152676 -0.00189284 0 -0.00153465 0.178515 0 0 0 0)
(0.153707 -0.00157591 0 -0.00168371 0.178119 0 0 0 0)
(0.153995 -0.00169906 0 -0.00159679 0.177813 0 0 0 0)
(0.153245 -0.000414235 0 -0.00133326 0.177429 0 0 0 0)
(0.153529 -0.00280516 0 -0.00083699 0.177739 0 0 0 0)
(0.151758 -0.000115704 0 -0.000620887 0.176262 0 0 0 0)
(0.147937 -4.40144e-05 0 6.71334e-05 0.17771 0 0 0 0)
(0.145947 0.00130053 0 0.000786845 0.176562 0 0 0 0)
(0.143213 -0.00143554 0 0.00124836 0.178219 0 0 0 0)
(0.138765 0.00453156 0 0.00194331 0.176464 0 0 0 0)
(0.130191 -0.00141442 0 0.00218142 0.179402 0 0 0 0)
(0.113136 0.00476691 0 0.00491764 0.177375 0 0 0 0)
(0.0931312 0.00590091 0 0.00693846 0.179584 0 0 0 0)
(0.0644578 0.00553858 0 0.0103767 0.177892 0 0 0 0)
(-0.0649381 0.00855271 0 0.00429158 0.182424 0 0 0 0)
(-0.326806 -0.00519416 0 0.000579432 0.181732 0 0 0 0)
(-0.933713 0.00496922 0 0.00532168 0.185682 0 0 0 0)
(-0.694093 0.00237497 0 0.0169041 0.188187 0 0 0 0)
(-0.330033 0.00292394 0 -2.4597 0.373552 0 0 0 0)
(-0.526298 0.216558 0 -2.44499 0.560194 0 0 0 0)
(-0.287326 0.260672 0 -2.0924 0.476 0 0 0 0)
(0.0268677 -0.0275793 0 -1.45649 0.166222 0 0 0 0)
(0.349836 -0.191726 0 -0.909882 -0.0669354 0 0 0 0)
(0.48911 -0.310898 0 -0.591678 -0.116045 0 0 0 0)
(0.418743 -0.424929 0 -0.462154 -0.131618 0 0 0 0)
(0.251314 -0.469503 0 -0.442355 -0.0551476 0 0 0 0)
(0.0443036 -0.460049 0 -0.456488 0.0331037 0 0 0 0)
(-0.175253 -0.420404 0 -0.445875 0.0829116 0 0 0 0)
(-0.254084 -0.341759 0 -0.355646 0.121535 0 0 0 0)
(-0.169266 -0.22046 0 -0.210535 0.17068 0 0 0 0)
(-0.0480231 -0.117615 0 -0.0997511 0.199041 0 0 0 0)
(-0.000979573 -0.0671992 0 -0.0592782 0.201256 0 0 0 0)
(0.000334175 -0.0490644 0 -0.0467345 0.193693 0 0 0 0)
(0.00477279 -0.0399737 0 -0.0389958 0.186381 0 0 0 0)
(0.0290973 -0.0301576 0 -0.0289209 0.18219 0 0 0 0)
(0.0629229 -0.0188293 0 -0.0181469 0.180363 0 0 0 0)
(0.0967606 -0.00875039 0 -0.00890894 0.179465 0 0 0 0)
(0.123849 -0.00355459 0 -0.00353739 0.179006 0 0 0 0)
(0.140702 -0.00343748 0 -0.00176874 0.178303 0 0 0 0)
(0.149091 -0.00344855 0 -0.00173776 0.177251 0 0 0 0)
(0.152568 -0.00239894 0 -0.00209739 0.176584 0 0 0 0)
(0.153776 -0.00189419 0 -0.00233913 0.176224 0 0 0 0)
(0.154264 -0.0020082 0 -0.00236453 0.176007 0 0 0 0)
(0.153721 -0.00043311 0 -0.00222629 0.17567 0 0 0 0)
(0.154005 -0.00331685 0 -0.00183972 0.176049 0 0 0 0)
(0.152336 -0.000112153 0 -0.00165677 0.174834 0 0 0 0)
(0.148763 0.000144218 0 -0.00110959 0.176198 0 0 0 0)
(0.146673 0.00154812 0 -0.000493015 0.17538 0 0 0 0)
(0.143934 -0.00139557 0 -0.000198002 0.176823 0 0 0 0)
(0.139381 0.00504283 0 0.000345029 0.175735 0 0 0 0)
(0.131731 -0.000846732 0 0.00030187 0.177967 0 0 0 0)
(0.115584 0.00480719 0 0.00246735 0.177174 0 0 0 0)
(0.0957485 0.00594217 0 0.00410201 0.177916 0 0 0 0)
(0.0636229 0.0062828 0 0.00615187 0.177328 0 0 0 0)
(-0.068622 0.0102224 0 0.000772315 0.178406 0 0 0 0)
(-0.325742 -0.00271039 0 -0.00374744 0.180146 0 0 0 0)
(-0.925449 0.00856755 0 -0.000435564 0.186128 0 0 0 0)
(-0.688228 0.00377985 0 0.0109626 0.188789 0 0 0 0)
(-0.241084 0.0583784 0 -1.07987 -0.0127466 0 0 0 0)
(-0.250158 0.133951 0 -1.02812 0.0346771 0 0 0 0)
(0.134562 0.0138215 0 -0.779565 -0.136762 0 0 0 0)
(0.395346 -0.151663 0 -0.506803 -0.268636 0 0 0 0)
(0.544497 -0.171086 0 -0.348288 -0.229633 0 0 0 0)
(0.533344 -0.247858 0 -0.290015 -0.179948 0 0 0 0)
(0.395683 -0.360979 0 -0.354753 -0.131108 0 0 0 0)
(0.227113 -0.3989 0 -0.382886 -0.0684531 0 0 0 0)
(0.0312534 -0.403057 0 -0.418048 -0.0069573 0 0 0 0)
(-0.120956 -0.371158 0 -0.400374 0.0437614 0 0 0 0)
(-0.134555 -0.288478 0 -0.295798 0.107176 0 0 0 0)
(-0.0544818 -0.180172 0 -0.168617 0.164177 0 0 0 0)
(0.0122445 -0.104289 0 -0.0948602 0.189464 0 0 0 0)
(0.0195242 -0.0704627 0 -0.0672169 0.190567 0 0 0 0)
(0.00934571 -0.0558093 0 -0.0563624 0.184767 0 0 0 0)
(0.0138293 -0.0448945 0 -0.0456741 0.179773 0 0 0 0)
(0.0394284 -0.0326146 0 -0.0328931 0.177442 0 0 0 0)
(0.0724681 -0.0199183 0 -0.0204452 0.176716 0 0 0 0)
(0.103535 -0.00936046 0 -0.0107778 0.17633 0 0 0 0)
(0.127069 -0.00411996 0 -0.005093 0.176074 0 0 0 0)
(0.141391 -0.00428496 0 -0.00284259 0.175403 0 0 0 0)
(0.148763 -0.0042867 0 -0.00227153 0.174348 0 0 0 0)
(0.152097 -0.0028825 0 -0.00210586 0.173705 0 0 0 0)
(0.153449 -0.00213168 0 -0.00186448 0.173417 0 0 0 0)
(0.154104 -0.00223327 0 -0.00145662 0.173331 0 0 0 0)
(0.153751 -0.000374462 0 -0.000916665 0.173053 0 0 0 0)
(0.154078 -0.00361034 0 -0.000173926 0.17353 0 0 0 0)
(0.152462 2.8229e-05 0 0.000584056 0.172672 0 0 0 0)
(0.149058 0.000481382 0 0.00148033 0.173957 0 0 0 0)
(0.146825 0.001903 0 0.0024903 0.173497 0 0 0 0)
(0.144021 -0.00109258 0 0.00314979 0.174786 0 0 0 0)
(0.139247 0.0056334 0 0.00404362 0.174325 0 0 0 0)