/*--------------------------------*- C++ -*----------------------------------*\
| =========                 |                                                 |
| \\      /  F ield         | OpenFOAM: The Open Source CFD Toolbox           |
|  \\    /   O peration     | Version:  v1912                                 |
|   \\  /    A nd           | Website:  www.openfoam.com                      |
|    \\/     M anipulation  |                                                 |
\*---------------------------------------------------------------------------*/
FoamFile
{
    version     2.0;
    format      ascii;
    class       volScalarField;
    location    "2.8";
    object      s;
}
// * * * * * * * * * * * * * * * * * * * * * * * * * * * * * * * * * * * * * //

dimensions      [0 2 -2 0 0 0 0];


internalField   nonuniform List<scalar> 
10000
(
-4.50883e-25
5.69015e-22
-7.07326e-20
-6.16381e-18
1.25442e-15
-1.43146e-13
3.31614e-11
1.84274e-09
2.0303e-08
5.87025e-08
-1.71474e-08
-9.71377e-08
1.6564e-07
-9.56633e-08
-1.0557e-07
3.43861e-07
-5.00085e-07
4.90857e-07
-2.99e-07
-2.94517e-08
4.10131e-07
-7.51083e-07
9.78366e-07
-1.05312e-06
9.72419e-07
-7.59852e-07
4.63701e-07
-1.43076e-07
-1.59136e-07
4.09073e-07
-5.72915e-07
6.48229e-07
-6.50538e-07
5.85852e-07
-4.79782e-07
3.59017e-07
-2.35364e-07
1.28823e-07
-4.72216e-08
-9.61117e-09
3.9706e-08
-5.05216e-08
4.81091e-08
-3.76715e-08
2.57754e-08
-1.50118e-08
7.12334e-09
-2.64473e-09
5.50383e-10
6.12077e-11
-3.86675e-11
2.102e-11
3.26099e-10
6.66498e-10
1.11065e-09
1.31403e-09
5.97813e-10
-1.04486e-09
-5.54934e-09
-1.15521e-08
-1.94933e-08
-3.17623e-08
-4.00137e-08
-5.00821e-08
-5.89693e-08
-5.21621e-08
-4.89309e-08
-3.39901e-08
3.98241e-09
2.86087e-08
6.16792e-08
1.11145e-07
1.37436e-07
1.4974e-07
1.55483e-07
1.37444e-07
9.94572e-08
5.09723e-08
-2.25946e-09
-4.97118e-08
-8.08202e-08
-8.9314e-08
-7.48298e-08
-4.41039e-08
-9.44516e-09
1.58541e-08
2.36727e-08
1.56328e-08
2.2108e-09
-4.98657e-09
-2.91776e-09
1.45632e-09
-1.38101e-10
1.8287e-12
9.90149e-15
-2.67942e-17
-4.0422e-18
-8.5592e-20
-5.12119e-22
-3.81913e-25
-5.99332e-22
4.6835e-19
-7.42514e-17
-1.39187e-15
1.09351e-12
-1.65576e-10
-4.14365e-08
-8.86398e-07
-5.32601e-06
-7.56462e-06
9.22786e-06
3.73285e-06
-1.99661e-05
2.57738e-05
-1.4947e-05
-9.10656e-06
3.6861e-05
-5.78447e-05
6.4663e-05
-5.48336e-05
3.05344e-05
2.87192e-06
-3.83913e-05
6.95403e-05
-9.20313e-05
0.000102641
-9.99808e-05
8.70037e-05
-6.70679e-05
4.11556e-05
-1.3641e-05
-1.00781e-05
3.00664e-05
-4.46318e-05
5.15586e-05
-5.32484e-05
4.97068e-05
-4.19323e-05
3.27829e-05
-2.259e-05
1.31873e-05
-5.6875e-06
-6.16677e-08
3.34602e-06
-4.73668e-06
4.78357e-06
-3.77001e-06
2.52164e-06
-1.37587e-06
4.98381e-07
-7.28616e-10
7.81972e-08
2.30141e-07
1.87186e-07
-5.13026e-08
-4.80996e-07
-9.83611e-07
-1.886e-06
-2.89116e-06
-3.37977e-06
-4.50618e-06
-4.68183e-06
-3.87845e-06
-4.20049e-06
-1.66058e-06
8.57832e-07
1.68672e-06
7.04298e-06
9.69796e-06
9.26324e-06
1.37888e-05
1.52274e-05
1.18924e-05
1.0513e-05
8.10284e-06
3.12321e-06
-1.53605e-06
-5.51158e-06
-8.68021e-06
-1.01414e-05
-9.60324e-06
-7.2838e-06
-3.79078e-06
-1.21365e-07
2.61797e-06
3.62885e-06
2.81849e-06
9.56226e-07
-6.55507e-07
-1.01272e-06
-2.57669e-07
3.88506e-07
-7.33767e-08
3.20589e-09
3.12494e-12
1.10799e-13
3.63124e-15
6.14944e-17
3.95578e-19
5.36755e-22
-9.32837e-20
8.54006e-17
-2.55899e-14
2.54707e-12
-1.81724e-10
1.90164e-07
7.39889e-06
7.76833e-05
0.000262731
0.000119408
-0.00040767
0.000230422
0.000259218
-0.000700635
0.000817324
-0.000535869
-3.83248e-05
0.000708661
-0.00127497
0.00159366
-0.00160205
0.00130439
-0.000769508
0.000117911
0.00057092
-0.00122698
0.00170397
-0.00195674
0.0020767
-0.00202173
0.00172174
-0.00133106
0.000910878
-0.000416286
-2.02714e-05
0.000388481
-0.000702601
0.000877392
-0.000968068
0.000963049
-0.000859208
0.000722666
-0.000536181
0.000347804
-0.000183976
3.53376e-05
5.60361e-05
-0.00010713
0.000129889
-9.58826e-05
7.78158e-05
-3.26916e-05
-8.07283e-06
-1.67697e-05
-5.69611e-05
-6.4281e-05
-6.81969e-05
-0.000102882
-8.00401e-05
-6.60951e-05
-7.8596e-05
6.47804e-06
1.59226e-05
4.42959e-05
0.000179016
0.000137809
0.000206813
0.000326521
0.000171453
0.000216746
0.000334921
0.000143988
4.02065e-05
6.14917e-05
-4.22477e-05
-0.000152134
-0.000193306
-0.000222982
-0.000229805
-0.000195744
-0.000132503
-5.30281e-05
2.67028e-05
8.65167e-05
0.000109959
9.15076e-05
4.1703e-05
-1.3338e-05
-4.26756e-05
-3.08564e-05
4.14379e-06
1.88955e-05
-6.91434e-06
6.89082e-07
-1.45628e-08
-7.71611e-11
-1.03585e-12
-1.24477e-14
-7.09087e-17
-1.03827e-19
3.06925e-18
6.16073e-16
-2.57425e-12
5.66808e-10
-3.47286e-07
-2.20774e-05
-0.000368488
-0.00217413
-0.00408546
0.00112396
0.00429333
-0.00551927
0.00189597
0.00364399
-0.00784627
0.00887108
-0.00654697
0.00185221
0.00374921
-0.00884582
0.0125125
-0.0141758
0.0134795
-0.0111779
0.00793078
-0.00308018
-0.00223859
0.00601536
-0.00924315
0.0127793
-0.0146758
0.0147112
-0.014373
0.0128211
-0.010434
0.00803847
-0.00489766
0.00201831
0.00069651
-0.00326339
0.00491713
-0.00633753
0.00686402
-0.00677837
0.0063992
-0.00512329
0.00410802
-0.00250314
0.00113072
-0.000205247
-0.00122219
0.000832949
-0.00205698
0.000466656
-0.00137678
-0.000510453
-0.000104298
-0.000817229
0.000559678
0.000223941
0.000357133
0.00174672
0.000633574
0.00193533
0.00237012
0.000752087
0.00279335
0.00133307
-0.000377678
0.00275372
0.00108592
-0.00193662
-0.000441357
-0.000277416
-0.00184226
-0.00200078
-0.00169344
-0.00166801
-0.00137
-0.000787413
-0.000157743
0.000446946
0.000916892
0.00111268
0.000966809
0.000517408
-6.8418e-05
-0.000517583
-0.000572771
-0.000197117
0.000267953
0.000274364
-0.000204358
3.92057e-05
-2.34484e-06
2.63139e-08
1.39719e-10
1.19853e-12
5.3903e-15
6.57481e-18
9.99055e-16
-8.41026e-13
-1.70694e-10
3.26584e-07
2.97223e-05
0.000738216
0.00679725
0.02403
0.0223654
-0.0232147
-0.00848128
0.0307091
-0.0276793
0.00680732
0.0173848
-0.0337671
0.0377435
-0.0300376
0.0142991
0.00432618
-0.0221265
0.0378422
-0.0461159
0.0466215
-0.0485941
0.0443715
-0.0277034
0.0151447
-0.0082685
-0.00408654
0.0186331
-0.028819
0.036661
-0.0414972
0.0427357
-0.0433375
0.0406735
-0.0372559
0.0317152
-0.0239835
0.017095
-0.00719333
0.000417467
0.00798407
-0.0142315
0.0180658
-0.0237169
0.0214817
-0.0257549
0.018088
-0.0199067
0.00957662
-0.00849692
-9.37505e-05
0.00386761
-0.00614186
0.0113816
-0.00525122
0.0102926
0.00263811
0.00353603
0.0121848
-0.000330931
0.012266
0.00391741
-0.00196407
0.0100283
-0.00826022
0.00327998
0.012983
-0.0155752
-0.0109771
0.00415988
-0.00516837
-0.0101604
-0.00599092
-0.00427451
-0.00429774
-0.00245952
5.94422e-05
0.00195584
0.00357443
0.00448281
0.00414445
0.0025878
0.000187356
-0.00219503
-0.00332674
-0.00227837
0.000536004
0.00267516
0.00117458
-0.00233765
0.000808314
-9.70345e-05
3.7718e-06
-2.68183e-08
-9.91985e-11
-2.84049e-13
-1.73665e-16
1.09758e-13
-1.32166e-10
-1.57265e-07
-1.89914e-05
-0.000677615
-0.00929234
-0.0527019
-0.112479
-0.0291933
0.0948983
-0.0366253
-0.0391068
0.0676242
-0.047723
0.00571037
0.033142
-0.0554867
0.0589237
-0.045385
0.0225265
-0.00216944
-0.025133
0.0530326
-0.0485225
0.0562046
-0.0858756
0.0679404
-0.0444953
0.0456912
-0.0388408
0.0328689
-0.0179737
-0.00208918
0.0147906
-0.0278041
0.0333788
-0.037107
0.0457475
-0.0468046
0.0548885
-0.0549605
0.0523328
-0.0522477
0.0366956
-0.0393183
0.016293
-0.0195493
-0.00408189
0.00435493
-0.0236822
0.0292419
-0.0362127
0.048115
-0.0365477
0.0513401
-0.0259437
0.035942
-0.00417072
0.0108921
0.0254678
-0.0103536
0.0413571
-0.0215021
0.0200765
-0.0136886
-0.0191964
0.0204434
-0.0245268
0.0244019
-0.0086658
-0.0595201
0.00524199
0.0112769
-0.0174506
-0.0194755
-0.00820962
-0.0016649
-0.00580023
-0.00170488
0.00345447
0.0049265
0.00763424
0.00854276
0.00666586
0.00308918
-0.00174013
-0.00590759
-0.00658975
-0.00208975
0.00544917
0.00834588
-0.000708287
-0.0108819
0.00689447
-0.00148481
0.000119817
-3.15749e-06
1.68413e-08
1.94764e-11
-5.79592e-15
2.29628e-11
2.86575e-08
5.03957e-06
0.000261563
0.00534326
0.0470682
0.173268
0.205494
-0.0651917
-0.0867049
0.0853564
-0.0293199
-0.00174165
-0.00278483
0.022807
-0.0380494
0.04041
-0.035328
0.0235063
0.00369668
-0.0118416
0.00321471
-0.0471449
0.0420865
0.00698982
0.0480598
-0.0512644
0.0114144
-0.0285785
0.0122647
-0.0204084
0.0285104
-0.027656
0.0332979
-0.00824808
0.0144415
-0.00323595
0.00830428
-0.0181452
0.00470535
-0.0186072
-0.0171443
0.00132899
-0.0322355
0.0208065
-0.0337553
0.026035
-0.0305444
0.0373142
-0.0220052
0.0492754
-0.00923287
0.0349345
0.00619677
0.00206817
0.0268812
-0.0207354
0.0517218
-0.0330094
0.0593827
-0.0441294
0.0241371
-0.0419103
-0.0273095
-0.00227545
-0.0460669
0.03638
-0.0345688
0.00157964
-0.0253892
-0.0615075
-0.00286298
0.0450298
0.00199369
-0.0609988
0.0100591
0.0237508
-0.0144528
0.00344317
0.00704046
0.00502443
0.0123475
0.0115856
0.00966608
0.00783355
0.00248464
-0.00313326
-0.00539611
-0.00192847
0.00534734
0.00625852
-0.00857943
-0.0174328
0.0239844
-0.00934222
0.0013803
-7.58581e-05
1.3233e-06
-5.04677e-09
1.46072e-12
-7.87719e-10
-3.00417e-07
-2.13689e-05
-0.000665217
-0.0108988
-0.0777451
-0.195063
-0.0662276
0.104256
-0.094796
0.0790178
-0.0311709
-0.0353408
0.0898535
-0.118349
0.11794
-0.0899273
0.0597024
-0.0542977
0.0275438
0.0258665
0.0116069
-0.01702
-0.0460812
-0.0101784
-0.00425654
0.029421
0.0220573
0.00835673
-0.0108701
0.0115547
0.00637005
-0.000966993
-0.00374055
-7.97722e-05
-0.0228074
-0.00529363
-0.0154205
-0.0187533
-0.0152215
0.00829029
-0.0142115
0.0244475
-0.0233525
0.012857
-0.000195696
0.0186343
0.0173381
0.0269891
0.00629658
0.0132207
0.0044936
-0.0124896
0.0270449
-0.0259144
0.0301386
-0.0220749
0.0101509
-0.0127895
-0.0057101
-0.00674214
-0.0410039
-0.00925825
-0.0634552
0.00187011
-0.0317367
-0.00210148
0.0420105
-0.046288
-0.00991277
-0.0632282
-0.000449012
0.17139
-0.0623848
-0.100615
0.121106
0.0190289
-0.0285249
0.0230562
0.00178745
0.0113042
0.016188
0.00398698
0.0100387
0.0120718
0.00428593
-0.00258415
-0.00933974
-0.012484
-0.00745959
0.00204365
0.00380326
8.80898e-06
0.0212931
-0.0212043
0.0062158
-0.000647545
2.29559e-05
-2.25564e-07
3.55079e-10
-1.15772e-08
-5.27236e-06
-0.000362828
-0.00656344
-0.036091
-0.0507587
-0.0155264
-0.0986208
0.039347
0.100218
-0.157796
0.126043
-0.0649862
0.0232623
0.00345657
-0.0345348
0.032904
-0.00362391
0.0230197
-0.0786261
0.034062
0.00773967
0.0606374
-0.0342649
0.0226002
-0.0220775
-0.0141304
-0.0337085
0.0188895
0.00431682
0.0045181
0.00715858
-0.00967956
-0.00855052
0.0108429
-0.0163327
0.00380339
-0.00329782
0.0171221
-0.00763259
0.00311616
-0.0253152
0.0243963
-0.0106744
0.0121938
-0.00815872
0.000766814
-0.000996025
-0.000255239
0.00866607
0.00164099
0.017576
-0.0140983
0.00484975
-0.016542
-0.00883539
0.0319883
0.00136473
0.0559403
-0.00622441
-0.00024953
-0.0389924
-0.0155447
0.0149581
-0.00592935
0.0127188
-0.0579821
0.0799567
-0.0386791
-0.0308776
0.0298572
-0.0473979
0.119794
-0.0739778
-0.0103988
0.113135
-0.0409209
-0.0169308
-9.42363e-06
-0.00293998
0.0135258
-0.0218519
-0.0225137
0.007887
-0.000271255
-0.00890473
-0.00441491
-0.00644456
-0.00809648
-0.00335433
0.0092071
0.0173385
-0.00444836
-0.0341534
0.00722316
0.00661365
-0.00193739
0.000139988
-2.68764e-06
8.65805e-09
3.6899e-07
8.56199e-05
0.00349884
0.0415974
0.160772
0.154126
-0.0619434
0.0419554
0.0409427
-0.066382
0.0371148
-0.00998897
-0.00483206
-0.0123497
0.0579276
-0.0210495
-0.0289928
-0.0244832
0.0616914
-0.0233049
-0.0112413
-0.0199285
0.0302635
-0.0533816
0.0385659
-0.00332753
0.034865
0.000401203
0.0363083
-0.0354447
0.00427291
-0.00380566
0.00965087
-0.00911745
-0.00983467
-0.0148453
0.00832866
-0.00105441
-0.0152814
0.0156683
-0.0352535
-0.000967681
-0.0431826
0.0283344
-0.0159174
0.0344788
-0.029455
0.027086
-0.0191021
0.0200218
0.00879554
0.00137373
0.0230573
-0.0250826
0.0463978
-0.0164908
0.0720749
0.000534885
0.0423629
-0.0114073
-0.0139422
0.0245807
0.022453
0.0237989
-0.0452424
-0.0671527
-0.0335887
0.141837
-0.00554488
-0.125584
0.00298623
-0.0299679
0.0201336
-0.00322953
-0.00529251
0.0226945
-0.0547365
-0.0514886
0.0230438
0.0171055
-0.0476191
-0.0590201
-0.000748318
0.0209554
-0.023425
-0.0154627
-0.00202014
-0.00871467
-0.0105215
-0.0155947
-0.0223455
-0.0245844
-0.0241103
-0.0143513
0.0714818
-0.0243662
0.000848594
0.000225289
-1.10354e-05
6.83286e-08
-2.90758e-06
-0.00044115
-0.0118281
-0.0898077
-0.187373
0.0599662
0.250277
-0.120148
-0.0227039
0.0588986
-0.0603826
0.0752834
-0.052816
-0.0122356
-0.0529795
0.075444
0.0888369
-0.0997816
0.0440789
-0.0328347
-0.00444645
-0.0187146
0.0507565
-0.0186829
0.00151609
-0.012467
0.00444264
-0.0268462
0.0151786
0.0163559
0.023343
-0.00402068
-0.0287218
0.0301026
-0.00947796
0.0426649
-0.0576991
0.037106
-0.0550631
0.0381854
-0.0314582
0.0289207
-0.0404799
-0.00898269
-0.048133
-0.00394717
-0.01526
0.00234641
0.0115655
-0.00755977
0.018304
-0.0375787
0.0136753
-0.0416705
0.0308021
0.0104571
0.0184137
0.0131229
-0.0612803
-0.00686687
-0.0424241
0.0622846
0.0371313
0.0186
-0.0310274
-0.0138962
-0.0417489
0.203518
-0.0505718
-0.108037
0.0822834
0.0444499
-0.0803967
-0.0489802
0.0708974
-0.0119301
-0.0763609
0.0540665
0.104601
-0.0661463
-0.0651774
-0.0096247
0.0418769
0.00598501
-0.0409866
0.016978
0.00810884
-0.0118833
-0.00891749
-0.0027849
0.00938157
0.0237886
0.0499128
0.0693646
0.0195893
-0.0605458
0.0149682
-0.000809856
-1.45323e-06
1.68344e-07
1.06431e-05
0.00111249
0.0203588
0.104888
0.149497
-0.0154171
-0.0200105
0.043108
-0.0895408
0.0975872
-0.0760401
-0.00122482
0.0891063
0.0219687
-0.0359564
-0.187441
0.0930724
0.0309402
-0.00437499
0.0671433
-0.0307184
-0.0233392
0.0350404
-0.0237282
-0.0189744
0.0427279
0.00710819
0.0474348
-0.0240582
0.0382579
-0.0772402
0.0833547
-0.0291463
0.0454913
-0.0510472
-0.00145526
-0.0242857
0.0220215
-0.0204545
0.0201857
-0.049373
0.00153212
-0.0426024
-0.029617
-0.0224762
-0.0533244
0.0117196
-0.012974
0.0583031
-0.0136351
0.0344517
-0.0349185
0.00431148
-0.0129408
0.0053556
0.0160762
-0.0421988
-0.0247511
-0.0733304
-0.0390693
0.00458366
0.000472959
0.0954753
0.0276286
0.0116761
0.0672127
-0.0854527
0.132017
0.070478
-0.10715
0.146358
-0.0367155
-0.135751
-0.0693722
0.0658865
0.0621466
-0.0180597
0.105432
0.04451
-0.0760841
-0.0127286
-0.00521583
0.0519809
-0.0472934
-0.0134701
0.085203
0.0391915
0.0289069
0.0195202
0.0273619
0.0493943
0.0497005
0.0155011
-0.0349775
-0.071581
-0.0193909
0.0254924
-0.00365352
0.000110535
-3.43434e-07
-2.1765e-05
-0.00167408
-0.0244632
-0.121133
-0.222165
-0.0710794
0.0395683
0.0111601
0.00194474
-0.0576735
0.116237
-0.0983312
-0.120875
0.126508
0.136891
-0.00534535
-0.0646836
-0.0341949
-0.0218773
-0.0439593
0.030054
0.0138833
-0.0378058
0.0905106
-0.0934982
0.13569
-0.0895172
0.0597773
0.00680836
0.0214939
0.033171
-0.00378513
-0.0360637
-0.00199078
0.0247245
0.055513
0.0208909
-0.0153663
-0.0020244
-0.032542
0.0116257
-0.0526048
0.0358764
-0.0439081
0.0449483
-0.0181891
0.0455144
-0.0171597
0.0220408
-0.00452111
-0.00212738
0.0244916
-0.0016496
0.0312632
-0.00021794
0.00495911
-0.0024169
-0.0460346
-0.0111316
-0.076466
0.00496613
-0.0138993
0.0311933
0.0719085
-0.0409067
0.0313067
-0.0923338
-0.0129634
0.132449
-0.088837
0.00624156
-0.0406328
-0.0746433
0.114521
-0.00257947
-0.0186017
-0.0430402
0.0920978
-0.0115462
-0.109289
-0.0386273
0.0236903
0.0387485
-0.117436
0.00173249
0.0277096
-0.0246656
-0.0330427
-0.0702409
-0.0579137
-0.0559612
-0.0512515
-0.0468467
-0.0567906
-0.00999607
0.0489565
0.005658
-0.00467441
0.000313067
-2.70773e-06
2.97886e-05
0.00206042
0.0303497
0.132394
0.0920759
-0.0962372
0.111553
-0.128662
-0.00388454
0.132504
-0.159896
0.177878
0.0461387
-0.318401
0.0802906
0.0262099
-0.0285021
0.146305
-0.0514997
0.0828668
-0.0296654
-0.0362366
0.0120367
-0.0376756
0.0998548
-0.0237392
0.0760351
0.000435451
-0.00495285
0.01284
-0.0447709
0.0486828
0.00917507
0.0686459
0.0205403
-0.0182678
0.0179145
-0.015978
0.059103
-0.0117914
0.0579333
-0.0270696
0.0131334
-0.0351043
-0.017477
-7.72977e-05
-0.0109186
0.0452137
0.0236245
0.037382
0.0327026
-0.00129124
0.0455424
-0.0177574
0.0898788
-0.00256109
0.108091
0.00459413
0.0525673
-0.00934748
-0.0355001
-0.00616392
-0.0513526
0.0069724
-0.0447143
-0.0373456
-0.0625026
-0.0721419
0.0269092
0.0576874
0.0905074
0.0556889
0.00880151
0.133358
-0.0858677
-0.0988499
-0.0133663
0.0680369
-0.0746621
-0.0791115
0.0789167
0.104368
0.0302442
-0.0424308
0.0467822
-0.0172935
-0.0108282
-0.0406808
-0.014057
0.042274
0.0218244
0.0316671
0.052951
0.0541802
0.0122452
0.0350625
-0.0225069
0.000132336
0.000286836
-5.43489e-06
-3.96851e-05
-0.00274913
-0.0299474
-0.0331964
0.109546
-0.174721
-0.110422
0.266692
-0.181189
0.00510985
0.0804493
-0.210315
0.208385
0.124862
-0.123329
0.0858819
-0.0888459
-0.153731
0.171908
-0.229238
0.168442
-0.13512
0.158199
0.0793976
-0.0164909
0.0579534
-0.0157268
0.0095936
0.0584004
-0.0151549
0.0572494
-0.0529126
0.0672473
-0.0267512
0.0539878
-0.00930619
0.0471437
0.00649853
0.00017646
0.0206761
-0.0357259
0.0082787
-0.0380822
-0.0120171
0.00418838
-0.0234785
0.0621199
-0.0270899
0.0839555
-0.0280015
0.049006
-0.0247781
0.00747218
0.00147535
-0.0107648
0.0661688
0.0187476
0.108181
0.0309012
0.0671735
-0.00258683
-0.0281373
-0.0187057
-0.0420424
-0.0169024
0.0193344
-0.0687454
-0.0114539
-0.0138164
-0.0212513
0.173582
-0.00925694
-0.0935076
0.0733511
-0.0460367
-0.0574863
0.0513634
0.00853487
-0.0488841
0.0447846
0.0753933
0.0768342
-0.0455475
-0.0436799
0.038293
-0.0139134
-0.0105709
-0.0261368
0.0837746
0.0459568
-0.00938027
0.0248673
-0.00642432
-0.027488
0.00765255
-0.0383462
-0.00308179
0.00326833
-6.42465e-05
-3.50591e-06
5.35842e-05
0.00223663
-0.00149484
-0.101408
-0.0193183
0.157649
-0.281543
-0.0416626
0.232783
-0.0899038
-0.0637027
0.167002
-0.204868
-0.132733
0.258901
-0.272613
0.351292
-0.127058
0.0814499
-0.00682909
-0.0119913
0.0588886
0.0818714
-0.10872
0.125563
-0.114783
0.130104
-0.0954546
0.0647569
-0.0173525
0.00394843
0.0535526
-0.0271186
0.00514089
-0.0188052
-0.0162807
0.00888928
-0.05748
0.0192271
-0.0599243
0.0150952
-0.0235387
-0.0101795
0.0273606
-0.0351582
0.060682
-0.0496428
0.0599935
-0.0568817
0.0251184
-0.0532756
-0.0150486
-0.0456433
-0.0310646
-0.0154083
-0.0400315
0.0338567
-0.0157764
0.0631975
0.0181828
0.0534745
0.026695
-0.00337094
0.0486626
-0.0586855
0.0668512
-0.0294505
-0.0594656
-0.00789455
-0.184904
0.0164315
0.0382848
-0.0851568
0.0651557
0.0168074
0.0292715
0.0122856
-0.0981774
-0.203953
0.150322
0.0781325
-0.0463665
-0.172049
-0.118651
0.0389577
-0.00711901
-0.0773824
0.00471178
0.101222
-0.0984653
-0.114128
-0.00209648
0.00187619
-0.0497854
0.0127459
-0.0196228
0.024356
-0.0026563
-4.11961e-05
2.59804e-07
-3.36338e-05
0.000588932
0.0214692
-0.0139698
-0.250781
0.024754
0.304383
0.0259534
-0.292556
0.243542
-0.025147
-0.198518
0.380886
-0.122787
-0.0888941
0.12486
-0.207522
-0.002721
0.00128179
-0.0875314
0.171103
0.0710665
-0.0186545
0.102423
-0.0911416
0.12258
-0.0714404
0.0390233
0.0196248
-0.0421376
0.0431464
-0.0575871
-0.0368403
-0.0188678
-0.0758891
0.0282559
-0.11092
0.0902316
-0.091763
0.116633
-0.0559898
0.0529599
-0.0222857
-0.0160198
0.0252259
-0.0345993
0.0668513
-0.029893
0.0799798
-0.0134195
0.0554908
-0.00507905
0.00644314
-0.0175645
-0.0494231
-0.0201761
-0.0842906
0.00266792
-0.0655459
0.0335982
-0.0166686
0.0536461
0.00617089
0.0381942
0.0149397
-0.0239598
0.048117
-0.0853701
0.0475665
-0.110662
-0.00981317
0.0768029
0.0699487
0.100876
-0.0516186
-0.00289098
-0.0532395
-0.131414
-0.0616672
0.126489
0.131398
0.0185512
-0.044625
0.000307245
0.0964154
0.110959
-0.0199908
0.0647882
0.106483
-0.0643646
-0.0127171
0.024233
0.0389098
0.0114245
0.0107483
0.0400063
-0.0124062
-0.0020928
0.000249819
-2.29606e-06
-1.97924e-06
-0.000660025
0.0139891
0.122909
0.0241784
-0.241598
-0.17229
0.40178
-0.0787664
-0.349516
0.258015
0.167056
-0.56728
0.419891
-0.136932
0.0340895
0.0917118
0.0799207
-0.121041
0.346501
-0.221923
0.11579
-0.111679
0.0497683
-0.0163126
0.0133927
-0.0716124
0.0497365
-0.129427
0.041597
-0.108027
0.0233303
-0.0485573
0.018793
0.0123219
-0.00350646
0.0555635
-0.00888842
0.0609433
0.0110746
0.015607
0.0622188
-0.00385444
0.116021
-0.0143849
0.11723
-0.0410059
0.0841616
-0.0431356
0.0544307
-0.0157897
0.0369578
0.0155434
0.0218143
0.0290905
-0.00124432
0.0222195
-0.0224282
0.0111093
-0.0167096
0.0142958
0.000545274
0.0276201
0.00123012
0.0247093
-0.0287216
0.0380525
-0.0451864
0.0779984
-0.0387717
0.00760412
-0.0235585
-0.0340465
0.126221
-0.065959
0.0279505
-0.0243853
-0.115318
0.00977874
0.0598813
-0.0795517
0.0352586
-0.0691301
-0.0319861
0.00357323
0.0336875
-0.0981743
-0.0565062
-0.0460064
-0.0586777
0.0457173
-0.0146368
0.000677497
0.0286459
0.00203641
-0.0393957
-0.0052957
0.00337425
-5.43679e-05
-2.54904e-06
-4.40486e-06
-0.000666153
-0.0054675
0.0697424
0.219629
0.186784
-0.277458
-0.369698
0.31724
0.469969
-0.64193
0.215115
0.214371
-0.114182
-0.151243
0.191268
-0.235645
0.0275408
0.0705598
-0.0400397
0.00292802
0.155578
-0.103665
0.16392
-0.152982
0.038405
-0.0496405
0.00496498
-0.0220947
0.0288027
0.00325407
0.0604916
-0.0309723
0.101818
-0.0676114
0.122097
-0.0810868
0.111743
-0.0552443
0.0420399
0.00831441
-0.0124917
0.0638935
-0.0544709
0.0714442
-0.0687696
0.0578615
-0.0438704
0.0429092
-0.0141392
0.0240484
-0.00189807
0.00442176
0.012645
0.00143527
0.0493881
0.0164714
0.0833122
0.0262227
0.0751175
0.0302029
0.0405328
0.0262336
0.0134569
0.041078
-0.0299379
0.0560873
-0.0591252
0.0569681
0.00737341
0.0196757
0.0616613
-0.0616476
0.0529051
-0.0528467
0.0519071
0.0356862
-0.0427966
0.065942
0.061093
-0.0719646
-0.0947295
-0.0127397
0.0403761
0.037225
0.0283251
-0.0287639
0.058274
-0.0194941
0.00789144
0.0929257
-0.0129961
-0.0295218
0.00227069
-0.109118
0.0454329
0.0114174
-0.000930767
-0.000129196
1.19136e-06
-3.56632e-06
-0.000424959
-0.00590317
0.0162653
0.108627
0.250037
0.471179
-0.0505523
-0.832795
-0.0828943
0.663083
-0.347561
-0.0855986
0.0409852
0.177672
-0.162676
0.154766
0.116524
-0.048715
0.135406
-0.0381896
-0.0684803
-0.0502497
-0.0695098
-0.0827065
0.0737059
-0.0670275
0.0323699
-0.0433202
0.0677519
-0.0039678
0.0205494
0.0474414
-0.021628
0.0450521
-0.0708827
0.0259768
-0.0847782
-0.014039
-0.0419235
-0.0174847
0.010659
-0.0141089
0.0291379
-0.0121024
0.019811
-0.0124002
0.00164656
-0.0145729
-0.012876
-0.0152618
-0.0248062
-0.0129218
-0.0331731
-0.000169633
-0.0293018
0.0338504
-0.0116517
0.0755778
0.00144578
0.083475
-0.00306167
0.0603816
-0.0428886
0.0504806
-0.0529276
0.0398644
-0.00567551
0.0209321
0.0430748
0.0177493
0.025253
-0.0110788
0.016243
-0.12433
-0.0268371
0.039255
-0.0684979
0.0425892
0.110631
-0.0410194
-0.0522847
-0.0648129
0.0281498
-0.009277
0.028214
-0.0275602
0.0632897
-0.0580913
-0.0277838
0.039335
-0.0290145
-0.0745085
0.0300008
-0.0023515
0.0809131
-0.0269052
0.00150415
-0.000141111
2.34534e-06
-3.63925e-07
-0.000599608
-0.00954531
-0.004037
0.0277007
-0.21208
0.0530671
0.759816
1.31481
-0.524925
-0.177318
-0.175163
0.54862
-0.391885
0.0943351
-0.0615034
0.0566658
-0.170676
0.168472
-0.100634
0.00734046
-0.0313875
0.00588413
-0.00523069
0.0996243
-0.0304138
0.0359859
-0.0383024
0.0847061
-0.0271311
-0.0174308
0.014381
-0.0638325
-0.00730553
-0.0924606
-0.0231421
-0.0631821
-0.0562727
0.00880093
-0.0685167
0.0553929
-0.0680534
0.0554779
-0.0483116
0.0335145
-0.0128973
0.0239746
0.0276686
0.028643
0.0570718
0.0284928
0.0581682
0.0152062
0.0377742
0.00158383
0.0254325
0.00360378
0.0401807
0.0229462
0.0657928
0.0492743
0.0527311
0.0669915
-0.00849005
0.0207619
-0.0393454
-0.0220862
-0.0253584
0.0440441
0.0250936
0.116479
0.0388777
-0.00381126
0.0477324
-0.0612429
-0.0997005
0.0499649
0.00343918
0.0275233
0.073949
-0.0466939
-0.0136887
0.0519724
-0.0481837
-0.0347129
0.00708136
-0.0265951
0.0495827
-0.0567834
-0.00371393
0.0139906
0.0037029
0.0138385
-0.00675868
0.106209
-0.0833738
0.0144952
-0.00304149
-8.06391e-05
6.9798e-06
4.27578e-06
-0.000184367
-0.0106474
-0.0224585
0.147304
-0.116775
-0.571624
-1.69027
-0.686126
0.0344658
0.55276
-0.171263
-0.135839
-0.0271716
0.287926
-0.235076
0.224923
0.0398662
0.0187355
-0.100667
-0.0205408
-0.0938622
0.0565955
-0.0296278
-0.0222328
-0.0418281
-0.0901874
0.0300471
-0.0682049
-0.0534384
0.0158736
-0.0158732
0.0115726
0.000104514
-0.0243826
0.0256072
-0.0741323
0.0510677
-0.0713866
0.0404086
-0.0225005
0.0137546
0.0439698
-0.000733604
0.0921332
0.0147937
0.108349
0.0427636
0.106152
0.0632627
0.102591
0.0641593
0.0980669
0.0418171
0.0823458
0.00678002
0.0609772
-0.0244281
0.0624366
-0.042066
0.100848
-0.0304451
0.122194
0.0259389
0.0521902
0.0256581
-0.0256092
-0.051677
-0.0499436
1.56948e-05
0.0272478
0.155154
-0.0175027
0.0675055
-0.0292421
-0.0684376
-0.021199
-0.0036148
0.0277881
0.0468664
-0.0440036
0.000600047
0.0296561
-0.0162701
-0.00101233
0.0148204
-0.054057
0.060285
-0.0503233
0.0284488
0.0106977
-0.0658849
0.0921949
-0.0372104
0.00793386
-0.050732
0.0121974
-0.00670611
0.000825502
-8.85969e-07
1.49099e-06
-0.000112335
-0.00890107
-0.0880526
0.00406358
0.196697
0.634542
0.958513
0.222022
-0.107115
-0.458938
0.200889
0.17516
-0.0907179
-0.139176
0.111416
0.0207596
-0.188381
0.054297
-0.135555
0.105654
0.0184532
0.0389381
-0.102829
0.0660051
-0.142046
0.124763
-0.0211195
0.0348928
0.0835606
0.0484963
0.0318746
0.00257044
-0.0788811
-0.00521639
-0.129279
0.0307437
-0.084356
0.0375776
0.00242409
0.018748
0.0811161
-0.00814451
0.123003
-0.0297618
0.12806
-0.048873
0.108878
-0.0590621
0.0779265
-0.0548819
0.0474117
-0.0413938
0.0280834
-0.0256135
0.0169569
-0.00684395
0.000173074
0.0111255
-0.0132063
0.00781809
0.0195787
-0.0116055
0.0890105
0.0303883
0.0744707
0.0870936
0.0136699
0.0142067
-0.0428044
0.00629327
0.0841543
0.131421
0.049838
0.0920309
-0.0746464
0.0646032
-0.00701949
0.0424617
0.0571144
-0.0815111
-0.0209818
0.0331711
-0.064497
0.0714929
0.0280471
-0.0661163
0.0297726
-0.064761
0.00190753
0.0633023
-0.0522789
0.0353875
-0.0165042
-0.0585987
0.00565809
-0.00612273
0.00990518
0.000434722
-1.48106e-05
8.69454e-06
3.62765e-05
0.000742167
-0.0307914
-0.140065
-0.0603428
-0.434257
0.345398
0.177296
0.972583
0.2367
-0.106576
-0.412504
0.226139
0.145604
-0.0708593
-0.0579899
0.15396
-0.123395
0.0584328
0.0311149
-0.13438
-0.0329182
0.000697685
-0.0378361
0.0542928
0.0712493
-0.0407589
0.0913533
-0.0476955
-0.024194
-0.0793778
-0.152297
-0.0236114
-0.147731
0.0772764
-0.0783279
0.095383
-0.0245662
0.0660087
0.00109955
0.0325524
0.0101128
0.00610434
0.0113589
-0.0164407
0.00437763
-0.0268133
-0.00944409
-0.0192014
-0.025431
-0.00414868
-0.0357513
-0.00251795
-0.0291773
-0.0243641
-0.00417515
-0.0492912
0.0151621
-0.045636
0.00567214
-0.0249011
0.00759625
-0.0305797
0.0707681
-0.0102623
0.0827563
0.0730982
0.0542566
0.0221143
-0.0437704
-0.000601923
0.0555299
0.0681883
0.0768343
0.00367826
-0.0125596
0.0755898
0.0212865
0.0386261
-0.0578717
0.0186444
0.0313631
-0.0675245
0.00877344
0.0227289
-0.0145468
0.0548764
-0.0426151
-0.0413121
0.00703642
0.0401643
-0.00200215
-0.0276211
0.0218911
0.0319413
0.0115235
0.0168281
-0.00178116
-5.78077e-06
7.13184e-06
-6.2922e-05
-0.00748874
-0.011367
-0.0228057
0.0636
-0.182618
0.006251
-0.934095
-1.07154
-1.01342
0.275473
0.385928
0.0664282
-0.380753
0.141311
0.0242178
-0.135771
-0.032514
0.145441
-0.154
0.102545
0.0731741
0.00969377
0.0888671
0.0842339
-0.0364395
0.0857678
-0.0844977
-0.00411133
-0.118692
-0.0924329
-0.0590984
-0.0488898
0.0305649
-0.00259503
0.0157727
-0.0109255
-0.0216438
-0.0334301
-0.0410274
-0.0427896
-0.0551489
-0.0435301
-0.0720124
-0.0447767
-0.0808752
-0.0479742
-0.0697594
-0.0572701
-0.0376297
-0.0787747
0.00539058
-0.108073
0.039083
-0.124208
0.0412225
-0.104679
0.0121331
-0.0589254
-0.0131234
-0.0361738
-0.0124062
-0.0397239
-0.0219528
0.00817199
-0.0263242
0.0268359
0.0682253
0.0460901
0.0319111
-0.0185332
0.00418008
0.0523341
0.0212112
0.00645965
-0.00318641
0.00989387
0.151195
0.0465949
-0.077139
0.00649522
0.0370353
-0.0503839
0.0419253
0.00470362
-0.031571
0.0605212
0.00189124
0.0224306
-0.0169829
0.0340968
0.0818671
-0.0344218
0.0232582
-0.0108536
-0.00339005
0.000351955
-0.00379156
4.67648e-05
1.00879e-05
0.000265745
-0.00333891
-0.0454434
-0.038933
0.0168974
-0.252004
0.0782271
0.622036
0.974996
1.12816
0.356832
-0.452042
-0.227666
0.220199
0.109916
-0.21854
0.142783
0.089927
-0.0448507
-0.0105417
0.133115
-0.0862025
0.0694251
0.0130636
-0.0749165
0.0167581
-0.117682
-0.0460978
-0.10881
-0.0988308
-0.0313868
-0.0488657
0.06089
-0.0128188
0.0414017
-0.0209962
0.01547
-0.0288893
0.00270901
-0.0298033
-0.020034
-0.0343545
-0.0483821
-0.0350066
-0.0670349
-0.0223385
-0.06843
-0.00182511
-0.0560684
0.0119161
-0.0368715
0.00711305
-0.0150808
-0.0178268
0.00650364
-0.0497257
0.0197364
-0.0620549
0.0150584
-0.0372685
0.000368579
-0.00909792
-0.00877338
-0.018257
-0.0289429
0.00494222
-0.0597894
-0.00249967
0.0341784
0.00809899
0.0286689
-0.0218308
0.0376225
0.131253
-0.0538859
0.0186433
-0.137679
0.103815
0.125531
-0.064532
0.0163786
0.0687415
-0.0534852
0.029584
0.0161729
-0.0340203
0.02203
-0.0523587
0.0218059
0.0321504
-0.0732275
0.0176544
-0.0915765
-0.0190026
-0.00270287
-0.0217258
-0.0195074
-0.00251837
0.000110615
1.86054e-05
0.000548175
-0.000437764
-0.00365765
-0.0142843
0.226968
0.103156
-0.2604
-0.303996
-0.873158
-0.637041
-0.612373
0.0309312
0.293732
-0.0322264
-0.132515
0.0225711
0.116954
-0.139044
0.076314
0.044792
0.0668379
-0.0380716
0.0732437
-0.0756682
0.0556321
-0.0614673
0.0137873
-0.0697151
-0.0209346
-0.0411606
-0.00591103
0.0165645
0.0458551
-0.0136212
0.0640689
-0.0304174
0.0495829
-0.0367563
0.0218992
-0.0507828
0.00377571
-0.0588453
0.0177371
-0.052909
0.0556733
-0.0343682
0.0907995
-0.0101245
0.102466
0.0120452
0.0859573
0.0260046
0.0485601
0.0291847
0.00197074
0.0250817
-0.0429666
0.0229133
-0.0741418
0.029232
-0.0737198
0.0390552
-0.0499209
0.0315132
-0.0534198
-0.00901449
-0.0307827
-0.0722538
-0.032133
-0.0212782
-0.036974
-0.0500189
-0.106074
0.0685938
0.113647
0.0682826
-0.0709389
-0.094555
0.157922
-0.0565095
-0.0483726
0.0908696
-0.0303336
0.00817438
-0.0139523
-0.0725688
0.0309575
-0.059194
7.16955e-05
0.0598797
0.0106698
-0.0797187
0.000355056
0.0658084