/*--------------------------------*- C++ -*----------------------------------*\
| =========                 |                                                 |
| \\      /  F ield         | OpenFOAM: The Open Source CFD Toolbox           |
|  \\    /   O peration     | Version:  v1912                                 |
|   \\  /    A nd           | Website:  www.openfoam.com                      |
|    \\/     M anipulation  |                                                 |
\*---------------------------------------------------------------------------*/
FoamFile
{
    version     2.0;
    format      ascii;
    class       volTensorField;
    location    "7.14";
    object      grad(U);
}
// * * * * * * * * * * * * * * * * * * * * * * * * * * * * * * * * * * * * * //

dimensions      [0 0 -1 0 0 0 0];


internalField   nonuniform List<tensor> 
1900
(
(-3.42267 -4.9695e-06 0 1.38204e-06 -2.41768e-06 0 0 0 0)
(3.84171 -5.70035e-06 0 6.6133e-06 -6.57823e-06 0 0 0 0)
(0.433684 -9.33609e-06 0 -3.83277e-06 -1.06678e-05 0 0 0 0)
(0.00758073 -1.9347e-05 0 -1.95351e-05 -2.6362e-05 0 0 0 0)
(0.0230254 -0.000214828 0 -8.97572e-05 -0.000103863 0 0 0 0)
(0.0274606 -0.000637249 0 -0.000324982 -0.000546867 0 0 0 0)
(0.0322912 0.00215624 0 -0.000771464 -0.0015468 0 0 0 0)
(0.0285181 0.0165738 0 -0.00247148 0.00352272 0 0 0 0)
(-0.0235935 0.0579187 0 0.0092463 0.0269625 0 0 0 0)
(-0.0221101 0.211432 0 0.0575452 0.116751 0 0 0 0)
(-3.42266 -4.02641e-06 0 1.75666e-06 2.29752e-06 0 0 0 0)
(3.8417 -2.54979e-06 0 1.0734e-05 2.67198e-06 0 0 0 0)
(0.433658 -1.04477e-05 0 -1.03603e-05 7.99787e-06 0 0 0 0)
(0.0074948 -7.38481e-05 0 -3.98844e-05 1.20081e-05 0 0 0 0)
(0.0227199 -0.000305677 0 -0.000187625 2.73449e-05 0 0 0 0)
(0.0267789 -0.000805691 0 -0.00059883 0.000226836 0 0 0 0)
(0.0301447 0.00191335 0 -0.00134077 0.000664594 0 0 0 0)
(0.0385359 0.0119356 0 -0.00163121 -0.00192941 0 0 0 0)
(0.0364232 0.0553099 0 0.0120368 -0.0159092 0 0 0 0)
(0.102438 0.149247 0 0.091547 -0.0598481 0 0 0 0)
(-3.42266 -2.12072e-13 0 -1.01915e-13 2.40331e-07 0 0 0 0)
(3.84169 3.2877e-14 0 3.08384e-14 7.81249e-06 0 0 0 0)
(0.433634 -2.68162e-14 0 7.10152e-14 5.33992e-06 0 0 0 0)
(0.00740346 -3.46669e-14 0 -2.9409e-14 2.87078e-05 0 0 0 0)
(0.0224664 1.79272e-13 0 -8.23994e-14 0.000153036 0 0 0 0)
(0.0263074 2.71595e-13 0 -1.01644e-14 0.000640062 0 0 0 0)
(0.0312589 -9.49943e-15 0 3.78116e-14 0.00176442 0 0 0 0)
(0.0418957 -1.0419e-13 0 -4.60786e-15 -0.00318663 0 0 0 0)
(0.0695847 -3.26533e-14 0 4.37747e-14 -0.0221067 0 0 0 0)
(0.16204 6.00729e-14 0 3.52366e-15 -0.113807 0 0 0 0)
(-3.42266 4.02641e-06 0 -1.75666e-06 2.29752e-06 0 0 0 0)
(3.8417 2.54979e-06 0 -1.0734e-05 2.67198e-06 0 0 0 0)
(0.433658 1.04477e-05 0 1.03603e-05 7.99787e-06 0 0 0 0)
(0.0074948 7.38481e-05 0 3.98844e-05 1.20081e-05 0 0 0 0)
(0.0227199 0.000305677 0 0.000187625 2.73449e-05 0 0 0 0)
(0.0267789 0.000805691 0 0.00059883 0.000226836 0 0 0 0)
(0.0301447 -0.00191335 0 0.00134077 0.000664594 0 0 0 0)
(0.0385359 -0.0119356 0 0.00163121 -0.00192941 0 0 0 0)
(0.0364232 -0.0553099 0 -0.0120368 -0.0159092 0 0 0 0)
(0.102438 -0.149247 0 -0.091547 -0.0598481 0 0 0 0)
(-3.42267 4.9695e-06 0 -1.38204e-06 -2.41768e-06 0 0 0 0)
(3.84171 5.70035e-06 0 -6.6133e-06 -6.57823e-06 0 0 0 0)
(0.433684 9.33609e-06 0 3.83277e-06 -1.06678e-05 0 0 0 0)
(0.00758073 1.9347e-05 0 1.95351e-05 -2.6362e-05 0 0 0 0)
(0.0230254 0.000214828 0 8.97572e-05 -0.000103863 0 0 0 0)
(0.0274606 0.000637249 0 0.000324982 -0.000546867 0 0 0 0)
(0.0322912 -0.00215624 0 0.000771464 -0.0015468 0 0 0 0)
(0.0285181 -0.0165738 0 0.00247148 0.00352272 0 0 0 0)
(-0.0235935 -0.0579187 0 -0.0092463 0.0269625 0 0 0 0)
(-0.0221101 -0.211432 0 -0.0575452 0.116751 0 0 0 0)
(0.170127 0.422283 -2.1547e-17 0.247374 -0.237193 3.23205e-17 5.85709e-17 7.53779e-17 -5.84032e-33)
(0.515032 0.577509 0 0.30366 -0.469637 0 -1.62637e-16 -4.77021e-17 0)
(0.80302 0.987599 0 0.300169 -0.802275 0 -2.64639e-16 -8.58598e-17 0)
(1.49333 1.60651 0 0.347847 -1.46461 0 0 0 0)
(2.78899 1.86879 2.72946e-16 1.14215 -3.54167 -4.0942e-16 -2.29788e-15 -1.53192e-15 -7.39823e-32)
(0.245486 0.159817 0 0.18951 -0.209115 0 1.03271e-16 3.2517e-17 0)
(0.430223 0.167868 0 0.152959 -0.339367 0 1.62637e-16 4.77021e-17 0)
(0.748764 0.420154 0 0.064399 -0.631677 0 2.64639e-16 8.58598e-17 0)
(1.68099 0.867594 0 -0.0657164 -1.33454 0 0 0 0)
(3.7039 0.581061 0 -0.184934 -3.10597 0 0 0 0)
(0.303695 -7.15029e-14 0 3.6582e-14 -0.301569 0 0 0 0)
(0.452738 -2.44683e-14 0 1.32553e-13 -0.377204 0 0 0 0)
(0.742475 -4.94691e-14 0 3.23378e-13 -0.637247 0 0 0 0)
(1.58308 -1.10756e-13 0 -5.13353e-15 -1.36419 0 0 0 0)
(3.45258 6.48574e-14 0 2.58143e-14 -3.66007 0 0 0 0)
(0.245486 -0.159817 0 -0.18951 -0.209115 0 1.03271e-16 -3.2517e-17 0)
(0.430223 -0.167868 0 -0.152959 -0.339367 0 1.62637e-16 -4.77021e-17 0)
(0.748764 -0.420154 0 -0.064399 -0.631677 0 2.64639e-16 -8.58598e-17 0)
(1.68099 -0.867594 0 0.0657164 -1.33454 0 0 0 0)
(3.7039 -0.581061 0 0.184934 -3.10597 0 0 0 0)
(0.170127 -0.422283 2.1547e-17 -0.247374 -0.237193 3.23205e-17 -2.65114e-16 1.40412e-16 -5.84032e-33)
(0.515032 -0.577509 0 -0.30366 -0.469637 0 -1.62637e-16 4.77021e-17 0)
(0.80302 -0.987599 0 -0.300169 -0.802275 0 -2.64639e-16 8.58598e-17 0)
(1.49333 -1.60651 9.78381e-17 -0.347847 -1.46461 1.46757e-16 -9.43594e-16 6.29063e-16 -2.65191e-32)
(2.78899 -1.86879 -2.72946e-16 -1.14215 -3.54167 -4.0942e-16 2.29788e-15 -1.53192e-15 -7.39823e-32)
(4.22436 -0.783479 -1.87055e-17 0.00402728 4.50557 -1.6835e-16 2.28466e-15 -1.18144e-16 5.07015e-33)
(2.31493 -0.314834 9.09187e-18 0.542109 2.78468 8.18268e-17 -2.56769e-15 1.99619e-16 2.46436e-33)
(1.3624 0.00590499 0 0.734555 2.25422 0 0 0 0)
(0.995366 0.075746 -5.45947e-18 0.672178 2.13754 -4.91352e-17 2.39543e-15 -1.99534e-16 1.47979e-33)
(0.754081 0.422842 4.3571e-18 0.477561 1.69999 3.92139e-17 -1.12985e-15 1.25539e-16 1.18099e-33)
(4.34835 -0.953635 0 -0.70512 -0.687845 0 -1.14239e-15 -8.77458e-18 0)
(2.60465 -0.203595 0 0.317341 0.994722 0 1.29201e-15 -5.78768e-17 0)
(1.44962 -0.00823925 0 0.452841 1.40147 0 0 0 0)
(0.934358 -0.0573127 0 0.363443 1.37498 0 -1.51253e-15 7.41212e-17 0)
(0.576408 0.171545 0 0.178937 1.43317 0 2.87405e-16 -7.79455e-18 0)
(4.35035 -1.11989e-14 0 0 0.792985 0 0 0 0)
(2.58166 4.40892e-14 0 -6.48668e-14 1.85406 0 0 0 0)
(1.34331 -3.10885e-13 0 -8.03113e-15 1.98669 0 0 0 0)
(0.859554 8.36013e-13 0 2.12589e-13 1.73785 0 6.09391e-16 -1.73451e-29 0)
(0.547966 -4.605e-13 0 -2.49176e-12 2.07049 0 -5.74809e-16 -5.5031e-29 0)
(4.34835 0.953635 0 0.70512 -0.687845 0 -1.14239e-15 8.77458e-18 0)
(2.60465 0.203595 0 -0.317341 0.994722 0 1.29201e-15 5.78768e-17 0)
(1.44962 0.00823925 0 -0.452841 1.40147 0 0 0 0)
(0.934358 0.0573127 0 -0.363443 1.37498 0 -1.51253e-15 -7.41212e-17 0)
(0.576408 -0.171545 0 -0.178937 1.43317 0 2.87405e-16 7.79455e-18 0)
(4.22436 0.783479 0 -0.00402728 4.50557 0 1.14239e-15 -8.77458e-18 0)
(2.31493 0.314834 -9.09187e-18 -0.542109 2.78468 8.18268e-17 -1.63265e-17 8.38656e-17 2.46436e-33)
(1.3624 -0.00590499 0 -0.734555 2.25422 0 0 0 0)
(0.995366 -0.075746 5.45947e-18 -0.672178 2.13754 -4.91352e-17 2.02438e-17 -6.43758e-17 1.47979e-33)
(0.754081 -0.422842 -4.3571e-18 -0.477561 1.69999 3.92139e-17 1.12985e-15 1.25539e-16 1.18099e-33)
(0.312399 0.471339 0 -0.114774 0.0326609 0 0 0 0)
(0.122479 0.162435 0 -0.104141 0.104814 0 0 0 0)
(0.240772 -0.102896 0 -0.113856 0.21531 0 0 0 0)
(0.298511 -0.132204 0 0.0501085 0.392168 0 0 0 0)
(0.0898835 0.0477738 0 0.300826 0.296095 0 0 0 0)
(-0.633848 0.130676 0 0.414944 -0.0310383 0 0 0 0)
(-1.78532 -0.0494619 0 0.710309 -0.0521077 0 0 0 0)
(-1.39338 -0.161963 0 0.230934 0.17813 0 0 0 0)
(-0.4485 -0.134836 0 0.179409 0.482235 0 0 0 0)
(-0.665078 -0.157367 0 0.208767 0.822233 0 0 0 0)
(-0.934142 -0.0664967 0 0.234007 1.07058 0 0 0 0)
(-0.969155 0.054652 0 0.2246 1.043 0 0 0 0)
(-0.814053 0.117269 0 0.199622 0.790045 0 0 0 0)
(-0.638385 0.107247 0 0.165743 0.577763 0 0 0 0)
(-0.58445 0.0727792 0 0.119809 0.435994 0 0 0 0)
(-0.686233 0.0533492 0 0.0797777 0.340707 0 0 0 0)
(-0.739401 0.0415396 0 0.0481845 0.254979 0 0 0 0)
(-0.495595 0.0231624 0 0.0224533 0.195303 0 0 0 0)
(-0.163622 0.00786736 0 0.00566036 0.173514 0 0 0 0)
(-0.0154874 0.00282993 0 0.0027495 0.167466 0 0 0 0)
(0.0168169 0.00280693 0 0.00350886 0.163153 0 0 0 0)
(0.028775 0.00278123 0 0.0026688 0.158198 0 0 0 0)
(0.0498332 0.00158729 0 0.00129321 0.154612 0 0 0 0)
(0.0792101 0.000417494 0 0.000919809 0.153019 0 0 0 0)
(0.104282 6.33936e-05 0 0.00108202 0.152722 0 0 0 0)
(0.117627 -0.00021288 0 0.00148867 0.152518 0 0 0 0)
(0.119937 0.000254128 0 0.00201982 0.153409 0 0 0 0)
(0.11778 7.99741e-06 0 0.00232102 0.151699 0 0 0 0)
(0.114504 3.58863e-05 0 0.00263123 0.153417 0 0 0 0)
(0.109037 -0.00043616 0 0.0028139 0.151634 0 0 0 0)
(0.1028 0.000235438 0 0.00289553 0.154891 0 0 0 0)
(0.0998697 -0.000716711 0 0.00277996 0.150961 0 0 0 0)
(0.0731502 -0.000888924 0 0.00311381 0.157278 0 0 0 0)
(-0.094825 5.06627e-05 0 0.003073 0.154439 0 0 0 0)
(-0.614301 0.000515982 0 0.00630216 0.158058 0 0 0 0)
(-0.911961 0.00223049 0 0.00983382 0.15504 0 0 0 0)
(-0.598168 0.00565217 0 0.00317185 0.153979 0 0 0 0)
(-0.198245 -0.0202383 0 0.0178648 0.137825 0 0 0 0)
(-0.155574 -0.0122471 0 -0.0128808 0.198026 0 0 0 0)
(-0.139902 0.0129151 0 -0.0333327 0.173096 0 0 0 0)
(0.188411 0.329122 0 -0.106955 0.448574 0 0 0 0)
(0.0877425 0.152492 0 -0.0645299 -0.0603924 0 0 0 0)
(0.236433 -0.0336081 0 -0.0895017 -0.109797 0 0 0 0)
(0.357992 -0.100994 0 -0.0859524 0.293313 0 0 0 0)
(0.123425 -0.00609734 0 0.121352 0.344656 0 0 0 0)
(-0.604909 0.0628107 0 0.0872088 0.129091 0 0 0 0)
(-1.79416 -0.0151156 0 0.214595 -0.104542 0 0 0 0)
(-1.45701 -0.0777161 0 0.052197 0.299116 0 0 0 0)
(-0.490529 -0.0576222 0 -0.0130357 0.452205 0 0 0 0)
(-0.694003 -0.0668444 0 -0.0722698 0.762614 0 0 0 0)
(-0.912445 -0.0235568 0 -0.00386907 0.993154 0 0 0 0)
(-0.906227 0.0169768 0 0.151758 0.991197 0 0 0 0)
(-0.761196 0.0435618 0 0.17884 0.805288 0 0 0 0)
(-0.629522 0.0538556 0 0.100834 0.588084 0 0 0 0)
(-0.606023 0.0396309 0 0.061634 0.436625 0 0 0 0)
(-0.714242 0.0283199 0 0.0502654 0.337906 0 0 0 0)
(-0.757606 0.0205334 0 0.0326014 0.253237 0 0 0 0)
(-0.501201 0.0115913 0 0.0113654 0.195113 0 0 0 0)
(-0.164442 0.00398853 0 0.0017715 0.173616 0 0 0 0)
(-0.015215 0.00141323 0 0.00109306 0.168069 0 0 0 0)
(0.016947 0.00140506 0 0.00183549 0.163889 0 0 0 0)
(0.028632 0.00139764 0 0.00154247 0.15842 0 0 0 0)
(0.0498679 0.0007924 0 0.000871467 0.154328 0 0 0 0)
(0.0794054 0.000190274 0 0.0010311 0.152964 0 0 0 0)
(0.104506 2.03353e-05 0 0.00144214 0.152893 0 0 0 0)
(0.117875 -0.000107918 0 0.00192172 0.152746 0 0 0 0)
(0.120175 0.000130112 0 0.00242194 0.153625 0 0 0 0)
(0.117993 6.42157e-06 0 0.00282932 0.151873 0 0 0 0)
(0.114697 2.10356e-05 0 0.0032463 0.153597 0 0 0 0)
(0.109206 -0.000216141 0 0.0036198 0.151749 0 0 0 0)
(0.102946 0.000125862 0 0.00398999 0.155097 0 0 0 0)
(0.10005 -0.000352773 0 0.00433828 0.15094 0 0 0 0)
(0.0733558 -0.000422729 0 0.00500775 0.15756 0 0 0 0)
(-0.0941844 7.81813e-05 0 0.00574464 0.153996 0 0 0 0)
(-0.612849 0.000383646 0 0.00878779 0.157386 0 0 0 0)
(-0.911512 0.00131257 0 0.0138615 0.152222 0 0 0 0)
(-0.596324 0.00312341 0 0.0131815 0.149719 0 0 0 0)
(-0.200871 -0.0108824 0 0.0286858 0.132793 0 0 0 0)
(-0.16302 -0.00647308 0 0.0108297 0.219288 0 0 0 0)
(-0.142425 0.00706933 0 0.00396845 0.174892 0 0 0 0)
(0.226673 -9.81457e-13 0 5.12532e-12 0.726984 0 0 0 0)
(0.127557 9.63257e-13 0 -5.12532e-13 -0.0263752 0 0 0 0)
(0.23454 2.57276e-12 0 -3.13827e-12 -0.3214 0 0 0 0)
(0.35985 6.44477e-13 0 8.60265e-12 0.20468 0 0 0 0)
(0.140258 -2.38663e-12 0 4.95106e-11 0.372935 0 0 0 0)
(-0.606722 -5.24862e-13 0 2.83154e-11 0.2466 0 0 0 0)
(-1.79551 -3.74418e-12 0 9.71445e-12 -0.0588885 0 0 0 0)
(-1.4596 2.85828e-12 0 -2.21729e-11 0.350519 0 0 0 0)
(-0.484708 1.08996e-11 0 -6.07745e-11 0.47541 0 0 0 0)
(-0.662411 2.72425e-12 0 -8.01482e-11 0.746672 0 0 0 0)
(-0.868971 -5.43661e-12 0 -5.41707e-11 0.934965 0 0 0 0)
(-0.916003 -7.45709e-12 0 1.3523e-12 0.908625 0 0 0 0)
(-0.828867 -1.35737e-12 0 2.65965e-11 0.818249 0 0 0 0)
(-0.672482 4.11435e-12 0 1.25176e-11 0.609138 0 0 0 0)
(-0.599161 1.08783e-12 0 8.32273e-12 0.447992 0 0 0 0)
(-0.694679 -1.46525e-12 0 3.00787e-11 0.336676 0 0 0 0)
(-0.750717 -2.46748e-12 0 4.61397e-11 0.253293 0 0 0 0)
(-0.504563 -3.45852e-12 0 3.19899e-11 0.195508 0 0 0 0)
(-0.16661 -1.12394e-12 0 6.50521e-12 0.173603 0 0 0 0)
(-0.0154688 -2.14197e-13 0 -8.9082e-12 0.168087 0 0 0 0)
(0.0169476 1.7782e-12 0 -2.56912e-11 0.163887 0 0 0 0)
(0.0284946 5.03198e-12 0 -2.98446e-11 0.158428 0 0 0 0)
(0.0496844 3.01677e-12 0 -9.40102e-12 0.154279 0 0 0 0)
(0.0793761 -4.3423e-12 0 2.7553e-11 0.15298 0 0 0 0)
(0.104541 -5.84882e-12 0 2.50584e-11 0.152971 0 0 0 0)
(0.117912 -3.68396e-12 0 1.29301e-11 0.15284 0 0 0 0)
(0.120201 -6.68865e-12 0 -1.65503e-11 0.153712 0 0 0 0)
(0.11802 2.04913e-12 0 -3.9361e-11 0.151945 0 0 0 0)
(0.114734 6.44783e-12 0 -6.4926e-11 0.153668 0 0 0 0)
(0.109254 -2.26182e-12 0 -3.21298e-11 0.151801 0 0 0 0)
(0.103009 4.57041e-12 0 -3.90549e-11 0.155154 0 0 0 0)
(0.100166 9.82101e-12 0 -4.21272e-11 0.150935 0 0 0 0)
(0.0735593 2.30402e-13 0 2.81893e-12 0.15758 0 0 0 0)
(-0.0937254 -4.01137e-12 0 3.67416e-11 0.153842 0 0 0 0)
(-0.61194 -2.25644e-13 0 1.61379e-11 0.157042 0 0 0 0)
(-0.910683 1.60114e-12 0 -1.55258e-11 0.151204 0 0 0 0)
(-0.593856 2.82035e-12 0 -1.8905e-11 0.148018 0 0 0 0)
(-0.198929 -3.8897e-12 0 3.29548e-12 0.129731 0 0 0 0)
(-0.162764 -4.63301e-12 0 1.35382e-11 0.222835 0 0 0 0)
(-0.141898 1.53081e-12 0 1.69283e-12 0.174233 0 0 0 0)
(0.188411 -0.329122 0 0.106955 0.448574 0 0 0 0)
(0.0877425 -0.152492 0 0.0645299 -0.0603924 0 0 0 0)
(0.236433 0.0336081 0 0.0895017 -0.109797 0 0 0 0)
(0.357992 0.100994 0 0.0859524 0.293313 0 0 0 0)
(0.123425 0.00609734 0 -0.121352 0.344656 0 0 0 0)
(-0.604909 -0.0628107 0 -0.0872088 0.129091 0 0 0 0)
(-1.79416 0.0151156 0 -0.214595 -0.104542 0 0 0 0)
(-1.45701 0.0777161 0 -0.052197 0.299116 0 0 0 0)
(-0.490529 0.0576222 0 0.0130357 0.452205 0 0 0 0)
(-0.694003 0.0668444 0 0.0722698 0.762614 0 0 0 0)
(-0.912445 0.0235568 0 0.00386907 0.993154 0 0 0 0)
(-0.906227 -0.0169768 0 -0.151758 0.991197 0 0 0 0)
(-0.761196 -0.0435618 0 -0.17884 0.805288 0 0 0 0)
(-0.629522 -0.0538556 0 -0.100834 0.588084 0 0 0 0)
(-0.606023 -0.0396309 0 -0.061634 0.436625 0 0 0 0)
(-0.714242 -0.0283199 0 -0.0502654 0.337906 0 0 0 0)
(-0.757606 -0.0205334 0 -0.0326014 0.253237 0 0 0 0)
(-0.501201 -0.0115913 0 -0.0113654 0.195113 0 0 0 0)
(-0.164442 -0.00398853 0 -0.0017715 0.173616 0 0 0 0)
(-0.015215 -0.00141323 0 -0.00109306 0.168069 0 0 0 0)
(0.016947 -0.00140506 0 -0.00183549 0.163889 0 0 0 0)
(0.028632 -0.00139764 0 -0.00154247 0.15842 0 0 0 0)
(0.0498679 -0.0007924 0 -0.000871467 0.154328 0 0 0 0)
(0.0794054 -0.000190274 0 -0.0010311 0.152964 0 0 0 0)
(0.104506 -2.03353e-05 0 -0.00144214 0.152893 0 0 0 0)
(0.117875 0.000107918 0 -0.00192172 0.152746 0 0 0 0)
(0.120175 -0.000130112 0 -0.00242194 0.153625 0 0 0 0)
(0.117993 -6.42157e-06 0 -0.00282932 0.151873 0 0 0 0)
(0.114697 -2.10356e-05 0 -0.0032463 0.153597 0 0 0 0)
(0.109206 0.000216141 0 -0.0036198 0.151749 0 0 0 0)
(0.102946 -0.000125862 0 -0.00398999 0.155097 0 0 0 0)
(0.10005 0.000352773 0 -0.00433828 0.15094 0 0 0 0)
(0.0733558 0.000422729 0 -0.00500775 0.15756 0 0 0 0)
(-0.0941844 -7.81813e-05 0 -0.00574464 0.153996 0 0 0 0)
(-0.612849 -0.000383646 0 -0.00878779 0.157386 0 0 0 0)
(-0.911512 -0.00131257 0 -0.0138615 0.152222 0 0 0 0)
(-0.596324 -0.00312341 0 -0.0131815 0.149719 0 0 0 0)
(-0.200871 0.0108824 0 -0.0286858 0.132793 0 0 0 0)
(-0.16302 0.00647308 0 -0.0108297 0.219288 0 0 0 0)
(-0.142425 -0.00706933 0 -0.00396845 0.174892 0 0 0 0)
(0.312399 -0.471339 0 0.114774 0.0326609 0 0 0 0)
(0.122479 -0.162435 0 0.104141 0.104814 0 0 0 0)
(0.240772 0.102896 0 0.113856 0.21531 0 0 0 0)
(0.298511 0.132204 0 -0.0501085 0.392168 0 0 0 0)
(0.0898835 -0.0477738 0 -0.300826 0.296095 0 0 0 0)
(-0.633848 -0.130676 0 -0.414944 -0.0310383 0 0 0 0)
(-1.78532 0.0494619 0 -0.710309 -0.0521077 0 0 0 0)
(-1.39338 0.161963 0 -0.230934 0.17813 0 0 0 0)
(-0.4485 0.134836 0 -0.179409 0.482235 0 0 0 0)
(-0.665078 0.157367 0 -0.208767 0.822233 0 0 0 0)
(-0.934142 0.0664967 0 -0.234007 1.07058 0 0 0 0)
(-0.969155 -0.054652 0 -0.2246 1.043 0 0 0 0)
(-0.814053 -0.117269 0 -0.199622 0.790045 0 0 0 0)
(-0.638385 -0.107247 0 -0.165743 0.577763 0 0 0 0)
(-0.58445 -0.0727792 0 -0.119809 0.435994 0 0 0 0)
(-0.686233 -0.0533492 0 -0.0797777 0.340707 0 0 0 0)
(-0.739401 -0.0415396 0 -0.0481845 0.254979 0 0 0 0)
(-0.495595 -0.0231624 0 -0.0224533 0.195303 0 0 0 0)
(-0.163622 -0.00786736 0 -0.00566036 0.173514 0 0 0 0)
(-0.0154874 -0.00282993 0 -0.0027495 0.167466 0 0 0 0)
(0.0168169 -0.00280693 0 -0.00350886 0.163153 0 0 0 0)
(0.028775 -0.00278123 0 -0.0026688 0.158198 0 0 0 0)
(0.0498332 -0.00158729 0 -0.00129321 0.154612 0 0 0 0)
(0.0792101 -0.000417494 0 -0.000919809 0.153019 0 0 0 0)
(0.104282 -6.33936e-05 0 -0.00108202 0.152722 0 0 0 0)
(0.117627 0.00021288 0 -0.00148867 0.152518 0 0 0 0)
(0.119937 -0.000254128 0 -0.00201982 0.153409 0 0 0 0)
(0.11778 -7.9974e-06 0 -0.00232102 0.151699 0 0 0 0)
(0.114504 -3.58863e-05 0 -0.00263123 0.153417 0 0 0 0)
(0.109037 0.00043616 0 -0.0028139 0.151634 0 0 0 0)
(0.1028 -0.000235438 0 -0.00289553 0.154891 0 0 0 0)
(0.0998697 0.000716711 0 -0.00277996 0.150961 0 0 0 0)
(0.0731502 0.000888924 0 -0.00311381 0.157278 0 0 0 0)
(-0.094825 -5.06627e-05 0 -0.003073 0.154439 0 0 0 0)
(-0.614301 -0.000515982 0 -0.00630216 0.158058 0 0 0 0)
(-0.911961 -0.00223049 0 -0.00983382 0.15504 0 0 0 0)
(-0.598168 -0.00565217 0 -0.00317185 0.153979 0 0 0 0)
(-0.198245 0.0202383 0 -0.0178648 0.137825 0 0 0 0)
(-0.155574 0.0122471 0 0.0128808 0.198026 0 0 0 0)
(-0.139902 -0.0129151 0 0.0333327 0.173096 0 0 0 0)
(0.022194 -0.0198234 0 -0.0295375 0.512052 0 0 0 0)
(0.0470023 -0.0264254 0 -0.0872064 0.682618 0 0 0 0)
(0.13466 0.133743 0 -0.174273 0.583926 0 0 0 0)
(0.166647 0.115582 0 -0.403143 0.579241 0 0 0 0)
(-0.066643 -0.19708 0 -0.732557 0.49709 0 0 0 0)
(-0.828306 -0.20276 0 -1.03231 0.141483 0 0 0 0)
(-1.68896 0.106608 0 -1.1834 0.131234 0 0 0 0)
(-1.19756 0.315485 0 -0.484871 0.169761 0 0 0 0)
(-0.52522 0.372372 0 -0.631237 0.491341 0 0 0 0)
(-0.761694 0.33123 0 -0.834652 0.840544 0 0 0 0)
(-0.897289 0.112386 0 -0.839637 0.986965 0 0 0 0)
(-0.811899 -0.149387 0 -0.595194 0.881151 0 0 0 0)
(-0.663161 -0.250166 0 -0.318163 0.701483 0 0 0 0)
(-0.56921 -0.214208 0 -0.161082 0.545169 0 0 0 0)
(-0.577043 -0.150002 0 -0.103884 0.426433 0 0 0 0)
(-0.701699 -0.112925 0 -0.0960336 0.329845 0 0 0 0)
(-0.742698 -0.0874528 0 -0.0935699 0.24681 0 0 0 0)
(-0.48101 -0.0493126 0 -0.0501213 0.191426 0 0 0 0)
(-0.15303 -0.0169655 0 -0.0138941 0.172197 0 0 0 0)
(-0.0135504 -0.0062744 0 -0.00626064 0.1659 0 0 0 0)
(0.0171481 -0.0055976 0 -0.00633379 0.161635 0 0 0 0)
(0.0298565 -0.00515533 0 -0.00529207 0.157545 0 0 0 0)
(0.0510051 -0.00312161 0 -0.00227623 0.154625 0 0 0 0)
(0.0797638 -0.00111296 0 -0.000117867 0.152962 0 0 0 0)
(0.104409 -0.00028529 0 0.000618488 0.152456 0 0 0 0)
(0.117573 0.000417346 0 0.000638415 0.152155 0 0 0 0)
(0.119927 -0.000500198 0 0.000387532 0.15303 0 0 0 0)
(0.117855 4.24348e-07 0 0.000564611 0.151357 0 0 0 0)
(0.11461 -4.49519e-05 0 0.000705276 0.153047 0 0 0 0)
(0.109235 0.000886491 0 0.00103499 0.151346 0 0 0 0)
(0.103136 -0.000421128 0 0.00154803 0.154399 0 0 0 0)
(0.100121 0.00142918 0 0.00246841 0.150789 0 0 0 0)
(0.0734098 0.00206543 0 0.00270052 0.156489 0 0 0 0)
(-0.0954436 0.000379175 0 0.00352373 0.154588 0 0 0 0)
(-0.615411 0.000146312 0 0.000818159 0.157875 0 0 0 0)
(-0.909029 -0.00281009 0 0.000787017 0.156345 0 0 0 0)
(-0.59923 -0.010998 0 0.0111002 0.157306 0 0 0 0)
(-0.193837 0.0276947 0 -0.00152439 0.143922 0 0 0 0)
(-0.139515 0.0219213 0 0.014881 0.173968 0 0 0 0)
(-0.132513 -0.0159485 0 0.0312243 0.170127 0 0 0 0)
(0.0197066 -0.0524656 0 -0.377177 0.953488 0 0 0 0)
(0.0234804 -0.166107 0 -0.412905 0.952237 0 0 0 0)
(-0.00677534 -0.0132623 0 -0.379603 0.862995 0 0 0 0)
(-0.168763 0.0574389 0 -0.583901 0.693838 0 0 0 0)
(-0.432466 -0.389551 0 -0.916401 0.53202 0 0 0 0)
(-0.964022 -0.444573 0 -1.16015 0.401649 0 0 0 0)
(-1.30947 0.0460683 0 -1.058 0.417868 0 0 0 0)
(-0.966299 0.426651 0 -0.661713 0.471893 0 0 0 0)
(-0.744421 0.653852 0 -0.949605 0.735716 0 0 0 0)
(-0.814091 0.541737 0 -1.08355 0.909824 0 0 0 0)
(-0.723155 0.0810196 0 -0.947897 0.791021 0 0 0 0)
(-0.550969 -0.278953 0 -0.666859 0.634872 0 0 0 0)
(-0.476639 -0.36977 0 -0.449071 0.519992 0 0 0 0)
(-0.468992 -0.314939 0 -0.312774 0.435516 0 0 0 0)
(-0.525739 -0.238864 0 -0.233453 0.365525 0 0 0 0)
(-0.668 -0.194494 0 -0.19581 0.292835 0 0 0 0)
(-0.69339 -0.150305 0 -0.156581 0.222114 0 0 0 0)
(-0.426637 -0.0810392 0 -0.0727198 0.181481 0 0 0 0)
(-0.127036 -0.0275866 0 -0.0202493 0.16915 0 0 0 0)
(-0.00924063 -0.0111613 0 -0.00985981 0.163621 0 0 0 0)
(0.0175726 -0.00936142 0 -0.00999855 0.159601 0 0 0 0)
(0.0321051 -0.00826276 0 -0.0085239 0.155963 0 0 0 0)
(0.0541908 -0.00518097 0 -0.00442573 0.153477 0 0 0 0)
(0.0817026 -0.00213531 0 -0.000936733 0.152006 0 0 0 0)
(0.104943 -0.000722322 0 0.000526257 0.151421 0 0 0 0)
(0.117433 0.000656463 0 0.000686586 0.151009 0 0 0 0)
(0.119872 -0.00089096 0 0.000297138 0.151849 0 0 0 0)
(0.118046 4.15319e-06 0 0.000525745 0.150262 0 0 0 0)
(0.114901 -4.15501e-05 0 0.000671561 0.151912 0 0 0 0)
(0.109744 0.00149772 0 0.00109768 0.150384 0 0 0 0)
(0.104001 -0.000672394 0 0.00176482 0.153124 0 0 0 0)
(0.100846 0.00234802 0 0.00304466 0.150101 0 0 0 0)
(0.0740279 0.00391885 0 0.00345337 0.154838 0 0 0 0)
(-0.0963072 0.0010544 0 0.00431529 0.15395 0 0 0 0)
(-0.616344 0.000821786 0 0.00112569 0.156308 0 0 0 0)
(-0.903625 -0.00246814 0 0.002637 0.154853 0 0 0 0)
(-0.599826 -0.0147572 0 0.0134374 0.158864 0 0 0 0)
(-0.196966 0.0322968 0 0.00375038 0.149773 0 0 0 0)
(-0.132627 0.0323123 0 0.00491675 0.164306 0 0 0 0)
(-0.128114 -0.0149899 0 0.0107708 0.166835 0 0 0 0)
(-0.0122351 -0.0210292 0 -0.695255 0.583769 0 0 0 0)
(0.044664 -0.113628 0 -0.694749 0.602257 0 0 0 0)
(-0.0301175 -0.11526 0 -0.701661 0.64035 0 0 0 0)
(-0.35063 -0.203358 0 -0.818773 0.487198 0 0 0 0)
(-0.621933 -0.478644 0 -0.929193 0.38467 0 0 0 0)
(-0.964759 -0.312761 0 -1.07454 0.577104 0 0 0 0)
(-1.20865 0.174299 0 -1.00828 0.763157 0 0 0 0)
(-1.09311 0.621775 0 -1.02817 0.952567 0 0 0 0)
(-0.931717 0.794378 0 -1.20032 1.10337 0 0 0 0)
(-0.760048 0.384524 0 -1.17021 0.861707 0 0 0 0)
(-0.49575 -0.152568 0 -0.904535 0.578778 0 0 0 0)
(-0.331212 -0.410561 0 -0.653778 0.428924 0 0 0 0)
(-0.321953 -0.442272 0 -0.484592 0.353053 0 0 0 0)
(-0.361432 -0.363058 0 -0.361426 0.323544 0 0 0 0)
(-0.464331 -0.287494 0 -0.28475 0.293334 0 0 0 0)
(-0.627622 -0.251122 0 -0.253739 0.241808 0 0 0 0)
(-0.624084 -0.194757 0 -0.20049 0.189862 0 0 0 0)
(-0.349636 -0.10035 0 -0.0855528 0.170496 0 0 0 0)
(-0.092456 -0.0341767 0 -0.0245112 0.165413 0 0 0 0)
(-0.00367246 -0.0154758 0 -0.0134881 0.161008 0 0 0 0)
(0.0184354 -0.0129769 0 -0.0135548 0.156874 0 0 0 0)
(0.0352267 -0.0110571 0 -0.0111364 0.153477 0 0 0 0)
(0.0583163 -0.00693493 0 -0.00631885 0.151348 0 0 0 0)
(0.0845357 -0.00309406 0 -0.00203534 0.150132 0 0 0 0)
(0.105973 -0.00124602 0 1.73535e-05 0.149576 0 0 0 0)
(0.117353 0.000829708 0 0.000387557 0.14911 0 0 0 0)
(0.119772 -0.00121989 0 -0.000109825 0.149943 0 0 0 0)
(0.118216 6.16408e-05 0 0.000151442 0.148509 0 0 0 0)
(0.115161 7.32552e-05 0 0.000189573 0.150113 0 0 0 0)
(0.110288 0.00205353 0 0.000584779 0.148876 0 0 0 0)
(0.105012 -0.000693908 0 0.00124624 0.151244 0 0 0 0)
(0.101748 0.00308129 0 0.00270632 0.149063 0 0 0 0)
(0.0746342 0.00577408 0 0.00322056 0.152579 0 0 0 0)
(-0.0976866 0.00179594 0 0.0037677 0.152789 0 0 0 0)
(-0.617028 0.00101641 0 -0.000171641 0.154337 0 0 0 0)
(-0.897165 -0.000346855 0 0.00204245 0.153284 0 0 0 0)
(-0.598158 -0.0158935 0 0.0131733 0.160048 0 0 0 0)
(-0.202048 0.0329381 0 0.00645497 0.152486 0 0 0 0)
(-0.132749 0.0383632 0 0.00291742 0.160313 0 0 0 0)
(-0.126872 -0.0135111 0 0.00374306 0.162952 0 0 0 0)
(0.0201942 -0.0346497 0 -1.07789 0.456477 0 0 0 0)
(0.0173079 -0.111584 0 -1.08044 0.418799 0 0 0 0)
(-0.126289 -0.124138 0 -1.27582 0.429482 0 0 0 0)
(-0.388022 -0.188943 0 -1.37669 0.368543 0 0 0 0)
(-0.678934 -0.302915 0 -1.39432 0.492096 0 0 0 0)
(-1.04023 -0.0798496 0 -1.53397 0.815043 0 0 0 0)
(-1.26478 0.407878 0 -1.58062 1.04871 0 0 0 0)
(-1.15136 0.754495 0 -1.54613 1.25581 0 0 0 0)
(-0.881302 0.566296 0 -1.4063 0.991587 0 0 0 0)
(-0.529064 0.036219 0 -1.10908 0.56792 0 0 0 0)
(-0.225499 -0.336026 0 -0.778592 0.342191 0 0 0 0)
(-0.146297 -0.496471 0 -0.588219 0.232147 0 0 0 0)
(-0.194918 -0.471318 0 -0.461093 0.222448 0 0 0 0)
(-0.276417 -0.372485 0 -0.366715 0.240134 0 0 0 0)
(-0.421967 -0.317628 0 -0.317873 0.226161 0 0 0 0)
(-0.586804 -0.294204 0 -0.303287 0.182162 0 0 0 0)
(-0.53132 -0.219024 0 -0.222816 0.153916 0 0 0 0)
(-0.257057 -0.104599 0 -0.0860238 0.15978 0 0 0 0)
(-0.0575921 -0.0367295 0 -0.0281982 0.16116 0 0 0 0)
(0.00131735 -0.0193902 0 -0.0188255 0.157672 0 0 0 0)
(0.0198388 -0.0166193 0 -0.0175449 0.153318 0 0 0 0)
(0.0390779 -0.0135881 0 -0.0134994 0.150538 0 0 0 0)
(0.0629609 -0.00840426 0 -0.00780266 0.148671 0 0 0 0)
(0.0878084 -0.00384293 0 -0.00280444 0.147739 0 0 0 0)
(0.107277 -0.00170647 0 -0.00019663 0.147316 0 0 0 0)
(0.11731 0.00101013 0 0.000542925 0.146883 0 0 0 0)
(0.119644 -0.00147024 0 0.00019337 0.147729 0 0 0 0)
(0.118335 0.00016841 0 0.000720349 0.146441 0 0 0 0)
(0.115318 0.000311544 0 0.000826486 0.147988 0 0 0 0)
(0.110762 0.00258775 0 0.00136008 0.147056 0 0 0 0)
(0.106045 -0.000491547 0 0.00215885 0.149075 0 0 0 0)
(0.102748 0.00363449 0 0.00388708 0.147651 0 0 0 0)
(0.0750507 0.00750914 0 0.00477501 0.150029 0 0 0 0)
(-0.0995761 0.00274783 0 0.00521395 0.150905 0 0 0 0)
(-0.618006 0.00129886 0 0.00174846 0.151961 0 0 0 0)
(-0.890765 0.00303578 0 0.00568112 0.151341 0 0 0 0)
(-0.595574 -0.0155269 0 0.018322 0.158693 0 0 0 0)
(-0.206849 0.0325521 0 0.0151455 0.151764 0 0 0 0)
(-0.13524 0.0423986 0 0.011528 0.156857 0 0 0 0)
(-0.127319 -0.0124465 0 0.0104299 0.159265 0 0 0 0)
(-0.0146892 -0.0573365 0 -1.48382 0.459411 0 0 0 0)
(-0.146065 -0.139641 0 -1.63096 0.423489 0 0 0 0)
(-0.3156 -0.163688 0 -1.81414 0.418715 0 0 0 0)
(-0.464825 -0.143021 0 -1.94365 0.415896 0 0 0 0)
(-0.773495 -0.0483805 0 -2.10397 0.621745 0 0 0 0)
(-1.14428 0.223615 0 -2.2448 1.00739 0 0 0 0)
(-1.22036 0.599035 0 -2.11483 1.25951 0 0 0 0)
(-0.925128 0.566727 0 -1.73431 1.08388 0 0 0 0)
(-0.510562 0.131504 0 -1.29567 0.585356 0 0 0 0)
(-0.155164 -0.241257 0 -0.865118 0.264066 0 0 0 0)
(0.00617172 -0.47613 0 -0.619936 0.100889 0 0 0 0)
(-0.0252587 -0.52595 0 -0.505237 0.0860533 0 0 0 0)
(-0.108504 -0.434576 0 -0.421942 0.145436 0 0 0 0)
(-0.22342 -0.359479 0 -0.363164 0.176763 0 0 0 0)
(-0.403209 -0.343358 0 -0.349514 0.1595 0 0 0 0)
(-0.536022 -0.32074 0 -0.336858 0.125356 0 0 0 0)
(-0.414721 -0.216325 0 -0.211364 0.131407 0 0 0 0)
(-0.162095 -0.0933697 0 -0.073286 0.154533 0 0 0 0)
(-0.0277013 -0.0362087 0 -0.0287928 0.157888 0 0 0 0)
(0.0065934 -0.0230325 0 -0.0227706 0.154021 0 0 0 0)
(0.0235678 -0.0198513 0 -0.0201477 0.149628 0 0 0 0)
(0.0446147 -0.0155357 0 -0.0149594 0.147134 0 0 0 0)
(0.0686224 -0.00963192 0 -0.00877529 0.145762 0 0 0 0)
(0.0918651 -0.00439942 0 -0.00366397 0.145119 0 0 0 0)
(0.109199 -0.00207086 0 -0.00103689 0.144856 0 0 0 0)
(0.117728 0.00122746 0 -0.000325355 0.144509 0 0 0 0)
(0.119943 -0.00164558 0 -0.000828915 0.14535 0 0 0 0)
(0.118826 0.000310903 0 -0.000312845 0.144173 0 0 0 0)
(0.115777 0.000666032 0 -0.000487659 0.145701 0 0 0 0)
(0.111572 0.0031009 0 -0.000132744 0.145074 0 0 0 0)
(0.107447 -0.000121286 0 0.000433499 0.146776 0 0 0 0)
(0.104269 0.00400138 0 0.00198523 0.145983 0 0 0 0)
(0.0759128 0.00890989 0 0.0028445 0.147389 0 0 0 0)
(-0.100603 0.0036578 0 0.0026314 0.148616 0 0 0 0)
(-0.616578 0.00143711 0 -0.0011984 0.149397 0 0 0 0)
(-0.881194 0.00614021 0 0.00201702 0.149418 0 0 0 0)
(-0.589037 -0.0154865 0 0.0144797 0.157077 0 0 0 0)
(-0.208595 0.031169 0 0.0120194 0.150314 0 0 0 0)
(-0.137294 0.045592 0 0.00803531 0.154793 0 0 0 0)
(-0.12793 -0.0111908 0 0.00394202 0.156648 0 0 0 0)
(-0.121589 -0.0692652 0 -2.00085 0.288217 0 0 0 0)
(-0.300992 -0.1508 0 -2.24144 0.339262 0 0 0 0)
(-0.427608 -0.131455 0 -2.34602 0.354974 0 0 0 0)
(-0.667321 0.00670411 0 -2.5409 0.579587 0 0 0 0)
(-0.969133 0.267068 0 -2.67238 0.905643 0 0 0 0)
(-1.05069 0.534727 0 -2.49306 1.1439 0 0 0 0)
(-0.772855 0.481591 0 -1.94893 1.00144 0 0 0 0)
(-0.361982 0.104852 0 -1.3512 0.521919 0 0 0 0)
(-0.0437158 -0.223708 0 -0.880491 0.160526 0 0 0 0)
(0.122096 -0.43063 0 -0.591437 -0.018526 0 0 0 0)
(0.121295 -0.507565 0 -0.49252 -0.0484413 0 0 0 0)
(0.0444982 -0.453544 0 -0.43258 0.0334881 0 0 0 0)
(-0.0580116 -0.383907 0 -0.38309 0.0996366 0 0 0 0)
(-0.206623 -0.358932 0 -0.364873 0.113055 0 0 0 0)
(-0.396617 -0.367165 0 -0.380365 0.0880727 0 0 0 0)
(-0.453678 -0.321275 0 -0.338347 0.0792921 0 0 0 0)
(-0.277333 -0.190908 0 -0.175948 0.12312 0 0 0 0)
(-0.0811253 -0.0790813 0 -0.0629777 0.151469 0 0 0 0)
(-0.00891357 -0.0372223 0 -0.0342943 0.153783 0 0 0 0)
(0.00964808 -0.0273493 0 -0.0289514 0.149273 0 0 0 0)
(0.0273659 -0.0232559 0 -0.0234871 0.145573 0 0 0 0)
(0.0500368 -0.0173137 0 -0.0165326 0.143762 0 0 0 0)
(0.0738456 -0.0103462 0 -0.00926196 0.142912 0 0 0 0)
(0.0952654 -0.00471637 0 -0.00345244 0.142511 0 0 0 0)
(0.110495 -0.00229391 0 -0.000208985 0.142365 0 0 0 0)
(0.117511 0.00148667 0 0.00106278 0.142085 0 0 0 0)
(0.119656 -0.00179425 0 0.00109191 0.14286 0 0 0 0)
(0.118663 0.000506698 0 0.00206691 0.141715 0 0 0 0)
(0.115492 0.00117987 0 0.00217932 0.143211 0 0 0 0)
(0.111649 0.00362389 0 0.00283076 0.142826 0 0 0 0)
(0.108086 0.000384031 0 0.00355929 0.144235 0 0 0 0)
(0.105071 0.0042247 0 0.00513318 0.143846 0 0 0 0)
(0.0756733 0.0100463 0 0.00610893 0.144534 0 0 0 0)
(-0.103472 0.00468311 0 0.00585341 0.145829 0 0 0 0)
(-0.618598 0.00207218 0 0.00336154 0.146651 0 0 0 0)