/*--------------------------------*- C++ -*----------------------------------*\
| =========                 |                                                 |
| \\      /  F ield         | OpenFOAM: The Open Source CFD Toolbox           |
|  \\    /   O peration     | Version:  v1912                                 |
|   \\  /    A nd           | Website:  www.openfoam.com                      |
|    \\/     M anipulation  |                                                 |
\*---------------------------------------------------------------------------*/
FoamFile
{
    version     2.0;
    format      ascii;
    class       volScalarField;
    location    "7.14";
    object      T;
}
// * * * * * * * * * * * * * * * * * * * * * * * * * * * * * * * * * * * * * //

dimensions      [0 0 0 1 0 0 0];


internalField   nonuniform List<scalar> 
1900
(
1.24649
0.963882
0.921
0.921532
0.92676
0.937196
0.947183
0.953323
0.955795
0.956533
1.24649
0.963882
0.920999
0.921532
0.926764
0.937195
0.947191
0.953342
0.956074
0.956491
1.24649
0.963882
0.920999
0.921532
0.926772
0.937205
0.947178
0.953291
0.955763
0.956247
1.24649
0.963882
0.920999
0.921532
0.926764
0.937195
0.947191
0.953342
0.956074
0.956491
1.24649
0.963882
0.921
0.921532
0.92676
0.937196
0.947183
0.953323
0.955795
0.956533
0.960531
0.956146
0.958978
0.967194
1.00659
0.956057
0.953147
0.955286
0.9619
0.988519
0.955226
0.952527
0.954277
0.961456
0.986572
0.956057
0.953147
0.955286
0.9619
0.988519
0.960531
0.956146
0.958978
0.967194
1.00659
0.797797
0.68212
0.617619
0.57268
0.541179
0.817659
0.698597
0.630428
0.586312
0.548177
0.81757
0.692959
0.624121
0.581614
0.539568
0.817659
0.698597
0.630428
0.586312
0.548177
0.797797
0.68212
0.617619
0.57268
0.541179
0.516295
0.499278
0.487985
0.468562
0.456161
0.459553
0.518524
0.612661
0.625779
0.619489
0.599592
0.56828
0.540252
0.520354
0.50129
0.476634
0.443459
0.412316
0.396844
0.390293
0.385673
0.381407
0.377701
0.375102
0.373743
0.373262
0.373188
0.373361
0.373613
0.374115
0.374835
0.37598
0.377112
0.380793
0.393086
0.434125
0.472933
0.494893
0.518843
0.527084
0.526737
0.518218
0.510452
0.490245
0.469234
0.470308
0.526455
0.618835
0.62786
0.620762
0.599871
0.568387
0.540368
0.521173
0.502197
0.477306
0.443854
0.412456
0.396864
0.390291
0.385688
0.381418
0.3777
0.375093
0.373733
0.373252
0.373179
0.373354
0.373606
0.37411
0.37483
0.375978
0.377108
0.380791
0.393054
0.434083
0.472903
0.49518
0.518752
0.527008
0.525946
0.520577
0.515672
0.499059
0.475035
0.474992
0.529294
0.621292
0.629054
0.621566
0.600376
0.570186
0.541426
0.521126
0.501796
0.477138
0.443956
0.412551
0.396879
0.390292
0.385695
0.381422
0.3777
0.37509
0.373729
0.373249
0.373176
0.373351
0.373604
0.374108
0.374828
0.375977
0.377106
0.38079
0.393041
0.434068
0.472889
0.495299
0.518724
0.526995
0.526737
0.518218
0.510452
0.490245
0.469234
0.470308
0.526455
0.618835
0.62786
0.620762
0.599871
0.568387
0.540368
0.521173
0.502197
0.477306
0.443854
0.412456
0.396864
0.390291
0.385688
0.381418
0.3777
0.375093
0.373733
0.373252
0.373179
0.373354
0.373606
0.37411
0.37483
0.375978
0.377108
0.380791
0.393054
0.434083
0.472903
0.49518
0.518752
0.527008
0.516295
0.499278
0.487985
0.468562
0.456161
0.459553
0.518524
0.612661
0.625779
0.619489
0.599592
0.56828
0.540252
0.520354
0.50129
0.476634
0.443459
0.412316
0.396844
0.390293
0.385673
0.381407
0.377701
0.375102
0.373743
0.373262
0.373188
0.373361
0.373613
0.374115
0.374835
0.37598
0.377112
0.380793
0.393086
0.434125
0.472933
0.494893
0.518843
0.527084
0.454766
0.45171
0.448535
0.43986
0.437999
0.447173
0.509971
0.592845
0.607968
0.603394
0.587338
0.560805
0.536444
0.518727
0.500298
0.47545
0.442049
0.411511
0.396691
0.390276
0.385615
0.381355
0.377701
0.375139
0.373792
0.373308
0.373227
0.373394
0.373643
0.37414
0.374855
0.375987
0.377121
0.380808
0.393167
0.434205
0.472948
0.494194
0.518858
0.5273
0.414562
0.413264
0.410493
0.412634
0.421341
0.443149
0.505946
0.570978
0.58496
0.581727
0.567524
0.546822
0.528857
0.513347
0.495281
0.470563
0.437923
0.409598
0.396333
0.390204
0.385485
0.381246
0.377696
0.375225
0.373911
0.373422
0.373328
0.373481
0.373721
0.374206
0.374908
0.376014
0.37714
0.380846
0.393319
0.434303
0.472908
0.493479
0.51869
0.527434
0.416085
0.416156
0.417012
0.426165
0.443342
0.473049
0.522199
0.559852
0.565764
0.561324
0.548108
0.532597
0.519584
0.505823
0.488311
0.463675
0.432028
0.40705
0.395871
0.390075
0.38533
0.38114
0.377718
0.375369
0.374109
0.37362
0.373507
0.373638
0.373865
0.374333
0.375016
0.376083
0.377192
0.380921
0.393539
0.434381
0.472755
0.493017
0.518482
0.527461
0.424588
0.425023
0.428872
0.44126
0.463239
0.497911
0.539917
0.55428
0.553107
0.54168
0.529726
0.519661
0.509615
0.496955
0.479874
0.454999
0.424995
0.404445
0.395415
0.389911
0.385174
0.381067
0.377798
0.375589
0.374393
0.373907
0.373772
0.373875
0.374086
0.374533
0.375192
0.376213
0.377293
0.381054
0.393842
0.434507
0.472587
0.492699
0.518326
0.527479
0.438734
0.441248
0.450566
0.467515
0.493022
0.522846
0.539734
0.541221
0.532627
0.523608
0.515227
0.508033
0.499169
0.487281
0.470044
0.444615
0.417712
0.402208
0.394955
0.389682
0.385001
0.381029
0.377944
0.375889
0.374765
0.374283
0.374124
0.374194
0.374387
0.37481
0.375441
0.37641
0.377452
0.381247
0.394184
0.43461
0.472351
0.492361
0.518083
0.527434
0.464354
0.470377
0.481906
0.494357
0.509935
0.523104
0.528494
0.523246
0.515396
0.507761
0.502806
0.496829
0.488777
0.477051
0.458679
0.433211
0.411449
0.400622
0.394567
0.389455
0.384866
0.381071
0.378192
0.376297
0.375244
0.374767
0.374583
0.374621
0.374795
0.375194
0.375798
0.376717
0.377724
0.381557
0.394697
0.434928
0.472304
0.492217
0.517965
0.527382
0.49043
0.498419
0.500475
0.507023
0.512218
0.51644
0.512741
0.504072
0.498684
0.495161
0.491185
0.486016
0.478327
0.465762
0.445795
0.422406
0.407001
0.399437
0.394069
0.389117
0.384722
0.38115
0.378497
0.376767
0.375786
0.375315
0.37511
0.375118
0.375273
0.375647
0.376226
0.377103
0.378074
0.381936
0.395162
0.435117
0.472164
0.49198
0.517742
0.527291
0.514083
0.521088
0.513423
0.509893
0.50753
0.500322
0.492268
0.488759
0.48642
0.483547
0.480295
0.47562
0.467295
0.452904
0.432305
0.413987
0.404246
0.398593
0.393619
0.388827
0.384676
0.381362
0.378945
0.377372
0.376457
0.375991
0.375767
0.375748
0.37588
0.376233
0.376791
0.377631
0.378583
0.382481
0.395848
0.435563
0.472224
0.491923
0.517637
0.527292
0.533533
0.525501
0.51307
0.503445
0.491786
0.483525
0.479256
0.4772
0.47523
0.472812
0.470216
0.46517
0.455186
0.438981
0.420662
0.408775
0.402491
0.397762
0.393064
0.388536
0.384667
0.381642
0.379464
0.378049
0.377201
0.376745
0.376507
0.376465
0.376576
0.376915
0.377459
0.378282
0.379232
0.383157
0.396549
0.435962
0.472291
0.491875
0.517549
0.527318
0.534232
0.520689
0.506129
0.494415
0.481746
0.473026
0.468425
0.466554
0.464776
0.463058
0.460382
0.453896
0.441839
0.425879
0.412932
0.405931
0.401488
0.397241
0.392735
0.388499
0.384964
0.382248
0.380298
0.379013
0.378212
0.377752
0.377491
0.377421
0.377507
0.377829
0.378359
0.379171
0.380137
0.384095
0.397538
0.43664
0.47254
0.491947
0.517569
0.527507
0.53593
0.520835
0.504499
0.48951
0.474716
0.463277
0.457903
0.456637
0.455455
0.454088
0.450229
0.441736
0.428832
0.416359
0.408849
0.404449
0.400805
0.396804
0.392573
0.388697
0.385505
0.383082
0.381348
0.380185
0.379422
0.378953
0.378666
0.378566
0.378625
0.378933
0.379454
0.380272
0.381272
0.385237
0.398568
0.437246
0.472805
0.492056
0.517585
0.52775
0.539271
0.521958
0.503879
0.487047
0.467471
0.453521
0.448541
0.447978
0.447252
0.445162
0.439392
0.429716
0.418866
0.411279
0.406983
0.4039
0.40067
0.396908
0.392977
0.389436
0.386578
0.38441
0.382833
0.381733
0.380965
0.380458
0.38013
0.379988
0.380022
0.380326
0.380861
0.381703
0.382767
0.386779
0.400111
0.438348
0.473436
0.492461
0.517898
0.528298
0.54125
0.52254
0.501546
0.483906
0.460539
0.445531
0.441076
0.440604
0.439646
0.436137
0.428935
0.420175
0.413323
0.409281
0.406452
0.403888
0.400772
0.397098
0.393403
0.390177
0.387627
0.385718
0.384328
0.383333
0.382609
0.382118
0.381792
0.381649
0.3817
0.382055
0.382645
0.383564
0.38473
0.388813
0.402028
0.439693
0.474364
0.493087
0.518244
0.528917
0.541108
0.522674
0.499054
0.481177
0.456433
0.440592
0.435693
0.434419
0.432215
0.427527
0.420953
0.415353
0.411734
0.409502
0.40764
0.405434
0.402503
0.399153
0.395947
0.393256
0.391201
0.389711
0.38864
0.387877
0.387325
0.386973
0.386759
0.386705
0.386827
0.387274
0.387907
0.388897
0.390129
0.394334
0.407502
0.444227
0.477845
0.495327
0.5193
0.529987
0.540051
0.522802
0.498787
0.481482
0.456242
0.438875
0.433185
0.430984
0.427903
0.42402
0.420205
0.417669
0.415985
0.414763
0.413605
0.41203
0.409856
0.407406
0.405152
0.403372
0.402203
0.401617
0.401435
0.401477
0.401623
0.401934
0.402177
0.402625
0.403118
0.403893
0.404644
0.40584
0.407035
0.411333
0.423932
0.457631
0.487354
0.501426
0.521588
0.530994
0.538808
0.523707
0.502962
0.488763
0.464504
0.44564
0.439948
0.438878
0.437532
0.436866
0.436451
0.436956
0.437901
0.439172
0.440158
0.440418
0.439987
0.439215
0.438504
0.438045
0.437974
0.438372
0.438938
0.439496
0.439967
0.440509
0.440843
0.441376
0.441838
0.442546
0.443111
0.444015
0.444777
0.448386
0.458464
0.48451
0.506745
0.515461
0.528045
0.533243
0.537994
0.527741
0.515498
0.508449
0.489588
0.471607
0.465842
0.465857
0.466246
0.467812
0.469307
0.471323
0.47322
0.474899
0.475716
0.475715
0.475152
0.474403
0.473783
0.473371
0.47318
0.473398
0.47359
0.473727
0.47376
0.473883
0.473877
0.474027
0.474157
0.47447
0.47471
0.475188
0.475679
0.478335
0.485593
0.504351
0.522
0.529343
0.535061
0.534193
0.530984
0.532238
0.529513
0.523816
0.508437
0.493499
0.487874
0.48789
0.488462
0.490044
0.491468
0.4932
0.494635
0.495315
0.495213
0.494676
0.493935
0.493383
0.493154
0.49338
0.493881
0.493521
0.492783
0.492382
0.492141
0.492111
0.492005
0.492079
0.492161
0.492358
0.492487
0.492825
0.493186
0.4948
0.49967
0.51241
0.527452
0.537309
0.539841
0.527378
0.433221
0.504138
0.542017
0.538096
0.527824
0.518518
0.514682
0.51457
0.514864
0.515915
0.51701
0.518323
0.519273
0.519569
0.519436
0.519076
0.518653
0.51839
0.518288
0.518182
0.51805
0.517829
0.517635
0.517291
0.516939
0.516796
0.516622
0.51661
0.5166
0.516689
0.516728
0.516986
0.517181
0.518011
0.519874
0.525711
0.533149
0.538965
0.504189
0.425915
0.323486
0.416827
0.528318
0.535995
0.532973
0.528851
0.526976
0.526569
0.52679
0.527158
0.527618
0.528102
0.528436
0.528604
0.528647
0.528588
0.528435
0.528307
0.528223
0.528053
0.527736
0.527538
0.527325
0.527097
0.526865
0.526714
0.5266
0.526591
0.526587
0.526707
0.526853
0.52727
0.527699
0.528568
0.529479
0.531836
0.533091
0.527521
0.429791
0.324958
0.323486
0.416827
0.528318
0.535995
0.532973
0.528851
0.526976
0.526569
0.52679
0.527158
0.527618
0.528102
0.528436
0.528604
0.528647
0.528588
0.528435
0.528307
0.528223
0.528053
0.527736
0.527538
0.527325
0.527097
0.526865
0.526714
0.5266
0.526591
0.526587
0.526707
0.526853
0.52727
0.527699
0.528568
0.529479
0.531836
0.533091
0.527521
0.429791
0.324958
0.433221
0.504138
0.542017
0.538096
0.527824
0.518518
0.514682
0.51457
0.514864
0.515915
0.51701
0.518323
0.519273
0.519569
0.519436
0.519076
0.518653
0.51839
0.518288
0.518182
0.51805
0.517829
0.517635
0.517291
0.516939
0.516796
0.516622
0.51661
0.5166
0.516689
0.516728
0.516986
0.517181
0.518011
0.519874
0.525711
0.533149
0.538965
0.504189
0.425915
0.530984
0.532238
0.529513
0.523816
0.508437
0.493499
0.487874
0.48789
0.488462
0.490044
0.491468
0.4932
0.494635
0.495315
0.495213
0.494676
0.493935
0.493383
0.493154
0.49338
0.493881
0.493521
0.492783
0.492382
0.492141
0.492111
0.492005
0.492079
0.492161
0.492358
0.492487
0.492825
0.493186
0.4948
0.49967
0.51241
0.527452
0.537309
0.539841
0.527378
0.537994
0.527741
0.515498
0.508449
0.489588
0.471607
0.465842
0.465857
0.466246
0.467812
0.469307
0.471323
0.47322
0.474899
0.475716
0.475715
0.475152
0.474403
0.473783
0.473371
0.47318
0.473398
0.47359
0.473727
0.47376
0.473883
0.473877
0.474027
0.474157
0.47447
0.47471
0.475188
0.475679
0.478335
0.485593
0.504351
0.522
0.529343
0.535061
0.534193
0.538808
0.523707
0.502962
0.488763
0.464504
0.44564
0.439948
0.438878
0.437532
0.436866
0.436451
0.436956
0.437901
0.439172
0.440158
0.440418
0.439987
0.439215
0.438504
0.438045
0.437974
0.438372
0.438938
0.439496
0.439967
0.440509
0.440843
0.441376
0.441838
0.442546
0.443111
0.444015
0.444777
0.448386
0.458464
0.48451
0.506745
0.515461
0.528045
0.533243
0.540051
0.522802
0.498787
0.481482
0.456242
0.438875
0.433185
0.430984
0.427903
0.42402
0.420205
0.417669
0.415985
0.414763
0.413605
0.41203
0.409856
0.407406
0.405152
0.403372
0.402203
0.401617
0.401435
0.401477
0.401623
0.401934
0.402177
0.402625
0.403118
0.403893
0.404644
0.40584
0.407035
0.411333
0.423932
0.457631
0.487354
0.501426
0.521588
0.530994
0.541108
0.522674
0.499054
0.481177
0.456433
0.440592
0.435693
0.434419
0.432215
0.427527
0.420953
0.415353
0.411734
0.409502
0.40764
0.405434
0.402503
0.399153
0.395947
0.393256
0.391201
0.389711
0.38864
0.387877
0.387325
0.386973
0.386759
0.386705
0.386827
0.387274
0.387907
0.388897
0.390129
0.394334
0.407502
0.444227
0.477845
0.495327
0.5193
0.529987
0.54125
0.52254
0.501546
0.483906
0.460539
0.445531
0.441076
0.440604
0.439646
0.436137
0.428935
0.420175
0.413323
0.409281
0.406452
0.403888
0.400772
0.397098
0.393403
0.390177
0.387627
0.385718
0.384328
0.383333
0.382609
0.382118
0.381792
0.381649
0.3817
0.382055
0.382645
0.383564
0.38473
0.388813
0.402028
0.439693
0.474364
0.493087
0.518244
0.528917
0.539271
0.521958
0.503879
0.487047
0.467471
0.453521
0.448541
0.447978
0.447252
0.445162
0.439392
0.429716
0.418866
0.411279
0.406983
0.4039
0.40067
0.396908
0.392977
0.389436
0.386578
0.38441
0.382833
0.381733
0.380965
0.380458
0.38013
0.379988
0.380022
0.380326
0.380861
0.381703
0.382767
0.386779
0.400111
0.438348
0.473436
0.492461
0.517898
0.528298
0.53593
0.520835
0.504499
0.48951
0.474716
0.463277
0.457903
0.456637
0.455455
0.454088
0.450229
0.441736
0.428832
0.416359
0.408849
0.404449
0.400805
0.396804
0.392573
0.388697
0.385505
0.383082
0.381348
0.380185
0.379422
0.378953
0.378666
0.378566
0.378625
0.378933
0.379454
0.380272
0.381272
0.385237
0.398568
0.437246
0.472805
0.492056
0.517585
0.52775
0.534232
0.520689
0.506129
0.494415
0.481746
0.473026
0.468425
0.466554
0.464776
0.463058
0.460382
0.453896
0.441839
0.425879
0.412932
0.405931
0.401488
0.397241
0.392735
0.388499
0.384964
0.382248
0.380298
0.379013
0.378212
0.377752
0.377491
0.377421
0.377507
0.377829
0.378359
0.379171
0.380137
0.384095
0.397538
0.43664
0.47254
0.491947
0.517569
0.527507
0.533533
0.525501
0.51307
0.503445
0.491786
0.483525
0.479256
0.4772
0.47523
0.472812
0.470216
0.46517
0.455186
0.438981
0.420662
0.408775
0.402491
0.397762
0.393064
0.388536
0.384667
0.381642
0.379464
0.378049
0.377201
0.376745
0.376507
0.376465
0.376576
0.376915
0.377459
0.378282
0.379232
0.383157
0.396549
0.435962
0.472291
0.491875
0.517549
0.527318
0.514083
0.521088
0.513423
0.509893
0.50753
0.500322
0.492268
0.488759
0.48642
0.483547
0.480295
0.47562
0.467295
0.452904
0.432305
0.413987
0.404246
0.398593
0.393619
0.388827
0.384676
0.381362
0.378945
0.377372
0.376457
0.375991
0.375767
0.375748
0.37588
0.376233
0.376791
0.377631
0.378583
0.382481
0.395848
0.435563
0.472224
0.491923
0.517637
0.527292
0.49043
0.498419
0.500475
0.507023
0.512218
0.51644
0.512741
0.504072
0.498684
0.495161
0.491185
0.486016
0.478327
0.465762
0.445795
0.422406
0.407001
0.399437
0.394069
0.389117
0.384722
0.38115
0.378497
0.376767
0.375786
0.375315
0.37511
0.375118
0.375273
0.375647
0.376226
0.377103
0.378074
0.381936
0.395162
0.435117
0.472164
0.49198
0.517742
0.527291
0.464354
0.470377
0.481906
0.494357
0.509935
0.523104
0.528494
0.523246
0.515396
0.507761
0.502806
0.496829
0.488777
0.477051
0.458679
0.433211
0.411449
0.400622
0.394567
0.389455
0.384866
0.381071
0.378192
0.376297
0.375244
0.374767
0.374583
0.374621
0.374795
0.375194
0.375798
0.376717
0.377724
0.381557
0.394697
0.434928
0.472304
0.492217
0.517965
0.527382
0.438734
0.441248
0.450566
0.467515
0.493022
0.522846
0.539734
0.541221
0.532627
0.523608
0.515227
0.508033
0.499169
0.487281
0.470044
0.444615
0.417712
0.402208
0.394955
0.389682
0.385001
0.381029
0.377944
0.375889
0.374765
0.374283
0.374124
0.374194
0.374387
0.37481
0.375441
0.37641
0.377452
0.381247
0.394184
0.43461
0.472351
0.492361
0.518083
0.527434
0.424588
0.425023
0.428872
0.44126
0.463239
0.497911
0.539917
0.55428
0.553107
0.54168
0.529726
0.519661
0.509615
0.496955
0.479874
0.454999
0.424995
0.404445
0.395415
0.389911
0.385174
0.381067
0.377798
0.375589
0.374393
0.373907
0.373772
0.373875
0.374086
0.374533
0.375192
0.376213
0.377293
0.381054
0.393842
0.434507
0.472587
0.492699
0.518326
0.527479
0.416085
0.416156
0.417012
0.426165
0.443342
0.473049
0.522199
0.559852
0.565764
0.561324
0.548108
0.532597
0.519584
0.505823
0.488311
0.463675
0.432028
0.40705
0.395871
0.390075
0.38533
0.38114
0.377718
0.375369
0.374109
0.37362
0.373507
0.373638
0.373865
0.374333
0.375016
0.376083
0.377192
0.380921
0.393539
0.434381
0.472755
0.493017
0.518482
0.527461
0.414562
0.413264
0.410493
0.412634
0.421341
0.443149
0.505946
0.570978
0.58496
0.581727
0.567524
0.546822
0.528857
0.513347
0.495281
0.470563
0.437923
0.409598
0.396333
0.390204
0.385485
0.381246
0.377696
0.375225
0.373911
0.373422
0.373328
0.373481
0.373721
0.374206
0.374908
0.376014
0.37714
0.380846
0.393319
0.434303
0.472908
0.493479
0.51869
0.527434
0.454766
0.45171
0.448535
0.43986
0.437999
0.447173
0.509971
0.592845
0.607968
0.603394
0.587338
0.560805
0.536444
0.518727
0.500298
0.47545
0.442049
0.411511
0.396691
0.390276
0.385615
0.381355
0.377701
0.375139
0.373792
0.373308
0.373227
0.373394
0.373643
0.37414
0.374855
0.375987
0.377121
0.380808
0.393167
0.434205
0.472948
0.494194
0.518858
0.5273
)
;

boundaryField
{
    inlet
    {
        type            fixedValue;
        value           uniform 1;
    }
    outlet
    {
        type            zeroGradient;
    }
    obstacle
    {
        type            zeroGradient;
    }
    empty
    {
        type            empty;
    }
}


// ************************************************************************* //
