/*--------------------------------*- C++ -*----------------------------------*\
| =========                 |                                                 |
| \\      /  F ield         | OpenFOAM: The Open Source CFD Toolbox           |
|  \\    /   O peration     | Version:  v1912                                 |
|   \\  /    A nd           | Website:  www.openfoam.com                      |
|    \\/     M anipulation  |                                                 |
\*---------------------------------------------------------------------------*/
FoamFile
{
    version     2.0;
    format      ascii;
    class       volVectorField;
    location    "4.48";
    object      grad(rho);
}
// * * * * * * * * * * * * * * * * * * * * * * * * * * * * * * * * * * * * * //

dimensions      [1 -4 0 0 0 0 0];


internalField   nonuniform List<vector> 
1900
(
(153006 -0.105093 0)
(-125758 0.337843 0)
(-16211.1 0.303124 0)
(-3058.32 -0.413521 0)
(-2102.84 0.665243 0)
(-1831.36 3.63323 0)
(-1896.69 13.1296 0)
(-2048.6 27.0487 0)
(-2053.1 -38.1955 0)
(-1375.7 -162.442 0)
(153006 -0.207612 0)
(-125758 0.569433 0)
(-16211.9 0.707043 0)
(-3057.95 -0.446249 0)
(-2098.79 -0.0959186 0)
(-1818.9 0.351896 0)
(-1873.27 6.27799 0)
(-2099.92 13.0138 0)
(-2242.59 -71.0436 0)
(-2120.25 -210.013 0)
(153006 2.26663e-08 0)
(-125757 -1.24345e-09 0)
(-16212.1 -1.27898e-09 0)
(-3059.12 6.4837e-09 0)
(-2102.04 8.11795e-09 0)
(-1824.99 4.29878e-09 0)
(-1884.02 8.17124e-10 0)
(-2125.92 -2.0961e-09 0)
(-2276.12 -3.55271e-09 0)
(-2111.95 -9.9476e-10 0)
(153006 0.207612 0)
(-125758 -0.569433 0)
(-16211.9 -0.707043 0)
(-3057.95 0.446249 0)
(-2098.79 0.0959186 0)
(-1818.9 -0.351896 0)
(-1873.27 -6.27799 0)
(-2099.92 -13.0138 0)
(-2242.59 71.0436 0)
(-2120.25 210.013 0)
(153006 0.105093 0)
(-125758 -0.337843 0)
(-16211.1 -0.303124 0)
(-3058.32 0.413521 0)
(-2102.84 -0.665243 0)
(-1831.36 -3.63323 0)
(-1896.69 -13.1296 0)
(-2048.6 -27.0487 0)
(-2053.1 38.1955 0)
(-1375.7 162.442 0)
(-844.883 -710.101 1.34652e-11)
(-718.561 -896.176 -1.60289e-11)
(-290.315 -1183.26 -2.02535e-11)
(1195.27 -1504.88 0)
(-5241.41 -7342.08 -8.78902e-11)
(-1539 -742.006 1.33369e-11)
(-812.024 -902.677 1.60289e-11)
(-249.533 -1336.35 2.02535e-11)
(-740.803 -1698.77 0)
(-4792.71 -6509.94 0)
(-1756.14 6.43608e-10 0)
(-1260.89 1.59716e-09 0)
(-850.084 -2.96059e-09 0)
(-836.222 -5.1474e-09 0)
(-7346.84 -6.76707e-09 0)
(-1539 742.006 1.33369e-11)
(-812.024 902.677 1.60289e-11)
(-249.533 1336.35 2.02535e-11)
(-740.803 1698.77 0)
(-4792.71 6509.94 0)
(-844.883 710.101 -4.01389e-11)
(-718.561 896.176 -1.60289e-11)
(-290.315 1183.26 -2.02535e-11)
(1195.27 1504.88 -5.52639e-11)
(-5241.41 7342.08 8.78902e-11)
(-13826.5 5887.64 3.20418e-11)
(-5529.87 2119.57 -2.60384e-11)
(-7209.68 1010.81 0)
(-9108.43 899.504 1.75798e-11)
(-13535.5 640.392 -7.11987e-12)
(-10731.5 6328.3 -1.61096e-11)
(-6618.22 1479.44 1.30511e-11)
(-7478.47 623.122 0)
(-9181.69 724.784 -1.10098e-11)
(-13435.3 200.361 1.7863e-12)
(-11585.4 -3.14002e-09 0)
(-6992.91 -2.04964e-09 0)
(-7435.22 1.11845e-09 0)
(-9309.27 -9.28814e-10 4.41265e-12)
(-13132.4 -8.20656e-09 -3.5726e-12)
(-10731.5 -6328.3 -1.61096e-11)
(-6618.22 -1479.44 1.30511e-11)
(-7478.47 -623.122 0)
(-9181.69 -724.784 -1.10098e-11)
(-13435.3 -200.361 1.7863e-12)
(-13826.5 -5887.64 1.61096e-11)
(-5529.87 -2119.57 -6.38345e-14)
(-7209.68 -1010.81 0)
(-9108.43 -899.504 2.70901e-14)
(-13535.5 -640.392 7.11987e-12)
(-16919.5 -2271.31 0)
(-7645.26 3699.97 0)
(1592.62 3157.52 0)
(-57.8804 2154.34 0)
(-1526.96 1070.43 0)
(-1574.28 453.257 0)
(-1679.19 269.363 0)
(-1802.81 183.557 0)
(-1652.34 100.478 0)
(-1262.52 55.8609 0)
(-777.78 13.7555 0)
(-476.161 6.62745 0)
(-348.225 6.95824 0)
(-285.6 6.34738 0)
(-239.055 4.81783 0)
(-197.867 3.38547 0)
(-162.727 2.37095 0)
(-133.401 1.75929 0)
(-110.045 1.37671 0)
(-90.3641 1.11137 0)
(-72.2644 0.885999 0)
(-57.9282 0.70135 0)
(-45.3059 0.576028 0)
(-33.1363 0.496653 0)
(-22.4488 0.479622 0)
(-13.0757 0.51958 0)
(-5.3821 0.626021 0)
(-0.357952 0.644655 0)
(4.36125 0.725237 0)
(8.03848 0.37365 0)
(24.9618 0.405526 0)
(47.8533 0.553297 0)
(90.0232 0.866004 0)
(120.932 3.92259 0)
(148.926 4.84807 0)
(162.013 10.9997 0)
(151.392 7.71312 0)
(3099.73 16.5935 0)
(61243.2 -70.8665 0)
(-66091.4 -4163.17 0)
(-16470.6 1959.82 0)
(-7724.96 5764.01 0)
(1196.88 3798.22 0)
(-167.039 1758.73 0)
(-1676.33 782.369 0)
(-1676.57 250.024 0)
(-1711.68 130.116 0)
(-1824.64 84.4851 0)
(-1666.01 26.0388 0)
(-1266.42 18.3074 0)
(-781.733 3.8641 0)
(-476.643 0.940962 0)
(-348.071 1.36915 0)
(-285.664 1.44118 0)
(-239.243 0.987511 0)
(-198.032 0.524675 0)
(-162.83 0.199002 0)
(-133.451 0.0450999 0)
(-110.073 -0.0238428 0)
(-90.389 -0.0729747 0)
(-72.2931 -0.134111 0)
(-57.9595 -0.21034 0)
(-45.3387 -0.293456 0)
(-33.169 -0.383977 0)
(-22.4801 -0.469421 0)
(-13.1042 -0.550122 0)
(-5.41622 -0.608067 0)
(-0.39302 -0.679142 0)
(4.29673 -0.686651 0)
(7.97598 -0.77454 0)
(24.9524 -0.595048 0)
(47.8725 -0.152764 0)
(90.3074 0.769495 0)
(121.402 3.44233 0)
(149.937 7.27493 0)
(162.786 15.7339 0)
(151.949 23.3625 0)
(3088.28 35.7669 0)
(61163.7 -32.079 0)
(-66039.1 1824.7 0)
(-15186.2 -3.87569e-09 0)
(-7110.46 2.43522e-08 0)
(427.444 1.70369e-08 0)
(-935.219 2.73559e-08 0)
(-1965.86 -2.24467e-09 0)
(-1764.03 1.0642e-08 0)
(-1727.35 -8.97868e-09 0)
(-1833.09 -5.59875e-08 0)
(-1671.59 -3.11185e-08 0)
(-1268.97 -4.66859e-08 0)
(-782.832 -1.59711e-08 0)
(-476.887 1.11426e-09 0)
(-348.079 5.97502e-10 0)
(-285.711 -1.40494e-09 0)
(-239.322 2.69683e-09 0)
(-198.096 6.31414e-09 0)
(-162.867 1.00122e-08 0)
(-133.466 -6.45948e-11 0)
(-110.08 -1.53251e-08 0)
(-90.3962 -1.29674e-08 0)
(-72.3043 2.5192e-09 0)
(-57.9745 2.76143e-08 0)
(-45.3564 4.07109e-08 0)
(-33.1875 3.46228e-08 0)
(-22.4971 2.88093e-08 0)
(-13.116 2.72752e-08 0)
(-5.41964 1.43885e-08 0)
(-0.380813 -1.62617e-08 0)
(4.3335 -5.08523e-08 0)
(8.06512 -3.15061e-08 0)
(25.1426 -1.87971e-08 0)
(48.2502 5.88943e-08 0)
(91.069 1.12912e-07 0)
(122.824 1.23069e-07 0)
(152.502 1.59743e-07 0)
(166.693 1.79024e-07 0)
(157.22 9.60525e-08 0)
(3083.6 1.55544e-07 0)
(61763.6 3.22005e-08 0)
(-66748.6 -2.84023e-07 0)
(-16470.6 -1959.82 0)
(-7724.96 -5764.01 0)
(1196.88 -3798.22 0)
(-167.039 -1758.73 0)
(-1676.33 -782.369 0)
(-1676.57 -250.024 0)
(-1711.68 -130.116 0)
(-1824.64 -84.4851 0)
(-1666.01 -26.0388 0)
(-1266.42 -18.3074 0)
(-781.733 -3.8641 0)
(-476.643 -0.940962 0)
(-348.071 -1.36915 0)
(-285.664 -1.44118 0)
(-239.243 -0.987511 0)
(-198.032 -0.524675 0)
(-162.83 -0.199002 0)
(-133.451 -0.0450999 0)
(-110.073 0.0238427 0)
(-90.389 0.0729746 0)
(-72.2931 0.134111 0)
(-57.9595 0.21034 0)
(-45.3387 0.293456 0)
(-33.169 0.383977 0)
(-22.4801 0.469421 0)
(-13.1042 0.550121 0)
(-5.41622 0.608066 0)
(-0.39302 0.679142 0)
(4.29673 0.686651 0)
(7.97598 0.77454 0)
(24.9524 0.595047 0)
(47.8725 0.152764 0)
(90.3074 -0.769495 0)
(121.402 -3.44233 0)
(149.937 -7.27493 0)
(162.786 -15.7339 0)
(151.949 -23.3625 0)
(3088.28 -35.7669 0)
(61163.7 32.079 0)
(-66039.1 -1824.7 0)
(-16919.5 2271.31 0)
(-7645.26 -3699.97 0)
(1592.62 -3157.52 0)
(-57.8804 -2154.34 0)
(-1526.96 -1070.43 0)
(-1574.28 -453.257 0)
(-1679.19 -269.363 0)
(-1802.81 -183.557 0)
(-1652.34 -100.478 0)
(-1262.52 -55.8609 0)
(-777.78 -13.7555 0)
(-476.161 -6.62745 0)
(-348.225 -6.95824 0)
(-285.6 -6.34738 0)
(-239.055 -4.81783 0)
(-197.867 -3.38547 0)
(-162.727 -2.37095 0)
(-133.401 -1.75929 0)
(-110.045 -1.37671 0)
(-90.3641 -1.11137 0)
(-72.2644 -0.885999 0)
(-57.9282 -0.70135 0)
(-45.3059 -0.576028 0)
(-33.1363 -0.496653 0)
(-22.4488 -0.479623 0)
(-13.0757 -0.51958 0)
(-5.3821 -0.626021 0)
(-0.357952 -0.644655 0)
(4.36125 -0.725237 0)
(8.03848 -0.37365 0)
(24.9618 -0.405526 0)
(47.8533 -0.553298 0)
(90.0232 -0.866004 0)
(120.932 -3.92259 0)
(148.926 -4.84807 0)
(162.013 -10.9997 0)
(151.392 -7.71312 0)
(3099.73 -16.5935 0)
(61243.2 70.8665 0)
(-66091.4 4163.17 0)
(26835.5 11723.9 0)
(-11222.5 -3489.67 0)
(1708.83 -3787.09 0)
(1015.92 -2783.73 0)
(-781.998 -1463.03 0)
(-1292.34 -770.723 0)
(-1580.06 -494.646 0)
(-1743.95 -333.66 0)
(-1601.71 -227.816 0)
(-1216.53 -104.986 0)
(-755.421 -34.4184 0)
(-472.936 -17.7641 0)
(-347.718 -16.0005 0)
(-284.394 -13.8574 0)
(-237.602 -10.7456 0)
(-196.689 -7.97606 0)
(-161.928 -6.04578 0)
(-132.885 -4.82511 0)
(-109.699 -4.01936 0)
(-90.1099 -3.45005 0)
(-72.0691 -2.9767 0)
(-57.8013 -2.61058 0)
(-45.2483 -2.38786 0)
(-33.1465 -2.27784 0)
(-22.5307 -2.31074 0)
(-13.2289 -2.47831 0)
(-5.53412 -2.78055 0)
(-0.495804 -2.94556 0)
(4.39212 -3.16537 0)
(8.10426 -2.67803 0)
(24.829 -2.70721 0)
(47.6059 -2.89303 0)
(88.5225 -3.66509 0)
(119.448 -8.5094 0)
(146.667 -9.77311 0)
(161.882 -17.4998 0)
(149.084 -12.9831 0)
(3124.34 -28.2385 0)
(63693.6 -80.5613 0)
(-68816.4 536.619 0)
(29109.4 14576.4 0)
(-20674 -2788.44 0)
(2210.57 -2158.86 0)
(1605.87 -2224.8 0)
(13.3671 -1509.88 0)
(-792.304 -1007.37 0)
(-1311.18 -732.046 0)
(-1577.25 -493.803 0)
(-1459.12 -328.4 0)
(-1100.81 -158.475 0)
(-705.72 -61.5604 0)
(-460.142 -32.7153 0)
(-344.732 -25.5728 0)
(-281.183 -20.9671 0)
(-234.167 -16.0318 0)
(-193.97 -11.9013 0)
(-160.119 -9.05684 0)
(-131.725 -7.24385 0)
(-108.906 -6.01654 0)
(-89.4957 -5.12508 0)
(-71.5602 -4.36337 0)
(-57.4288 -3.75917 0)
(-45.0162 -3.37078 0)
(-33.0565 -3.15286 0)
(-22.5981 -3.164 0)
(-13.4462 -3.38545 0)
(-5.75084 -3.81071 0)
(-0.654853 -4.02265 0)
(4.60251 -4.30121 0)
(8.4447 -3.55871 0)
(24.8258 -3.49658 0)
(47.0629 -3.78629 0)
(85.4157 -5.19611 0)
(115.842 -11.893 0)
(141.475 -14.5015 0)
(158.99 -24.9727 0)
(142.282 -23.4572 0)
(3021.41 -42.6781 0)
(60473.5 -260.448 0)
(-65191.3 -4629.94 0)
(32683.3 9494.3 0)
(-27349.2 -1201.73 0)
(2251.98 -1139.27 0)
(1641.3 -1504.59 0)
(391.159 -1228.94 0)
(-542.795 -1020.84 0)
(-1085.17 -847.671 0)
(-1354.98 -594.512 0)
(-1278.58 -394.309 0)
(-959.396 -199.21 0)
(-634.235 -89.7691 0)
(-438.257 -50.6893 0)
(-336.397 -36.7075 0)
(-275.2 -28.3308 0)
(-228.865 -21.0762 0)
(-189.967 -15.4621 0)
(-157.44 -11.6332 0)
(-129.955 -9.11994 0)
(-107.657 -7.34855 0)
(-88.5168 -6.03628 0)
(-70.7528 -4.92143 0)
(-56.8448 -4.03767 0)
(-44.664 -3.47567 0)
(-32.9472 -3.19417 0)
(-22.7548 -3.28892 0)
(-13.8521 -3.70313 0)
(-6.14815 -4.40465 0)
(-0.968465 -4.74089 0)
(4.83919 -5.19356 0)
(8.87963 -4.17232 0)
(24.6097 -4.06428 0)
(45.9682 -4.68645 0)
(80.7106 -6.88178 0)
(110.481 -15.4308 0)
(134.063 -18.9788 0)
(153.252 -31.423 0)
(132.023 -33.064 0)
(2895.97 -48.1919 0)
(59273.1 -199.931 0)
(-63879.3 -2485.17 0)
(35354.9 6115.89 0)
(-30920.9 -278.471 0)
(1918.73 -603.114 0)
(1519.46 -1015.61 0)
(479.526 -1021.74 0)
(-424.901 -984.412 0)
(-900.355 -855.302 0)
(-1140.38 -632.122 0)
(-1078.2 -412.16 0)
(-807.342 -213.904 0)
(-562.6 -109.136 0)
(-409.01 -65.2988 0)
(-323.187 -45.8459 0)
(-266.12 -33.6285 0)
(-221.766 -24.1741 0)
(-184.87 -17.3154 0)
(-154.008 -12.668 0)
(-127.597 -9.49708 0)
(-105.934 -7.15804 0)
(-87.1569 -5.39015 0)
(-69.6342 -3.88399 0)
(-56.0356 -2.68912 0)
(-44.2034 -1.99415 0)
(-32.8765 -1.70497 0)
(-23.0885 -1.9273 0)
(-14.5213 -2.56342 0)
(-6.75087 -3.57544 0)
(-1.41507 -3.99607 0)
(5.1504 -4.60235 0)
(9.53291 -3.35267 0)
(24.3303 -3.22629 0)
(44.3478 -4.26271 0)
(75.0621 -7.36486 0)
(104.185 -17.4006 0)
(126.064 -22.065 0)
(145.417 -35.0257 0)
(126.122 -41.1936 0)
(2860.61 -46.0812 0)
(58125.1 -149.796 0)
(-62652.5 -2449.92 0)
(38111.1 5228.81 0)
(-33823.8 -21.5894 0)
(1541.64 -376.557 0)
(1237.9 -773.3 0)
(421.224 -881.047 0)
(-382.412 -915.008 0)
(-745.687 -802.033 0)
(-927.953 -610.942 0)
(-875.57 -383.49 0)
(-667.392 -212.468 0)
(-491.033 -116.784 0)
(-377.269 -73.7562 0)
(-305.878 -51.1102 0)
(-254.317 -36.2254 0)
(-213.146 -25.354 0)
(-178.88 -17.7369 0)
(-149.906 -12.5108 0)
(-124.645 -8.76367 0)
(-103.7 -5.86708 0)
(-85.3619 -3.63067 0)
(-68.15 -1.72162 0)
(-55.0236 -0.266898 0)
(-43.7156 0.526747 0)
(-32.8828 0.826456 0)
(-23.5821 0.544339 0)
(-15.4404 -0.155043 0)
(-7.5287 -1.22437 0)
(-1.95803 -1.34267 0)
(5.45919 -1.70076 0)
(10.2057 0.124575 0)
(23.7327 0.732099 0)
(41.9801 -0.122207 0)
(68.0504 -3.0502 0)
(96.3152 -13.3562 0)
(117.079 -17.9186 0)
(134.818 -29.1228 0)
(121.369 -36.196 0)
(2791.32 -32.2999 0)
(56956.7 -142.564 0)
(-61376.6 -2823.58 0)
(40477.2 6184.15 0)
(-36322.4 9.13539 0)
(1194.35 -374.495 0)
(1033.31 -654.916 0)
(342.97 -803.195 0)
(-348.761 -828.517 0)
(-607.345 -719.097 0)
(-737.053 -548.352 0)
(-694.214 -345.274 0)
(-550.334 -200.868 0)
(-428.932 -120.207 0)
(-345.724 -78.5569 0)
(-287.021 -54.1086 0)
(-241.301 -37.5918 0)
(-203.95 -25.9938 0)
(-172.494 -17.9493 0)
(-145.361 -12.2642 0)
(-121.194 -7.97239 0)
(-100.988 -4.52447 0)
(-83.1622 -1.82968 0)
(-66.3928 0.45393 0)
(-53.869 2.13328 0)
(-43.1498 3.04655 0)
(-32.8596 3.37511 0)
(-24.0343 3.01642 0)
(-16.2257 2.23267 0)
(-7.89531 1.0933 0)
(-1.87414 1.2734 0)
(6.56429 0.998838 0)
(11.8773 2.9673 0)
(24.0925 3.49854 0)
(40.7031 2.12398 0)
(62.3094 -1.08756 0)
(89.8568 -11.5435 0)
(110.871 -16.9206 0)
(127.804 -26.3618 0)
(123.061 -33.4251 0)
(2758.11 -21.284 0)
(55435.3 -151.022 0)
(-59782.9 -3113.53 0)
(44444.4 2176.94 0)
(-40144 -83.3863 0)
(901.738 -367.167 0)
(824.786 -599.945 0)
(253.935 -756.797 0)
(-301.372 -735.256 0)
(-475.709 -621.706 0)
(-567.724 -463.243 0)
(-540.723 -295.243 0)
(-450.508 -177.884 0)
(-373.17 -111.948 0)
(-313.574 -74.4784 0)
(-266.403 -51.1464 0)
(-227.224 -35.5301 0)
(-194.217 -24.9283 0)
(-165.649 -17.5176 0)
(-140.292 -12.0325 0)
(-117.187 -7.60929 0)
(-97.7802 -3.85266 0)
(-80.5645 -0.818725 0)
(-64.3311 1.82683 0)
(-52.5253 3.86158 0)
(-42.519 5.0927 0)
(-32.9118 5.76669 0)
(-24.6829 5.77838 0)
(-17.2935 5.55144 0)
(-8.45309 5.24675 0)
(-2.04906 6.85711 0)
(7.0915 7.63591 0)
(12.6145 10.6499 0)
(22.9201 11.9364 0)
(37.5608 10.8124 0)
(54.88 7.34841 0)
(81.058 -3.24305 0)
(102.799 -10.5651 0)
(118.914 -19.3158 0)
(126.263 -26.5289 0)
(2678 -14.4601 0)
(53976.9 -211.043 0)
(-58241 -3513.91 0)
(42554.7 -2244.55 0)
(-38774 -201.45 0)
(696.578 -368.537 0)
(657.85 -548.825 0)
(212.58 -689.746 0)
(-218.581 -624.621 0)
(-345.224 -517.217 0)
(-422.462 -381.126 0)
(-419.231 -249.156 0)
(-373.704 -158.085 0)
(-329.286 -104.593 0)
(-287.133 -71.2231 0)
(-249.489 -49.8435 0)
(-216.036 -35.7009 0)
(-186.592 -26.3123 0)
(-160.067 -19.5384 0)
(-135.813 -14.1982 0)
(-113.312 -9.57986 0)
(-94.4444 -5.44618 0)
(-77.6892 -2.0021 0)
(-61.8827 0.99086 0)
(-50.7219 3.39791 0)
(-41.314 4.97954 0)
(-32.1988 6.00177 0)
(-24.2417 6.3523 0)
(-16.738 6.69356 0)
(-6.63712 7.12815 0)
(0.428133 9.98989 0)
(10.2192 11.8103 0)
(16.0215 15.4036 0)
(24.2491 16.8599 0)
(36.2819 15.7538 0)
(48.765 11.3554 0)
(72.5947 0.456948 0)
(95.3822 -10.2788 0)
(112.421 -18.488 0)
(127.74 -26.2547 0)
(2580.3 -15.5509 0)
(52063.1 -270.307 0)
(-56242.4 -3930.09 0)
(41869 -1744.27 0)
(-38336.2 -215.828 0)
(566.994 -344.389 0)
(515.257 -482.963 0)
(180.896 -604.945 0)
(-135.116 -521.308 0)
(-241.069 -431.401 0)
(-309.411 -316.866 0)
(-325.793 -214.301 0)
(-311.202 -141.444 0)
(-289.466 -95.4172 0)
(-260.816 -64.096 0)
(-232.172 -44.2943 0)
(-204.549 -31.645 0)
(-178.643 -23.7434 0)
(-153.976 -17.9235 0)
(-130.695 -13.1748 0)
(-108.753 -8.84927 0)
(-90.478 -4.75958 0)
(-74.3615 -1.17645 0)
(-59.1275 2.1303 0)
(-48.6817 5.06329 0)
(-40.0098 7.30835 0)
(-31.589 9.10237 0)
(-24.0163 10.283 0)
(-16.5459 11.7368 0)
(-5.27663 12.7483 0)
(2.46285 16.085 0)
(12.3084 18.2039 0)
(17.4805 21.4101 0)
(23.2575 21.7045 0)
(32.2564 19.2133 0)
(40.1394 12.999 0)
(60.2105 1.61091 0)
(84.5434 -12.6838 0)
(103.519 -19.5326 0)
(129.093 -26.4398 0)
(2442.82 -18.6763 0)
(50204.7 -404.231 0)
(-54290 -4476.63 0)
(40661.2 -2342.14 0)
(-37425 -191.923 0)
(439.157 -310.894 0)
(406.768 -423.39 0)
(175.629 -505.566 0)
(-51.3474 -430.637 0)
(-148.216 -357.275 0)
(-213.257 -263.862 0)
(-250.189 -186.137 0)
(-259.144 -126.989 0)
(-254.751 -87.2139 0)
(-237.869 -58.072 0)
(-218.218 -40.2405 0)
(-196.232 -28.4847 0)
(-173.37 -20.8958 0)
(-149.882 -15.279 0)
(-127.069 -10.7311 0)
(-105.203 -6.57394 0)
(-87.0506 -2.61144 0)
(-71.0499 0.839018 0)
(-55.8698 4.28199 0)
(-45.7321 7.47645 0)
(-37.4217 9.9631 0)
(-29.3324 12.0681 0)
(-21.7031 13.5567 0)
(-14.3624 15.4791 0)
(-2.44702 16.2963 0)
(5.68534 19.2257 0)
(15.3507 20.4865 0)
(19.3948 22.5455 0)
(22.1322 20.9326 0)
(27.8929 16.448 0)
(31.8027 7.57847 0)
(47.8458 -6.18394 0)
(75.0076 -24.1321 0)
(99.1654 -28.9586 0)
(128.565 -31.8997 0)
(2216.25 -25.8729 0)
(47767.3 -553.124 0)
(-51669.7 -5156.01 0)
(39365.9 -2803.4 0)
(-36378.8 -195.842 0)
(343.944 -285.464 0)
(327.665 -369.741 0)
(173.912 -410.614 0)
(7.78242 -362.767 0)
(-80.3584 -294.665 0)
(-144.497 -226.109 0)
(-193.897 -165.943 0)
(-215.876 -115.726 0)
(-223.055 -80.0433 0)
(-215.551 -51.136 0)
(-203.661 -33.244 0)
(-185.907 -19.4766 0)
(-165.917 -9.74981 0)
(-144.181 -2.07967 0)
(-122.307 4.2336 0)
(-100.929 9.81638 0)
(-83.3346 14.8335 0)
(-67.7188 18.8408 0)
(-52.7314 22.6088 0)
(-43.2071 25.839 0)
(-35.5851 27.8468 0)
(-28.1261 29.0968 0)
(-20.7293 29.188 0)
(-13.906 29.2796 0)
(-1.66632 27.7702 0)
(6.50073 28.3516 0)
(15.5075 26.7634 0)
(17.9103 25.4528 0)
(17.3817 20.2813 0)
(19.3879 13.1616 0)
(18.3304 0.0129643 0)
(29.6531 -18.406 0)
(62.5969 -43.6879 0)
(96.0339 -53.1506 0)
(132.066 -56.5267 0)
(1940.55 -63.7313 0)
(45261.1 -770.717 0)
(-48935.1 -5704.94 0)
(37728 -3579.95 0)
(-34998.7 -220.467 0)
(271.582 -280.529 0)
(286.169 -329.995 0)
(182.35 -326.918 0)
(60.3849 -304.933 0)
(-16.5277 -238.651 0)
(-89.2148 -191.64 0)
(-143.82 -142.786 0)
(-176.368 -96.2706 0)
(-192.509 -62.3874 0)
(-192.772 -32.837 0)
(-187.709 -15.7443 0)
(-173.592 -1.61035 0)
(-156.606 8.84866 0)
(-136.408 18.2813 0)
(-115.605 26.4296 0)
(-94.9885 33.645 0)
(-78.3543 39.9474 0)
(-63.5573 44.635 0)
(-49.1261 48.5814 0)
(-40.6846 51.7134 0)
(-34.2824 53.2208 0)
(-28.0399 53.6221 0)
(-21.5271 52.4013 0)
(-15.7286 50.8957 0)
(-3.34124 47.4046 0)
(4.71514 46.2636 0)
(12.5573 42.7489 0)
(13.1485 38.8005 0)
(10.2879 29.535 0)
(8.36159 18.3621 0)
(1.38308 -1.2921 0)
(5.73405 -27.4513 0)
(41.5264 -58.9464 0)
(86.7935 -75.0856 0)
(118.369 -74.1066 0)
(1528.03 -96.3155 0)
(42331.2 -912.356 0)
(-45589.2 -6422.07 0)
(35678.9 -4336.07 0)
(-33199.4 -232.433 0)
(238.399 -263.806 0)
(282.963 -294.483 0)
(198.063 -283.184 0)
(92.84 -270.528 0)
(28.8151 -207.961 0)
(-52.1182 -166.332 0)
(-101.996 -122.742 0)
(-138.4 -77.3559 0)
(-161.928 -44.253 0)
(-170.604 -14.3643 0)
(-173.57 2.95586 0)
(-162.209 19.7299 0)
(-146.749 33.5887 0)
(-127.239 47.2975 0)
(-107.502 59.9544 0)
(-87.9026 71.5337 0)
(-72.7442 81.4192 0)
(-59.3987 88.15 0)
(-45.9105 92.3268 0)
(-38.7365 93.9572 0)
(-33.7458 92.5645 0)
(-28.9157 89.3935 0)
(-23.3566 84.2803 0)
(-18.721 79.0779 0)
(-6.13002 71.2279 0)
(2.01439 66.0009 0)
(8.31583 58.3662 0)
(5.1769 50.466 0)
(-2.31345 36.1862 0)
(-10.3182 20.8766 0)
(-25.8171 -3.6188 0)
(-25.9047 -35.8147 0)
(16.6947 -71.8003 0)
(81.425 -99.853 0)
(111.609 -103.683 0)
(1132.78 -137.331 0)
(39165.4 -888.778 0)
(-42011.5 -7036.77 0)
(33341.1 -5050.26 0)
(-31074.5 -240.406 0)
(211.788 -254.272 0)
(267.496 -242.035 0)
(205.434 -244.601 0)
(132.873 -224.283 0)
(83.8787 -166.53 0)
(-7.09473 -126.308 0)
(-58.0792 -85.602 0)
(-100.733 -43.4066 0)
(-131.808 -10.6629 0)
(-147.279 16.9868 0)
(-154.855 31.3809 0)
(-144.074 48.1564 0)
(-130.04 61.4792 0)
(-111.001 75.5328 0)
(-92.2504 88.8866 0)
(-74.3042 101.354 0)
(-62.3423 112.005 0)
(-53.0462 119.218 0)
(-43.53 123.904 0)
(-40.4556 125.997 0)
(-38.6802 124.634 0)
(-36.0228 121.214 0)
(-31.4675 115.64 0)
(-28.3064 110.478 0)
(-15.9427 101.994 0)
(-7.67884 95.7747 0)
(-2.41279 85.7087 0)
(-8.22499 75.6882 0)
(-18.2255 58.017 0)
(-29.996 37.9707 0)
(-53.2466 9.43021 0)
(-59.9681 -25.9678 0)
(-20.1832 -67.7514 0)
(56.0702 -98.0939 0)
(82.2537 -111.391 0)
(771.483 -148.577 0)
(35682.7 -741.449 0)
(-38096.1 -7607.17 0)
(30622.4 -5723.58 0)
(-28577.8 -200.753 0)
(236.83 -203.4 0)
(292.282 -149.713 0)
(215.169 -173.628 0)
(168.072 -135.805 0)
(123.227 -92.9066 0)
(25.8668 -68.4634 0)
(-22.109 -28.1647 0)
(-66.1863 3.94238 0)
(-103.731 23.7979 0)
(-130.089 44.242 0)
(-143.533 55.1467 0)
(-133.205 71.6082 0)
(-120.368 85.2212 0)
(-100.828 100.515 0)
(-82.6195 115.396 0)
(-65.6246 129.371 0)
(-55.5295 141.354 0)
(-47.9328 148.679 0)
(-39.3786 152.294 0)
(-38.0331 152.665 0)
(-38.354 149.049 0)
(-37.5822 143.589 0)
(-33.7025 136.384 0)
(-31.8714 131.05 0)
(-20.2988 123.402 0)
(-13.6784 118.491 0)
(-11.0403 110.069 0)
(-21.5078 103.736 0)
(-38.6593 92.1083 0)
(-57.1382 76.5481 0)
(-87.4306 56.3715 0)
(-100.28 26.7323 0)
(-52.8086 -7.75168 0)
(39.3725 -42.2567 0)
(62.9613 -59.648 0)
(525.632 -79.2028 0)
(31978.1 -469.412 0)
(-34104.9 -8050.36 0)
(27714.7 -5132.34 0)
(-25755 -9.1083 0)
(260.972 -19.4582 0)
(296.185 11.5809 0)
(218.836 -30.3015 0)
(210.659 16.0597 0)
(148.772 17.1356 0)
(55.2929 11.8678 0)
(11.6936 71.943 0)
(-50.6604 66.2064 0)
(-92.9741 74.6817 0)
(-117.07 82.4019 0)
(-128.484 85.9275 0)
(-115.093 97.6073 0)
(-102.185 109.335 0)
(-81.9229 125.714 0)
(-64.4431 141.511 0)
(-49.2902 154.639 0)
(-43.7367 164.503 0)
(-42.5046 171.324 0)
(-39.6892 176.562 0)
(-43.5822 177.992 0)
(-47.4263 174.024 0)
(-48.2271 167.032 0)
(-43.5505 156.685 0)
(-40.8169 149.316 0)
(-28.0444 139.96 0)
(-20.5266 134.538 0)
(-16.6319 125.874 0)
(-25.5326 122.085 0)
(-44.4245 117.814 0)
(-64.4333 108.969 0)
(-101.251 104.004 0)
(-121.76 82.4873 0)
(-86.6636 68.8062 0)
(6.06105 37.5292 0)
(46.6511 26.9618 0)
(376.619 37.6496 0)
(28001.4 -152.074 0)
(-30067.5 -7125.22 0)
(25911.2 -5051.08 0)
(-23650.8 195.304 0)
(256.767 157.808 0)
(281.833 111.967 0)
(219.485 74.4775 0)
(213.785 106.183 0)
(119.188 80.8425 0)
(78.6811 99.6014 0)
(30.2537 150.264 0)
(-63.5472 118.112 0)
(-88.1245 124.7 0)
(-119.252 113.151 0)
(-128.881 106.753 0)
(-110.649 106.043 0)
(-93.2834 106.839 0)
(-69.8221 118.616 0)
(-54.7463 132.48 0)
(-43.4685 147.01 0)
(-39.4513 159.348 0)
(-36.3124 165.887 0)
(-32.9532 168.793 0)
(-40.479 168.139 0)
(-48.9153 162.773 0)
(-54.2903 158.347 0)
(-50.7739 152.72 0)
(-47.9882 153.559 0)
(-34.5398 154.802 0)
(-27.2528 155.063 0)
(-23.0408 154.946 0)
(-29.274 152.936 0)
(-51.2983 156.863 0)
(-70.4462 142.228 0)
(-112.949 138.618 0)
(-134.198 106.513 0)
(-96.1318 86.3212 0)
(-0.950246 65.0272 0)
(63.0773 68.9116 0)
(353.106 98.0852 0)
(25075.6 84.4419 0)
(-27438.5 -7067.38 0)
(23628.1 31052.7 0)
(-20735.6 2641.31 0)
(180.665 997.292 0)
(215.885 756.657 0)
(213.263 790.781 0)
(216.792 1026.38 0)
(142.429 1367.2 0)
(122.19 1853.27 0)
(29.5307 2250.99 0)
(-75.2948 2580.27 0)
(-97.7539 2842.2 0)
(-134.365 3011.58 0)
(-135.333 3140.69 0)
(-115.009 3219.42 0)
(-90.0692 3275.21 0)
(-57.2147 3304.77 0)
(-37.0823 3336.35 0)
(-23.399 3313.7 0)
(-25.5461 3325.64 0)
(-33.4029 3255.01 0)
(-37.5193 3253.96 0)
(-49.3833 3329.56 0)
(-56.8616 3321.41 0)
(-57.9148 3370.51 0)
(-48.1646 3326.99 0)
(-38.8107 3314.96 0)
(-26.5951 3243.03 0)
(-20.3881 3160.72 0)
(-18.6819 3038.3 0)
(-23.6854 2840.26 0)
(-54.743 2621.89 0)
(-82.014 2238.77 0)
(-135.667 1840.3 0)
(-172.155 1361.95 0)
(-126.641 984.492 0)
(-10.7155 690.986 0)
(78.507 556.656 0)
(391.585 551.063 0)
(21096.5 2165.93 0)
(-24032.5 27095 0)
(56912.5 651345 0)
(-52613.3 58155.7 0)
(-1559.35 26792.9 0)
(82.8317 30949.8 0)
(479.401 34054.5 0)
(769.238 38061.1 0)
(916.012 41536.3 0)
(930.337 44972.2 0)
(730.815 47878.4 0)
(506.162 50638 0)
(327.503 53129.7 0)
(168.384 55228.7 0)
(71.4025 57160.5 0)
(18.9803 58823.9 0)
(-11.0397 60298 0)
(-10.9006 61550.4 0)
(-46.1432 62650.5 0)
(-53.796 63547.8 0)
(-96.0038 63913.5 0)
(-105.38 64071.1 0)
(38.885 64032.6 0)
(24.5209 63712.6 0)
(-9.45721 63365.8 0)
(-48.9198 62130.4 0)
(-104.305 61000.4 0)
(-128.889 59284.8 0)
(-183.172 57653 0)
(-224.543 55510 0)
(-331.848 53407.5 0)
(-430.539 50648.7 0)
(-630.915 47896.8 0)
(-823.616 44629.9 0)
(-957.885 41234.7 0)
(-958.886 37533.4 0)
(-742.694 33683.9 0)
(-413.228 29480.8 0)
(-71.7574 26380.6 0)
(1903.86 22005.5 0)
(50654.3 51127.3 0)
(-54167.9 593494 0)
(701680 -725546 0)
(-622576 -62148.4 0)
(-26035.9 -31406.7 0)
(7213.4 -35238.8 0)
(7065.95 -38339.5 0)
(7426.6 -42725.2 0)
(6802.22 -46592.7 0)
(6233.63 -50496.2 0)
(5489.31 -53779.7 0)
(4985.1 -56674 0)
(4325.98 -59217.7 0)
(3749.81 -61251.3 0)
(3329.15 -63055.8 0)
(2908.44 -64601.7 0)
(2537.27 -65961.5 0)
(2209.68 -67127.3 0)
(1887.73 -68181 0)
(1193.7 -69027.5 0)
(478.726 -69359.7 0)
(81.3493 -69425.8 0)
(-382.981 -69345.6 0)
(-691.959 -69027.2 0)
(-1581.58 -68639.3 0)
(-2337.29 -67347 0)
(-2790.26 -66142 0)
(-3264.43 -64353.2 0)
(-3664.11 -62636.8 0)
(-4111.53 -60414.6 0)
(-4703.18 -58222 0)
(-5333.95 -55297.4 0)
(-5854.72 -52369.4 0)
(-6501.93 -48712.2 0)
(-6974.07 -44904.9 0)
(-7448.34 -40633.1 0)
(-7886.41 -36336.4 0)
(-7048.43 -31880.9 0)
(-7124.97 -28963.2 0)
(24238.4 -25153 0)
(571804 -54618 0)
(-639121 -664824 0)
(701680 725546 0)
(-622576 62148.4 0)
(-26035.9 31406.7 0)
(7213.4 35238.8 0)
(7065.95 38339.5 0)
(7426.6 42725.2 0)
(6802.22 46592.7 0)
(6233.63 50496.2 0)
(5489.31 53779.7 0)
(4985.1 56674 0)
(4325.98 59217.7 0)
(3749.81 61251.3 0)
(3329.15 63055.8 0)
(2908.44 64601.7 0)
(2537.27 65961.5 0)
(2209.68 67127.3 0)
(1887.73 68181 0)
(1193.7 69027.5 0)
(478.726 69359.7 0)
(81.3494 69425.8 0)
(-382.981 69345.6 0)
(-691.959 69027.2 0)
(-1581.58 68639.3 0)
(-2337.29 67347 0)
(-2790.26 66142 0)
(-3264.43 64353.2 0)
(-3664.11 62636.8 0)
(-4111.53 60414.6 0)
(-4703.18 58222 0)
(-5333.95 55297.4 0)
(-5854.72 52369.4 0)
(-6501.93 48712.2 0)
(-6974.07 44904.9 0)
(-7448.34 40633.1 0)
(-7886.41 36336.4 0)
(-7048.43 31880.9 0)
(-7124.97 28963.2 0)
(24238.4 25153 0)
(571804 54618 0)
(-639121 664824 0)
(56912.5 -651345 0)
(-52613.3 -58155.7 0)
(-1559.35 -26792.9 0)
(82.8317 -30949.8 0)
(479.401 -34054.5 0)
(769.238 -38061.1 0)
(916.012 -41536.3 0)
(930.337 -44972.2 0)
(730.815 -47878.4 0)
(506.162 -50638 0)
(327.503 -53129.7 0)
(168.384 -55228.7 0)
(71.4025 -57160.5 0)
(18.9803 -58823.9 0)
(-11.0397 -60298 0)
(-10.9006 -61550.4 0)
(-46.1432 -62650.5 0)
(-53.796 -63547.8 0)
(-96.0038 -63913.5 0)
(-105.38 -64071.1 0)
(38.885 -64032.6 0)
(24.5209 -63712.6 0)
(-9.45721 -63365.8 0)
(-48.9198 -62130.4 0)
(-104.305 -61000.4 0)
(-128.889 -59284.8 0)
(-183.172 -57653 0)
(-224.543 -55510 0)
(-331.848 -53407.5 0)
(-430.539 -50648.7 0)
(-630.915 -47896.8 0)
(-823.616 -44629.9 0)
(-957.885 -41234.7 0)
(-958.886 -37533.4 0)
(-742.694 -33683.9 0)
(-413.228 -29480.8 0)
(-71.7574 -26380.6 0)
(1903.86 -22005.5 0)
(50654.3 -51127.3 0)
(-54167.9 -593494 0)
(23628.1 -31052.7 0)
(-20735.6 -2641.31 0)
(180.665 -997.292 0)
(215.885 -756.657 0)
(213.263 -790.781 0)
(216.792 -1026.38 0)
(142.429 -1367.2 0)
(122.19 -1853.27 0)
(29.5307 -2250.99 0)
(-75.2948 -2580.27 0)
(-97.7539 -2842.2 0)
(-134.365 -3011.58 0)
(-135.333 -3140.69 0)
(-115.009 -3219.42 0)
(-90.0692 -3275.21 0)
(-57.2147 -3304.77 0)
(-37.0823 -3336.35 0)
(-23.399 -3313.7 0)
(-25.5461 -3325.64 0)
(-33.4029 -3255.01 0)
(-37.5193 -3253.96 0)
(-49.3833 -3329.56 0)
(-56.8616 -3321.41 0)
(-57.9148 -3370.51 0)
(-48.1646 -3326.99 0)
(-38.8107 -3314.96 0)
(-26.5951 -3243.03 0)
(-20.3881 -3160.72 0)
(-18.6819 -3038.3 0)
(-23.6854 -2840.26 0)
(-54.743 -2621.89 0)
(-82.014 -2238.77 0)
(-135.667 -1840.3 0)
(-172.155 -1361.95 0)
(-126.641 -984.492 0)
(-10.7155 -690.986 0)
(78.507 -556.656 0)
(391.585 -551.063 0)
(21096.5 -2165.93 0)
(-24032.5 -27095 0)
(25911.2 5051.08 0)
(-23650.8 -195.304 0)
(256.767 -157.808 0)
(281.833 -111.967 0)
(219.485 -74.4775 0)
(213.785 -106.183 0)
(119.188 -80.8425 0)
(78.6811 -99.6014 0)
(30.2537 -150.264 0)
(-63.5472 -118.112 0)
(-88.1245 -124.7 0)
(-119.252 -113.151 0)
(-128.881 -106.753 0)
(-110.649 -106.043 0)
(-93.2834 -106.839 0)
(-69.8221 -118.616 0)
(-54.7463 -132.48 0)
(-43.4685 -147.01 0)
(-39.4513 -159.348 0)
(-36.3124 -165.887 0)
(-32.9532 -168.793 0)
(-40.479 -168.139 0)
(-48.9153 -162.773 0)
(-54.2903 -158.347 0)
(-50.7739 -152.72 0)
(-47.9882 -153.559 0)
(-34.5398 -154.802 0)
(-27.2528 -155.063 0)
(-23.0408 -154.946 0)
(-29.274 -152.936 0)
(-51.2983 -156.863 0)
(-70.4462 -142.228 0)
(-112.949 -138.618 0)
(-134.198 -106.513 0)
(-96.1318 -86.3212 0)
(-0.950245 -65.0272 0)
(63.0773 -68.9116 0)
(353.106 -98.0852 0)
(25075.6 -84.4419 0)
(-27438.5 7067.38 0)
(27714.7 5132.34 0)
(-25755 9.1083 0)
(260.972 19.4582 0)
(296.185 -11.5809 0)
(218.836 30.3015 0)
(210.659 -16.0597 0)
(148.772 -17.1356 0)
(55.2929 -11.8678 0)
(11.6936 -71.943 0)
(-50.6604 -66.2064 0)
(-92.9741 -74.6817 0)
(-117.07 -82.4019 0)
(-128.484 -85.9275 0)
(-115.093 -97.6073 0)
(-102.185 -109.335 0)
(-81.9229 -125.714 0)
(-64.4431 -141.511 0)
(-49.2902 -154.639 0)
(-43.7367 -164.503 0)
(-42.5046 -171.324 0)
(-39.6892 -176.562 0)
(-43.5822 -177.992 0)
(-47.4263 -174.024 0)
(-48.2271 -167.032 0)
(-43.5505 -156.685 0)
(-40.8169 -149.316 0)
(-28.0444 -139.96 0)
(-20.5266 -134.538 0)
(-16.6319 -125.874 0)
(-25.5326 -122.085 0)
(-44.4245 -117.814 0)
(-64.4333 -108.969 0)
(-101.251 -104.004 0)
(-121.76 -82.4873 0)
(-86.6636 -68.8062 0)
(6.06105 -37.5292 0)
(46.6511 -26.9618 0)
(376.619 -37.6496 0)
(28001.4 152.074 0)
(-30067.5 7125.22 0)
(30622.4 5723.58 0)
(-28577.8 200.753 0)
(236.83 203.4 0)
(292.282 149.713 0)
(215.169 173.628 0)
(168.072 135.805 0)
(123.227 92.9066 0)
(25.8668 68.4634 0)
(-22.109 28.1647 0)
(-66.1863 -3.94238 0)
(-103.731 -23.7979 0)
(-130.089 -44.242 0)
(-143.533 -55.1467 0)
(-133.205 -71.6082 0)
(-120.368 -85.2212 0)
(-100.828 -100.515 0)
(-82.6195 -115.396 0)
(-65.6246 -129.371 0)
(-55.5295 -141.354 0)
(-47.9328 -148.679 0)
(-39.3786 -152.294 0)
(-38.0331 -152.665 0)
(-38.354 -149.049 0)
(-37.5822 -143.589 0)
(-33.7025 -136.384 0)
(-31.8714 -131.05 0)
(-20.2988 -123.402 0)
(-13.6784 -118.491 0)
(-11.0403 -110.069 0)
(-21.5078 -103.736 0)
(-38.6593 -92.1083 0)
(-57.1382 -76.5481 0)
(-87.4306 -56.3715 0)
(-100.28 -26.7323 0)
(-52.8086 7.75168 0)
(39.3725 42.2567 0)
(62.9613 59.648 0)
(525.632 79.2028 0)
(31978.1 469.412 0)
(-34104.9 8050.36 0)
(33341.1 5050.26 0)
(-31074.5 240.406 0)
(211.788 254.272 0)
(267.496 242.035 0)
(205.434 244.601 0)
(132.873 224.283 0)
(83.8787 166.53 0)
(-7.09473 126.308 0)
(-58.0792 85.602 0)
(-100.733 43.4066 0)
(-131.808 10.6629 0)
(-147.279 -16.9868 0)
(-154.855 -31.3809 0)
(-144.074 -48.1564 0)