/*--------------------------------*- C++ -*----------------------------------*\
| =========                 |                                                 |
| \\      /  F ield         | OpenFOAM: The Open Source CFD Toolbox           |
|  \\    /   O peration     | Version:  v1912                                 |
|   \\  /    A nd           | Website:  www.openfoam.com                      |
|    \\/     M anipulation  |                                                 |
\*---------------------------------------------------------------------------*/
FoamFile
{
    version     2.0;
    format      ascii;
    class       volTensorField;
    location    "6.14";
    object      grad(U);
}
// * * * * * * * * * * * * * * * * * * * * * * * * * * * * * * * * * * * * * //

dimensions      [0 0 -1 0 0 0 0];


internalField   nonuniform List<tensor> 
1900
(
(-4.45742 -1.7347e-05 0 6.32491e-06 -5.02374e-06 0 0 0 0)
(4.56817 4.33128e-06 0 3.5214e-05 -2.71215e-05 0 0 0 0)
(0.739571 5.6634e-05 0 5.3907e-05 3.65001e-05 0 0 0 0)
(0.0103764 0.000180714 0 0.000117797 0.000134818 0 0 0 0)
(0.0392651 -0.000441593 0 0.000167472 0.000360758 0 0 0 0)
(0.0340982 -0.00120792 0 -0.000134466 -0.000674328 0 0 0 0)
(0.0292267 0.00215837 0 -0.00159356 -0.00193994 0 0 0 0)
(0.013619 0.0173835 0 -0.00348293 0.00319468 0 0 0 0)
(-0.0450502 0.0585799 0 0.00658699 0.0278353 0 0 0 0)
(-0.035653 0.207495 0 0.0555935 0.114668 0 0 0 0)
(-4.45738 -1.47982e-05 0 6.91732e-06 4.27166e-06 0 0 0 0)
(4.56821 3.71926e-05 0 5.33345e-05 1.30753e-05 0 0 0 0)
(0.739654 0.000105306 0 8.02351e-05 -5.96235e-08 0 0 0 0)
(0.01049 0.000143545 0 0.000149387 -4.35587e-05 0 0 0 0)
(0.0390128 -0.000367553 0 9.63047e-05 -0.000180773 0 0 0 0)
(0.0323371 -0.00109278 0 -0.000448262 0.000398034 0 0 0 0)
(0.0258783 0.00171063 0 -0.00223737 0.00102715 0 0 0 0)
(0.0217995 0.0123917 0 -0.00420472 -0.00176034 0 0 0 0)
(0.0140263 0.0528934 0 0.00960582 -0.0163563 0 0 0 0)
(0.086391 0.142732 0 0.0892696 -0.0603402 0 0 0 0)
(-4.45736 -5.71358e-13 0 4.11997e-14 1.50415e-06 0 0 0 0)
(4.56824 -5.7829e-13 0 -8.72376e-13 2.80923e-05 0 0 0 0)
(0.739667 -8.63212e-14 0 -1.22732e-12 -7.2881e-05 0 0 0 0)
(0.0103925 7.82778e-13 0 -8.92434e-13 -0.000182519 0 0 0 0)
(0.0386675 8.6347e-13 0 -2.26869e-13 -0.00035997 0 0 0 0)
(0.0317645 -1.1871e-13 0 5.53756e-13 0.000552587 0 0 0 0)
(0.0254703 -4.17877e-13 0 1.22677e-12 0.00182559 0 0 0 0)
(0.0254621 2.36485e-13 0 1.08393e-12 -0.00286868 0 0 0 0)
(0.0484241 4.07248e-13 0 -1.30104e-13 -0.0229579 0 0 0 0)
(0.142031 -1.16317e-13 0 3.57109e-13 -0.108655 0 0 0 0)
(-4.45738 1.47982e-05 0 -6.91731e-06 4.27166e-06 0 0 0 0)
(4.56821 -3.71926e-05 0 -5.33345e-05 1.30753e-05 0 0 0 0)
(0.739654 -0.000105306 0 -8.02351e-05 -5.96227e-08 0 0 0 0)
(0.01049 -0.000143545 0 -0.000149387 -4.35587e-05 0 0 0 0)
(0.0390128 0.000367553 0 -9.63047e-05 -0.000180773 0 0 0 0)
(0.0323371 0.00109278 0 0.000448262 0.000398034 0 0 0 0)
(0.0258783 -0.00171063 0 0.00223737 0.00102715 0 0 0 0)
(0.0217995 -0.0123917 0 0.00420472 -0.00176034 0 0 0 0)
(0.0140263 -0.0528934 0 -0.00960582 -0.0163563 0 0 0 0)
(0.086391 -0.142732 0 -0.0892696 -0.0603402 0 0 0 0)
(-4.45742 1.7347e-05 0 -6.3249e-06 -5.02374e-06 0 0 0 0)
(4.56817 -4.33129e-06 0 -3.5214e-05 -2.71215e-05 0 0 0 0)
(0.739571 -5.6634e-05 0 -5.3907e-05 3.65001e-05 0 0 0 0)
(0.0103764 -0.000180714 0 -0.000117797 0.000134818 0 0 0 0)
(0.0392651 0.000441593 0 -0.000167472 0.000360758 0 0 0 0)
(0.0340982 0.00120792 0 0.000134466 -0.000674328 0 0 0 0)
(0.0292267 -0.00215837 0 0.00159356 -0.00193994 0 0 0 0)
(0.013619 -0.0173835 0 0.00348293 0.00319468 0 0 0 0)
(-0.0450502 -0.0585799 0 -0.00658699 0.0278353 0 0 0 0)
(-0.035653 -0.207495 0 -0.0555935 0.114668 0 0 0 0)
(0.160141 0.409327 -2.01271e-17 0.234632 -0.228338 3.01906e-17 5.73414e-17 7.29907e-17 -5.45545e-33)
(0.503071 0.547631 0 0.288017 -0.446489 0 -1.56734e-16 -4.68007e-17 0)
(0.788543 0.962318 0 0.292241 -0.779138 0 -2.56279e-16 -8.28548e-17 0)
(1.47483 1.56961 0 0.337529 -1.41115 0 0 0 0)
(2.81001 1.79051 2.62673e-16 1.13774 -3.4363 -3.94009e-16 -2.24688e-15 -1.49792e-15 -7.11975e-32)
(0.233727 0.159252 0 0.181341 -0.206225 0 9.97394e-17 3.17299e-17 0)
(0.419336 0.163199 0 0.151323 -0.334136 0 1.56734e-16 4.68007e-17 0)
(0.742588 0.409155 0 0.0641821 -0.611909 0 2.56279e-16 8.28548e-17 0)
(1.66405 0.862169 0 -0.0512313 -1.31172 0 0 0 0)
(3.70156 0.566864 0 -0.13759 -3.05454 0 0 0 0)
(0.290257 -4.12012e-13 0 -5.27861e-14 -0.289925 0 0 0 0)
(0.443695 2.37439e-14 0 -5.0822e-14 -0.367712 0 0 0 0)
(0.73468 2.6098e-13 0 2.07052e-14 -0.610263 0 0 0 0)
(1.5761 1.37851e-13 0 -6.77626e-14 -1.33172 0 0 0 0)
(3.48116 -3.70068e-14 0 2.72664e-13 -3.59739 0 0 0 0)
(0.233727 -0.159252 0 -0.181341 -0.206225 0 9.97394e-17 -3.17299e-17 0)
(0.419336 -0.163199 0 -0.151323 -0.334136 0 1.56734e-16 -4.68007e-17 0)
(0.742588 -0.409155 0 -0.0641821 -0.611909 0 2.56279e-16 -8.28548e-17 0)
(1.66405 -0.862169 0 0.0512313 -1.31172 0 0 0 0)
(3.70156 -0.566864 0 0.13759 -3.05454 0 0 0 0)
(0.160141 -0.409327 2.01271e-17 -0.234632 -0.228338 3.01906e-17 -2.5682e-16 1.3645e-16 -5.45545e-33)
(0.503071 -0.547631 0 -0.288017 -0.446489 0 -1.56734e-16 4.68007e-17 0)
(0.788543 -0.962318 0 -0.292241 -0.779138 0 -2.56279e-16 8.28548e-17 0)
(1.47483 -1.56961 9.21917e-17 -0.337529 -1.41115 1.38288e-16 -9.18519e-16 6.12346e-16 -2.49886e-32)
(2.81001 -1.79051 -2.62673e-16 -1.13774 -3.4363 -3.94009e-16 2.24688e-15 -1.49792e-15 -7.11975e-32)
(4.38735 -0.771489 -1.80496e-17 0.0631119 4.36286 -1.62446e-16 2.27504e-15 -1.21175e-16 4.89235e-33)
(2.6968 -0.271982 9.62766e-18 0.477137 2.88958 8.66489e-17 -2.60556e-15 2.00885e-16 2.60958e-33)
(0.919615 -0.0165737 0 0.700106 2.47752 0 0 0 0)
(-0.506901 0.145645 -4.24355e-18 0.669541 1.84219 -3.81919e-17 2.30102e-15 -1.97947e-16 1.15022e-33)
(-0.16885 -0.17498 4.05834e-18 0.550624 1.67478 3.6525e-17 -9.67473e-16 1.07497e-16 1.10001e-33)
(4.47164 -0.942622 0 -0.600879 -0.600348 0 -1.13847e-15 -5.10994e-18 0)
(2.94472 -0.211409 0 0.22284 0.951399 0 1.30996e-15 -5.69304e-17 0)
(1.04263 -0.0178654 0 0.370468 1.37371 0 0 0 0)
(-0.507125 0.100133 0 0.389815 1.46965 0 -1.45367e-15 7.79764e-17 0)
(-0.23961 -0.0623673 0 0.320243 1.17828 0 2.48425e-16 -5.39305e-18 0)
(4.46689 -1.41645e-13 0 -4.38061e-14 0.861355 0 0 0 0)
(2.9163 -1.51995e-13 0 1.01934e-13 1.87785 0 0 0 0)
(0.939614 2.26268e-13 0 2.08809e-13 2.05906 0 0 0 0)
(-0.553646 -4.03019e-13 0 -7.08629e-15 1.79119 0 5.86165e-16 1.91298e-29 0)
(-0.329562 2.30009e-12 0 -5.64292e-13 1.43257 0 -4.9685e-16 2.2784e-29 0)
(4.47164 0.942622 0 0.600879 -0.600348 0 -1.13847e-15 5.10994e-18 0)
(2.94472 0.211409 0 -0.22284 0.951399 0 1.30996e-15 5.69304e-17 0)
(1.04263 0.0178654 0 -0.370468 1.37371 0 0 0 0)
(-0.507125 -0.100133 0 -0.389815 1.46965 0 -1.45367e-15 -7.79764e-17 0)
(-0.23961 0.0623673 0 -0.320243 1.17828 0 2.48425e-16 5.39305e-18 0)
(4.38735 0.771489 0 -0.0631119 4.36286 0 1.13847e-15 -5.10994e-18 0)
(2.6968 0.271982 -9.62766e-18 -0.477137 2.88958 8.66489e-17 -1.43698e-17 8.70246e-17 2.60958e-33)
(0.919615 0.0165737 0 -0.700106 2.47752 0 0 0 0)
(-0.506901 -0.145645 4.24355e-18 -0.669541 1.84219 -3.81919e-17 2.01644e-17 -5.54806e-17 1.15022e-33)
(-0.16885 0.17498 -4.05834e-18 -0.550624 1.67478 3.6525e-17 9.67473e-16 1.07497e-16 1.10001e-33)
(0.492501 -0.592065 0 0.612031 2.32731 0 0 0 0)
(0.477054 0.231375 0 1.18073 2.05954 0 0 0 0)
(-0.234869 0.820711 0 1.36707 1.11706 0 0 0 0)
(-1.62938 0.26161 0 1.69941 0.379146 0 0 0 0)
(-1.98299 -0.251944 0 1.06317 0.776517 0 0 0 0)
(-1.27828 -0.276075 0 0.935185 1.22306 0 0 0 0)
(-1.12791 -0.124228 0 1.08231 1.43534 0 0 0 0)
(-0.984484 0.148853 0 0.759373 1.22756 0 0 0 0)
(-0.792027 0.233767 0 0.373191 0.856461 0 0 0 0)
(-0.741395 0.163142 0 0.163539 0.564347 0 0 0 0)
(-0.658515 0.0887455 0 0.0721088 0.380924 0 0 0 0)
(-0.413007 0.0413796 0 0.0300155 0.283475 0 0 0 0)
(-0.161974 0.0174294 0 0.0106544 0.241359 0 0 0 0)
(-0.0480862 0.00794085 0 0.00413757 0.223285 0 0 0 0)
(-0.0173953 0.00511242 0 0.00382283 0.213954 0 0 0 0)
(-0.00227551 0.00557239 0 0.0044124 0.204592 0 0 0 0)
(0.0248794 0.00461453 0 0.00136561 0.195293 0 0 0 0)
(0.0687506 0.00182138 0 -0.000676701 0.190347 0 0 0 0)
(0.112959 0.00027661 0 -0.000894116 0.188634 0 0 0 0)
(0.141034 -3.75647e-05 0 -0.00050669 0.18868 0 0 0 0)
(0.15352 0.000250113 0 6.68532e-05 0.188524 0 0 0 0)
(0.158116 0.000369254 0 0.000652448 0.187778 0 0 0 0)
(0.159911 0.000265948 0 0.00117219 0.187243 0 0 0 0)
(0.160982 0.000208461 0 0.00162081 0.186852 0 0 0 0)
(0.161904 0.000212397 0 0.00202011 0.186514 0 0 0 0)
(0.161642 5.82141e-05 0 0.00238217 0.186112 0 0 0 0)
(0.162326 0.000364304 0 0.00274092 0.186316 0 0 0 0)
(0.160326 -4.25713e-05 0 0.00300763 0.184861 0 0 0 0)
(0.155407 5.42695e-05 0 0.00328618 0.186449 0 0 0 0)
(0.152742 -0.000232036 0 0.00346422 0.184701 0 0 0 0)
(0.149487 0.000197495 0 0.00363973 0.187223 0 0 0 0)
(0.145621 -0.00102012 0 0.00371673 0.184068 0 0 0 0)
(0.137021 0.000726838 0 0.00372217 0.190505 0 0 0 0)
(0.12147 -0.00150908 0 0.0029735 0.18195 0 0 0 0)
(0.0915694 -0.000448461 0 0.00265662 0.195198 0 0 0 0)
(0.0756261 -0.000762221 0 -0.000958643 0.183751 0 0 0 0)
(0.0629629 -0.00408816 0 0.00287173 0.199215 0 0 0 0)
(-0.036963 -0.00245065 0 0.00180014 0.19517 0 0 0 0)
(-0.818911 -0.00648519 0 -0.0113349 0.19715 0 0 0 0)
(-0.759427 -0.00360465 0 -0.0221933 0.201681 0 0 0 0)
(0.570092 -0.276713 0 0.0253259 2.20132 0 0 0 0)
(0.539263 0.101621 0 0.246202 2.91955 0 0 0 0)
(-0.285661 0.402639 0 0.185888 1.40597 0 0 0 0)
(-1.69023 0.133539 0 0.398975 0.0983538 0 0 0 0)
(-2.04712 -0.0871091 0 0.26552 0.50669 0 0 0 0)
(-1.24243 -0.130212 0 0.107375 0.964413 0 0 0 0)
(-1.10806 -0.0632502 0 0.212768 1.4557 0 0 0 0)
(-1.06067 0.0750447 0 0.151759 1.39145 0 0 0 0)
(-0.87373 0.114191 0 0.0790491 0.944017 0 0 0 0)
(-0.787013 0.0763083 0 0.0692457 0.587874 0 0 0 0)
(-0.678812 0.0422543 0 0.0400459 0.383217 0 0 0 0)
(-0.419962 0.0208848 0 0.00859139 0.282812 0 0 0 0)
(-0.163534 0.00876154 0 -0.0026598 0.240974 0 0 0 0)
(-0.0479071 0.00396021 0 -0.00370875 0.222898 0 0 0 0)
(-0.0170184 0.00255661 0 -0.00218701 0.213677 0 0 0 0)
(-0.00235881 0.0027582 0 -0.00176361 0.205324 0 0 0 0)
(0.0247884 0.00230099 0 -0.00207541 0.194522 0 0 0 0)
(0.0690422 0.000863948 0 -0.00211763 0.189461 0 0 0 0)
(0.113356 0.000110046 0 -0.00142071 0.188261 0 0 0 0)
(0.141409 -2.80842e-05 0 -0.000674762 0.188511 0 0 0 0)
(0.1539 0.000125078 0 0.000101136 0.18839 0 0 0 0)
(0.158488 0.000184047 0 0.000872773 0.187651 0 0 0 0)
(0.16026 0.000130887 0 0.00160012 0.187121 0 0 0 0)
(0.161307 0.000101304 0 0.00228007 0.186737 0 0 0 0)
(0.162209 0.000103188 0 0.00292719 0.186405 0 0 0 0)
(0.161933 2.64195e-05 0 0.00355427 0.186006 0 0 0 0)
(0.162594 0.000180007 0 0.00418611 0.186204 0 0 0 0)
(0.160576 -2.24e-05 0 0.0047734 0.184754 0 0 0 0)
(0.155642 2.83983e-05 0 0.00540993 0.186351 0 0 0 0)
(0.152958 -0.000115112 0 0.00604826 0.184568 0 0 0 0)
(0.149683 0.000102639 0 0.0067516 0.187148 0 0 0 0)
(0.145781 -0.00051282 0 0.00750218 0.183889 0 0 0 0)
(0.137094 0.000385744 0 0.00832516 0.190655 0 0 0 0)
(0.121534 -0.000742581 0 0.00905893 0.18139 0 0 0 0)
(0.091305 -0.000173255 0 0.010399 0.195842 0 0 0 0)
(0.0757809 -0.000296877 0 0.010514 0.182932 0 0 0 0)
(0.0633213 -0.00209091 0 0.014935 0.198463 0 0 0 0)
(-0.0390754 -0.00155807 0 0.0181895 0.196985 0 0 0 0)
(-0.822088 -0.00353677 0 0.0123404 0.206887 0 0 0 0)
(-0.760613 -0.00182625 0 0.00573754 0.219278 0 0 0 0)
(0.457994 8.30895e-13 0 -1.83565e-11 2.14592 0 0 0 0)
(0.523763 1.8922e-12 0 4.37387e-11 3.09282 0 0 0 0)
(-0.190426 -7.82227e-11 0 -8.1737e-11 1.44727 0 0 0 0)
(-1.60621 1.13271e-10 0 -8.44712e-10 0.324673 0 0 0 0)
(-2.06782 1.31375e-10 0 -1.22338e-09 0.529188 0 0 0 0)
(-1.29363 -1.2603e-10 0 1.82229e-10 0.923548 0 0 0 0)
(-1.115 -6.50147e-11 0 1.49992e-10 1.4244 0 0 0 0)
(-1.02338 1.66141e-11 0 -2.55694e-11 1.35839 0 0 0 0)
(-0.816031 2.76654e-11 0 -9.6975e-11 0.908466 0 0 0 0)
(-0.752742 4.59751e-12 0 -7.64639e-11 0.573333 0 0 0 0)
(-0.67616 -5.56364e-12 0 -5.07895e-11 0.383847 0 0 0 0)
(-0.42543 1.48705e-12 0 -4.52584e-11 0.282835 0 0 0 0)
(-0.165552 9.7658e-12 0 -5.07e-11 0.240263 0 0 0 0)
(-0.0479487 1.13741e-11 0 -5.55728e-11 0.2226 0 0 0 0)
(-0.0168294 7.57815e-12 0 -5.31747e-11 0.213037 0 0 0 0)
(-0.00224304 -8.34468e-12 0 -4.35611e-11 0.205023 0 0 0 0)
(0.0247765 -3.82414e-11 0 -2.33039e-11 0.194074 0 0 0 0)
(0.0689411 -6.08011e-11 0 7.26329e-12 0.189204 0 0 0 0)
(0.113379 -3.28619e-11 0 2.82451e-11 0.188135 0 0 0 0)
(0.141476 2.17392e-11 0 4.36216e-11 0.188447 0 0 0 0)
(0.15397 6.14288e-11 0 5.70219e-11 0.188328 0 0 0 0)
(0.158553 5.08647e-11 0 6.99818e-11 0.187587 0 0 0 0)
(0.16032 -1.77387e-11 0 8.03056e-11 0.187063 0 0 0 0)
(0.161368 -7.50044e-11 0 8.41484e-11 0.186687 0 0 0 0)
(0.162274 -6.20686e-11 0 7.84864e-11 0.186366 0 0 0 0)
(0.162008 -3.18088e-11 0 6.54301e-11 0.185978 0 0 0 0)
(0.162681 3.31245e-12 0 4.93933e-11 0.186184 0 0 0 0)
(0.160682 6.49368e-11 0 3.6166e-11 0.18474 0 0 0 0)
(0.155778 3.20005e-11 0 2.46528e-11 0.186338 0 0 0 0)
(0.153132 2.46406e-11 0 1.90139e-11 0.184545 0 0 0 0)
(0.14991 7.10819e-11 0 8.65785e-12 0.18713 0 0 0 0)
(0.146078 -4.4708e-12 0 -9.80316e-12 0.18384 0 0 0 0)
(0.137474 -4.80747e-11 0 -4.3991e-11 0.190655 0 0 0 0)
(0.122073 1.51289e-11 0 -9.43029e-11 0.181188 0 0 0 0)
(0.0919927 4.30932e-11 0 -1.51781e-10 0.195761 0 0 0 0)
(0.0769456 -9.49083e-12 0 -2.01439e-10 0.182379 0 0 0 0)
(0.0651958 -1.9435e-11 0 -2.49871e-10 0.197802 0 0 0 0)
(-0.0377177 1.06041e-11 0 -2.78258e-10 0.196754 0 0 0 0)
(-0.822533 3.25088e-12 0 -2.31103e-10 0.208513 0 0 0 0)
(-0.761348 2.55834e-14 0 -1.54985e-10 0.221069 0 0 0 0)
(0.570092 0.276713 0 -0.0253259 2.20132 0 0 0 0)
(0.539263 -0.101621 0 -0.246202 2.91955 0 0 0 0)
(-0.285661 -0.402639 0 -0.185888 1.40597 0 0 0 0)
(-1.69023 -0.133539 0 -0.398975 0.0983538 0 0 0 0)
(-2.04712 0.0871091 0 -0.26552 0.50669 0 0 0 0)
(-1.24243 0.130212 0 -0.107375 0.964413 0 0 0 0)
(-1.10806 0.0632502 0 -0.212768 1.4557 0 0 0 0)
(-1.06067 -0.0750447 0 -0.151759 1.39145 0 0 0 0)
(-0.87373 -0.114191 0 -0.0790491 0.944017 0 0 0 0)
(-0.787013 -0.0763083 0 -0.0692457 0.587874 0 0 0 0)
(-0.678812 -0.0422543 0 -0.0400459 0.383217 0 0 0 0)
(-0.419962 -0.0208848 0 -0.00859139 0.282812 0 0 0 0)
(-0.163534 -0.00876154 0 0.0026598 0.240974 0 0 0 0)
(-0.0479071 -0.00396021 0 0.00370875 0.222898 0 0 0 0)
(-0.0170184 -0.00255661 0 0.00218701 0.213677 0 0 0 0)
(-0.00235881 -0.0027582 0 0.00176361 0.205324 0 0 0 0)
(0.0247884 -0.00230099 0 0.00207541 0.194522 0 0 0 0)
(0.0690422 -0.000863948 0 0.00211763 0.189461 0 0 0 0)
(0.113356 -0.000110046 0 0.00142071 0.188261 0 0 0 0)
(0.141409 2.80842e-05 0 0.000674762 0.188511 0 0 0 0)
(0.1539 -0.000125077 0 -0.000101137 0.18839 0 0 0 0)
(0.158488 -0.000184047 0 -0.000872773 0.187651 0 0 0 0)
(0.16026 -0.000130887 0 -0.00160012 0.187121 0 0 0 0)
(0.161307 -0.000101304 0 -0.00228007 0.186737 0 0 0 0)
(0.162209 -0.000103188 0 -0.00292719 0.186405 0 0 0 0)
(0.161933 -2.64196e-05 0 -0.00355427 0.186006 0 0 0 0)
(0.162594 -0.000180007 0 -0.00418611 0.186204 0 0 0 0)
(0.160576 2.24002e-05 0 -0.0047734 0.184754 0 0 0 0)
(0.155642 -2.83982e-05 0 -0.00540993 0.186351 0 0 0 0)
(0.152958 0.000115113 0 -0.00604826 0.184568 0 0 0 0)
(0.149683 -0.000102639 0 -0.0067516 0.187148 0 0 0 0)
(0.145781 0.00051282 0 -0.00750217 0.183889 0 0 0 0)
(0.137094 -0.000385744 0 -0.00832516 0.190655 0 0 0 0)
(0.121534 0.000742581 0 -0.00905893 0.18139 0 0 0 0)
(0.091305 0.000173255 0 -0.010399 0.195842 0 0 0 0)
(0.0757809 0.000296877 0 -0.010514 0.182932 0 0 0 0)
(0.0633213 0.00209091 0 -0.014935 0.198463 0 0 0 0)
(-0.0390754 0.00155807 0 -0.0181895 0.196985 0 0 0 0)
(-0.822088 0.00353677 0 -0.0123404 0.206887 0 0 0 0)
(-0.760613 0.00182625 0 -0.00573754 0.219278 0 0 0 0)
(0.492501 0.592065 0 -0.612031 2.32731 0 0 0 0)
(0.477054 -0.231375 0 -1.18073 2.05954 0 0 0 0)
(-0.234869 -0.820711 0 -1.36707 1.11706 0 0 0 0)
(-1.62938 -0.26161 0 -1.69941 0.379146 0 0 0 0)
(-1.98299 0.251944 0 -1.06317 0.776517 0 0 0 0)
(-1.27828 0.276075 0 -0.935185 1.22306 0 0 0 0)
(-1.12791 0.124228 0 -1.08231 1.43534 0 0 0 0)
(-0.984484 -0.148853 0 -0.759373 1.22756 0 0 0 0)
(-0.792027 -0.233767 0 -0.373191 0.856461 0 0 0 0)
(-0.741395 -0.163142 0 -0.163539 0.564347 0 0 0 0)
(-0.658515 -0.0887455 0 -0.0721088 0.380924 0 0 0 0)
(-0.413007 -0.0413796 0 -0.0300155 0.283475 0 0 0 0)
(-0.161974 -0.0174294 0 -0.0106544 0.241359 0 0 0 0)
(-0.0480862 -0.00794085 0 -0.00413757 0.223285 0 0 0 0)
(-0.0173953 -0.00511242 0 -0.00382283 0.213954 0 0 0 0)
(-0.00227551 -0.00557239 0 -0.0044124 0.204592 0 0 0 0)
(0.0248794 -0.00461453 0 -0.00136561 0.195293 0 0 0 0)
(0.0687506 -0.00182138 0 0.000676701 0.190347 0 0 0 0)
(0.112959 -0.00027661 0 0.000894116 0.188634 0 0 0 0)
(0.141034 3.75647e-05 0 0.00050669 0.18868 0 0 0 0)
(0.15352 -0.000250113 0 -6.68535e-05 0.188524 0 0 0 0)
(0.158116 -0.000369254 0 -0.000652448 0.187778 0 0 0 0)
(0.159911 -0.000265948 0 -0.00117219 0.187243 0 0 0 0)
(0.160982 -0.000208461 0 -0.00162082 0.186852 0 0 0 0)
(0.161904 -0.000212398 0 -0.00202011 0.186514 0 0 0 0)
(0.161642 -5.82141e-05 0 -0.00238217 0.186112 0 0 0 0)
(0.162326 -0.000364304 0 -0.00274092 0.186316 0 0 0 0)
(0.160326 4.25714e-05 0 -0.00300763 0.184861 0 0 0 0)
(0.155407 -5.42695e-05 0 -0.00328618 0.186449 0 0 0 0)
(0.152742 0.000232036 0 -0.00346422 0.184701 0 0 0 0)
(0.149487 -0.000197495 0 -0.00363973 0.187223 0 0 0 0)
(0.145621 0.00102012 0 -0.00371673 0.184068 0 0 0 0)
(0.137021 -0.000726838 0 -0.00372217 0.190505 0 0 0 0)
(0.12147 0.00150908 0 -0.0029735 0.18195 0 0 0 0)
(0.0915694 0.000448461 0 -0.00265662 0.195198 0 0 0 0)
(0.0756261 0.000762221 0 0.000958643 0.183751 0 0 0 0)
(0.0629629 0.00408816 0 -0.00287173 0.199215 0 0 0 0)
(-0.036963 0.00245065 0 -0.00180014 0.19517 0 0 0 0)
(-0.818911 0.00648519 0 0.0113349 0.19715 0 0 0 0)
(-0.759427 0.00360465 0 0.0221933 0.201681 0 0 0 0)
(0.226648 -0.112569 0 -1.31322 1.04359 0 0 0 0)
(0.137576 -0.710751 0 -1.52312 0.634859 0 0 0 0)
(-0.669747 -0.973307 0 -2.11841 0.730101 0 0 0 0)
(-1.56996 -0.199072 0 -2.69482 0.966973 0 0 0 0)
(-1.6419 0.425885 0 -1.89239 1.15879 0 0 0 0)
(-1.21298 0.37482 0 -1.59489 1.35201 0 0 0 0)
(-0.974829 -0.00443553 0 -1.35825 1.19036 0 0 0 0)
(-0.703954 -0.352819 0 -0.811068 0.90833 0 0 0 0)
(-0.594448 -0.391946 0 -0.427242 0.656446 0 0 0 0)
(-0.650898 -0.274198 0 -0.249417 0.480016 0 0 0 0)
(-0.618526 -0.164682 0 -0.157587 0.355746 0 0 0 0)
(-0.389455 -0.0847331 0 -0.0803746 0.275197 0 0 0 0)
(-0.149106 -0.0364948 0 -0.0344495 0.238395 0 0 0 0)
(-0.0434148 -0.0165482 0 -0.0174413 0.22224 0 0 0 0)
(-0.0167549 -0.0113271 0 -0.0149264 0.212161 0 0 0 0)
(-0.000913786 -0.0112099 0 -0.0148771 0.202324 0 0 0 0)
(0.0278755 -0.0085614 0 -0.00953323 0.19516 0 0 0 0)
(0.0707967 -0.00393407 0 -0.00370791 0.1909 0 0 0 0)
(0.113709 -0.00096355 0 -0.000976484 0.188943 0 0 0 0)
(0.14124 -5.15406e-05 0 -0.000301637 0.188786 0 0 0 0)
(0.153611 -0.000546111 0 -0.000251984 0.188542 0 0 0 0)
(0.158223 -0.000773788 0 -0.000236803 0.187767 0 0 0 0)
(0.160056 -0.000555248 0 -0.000115985 0.187228 0 0 0 0)
(0.161152 -0.000434202 0 9.46877e-05 0.186848 0 0 0 0)
(0.162085 -0.00044152 0 0.000347356 0.18652 0 0 0 0)
(0.161816 -0.000114154 0 0.000620955 0.186126 0 0 0 0)
(0.162512 -0.000751227 0 0.000878761 0.186353 0 0 0 0)
(0.160523 8.27965e-05 0 0.00120603 0.184893 0 0 0 0)
(0.155627 -9.92252e-05 0 0.00152006 0.18645 0 0 0 0)
(0.152986 0.000465439 0 0.00196586 0.184734 0 0 0 0)
(0.149751 -0.000389904 0 0.0023685 0.187125 0 0 0 0)
(0.145915 0.00198447 0 0.00289968 0.184113 0 0 0 0)
(0.137646 -0.00131994 0 0.00332856 0.189972 0 0 0 0)
(0.122277 0.00280058 0 0.00505358 0.182418 0 0 0 0)
(0.0934658 0.000984965 0 0.00619475 0.193411 0 0 0 0)
(0.0758249 0.0022785 0 0.0119263 0.184098 0 0 0 0)
(0.0620052 0.00694391 0 0.00691924 0.198912 0 0 0 0)
(-0.0326066 -0.000769488 0 0.00541663 0.191581 0 0 0 0)
(-0.810711 0.004212 0 0.00772099 0.187949 0 0 0 0)
(-0.755173 0.00261213 0 0.017401 0.185413 0 0 0 0)
(0.218032 -0.0125254 0 -2.41718 0.102284 0 0 0 0)
(-0.116819 -0.276405 0 -2.65699 0.0456613 0 0 0 0)
(-1.13076 -0.418847 0 -3.03677 0.623497 0 0 0 0)
(-1.44344 0.117954 0 -3.0435 1.20634 0 0 0 0)
(-1.10596 0.529712 0 -2.39996 1.24807 0 0 0 0)
(-0.798582 0.253553 0 -1.8371 1.0068 0 0 0 0)
(-0.454676 -0.234328 0 -1.26558 0.723308 0 0 0 0)
(-0.237759 -0.553984 0 -0.758642 0.537615 0 0 0 0)
(-0.356748 -0.561685 0 -0.499081 0.439127 0 0 0 0)
(-0.530073 -0.393356 0 -0.362335 0.365973 0 0 0 0)
(-0.517062 -0.245397 0 -0.240979 0.297566 0 0 0 0)
(-0.306977 -0.131216 0 -0.115966 0.254691 0 0 0 0)
(-0.108229 -0.058238 0 -0.0471958 0.23309 0 0 0 0)
(-0.031778 -0.0286055 0 -0.0254946 0.220231 0 0 0 0)
(-0.0152678 -0.0209714 0 -0.022453 0.209317 0 0 0 0)
(0.00219136 -0.0189315 0 -0.0204076 0.200056 0 0 0 0)
(0.0340359 -0.0135062 0 -0.0137128 0.194329 0 0 0 0)
(0.075899 -0.0066792 0 -0.00595345 0.190838 0 0 0 0)
(0.11584 -0.00194584 0 -0.00162754 0.189096 0 0 0 0)
(0.141621 -0.000301828 0 -0.00045638 0.188787 0 0 0 0)
(0.153533 -0.00107348 0 -0.000506611 0.188403 0 0 0 0)
(0.15819 -0.0014185 0 -0.000708937 0.187567 0 0 0 0)
(0.160153 -0.000996441 0 -0.000756002 0.18701 0 0 0 0)
(0.161337 -0.00076977 0 -0.000655727 0.186629 0 0 0 0)
(0.162313 -0.00078496 0 -0.000482535 0.186298 0 0 0 0)
(0.162061 -0.000188471 0 -0.000264786 0.185901 0 0 0 0)
(0.16279 -0.00134506 0 -1.41545e-05 0.186142 0 0 0 0)
(0.160838 0.000114168 0 0.000219582 0.184656 0 0 0 0)
(0.156021 -0.000182937 0 0.000561932 0.186155 0 0 0 0)
(0.153428 0.000757489 0 0.00105211 0.18451 0 0 0 0)
(0.150245 -0.000692834 0 0.00144899 0.186671 0 0 0 0)
(0.146388 0.00324606 0 0.00201282 0.183954 0 0 0 0)
(0.138761 -0.00204254 0 0.00227462 0.188912 0 0 0 0)
(0.123799 0.00413043 0 0.00415958 0.182955 0 0 0 0)
(0.0971754 0.00177956 0 0.00543157 0.190893 0 0 0 0)
(0.0762176 0.00525025 0 0.0122196 0.184731 0 0 0 0)
(0.0572036 0.00976815 0 0.00657292 0.197372 0 0 0 0)
(-0.0385264 -0.00638634 0 0.00196136 0.18857 0 0 0 0)
(-0.811759 0.00175981 0 -0.0059629 0.190229 0 0 0 0)
(-0.75238 0.00169225 0 0.00507995 0.19184 0 0 0 0)
(-0.00444592 -0.167133 0 -2.994 0.370379 0 0 0 0)
(-0.459483 -0.208491 0 -3.57405 0.337396 0 0 0 0)
(-1.0422 0.145167 0 -3.5181 0.887863 0 0 0 0)
(-0.956313 0.402786 0 -2.88645 1.17755 0 0 0 0)
(-0.479362 0.233594 0 -2.14121 0.86871 0 0 0 0)
(-0.119847 -0.130855 0 -1.44361 0.477296 0 0 0 0)
(0.0644089 -0.456555 0 -0.895149 0.226837 0 0 0 0)
(0.0346696 -0.626667 0 -0.637664 0.169444 0 0 0 0)
(-0.212553 -0.557347 0 -0.522803 0.229786 0 0 0 0)
(-0.402181 -0.410612 0 -0.41358 0.248736 0 0 0 0)
(-0.381116 -0.271917 0 -0.26659 0.238521 0 0 0 0)
(-0.202718 -0.146864 0 -0.126218 0.234482 0 0 0 0)
(-0.0619249 -0.0697015 0 -0.0548735 0.227464 0 0 0 0)
(-0.0195717 -0.0394567 0 -0.0359433 0.216908 0 0 0 0)
(-0.0118529 -0.0307681 0 -0.0308346 0.205776 0 0 0 0)
(0.00750857 -0.0256525 0 -0.0258375 0.197635 0 0 0 0)
(0.041804 -0.0174443 0 -0.0171302 0.193219 0 0 0 0)
(0.0824425 -0.00897724 0 -0.00806484 0.190538 0 0 0 0)
(0.119006 -0.00294009 0 -0.00258385 0.18907 0 0 0 0)
(0.14232 -0.000719443 0 -0.000852731 0.188673 0 0 0 0)
(0.153368 -0.001722 0 -0.000836776 0.188147 0 0 0 0)
(0.157983 -0.00211593 0 -0.0011476 0.187232 0 0 0 0)
(0.160107 -0.00145866 0 -0.00130418 0.186643 0 0 0 0)
(0.161416 -0.00112047 0 -0.00128403 0.186257 0 0 0 0)
(0.162462 -0.00114315 0 -0.00117116 0.185924 0 0 0 0)
(0.162268 -0.0002638 0 -0.000992257 0.185537 0 0 0 0)
(0.162979 -0.00195084 0 -0.00071625 0.185784 0 0 0 0)
(0.161078 9.45744e-05 0 -0.000626551 0.18428 0 0 0 0)
(0.156429 -0.000240669 0 -0.000233625 0.185729 0 0 0 0)
(0.153841 0.000962769 0 0.000306695 0.184244 0 0 0 0)
(0.150676 -0.000925398 0 0.000680365 0.186099 0 0 0 0)
(0.14671 0.00414414 0 0.00124068 0.183872 0 0 0 0)
(0.139715 -0.00228287 0 0.00129067 0.187722 0 0 0 0)
(0.125319 0.00470949 0 0.00311429 0.183813 0 0 0 0)
(0.101233 0.00269697 0 0.00442502 0.188503 0 0 0 0)
(0.0769248 0.00852211 0 0.0112602 0.185489 0 0 0 0)
(0.0521199 0.0106434 0 0.00644214 0.194543 0 0 0 0)
(-0.0446866 -0.00765246 0 0.00161792 0.186161 0 0 0 0)
(-0.807706 0.00736224 0 -0.00694687 0.193757 0 0 0 0)
(-0.744532 0.00416379 0 0.00941775 0.199182 0 0 0 0)
(-0.340926 -0.0443087 0 -2.862 0.295865 0 0 0 0)
(-0.621857 0.222261 0 -3.15789 0.503171 0 0 0 0)
(-0.468158 0.390755 0 -2.71957 0.712189 0 0 0 0)
(-0.116625 0.0994972 0 -1.9526 0.489491 0 0 0 0)
(0.2844 -0.145079 0 -1.25601 0.176976 0 0 0 0)
(0.402172 -0.364979 0 -0.795594 0.0186099 0 0 0 0)
(0.321967 -0.530985 0 -0.579946 -0.0540276 0 0 0 0)
(0.121047 -0.551142 0 -0.528075 0.0213018 0 0 0 0)
(-0.140813 -0.485277 0 -0.489694 0.118134 0 0 0 0)
(-0.283176 -0.384939 0 -0.402749 0.165258 0 0 0 0)
(-0.24015 -0.259132 0 -0.250393 0.197834 0 0 0 0)
(-0.102959 -0.14187 0 -0.124184 0.21749 0 0 0 0)
(-0.0212368 -0.0751725 0 -0.0641807 0.21923 0 0 0 0)
(-0.00861333 -0.049505 0 -0.0478855 0.210239 0 0 0 0)
(-0.00552949 -0.0395442 0 -0.0398981 0.200606 0 0 0 0)
(0.0153975 -0.0310321 0 -0.0311755 0.194302 0 0 0 0)
(0.0511624 -0.0203452 0 -0.0201933 0.191299 0 0 0 0)
(0.0899164 -0.0106773 0 -0.0100086 0.189422 0 0 0 0)
(0.12279 -0.00374211 0 -0.0038094 0.188443 0 0 0 0)
(0.143304 -0.00119061 0 -0.00163003 0.188065 0 0 0 0)
(0.153249 -0.00246232 0 -0.00139612 0.187452 0 0 0 0)
(0.15774 -0.00286835 0 -0.00161406 0.18647 0 0 0 0)
(0.160021 -0.00193626 0 -0.00170357 0.185854 0 0 0 0)
(0.161465 -0.00146235 0 -0.00161421 0.185479 0 0 0 0)
(0.162595 -0.0014786 0 -0.00142396 0.185177 0 0 0 0)
(0.162499 -0.000323602 0 -0.00116027 0.184814 0 0 0 0)
(0.163142 -0.00255641 0 -0.00072964 0.185059 0 0 0 0)
(0.161303 6.09378e-05 0 -0.00061201 0.183601 0 0 0 0)
(0.156921 -0.000217665 0 -3.56512e-05 0.184989 0 0 0 0)
(0.154309 0.00111404 0 0.000713701 0.183728 0 0 0 0)
(0.151145 -0.00105097 0 0.00126514 0.185272 0 0 0 0)
(0.146976 0.00481 0 0.00204005 0.183583 0 0 0 0)
(0.140567 -0.00209996 0 0.00216923 0.186485 0 0 0 0)
(0.126819 0.00488307 0 0.00407556 0.184243 0 0 0 0)
(0.105025 0.00339516 0 0.00559868 0.186752 0 0 0 0)
(0.0781614 0.0110712 0 0.0116378 0.185215 0 0 0 0)
(0.0479119 0.0104158 0 0.00865645 0.1905 0 0 0 0)
(-0.0514285 -0.00714389 0 0.00480913 0.184477 0 0 0 0)
(-0.804243 0.0143072 0 -0.00364321 0.19344 0 0 0 0)
(-0.73661 0.00692033 0 0.0123323 0.198781 0 0 0 0)
(-0.289572 0.0326345 0 -1.69808 0.123157 0 0 0 0)
(-0.322234 0.192693 0 -1.64078 0.232059 0 0 0 0)
(0.119263 0.131985 0 -1.20245 0.0562283 0 0 0 0)
(0.45403 -0.112964 0 -0.771457 -0.159825 0 0 0 0)
(0.635569 -0.220164 0 -0.499117 -0.161133 0 0 0 0)
(0.531634 -0.353459 0 -0.414022 -0.172227 0 0 0 0)
(0.3222 -0.453961 0 -0.426774 -0.104243 0 0 0 0)
(0.121639 -0.460765 0 -0.464492 -0.0117791 0 0 0 0)
(-0.0917851 -0.418625 0 -0.43817 0.065842 0 0 0 0)
(-0.171582 -0.33381 0 -0.353096 0.125927 0 0 0 0)
(-0.11268 -0.221585 0 -0.209617 0.18017 0 0 0 0)
(-0.0232768 -0.126247 0 -0.111224 0.206726 0 0 0 0)
(0.0115991 -0.0766885 0 -0.0691427 0.210048 0 0 0 0)
(0.00382792 -0.0574036 0 -0.0541975 0.202817 0 0 0 0)
(0.00424943 -0.0461258 0 -0.045029 0.195265 0 0 0 0)
(0.0264969 -0.0346209 0 -0.033312 0.190822 0 0 0 0)
(0.0622013 -0.0221462 0 -0.0209963 0.188962 0 0 0 0)
(0.0982306 -0.0117288 0 -0.0105135 0.187728 0 0 0 0)
(0.12708 -0.00424855 0 -0.00431208 0.186983 0 0 0 0)
(0.144646 -0.00167461 0 -0.00209368 0.186644 0 0 0 0)
(0.153383 -0.00325845 0 -0.00183939 0.185977 0 0 0 0)
(0.157687 -0.00365583 0 -0.00209381 0.184951 0 0 0 0)
(0.160107 -0.00241382 0 -0.00224748 0.184329 0 0 0 0)
(0.161685 -0.00177271 0 -0.00224028 0.183992 0 0 0 0)
(0.162899 -0.00178347 0 -0.00214918 0.183766 0 0 0 0)
(0.162937 -0.000377378 0 -0.00201024 0.183424 0 0 0 0)
(0.163508 -0.00312042 0 -0.00165286 0.183709 0 0 0 0)
(0.161747 2.63136e-05 0 -0.00166106 0.182456 0 0 0 0)
(0.157707 -0.00011839 0 -0.00118037 0.183734 0 0 0 0)
(0.155095 0.00123589 0 -0.000528281 0.182788 0 0 0 0)
(0.151955 -0.00106452 0 -0.000122991 0.184092 0 0 0 0)
(0.147581 0.00531335 0 0.00050746 0.182998 0 0 0 0)
(0.141676 -0.00164735 0 0.000360448 0.185192 0 0 0 0)
(0.128623 0.00496625 0 0.00182226 0.184236 0 0 0 0)
(0.10852 0.00363353 0 0.00287722 0.18548 0 0 0 0)
(0.0798714 0.0121344 0 0.00719601 0.184815 0 0 0 0)
(0.0455395 0.00993222 0 0.00401645 0.186386 0 0 0 0)
(-0.056539 -0.0048198 0 -0.00031137 0.184331 0 0 0 0)
(-0.800456 0.0211465 0 -0.00861697 0.193127 0 0 0 0)
(-0.729137 0.0093108 0 0.00709206 0.198487 0 0 0 0)
(-0.285707 0.0606328 0 -0.479691 -0.127466 0 0 0 0)
(-0.144245 0.157766 0 -0.5008 -0.0954892 0 0 0 0)
(0.369551 0.0131215 0 -0.286674 -0.184774 0 0 0 0)
(0.561128 -0.10996 0 -0.211889 -0.262869 0 0 0 0)
(0.628838 -0.15703 0 -0.201555 -0.16064 0 0 0 0)
(0.471884 -0.310157 0 -0.319525 -0.169214 0 0 0 0)
(0.273333 -0.376371 0 -0.354959 -0.0913358 0 0 0 0)
(0.110066 -0.387242 0 -0.408486 -0.0228294 0 0 0 0)
(-0.0334681 -0.352578 0 -0.374174 0.0474368 0 0 0 0)
(-0.062934 -0.274768 0 -0.28548 0.11356 0 0 0 0)
(-0.00707291 -0.181271 0 -0.171907 0.170707 0 0 0 0)
(0.0324066 -0.113079 0 -0.103797 0.195601 0 0 0 0)
(0.0337163 -0.0789401 0 -0.0766533 0.19804 0 0 0 0)
(0.0146235 -0.0637498 0 -0.0634908 0.193184 0 0 0 0)
(0.0145965 -0.0511022 0 -0.0523122 0.188279 0 0 0 0)
(0.0385562 -0.0371065 0 -0.0375306 0.186017 0 0 0 0)
(0.0731319 -0.0233275 0 -0.0235164 0.185247 0 0 0 0)
(0.105994 -0.0125838 0 -0.0125109 0.185246 0 0 0 0)
(0.130904 -0.00478578 0 -0.00616929 0.18439 0 0 0 0)
(0.145687 -0.0021604 0 -0.00352995 0.184083 0 0 0 0)
(0.153249 -0.00409435 0 -0.00276563 0.183401 0 0 0 0)
(0.157347 -0.00445638 0 -0.00252502 0.182372 0 0 0 0)
(0.15988 -0.00286045 0 -0.00221503 0.181781 0 0 0 0)
(0.16156 -0.00200466 0 -0.00178109 0.181513 0 0 0 0)
(0.162816 -0.00202539 0 -0.00129983 0.181411 0 0 0 0)
(0.162977 -0.000379307 0 -0.000809767 0.181099 0 0 0 0)
(0.163479 -0.00348999 0 -0.000106099 0.181472 0 0 0 0)
(0.161758 8.58379e-05 0 0.000375638 0.18057 0 0 0 0)
(0.158012 0.000103166 0 0.00127023 0.181711 0 0 0 0)
(0.155328 0.00145835 0 0.00232577 0.181144 0 0 0 0)
(0.152143 -0.000848728 0 0.00313478 0.182281 0 0 0 0)
(0.147442 0.00586993 0 0.00416078 0.181778 0 0 0 0)