/*--------------------------------*- C++ -*----------------------------------*\
| =========                 |                                                 |
| \\      /  F ield         | OpenFOAM: The Open Source CFD Toolbox           |
|  \\    /   O peration     | Version:  v1912                                 |
|   \\  /    A nd           | Website:  www.openfoam.com                      |
|    \\/     M anipulation  |                                                 |
\*---------------------------------------------------------------------------*/
FoamFile
{
    version     2.0;
    format      ascii;
    class       volScalarField;
    location    "6.14";
    object      Ma;
}
// * * * * * * * * * * * * * * * * * * * * * * * * * * * * * * * * * * * * * //

dimensions      [0 0 0 0 0 0 0];


internalField   nonuniform List<scalar> 
1900
(
0.757395
0.0668771
0.0898508
0.0868101
0.0906173
0.0937375
0.0968729
0.0993514
0.099567
0.0909854
0.757395
0.0668697
0.089862
0.0868348
0.0906527
0.0937111
0.0965471
0.0986408
0.100861
0.102048
0.757395
0.0668659
0.0898675
0.0868413
0.090638
0.0936464
0.0964148
0.0984954
0.101457
0.108318
0.757395
0.0668697
0.089862
0.0868348
0.0906527
0.0937111
0.0965471
0.0986408
0.100861
0.102048
0.757395
0.0668771
0.0898508
0.0868101
0.0906173
0.0937375
0.0968729
0.0993514
0.099567
0.0909854
0.0994132
0.137288
0.189637
0.275186
0.42211
0.118064
0.144221
0.175889
0.241808
0.385527
0.125841
0.150862
0.18262
0.245329
0.382518
0.118064
0.144221
0.175889
0.241808
0.385527
0.0994132
0.137288
0.189637
0.275186
0.42211
0.944136
1.37351
1.70437
1.67521
1.58286
0.906446
1.36627
1.71825
1.70443
1.60681
0.902977
1.37467
1.7181
1.69886
1.60275
0.906446
1.36627
1.71825
1.70443
1.60681
0.944136
1.37351
1.70437
1.67521
1.58286
1.70081
1.94834
2.03202
1.8242
1.22913
0.983877
0.790372
0.589611
0.433294
0.299816
0.165428
0.0604178
0.0281985
0.0295595
0.0314472
0.0322834
0.0306917
0.0254269
0.0246791
0.0433898
0.0722254
0.104191
0.137295
0.170947
0.204957
0.239227
0.273228
0.307763
0.340806
0.373042
0.404733
0.435265
0.46503
0.491287
0.513697
0.525849
0.540275
0.546418
0.514285
0.203452
1.68247
1.97443
2.09762
1.90424
1.25962
1.00616
0.822232
0.611002
0.442383
0.302084
0.163484
0.0537003
0.0140713
0.0190614
0.0226106
0.0243868
0.0231792
0.0159046
0.0144726
0.0384351
0.0693998
0.102343
0.136
0.170015
0.204288
0.238761
0.272924
0.307604
0.340752
0.373096
0.404859
0.435479
0.465274
0.491591
0.513988
0.526055
0.540638
0.546735
0.513717
0.201644
1.65515
1.92654
2.05916
1.89893
1.25702
0.987388
0.795593
0.586082
0.429395
0.300157
0.164127
0.0518889
0.000870556
0.0138906
0.0187396
0.0210627
0.0199634
0.010989
0.00878257
0.0366596
0.0684448
0.10172
0.135553
0.169679
0.204031
0.238567
0.272781
0.307511
0.340702
0.373097
0.404912
0.435603
0.465468
0.491895
0.514415
0.526648
0.541548
0.548079
0.515127
0.202465
1.68247
1.97443
2.09762
1.90424
1.25962
1.00616
0.822232
0.611002
0.442383
0.302084
0.163484
0.0537003
0.0140713
0.0190614
0.0226106
0.0243868
0.0231792
0.0159046
0.0144726
0.0384351
0.0693998
0.102343
0.136
0.170015
0.204288
0.238761
0.272924
0.307604
0.340752
0.373096
0.404859
0.435479
0.465274
0.491591
0.513988
0.526055
0.540638
0.546735
0.513717
0.201644
1.70081
1.94834
2.03202
1.8242
1.22913
0.983877
0.790372
0.589611
0.433294
0.299816
0.165428
0.0604178
0.0281985
0.0295595
0.0314472
0.0322834
0.0306917
0.0254269
0.0246791
0.0433898
0.0722254
0.104191
0.137295
0.170947
0.204957
0.239227
0.273228
0.307763
0.340806
0.373042
0.404733
0.435265
0.46503
0.491287
0.513697
0.525849
0.540275
0.546418
0.514285
0.203452
1.76663
1.85264
1.75808
1.49464
1.07936
0.8773
0.703887
0.548795
0.421334
0.300233
0.172484
0.0809117
0.0586239
0.0568592
0.0565234
0.0557185
0.0532145
0.0493649
0.048683
0.0604249
0.0835904
0.112334
0.143576
0.176057
0.209275
0.242975
0.276575
0.310756
0.343612
0.375636
0.40725
0.437622
0.467443
0.493643
0.516337
0.528916
0.542936
0.549126
0.518675
0.211918
1.37634
1.46233
1.2904
0.967553
0.786331
0.711006
0.624428
0.531507
0.416876
0.299452
0.186557
0.121392
0.104895
0.0999599
0.097389
0.0946603
0.0910369
0.087406
0.0865403
0.0937349
0.110082
0.133075
0.160249
0.189879
0.221035
0.253184
0.285661
0.318813
0.351106
0.382486
0.413831
0.443702
0.473561
0.499444
0.522732
0.536017
0.549388
0.554149
0.522122
0.222871
0.976441
0.932922
0.768637
0.667924
0.677233
0.664412
0.606868
0.511977
0.404549
0.300409
0.210789
0.166169
0.150711
0.143388
0.138676
0.134267
0.129681
0.125789
0.124654
0.129793
0.141987
0.16024
0.183288
0.209609
0.238145
0.268203
0.299116
0.33074
0.362194
0.392591
0.423463
0.452538
0.482301
0.507599
0.531468
0.545465
0.558339
0.561204
0.528082
0.241495
0.650714
0.600473
0.694969
0.750698
0.735917
0.678528
0.5872
0.492128
0.399312
0.311339
0.244928
0.2118
0.195877
0.186413
0.179665
0.173794
0.168383
0.164162
0.162785
0.16676
0.176318
0.191044
0.210568
0.233728
0.259547
0.287298
0.316417
0.34619
0.376626
0.405807
0.43605
0.464132
0.493658
0.518214
0.542534
0.55706
0.569757
0.570592
0.536536
0.264408
0.739614
0.799704
0.8631
0.825341
0.746035
0.660531
0.570328
0.483989
0.402822
0.332128
0.283679
0.256252
0.23981
0.228468
0.220018
0.212922
0.206835
0.202281
0.200727
0.203935
0.21169
0.223801
0.240496
0.260916
0.284216
0.309706
0.337009
0.364828
0.394187
0.422069
0.45162
0.478658
0.507895
0.53169
0.556379
0.57114
0.583913
0.583117
0.548804
0.291334
0.795243
0.886282
0.889993
0.808106
0.73414
0.647228
0.566734
0.489407
0.420181
0.364323
0.325573
0.29997
0.282447
0.269485
0.259627
0.251481
0.244828
0.240021
0.238287
0.240965
0.247399
0.257492
0.271893
0.289958
0.310962
0.334257
0.359728
0.385519
0.413659
0.440085
0.468741
0.494554
0.523239
0.546049
0.570698
0.585208
0.597353
0.594722
0.560254
0.318571
0.78522
0.890004
0.877745
0.789074
0.726316
0.642016
0.570892
0.502686
0.44402
0.398515
0.365527
0.341331
0.323103
0.309062
0.298171
0.289224
0.282038
0.27719
0.275143
0.277365
0.282798
0.291372
0.30405
0.320313
0.339525
0.361034
0.385019
0.409169
0.436353
0.461624
0.489633
0.514541
0.542919
0.565062
0.589845
0.604254
0.615899
0.612277
0.578627
0.350702
0.766763
0.88115
0.863089
0.78392
0.725109
0.64552
0.584452
0.524974
0.475757
0.436217
0.405604
0.381515
0.362485
0.34746
0.335549
0.325878
0.31832
0.313152
0.311079
0.313001
0.317621
0.324878
0.335997
0.350553
0.367987
0.387617
0.409947
0.432312
0.458276
0.48217
0.509239
0.533028
0.560801
0.582048
0.606557
0.620437
0.631059
0.626571
0.593927
0.380859
0.747952
0.871037
0.855226
0.790428
0.728405
0.655781
0.601855
0.549206
0.50723
0.471439
0.442847
0.419092
0.39967
0.384168
0.371689
0.36153
0.353936
0.348346
0.345985
0.347568
0.351562
0.357899
0.368013
0.381505
0.397843
0.416246
0.437549
0.458727
0.483921
0.506884
0.533296
0.556279
0.583583
0.604126
0.628314
0.641789
0.651249
0.646136
0.614763
0.414115
0.73096
0.862461
0.854414
0.796644
0.73501
0.670761
0.624746
0.578115
0.540856
0.507104
0.479564
0.455757
0.435922
0.419714
0.406535
0.395883
0.387711
0.382114
0.379614
0.380963
0.384378
0.389778
0.398801
0.411085
0.42614
0.443117
0.463235
0.48303
0.507334
0.529354
0.555065
0.577312
0.604178
0.624137
0.648033
0.661228
0.669679
0.664156
0.634317
0.446153
0.714976
0.856002
0.859211
0.8024
0.748863
0.689845
0.649785
0.605921
0.572032
0.540011
0.513212
0.489471
0.469716
0.453243
0.439788
0.429403
0.420828
0.41499
0.412241
0.413378
0.416421
0.421266
0.42971
0.441368
0.45574
0.471857
0.491265
0.510101
0.533763
0.555089
0.580167
0.601756
0.628068
0.647401
0.670723
0.68355
0.690678
0.684453
0.655909
0.478651
0.705185
0.853142
0.863899
0.810444
0.768211
0.711259
0.675757
0.634285
0.603197
0.572129
0.545851
0.522434
0.502559
0.485539
0.47189
0.460724
0.452239
0.446365
0.443529
0.444481
0.447025
0.451044
0.458538
0.469162
0.482463
0.497383
0.515835
0.5335
0.556397
0.577039
0.601493
0.622534
0.64839
0.667281
0.690227
0.70296
0.709311
0.702995
0.676769
0.510113
0.704463
0.856523
0.873041
0.824588
0.785683
0.731035
0.699529
0.660051
0.631031
0.600581
0.574665
0.551457
0.531898
0.516079
0.502566
0.491291
0.482617
0.476459
0.473371
0.474188
0.476573
0.480381
0.487708
0.498144
0.511187
0.525612
0.543726
0.560745
0.583146
0.603359
0.627234
0.647763
0.672941
0.691236
0.713364
0.725652
0.730722
0.723653
0.699014
0.540822
0.709115
0.860418
0.8808
0.836877
0.80224
0.749998
0.722176
0.683936
0.656798
0.627196
0.601933
0.578973
0.560156
0.54338
0.52926
0.517892
0.50904
0.502681
0.499375
0.499947
0.501842
0.504923
0.511514
0.52124
0.53356
0.547101
0.564613
0.580775
0.602528
0.622256
0.64559
0.665725
0.690386
0.708286
0.729904
0.741947
0.746259
0.738997
0.717907
0.569884
0.714643
0.865368
0.888504
0.849846
0.817335
0.767545
0.741595
0.704165
0.67788
0.648613
0.624505
0.602682
0.583512
0.566866
0.55261
0.540843
0.531347
0.524308
0.520519
0.520975
0.522911
0.526115
0.533004
0.543128
0.555776
0.569288
0.586973
0.602869
0.624236
0.643724
0.666588
0.686356
0.710201
0.727548
0.748188
0.759665
0.762843
0.755222
0.737961
0.597931
0.720885
0.8692
0.89312
0.858261
0.827122
0.778992
0.754894
0.71859
0.693749
0.665434
0.641784
0.619681
0.600275
0.583094
0.568291
0.555712
0.545201
0.537051
0.532263
0.532057
0.533556
0.536613
0.543769
0.554354
0.567315
0.58069
0.598374
0.613815
0.634695
0.654059
0.676772
0.696463
0.719844
0.736961
0.757074
0.768121
0.770726
0.764324
0.754111
0.62357
0.729313
0.870333
0.885986
0.852713
0.823582
0.777405
0.755234
0.720458
0.696731
0.669561
0.646917
0.62598
0.608034
0.592095
0.578225
0.566179
0.556198
0.548907
0.545284
0.54605
0.54764
0.549905
0.556044
0.565901
0.578411
0.590901
0.607945
0.621991
0.641531
0.659511
0.680754
0.69943
0.721289
0.737552
0.756433
0.766851
0.769104
0.765381
0.765251
0.645501
0.759847
0.874649
0.862251
0.833148
0.808516
0.766812
0.748356
0.717137
0.696189
0.671475
0.650692
0.630943
0.613955
0.5987
0.585646
0.574475
0.565308
0.55859
0.555246
0.555868
0.556418
0.556735
0.560516
0.567928
0.57816
0.588319
0.604253
0.616964
0.635526
0.652593
0.672971
0.691296
0.712114
0.728035
0.746312
0.757708
0.762403
0.767495
0.785413
0.704437
1.71476
0.951543
0.850935
0.832383
0.812154
0.77418
0.755793
0.725087
0.703196
0.67737
0.654992
0.633362
0.614358
0.596757
0.581344
0.567654
0.555604
0.545494
0.538541
0.535823
0.533264
0.530762
0.532396
0.538215
0.547002
0.555802
0.571758
0.584589
0.603962
0.622234
0.643924
0.664535
0.687036
0.706503
0.728243
0.746066
0.760477
0.784741
0.904499
1.6518
2.4986
1.70821
0.792805
0.727924
0.700215
0.656321
0.621875
0.581474
0.545851
0.50838
0.472864
0.438038
0.405226
0.373914
0.34499
0.318752
0.295607
0.276236
0.262204
0.255271
0.252233
0.253234
0.261939
0.277576
0.297978
0.32046
0.349284
0.376487
0.408224
0.43919
0.471804
0.503359
0.53478
0.564617
0.594009
0.621741
0.646011
0.70883
1.60861
2.46471
2.4986
1.70821
0.792805
0.727924
0.700215
0.656321
0.621875
0.581474
0.545851
0.50838
0.472864
0.438038
0.405226
0.373914
0.34499
0.318752
0.295607
0.276236
0.262204
0.255271
0.252233
0.253234
0.261939
0.277576
0.297978
0.32046
0.349284
0.376487
0.408224
0.43919
0.471804
0.503359
0.53478
0.564617
0.594009
0.621741
0.646011
0.70883
1.60861
2.46471
1.71476
0.951543
0.850935
0.832383
0.812154
0.77418
0.755793
0.725087
0.703196
0.67737
0.654992
0.633362
0.614358
0.596757
0.581344
0.567654
0.555604
0.545494
0.538541
0.535823
0.533264
0.530762
0.532396
0.538215
0.547002
0.555802
0.571758
0.584589
0.603962
0.622234
0.643924
0.664535
0.687036
0.706503
0.728243
0.746066
0.760477
0.784741
0.904499
1.6518
0.759847
0.874649
0.862251
0.833148
0.808516
0.766812
0.748356
0.717137
0.696189
0.671475
0.650692
0.630943
0.613955
0.5987
0.585646
0.574475
0.565308
0.55859
0.555246
0.555868
0.556418
0.556735
0.560516
0.567928
0.57816
0.588319
0.604253
0.616964
0.635526
0.652593
0.672971
0.691296
0.712114
0.728035
0.746312
0.757708
0.762403
0.767495
0.785413
0.704437
0.729313
0.870333
0.885986
0.852713
0.823582
0.777405
0.755234
0.720458
0.696731
0.669561
0.646917
0.62598
0.608034
0.592095
0.578225
0.566179
0.556198
0.548907
0.545284
0.54605
0.54764
0.549905
0.556044
0.565901
0.578411
0.590901
0.607945
0.621991
0.641531
0.659511
0.680754
0.69943
0.721289
0.737552
0.756433
0.766851
0.769104
0.765381
0.765251
0.645501
0.720885
0.8692
0.89312
0.858261
0.827122
0.778992
0.754894
0.71859
0.693749
0.665434
0.641784
0.619681
0.600275
0.583094
0.568291
0.555712
0.545201
0.537051
0.532263
0.532057
0.533556
0.536613
0.543769
0.554354
0.567315
0.58069
0.598374
0.613815
0.634695
0.654059
0.676772
0.696463
0.719844
0.736961
0.757074
0.768121
0.770726
0.764324
0.754111
0.62357
0.714643
0.865368
0.888504
0.849846
0.817335
0.767545
0.741595
0.704165
0.67788
0.648613
0.624505
0.602682
0.583512
0.566866
0.55261
0.540843
0.531347
0.524308
0.520519
0.520975
0.522911
0.526115
0.533004
0.543128
0.555776
0.569288
0.586973
0.602869
0.624236
0.643724
0.666588
0.686356
0.710201
0.727548
0.748188
0.759665
0.762843
0.755222
0.737961
0.597931
0.709115
0.860418
0.8808
0.836877
0.80224
0.749998
0.722176
0.683936
0.656798
0.627196
0.601933
0.578973
0.560156
0.54338
0.52926
0.517892
0.50904
0.502681
0.499375
0.499947
0.501842
0.504923
0.511514
0.52124
0.53356
0.547101
0.564613
0.580775
0.602528
0.622256
0.64559
0.665725
0.690386
0.708286
0.729904
0.741947
0.746259
0.738997
0.717907
0.569884
0.704463
0.856523
0.873041
0.824588
0.785683
0.731035
0.699529
0.660051
0.631031
0.600581
0.574665
0.551457
0.531898
0.516079
0.502566
0.491291
0.482617
0.476459
0.473371
0.474188
0.476573
0.480381
0.487708
0.498144
0.511187
0.525612
0.543726
0.560745
0.583146
0.603359
0.627234
0.647763
0.672941
0.691236
0.713364
0.725652
0.730722
0.723653
0.699014
0.540822
0.705185
0.853142
0.863899
0.810444
0.768211
0.711259
0.675757
0.634285
0.603197
0.572129
0.545851
0.522434
0.502559
0.485539
0.47189
0.460724
0.452239
0.446365
0.443529
0.444481
0.447025
0.451044
0.458538
0.469162
0.482463
0.497383
0.515835
0.5335
0.556397
0.577039
0.601493
0.622534
0.64839
0.667281
0.690227
0.70296
0.709311
0.702995
0.676769
0.510113
0.714976
0.856002
0.859211
0.8024
0.748863
0.689845
0.649785
0.605921
0.572032
0.540011
0.513212
0.489471
0.469716
0.453243
0.439788
0.429403
0.420828
0.41499
0.412241
0.413378
0.416421
0.421266
0.42971
0.441368
0.45574
0.471857
0.491265
0.510101
0.533763
0.555089
0.580167
0.601756
0.628068
0.647401
0.670723
0.68355
0.690678
0.684453
0.655909
0.478651
0.73096
0.862461
0.854414
0.796644
0.73501
0.670761
0.624746
0.578115
0.540856
0.507104
0.479564
0.455757
0.435922
0.419714
0.406535
0.395883
0.387711
0.382114
0.379614
0.380963
0.384378
0.389778
0.398801
0.411085
0.42614
0.443117
0.463235
0.48303
0.507334
0.529354
0.555065
0.577312
0.604178
0.624137
0.648033
0.661228
0.669679
0.664156
0.634317
0.446153
0.747952
0.871037
0.855226
0.790428
0.728405
0.655781
0.601855
0.549206
0.50723
0.471439
0.442847
0.419092
0.39967
0.384168
0.371689
0.36153
0.353936
0.348346
0.345985
0.347568
0.351562
0.357899
0.368013
0.381505
0.397843
0.416246
0.437549
0.458727
0.483921
0.506884
0.533296
0.556279
0.583583
0.604126
0.628314
0.641789
0.651249
0.646136
0.614763
0.414115
0.766763
0.88115
0.863089
0.78392
0.725109
0.64552
0.584452
0.524974
0.475757
0.436217
0.405604
0.381515
0.362485
0.34746
0.335549
0.325878
0.31832
0.313152
0.311079
0.313001
0.317621
0.324878
0.335997
0.350553
0.367987
0.387617
0.409947
0.432312
0.458276
0.48217
0.509239
0.533028
0.560801
0.582048
0.606557
0.620437
0.631059
0.626571
0.593927
0.380859
0.78522
0.890004
0.877745
0.789074
0.726316
0.642016
0.570892
0.502686
0.44402
0.398515
0.365527
0.341331
0.323103
0.309062
0.298171
0.289224
0.282038
0.27719
0.275143
0.277365
0.282798
0.291372
0.30405
0.320313
0.339525
0.361034
0.385019
0.409169
0.436353
0.461624
0.489633
0.514541
0.542919
0.565062
0.589845
0.604254
0.615899
0.612277
0.578627
0.350702
0.795243
0.886282
0.889993
0.808106
0.73414
0.647228
0.566734
0.489407
0.420181
0.364323
0.325573
0.29997
0.282447
0.269485
0.259627
0.251481
0.244828
0.240021
0.238287
0.240965
0.247399
0.257492
0.271893
0.289958
0.310962
0.334257
0.359728
0.385519
0.413659
0.440085
0.468741
0.494554
0.523239
0.546049
0.570698
0.585208
0.597353
0.594722
0.560254
0.318571
0.739614
0.799704
0.8631
0.825341
0.746035
0.660531
0.570328
0.483989
0.402822
0.332128
0.283679
0.256252
0.23981
0.228468
0.220018
0.212922
0.206835
0.202281
0.200727
0.203935
0.21169
0.223801
0.240496
0.260916
0.284216
0.309706
0.337009
0.364828
0.394187
0.422069
0.45162
0.478658
0.507895
0.53169
0.556379
0.57114
0.583913
0.583117
0.548804
0.291334
0.650714
0.600473
0.694969
0.750698
0.735917
0.678528
0.5872
0.492128
0.399312
0.311339
0.244928
0.2118
0.195877
0.186413
0.179665
0.173794
0.168383
0.164162
0.162785
0.16676
0.176318
0.191044
0.210568
0.233728
0.259547
0.287298
0.316417
0.34619
0.376626
0.405807
0.43605
0.464132
0.493658
0.518214
0.542534
0.55706
0.569757
0.570592
0.536536
0.264408
0.976441
0.932922
0.768637
0.667924
0.677233
0.664412
0.606868
0.511977
0.404549
0.300409
0.210789
0.166169
0.150711
0.143388
0.138676
0.134267
0.129681
0.125789
0.124654
0.129793
0.141987
0.16024
0.183288
0.209609
0.238145
0.268203
0.299116
0.33074
0.362194
0.392591
0.423463
0.452538
0.482301
0.507599
0.531468
0.545465
0.558339
0.561204
0.528082
0.241495
1.37634
1.46233
1.2904
0.967553
0.786331
0.711006
0.624428
0.531507
0.416876
0.299452
0.186557
0.121392
0.104895
0.0999599
0.097389
0.0946603
0.0910369
0.087406
0.0865403
0.0937349
0.110082
0.133075
0.160249
0.189879
0.221035
0.253184
0.285661
0.318813
0.351106
0.382486
0.413831
0.443702
0.473561
0.499444
0.522732
0.536017
0.549388
0.554149
0.522122
0.222871
1.76663
1.85264
1.75808
1.49464
1.07936
0.8773
0.703887
0.548795
0.421334
0.300233
0.172484
0.0809117
0.0586239
0.0568592
0.0565234
0.0557185
0.0532145
0.0493649
0.048683
0.0604249
0.0835904
0.112334
0.143576
0.176057
0.209275
0.242975
0.276575
0.310756
0.343612
0.375636
0.40725
0.437622
0.467443
0.493643
0.516337
0.528916
0.542936
0.549126
0.518675
0.211918
)
;

boundaryField
{
    inlet
    {
        type            calculated;
        value           uniform 0;
    }
    outlet
    {
        type            calculated;
        value           nonuniform List<scalar> 
165
(
1.76663
1.37634
0.976441
0.650714
0.739614
0.795243
0.78522
0.766763
0.747952
0.73096
0.714976
0.705185
0.704463
0.709115
0.714643
0.720885
0.729313
0.759847
1.71476
2.4986
2.4986
1.70821
0.792805
0.727924
0.700215
0.656321
0.621875
0.581474
0.545851
0.50838
0.472864
0.438038
0.405226
0.373914
0.34499
0.318752
0.295607
0.276236
0.262204
0.255271
0.252233
0.253234
0.261939
0.277576
0.297978
0.32046
0.349284
0.376487
0.408224
0.43919
0.471804
0.503359
0.53478
0.564617
0.594009
0.621741
0.646011
0.70883
1.60861
2.46471
0.211918
0.222871
0.241495
0.264408
0.291334
0.318571
0.350702
0.380859
0.414115
0.446153
0.478651
0.510113
0.540822
0.569884
0.597931
0.62357
0.645501
0.704437
1.6518
2.46471
0.203452
0.201644
0.202465
0.201644
0.203452
2.46471
1.6518
0.704437
0.645501
0.62357
0.597931
0.569884
0.540822
0.510113
0.478651
0.446153
0.414115
0.380859
0.350702
0.318571
0.291334
0.264408
0.241495
0.222871
0.211918
2.4986
1.70821
0.792805
0.727924
0.700215
0.656321
0.621875
0.581474
0.545851
0.50838
0.472864
0.438038
0.405226
0.373914
0.34499
0.318752
0.295607
0.276236
0.262204
0.255271
0.252233
0.253234
0.261939
0.277576
0.297978
0.32046
0.349284
0.376487
0.408224
0.43919
0.471804
0.503359
0.53478
0.564617
0.594009
0.621741
0.646011
0.70883
1.60861
2.46471
2.4986
1.71476
0.759847
0.729313
0.720885
0.714643
0.709115
0.704463
0.705185
0.714976
0.73096
0.747952
0.766763
0.78522
0.795243
0.739614
0.650714
0.976441
1.37634
1.76663
)
;
    }
    obstacle
    {
        type            calculated;
        value           nonuniform List<scalar> 
40
(
0.757395
0.0668771
0.0898508
0.0868101
0.0906173
0.0937375
0.0968727
0.0993508
0.0995113
0.0901528
0.757395
0.0668771
0.0898508
0.0868101
0.0906173
0.0937375
0.0968727
0.0993508
0.0995113
0.0901528
0.0976264
0.134498
0.186451
0.272119
0.415766
0.0976264
0.134498
0.186451
0.272119
0.415766
0.934638
1.37045
1.70236
1.67428
1.58173
0.934638
1.37045
1.70236
1.67428
1.58173
)
;
    }
    empty
    {
        type            empty;
    }
}


// ************************************************************************* //
