/*--------------------------------*- C++ -*----------------------------------*\
| =========                 |                                                 |
| \\      /  F ield         | OpenFOAM: The Open Source CFD Toolbox           |
|  \\    /   O peration     | Version:  v1912                                 |
|   \\  /    A nd           | Website:  www.openfoam.com                      |
|    \\/     M anipulation  |                                                 |
\*---------------------------------------------------------------------------*/
FoamFile
{
    version     2.0;
    format      ascii;
    class       volScalarField;
    location    "6.54";
    object      p;
}
// * * * * * * * * * * * * * * * * * * * * * * * * * * * * * * * * * * * * * //

dimensions      [1 -1 -2 0 0 0 0];


internalField   nonuniform List<scalar> 
1900
(
29408.8
9272.4
8634.49
8642.61
8642.25
8646.34
8651.14
8648.08
8641.87
8631.12
29408.9
9272.45
8634.47
8642.36
8641.67
8645.97
8651.37
8650.78
8647.39
8623.26
29408.9
9272.46
8634.39
8642.19
8641.57
8646.61
8652.07
8648.58
8637.19
8610.71
29408.9
9272.45
8634.47
8642.36
8641.67
8645.97
8651.37
8650.78
8647.39
8623.26
29408.8
9272.4
8634.49
8642.61
8642.25
8646.34
8651.14
8648.08
8641.87
8631.12
8741.82
8577.87
8506.67
8333.42
8584.17
8595.63
8484.72
8419.9
8247.2
8135.59
8566.71
8465.88
8404.8
8270.46
8172.93
8595.63
8484.72
8419.9
8247.2
8135.59
8741.82
8577.87
8506.67
8333.42
8584.17
3611.8
2116.39
1490
1062.13
811.972
4083.22
2330.87
1610.95
1137.63
895.579
4195.27
2289.98
1562.58
1101.51
865.117
4083.22
2330.87
1610.95
1137.63
895.579
3611.8
2116.39
1490
1062.13
811.972
811.138
718.453
530.1
495.835
667.344
1272.91
1418.83
1424.75
1391.85
1301.85
1177.92
1022.16
831.5
659.555
566.409
524.461
496.402
472.237
450.687
433.36
422.092
415.811
412.238
409.83
407.992
406.72
405.951
406.027
407.002
408.791
411.008
414.7
419.376
427.917
437.041
451.532
487.758
614.331
806.142
803.154
798.268
692.04
503.439
470.361
659.426
1293.2
1437.46
1434.07
1412.41
1322.69
1189.95
1028.14
834.517
660.805
566.791
524.55
496.48
472.365
450.757
433.375
422.074
415.79
412.219
409.813
407.976
406.705
405.936
406.01
406.986
408.776
410.991
414.688
419.359
427.927
437.036
451.506
487.695
614.318
806.22
803.279
786.894
690.589
499.192
469.253
657.481
1296.26
1447.09
1441.02
1409.65
1316.86
1186.87
1027.81
835.725
661.551
566.977
524.582
496.51
472.421
450.788
433.384
422.07
415.784
412.214
409.808
407.972
406.7
405.931
406.005
406.98
408.77
410.984
414.681
419.351
427.928
437.034
451.49
487.68
614.314
806.306
803.321
798.268
692.04
503.439
470.361
659.426
1293.2
1437.46
1434.07
1412.41
1322.69
1189.95
1028.14
834.517
660.805
566.791
524.55
496.48
472.365
450.757
433.375
422.074
415.79
412.219
409.813
407.976
406.705
405.936
406.01
406.986
408.776
410.991
414.688
419.359
427.927
437.036
451.506
487.695
614.318
806.22
803.279
811.138
718.453
530.1
495.835
667.344
1272.91
1418.83
1424.75
1391.85
1301.85
1177.92
1022.16
831.5
659.555
566.409
524.461
496.402
472.237
450.687
433.36
422.092
415.811
412.238
409.83
407.992
406.72
405.951
406.027
407.002
408.791
411.008
414.7
419.376
427.917
437.041
451.532
487.758
614.331
806.142
803.154
951.357
856.879
659.927
645.101
816.543
1219.72
1338.5
1372.01
1353.78
1271.99
1156.17
1006.27
819.849
653.16
564.361
523.88
495.988
471.653
450.271
433.264
422.147
415.897
412.317
409.899
408.055
406.78
406.013
406.093
407.065
408.849
411.073
414.744
419.423
427.842
437.015
451.594
487.961
614.396
805.716
802.674
943.286
850.767
838.536
862.638
970.042
1159.06
1255.4
1281.22
1250.49
1190.77
1099.26
962.651
786.792
636.303
559.398
522.397
494.817
470.301
449.314
432.967
422.255
416.116
412.525
410.082
408.224
406.945
406.184
406.274
407.238
409.013
411.248
414.888
419.537
427.723
436.902
451.759
488.471
615.035
805.47
802.323
945.967
882.655
899.565
967.192
1049.75
1104.8
1155.24
1172.47
1163.52
1119.16
1033.64
901.468
739.954
614.596
553.212
520.042
492.843
468.451
448.077
432.563
422.415
416.476
412.897
410.424
408.546
407.26
406.507
406.608
407.555
409.313
411.561
415.16
419.765
427.639
436.764
452.066
489.247
615.834
805.055
801.955
962.017
948.412
938.265
960.549
991.135
1030.47
1077.76
1091.5
1078.17
1039.81
957.703
830.527
689.397
593.5
546.886
516.93
490.217
466.291
446.767
432.217
422.718
417.035
413.489
410.987
409.084
407.788
407.043
407.146
408.066
409.797
412.051
415.605
420.142
427.688
436.665
452.456
490.295
616.911
804.666
801.582
929.229
915.556
902.985
936.508
952.114
970.577
986.284
1004.41
996.123
956.39
874.641
756.186
643.022
575.815
540.333
512.926
486.957
463.92
445.513
432.045
423.262
417.87
414.37
411.841
409.909
408.599
407.853
407.94
408.816
410.501
412.744
416.24
420.685
427.897
436.68
452.881
491.495
618.004
804.035
801.147
933.217
944.235
904.845
886.472
870.796
883.685
911.71
926.173
916.028
872.738
790.671
688.06
607
562.372
534.174
508.662
483.625
461.761
444.612
432.283
424.223
419.124
415.677
413.124
411.161
409.831
409.071
409.122
409.943
411.569
413.783
417.216
421.564
428.474
437.077
453.748
493.199
619.843
804.226
801.538
921.085
908.815
842.948
806.596
799.384
817.255
846.448
854.811
839.49
790.973
713.248
634.318
581.803
551.346
527.668
503.719
480.018
459.721
444.063
432.906
425.56
420.752
417.363
414.79
412.797
411.443
410.644
410.625
411.38
412.918
415.071
418.418
422.649
429.3
437.753
454.668
494.869
621.13
803.654
801.792
898.235
871.424
790.513
744.086
737.463
766.445
789.263
788.585
765.743
715.046
649.879
597.068
564.362
542.517
521.81
499.192
476.965
458.318
444.261
434.245
427.558
423.009
419.671
417.081
415.057
413.663
412.794
412.693
413.367
414.799
416.869
420.115
424.227
430.66
439.05
456.25
497.226
623.306
804.057
802.769
877.428
841.985
746.026
696.483
693.859
723.403
735.733
727.223
698.022
651.751
605.114
573.122
551.9
534.775
515.822
494.509
474.102
457.353
444.791
435.893
429.824
425.529
422.258
419.673
417.628
416.193
415.269
415.101
415.674
416.999
418.985
422.141
426.154
432.434
440.854
458.179
499.805
625.671
804.17
803.768
856.294
818.873
713.498
662.357
666.647
682.414
685.453
671.412
640.762
605.418
576.55
557.346
543.008
528.585
510.709
490.636
472.084
457.33
446.255
438.381
432.851
428.772
425.559
422.972
420.898
419.41
418.429
418.181
418.629
419.833
421.727
424.797
428.735
434.906
443.402
460.851
503.245
629.052
805.097
805.663
841.683
808.118
693.484
638.529
643.129
643.462
639.933
623.029
597.531
576.022
559.381
547.205
536.15
522.779
505.713
487.2
470.71
457.696
448.029
441.061
436.024
432.177
429.072
426.544
424.498
423.013
422.015
421.715
422.054
423.168
424.991
428.011
431.92
438.055
446.682
464.294
507.472
633.072
806.321
807.873
840.73
810.169
684.766
620.037
616.608
609.757
601.356
587.159
571.057
559.242
549.208
541.132
532.023
518.992
502.257
485.505
471.184
459.897
451.552
445.379
440.748
437.061
433.992
431.451
429.367
427.831
426.768
426.374
426.586
427.599
429.358
432.336
436.251
442.397
451.21
469.1
513.211
638.323
808.181
811.127
842.69
815.925
681.221
602.634
587.678
581.459
573.948
566.372
557.901
551.126
544.506
538.221
529.214
516.011
500.258
485.455
473.08
463.497
456.304
450.796
446.506
442.989
439.996
437.464
435.342
433.737
432.58
432.057
432.113
433.046
434.748
437.722
441.688
447.927
457.017
475.209
520.113
643.947
809.771
814.233
842.202
818.284
676.76
585.557
563.262
562.349
560.064
556.978
551.875
547.801
543.377
537.8
528.626
515.97
502.173
489.531
479.262
471.415
465.401
460.576
456.559
453.01
449.799
446.969
444.529
442.633
441.207
440.45
440.305
441.13
442.758
445.723
449.774
456.18
465.649
484.426
530.352
652.519
813.355
819.669
843.689
819.215
673.297
578.154
554.452
557.663
558.425
557.097
553.807
551.042
547.279
541.432
531.977
519.842
507.382
496.458
487.708
480.889
475.441
470.894
467.031
463.615
460.518
457.733
455.26
453.286
451.797
451.063
450.995
451.943
453.76
456.996
461.416
468.299
478.539
498.296
545.376
664.548
818.613
826.21
852.119
829.54
681.726
585.215
560.873
565.096
566.803
565.995
563.879
561.923
558.041
551.092
540.789
529.054
517.717
508.08
500.42
494.36
489.439
485.306
481.899
479.058
476.668
474.684
473.006
471.871
470.974
470.782
470.981
472.228
474.331
477.993
482.876
490.48
501.674
522.599
570.055
682.925
827.161
834.391
856.659
841.226
705.208
612.581
586.449
590.951
593.155
592.523
590.78
588.065
583.079
575.462
565.526
555.097
545.54
537.815
531.725
526.945
523.117
519.995
517.611
515.816
514.448
513.493
512.925
513.021
513.264
514.31
515.628
518.11
521.412
526.386
532.403
541.321
553.636
574.988
619.445
715.626
832.96
830.813
830.835
840.443
742.317
671.76
648.59
654.314
658.145
659.306
659.293
658.109
654.706
649.831
644.093
639.14
635.291
632.689
631.303
630.76
630.658
630.779
631.606
633.01
634.33
635.424
636.38
637.782
638.578
640.349
642.221
645.372
649.008
653.941
659.079
666.555
675.845
691.376
720.016
777.797
838.164
791.08
1235.5
724.632
782.112
760.369
753.806
762.701
772.477
779.991
785.98
790.264
791.789
792.01
791.209
791.159
792.173
794.177
796.976
800.131
803.15
805.7
808.221
810.472
811.913
812.705
812.971
813.628
813.291
813.857
813.995
815.157
816.348
818.201
819.559
822.317
825.379
832.021
836.201
842.336
732.806
1036.94
22976.2
991.325
720.192
745.16
760.496
764.155
772.846
779.157
783.348
786.462
787.555
788.627
789.486
790.959
793.015
795.575
798.24
800.865
803.321
805.487
807.462
808.971
810.014
810.872
811.454
812.123
812.429
813.296
814.092
815.983
818.119
821.325
824.153
828.825
833.385
839.707
835.139
800.4
985.705
18891.4
22976.2
991.325
720.192
745.16
760.496
764.155
772.846
779.157
783.348
786.462
787.555
788.627
789.486
790.959
793.015
795.575
798.24
800.865
803.321
805.487
807.462
808.971
810.014
810.872
811.454
812.123
812.429
813.296
814.092
815.983
818.119
821.325
824.153
828.825
833.385
839.707
835.139
800.4
985.705
18891.4
1235.5
724.632
782.112
760.369
753.806
762.701
772.477
779.991
785.98
790.264
791.789
792.01
791.209
791.159
792.173
794.177
796.976
800.131
803.15
805.7
808.221
810.472
811.913
812.705
812.971
813.628
813.291
813.857
813.995
815.157
816.348
818.201
819.559
822.317
825.379
832.021
836.201
842.336
732.806
1036.94
830.835
840.443
742.317
671.76
648.59
654.314
658.145
659.306
659.293
658.109
654.706
649.831
644.093
639.14
635.291
632.689
631.303
630.76
630.658
630.779
631.606
633.01
634.33
635.424
636.38
637.782
638.578
640.349
642.221
645.372
649.008
653.941
659.079
666.555
675.845
691.376
720.016
777.797
838.164
791.08
856.659
841.226
705.208
612.581
586.449
590.951
593.155
592.523
590.78
588.065
583.079
575.462
565.526
555.097
545.54
537.815
531.725
526.945
523.117
519.995
517.611
515.816
514.448
513.493
512.925
513.021
513.264
514.31
515.628
518.11
521.412
526.386
532.403
541.321
553.636
574.988
619.445
715.626
832.96
830.813
852.119
829.54
681.726
585.215
560.873
565.096
566.803
565.995
563.879
561.923
558.041
551.092
540.789
529.054
517.717
508.08
500.42
494.36
489.439
485.306
481.899
479.058
476.668
474.684
473.006
471.871
470.974
470.782
470.981
472.228
474.331
477.993
482.876
490.48
501.674
522.599
570.055
682.925
827.161
834.391
843.689
819.215
673.297
578.154
554.452
557.663
558.425
557.097
553.807
551.042
547.279
541.432
531.977
519.842
507.382
496.458
487.708
480.889
475.441
470.894
467.031
463.615
460.518
457.733
455.26
453.286
451.797
451.063
450.995
451.943
453.76
456.996
461.416
468.299
478.539
498.296
545.376
664.548
818.613
826.21
842.202
818.284
676.76
585.557
563.262
562.349
560.064
556.978
551.875
547.801
543.377
537.8
528.626
515.97
502.173
489.531
479.262
471.415
465.401
460.576
456.559
453.01
449.799
446.969
444.529
442.633
441.207
440.45
440.305
441.13
442.758
445.723
449.774
456.18
465.649
484.426
530.352
652.519
813.355
819.669
842.69
815.925
681.221
602.634
587.678
581.459
573.948
566.372
557.901
551.126
544.506
538.221
529.214
516.011
500.258
485.455
473.08
463.497
456.304
450.796
446.506
442.989
439.996
437.464
435.342
433.737
432.58
432.057
432.113
433.046
434.748
437.722
441.688
447.927
457.017
475.209
520.113
643.947
809.771
814.233
840.73
810.169
684.766
620.037
616.608
609.757
601.356
587.159
571.057
559.242
549.208
541.132
532.023
518.992
502.257
485.505
471.184
459.897
451.552
445.379
440.748
437.061
433.992
431.451
429.367
427.831
426.768
426.374
426.586
427.599
429.358
432.336
436.251
442.397
451.21
469.1
513.211
638.323
808.181
811.127
841.683
808.118
693.484
638.529
643.129
643.462
639.933
623.029
597.531
576.022
559.381
547.205
536.15
522.779
505.713
487.2
470.71
457.696
448.029
441.061
436.024
432.177
429.072
426.544
424.498
423.013
422.015
421.715
422.054
423.168
424.991
428.011
431.92
438.055
446.682
464.294
507.472
633.072
806.321
807.873
856.294
818.873
713.498
662.357
666.647
682.414
685.453
671.412
640.762
605.418
576.55
557.346
543.008
528.585
510.709
490.636
472.084
457.33
446.255
438.381
432.851
428.772
425.559
422.972
420.898
419.41
418.429
418.181
418.629
419.833
421.727
424.797
428.735
434.906
443.402
460.851
503.245
629.052
805.097
805.663
877.428
841.985
746.026
696.483
693.859
723.403
735.733
727.223
698.022
651.751
605.114
573.122
551.9
534.775
515.822
494.509
474.102
457.353
444.791
435.893
429.824
425.529
422.258
419.673
417.628
416.193
415.269
415.101
415.674
416.999
418.985
422.141
426.154
432.434
440.854
458.179
499.805
625.671
804.17
803.768
898.235
871.424
790.513
744.086
737.463
766.445
789.263
788.585
765.743
715.046
649.879
597.068
564.362
542.517
521.81
499.192
476.965
458.318
444.261
434.245
427.558
423.009
419.671
417.081
415.057
413.663
412.794
412.693
413.367
414.799
416.869
420.115
424.227
430.66
439.05
456.25
497.226
623.306
804.057
802.769
921.085
908.815
842.948
806.596
799.384
817.255
846.448
854.811
839.49
790.973
713.248
634.318
581.803
551.346
527.668
503.719
480.018
459.721
444.063
432.906
425.56
420.752
417.363
414.79
412.797
411.443
410.644
410.625
411.38
412.918
415.071
418.418
422.649
429.3
437.753
454.668
494.869
621.13
803.654
801.792
933.217
944.235
904.845
886.472
870.796
883.685
911.71
926.173
916.028
872.738
790.671
688.06
607
562.372
534.174
508.662
483.625
461.761
444.612
432.283
424.223
419.124
415.677
413.124
411.161
409.831
409.071
409.122
409.943
411.569
413.783
417.216
421.564
428.474
437.077
453.748
493.199
619.843
804.226
801.538
929.229
915.556
902.985
936.508
952.114
970.577
986.284
1004.41
996.123
956.39
874.641
756.186
643.022
575.815
540.333
512.926
486.957
463.92
445.513
432.045
423.262
417.87
414.37
411.841
409.909
408.599
407.853
407.94
408.816
410.501
412.744
416.24
420.685
427.897
436.68
452.881
491.495
618.004
804.035
801.147
962.017
948.412
938.265
960.549
991.135
1030.47
1077.76
1091.5
1078.17
1039.81
957.703
830.527
689.397
593.5
546.886
516.93
490.217
466.291
446.767
432.217
422.718
417.035
413.489
410.987
409.084
407.788
407.043
407.146
408.066
409.797
412.051
415.605
420.142
427.688
436.665
452.456
490.295
616.911
804.666
801.582
945.967
882.655
899.565
967.192
1049.75
1104.8
1155.24
1172.47
1163.52
1119.16
1033.64
901.468
739.954
614.596
553.212
520.042
492.843
468.451
448.077
432.563
422.415
416.476
412.897
410.424
408.546
407.26
406.507
406.608
407.555
409.313
411.561
415.16
419.765
427.639
436.764
452.066
489.247
615.834
805.055
801.955
943.286
850.767
838.536
862.638
970.042
1159.06
1255.4
1281.22
1250.49
1190.77
1099.26
962.651
786.792
636.303
559.398
522.397
494.817
470.301
449.314
432.967
422.255
416.116
412.525
410.082
408.224
406.945
406.184
406.274
407.238
409.013
411.248
414.888
419.537
427.723
436.902
451.759
488.471
615.035
805.47
802.323
951.357
856.879
659.927
645.101
816.543
1219.72
1338.5
1372.01
1353.78
1271.99
1156.17
1006.27
819.849
653.16
564.361
523.88
495.988
471.653
450.271
433.264
422.147
415.897
412.317
409.899
408.055
406.78
406.013
406.093
407.065
408.849
411.073
414.744
419.423
427.842
437.015
451.594
487.961
614.396
805.716
802.674
)
;

boundaryField
{
    inlet
    {
        type            fixedValue;
        value           uniform 10000;
    }
    outlet
    {
        type            fixedValue;
        value           uniform 1000;
    }
    obstacle
    {
        type            zeroGradient;
    }
    empty
    {
        type            empty;
    }
}


// ************************************************************************* //
