/*--------------------------------*- C++ -*----------------------------------*\
| =========                 |                                                 |
| \\      /  F ield         | OpenFOAM: The Open Source CFD Toolbox           |
|  \\    /   O peration     | Version:  v1912                                 |
|   \\  /    A nd           | Website:  www.openfoam.com                      |
|    \\/     M anipulation  |                                                 |
\*---------------------------------------------------------------------------*/
FoamFile
{
    version     2.0;
    format      ascii;
    class       volVectorField;
    location    "3.18";
    object      grad(rho);
}
// * * * * * * * * * * * * * * * * * * * * * * * * * * * * * * * * * * * * * //

dimensions      [1 -4 0 0 0 0 0];


internalField   nonuniform List<vector> 
1900
(
(66522.9 0.00614456 0)
(-48106.2 0.0734825 0)
(-4937.12 0.57912 0)
(321.897 0.887221 0)
(562.325 3.60654 0)
(640.12 4.80031 0)
(518.295 -8.2005 0)
(309.452 -67.3788 0)
(116.958 -236.759 0)
(-1303.1 -441.51 0)
(66523 0.0951721 0)
(-48105.6 0.157262 0)
(-4936.31 0.650012 0)
(324.925 -0.605054 0)
(566.238 -0.737053 0)
(628.313 -1.58472 0)
(446.116 -6.89108 0)
(80.8935 -47.4243 0)
(-257.174 -178.822 0)
(-740.758 -482.306 0)
(66523.2 3.37508e-09 0)
(-48105.7 -9.9476e-10 0)
(-4937.88 -1.79412e-09 0)
(320.51 4.05009e-09 0)
(561.345 7.88702e-09 0)
(633.966 2.39808e-09 0)
(472.455 -2.13163e-09 0)
(137.521 -2.71783e-09 0)
(-317.924 -4.72511e-09 0)
(-903.511 -6.57252e-10 0)
(66523 -0.0951721 0)
(-48105.6 -0.157262 0)
(-4936.31 -0.650012 0)
(324.925 0.605054 0)
(566.238 0.737053 0)
(628.313 1.58472 0)
(446.116 6.89108 0)
(80.8935 47.4243 0)
(-257.174 178.822 0)
(-740.758 482.306 0)
(66522.9 -0.00614456 0)
(-48106.2 -0.0734825 0)
(-4937.12 -0.57912 0)
(321.897 -0.887221 0)
(562.325 -3.60654 0)
(640.12 -4.80031 0)
(518.295 8.2005 0)
(309.452 67.3788 0)
(116.958 236.759 0)
(-1303.1 441.51 0)
(-1706.52 179.888 1.50952e-11)
(-1231.78 72.4206 -1.82637e-11)
(-3684.11 -363.701 -2.29112e-11)
(-16316.4 1935.68 0)
(-7068.01 18861.8 -8.53226e-11)
(-1057.12 80.481 1.51277e-11)
(-1816.82 -195.12 1.82637e-11)
(-2499.19 -762.572 2.29112e-11)
(-7619.68 574.2 0)
(-3809.22 15370.1 0)
(-1215.2 1.6412e-09 0)
(-2007.46 2.99955e-09 0)
(-3203.88 -3.00994e-09 0)
(-7892.16 -4.50818e-09 0)
(4449.06 -1.58603e-08 0)
(-1057.12 -80.481 1.51277e-11)
(-1816.82 195.12 1.82637e-11)
(-2499.19 762.572 2.29112e-11)
(-7619.68 -574.2 0)
(-3809.22 -15370.1 0)
(-1706.52 -179.888 -4.53506e-11)
(-1231.78 -72.4206 -1.82637e-11)
(-3684.11 363.701 -2.29112e-11)
(-16316.4 -1935.68 -6.10971e-11)
(-7068.01 -18861.8 8.53226e-11)
(21208.8 -3363.68 4.54188e-11)
(4656.42 -12.6559 -3.90294e-11)
(5051.19 968.687 0)
(2364.36 537.785 3.1475e-11)
(-10004.3 -6960.33 -1.41643e-11)
(14960.7 -3227.61 -2.26588e-11)
(5785.85 410.413 1.95145e-11)
(5222.23 248.31 0)
(-1053.53 -1168.34 -1.96732e-11)
(-15460.6 -13749.7 3.38515e-12)
(16473.6 -1.62384e-08 0)
(5499.65 -1.24497e-08 0)
(4373.01 -1.01976e-08 0)
(-3824.96 -3.57593e-08 7.85521e-12)
(-17236 -5.66149e-08 -6.77031e-12)
(14960.7 3227.61 -2.26588e-11)
(5785.85 -410.413 1.95145e-11)
(5222.23 -248.31 0)
(-1053.53 1168.34 -1.96732e-11)
(-15460.6 13749.7 3.38515e-12)
(21208.8 3363.68 2.26588e-11)
(4656.42 12.6559 3.81155e-16)
(5051.19 -968.687 0)
(2364.36 -537.785 1.61963e-14)
(-10004.3 6960.33 1.41643e-11)
(-38803.1 -53287.1 0)
(-29363.5 6123.53 0)
(-265.211 4728.48 0)
(-823.116 2046.61 0)
(-1829.57 1008 0)
(-1283.77 419.032 0)
(-358.247 220.19 0)
(168.914 175.301 0)
(418.722 145.575 0)
(694.201 118.414 0)
(916.27 108.35 0)
(1057.64 100.909 0)
(1098.14 96.7593 0)
(1022.6 91.9134 0)
(850.093 86.4213 0)
(626.977 81.1943 0)
(410.758 76.9679 0)
(225.966 73.8534 0)
(89.8765 72.0918 0)
(-3.37768 71.0323 0)
(-92.9956 70.827 0)
(-194.609 71.3407 0)
(-349.963 72.3147 0)
(-568.037 74.1979 0)
(-829.732 76.4619 0)
(-1111.37 78.9518 0)
(-1351.91 81.2907 0)
(-1501.85 83.2435 0)
(-1542.23 84.5092 0)
(-1492.59 85.1435 0)
(-1394.04 85.6552 0)
(-1290.38 85.9561 0)
(-1199.52 86.4118 0)
(-1107.39 83.5831 0)
(-935.62 77.7564 0)
(-726.541 79.0242 0)
(-482.123 71.658 0)
(2513.83 99.951 0)
(141354 670.649 0)
(-167628 4176.82 0)
(-36607.6 -19118.2 0)
(-24881.3 8603.5 0)
(-764.278 4141.76 0)
(-1496.78 1014.04 0)
(-1962.81 447.35 0)
(-1344.41 175.83 0)
(-377.297 97.8443 0)
(162.01 74.3957 0)
(415.332 61.6376 0)
(691.636 51.9677 0)
(914.87 46.8726 0)
(1056.66 42.716 0)
(1097.41 40.1356 0)
(1021.74 37.5062 0)
(849.181 34.6744 0)
(626.175 32.0962 0)
(410.148 30.0881 0)
(225.575 28.6858 0)
(89.6567 27.9321 0)
(-3.47509 27.498 0)
(-92.971 27.4262 0)
(-194.499 27.6524 0)
(-349.744 28.0905 0)
(-567.706 28.9863 0)
(-829.342 30.1873 0)
(-1110.96 31.6642 0)
(-1351.55 33.2988 0)
(-1501.59 34.9683 0)
(-1542.11 36.5232 0)
(-1492.55 37.9767 0)
(-1394.02 39.5976 0)
(-1290.33 41.4999 0)
(-1199.71 43.9122 0)
(-1108.17 45.4441 0)
(-935.922 45.7868 0)
(-727.211 50.4179 0)
(-480.258 50.5292 0)
(2576.01 66.6493 0)
(141949 336.506 0)
(-168318 7911.07 0)
(-32883 -1.03352e-08 0)
(-22596.9 2.29312e-09 0)
(-2473.05 3.55271e-10 0)
(-1897.85 1.33388e-08 0)
(-2073.42 1.37264e-08 0)
(-1385.45 1.16271e-09 0)
(-387.755 -2.39001e-08 0)
(158.381 -3.01981e-08 0)
(412.197 -3.19098e-08 0)
(689.906 2.83248e-08 0)
(913.578 1.39169e-07 0)
(1055.68 2.78145e-07 0)
(1096.62 4.08594e-07 0)
(1021.01 3.8576e-07 0)
(848.519 2.60317e-08 0)
(625.642 -7.32666e-07 0)
(409.766 -1.3114e-06 0)
(225.339 -1.21031e-06 0)
(89.5309 -7.67451e-07 0)
(-3.52485 4.41699e-07 0)
(-92.9507 1.08942e-06 0)
(-194.416 4.87368e-07 0)
(-349.575 -4.78647e-08 0)
(-567.427 2.06283e-07 0)
(-828.953 4.02845e-07 0)
(-1110.46 -5.59972e-07 0)
(-1350.95 -2.0171e-06 0)
(-1500.91 -3.01451e-06 0)
(-1541.36 -3.08489e-06 0)
(-1491.7 -2.17223e-06 0)
(-1393.01 -8.83689e-07 0)
(-1289.12 3.04274e-07 0)
(-1198.37 5.69694e-07 0)
(-1106.85 -2.22723e-07 0)
(-934.173 -2.06322e-06 0)
(-725.162 -3.526e-06 0)
(-477.401 -5.1038e-06 0)
(2597.02 -6.67059e-06 0)
(143636 2.26308e-07 0)
(-170117 7.32405e-05 0)
(-36607.6 19118.2 0)
(-24881.3 -8603.5 0)
(-764.278 -4141.76 0)
(-1496.78 -1014.04 0)
(-1962.81 -447.35 0)
(-1344.41 -175.83 0)
(-377.297 -97.8443 0)
(162.01 -74.3957 0)
(415.332 -61.6376 0)
(691.636 -51.9677 0)
(914.87 -46.8726 0)
(1056.66 -42.716 0)
(1097.41 -40.1356 0)
(1021.74 -37.5062 0)
(849.181 -34.6744 0)
(626.175 -32.0962 0)
(410.148 -30.0881 0)
(225.575 -28.6858 0)
(89.6567 -27.9321 0)
(-3.47509 -27.498 0)
(-92.971 -27.4262 0)
(-194.499 -27.6524 0)
(-349.744 -28.0905 0)
(-567.706 -28.9863 0)
(-829.342 -30.1873 0)
(-1110.96 -31.6642 0)
(-1351.55 -33.2988 0)
(-1501.59 -34.9683 0)
(-1542.11 -36.5232 0)
(-1492.55 -37.9767 0)
(-1394.02 -39.5976 0)
(-1290.33 -41.4999 0)
(-1199.71 -43.9122 0)
(-1108.17 -45.4441 0)
(-935.922 -45.7868 0)
(-727.211 -50.4179 0)
(-480.258 -50.5292 0)
(2576.01 -66.6493 0)
(141949 -336.506 0)
(-168318 -7911.07 0)
(-38803.1 53287.1 0)
(-29363.5 -6123.53 0)
(-265.211 -4728.48 0)
(-823.116 -2046.61 0)
(-1829.57 -1008 0)
(-1283.77 -419.032 0)
(-358.247 -220.19 0)
(168.914 -175.301 0)
(418.722 -145.575 0)
(694.201 -118.414 0)
(916.27 -108.35 0)
(1057.64 -100.909 0)
(1098.14 -96.7593 0)
(1022.6 -91.9134 0)
(850.093 -86.4213 0)
(626.977 -81.1943 0)
(410.758 -76.9679 0)
(225.966 -73.8534 0)
(89.8765 -72.0918 0)
(-3.37768 -71.0323 0)
(-92.9956 -70.827 0)
(-194.609 -71.3407 0)
(-349.963 -72.3147 0)
(-568.037 -74.1979 0)
(-829.732 -76.4619 0)
(-1111.37 -78.9518 0)
(-1351.91 -81.2907 0)
(-1501.85 -83.2435 0)
(-1542.23 -84.5092 0)
(-1492.59 -85.1435 0)
(-1394.04 -85.6552 0)
(-1290.38 -85.9561 0)
(-1199.52 -86.4117 0)
(-1107.39 -83.5831 0)
(-935.62 -77.7564 0)
(-726.541 -79.0242 0)
(-482.123 -71.658 0)
(2513.83 -99.951 0)
(141354 -670.649 0)
(-167628 -4176.82 0)
(91130.2 61885.2 0)
(-56090.4 -6831.83 0)
(1216.02 -3843.88 0)
(58.0396 -3085.94 0)
(-1095.92 -1705.44 0)
(-920.346 -839.446 0)
(-246.437 -464.239 0)
(200.832 -385.063 0)
(447.097 -293.786 0)
(712.02 -243.35 0)
(924.232 -220.713 0)
(1062.8 -207.585 0)
(1102.2 -198.463 0)
(1027.24 -187.873 0)
(854.849 -176.548 0)
(631.178 -166.091 0)
(414.048 -157.676 0)
(228.182 -151.452 0)
(91.1722 -147.86 0)
(-2.79429 -145.625 0)
(-93.1361 -145.188 0)
(-195.305 -146.326 0)
(-351.284 -148.425 0)
(-569.925 -152.352 0)
(-831.874 -157.205 0)
(-1113.53 -162.69 0)
(-1353.82 -168.23 0)
(-1503.31 -173.141 0)
(-1543.15 -176.981 0)
(-1493.22 -179.733 0)
(-1394.51 -182.223 0)
(-1290.74 -184.927 0)
(-1198.44 -187.456 0)
(-1103.64 -186.814 0)
(-933.412 -179.653 0)
(-724.159 -184.758 0)
(-491.229 -185.758 0)
(2272.17 -225.127 0)
(140080 -1048.68 0)
(-166003 -6599.94 0)
(106228 29468.6 0)
(-78370.6 -4108.06 0)
(2550.18 -3077.97 0)
(765.063 -2822.98 0)
(-58.1749 -1921.61 0)
(-282.594 -1179.95 0)
(19.6575 -754.883 0)
(316.053 -611.537 0)
(540.066 -490.08 0)
(755.062 -415.834 0)
(946.464 -383.105 0)
(1076.32 -362.837 0)
(1114.95 -346.858 0)
(1041.23 -328.715 0)
(868.533 -310.302 0)
(642.909 -293.476 0)
(423.099 -280.107 0)
(234.237 -270.209 0)
(94.7966 -264.553 0)
(-1.11535 -260.958 0)
(-93.5949 -260.362 0)
(-197.356 -262.387 0)
(-355.061 -265.879 0)
(-575.486 -272.333 0)
(-838.546 -280.273 0)
(-1120.84 -289.491 0)
(-1360.96 -298.523 0)
(-1509.5 -307.15 0)
(-1548.09 -313.346 0)
(-1497.31 -318.055 0)
(-1398.79 -322.368 0)
(-1295.23 -327.177 0)
(-1201.92 -330.951 0)
(-1101.89 -333.782 0)
(-934.823 -326.075 0)
(-733.701 -339.744 0)
(-516.141 -354.138 0)
(1811.88 -395.39 0)
(135894 -1451.63 0)
(-160949 -11006.9 0)
(112442 15763.4 0)
(-87453.4 -1843.95 0)
(2454.36 -2504.19 0)
(1172.35 -2247.15 0)
(487.357 -1883.51 0)
(203.958 -1378.12 0)
(301.31 -1041.72 0)
(456.005 -851.357 0)
(635.684 -737.756 0)
(815.104 -655.205 0)
(975.301 -615.392 0)
(1097.73 -587.417 0)
(1135.08 -562.123 0)
(1062.46 -535.696 0)
(888.807 -508.281 0)
(660.275 -484.429 0)
(436.468 -465.118 0)
(243.17 -450.924 0)
(100.087 -442.761 0)
(1.24382 -437.55 0)
(-94.5136 -436.875 0)
(-200.621 -440.097 0)
(-360.867 -445.441 0)
(-583.795 -454.884 0)
(-848.408 -466.702 0)
(-1131.11 -479.399 0)
(-1370.84 -493.471 0)
(-1517.59 -503.9 0)
(-1553.66 -513.877 0)
(-1501.91 -519.424 0)
(-1403.3 -524.596 0)
(-1299.01 -532.308 0)
(-1204.8 -535.323 0)
(-1098.94 -542.069 0)
(-939.157 -536.118 0)
(-751.202 -565.052 0)
(-544.852 -591.841 0)
(1214.59 -640.532 0)
(129854 -1874.88 0)
(-153669 -14473.2 0)
(119388 1914.61 0)
(-95974 -1460.29 0)
(2161.64 -2138.61 0)
(1363.17 -2023.06 0)
(779.26 -1868.08 0)
(528.588 -1539.33 0)
(527.263 -1309.28 0)
(608.965 -1133.26 0)
(729.085 -1022.64 0)
(872.976 -954.746 0)
(1011.79 -910.909 0)
(1127.65 -877.937 0)
(1164.79 -846.394 0)
(1093.11 -809.136 0)
(917.935 -775.031 0)
(684.503 -742.985 0)
(455.386 -718.233 0)
(255.781 -699.631 0)
(107.685 -688.856 0)
(4.55669 -681.91 0)
(-96.0498 -681.259 0)
(-205.61 -685.912 0)
(-369.311 -693.364 0)
(-595.974 -706.103 0)
(-862.169 -721.106 0)
(-1146.63 -739.507 0)
(-1384.57 -754.386 0)
(-1529.16 -772.387 0)
(-1563.05 -780.1 0)
(-1507.64 -789.763 0)
(-1411.21 -796.179 0)
(-1305.57 -805.747 0)
(-1211.32 -807.667 0)
(-1102.65 -822.01 0)
(-956.97 -822.831 0)
(-787.399 -866.68 0)
(-588.876 -905 0)
(575.492 -965.229 0)
(122564 -2128.01 0)
(-144754 -16575.6 0)
(112694 -8269.34 0)
(-91359.2 -1464.3 0)
(1912.07 -1966.13 0)
(1433.04 -1998.52 0)
(953.491 -1893.82 0)
(742.439 -1700.36 0)
(692.617 -1536.9 0)
(732.227 -1408.45 0)
(807.705 -1321.83 0)
(922.769 -1271.28 0)
(1049.32 -1233.17 0)
(1159.9 -1203.39 0)
(1201.38 -1165.02 0)
(1131.23 -1128.39 0)
(952.553 -1085.77 0)
(715.008 -1051.27 0)
(478.245 -1021.98 0)
(271.479 -1000.72 0)
(117.164 -988.099 0)
(8.56477 -979.881 0)
(-98.3703 -979.407 0)
(-212.286 -985.278 0)
(-380.324 -994.467 0)
(-610.528 -1008.97 0)
(-880.598 -1027.5 0)
(-1163.18 -1044.89 0)
(-1402.52 -1066.97 0)
(-1542.37 -1077.26 0)
(-1570.4 -1090.31 0)
(-1517.41 -1094.02 0)
(-1418.7 -1096.51 0)
(-1310.08 -1106.29 0)
(-1220.47 -1101.77 0)
(-1113.55 -1111.9 0)
(-982.203 -1117 0)
(-830.383 -1156.78 0)
(-639.817 -1204.98 0)
(36.0581 -1263.83 0)
(114811 -2087.59 0)
(-135135 -17814.5 0)
(109435 -5464.31 0)
(-89900 -1453.34 0)
(1646.84 -1868.72 0)
(1432.85 -1983.34 0)
(1066.58 -1898.5 0)
(872.53 -1800.12 0)
(808.557 -1693.94 0)
(816.21 -1616.41 0)
(861.275 -1567.04 0)
(958.419 -1539.35 0)
(1077.21 -1513.87 0)
(1193.32 -1488.11 0)
(1237.06 -1459.93 0)
(1169.48 -1420.68 0)
(992.251 -1384.31 0)
(745.969 -1347.41 0)
(504.094 -1318.95 0)
(288.43 -1296.95 0)
(127.77 -1283.94 0)
(12.9329 -1275.23 0)
(-101.251 -1274.88 0)
(-220.122 -1281.2 0)
(-392.143 -1290.72 0)
(-627.809 -1305.6 0)
(-896.785 -1322.03 0)
(-1184.67 -1341.61 0)
(-1415.75 -1353.46 0)
(-1551.65 -1365.44 0)
(-1579.21 -1361.84 0)
(-1513.62 -1359.1 0)
(-1423.03 -1350.01 0)
(-1310.64 -1344.42 0)
(-1216.72 -1327.16 0)
(-1117.33 -1318.86 0)
(-1000.22 -1317.45 0)
(-872.18 -1333.74 0)
(-692.031 -1383.7 0)
(-275.016 -1435.24 0)
(106615 -1817.01 0)
(-125018 -18256.1 0)
(105681 -7984.23 0)
(-87894.4 -1452.46 0)
(1401.34 -1789.87 0)
(1404.33 -1911.2 0)
(1130.05 -1868.8 0)
(939.566 -1818.75 0)
(869.645 -1757.46 0)
(854.514 -1725.36 0)
(881.964 -1707.74 0)
(974.006 -1697.02 0)
(1098.7 -1683.49 0)
(1211.88 -1667.74 0)
(1266.36 -1646.47 0)
(1204.11 -1620.56 0)
(1023.16 -1588.84 0)
(777.99 -1559.65 0)
(526.865 -1534.29 0)
(305.218 -1514.86 0)
(138.101 -1503.05 0)
(17.297 -1494.79 0)
(-104.121 -1494.26 0)
(-227.557 -1499.74 0)
(-403.842 -1507.69 0)
(-640.697 -1519.3 0)
(-915.297 -1532.23 0)
(-1193.47 -1542.9 0)
(-1425.48 -1549.11 0)
(-1550.45 -1544.5 0)
(-1564.3 -1528.2 0)
(-1506 -1510.01 0)
(-1404.55 -1483.26 0)
(-1288.06 -1462.74 0)
(-1195.85 -1431.33 0)
(-1104.2 -1405.27 0)
(-996.536 -1393.94 0)
(-894.226 -1397.03 0)
(-737.625 -1434.68 0)
(-381.493 -1479.49 0)
(98602.2 -1578.69 0)
(-115215 -18318.1 0)
(99912.2 -10385.8 0)
(-83930.8 -1435.56 0)
(1204.79 -1651.59 0)
(1356.79 -1766.47 0)
(1155.66 -1763 0)
(979.818 -1742.35 0)
(898.55 -1713 0)
(864.123 -1718.39 0)
(888.587 -1723.09 0)
(981.788 -1726.5 0)
(1105.42 -1719.07 0)
(1229 -1714.4 0)
(1282.53 -1700.29 0)
(1225.01 -1687.32 0)
(1050.94 -1664.22 0)
(798.536 -1643.86 0)
(547.248 -1624.48 0)
(318.534 -1609.35 0)
(147.115 -1599.83 0)
(21.4005 -1592.61 0)
(-106.019 -1591.51 0)
(-233.063 -1594.96 0)
(-410.997 -1599.65 0)
(-651.451 -1605.93 0)
(-919.52 -1612.4 0)
(-1200.93 -1613.38 0)
(-1417.3 -1611.65 0)
(-1531.5 -1590.82 0)
(-1545.98 -1565.86 0)
(-1470.31 -1529.28 0)
(-1377.48 -1492.62 0)
(-1260.6 -1459.1 0)
(-1161.34 -1419.28 0)
(-1081.3 -1383.18 0)
(-992.285 -1364.93 0)
(-911.434 -1365.92 0)
(-771.488 -1386.35 0)
(-413.795 -1420.26 0)
(90388.7 -1447.51 0)
(-105258 -18004.2 0)
(93812 -11412.2 0)
(-79477.8 -1373.11 0)
(1082.46 -1504.46 0)
(1296.97 -1608.61 0)
(1153.29 -1635.29 0)
(987.747 -1640.76 0)
(892.738 -1634.64 0)
(844.785 -1657.62 0)
(874.145 -1670.12 0)
(977.88 -1672.33 0)
(1110.36 -1672.22 0)
(1229.98 -1661.91 0)
(1292.46 -1661.01 0)
(1238.86 -1644.35 0)
(1065.03 -1633.68 0)
(816.293 -1614.77 0)
(560.127 -1601.67 0)
(328.966 -1589.57 0)
(154.229 -1582.2 0)
(25.316 -1575.73 0)
(-106.382 -1573.81 0)
(-235.403 -1575.18 0)
(-414.417 -1576.47 0)
(-652.977 -1579.04 0)
(-922.471 -1578.5 0)
(-1192.75 -1579.95 0)
(-1403.75 -1564.78 0)
(-1506.32 -1551.77 0)
(-1505 -1510.58 0)
(-1435.43 -1479.29 0)
(-1336.92 -1433.27 0)
(-1217.38 -1398.96 0)
(-1122.69 -1358.79 0)
(-1051.83 -1326.02 0)
(-979.895 -1308.24 0)
(-914.872 -1309.84 0)
(-789.992 -1321.39 0)
(-440.423 -1346.11 0)
(82621.4 -1360.86 0)
(-95887.3 -17503.1 0)
(87148.3 -12152.1 0)
(-74383.4 -1288.13 0)
(977.849 -1367.97 0)
(1230.72 -1445.87 0)
(1124.69 -1503.01 0)
(980.443 -1520.76 0)
(882.299 -1526.7 0)
(829.932 -1548.45 0)
(874.413 -1556.55 0)
(979.758 -1561.89 0)
(1115.47 -1558.59 0)
(1239.8 -1557.98 0)
(1299.45 -1552.18 0)
(1251.35 -1550.37 0)
(1079.45 -1536.01 0)
(829.38 -1524.52 0)
(571.533 -1511.47 0)
(337.297 -1500.87 0)
(160.449 -1493.83 0)
(29.4863 -1486.98 0)
(-105.492 -1484.23 0)
(-235.628 -1484.72 0)
(-414.717 -1484.72 0)
(-653.414 -1485.34 0)
(-920.393 -1486.06 0)
(-1187.71 -1480.33 0)
(-1390.14 -1474.05 0)
(-1479.26 -1446.46 0)
(-1476.13 -1416.02 0)
(-1395.82 -1376.46 0)
(-1300.07 -1332.28 0)
(-1188.82 -1298.81 0)
(-1091.06 -1264.44 0)
(-1032.59 -1235.29 0)
(-976.687 -1220.79 0)
(-924.11 -1226.38 0)
(-806.443 -1237.49 0)
(-451.83 -1259.31 0)
(74819.3 -1277.53 0)
(-86509.3 -16943.3 0)
(80438.6 -12577 0)
(-69085.9 -1185.7 0)
(930.462 -1244.02 0)
(1166.84 -1298.86 0)
(1081.12 -1381.7 0)
(964.921 -1402.27 0)
(866.058 -1422.85 0)
(816.026 -1440.62 0)
(861.193 -1444.18 0)
(975.909 -1451.52 0)
(1114.13 -1443.36 0)
(1236.15 -1447.22 0)
(1299.79 -1444.56 0)
(1254.45 -1444.05 0)
(1089.94 -1432.02 0)
(839.935 -1417.75 0)
(582.921 -1403.7 0)
(345.971 -1391.99 0)
(167.609 -1383.99 0)
(34.5633 -1375.69 0)
(-104.204 -1372.25 0)
(-235.874 -1373.18 0)
(-415.012 -1373.52 0)
(-654.267 -1375.63 0)
(-917.645 -1378.17 0)
(-1181.18 -1378.92 0)
(-1371.12 -1371.15 0)
(-1450.4 -1349.55 0)
(-1437.55 -1315.9 0)
(-1354.74 -1278.63 0)
(-1262.08 -1240.5 0)
(-1152.01 -1203.91 0)
(-1061.48 -1173.93 0)
(-1009.77 -1147.49 0)
(-971.313 -1135.43 0)
(-930.963 -1143.6 0)
(-821.723 -1154.12 0)
(-479.008 -1171.16 0)
(67507.7 -1191.02 0)
(-77775.2 -16197.7 0)
(73488.2 -12877.4 0)
(-63462.6 -1110.54 0)
(868.808 -1174.89 0)
(1098.05 -1221.5 0)
(1025.03 -1291.97 0)
(940.781 -1309.08 0)
(845.344 -1336.14 0)
(809.385 -1342.53 0)
(863.915 -1337.15 0)
(980.549 -1332.97 0)
(1119.61 -1327.14 0)
(1238.64 -1325.15 0)
(1302.5 -1331.89 0)
(1263.44 -1331.09 0)
(1104.79 -1328.78 0)
(856.675 -1317.39 0)
(596.358 -1307.89 0)
(356.291 -1296.98 0)
(176.155 -1288.72 0)
(40.7924 -1278.78 0)
(-103.073 -1274.76 0)
(-236.853 -1276.54 0)
(-417.075 -1276.69 0)
(-657.888 -1278.71 0)
(-923.565 -1278.28 0)
(-1180.95 -1279.33 0)
(-1361.84 -1264.89 0)
(-1426.02 -1248.21 0)
(-1407.8 -1208.03 0)
(-1323.16 -1181.51 0)
(-1228.07 -1141.86 0)
(-1124.68 -1114.14 0)
(-1036.68 -1090.86 0)
(-995.487 -1073.69 0)
(-972.946 -1068.97 0)
(-942.117 -1079.44 0)
(-832.997 -1091.22 0)
(-487.387 -1105.97 0)
(60339.1 -1123.33 0)
(-69228.2 -15424.5 0)
(66577.8 -13083.2 0)
(-57809 -1054.5 0)
(823.544 -1111.28 0)
(1054.02 -1166.66 0)
(996.72 -1213.6 0)
(922.36 -1221.88 0)
(833.823 -1253.58 0)
(815.045 -1248.86 0)
(870.413 -1238.4 0)
(985.558 -1233.72 0)
(1121.66 -1226.27 0)
(1231.57 -1231.62 0)
(1294.06 -1240.41 0)
(1257.45 -1247.95 0)
(1103.15 -1246 0)
(860.067 -1234.41 0)
(602.59 -1223.68 0)
(364.438 -1213.22 0)
(185.141 -1205.84 0)
(48.0148 -1195.16 0)
(-102.04 -1190.68 0)
(-237.731 -1192.55 0)
(-417.109 -1191.44 0)
(-655.797 -1193.32 0)
(-918.243 -1195.38 0)
(-1168.28 -1197.73 0)
(-1341.13 -1186.5 0)
(-1395.6 -1163.24 0)
(-1373.27 -1126.45 0)
(-1290.97 -1095.84 0)
(-1197.15 -1061.4 0)
(-1102.86 -1037.7 0)
(-1022.51 -1022.18 0)
(-988.672 -1011.36 0)
(-976.846 -1011.83 0)
(-952.403 -1021.8 0)
(-847.287 -1032.63 0)
(-509.951 -1044.1 0)
(53709.8 -1061.48 0)
(-61341 -14630.9 0)
(59490.7 -12949.2 0)
(-51926 -1022.99 0)
(760.724 -1084.71 0)
(999.451 -1151.43 0)
(971.822 -1192.19 0)
(902.253 -1197.25 0)
(819.343 -1216.17 0)
(824.018 -1204.23 0)
(878.51 -1189.5 0)
(992.235 -1170.51 0)
(1121.62 -1158.05 0)
(1225.01 -1158.18 0)
(1286.78 -1155.06 0)
(1258.06 -1156.87 0)
(1117.83 -1141.64 0)
(878.187 -1126.66 0)
(616.773 -1113.75 0)
(373.483 -1107.32 0)
(193.562 -1104.31 0)
(55.3948 -1097.08 0)
(-100.558 -1092.26 0)
(-237.584 -1090.39 0)
(-417.813 -1084.74 0)
(-661.68 -1083.15 0)
(-927.815 -1087.85 0)
(-1172.39 -1095.25 0)
(-1328.6 -1097.4 0)
(-1368.16 -1083.67 0)
(-1342.85 -1061.47 0)
(-1260.48 -1040.55 0)
(-1172.04 -1016.59 0)
(-1086.88 -1004.17 0)
(-1011.31 -996.277 0)
(-985.513 -993.264 0)
(-983.005 -999.273 0)
(-962.166 -1007.82 0)
(-854.482 -1014.45 0)
(-515.183 -1017.76 0)
(47246.4 -1024.54 0)
(-53656.4 -13742.1 0)
(52772.9 -12899.2 0)
(-46376 -990.635 0)
(699.769 -1054.64 0)
(950.457 -1130.63 0)
(952.573 -1168.49 0)
(899.247 -1183.43 0)
(827.096 -1189.63 0)
(840.746 -1167.9 0)
(902.903 -1140.92 0)
(1015.87 -1107.43 0)
(1133.54 -1073.87 0)
(1234.45 -1060.48 0)
(1295.32 -1041.29 0)
(1270.39 -1031.88 0)
(1132.26 -1005.47 0)
(886.938 -974.462 0)
(621.228 -946.218 0)
(373.539 -928.456 0)
(195.006 -919.121 0)
(59.6227 -909.039 0)
(-95.5974 -904.091 0)
(-230.486 -904.95 0)
(-410.123 -905.227 0)
(-658.794 -915.007 0)
(-929.911 -934.498 0)
(-1177.47 -959.865 0)
(-1329.97 -973.844 0)
(-1360.99 -976.939 0)
(-1331.72 -970.664 0)
(-1247.72 -969.956 0)
(-1162.1 -966.981 0)
(-1083.28 -971.035 0)
(-1012 -977.461 0)
(-991.56 -987.18 0)
(-990.876 -997.029 0)
(-967.028 -999.792 0)
(-856.866 -998.978 0)
(-519.67 -990.343 0)
(41448.2 -985.305 0)
(-46717.3 -12991.2 0)
(45760.6 -11812.4 0)
(-40512.1 -850.173 0)
(625.816 -970.154 0)
(889.741 -1084.36 0)
(920.943 -1125.98 0)
(881.874 -1147.02 0)
(834.314 -1139.78 0)
(870.956 -1105.07 0)
(936.776 -1065.28 0)
(1056.85 -1030.71 0)
(1166.87 -983.852 0)
(1256.41 -961.176 0)
(1314.33 -923.345 0)
(1292.58 -893.142 0)
(1173.17 -848.99 0)
(935.28 -805.867 0)
(661.106 -760.674 0)
(399.595 -728.985 0)
(212.274 -712.051 0)
(69.8782 -698.664 0)
(-96.6176 -693.795 0)
(-238.679 -698.31 0)
(-427.504 -706.093 0)
(-689.886 -730.165 0)
(-971.042 -766.359 0)
(-1210.31 -805.411 0)
(-1345.05 -836.074 0)
(-1365.09 -864.466 0)
(-1336.12 -876.212 0)
(-1256.93 -889.901 0)
(-1173.08 -898.298 0)
(-1096.98 -911.293 0)
(-1026.87 -925.937 0)
(-1004.37 -941.369 0)
(-995.158 -950.015 0)
(-964.043 -948.046 0)
(-845.377 -939.745 0)
(-502.008 -891.775 0)
(35682 -827.279 0)
(-39800.1 -11460.2 0)
(40382.5 -11152.7 0)
(-35928 -535.434 0)
(474.096 -743.249 0)
(800.295 -937.589 0)
(892.191 -997.009 0)
(885.951 -1018.38 0)
(867.519 -977.919 0)
(912.537 -935.758 0)
(974.564 -891.844 0)
(1094.34 -852.487 0)
(1200.55 -815.404 0)
(1292.75 -782.034 0)
(1360.88 -736.179 0)
(1342.04 -690.523 0)
(1216.36 -643.738 0)
(972.042 -598.671 0)
(695.315 -555.602 0)
(420.394 -521.772 0)
(224.225 -497.802 0)
(77.2152 -477.44 0)
(-95.2567 -473.496 0)
(-242.337 -486.849 0)
(-440.819 -503.798 0)
(-716.869 -532.9 0)
(-1002.42 -570.99 0)
(-1244.65 -613.856 0)
(-1386.88 -650.775 0)
(-1399.66 -688.62 0)
(-1356.23 -714.786 0)
(-1269.01 -735.319 0)
(-1182.71 -750.959 0)
(-1109.92 -762.938 0)
(-1040.99 -780.248 0)
(-1014.76 -791.054 0)
(-997.31 -797.591 0)
(-957.131 -789.625 0)
(-802.641 -748.511 0)
(-411.294 -619.429 0)
(31264.1 -456.708 0)
(-34689.8 -9926.26 0)
(34789.7 2351.71 0)
(-30481.2 338.825 0)
(238.284 -209.045 0)
(645.209 -471.768 0)
(843.092 -576.605 0)
(900.269 -601.725 0)
(913.93 -569.936 0)
(953.902 -538.912 0)
(1017.02 -494.676 0)
(1130.51 -459.159 0)
(1234.76 -429.07 0)
(1332.75 -398.961 0)
(1402.52 -343.003 0)
(1381.65 -163.538 0)
(1261.68 277.812 0)
(1020.21 950.225 0)
(735.207 1730.7 0)
(455.294 2473.52 0)
(254.995 2987.47 0)
(93.2997 3187.23 0)
(-105.685 3190.08 0)
(-267.878 2995.52 0)
(-471.881 2487.37 0)
(-754.635 1751.11 0)
(-1049.05 979.204 0)
(-1287.19 315.564 0)
(-1417.1 -122.356 0)
(-1426.78 -302.666 0)
(-1381.12 -356.818 0)
(-1291.79 -369.046 0)
(-1199.7 -394.449 0)
(-1125.2 -401.013 0)
(-1053.96 -425.131 0)
(-1021.08 -431.557 0)
(-993.782 -439.718 0)
(-916.748 -426.371 0)
(-681.369 -339.265 0)
(-220.816 -127.937 0)
(26713.6 379.187 0)
(-30111 5697.84 0)
(42635.4 512805 0)
(-38395.6 38773.8 0)
(-307.021 29050.1 0)
(446.1 33991.8 0)
(766.96 38827.1 0)
(892.378 45176.6 0)
(928.048 51591.1 0)
(985.06 58846.2 0)
(1051.42 66247 0)
(1157.56 74324.3 0)
(1258.56 82490.3 0)
(1375.69 91237.5 0)
(1587.74 99873.2 0)
(1940.28 108898 0)
(2289.63 117546 0)
(2372.1 126303 0)
(2163.21 134354 0)
(1631.46 141569 0)
(911.981 146517 0)
(272.462 150397 0)
(-279.994 150408 0)
(-919.493 146530 0)
(-1639.97 141587 0)
(-2170.19 134374 0)
(-2385.77 126325 0)
(-2306.16 117568 0)
(-1982.63 108920 0)
(-1625.6 99888.6 0)
(-1420.19 91249.1 0)
(-1305.27 82483.3 0)
(-1213.52 74297.2 0)
(-1139.48 66227.4 0)
(-1070.42 58784.3 0)
(-1028.82 51512.8 0)
(-992.312 44997.9 0)
(-860.331 38542.1 0)
(-515.06 33561.5 0)
(281.032 28395 0)
(36878 37314.3 0)
(-39721.8 501852 0)
(561919 -584255 0)
(-496645 -42698.1 0)
(-4369.81 -33698.1 0)
(10066.7 -38693 0)
(11621.1 -44222.7 0)
(13200.1 -51692.8 0)
(14086.5 -59206.2 0)
(15076.8 -67663 0)
(15932.3 -76336.3 0)
(16783.1 -85797.8 0)
(17532.9 -95511 0)
(18083.6 -105888 0)
(18420.6 -116312 0)
(18412.3 -127264 0)
(18034.1 -138039 0)
(17216.2 -148942 0)
(15445.6 -158920 0)
(12176.8 -167704 0)
(8762.09 -173629 0)
(3842.1 -178036 0)
(-3832.02 -178042 0)
(-8767.91 -173626 0)
(-12185.5 -167696 0)
(-15461.8 -158899 0)
(-17244.3 -148909 0)
(-18059.3 -137974 0)
(-18453.4 -127187 0)
(-18454.8 -116156 0)
(-18153.5 -105732 0)
(-17627.3 -95230.5 0)
(-16864.5 -85486.1 0)
(-16074 -75902.2 0)
(-15233.5 -67093.8 0)
(-14306.2 -58496.3 0)
(-13492.8 -50752.6 0)
(-11937.2 -43048.6 0)
(-10459.5 -37263.2 0)
(3395.45 -31970.7 0)
(482954 -40270.4 0)
(-545179 -566757 0)
(561919 584255 0)
(-496645 42698.1 0)
(-4369.81 33698.1 0)
(10066.7 38693 0)
(11621.1 44222.7 0)
(13200.1 51692.8 0)
(14086.5 59206.2 0)
(15076.8 67663 0)
(15932.3 76336.3 0)
(16783.1 85797.8 0)
(17532.9 95511 0)
(18083.6 105888 0)
(18420.6 116312 0)
(18412.3 127264 0)
(18034.1 138039 0)
(17216.2 148942 0)
(15445.6 158920 0)
(12176.8 167704 0)
(8762.09 173629 0)
(3842.1 178036 0)
(-3832.02 178042 0)
(-8767.91 173626 0)
(-12185.5 167696 0)
(-15461.8 158899 0)
(-17244.3 148909 0)
(-18059.3 137974 0)
(-18453.4 127187 0)
(-18454.8 116156 0)
(-18153.5 105732 0)
(-17627.3 95230.5 0)
(-16864.5 85486.1 0)
(-16074 75902.2 0)
(-15233.5 67093.8 0)
(-14306.2 58496.3 0)
(-13492.8 50752.6 0)
(-11937.2 43048.6 0)
(-10459.5 37263.2 0)
(3395.45 31970.7 0)
(482954 40270.4 0)
(-545179 566757 0)
(42635.4 -512805 0)
(-38395.6 -38773.8 0)
(-307.021 -29050.1 0)
(446.1 -33991.8 0)
(766.96 -38827.1 0)
(892.378 -45176.6 0)
(928.048 -51591.1 0)
(985.06 -58846.2 0)
(1051.42 -66247 0)
(1157.56 -74324.3 0)
(1258.56 -82490.3 0)
(1375.69 -91237.5 0)
(1587.74 -99873.2 0)
(1940.28 -108898 0)
(2289.63 -117546 0)
(2372.1 -126303 0)
(2163.21 -134354 0)
(1631.46 -141569 0)
(911.981 -146517 0)
(272.462 -150397 0)
(-279.994 -150408 0)
(-919.493 -146530 0)
(-1639.97 -141587 0)
(-2170.19 -134374 0)
(-2385.77 -126325 0)
(-2306.16 -117568 0)
(-1982.63 -108920 0)
(-1625.6 -99888.6 0)
(-1420.19 -91249.1 0)
(-1305.27 -82483.3 0)
(-1213.52 -74297.2 0)
(-1139.48 -66227.4 0)
(-1070.42 -58784.3 0)
(-1028.82 -51512.8 0)
(-992.312 -44997.9 0)
(-860.331 -38542.1 0)
(-515.06 -33561.5 0)
(281.032 -28395 0)
(36878 -37314.3 0)
(-39721.8 -501852 0)
(34789.7 -2351.71 0)
(-30481.2 -338.825 0)
(238.284 209.045 0)
(645.209 471.768 0)
(843.092 576.605 0)
(900.269 601.725 0)
(913.93 569.936 0)
(953.902 538.912 0)
(1017.02 494.676 0)
(1130.51 459.159 0)
(1234.76 429.07 0)
(1332.75 398.961 0)
(1402.52 343.003 0)
(1381.65 163.538 0)
(1261.68 -277.812 0)
(1020.21 -950.225 0)
(735.207 -1730.7 0)
(455.294 -2473.52 0)
(254.995 -2987.47 0)
(93.2997 -3187.23 0)
(-105.685 -3190.08 0)
(-267.878 -2995.52 0)
(-471.881 -2487.37 0)
(-754.635 -1751.11 0)
(-1049.05 -979.204 0)
(-1287.19 -315.564 0)
(-1417.1 122.356 0)
(-1426.78 302.666 0)
(-1381.12 356.818 0)
(-1291.79 369.046 0)
(-1199.7 394.449 0)
(-1125.2 401.013 0)
(-1053.96 425.131 0)
(-1021.08 431.557 0)
(-993.782 439.718 0)
(-916.748 426.371 0)
(-681.369 339.265 0)
(-220.816 127.937 0)
(26713.6 -379.187 0)
(-30111 -5697.84 0)
(40382.5 11152.7 0)
(-35928 535.434 0)
(474.096 743.249 0)
(800.295 937.589 0)
(892.191 997.009 0)
(885.951 1018.38 0)
(867.519 977.919 0)
(912.537 935.758 0)
(974.564 891.844 0)
(1094.34 852.487 0)
(1200.55 815.404 0)
(1292.75 782.034 0)
(1360.88 736.179 0)
(1342.04 690.523 0)
(1216.36 643.738 0)
(972.042 598.671 0)
(695.315 555.602 0)
(420.394 521.772 0)
(224.225 497.802 0)
(77.2152 477.44 0)
(-95.2567 473.496 0)
(-242.337 486.849 0)
(-440.819 503.798 0)
(-716.869 532.9 0)
(-1002.42 570.99 0)
(-1244.65 613.856 0)
(-1386.88 650.775 0)
(-1399.66 688.62 0)
(-1356.23 714.786 0)
(-1269.01 735.319 0)
(-1182.71 750.959 0)
(-1109.92 762.938 0)
(-1040.99 780.248 0)
(-1014.76 791.054 0)
(-997.31 797.591 0)
(-957.131 789.625 0)
(-802.641 748.511 0)
(-411.294 619.429 0)
(31264.1 456.708 0)
(-34689.8 9926.26 0)
(45760.6 11812.4 0)
(-40512.1 850.173 0)
(625.816 970.154 0)
(889.741 1084.36 0)
(920.943 1125.98 0)
(881.874 1147.02 0)
(834.314 1139.78 0)
(870.956 1105.07 0)
(936.776 1065.28 0)
(1056.85 1030.71 0)
(1166.87 983.852 0)
(1256.41 961.176 0)
(1314.33 923.345 0)
(1292.58 893.142 0)
(1173.17 848.99 0)
(935.28 805.867 0)
(661.106 760.674 0)
(399.595 728.985 0)
(212.274 712.051 0)
(69.8782 698.664 0)
(-96.6176 693.795 0)
(-238.679 698.31 0)
(-427.504 706.093 0)
(-689.886 730.165 0)
(-971.042 766.359 0)
(-1210.31 805.411 0)
(-1345.05 836.074 0)
(-1365.09 864.466 0)
(-1336.12 876.212 0)
(-1256.93 889.901 0)
(-1173.08 898.298 0)
(-1096.98 911.293 0)
(-1026.87 925.937 0)
(-1004.37 941.369 0)
(-995.158 950.015 0)
(-964.043 948.046 0)
(-845.377 939.745 0)
(-502.008 891.775 0)
(35682 827.279 0)
(-39800.1 11460.2 0)
(52772.9 12899.2 0)
(-46376 990.635 0)
(699.769 1054.64 0)
(950.457 1130.63 0)
(952.573 1168.49 0)
(899.247 1183.43 0)
(827.096 1189.63 0)
(840.746 1167.9 0)
(902.903 1140.92 0)
(1015.87 1107.43 0)
(1133.54 1073.87 0)
(1234.45 1060.48 0)
(1295.32 1041.29 0)
(1270.39 1031.88 0)
(1132.26 1005.47 0)
(886.938 974.462 0)
(621.228 946.218 0)
(373.539 928.456 0)
(195.006 919.121 0)
(59.6227 909.039 0)
(-95.5974 904.091 0)
(-230.486 904.95 0)
(-410.123 905.227 0)
(-658.794 915.007 0)
(-929.911 934.498 0)
(-1177.47 959.865 0)
(-1329.97 973.844 0)
(-1360.99 976.939 0)
(-1331.72 970.664 0)
(-1247.72 969.956 0)
(-1162.1 966.981 0)
(-1083.28 971.035 0)
(-1012 977.461 0)
(-991.56 987.18 0)
(-990.876 997.029 0)
(-967.028 999.792 0)
(-856.866 998.978 0)
(-519.67 990.343 0)
(41448.2 985.305 0)
(-46717.3 12991.2 0)
(59490.7 12949.2 0)
(-51926 1022.99 0)
(760.724 1084.71 0)
(999.451 1151.43 0)
(971.822 1192.19 0)
(902.253 1197.25 0)
(819.343 1216.17 0)
(824.018 1204.23 0)
(878.51 1189.5 0)
(992.235 1170.51 0)
(1121.62 1158.05 0)
(1225.01 1158.18 0)
(1286.78 1155.06 0)
(1258.06 1156.87 0)
(1117.83 1141.64 0)
(878.187 1126.66 0)
(616.773 1113.75 0)
(373.483 1107.32 0)
(193.562 1104.31 0)
(55.3948 1097.08 0)
(-100.558 1092.26 0)
(-237.584 1090.39 0)
(-417.813 1084.74 0)
(-661.68 1083.15 0)
(-927.815 1087.85 0)