/*--------------------------------*- C++ -*----------------------------------*\
| =========                 |                                                 |
| \\      /  F ield         | OpenFOAM: The Open Source CFD Toolbox           |
|  \\    /   O peration     | Version:  v1912                                 |
|   \\  /    A nd           | Website:  www.openfoam.com                      |
|    \\/     M anipulation  |                                                 |
\*---------------------------------------------------------------------------*/
FoamFile
{
    version     2.0;
    format      ascii;
    class       volScalarField;
    location    "0.00026";
    object      dsmcRhoNMean;
}
// * * * * * * * * * * * * * * * * * * * * * * * * * * * * * * * * * * * * * //

dimensions      [0 -3 0 0 0 0 0];


internalField   nonuniform List<scalar> 
1300
(
1.830769231
2.076923077
4.746153846
12.59230769
7.3
5.253846154
7.3
7.692307692
6.469230769
6.038461538
2.238461538
2.169230769
7.1
22.12307692
10.66923077
6.530769231
10.79230769
11.20769231
8.169230769
7.730769231
1.115384615
1.230769231
6.392307692
22.75384615
10.56923077
6.323076923
12.06153846
13.91538462
9.646153846
9.184615385
0.7538461538
0.7230769231
5.553846154
21.64615385
9.853846154
6.023076923
12.30769231
16.49230769
10.55384615
10.25384615
0.4692307692
0.6153846154
5.969230769
21.46153846
9.653846154
5.138461538
11.64615385
15.00769231
11.59230769
10.48461538
0.3230769231
0.3923076923
5.576923077
21.4
9.230769231
4.976923077
11.01538462
13.9
10.82307692
10.14615385
0.2230769231
0.4769230769
5.761538462
21.25384615
9.146153846
4.561538462
10.55384615
13.44615385
10.23076923
9.561538462
0.2461538462
0.2692307692
5.730769231
21.30769231
9.2
4.930769231
10.73076923
13.74615385
9.469230769
9.361538462
0.1461538462
0.2923076923
5.830769231
21.81538462
8.938461538
4.746153846
11.21538462
13.16153846
9.569230769
8.969230769
0.1076923077
0.2461538462
5.661538462
21.04615385
9.453846154
5.053846154
10.10769231
13.71538462
9.869230769
8.192307692
0.1230769231
0.2230769231
5.769230769
21.42307692
9.415384615
4.961538462
10.67692308
14.09230769
9.761538462
9.092307692
0.08461538462
0.2
5.569230769
20.79230769
8.769230769
4.576923077
10.55384615
13.43076923
9.323076923
9.069230769
0.04615384615
0.2307692308
5.215384615
21.53076923
9.115384615
4.615384615
10.34615385
13.73846154
9.384615385
8.946153846
0.06153846154
0.1615384615
5.746153846
21.55384615
9.384615385
4.715384615
10.43846154
13.44615385
9.569230769
8.953846154
0.03076923077
0.1615384615
5.507692308
20.75384615
9.138461538
4.684615385
10.27692308
13.75384615
9.953846154
8.576923077
0.04615384615
0.2230769231
5.853846154
21.46153846
8.792307692
5.138461538
10.76153846
13.43076923
9.492307692
8.815384615
0.05384615385
0.1923076923
5.569230769
20.99230769
8.853846154
5.107692308
10.86153846
12.83076923
9.776923077
8.915384615
0.03846153846
0.06923076923
5.830769231
21.19230769
8.961538462
5.1
10.24615385
13.75384615
9.938461538
8.653846154
0.03076923077
0.1846153846
5.5
21.38461538
8.930769231
4.746153846
9.946153846
13.26923077
9.661538462
8.484615385
0.02307692308
0.1307692308
5.053846154
19.90769231
8.8
5
9.923076923
12.67692308
9.584615385
8.792307692
7.638461538
6.969230769
6.938461538
6.592307692
6.730769231
6.3
6.684615385
6.938461538
6.484615385
6.823076923
6.469230769
7.261538462
7.007692308
6.807692308
7.215384615
7.438461538
7.069230769
6.861538462
7.561538462
7.046153846
7.246153846
7.523076923
7.330769231
7.223076923
7.530769231
8.046153846
8.353846154
8.315384615
9.353846154
9.438461538
9.1
7.953846154
7.123076923
7.176923077
7.192307692
7.030769231
6.692307692
6.953846154
6.892307692
6.623076923
6.807692308
6.476923077
7.338461538
7
7.146153846
6.838461538
6.930769231
6.653846154
7.169230769
7.646153846
7.315384615
7.369230769
7.792307692
7.838461538
7.253846154
8.192307692
7.5
7.776923077
8.169230769
8.715384615
11.56923077
10.10769231
8.761538462
8.315384615
8.038461538
7.715384615
7.376923077
7.053846154
7.2
7.023076923
6.876923077
6.707692308
6.884615385
7.038461538
7.253846154
7.153846154
6.884615385
7.230769231
7.423076923
7.238461538
7.484615385
7.776923077
7.176923077
7.392307692
7.1
7.707692308
7.569230769
8.092307692
8.592307692
8.092307692
13.53076923
12.88461538
11
10.26923077
9.946153846
8.769230769
8.869230769
8.5
8.023076923
7.830769231
7.753846154
7.561538462
7.723076923
7.369230769
7.346153846
7.392307692
6.853846154
7.330769231
7.2
7.353846154
7.661538462
7.638461538
7.746153846
7.823076923
8.138461538
7.484615385
8.169230769
8.323076923
8.1
7.653846154
15.99230769
14.83846154
13.03846154
12.5
11.76923077
10.89230769
10.26153846
9.669230769
9.692307692
8.430769231
8.423076923
8.446153846
7.884615385
8.230769231
7.638461538
8.176923077
7.992307692
7.507692308
7.892307692
7.546153846
7.492307692
7.707692308
7.523076923
7.815384615
7.461538462
7.961538462
8.392307692
8.261538462
7.638461538
7.515384615
14.38461538
15.36153846
14.32307692
13.92307692
13.31538462
12.95384615
11.72307692
11.57692308
10.36153846
10.42307692
9.615384615
9.338461538
9.053846154
8.984615385
8.7
8.323076923
8.653846154
8.092307692
8.076923077
8.353846154
8.230769231
7.853846154
8.207692308
7.592307692
8.284615385
8.115384615
7.976923077
8.207692308
7.838461538
8.4
13.23076923
15.23076923
14.74615385
15.00769231
14.8
14.52307692
13.73846154
12.75384615
12.63846154
12.23846154
11.26923077
10.81538462
9.792307692
9.961538462
9.723076923
9.523076923
9.084615385
9.6
8.738461538
8.830769231
8.669230769
8.792307692
8.869230769
8.453846154
8.330769231
8.353846154
8.353846154
8.369230769
8.715384615
8.215384615
13.10769231
14.13846154
14.45384615
13.93076923
15.46153846
15.80769231
14.84615385
13.84615385
13.95384615
13.53846154
12.5
12.21538462
12.26153846
11.2
10.70769231
10.67692308
10.1
10.24615385
9.561538462
9.753846154
9.276923077
9.715384615
9.346153846
9.261538462
8.876923077
8.976923077
8.561538462
8.9
8.6
8.584615385
12.75384615
13.26923077
12.68461538
13.27692308
13.68461538
15.15384615
14.93076923
15.13846154
15.72307692
14.25384615
14.09230769
14.15384615
12.78461538
12.66153846
12.42307692
11.63846154
11.50769231
10.70769231
11.16153846
10.38461538
10.53076923
10.06923077
10.25384615
10.01538462
10.38461538
9.661538462
9.869230769
9.515384615
9.438461538
9.038461538
12.36923077
13.53076923
12.20769231
12.49230769
13.7
13.89230769
14.39230769
14.26923077
14.86153846
15.89230769
14.36923077
15.16153846
14.85384615
14.03846154
13.41538462
13.44615385
12.63846154
12.17692308
12.26923077
11.87692308
11.85384615
11.51538462
11.28461538
10.99230769
10.94615385
10.75384615
10.47692308
10.48461538
10.38461538
9.915384615
12.46923077
13.32307692
12.60769231
12.47692308
12.50769231
13.67692308
13.23076923
13.73846154
14.61538462
14.93076923
14.46923077
15.10769231
15.23846154
14.83846154
14.59230769
14.21538462
14.5
13.46153846
12.8
12.82307692
11.57692308
12.35384615
11.95384615
11.44615385
11.70769231
11.73076923
11.23076923
11.22307692
10.69230769
11.08461538
12.30769231
13.10769231
12.03846154
12.48461538
12.16153846
13.30769231
12.56153846
13.27692308
14.30769231
14.06153846
14.76153846
15.10769231
15.47692308
14.56153846
14.87692308
15.41538462
14.43076923
14.04615385
14.73076923
13.93076923
13.4
13
13.05384615
12.99230769
12.49230769
12.56923077
12.22307692
11.96153846
12.58461538
11.78461538
12.40769231
12.88461538
12.31538462
11.74615385
12.85384615
12.98461538
12.58461538
12.38461538
13.86923077
13.40769231
13.58461538
14.82307692
14.45384615
15.45384615
16.01538462
16.06153846
14.96153846
15.24615385
14.77692308
15.07692308
14.04615385
14.30769231
14.31538462
12.98461538
13.16923077
13.16153846
13.36923077
12.65384615
12.83846154
12.83846154
12.00769231
13.22307692
12.23846154
12.07692308
12.26923077
12.47692308
12.36153846
12.02307692
12.79230769
13.24615385
12.63076923
13.32307692
14.53076923
13.56923077
15.2
14.5
15.46923077
15.97692308
15.02307692
15.16923077
15.28461538
14.53076923
14.83846154
14.84615385
13.48461538
14.44615385
13.82307692
13.47692308
14.41538462
13.59230769
12.24615385
12.8
11.91538462
12.14615385
11.96153846
12.56153846
12.37692308
12.12307692
12.63846154
12.39230769
12.18461538
13.13076923
13.83846154
12.66153846
14.16153846
14.41538462
14.35384615
15.43076923
15.34615385
15.47692308
15.67692308
15.19230769
14.96923077
14.91538462
15.21538462
14.21538462
13.96923077
14.21538462
13.80769231
14.16153846
12.48461538
13.30769231
12.26153846
12.05384615
12.60769231
13.73846154
11.75384615
12.23846154
13.16923077
12.9
11.96153846
12.45384615
12.64615385
12.55384615
13.53076923
13.59230769
14.22307692
14.3
14.83846154
14.96153846
15.45384615
15.39230769
15.72307692
14.84615385
15.21538462
15.29230769
14.57692308
14.49230769
14.71538462
14.38461538
12.33846154
12.73846154
12.89230769
11.73846154
12.32307692
12.31538462
12.23846154
12.22307692
12.50769231
12.9
12.42307692
12.76153846
13.21538462
12.34615385
13.10769231
13.01538462
13.25384615
13.19230769
14.02307692
14.67692308
14.99230769
15.03076923
15.99230769
15.54615385
15.67692308
15.6
15.88461538
15.21538462
15.20769231
15.52307692
12.28461538
12.66923077
12.15384615
12.12307692
12.15384615
13.07692308
12.2
11.87692308
12.59230769
12.13846154
12.71538462
12.4
13.11538462
12.83846154
13.02307692
12.98461538
13.5
13.45384615
13.29230769
13.72307692
14.23076923
14.06923077
14.6
15.1
15.56923077
14.9
16.22307692
15.70769231
15.70769231
15.23076923
12.01538462
13.19230769
11.80769231
11.66153846
11.80769231
12.93846154
12.1
12.10769231
12.28461538
12.30769231
12.40769231
12.1
12.73076923
12.22307692
12.10769231
13.06923077
12.41538462
13.47692308
13.19230769
13.57692308
13.76923077
13.66153846
14.51538462
14.1
15.01538462
15.2
15.13846154
15.34615385
15.04615385
16.51538462
12.17692308
12.52307692
11.66153846
12.28461538
12.03076923
11.90769231
11.88461538
11.80769231
12.33846154
11.45384615
11.80769231
12.10769231
12.16153846
11.94615385
12.01538462
12.03076923
12.41538462
12.23846154
12.40769231
12.78461538
13.2
13.07692308
13.19230769
13.85384615
13.97692308
14.25384615
13.99230769
15.06923077
15.07692308
15.29230769
6.715384615
6.384615385
6.446153846
6.423076923
6.346153846
5.938461538
5.9
5.423076923
5.023076923
4.307692308
8.061538462
7.969230769
7.030769231
7.207692308
7.469230769
7.623076923
7.223076923
6.823076923
6.076923077
5.392307692
6.915384615
6.746153846
7.2
7.076923077
6.992307692
7.023076923
6.892307692
6.638461538
5.738461538
5.138461538
6.6
6.592307692
6.876923077
7.023076923
6.807692308
6.853846154
6.246153846
6.484615385
5.784615385
5.3
6.007692308
6.561538462
6.5
6.423076923
6.730769231
6.407692308
6.946153846
6.315384615
5.669230769
5.584615385
6.838461538
6.776923077
6.246153846
6.530769231
6.207692308
6.376923077
6.430769231
6.015384615
6.007692308
6.092307692
6.607692308
6.646153846
6.953846154
6.676923077
6.207692308
6.623076923
6.053846154
6.3
5.846153846
5.861538462
7.115384615
6.692307692
6.884615385
6.292307692
7.053846154
6.453846154
6.146153846
6.315384615
6.138461538
5.8
7.5
7.4
7.176923077
7
7.030769231
6.653846154
6.792307692
6.115384615
6.123076923
6.146153846
8.192307692
7.669230769
7.961538462
7.707692308
7.261538462
7.484615385
6.753846154
6.492307692
6.907692308
6.461538462
8.792307692
8.361538462
8.823076923
8.115384615
7.976923077
7.546153846
7.661538462
7.792307692
7.315384615
7.215384615
9.169230769
9.607692308
9.438461538
8.969230769
9
9.138461538
8.415384615
8.330769231
7.323076923
7.692307692
10.39230769
10.9
9.830769231
9.884615385
10.21538462
9.5
8.838461538
9.638461538
8.653846154
8.7
10.94615385
11.00769231
11.23846154
10.63076923
10.76923077
10.65384615
10.21538462
10.16153846
9.984615385
9.661538462
11.08461538
10.90769231
11.07692308
11.22307692
10.99230769
11.19230769
10.54615385
10.74615385
10.73846154
10.3
12.02307692
12.21538462
11.97692308
11.68461538
11.83076923
11.66153846
11.84615385
11.16923077
11.05384615
11.35384615
12.14615385
12.73076923
12.60769231
12.52307692
11.57692308
12.38461538
11.94615385
12.35384615
11.87692308
11.98461538
12.68461538
11.75384615
12.36923077
12.86923077
13.08461538
12.76923077
12.52307692
12.56153846
12.63076923
12.33846154
12.57692308
12.54615385
12.81538462
12.53076923
12.66153846
12.37692308
12.9
12.81538462
13.1
13.33846154
12.47692308
12.30769231
12.77692308
12.77692308
12.31538462
12.55384615
12.63076923
12.57692308
12.88461538
13.01538462
5.469230769
6.653846154
6.4
6.253846154
6.307692308
6.215384615
6
5.838461538
6.261538462
6.653846154
6.576923077
6.392307692
6.5
6.361538462
6.546153846
6.792307692
6.892307692
6.669230769
6.776923077
6.8
7.007692308
7
7.015384615
7.546153846
7.346153846
7.469230769
7.630769231
7.792307692
7.5
6.784615385
6.215384615
8.192307692
8.030769231
8
7.969230769
7.553846154
7.623076923
8.092307692
8.115384615
8.330769231
8.130769231
8
8.369230769
8.2
8.084615385
8.446153846
7.938461538
8.515384615
8.7
8.469230769
8.876923077
8.530769231
8.653846154
8.976923077
8.784615385
9.369230769
9.807692308
9.953846154
9.969230769
8.384615385
5.692307692
8.1
8.107692308
8
8.469230769
8.023076923
8.015384615
8.2
7.853846154
8.438461538
8.076923077
7.630769231
8.246153846
8.030769231
8.130769231
8.246153846
7.992307692
8.546153846
8.523076923
7.961538462
8.392307692
8.769230769
8.815384615
8.123076923
8.561538462
9.053846154
9.538461538
9.323076923
9.984615385
7.869230769
6.161538462
7.984615385
8.530769231
8.161538462
8.2
7.569230769
7.869230769
7.669230769
8.261538462
7.792307692
8.053846154
7.969230769
8.1
7.515384615
8.084615385
8.169230769
8.046153846
8.276923077
8.223076923
7.876923077
7.984615385
8.507692308
8.784615385
8.938461538
8.776923077
8.653846154
9.430769231
9.723076923
9.684615385
8.323076923
6.461538462
8.2
8.084615385
7.930769231
7.692307692
7.961538462
7.246153846
7.723076923
7.9
8.161538462
7.892307692
7.361538462
7.876923077
7.230769231
7.807692308
7.861538462
8.169230769
7.584615385
8.176923077
7.661538462
8.353846154
8.1
8.223076923
8.438461538
8.569230769
8.653846154
9.353846154
9.469230769
9.9
8.615384615
6.284615385
8.053846154
7.723076923
7.838461538
7.769230769
7.853846154
7.453846154
7.5
7.630769231
7.746153846
7.869230769
8.115384615
7.561538462
7.238461538
7.907692308
7.769230769
8.046153846
8.138461538
8.030769231
7.692307692
7.930769231
7.815384615
8.1
8.176923077
8.476923077
8.953846154
8.738461538
9.523076923
10.13076923
9.084615385
5.969230769
7.538461538
7.438461538
7.715384615
7.646153846
7.576923077
7.123076923
7.2
7.307692308
6.815384615
7.038461538
7.6
7.446153846
7.453846154
7.823076923
7.853846154
7.692307692
7.946153846
7.892307692
7.930769231
7.938461538
8.461538462
8.115384615
8.353846154
8.338461538
8.638461538
9.1
9.353846154
9.961538462
9.146153846
5.384615385
7.184615385
7.146153846
7.561538462
7.223076923
7.423076923
6.876923077
6.792307692
7.430769231
7.223076923
6.892307692
7.3
7.507692308
7.423076923
7.6
7.223076923
7.676923077
7.123076923
7.323076923
7.646153846
7.423076923
7.753846154
7.715384615
7.823076923
8.146153846
8.261538462
8.630769231
9.046153846
9.9
9.146153846
5.376923077
7.623076923
6.615384615
6.523076923
6.776923077
7.207692308
6.723076923
7.069230769
6.838461538
7.161538462
6.853846154
6.9
7.484615385
7.276923077
7.5
7.684615385
7.476923077
7.207692308
7.653846154
7.307692308
7.592307692
7.461538462
7.607692308
7.884615385
7.815384615
8.546153846
8.407692308
8.830769231
9.892307692
9.376923077
4.846153846
7.253846154
6.338461538
6.523076923
6.384615385
6.607692308
6.476923077
6.523076923
6.646153846
6.669230769
6.969230769
6.807692308
7.061538462
7.338461538
6.992307692
7.1
7.176923077
6.984615385
7.376923077
7.692307692
7.553846154
7.230769231
7.323076923
7.346153846
7.907692308
7.7
8.246153846
8.984615385
9.046153846
9.153846154
)
;

boundaryField
{
    inlet
    {
        type            calculated;
        value           nonuniform List<scalar> 
20
(
1.830769231
2.238461538
1.115384615
0.7538461538
0.4692307692
0.3230769231
0.2230769231
0.2461538462
0.1461538462
0.1076923077
0.1230769231
0.08461538462
0.04615384615
0.06153846154
0.03076923077
0.04615384615
0.05384615385
0.03846153846
0.03076923077
0.02307692308
)
;
    }
    outlet
    {
        type            calculated;
        value           nonuniform List<scalar> 
70
(
4.307692308
5.392307692
5.138461538
5.3
5.584615385
6.092307692
5.861538462
5.8
6.146153846
6.461538462
7.215384615
7.692307692
8.7
9.661538462
10.3
11.35384615
11.98461538
12.33846154
13.33846154
13.01538462
0.02307692308
0.1307692308
5.053846154
19.90769231
8.8
5
9.923076923
12.67692308
9.584615385
8.792307692
12.17692308
12.52307692
11.66153846
12.28461538
12.03076923
11.90769231
11.88461538
11.80769231
12.33846154
11.45384615
11.80769231
12.10769231
12.16153846
11.94615385
12.01538462
12.03076923
12.41538462
12.23846154
12.40769231
12.78461538
13.2
13.07692308
13.19230769
13.85384615
13.97692308
14.25384615
13.99230769
15.06923077
15.07692308
15.29230769
12.47692308
12.30769231
12.77692308
12.77692308
12.31538462
12.55384615
12.63076923
12.57692308
12.88461538
13.01538462
)
;
    }
    wall
    {
        type            calculated;
        value           nonuniform List<scalar> 
70
(
1.830769231
2.076923077
4.746153846
12.59230769
7.3
5.253846154
7.3
7.692307692
6.469230769
6.038461538
5.469230769
6.215384615
5.692307692
6.161538462
6.461538462
6.284615385
5.969230769
5.384615385
5.376923077
4.846153846
5.469230769
6.653846154
6.4
6.253846154
6.307692308
6.215384615
6
5.838461538
6.261538462
6.653846154
6.576923077
6.392307692
6.5
6.361538462
6.546153846
6.792307692
6.892307692
6.669230769
6.776923077
6.8
7.007692308
7
7.015384615
7.546153846
7.346153846
7.469230769
7.630769231
7.792307692
7.5
6.784615385
6.784615385
8.384615385
7.869230769
8.323076923
8.615384615
9.084615385
9.146153846
9.146153846
9.376923077
9.153846154
6.715384615
6.384615385
6.446153846
6.423076923
6.346153846
5.938461538
5.9
5.423076923
5.023076923
4.307692308
)
;
    }
    frontAndBack
    {
        type            empty;
    }
}


// ************************************************************************* //
