/*--------------------------------*- C++ -*----------------------------------*\
| =========                 |                                                 |
| \\      /  F ield         | OpenFOAM: The Open Source CFD Toolbox           |
|  \\    /   O peration     | Version:  v1912                                 |
|   \\  /    A nd           | Website:  www.openfoam.com                      |
|    \\/     M anipulation  |                                                 |
\*---------------------------------------------------------------------------*/
FoamFile
{
    version     2.0;
    format      ascii;
    class       volVectorField;
    location    "5.66";
    object      grad(rho);
}
// * * * * * * * * * * * * * * * * * * * * * * * * * * * * * * * * * * * * * //

dimensions      [1 -4 0 0 0 0 0];


internalField   nonuniform List<vector> 
1900
(
(143804 0.28355 0)
(-135423 0.196132 0)
(-12171.7 -0.258989 0)
(-3539.32 0.0655595 0)
(-2266 2.40244 0)
(-1165.49 4.26828 0)
(-598.704 7.80931 0)
(-268.535 15.7078 0)
(-230.897 -29.9562 0)
(675.917 -122.283 0)
(143805 0.20801 0)
(-135423 0.353179 0)
(-12171.8 -0.125118 0)
(-3536.66 0.814093 0)
(-2261.8 4.40736 0)
(-1160.08 6.33663 0)
(-587.265 6.89353 0)
(-306.3 -6.75177 0)
(-368.889 -118.202 0)
(-326.417 -170.691 0)
(143805 -5.51381e-08 0)
(-135423 7.92788e-08 0)
(-12171.3 -2.35545e-08 0)
(-3534.79 -1.59872e-10 0)
(-2260.48 -1.77636e-08 0)
(-1163 -2.34301e-08 0)
(-611.793 -1.75504e-08 0)
(-393.63 -1.10134e-09 0)
(-394.837 6.34159e-09 0)
(-412.737 8.27782e-09 0)
(143805 -0.20801 0)
(-135423 -0.353179 0)
(-12171.8 0.125118 0)
(-3536.66 -0.814093 0)
(-2261.8 -4.40736 0)
(-1160.08 -6.33663 0)
(-587.265 -6.89353 0)
(-306.3 6.75177 0)
(-368.889 118.202 0)
(-326.417 170.691 0)
(143804 -0.28355 0)
(-135423 -0.196132 0)
(-12171.7 0.258989 0)
(-3539.32 -0.0655595 0)
(-2266 -2.40244 0)
(-1165.49 -4.26828 0)
(-598.704 -7.80931 0)
(-268.535 -15.7078 0)
(-230.897 29.9562 0)
(675.917 122.283 0)
(-186.297 -915.626 1.27815e-11)
(-2321.79 -675.459 -1.50933e-11)
(-3125.37 -706.494 -1.89456e-11)
(-2628.64 -674.85 0)
(-24373.4 -7913.29 -7.94464e-11)
(-608.498 -1076.75 1.26161e-11)
(-1580.01 -798.654 1.50933e-11)
(-2766.79 -730.963 1.89456e-11)
(-5273.58 -241.538 0)
(-22842.1 -6467.89 0)
(-1000.65 9.47712e-09 0)
(-1613.98 8.4338e-09 0)
(-2590.65 5.25506e-09 0)
(-4903.22 2.08587e-09 0)
(-25276 -9.19899e-09 0)
(-608.498 1076.75 1.26161e-11)
(-1580.01 798.654 1.50933e-11)
(-2766.79 730.963 1.89456e-11)
(-5273.58 241.538 0)
(-22842.1 6467.89 0)
(-186.297 915.626 -3.80137e-11)
(-2321.79 675.459 -1.50933e-11)
(-3125.37 706.494 -1.89456e-11)
(-2628.64 674.85 -5.06084e-11)
(-24373.4 7913.29 7.94464e-11)
(-43069.2 15289.3 1.89634e-11)
(-9691.34 5956.33 -1.14052e-11)
(-172.206 2806.52 0)
(-1474.36 1605.37 8.52296e-12)
(-7612.25 2087.39 -3.61886e-12)
(-38518.8 19438.6 -9.71195e-12)
(-12455.6 4820.76 5.79231e-12)
(-1302.22 1188.44 0)
(-1530.78 440.552 -5.36038e-12)
(-6497.75 1120.4 9.28868e-13)
(-40268.4 -1.07658e-09 0)
(-14373.9 -7.97083e-10 0)
(-1623.5 1.57898e-09 0)
(-1535.26 -9.57839e-10 2.14946e-12)
(-6165.69 2.62298e-09 -1.85774e-12)
(-38518.8 -19438.6 -9.71195e-12)
(-12455.6 -4820.76 5.79231e-12)
(-1302.22 -1188.44 0)
(-1530.78 -440.552 -5.36038e-12)
(-6497.75 -1120.4 9.28868e-13)
(-43069.2 -15289.3 9.71195e-12)
(-9691.34 -5956.33 -1.79385e-13)
(-172.206 -2806.52 0)
(-1474.36 -1605.37 4.83484e-14)
(-7612.25 -2087.39 3.61886e-12)
(-8990.02 6951.1 0)
(-1850.4 -1241.41 0)
(4508.14 -1150.63 0)
(5508.95 1674.39 0)
(1788.77 2762.92 0)
(-1147.75 2145.37 0)
(-2794.7 1266.44 0)
(-3043.18 593.639 0)
(-2389.33 262.427 0)
(-1569.14 117.395 0)
(-1018.11 53.0539 0)
(-815.73 25.9279 0)
(-756.927 24.3231 0)
(-687.875 28.3131 0)
(-550.601 12.8538 0)
(-368.48 1.78209 0)
(-221.33 -2.25183 0)
(-141.676 -2.73692 0)
(-108.132 -2.36406 0)
(-92.2605 -2.0883 0)
(-79.6498 -2.07416 0)
(-67.1489 -2.22103 0)
(-54.6077 -2.41708 0)
(-42.5783 -2.61153 0)
(-31.2503 -2.79698 0)
(-20.6497 -2.99402 0)
(-8.90767 -3.15175 0)
(6.18628 -3.30101 0)
(26.8477 -3.40558 0)
(46.4802 -3.27911 0)
(69.9075 -3.23125 0)
(88.4155 -2.61408 0)
(113.451 -3.00441 0)
(133.981 -1.35232 0)
(199.678 -4.85497 0)
(270.381 2.71953 0)
(382.276 2.53654 0)
(707.235 4.46554 0)
(3286.15 -63.5155 0)
(6963.06 -637.694 0)
(-9771.66 4703.91 0)
(-3216.48 -1129.19 0)
(5245.58 -997.541 0)
(6113.82 1019.49 0)
(1727.04 1346.8 0)
(-1511.7 665.066 0)
(-3052.64 415.063 0)
(-3160.69 285.12 0)
(-2441.73 132.083 0)
(-1590.28 50.447 0)
(-1026.51 22.9515 0)
(-818.989 10.165 0)
(-756.247 7.46346 0)
(-688.465 12.174 0)
(-553.207 4.31454 0)
(-369.702 0.0103162 0)
(-221.636 -1.2567 0)
(-141.66 -1.34826 0)
(-108.065 -1.15904 0)
(-92.2285 -1.02363 0)
(-79.6577 -1.0086 0)
(-67.1776 -1.07016 0)
(-54.6424 -1.15896 0)
(-42.6135 -1.25252 0)
(-31.2871 -1.34721 0)
(-20.6844 -1.45121 0)
(-8.93977 -1.53933 0)
(6.15581 -1.63008 0)
(26.8412 -1.70707 0)
(46.4837 -1.68265 0)
(69.9597 -1.69616 0)
(88.4206 -1.42564 0)
(113.591 -1.61783 0)
(133.764 -0.675223 0)
(200.062 -2.469 0)
(271.17 1.33134 0)
(381.703 2.13204 0)
(699.358 2.3088 0)
(3264.87 -33.4541 0)
(6909.28 -120.123 0)
(-9398.14 -4.96088e-08 0)
(-3509 1.12233e-08 0)
(5133.21 2.01915e-07 0)
(6190.94 6.27861e-08 0)
(1685.67 -2.57249e-08 0)
(-1418.8 -2.40131e-08 0)
(-2905.23 -4.30847e-08 0)
(-3125.5 -3.94351e-08 0)
(-2457.6 -3.45259e-08 0)
(-1600.89 -3.23701e-08 0)
(-1029.83 -1.31289e-08 0)
(-820.236 -3.60923e-09 0)
(-756.342 -1.56885e-08 0)
(-688.791 1.26525e-08 0)
(-554.139 -1.71661e-08 0)
(-370.1 -1.48649e-08 0)
(-221.725 -4.08562e-09 0)
(-141.647 0 0)
(-108.038 1.14656e-09 0)
(-92.2168 5.31292e-09 0)
(-79.6634 8.60726e-09 0)
(-67.1926 1.195e-08 0)
(-54.6608 1.38314e-08 0)
(-42.6331 9.71344e-09 0)
(-31.3081 4.3117e-09 0)
(-20.7055 8.88178e-11 0)
(-8.9597 -2.60801e-09 0)
(6.13749 -5.98309e-09 0)
(26.8324 -4.0937e-09 0)
(46.4834 5.37752e-09 0)
(69.9823 1.99517e-08 0)
(88.4383 2.60156e-08 0)
(113.67 1.15302e-08 0)
(133.734 1.78847e-08 0)
(200.261 4.28909e-08 0)
(271.72 5.63267e-08 0)
(382.56 -2.87528e-08 0)
(696.883 5.43565e-08 0)
(3250.54 -1.5208e-07 0)
(6892.46 -6.56655e-07 0)
(-9771.66 -4703.91 0)
(-3216.48 1129.19 0)
(5245.58 997.541 0)
(6113.82 -1019.49 0)
(1727.04 -1346.8 0)
(-1511.7 -665.066 0)
(-3052.64 -415.063 0)
(-3160.69 -285.12 0)
(-2441.73 -132.083 0)
(-1590.28 -50.447 0)
(-1026.51 -22.9515 0)
(-818.989 -10.165 0)
(-756.247 -7.46346 0)
(-688.465 -12.174 0)
(-553.207 -4.31454 0)
(-369.702 -0.0103162 0)
(-221.636 1.2567 0)
(-141.66 1.34826 0)
(-108.065 1.15904 0)
(-92.2285 1.02363 0)
(-79.6577 1.0086 0)
(-67.1776 1.07016 0)
(-54.6424 1.15896 0)
(-42.6135 1.25252 0)
(-31.2871 1.34721 0)
(-20.6844 1.45121 0)
(-8.93977 1.53933 0)
(6.15581 1.63008 0)
(26.8412 1.70707 0)
(46.4837 1.68265 0)
(69.9597 1.69616 0)
(88.4206 1.42564 0)
(113.591 1.61783 0)
(133.764 0.675223 0)
(200.062 2.469 0)
(271.17 -1.33134 0)
(381.703 -2.13204 0)
(699.358 -2.3088 0)
(3264.87 33.4541 0)
(6909.28 120.123 0)
(-8990.02 -6951.1 0)
(-1850.4 1241.41 0)
(4508.14 1150.63 0)
(5508.95 -1674.39 0)
(1788.77 -2762.92 0)
(-1147.75 -2145.37 0)
(-2794.7 -1266.44 0)
(-3043.18 -593.639 0)
(-2389.33 -262.427 0)
(-1569.14 -117.395 0)
(-1018.11 -53.0539 0)
(-815.73 -25.9279 0)
(-756.927 -24.3231 0)
(-687.875 -28.3131 0)
(-550.601 -12.8538 0)
(-368.48 -1.78209 0)
(-221.33 2.25183 0)
(-141.676 2.73692 0)
(-108.132 2.36406 0)
(-92.2605 2.0883 0)
(-79.6498 2.07416 0)
(-67.1489 2.22103 0)
(-54.6077 2.41708 0)
(-42.5783 2.61153 0)
(-31.2503 2.79698 0)
(-20.6497 2.99402 0)
(-8.90767 3.15175 0)
(6.18628 3.30101 0)
(26.8477 3.40558 0)
(46.4802 3.27911 0)
(69.9075 3.23125 0)
(88.4155 2.61408 0)
(113.451 3.00441 0)
(133.981 1.35232 0)
(199.678 4.85497 0)
(270.381 -2.71953 0)
(382.276 -2.53654 0)
(707.235 -4.46554 0)
(3286.15 63.5155 0)
(6963.06 637.694 0)
(-367.102 -2325.15 0)
(285.99 497.033 0)
(4269.23 1298.76 0)
(4358.33 -1454.17 0)
(1360.23 -2525.15 0)
(-993.819 -2333.46 0)
(-2377.53 -1701.66 0)
(-2666.76 -936.306 0)
(-2203.58 -476.977 0)
(-1483.39 -221.602 0)
(-978.848 -96.4063 0)
(-804.735 -56.4063 0)
(-756.958 -52.6139 0)
(-681.952 -47.9284 0)
(-539.578 -24.7389 0)
(-361.639 -4.99761 0)
(-219.155 3.13808 0)
(-141.571 4.30456 0)
(-108.395 3.69694 0)
(-92.3734 3.2457 0)
(-79.5836 3.26627 0)
(-66.9958 3.56357 0)
(-54.4376 3.93483 0)
(-42.4159 4.29499 0)
(-31.0896 4.63313 0)
(-20.5021 4.98787 0)
(-8.78431 5.27836 0)
(6.27979 5.53324 0)
(26.8199 5.70006 0)
(46.3783 5.485 0)
(69.6029 5.28248 0)
(88.2843 4.32222 0)
(112.961 4.66181 0)
(134.673 2.78347 0)
(197.952 6.43499 0)
(267.445 -3.14311 0)
(379.946 -4.45061 0)
(731.682 -18.579 0)
(3643.07 31.6725 0)
(6411.19 151.351 0)
(-405.508 -15.6838 0)
(496.136 361.216 0)
(2756 -115.439 0)
(2441.08 -1887.7 0)
(1171.25 -2595.27 0)
(-436.749 -2423.2 0)
(-1672.05 -1816.43 0)
(-2064.88 -1174.83 0)
(-1800.22 -665.418 0)
(-1248.39 -314.621 0)
(-879.98 -149.099 0)
(-779.426 -97.5129 0)
(-748.74 -84.7726 0)
(-664.19 -67.401 0)
(-515.142 -36.0316 0)
(-345.284 -8.5809 0)
(-213.533 3.64143 0)
(-141.193 5.89527 0)
(-109.012 5.2579 0)
(-92.615 4.70834 0)
(-79.379 4.81565 0)
(-66.5867 5.31625 0)
(-53.9942 5.92032 0)
(-41.9926 6.51061 0)
(-30.6688 7.07546 0)
(-20.107 7.6797 0)
(-8.44828 8.18094 0)
(6.54251 8.62214 0)
(26.8161 8.94707 0)
(46.1325 8.67555 0)
(68.9504 8.35878 0)
(87.8877 7.0948 0)
(112.231 7.45744 0)
(135.319 5.5961 0)
(194.892 8.56514 0)
(261.466 -1.68326 0)
(368.651 -6.08947 0)
(728.936 -28.0284 0)
(3258.51 10.2985 0)
(6913.95 -525.041 0)
(-2381.48 -59.8332 0)
(189.862 -56.9069 0)
(2102.1 -840.983 0)
(1968.68 -1510.62 0)
(844.195 -1876.66 0)
(-243.304 -2029.06 0)
(-1174.55 -1684.97 0)
(-1557.6 -1205.2 0)
(-1374.65 -712.639 0)
(-985.848 -356.581 0)
(-769.635 -196.655 0)
(-742.749 -139.3 0)
(-727.941 -116.609 0)
(-634.984 -84.8839 0)
(-482.897 -45.0006 0)
(-323.409 -12.0653 0)
(-205.206 3.20943 0)
(-140.013 6.69796 0)
(-109.538 6.36162 0)
(-92.7995 5.91728 0)
(-78.9978 6.20378 0)
(-65.9313 6.95227 0)
(-53.2867 7.82533 0)
(-41.3027 8.6836 0)
(-29.9631 9.5185 0)
(-19.4368 10.4471 0)
(-7.87614 11.2207 0)
(7.01806 11.872 0)
(26.8714 12.4264 0)
(45.8114 12.0704 0)
(68.0796 11.6651 0)
(87.4157 10.1255 0)
(111.517 10.5364 0)
(135.741 8.75952 0)
(190.937 10.9268 0)
(253.323 0.530433 0)
(354.558 -7.31886 0)
(747.474 -24.5402 0)
(3164.13 46.657 0)
(6839.59 -176.073 0)
(-2752.75 346.371 0)
(-256.608 -143.379 0)
(1355.15 -506.943 0)
(1443.07 -1090.01 0)
(671.672 -1415.18 0)
(-252.029 -1624.87 0)
(-878.157 -1473.03 0)
(-1127.9 -1092.87 0)
(-982.455 -664.534 0)
(-751.174 -361.723 0)
(-670.6 -228.2 0)
(-702.291 -175.098 0)
(-696.303 -141.425 0)
(-595.185 -96.9774 0)
(-444.971 -49.5177 0)
(-298.828 -14.066 0)
(-195.452 2.5324 0)
(-138.156 6.87174 0)
(-109.764 7.01604 0)
(-92.7671 6.88465 0)
(-78.3817 7.44858 0)
(-65.0241 8.46485 0)
(-52.3258 9.60066 0)
(-40.361 10.7124 0)
(-28.9694 11.7776 0)
(-18.4667 12.9356 0)
(-7.07525 14.017 0)
(7.70441 14.9435 0)
(27.0073 15.5272 0)
(45.3988 15.0583 0)
(67.0763 14.4816 0)
(86.8001 12.6963 0)
(110.915 12.7794 0)
(135.695 11.1086 0)
(186.962 12.1348 0)
(243.884 2.98789 0)
(344.492 -8.50637 0)
(780.949 -13.8442 0)
(3112.49 56.8731 0)
(6734.34 -142.937 0)
(-3013.23 8.99687 0)
(-632.422 -417.777 0)
(1189.89 -436.121 0)
(1093.47 -706.98 0)
(328.782 -1194.23 0)
(-299.05 -1335.43 0)
(-661.898 -1225.67 0)
(-778.504 -899.867 0)
(-670.084 -565.851 0)
(-565.381 -342.579 0)
(-589.796 -241.788 0)
(-659.129 -198.859 0)
(-652.66 -154.955 0)
(-546.418 -101.253 0)
(-403.001 -49.2111 0)
(-273.251 -13.761 0)
(-185.029 2.84519 0)
(-135.693 7.66831 0)
(-109.526 8.3549 0)
(-92.3827 8.64769 0)
(-77.4751 9.54057 0)
(-63.8574 10.8253 0)
(-51.1209 12.2062 0)
(-39.205 13.5558 0)
(-27.8207 14.8306 0)
(-17.2789 16.1041 0)
(-5.94124 17.4633 0)
(8.47337 18.8134 0)
(26.982 19.2383 0)
(44.8039 18.7305 0)
(65.8034 17.9993 0)
(85.7754 16.0362 0)
(109.987 15.6927 0)
(135.12 14.0613 0)
(183.112 14.355 0)
(233.433 7.21583 0)
(338.338 -5.18387 0)
(810.476 -1.07251 0)
(3039.74 53.5777 0)
(6694.47 -150.265 0)
(-3503.69 -338 0)
(-685.54 -402.08 0)
(1076.46 -307.329 0)
(712.52 -726.996 0)
(66.0765 -1081.87 0)
(-282.317 -1107.72 0)
(-458.434 -963.9 0)
(-492.082 -692.786 0)
(-445.433 -454.793 0)
(-438.895 -314.968 0)
(-532.106 -250.527 0)
(-618.615 -214.245 0)
(-602.246 -160.918 0)
(-493.287 -99.7798 0)
(-360.66 -46.0643 0)
(-248.664 -11.6806 0)
(-174.801 4.09204 0)
(-132.846 9.31094 0)
(-108.82 10.6949 0)
(-91.6246 11.5483 0)
(-76.2833 12.8221 0)
(-62.4554 14.3556 0)
(-49.6945 15.9078 0)
(-37.8319 17.3898 0)
(-26.5138 18.7587 0)
(-15.9298 20.0307 0)
(-4.46445 21.4323 0)
(9.41486 22.9346 0)
(26.9274 23.0305 0)
(44.2049 22.2437 0)
(64.48 21.0795 0)
(84.5774 18.6824 0)
(109.012 17.6121 0)
(134.406 15.6456 0)
(180.366 15.1235 0)
(225.056 9.33523 0)
(336.505 -1.99637 0)
(837.574 7.46463 0)
(2968.72 45.7355 0)
(6655.14 -173.23 0)
(-4168.98 -420.393 0)
(-602.866 -372.564 0)
(876.791 -331.396 0)
(347.092 -828.774 0)
(-38.0933 -910.332 0)
(-185.37 -868.72 0)
(-262.057 -708.062 0)
(-287.91 -520.498 0)
(-306.005 -366.051 0)
(-368.543 -288.452 0)
(-492.735 -254.45 0)
(-572.779 -217.906 0)
(-542.358 -156.003 0)
(-435.741 -89.8327 0)
(-318.105 -37.3267 0)
(-224.919 -5.14879 0)
(-164.801 9.41111 0)
(-129.33 14.8241 0)
(-107.37 16.906 0)
(-90.3328 18.3374 0)
(-74.7699 19.9627 0)
(-60.8839 21.6586 0)
(-48.1969 23.2519 0)
(-36.4578 24.7153 0)
(-25.2758 26.0233 0)
(-14.7025 27.1847 0)
(-3.14297 28.4413 0)
(10.0135 29.7918 0)
(26.3162 29.4563 0)
(42.9238 28.1409 0)
(62.3716 26.323 0)
(82.434 23.2816 0)
(107.061 21.2824 0)
(132.721 18.5799 0)
(177.031 17.2948 0)
(216.935 11.6282 0)
(336.536 2.81976 0)
(856.472 12.1388 0)
(2865.61 32.437 0)
(6646.52 -217.805 0)
(-4886.81 -373.833 0)
(-599.779 -358.567 0)
(636.844 -445.6 0)
(154.637 -748.496 0)
(27.5832 -648.453 0)
(-87.4027 -601.264 0)
(-122.874 -493.34 0)
(-162.508 -389.349 0)
(-221.824 -302.676 0)
(-331.352 -267.598 0)
(-464.126 -250.265 0)
(-523.749 -208.357 0)
(-478.831 -141.048 0)
(-378.925 -74.2186 0)
(-279.056 -25.2198 0)
(-203.626 3.29999 0)
(-155.555 17.0097 0)
(-125.624 22.7554 0)
(-105.435 25.6009 0)
(-88.679 27.6514 0)
(-73.0828 29.62 0)
(-59.2859 31.4089 0)
(-46.749 32.9218 0)
(-35.1613 34.2174 0)
(-24.1341 35.31 0)
(-13.5997 36.2144 0)
(-1.95222 37.1281 0)
(10.393 38.0378 0)
(25.3366 37.0948 0)
(41.1855 35.0525 0)
(59.7974 32.4048 0)
(79.7201 28.6244 0)
(104.481 25.6479 0)
(130.564 22.1973 0)
(173.667 20.1746 0)
(211.107 14.9052 0)
(336.997 8.72934 0)
(866.114 15.3755 0)
(2747.14 22.5155 0)
(6649.85 -261.7 0)
(-5523.71 -283.846 0)
(-672.024 -293.633 0)
(501.041 -458.308 0)
(151.616 -493.775 0)
(103.785 -429.046 0)
(-35.8976 -405.487 0)
(-57.8482 -351.571 0)
(-104.18 -299.397 0)
(-188.681 -263.421 0)
(-318.037 -256.992 0)
(-435.648 -242.045 0)
(-467.533 -189.549 0)
(-413.097 -117.882 0)
(-324.125 -53.9869 0)
(-243.405 -8.60341 0)
(-184.225 16.9769 0)
(-146.053 30.0455 0)
(-121.051 36.6116 0)
(-102.652 40.432 0)
(-86.4599 43.1628 0)
(-71.149 45.3947 0)
(-57.7023 47.0675 0)
(-45.4906 48.1961 0)
(-34.1564 48.9519 0)
(-23.3513 49.4024 0)
(-12.9505 49.6626 0)
(-1.38591 49.7455 0)
(9.98135 49.6064 0)
(23.4395 47.6173 0)
(38.4044 44.3963 0)
(56.1773 40.4814 0)
(75.9229 35.5129 0)
(100.868 31.3013 0)
(127.447 26.8092 0)
(170.004 23.9943 0)
(205.906 18.8726 0)
(336.989 14.607 0)
(869.757 18.7792 0)
(2598.61 15.703 0)
(6671.71 -304.258 0)
(-5952.14 -218.754 0)
(-767.897 -218.136 0)
(443.979 -363.873 0)
(182.834 -316.337 0)
(112.661 -295.096 0)
(-12.7449 -289.824 0)
(-20.6422 -261.428 0)
(-77.5635 -241.076 0)
(-180.961 -237.043 0)
(-310.753 -242.028 0)
(-399.136 -218.671 0)
(-404.101 -157.414 0)
(-348.198 -87.1292 0)
(-273.621 -29.7299 0)
(-210.672 10.3373 0)
(-166.383 32.496 0)
(-136.634 44.6573 0)
(-115.615 51.5943 0)
(-99.1218 56.0556 0)
(-83.8967 59.2258 0)
(-69.3201 61.5932 0)
(-56.5864 63.1616 0)
(-44.9332 64.0697 0)
(-33.9989 64.5593 0)
(-23.4493 64.723 0)
(-13.2691 64.7272 0)
(-2.00636 64.3197 0)
(8.34211 63.5855 0)
(20.316 60.9831 0)
(34.3091 57.0642 0)
(51.237 52.305 0)
(70.8738 46.5313 0)
(96.0938 41.4629 0)
(123.522 36.2997 0)
(166.019 33.0294 0)
(202.061 27.9578 0)
(336.907 25.1695 0)
(867.17 26.7931 0)
(2435.85 13.3999 0)
(6697.32 -338.948 0)
(-6303.85 -123.646 0)
(-811.866 -144.559 0)
(406.411 -268.074 0)
(217.893 -223.254 0)
(129.334 -201.845 0)
(-3.45441 -203.8 0)
(-10.8732 -194.913 0)
(-80.6813 -200.192 0)
(-189.598 -216.25 0)
(-300.334 -217.558 0)
(-354.111 -181.516 0)
(-340.774 -118.464 0)
(-290.056 -52.3621 0)
(-230.202 -0.473765 0)
(-183.442 31.4483 0)
(-151.153 50.8856 0)
(-127.649 62.443 0)
(-110.068 69.7914 0)
(-95.2979 74.8895 0)
(-81.1236 78.4439 0)
(-67.3563 80.7845 0)
(-55.3158 81.9883 0)
(-44.1438 82.4003 0)
(-33.527 82.4142 0)
(-23.1895 82.1833 0)
(-13.3391 81.9784 0)
(-2.48613 81.1278 0)
(6.76609 79.8402 0)
(17.1554 76.7891 0)
(30.0418 72.4253 0)
(46.0274 67.1503 0)
(65.4751 60.8709 0)
(91.008 55.345 0)
(119.32 49.8062 0)
(161.965 46.3509 0)
(198.332 41.4505 0)
(335.867 38.9282 0)
(858.415 39.6172 0)
(2246.17 22.0223 0)
(6733.32 -343.326 0)
(-6430.49 -26.5704 0)
(-907.073 -65.5751 0)
(368.146 -159.332 0)
(246.655 -124.548 0)
(131.407 -130.335 0)
(-6.06518 -143.511 0)
(-17.1657 -150.904 0)
(-98.1249 -170.579 0)
(-197.695 -189.184 0)
(-277.282 -178.264 0)
(-303.645 -134.952 0)
(-279.644 -74.6 0)
(-234.498 -16.0141 0)
(-192.858 26.3231 0)
(-161.181 52.2724 0)
(-136.515 68.9452 0)
(-118.416 78.9738 0)
(-103.621 85.6874 0)
(-90.7838 90.4658 0)
(-78.2161 93.8936 0)
(-65.9046 96.3136 0)
(-55.0294 97.8171 0)
(-44.5228 98.7078 0)
(-34.2079 99.2877 0)
(-23.8692 99.587 0)
(-14.2862 99.8425 0)
(-4.06687 99.0661 0)
(4.16117 97.7484 0)
(13.1707 94.7411 0)
(25.0208 90.4494 0)
(40.1027 85.2594 0)
(59.4977 79.2232 0)
(85.4314 74.2457 0)
(114.855 69.7186 0)
(157.967 67.67 0)
(194.908 64.9203 0)
(335.14 65.0891 0)
(850.879 67.2938 0)
(2066.83 42.8845 0)
(6713.71 -343.024 0)
(-6486.7 56.2346 0)
(-939.8 9.94854 0)
(349.582 -44.172 0)
(245.835 -30.0726 0)
(111.06 -58.4824 0)
(-23.2752 -83.2921 0)
(-36.957 -107.814 0)
(-117.569 -137.041 0)
(-197.004 -149.468 0)
(-248.074 -125.342 0)
(-254.216 -77.4651 0)
(-226.161 -19.5529 0)
(-192.803 26.2007 0)
(-164.399 58.3094 0)
(-142.37 80.8384 0)
(-125.423 94.9136 0)
(-111.516 104.082 0)
(-98.9934 110.569 0)
(-87.3901 115.415 0)
(-75.4884 118.882 0)
(-63.5755 121.008 0)
(-53.0087 121.909 0)
(-42.7267 122.256 0)
(-32.6797 122.588 0)
(-22.6549 122.84 0)
(-13.8411 123.198 0)
(-4.50416 122.393 0)
(2.59843 121.15 0)
(10.1219 118.421 0)
(20.9049 114.496 0)
(35.2094 109.74 0)
(54.8619 104.287 0)
(81.8491 100.539 0)
(112.984 97.7095 0)
(157.342 98.1183 0)
(195.845 98.3856 0)
(338.154 101.184 0)
(837.018 108.473 0)
(1850.77 82.2846 0)
(6693 -244.735 0)
(-6333.26 178.121 0)
(-1003.83 95.7616 0)
(329.58 47.5408 0)
(232.865 37.3671 0)
(80.1231 -7.70407 0)
(-53.6033 -32.6803 0)
(-68.9596 -66.38 0)
(-138.264 -91.832 0)
(-186.422 -93.7935 0)
(-207.897 -59.8123 0)
(-201.703 -11.0415 0)
(-179.747 34.9728 0)
(-159.467 69.6493 0)
(-140.207 95.5206 0)
(-125.907 113.102 0)
(-114.117 124.85 0)
(-103.33 132.544 0)
(-92.6999 137.318 0)
(-82.7727 139.91 0)
(-72.8271 141.455 0)
(-62.9879 143.5 0)
(-53.8265 146.068 0)
(-43.8682 148.253 0)
(-33.6455 149.631 0)
(-23.2822 150.244 0)
(-14.7166 150.675 0)
(-6.03992 149.853 0)
(0.333862 148.887 0)
(6.75833 146.754 0)
(16.6549 143.621 0)
(30.265 139.502 0)
(50.6319 134.889 0)
(79.0934 132.477 0)
(112.523 131.442 0)
(158.618 134.264 0)
(197.863 137.038 0)
(344.86 142.612 0)
(832.666 156.872 0)
(1726.47 142.469 0)
(6455.4 -38.9085 0)
(-6017.26 329.747 0)
(-1065.63 193.835 0)
(293.311 156.601 0)
(192.599 114.952 0)
(43.5599 48.3468 0)
(-79.8174 32.8478 0)
(-93.9577 1.76212 0)
(-143.986 -7.78291 0)
(-166.148 2.58809 0)
(-168.331 35.7864 0)
(-162.878 74.3934 0)
(-148.405 108.583 0)
(-134.457 136.344 0)
(-122.527 157.529 0)
(-114.107 173.215 0)
(-106.687 185.701 0)
(-99.5014 195.94 0)
(-91.8956 203.962 0)
(-83.4034 209.367 0)
(-72.0293 212.333 0)
(-59.1299 214.045 0)
(-48.4284 214.477 0)
(-39.2932 213.242 0)
(-30.7605 210.909 0)
(-21.6495 208.325 0)
(-14.2183 206.76 0)
(-6.22648 204.192 0)
(-0.387934 201.867 0)
(5.04689 198.908 0)
(13.9172 195.728 0)
(26.7953 191.165 0)
(48.0919 186.566 0)
(78.5273 184.763 0)
(114.706 184.784 0)
(162.734 189.174 0)
(203.89 194.756 0)
(357.266 201.999 0)
(836.88 219.705 0)
(1662.11 217.134 0)
(6062.6 210.789 0)
(-5459.91 606.785 0)
(-1170.68 299.225 0)
(253.566 267.703 0)
(128.547 194.643 0)
(1.00441 119.216 0)
(-98.4939 105.944 0)
(-108.113 79.2759 0)
(-137.468 80.3478 0)
(-144.437 95.9508 0)
(-138.703 122.936 0)
(-131.554 150.928 0)
(-120.05 179.141 0)
(-112.301 201.444 0)
(-104.676 221.418 0)
(-98.76 239.173 0)
(-92.2187 255.865 0)
(-85.7323 270.008 0)
(-79.7612 280.378 0)
(-74.7068 287.311 0)
(-68.3188 291.302 0)
(-60.9213 292.628 0)
(-54.6004 291.345 0)
(-47.307 287.669 0)
(-38.3839 281.438 0)
(-27.2797 272.894 0)
(-18.6988 265.902 0)
(-10.7556 257.838 0)
(-4.75866 252.454 0)
(0.843279 247.235 0)
(9.19383 243.86 0)
(21.4361 240.145 0)
(44.4622 237.429 0)
(77.3756 237.852 0)
(116.774 239.794 0)
(168.228 247.454 0)
(210.221 255.272 0)
(368.902 263.122 0)
(847.251 280.367 0)
(1717.88 310.868 0)
(5437.97 549.266 0)
(-4621.36 1386.09 0)
(-1392.38 477.477 0)
(192.533 455.389 0)
(49.512 342.738 0)
(-41.9132 264.303 0)
(-118.305 238.2 0)
(-118.623 212.787 0)
(-127.917 221.155 0)
(-125.109 242.719 0)
(-115.353 268.968 0)
(-108.716 294.783 0)
(-99.7255 315.138 0)
(-93.717 328.994 0)
(-86.1702 339.704 0)
(-80.9129 348.237 0)
(-76.9733 358.264 0)
(-75.8796 370.177 0)
(-75.2211 383.08 0)
(-72.877 394.425 0)
(-66.9059 401.441 0)
(-59.0879 403.566 0)
(-53.2075 400.524 0)
(-48.8403 392.298 0)
(-44.9985 384.914 0)
(-36.6202 379.68 0)
(-28.7264 379.013 0)
(-19.1854 379.964 0)
(-10.6056 381.925 0)
(-3.23498 383.136 0)
(7.08559 384.226 0)
(20.5978 385.406 0)
(45.882 386.77 0)
(80.8064 390.998 0)
(123.958 399.582 0)
(177.65 415.277 0)
(218.988 432.147 0)
(381.449 444.702 0)
(882.891 456.805 0)
(1921.23 491.932 0)
(4545.48 1297.04 0)
(-3114.73 36926.4 0)
(-2067.53 3246.64 0)
(123.727 1659.78 0)
(-55.5898 1380.98 0)
(-99.7324 1276.95 0)
(-148.136 1210.69 0)
(-124.538 1178.47 0)
(-108.625 1168.23 0)
(-98.3622 1176.44 0)
(-88.5327 1168.36 0)
(-87.0629 1161.25 0)
(-87.0831 1140.32 0)
(-88.6281 1107.15 0)
(-86.1331 1063.33 0)
(-80.8747 1005.54 0)
(-71.0755 940.01 0)
(-61.8186 870.01 0)
(-56.3955 808.092 0)
(-57.0139 762.347 0)
(-59.5101 735.521 0)
(-61.8049 728.313 0)
(-65.4586 742.26 0)
(-62.3494 761.301 0)
(-50.5435 804.704 0)
(-32.9658 843.274 0)
(-18.4253 879.76 0)
(-7.95006 905.457 0)
(-1.702 923.522 0)
(3.06124 936.568 0)
(11.3814 943.006 0)
(23.8873 942.237 0)
(49.8514 938.395 0)
(89.7212 927.603 0)
(140.17 922.884 0)
(199.609 926.059 0)
(238.576 944.106 0)
(392.664 982.523 0)
(892.763 966.759 0)
(2527.55 2856.76 0)
(2954.08 33126.8 0)
(27803.4 604556 0)
(-35376.6 37305.3 0)
(-1605.28 5520.61 0)
(-319.393 4625.59 0)
(-206.018 4360.79 0)
(-213.206 4296.52 0)
(-159.533 4358.77 0)
(-129.874 4440.23 0)
(-124.983 4558.64 0)
(-129.992 4596.82 0)
(-135.737 4612.55 0)
(-151.858 4581.91 0)
(-167.913 4505.73 0)
(-184.088 4401.67 0)
(-199.746 4268.96 0)
(-207.571 4121.7 0)
(-203 3958.25 0)
(-178.97 3798.46 0)
(-142.81 3655.16 0)
(-99.7017 3531.11 0)
(-52.594 3435.08 0)
(-21.4193 3369.82 0)
(11.3336 3286.05 0)
(33.9937 3245.43 0)
(35.7064 3161.88 0)
(31.1958 3079.08 0)
(22.9854 2957.47 0)
(19.3735 2831.91 0)
(15.5403 2678.47 0)
(12.5491 2515.35 0)
(16.1545 2321.39 0)
(31.7795 2122.9 0)
(65.8592 1889.23 0)
(122.47 1709.39 0)
(198.1 1596.45 0)
(273.399 1645.8 0)
(403.278 1824.97 0)
(2688.98 2249.19 0)
(32911.8 32203.6 0)
(-24785.3 535657 0)
(607939 -631810 0)
(-579320 -28396.8 0)
(-31367.7 -839.899 0)
(-1173.24 666.296 0)
(-416.836 1360.14 0)
(-150.076 1927.13 0)
(13.9455 2273.51 0)
(83.9741 2521.38 0)
(52.5337 2666.96 0)
(-36.5856 2878.94 0)
(-101.436 3099.92 0)
(-190.015 3363.66 0)
(-262.306 3680.39 0)
(-314.293 4024.45 0)
(-350.667 4401.46 0)
(-370.484 4781.84 0)
(-373.308 5162.23 0)
(-348.471 5509.74 0)
(-314.635 5802.98 0)
(-271.583 6041.98 0)
(-217.229 6242.31 0)
(-209.069 6391.43 0)
(-182.222 6523.49 0)
(-170.205 6542.52 0)
(-193.262 6578.61 0)
(-215.402 6573.12 0)
(-246.134 6594.58 0)
(-270.556 6609.58 0)
(-301.993 6640.52 0)
(-332.711 6665.57 0)
(-354.288 6706.58 0)
(-366.596 6713.06 0)
(-308.755 6713.02 0)
(-141.959 6532.54 0)
(138.334 6168.77 0)
(458.782 5524.37 0)
(974.115 4678.13 0)
(30166.7 3388.17 0)
(516539 -23792.6 0)
(-537371 -559615 0)
(607939 631810 0)
(-579320 28396.8 0)
(-31367.7 839.899 0)
(-1173.24 -666.296 0)
(-416.836 -1360.14 0)
(-150.076 -1927.13 0)
(13.9455 -2273.51 0)
(83.9741 -2521.38 0)
(52.5337 -2666.96 0)
(-36.5856 -2878.94 0)
(-101.436 -3099.92 0)
(-190.015 -3363.66 0)
(-262.306 -3680.39 0)
(-314.293 -4024.45 0)
(-350.667 -4401.46 0)
(-370.484 -4781.84 0)
(-373.308 -5162.23 0)
(-348.471 -5509.74 0)
(-314.635 -5802.98 0)
(-271.583 -6041.98 0)
(-217.229 -6242.31 0)
(-209.069 -6391.43 0)
(-182.222 -6523.49 0)
(-170.205 -6542.52 0)
(-193.262 -6578.61 0)
(-215.402 -6573.12 0)
(-246.134 -6594.58 0)
(-270.556 -6609.58 0)
(-301.993 -6640.52 0)
(-332.711 -6665.57 0)
(-354.288 -6706.58 0)
(-366.596 -6713.06 0)
(-308.755 -6713.02 0)
(-141.959 -6532.54 0)
(138.334 -6168.77 0)
(458.782 -5524.37 0)
(974.115 -4678.13 0)
(30166.7 -3388.17 0)
(516539 23792.6 0)
(-537371 559615 0)
(27803.4 -604556 0)
(-35376.6 -37305.3 0)
(-1605.28 -5520.61 0)
(-319.393 -4625.59 0)
(-206.018 -4360.79 0)
(-213.206 -4296.52 0)
(-159.533 -4358.77 0)
(-129.874 -4440.23 0)
(-124.983 -4558.64 0)
(-129.992 -4596.82 0)
(-135.737 -4612.55 0)
(-151.858 -4581.91 0)
(-167.913 -4505.73 0)
(-184.088 -4401.67 0)
(-199.746 -4268.96 0)
(-207.571 -4121.7 0)
(-203 -3958.25 0)
(-178.97 -3798.46 0)
(-142.81 -3655.16 0)
(-99.7017 -3531.11 0)
(-52.594 -3435.08 0)
(-21.4193 -3369.82 0)
(11.3336 -3286.05 0)
(33.9937 -3245.43 0)
(35.7064 -3161.88 0)
(31.1958 -3079.08 0)
(22.9854 -2957.47 0)
(19.3735 -2831.91 0)
(15.5403 -2678.47 0)
(12.5491 -2515.35 0)
(16.1545 -2321.39 0)
(31.7795 -2122.9 0)
(65.8592 -1889.23 0)
(122.47 -1709.39 0)
(198.1 -1596.45 0)
(273.399 -1645.8 0)
(403.278 -1824.97 0)
(2688.98 -2249.19 0)
(32911.8 -32203.6 0)
(-24785.3 -535657 0)
(-3114.73 -36926.4 0)
(-2067.53 -3246.64 0)
(123.727 -1659.78 0)
(-55.5898 -1380.98 0)
(-99.7324 -1276.95 0)
(-148.136 -1210.69 0)
(-124.538 -1178.47 0)
(-108.625 -1168.23 0)
(-98.3622 -1176.44 0)
(-88.5327 -1168.36 0)
(-87.0629 -1161.25 0)
(-87.0831 -1140.32 0)
(-88.6281 -1107.15 0)
(-86.1331 -1063.33 0)
(-80.8747 -1005.54 0)
(-71.0755 -940.01 0)
(-61.8186 -870.01 0)
(-56.3955 -808.092 0)
(-57.0139 -762.347 0)
(-59.5101 -735.521 0)
(-61.8049 -728.313 0)
(-65.4586 -742.26 0)
(-62.3494 -761.301 0)
(-50.5435 -804.704 0)
(-32.9658 -843.274 0)
(-18.4253 -879.76 0)
(-7.95006 -905.457 0)
(-1.702 -923.522 0)
(3.06124 -936.568 0)
(11.3814 -943.006 0)
(23.8873 -942.237 0)
(49.8514 -938.395 0)
(89.7212 -927.603 0)
(140.17 -922.884 0)
(199.609 -926.059 0)
(238.576 -944.106 0)
(392.664 -982.523 0)
(892.763 -966.759 0)
(2527.55 -2856.76 0)
(2954.08 -33126.8 0)
(-4621.36 -1386.09 0)
(-1392.38 -477.477 0)
(192.533 -455.389 0)
(49.512 -342.738 0)
(-41.9132 -264.303 0)
(-118.305 -238.2 0)
(-118.623 -212.787 0)
(-127.917 -221.155 0)
(-125.109 -242.719 0)
(-115.353 -268.968 0)
(-108.716 -294.783 0)
(-99.7255 -315.138 0)
(-93.717 -328.994 0)
(-86.1702 -339.704 0)
(-80.9129 -348.237 0)
(-76.9733 -358.264 0)
(-75.8796 -370.177 0)
(-75.2211 -383.08 0)
(-72.877 -394.425 0)
(-66.9059 -401.441 0)
(-59.0879 -403.566 0)
(-53.2075 -400.524 0)
(-48.8403 -392.298 0)
(-44.9985 -384.914 0)
(-36.6202 -379.68 0)
(-28.7264 -379.013 0)
(-19.1854 -379.964 0)
(-10.6056 -381.925 0)
(-3.23498 -383.136 0)
(7.08559 -384.226 0)
(20.5978 -385.406 0)
(45.882 -386.77 0)
(80.8064 -390.998 0)
(123.958 -399.582 0)
(177.65 -415.277 0)
(218.988 -432.147 0)
(381.449 -444.702 0)
(882.891 -456.805 0)
(1921.23 -491.932 0)
(4545.48 -1297.04 0)
(-5459.91 -606.785 0)
(-1170.68 -299.225 0)
(253.566 -267.703 0)
(128.547 -194.643 0)
(1.00441 -119.216 0)
(-98.4939 -105.944 0)
(-108.113 -79.2759 0)
(-137.468 -80.3478 0)
(-144.437 -95.9508 0)
(-138.703 -122.936 0)
(-131.554 -150.928 0)
(-120.05 -179.141 0)
(-112.301 -201.444 0)
(-104.676 -221.418 0)
(-98.76 -239.173 0)
(-92.2187 -255.865 0)
(-85.7323 -270.008 0)
(-79.7612 -280.378 0)
(-74.7068 -287.311 0)
(-68.3188 -291.302 0)
(-60.9213 -292.628 0)
(-54.6004 -291.345 0)
(-47.307 -287.669 0)
(-38.3839 -281.438 0)
(-27.2797 -272.894 0)
(-18.6988 -265.902 0)
(-10.7556 -257.838 0)
(-4.75866 -252.454 0)
(0.843279 -247.235 0)
(9.19383 -243.86 0)
(21.4361 -240.145 0)
(44.4622 -237.429 0)
(77.3756 -237.852 0)
(116.774 -239.794 0)
(168.228 -247.454 0)
(210.221 -255.272 0)
(368.902 -263.122 0)
(847.251 -280.367 0)
(1717.88 -310.868 0)
(5437.97 -549.266 0)
(-6017.26 -329.747 0)
(-1065.63 -193.835 0)
(293.311 -156.601 0)
(192.599 -114.952 0)
(43.5599 -48.3468 0)
(-79.8174 -32.8478 0)
(-93.9577 -1.76212 0)
(-143.986 7.78291 0)
(-166.148 -2.58809 0)
(-168.331 -35.7864 0)
(-162.878 -74.3934 0)
(-148.405 -108.583 0)
(-134.457 -136.344 0)
(-122.527 -157.529 0)
(-114.107 -173.215 0)
(-106.687 -185.701 0)
(-99.5014 -195.94 0)
(-91.8956 -203.962 0)
(-83.4034 -209.367 0)
(-72.0293 -212.333 0)
(-59.1299 -214.045 0)
(-48.4284 -214.477 0)
(-39.2932 -213.242 0)
(-30.7605 -210.909 0)
(-21.6495 -208.325 0)
(-14.2183 -206.76 0)
(-6.22648 -204.192 0)
(-0.387934 -201.867 0)
(5.04689 -198.908 0)
(13.9172 -195.728 0)
(26.7953 -191.165 0)
(48.0919 -186.566 0)
(78.5273 -184.763 0)
(114.706 -184.784 0)
(162.734 -189.174 0)
(203.89 -194.756 0)
(357.266 -201.999 0)
(836.88 -219.705 0)
(1662.11 -217.134 0)
(6062.6 -210.789 0)
(-6333.26 -178.121 0)
(-1003.83 -95.7616 0)
(329.58 -47.5408 0)
(232.865 -37.3671 0)
(80.1231 7.70407 0)
(-53.6033 32.6803 0)
(-68.9596 66.38 0)
(-138.264 91.832 0)
(-186.422 93.7935 0)
(-207.897 59.8123 0)
(-201.703 11.0415 0)
(-179.747 -34.9728 0)
(-159.467 -69.6493 0)
(-140.207 -95.5206 0)
(-125.907 -113.102 0)
(-114.117 -124.85 0)
(-103.33 -132.544 0)
(-92.6999 -137.318 0)
(-82.7727 -139.91 0)
(-72.8271 -141.455 0)
(-62.9879 -143.5 0)
(-53.8265 -146.068 0)
(-43.8682 -148.253 0)
(-33.6455 -149.631 0)
(-23.2822 -150.244 0)
(-14.7166 -150.675 0)
(-6.03992 -149.853 0)