/*--------------------------------*- C++ -*----------------------------------*\
| =========                 |                                                 |
| \\      /  F ield         | OpenFOAM: The Open Source CFD Toolbox           |
|  \\    /   O peration     | Version:  v1912                                 |
|   \\  /    A nd           | Website:  www.openfoam.com                      |
|    \\/     M anipulation  |                                                 |
\*---------------------------------------------------------------------------*/
FoamFile
{
    version     2.0;
    format      ascii;
    class       volVectorField;
    location    "5.14";
    object      grad(p);
}
// * * * * * * * * * * * * * * * * * * * * * * * * * * * * * * * * * * * * * //

dimensions      [1 -2 -2 0 0 0 0];


internalField   nonuniform List<vector> 
1900
(
(135373 0.425797 0)
(-128845 -0.459775 0)
(-8329.88 0.823486 0)
(-1310.55 -1.456 0)
(-1490.81 -0.909751 0)
(-1363.09 -1.0635 0)
(-1198.4 -5.10015 0)
(-835.761 20.3234 0)
(-615.048 -58.1651 0)
(266.335 -62.3006 0)
(135373 0.556848 0)
(-128845 -0.531234 0)
(-8330.88 0.660664 0)
(-1312.28 -1.76114 0)
(-1490.42 0.324226 0)
(-1367.28 0.410785 0)
(-1177.01 -8.82301 0)
(-888.825 3.63143 0)
(-697.672 -92.0025 0)
(-542.903 -84.0227 0)
(135373 -1.93978e-08 0)
(-128845 2.09255e-08 0)
(-8331.11 -2.25064e-08 0)
(-1310.88 -8.88178e-10 0)
(-1488.64 8.34888e-10 0)
(-1372.24 3.17968e-09 0)
(-1195.18 4.51195e-09 0)
(-918.94 3.35731e-09 0)
(-702.702 1.63425e-09 0)
(-627.265 -4.79616e-10 0)
(135373 -0.556849 0)
(-128845 0.531234 0)
(-8330.88 -0.660664 0)
(-1312.28 1.76114 0)
(-1490.42 -0.324226 0)
(-1367.28 -0.410785 0)
(-1177.01 8.82301 0)
(-888.825 -3.63143 0)
(-697.672 92.0025 0)
(-542.903 84.0227 0)
(135373 -0.425797 0)
(-128845 0.459775 0)
(-8329.88 -0.823486 0)
(-1310.55 1.456 0)
(-1490.81 0.909751 0)
(-1363.09 1.0635 0)
(-1198.4 5.10015 0)
(-835.761 -20.3234 0)
(-615.048 58.1651 0)
(266.335 62.3006 0)
(-315.389 -760.197 9.10366e-12)
(-1873.21 -666.842 -1.06872e-11)
(-2143.39 -800.6 -1.34017e-11)
(-147.859 -1273.35 0)
(-14597 -8962.26 -5.7538e-11)
(-848.446 -866.79 8.96629e-12)
(-1472.4 -790.239 1.06872e-11)
(-2192.31 -985.647 1.34017e-11)
(-3191.08 -1082.54 0)
(-13819.1 -7430.72 0)
(-1233.41 -3.21804e-10 0)
(-1741.79 -5.45373e-10 0)
(-2222.59 -1.33227e-09 0)
(-2854.56 5.04647e-10 0)
(-16971 -3.1192e-09 0)
(-848.446 866.79 8.96629e-12)
(-1472.4 790.239 1.06872e-11)
(-2192.31 985.647 1.34017e-11)
(-3191.08 1082.54 0)
(-13819.1 7430.72 0)
(-315.389 760.197 -2.70362e-11)
(-1873.21 666.842 -1.06872e-11)
(-2143.39 800.6 -1.34017e-11)
(-147.859 1273.35 -3.58702e-11)
(-14597 8962.26 5.7538e-11)
(-27131.1 10814.8 1.36617e-11)
(-4826.74 2948.41 -9.82312e-12)
(-3591.55 1605.96 0)
(-5114.49 1126.88 6.30995e-12)
(-8012.5 1489.17 -2.39059e-12)
(-23212.2 12565.5 -6.99368e-12)
(-6879.96 2039.17 4.95596e-12)
(-4032.64 517.323 0)
(-5023.87 449.529 -3.96831e-12)
(-7556.93 876.783 6.15462e-13)
(-24678.2 8.9715e-11 0)
(-7857.42 1.4803e-09 0)
(-4147.93 6.25014e-10 0)
(-5014.02 1.74153e-09 1.59274e-12)
(-7359 8.18059e-10 -1.23092e-12)
(-23212.2 -12565.5 -6.99368e-12)
(-6879.96 -2039.17 4.95596e-12)
(-4032.64 -517.323 0)
(-5023.87 -449.529 -3.96831e-12)
(-7556.93 -876.783 6.15462e-13)
(-27131.1 -10814.8 6.99368e-12)
(-4826.74 -2948.41 -8.87964e-14)
(-3591.55 -1605.96 0)
(-5114.49 -1126.88 3.39379e-14)
(-8012.5 -1489.17 2.39059e-12)
(-7103.48 3984.78 0)
(-798.356 940.359 0)
(2317.61 130.239 0)
(1155.94 920.154 0)
(-644.806 1044.6 0)
(-1474.51 692.538 0)
(-1386.91 283.372 0)
(-959.523 105.675 0)
(-681.356 47.9309 0)
(-602.469 30.1373 0)
(-571.346 31.6594 0)
(-495.079 23.0893 0)
(-358.43 8.84329 0)
(-220.098 0.650338 0)
(-135.019 -1.02039 0)
(-97.4193 -0.962871 0)
(-81.1006 -0.796799 0)
(-70.1429 -0.835342 0)
(-59.8384 -1.04399 0)
(-49.5102 -1.24471 0)
(-39.4979 -1.38268 0)
(-30.8171 -1.45236 0)
(-23.2366 -1.47141 0)
(-16.5503 -1.46896 0)
(-10.9659 -1.46268 0)
(-6.34405 -1.46745 0)
(-2.10428 -1.46806 0)
(2.40205 -1.5182 0)
(9.83228 -1.5289 0)
(18.7214 -1.51953 0)
(33.1216 -1.46628 0)
(47.0218 -1.00411 0)
(64.0424 -0.813708 0)
(75.6705 0.0737381 0)
(99.8805 -1.11575 0)
(123.324 1.71641 0)
(193.041 -2.55467 0)
(582.965 11.9339 0)
(6261.84 -11.7309 0)
(-6441.19 -662.448 0)
(-7239.31 2434.88 0)
(-1466.64 204.656 0)
(2150.89 -666.15 0)
(1310.11 571.589 0)
(-624.695 819.896 0)
(-1555.1 449.135 0)
(-1458.86 162.808 0)
(-989.475 45.874 0)
(-689.249 18.3719 0)
(-603.781 9.96728 0)
(-571.604 13.0473 0)
(-497.128 8.62117 0)
(-360.363 2.82571 0)
(-220.875 -0.3583 0)
(-135.09 -0.785971 0)
(-97.3725 -0.655835 0)
(-81.0679 -0.535112 0)
(-70.1501 -0.499263 0)
(-59.8694 -0.574905 0)
(-49.537 -0.650304 0)
(-39.5147 -0.703462 0)
(-30.8252 -0.734254 0)
(-23.2398 -0.749423 0)
(-16.5525 -0.76014 0)
(-10.9697 -0.772782 0)
(-6.34909 -0.792013 0)
(-2.11493 -0.810024 0)
(2.38976 -0.851785 0)
(9.82516 -0.871426 0)
(18.7163 -0.880271 0)
(33.1623 -0.872671 0)
(47.0764 -0.643136 0)
(64.1463 -0.54186 0)
(75.6324 0.0676724 0)
(100.086 -0.151689 0)
(123.293 1.99064 0)
(193.897 1.749 0)
(582.817 9.77665 0)
(6264.25 0.88841 0)
(-6444.25 92.0328 0)
(-7185.02 -1.5309e-08 0)
(-1700.47 5.63226e-08 0)
(2424.36 5.27416e-08 0)
(1588.24 4.58865e-08 0)
(-680.429 8.35695e-09 0)
(-1665.66 6.70171e-09 0)
(-1504.22 2.71298e-09 0)
(-1001.54 -2.07955e-08 0)
(-691.802 -1.45823e-08 0)
(-604.018 1.88132e-09 0)
(-571.737 -2.95117e-09 0)
(-498.052 -5.1151e-09 0)
(-361.042 -4.40052e-09 0)
(-221.148 -5.15143e-09 0)
(-135.105 -2.81391e-09 0)
(-97.3463 -1.17885e-09 0)
(-81.055 -2.89062e-09 0)
(-70.1545 -4.04121e-09 0)
(-59.8823 -1.03755e-09 0)
(-49.5476 1.64313e-09 0)
(-39.5224 5.0061e-09 0)
(-30.8305 8.88986e-09 0)
(-23.2441 1.12435e-08 0)
(-16.557 1.05128e-08 0)
(-10.9751 9.83859e-09 0)
(-6.35489 1.08802e-08 0)
(-2.12167 1.02383e-08 0)
(2.38418 5.32907e-09 0)
(9.824 1.5745e-10 0)
(18.721 -6.56445e-09 0)
(33.1906 -5.89024e-09 0)
(47.118 7.79175e-10 0)
(64.2492 1.5527e-08 0)
(75.784 2.13809e-08 0)
(100.44 2.80422e-08 0)
(123.876 2.18855e-08 0)
(195.306 4.33956e-08 0)
(582.715 8.53055e-09 0)
(6285.77 -4.93706e-08 0)
(-6468.22 -1.13348e-07 0)
(-7239.31 -2434.88 0)
(-1466.64 -204.656 0)
(2150.89 666.15 0)
(1310.11 -571.589 0)
(-624.695 -819.896 0)
(-1555.1 -449.135 0)
(-1458.86 -162.808 0)
(-989.475 -45.874 0)
(-689.249 -18.3719 0)
(-603.781 -9.96728 0)
(-571.604 -13.0473 0)
(-497.128 -8.62117 0)
(-360.363 -2.82571 0)
(-220.875 0.3583 0)
(-135.09 0.785971 0)
(-97.3725 0.655835 0)
(-81.0679 0.535112 0)
(-70.1501 0.499263 0)
(-59.8694 0.574905 0)
(-49.537 0.650304 0)
(-39.5147 0.703462 0)
(-30.8252 0.734254 0)
(-23.2398 0.749423 0)
(-16.5525 0.76014 0)
(-10.9697 0.772782 0)
(-6.34909 0.792013 0)
(-2.11493 0.810024 0)
(2.38976 0.851785 0)
(9.82516 0.871426 0)
(18.7163 0.880271 0)
(33.1623 0.87267 0)
(47.0764 0.643136 0)
(64.1463 0.54186 0)
(75.6324 -0.0676724 0)
(100.086 0.151689 0)
(123.293 -1.99064 0)
(193.897 -1.749 0)
(582.817 -9.77665 0)
(6264.25 -0.88841 0)
(-6444.25 -92.0328 0)
(-7103.48 -3984.78 0)
(-798.356 -940.359 0)
(2317.61 -130.239 0)
(1155.94 -920.154 0)
(-644.806 -1044.6 0)
(-1474.51 -692.538 0)
(-1386.91 -283.372 0)
(-959.523 -105.675 0)
(-681.356 -47.9309 0)
(-602.469 -30.1373 0)
(-571.346 -31.6594 0)
(-495.079 -23.0893 0)
(-358.43 -8.84329 0)
(-220.098 -0.650338 0)
(-135.019 1.02039 0)
(-97.4193 0.962871 0)
(-81.1006 0.796799 0)
(-70.1429 0.835342 0)
(-59.8384 1.04399 0)
(-49.5102 1.24471 0)
(-39.4979 1.38268 0)
(-30.8171 1.45236 0)
(-23.2366 1.47141 0)
(-16.5503 1.46896 0)
(-10.9659 1.46268 0)
(-6.34405 1.46745 0)
(-2.10428 1.46806 0)
(2.40205 1.5182 0)
(9.83228 1.5289 0)
(18.7214 1.51953 0)
(33.1216 1.46628 0)
(47.0218 1.00411 0)
(64.0424 0.813708 0)
(75.6705 -0.0737382 0)
(99.8805 1.11575 0)
(123.324 -1.71641 0)
(193.041 2.55467 0)
(582.965 -11.9339 0)
(6261.84 11.7309 0)
(-6441.19 662.448 0)
(3030.08 -1433.76 0)
(178.515 -460.674 0)
(1970.79 -1035.13 0)
(914.831 -1451.99 0)
(-458.665 -1380.18 0)
(-1170.79 -928.449 0)
(-1173.93 -443.327 0)
(-876.422 -195.174 0)
(-650.991 -96.4076 0)
(-595.091 -65.6678 0)
(-567.482 -58.6206 0)
(-485.186 -41.154 0)
(-348.522 -17.0061 0)
(-215.587 -2.73402 0)
(-134.16 0.88396 0)
(-97.4587 1.02079 0)
(-81.1102 0.874571 0)
(-70.0034 1.09324 0)
(-59.6485 1.50914 0)
(-49.3554 1.8888 0)
(-39.4039 2.14978 0)
(-30.7789 2.28175 0)
(-23.2331 2.31976 0)
(-16.5606 2.31872 0)
(-10.9752 2.31007 0)
(-6.35153 2.31977 0)
(-2.09541 2.32635 0)
(2.41372 2.40955 0)
(9.81776 2.43458 0)
(18.6712 2.42275 0)
(32.886 2.26853 0)
(46.7302 1.54081 0)
(63.5903 1.13055 0)
(75.7777 -0.231281 0)
(99.2935 1.05116 0)
(124.161 -1.96933 0)
(188.478 3.04592 0)
(588.402 -18.6283 0)
(6690.05 2.44497 0)
(-6870.68 154.356 0)
(3111.17 417.191 0)
(-938.053 -596.889 0)
(1548.32 -1108.84 0)
(952.728 -1336.41 0)
(-240.114 -1330.81 0)
(-734.586 -960.695 0)
(-794.499 -559.574 0)
(-669.78 -276.754 0)
(-572.842 -154.268 0)
(-570.012 -107.496 0)
(-549.795 -87.0129 0)
(-460.282 -56.5223 0)
(-326.72 -24.3356 0)
(-205.277 -5.15952 0)
(-131.861 0.576246 0)
(-97.4072 1.2362 0)
(-81.0256 1.28805 0)
(-69.6062 1.73712 0)
(-59.1736 2.39335 0)
(-48.9759 2.97017 0)
(-39.1697 3.36814 0)
(-30.6738 3.57611 0)
(-23.2028 3.64933 0)
(-16.5541 3.67317 0)
(-10.9599 3.69468 0)
(-6.32436 3.74988 0)
(-2.02252 3.80556 0)
(2.50008 3.99116 0)
(9.85279 4.09179 0)
(18.5883 4.14379 0)
(32.3981 3.94681 0)
(46.0815 2.94954 0)
(62.5773 2.3724 0)
(75.5365 0.551984 0)
(98.5204 1.69523 0)
(124.797 -1.20028 0)
(179.434 1.6979 0)
(579.471 -20.5101 0)
(6198.92 -12.541 0)
(-6361.98 -636.13 0)
(2856.91 244.286 0)
(-1292.02 -440.25 0)
(1258.16 -561.484 0)
(700.929 -1063.53 0)
(-96.6092 -1073.8 0)
(-427.599 -814.844 0)
(-514.86 -532.758 0)
(-485.855 -303 0)
(-487.888 -196.397 0)
(-530.281 -144.555 0)
(-518.362 -111.674 0)
(-424.788 -68.6055 0)
(-299.027 -30.463 0)
(-191.581 -8.14845 0)
(-127.997 -0.539995 0)
(-96.7728 0.99238 0)
(-80.6275 1.51414 0)
(-68.9383 2.2817 0)
(-58.4603 3.2021 0)
(-48.4161 3.97825 0)
(-38.82 4.51598 0)
(-30.5079 4.80926 0)
(-23.1396 4.93426 0)
(-16.5169 5.00815 0)
(-10.9012 5.09375 0)
(-6.24468 5.23274 0)
(-1.8629 5.37081 0)
(2.68953 5.71465 0)
(9.96484 5.93552 0)
(18.5315 6.0904 0)
(31.7352 5.90113 0)
(45.213 4.67245 0)
(61.2799 3.98667 0)
(75.1252 1.90412 0)
(97.6049 2.77134 0)
(124.164 -0.165527 0)
(169.87 -0.0827058 0)
(574.681 -15.3706 0)
(6096.81 5.00982 0)
(-6245.59 -220.697 0)
(2922.33 509.552 0)
(-1714.52 -235.514 0)
(947.71 -363.837 0)
(459.037 -836.771 0)
(-0.4758 -803.347 0)
(-213.213 -650.958 0)
(-301.267 -453.363 0)
(-345.649 -296.18 0)
(-420.158 -215.946 0)
(-488.37 -170.715 0)
(-476.608 -125.98 0)
(-382.024 -75.3576 0)
(-268.462 -33.5999 0)
(-176.442 -10.7262 0)
(-123.052 -2.1734 0)
(-95.4277 0.215701 0)
(-79.7832 1.36006 0)
(-67.9796 2.4893 0)
(-57.5387 3.6418 0)
(-47.7098 4.56839 0)
(-38.3689 5.2174 0)
(-30.2707 5.59568 0)
(-23.0112 5.79773 0)
(-16.4004 5.96667 0)
(-10.7434 6.17297 0)
(-6.05737 6.45334 0)
(-1.55813 6.7274 0)
(3.04426 7.28187 0)
(10.2149 7.66661 0)
(18.5552 7.95095 0)
(31.0317 7.78932 0)
(44.2367 6.44557 0)
(59.9096 5.61851 0)
(74.3654 3.44923 0)
(96.526 3.63564 0)
(122.046 0.75355 0)
(164.782 -2.23338 0)
(584.378 -7.23851 0)
(6001.06 11.814 0)
(-6154.14 -229.963 0)
(3120.99 550.191 0)
(-2133.65 -169.154 0)
(678.762 -305.994 0)
(277.402 -644.221 0)
(82.4474 -552.909 0)
(-90.3422 -481.273 0)
(-172.983 -359.635 0)
(-257.072 -274.46 0)
(-366.986 -221.28 0)
(-443.586 -183 0)
(-426.472 -129.032 0)
(-335.767 -75.6328 0)
(-236.746 -33.8132 0)
(-161.297 -12.1265 0)
(-117.453 -3.46081 0)
(-93.3678 -0.414891 0)
(-78.4366 1.18038 0)
(-66.7395 2.61881 0)
(-56.4568 3.91954 0)
(-46.8978 4.92574 0)
(-37.8301 5.65062 0)
(-29.9487 6.11729 0)
(-22.782 6.43395 0)
(-16.1553 6.76039 0)
(-10.4323 7.16374 0)
(-5.71041 7.65881 0)
(-1.0645 8.14996 0)
(3.59459 9.02154 0)
(10.6096 9.64582 0)
(18.6497 10.1371 0)
(30.2846 10.1166 0)
(43.1211 8.84036 0)
(58.3925 8.04522 0)
(73.2144 6.04913 0)
(95.0073 5.98046 0)
(118.508 3.59173 0)
(162.169 -0.599412 0)
(588.218 1.03506 0)
(5882.19 11.0367 0)
(-6035.38 -281.682 0)
(3289.51 437.298 0)
(-2539.57 -161.383 0)
(489.918 -285.958 0)
(221.101 -410.805 0)
(156.547 -364.617 0)
(-26.9683 -348.099 0)
(-101.975 -287.558 0)
(-212.325 -251.441 0)
(-332.024 -223.194 0)
(-399.477 -185.205 0)
(-373.145 -126.083 0)
(-290.268 -71.7989 0)
(-207.265 -32.9719 0)
(-147.193 -13.065 0)
(-111.767 -4.56494 0)
(-90.9553 -0.991138 0)
(-76.8598 0.932659 0)
(-65.3401 2.6195 0)
(-55.3157 4.02028 0)
(-46.0417 5.07799 0)
(-37.2207 5.86281 0)
(-29.5159 6.41893 0)
(-22.3915 6.86304 0)
(-15.6971 7.35963 0)
(-9.87768 7.95585 0)
(-5.10701 8.64479 0)
(-0.244961 9.31783 0)
(4.48572 10.428 0)
(11.2899 11.1696 0)
(19.0088 11.6953 0)
(29.7821 11.632 0)
(42.2406 10.2638 0)
(57.2199 9.31089 0)
(72.3757 7.21912 0)
(94.1579 6.73627 0)
(115.706 4.67124 0)
(162.319 -0.188405 0)
(595.591 5.9031 0)
(5728.63 11.2794 0)
(-5893.33 -320.142 0)
(3386.87 305.93 0)
(-2830.61 -135.073 0)
(438.41 -229.494 0)
(201.604 -238.148 0)
(142.874 -252.569 0)
(-16.0854 -262.275 0)
(-79.8399 -246.056 0)
(-195.048 -236.877 0)
(-303.159 -220.466 0)
(-350.006 -176.814 0)
(-317.189 -115.86 0)
(-246.042 -63.6206 0)
(-180.148 -29.1832 0)
(-133.923 -11.6828 0)
(-105.818 -3.87885 0)
(-88.0701 -0.32122 0)
(-74.9572 1.88602 0)
(-63.7642 3.63167 0)
(-54.0877 5.03307 0)
(-45.1222 6.08194 0)
(-36.5379 6.89977 0)
(-28.9848 7.55129 0)
(-21.8756 8.15381 0)
(-15.1022 8.86192 0)
(-9.19384 9.68368 0)
(-4.39796 10.5705 0)
(0.653885 11.4435 0)
(5.37903 12.8353 0)
(11.8308 13.6662 0)
(19.0953 14.1537 0)
(28.9051 13.9583 0)
(40.8844 12.4027 0)
(55.4585 11.142 0)
(70.7334 8.82579 0)
(92.5521 8.02843 0)
(111.835 6.15504 0)
(163.356 1.90616 0)
(599.269 9.30222 0)
(5568 7.62789 0)
(-5737.75 -355.407 0)
(3454.16 284.731 0)
(-3055.53 -96.507 0)
(390.59 -182.026 0)
(198.865 -176.097 0)
(133.298 -195.973 0)
(-20.692 -213.808 0)
(-77.5004 -221.327 0)
(-187.666 -223.633 0)
(-274.144 -206.731 0)
(-298.675 -158.752 0)
(-264.068 -100.757 0)
(-206.743 -54.0813 0)
(-157.215 -24.8633 0)
(-122.809 -9.77387 0)
(-100.818 -2.85012 0)
(-85.4001 0.787287 0)
(-73.0506 3.4447 0)
(-62.3075 5.40945 0)
(-52.9545 6.85709 0)
(-44.2429 7.90826 0)
(-35.8047 8.76456 0)
(-28.3074 9.50499 0)
(-21.1285 10.2303 0)
(-14.2229 11.0699 0)
(-8.23125 12.0023 0)
(-3.41119 12.9208 0)
(1.93754 13.8112 0)
(6.62757 15.3351 0)
(12.5603 16.0209 0)
(19.2903 16.2486 0)
(28.0948 15.6858 0)
(39.5267 13.7178 0)
(53.7731 11.8903 0)
(69.3754 9.28114 0)
(91.5843 8.09996 0)
(109.806 6.17709 0)
(165.351 3.04585 0)
(601.105 10.8764 0)
(5377.18 5.1197 0)
(-5558.2 -382.877 0)
(3568.25 217.92 0)
(-3280.39 -63.7831 0)
(361.714 -130.583 0)
(188.164 -129.554 0)
(106.533 -167.053 0)
(-40.5175 -189.65 0)
(-89.3073 -209.727 0)
(-180.984 -212.087 0)
(-240.637 -187.694 0)
(-247.885 -137.073 0)
(-216.325 -84.0511 0)
(-172.908 -43.919 0)
(-137.451 -19.379 0)
(-112.711 -6.12253 0)
(-95.6408 1.15459 0)
(-82.0042 5.82224 0)
(-70.5031 8.93003 0)
(-60.4759 11.1497 0)
(-51.6797 12.6828 0)
(-43.2841 13.7608 0)
(-34.9992 14.653 0)
(-27.5724 15.4325 0)
(-20.3675 16.1594 0)
(-13.3947 16.911 0)
(-7.41031 17.625 0)
(-2.65479 18.338 0)
(2.98042 18.9366 0)
(7.50839 20.0517 0)
(12.7111 20.1925 0)
(18.7723 19.7578 0)
(26.4663 18.416 0)
(37.2269 15.6155 0)
(51.1832 12.7778 0)
(67.081 9.39267 0)
(89.5609 7.41121 0)
(106.965 4.74629 0)
(167.884 1.83581 0)
(601.267 8.92053 0)
(5188.56 -2.07987 0)
(-5373.73 -409.543 0)
(3602.69 108.268 0)
(-3391.36 -38.5673 0)
(327.211 -91.8723 0)
(163.721 -108.989 0)
(75.3871 -156.297 0)
(-61.8143 -176.441 0)
(-99.1218 -196.213 0)
(-166.434 -190.05 0)
(-201.858 -158.867 0)
(-198.801 -110.026 0)
(-174.302 -64.4249 0)
(-144.422 -31.6073 0)
(-120.793 -11.729 0)
(-103.022 -0.119084 0)
(-89.3078 7.80981 0)
(-77.9074 12.9269 0)
(-67.9169 16.421 0)
(-58.6911 18.8596 0)
(-50.4383 20.5623 0)
(-42.3443 21.7514 0)
(-34.1938 22.7322 0)
(-26.8559 23.5625 0)
(-19.7038 24.2501 0)
(-12.8106 24.8467 0)
(-6.85609 25.2621 0)
(-2.14722 25.7864 0)
(3.58893 26.1336 0)
(7.83774 26.6926 0)
(12.2771 26.3097 0)
(17.5785 25.2615 0)
(24.1031 23.236 0)
(34.0935 19.7055 0)
(47.7765 15.8636 0)
(64.204 11.5786 0)
(87.1069 8.87836 0)
(104.434 6.03988 0)
(169.374 3.13566 0)
(597.331 7.59253 0)
(4973.93 -7.13914 0)
(-5161.55 -427.78 0)
(3635.41 -52.3668 0)
(-3473.25 -29.6454 0)
(293.853 -70.5321 0)
(126.082 -99.0152 0)
(41.5339 -151.726 0)
(-78.982 -164.129 0)
(-102.421 -176.082 0)
(-144.996 -160.501 0)
(-163.523 -126.431 0)
(-156.877 -82.939 0)
(-140.758 -45.5944 0)
(-122.129 -18.597 0)
(-107.108 -0.935437 0)
(-93.8823 10.9598 0)
(-83.0692 18.5838 0)
(-73.7061 24.1113 0)
(-64.7862 28.3172 0)
(-56.4853 31.4129 0)
(-48.8931 33.6259 0)
(-41.1931 35.1208 0)
(-33.2541 36.1742 0)
(-26.1097 36.8142 0)
(-19.13 37.053 0)
(-12.4194 37.047 0)
(-6.50485 36.8169 0)
(-1.81498 36.6375 0)
(3.85367 36.2044 0)
(7.67812 35.9651 0)
(11.332 34.6353 0)
(15.8104 32.6003 0)
(21.1124 29.577 0)
(30.1225 25.0722 0)
(43.3519 19.991 0)
(60.3498 14.6529 0)
(84.2236 11.1454 0)
(101.431 8.22548 0)
(169.38 5.47663 0)
(591.366 8.73452 0)
(4769.02 -11.4003 0)
(-4954.62 -467.116 0)
(3523.66 -185.346 0)
(-3408.86 -28.1213 0)
(260.364 -63.2696 0)
(85.4797 -95.9758 0)
(12.6408 -146.771 0)
(-85.2846 -147.257 0)
(-95.6256 -146.656 0)
(-118.588 -124.368 0)
(-127.116 -91.5516 0)
(-120.904 -55.3542 0)
(-112.299 -25.3501 0)
(-101.387 -2.43963 0)
(-92.3114 13.4582 0)
(-84.2127 24.2011 0)
(-76.6346 31.429 0)
(-68.528 36.9225 0)
(-60.8808 40.9715 0)
(-53.5755 44.0598 0)
(-46.8653 46.3657 0)
(-39.8886 47.9801 0)
(-32.5619 49.1277 0)
(-26.0091 49.7786 0)
(-19.4795 49.9327 0)
(-13.0381 49.806 0)
(-7.25078 49.4803 0)
(-2.73742 49.1273 0)
(2.94102 48.3717 0)
(6.32567 47.934 0)
(9.03466 46.0493 0)
(12.7041 43.4419 0)
(16.8487 39.7232 0)
(24.8561 34.5856 0)
(37.7361 28.5428 0)
(55.68 22.3914 0)
(80.9132 18.3005 0)
(98.9709 15.0194 0)
(169.864 11.9185 0)
(581.068 13.5364 0)
(4515.38 -14.8921 0)
(-4700.43 -471.226 0)
(3429.71 -307.02 0)
(-3355.62 -19.1494 0)
(228.466 -47.3216 0)
(45.617 -78.5458 0)
(-7.88204 -125.039 0)
(-78.8711 -117.335 0)
(-80.3651 -108.44 0)
(-91.8951 -84.8257 0)
(-97.0188 -55.7005 0)
(-93.0831 -25.9773 0)
(-89.7675 -0.828803 0)
(-84.7317 17.5548 0)
(-81.4362 30.3238 0)
(-76.565 39.8119 0)
(-70.8104 47.1277 0)
(-64.5106 52.4434 0)
(-57.9084 56.4582 0)
(-51.2873 59.6638 0)
(-45.1153 62.193 0)
(-38.5315 63.9603 0)
(-31.521 65.0113 0)
(-25.334 65.3147 0)
(-19.1036 65.0541 0)
(-12.8554 64.6027 0)
(-7.15884 64.0539 0)
(-2.88322 63.7402 0)
(2.70379 62.7919 0)
(5.44016 61.997 0)
(7.00323 59.8824 0)
(9.71436 57.2189 0)
(12.5782 53.3169 0)
(19.3487 48.1065 0)
(31.6011 41.6853 0)
(50.4799 35.158 0)
(77.1197 30.9646 0)
(95.281 28.0612 0)
(167.951 24.5098 0)
(565.53 26.194 0)
(4301.89 -13.9041 0)
(-4486.18 -497.937 0)
(3209.35 -349.692 0)
(-3158.61 1.77737 0)
(203.127 -25.1046 0)
(10.5883 -50.8276 0)
(-24.738 -91.9861 0)
(-69.2895 -81.1048 0)
(-64.2984 -66.2707 0)
(-67.766 -42.422 0)
(-70.4079 -15.4472 0)
(-68.0275 7.42899 0)
(-70.3502 24.5236 0)
(-71.3675 38.5314 0)
(-70.8636 48.865 0)
(-68.0199 57.4475 0)
(-64.4625 63.407 0)
(-59.5368 67.6572 0)
(-53.923 70.554 0)
(-48.0493 72.6533 0)
(-42.725 74.3055 0)
(-37.1727 75.6694 0)
(-31.2567 76.9871 0)
(-25.9679 78.0341 0)
(-20.1656 78.6057 0)
(-14.0019 78.8446 0)
(-8.08191 78.7714 0)
(-3.95358 78.8966 0)
(1.26121 78.1252 0)
(3.52199 77.4393 0)
(4.43024 75.7122 0)
(6.37747 73.6513 0)
(8.0677 70.4496 0)
(13.6474 66.2075 0)
(25.2584 60.8379 0)
(45.3491 55.83 0)
(74.0745 53.6951 0)
(92.7508 54.2988 0)
(168.065 52.5091 0)
(544.051 55.6178 0)
(4010.31 7.29899 0)
(-4207.2 -452.173 0)
(3094.45 -313.011 0)
(-3042.83 45.2806 0)
(177.774 17.116 0)
(-18.8325 -3.03136 0)
(-37.0583 -30.7657 0)
(-54.0908 -17.2685 0)
(-43.0889 -0.704587 0)
(-42.9197 16.6393 0)
(-48.9806 36.0326 0)
(-54.5658 50.6062 0)
(-59.7961 61.1228 0)
(-61.2754 71.3577 0)
(-63.208 79.0416 0)
(-62.5518 85.7797 0)
(-60.9719 90.486 0)
(-57.6235 93.9821 0)
(-53.0941 96.5083 0)
(-47.6723 98.6165 0)
(-42.2088 100.525 0)
(-35.9473 102.069 0)
(-29.2422 103.143 0)
(-23.7742 103.546 0)
(-18.3227 103.473 0)
(-12.6958 103.322 0)
(-7.10874 102.881 0)
(-3.50595 102.796 0)
(1.29951 101.923 0)
(3.11494 101.265 0)
(3.35296 99.747 0)
(4.64311 97.8757 0)
(5.40512 95.4909 0)
(10.0864 92.2699 0)
(21.6009 88.0999 0)
(43.5968 84.9892 0)
(75.6442 84.6645 0)
(94.1382 90.2046 0)
(169.222 93.0691 0)
(521.964 102.905 0)
(3812.56 38.2391 0)
(-4057.48 -355.715 0)
(2951.36 -101.673 0)
(-2840.48 109.015 0)
(156.572 70.6159 0)
(-35.5522 50.7327 0)
(-38.4574 32.8827 0)
(-40.3216 43.0957 0)
(-31.6237 57.8961 0)
(-32.3647 67.241 0)
(-37.6761 79.4146 0)
(-43.8497 88.2585 0)
(-50.3533 95.6772 0)
(-54.1003 103.308 0)
(-56.9661 109.022 0)
(-56.9917 115.809 0)
(-56.5583 121.089 0)
(-53.7335 125.87 0)
(-49.4571 129.288 0)
(-44.1782 130.674 0)
(-39.3977 130.079 0)
(-34.6503 129.136 0)
(-29.8343 130.517 0)
(-25.6499 133.677 0)
(-20.3809 135.616 0)
(-14.572 135.019 0)
(-8.58859 132.212 0)
(-4.877 129.779 0)
(-0.214534 126.333 0)
(1.42505 123.911 0)
(1.16433 120.78 0)
(2.27614 118.37 0)
(2.6658 115.893 0)
(6.52509 113.32 0)
(18.2425 109.007 0)
(42.0387 105.785 0)
(79.1002 104.041 0)
(100.85 111.322 0)
(180.304 115.644 0)
(491.215 128.674 0)
(3568.37 66.7193 0)
(-3901.27 -101.118 0)
(3101.52 343.21 0)
(-2876.81 217.348 0)
(121.611 173.229 0)
(-55.1935 147.658 0)
(-44.4176 130.607 0)
(-29.987 133.016 0)
(-19.8217 145.59 0)
(-22.1837 150.612 0)
(-28.7273 159.09 0)
(-38.8946 163.016 0)
(-45.2939 166.166 0)
(-48.4156 168.485 0)
(-51.1616 169.049 0)
(-50.9241 169.976 0)
(-51.2765 170.408 0)
(-49.7225 173.202 0)
(-48.4646 178.719 0)
(-46.9096 186.796 0)
(-43.691 195.706 0)
(-35.5259 201.327 0)
(-24.8667 202.233 0)
(-18.8605 198.601 0)
(-17.0295 192.027 0)
(-15.9756 187.432 0)
(-12.1584 184.575 0)
(-9.17149 185.889 0)
(-4.35499 187.814 0)
(-2.23586 189.364 0)
(-1.98602 191.304 0)
(-0.066022 192.729 0)
(0.538321 193.715 0)
(3.45024 194.657 0)
(14.3406 192.778 0)
(38.8114 191.906 0)
(80.9791 191.426 0)
(105.32 204.279 0)
(185.944 215.757 0)
(474.818 220.555 0)
(3591.13 130.485 0)
(-4024.34 224.647 0)
(3491.53 10722 0)
(-3004.28 1310.39 0)
(89.4158 754.926 0)
(-76.6243 693.924 0)
(-52.5666 724.982 0)
(-25.8831 740.068 0)
(-14.6677 764.282 0)
(-19.3554 767.961 0)
(-25.723 772.226 0)
(-37.0312 766.729 0)
(-45.0828 763.491 0)
(-51.3222 751.408 0)
(-55.5295 737.758 0)
(-55.6823 718.656 0)
(-53.4497 696.791 0)
(-45.725 673.633 0)
(-36.3575 650.32 0)
(-27.8083 628.153 0)
(-25.3949 620.578 0)
(-28.3612 614.64 0)
(-32.4609 615.674 0)
(-35.4842 625.701 0)
(-31.1438 628.183 0)
(-21.7535 649.777 0)
(-10.0761 658.129 0)
(-1.7554 674.375 0)
(3.13481 684.301 0)
(4.78785 691.951 0)
(4.40621 696.984 0)
(4.59917 696.93 0)
(4.52413 694.261 0)
(5.62299 686.309 0)
(15.5913 673.813 0)
(40.7358 652.063 0)
(91.023 631.173 0)
(124.296 605.85 0)
(195.989 605.44 0)
(409.044 535.644 0)
(3572.31 1049.33 0)
(-4243.49 9627.14 0)
(14696.4 167523 0)
(-12481.4 14579.7 0)
(-472.44 5281.02 0)
(-84.0491 5094.02 0)
(0.0489651 5196.21 0)
(7.88359 5467.13 0)
(7.05644 5674.41 0)
(-14.5285 5912.81 0)
(-29.9144 6076.86 0)
(-47.3117 6216.86 0)
(-60.0573 6336.74 0)
(-73.2124 6412.95 0)
(-82.7226 6486.84 0)
(-90.4014 6529.56 0)
(-94.6624 6565.37 0)
(-94.5042 6580.11 0)
(-92.2906 6588.54 0)
(-75.5701 6578.34 0)
(-56.7133 6571.91 0)
(-40.251 6547.87 0)
(-14.2078 6527.97 0)
(-6.80673 6492.82 0)
(6.17089 6463.96 0)
(12.8816 6334.24 0)
(11.545 6212.9 0)
(16.0484 6055.24 0)
(12.5823 5900.08 0)
(9.9862 5698.37 0)
(2.81178 5504.95 0)
(-2.68951 5270.9 0)
(-9.69623 5046.39 0)
(-16.2542 4763.36 0)
(-18.6606 4513.2 0)
(-2.27876 4166.71 0)
(36.4471 3912.08 0)
(80.5227 3600.34 0)
(118.291 3592.86 0)
(902.571 3527.96 0)
(12352 12231 0)
(-14312.6 150083 0)
(178972 -184865 0)
(-159346 -16111.6 0)
(-9051.33 -6553.25 0)
(-158.345 -6228.46 0)
(306.975 -6301.7 0)
(434.925 -6547.07 0)
(414.805 -6761.22 0)
(368.457 -6984.85 0)
(267.263 -7128.51 0)
(213.395 -7231.16 0)
(143.885 -7300.86 0)
(93.3264 -7318.15 0)
(56.8369 -7321.73 0)
(19.9926 -7291.29 0)
(-4.73404 -7248.67 0)
(-23.4016 -7188.14 0)
(-38.0639 -7126.31 0)
(-43.834 -7052.87 0)
(-54.7563 -7002.4 0)
(-70.7056 -6937.19 0)
(-85.5142 -6887.26 0)
(-97.1615 -6833.71 0)
(-183.952 -6779.37 0)
(-263.689 -6649.21 0)
(-278.931 -6519.09 0)
(-303.198 -6371.74 0)
(-340.763 -6221.11 0)
(-375.969 -6031.17 0)
(-407.523 -5841.32 0)
(-437.29 -5611.19 0)
(-484.553 -5384.73 0)
(-508.18 -5098.29 0)
(-559.364 -4840.51 0)
(-538.524 -4498.46 0)
(-454.754 -4279.3 0)
(-183.312 -4064.36 0)
(126.24 -4172.63 0)
(8733.11 -4318.12 0)
(144798 -14171.9 0)
(-160655 -167398 0)
(178972 184865 0)
(-159346 16111.6 0)
(-9051.33 6553.25 0)
(-158.345 6228.46 0)
(306.975 6301.7 0)
(434.925 6547.07 0)
(414.805 6761.22 0)
(368.457 6984.85 0)
(267.263 7128.51 0)
(213.395 7231.16 0)
(143.885 7300.86 0)
(93.3264 7318.15 0)
(56.8369 7321.73 0)
(19.9926 7291.29 0)
(-4.73405 7248.67 0)
(-23.4016 7188.14 0)
(-38.0639 7126.31 0)
(-43.834 7052.87 0)
(-54.7563 7002.4 0)
(-70.7056 6937.19 0)
(-85.5142 6887.26 0)
(-97.1615 6833.71 0)
(-183.952 6779.37 0)
(-263.689 6649.21 0)
(-278.931 6519.09 0)
(-303.198 6371.74 0)
(-340.763 6221.11 0)
(-375.969 6031.17 0)
(-407.523 5841.32 0)
(-437.29 5611.19 0)
(-484.553 5384.73 0)
(-508.18 5098.29 0)
(-559.364 4840.51 0)
(-538.524 4498.46 0)
(-454.754 4279.3 0)
(-183.312 4064.36 0)
(126.24 4172.63 0)
(8733.11 4318.12 0)
(144798 14171.9 0)
(-160655 167398 0)
(14696.4 -167523 0)
(-12481.4 -14579.7 0)
(-472.44 -5281.02 0)
(-84.0491 -5094.02 0)
(0.0489652 -5196.21 0)
(7.88359 -5467.13 0)
(7.05644 -5674.41 0)
(-14.5285 -5912.81 0)
(-29.9144 -6076.86 0)
(-47.3117 -6216.86 0)
(-60.0573 -6336.74 0)
(-73.2124 -6412.95 0)
(-82.7226 -6486.84 0)
(-90.4014 -6529.56 0)
(-94.6624 -6565.37 0)
(-94.5042 -6580.11 0)
(-92.2906 -6588.54 0)
(-75.5701 -6578.34 0)
(-56.7133 -6571.91 0)
(-40.251 -6547.87 0)
(-14.2078 -6527.97 0)
(-6.80673 -6492.82 0)
(6.17089 -6463.96 0)
(12.8816 -6334.24 0)
(11.545 -6212.9 0)
(16.0484 -6055.24 0)
(12.5823 -5900.08 0)
(9.9862 -5698.37 0)
(2.81178 -5504.95 0)
(-2.68951 -5270.9 0)
(-9.69623 -5046.39 0)
(-16.2542 -4763.36 0)
(-18.6606 -4513.2 0)
(-2.27876 -4166.71 0)
(36.4471 -3912.08 0)
(80.5227 -3600.34 0)
(118.291 -3592.86 0)
(902.571 -3527.96 0)
(12352 -12231 0)
(-14312.6 -150083 0)
(3491.53 -10722 0)
(-3004.28 -1310.39 0)
(89.4158 -754.926 0)
(-76.6243 -693.924 0)
(-52.5666 -724.982 0)
(-25.8831 -740.068 0)
(-14.6677 -764.282 0)
(-19.3554 -767.961 0)
(-25.723 -772.226 0)
(-37.0312 -766.729 0)
(-45.0828 -763.491 0)
(-51.3222 -751.408 0)
(-55.5295 -737.758 0)
(-55.6823 -718.656 0)
(-53.4497 -696.791 0)
(-45.725 -673.633 0)
(-36.3575 -650.32 0)
(-27.8083 -628.153 0)
(-25.3949 -620.578 0)
(-28.3612 -614.64 0)
(-32.4609 -615.674 0)
(-35.4842 -625.701 0)
(-31.1438 -628.183 0)
(-21.7535 -649.777 0)
(-10.0761 -658.129 0)
(-1.7554 -674.375 0)
(3.13481 -684.301 0)
(4.78785 -691.951 0)
(4.40621 -696.984 0)
(4.59917 -696.93 0)
(4.52413 -694.261 0)
(5.62299 -686.309 0)
(15.5913 -673.813 0)
(40.7358 -652.063 0)
(91.023 -631.173 0)
(124.296 -605.85 0)
(195.989 -605.44 0)
(409.044 -535.644 0)
(3572.31 -1049.33 0)
(-4243.49 -9627.14 0)
(3101.52 -343.21 0)
(-2876.81 -217.348 0)
(121.611 -173.229 0)
(-55.1935 -147.658 0)
(-44.4176 -130.607 0)
(-29.987 -133.016 0)
(-19.8217 -145.59 0)
(-22.1837 -150.612 0)
(-28.7273 -159.09 0)
(-38.8946 -163.016 0)
(-45.2939 -166.166 0)
(-48.4156 -168.485 0)
(-51.1616 -169.049 0)
(-50.9241 -169.976 0)
(-51.2765 -170.408 0)
(-49.7225 -173.202 0)
(-48.4646 -178.719 0)
(-46.9096 -186.796 0)
(-43.691 -195.706 0)
(-35.5259 -201.327 0)
(-24.8667 -202.233 0)
(-18.8605 -198.601 0)
(-17.0295 -192.027 0)
(-15.9756 -187.432 0)
(-12.1584 -184.575 0)
(-9.17149 -185.889 0)
(-4.35499 -187.814 0)
(-2.23586 -189.364 0)
(-1.98602 -191.304 0)
(-0.066022 -192.729 0)
(0.538321 -193.715 0)
(3.45024 -194.657 0)
(14.3406 -192.778 0)
(38.8114 -191.906 0)
(80.9791 -191.426 0)
(105.32 -204.279 0)
(185.944 -215.757 0)
(474.818 -220.555 0)
(3591.13 -130.485 0)
(-4024.34 -224.647 0)
(2951.36 101.673 0)
(-2840.48 -109.015 0)
(156.572 -70.6159 0)
(-35.5522 -50.7327 0)
(-38.4574 -32.8827 0)
(-40.3216 -43.0957 0)
(-31.6237 -57.8961 0)
(-32.3647 -67.241 0)
(-37.6761 -79.4146 0)
(-43.8497 -88.2585 0)
(-50.3533 -95.6772 0)
(-54.1003 -103.308 0)
(-56.9661 -109.022 0)
(-56.9917 -115.809 0)
(-56.5583 -121.089 0)
(-53.7335 -125.87 0)
(-49.4571 -129.288 0)
(-44.1782 -130.674 0)
(-39.3977 -130.079 0)
(-34.6503 -129.136 0)
(-29.8343 -130.517 0)
(-25.6499 -133.677 0)
(-20.3809 -135.616 0)
(-14.572 -135.019 0)
(-8.58859 -132.212 0)
(-4.877 -129.779 0)
(-0.214534 -126.333 0)
(1.42505 -123.911 0)
(1.16433 -120.78 0)
(2.27614 -118.37 0)
(2.6658 -115.893 0)
(6.52509 -113.32 0)
(18.2425 -109.007 0)
(42.0387 -105.785 0)
(79.1002 -104.041 0)
(100.85 -111.322 0)
(180.304 -115.644 0)
(491.215 -128.674 0)
(3568.37 -66.7193 0)
(-3901.27 101.118 0)
(3094.45 313.011 0)
(-3042.83 -45.2806 0)
(177.774 -17.116 0)
(-18.8325 3.03136 0)
(-37.0583 30.7657 0)
(-54.0908 17.2685 0)
(-43.0889 0.704587 0)
(-42.9197 -16.6393 0)
(-48.9806 -36.0326 0)
(-54.5658 -50.6062 0)
(-59.7961 -61.1228 0)
(-61.2754 -71.3577 0)
(-63.208 -79.0416 0)
(-62.5518 -85.7797 0)
(-60.9719 -90.486 0)
(-57.6235 -93.9821 0)
(-53.0941 -96.5083 0)
(-47.6723 -98.6165 0)
(-42.2088 -100.525 0)
(-35.9473 -102.069 0)
(-29.2422 -103.143 0)
(-23.7742 -103.546 0)
(-18.3227 -103.473 0)
(-12.6958 -103.322 0)
(-7.10874 -102.881 0)
(-3.50595 -102.796 0)
(1.29951 -101.923 0)
(3.11494 -101.265 0)
(3.35296 -99.747 0)
(4.64311 -97.8757 0)
(5.40512 -95.4909 0)
(10.0864 -92.2699 0)
(21.6009 -88.0999 0)
(43.5968 -84.9892 0)
(75.6442 -84.6645 0)
(94.1382 -90.2046 0)
(169.222 -93.0691 0)
(521.964 -102.905 0)
(3812.56 -38.2391 0)
(-4057.48 355.715 0)
(3209.35 349.692 0)
(-3158.61 -1.77737 0)
(203.127 25.1046 0)
(10.5883 50.8276 0)
(-24.738 91.9861 0)
(-69.2895 81.1048 0)
(-64.2984 66.2707 0)
(-67.766 42.422 0)
(-70.4079 15.4472 0)
(-68.0275 -7.42899 0)
(-70.3502 -24.5236 0)
(-71.3675 -38.5314 0)
(-70.8636 -48.865 0)
(-68.0199 -57.4475 0)
(-64.4625 -63.407 0)
(-59.5368 -67.6572 0)
(-53.923 -70.554 0)
(-48.0493 -72.6533 0)
(-42.725 -74.3055 0)
(-37.1727 -75.6694 0)
(-31.2567 -76.9871 0)
(-25.9679 -78.0341 0)
(-20.1656 -78.6057 0)