/*--------------------------------*- C++ -*----------------------------------*\
| =========                 |                                                 |
| \\      /  F ield         | OpenFOAM: The Open Source CFD Toolbox           |
|  \\    /   O peration     | Version:  v1912                                 |
|   \\  /    A nd           | Website:  www.openfoam.com                      |
|    \\/     M anipulation  |                                                 |
\*---------------------------------------------------------------------------*/
FoamFile
{
    version     2.0;
    format      ascii;
    class       volScalarField;
    location    "5.14";
    object      rho;
}
// * * * * * * * * * * * * * * * * * * * * * * * * * * * * * * * * * * * * * //

dimensions      [1 -3 0 0 0 0 0];


internalField   nonuniform List<scalar> 
1900
(
42721.8
17100.6
14440.7
13953.6
13648.5
13444.3
13287
13165.8
13105.4
13039.9
42721.8
17100.5
14440.9
13953.3
13648.3
13444
13286
13169.4
13091.2
13025
42721.7
17100.5
14440.9
13953.2
13648.5
13444.3
13285.1
13165.8
13083.9
13020
42721.8
17100.5
14440.9
13953.3
13648.3
13444
13286
13169.4
13091.2
13025
42721.8
17100.6
14440.7
13953.6
13648.5
13444.3
13287
13165.8
13105.4
13039.9
13144.1
13008.9
12960.1
12709.9
12629.7
13003.1
12909
12867
12612.5
12137.9
12983.3
12890.9
12846.3
12635.8
12251.1
13003.1
12909
12867
12612.5
12137.9
13144.1
13008.9
12960.1
12709.9
12629.7
8131.16
7452.76
7302.99
6945.83
6362.71
8744.14
7643.24
7426.06
7048.97
6525.93
8872.63
7586.07
7340.29
6984.39
6456.07
8744.14
7643.24
7426.06
7048.97
6525.93
8131.16
7452.76
7302.99
6945.83
6362.71
4539.67
3558.07
4124.88
4506.08
4386.19
4052.62
3693.61
3423.92
3241.48
3088.12
2937.91
2795.08
2679.31
2604.83
2561.05
2531.68
2507.97
2487.3
2469.45
2454.35
2442.13
2432.53
2425.09
2419.69
2415.96
2413.65
2412.47
2412.49
2413.8
2417.93
2424.16
2436.24
2450.13
2471.53
2491.85
2526.53
2556.49
2623.48
3139.69
9412.25
4922.57
3749.55
4181.94
4581.32
4447.04
4088.41
3708.12
3428.72
3243.53
3089.21
2939.28
2796.05
2679.62
2604.78
2560.94
2531.59
2507.89
2487.22
2469.37
2454.26
2442.03
2432.43
2424.99
2419.58
2415.86
2413.54
2412.36
2412.38
2413.69
2417.81
2424.04
2436.15
2450.05
2471.49
2491.74
2526.59
2556.32
2623.69
3136.48
9395.36
4977.19
3681.29
4135.57
4649.44
4504.36
4109.13
3713.94
3430.35
3244.24
3089.63
2939.88
2796.39
2679.73
2604.76
2560.91
2531.57
2507.87
2487.21
2469.35
2454.24
2442.01
2432.4
2424.96
2419.55
2415.83
2413.51
2412.33
2412.34
2413.65
2417.78
2424.01
2436.14
2450.04
2471.53
2491.81
2526.8
2556.7
2624.49
3134.84
9402.52
4922.57
3749.55
4181.94
4581.32
4447.04
4088.41
3708.12
3428.72
3243.53
3089.21
2939.28
2796.05
2679.62
2604.78
2560.94
2531.59
2507.89
2487.22
2469.37
2454.26
2442.03
2432.43
2424.99
2419.58
2415.86
2413.54
2412.36
2412.38
2413.69
2417.81
2424.04
2436.15
2450.05
2471.49
2491.74
2526.59
2556.32
2623.69
3136.48
9395.36
4539.67
3558.07
4124.88
4506.08
4386.19
4052.62
3693.61
3423.92
3241.48
3088.12
2937.91
2795.08
2679.31
2604.83
2561.05
2531.68
2507.97
2487.3
2469.45
2454.35
2442.13
2432.53
2425.09
2419.69
2415.96
2413.65
2412.47
2412.49
2413.8
2417.93
2424.16
2436.24
2450.13
2471.53
2491.85
2526.53
2556.49
2623.48
3139.69
9412.25
3840.76
3410.35
3939.72
4230.44
4187.06
3940.17
3648.13
3402.44
3230.63
3080.87
2930.67
2789.61
2677.08
2604.55
2561.23
2531.87
2508.13
2487.48
2469.69
2454.64
2442.46
2432.87
2425.44
2420.03
2416.3
2413.98
2412.81
2412.83
2414.14
2418.26
2424.47
2436.45
2450.28
2471.49
2492.05
2526.13
2557.27
2621.21
3146.75
9725.82
4457.21
3262.46
3478.31
3830.77
3857.02
3717.1
3526.18
3344.72
3200.78
3060.07
2912.83
2777.32
2671.88
2603.67
2561.52
2532.22
2508.44
2487.88
2470.22
2455.3
2443.2
2433.66
2426.25
2420.84
2417.11
2414.8
2413.63
2413.69
2415.02
2419.14
2425.31
2437.06
2450.75
2471.52
2492.36
2525.68
2558.09
2616.48
3136.28
9329.28
4997.15
3042.98
3248.39
3546.4
3589.65
3519.6
3396.61
3272.64
3156.57
3028.53
2887.54
2761.09
2664.66
2601.95
2561.59
2532.57
2508.86
2488.45
2471.01
2456.27
2444.3
2434.82
2427.44
2422.04
2418.33
2416.04
2414.89
2415.02
2416.38
2420.53
2426.64
2438.07
2451.6
2471.82
2492.96
2525.41
2558.47
2611.52
3126.28
9179.23
5384.27
2911.69
3127.62
3334.51
3376.74
3348.57
3279.4
3201.06
3106.36
2989.44
2857.26
2742.56
2656.24
2599.45
2561.24
2532.74
2509.24
2489.08
2471.92
2457.41
2445.61
2436.22
2428.88
2423.51
2419.83
2417.6
2416.51
2416.75
2418.2
2422.4
2428.46
2439.55
2452.87
2472.54
2493.8
2525.51
2558.25
2608.97
3129.13
9055.6
5705.67
2862.72
3067.55
3169.96
3223.52
3216.89
3182.11
3130.85
3052.18
2944.72
2824.58
2722.78
2647.34
2596.35
2560.43
2532.66
2509.54
2489.73
2472.9
2458.66
2447.04
2437.77
2430.5
2425.2
2421.59
2419.46
2418.47
2418.89
2420.46
2424.75
2430.77
2441.48
2454.56
2473.63
2494.85
2525.75
2557.43
2607.65
3126.4
8922.41
5996.27
2832.98
2996.02
3039.97
3118.97
3119.82
3106.51
3068.64
2998.68
2899.11
2792.47
2704
2638.77
2593.12
2559.4
2532.48
2509.82
2490.42
2473.95
2459.99
2448.57
2439.44
2432.27
2427.08
2423.62
2421.66
2420.83
2421.54
2423.32
2427.78
2433.82
2444.23
2457.12
2475.71
2496.92
2527.35
2557.96
2609.08
3129.41
8772.87
6230.88
2806.36
2940.29
2976.16
3049.63
3048.74
3042.32
3008.58
2942.76
2852.72
2760.97
2686.07
2630.29
2589.53
2558.01
2532.1
2510
2491.08
2474.99
2461.32
2450.12
2441.16
2434.12
2429.09
2425.81
2424.05
2423.42
2424.43
2426.4
2430.97
2436.95
2446.93
2459.48
2477.43
2498.38
2528.2
2557.31
2609.84
3124.92
8609.66
6400.75
2789.21
2889.78
2923.2
2995.65
2991.78
2986.2
2952.61
2889.79
2810.71
2733.76
2671.39
2623.67
2587.02
2557.35
2532.29
2510.78
2492.31
2476.59
2463.19
2452.21
2443.43
2436.59
2431.79
2428.77
2427.29
2426.93
2428.38
2430.59
2435.31
2441.24
2450.81
2463.01
2480.36
2501.14
2530.6
2558.91
2612.73
3123.74
8422.61
6544.32
2773.48
2853.46
2888.05
2952.98
2943.74
2933.47
2898.16
2839.86
2772.84
2709.7
2658.28
2617.41
2584.43
2556.51
2532.5
2511.79
2493.92
2478.61
2465.5
2454.77
2446.2
2439.56
2434.98
2432.2
2430.94
2430.78
2432.61
2434.94
2439.62
2445.29
2454.2
2465.77
2482.32
2502.62
2531.44
2558.82
2614.27
3116.5
8228.42
6593.05
2764.6
2826.66
2858.07
2913.01
2898.15
2882.37
2847.09
2795.7
2741.36
2690.84
2648.78
2613.62
2583.83
2557.95
2535.33
2515.47
2498.18
2483.28
2470.47
2459.98
2451.63
2445.18
2440.79
2438.16
2437.06
2437.02
2439.06
2441.35
2445.83
2451.03
2459.09
2469.77
2485.31
2505.02
2533.08
2559.79
2616.19
3109.25
8010.91
6616.85
2758.3
2809.36
2833.5
2875.55
2856.12
2835.66
2802.95
2759.74
2716.91
2676.7
2641.98
2611.32
2584.36
2560.58
2539.27
2520.42
2503.86
2489.47
2477.02
2466.82
2458.71
2452.45
2448.21
2445.66
2444.67
2444.7
2446.82
2448.94
2453.06
2457.63
2464.65
2474.16
2488.42
2507.28
2534.61
2560.4
2617.18
3098.23
7792.32
6534.85
2751.42
2793.2
2808.62
2837.59
2816.12
2793.98
2766.16
2731.59
2699.04
2667.43
2639.17
2613.13
2589.52
2567.64
2547.96
2530.34
2514.72
2501.03
2489.05
2479.14
2471.16
2464.86
2460.48
2457.74
2456.55
2456.28
2458.19
2459.76
2463.15
2466.72
2472.37
2480.34
2493.04
2510.87
2537.41
2562.62
2619.76
3085.97
7533.71
6442.32
2744.55
2779.3
2785.45
2802.27
2782.1
2761.61
2739.92
2713.12
2688.58
2663.66
2640.71
2618.29
2596.93
2576.97
2558.58
2541.91
2527.02
2513.9
2502.35
2492.81
2485.07
2478.92
2474.63
2471.92
2470.76
2470.39
2472.26
2473.37
2476.09
2478.67
2482.95
2489.24
2500.22
2516.89
2542.48
2566.59
2623.44
3070.89
7297.2
6244.78
2740.05
2770.68
2769.23
2774.9
2756.83
2738.94
2722.99
2703.14
2685.71
2666.99
2648.21
2628.81
2610.17
2592.16
2575.33
2559.88
2546.01
2533.71
2522.72
2513.43
2505.65
2499.25
2494.66
2491.64
2490.29
2489.53
2491
2491.45
2493.4
2494.9
2497.77
2502.32
2511.55
2527.13
2552.09
2575.41
2632.66
3054.33
7003.91
6103.63
2742.23
2768.02
2760.19
2756.08
2740.98
2727.9
2718.34
2705.24
2692.41
2676.29
2660.6
2643.58
2626.75
2609.97
2593.89
2578.83
2565.13
2552.97
2542.21
2533.42
2526.27
2520.45
2516.31
2513.58
2512.49
2511.72
2513.21
2513.4
2515.02
2515.9
2517.92
2521.36
2529.66
2545.13
2570.94
2594.05
2651.69
3046.66
6784.09
5898.89
2759.18
2780.38
2768.12
2759.55
2748.1
2738.64
2731.57
2721.63
2711.7
2698.44
2685.01
2669.67
2654.61
2639.16
2624.26
2610.27
2597.65
2586.51
2576.46
2567.79
2560.22
2553.78
2549.12
2545.9
2544.52
2543.32
2544.44
2544.1
2545.07
2545.33
2546.5
2548.85
2556.38
2571.69
2599.37
2624.04
2685.39
3041.91
6535.42
5892.93
2792.78
2802.42
2784.57
2771.43
2761.3
2755.68
2750.85
2743.96
2735.65
2723.39
2711.69
2697.72
2684.49
2670.54
2657.01
2643.76
2630.77
2618.28
2607.06
2599.06
2593.69
2589.05
2584.73
2580.63
2578.28
2575.72
2575.88
2574.42
2574.73
2574.31
2574.95
2576.1
2582.66
2597.11
2626.44
2651.58
2714.66
3047.36
6494.12
5974.66
2859.94
2855.38
2832.69
2816.44
2806.34
2803.16
2799.02
2793.7
2786.28
2775.07
2763.49
2749.12
2735.25
2720.64
2707.53
2696.35
2687.46
2680.2
2672.47
2664.44
2655.84
2646.8
2640.07
2635.21
2634.07
2633.25
2634.69
2634.63
2635.78
2636.01
2637.2
2638.19
2644.8
2659.34
2692.6
2721.96
2784.13
3071.25
6439.28
16782
3830.25
3349.45
3314.26
3332.59
3348.15
3368.68
3379.3
3384.66
3382.22
3374.06
3361.71
3343.99
3324.14
3300.79
3276.34
3250.31
3223.46
3204.99
3186.03
3179.26
3185.09
3182.46
3191.62
3188.69
3193.4
3190.13
3191.41
3185.29
3179.41
3168.87
3156.23
3139.62
3120.92
3109.52
3106.95
3116.61
3130.62
3905.69
16134.5
183906
17232.6
7740.6
7738.64
7900.15
8190.26
8435.93
8689.57
8881.83
9042.38
9175.88
9270.3
9352.27
9408.55
9453.95
9481.52
9497.66
9492.78
9485.58
9453.4
9425.58
9389.7
9342.11
9221.68
9087.81
8930.95
8767.54
8570.92
8370.58
8138.53
7904.61
7624.13
7357.56
7023.02
6756.04
6459.57
6390.5
6292.44
15534.4
166681
183906
17232.6
7740.6
7738.64
7900.15
8190.26
8435.93
8689.57
8881.83
9042.38
9175.88
9270.3
9352.27
9408.55
9453.95
9481.52
9497.66
9492.78
9485.58
9453.4
9425.58
9389.7
9342.11
9221.68
9087.81
8930.95
8767.54
8570.92
8370.58
8138.53
7904.61
7624.13
7357.56
7023.02
6756.04
6459.57
6390.5
6292.44
15534.4
166681
16782
3830.25
3349.45
3314.26
3332.59
3348.15
3368.68
3379.3
3384.66
3382.22
3374.06
3361.71
3343.99
3324.14
3300.79
3276.34
3250.31
3223.46
3204.99
3186.03
3179.26
3185.09
3182.46
3191.62
3188.69
3193.4
3190.13
3191.41
3185.29
3179.41
3168.87
3156.23
3139.62
3120.92
3109.52
3106.95
3116.61
3130.62
3905.69
16134.5
5974.66
2859.94
2855.38
2832.69
2816.44
2806.34
2803.16
2799.02
2793.7
2786.28
2775.07
2763.49
2749.12
2735.25
2720.64
2707.53
2696.35
2687.46
2680.2
2672.47
2664.44
2655.84
2646.8
2640.07
2635.21
2634.07
2633.25
2634.69
2634.63
2635.78
2636.01
2637.2
2638.19
2644.8
2659.34
2692.6
2721.96
2784.13
3071.25
6439.28
5892.93
2792.78
2802.42
2784.57
2771.43
2761.3
2755.68
2750.85
2743.96
2735.65
2723.39
2711.69
2697.72
2684.49
2670.54
2657.01
2643.76
2630.77
2618.28
2607.06
2599.06
2593.69
2589.05
2584.73
2580.63
2578.28
2575.72
2575.88
2574.42
2574.73
2574.31
2574.95
2576.1
2582.66
2597.11
2626.44
2651.58
2714.66
3047.36
6494.12
5898.89
2759.18
2780.38
2768.12
2759.55
2748.1
2738.64
2731.57
2721.63
2711.7
2698.44
2685.01
2669.67
2654.61
2639.16
2624.26
2610.27
2597.65
2586.51
2576.46
2567.79
2560.22
2553.78
2549.12
2545.9
2544.52
2543.32
2544.44
2544.1
2545.07
2545.33
2546.5
2548.85
2556.38
2571.69
2599.37
2624.04
2685.39
3041.91
6535.42
6103.63
2742.23
2768.02
2760.19
2756.08
2740.98
2727.9
2718.34
2705.24
2692.41
2676.29
2660.6
2643.58
2626.75
2609.97
2593.89
2578.83
2565.13
2552.97
2542.21
2533.42
2526.27
2520.45
2516.31
2513.58
2512.49
2511.72
2513.21
2513.4
2515.02
2515.9
2517.92
2521.36
2529.66
2545.13
2570.94
2594.05
2651.69
3046.66
6784.09
6244.78
2740.05
2770.68
2769.23
2774.9
2756.83
2738.94
2722.99
2703.14
2685.71
2666.99
2648.21
2628.81
2610.17
2592.16
2575.33
2559.88
2546.01
2533.71
2522.72
2513.43
2505.65
2499.25
2494.66
2491.64
2490.29
2489.53
2491
2491.45
2493.4
2494.9
2497.77
2502.32
2511.55
2527.13
2552.09
2575.41
2632.66
3054.33
7003.91
6442.32
2744.55
2779.3
2785.45
2802.27
2782.1
2761.61
2739.92
2713.12
2688.58
2663.66
2640.71
2618.29
2596.93
2576.97
2558.58
2541.91
2527.02
2513.9
2502.35
2492.81
2485.07
2478.92
2474.63
2471.92
2470.76
2470.39
2472.26
2473.37
2476.09
2478.67
2482.95
2489.24
2500.22
2516.89
2542.48
2566.59
2623.44
3070.89
7297.2
6534.85
2751.42
2793.2
2808.62
2837.59
2816.12
2793.98
2766.16
2731.59
2699.04
2667.43
2639.17
2613.13
2589.52
2567.64
2547.96
2530.34
2514.72
2501.03
2489.05
2479.14
2471.16
2464.86
2460.48
2457.74
2456.55
2456.28
2458.19
2459.76
2463.15
2466.72
2472.37
2480.34
2493.04
2510.87
2537.41
2562.62
2619.76
3085.97
7533.71
6616.85
2758.3
2809.36
2833.5
2875.55
2856.12
2835.66
2802.95
2759.74
2716.91
2676.7
2641.98
2611.32
2584.36
2560.58
2539.27
2520.42
2503.86
2489.47
2477.02
2466.82
2458.71
2452.45
2448.21
2445.66
2444.67
2444.7
2446.82
2448.94
2453.06
2457.63
2464.65
2474.16
2488.42
2507.28
2534.61
2560.4
2617.18
3098.23
7792.32
6593.05
2764.6
2826.66
2858.07
2913.01
2898.15
2882.37
2847.09
2795.7
2741.36
2690.84
2648.78
2613.62
2583.83
2557.95
2535.33
2515.47
2498.18
2483.28
2470.47
2459.98
2451.63
2445.18
2440.79
2438.16
2437.06
2437.02
2439.06
2441.35
2445.83
2451.03
2459.09
2469.77
2485.31
2505.02
2533.08
2559.79
2616.19
3109.25
8010.91
6544.32
2773.48
2853.46
2888.05
2952.98
2943.74
2933.47
2898.16
2839.86
2772.84
2709.7
2658.28
2617.41
2584.43
2556.51
2532.5
2511.79
2493.92
2478.61
2465.5
2454.77
2446.2
2439.56
2434.98
2432.2
2430.94
2430.78
2432.61
2434.94
2439.62
2445.29
2454.2
2465.77
2482.32
2502.62
2531.44
2558.82
2614.27
3116.5
8228.42
6400.75
2789.21
2889.78
2923.2
2995.65
2991.78
2986.2
2952.61
2889.79
2810.71
2733.76
2671.39
2623.67
2587.02
2557.35
2532.29
2510.78
2492.31
2476.59
2463.19
2452.21
2443.43
2436.59
2431.79
2428.77
2427.29
2426.93
2428.38
2430.59
2435.31
2441.24
2450.81
2463.01
2480.36
2501.14
2530.6
2558.91
2612.73
3123.74
8422.61
6230.88
2806.36
2940.29
2976.16
3049.63
3048.74
3042.32
3008.58
2942.76
2852.72
2760.97
2686.07
2630.29
2589.53
2558.01
2532.1
2510
2491.08
2474.99
2461.32
2450.12
2441.16
2434.12
2429.09
2425.81
2424.05
2423.42
2424.43
2426.4
2430.97
2436.95
2446.93
2459.48
2477.43
2498.38
2528.2
2557.31
2609.84
3124.92
8609.66
5996.27
2832.98
2996.02
3039.97
3118.97
3119.82
3106.51
3068.64
2998.68
2899.11
2792.47
2704
2638.77
2593.12
2559.4
2532.48
2509.82
2490.42
2473.95
2459.99
2448.57
2439.44
2432.27
2427.08
2423.62
2421.66
2420.83
2421.54
2423.32
2427.78
2433.82
2444.23
2457.12
2475.71
2496.92
2527.35
2557.96
2609.08
3129.41
8772.87
5705.67
2862.72
3067.55
3169.96
3223.52
3216.89
3182.11
3130.85
3052.18
2944.72
2824.58
2722.78
2647.34
2596.35
2560.43
2532.66
2509.54
2489.73
2472.9
2458.66
2447.04
2437.77
2430.5
2425.2
2421.59
2419.46
2418.47
2418.89
2420.46
2424.75
2430.77
2441.48
2454.56
2473.63
2494.85
2525.75
2557.43
2607.65
3126.4
8922.41
5384.27
2911.69
3127.62
3334.51
3376.74
3348.57
3279.4
3201.06
3106.36
2989.44
2857.26
2742.56
2656.24
2599.45
2561.24
2532.74
2509.24
2489.08
2471.92
2457.41
2445.61
2436.22
2428.88
2423.51
2419.83
2417.6
2416.51
2416.75
2418.2
2422.4
2428.46
2439.55
2452.87
2472.54
2493.8
2525.51
2558.25
2608.97
3129.13
9055.6
4997.15
3042.98
3248.39
3546.4
3589.65
3519.6
3396.61
3272.64
3156.57
3028.53
2887.54
2761.09
2664.66
2601.95
2561.59
2532.57
2508.86
2488.45
2471.01
2456.27
2444.3
2434.82
2427.44
2422.04
2418.33
2416.04
2414.89
2415.02
2416.38
2420.53
2426.64
2438.07
2451.6
2471.82
2492.96
2525.41
2558.47
2611.52
3126.28
9179.23
4457.21
3262.46
3478.31
3830.77
3857.02
3717.1
3526.18
3344.72
3200.78
3060.07
2912.83
2777.32
2671.88
2603.67
2561.52
2532.22
2508.44
2487.88
2470.22
2455.3
2443.2
2433.66
2426.25
2420.84
2417.11
2414.8
2413.63
2413.69
2415.02
2419.14
2425.31
2437.06
2450.75
2471.52
2492.36
2525.68
2558.09
2616.48
3136.28
9329.28
3840.76
3410.35
3939.72
4230.44
4187.06
3940.17
3648.13
3402.44
3230.63
3080.87
2930.67
2789.61
2677.08
2604.55
2561.23
2531.87
2508.13
2487.48
2469.69
2454.64
2442.46
2432.87
2425.44
2420.03
2416.3
2413.98
2412.81
2412.83
2414.14
2418.26
2424.47
2436.45
2450.28
2471.49
2492.05
2526.13
2557.27
2621.21
3146.75
9725.82
)
;

boundaryField
{
    inlet
    {
        type            calculated;
        value           uniform 14000.1;
    }
    outlet
    {
        type            calculated;
        value           nonuniform List<scalar> 
165
(
2484.34
2702.35
3016.61
3141.12
3184.72
3223.93
3266.58
3297.67
3300.35
3298.6
3289.34
3292.34
3282.73
3280.67
3264.29
3240.16
3197.68
3125.63
3582.69
3971.63
3971.63
3508.05
3115.18
3193.6
3236.1
3266.19
3294.18
3314.53
3336.29
3355.05
3372.41
3389.85
3405.12
3420.85
3435.26
3449.01
3459.24
3466.31
3470.07
3471.01
3472.82
3477.65
3476.29
3480.63
3475.44
3471.41
3463.4
3457.4
3447.39
3438.42
3425.12
3413.25
3393.57
3376.67
3344.58
3304.46
3244.6
3162.79
3553.82
3986.74
3472.18
3502.89
3486.9
3476.47
3469.66
3467.29
3462.26
3457.56
3449.71
3441.89
3429.88
3418.69
3398.76
3380.7
3346.55
3304.94
3246.42
3161.16
3544.8
3986.74
3505.79
3498.28
3492.59
3498.28
3505.79
3986.74
3544.8
3161.16
3246.42
3304.94
3346.55
3380.7
3398.76
3418.69
3429.88
3441.89
3449.71
3457.56
3462.26
3467.29
3469.66
3476.47
3486.9
3502.89
3472.18
3971.63
3508.05
3115.18
3193.6
3236.1
3266.19
3294.18
3314.53
3336.29
3355.05
3372.41
3389.85
3405.12
3420.85
3435.26
3449.01
3459.24
3466.31
3470.07
3471.01
3472.82
3477.65
3476.29
3480.63
3475.44
3471.41
3463.4
3457.4
3447.39
3438.42
3425.12
3413.25
3393.57
3376.67
3344.58
3304.46
3244.6
3162.79
3553.82
3986.74
3971.63
3582.69
3125.63
3197.68
3240.16
3264.29
3280.67
3282.73
3292.34
3289.34
3298.6
3300.35
3297.67
3266.58
3223.93
3184.72
3141.12
3016.61
2702.35
2484.34
)
;
    }
    obstacle
    {
        type            calculated;
        value           nonuniform List<scalar> 
40
(
42721.8
17100.6
14440.7
13953.6
13648.5
13444.3
13287
13165.8
13105.4
13039.9
42721.8
17100.6
14440.7
13953.6
13648.5
13444.3
13287
13165.8
13105.4
13039.9
13144.1
13008.9
12960.1
12709.9
12629.7
13144.1
13008.9
12960.1
12709.9
12629.7
8131.16
7452.76
7302.99
6945.83
6362.71
8131.16
7452.76
7302.99
6945.83
6362.71
)
;
    }
    empty
    {
        type            empty;
    }
}


// ************************************************************************* //
