/*--------------------------------*- C++ -*----------------------------------*\
| =========                 |                                                 |
| \\      /  F ield         | OpenFOAM: The Open Source CFD Toolbox           |
|  \\    /   O peration     | Version:  v1912                                 |
|   \\  /    A nd           | Website:  www.openfoam.com                      |
|    \\/     M anipulation  |                                                 |
\*---------------------------------------------------------------------------*/
FoamFile
{
    version     2.0;
    format      ascii;
    class       volVectorField;
    location    "0.06";
    object      grad(T);
}
// * * * * * * * * * * * * * * * * * * * * * * * * * * * * * * * * * * * * * //

dimensions      [0 -1 0 1 0 0 0];


internalField   nonuniform List<vector> 
1900
(
(0 0 0)
(0 0 0)
(0 0 0)
(0 0 0)
(0 -2.1684e-15 0)
(0 0 0)
(0 -2.1684e-15 0)
(0 0 0)
(0 0 0)
(0 -2.1684e-15 0)
(0 0 0)
(0 0 0)
(0 0 0)
(0 0 0)
(0 0 0)
(2.1684e-15 0 0)
(0 2.1684e-15 0)
(-2.1684e-15 0 0)
(0 0 0)
(0 0 0)
(0 0 0)
(0 0 0)
(0 0 0)
(0 0 0)
(0 0 0)
(2.1684e-15 0 0)
(0 0 0)
(-2.1684e-15 0 0)
(2.1684e-15 0 0)
(-2.1684e-15 0 0)
(0 0 0)
(0 0 0)
(0 2.1684e-15 0)
(0 0 0)
(0 0 0)
(0 0 0)
(0 -2.1684e-15 0)
(0 0 0)
(0 0 0)
(0 0 0)
(0 0 0)
(2.1684e-15 0 0)
(-2.1684e-15 0 0)
(2.1684e-15 0 0)
(-2.1684e-15 2.1684e-15 0)
(0 0 0)
(0 0 0)
(0 0 0)
(0 0 0)
(0 0 0)
(2.9462e-15 0 9.82067e-16)
(1.06994e-14 0 -1.18882e-15)
(1.161e-12 -1.50584e-14 -1.50584e-15)
(1.19406e-11 -7.35122e-13 0)
(-1.64049e-09 -1.36429e-11 -6.45358e-15)
(-2.45517e-16 0 9.82067e-16)
(-2.97205e-16 0 1.18882e-15)
(6.67462e-13 -1.50584e-14 1.50584e-15)
(6.35685e-12 -1.84807e-12 0)
(-8.00211e-10 -5.97086e-11 0)
(2.45517e-16 0 0)
(2.97205e-16 0 0)
(-8.31975e-14 0 0)
(-1.29622e-11 2.05341e-14 0)
(-1.91405e-10 7.09894e-14 0)
(-2.45517e-15 0 9.82067e-16)
(2.37764e-15 0 1.18882e-15)
(6.82897e-13 1.50584e-14 1.50584e-15)
(6.38098e-12 1.85218e-12 0)
(-8.00193e-10 5.97731e-11 0)
(0 0 -2.9462e-15)
(1.3077e-14 0 -1.18882e-15)
(1.16401e-12 1.50584e-14 -1.50584e-15)
(1.19632e-11 7.22801e-13 -4.10683e-15)
(-1.64042e-09 1.36493e-11 6.45358e-15)
(-2.19506e-08 3.85387e-09 2.73788e-15)
(1.43205e-05 4.15976e-08 -2.31667e-15)
(0.00143882 -1.53474e-05 0)
(0.0141317 -0.00233173 1.77194e-15)
(0.000593473 -0.0259742 -7.94523e-16)
(-9.13719e-09 6.70706e-09 -1.36894e-15)
(8.94238e-06 1.00416e-07 1.15834e-15)
(0.000519211 -2.08922e-05 0)
(0.00278873 -0.00326346 -1.1074e-15)
(-0.00121793 -0.0309336 1.98202e-16)
(8.70423e-09 1.09515e-14 0)
(6.99581e-06 -1.39e-14 0)
(0.00015267 -6.82646e-14 0)
(0.000776885 -6.02335e-14 4.42919e-16)
(-0.000172618 -7.60844e-14 -3.96405e-16)
(-9.13723e-09 -6.70685e-09 -1.36894e-15)
(8.94238e-06 -1.00416e-07 1.15834e-15)
(0.000519211 2.08922e-05 0)
(0.00278873 0.00326346 -1.1074e-15)
(-0.00121793 0.0309336 1.98202e-16)
(-2.19506e-08 -3.85368e-09 1.36894e-15)
(1.43205e-05 -4.15975e-08 -1.25278e-24)
(0.00143882 1.53474e-05 0)
(0.0141317 0.00233173 -7.02241e-20)
(0.000593473 0.0259742 7.94523e-16)
(-0.021233 0.0459135 0)
(-0.00233304 0.0647031 0)
(0.0104709 0.00526496 0)
(0.000981597 4.14137e-05 0)
(8.44645e-06 1.81892e-08 0)
(3.85904e-09 4.77049e-13 0)
(1.19262e-13 3.94255e-15 0)
(0 -3.94255e-15 0)
(0 0 0)
(0 -3.94255e-15 0)
(0 0 0)
(0 3.94255e-15 0)
(0 -3.94255e-15 0)
(0 0 0)
(1.97128e-15 -3.94255e-15 0)
(-1.97128e-15 0 0)
(0 0 0)
(1.97128e-15 0 0)
(9.85638e-16 -1.18277e-14 0)
(-2.95692e-15 7.88511e-15 0)
(0 -3.94255e-15 0)
(0 3.94255e-15 0)
(1.97128e-15 0 0)
(9.85638e-16 -1.18277e-14 0)
(-2.95692e-15 7.88511e-15 0)
(0 -3.94255e-15 0)
(0 0 0)
(0 0 0)
(0 -3.94255e-15 0)
(0 -3.94255e-15 0)
(0 -3.94255e-15 0)
(0 0 0)
(0 0 0)
(-2.6218e-13 0 0)
(-1.06315e-08 -4.33681e-14 0)
(-2.41332e-05 -3.94255e-14 0)
(-0.00301097 2.75979e-14 0)
(-0.0363362 1.18277e-14 0)
(-0.0317689 3.15404e-14 0)
(0.0015805 2.36553e-14 0)
(-0.00416486 -0.00443758 0)
(-0.000790411 0.0348441 0)
(0.00197332 0.00325941 0)
(0.000237024 2.71384e-05 0)
(2.2865e-06 1.13466e-08 0)
(1.03994e-09 2.44438e-13 0)
(2.95692e-14 0 0)
(-1.97128e-15 0 0)
(0 0 0)
(0 3.94255e-15 0)
(1.97128e-15 0 0)
(0 0 0)
(-1.97128e-15 0 0)
(0 0 0)
(0 3.94255e-15 0)
(0 0 0)
(0 0 0)
(0 0 0)
(1.97128e-15 -3.94255e-15 0)
(0 -7.88511e-15 0)
(0 0 0)
(0 0 0)
(-1.97128e-15 0 0)
(1.97128e-15 -3.94255e-15 0)
(0 -7.88511e-15 0)
(-1.97128e-15 3.94255e-15 0)
(0 0 0)
(0 0 0)
(0 0 0)
(0 0 0)
(0 0 0)
(0 0 0)
(0 0 0)
(-2.74993e-13 0 0)
(-1.06315e-08 -7.88511e-15 0)
(-2.41332e-05 0 0)
(-0.00301097 2.75979e-14 0)
(-0.0363362 1.57702e-14 0)
(-0.0317689 1.97128e-14 0)
(0.0015805 0 0)
(-0.000970901 1.97128e-14 0)
(-9.39163e-05 3.94255e-14 0)
(0.000342359 3.5483e-14 0)
(3.34101e-05 3.5483e-14 0)
(5.51657e-07 1.97128e-14 0)
(5.58216e-10 -1.10391e-13 0)
(4.82963e-14 -3.94255e-15 0)
(0 0 0)
(0 0 0)
(1.97128e-15 0 0)
(-1.97128e-15 0 0)
(0 -3.94255e-15 0)
(0 0 0)
(0 0 0)
(1.97128e-15 0 0)
(-1.97128e-15 0 0)
(0 0 0)
(0 0 0)
(0 0 0)
(0 -3.94255e-15 0)
(0 0 0)
(0 -3.94255e-15 0)
(0 -3.94255e-15 0)
(0 0 0)
(1.97128e-15 -3.94255e-15 0)
(0 0 0)
(-1.97128e-15 0 0)
(0 -3.94255e-15 0)
(0 0 0)
(0 0 0)
(0 0 0)
(0 0 0)
(0 -3.94255e-15 0)
(-2.64151e-13 0 0)
(-1.06315e-08 5.51957e-14 0)
(-2.41332e-05 0 0)
(-0.00301097 -1.57702e-14 0)
(-0.0363362 5.12532e-14 0)
(-0.0317689 -3.94255e-15 0)
(0.0015805 -4.73106e-14 0)
(-0.00416486 0.00443758 0)
(-0.000790411 -0.0348441 0)
(0.00197332 -0.00325941 0)
(0.000237024 -2.71384e-05 0)
(2.2865e-06 -1.13466e-08 0)
(1.03993e-09 -2.52323e-13 0)
(6.30809e-14 0 0)
(-1.97128e-15 3.94255e-15 0)
(0 0 0)
(0 -3.94255e-15 0)
(0 0 0)
(0 0 0)
(0 0 0)
(0 0 0)
(0 -3.94255e-15 0)
(0 0 0)
(0 0 0)
(0 0 0)
(0 0 0)
(0 0 0)
(0 0 0)
(-1.97128e-15 0 0)
(0 -3.94255e-15 0)
(1.97128e-15 0 0)
(0 0 0)
(0 -3.94255e-15 0)
(-1.97128e-15 0 0)
(0 -3.94255e-15 0)
(1.97128e-15 0 0)
(0 0 0)
(0 0 0)
(-1.97128e-15 0 0)
(0 -3.94255e-15 0)
(-2.5528e-13 0 0)
(-1.06315e-08 1.57702e-14 0)
(-2.41332e-05 -1.57702e-14 0)
(-0.00301097 -2.36553e-14 0)
(-0.0363362 5.51957e-14 0)
(-0.0317689 0 0)
(0.0015805 1.97128e-14 0)
(-0.021233 -0.0459135 0)
(-0.00233304 -0.0647031 0)
(0.0104709 -0.00526496 0)
(0.000981597 -4.14137e-05 0)
(8.44645e-06 -1.81892e-08 0)
(3.85904e-09 -3.74543e-13 0)
(1.22219e-13 0 0)
(0 0 0)
(0 0 0)
(0 3.94255e-15 0)
(0 0 0)
(0 0 0)
(0 3.94255e-15 0)
(0 0 0)
(0 0 0)
(0 0 0)
(0 0 0)
(0 0 0)
(0 0 0)
(1.97128e-15 3.94255e-15 0)
(-1.97128e-15 0 0)
(0 0 0)
(0 7.88511e-15 0)
(0 0 0)
(1.97128e-15 3.94255e-15 0)
(-1.97128e-15 0 0)
(0 0 0)
(0 7.88511e-15 0)
(0 0 0)
(0 3.94255e-15 0)
(0 0 0)
(0 0 0)
(0 7.88511e-15 0)
(-2.59223e-13 0 0)
(-1.06315e-08 -3.94255e-15 0)
(-2.41332e-05 3.5483e-14 0)
(-0.00301097 3.94255e-15 0)
(-0.0363362 -7.88511e-15 0)
(-0.0317689 -3.94255e-15 0)
(0.0015805 4.73106e-14 0)
(-0.00355996 -0.0544454 0)
(0.0264909 -0.0392049 0)
(0.0327084 -0.00304675 0)
(0.00267867 -2.33058e-05 0)
(2.11417e-05 -9.9744e-09 0)
(9.18993e-09 -2.01145e-13 0)
(2.26139e-13 0 0)
(0 -1.1902e-15 0)
(0 0 0)
(0 -1.1902e-15 0)
(0 0 0)
(0 0 0)
(0 -1.1902e-15 0)
(0 0 0)
(0 0 0)
(0 1.1902e-15 0)
(0 0 0)
(0 0 0)
(0 0 0)
(0 -1.1902e-15 0)
(0 0 0)
(0 0 0)
(0 0 0)
(0 0 0)
(0 -1.1902e-15 0)
(0 0 0)
(0 1.1902e-15 0)
(0 0 0)
(0 0 0)
(0 -1.1902e-15 0)
(0 0 0)
(0 0 0)
(0 0 0)
(-2.58274e-13 1.1902e-15 0)
(-1.06315e-08 -1.90433e-14 0)
(-2.41332e-05 2.73747e-14 0)
(-0.00301097 0 0)
(-0.0363362 -3.68963e-14 0)
(-0.0317689 5.95102e-15 0)
(0.0015805 1.1902e-15 0)
(-0.00157964 -0.00582195 0)
(0.0317402 -0.00376779 0)
(0.0363033 -0.00034484 0)
(0.00300753 -3.10435e-06 0)
(2.40972e-05 -1.49599e-09 0)
(1.06122e-08 -3.21355e-14 0)
(2.59465e-13 -1.1902e-15 0)
(0 0 0)
(0 0 0)
(0 0 0)
(0 0 0)
(0 0 0)
(0 0 0)
(0 0 0)
(0 0 0)
(0 -1.1902e-15 0)
(0 0 0)
(0 0 0)
(0 0 0)
(0 0 0)
(0 0 0)
(0 0 0)
(0 0 0)
(0 0 0)
(0 1.1902e-15 0)
(1.1902e-15 0 0)
(-1.1902e-15 0 0)
(0 0 0)
(0 0 0)
(0 0 0)
(0 0 0)
(0 0 0)
(0 0 0)
(-2.77318e-13 -1.1902e-15 0)
(-1.06315e-08 -4.76082e-15 0)
(-2.41332e-05 -4.76082e-15 0)
(-0.00301097 -3.57061e-15 0)
(-0.0363362 -3.57061e-15 0)
(-0.0317689 -1.07118e-14 0)
(0.0015805 -9.52164e-15 0)
(-0.00158049 -3.33555e-05 0)
(0.0317689 -3.42535e-05 0)
(0.0363362 -3.57207e-06 0)
(0.00301097 -3.74442e-08 0)
(2.41332e-05 -2.0099e-11 0)
(1.06315e-08 1.1902e-15 0)
(2.58274e-13 0 0)
(0 0 0)
(0 0 0)
(0 0 0)
(0 0 0)
(0 0 0)
(0 0 0)
(0 0 0)
(0 0 0)
(0 0 0)
(0 0 0)
(0 0 0)
(0 0 0)
(0 0 0)
(0 0 0)
(0 0 0)
(0 0 0)
(0 0 0)
(0 -1.1902e-15 0)
(1.1902e-15 1.1902e-15 0)
(0 -1.1902e-15 0)
(0 1.1902e-15 0)
(-1.1902e-15 0 0)
(0 0 0)
(0 0 0)
(1.1902e-15 1.1902e-15 0)
(0 0 0)
(-2.64225e-13 1.1902e-15 0)
(-1.06315e-08 2.38041e-15 0)
(-2.41332e-05 -8.33143e-15 0)
(-0.00301097 1.30923e-14 0)
(-0.0363362 1.66629e-14 0)
(-0.0317689 2.38041e-15 0)
(0.0015805 5.95102e-15 0)
(-0.0015805 -6.55994e-09 0)
(0.0317689 -1.87765e-08 0)
(0.0363362 -2.11298e-09 0)
(0.00301097 -2.43242e-11 0)
(2.41332e-05 -1.90433e-14 0)
(1.06315e-08 2.38041e-15 0)
(2.58274e-13 1.1902e-15 0)
(0 -1.1902e-15 0)
(0 0 0)
(0 0 0)
(0 1.1902e-15 0)
(0 0 0)
(0 0 0)
(0 0 0)
(0 0 0)
(0 0 0)
(0 -1.1902e-15 0)
(0 0 0)
(0 0 0)
(0 -1.1902e-15 0)
(0 0 0)
(0 0 0)
(0 0 0)
(0 0 0)
(0 0 0)
(0 -1.1902e-15 0)
(0 0 0)
(0 -1.1902e-15 0)
(0 0 0)
(0 0 0)
(1.1902e-15 0 0)
(-1.1902e-15 -1.1902e-15 0)
(0 0 0)
(-2.74937e-13 -1.1902e-15 0)
(-1.06315e-08 7.14123e-15 0)
(-2.41332e-05 4.76082e-15 0)
(-0.00301097 2.02335e-14 0)
(-0.0363362 9.52164e-15 0)
(-0.0317689 -7.14123e-15 0)
(0.0015805 4.76082e-15 0)
(-0.0015805 -1.10689e-13 0)
(0.0317689 -4.6299e-13 0)
(0.0363362 -4.87984e-14 0)
(0.00301097 8.33143e-15 0)
(2.41332e-05 -1.07118e-14 0)
(1.06315e-08 -2.02335e-14 0)
(2.54704e-13 0 0)
(1.1902e-15 0 0)
(1.1902e-15 1.1902e-15 0)
(-1.1902e-15 0 0)
(1.1902e-15 -1.1902e-15 0)
(-1.1902e-15 0 0)
(0 0 0)
(0 0 0)
(0 0 0)
(-1.1902e-15 0 0)
(0 0 0)
(1.1902e-15 0 0)
(-1.1902e-15 0 0)
(0 0 0)
(1.1902e-15 0 0)
(0 0 0)
(0 0 0)
(0 0 0)
(0 0 0)
(0 0 0)
(0 0 0)
(0 0 0)
(0 0 0)
(0 0 0)
(0 0 0)
(0 0 0)
(0 0 0)
(-2.57084e-13 0 0)
(-1.06315e-08 1.78531e-14 0)
(-2.41332e-05 1.90433e-14 0)
(-0.00301097 0 0)
(-0.0363362 -3.57061e-15 0)
(-0.0317689 -2.14237e-14 0)
(0.0015805 0 0)
(-0.0015805 -2.38041e-15 0)
(0.0317689 1.1902e-14 0)
(0.0363362 2.26139e-14 0)
(0.00301097 3.57061e-15 0)
(2.41332e-05 -1.1902e-15 0)
(1.06315e-08 -8.33143e-15 0)
(2.77318e-13 0 0)
(0 1.1902e-15 0)
(0 -1.1902e-15 0)
(0 0 0)
(0 -1.1902e-15 0)
(0 1.1902e-15 0)
(0 0 0)
(0 0 0)
(0 0 0)
(0 0 0)
(0 1.1902e-15 0)
(0 0 0)
(0 0 0)
(0 1.1902e-15 0)
(0 0 0)
(0 0 0)
(0 0 0)
(0 0 0)
(0 0 0)
(0 0 0)
(0 0 0)
(0 0 0)
(0 0 0)
(0 0 0)
(0 0 0)
(0 0 0)
(0 0 0)
(-2.57084e-13 1.1902e-15 0)
(-1.06315e-08 -4.76082e-15 0)
(-2.41332e-05 -2.38041e-15 0)
(-0.00301097 -2.38041e-15 0)
(-0.0363362 -3.57061e-15 0)
(-0.0317689 1.66629e-14 0)
(0.0015805 1.78531e-14 0)
(-0.0015805 -2.38041e-15 0)
(0.0317689 -2.14237e-14 0)
(0.0363362 -1.54727e-14 0)
(0.00301097 -1.42825e-14 0)
(2.41332e-05 1.90433e-14 0)
(1.06315e-08 1.1902e-15 0)
(2.64225e-13 1.1902e-15 0)
(0 0 0)
(0 1.1902e-15 0)
(-1.1902e-15 0 0)
(1.1902e-15 0 0)
(1.1902e-15 0 0)
(-1.1902e-15 0 0)
(0 0 0)
(0 0 0)
(0 0 0)
(0 0 0)
(0 1.1902e-15 0)
(0 0 0)
(0 0 0)
(0 0 0)
(0 0 0)
(0 0 0)
(0 0 0)
(0 0 0)
(0 0 0)
(-1.1902e-15 0 0)
(1.1902e-15 0 0)
(0 0 0)
(0 0 0)
(0 0 0)
(0 0 0)
(1.1902e-15 0 0)
(-2.63035e-13 -1.1902e-15 0)
(-1.06315e-08 9.52164e-15 0)
(-2.41332e-05 2.38041e-15 0)
(-0.00301097 1.1902e-15 0)
(-0.0363362 -1.1902e-15 0)
(-0.0317689 2.38041e-14 0)
(0.0015805 -4.76082e-15 0)
(-0.0015805 -9.52164e-15 0)
(0.0317689 -1.42825e-14 0)
(0.0363362 -7.14123e-15 0)
(0.00301097 2.38041e-15 0)
(2.41332e-05 2.38041e-15 0)
(1.06315e-08 7.14123e-15 0)
(2.76128e-13 0 0)
(-1.1902e-15 0 0)
(1.1902e-15 -1.1902e-15 0)
(-1.1902e-15 0 0)
(1.1902e-15 1.1902e-15 0)
(0 0 0)
(-1.1902e-15 0 0)
(0 0 0)
(0 0 0)
(0 0 0)
(1.1902e-15 0 0)
(-1.1902e-15 0 0)
(0 0 0)
(0 0 0)
(0 0 0)
(0 0 0)
(0 0 0)
(0 0 0)
(0 0 0)
(0 0 0)
(0 0 0)
(0 0 0)
(0 0 0)
(0 0 0)
(0 0 0)
(0 0 0)
(0 0 0)
(-2.47563e-13 0 0)
(-1.06315e-08 0 0)
(-2.41332e-05 -7.14123e-15 0)
(-0.00301097 -2.38041e-14 0)
(-0.0363362 -3.80866e-14 0)
(-0.0317689 -1.54727e-14 0)
(0.0015805 -1.1902e-14 0)
(-0.0015805 1.90433e-14 0)
(0.0317689 1.78531e-14 0)
(0.0363362 2.26139e-14 0)
(0.00301097 4.76082e-15 0)
(2.41332e-05 -2.14237e-14 0)
(1.06315e-08 1.30923e-14 0)
(2.58274e-13 -1.1902e-15 0)
(0 0 0)
(-1.1902e-15 0 0)
(1.1902e-15 0 0)
(0 0 0)
(0 -1.1902e-15 0)
(0 -1.1902e-15 0)
(0 0 0)
(0 0 0)
(0 -1.1902e-15 0)
(0 -1.1902e-15 0)
(0 -1.1902e-15 0)
(0 0 0)
(0 0 0)
(0 0 0)
(0 0 0)
(0 0 0)
(0 0 0)
(0 0 0)
(0 0 0)
(0 0 0)
(0 1.1902e-15 0)
(0 0 0)
(0 0 0)
(0 0 0)
(0 0 0)
(0 0 0)
(-2.61845e-13 0 0)
(-1.06315e-08 -1.54727e-14 0)
(-2.41332e-05 -2.49943e-14 0)
(-0.00301097 -1.1902e-15 0)
(-0.0363362 5.95102e-15 0)
(-0.0317689 -8.33143e-15 0)
(0.0015805 1.66629e-14 0)
(-0.0015805 1.1902e-15 0)
(0.0317689 3.57061e-15 0)
(0.0363362 3.57061e-15 0)
(0.00301097 2.38041e-15 0)
(2.41332e-05 9.52164e-15 0)
(1.06315e-08 -1.1902e-15 0)
(2.61845e-13 0 0)
(0 0 0)
(0 0 0)
(0 0 0)
(0 0 0)
(-1.1902e-15 0 0)
(0 0 0)
(1.1902e-15 0 0)
(-1.1902e-15 0 0)
(-1.1902e-15 0 0)
(1.1902e-15 0 0)
(1.1902e-15 0 0)
(0 0 0)
(0 0 0)
(0 0 0)
(0 0 0)
(0 0 0)
(0 0 0)
(0 0 0)
(0 0 0)
(1.1902e-15 0 0)
(0 -1.1902e-15 0)
(-1.1902e-15 0 0)
(0 0 0)
(1.1902e-15 0 0)
(-1.1902e-15 0 0)
(1.1902e-15 0 0)
(-2.63035e-13 0 0)
(-1.06315e-08 3.57061e-15 0)
(-2.41332e-05 1.90433e-14 0)
(-0.00301097 8.33143e-15 0)
(-0.0363362 0 0)
(-0.0317689 2.38041e-14 0)
(0.0015805 -3.57061e-15 0)
(-0.0015805 -2.38041e-15 0)
(0.0317689 5.95102e-15 0)
(0.0363362 -5.95102e-15 0)
(0.00301097 8.33143e-15 0)
(2.41332e-05 2.38041e-14 0)
(1.06315e-08 -1.42825e-14 0)
(2.59465e-13 0 0)
(0 0 0)
(0 0 0)
(0 0 0)
(0 0 0)
(0 0 0)
(0 1.1902e-15 0)
(0 0 0)
(0 0 0)
(0 1.1902e-15 0)
(0 1.1902e-15 0)
(0 0 0)
(0 0 0)
(0 0 0)
(0 0 0)
(0 0 0)
(0 0 0)
(0 0 0)
(0 0 0)
(0 0 0)
(0 0 0)
(0 0 0)
(0 0 0)
(0 0 0)
(0 0 0)
(0 0 0)
(0 0 0)
(-2.59465e-13 0 0)
(-1.06315e-08 -1.42825e-14 0)
(-2.41332e-05 1.42825e-14 0)
(-0.00301097 1.78531e-14 0)
(-0.0363362 0 0)
(-0.0317689 7.14123e-15 0)
(0.0015805 -1.07118e-14 0)
(-0.0015805 2.02335e-14 0)
(0.0317689 -2.14237e-14 0)
(0.0363362 -8.33143e-15 0)
(0.00301097 -7.14123e-15 0)
(2.41332e-05 5.95102e-15 0)
(1.06315e-08 9.52164e-15 0)
(2.74937e-13 0 0)
(0 0 0)
(0 0 0)
(0 0 0)
(0 0 0)
(0 0 0)
(0 0 0)
(0 0 0)
(0 0 0)
(0 0 0)
(0 0 0)
(0 0 0)
(0 0 0)
(0 0 0)
(0 0 0)
(0 0 0)
(-1.1902e-15 -1.1902e-15 0)
(1.1902e-15 0 0)
(0 0 0)
(0 0 0)
(0 0 0)
(0 0 0)
(0 0 0)
(0 0 0)
(0 0 0)
(0 0 0)
(0 0 0)
(-2.77318e-13 0 0)
(-1.06315e-08 -1.90433e-14 0)
(-2.41332e-05 -1.1902e-14 0)
(-0.00301097 1.1902e-14 0)
(-0.0363362 1.42825e-14 0)
(-0.0317689 -8.33143e-15 0)
(0.0015805 2.38041e-15 0)
(-0.0015805 0 0)
(0.0317689 -1.78531e-14 0)
(0.0363362 1.42825e-14 0)
(0.00301097 -2.38041e-15 0)
(2.41332e-05 0 0)
(1.06315e-08 1.66629e-14 0)
(2.49943e-13 0 0)
(0 0 0)
(0 0 0)
(1.1902e-15 0 0)
(-1.1902e-15 0 0)
(0 0 0)
(0 0 0)
(0 0 0)
(0 0 0)
(0 0 0)
(0 0 0)
(0 0 0)
(0 0 0)
(0 0 0)
(0 0 0)
(0 0 0)
(0 1.1902e-15 0)
(0 0 0)
(0 0 0)
(0 0 0)
(0 0 0)
(0 0 0)
(0 0 0)
(0 0 0)
(0 0 0)
(0 0 0)
(0 0 0)
(-2.77318e-13 0 0)
(-1.06315e-08 1.90433e-14 0)
(-2.41332e-05 8.33143e-15 0)
(-0.00301097 -2.38041e-14 0)
(-0.0363362 -1.42825e-14 0)
(-0.0317689 -1.1902e-15 0)
(0.0015805 -2.38041e-15 0)
(-0.0015805 -3.77295e-13 0)
(0.0317689 -3.35638e-13 0)
(0.0363362 -3.74915e-13 0)
(0.00301097 -4.11811e-13 0)
(2.41332e-05 -3.98719e-13 0)
(1.06315e-08 -3.98719e-13 0)
(2.59465e-13 -3.91577e-13 0)
(0 -3.83246e-13 0)
(0 -3.70154e-13 0)
(0 -3.72534e-13 0)
(0 -3.88007e-13 0)
(0 -3.71344e-13 0)
(0 -3.83246e-13 0)
(0 -3.73724e-13 0)
(0 -3.86817e-13 0)
(0 -3.74915e-13 0)
(0 -3.79675e-13 0)
(0 -3.73724e-13 0)
(0 -3.90387e-13 0)
(0 -3.90387e-13 0)
(0 -3.90387e-13 0)
(0 -3.83246e-13 0)
(0 -3.80866e-13 0)
(0 -3.86817e-13 0)
(0 -3.90387e-13 0)
(0 -3.90387e-13 0)
(0 -3.83246e-13 0)
(0 -3.78485e-13 0)
(0 -3.83246e-13 0)
(0 -3.85626e-13 0)
(0 -3.83246e-13 0)
(0 -3.83246e-13 0)
(0 -3.80866e-13 0)
(-2.59465e-13 -3.83246e-13 0)
(-1.06315e-08 -3.68963e-13 0)
(-2.41332e-05 -3.79675e-13 0)
(-0.00301097 -4.13001e-13 0)
(-0.0363362 -3.89197e-13 0)
(-0.0317689 -3.79675e-13 0)
(0.0015805 -3.71344e-13 0)
(-0.0015805 -1.47193e-08 0)
(0.0317689 -1.47429e-08 0)
(0.0363362 -1.5013e-08 0)
(0.00301097 -1.50376e-08 0)
(2.41332e-05 -1.50379e-08 0)
(1.06315e-08 -1.50379e-08 0)
(2.65416e-13 -1.50379e-08 0)
(2.02335e-14 -1.50379e-08 0)
(1.07118e-14 -1.50379e-08 0)
(-1.66629e-14 -1.50379e-08 0)
(2.38041e-15 -1.50379e-08 0)
(3.57061e-15 -1.50379e-08 0)
(-2.38041e-15 -1.50379e-08 0)
(-3.57061e-15 -1.50379e-08 0)
(-1.1902e-15 -1.50379e-08 0)
(7.14123e-15 -1.50379e-08 0)
(0 -1.50379e-08 0)
(-9.52164e-15 -1.50379e-08 0)
(-1.54727e-14 -1.50379e-08 0)
(0 -1.50379e-08 0)
(7.14123e-15 -1.50379e-08 0)
(9.52164e-15 -1.50379e-08 0)
(-3.57061e-15 -1.50378e-08 0)
(-1.07118e-14 -1.50379e-08 0)
(-2.38041e-15 -1.50379e-08 0)
(7.14123e-15 -1.50378e-08 0)
(1.1902e-14 -1.50379e-08 0)
(1.1902e-15 -1.50379e-08 0)
(-7.14123e-15 -1.50379e-08 0)
(0 -1.50379e-08 0)
(1.1902e-15 -1.50378e-08 0)
(2.38041e-15 -1.50379e-08 0)
(0 -1.50379e-08 0)
(-2.65416e-13 -1.50379e-08 0)
(-1.06315e-08 -1.50379e-08 0)
(-2.41332e-05 -1.50379e-08 0)
(-0.00301097 -1.50376e-08 0)
(-0.0363362 -1.50129e-08 0)
(-0.0317689 -1.47429e-08 0)
(0.0015805 -1.47193e-08 0)
(-0.0015805 -2.973e-05 0)
(0.0317689 -2.9793e-05 0)
(0.0363362 -3.02183e-05 0)
(0.00301097 -3.02583e-05 0)
(2.41332e-05 -3.02587e-05 0)
(1.06315e-08 -3.02587e-05 0)
(2.46372e-13 -3.02587e-05 0)
(-8.33143e-15 -3.02587e-05 0)
(7.14123e-15 -3.02587e-05 0)
(2.38041e-15 -3.02587e-05 0)
(4.76082e-15 -3.02587e-05 0)
(4.76082e-15 -3.02587e-05 0)
(-1.1902e-15 -3.02587e-05 0)
(-3.57061e-15 -3.02587e-05 0)
(-1.1902e-15 -3.02587e-05 0)
(-7.14123e-15 -3.02587e-05 0)
(-9.52164e-15 -3.02587e-05 0)
(1.07118e-14 -3.02587e-05 0)
(4.76082e-15 -3.02587e-05 0)
(-2.38041e-15 -3.02587e-05 0)
(4.76082e-15 -3.02587e-05 0)
(1.30923e-14 -3.02587e-05 0)
(0 -3.02587e-05 0)
(-1.66629e-14 -3.02587e-05 0)
(5.95102e-15 -3.02587e-05 0)
(-2.38041e-15 -3.02587e-05 0)
(-9.52164e-15 -3.02587e-05 0)
(-2.38041e-15 -3.02587e-05 0)
(0 -3.02587e-05 0)
(1.78531e-14 -3.02587e-05 0)
(-2.38041e-15 -3.02587e-05 0)
(-5.95102e-15 -3.02587e-05 0)
(-9.52164e-15 -3.02587e-05 0)
(-2.61845e-13 -3.02587e-05 0)
(-1.06315e-08 -3.02587e-05 0)
(-2.41332e-05 -3.02587e-05 0)
(-0.00301097 -3.02583e-05 0)
(-0.0363362 -3.02183e-05 0)
(-0.0317689 -2.9793e-05 0)
(0.0015805 -2.973e-05 0)
(-0.00158056 -0.00344606 0)
(0.0317684 -0.00343711 0)
(0.0363358 -0.00347494 0)
(0.00301093 -0.00347859 0)
(2.41328e-05 -0.00347862 0)
(1.06313e-08 -0.00347862 0)
(2.48753e-13 -0.00347862 0)
(-1.1902e-15 -0.00347862 0)
(1.54727e-14 -0.00347862 0)
(3.57061e-15 -0.00347862 0)
(8.33143e-15 -0.00347862 0)
(-1.07118e-14 -0.00347862 0)
(-1.1902e-14 -0.00347862 0)
(2.02335e-14 -0.00347862 0)
(-9.52164e-15 -0.00347862 0)
(-2.85649e-14 -0.00347862 0)
(7.14123e-15 -0.00347862 0)
(4.76082e-15 -0.00347862 0)
(-9.52164e-15 -0.00347862 0)
(1.54727e-14 -0.00347862 0)
(-3.57061e-15 -0.00347862 0)
(2.38041e-15 -0.00347862 0)
(2.73747e-14 -0.00347862 0)
(1.66629e-14 -0.00347862 0)
(1.07118e-14 -0.00347862 0)
(-1.90433e-14 -0.00347862 0)
(-2.73747e-14 -0.00347862 0)
(3.57061e-15 -0.00347862 0)
(1.54727e-14 -0.00347862 0)
(-1.30923e-14 -0.00347862 0)
(-3.33257e-14 -0.00347862 0)
(1.07118e-14 -0.00347862 0)
(1.42825e-14 -0.00347862 0)
(-2.71367e-13 -0.00347862 0)
(-1.06313e-08 -0.00347862 0)
(-2.41328e-05 -0.00347862 0)
(-0.00301093 -0.00347859 0)
(-0.0363358 -0.00347494 0)
(-0.0317684 -0.00343711 0)
(0.00158056 -0.00344606 0)
(-0.00157187 -0.039747 0)
(0.0317411 -0.0397176 0)
(0.0362963 -0.0402819 0)
(0.00300742 -0.0403213 0)
(2.40972e-05 -0.0403217 0)
(1.06119e-08 -0.0403217 0)
(2.40421e-13 -0.0403217 0)
(4.76082e-15 -0.0403217 0)
(9.52164e-15 -0.0403217 0)
(1.78531e-14 -0.0403217 0)
(2.38041e-15 -0.0403217 0)
(-5.95102e-15 -0.0403217 0)
(4.76082e-15 -0.0403217 0)
(5.95102e-15 -0.0403217 0)
(-2.85649e-14 -0.0403217 0)
(-2.38041e-14 -0.0403217 0)
(2.38041e-15 -0.0403217 0)
(0 -0.0403217 0)
(1.78531e-14 -0.0403217 0)
(0 -0.0403217 0)
(5.95102e-15 -0.0403217 0)
(2.02335e-14 -0.0403217 0)
(-1.07118e-14 -0.0403217 0)
(1.42825e-14 -0.0403217 0)
(-1.1902e-14 -0.0403217 0)
(-3.09453e-14 -0.0403217 0)
(1.78531e-14 -0.0403217 0)
(2.38041e-15 -0.0403217 0)
(-1.42825e-14 -0.0403217 0)
(-2.38041e-15 -0.0403217 0)
(-5.95102e-15 -0.0403217 0)
(2.85649e-14 -0.0403217 0)
(2.38041e-15 -0.0403217 0)
(-2.74937e-13 -0.0403217 0)
(-1.06119e-08 -0.0403217 0)
(-2.40972e-05 -0.0403217 0)
(-0.00300742 -0.0403213 0)
(-0.0362963 -0.0402819 0)
(-0.0317411 -0.0397176 0)
(0.00157187 -0.039747 0)
(-0.00155226 -0.034613 0)
(0.031253 -0.0345091 0)
(0.0357541 -0.0350115 0)
(0.00297254 -0.0350386 0)
(2.37363e-05 -0.035039 0)
(1.04089e-08 -0.035039 0)
(2.43992e-13 -0.035039 0)
(-1.1902e-14 -0.035039 0)
(-1.07118e-14 -0.035039 0)
(9.52164e-15 -0.035039 0)
(-2.38041e-15 -0.035039 0)
(4.76082e-15 -0.035039 0)
(5.95102e-15 -0.035039 0)
(-8.33143e-15 -0.035039 0)
(1.1902e-15 -0.035039 0)
(-8.33143e-15 -0.035039 0)
(2.38041e-15 -0.035039 0)
(9.52164e-15 -0.035039 0)
(4.76082e-15 -0.035039 0)
(-1.42825e-14 -0.035039 0)
(2.38041e-15 -0.035039 0)
(1.07118e-14 -0.035039 0)
(-2.38041e-15 -0.035039 0)
(0 -0.035039 0)
(-5.95102e-15 -0.035039 0)
(2.38041e-15 -0.035039 0)
(0 -0.035039 0)
(-4.76082e-15 -0.035039 0)
(-2.38041e-15 -0.035039 0)
(-3.57061e-15 -0.035039 0)
(8.33143e-15 -0.035039 0)
(5.95102e-15 -0.035039 0)
(-8.33143e-15 -0.035039 0)
(-2.58274e-13 -0.035039 0)
(-1.04089e-08 -0.035039 0)
(-2.37363e-05 -0.035039 0)
(-0.00297254 -0.0350386 0)
(-0.0357541 -0.0350115 0)
(-0.031253 -0.0345091 0)
(0.00155226 -0.034613 0)
(-0.00147169 0.00171764 0)
(0.0313571 0.00180125 0)
(0.035786 0.0018257 0)
(0.00298084 0.00183437 0)
(2.36817e-05 0.00183431 0)
(1.03908e-08 0.00183431 0)
(2.46372e-13 0.00183431 0)
(-3.57061e-15 0.00183431 0)
(0 0.00183431 0)
(1.1902e-15 0.00183431 0)
(4.76082e-15 0.00183431 0)
(-5.95102e-15 0.00183431 0)
(1.07118e-14 0.00183431 0)
(3.57061e-15 0.00183431 0)
(-4.76082e-15 0.00183431 0)
(-3.57061e-15 0.00183431 0)
(1.1902e-15 0.00183431 0)
(-3.57061e-15 0.00183431 0)
(-1.07118e-14 0.00183431 0)
(-7.14123e-15 0.00183431 0)
(3.57061e-15 0.00183431 0)
(1.30923e-14 0.00183431 0)
(0 0.00183431 0)
(-4.76082e-15 0.00183431 0)
(5.95102e-15 0.00183431 0)
(-3.57061e-15 0.00183431 0)
(5.95102e-15 0.00183431 0)
(4.76082e-15 0.00183431 0)
(-1.07118e-14 0.00183431 0)
(-7.14123e-15 0.00183431 0)
(0 0.00183431 0)
(9.52164e-15 0.00183431 0)
(3.57061e-15 0.00183431 0)
(-2.65416e-13 0.00183431 0)
(-1.03908e-08 0.00183431 0)
(-2.36817e-05 0.00183431 0)
(-0.00298084 0.00183437 0)
(-0.035786 0.0018257 0)
(-0.0313571 0.00180125 0)
(0.00147169 0.00171764 0)
(-0.00147169 -0.00171764 0)
(0.0313571 -0.00180125 0)
(0.035786 -0.0018257 0)
(0.00298084 -0.00183437 0)
(2.36817e-05 -0.00183431 0)
(1.03908e-08 -0.00183431 0)
(2.51133e-13 -0.00183431 0)
(-2.38041e-15 -0.00183431 0)
(-5.95102e-15 -0.00183431 0)
(5.95102e-15 -0.00183431 0)
(2.38041e-15 -0.00183431 0)
(-7.14123e-15 -0.00183431 0)
(-1.1902e-15 -0.00183431 0)
(2.38041e-15 -0.00183431 0)
(-1.1902e-15 -0.00183431 0)
(-9.52164e-15 -0.00183431 0)
(-1.1902e-15 -0.00183431 0)
(1.30923e-14 -0.00183431 0)
(7.14123e-15 -0.00183431 0)
(0 -0.00183431 0)
(0 -0.00183431 0)
(-7.14123e-15 -0.00183431 0)
(-4.76082e-15 -0.00183431 0)
(4.76082e-15 -0.00183431 0)
(7.14123e-15 -0.00183431 0)
(-8.33143e-15 -0.00183431 0)
(-1.1902e-15 -0.00183431 0)
(-2.38041e-15 -0.00183431 0)
(-3.57061e-15 -0.00183431 0)
(1.1902e-15 -0.00183431 0)
(5.95102e-15 -0.00183431 0)
(-1.42825e-14 -0.00183431 0)
(2.38041e-15 -0.00183431 0)
(-2.49943e-13 -0.00183431 0)
(-1.03908e-08 -0.00183431 0)
(-2.36817e-05 -0.00183431 0)
(-0.00298084 -0.00183437 0)
(-0.035786 -0.0018257 0)
(-0.0313571 -0.00180125 0)
(0.00147169 -0.00171764 0)
(-0.00155226 0.034613 0)
(0.031253 0.0345091 0)
(0.0357541 0.0350115 0)
(0.00297254 0.0350386 0)
(2.37363e-05 0.035039 0)
(1.04089e-08 0.035039 0)
(2.36851e-13 0.035039 0)
(4.76082e-15 0.035039 0)
(4.76082e-15 0.035039 0)
(-1.66629e-14 0.035039 0)
(-7.14123e-15 0.035039 0)
(1.42825e-14 0.035039 0)
(9.52164e-15 0.035039 0)
(-4.76082e-15 0.035039 0)
(-9.52164e-15 0.035039 0)
(-3.57061e-15 0.035039 0)
(-1.1902e-15 0.035039 0)
(-4.76082e-15 0.035039 0)
(5.95102e-15 0.035039 0)
(5.95102e-15 0.035039 0)
(7.14123e-15 0.035039 0)
(-9.52164e-15 0.035039 0)
(1.1902e-15 0.035039 0)
(1.66629e-14 0.035039 0)
(7.14123e-15 0.035039 0)
(-9.52164e-15 0.035039 0)
(-1.07118e-14 0.035039 0)
(-4.76082e-15 0.035039 0)
(-4.76082e-15 0.035039 0)
(7.14123e-15 0.035039 0)
(1.42825e-14 0.035039 0)
(-3.57061e-15 0.035039 0)
(-2.14237e-14 0.035039 0)
(-2.42802e-13 0.035039 0)
(-1.04089e-08 0.035039 0)
(-2.37363e-05 0.035039 0)
(-0.00297254 0.0350386 0)
(-0.0357541 0.0350115 0)
(-0.031253 0.0345091 0)
(0.00155226 0.034613 0)
(-0.00157187 0.039747 0)
(0.0317411 0.0397176 0)
(0.0362963 0.0402819 0)
(0.00300742 0.0403213 0)
(2.40972e-05 0.0403217 0)
(1.06119e-08 0.0403217 0)
(2.55894e-13 0.0403217 0)
(-1.1902e-14 0.0403217 0)
(-1.90433e-14 0.0403217 0)
(1.07118e-14 0.0403217 0)
(1.1902e-14 0.0403217 0)
(3.57061e-15 0.0403217 0)
(-8.33143e-15 0.0403217 0)
(1.54727e-14 0.0403217 0)
(-1.07118e-14 0.0403217 0)
(-1.66629e-14 0.0403217 0)
(1.30923e-14 0.0403217 0)
(-1.78531e-14 0.0403217 0)
(1.78531e-14 0.0403217 0)
(0 0.0403217 0)
(-2.38041e-15 0.0403217 0)
(2.85649e-14 0.0403217 0)
(-1.66629e-14 0.0403217 0)
(2.38041e-15 0.0403217 0)
(2.02335e-14 0.0403217 0)
(-2.97551e-14 0.0403217 0)
(-1.1902e-14 0.0403217 0)
(3.57061e-15 0.0403217 0)
(-3.57061e-15 0.0403217 0)
(-2.38041e-15 0.0403217 0)
(-1.66629e-14 0.0403217 0)
(2.02335e-14 0.0403217 0)
(1.54727e-14 0.0403217 0)
(-2.61845e-13 0.0403217 0)
(-1.06119e-08 0.0403217 0)
(-2.40972e-05 0.0403217 0)
(-0.00300742 0.0403213 0)
(-0.0362963 0.0402819 0)
(-0.0317411 0.0397176 0)
(0.00157187 0.039747 0)
(-0.00158056 0.00344606 0)
(0.0317684 0.00343711 0)
(0.0363358 0.00347494 0)
(0.00301093 0.00347859 0)
(2.41328e-05 0.00347862 0)
(1.06313e-08 0.00347862 0)
(2.52323e-13 0.00347862 0)
(-1.66629e-14 0.00347862 0)
(4.76082e-15 0.00347862 0)
(2.85649e-14 0.00347862 0)
(7.14123e-15 0.00347862 0)
(-1.30923e-14 0.00347862 0)
(-5.95102e-15 0.00347862 0)
(1.66629e-14 0.00347862 0)
(5.95102e-15 0.00347862 0)
(-2.14237e-14 0.00347862 0)
(-2.38041e-15 0.00347862 0)
(1.90433e-14 0.00347862 0)
(1.42825e-14 0.00347862 0)
(-1.90433e-14 0.00347862 0)
(5.95102e-15 0.00347862 0)
(1.66629e-14 0.00347862 0)
(-1.66629e-14 0.00347862 0)
(1.1902e-15 0.00347862 0)
(3.57061e-15 0.00347862 0)
(-2.38041e-14 0.00347862 0)
(-1.1902e-15 0.00347862 0)
(1.54727e-14 0.00347862 0)
(2.38041e-15 0.00347862 0)
(-1.78531e-14 0.00347862 0)
(-1.1902e-14 0.00347862 0)
(1.1902e-14 0.00347862 0)
(-1.78531e-14 0.00347862 0)
(-2.67796e-13 0.00347862 0)
(-1.06313e-08 0.00347862 0)
(-2.41328e-05 0.00347862 0)
(-0.00301093 0.00347859 0)
(-0.0363358 0.00347494 0)
(-0.0317684 0.00343711 0)
(0.00158056 0.00344606 0)
(-0.0015805 2.973e-05 0)
(0.0317689 2.9793e-05 0)
(0.0363362 3.02183e-05 0)
(0.00301097 3.02583e-05 0)
(2.41332e-05 3.02587e-05 0)
(1.06315e-08 3.02587e-05 0)
(2.46372e-13 3.02587e-05 0)
(-1.42825e-14 3.02587e-05 0)
(1.1902e-14 3.02587e-05 0)
(7.14123e-15 3.02587e-05 0)
(0 3.02587e-05 0)
(-1.1902e-15 3.02587e-05 0)
(-4.76082e-15 3.02587e-05 0)
(-2.38041e-15 3.02587e-05 0)
(1.1902e-15 3.02587e-05 0)
(-9.52164e-15 3.02587e-05 0)
(1.07118e-14 3.02587e-05 0)
(1.1902e-14 3.02587e-05 0)
(-1.30923e-14 3.02587e-05 0)
(7.14123e-15 3.02587e-05 0)
(0 3.02587e-05 0)
(1.1902e-15 3.02587e-05 0)
(9.52164e-15 3.02587e-05 0)
(-1.54727e-14 3.02587e-05 0)
(-1.78531e-14 3.02587e-05 0)
(8.33143e-15 3.02587e-05 0)
(8.33143e-15 3.02587e-05 0)
(-8.33143e-15 3.02587e-05 0)
(-3.57061e-15 3.02587e-05 0)
(1.07118e-14 3.02587e-05 0)
(2.38041e-15 3.02587e-05 0)
(3.57061e-15 3.02587e-05 0)
(9.52164e-15 3.02587e-05 0)
(-2.57084e-13 3.02587e-05 0)
(-1.06315e-08 3.02587e-05 0)
(-2.41332e-05 3.02587e-05 0)
(-0.00301097 3.02583e-05 0)
(-0.0363362 3.02183e-05 0)
(-0.0317689 2.9793e-05 0)
(0.0015805 2.973e-05 0)
(-0.0015805 1.47193e-08 0)
(0.0317689 1.47429e-08 0)
(0.0363362 1.50129e-08 0)
(0.00301097 1.50376e-08 0)
(2.41332e-05 1.50378e-08 0)
(1.06315e-08 1.50379e-08 0)
(2.73747e-13 1.50378e-08 0)
(-1.1902e-15 1.50379e-08 0)
(1.1902e-14 1.50379e-08 0)
(0 1.50379e-08 0)
(-2.85649e-14 1.50379e-08 0)
(1.07118e-14 1.50379e-08 0)
(2.73747e-14 1.50379e-08 0)
(-4.76082e-15 1.50379e-08 0)
(-1.54727e-14 1.50379e-08 0)
(0 1.50379e-08 0)
(1.30923e-14 1.50379e-08 0)
(0 1.50378e-08 0)
(-1.30923e-14 1.50379e-08 0)
(0 1.50379e-08 0)
(1.78531e-14 1.50378e-08 0)
(-1.07118e-14 1.50379e-08 0)
(-1.1902e-15 1.50378e-08 0)
(4.76082e-15 1.50378e-08 0)
(-3.09453e-14 1.50379e-08 0)
(0 1.50379e-08 0)
(1.90433e-14 1.50379e-08 0)
(1.1902e-15 1.50379e-08 0)
(-2.02335e-14 1.50379e-08 0)
(0 1.50379e-08 0)
(3.33257e-14 1.50379e-08 0)
(0 1.50379e-08 0)
(-2.38041e-15 1.50379e-08 0)
(-2.61845e-13 1.50378e-08 0)
(-1.06315e-08 1.50379e-08 0)
(-2.41332e-05 1.50379e-08 0)
(-0.00301097 1.50376e-08 0)
(-0.0363362 1.5013e-08 0)
(-0.0317689 1.47429e-08 0)
(0.0015805 1.47193e-08 0)
(-0.0015805 4.02289e-13 0)
(0.0317689 3.63012e-13 0)
(0.0363362 3.84436e-13 0)
(0.00301097 4.10621e-13 0)
(2.41332e-05 3.76105e-13 0)
(1.06315e-08 4.0943e-13 0)
(2.59465e-13 3.77295e-13 0)
(0 3.83246e-13 0)
(0 3.78485e-13 0)
(0 3.70154e-13 0)
(0 3.78485e-13 0)
(0 3.99909e-13 0)
(0 3.66583e-13 0)
(0 3.71344e-13 0)
(0 3.72534e-13 0)
(0 3.86817e-13 0)
(0 3.72534e-13 0)
(0 3.74915e-13 0)
(0 3.72534e-13 0)
(0 3.88007e-13 0)
(0 3.72534e-13 0)
(0 3.68963e-13 0)
(0 3.83246e-13 0)
(0 3.70154e-13 0)
(0 3.78485e-13 0)
(0 4.02289e-13 0)
(1.1902e-15 3.78485e-13 0)
(0 3.83246e-13 0)
(-1.1902e-15 3.78485e-13 0)
(0 4.02289e-13 0)
(0 3.78485e-13 0)
(0 3.68963e-13 0)
(0 3.78485e-13 0)
(-2.58274e-13 3.70154e-13 0)
(-1.06315e-08 3.89197e-13 0)
(-2.41332e-05 3.86817e-13 0)
(-0.00301097 3.77295e-13 0)
(-0.0363362 3.5111e-13 0)
(-0.0317689 3.74915e-13 0)
(0.0015805 3.77295e-13 0)
(-0.0015805 4.76082e-15 0)
(0.0317689 0 0)
(0.0363362 1.1902e-15 0)
(0.00301097 3.09453e-14 0)
(2.41332e-05 4.0467e-14 0)
(1.06315e-08 9.52164e-15 0)
(2.47563e-13 0 0)
(0 0 0)
(0 0 0)
(1.1902e-15 0 0)
(-1.1902e-15 0 0)