/*--------------------------------*- C++ -*----------------------------------*\
| =========                 |                                                 |
| \\      /  F ield         | OpenFOAM: The Open Source CFD Toolbox           |
|  \\    /   O peration     | Version:  v1912                                 |
|   \\  /    A nd           | Website:  www.openfoam.com                      |
|    \\/     M anipulation  |                                                 |
\*---------------------------------------------------------------------------*/
FoamFile
{
    version     2.0;
    format      ascii;
    class       volVectorField;
    location    "0.74";
    object      U;
}
// * * * * * * * * * * * * * * * * * * * * * * * * * * * * * * * * * * * * * //

dimensions      [0 1 -1 0 0 0 0];


internalField   nonuniform List<vector> 
4800
(
(-6.36237 -0.000216656 0)
(-1.58097 0.000417652 0)
(0.544636 0.00212431 0)
(0.185189 -0.000611382 0)
(-0.235806 -0.00138285 0)
(-0.658069 0.00123102 0)
(-0.735622 0.00325344 0)
(-0.64104 0.00488964 0)
(-0.512212 0.00208091 0)
(-0.374846 -0.00585645 0)
(-0.245977 -0.0150441 0)
(-0.107384 -0.0193583 0)
(0.0548222 -0.0172975 0)
(0.228649 -0.0158909 0)
(0.390093 7.93695e-05 0)
(0.49536 0.0170263 0)
(0.604665 0.0184463 0)
(0.701587 0.0169324 0)
(0.650139 0.0137799 0)
(0.225528 0.00875775 0)
(-0.414762 -0.000250916 0)
(-0.552462 -0.00903443 0)
(-0.53514 -0.0159702 0)
(-0.466241 -0.0205408 0)
(-0.370497 -0.019528 0)
(-0.263664 -0.0115652 0)
(-0.154727 -0.00149095 0)
(-0.0290095 0.00496658 0)
(0.0890608 0.00788745 0)
(0.176243 0.00373287 0)
(0.233731 -0.0049297 0)
(0.255934 -0.0171288 0)
(0.279463 -0.0226381 0)
(0.337728 -0.0154775 0)
(0.419852 0.00194407 0)
(0.522146 0.0134222 0)
(0.614574 0.0149723 0)
(0.572133 0.0130405 0)
(0.260481 0.00628868 0)
(-0.219649 -0.0143571 0)
(-6.36225 0.000550897 0)
(-1.5809 0.00224586 0)
(0.54316 0.0175632 0)
(0.181728 0.0137512 0)
(-0.240874 0.00492835 0)
(-0.661262 0.00450496 0)
(-0.740176 0.000338089 0)
(-0.652663 -0.00612284 0)
(-0.529409 -0.0253734 0)
(-0.387483 -0.0497171 0)
(-0.241851 -0.0653781 0)
(-0.0854267 -0.0562215 0)
(0.0842651 -0.0285669 0)
(0.25328 -0.000320249 0)
(0.401958 0.0331475 0)
(0.499537 0.0654129 0)
(0.605308 0.0681437 0)
(0.692159 0.0592394 0)
(0.630323 0.0455124 0)
(0.192243 0.018257 0)
(-0.439019 -0.0229432 0)
(-0.56706 -0.051608 0)
(-0.537555 -0.0626378 0)
(-0.455732 -0.0583361 0)
(-0.353059 -0.038751 0)
(-0.247955 -0.00861429 0)
(-0.144651 0.0118017 0)
(-0.0360291 0.0115993 0)
(0.0673618 -0.00721813 0)
(0.153034 -0.0378424 0)
(0.215795 -0.0654385 0)
(0.260866 -0.081452 0)
(0.30637 -0.0655393 0)
(0.367322 -0.0282108 0)
(0.440448 0.0194209 0)
(0.531345 0.0440069 0)
(0.611622 0.037756 0)
(0.561038 0.0326649 0)
(0.236412 0.0145804 0)
(-0.263609 -0.018877 0)
(-6.36167 0.000403379 0)
(-1.58068 0.00351697 0)
(0.539999 0.0288069 0)
(0.17715 0.0261067 0)
(-0.247048 0.0128748 0)
(-0.667035 0.0108919 0)
(-0.749249 -0.00227737 0)
(-0.677945 -0.0151145 0)
(-0.562744 -0.0455011 0)
(-0.413331 -0.0773386 0)
(-0.240764 -0.0934778 0)
(-0.0575379 -0.0793793 0)
(0.122176 -0.0465046 0)
(0.289863 -0.00442507 0)
(0.43146 0.0427939 0)
(0.521379 0.0869691 0)
(0.614303 0.0943043 0)
(0.684501 0.0836336 0)
(0.60371 0.0648043 0)
(0.139924 0.0258079 0)
(-0.481324 -0.0328478 0)
(-0.599661 -0.0705983 0)
(-0.548155 -0.0798642 0)
(-0.445853 -0.0714401 0)
(-0.328022 -0.0433131 0)
(-0.224848 -0.00265135 0)
(-0.134141 0.0171048 0)
(-0.0508157 0.00637903 0)
(0.0283556 -0.0274105 0)
(0.105104 -0.0699399 0)
(0.182701 -0.099643 0)
(0.263022 -0.108378 0)
(0.338097 -0.0847484 0)
(0.405535 -0.0306646 0)
(0.476551 0.022781 0)
(0.544784 0.0542786 0)
(0.603131 0.0441931 0)
(0.537342 0.0410239 0)
(0.193034 0.0203407 0)
(-0.308413 -0.0116163 0)
(-6.36081 -3.98416e-05 0)
(-1.58025 0.00488246 0)
(0.538064 0.0410383 0)
(0.171949 0.0388166 0)
(-0.257895 0.0211098 0)
(-0.680092 0.015036 0)
(-0.766231 -0.0102686 0)
(-0.713672 -0.0330447 0)
(-0.599727 -0.069964 0)
(-0.431803 -0.0998348 0)
(-0.231237 -0.109386 0)
(-0.0247225 -0.0945256 0)
(0.166907 -0.0634945 0)
(0.332945 -0.0147967 0)
(0.46731 0.0395235 0)
(0.551882 0.0893477 0)
(0.629316 0.107271 0)
(0.679008 0.0989622 0)
(0.571209 0.0775936 0)
(0.0738493 0.029264 0)
(-0.528272 -0.0391427 0)
(-0.626837 -0.0791922 0)
(-0.555737 -0.081083 0)
(-0.43043 -0.0690355 0)
(-0.300728 -0.0401006 0)
(-0.199538 -0.00601344 0)
(-0.129984 0.00798612 0)
(-0.0764735 -0.0115196 0)
(-0.0207769 -0.0581396 0)
(0.061818 -0.0993881 0)
(0.165883 -0.118509 0)
(0.278891 -0.116238 0)
(0.372628 -0.0905317 0)
(0.44745 -0.0417635 0)
(0.514055 0.0102953 0)
(0.562132 0.0468547 0)
(0.596486 0.0452903 0)
(0.515772 0.049973 0)
(0.146156 0.0352381 0)
(-0.349064 -0.000960592 0)
(-6.36022 -0.000692835 0)
(-1.57992 0.00597648 0)
(0.538326 0.0512518 0)
(0.168693 0.0492922 0)
(-0.271849 0.0294846 0)
(-0.702596 0.0173556 0)
(-0.792326 -0.0204746 0)
(-0.756316 -0.0548486 0)
(-0.632323 -0.0891304 0)
(-0.440663 -0.110253 0)
(-0.216945 -0.113048 0)
(0.0073557 -0.0983687 0)
(0.209865 -0.0695026 0)
(0.377614 -0.0271239 0)
(0.506775 0.0232783 0)
(0.587372 0.072171 0)
(0.65005 0.0985568 0)
(0.675681 0.0993007 0)
(0.530474 0.0755808 0)
(0.00214862 0.0261756 0)
(-0.571797 -0.0336857 0)
(-0.647122 -0.0644046 0)
(-0.559559 -0.0633077 0)
(-0.414897 -0.0516656 0)
(-0.281345 -0.0317346 0)
(-0.187527 -0.0136044 0)
(-0.14038 -0.0121969 0)
(-0.116019 -0.0425984 0)
(-0.0623112 -0.0841652 0)
(0.0314931 -0.106821 0)
(0.163414 -0.110264 0)
(0.298388 -0.103275 0)
(0.403118 -0.0796279 0)
(0.483895 -0.0417044 0)
(0.549021 -0.00543018 0)
(0.584146 0.0265454 0)
(0.600526 0.0405142 0)
(0.503693 0.0501779 0)
(0.104171 0.0409416 0)
(-0.382676 0.00953178 0)
(-6.36018 -0.00159634 0)
(-1.58002 0.00643418 0)
(0.539249 0.0589933 0)
(0.165093 0.0570059 0)
(-0.291028 0.0362179 0)
(-0.735631 0.0171542 0)
(-0.827533 -0.0324165 0)
(-0.797654 -0.0744712 0)
(-0.653659 -0.0981348 0)
(-0.440255 -0.11227 0)
(-0.201958 -0.109695 0)
(0.0340296 -0.0976001 0)
(0.245484 -0.0723758 0)
(0.416399 -0.0379332 0)
(0.544029 0.00496509 0)
(0.622827 0.0455229 0)
(0.67474 0.0726534 0)
(0.675944 0.079895 0)
(0.491539 0.0598073 0)
(-0.0589938 0.0211571 0)
(-0.60193 -0.0109841 0)
(-0.659395 -0.0325487 0)
(-0.561819 -0.0306671 0)
(-0.40917 -0.0227691 0)
(-0.279123 -0.0157246 0)
(-0.197128 -0.0217636 0)
(-0.164694 -0.046469 0)
(-0.149746 -0.0778543 0)
(-0.0793814 -0.0934377 0)
(0.0228482 -0.096083 0)
(0.169072 -0.0881531 0)
(0.312894 -0.0786973 0)
(0.424323 -0.0668431 0)
(0.511744 -0.0475178 0)
(0.57917 -0.0224517 0)
(0.612999 0.00724708 0)
(0.618149 0.0320857 0)
(0.504485 0.0503566 0)
(0.0719514 0.0470957 0)
(-0.411222 0.0244967 0)
(-6.36076 -0.00355974 0)
(-1.5807 0.00527862 0)
(0.540886 0.0636615 0)
(0.161232 0.0612558 0)
(-0.317227 0.0394442 0)
(-0.777569 0.00814411 0)
(-0.867367 -0.0434005 0)
(-0.829757 -0.0823046 0)
(-0.664504 -0.0973971 0)
(-0.435173 -0.107542 0)
(-0.187534 -0.102623 0)
(0.0549234 -0.0953306 0)
(0.273285 -0.0727152 0)
(0.446418 -0.0416401 0)
(0.573161 -0.00801845 0)
(0.648633 0.0209062 0)
(0.692461 0.0343189 0)
(0.676169 0.0375298 0)
(0.465559 0.0315962 0)
(-0.0949245 0.0107828 0)
(-0.618848 -0.00227224 0)
(-0.667787 0.0037571 0)
(-0.568874 0.0104761 0)
(-0.419416 0.00698852 0)
(-0.299445 -0.0104778 0)
(-0.226909 -0.043453 0)
(-0.198882 -0.0798641 0)
(-0.162039 -0.0944401 0)
(-0.0812857 -0.0877203 0)
(0.0299187 -0.0802884 0)
(0.179222 -0.0632391 0)
(0.318342 -0.0500949 0)
(0.43261 -0.0482032 0)
(0.526115 -0.0437286 0)
(0.600658 -0.0301554 0)
(0.642743 -0.00735008 0)
(0.645969 0.0256922 0)
(0.514853 0.048223 0)
(0.0485778 0.0503092 0)
(-0.43735 0.0370088 0)
(-6.36225 -0.00604167 0)
(-1.58176 0.00254347 0)
(0.542365 0.064915 0)
(0.153987 0.0614067 0)
(-0.353596 0.0353445 0)
(-0.817687 -0.0103728 0)
(-0.907857 -0.0497863 0)
(-0.851411 -0.0779142 0)
(-0.668887 -0.0898817 0)
(-0.430691 -0.0973085 0)
(-0.176378 -0.0926713 0)
(0.072198 -0.0896756 0)
(0.295722 -0.06906 0)
(0.469397 -0.0395664 0)
(0.593694 -0.0136576 0)
(0.660472 0.0103057 0)
(0.691803 0.00264587 0)
(0.669652 -0.0069139 0)
(0.457537 0.000276317 0)
(-0.104845 0.00149139 0)
(-0.610175 0.0106024 0)
(-0.663986 0.0348353 0)
(-0.576023 0.04198 0)
(-0.452708 0.0271397 0)
(-0.345049 -0.0140444 0)
(-0.275262 -0.0661925 0)
(-0.225039 -0.0954808 0)
(-0.156546 -0.0870889 0)
(-0.0653595 -0.0687525 0)
(0.0512119 -0.0490165 0)
(0.188088 -0.0303401 0)
(0.31704 -0.0217299 0)
(0.430164 -0.0228644 0)
(0.527912 -0.0291899 0)
(0.61367 -0.0320796 0)
(0.671368 -0.0109739 0)
(0.677171 0.0230666 0)
(0.528893 0.0434531 0)
(0.0330195 0.0504536 0)
(-0.463892 0.0430924 0)
(-6.36434 -0.00782283 0)
(-1.58301 -0.000651429 0)
(0.541723 0.0619168 0)
(0.140114 0.0556504 0)
(-0.396091 0.0234485 0)
(-0.853381 -0.023297 0)
(-0.940263 -0.0548893 0)
(-0.861296 -0.0697698 0)
(-0.670583 -0.0790269 0)
(-0.429302 -0.0831101 0)
(-0.169408 -0.0793272 0)
(0.0877728 -0.079095 0)
(0.316785 -0.0610071 0)
(0.488439 -0.0318022 0)
(0.607645 -0.0119268 0)
(0.661142 0.00664055 0)
(0.673936 -0.0128143 0)
(0.653975 -0.0347115 0)
(0.466926 -0.0256771 0)
(-0.0886054 -0.011778 0)
(-0.587908 0.0268859 0)
(-0.654477 0.055398 0)
(-0.591099 0.0537224 0)
(-0.501791 0.0263509 0)
(-0.404348 -0.027084 0)
(-0.317626 -0.0765233 0)
(-0.230319 -0.0843823 0)
(-0.136869 -0.0648341 0)
(-0.0380931 -0.0346998 0)
(0.0716724 -0.0123433 0)
(0.187187 0.00112537 0)
(0.304974 0.0038806 0)
(0.417318 -0.00541347 0)
(0.52206 -0.0208821 0)
(0.622995 -0.0221479 0)
(0.694629 -0.0052303 0)
(0.704759 0.0214944 0)
(0.542102 0.0364203 0)
(0.024854 0.0469326 0)
(-0.487389 0.0457484 0)
(-6.36615 -0.00820562 0)
(-1.58431 -0.0031376 0)
(0.535322 0.0541491 0)
(0.117101 0.0438971 0)
(-0.437754 0.0016078 0)
(-0.883536 -0.0321448 0)
(-0.959862 -0.055657 0)
(-0.862508 -0.0612128 0)
(-0.669956 -0.0665893 0)
(-0.429348 -0.0673124 0)
(-0.165874 -0.0639051 0)
(0.100783 -0.0617047 0)
(0.336467 -0.0451201 0)
(0.50606 -0.019176 0)
(0.616641 -0.0040605 0)
(0.653822 0.00838823 0)
(0.645925 -0.015025 0)
(0.632327 -0.0444004 0)
(0.480677 -0.0384343 0)
(-0.0613093 -0.0285986 0)
(-0.561537 0.0195249 0)
(-0.633603 0.0462454 0)
(-0.622093 0.0432253 0)
(-0.554862 0.00769818 0)
(-0.454095 -0.0332957 0)
(-0.336842 -0.0564107 0)
(-0.221874 -0.0575517 0)
(-0.110394 -0.0309366 0)
(-0.0098211 -0.00183502 0)
(0.0840874 0.015697 0)
(0.181176 0.0255745 0)
(0.289369 0.025435 0)
(0.402629 0.0133155 0)
(0.515933 0.00123952 0)
(0.627634 -0.00341403 0)
(0.708593 0.00650508 0)
(0.722809 0.0203594 0)
(0.551419 0.0276601 0)
(0.0241092 0.0380076 0)
(-0.507309 0.0436229 0)
(-6.36686 -0.00776191 0)
(-1.58513 -0.00538111 0)
(0.520263 0.0428375 0)
(0.0836361 0.0282016 0)
(-0.477694 -0.0229252 0)
(-0.904715 -0.0469857 0)
(-0.966553 -0.0599742 0)
(-0.859974 -0.0570503 0)
(-0.669196 -0.0525211 0)
(-0.428914 -0.0501412 0)
(-0.162117 -0.0478607 0)
(0.112045 -0.0401852 0)
(0.353478 -0.0242709 0)
(0.522567 -0.00433711 0)
(0.621868 0.00825956 0)
(0.637378 0.0088075 0)
(0.618053 -0.0109995 0)
(0.610197 -0.0355307 0)
(0.484688 -0.0335025 0)
(-0.0421628 -0.0327444 0)
(-0.542555 0.000486094 0)
(-0.623752 0.0163142 0)
(-0.657716 0.0125901 0)
(-0.596833 -0.00706773 0)
(-0.475377 -0.0251408 0)
(-0.342493 -0.0388719 0)
(-0.203543 -0.025592 0)
(-0.0858766 -0.00284868 0)
(0.00818696 0.0185196 0)
(0.0894474 0.0334886 0)
(0.17213 0.0432493 0)
(0.273863 0.0431041 0)
(0.3902 0.0345366 0)
(0.508549 0.0251665 0)
(0.627209 0.0198913 0)
(0.712976 0.0205158 0)
(0.727392 0.0168474 0)
(0.554316 0.0151185 0)
(0.0272111 0.0240923 0)
(-0.521652 0.0319045 0)
(-6.36653 -0.00598571 0)
(-1.5855 -0.00662771 0)
(0.493053 0.032571 0)
(0.037943 0.0148535 0)
(-0.518976 -0.047145 0)
(-0.914818 -0.0681239 0)
(-0.959299 -0.0668438 0)
(-0.847979 -0.0551002 0)
(-0.660651 -0.0434842 0)
(-0.422669 -0.0347663 0)
(-0.155886 -0.0299345 0)
(0.122286 -0.0158759 0)
(0.364709 -0.000137326 0)
(0.533608 0.00977136 0)
(0.621693 0.0210717 0)
(0.623143 0.014771 0)
(0.598361 0.00410847 0)
(0.593344 -0.00689938 0)
(0.474656 -0.0138247 0)
(-0.045006 -0.0259279 0)
(-0.5447 -0.0282809 0)
(-0.632128 -0.0321357 0)
(-0.678022 -0.0360543 0)
(-0.607663 -0.0398418 0)
(-0.474238 -0.0290333 0)
(-0.334282 -0.0142798 0)
(-0.19055 0.00136781 0)
(-0.0764091 0.0144793 0)
(0.0145488 0.0261463 0)
(0.0894007 0.0382835 0)
(0.165401 0.0481716 0)
(0.264685 0.0525228 0)
(0.385196 0.0528688 0)
(0.504867 0.0499298 0)
(0.622113 0.0435874 0)
(0.705236 0.0329846 0)
(0.717792 0.012897 0)
(0.548994 -0.00028826 0)
(0.0322049 0.00525413 0)
(-0.531157 0.0154305 0)
(-6.36561 -0.00376239 0)
(-1.58533 -0.00644898 0)
(0.455312 0.0235327 0)
(-0.0169373 0.00608096 0)
(-0.565428 -0.0664394 0)
(-0.914463 -0.0914697 0)
(-0.934239 -0.064532 0)
(-0.829838 -0.0540732 0)
(-0.64778 -0.0348398 0)
(-0.415257 -0.0166168 0)
(-0.14623 -0.0109341 0)
(0.134424 0.00762078 0)
(0.373443 0.0229698 0)
(0.537883 0.0262304 0)
(0.61844 0.0302705 0)
(0.616291 0.0263678 0)
(0.590304 0.0269033 0)
(0.586186 0.0294902 0)
(0.454316 0.0154744 0)
(-0.0779307 -0.0114585 0)
(-0.570121 -0.0429582 0)
(-0.654176 -0.0726289 0)
(-0.681472 -0.0761604 0)
(-0.594411 -0.0555864 0)
(-0.457984 -0.0251814 0)
(-0.320827 0.00225458 0)
(-0.183612 0.012862 0)
(-0.0760269 0.014249 0)
(0.0109682 0.0190459 0)
(0.0871716 0.0297994 0)
(0.165723 0.0426733 0)
(0.269874 0.0553461 0)
(0.390509 0.0660348 0)
(0.503351 0.0695689 0)
(0.613049 0.0617949 0)
(0.687618 0.0422921 0)
(0.694048 0.00824868 0)
(0.53158 -0.0141679 0)
(0.0372094 -0.0194242 0)
(-0.533836 -0.000853858 0)
(-6.36361 -0.000744263 0)
(-1.58495 -0.00394565 0)
(0.409803 0.0174038 0)
(-0.0750201 0.000144297 0)
(-0.609833 -0.078803 0)
(-0.907353 -0.111083 0)
(-0.903523 -0.0782509 0)
(-0.805412 -0.0569319 0)
(-0.627109 -0.0331915 0)
(-0.397876 -0.00439183 0)
(-0.129023 0.00418443 0)
(0.149341 0.0273198 0)
(0.382026 0.0412643 0)
(0.540067 0.0399479 0)
(0.613743 0.0407146 0)
(0.618109 0.0418643 0)
(0.599554 0.0550595 0)
(0.581163 0.0624831 0)
(0.415481 0.0402774 0)
(-0.143752 0.00114186 0)
(-0.616805 -0.0625341 0)
(-0.6878 -0.0944859 0)
(-0.668347 -0.0964074 0)
(-0.565141 -0.0707329 0)
(-0.430275 -0.0318354 0)
(-0.306401 0.000460158 0)
(-0.18397 0.00693874 0)
(-0.0823733 0.000585238 0)
(0.00514294 0.00225877 0)
(0.0857326 0.0160539 0)
(0.175786 0.0346646 0)
(0.284791 0.0546943 0)
(0.401047 0.0705972 0)
(0.50093 0.0788944 0)
(0.600508 0.0698051 0)
(0.663718 0.0450495 0)
(0.659129 0.00206438 0)
(0.507424 -0.0327534 0)
(0.0458397 -0.0357516 0)
(-0.528832 -0.00986804 0)
(-6.36127 0.00298145 0)
(-1.58463 0.00078615 0)
(0.359561 0.0137975 0)
(-0.134865 -0.00414311 0)
(-0.653698 -0.0829471 0)
(-0.896861 -0.120154 0)
(-0.873792 -0.0920407 0)
(-0.776429 -0.0643349 0)
(-0.599578 -0.0333166 0)
(-0.373978 0.00345334 0)
(-0.109487 0.0191214 0)
(0.164105 0.042762 0)
(0.389574 0.0544315 0)
(0.542401 0.0524909 0)
(0.614057 0.0531893 0)
(0.627887 0.05993 0)
(0.616061 0.0847768 0)
(0.577158 0.0897327 0)
(0.360047 0.057661 0)
(-0.23226 0.00517724 0)
(-0.66838 -0.06974 0)
(-0.720037 -0.0957883 0)
(-0.650003 -0.0936466 0)
(-0.529391 -0.073619 0)
(-0.404549 -0.039914 0)
(-0.293188 -0.0125196 0)
(-0.188578 -0.0117411 0)
(-0.0914174 -0.0211061 0)
(-0.000241747 -0.0166866 0)
(0.0909519 0.00269353 0)
(0.191634 0.0244242 0)
(0.302975 0.045228 0)
(0.41053 0.0631742 0)
(0.497155 0.0716912 0)
(0.58557 0.0613325 0)
(0.634614 0.0341106 0)
(0.619708 -0.00534055 0)
(0.479809 -0.0360965 0)
(0.0554365 -0.0351985 0)
(-0.516504 -0.00966621 0)
(-6.35896 0.00587247 0)
(-1.58479 0.00568254 0)
(0.30775 0.0121654 0)
(-0.194394 -0.00544878 0)
(-0.696114 -0.0788873 0)
(-0.888156 -0.117871 0)
(-0.848262 -0.09901 0)
(-0.745168 -0.0731181 0)
(-0.566754 -0.0378348 0)
(-0.343527 0.00205146 0)
(-0.0870808 0.0287519 0)
(0.178194 0.0505417 0)
(0.396549 0.063129 0)
(0.546132 0.0632555 0)
(0.626276 0.0642548 0)
(0.649013 0.0793294 0)
(0.635049 0.109808 0)
(0.568395 0.107097 0)
(0.290916 0.0685011 0)
(-0.329481 0.00150601 0)
(-0.712504 -0.0675323 0)
(-0.734862 -0.0790235 0)
(-0.633272 -0.0795496 0)
(-0.502214 -0.0638573 0)
(-0.387087 -0.0415438 0)
(-0.286986 -0.0279711 0)
(-0.191187 -0.0325018 0)
(-0.098615 -0.0424677 0)
(-0.000311454 -0.0325695 0)
(0.100656 -0.00762282 0)
(0.20948 0.0152875 0)
(0.318821 0.0325689 0)
(0.414559 0.0443097 0)
(0.495016 0.0476719 0)
(0.569114 0.0355447 0)
(0.60527 0.0111511 0)
(0.590193 -0.01297 0)
(0.461297 -0.0304722 0)
(0.0644551 -0.0256228 0)
(-0.491293 -0.00421222 0)
(-6.35744 0.00829578 0)
(-1.5858 0.0103444 0)
(0.257097 0.011521 0)
(-0.25182 -0.00483126 0)
(-0.730164 -0.0706514 0)
(-0.887558 -0.100735 0)
(-0.830002 -0.0978354 0)
(-0.71468 -0.0803269 0)
(-0.530982 -0.0436645 0)
(-0.308619 -0.00177448 0)
(-0.0628332 0.0318147 0)
(0.190767 0.0509915 0)
(0.405119 0.066363 0)
(0.551885 0.0707512 0)
(0.648154 0.0730299 0)
(0.679001 0.0941039 0)
(0.654133 0.122341 0)
(0.551517 0.113968 0)
(0.21831 0.0723253 0)
(-0.419098 0.00127727 0)
(-0.749258 -0.0593419 0)
(-0.739402 -0.0572498 0)
(-0.618593 -0.0613419 0)
(-0.484674 -0.0517286 0)
(-0.376133 -0.0424769 0)
(-0.28388 -0.0367005 0)
(-0.194352 -0.043878 0)
(-0.10314 -0.0512301 0)
(0.00397102 -0.0357933 0)
(0.115941 -0.00950065 0)
(0.226154 0.0104863 0)
(0.326496 0.0191246 0)
(0.410416 0.0195318 0)
(0.487873 0.0115888 0)
(0.554554 -0.00418717 0)
(0.590309 -0.0225292 0)
(0.578554 -0.0188608 0)
(0.458249 -0.0190523 0)
(0.0739501 -0.00895887 0)
(-0.464559 0.011404 0)
(-6.35685 0.0102341 0)
(-1.58757 0.013752 0)
(0.208627 0.012693 0)
(-0.3067 0.000745092 0)
(-0.755476 -0.0576928 0)
(-0.894582 -0.0777754 0)
(-0.82082 -0.0885248 0)
(-0.687647 -0.0802555 0)
(-0.495117 -0.0478771 0)
(-0.272303 -0.0120252 0)
(-0.038268 0.0270117 0)
(0.201053 0.0483507 0)
(0.414604 0.0645939 0)
(0.562469 0.0736505 0)
(0.674702 0.0799822 0)
(0.709944 0.107747 0)
(0.670716 0.128735 0)
(0.528773 0.115883 0)
(0.153244 0.0737151 0)
(-0.499628 0.00964705 0)
(-0.775631 -0.0479496 0)
(-0.739782 -0.0409083 0)
(-0.608232 -0.0457136 0)
(-0.474738 -0.0421963 0)
(-0.369876 -0.0399549 0)
(-0.28123 -0.0377921 0)
(-0.194372 -0.0436941 0)
(-0.100543 -0.04541 0)
(0.0125165 -0.0283773 0)
(0.129387 -0.00642209 0)
(0.236065 0.00342057 0)
(0.326479 0.00161422 0)
(0.400574 -0.00568358 0)
(0.470492 -0.0198457 0)
(0.534881 -0.0369189 0)
(0.584658 -0.0484368 0)
(0.582881 -0.0238253 0)
(0.468829 -0.00884496 0)
(0.0805718 0.0100151 0)
(-0.450353 0.0249969 0)
(-6.35725 0.0114461 0)
(-1.5895 0.0155676 0)
(0.168394 0.0132168 0)
(-0.354348 0.00784697 0)
(-0.776672 -0.0420361 0)
(-0.906515 -0.0571364 0)
(-0.821002 -0.0745918 0)
(-0.667755 -0.0724462 0)
(-0.462 -0.0491518 0)
(-0.236026 -0.0202797 0)
(-0.0125917 0.0209833 0)
(0.208947 0.0426935 0)
(0.423017 0.0584391 0)
(0.574431 0.0719468 0)
(0.700546 0.0796764 0)
(0.738119 0.102051 0)
(0.684681 0.114784 0)
(0.505339 0.107179 0)
(0.100052 0.0720202 0)
(-0.56938 0.0209955 0)
(-0.79568 -0.0279255 0)
(-0.740413 -0.0298004 0)
(-0.601557 -0.0352466 0)
(-0.469964 -0.0350675 0)
(-0.36578 -0.0361999 0)
(-0.2767 -0.0329782 0)
(-0.189588 -0.0336492 0)
(-0.093309 -0.0292261 0)
(0.0223637 -0.0151286 0)
(0.138887 -0.00513328 0)
(0.237659 -0.00446083 0)
(0.317438 -0.00805626 0)
(0.383814 -0.0272478 0)
(0.444944 -0.0568273 0)
(0.523488 -0.0703959 0)
(0.588382 -0.0652153 0)
(0.60466 -0.0292957 0)
(0.490902 -0.00380605 0)
(0.0859287 0.017809 0)
(-0.45239 0.0290556 0)
(-6.35778 0.0115271 0)
(-1.59093 0.015269 0)
(0.140155 0.0145721 0)
(-0.391935 0.0144561 0)
(-0.796919 -0.0273377 0)
(-0.922239 -0.0394192 0)
(-0.827879 -0.0574629 0)
(-0.655934 -0.0592095 0)
(-0.435882 -0.0469302 0)
(-0.20424 -0.02794 0)
(0.0136885 0.0104555 0)
(0.219816 0.0369388 0)
(0.434387 0.0551777 0)
(0.584967 0.0715358 0)
(0.718136 0.0766356 0)
(0.756359 0.0892084 0)
(0.694483 0.0889862 0)
(0.491379 0.0953662 0)
(0.0595255 0.0692861 0)
(-0.624282 0.0238285 0)
(-0.812271 -0.00213968 0)
(-0.745811 -0.0195068 0)
(-0.598926 -0.0261037 0)
(-0.467151 -0.0298184 0)
(-0.359774 -0.0329329 0)
(-0.266554 -0.0264263 0)
(-0.17713 -0.016497 0)
(-0.0820257 -0.00533286 0)
(0.0296888 0.00345776 0)
(0.139105 0.00482836 0)
(0.229054 -0.00250057 0)
(0.300611 -0.0243853 0)
(0.358254 -0.058831 0)
(0.426294 -0.0878177 0)
(0.518589 -0.0909671 0)
(0.600094 -0.0736837 0)
(0.636168 -0.036024 0)
(0.515099 -0.0108086 0)
(0.0898454 0.0124977 0)
(-0.468038 0.0214749 0)
(-6.35888 0.0104937 0)
(-1.59173 0.0131154 0)
(0.12344 0.0126175 0)
(-0.418845 0.0160821 0)
(-0.813785 -0.014494 0)
(-0.936916 -0.0203307 0)
(-0.837464 -0.0357532 0)
(-0.652239 -0.0407524 0)
(-0.419875 -0.0366494 0)
(-0.180957 -0.028237 0)
(0.0372186 -0.000163125 0)
(0.233242 0.0318399 0)
(0.443532 0.0430402 0)
(0.593505 0.0708237 0)
(0.725482 0.0704519 0)
(0.762887 0.0715617 0)
(0.701584 0.0609805 0)
(0.495887 0.0789694 0)
(0.0347478 0.0668963 0)
(-0.66323 0.0221591 0)
(-0.827783 0.0186907 0)
(-0.755292 -0.00626215 0)
(-0.603059 -0.0135864 0)
(-0.467745 -0.0220233 0)
(-0.352809 -0.0262774 0)
(-0.251924 -0.0159221 0)
(-0.158259 0.00162065 0)
(-0.0662864 0.0181456 0)
(0.0325224 0.0248895 0)
(0.128133 0.0142953 0)
(0.209516 -0.0080071 0)
(0.271872 -0.0422368 0)
(0.327779 -0.0840562 0)
(0.411156 -0.107123 0)
(0.516639 -0.101537 0)
(0.61409 -0.0798883 0)
(0.662009 -0.0519489 0)
(0.538488 -0.0291201 0)
(0.0951323 -0.00473478 0)
(-0.484969 0.00188782 0)
(-6.35918 0.00958587 0)
(-1.59151 0.0105976 0)
(0.117405 0.0101526 0)
(-0.432946 0.0148523 0)
(-0.825496 -0.00208901 0)
(-0.948605 -0.000511949 0)
(-0.847277 -0.0113402 0)
(-0.654949 -0.0193375 0)
(-0.41475 -0.0209993 0)
(-0.169082 -0.0192376 0)
(0.0535889 -0.0058621 0)
(0.24822 0.0215158 0)
(0.448851 0.035102 0)
(0.602765 0.0630357 0)
(0.724757 0.0588719 0)
(0.760368 0.0488508 0)
(0.708434 0.0354344 0)
(0.523019 0.061995 0)
(0.0327702 0.0656633 0)
(-0.690744 0.0320291 0)
(-0.84365 0.0320932 0)
(-0.765717 0.0122193 0)
(-0.614939 0.00369811 0)
(-0.472692 -0.00920711 0)
(-0.346736 -0.0134765 0)
(-0.234727 -0.000717565 0)
(-0.136021 0.0230827 0)
(-0.0501071 0.0440086 0)
(0.0299081 0.046242 0)
(0.106843 0.026016 0)
(0.17613 -0.00842339 0)
(0.233877 -0.05666 0)
(0.300482 -0.101803 0)
(0.398722 -0.122127 0)
(0.519569 -0.115904 0)
(0.626721 -0.0988709 0)
(0.682472 -0.079917 0)
(0.56348 -0.0545112 0)
(0.10148 -0.0344242 0)
(-0.500087 -0.0262779 0)
(-6.35873 0.00791505 0)
(-1.59035 0.00755311 0)
(0.119724 0.00623226 0)
(-0.434534 0.0114135 0)
(-0.827664 0.00949466 0)
(-0.952795 0.0171899 0)
(-0.853155 0.0123104 0)
(-0.660506 0.00428201 0)
(-0.417556 -0.000860505 0)
(-0.168233 -0.00498601 0)
(0.0621677 -0.00158146 0)
(0.264387 0.0139844 0)
(0.455721 0.0268808 0)
(0.611397 0.0448301 0)
(0.717956 0.0401507 0)
(0.754978 0.020428 0)
(0.720579 0.0120036 0)
(0.568847 0.0480389 0)
(0.0510981 0.0643487 0)
(-0.707887 0.0502294 0)
(-0.858082 0.0475552 0)
(-0.778135 0.0350921 0)
(-0.630005 0.0260647 0)
(-0.480067 0.011473 0)
(-0.343339 0.00680994 0)
(-0.21916 0.02031 0)
(-0.113769 0.0455618 0)
(-0.033317 0.0657514 0)
(0.0234078 0.0644965 0)
(0.0745535 0.0364162 0)
(0.129393 -0.011838 0)
(0.192826 -0.0698736 0)
(0.277052 -0.111215 0)
(0.389877 -0.131605 0)
(0.517718 -0.13273 0)
(0.632076 -0.124577 0)
(0.695761 -0.116647 0)
(0.591815 -0.0903429 0)
(0.114423 -0.0689992 0)
(-0.511752 -0.0660079 0)
(-6.3575 0.00601093 0)
(-1.58875 0.00473481 0)
(0.129479 -0.000274643 0)
(-0.425712 0.00998915 0)
(-0.821794 0.0228323 0)
(-0.951427 0.0342134 0)
(-0.858233 0.0362491 0)
(-0.669616 0.0284776 0)
(-0.427049 0.0200802 0)
(-0.174309 0.0125628 0)
(0.063779 0.00686518 0)
(0.277301 0.0115947 0)
(0.465467 0.0180641 0)
(0.612814 0.0262722 0)
(0.712036 0.0163829 0)
(0.746485 -0.0127679 0)
(0.737271 -0.00825136 0)
(0.619908 0.026991 0)
(0.0825023 0.0564573 0)
(-0.713487 0.0691611 0)
(-0.868158 0.0649769 0)
(-0.790545 0.0602054 0)
(-0.643829 0.0538364 0)
(-0.491379 0.0372022 0)
(-0.341315 0.0331164 0)
(-0.207555 0.0444983 0)
(-0.0963321 0.0649221 0)
(-0.0197567 0.077942 0)
(0.0136957 0.0709128 0)
(0.0331708 0.0366877 0)
(0.0740714 -0.0213521 0)
(0.15154 -0.0753288 0)
(0.260338 -0.109916 0)
(0.381498 -0.133761 0)
(0.511734 -0.142393 0)
(0.630423 -0.141122 0)
(0.701109 -0.141164 0)
(0.607785 -0.128225 0)
(0.123919 -0.115747 0)
(-0.519023 -0.111061 0)
(-6.35632 0.00332778 0)
(-1.58683 0.00144962 0)
(0.14958 -0.00772732 0)
(-0.402723 0.00418249 0)
(-0.808544 0.0379196 0)
(-0.946377 0.0514487 0)
(-0.861767 0.0571829 0)
(-0.680486 0.0504863 0)
(-0.440083 0.0417825 0)
(-0.184367 0.0318984 0)
(0.0617389 0.0193469 0)
(0.284709 0.0142439 0)
(0.470491 0.0104429 0)
(0.606849 0.00594739 0)
(0.700629 -0.0126699 0)
(0.734078 -0.0462275 0)
(0.759069 -0.0314899 0)
(0.672487 0.00451506 0)
(0.12803 0.0409382 0)
(-0.704564 0.0853348 0)
(-0.87008 0.0829417 0)
(-0.799292 0.0854457 0)
(-0.654908 0.0820114 0)
(-0.501623 0.0680053 0)
(-0.344797 0.0625168 0)
(-0.205216 0.0692303 0)
(-0.089855 0.0793245 0)
(-0.0168715 0.0781563 0)
(0.000239983 0.0604983 0)
(-0.0108246 0.0221581 0)
(0.0266212 -0.028754 0)
(0.11512 -0.06761 0)
(0.244273 -0.0979877 0)
(0.37256 -0.127162 0)
(0.505393 -0.142821 0)
(0.625703 -0.145739 0)
(0.70144 -0.149659 0)
(0.614293 -0.149505 0)
(0.131744 -0.146421 0)
(-0.522023 -0.1454 0)
(-6.35552 0.000601713 0)
(-1.58472 -0.00127121 0)
(0.178779 -0.012451 0)
(-0.366195 -0.000296614 0)
(-0.78803 0.0524008 0)
(-0.937394 0.0674957 0)
(-0.86207 0.0775494 0)
(-0.690212 0.0719937 0)
(-0.454052 0.063374 0)
(-0.196221 0.0528646 0)
(0.0564375 0.0339124 0)
(0.284398 0.0198972 0)
(0.463912 0.0032794 0)
(0.592326 -0.0143474 0)
(0.678467 -0.0429151 0)
(0.718206 -0.0745808 0)
(0.782076 -0.0503626 0)
(0.721129 -0.0151331 0)
(0.190801 0.0189816 0)
(-0.676948 0.0861633 0)
(-0.864212 0.101031 0)
(-0.804061 0.108757 0)
(-0.663376 0.109499 0)
(-0.509227 0.100309 0)
(-0.350993 0.0945257 0)
(-0.213186 0.0937429 0)
(-0.0991067 0.0905305 0)
(-0.031833 0.0756923 0)
(-0.0256784 0.0403742 0)
(-0.0458952 0.000618019 0)
(-0.00176989 -0.0342324 0)
(0.0896385 -0.0566441 0)
(0.222614 -0.0852435 0)
(0.359406 -0.112125 0)
(0.497496 -0.130649 0)
(0.62174 -0.136645 0)
(0.700223 -0.14382 0)
(0.610061 -0.15714 0)
(0.133032 -0.16302 0)
(-0.519759 -0.164729 0)
(-6.35608 -0.00291303 0)
(-1.58353 -0.00484456 0)
(0.214971 -0.0166872 0)
(-0.319218 -0.00114297 0)
(-0.76277 0.0676574 0)
(-0.926262 0.0832819 0)
(-0.860612 0.0955557 0)
(-0.698693 0.0909504 0)
(-0.466913 0.0831285 0)
(-0.207692 0.071762 0)
(0.0488034 0.0496265 0)
(0.276228 0.0273265 0)
(0.444838 -0.00169966 0)
(0.567448 -0.0284238 0)
(0.649784 -0.0694237 0)
(0.706459 -0.0939711 0)
(0.800625 -0.0652194 0)
(0.758387 -0.0395126 0)
(0.263173 0.000698882 0)
(-0.627725 0.0786807 0)
(-0.846301 0.113978 0)
(-0.801056 0.127896 0)
(-0.667606 0.134242 0)
(-0.513918 0.13139 0)
(-0.36135 0.127009 0)
(-0.232123 0.116311 0)
(-0.126164 0.0926517 0)
(-0.0654737 0.0537529 0)
(-0.0540303 0.00371246 0)
(-0.0582444 -0.0309295 0)
(-0.00548496 -0.0453945 0)
(0.0776792 -0.0496394 0)
(0.199445 -0.0637404 0)
(0.342922 -0.0839599 0)
(0.488337 -0.101637 0)
(0.614663 -0.111393 0)
(0.692456 -0.122217 0)
(0.593724 -0.145943 0)
(0.133551 -0.160897 0)
(-0.512393 -0.165624 0)
(-6.35754 -0.00652123 0)
(-1.58286 -0.00795343 0)
(0.257903 -0.0214774 0)
(-0.263277 -0.00327962 0)
(-0.732517 0.079238 0)
(-0.913776 0.096762 0)
(-0.858079 0.110114 0)
(-0.705809 0.106803 0)
(-0.478577 0.0999536 0)
(-0.218949 0.089087 0)
(0.0393313 0.0650162 0)
(0.262022 0.033187 0)
(0.418737 -0.0101395 0)
(0.535259 -0.0384623 0)
(0.61512 -0.0819449 0)
(0.70116 -0.0988177 0)
(0.811815 -0.0770681 0)
(0.781301 -0.0668873 0)
(0.335459 -0.0310613 0)
(-0.554742 0.0534639 0)
(-0.812838 0.113779 0)
(-0.786815 0.138598 0)
(-0.665733 0.152299 0)
(-0.515479 0.154643 0)
(-0.379224 0.149041 0)
(-0.263759 0.125491 0)
(-0.173115 0.0822607 0)
(-0.115776 0.0231096 0)
(-0.0845255 -0.0296054 0)
(-0.0513455 -0.052747 0)
(0.00738662 -0.046119 0)
(0.0818658 -0.0336949 0)
(0.186128 -0.0291884 0)
(0.329102 -0.0390184 0)
(0.476617 -0.0592496 0)
(0.603813 -0.0741797 0)
(0.679016 -0.0876408 0)
(0.569667 -0.116951 0)
(0.123928 -0.141457 0)
(-0.499413 -0.150158 0)
(-6.35985 -0.0089818 0)
(-1.58256 -0.0102532 0)
(0.307157 -0.0301215 0)
(-0.199456 -0.0126525 0)
(-0.694112 0.0810608 0)
(-0.899352 0.105906 0)
(-0.854668 0.121342 0)
(-0.7101 0.121052 0)
(-0.487633 0.115594 0)
(-0.230567 0.104448 0)
(0.025366 0.0769731 0)
(0.241174 0.0372091 0)
(0.38974 -0.0119108 0)
(0.502066 -0.0466043 0)
(0.586198 -0.0813169 0)
(0.693389 -0.0895923 0)
(0.80932 -0.0819347 0)
(0.792055 -0.084414 0)
(0.403554 -0.0574436 0)
(-0.45594 0.0354692 0)
(-0.761901 0.0956036 0)
(-0.757226 0.127454 0)
(-0.651089 0.154296 0)
(-0.516422 0.16689 0)
(-0.399446 0.161685 0)
(-0.306458 0.12887 0)
(-0.234796 0.0667 0)
(-0.17136 -0.00480058 0)
(-0.101175 -0.0509849 0)
(-0.0264126 -0.0611966 0)
(0.0414818 -0.0438681 0)
(0.108704 -0.0183663 0)
(0.186943 0.0122117 0)
(0.319074 0.0135357 0)
(0.46426 -0.00967057 0)
(0.588249 -0.0319159 0)
(0.661009 -0.0498815 0)
(0.544399 -0.0778524 0)
(0.110309 -0.103324 0)
(-0.480528 -0.115685 0)
(-6.36179 -0.0107096 0)
(-1.58221 -0.0126616 0)
(0.360015 -0.0428964 0)
(-0.132223 -0.0285659 0)
(-0.646947 0.0696894 0)
(-0.880402 0.107752 0)
(-0.848664 0.125789 0)
(-0.711674 0.132096 0)
(-0.49512 0.128542 0)
(-0.244506 0.116915 0)
(0.0041422 0.0849995 0)
(0.211112 0.0334386 0)
(0.360137 -0.0126464 0)
(0.477324 -0.0523005 0)
(0.566606 -0.073885 0)
(0.682235 -0.0685376 0)
(0.792766 -0.0741452 0)
(0.786886 -0.0902069 0)
(0.457241 -0.0775089 0)
(-0.349463 0.00233622 0)
(-0.701428 0.0804407 0)
(-0.708042 0.119803 0)
(-0.618987 0.145502 0)
(-0.507272 0.158525 0)
(-0.421337 0.153759 0)
(-0.357863 0.115757 0)
(-0.298236 0.0481426 0)
(-0.213124 -0.0155648 0)
(-0.104227 -0.0492293 0)
(0.00554779 -0.0544825 0)
(0.091571 -0.0336137 0)
(0.153821 -0.00343521 0)
(0.20989 0.0507451 0)
(0.318767 0.0654617 0)
(0.452487 0.0439025 0)
(0.569985 0.0157324 0)
(0.638744 -0.0107665 0)
(0.522006 -0.0328376 0)
(0.099467 -0.0587617 0)
(-0.452574 -0.0732625 0)
(-6.36272 -0.0111406 0)
(-1.58175 -0.0144687 0)
(0.413971 -0.0562056 0)
(-0.0618023 -0.0442702 0)
(-0.589172 0.05353 0)
(-0.855931 0.104667 0)
(-0.838042 0.1239 0)
(-0.707742 0.140121 0)
(-0.502481 0.141773 0)
(-0.263914 0.126943 0)
(-0.0272186 0.0917584 0)
(0.173035 0.0346506 0)
(0.331347 -0.0136532 0)
(0.464701 -0.0495874 0)
(0.559036 -0.0508434 0)