/*--------------------------------*- C++ -*----------------------------------*\
| =========                 |                                                 |
| \\      /  F ield         | OpenFOAM: The Open Source CFD Toolbox           |
|  \\    /   O peration     | Version:  v1912                                 |
|   \\  /    A nd           | Website:  www.openfoam.com                      |
|    \\/     M anipulation  |                                                 |
\*---------------------------------------------------------------------------*/
FoamFile
{
    version     2.0;
    format      ascii;
    class       volVectorField;
    location    "4.06";
    object      grad(T);
}
// * * * * * * * * * * * * * * * * * * * * * * * * * * * * * * * * * * * * * //

dimensions      [0 -1 0 1 0 0 0];


internalField   nonuniform List<vector> 
1900
(
(0.878244 -6.48011e-06 0)
(-0.727347 8.08836e-06 0)
(0.174293 -5.02457e-06 0)
(0.0467277 2.05187e-05 0)
(-0.0326069 0.000108533 0)
(-0.0467542 0.00031899 0)
(-0.0431595 0.000656158 0)
(-0.0319156 0.000667188 0)
(-0.0202523 -0.00324211 0)
(-0.047467 -0.0103785 0)
(0.878245 -1.13086e-05 0)
(-0.727346 4.64141e-06 0)
(0.174305 -3.87681e-05 0)
(0.0468412 -1.97538e-05 0)
(-0.0323084 2.15052e-07 0)
(-0.0462066 0.000142033 0)
(-0.0428113 0.0005396 0)
(-0.0358139 0.000902758 0)
(-0.031298 -0.00271766 0)
(-0.057995 -0.0117883 0)
(0.878237 -1.58294e-13 0)
(-0.727375 -3.1225e-13 0)
(0.174268 -2.84061e-13 0)
(0.0467666 -1.82146e-13 0)
(-0.0324451 -4.44523e-13 0)
(-0.0462148 -2.84061e-13 0)
(-0.0423987 1.92988e-13 0)
(-0.0351729 8.89046e-14 0)
(-0.0329434 -8.67362e-15 0)
(-0.0607584 -5.20417e-14 0)
(0.878245 1.13086e-05 0)
(-0.727346 -4.64141e-06 0)
(0.174305 3.87681e-05 0)
(0.0468412 1.97538e-05 0)
(-0.0323084 -2.15052e-07 0)
(-0.0462066 -0.000142033 0)
(-0.0428113 -0.0005396 0)
(-0.0358139 -0.000902758 0)
(-0.031298 0.00271766 0)
(-0.057995 0.0117883 0)
(0.878244 6.48011e-06 0)
(-0.727347 -8.08836e-06 0)
(0.174293 5.02457e-06 0)
(0.0467277 -2.05187e-05 0)
(-0.0326069 -0.000108533 0)
(-0.0467542 -0.00031899 0)
(-0.0431595 -0.000656158 0)
(-0.0319156 -0.000667188 0)
(-0.0202523 0.00324211 0)
(-0.047467 0.0103785 0)
(-0.128133 -0.0141981 9.95765e-16)
(-0.248758 -0.0216093 -1.18804e-15)
(-0.367494 -0.0339912 -1.47444e-15)
(-0.458805 -0.051301 0)
(-0.497957 -0.0512898 -5.95759e-15)
(-0.136692 -0.0164436 9.932e-16)
(-0.260616 -0.0238111 1.18804e-15)
(-0.37767 -0.0365276 1.47444e-15)
(-0.450615 -0.0525595 0)
(-0.466682 -0.0495609 0)
(-0.14233 -9.42784e-14 0)
(-0.268031 -1.02238e-13 0)
(-0.389181 1.95759e-13 0)
(-0.467634 2.29982e-13 0)
(-0.487007 3.87215e-13 0)
(-0.136692 0.0164436 9.932e-16)
(-0.260616 0.0238111 1.18804e-15)
(-0.37767 0.0365276 1.47444e-15)
(-0.450615 0.0525595 0)
(-0.466682 0.0495609 0)
(-0.128133 0.0141981 -2.98217e-15)
(-0.248758 0.0216093 -1.18804e-15)
(-0.367494 0.0339912 -1.47444e-15)
(-0.458805 0.051301 -3.92071e-15)
(-0.497957 0.0512898 5.95759e-15)
(-0.544431 0.00517274 2.41263e-15)
(-0.4765 0.0212728 -1.92536e-15)
(-0.345703 0.0239081 0)
(-0.215316 0.0160315 1.36081e-15)
(-0.214491 -0.0557162 -5.98316e-16)
(-0.521049 -0.000112613 -1.20639e-15)
(-0.469951 0.0212842 9.63001e-16)
(-0.346061 0.0192506 0)
(-0.248354 -0.00469691 -8.50772e-16)
(-0.17425 -0.0981417 1.48421e-16)
(-0.522085 6.78995e-13 0)
(-0.471775 3.05801e-13 0)
(-0.355802 -8.03113e-15 0)
(-0.266393 1.87787e-13 3.40252e-16)
(-0.189241 2.69465e-13 -2.96841e-16)
(-0.521049 0.000112613 -1.20639e-15)
(-0.469951 -0.0212842 9.63001e-16)
(-0.346061 -0.0192506 0)
(-0.248354 0.00469691 -8.50772e-16)
(-0.17425 0.0981417 1.48421e-16)
(-0.544431 -0.00517274 1.20639e-15)
(-0.4765 -0.0212728 -6.40666e-19)
(-0.345703 -0.0239081 0)
(-0.215316 -0.0160315 4.82816e-19)
(-0.214491 0.0557162 5.98316e-16)
(-0.491879 0.910348 0)
(-0.181097 0.591508 0)
(0.310945 0.219282 0)
(0.106323 0.120173 0)
(-0.0782269 0.0616666 0)
(-0.0995448 0.0283925 0)
(-0.108816 0.0156723 0)
(-0.0893014 0.00444252 0)
(-0.0573338 0.00461633 0)
(-0.0397349 0.0018179 0)
(-0.0272681 0.00151438 0)
(-0.0228401 0.00116437 0)
(-0.0189587 0.000956294 0)
(-0.0154998 0.000773017 0)
(-0.0124916 0.000659008 0)
(-0.0100213 0.000594537 0)
(-0.0080144 0.000553328 0)
(-0.00636594 0.000521587 0)
(-0.00518861 0.000494116 0)
(-0.00434477 0.00047274 0)
(-0.00365235 0.000453129 0)
(-0.0033655 0.000436843 0)
(-0.00323888 0.00042766 0)
(-0.00307926 0.000423101 0)
(-0.00288874 0.000423846 0)
(-0.00260856 0.00042967 0)
(-0.002381 0.000441039 0)
(-0.00243738 0.000456123 0)
(-0.00304386 0.000477826 0)
(-0.00454068 0.000480411 0)
(-0.00650753 0.000499846 0)
(-0.00887892 0.000463133 0)
(-0.00980124 0.000457407 0)
(-0.0107745 0.000638406 0)
(-0.0109359 0.000518351 0)
(-0.0107722 0.00119932 0)
(-0.0129683 0.00131329 0)
(-0.174491 0.00198079 0)
(-0.534864 0.00726584 0)
(-0.367376 -0.0293683 0)
(-0.373956 0.0752371 0)
(-0.18637 0.549901 0)
(0.234525 0.277692 0)
(0.0788623 0.102923 0)
(-0.0894969 0.0415984 0)
(-0.10552 0.0141819 0)
(-0.111333 0.00652336 0)
(-0.0902237 0.00193957 0)
(-0.0575154 0.00166867 0)
(-0.0399984 0.000652548 0)
(-0.0273033 0.000557211 0)
(-0.0228828 0.000372684 0)
(-0.0189825 0.000294718 0)
(-0.0155177 0.000230548 0)
(-0.0125009 0.000194719 0)
(-0.0100255 0.000178528 0)
(-0.00801681 0.00017081 0)
(-0.00636812 0.000165429 0)
(-0.00519089 0.000159803 0)
(-0.0043474 0.000154287 0)
(-0.00365556 0.000147018 0)
(-0.00336876 0.000138712 0)
(-0.00324195 0.000131199 0)
(-0.00308224 0.000123997 0)
(-0.00289153 0.000117893 0)
(-0.00261111 0.000113631 0)
(-0.00238333 0.000112431 0)
(-0.00243907 0.000115633 0)
(-0.00304626 0.000127303 0)
(-0.00454208 0.000144739 0)
(-0.00651078 0.000186518 0)
(-0.00888084 0.000239181 0)
(-0.00978211 0.000368086 0)
(-0.0107697 0.000612836 0)
(-0.0108673 0.000867007 0)
(-0.0106524 0.0016514 0)
(-0.0128072 0.00255061 0)
(-0.172894 0.00374377 0)
(-0.534061 0.0129076 0)
(-0.368046 0.0259975 0)
(-0.294138 3.19347e-13 0)
(-0.122201 9.06787e-14 0)
(0.180915 -3.58772e-13 0)
(0.037641 1.51788e-12 0)
(-0.104042 4.01352e-12 0)
(-0.109748 4.48071e-12 0)
(-0.112378 1.68741e-12 0)
(-0.0907137 -1.80963e-12 0)
(-0.0577082 -5.38356e-12 0)
(-0.0400583 -6.99803e-13 0)
(-0.0273495 5.32245e-13 0)
(-0.0229165 7.53028e-13 0)
(-0.019 3.19347e-13 0)
(-0.0155288 -4.82963e-13 0)
(-0.0125067 -2.00873e-12 0)
(-0.0100282 -2.54492e-12 0)
(-0.00801821 -1.82934e-12 0)
(-0.00636914 -1.08223e-12 0)
(-0.00519185 -3.92284e-13 0)
(-0.00434849 5.7167e-13 0)
(-0.00365688 2.14475e-12 0)
(-0.0033701 3.24866e-12 0)
(-0.00324316 9.61983e-13 0)
(-0.00308313 -1.66967e-12 0)
(-0.00289175 -1.04675e-12 0)
(-0.00261015 5.83498e-13 0)
(-0.00238042 2.50352e-13 0)
(-0.00243305 -1.43115e-12 0)
(-0.00303539 -3.73754e-12 0)
(-0.00452345 -5.84681e-12 0)
(-0.00648006 -7.34695e-12 0)
(-0.0088261 -7.48888e-12 0)
(-0.00969255 -5.59645e-12 0)
(-0.0106294 7.78654e-13 0)
(-0.0106337 8.9634e-12 0)
(-0.0102824 1.23264e-11 0)
(-0.0123596 1.1321e-11 0)
(-0.171478 1.84906e-11 0)
(-0.528391 8.08361e-11 0)
(-0.363568 6.33233e-11 0)
(-0.373956 -0.0752371 0)
(-0.18637 -0.549901 0)
(0.234525 -0.277692 0)
(0.0788623 -0.102923 0)
(-0.0894969 -0.0415984 0)
(-0.10552 -0.0141819 0)
(-0.111333 -0.00652336 0)
(-0.0902237 -0.00193957 0)
(-0.0575154 -0.00166867 0)
(-0.0399984 -0.000652548 0)
(-0.0273033 -0.000557211 0)
(-0.0228828 -0.000372684 0)
(-0.0189825 -0.000294718 0)
(-0.0155177 -0.000230548 0)
(-0.0125009 -0.000194719 0)
(-0.0100255 -0.000178528 0)
(-0.00801681 -0.00017081 0)
(-0.00636812 -0.000165429 0)
(-0.00519089 -0.000159803 0)
(-0.0043474 -0.000154287 0)
(-0.00365556 -0.000147018 0)
(-0.00336876 -0.000138712 0)
(-0.00324195 -0.000131199 0)
(-0.00308224 -0.000123997 0)
(-0.00289153 -0.000117893 0)
(-0.00261111 -0.000113631 0)
(-0.00238333 -0.000112431 0)
(-0.00243907 -0.000115634 0)
(-0.00304626 -0.000127303 0)
(-0.00454208 -0.00014474 0)
(-0.00651078 -0.000186518 0)
(-0.00888084 -0.000239181 0)
(-0.00978211 -0.000368086 0)
(-0.0107697 -0.000612836 0)
(-0.0108673 -0.000867007 0)
(-0.0106524 -0.0016514 0)
(-0.0128072 -0.00255061 0)
(-0.172894 -0.00374377 0)
(-0.534061 -0.0129076 0)
(-0.368046 -0.0259975 0)
(-0.491879 -0.910348 0)
(-0.181097 -0.591508 0)
(0.310945 -0.219282 0)
(0.106323 -0.120173 0)
(-0.0782269 -0.0616666 0)
(-0.0995448 -0.0283925 0)
(-0.108816 -0.0156723 0)
(-0.0893014 -0.00444252 0)
(-0.0573338 -0.00461633 0)
(-0.0397349 -0.0018179 0)
(-0.0272681 -0.00151438 0)
(-0.0228401 -0.00116437 0)
(-0.0189587 -0.000956294 0)
(-0.0154998 -0.000773017 0)
(-0.0124916 -0.000659008 0)
(-0.0100213 -0.000594537 0)
(-0.0080144 -0.000553328 0)
(-0.00636594 -0.000521587 0)
(-0.00518861 -0.000494116 0)
(-0.00434477 -0.00047274 0)
(-0.00365235 -0.000453129 0)
(-0.0033655 -0.000436843 0)
(-0.00323888 -0.00042766 0)
(-0.00307926 -0.000423101 0)
(-0.00288874 -0.000423846 0)
(-0.00260856 -0.00042967 0)
(-0.002381 -0.000441039 0)
(-0.00243738 -0.000456123 0)
(-0.00304386 -0.000477826 0)
(-0.00454068 -0.000480411 0)
(-0.00650753 -0.000499846 0)
(-0.00887892 -0.000463133 0)
(-0.00980124 -0.000457407 0)
(-0.0107745 -0.000638406 0)
(-0.0109359 -0.000518351 0)
(-0.0107722 -0.00119932 0)
(-0.0129683 -0.00131329 0)
(-0.174491 -0.00198079 0)
(-0.534864 -0.00726584 0)
(-0.367376 0.0293683 0)
(-0.0462295 -1.18216 0)
(0.24102 -0.286893 0)
(0.441821 -0.107752 0)
(0.145979 -0.140382 0)
(-0.0449563 -0.0833987 0)
(-0.0835779 -0.0494445 0)
(-0.0992192 -0.0296545 0)
(-0.0843549 -0.0108337 0)
(-0.056079 -0.00898821 0)
(-0.0383573 -0.00351014 0)
(-0.0269341 -0.00292057 0)
(-0.0225821 -0.0022949 0)
(-0.0187647 -0.00185092 0)
(-0.0153521 -0.00148765 0)
(-0.0123998 -0.00126436 0)
(-0.0099641 -0.00113395 0)
(-0.00797385 -0.00104627 0)
(-0.00633351 -0.000976986 0)
(-0.00516288 -0.000917283 0)
(-0.00432472 -0.000871203 0)
(-0.00363676 -0.000832295 0)
(-0.00335655 -0.000803418 0)
(-0.00323688 -0.000789894 0)
(-0.00308328 -0.000786288 0)
(-0.00289889 -0.000794236 0)
(-0.00262485 -0.000812827 0)
(-0.00240262 -0.00084312 0)
(-0.00246411 -0.000882085 0)
(-0.00306426 -0.000933751 0)
(-0.00455751 -0.000952309 0)
(-0.00650371 -0.000982122 0)
(-0.00885643 -0.000935646 0)
(-0.00986992 -0.000900916 0)
(-0.0108023 -0.00121536 0)
(-0.0111398 -0.00116432 0)
(-0.0110126 -0.0020892 0)
(-0.0131112 -0.00228137 0)
(-0.174782 -0.0026252 0)
(-0.513467 -0.00185688 0)
(-0.345842 0.00943341 0)
(0.341967 -0.493726 0)
(0.627894 0.0470051 0)
(0.381948 -0.0238026 0)
(0.108526 -0.116322 0)
(-0.00843728 -0.0914747 0)
(-0.0563168 -0.0648052 0)
(-0.0767554 -0.0415272 0)
(-0.0720391 -0.0197713 0)
(-0.0509495 -0.0125144 0)
(-0.0346267 -0.00567937 0)
(-0.0262762 -0.00446688 0)
(-0.0219477 -0.00343648 0)
(-0.0182848 -0.00270588 0)
(-0.0150137 -0.00217533 0)
(-0.0122 -0.00185727 0)
(-0.00984178 -0.00166776 0)
(-0.0078849 -0.0015347 0)
(-0.00625902 -0.0014268 0)
(-0.00510047 -0.00133271 0)
(-0.00427362 -0.0012593 0)
(-0.00359539 -0.00119721 0)
(-0.00332944 -0.00115102 0)
(-0.00322344 -0.00112779 0)
(-0.00308129 -0.00111838 0)
(-0.00290887 -0.00112537 0)
(-0.00264693 -0.00114736 0)
(-0.00243615 -0.0011882 0)
(-0.00251038 -0.00124121 0)
(-0.00310059 -0.0013192 0)
(-0.00457827 -0.00134607 0)
(-0.00649352 -0.00138766 0)
(-0.00881273 -0.00134192 0)
(-0.010034 -0.0012825 0)
(-0.0110134 -0.00176943 0)
(-0.0116686 -0.0018958 0)
(-0.0117197 -0.00306608 0)
(-0.0134082 -0.00360178 0)
(-0.173926 -0.00375004 0)
(-0.534718 0.00215734 0)
(-0.368043 -0.0218211 0)
(0.474839 -0.0794713 0)
(0.693856 0.0697524 0)
(0.284433 -0.0430874 0)
(0.0807677 -0.0914988 0)
(0.00468743 -0.0837184 0)
(-0.0354468 -0.0666171 0)
(-0.0558229 -0.0473066 0)
(-0.0563971 -0.0265863 0)
(-0.0424995 -0.0148064 0)
(-0.0306024 -0.00847329 0)
(-0.0247728 -0.00625287 0)
(-0.0208852 -0.00471274 0)
(-0.0175494 -0.00366373 0)
(-0.0145343 -0.00297767 0)
(-0.0119106 -0.00256066 0)
(-0.00965327 -0.00229529 0)
(-0.00774165 -0.00209827 0)
(-0.00613887 -0.00193698 0)
(-0.00500147 -0.00179797 0)
(-0.00419415 -0.00169169 0)
(-0.00353241 -0.00160334 0)
(-0.00328965 -0.00153901 0)
(-0.00320543 -0.00150891 0)
(-0.00308095 -0.00149814 0)
(-0.00292681 -0.00151122 0)
(-0.00268539 -0.00154473 0)
(-0.00249307 -0.00160801 0)
(-0.00259035 -0.00168838 0)
(-0.00316531 -0.00181026 0)
(-0.00462348 -0.0018406 0)
(-0.00649971 -0.00190242 0)
(-0.00875509 -0.00186843 0)
(-0.0102819 -0.00181242 0)
(-0.0113933 -0.00246312 0)
(-0.0123893 -0.00277236 0)
(-0.0126565 -0.00406238 0)
(-0.0137702 -0.00481954 0)
(-0.169232 -0.00484872 0)
(-0.530881 0.00248659 0)
(-0.368948 0.000586817 0)
(0.485765 0.00825964 0)
(0.662955 0.00829802 0)
(0.22656 -0.0508613 0)
(0.069372 -0.0809471 0)
(0.0155397 -0.0746962 0)
(-0.0212291 -0.0621452 0)
(-0.0381803 -0.04639 0)
(-0.0407208 -0.0286459 0)
(-0.0334951 -0.0163851 0)
(-0.0263841 -0.0106343 0)
(-0.0226524 -0.0076674 0)
(-0.0194527 -0.0057606 0)
(-0.0166128 -0.00447629 0)
(-0.0139508 -0.00367796 0)
(-0.0115424 -0.003175 0)
(-0.0093962 -0.0028299 0)
(-0.00753961 -0.002563 0)
(-0.00596965 -0.00234279 0)
(-0.00486411 -0.0021552 0)
(-0.00408607 -0.00201504 0)
(-0.00344826 -0.00190071 0)
(-0.00323845 -0.00181955 0)
(-0.00318406 -0.00178526 0)
(-0.00308351 -0.00177649 0)
(-0.00295376 -0.00179883 0)
(-0.0027402 -0.00184959 0)
(-0.00257458 -0.0019432 0)
(-0.00270527 -0.00205315 0)
(-0.00324727 -0.00223285 0)
(-0.00466708 -0.00227567 0)
(-0.00652035 -0.00236689 0)
(-0.00872601 -0.00237815 0)
(-0.010607 -0.0024121 0)
(-0.0119384 -0.00323489 0)
(-0.0132097 -0.00383771 0)
(-0.0136925 -0.00518266 0)
(-0.014166 -0.00606881 0)
(-0.166886 -0.00585347 0)
(-0.52948 0.000478023 0)
(-0.369874 0.000162053 0)
(0.474876 0.00480629 0)
(0.636885 -0.0245307 0)
(0.198433 -0.0496633 0)
(0.0577995 -0.0683244 0)
(0.0228056 -0.066907 0)
(-0.00816985 -0.0554586 0)
(-0.0235418 -0.0418499 0)
(-0.0274833 -0.0274856 0)
(-0.0251428 -0.0169973 0)
(-0.0222017 -0.0118579 0)
(-0.0200763 -0.00856995 0)
(-0.0178101 -0.00650208 0)
(-0.0155425 -0.00514293 0)
(-0.0132803 -0.00427767 0)
(-0.0110934 -0.00370082 0)
(-0.00906352 -0.00327506 0)
(-0.00727226 -0.00293348 0)
(-0.0057459 -0.00264874 0)
(-0.00468563 -0.00240898 0)
(-0.00394891 -0.00223427 0)
(-0.00334403 -0.00209489 0)
(-0.0031784 -0.0019994 0)
(-0.00316395 -0.00196487 0)
(-0.00309403 -0.00196286 0)
(-0.00299725 -0.00200007 0)
(-0.00282451 -0.00207225 0)
(-0.00268922 -0.00220452 0)
(-0.00286947 -0.00233963 0)
(-0.00337973 -0.0025563 0)
(-0.00475265 -0.00259874 0)
(-0.00659846 -0.00270851 0)
(-0.00879865 -0.00279754 0)
(-0.0111075 -0.00291317 0)
(-0.0127671 -0.00386586 0)
(-0.0142662 -0.00470754 0)
(-0.0148065 -0.00605397 0)
(-0.0144167 -0.00700435 0)
(-0.162924 -0.00657204 0)
(-0.525084 -4.50928e-05 0)
(-0.369253 0.000151846 0)
(0.457494 0.0137354 0)
(0.610466 -0.0289602 0)
(0.184359 -0.0468862 0)
(0.0527554 -0.0563527 0)
(0.0279376 -0.0569621 0)
(0.00291686 -0.0479491 0)
(-0.0112245 -0.0368884 0)
(-0.0167719 -0.0253128 0)
(-0.0184357 -0.0172368 0)
(-0.0182633 -0.0124774 0)
(-0.0174913 -0.00923442 0)
(-0.0161503 -0.00712386 0)
(-0.0144693 -0.00575391 0)
(-0.0125611 -0.00482165 0)
(-0.0105763 -0.00416547 0)
(-0.00865677 -0.00364953 0)
(-0.00693607 -0.00322362 0)
(-0.00546422 -0.00286742 0)
(-0.00446471 -0.00257201 0)
(-0.0037834 -0.00236261 0)
(-0.00322193 -0.00219971 0)
(-0.00311316 -0.00209332 0)
(-0.00314884 -0.00206504 0)
(-0.00311743 -0.00207694 0)
(-0.00305917 -0.00214221 0)
(-0.00293722 -0.00224911 0)
(-0.00283224 -0.00243309 0)
(-0.00304425 -0.00261276 0)
(-0.00349696 -0.00290038 0)
(-0.00481376 -0.00294577 0)
(-0.00671192 -0.00308262 0)
(-0.00892322 -0.00329135 0)
(-0.0116365 -0.00349881 0)
(-0.0136676 -0.00452581 0)
(-0.0153182 -0.00559146 0)
(-0.0159058 -0.00689322 0)
(-0.0146652 -0.00788846 0)
(-0.16018 -0.0068741 0)
(-0.523001 0.00502522 0)
(-0.369684 0.000787246 0)
(0.433733 -0.00960665 0)
(0.578467 -0.026331 0)
(0.172036 -0.0406029 0)
(0.04809 -0.0485213 0)
(0.0309036 -0.0478527 0)
(0.0111739 -0.0409531 0)
(-0.00172862 -0.0314178 0)
(-0.00854634 -0.0227156 0)
(-0.0127742 -0.0164766 0)
(-0.0144903 -0.0121764 0)
(-0.0149174 -0.00928354 0)
(-0.0144562 -0.00738902 0)
(-0.013324 -0.0061436 0)
(-0.0117497 -0.00525103 0)
(-0.00996392 -0.00458111 0)
(-0.00815592 -0.00400752 0)
(-0.00651858 -0.00351332 0)
(-0.00511798 -0.00309311 0)
(-0.00419918 -0.00274715 0)
(-0.00359016 -0.00250697 0)
(-0.00308453 -0.00232296 0)
(-0.00304862 -0.00220752 0)
(-0.00314816 -0.00218638 0)
(-0.00316839 -0.00220952 0)
(-0.00316317 -0.00228985 0)
(-0.00310481 -0.00241273 0)
(-0.00303964 -0.00260352 0)
(-0.00331977 -0.00274877 0)
(-0.00370063 -0.00303045 0)
(-0.00492827 -0.0030057 0)
(-0.00693148 -0.00305366 0)
(-0.00919971 -0.00332131 0)
(-0.0122971 -0.00351004 0)
(-0.0147837 -0.00461408 0)
(-0.0165476 -0.00592637 0)
(-0.0170199 -0.00737058 0)
(-0.0143982 -0.00852658 0)
(-0.15048 -0.0074129 0)
(-0.517701 0.00597736 0)
(-0.373337 0.000686049 0)
(0.441378 -0.0236963 0)
(0.580597 -0.0226571 0)
(0.162976 -0.0350823 0)
(0.0457693 -0.041793 0)
(0.0352306 -0.0397336 0)
(0.0187541 -0.0347546 0)
(0.00634978 -0.0270759 0)
(-0.002374 -0.0205748 0)
(-0.00827965 -0.0158989 0)
(-0.0113318 -0.012083 0)
(-0.0128781 -0.00967295 0)
(-0.0131245 -0.00800474 0)
(-0.0124091 -0.00687897 0)
(-0.0110554 -0.005996 0)
(-0.00937796 -0.0052756 0)
(-0.0076278 -0.00462448 0)
(-0.00605491 -0.00405115 0)
(-0.0047259 -0.0035615 0)
(-0.00389989 -0.00316637 0)
(-0.00337464 -0.00289746 0)
(-0.00293337 -0.00269452 0)
(-0.00298155 -0.00257554 0)
(-0.00315077 -0.00256833 0)
(-0.00321714 -0.00261266 0)
(-0.003255 -0.00271782 0)
(-0.00323948 -0.00286119 0)
(-0.00315605 -0.00310556 0)
(-0.00345566 -0.00325968 0)
(-0.00374456 -0.00354882 0)
(-0.00483612 -0.0034701 0)
(-0.00701605 -0.00343269 0)
(-0.00936302 -0.00381049 0)
(-0.0128823 -0.00393953 0)
(-0.015996 -0.0050262 0)
(-0.0179745 -0.00646336 0)
(-0.0184114 -0.00794721 0)
(-0.014706 -0.00901479 0)
(-0.146203 -0.00772583 0)
(-0.515197 0.00781108 0)
(-0.374783 -0.00240453 0)
(0.434734 -0.00800774 0)
(0.567495 -0.0203599 0)
(0.153596 -0.0319231 0)
(0.0436078 -0.0373462 0)
(0.037686 -0.0351896 0)
(0.0233713 -0.0311045 0)
(0.0119355 -0.0249693 0)
(0.00222426 -0.0196421 0)
(-0.00459112 -0.0154604 0)
(-0.00849077 -0.012015 0)
(-0.0109875 -0.00986203 0)
(-0.0117638 -0.00838157 0)
(-0.0113883 -0.00746792 0)
(-0.0102046 -0.00672678 0)
(-0.00864227 -0.00609636 0)
(-0.00697599 -0.00548525 0)
(-0.00549426 -0.00491802 0)
(-0.00426538 -0.00442373 0)
(-0.00355929 -0.00402621 0)
(-0.00313547 -0.00375369 0)
(-0.00277431 -0.00353644 0)
(-0.00292702 -0.00340203 0)
(-0.00318393 -0.00337651 0)
(-0.00331245 -0.00338607 0)
(-0.00340266 -0.00344824 0)
(-0.00347845 -0.00351755 0)
(-0.00342365 -0.0036872 0)
(-0.00374691 -0.00374393 0)
(-0.0039034 -0.00391789 0)
(-0.00481636 -0.00391047 0)
(-0.00725949 -0.00391703 0)
(-0.00968812 -0.00469044 0)
(-0.0134686 -0.00521639 0)
(-0.0172157 -0.0068431 0)
(-0.0193624 -0.00898721 0)
(-0.0194786 -0.0113019 0)
(-0.0141849 -0.0124529 0)
(-0.134266 -0.0112928 0)
(-0.512573 0.00544147 0)
(-0.383181 -0.00432845 0)
(0.429475 -0.0125466 0)
(0.557551 -0.0200402 0)
(0.146607 -0.0289827 0)
(0.0426216 -0.0331153 0)
(0.0412453 -0.0310569 0)
(0.0286027 -0.0279098 0)
(0.0173954 -0.0228513 0)
(0.00678916 -0.0188094 0)
(-0.000929919 -0.0150625 0)
(-0.00593698 -0.0122786 0)
(-0.00937678 -0.010654 0)
(-0.0108175 -0.00952861 0)
(-0.0108145 -0.00889253 0)
(-0.00973374 -0.00826233 0)
(-0.00818158 -0.00771625 0)
(-0.00649232 -0.00713489 0)
(-0.005032 -0.00656531 0)
(-0.00386652 -0.00606844 0)
(-0.00325422 -0.00567724 0)
(-0.00290268 -0.00540889 0)
(-0.0025945 -0.0051814 0)
(-0.00282743 -0.00503534 0)
(-0.00313538 -0.00499589 0)
(-0.00328625 -0.0049622 0)
(-0.0033817 -0.00497639 0)
(-0.00346976 -0.00495927 0)
(-0.0033742 -0.00501744 0)
(-0.00367795 -0.00493766 0)
(-0.00390504 -0.0049188 0)
(-0.00483529 -0.00487719 0)
(-0.00776766 -0.00467104 0)
(-0.0106151 -0.00540093 0)
(-0.0149566 -0.00597549 0)
(-0.0196297 -0.00774694 0)
(-0.0222712 -0.0104057 0)
(-0.0217511 -0.0133227 0)
(-0.0146972 -0.0146201 0)
(-0.128959 -0.0138903 0)
(-0.508486 -0.00200718 0)
(-0.384197 -0.00777243 0)
(0.427513 -0.0124293 0)
(0.551657 -0.0190596 0)
(0.140997 -0.0266758 0)
(0.041609 -0.0283383 0)
(0.0427022 -0.0298863 0)
(0.0312785 -0.0279425 0)
(0.020705 -0.0241273 0)
(0.00972983 -0.021154 0)
(0.00170216 -0.0177685 0)
(-0.00424258 -0.0152332 0)
(-0.00833748 -0.0137921 0)
(-0.0100663 -0.0123627 0)
(-0.0101681 -0.0114625 0)
(-0.00907109 -0.0105434 0)
(-0.00755583 -0.00980404 0)
(-0.0058669 -0.00908137 0)
(-0.00446658 -0.00844535 0)
(-0.00340961 -0.00792614 0)
(-0.00292373 -0.00754674 0)
(-0.00265765 -0.00729588 0)
(-0.00241434 -0.00706625 0)
(-0.00274825 -0.00690644 0)
(-0.00311345 -0.00686188 0)
(-0.00329367 -0.00682611 0)
(-0.00339983 -0.00687051 0)
(-0.00351801 -0.00695625 0)
(-0.00340282 -0.00716628 0)
(-0.00365186 -0.00732605 0)
(-0.00384513 -0.0076249 0)
(-0.0045776 -0.00807608 0)
(-0.00776418 -0.00820075 0)
(-0.0109451 -0.00934807 0)
(-0.0157293 -0.0100434 0)
(-0.0214849 -0.0120625 0)
(-0.0247354 -0.0150506 0)
(-0.0235397 -0.0183113 0)
(-0.0147318 -0.019923 0)
(-0.122111 -0.018909 0)
(-0.506678 -0.00839396 0)
(-0.388736 -0.0108681 0)
(0.423086 -0.0127525 0)
(0.543822 -0.0242852 0)
(0.137666 -0.0311763 0)
(0.0395279 -0.0300507 0)
(0.0416267 -0.0329531 0)
(0.0341523 -0.0304518 0)
(0.023937 -0.0265822 0)
(0.0129167 -0.0238277 0)
(0.00477564 -0.0200828 0)
(-0.00210517 -0.0180066 0)
(-0.00661067 -0.0166258 0)
(-0.00857262 -0.0150285 0)
(-0.00906133 -0.0140737 0)
(-0.00813555 -0.0129755 0)
(-0.00677273 -0.0120749 0)
(-0.00518304 -0.0112269 0)
(-0.00391877 -0.0105515 0)
(-0.00300059 -0.0100565 0)
(-0.00264687 -0.00973204 0)
(-0.00243966 -0.00952589 0)
(-0.00221922 -0.00929999 0)
(-0.0026305 -0.00909603 0)
(-0.00305798 -0.00899232 0)
(-0.00329457 -0.00890001 0)
(-0.00350711 -0.0089316 0)
(-0.00375477 -0.00905686 0)
(-0.00373055 -0.00938399 0)
(-0.0041199 -0.00968322 0)
(-0.00462779 -0.0102172 0)
(-0.0053902 -0.0111175 0)
(-0.0089934 -0.0115583 0)
(-0.0123908 -0.0133098 0)
(-0.0175723 -0.014576 0)
(-0.0244548 -0.0178119 0)
(-0.0282928 -0.0216663 0)
(-0.0264463 -0.0259899 0)
(-0.0152731 -0.0286962 0)
(-0.11785 -0.0282709 0)
(-0.500737 -0.0212703 0)
(-0.386582 -0.0139641 0)
(0.4164 -0.0133874 0)
(0.533903 -0.0290567 0)
(0.135441 -0.0376423 0)
(0.0398968 -0.0380861 0)
(0.0423156 -0.0386941 0)
(0.0374177 -0.0343378 0)
(0.0270882 -0.031237 0)
(0.0159929 -0.0277533 0)
(0.00731158 -0.023694 0)
(-0.000911323 -0.0223065 0)
(-0.00546769 -0.0207472 0)
(-0.00760706 -0.0188735 0)
(-0.00818969 -0.0177095 0)
(-0.00714495 -0.0161037 0)
(-0.00587077 -0.0146759 0)
(-0.00439883 -0.0133509 0)
(-0.00333882 -0.0122447 0)
(-0.00261998 -0.0113864 0)
(-0.00241237 -0.0107545 0)
(-0.00224131 -0.0103921 0)
(-0.00200012 -0.0102129 0)
(-0.00245178 -0.0101781 0)
(-0.00292455 -0.0103638 0)
(-0.00323515 -0.0106311 0)
(-0.00355098 -0.0110819 0)
(-0.00395395 -0.0116186 0)
(-0.00400641 -0.0123552 0)
(-0.00445476 -0.0130114 0)
(-0.00522729 -0.0137221 0)
(-0.00586996 -0.015305 0)
(-0.00987671 -0.0162332 0)
(-0.013853 -0.0188473 0)
(-0.0200677 -0.0213412 0)
(-0.0283174 -0.0257602 0)
(-0.032616 -0.0304038 0)
(-0.0303139 -0.0344279 0)
(-0.0169299 -0.037781 0)
(-0.114955 -0.037664 0)
(-0.492892 -0.0288263 0)
(-0.381696 -0.0158398 0)
(0.407986 -0.0128727 0)
(0.520449 -0.0343908 0)
(0.128965 -0.0448163 0)
(0.0385143 -0.047014 0)
(0.0452387 -0.0470276 0)
(0.0413382 -0.0425641 0)
(0.0302821 -0.0402367 0)
(0.0201854 -0.0349607 0)
(0.0100244 -0.0298874 0)
(0.000734489 -0.0277575 0)
(-0.00330253 -0.0248959 0)
(-0.00564541 -0.0227625 0)
(-0.00639219 -0.020881 0)
(-0.00521219 -0.0186822 0)
(-0.00412001 -0.0168235 0)
(-0.00284025 -0.0151411 0)
(-0.00202571 -0.0137931 0)
(-0.00156458 -0.0127627 0)
(-0.00168873 -0.0120591 0)
(-0.00191774 -0.011659 0)
(-0.00201301 -0.0114409 0)
(-0.00277595 -0.0114069 0)
(-0.00349458 -0.0116746 0)
(-0.00398654 -0.0121164 0)
(-0.00445862 -0.0128563 0)
(-0.00498183 -0.0137692 0)
(-0.00507271 -0.0149168 0)
(-0.00543708 -0.0162037 0)
(-0.00683798 -0.0175701 0)
(-0.00780993 -0.020246 0)
(-0.0124069 -0.0223591 0)
(-0.0173131 -0.0258526 0)
(-0.0242339 -0.0294733 0)
(-0.0331879 -0.0344672 0)
(-0.0366453 -0.0392063 0)
(-0.0335552 -0.0427766 0)
(-0.0183915 -0.0460962 0)
(-0.109221 -0.0460839 0)
(-0.479707 -0.0336124 0)
(-0.374067 -0.0146435 0)
(0.395665 -0.0126985 0)
(0.503121 -0.033992 0)
(0.123277 -0.0456452 0)
(0.037766 -0.0480522 0)
(0.0466037 -0.0471848 0)
(0.0439617 -0.044833 0)
(0.0344151 -0.041828 0)
(0.0259659 -0.0360342 0)
(0.0142529 -0.0337901 0)
(0.00389872 -0.0313152 0)
(-0.000654277 -0.0272953 0)
(-0.00373813 -0.0253175 0)
(-0.00425779 -0.023072 0)
(-0.00323498 -0.0205318 0)
(-0.00245846 -0.018586 0)
(-0.00147867 -0.0167351 0)
(-0.00104684 -0.0152566 0)
(-0.00094907 -0.0140235 0)
(-0.00134882 -0.0130427 0)
(-0.00164556 -0.0124865 0)
(-0.00175718 -0.0123774 0)
(-0.00267699 -0.0125561 0)
(-0.00360824 -0.0131013 0)
(-0.00437391 -0.0137923 0)
(-0.00514374 -0.0147594 0)
(-0.00593945 -0.0158014 0)
(-0.00635235 -0.0169716 0)
(-0.00701163 -0.0184021 0)
(-0.00912259 -0.0197571 0)
(-0.0104848 -0.0224332 0)
(-0.0152794 -0.024652 0)
(-0.0207085 -0.0279183 0)
(-0.0283691 -0.0316054 0)
(-0.0376964 -0.035653 0)
(-0.0406232 -0.0397154 0)
(-0.0369533 -0.0423607 0)
(-0.0201169 -0.0454482 0)
(-0.102926 -0.0444372 0)
(-0.462594 -0.0294181 0)
(-0.363417 -0.00985995 0)
(0.387467 -0.00102749 0)
(0.488701 -0.0264525 0)
(0.115416 -0.0403125 0)
(0.0370307 -0.0448667 0)
(0.0483409 -0.043898 0)
(0.0465002 -0.0420258 0)
(0.038761 -0.037928 0)
(0.027931 -0.0324117 0)
(0.0145717 -0.0331024 0)
(0.00699309 -0.0299792 0)
(0.00247711 -0.0266764 0)
(-0.00157563 -0.0249576 0)
(-0.00178053 -0.0231361 0)
(-0.000889324 -0.0208306 0)
(-0.000461366 -0.0188935 0)
(0.000368067 -0.016998 0)
(0.000587308 -0.015368 0)
(0.0005688 -0.0140181 0)
(-0.000207662 -0.0128159 0)
(-0.00127668 -0.0122161 0)
(-0.00208008 -0.0122499 0)
(-0.00347349 -0.0125133 0)
(-0.00468575 -0.0133005 0)
(-0.00558435 -0.0142988 0)
(-0.00639475 -0.0154552 0)
(-0.00711358 -0.0165499 0)
(-0.00757877 -0.0174746 0)
(-0.00812126 -0.0185726 0)
(-0.0107225 -0.0194415 0)
(-0.0125268 -0.0214116 0)
(-0.0176925 -0.0227257 0)
(-0.0240137 -0.0246685 0)
(-0.0316873 -0.02728 0)
(-0.0410029 -0.0300578 0)
(-0.0431092 -0.033438 0)
(-0.0390795 -0.0356274 0)
(-0.0203924 -0.0386613 0)
(-0.0937733 -0.0360299 0)
(-0.446387 -0.0188488 0)
(-0.35522 0.00518693 0)
(0.371164 0.0290343 0)
(0.465265 -0.00854291 0)
(0.105532 -0.0169701 0)
(0.0343109 -0.0213284 0)
(0.0493413 -0.0232123 0)
(0.0497145 -0.023758 0)
(0.0436797 -0.0221269 0)
(0.030616 -0.0197774 0)
(0.016597 -0.0207198 0)
(0.0100911 -0.0192089 0)
(0.00418467 -0.0189568 0)
(-0.00032662 -0.0190783 0)
(-0.000280858 -0.0184166 0)
(0.000853386 -0.0179259 0)
(0.00123482 -0.0171987 0)
(0.00191859 -0.0163939 0)
(0.00182468 -0.0155543 0)
(0.0015103 -0.0148774 0)
(0.000387598 -0.014045 0)
(-0.00110016 -0.0133166 0)
(-0.00204354 -0.0133979 0)
(-0.00368944 -0.0139218 0)
(-0.00532882 -0.0144719 0)
(-0.00645023 -0.0149163 0)
(-0.00731302 -0.01531 0)
(-0.00788541 -0.0155909 0)
(-0.00830143 -0.0153199 0)
(-0.00890702 -0.0154182 0)
(-0.0118584 -0.0147869 0)
(-0.0136496 -0.0151749 0)
(-0.0184179 -0.0147773 0)
(-0.0250973 -0.0146907 0)
(-0.0335624 -0.0153883 0)
(-0.0436305 -0.0163131 0)
(-0.0459903 -0.0178041 0)
(-0.0419866 -0.018321 0)
(-0.0205047 -0.0185738 0)
(-0.0838336 -0.0174116 0)
(-0.422876 -0.00316499 0)
(-0.340255 0.0375612 0)
(0.351256 -0.0758211 0)
(0.444369 -0.0743296 0)
(0.103095 -0.062512 0)
(0.0310155 -0.0711185 0)
(0.0459997 -0.0841678 0)
(0.0475461 -0.0962296 0)
(0.0425967 -0.105849 0)
(0.0292869 -0.114039 0)
(0.0151196 -0.121454 0)
(0.00869199 -0.128931 0)
(0.00260289 -0.138 0)
(-0.00105507 -0.150421 0)
(-0.000669957 -0.156495 0)
(0.00028431 -0.165906 0)
(0.00101487 -0.170411 0)
(0.00195267 -0.175464 0)
(0.0020487 -0.178747 0)
(0.00202319 -0.181179 0)
(0.00129632 -0.182244 0)
(-0.000653094 -0.176858 0)
(-0.0026632 -0.177249 0)
(-0.00450847 -0.182718 0)
(-0.0056441 -0.18151 0)
(-0.00639193 -0.179162 0)
(-0.00704481 -0.174703 0)
(-0.00712313 -0.171292 0)
(-0.00741239 -0.162825 0)
(-0.00760766 -0.159305 0)
(-0.0104881 -0.146166 0)
(-0.0125175 -0.141326 0)
(-0.0172259 -0.131028 0)
(-0.0246025 -0.124303 0)
(-0.0332507 -0.119778 0)
(-0.0433309 -0.114083 0)
(-0.0450441 -0.107618 0)
(-0.0398212 -0.0980076 0)
(-0.019516 -0.0872339 0)
(-0.0789248 -0.0822022 0)
(-0.393413 -0.0881709 0)
(-0.315975 -0.0961154 0)
(0.372601 -0.31234 0)
(0.47809 -0.446416 0)
(0.108626 -0.40124 0)
(0.0134426 -0.440078 0)
(0.0251432 -0.471345 0)
(0.0288215 -0.497581 0)
(0.0265182 -0.519469 0)
(0.0155782 -0.536946 0)
(0.00224625 -0.545152 0)
(-0.00585279 -0.550273 0)
(-0.0165236 -0.55319 0)
(-0.0181487 -0.553356 0)
(-0.0152027 -0.552799 0)
(-0.0125569 -0.553786 0)
(-0.00797589 -0.555282 0)
(-0.00611469 -0.556764 0)
(-0.00368275 -0.559396 0)
(-0.00185907 -0.558584 0)
(0.00455212 -0.560185 0)
(0.00371354 -0.5579 0)
(-0.00769126 -0.557203 0)
(-0.00779638 -0.558692 0)
(-0.00190148 -0.555281 0)
(0.000109432 -0.555562 0)
(0.000270115 -0.549885 0)
(0.00356098 -0.548252 0)
(0.00325052 -0.543094 0)
(0.00714587 -0.540989 0)
(0.00546661 -0.538075 0)
(0.000938236 -0.534155 0)
(-0.00201396 -0.531311 0)
(-0.0142568 -0.523898 0)
(-0.0237139 -0.516105 0)
(-0.0319121 -0.50242 0)
(-0.0304997 -0.484196 0)
(-0.0223439 -0.466171 0)
(-0.00527415 -0.439332 0)
(-0.0847365 -0.408986 0)
(-0.436284 -0.450765 0)
(-0.347911 -0.349551 0)
(0.222056 -0.212947 0)
(0.358702 -0.369174 0)
(0.109203 -0.33684 0)
(-0.0365403 -0.368575 0)
(-0.00941254 -0.388709 0)
(0.00117185 -0.404435 0)
(0.0046627 -0.417402 0)
(0.00453785 -0.427115 0)
(0.00227752 -0.428859 0)
(0.000946904 -0.427082 0)
(-0.00036784 -0.421803 0)
(-0.000678799 -0.410317 0)
(-0.00108477 -0.403674 0)
(-0.00210809 -0.395666 0)
(-0.00185454 -0.392831 0)
(-0.00201159 -0.389314 0)
(0.000294509 -0.388573 0)
(0.00126247 -0.385187 0)
(0.00195537 -0.385333 0)
(0.00222012 -0.387881 0)
(-0.00342616 -0.386883 0)
(-0.00265618 -0.383455 0)
(-0.0026279 -0.381549 0)
(-0.00119156 -0.384209 0)
(-3.51775e-07 -0.382899 0)
(-0.000579548 -0.38449 0)
(-0.000413863 -0.387196 0)
(-0.002771 -0.388292 0)
(-0.00390275 -0.397487 0)
(-0.00599997 -0.398015 0)
(-0.00734165 -0.404687 0)
(-0.00994893 -0.403544 0)
(-0.0125532 -0.400216 0)
(-0.0125819 -0.391962 0)