/*--------------------------------*- C++ -*----------------------------------*\
| =========                 |                                                 |
| \\      /  F ield         | OpenFOAM: The Open Source CFD Toolbox           |
|  \\    /   O peration     | Version:  v1912                                 |
|   \\  /    A nd           | Website:  www.openfoam.com                      |
|    \\/     M anipulation  |                                                 |
\*---------------------------------------------------------------------------*/
FoamFile
{
    version     2.0;
    format      ascii;
    class       volVectorField;
    location    "1.44";
    object      grad(T);
}
// * * * * * * * * * * * * * * * * * * * * * * * * * * * * * * * * * * * * * //

dimensions      [0 -1 0 1 0 0 0];


internalField   nonuniform List<vector> 
1900
(
(0.00104528 -7.10882e-08 0)
(0.00957055 -1.53203e-06 0)
(0.0326901 -4.29405e-06 0)
(0.0544263 3.33084e-06 0)
(0.0527479 -1.42387e-05 0)
(0.0328127 -0.000176891 0)
(0.016408 -0.000376594 0)
(0.0075736 -0.00119005 0)
(0.00160934 -0.00316867 0)
(-0.0134078 -0.00414347 0)
(0.00104367 -1.22562e-07 0)
(0.00956633 -2.43231e-06 0)
(0.032695 -4.95869e-06 0)
(0.0544163 -2.6532e-07 0)
(0.0525676 -8.45139e-05 0)
(0.0324503 -0.00039388 0)
(0.0153949 -0.000565719 0)
(0.00478152 -0.00121773 0)
(-0.00134409 -0.0025658 0)
(-0.00111027 -0.00339292 0)
(0.00104272 2.77556e-13 0)
(0.00956571 -1.02566e-12 0)
(0.0326923 -1.64799e-13 0)
(0.0543467 -3.68629e-13 0)
(0.0523543 8.76035e-13 0)
(0.0323315 8.0231e-13 0)
(0.0155842 2.97071e-13 0)
(0.00557353 -1.4962e-13 0)
(-0.000565848 -1.86483e-13 0)
(-0.00126715 -1.71304e-13 0)
(0.00104367 1.22562e-07 0)
(0.00956633 2.43231e-06 0)
(0.032695 4.95869e-06 0)
(0.0544163 2.65319e-07 0)
(0.0525676 8.45139e-05 0)
(0.0324503 0.00039388 0)
(0.0153949 0.000565719 0)
(0.00478152 0.00121773 0)
(-0.00134409 0.0025658 0)
(-0.00111027 0.00339292 0)
(0.00104528 7.10884e-08 0)
(0.00957055 1.53203e-06 0)
(0.0326901 4.29405e-06 0)
(0.0544263 -3.33084e-06 0)
(0.0527479 1.42387e-05 0)
(0.0328127 0.000176891 0)
(0.016408 0.000376594 0)
(0.0075736 0.00119005 0)
(0.00160934 0.00316867 0)
(-0.0134078 0.00414347 0)
(-0.00392804 0.00691191 9.99868e-16)
(0.0239975 0.00689294 -1.21372e-15)
(0.0198658 0.00774085 -1.53961e-15)
(-0.117715 0.0234627 0)
(-0.0526951 0.202303 -6.49828e-15)
(0.00824675 0.00746578 1.00112e-15)
(0.021345 0.0048957 1.21372e-15)
(0.0281375 0.00240458 1.53961e-15)
(-0.0367599 0.00705578 0)
(-0.0302182 0.166163 0)
(0.00743181 -1.11956e-13 0)
(0.0181423 -4.51751e-14 0)
(0.0227817 7.83035e-14 0)
(-0.0369493 2.34089e-13 0)
(0.0587559 3.03318e-13 0)
(0.00824675 -0.00746578 1.00112e-15)
(0.021345 -0.0048957 1.21372e-15)
(0.0281375 -0.00240458 1.53961e-15)
(-0.0367599 -0.00705578 0)
(-0.0302182 -0.166163 0)
(-0.00392804 -0.00691191 -3.0021e-15)
(0.0239975 -0.00689294 -1.21372e-15)
(0.0198658 -0.00774085 -1.53961e-15)
(-0.117715 -0.0234627 -4.2019e-15)
(-0.0526951 -0.202303 6.49828e-15)
(0.184702 -0.0819016 2.85878e-15)
(-0.0325564 -0.0193596 -2.4066e-15)
(-0.050523 -0.012754 0)
(-0.13785 0.0721172 1.8278e-15)
(-0.572221 0.158702 -8.03452e-16)
(0.111618 -0.0866728 -1.42816e-15)
(-0.0174647 -0.0197867 1.20301e-15)
(-0.0165637 -0.0224022 0)
(-0.0662489 0.0729483 -1.14428e-15)
(-0.186824 0.176346 2.03386e-16)
(0.128801 5.14722e-13 0)
(-0.0184446 1.529e-13 0)
(-0.015197 1.24482e-13 0)
(-0.0602311 2.62193e-13 4.58592e-16)
(-0.197535 1.99721e-13 -4.06771e-16)
(0.111618 0.0866728 -1.42816e-15)
(-0.0174647 0.0197867 1.20301e-15)
(-0.0165637 0.0224022 0)
(-0.0662489 -0.0729483 -1.14428e-15)
(-0.186824 -0.176346 2.03386e-16)
(0.184702 0.0819016 1.42816e-15)
(-0.0325564 0.0193596 5.83048e-19)
(-0.050523 0.012754 0)
(-0.13785 -0.0721172 2.17193e-18)
(-0.572221 -0.158702 8.03452e-16)
(-0.763721 2.18254 0)
(-0.129414 0.935102 0)
(0.179496 0.297792 0)
(0.0141852 0.0635429 0)
(0.0260508 0.0115797 0)
(0.0792976 0.00823768 0)
(0.110175 0.00452867 0)
(0.135917 0.00292464 0)
(0.14425 0.00124085 0)
(0.141458 0.000933586 0)
(0.123956 0.000899867 0)
(0.088237 0.000686455 0)
(0.0433407 0.00030525 0)
(0.011863 5.49722e-05 0)
(0.00133417 2.56677e-06 0)
(4.12513e-05 2.04968e-08 0)
(2.33492e-07 1.9764e-11 0)
(1.70326e-10 5.91383e-14 0)
(3.05548e-14 -1.18277e-14 0)
(-2.95692e-15 7.88511e-15 0)
(0 -3.94255e-15 0)
(-5.61814e-14 3.94255e-15 0)
(-2.29036e-10 -7.49085e-14 0)
(-2.97241e-07 -1.57702e-14 0)
(-4.99869e-05 8.67362e-14 0)
(-0.0015507 -3.98198e-13 0)
(-0.0133579 -3.94255e-13 0)
(-0.0477624 -4.21853e-13 0)
(-0.0960049 3.19347e-13 0)
(-0.13456 6.70234e-14 0)
(-0.155678 1.89243e-13 0)
(-0.165365 -3.94255e-14 0)
(-0.16874 -6.30809e-14 0)
(-0.165829 3.94255e-15 0)
(-0.150955 4.73106e-14 0)
(-0.12174 -1.5376e-13 0)
(-0.127594 8.27936e-14 0)
(-0.425666 1.89243e-13 0)
(-0.599738 3.44973e-13 0)
(-0.249644 2.42467e-13 0)
(-0.580111 1.09386 0)
(-0.391613 0.972505 0)
(0.0196088 0.276103 0)
(-0.0413863 0.037751 0)
(0.0184801 0.00807438 0)
(0.0784103 0.00164919 0)
(0.110299 0.00269423 0)
(0.135457 0.00142925 0)
(0.14402 0.000472759 0)
(0.141439 0.000381676 0)
(0.123932 0.000397935 0)
(0.0881775 0.000297665 0)
(0.0432831 0.000131632 0)
(0.0118362 2.43169e-05 0)
(0.0013292 1.17252e-06 0)
(4.10118e-05 9.62732e-09 0)
(2.31532e-07 9.45424e-12 0)
(1.68405e-10 9.85638e-14 0)
(3.94255e-15 -3.94255e-15 0)
(0 -7.88511e-15 0)
(0 0 0)
(-6.89947e-14 0 0)
(-2.29022e-10 3.94255e-15 0)
(-2.97241e-07 1.14334e-13 0)
(-4.99869e-05 4.13968e-13 0)
(-0.0015507 -2.32611e-13 0)
(-0.0133579 -5.51957e-13 0)
(-0.0477624 -3.19347e-13 0)
(-0.0960049 5.67728e-13 0)
(-0.13456 3.23289e-13 0)
(-0.155678 3.31174e-13 0)
(-0.165365 3.15404e-14 0)
(-0.16874 -1.6953e-13 0)
(-0.165829 -2.32611e-13 0)
(-0.150955 -1.26162e-13 0)
(-0.12174 -3.07519e-13 0)
(-0.127594 -1.57702e-14 0)
(-0.425666 1.57702e-13 0)
(-0.599738 1.51788e-13 0)
(-0.249644 -2.36553e-14 0)
(-0.471005 4.29738e-13 0)
(-0.367307 3.5483e-13 0)
(-0.0924329 -7.88511e-15 0)
(-0.0637868 -3.82428e-13 0)
(0.0155484 1.57702e-14 0)
(0.0777325 3.15404e-14 0)
(0.110111 -5.91383e-14 0)
(0.135271 -8.27936e-14 0)
(0.143945 2.24726e-13 0)
(0.141436 2.91749e-13 0)
(0.123931 -7.88511e-15 0)
(0.0881595 -1.26162e-13 0)
(0.0432612 -1.10391e-13 0)
(0.0118251 1.34047e-13 0)
(0.0013271 -1.10391e-13 0)
(4.09102e-05 2.24726e-13 0)
(2.30691e-07 3.5483e-14 0)
(1.67575e-10 3.94255e-15 0)
(0 0 0)
(0 -3.94255e-15 0)
(0 0 0)
(-5.61814e-14 -3.94255e-15 0)
(-2.29e-10 1.5376e-13 0)
(-2.97241e-07 1.14334e-13 0)
(-4.99869e-05 3.66657e-13 0)
(-0.0015507 4.73106e-14 0)
(-0.0133579 -1.77415e-13 0)
(-0.0477624 7.0966e-14 0)
(-0.0960049 5.08589e-13 0)
(-0.13456 8.27936e-14 0)
(-0.155678 1.77415e-13 0)
(-0.165365 -1.97128e-14 0)
(-0.16874 -3.94255e-15 0)
(-0.165829 -4.80992e-13 0)
(-0.150955 -5.4013e-13 0)
(-0.12174 -3.3906e-13 0)
(-0.127594 7.88511e-15 0)
(-0.425666 7.88511e-14 0)
(-0.599738 -6.70234e-14 0)
(-0.249644 -3.90313e-13 0)
(-0.580111 -1.09386 0)
(-0.391613 -0.972505 0)
(0.0196088 -0.276103 0)
(-0.0413863 -0.037751 0)
(0.0184801 -0.00807438 0)
(0.0784103 -0.00164919 0)
(0.110299 -0.00269423 0)
(0.135457 -0.00142925 0)
(0.14402 -0.000472759 0)
(0.141439 -0.000381676 0)
(0.123932 -0.000397935 0)
(0.0881775 -0.000297665 0)
(0.0432831 -0.000131632 0)
(0.0118362 -2.43169e-05 0)
(0.0013292 -1.17252e-06 0)
(4.10118e-05 -9.62714e-09 0)
(2.31532e-07 -9.43847e-12 0)
(1.68394e-10 -3.94255e-15 0)
(1.97128e-15 0 0)
(0 0 0)
(0 0 0)
(-2.36553e-14 0 0)
(-2.28987e-10 1.93185e-13 0)
(-2.97241e-07 -1.18277e-14 0)
(-4.99869e-05 1.34047e-13 0)
(-0.0015507 3.19347e-13 0)
(-0.0133579 1.5376e-13 0)
(-0.0477624 8.27936e-14 0)
(-0.0960049 2.08955e-13 0)
(-0.13456 -1.6953e-13 0)
(-0.155678 6.70234e-14 0)
(-0.165365 -9.06787e-14 0)
(-0.16874 1.18277e-14 0)
(-0.165829 -5.7167e-13 0)
(-0.150955 -7.0966e-13 0)
(-0.12174 -2.05013e-13 0)
(-0.127594 8.67362e-14 0)
(-0.425666 3.5483e-14 0)
(-0.599738 -1.2419e-13 0)
(-0.249644 -4.06083e-13 0)
(-0.763721 -2.18254 0)
(-0.129414 -0.935102 0)
(0.179496 -0.297792 0)
(0.0141852 -0.0635429 0)
(0.0260508 -0.0115797 0)
(0.0792976 -0.00823768 0)
(0.110175 -0.00452867 0)
(0.135917 -0.00292464 0)
(0.14425 -0.00124085 0)
(0.141458 -0.000933586 0)
(0.123956 -0.000899867 0)
(0.088237 -0.000686455 0)
(0.0433407 -0.00030525 0)
(0.011863 -5.49722e-05 0)
(0.00133417 -2.56677e-06 0)
(4.12513e-05 -2.04969e-08 0)
(2.33492e-07 -1.97601e-11 0)
(1.7032e-10 -7.88511e-15 0)
(0 0 0)
(1.97128e-15 3.94255e-15 0)
(-1.97128e-15 0 0)
(0 0 0)
(-2.29005e-10 2.75979e-14 0)
(-2.97241e-07 -3.5483e-14 0)
(-4.99869e-05 -1.18277e-14 0)
(-0.0015507 3.11462e-13 0)
(-0.0133579 2.32611e-13 0)
(-0.0477624 -1.45874e-13 0)
(-0.0960049 5.12532e-14 0)
(-0.13456 3.94255e-15 0)
(-0.155678 1.18277e-13 0)
(-0.165365 1.18277e-14 0)
(-0.16874 -1.18277e-13 0)
(-0.165829 -3.19347e-13 0)
(-0.150955 -3.07519e-13 0)
(-0.12174 3.94255e-15 0)
(-0.127594 -1.18277e-14 0)
(-0.425666 -2.75979e-14 0)
(-0.599738 -1.65587e-13 0)
(-0.249644 -1.853e-13 0)
(0.168638 -1.42185 0)
(0.487472 -0.459286 0)
(0.381444 -0.154362 0)
(0.0738927 -0.0754383 0)
(0.044418 -0.0227562 0)
(0.0818073 -0.0201341 0)
(0.113776 -0.00810944 0)
(0.136988 -0.00489977 0)
(0.145003 -0.00263024 0)
(0.141631 -0.00197434 0)
(0.12406 -0.00169113 0)
(0.0884817 -0.00118734 0)
(0.0436126 -0.000500418 0)
(0.011995 -8.63725e-05 0)
(0.00135791 -3.9065e-06 0)
(4.23449e-05 -3.04627e-08 0)
(2.42123e-07 -2.86792e-11 0)
(1.7856e-10 -5.95102e-15 0)
(8.33143e-15 0 0)
(0 -1.1902e-15 0)
(0 0 0)
(-3.33257e-14 0 0)
(-2.28987e-10 -2.02335e-14 0)
(-2.97241e-07 1.78531e-14 0)
(-4.99869e-05 -3.33257e-14 0)
(-0.0015507 8.21241e-14 0)
(-0.0133579 1.38064e-13 0)
(-0.0477624 -2.309e-13 0)
(-0.0960049 1.1902e-15 0)
(-0.13456 1.34493e-13 0)
(-0.155678 1.59487e-13 0)
(-0.165365 1.07118e-13 0)
(-0.16874 -1.60678e-13 0)
(-0.165829 -1.30923e-13 0)
(-0.150955 -2.38041e-15 0)
(-0.12174 1.30923e-13 0)
(-0.127594 1.1902e-14 0)
(-0.425666 -2.61845e-14 0)
(-0.599738 -3.86817e-14 0)
(-0.249644 -2.916e-14 0)
(0.396208 -0.349225 0)
(0.761191 -0.119419 0)
(0.441094 -0.0774602 0)
(0.108989 -0.0632814 0)
(0.0694949 -0.0356231 0)
(0.092066 -0.0248061 0)
(0.122925 -0.0124991 0)
(0.140622 -0.00732165 0)
(0.146665 -0.0046735 0)
(0.14227 -0.00350965 0)
(0.124658 -0.00264564 0)
(0.0892531 -0.00162363 0)
(0.0442559 -0.000621772 0)
(0.0122707 -0.000101089 0)
(0.00140465 -4.39688e-06 0)
(4.44293e-05 -3.35764e-08 0)
(2.58219e-07 -3.27651e-11 0)
(1.93539e-10 -1.28423e-12 0)
(1.1902e-15 -1.19973e-12 0)
(0 -1.19973e-12 0)
(0 -1.19973e-12 0)
(0 -1.19973e-12 0)
(-2.28998e-10 -1.25091e-12 0)
(-2.97241e-07 -1.21877e-12 0)
(-4.99869e-05 -1.29494e-12 0)
(-0.0015507 -1.1545e-12 0)
(-0.0133579 -1.35207e-12 0)
(-0.0477624 -1.18068e-12 0)
(-0.0960049 -1.42944e-12 0)
(-0.13456 -1.02477e-12 0)
(-0.155678 -7.92676e-13 0)
(-0.165365 -5.54635e-13 0)
(-0.16874 -5.29641e-13 0)
(-0.165829 -3.55871e-13 0)
(-0.150955 -1.54727e-13 0)
(-0.12174 1.78531e-14 0)
(-0.127594 4.16572e-14 0)
(-0.425666 1.66629e-14 0)
(-0.599738 5.832e-14 0)
(-0.249644 5.35592e-15 0)
(0.390087 0.0220844 0)
(0.749354 -0.0469846 0)
(0.43554 -0.0484973 0)
(0.114208 -0.0453071 0)
(0.0814943 -0.0382546 0)
(0.10409 -0.0245877 0)
(0.130624 -0.0149208 0)
(0.144529 -0.00941697 0)
(0.148676 -0.00658748 0)
(0.143585 -0.00480356 0)
(0.125878 -0.00329304 0)
(0.090432 -0.00182934 0)
(0.0450798 -0.00064127 0)
(0.0125899 -9.77629e-05 0)
(0.00145529 -4.13998e-06 0)
(4.65818e-05 -3.6942e-08 0)
(2.74477e-07 -5.96882e-09 0)
(2.08977e-10 -5.93875e-09 0)
(8.92654e-14 -5.93861e-09 0)
(0 -5.93859e-09 0)
(0 -5.93857e-09 0)
(-8.21241e-14 -5.93859e-09 0)
(-2.29006e-10 -5.93876e-09 0)
(-2.97241e-07 -5.93852e-09 0)
(-4.99869e-05 -5.93867e-09 0)
(-0.0015507 -5.93936e-09 0)
(-0.0133579 -5.93076e-09 0)
(-0.0477624 -5.86509e-09 0)
(-0.0960049 -5.61333e-09 0)
(-0.13456 -5.07345e-09 0)
(-0.155678 -4.26258e-09 0)
(-0.165365 -3.30457e-09 0)
(-0.16874 -2.35743e-09 0)
(-0.165829 -1.55024e-09 0)
(-0.150955 -9.46394e-10 0)
(-0.12174 -5.5176e-10 0)
(-0.127594 -3.01711e-10 0)
(-0.425666 -1.61957e-10 0)
(-0.599738 -2.80269e-11 0)
(-0.249644 -1.12772e-12 0)
(0.32965 0.0715315 0)
(0.693176 -0.0496822 0)
(0.44271 -0.0406665 0)
(0.118859 -0.0377909 0)
(0.0894609 -0.0354046 0)
(0.114551 -0.024601 0)
(0.137544 -0.016399 0)
(0.148653 -0.0109586 0)
(0.151111 -0.00776974 0)
(0.145444 -0.00541771 0)
(0.127524 -0.00345507 0)
(0.0918085 -0.00177055 0)
(0.0459245 -0.00056709 0)
(0.0128847 -8.09475e-05 0)
(0.00149882 -6.25664e-06 0)
(4.8413e-05 -3.17583e-06 0)
(2.88094e-07 -3.15275e-06 0)
(2.22648e-10 -3.15273e-06 0)
(1.63058e-13 -3.15273e-06 0)
(3.57061e-14 -3.15273e-06 0)
(-4.76082e-15 -3.15273e-06 0)
(-1.82101e-13 -3.15273e-06 0)
(-2.28926e-10 -3.15273e-06 0)
(-2.97241e-07 -3.15273e-06 0)
(-4.99869e-05 -3.15273e-06 0)
(-0.0015507 -3.15262e-06 0)
(-0.0133579 -3.14933e-06 0)
(-0.0477624 -3.12024e-06 0)
(-0.0960049 -3.01395e-06 0)
(-0.13456 -2.78956e-06 0)
(-0.155678 -2.44779e-06 0)
(-0.165365 -2.02607e-06 0)
(-0.16874 -1.5789e-06 0)
(-0.165829 -1.15984e-06 0)
(-0.150955 -8.06878e-07 0)
(-0.12174 -5.42818e-07 0)
(-0.127594 -3.47186e-07 0)
(-0.425666 -2.21114e-07 0)
(-0.599738 -5.59413e-08 0)
(-0.249644 -3.94205e-09 0)
(0.273281 0.0445374 0)
(0.641236 -0.0353189 0)
(0.446999 -0.0305959 0)
(0.119279 -0.0353261 0)
(0.0942046 -0.0334579 0)
(0.122405 -0.0251385 0)
(0.143771 -0.0177148 0)
(0.152845 -0.0125581 0)
(0.154016 -0.00900758 0)
(0.147743 -0.00598906 0)
(0.129392 -0.00348451 0)
(0.093215 -0.00166422 0)
(0.0467079 -0.000650382 0)
(0.0131303 -0.000300448 0)
(0.00153023 -0.000251692 0)
(4.95728e-05 -0.000249943 0)
(2.96743e-07 -0.000249931 0)
(2.3015e-10 -0.000249931 0)
(-6.18906e-14 -0.000249931 0)
(3.57061e-14 -0.000249931 0)
(2.85649e-14 -0.000249931 0)
(3.68963e-14 -0.000249931 0)
(-2.29163e-10 -0.000249931 0)
(-2.9724e-07 -0.000249931 0)
(-4.99868e-05 -0.000249931 0)
(-0.00155069 -0.000249923 0)
(-0.0133579 -0.00024969 0)
(-0.0477623 -0.000247772 0)
(-0.0960045 -0.000241161 0)
(-0.134559 -0.000227665 0)
(-0.155677 -0.000207157 0)
(-0.165365 -0.000181144 0)
(-0.168739 -0.000152036 0)
(-0.165828 -0.000122586 0)
(-0.150954 -9.51977e-05 0)
(-0.12174 -7.22548e-05 0)
(-0.127593 -5.29045e-05 0)
(-0.425666 -3.89087e-05 0)
(-0.599738 -1.36065e-05 0)
(-0.249644 -1.81203e-06 0)
(0.252698 0.00728056 0)
(0.620774 -0.0238692 0)
(0.442703 -0.0321509 0)
(0.116101 -0.0404258 0)
(0.099278 -0.0366491 0)
(0.129722 -0.0282304 0)
(0.149667 -0.0204612 0)
(0.157043 -0.0147556 0)
(0.157441 -0.0108103 0)
(0.150766 -0.00825958 0)
(0.131692 -0.00638115 0)
(0.0945395 -0.00509453 0)
(0.0472387 -0.00449744 0)
(0.0132689 -0.00434001 0)
(0.00154749 -0.00432174 0)
(5.01098e-05 -0.00432125 0)
(2.99582e-07 -0.00432124 0)
(2.32336e-10 -0.00432124 0)
(1.66629e-14 -0.00432124 0)
(1.65438e-13 -0.00432124 0)
(2.21378e-13 -0.00432124 0)
(-1.13069e-13 -0.00432124 0)
(-2.29277e-10 -0.00432124 0)
(-2.97191e-07 -0.00432124 0)
(-4.99792e-05 -0.00432124 0)
(-0.00155046 -0.0043211 0)
(-0.0133559 -0.00431733 0)
(-0.0477542 -0.00428879 0)
(-0.0959855 -0.00419805 0)
(-0.134527 -0.00402333 0)
(-0.155633 -0.00376448 0)
(-0.165312 -0.00343421 0)
(-0.168683 -0.00305277 0)
(-0.165774 -0.00264593 0)
(-0.150906 -0.00223865 0)
(-0.121699 -0.0018674 0)
(-0.127562 -0.00152428 0)
(-0.425628 -0.00125396 0)
(-0.599703 -0.000580782 0)
(-0.249632 -0.000144636 0)
(0.243264 -0.00946243 0)
(0.603238 -0.0251301 0)
(0.431045 -0.0454638 0)
(0.114944 -0.0469056 0)
(0.105957 -0.0405676 0)
(0.138004 -0.0341234 0)
(0.156755 -0.029971 0)
(0.162145 -0.0272919 0)
(0.160275 -0.0255959 0)
(0.152011 -0.0248587 0)
(0.132442 -0.0246657 0)
(0.0950302 -0.024623 0)
(0.047435 -0.0246533 0)
(0.0132996 -0.0247105 0)
(0.00154832 -0.0247259 0)
(5.0047e-05 -0.0247267 0)
(2.98425e-07 -0.0247267 0)
(2.30408e-10 -0.0247267 0)
(-5.832e-14 -0.0247267 0)
(-2.09476e-13 -0.0247267 0)
(-2.54704e-13 -0.0247267 0)
(-2.70176e-13 -0.0247267 0)
(-2.28005e-10 -0.0247267 0)
(-2.9632e-07 -0.0247267 0)
(-4.98521e-05 -0.0247267 0)
(-0.00154692 -0.0247258 0)
(-0.0133268 -0.0247041 0)
(-0.0476473 -0.0245544 0)
(-0.0957487 -0.0241228 0)
(-0.134141 -0.023358 0)
(-0.15511 -0.0222818 0)
(-0.164679 -0.0209356 0)
(-0.167979 -0.019372 0)
(-0.165044 -0.0176608 0)
(-0.150204 -0.01587 0)
(-0.121051 -0.0141533 0)
(-0.127002 -0.0125028 0)
(-0.424757 -0.0111127 0)
(-0.598669 -0.00647142 0)
(-0.249223 -0.00270915 0)
(0.2376 -0.0330022 0)
(0.586082 -0.0401452 0)
(0.421719 -0.0635541 0)
(0.120819 -0.0646371 0)
(0.111595 -0.0627961 0)
(0.139933 -0.0610716 0)
(0.15625 -0.0612356 0)
(0.161259 -0.0622041 0)
(0.159786 -0.0632812 0)
(0.151663 -0.0641543 0)
(0.131919 -0.0652282 0)
(0.0945515 -0.0663608 0)
(0.0471543 -0.0671942 0)
(0.0131989 -0.067557 0)
(0.00153188 -0.0676204 0)
(4.93104e-05 -0.0676232 0)
(2.92467e-07 -0.0676233 0)
(2.24937e-10 -0.0676233 0)
(2.95171e-13 -0.0676233 0)
(2.08286e-13 -0.0676233 0)
(5.59396e-14 -0.0676233 0)
(-4.28474e-14 -0.0676233 0)
(-2.23963e-10 -0.0676233 0)
(-2.9115e-07 -0.0676233 0)
(-4.91436e-05 -0.0676232 0)
(-0.00152872 -0.0676205 0)
(-0.0131906 -0.0675564 0)
(-0.047194 -0.0671511 0)
(-0.0948326 -0.0661024 0)
(-0.132753 -0.0644281 0)
(-0.153299 -0.0622477 0)
(-0.162508 -0.0596418 0)
(-0.165527 -0.0566732 0)
(-0.162399 -0.0534193 0)
(-0.147526 -0.0499522 0)
(-0.118455 -0.0465731 0)
(-0.124632 -0.0433972 0)
(-0.419816 -0.0404602 0)
(-0.591605 -0.0279619 0)
(-0.246007 -0.0169758 0)
(0.236381 -0.0675967 0)
(0.573797 -0.0741028 0)
(0.407443 -0.0973524 0)
(0.115675 -0.100995 0)
(0.109392 -0.102206 0)
(0.139508 -0.102265 0)
(0.155664 -0.102711 0)
(0.160173 -0.103867 0)
(0.158396 -0.105635 0)
(0.150135 -0.107701 0)
(0.130316 -0.109865 0)
(0.0931356 -0.111991 0)
(0.0462823 -0.113624 0)
(0.012889 -0.114356 0)
(0.00148446 -0.114483 0)
(4.72875e-05 -0.114489 0)
(2.76879e-07 -0.114489 0)
(2.09897e-10 -0.114489 0)
(2.15427e-13 -0.114489 0)
(-4.16572e-14 -0.114489 0)
(-1.54727e-14 -0.114489 0)
(-6.54613e-14 -0.114489 0)
(-2.09438e-10 -0.114489 0)
(-2.7649e-07 -0.114489 0)
(-4.72198e-05 -0.114489 0)
(-0.00148248 -0.114483 0)
(-0.0128744 -0.114358 0)
(-0.0462462 -0.113626 0)
(-0.0931248 -0.111922 0)
(-0.130427 -0.109507 0)
(-0.150497 -0.106663 0)
(-0.159307 -0.103498 0)
(-0.161983 -0.10005 0)
(-0.158567 -0.0963514 0)
(-0.143607 -0.0924634 0)
(-0.114735 -0.0887631 0)
(-0.121112 -0.0856665 0)
(-0.409883 -0.0820938 0)
(-0.576039 -0.0640296 0)
(-0.238637 -0.0499401 0)
(0.231331 -0.101166 0)
(0.557409 -0.107567 0)
(0.395805 -0.127095 0)
(0.116141 -0.128463 0)
(0.110372 -0.12753 0)
(0.139447 -0.128003 0)
(0.154706 -0.129443 0)
(0.158441 -0.131416 0)
(0.156091 -0.133852 0)
(0.147587 -0.136611 0)
(0.127786 -0.139473 0)
(0.0909288 -0.142278 0)
(0.0448753 -0.14454 0)
(0.0123712 -0.145606 0)
(0.00140351 -0.145796 0)
(4.37889e-05 -0.145805 0)
(2.49829e-07 -0.145805 0)
(1.83599e-10 -0.145805 0)
(1.79721e-13 -0.145805 0)
(4.6418e-14 -0.145805 0)
(-2.97551e-14 -0.145805 0)
(-4.0467e-14 -0.145805 0)
(-1.83565e-10 -0.145805 0)
(-2.49855e-07 -0.145805 0)
(-4.37821e-05 -0.145805 0)
(-0.00140299 -0.145797 0)
(-0.0123645 -0.145608 0)
(-0.0448463 -0.144554 0)
(-0.0908631 -0.142303 0)
(-0.127685 -0.139447 0)
(-0.147509 -0.136419 0)
(-0.156136 -0.133306 0)
(-0.158641 -0.130102 0)
(-0.155089 -0.126809 0)
(-0.140214 -0.123506 0)
(-0.111905 -0.120639 0)
(-0.118205 -0.118771 0)
(-0.398966 -0.115265 0)
(-0.56062 -0.0965896 0)
(-0.23243 -0.08831 0)
(0.230213 -0.120449 0)
(0.548812 -0.119654 0)
(0.387307 -0.136368 0)
(0.115255 -0.138932 0)
(0.109836 -0.138805 0)
(0.137664 -0.140304 0)
(0.152375 -0.142532 0)
(0.155925 -0.145194 0)
(0.15339 -0.14793 0)
(0.144718 -0.150855 0)
(0.124855 -0.15395 0)
(0.0882524 -0.157132 0)
(0.0430755 -0.159859 0)
(0.0116786 -0.161204 0)
(0.00129239 -0.161449 0)
(3.89612e-05 -0.161459 0)
(2.12958e-07 -0.16146 0)
(1.48953e-10 -0.16146 0)
(1.7377e-13 -0.16146 0)
(9.64066e-14 -0.16146 0)
(1.78531e-14 -0.16146 0)
(-8.92654e-14 -0.16146 0)
(-1.4904e-10 -0.16146 0)
(-2.13038e-07 -0.16146 0)
(-3.89689e-05 -0.161459 0)
(-0.00129241 -0.161449 0)
(-0.0116768 -0.161205 0)
(-0.0430613 -0.159867 0)
(-0.0882042 -0.157158 0)
(-0.124757 -0.154004 0)
(-0.14458 -0.150933 0)
(-0.15322 -0.147966 0)
(-0.155722 -0.145062 0)
(-0.15221 -0.142139 0)
(-0.137661 -0.139539 0)
(-0.110172 -0.1374 0)
(-0.115934 -0.136436 0)
(-0.388508 -0.132824 0)
(-0.550064 -0.114216 0)
(-0.230658 -0.114394 0)
(0.232097 -0.124183 0)
(0.542069 -0.122016 0)
(0.377228 -0.14126 0)
(0.113793 -0.144332 0)
(0.10905 -0.144868 0)
(0.135856 -0.146099 0)
(0.149994 -0.148434 0)
(0.153239 -0.151032 0)
(0.150636 -0.153849 0)
(0.141786 -0.156763 0)
(0.121737 -0.159927 0)
(0.0852339 -0.163367 0)
(0.0409509 -0.166481 0)
(0.0108399 -0.168054 0)
(0.00115741 -0.168337 0)
(3.32146e-05 -0.168349 0)
(1.70734e-07 -0.16835 0)
(1.11177e-10 -0.16835 0)
(2.39231e-13 -0.16835 0)
(1.22591e-13 -0.16835 0)
(-3.21355e-14 -0.16835 0)
(-1.67819e-13 -0.16835 0)
(-1.11284e-10 -0.16835 0)
(-1.70775e-07 -0.16835 0)
(-3.32204e-05 -0.168349 0)
(-0.00115752 -0.168337 0)
(-0.01084 -0.168054 0)
(-0.0409471 -0.166483 0)
(-0.0852141 -0.163382 0)
(-0.121687 -0.159975 0)
(-0.14169 -0.156863 0)
(-0.150478 -0.153999 0)
(-0.153026 -0.151232 0)
(-0.149766 -0.148688 0)
(-0.135648 -0.146339 0)
(-0.108915 -0.144969 0)
(-0.113795 -0.144041 0)
(-0.377555 -0.140513 0)
(-0.54286 -0.120518 0)
(-0.232601 -0.122541 0)
(0.232301 -0.126251 0)
(0.532356 -0.119273 0)
(0.365803 -0.142971 0)
(0.111778 -0.145269 0)
(0.108132 -0.146315 0)
(0.134228 -0.148061 0)
(0.147621 -0.149756 0)
(0.150707 -0.152436 0)
(0.147868 -0.155054 0)
(0.138862 -0.157943 0)
(0.118491 -0.161137 0)
(0.0819365 -0.164791 0)
(0.0385591 -0.168225 0)
(0.00989003 -0.169961 0)
(0.00100741 -0.170265 0)
(2.71001e-05 -0.170277 0)
(1.28547e-07 -0.170277 0)
(7.636e-11 -0.170277 0)
(2.07096e-13 -0.170277 0)
(1.07118e-13 -0.170277 0)
(-4.52278e-14 -0.170277 0)
(-2.41612e-13 -0.170277 0)
(-7.64623e-11 -0.170277 0)
(-1.28557e-07 -0.170277 0)
(-2.71021e-05 -0.170277 0)
(-0.00100746 -0.170265 0)
(-0.00989038 -0.169961 0)
(-0.0385592 -0.168225 0)
(-0.0819324 -0.164796 0)
(-0.118475 -0.161158 0)
(-0.138821 -0.157998 0)
(-0.147795 -0.155166 0)
(-0.150604 -0.152636 0)
(-0.147495 -0.15006 0)
(-0.134077 -0.148449 0)
(-0.107957 -0.146767 0)
(-0.11164 -0.145709 0)
(-0.36584 -0.14335 0)
(-0.532745 -0.11937 0)
(-0.232608 -0.125941 0)
(0.238821 -0.119333 0)
(0.525957 -0.114508 0)
(0.352177 -0.142634 0)
(0.110571 -0.142112 0)
(0.106359 -0.14339 0)
(0.132539 -0.14481 0)
(0.145777 -0.146768 0)
(0.148134 -0.148699 0)
(0.145329 -0.151103 0)
(0.135925 -0.153752 0)
(0.115138 -0.156927 0)
(0.0784036 -0.160763 0)
(0.035969 -0.16445 0)
(0.00887379 -0.16628 0)
(0.000852808 -0.166585 0)
(2.11848e-05 -0.166596 0)
(9.10323e-08 -0.166596 0)
(4.80545e-11 -0.166596 0)
(1.02358e-13 -0.166596 0)
(1.09499e-13 -0.166596 0)
(-8.33143e-15 -0.166596 0)
(-1.67819e-13 -0.166596 0)
(-4.8245e-11 -0.166596 0)
(-9.10329e-08 -0.166596 0)
(-2.1185e-05 -0.166596 0)
(-0.000852822 -0.166585 0)
(-0.00887396 -0.16628 0)
(-0.0359696 -0.16445 0)
(-0.0784042 -0.160764 0)
(-0.115136 -0.156932 0)
(-0.135916 -0.15377 0)
(-0.14531 -0.151152 0)
(-0.148105 -0.148795 0)
(-0.145731 -0.146921 0)
(-0.132474 -0.145028 0)
(-0.106274 -0.143683 0)
(-0.110502 -0.142489 0)
(-0.352174 -0.143049 0)
(-0.526085 -0.114838 0)
(-0.238933 -0.119367 0)
(0.23695 -0.10741 0)
(0.509903 -0.0990797 0)
(0.339204 -0.130936 0)
(0.111048 -0.129336 0)
(0.105532 -0.129866 0)
(0.130973 -0.131611 0)
(0.143873 -0.133203 0)
(0.146529 -0.134847 0)
(0.142999 -0.136558 0)
(0.133249 -0.138747 0)
(0.111735 -0.141636 0)
(0.074687 -0.145433 0)
(0.0332428 -0.14918 0)
(0.00783335 -0.15099 0)
(0.000703063 -0.151272 0)
(1.59121e-05 -0.151282 0)
(6.09376e-08 -0.151282 0)
(2.80472e-11 -0.151282 0)
(-2.38041e-15 -0.151282 0)
(5.71298e-14 -0.151282 0)
(4.0467e-14 -0.151282 0)
(-1.78531e-14 -0.151282 0)
(-2.82007e-11 -0.151282 0)
(-6.09371e-08 -0.151282 0)
(-1.5912e-05 -0.151282 0)
(-0.000703063 -0.151272 0)
(-0.00783338 -0.15099 0)
(-0.0332431 -0.14918 0)
(-0.074688 -0.145433 0)
(-0.111736 -0.141635 0)
(-0.133251 -0.13875 0)
(-0.143 -0.136569 0)
(-0.146527 -0.134872 0)
(-0.143865 -0.133248 0)
(-0.130957 -0.131686 0)
(-0.105511 -0.12998 0)
(-0.111029 -0.1295 0)
(-0.339195 -0.131119 0)
(-0.509924 -0.0992403 0)
(-0.236972 -0.107452 0)
(0.246849 -0.0758906 0)
(0.503286 -0.0781644 0)
(0.323021 -0.1068 0)
(0.111601 -0.106161 0)
(0.104167 -0.103474 0)
(0.129324 -0.104722 0)
(0.142659 -0.105294 0)
(0.144901 -0.106988 0)
(0.141571 -0.108051 0)
(0.131031 -0.109435 0)
(0.108695 -0.111504 0)
(0.0711339 -0.114809 0)
(0.0306146 -0.118379 0)
(0.00685726 -0.120093 0)
(0.000570922 -0.120344 0)
(1.16724e-05 -0.120352 0)
(3.9434e-08 -0.120352 0)
(1.57357e-11 -0.120352 0)
(0 -0.120352 0)
(-4.76082e-15 -0.120352 0)
(5.832e-14 -0.120352 0)
(5.35592e-14 -0.120352 0)
(-1.57405e-11 -0.120352 0)
(-3.94339e-08 -0.120352 0)
(-1.16723e-05 -0.120352 0)
(-0.00057092 -0.120344 0)
(-0.00685725 -0.120093 0)
(-0.0306147 -0.118379 0)
(-0.0711343 -0.114809 0)
(-0.108696 -0.111503 0)
(-0.131034 -0.109433 0)
(-0.141574 -0.108049 0)
(-0.144904 -0.106988 0)
(-0.142661 -0.105297 0)
(-0.129326 -0.104731 0)
(-0.104167 -0.103497 0)
(-0.111599 -0.106195 0)
(-0.323015 -0.106842 0)
(-0.503279 -0.0782054 0)
(-0.246846 -0.0759052 0)
(0.234759 -0.0562319 0)
(0.480117 -0.0788972 0)
(0.312225 -0.107096 0)
(0.114253 -0.110725 0)
(0.106919 -0.107529 0)
(0.12922 -0.10631 0)
(0.141689 -0.105187 0)
(0.143872 -0.105716 0)
(0.140642 -0.107885 0)
(0.129921 -0.110067 0)
(0.106555 -0.112471 0)
(0.0680622 -0.11563 0)
(0.0281513 -0.118873 0)
(0.00593945 -0.120377 0)
(0.000453379 -0.120585 0)
(8.26689e-06 -0.12059 0)
(2.43364e-08 -0.120591 0)
(8.29692e-12 -0.120591 0)
(-3.57061e-14 -0.120591 0)
(-2.14237e-14 -0.120591 0)
(6.90319e-14 -0.120591 0)
(9.2836e-14 -0.120591 0)
(-8.24336e-12 -0.120591 0)
(-2.43366e-08 -0.120591 0)
(-8.26686e-06 -0.12059 0)
(-0.000453378 -0.120585 0)
(-0.00593944 -0.120377 0)
(-0.0281513 -0.118873 0)
(-0.0680624 -0.11563 0)
(-0.106556 -0.11247 0)
(-0.129923 -0.110065 0)
(-0.140643 -0.107882 0)
(-0.143874 -0.105712 0)
(-0.141691 -0.105182 0)
(-0.129222 -0.106305 0)
(-0.106921 -0.107525 0)
(-0.114253 -0.110722 0)
(-0.312223 -0.107094 0)
(-0.480112 -0.0788991 0)
(-0.234755 -0.0562345 0)
(0.225008 -0.228472 0)
(0.454272 -0.257977 0)
(0.29235 -0.288731 0)
(0.111184 -0.311096 0)
(0.108422 -0.322046 0)
(0.131582 -0.338674 0)
(0.143232 -0.352689 0)
(0.142302 -0.367412 0)
(0.137379 -0.379688 0)
(0.126612 -0.391061 0)
(0.103334 -0.402076 0)
(0.0649645 -0.413206 0)
(0.0260399 -0.421541 0)
(0.00520781 -0.4244 0)
(0.000365549 -0.424697 0)
(5.93767e-06 -0.424704 0)
(1.51487e-08 -0.424704 0)
(4.35377e-12 -0.424704 0)
(1.1902e-15 -0.424704 0)
(2.49943e-14 -0.424704 0)
(1.03548e-13 -0.424704 0)
(1.36874e-13 -0.424704 0)
(-4.30735e-12 -0.424704 0)
(-1.51488e-08 -0.424704 0)
(-5.93766e-06 -0.424704 0)
(-0.000365548 -0.424697 0)
(-0.0052078 -0.4244 0)
(-0.0260399 -0.421541 0)
(-0.0649645 -0.413206 0)
(-0.103334 -0.402076 0)
(-0.126612 -0.39106 0)
(-0.137379 -0.379687 0)
(-0.142302 -0.36741 0)
(-0.143233 -0.352686 0)
(-0.131583 -0.33867 0)
(-0.108423 -0.322041 0)
(-0.111184 -0.31109 0)
(-0.292349 -0.288726 0)
(-0.454269 -0.257974 0)
(-0.225006 -0.228473 0)
(0.206327 -0.27603 0)
(0.422049 -0.443482 0)
(0.261038 -0.480114 0)
(0.0821501 -0.508664 0)
(0.0803442 -0.534179 0)
(0.099691 -0.541551 0)
(0.113996 -0.559758 0)
(0.117856 -0.567965 0)
(0.117853 -0.578499 0)
(0.108347 -0.587273 0)
(0.0852158 -0.600444 0)
(0.0493051 -0.617948 0)
(0.0173636 -0.631354 0)
(0.00289808 -0.63537 0)
(0.000160772 -0.63571 0)
(1.97639e-06 -0.635716 0)
(3.678e-09 -0.635716 0)
(7.94462e-13 -0.635716 0)
(3.03502e-14 -0.635716 0)
(2.55894e-14 -0.635716 0)
(8.74801e-14 -0.635716 0)
(1.33303e-13 -0.635716 0)
(-6.72466e-13 -0.635716 0)
(-3.67811e-09 -0.635716 0)
(-1.9764e-06 -0.635716 0)
(-0.000160772 -0.63571 0)
(-0.00289808 -0.63537 0)
(-0.0173636 -0.631354 0)
(-0.0493051 -0.617948 0)
(-0.0852157 -0.600444 0)
(-0.108347 -0.587273 0)
(-0.117853 -0.578499 0)
(-0.117856 -0.567965 0)
(-0.113996 -0.559756 0)
(-0.0996914 -0.541549 0)
(-0.0803444 -0.534176 0)
(-0.0821503 -0.508661 0)
(-0.261039 -0.480111 0)
(-0.422049 -0.44348 0)
(-0.206327 -0.276029 0)
(0.0636441 -0.0809862 0)
(0.257608 -0.229053 0)
(0.229539 -0.251633 0)
(0.0590852 -0.261741 0)
(0.0767303 -0.275568 0)
(0.106933 -0.265492 0)
(0.117778 -0.268052 0)
(0.124241 -0.261567 0)
(0.118773 -0.261425 0)
(0.105465 -0.260611 0)
(0.0737739 -0.264416 0)
(0.0351785 -0.272485 0)
(0.00925132 -0.279076 0)
(0.00100975 -0.280903 0)
(3.19773e-05 -0.281035 0)
(2.09205e-07 -0.281037 0)
(2.12569e-10 -0.281037 0)
(-7.97437e-14 -0.281037 0)
(-8.80752e-14 -0.281037 0)
(-1.96384e-14 -0.281037 0)
(9.40262e-14 -0.281037 0)
(1.36278e-13 -0.281037 0)
(1.1545e-13 -0.281037 0)
(-2.12441e-10 -0.281037 0)
(-2.09205e-07 -0.281037 0)
(-3.19773e-05 -0.281035 0)
(-0.00100975 -0.280903 0)
(-0.00925132 -0.279076 0)
(-0.0351785 -0.272485 0)
(-0.0737739 -0.264416 0)
(-0.105465 -0.260611 0)
(-0.118773 -0.261426 0)
(-0.124241 -0.261567 0)
(-0.117778 -0.268052 0)
(-0.106933 -0.265491 0)
(-0.0767302 -0.275568 0)
(-0.0590852 -0.261741 0)
(-0.229539 -0.251632 0)
(-0.257608 -0.229052 0)
(-0.0636442 -0.0809859 0)
(0.0636441 0.0809862 0)
(0.257608 0.229053 0)
(0.229539 0.251633 0)
(0.0590852 0.261741 0)
(0.0767303 0.275568 0)
(0.106933 0.265492 0)
(0.117778 0.268052 0)
(0.124241 0.261567 0)
(0.118773 0.261425 0)
(0.105465 0.260611 0)
(0.0737739 0.264416 0)
(0.0351785 0.272485 0)
(0.00925132 0.279076 0)
(0.00100975 0.280903 0)
(3.19773e-05 0.281035 0)
(2.09206e-07 0.281037 0)
(2.12377e-10 0.281037 0)
(3.03502e-14 0.281037 0)
(2.26139e-14 0.281037 0)
(-5.35592e-15 0.281037 0)
(-6.54613e-15 0.281037 0)
(3.09453e-14 0.281037 0)
(-1.66629e-14 0.281037 0)
(-2.12465e-10 0.281037 0)
(-2.09205e-07 0.281037 0)
(-3.19773e-05 0.281035 0)
(-0.00100975 0.280903 0)
(-0.00925132 0.279076 0)
(-0.0351785 0.272485 0)
(-0.0737739 0.264416 0)
(-0.105465 0.260611 0)
(-0.118773 0.261426 0)
(-0.124241 0.261567 0)
(-0.117778 0.268052 0)
(-0.106933 0.265491 0)
(-0.0767302 0.275568 0)
(-0.0590852 0.261741 0)
(-0.229539 0.251632 0)
(-0.257608 0.229052 0)
(-0.0636442 0.0809859 0)
(0.206327 0.27603 0)
(0.422049 0.443482 0)
(0.261038 0.480114 0)
(0.0821501 0.508664 0)
(0.0803442 0.534179 0)
(0.099691 0.541551 0)
(0.113996 0.559758 0)