/*--------------------------------*- C++ -*----------------------------------*\
| =========                 |                                                 |
| \\      /  F ield         | OpenFOAM: The Open Source CFD Toolbox           |
|  \\    /   O peration     | Version:  v1912                                 |
|   \\  /    A nd           | Website:  www.openfoam.com                      |
|    \\/     M anipulation  |                                                 |
\*---------------------------------------------------------------------------*/
FoamFile
{
    version     2.0;
    format      ascii;
    class       volVectorField;
    location    "1.44";
    object      grad(rho);
}
// * * * * * * * * * * * * * * * * * * * * * * * * * * * * * * * * * * * * * //

dimensions      [1 -4 0 0 0 0 0];


internalField   nonuniform List<vector> 
1900
(
(36.5073 -0.00247903 0)
(334.256 -0.0529734 0)
(1146.21 -0.148873 0)
(1920.42 0.0718564 0)
(1875.32 -0.707982 0)
(1177.43 -6.45847 0)
(595.222 -13.2488 0)
(267.223 -41.187 0)
(29.7584 -110.716 0)
(-530.399 -153.676 0)
(36.4518 -0.00427338 0)
(334.11 -0.0840153 0)
(1146.34 -0.171645 0)
(1919.86 -0.0983711 0)
(1868.79 -3.39058 0)
(1164.89 -14.0183 0)
(560.494 -18.1589 0)
(169.756 -41.2349 0)
(-82.7303 -88.6914 0)
(-113.021 -128.168 0)
(36.419 1.06581e-08 0)
(334.089 -2.69118e-08 0)
(1146.2 3.21521e-08 0)
(1917.2 -5.56e-09 0)
(1861.4 -1.11733e-08 0)
(1162.67 -1.12266e-08 0)
(568.006 -1.10134e-09 0)
(196.691 9.9476e-10 0)
(-57.1744 2.59348e-09 0)
(-131.329 4.44089e-10 0)
(36.4518 0.0042734 0)
(334.11 0.0840152 0)
(1146.34 0.171645 0)
(1919.86 0.0983711 0)
(1868.79 3.39058 0)
(1164.89 14.0183 0)
(560.494 18.1589 0)
(169.756 41.2349 0)
(-82.7303 88.6914 0)
(-113.021 128.168 0)
(36.5073 0.00247904 0)
(334.256 0.0529734 0)
(1146.21 0.148873 0)
(1920.42 -0.0718564 0)
(1875.32 0.707982 0)
(1177.43 6.45847 0)
(595.222 13.2488 0)
(267.223 41.187 0)
(29.7584 110.716 0)
(-530.399 153.676 0)
(-373.454 228.904 1.43719e-11)
(18.1753 231.605 -1.74827e-11)
(-1130.34 199.598 -2.21007e-11)
(-6167.03 921.176 0)
(-1666.71 7500.48 -8.97446e-11)
(56.9123 237.886 1.44133e-11)
(-120.795 157.219 1.74827e-11)
(-775.343 29.3377 2.21007e-11)
(-3064.22 353.018 0)
(-949.362 6407.44 0)
(22.5025 4.18345e-10 0)
(-204.515 3.11642e-10 0)
(-980.38 -6.01988e-09 0)
(-2978.27 -2.62416e-09 0)
(2370.02 -6.97854e-09 0)
(56.9123 -237.886 1.44133e-11)
(-120.795 -157.219 1.74827e-11)
(-775.343 -29.3377 2.21007e-11)
(-3064.22 -353.018 0)
(-949.362 -6407.44 0)
(-373.454 -228.904 -4.31984e-11)
(18.1753 -231.605 -1.74827e-11)
(-1130.34 -199.598 -2.21007e-11)
(-6167.03 -921.176 -5.9774e-11)
(-1666.71 -7500.48 8.97446e-11)
(8982.92 -3214.06 4.2264e-11)
(1384.87 -374.343 -3.58089e-11)
(2716.77 106.104 0)
(5143.99 547.146 2.82735e-11)
(-490.273 -6883.29 -1.31683e-11)
(6380.42 -3297.72 -2.10836e-11)
(2182.7 -191.987 1.78988e-11)
(3031.9 63.5229 0)
(2052.05 -432.536 -1.7678e-11)
(-6466.13 -12769.3 3.1441e-12)
(7010.46 -7.8052e-09 0)
(2210.81 -4.32702e-09 0)
(2588.29 -6.5791e-11 0)
(-546.066 -7.08221e-09 7.06597e-12)
(-9327.2 -9.45313e-09 -6.2882e-12)
(6380.42 3297.72 -2.10836e-11)
(2182.7 191.987 1.78988e-11)
(3031.9 -63.5229 0)
(2052.05 432.536 -1.7678e-11)
(-6466.13 12769.3 3.1441e-12)
(8982.92 3214.06 2.10836e-11)
(1384.87 374.343 1.1274e-14)
(2716.77 -106.104 0)
(5143.99 -547.146 1.64782e-14)
(-490.273 6883.29 1.31683e-11)
(-26345.4 -59331.3 0)
(-21902.6 1989.78 0)
(1347.39 2579.05 0)
(594.985 1242.59 0)
(1319.43 609.296 0)
(2433.5 374.476 0)
(3268.65 97.4325 0)
(4161.03 44.8671 0)
(4564.4 27.4633 0)
(4613.64 31.8996 0)
(4157.64 31.9845 0)
(3028.57 24.0817 0)
(1510.87 10.7193 0)
(416.633 1.93045 0)
(46.86 0.0898996 0)
(1.44508 0.00071672 0)
(0.00816562 6.88322e-07 0)
(5.95501e-06 6.45948e-11 0)
(3.22974e-11 -6.45948e-11 0)
(0 0 0)
(0 -6.45948e-11 0)
(-3.22974e-11 0 0)
(-8.00347e-06 2.58379e-10 0)
(-0.0103945 -8.46192e-09 0)
(-1.75131 7.55759e-09 0)
(-54.4827 -4.39245e-09 0)
(-469.232 7.493e-09 0)
(-1664.19 -6.45948e-10 0)
(-3289.41 -1.09811e-09 0)
(-4495.25 -1.41463e-08 0)
(-5034.46 -5.81353e-10 0)
(-5145.25 1.2273e-09 0)
(-5033.33 1.90555e-09 0)
(-4801.46 1.03352e-09 0)
(-4524.1 -4.13407e-09 0)
(-4196.41 -3.55271e-10 0)
(-3298.22 -4.71542e-09 0)
(-1034.4 -3.35893e-09 0)
(95151.6 -9.30165e-09 0)
(-137998 -2.64839e-08 0)
(-24811.9 -23024.2 0)
(-17358.9 5598.54 0)
(1322.71 2062.41 0)
(276.459 598.414 0)
(1244.09 329.212 0)
(2381.91 107.545 0)
(3252.31 69.8481 0)
(4148.82 23.9714 0)
(4562.29 9.66502 0)
(4614.63 13.2969 0)
(4156.85 14.2731 0)
(3026.41 10.4598 0)
(1508.84 4.61503 0)
(415.69 0.85278 0)
(46.6854 0.0410489 0)
(1.43669 0.000336671 0)
(0.00809709 3.33568e-07 0)
(5.88722e-06 1.2919e-10 0)
(0 0 0)
(0 0 0)
(0 0 0)
(-4.84461e-11 0 0)
(-8.00536e-06 0 0)
(-0.0103945 -9.68922e-09 0)
(-1.75131 4.9738e-09 0)
(-54.4827 -4.9738e-09 0)
(-469.232 8.84949e-09 0)
(-1664.19 2.4546e-09 0)
(-3289.41 -9.56003e-09 0)
(-4495.25 -1.44046e-08 0)
(-5034.46 1.61487e-09 0)
(-5145.25 7.75138e-10 0)
(-5033.33 3.58501e-09 0)
(-4801.46 -1.61487e-10 0)
(-4524.1 -1.55028e-09 0)
(-4196.41 1.87325e-09 0)
(-3298.22 -7.4284e-10 0)
(-1034.4 -1.80865e-09 0)
(95151.6 -3.52042e-09 0)
(-137998 -6.45948e-10 0)
(-21876.2 -7.29921e-09 0)
(-14604.7 -5.39367e-09 0)
(-107.195 -8.07435e-10 0)
(90.7825 4.68312e-09 0)
(1176.64 2.26082e-10 0)
(2358.05 -2.5192e-09 0)
(3244.34 -3.22974e-10 0)
(4143.52 1.64717e-09 0)
(4561.3 -3.03596e-09 0)
(4614.98 -4.32785e-09 0)
(4156.81 -6.45948e-11 0)
(3025.76 9.68922e-10 0)
(1508.07 5.87813e-09 0)
(415.302 -1.35649e-09 0)
(46.612 3.03596e-09 0)
(1.43314 6.2657e-09 0)
(0.00806768 3.48812e-09 0)
(5.85799e-06 0 0)
(0 0 0)
(0 0 0)
(0 0 0)
(-4.84461e-11 0 0)
(-8.00628e-06 -2.19622e-09 0)
(-0.0103945 -6.65326e-09 0)
(-1.75131 1.67946e-09 0)
(-54.4827 -3.55271e-09 0)
(-469.232 3.35893e-09 0)
(-1664.19 -2.58379e-09 0)
(-3289.41 -7.10543e-09 0)
(-4495.25 -5.68434e-09 0)
(-5034.46 2.97136e-09 0)
(-5145.25 -8.39732e-10 0)
(-5033.33 1.2273e-09 0)
(-4801.46 4.13407e-09 0)
(-4524.1 6.2657e-09 0)
(-4196.41 2.39001e-09 0)
(-3298.22 0 0)
(-1034.4 -2.26082e-10 0)
(95151.6 0 0)
(-137998 2.86801e-08 0)
(-24811.9 23024.2 0)
(-17358.9 -5598.54 0)
(1322.71 -2062.41 0)
(276.459 -598.414 0)
(1244.09 -329.212 0)
(2381.91 -107.545 0)
(3252.31 -69.8481 0)
(4148.82 -23.9714 0)
(4562.29 -9.66502 0)
(4614.63 -13.2969 0)
(4156.85 -14.2731 0)
(3026.41 -10.4598 0)
(1508.84 -4.61503 0)
(415.69 -0.85278 0)
(46.6854 -0.0410489 0)
(1.43669 -0.000336663 0)
(0.00809709 -3.3389e-07 0)
(5.88618e-06 0 0)
(0 0 0)
(1.61487e-11 0 0)
(-1.61487e-11 0 0)
(-6.78245e-10 0 0)
(-8.00727e-06 1.2919e-10 0)
(-0.0103945 -4.71542e-09 0)
(-1.75131 2.13163e-09 0)
(-54.4827 -4.78001e-09 0)
(-469.232 3.22974e-10 0)
(-1664.19 1.2273e-09 0)
(-3289.41 2.64839e-09 0)
(-4495.25 -2.77758e-09 0)
(-5034.46 4.26326e-09 0)
(-5145.25 5.10299e-09 0)
(-5033.33 2.4546e-09 0)
(-4801.46 8.55881e-09 0)
(-4524.1 8.91408e-09 0)
(-4196.41 7.75138e-10 0)
(-3298.22 -3.48812e-09 0)
(-1034.4 1.71176e-09 0)
(95151.6 2.68068e-09 0)
(-137998 1.38233e-08 0)
(-26345.4 59331.3 0)
(-21902.6 -1989.78 0)
(1347.39 -2579.05 0)
(594.985 -1242.59 0)
(1319.43 -609.296 0)
(2433.5 -374.476 0)
(3268.65 -97.4325 0)
(4161.03 -44.8671 0)
(4564.4 -27.4633 0)
(4613.64 -31.8996 0)
(4157.64 -31.9845 0)
(3028.57 -24.0817 0)
(1510.87 -10.7193 0)
(416.633 -1.93045 0)
(46.86 -0.0898996 0)
(1.44508 -0.000716712 0)
(0.00816562 -6.91293e-07 0)
(5.95512e-06 0 0)
(0 0 0)
(0 0 0)
(0 0 0)
(0 0 0)
(-8.0077e-06 2.00244e-09 0)
(-0.0103945 3.03596e-09 0)
(-1.75131 3.22974e-10 0)
(-54.4827 -2.4546e-09 0)
(-469.232 1.67946e-09 0)
(-1664.19 1.67946e-09 0)
(-3289.41 6.97624e-09 0)
(-4495.25 -1.55028e-09 0)
(-5034.46 3.94028e-09 0)
(-5145.25 4.81231e-09 0)
(-5033.33 4.9092e-09 0)
(-4801.46 3.97258e-09 0)
(-4524.1 4.84461e-09 0)
(-4196.41 4.19866e-10 0)
(-3298.22 2.55149e-09 0)
(-1034.4 2.68068e-09 0)
(95151.6 6.36259e-09 0)
(-137998 1.00768e-08 0)
(105355 68311.4 0)
(-50940 -4085.03 0)
(1762.87 -2901.13 0)
(1143.73 -2084.56 0)
(1701.51 -959.04 0)
(2643.33 -690.033 0)
(3440.17 -190.577 0)
(4178.58 -103.451 0)
(4567.98 -70.5921 0)
(4612.95 -65.6044 0)
(4160.84 -58.6149 0)
(3037.25 -41.4293 0)
(1520.39 -17.5833 0)
(421.268 -3.03604 0)
(47.694 -0.136876 0)
(1.48339 -0.0010652 0)
(0.00846742 -9.98884e-07 0)
(6.24008e-06 0 0)
(0 0 0)
(0 0 0)
(0 0 0)
(-2.14503e-10 0 0)
(-8.00484e-06 -1.56003e-10 0)
(-0.0103945 5.47959e-09 0)
(-1.75131 -1.85253e-09 0)
(-54.4827 -3.51006e-10 0)
(-469.232 3.54906e-09 0)
(-1664.19 -6.1816e-09 0)
(-3289.41 3.68556e-09 0)
(-4495.25 -3.13955e-09 0)
(-5034.46 -1.44302e-09 0)
(-5145.25 4.38757e-10 0)
(-5033.33 2.48629e-09 0)
(-4801.46 2.20354e-09 0)
(-4524.1 -1.95003e-09 0)
(-4196.41 -5.75259e-10 0)
(-3298.22 2.52529e-09 0)
(-1034.4 1.16027e-09 0)
(95151.6 -1.43327e-09 0)
(-137998 9.28215e-09 0)
(123357 35205 0)
(-74954.8 -3160.32 0)
(3052.32 -2602.78 0)
(2172.2 -1978.4 0)
(2458.38 -1122.07 0)
(3061.5 -719.979 0)
(3741.93 -341.068 0)
(4267.24 -204.924 0)
(4598.95 -142.674 0)
(4625.55 -115.17 0)
(4179.22 -89.962 0)
(3063.46 -56.383 0)
(1542.76 -21.8549 0)
(430.96 -3.55618 0)
(49.3374 -0.154111 0)
(1.55643 -0.00117412 0)
(0.00903025 -1.14949e-06 0)
(6.76489e-06 -4.33102e-08 0)
(0 -4.11847e-08 0)
(0 -4.11847e-08 0)
(0 -4.11847e-08 0)
(-3.90006e-11 -4.11847e-08 0)
(-8.00396e-06 -4.31542e-08 0)
(-0.0103945 -4.13992e-08 0)
(-1.75131 -4.66253e-08 0)
(-54.4827 -3.92931e-08 0)
(-469.232 -4.90433e-08 0)
(-1664.19 -3.91761e-08 0)
(-3289.41 -4.28032e-08 0)
(-4495.25 -3.15905e-08 0)
(-5034.46 -2.70664e-08 0)
(-5145.25 -1.522e-08 0)
(-5033.33 -7.38087e-09 0)
(-4801.46 -3.78306e-09 0)
(-4524.1 -1.99878e-09 0)
(-4196.41 -1.82328e-09 0)
(-3298.22 -2.63254e-09 0)
(-1034.4 -1.66728e-09 0)
(95151.6 -5.16758e-10 0)
(-137998 9.36015e-10 0)
(134141 19313.5 0)
(-87372.9 -750.028 0)
(2901.81 -1650.7 0)
(2570.59 -1464.23 0)
(2914.17 -1046.93 0)
(3395.94 -655.676 0)
(3936.5 -430.42 0)
(4369.76 -290.538 0)
(4654.47 -210.222 0)
(4663.74 -157.442 0)
(4217.49 -111.156 0)
(3102.88 -63.3748 0)
(1571.29 -22.5497 0)
(442.18 -3.44139 0)
(51.1197 -0.145139 0)
(1.63189 -0.00129171 0)
(0.0095988 -0.000208677 0)
(7.30807e-06 -0.000207623 0)
(2.02803e-09 -0.000207615 0)
(0 -0.000207615 0)
(0 -0.000207618 0)
(-2.10603e-09 -0.000207616 0)
(-8.00505e-06 -0.000207623 0)
(-0.0103945 -0.000207615 0)
(-1.75131 -0.000207621 0)
(-54.4827 -0.000207645 0)
(-469.232 -0.000207221 0)
(-1664.19 -0.000203898 0)
(-3289.41 -0.000192191 0)
(-4495.25 -0.000169325 0)
(-5034.46 -0.000137773 0)
(-5145.25 -0.000103067 0)
(-5033.33 -7.08203e-05 0)
(-4801.46 -4.48281e-05 0)
(-4524.1 -2.63195e-05 0)
(-4196.41 -1.46733e-05 0)
(-3298.22 -7.53856e-06 0)
(-1034.4 -3.96194e-06 0)
(95151.6 -1.00963e-06 0)
(-137998 -1.30223e-07 0)
(141395 10785.9 0)
(-95156.6 -59.1086 0)
(2364.09 -1168.29 0)
(2754.02 -1209.55 0)
(3237.52 -946.529 0)
(3655.59 -654.495 0)
(4093.79 -479.171 0)
(4479.43 -341.848 0)
(4727.21 -249.049 0)
(4721.01 -177.497 0)
(4269.86 -116.432 0)
(3148.84 -61.2886 0)
(1600.51 -19.9424 0)
(452.549 -2.85011 0)
(52.6524 -0.219151 0)
(1.69609 -0.111122 0)
(0.0100749 -0.110315 0)
(7.78774e-06 -0.110314 0)
(7.44912e-09 -0.110314 0)
(-3.21755e-09 -0.110314 0)
(-4.48507e-10 -0.110314 0)
(-4.56307e-09 -0.110314 0)
(-8.00334e-06 -0.110314 0)
(-0.0103945 -0.110314 0)
(-1.75131 -0.110314 0)
(-54.4827 -0.110308 0)
(-469.232 -0.110124 0)
(-1664.19 -0.108563 0)
(-3289.41 -0.103286 0)
(-4495.25 -0.0931853 0)
(-5034.46 -0.0791834 0)
(-5145.25 -0.0632425 0)
(-5033.33 -0.0474661 0)
(-4801.46 -0.0335555 0)
(-4524.1 -0.0224467 0)
(-4196.41 -0.0144468 0)
(-3298.22 -0.00870089 0)
(-1034.4 -0.00542307 0)
(95151.6 -0.00169725 0)
(-137998 -0.000544375 0)
(144956 3352.73 0)
(-98892.4 -10.6507 0)
(1793.2 -914.204 0)
(2784.29 -1093.77 0)
(3449.04 -896.387 0)
(3846.3 -683.609 0)
(4237.78 -518.95 0)
(4591.52 -386.907 0)
(4812.85 -285.913 0)
(4791.54 -195.552 0)
(4329.47 -117.32 0)
(3195.86 -57.587 0)
(1627.6 -22.8167 0)
(461.186 -10.5414 0)
(53.7591 -8.82775 0)
(1.73677 -8.76658 0)
(0.0103773 -8.76616 0)
(8.04435e-06 -8.76616 0)
(3.33455e-09 -8.76616 0)
(-1.73553e-09 -8.76616 0)
(-1.77453e-09 -8.76616 0)
(4.01706e-09 -8.76616 0)
(-8.0128e-06 -8.76616 0)
(-0.0103944 -8.76616 0)
(-1.7513 -8.76616 0)
(-54.4825 -8.7657 0)
(-469.23 -8.75204 0)
(-1664.19 -8.64154 0)
(-3289.4 -8.28434 0)
(-4495.23 -7.62338 0)
(-5034.43 -6.7172 0)
(-5145.22 -5.66749 0)
(-5033.31 -4.58102 0)
(-4801.44 -3.55418 0)
(-4524.08 -2.65365 0)
(-4196.39 -1.92761 0)
(-3298.21 -1.3322 0)
(-1034.4 -0.960821 0)
(95151.6 -0.368545 0)
(-137998 -0.274221 0)
(144907 -923.266 0)
(-99268.4 -142.906 0)
(1320.36 -1033.26 0)
(2771.18 -1150.23 0)
(3632.77 -975.677 0)
(4019.31 -782.005 0)
(4379.7 -599.478 0)
(4703.99 -449.808 0)
(4911.61 -340.557 0)
(4883.47 -268.926 0)
(4402.81 -214.506 0)
(3239.91 -175.684 0)
(1645.85 -157.287 0)
(466.03 -152.459 0)
(54.3627 -151.908 0)
(1.75544 -151.894 0)
(0.0104754 -151.894 0)
(8.11919e-06 -151.894 0)
(6.4741e-09 -151.894 0)
(6.66911e-09 -151.894 0)
(7.31262e-09 -151.894 0)
(4.95308e-09 -151.894 0)
(-8.0173e-06 -151.894 0)
(-0.0103917 -151.894 0)
(-1.75086 -151.894 0)
(-54.4691 -151.886 0)
(-469.112 -151.658 0)
(-1663.74 -149.906 0)
(-3288.43 -144.529 0)
(-4493.74 -135.022 0)
(-5032.57 -122.343 0)
(-5143.19 -107.698 0)
(-5031.3 -92.2063 0)
(-4799.61 -76.9057 0)
(-4522.53 -62.5635 0)
(-4195.13 -49.9643 0)
(-3297.29 -38.5841 0)
(-1033.48 -31.1977 0)
(95152.3 -14.728 0)
(-137998 -22.0436 0)
(143975 -2867.75 0)
(-98998.4 -462.363 0)
(822.503 -1378.02 0)
(2839.78 -1244.68 0)
(3803.88 -1073.03 0)
(4208.82 -952.814 0)
(4557.89 -875.563 0)
(4841.02 -825.91 0)
(4987.15 -802.005 0)
(4913.01 -806.37 0)
(4419.32 -825.853 0)
(3251 -845.434 0)
(1649.98 -859.171 0)
(466.369 -865.404 0)
(54.304 -866.481 0)
(1.75036 -866.528 0)
(0.0104177 -866.528 0)
(8.04033e-06 -866.528 0)
(-9.36015e-10 -866.528 0)
(-6.3376e-09 -866.528 0)
(-6.3376e-09 -866.528 0)
(-5.77209e-09 -866.528 0)
(-7.95435e-06 -866.528 0)
(-0.0103441 -866.528 0)
(-1.74353 -866.528 0)
(-54.2553 -866.48 0)
(-467.322 -865.179 0)
(-1657.32 -855.673 0)
(-3275.06 -828.04 0)
(-4473.85 -781.646 0)
(-5008.1 -722.176 0)
(-5116.18 -654.905 0)
(-5003.63 -583.818 0)
(-4772.87 -512.371 0)
(-4498.12 -442.885 0)
(-4173.29 -378.356 0)
(-3280.13 -316.947 0)
(-1011.41 -277.423 0)
(95160.4 -161.08 0)
(-137962 -410.891 0)
(141637 -5655.49 0)
(-97832.8 -1230.54 0)
(566.486 -1738.46 0)
(3065.08 -1654.43 0)
(3914.02 -1659.27 0)
(4209.6 -1692.37 0)
(4501.99 -1764.68 0)
(4774.88 -1858.27 0)
(4930.44 -1959.63 0)
(4860.49 -2057.18 0)
(4365.17 -2158.92 0)
(3207.8 -2252.55 0)
(1626.61 -2315.25 0)
(458.986 -2339.25 0)
(53.2792 -2342.89 0)
(1.71017 -2343.04 0)
(0.0101243 -2343.04 0)
(7.7754e-06 -2343.04 0)
(1.28702e-09 -2343.04 0)
(5.85009e-09 -2343.04 0)
(3.80256e-09 -2343.04 0)
(2.67154e-09 -2343.04 0)
(-7.73952e-06 -2343.04 0)
(-0.0100787 -2343.04 0)
(-1.70439 -2343.04 0)
(-53.1693 -2342.9 0)
(-458.698 -2339.23 0)
(-1627.96 -2313.75 0)
(-3217.1 -2243.67 0)
(-4391.73 -2132.12 0)
(-4910.44 -1995.43 0)
(-5009.86 -1845.65 0)
(-4893.95 -1690.07 0)
(-4663.8 -1534.09 0)
(-4393.39 -1380.56 0)
(-4073.78 -1233.67 0)
(-3200.02 -1092.4 0)
(-883.277 -1004.36 0)
(95023.7 -709.914 0)
(-137429 -2569.16 0)
(137124 -10145.3 0)
(-95223.8 -2322.35 0)
(414.028 -2452.31 0)
(2916.09 -2518.92 0)
(3767.32 -2662.75 0)
(4107.24 -2779.85 0)
(4398.03 -2899.16 0)
(4653.16 -3041.47 0)
(4795.48 -3207.93 0)
(4720.96 -3387.03 0)
(4231.06 -3566.18 0)
(3100.35 -3727.95 0)
(1566.44 -3839.1 0)
(439.735 -3882.69 0)
(50.6516 -3889.37 0)
(1.60894 -3889.64 0)
(0.0094031 -3889.65 0)
(7.11268e-06 -3889.65 0)
(-3.97806e-09 -3889.65 0)
(-1.81353e-09 -3889.65 0)
(1.95003e-10 -3889.65 0)
(-3.90006e-11 -3889.65 0)
(-7.10198e-06 -3889.65 0)
(-0.00938986 -3889.65 0)
(-1.60663 -3889.64 0)
(-50.5842 -3889.38 0)
(-439.24 -3882.79 0)
(-1565.24 -3839.17 0)
(-3100.03 -3725.66 0)
(-4234.64 -3554.45 0)
(-4732.04 -3354.04 0)
(-4821.92 -3142.15 0)
(-4703.41 -2927.68 0)
(-4474.63 -2715.9 0)
(-4208.62 -2509.24 0)
(-3895.6 -2309.7 0)
(-3059.15 -2122.24 0)
(-642.83 -2007.85 0)
(93652.5 -1703.13 0)
(-134689 -7544.41 0)
(129172 -15080 0)
(-90419.6 -3198.76 0)
(377.062 -3068.57 0)
(2862.29 -3116.02 0)
(3662.59 -3235.64 0)
(3981.79 -3385.28 0)
(4249.88 -3554.15 0)
(4477.33 -3744.6 0)
(4597.44 -3956.45 0)
(4515.27 -4182.15 0)
(4036.64 -4407.12 0)
(2944.8 -4610.06 0)
(1477.5 -4752.95 0)
(410.541 -4810.9 0)
(46.5777 -4820.02 0)
(1.44908 -4820.39 0)
(0.00825219 -4820.4 0)
(6.05401e-06 -4820.4 0)
(-1.17002e-09 -4820.4 0)
(1.95003e-11 -4820.4 0)
(-9.16515e-10 -4820.4 0)
(-2.63254e-09 -4820.4 0)
(-6.05961e-06 -4820.4 0)
(-0.00825303 -4820.4 0)
(-1.44885 -4820.39 0)
(-46.5602 -4820.03 0)
(-410.318 -4810.98 0)
(-1476.55 -4753.41 0)
(-2942.73 -4610.91 0)
(-4033.62 -4406.38 0)
(-4513.14 -4176.29 0)
(-4599.01 -3940.19 0)
(-4483.2 -3706.62 0)
(-4260.57 -3480.5 0)
(-4001.96 -3264.15 0)
(-3700.86 -3057.95 0)
(-2909.15 -2871.02 0)
(-479.402 -2755.29 0)
(89688.4 -2733.35 0)
(-128180 -13333.9 0)
(118811 -18096.2 0)
(-83649.2 -3583.04 0)
(493.761 -3170.42 0)
(2755.09 -3257.3 0)
(3507.85 -3404.87 0)
(3800.32 -3587.69 0)
(4051.77 -3785.11 0)
(4265.49 -4002.61 0)
(4373.84 -4231.34 0)
(4286.68 -4469.67 0)
(3818.71 -4708.24 0)
(2767.1 -4927.15 0)
(1372.9 -5086.08 0)
(375.106 -5152.68 0)
(41.5068 -5163.35 0)
(1.24773 -5163.79 0)
(0.00680765 -5163.79 0)
(4.75852e-06 -5163.79 0)
(-2.06703e-09 -5163.79 0)
(-2.8178e-09 -5163.79 0)
(-5.85009e-11 -5163.79 0)
(1.11152e-09 -5163.79 0)
(-4.75732e-06 -5163.79 0)
(-0.00681022 -5163.79 0)
(-1.24797 -5163.79 0)
(-41.5075 -5163.35 0)
(-375.047 -5152.7 0)
(-1372.45 -5086.32 0)
(-2765.61 -4928.03 0)
(-3815.82 -4710.02 0)
(-4282.81 -4472.18 0)
(-4369.34 -4232.6 0)
(-4260.44 -3999.22 0)
(-4048.24 -3774.81 0)
(-3801.44 -3567.81 0)
(-3516.77 -3369.29 0)
(-2767.5 -3195.17 0)
(-510.164 -3085.08 0)
(83458.6 -3415.84 0)
(-118592 -17290.1 0)
(107410 -18876.1 0)
(-76036.6 -3711.67 0)
(690.96 -3169.82 0)
(2636.36 -3254.47 0)
(3344.22 -3415.5 0)
(3615.38 -3592.91 0)
(3850.05 -3792.9 0)
(4047.33 -4007.31 0)
(4147.37 -4236.31 0)
(4055.71 -4471.87 0)
(3595.8 -4709.12 0)
(2580.7 -4931.42 0)
(1260.16 -5097.68 0)
(336.077 -5168.83 0)
(35.8747 -5180.22 0)
(1.02657 -5180.67 0)
(0.00526767 -5180.68 0)
(3.42105e-06 -5180.68 0)
(-2.28154e-09 -5180.68 0)
(-1.11152e-09 -5180.68 0)
(7.80013e-10 -5180.68 0)
(1.37477e-09 -5180.68 0)
(-3.4199e-06 -5180.68 0)
(-0.00526892 -5180.68 0)
(-1.02674 -5180.67 0)
(-35.8781 -5180.22 0)
(-336.081 -5168.83 0)
(-1260.05 -5097.75 0)
(-2580.12 -4931.89 0)
(-3594.34 -4710.61 0)
(-4053.08 -4474.87 0)
(-4143.25 -4240.71 0)
(-4042.05 -4013.05 0)
(-3844.85 -3799.99 0)
(-3611.19 -3599.37 0)
(-3341.77 -3418.12 0)
(-2635.28 -3247.99 0)
(-692.046 -3156.48 0)
(75999.9 -3688.18 0)
(-107397 -18665 0)
(96098.1 -19217.8 0)
(-68514.1 -3621.86 0)
(934.335 -3086.87 0)
(2518.35 -3132.6 0)
(3181.72 -3303.45 0)
(3436.64 -3490.14 0)
(3652.44 -3669.72 0)
(3838.2 -3879.58 0)
(3926.17 -4095.75 0)
(3831.06 -4322.4 0)
(3375.87 -4551.73 0)
(2392.67 -4771.15 0)
(1144.12 -4939.09 0)
(295.567 -5011.36 0)
(30.092 -5022.7 0)
(0.80718 -5023.13 0)
(0.00382238 -5023.13 0)
(2.26079e-06 -5023.13 0)
(-1.21877e-09 -5023.13 0)
(-1.16027e-09 -5023.13 0)
(3.90006e-10 -5023.13 0)
(2.57404e-09 -5023.13 0)
(-2.26082e-06 -5023.13 0)
(-0.00382269 -5023.13 0)
(-0.807239 -5023.13 0)
(-30.0938 -5022.7 0)
(-295.578 -5011.36 0)
(-1144.12 -4939.09 0)
(-2392.55 -4771.28 0)
(-3375.42 -4552.36 0)
(-3830 -4324 0)
(-3924.31 -4098.88 0)
(-3835.74 -3884.96 0)
(-3649.61 -3677.61 0)
(-3433.45 -3499.86 0)
(-3178.16 -3314.26 0)
(-2515.37 -3143.07 0)
(-934.347 -3097.48 0)
(68514.1 -3631.64 0)
(-96117 -19188.1 0)
(84380.8 -18442.8 0)
(-60492.3 -3363.62 0)
(1162.43 -2982.37 0)
(2427.66 -2950.92 0)
(2999.68 -3130.75 0)
(3262.43 -3307.21 0)
(3474.77 -3488.14 0)
(3636.79 -3672.29 0)
(3720.65 -3874.14 0)
(3616.31 -4084.48 0)
(3163.37 -4302.54 0)
(2207.43 -4516.04 0)
(1028.68 -4682.06 0)
(255.507 -4752.73 0)
(24.537 -4763.37 0)
(0.607796 -4763.75 0)
(0.00260775 -4763.75 0)
(1.37771e-06 -4763.75 0)
(1.07252e-09 -4763.75 0)
(-2.92505e-09 -4763.75 0)
(4.87508e-11 -4763.75 0)
(6.63011e-10 -4763.75 0)
(-1.37286e-06 -4763.75 0)
(-0.00260776 -4763.75 0)
(-0.607804 -4763.75 0)
(-24.5374 -4763.37 0)
(-255.512 -4752.73 0)
(-1028.7 -4682.05 0)
(-2207.45 -4516.05 0)
(-3163.32 -4302.68 0)
(-3616.09 -4084.99 0)
(-3720.18 -3875.42 0)
(-3636.1 -3674.75 0)
(-3473.75 -3491.93 0)
(-3261.06 -3312.43 0)
(-2997.95 -3137.48 0)
(-2426.38 -2959.39 0)
(-1162.85 -2991.88 0)
(60494.4 -3372.17 0)
(-84389.7 -18451.5 0)
(74067.7 -17455.1 0)
(-53615.8 -2987.54 0)
(1332.02 -2798.61 0)
(2375.36 -2736.16 0)
(2838.39 -2902.7 0)
(3092.25 -3089.92 0)
(3300.64 -3266.16 0)
(3466.25 -3443.34 0)
(3528.97 -3626.79 0)
(3418.23 -3822.21 0)
(2960 -4028.22 0)
(2026.96 -4234.29 0)
(916.04 -4395.01 0)
(217.213 -4461.44 0)
(19.4752 -4470.86 0)
(0.439541 -4471.17 0)
(0.00168103 -4471.17 0)
(7.77916e-07 -4471.17 0)
(1.06277e-09 -4471.17 0)
(-1.06277e-09 -4471.17 0)
(1.17002e-10 -4471.17 0)
(-1.15052e-09 -4471.17 0)
(-7.75021e-07 -4471.17 0)
(-0.00168101 -4471.17 0)
(-0.439538 -4471.17 0)
(-19.4752 -4470.86 0)
(-217.214 -4461.44 0)
(-916.048 -4395 0)
(-2026.98 -4234.27 0)
(-2960.04 -4028.21 0)
(-3418.27 -3822.27 0)
(-3528.99 -3627.07 0)
(-3466.19 -3443.96 0)
(-3300.46 -3267.22 0)
(-3091.9 -3091.64 0)
(-2837.96 -2905.22 0)
(-2375.06 -2739.69 0)
(-1332.12 -2802.45 0)
(53616.7 -2990.56 0)
(-74069.8 -17460.8 0)
(63713.3 -15945.4 0)
(-46368.8 -2613.53 0)
(1404.67 -2547.3 0)
(2327.36 -2537.19 0)
(2658.78 -2644.54 0)
(2912.19 -2828.32 0)
(3134.21 -2991.06 0)
(3289.27 -3180.04 0)
(3355.55 -3350.33 0)
(3229.48 -3530.5 0)
(2766.28 -3720.41 0)
(1853.98 -3915.4 0)
(809.789 -4069.21 0)
(182.417 -4130.83 0)
(15.1652 -4138.97 0)
(0.309095 -4139.21 0)
(0.00104246 -4139.21 0)
(4.15669e-07 -4139.21 0)
(2.34004e-10 -4139.21 0)
(7.41012e-10 -4139.21 0)
(-4.97258e-10 -4139.21 0)
(-1.99878e-09 -4139.21 0)
(-4.16254e-07 -4139.21 0)
(-0.00104245 -4139.21 0)
(-0.309093 -4139.21 0)
(-15.1651 -4138.97 0)
(-182.416 -4130.83 0)
(-809.791 -4069.2 0)
(-1853.99 -3915.39 0)
(-2766.31 -3720.38 0)
(-3229.54 -3530.46 0)
(-3355.63 -3350.29 0)
(-3289.33 -3180.01 0)
(-3134.24 -2991.12 0)
(-2912.22 -2828.52 0)
(-2658.79 -2645.01 0)
(-2327.35 -2537.89 0)
(-1404.6 -2548.08 0)
(46369.1 -2614.07 0)
(-63713.4 -15947 0)
(55473.5 -13334.7 0)
(-40704.9 -2204.6 0)
(1405.59 -2268.23 0)
(2281.66 -2300.99 0)
(2557.85 -2340.9 0)
(2758.32 -2380.35 0)
(2961.71 -2423.71 0)
(3120.04 -2510.18 0)
(3191.25 -2638.42 0)
(3061.62 -2778.07 0)
(2589.1 -2924.92 0)
(1690.84 -3075.69 0)
(708.438 -3197.45 0)
(149.987 -3246.4 0)
(11.4054 -3252.61 0)
(0.206839 -3252.78 0)
(0.000606301 -3252.78 0)
(2.05748e-07 -3252.78 0)
(7.80013e-10 -3252.78 0)
(-3.31505e-10 -3252.78 0)
(-5.55759e-10 -3252.78 0)
(-1.81353e-09 -3252.78 0)
(-2.0565e-07 -3252.78 0)
(-0.000606307 -3252.78 0)
(-0.206838 -3252.78 0)
(-11.4054 -3252.61 0)
(-149.987 -3246.4 0)
(-708.438 -3197.45 0)
(-1690.85 -3075.69 0)
(-2589.11 -2924.91 0)
(-3061.64 -2778.03 0)
(-3191.29 -2638.35 0)
(-3120.08 -2510.09 0)
(-2961.75 -2423.6 0)
(-2758.37 -2380.24 0)
(-2557.89 -2340.78 0)
(-2281.65 -2300.89 0)
(-1405.53 -2268.13 0)
(40705 -2204.54 0)
(-55473.4 -13334.8 0)
(48189.8 -6909.65 0)
(-35704.8 -1376.43 0)
(1311.79 -1377.44 0)
(2257.33 -1479.06 0)
(2582.31 -1474.24 0)
(2832.39 -1395.79 0)
(3009.1 -1223.35 0)
(3082.37 -979.693 0)
(3097.41 -726.081 0)
(2953.4 -575.699 0)
(2479.47 -623.617 0)
(1591.35 -855.365 0)
(645.291 -1076.97 0)
(129.266 -1153 0)
(9.01788 -1160.55 0)
(0.145305 -1160.71 0)
(0.000368311 -1160.71 0)
(1.05896e-07 -1160.71 0)
(-8.09263e-10 -1160.71 0)
(-1.46252e-10 -1160.71 0)
(-2.73004e-10 -1160.71 0)
(-2.14503e-09 -1160.71 0)
(-1.0535e-07 -1160.71 0)
(-0.000368318 -1160.71 0)
(-0.145304 -1160.71 0)
(-9.01787 -1160.55 0)
(-129.266 -1153 0)
(-645.291 -1076.97 0)
(-1591.35 -855.366 0)
(-2479.47 -623.615 0)
(-2953.41 -575.689 0)
(-3097.43 -726.056 0)
(-3082.39 -979.651 0)
(-3009.12 -1223.29 0)
(-2832.41 -1395.71 0)
(-2582.32 -1474.15 0)
(-2257.33 -1478.96 0)
(-1311.76 -1377.35 0)
(35704.8 -1376.37 0)
(-48189.7 -6909.64 0)
(44981.1 221501 0)
(-35373.9 38190.7 0)
(1306.69 38494.6 0)
(2188.37 44126.7 0)
(2638.09 50519.2 0)
(3000.1 58726.9 0)
(3362.67 66405.3 0)
(3599.23 75293.6 0)
(3580.55 83578.1 0)
(3160.35 91494 0)
(2319.6 97620.9 0)
(1253.98 100876 0)
(421.626 101675 0)
(69.4387 101710 0)
(3.97463 101706 0)
(0.0528643 101706 0)
(0.000111174 101706 0)
(3.07617e-08 101706 0)
(3.31505e-10 101706 0)
(9.94516e-10 101706 0)
(-8.48264e-10 101706 0)
(-1.76478e-09 101706 0)
(-2.8607e-08 101706 0)
(-0.000111167 101706 0)
(-0.0528643 101706 0)
(-3.97463 101706 0)
(-69.4387 101710 0)
(-421.625 101675 0)
(-1253.98 100876 0)
(-2319.6 97620.9 0)
(-3160.36 91494 0)
(-3580.56 83578.1 0)
(-3599.23 75293.6 0)
(-3362.69 66405.4 0)
(-3000.11 58726.9 0)
(-2638.1 50519.3 0)
(-2188.37 44126.8 0)
(-1306.68 38494.7 0)
(35373.9 38190.7 0)
(-44981 221502 0)
(295209 -304840 0)
(-212057 -47992.8 0)
(7031.98 -51333.3 0)
(13844.7 -59389.6 0)
(16651.5 -68596.9 0)
(18140.8 -80183 0)
(18973.4 -91575.5 0)
(19630.7 -104443 0)
(18708.7 -116761 0)
(16485.5 -128547 0)
(11520.4 -137972 0)
(5498.48 -143464 0)
(1448.99 -145237 0)
(158.928 -145472 0)
(5.08738 -145482 0)
(0.0331699 -145482 0)
(3.07018e-05 -145482 0)
(5.22608e-09 -145482 0)
(2.76904e-09 -145482 0)
(-1.01402e-09 -145482 0)
(-1.05302e-09 -145482 0)
(-1.09202e-08 -145482 0)
(-1.05302e-09 -145482 0)
(-3.0641e-05 -145482 0)
(-0.0331699 -145482 0)
(-5.08738 -145482 0)
(-158.928 -145472 0)
(-1448.99 -145237 0)
(-5498.48 -143464 0)
(-11520.4 -137972 0)
(-16485.5 -128547 0)
(-18708.7 -116761 0)
(-19630.6 -104443 0)
(-18973.4 -91575.6 0)
(-18140.8 -80183 0)
(-16651.5 -68596.9 0)
(-13844.7 -59389.6 0)
(-7031.99 -51333.3 0)
(212057 -47992.8 0)
(-295209 -304840 0)
(295209 304840 0)
(-212057 47992.8 0)
(7031.98 51333.3 0)
(13844.7 59389.6 0)
(16651.5 68596.9 0)
(18140.8 80183 0)
(18973.4 91575.5 0)
(19630.7 104443 0)
(18708.7 116761 0)
(16485.5 128547 0)
(11520.4 137972 0)
(5498.48 143464 0)
(1448.99 145237 0)
(158.928 145472 0)
(5.08738 145482 0)
(0.0331699 145482 0)
(3.06139e-05 145482 0)
(-1.89543e-08 145482 0)
(-2.22694e-08 145482 0)
(-9.75016e-09 145482 0)
(-2.53504e-09 145482 0)
(-2.49604e-09 145482 0)
(4.68008e-10 145482 0)
(-3.0655e-05 145482 0)
(-0.0331698 145482 0)
(-5.08738 145482 0)
(-158.928 145472 0)
(-1448.99 145237 0)
(-5498.48 143464 0)
(-11520.4 137972 0)
(-16485.5 128547 0)
(-18708.7 116761 0)
(-19630.6 104443 0)
(-18973.4 91575.6 0)
(-18140.8 80183 0)
(-16651.5 68596.9 0)
(-13844.7 59389.6 0)
(-7031.99 51333.3 0)
(212057 47992.8 0)
(-295209 304840 0)
(44981.1 -221501 0)
(-35373.9 -38190.7 0)
(1306.69 -38494.6 0)
(2188.37 -44126.7 0)
(2638.09 -50519.2 0)
(3000.1 -58726.9 0)
(3362.67 -66405.3 0)
(3599.23 -75293.6 0)
(3580.55 -83578.1 0)
(3160.35 -91494 0)
(2319.6 -97620.9 0)
(1253.98 -100876 0)
(421.626 -101675 0)
(69.4387 -101710 0)
(3.97463 -101706 0)
(0.0528643 -101706 0)
(0.000111169 -101706 0)
(2.97575e-08 -101706 0)
(2.73004e-10 -101706 0)
(9.16515e-10 -101706 0)
(-1.07252e-09 -101706 0)
(-3.59781e-09 -101706 0)
(-2.95235e-08 -101706 0)
(-0.000111166 -101706 0)
(-0.0528643 -101706 0)
(-3.97463 -101706 0)
(-69.4387 -101710 0)
(-421.625 -101675 0)
(-1253.98 -100876 0)
(-2319.6 -97620.9 0)
(-3160.36 -91494 0)
(-3580.56 -83578.1 0)
(-3599.23 -75293.6 0)
(-3362.69 -66405.4 0)
(-3000.11 -58726.9 0)
(-2638.1 -50519.3 0)
(-2188.37 -44126.8 0)
(-1306.68 -38494.7 0)
(35373.9 -38190.7 0)
(-44981 -221502 0)
(48189.8 6909.65 0)
(-35704.8 1376.43 0)
(1311.79 1377.44 0)
(2257.33 1479.06 0)
(2582.31 1474.24 0)
(2832.39 1395.79 0)
(3009.1 1223.35 0)
(3082.37 979.693 0)
(3097.41 726.081 0)
(2953.4 575.699 0)
(2479.47 623.617 0)
(1591.35 855.365 0)
(645.291 1076.97 0)
(129.266 1153 0)
(9.01788 1160.55 0)
(0.145305 1160.71 0)
(0.000368308 1160.71 0)
(1.07798e-07 1160.71 0)
(-4.38757e-10 1160.71 0)
(0 1160.71 0)
(3.12005e-10 1160.71 0)
(-7.21512e-10 1160.71 0)
(-1.0498e-07 1160.71 0)
(-0.000368317 1160.71 0)
(-0.145304 1160.71 0)
(-9.01787 1160.55 0)
(-129.266 1153 0)
(-645.291 1076.97 0)
(-1591.35 855.366 0)
(-2479.47 623.615 0)
(-2953.41 575.689 0)
(-3097.43 726.056 0)
(-3082.39 979.651 0)
(-3009.12 1223.29 0)
(-2832.41 1395.71 0)
(-2582.32 1474.15 0)
(-2257.33 1478.96 0)
(-1311.76 1377.35 0)
(35704.8 1376.37 0)
(-48189.7 6909.64 0)
(55473.5 13334.7 0)
(-40704.9 2204.6 0)
(1405.59 2268.23 0)
(2281.66 2300.99 0)
(2557.85 2340.9 0)
(2758.32 2380.35 0)
(2961.71 2423.71 0)
(3120.04 2510.18 0)
(3191.25 2638.42 0)
(3061.62 2778.07 0)
(2589.1 2924.92 0)
(1690.84 3075.69 0)
(708.438 3197.45 0)
(149.987 3246.4 0)
(11.4054 3252.61 0)
(0.206839 3252.78 0)
(0.000606301 3252.78 0)
(2.06362e-07 3252.78 0)
(-3.41256e-10 3252.78 0)
(0 3252.78 0)
(-5.85009e-11 3252.78 0)
(-1.63803e-09 3252.78 0)
(-2.05485e-07 3252.78 0)
(-0.000606302 3252.78 0)
(-0.206838 3252.78 0)
(-11.4054 3252.61 0)
(-149.987 3246.4 0)
(-708.438 3197.45 0)
(-1690.85 3075.69 0)
(-2589.11 2924.91 0)
(-3061.64 2778.03 0)
(-3191.29 2638.35 0)
(-3120.08 2510.09 0)
(-2961.75 2423.6 0)
(-2758.37 2380.24 0)
(-2557.89 2340.78 0)
(-2281.65 2300.89 0)
(-1405.53 2268.13 0)
(40705 2204.54 0)
(-55473.4 13334.8 0)
(63713.3 15945.4 0)
(-46368.8 2613.53 0)
(1404.67 2547.3 0)
(2327.36 2537.19 0)
(2658.78 2644.54 0)
(2912.19 2828.32 0)
(3134.21 2991.06 0)
(3289.27 3180.04 0)
(3355.55 3350.33 0)
(3229.48 3530.5 0)
(2766.28 3720.41 0)
(1853.98 3915.4 0)
(809.789 4069.21 0)
(182.417 4130.83 0)
(15.1652 4138.97 0)
(0.309095 4139.21 0)
(0.00104246 4139.21 0)
(4.15747e-07 4139.21 0)
(1.03352e-09 4139.21 0)
(1.56003e-10 4139.21 0)
(-3.02255e-10 4139.21 0)
(1.95003e-10 4139.21 0)
(-4.18867e-07 4139.21 0)
(-0.00104245 4139.21 0)
(-0.309093 4139.21 0)
(-15.1651 4138.97 0)
(-182.416 4130.83 0)
(-809.791 4069.2 0)
(-1853.99 3915.39 0)
(-2766.31 3720.38 0)
(-3229.54 3530.46 0)
(-3355.63 3350.29 0)
(-3289.33 3180.01 0)
(-3134.24 2991.12 0)
(-2912.22 2828.52 0)
(-2658.79 2645.01 0)
(-2327.35 2537.89 0)
(-1404.6 2548.08 0)
(46369.1 2614.07 0)
(-63713.4 15947 0)
(74067.7 17455.1 0)
(-53615.8 2987.54 0)
(1332.02 2798.61 0)
(2375.36 2736.16 0)
(2838.39 2902.7 0)
(3092.25 3089.92 0)
(3300.64 3266.16 0)
(3466.25 3443.34 0)
(3528.97 3626.79 0)
(3418.23 3822.21 0)
(2960 4028.22 0)