/*--------------------------------*- C++ -*----------------------------------*\
| =========                 |                                                 |
| \\      /  F ield         | OpenFOAM: The Open Source CFD Toolbox           |
|  \\    /   O peration     | Version:  v1912                                 |
|   \\  /    A nd           | Website:  www.openfoam.com                      |
|    \\/     M anipulation  |                                                 |
\*---------------------------------------------------------------------------*/
FoamFile
{
    version     2.0;
    format      ascii;
    class       volScalarField;
    location    "3.56";
    object      T;
}
// * * * * * * * * * * * * * * * * * * * * * * * * * * * * * * * * * * * * * //

dimensions      [0 0 0 1 0 0 0];


internalField   nonuniform List<scalar> 
1900
(
1.16413
1.02407
1.03297
1.04183
1.04477
1.04511
1.04469
1.04349
1.04254
1.04339
1.16413
1.02408
1.03298
1.04181
1.04477
1.04515
1.0445
1.04303
1.04135
1.04014
1.16413
1.02408
1.03299
1.04179
1.04473
1.04511
1.04425
1.04293
1.04166
1.04027
1.16413
1.02408
1.03298
1.04181
1.04477
1.04515
1.0445
1.04303
1.04135
1.04014
1.16413
1.02407
1.03297
1.04183
1.04477
1.04511
1.04469
1.04349
1.04254
1.04339
1.03795
1.03246
1.01661
0.9816
0.9223
1.03631
1.03
1.01129
0.978625
0.934006
1.03675
1.02959
1.01008
0.975178
0.930224
1.03631
1.03
1.01129
0.978625
0.934006
1.03795
1.03246
1.01661
0.9816
0.9223
0.943216
0.891821
0.863877
0.844323
0.827753
0.938401
0.891505
0.864843
0.845626
0.82827
0.937513
0.891391
0.864711
0.844414
0.827181
0.938401
0.891505
0.864843
0.845626
0.82827
0.943216
0.891821
0.863877
0.844323
0.827753
0.772532
0.672991
0.728994
0.75816
0.74285
0.726909
0.715026
0.711353
0.71191
0.712385
0.713604
0.714536
0.715142
0.715309
0.715185
0.714927
0.714645
0.714397
0.714198
0.713899
0.713559
0.713133
0.712522
0.711772
0.710756
0.70935
0.707405
0.704744
0.701212
0.696731
0.691339
0.68526
0.678804
0.67268
0.667228
0.663434
0.660728
0.657711
0.602756
0.505114
0.821125
0.706121
0.740802
0.76182
0.745073
0.727555
0.715229
0.711453
0.711961
0.712442
0.713642
0.714562
0.715164
0.71533
0.715205
0.714947
0.714665
0.714416
0.714216
0.713917
0.713577
0.713151
0.712539
0.711789
0.710771
0.709365
0.70742
0.704758
0.701226
0.696746
0.691354
0.685274
0.678816
0.67269
0.667231
0.663458
0.66075
0.657733
0.602556
0.504532
0.816313
0.728161
0.750154
0.764801
0.746283
0.727895
0.715343
0.711521
0.712013
0.71248
0.71367
0.714581
0.715179
0.715342
0.715216
0.714957
0.714673
0.714424
0.714224
0.713925
0.713585
0.713158
0.712547
0.711796
0.710779
0.709374
0.707429
0.704769
0.701241
0.696764
0.691379
0.685307
0.678859
0.672746
0.667305
0.663564
0.660894
0.657904
0.602841
0.506842
0.821125
0.706121
0.740802
0.76182
0.745073
0.727555
0.715229
0.711453
0.711961
0.712442
0.713642
0.714562
0.715164
0.71533
0.715205
0.714947
0.714665
0.714416
0.714216
0.713917
0.713577
0.713151
0.712539
0.711789
0.710771
0.709365
0.70742
0.704758
0.701226
0.696746
0.691354
0.685274
0.678816
0.67269
0.667231
0.663458
0.66075
0.657733
0.602556
0.504532
0.772532
0.672991
0.728994
0.75816
0.74285
0.726909
0.715026
0.711353
0.71191
0.712385
0.713604
0.714536
0.715142
0.715309
0.715185
0.714927
0.714645
0.714397
0.714198
0.713899
0.713559
0.713133
0.712522
0.711772
0.710756
0.70935
0.707405
0.704744
0.701212
0.696731
0.691339
0.68526
0.678804
0.67268
0.667228
0.663434
0.660728
0.657711
0.602756
0.505114
0.599667
0.62266
0.71609
0.744477
0.735509
0.723891
0.713734
0.710749
0.711398
0.711995
0.713303
0.714308
0.714942
0.715129
0.71502
0.714774
0.714501
0.71426
0.714067
0.713772
0.713433
0.713008
0.712397
0.711646
0.710626
0.709216
0.707265
0.704596
0.701055
0.696565
0.691163
0.685082
0.678633
0.67252
0.667096
0.66324
0.660555
0.65756
0.603643
0.510543
0.50273
0.624716
0.708378
0.722925
0.721676
0.716356
0.71056
0.709131
0.710023
0.710991
0.71256
0.713732
0.714444
0.71468
0.714607
0.714391
0.714142
0.71392
0.713742
0.713456
0.713122
0.7127
0.712087
0.711333
0.710306
0.708886
0.706919
0.704228
0.700658
0.696133
0.690695
0.684582
0.678133
0.672013
0.666603
0.662639
0.659885
0.656912
0.60355
0.504977
0.488197
0.633577
0.697346
0.707552
0.710229
0.708366
0.706457
0.706499
0.707879
0.709554
0.71139
0.712777
0.713603
0.713922
0.713908
0.713739
0.71353
0.713336
0.713184
0.712911
0.712581
0.712163
0.711549
0.710788
0.70975
0.70831
0.706318
0.703591
0.699975
0.695398
0.689909
0.683748
0.677303
0.671178
0.66577
0.661674
0.658819
0.655904
0.60389
0.505314
0.495958
0.632002
0.687307
0.695007
0.699934
0.701152
0.701775
0.703199
0.705243
0.707602
0.709783
0.711418
0.712397
0.712831
0.712906
0.712803
0.71265
0.712495
0.712376
0.712121
0.711798
0.711385
0.710767
0.709997
0.70894
0.707477
0.705442
0.702668
0.698995
0.694334
0.688776
0.682551
0.676106
0.669954
0.664502
0.660244
0.657249
0.654464
0.604222
0.503325
0.488843
0.627442
0.677367
0.685136
0.691018
0.694382
0.696749
0.699373
0.702158
0.705115
0.707679
0.709589
0.710755
0.71134
0.711524
0.71152
0.711435
0.711331
0.711254
0.711021
0.710705
0.710297
0.709673
0.708887
0.707811
0.706299
0.704232
0.701376
0.697617
0.692864
0.687223
0.68089
0.674425
0.668241
0.662706
0.658258
0.655108
0.652516
0.604985
0.500709
0.486612
0.621928
0.667941
0.676231
0.682912
0.687723
0.69138
0.694989
0.698503
0.702006
0.704972
0.707177
0.708575
0.70932
0.709674
0.709781
0.709789
0.709745
0.709719
0.70951
0.709201
0.708801
0.708166
0.707361
0.706241
0.704704
0.702522
0.699624
0.695742
0.690817
0.685091
0.678622
0.672115
0.665794
0.660139
0.655374
0.652024
0.649528
0.604381
0.496837
0.484613
0.616412
0.660161
0.668646
0.675736
0.681251
0.685706
0.690052
0.694168
0.698149
0.701499
0.704013
0.705639
0.706647
0.707158
0.707432
0.70755
0.707582
0.707613
0.70743
0.70713
0.706735
0.706083
0.705246
0.704086
0.702448
0.700242
0.69715
0.693173
0.688091
0.682238
0.675575
0.669066
0.66265
0.656867
0.651809
0.648234
0.645881
0.60319
0.492512
0.479935
0.609687
0.651848
0.659741
0.667442
0.673649
0.678902
0.684002
0.688711
0.693168
0.696934
0.69981
0.701787
0.703044
0.703811
0.704265
0.704516
0.704641
0.704737
0.704583
0.704292
0.703899
0.703223
0.702339
0.701114
0.699401
0.697027
0.693808
0.689657
0.684196
0.678219
0.671265
0.664536
0.657886
0.651772
0.646263
0.642035
0.63977
0.598604
0.487339
0.475684
0.602895
0.643981
0.651349
0.659401
0.666162
0.67204
0.677625
0.682661
0.687389
0.691466
0.694605
0.696886
0.698413
0.69944
0.700095
0.700509
0.700736
0.700905
0.700785
0.700502
0.700104
0.699392
0.698455
0.697138
0.695323
0.692807
0.689438
0.685118
0.679446
0.673222
0.666078
0.659212
0.652405
0.645967
0.640063
0.635288
0.632896
0.59324
0.482024
0.471417
0.595777
0.635619
0.642238
0.650011
0.657033
0.663479
0.669435
0.674826
0.679853
0.68432
0.687934
0.690647
0.692606
0.693959
0.694865
0.695454
0.695797
0.696042
0.69596
0.695686
0.695276
0.694516
0.693506
0.69209
0.69011
0.687422
0.683694
0.679147
0.673021
0.666564
0.659215
0.652193
0.645252
0.63859
0.632344
0.627215
0.624755
0.586519
0.476654
0.467326
0.588777
0.627308
0.633489
0.641059
0.6483
0.655139
0.661301
0.666896
0.672063
0.676871
0.680758
0.683828
0.686059
0.687637
0.688751
0.689488
0.68994
0.690255
0.690213
0.689948
0.689519
0.688715
0.68764
0.686147
0.684058
0.68127
0.677398
0.672688
0.666362
0.659688
0.652268
0.645171
0.638178
0.63137
0.624831
0.619403
0.616909
0.580595
0.471735
0.463486
0.582102
0.619306
0.625309
0.632472
0.639793
0.64667
0.652824
0.658454
0.663638
0.668661
0.67283
0.676314
0.678891
0.680778
0.682102
0.682978
0.683526
0.683895
0.683886
0.683632
0.683186
0.682349
0.681224
0.67966
0.677475
0.674542
0.67049
0.665669
0.659151
0.652423
0.645069
0.637994
0.630989
0.624095
0.617316
0.611652
0.609197
0.574554
0.467149
0.460265
0.575714
0.611414
0.617189
0.624254
0.631666
0.638456
0.644606
0.650268
0.655582
0.660837
0.665336
0.669148
0.671946
0.674016
0.675453
0.676404
0.676983
0.677371
0.67737
0.677127
0.676697
0.675869
0.674764
0.673196
0.671002
0.66806
0.663915
0.659045
0.65234
0.645525
0.638181
0.631093
0.624042
0.617035
0.610042
0.604143
0.601674
0.569014
0.463242
0.457098
0.569755
0.603896
0.609289
0.616223
0.623775
0.630357
0.636539
0.642265
0.647745
0.65332
0.658069
0.662267
0.665396
0.667727
0.669331
0.670378
0.671007
0.671416
0.671424
0.671194
0.670781
0.669962
0.66886
0.667277
0.665018
0.662013
0.657634
0.65265
0.645803
0.638885
0.631469
0.624307
0.617136
0.609966
0.602736
0.596594
0.594136
0.563303
0.459467
0.454875
0.563532
0.596109
0.601177
0.608021
0.615661
0.622264
0.628576
0.634401
0.640229
0.646179
0.651417
0.656214
0.659603
0.662206
0.664008
0.665181
0.665871
0.666293
0.666279
0.666066
0.665711
0.664917
0.663808
0.662176
0.659791
0.656709
0.652106
0.646836
0.639647
0.632479
0.624926
0.617625
0.610287
0.602901
0.595434
0.589031
0.586566
0.557723
0.456795
0.451848
0.558117
0.588723
0.593229
0.600029
0.607762
0.614479
0.621016
0.627001
0.633208
0.639705
0.645508
0.650852
0.654758
0.657759
0.659858
0.661244
0.662104
0.662664
0.662725
0.662533
0.662143
0.661254
0.660029
0.658249
0.655649
0.652337
0.647262
0.641654
0.634081
0.626565
0.618731
0.611174
0.603579
0.595952
0.588275
0.581554
0.579265
0.552677
0.453711
0.452501
0.553042
0.581613
0.585815
0.592804
0.600707
0.607684
0.614535
0.620859
0.627486
0.634489
0.641028
0.647061
0.651273
0.654597
0.656908
0.658474
0.659463
0.660077
0.660139
0.659973
0.659617
0.658701
0.657384
0.655476
0.652684
0.649228
0.643867
0.637852
0.629826
0.62189
0.613774
0.605945
0.598104
0.590217
0.582249
0.575284
0.573437
0.548963
0.45502
0.45852
0.553025
0.581724
0.584422
0.59061
0.597977
0.604866
0.611718
0.618169
0.625088
0.632265
0.638853
0.644881
0.648938
0.652135
0.654215
0.655599
0.656489
0.657115
0.657356
0.657191
0.656668
0.655755
0.654551
0.652849
0.650252
0.647048
0.641752
0.635813
0.627881
0.619982
0.611912
0.604108
0.596316
0.588482
0.580665
0.574092
0.572922
0.549104
0.461883
0.441678
0.532284
0.561769
0.562441
0.565602
0.570234
0.574459
0.579164
0.583195
0.588408
0.593668
0.598566
0.602538
0.603846
0.604502
0.603757
0.603049
0.602383
0.602123
0.603822
0.603644
0.601684
0.601691
0.601971
0.602557
0.602247
0.601978
0.599075
0.595351
0.589057
0.582959
0.576483
0.570687
0.56476
0.559057
0.553535
0.549362
0.54938
0.524568
0.43452
0.381829
0.43892
0.469293
0.461557
0.4596
0.461509
0.463277
0.466468
0.469865
0.474281
0.478942
0.483973
0.488787
0.493254
0.497046
0.500273
0.502325
0.504172
0.504441
0.505968
0.505962
0.504382
0.504093
0.502158
0.500095
0.496673
0.492871
0.488142
0.483207
0.477917
0.472876
0.468062
0.463957
0.46002
0.457281
0.453926
0.455114
0.462002
0.435674
0.378145
0.381829
0.43892
0.469293
0.461557
0.4596
0.461509
0.463277
0.466468
0.469865
0.474281
0.478942
0.483973
0.488787
0.493254
0.497046
0.500273
0.502325
0.504172
0.504441
0.505968
0.505962
0.504382
0.504093
0.502158
0.500095
0.496673
0.492871
0.488142
0.483207
0.477917
0.472876
0.468062
0.463957
0.46002
0.457281
0.453926
0.455114
0.462002
0.435674
0.378145
0.441678
0.532284
0.561769
0.562441
0.565602
0.570234
0.574459
0.579164
0.583195
0.588408
0.593668
0.598566
0.602538
0.603846
0.604502
0.603757
0.603049
0.602383
0.602123
0.603822
0.603644
0.601684
0.601691
0.601971
0.602557
0.602247
0.601978
0.599075
0.595351
0.589057
0.582959
0.576483
0.570687
0.56476
0.559057
0.553535
0.549362
0.54938
0.524568
0.43452
0.45852
0.553025
0.581724
0.584422
0.59061
0.597977
0.604866
0.611718
0.618169
0.625088
0.632265
0.638853
0.644881
0.648938
0.652135
0.654215
0.655599
0.656489
0.657115
0.657356
0.657191
0.656668
0.655755
0.654551
0.652849
0.650252
0.647048
0.641752
0.635813
0.627881
0.619982
0.611912
0.604108
0.596316
0.588482
0.580665
0.574092
0.572922
0.549104
0.461883
0.452501
0.553042
0.581613
0.585815
0.592804
0.600707
0.607684
0.614535
0.620859
0.627486
0.634489
0.641028
0.647061
0.651273
0.654597
0.656908
0.658474
0.659463
0.660077
0.660139
0.659973
0.659617
0.658701
0.657384
0.655476
0.652684
0.649228
0.643867
0.637852
0.629826
0.62189
0.613774
0.605945
0.598104
0.590217
0.582249
0.575284
0.573437
0.548963
0.45502
0.451848
0.558117
0.588723
0.593229
0.600029
0.607762
0.614479
0.621016
0.627001
0.633208
0.639705
0.645508
0.650852
0.654758
0.657759
0.659858
0.661244
0.662104
0.662664
0.662725
0.662533
0.662143
0.661254
0.660029
0.658249
0.655649
0.652337
0.647262
0.641654
0.634081
0.626565
0.618731
0.611174
0.603579
0.595952
0.588275
0.581554
0.579265
0.552677
0.453711
0.454875
0.563532
0.596109
0.601177
0.608021
0.615661
0.622264
0.628576
0.634401
0.640229
0.646179
0.651417
0.656214
0.659603
0.662206
0.664008
0.665181
0.665871
0.666293
0.666279
0.666066
0.665711
0.664917
0.663808
0.662176
0.659791
0.656709
0.652106
0.646836
0.639647
0.632479
0.624926
0.617625
0.610287
0.602901
0.595434
0.589031
0.586566
0.557723
0.456795
0.457098
0.569755
0.603896
0.609289
0.616223
0.623775
0.630357
0.636539
0.642265
0.647745
0.65332
0.658069
0.662267
0.665396
0.667727
0.669331
0.670378
0.671007
0.671416
0.671424
0.671194
0.670781
0.669962
0.66886
0.667277
0.665018
0.662013
0.657634
0.65265
0.645803
0.638885
0.631469
0.624307
0.617136
0.609966
0.602736
0.596594
0.594136
0.563303
0.459467
0.460265
0.575714
0.611414
0.617189
0.624254
0.631666
0.638456
0.644606
0.650268
0.655582
0.660837
0.665336
0.669148
0.671946
0.674016
0.675453
0.676404
0.676983
0.677371
0.67737
0.677127
0.676697
0.675869
0.674764
0.673196
0.671002
0.66806
0.663915
0.659045
0.65234
0.645525
0.638181
0.631093
0.624042
0.617035
0.610042
0.604143
0.601674
0.569014
0.463242
0.463486
0.582102
0.619306
0.625309
0.632472
0.639793
0.64667
0.652824
0.658454
0.663638
0.668661
0.67283
0.676314
0.678891
0.680778
0.682102
0.682978
0.683526
0.683895
0.683886
0.683632
0.683186
0.682349
0.681224
0.67966
0.677475
0.674542
0.67049
0.665669
0.659151
0.652423
0.645069
0.637994
0.630989
0.624095
0.617316
0.611652
0.609197
0.574554
0.467149
0.467326
0.588777
0.627308
0.633489
0.641059
0.6483
0.655139
0.661301
0.666896
0.672063
0.676871
0.680758
0.683828
0.686059
0.687637
0.688751
0.689488
0.68994
0.690255
0.690213
0.689948
0.689519
0.688715
0.68764
0.686147
0.684058
0.68127
0.677398
0.672688
0.666362
0.659688
0.652268
0.645171
0.638178
0.63137
0.624831
0.619403
0.616909
0.580595
0.471735
0.471417
0.595777
0.635619
0.642238
0.650011
0.657033
0.663479
0.669435
0.674826
0.679853
0.68432
0.687934
0.690647
0.692606
0.693959
0.694865
0.695454
0.695797
0.696042
0.69596
0.695686
0.695276
0.694516
0.693506
0.69209
0.69011
0.687422
0.683694
0.679147
0.673021
0.666564
0.659215
0.652193
0.645252
0.63859
0.632344
0.627215
0.624755
0.586519
0.476654
0.475684
0.602895
0.643981
0.651349
0.659401
0.666162
0.67204
0.677625
0.682661
0.687389
0.691466
0.694605
0.696886
0.698413
0.69944
0.700095
0.700509
0.700736
0.700905
0.700785
0.700502
0.700104
0.699392
0.698455
0.697138
0.695323
0.692807
0.689438
0.685118
0.679446
0.673222
0.666078
0.659212
0.652405
0.645967
0.640063
0.635288
0.632896
0.59324
0.482024
0.479935
0.609687
0.651848
0.659741
0.667442
0.673649
0.678902
0.684002
0.688711
0.693168
0.696934
0.69981
0.701787
0.703044
0.703811
0.704265
0.704516
0.704641
0.704737
0.704583
0.704292
0.703899
0.703223
0.702339
0.701114
0.699401
0.697027
0.693808
0.689657
0.684196
0.678219
0.671265
0.664536
0.657886
0.651772
0.646263
0.642035
0.63977
0.598604
0.487339
0.484613
0.616412
0.660161
0.668646
0.675736
0.681251
0.685706
0.690052
0.694168
0.698149
0.701499
0.704013
0.705639
0.706647
0.707158
0.707432
0.70755
0.707582
0.707613
0.70743
0.70713
0.706735
0.706083
0.705246
0.704086
0.702448
0.700242
0.69715
0.693173
0.688091
0.682238
0.675575
0.669066
0.66265
0.656867
0.651809
0.648234
0.645881
0.60319
0.492512
0.486612
0.621928
0.667941
0.676231
0.682912
0.687723
0.69138
0.694989
0.698503
0.702006
0.704972
0.707177
0.708575
0.70932
0.709674
0.709781
0.709789
0.709745
0.709719
0.70951
0.709201
0.708801
0.708166
0.707361
0.706241
0.704704
0.702522
0.699624
0.695742
0.690817
0.685091
0.678622
0.672115
0.665794
0.660139
0.655374
0.652024
0.649528
0.604381
0.496837
0.488843
0.627442
0.677367
0.685136
0.691018
0.694382
0.696749
0.699373
0.702158
0.705115
0.707679
0.709589
0.710755
0.71134
0.711524
0.71152
0.711435
0.711331
0.711254
0.711021
0.710705
0.710297
0.709673
0.708887
0.707811
0.706299
0.704232
0.701376
0.697617
0.692864
0.687223
0.68089
0.674425
0.668241
0.662706
0.658258
0.655108
0.652516
0.604985
0.500709
0.495958
0.632002
0.687307
0.695007
0.699934
0.701152
0.701775
0.703199
0.705243
0.707602
0.709783
0.711418
0.712397
0.712831
0.712906
0.712803
0.71265
0.712495
0.712376
0.712121
0.711798
0.711385
0.710767
0.709997
0.70894
0.707477
0.705442
0.702668
0.698995
0.694334
0.688776
0.682551
0.676106
0.669954
0.664502
0.660244
0.657249
0.654464
0.604222
0.503325
0.488197
0.633577
0.697346
0.707552
0.710229
0.708366
0.706457
0.706499
0.707879
0.709554
0.71139
0.712777
0.713603
0.713922
0.713908
0.713739
0.71353
0.713336
0.713184
0.712911
0.712581
0.712163
0.711549
0.710788
0.70975
0.70831
0.706318
0.703591
0.699975
0.695398
0.689909
0.683748
0.677303
0.671178
0.66577
0.661674
0.658819
0.655904
0.60389
0.505314
0.50273
0.624716
0.708378
0.722925
0.721676
0.716356
0.71056
0.709131
0.710023
0.710991
0.71256
0.713732
0.714444
0.71468
0.714607
0.714391
0.714142
0.71392
0.713742
0.713456
0.713122
0.7127
0.712087
0.711333
0.710306
0.708886
0.706919
0.704228
0.700658
0.696133
0.690695
0.684582
0.678133
0.672013
0.666603
0.662639
0.659885
0.656912
0.60355
0.504977
0.599667
0.62266
0.71609
0.744477
0.735509
0.723891
0.713734
0.710749
0.711398
0.711995
0.713303
0.714308
0.714942
0.715129
0.71502
0.714774
0.714501
0.71426
0.714067
0.713772
0.713433
0.713008
0.712397
0.711646
0.710626
0.709216
0.707265
0.704596
0.701055
0.696565
0.691163
0.685082
0.678633
0.67252
0.667096
0.66324
0.660555
0.65756
0.603643
0.510543
)
;

boundaryField
{
    inlet
    {
        type            fixedValue;
        value           uniform 1;
    }
    outlet
    {
        type            zeroGradient;
    }
    obstacle
    {
        type            zeroGradient;
    }
    empty
    {
        type            empty;
    }
}


// ************************************************************************* //
