/*--------------------------------*- C++ -*----------------------------------*\
| =========                 |                                                 |
| \\      /  F ield         | OpenFOAM: The Open Source CFD Toolbox           |
|  \\    /   O peration     | Version:  v1912                                 |
|   \\  /    A nd           | Website:  www.openfoam.com                      |
|    \\/     M anipulation  |                                                 |
\*---------------------------------------------------------------------------*/
FoamFile
{
    version     2.0;
    format      ascii;
    class       volScalarField;
    location    "0.00036";
    object      linearKEMean;
}
// * * * * * * * * * * * * * * * * * * * * * * * * * * * * * * * * * * * * * //

dimensions      [1 -1 -2 0 0 0 0];


internalField   nonuniform List<scalar> 
1300
(
1779.967742
2045.215665
13712.68105
81187.66514
44980.44976
13431.28815
26952.00397
33563.93096
22602.74936
19798.39462
3062.714934
3361.717939
26251.9681
158211.6817
83613.21635
22952.3486
52437.53
62707.39602
41424.83126
32918.93465
1581.071043
2141.630381
28984.67364
176191.3281
96219.51773
29095.61601
68860.33802
99021.82083
62886.26969
52800.69746
1182.964432
1302.367934
26346.80105
173641.3135
93804.11785
31432.70878
78537.41775
125033.0767
78646.46476
64767.96905
811.9120869
1199.84112
29094.30663
169679.3249
96335.79079
26125.13315
75988.66252
118083.6246
92994.6438
73666.35203
532.5080066
766.3816865
27364.28899
171740.4968
94784.76496
27490.26414
72775.06851
116680.5456
89671.33612
73909.24933
443.8758436
783.715205
28830.12287
172497.8311
93247.39705
25719.77546
71034.54961
110111.2623
88294.3216
72014.69453
423.3829529
607.6165484
28434.78239
171737.1751
94560.90851
27537.89178
72189.69071
116328.0405
82480.79903
67380.79544
276.4399461
528.4415774
28166.61349
175941.3155
90309.97507
26335.6817
73385.60373
113141.1345
81702.26529
67385.92853
208.6134879
505.8759058
28613.50217
169967.5582
96265.65164
27358.50838
68278.92588
113181.1874
83335.28738
62970.22483
222.0279633
440.2338772
29057.14663
171613.5677
95040.04964
27425.32599
70477.93926
116625.0817
85555.65462
68192.50548
115.1471403
518.1550978
28189.41148
168817.9509
91503.90349
24947.56787
71516.92714
111898.8185
82128.91432
66823.22373
105.4774709
492.025723
26765.37268
170788.6222
95692.42784
26171.22198
67888.11636
113039.4586
81952.24306
66591.94971
102.3612551
357.8506345
28854.98626
172288.464
95441.71672
25685.56668
69382.83819
111882.7951
85697.9458
66047.09256
54.61135753
408.0692005
28488.68431
167491.202
96711.13056
26606.54336
68790.54706
115692.84
84493.50046
64842.62529
84.54783823
451.2893942
29906.0508
170879.9229
91847.06074
29130.50444
70493.67852
111416.2794
84912.31613
67475.19553
93.22343935
413.6325157
28553.45231
168700.5841
93333.3874
28643.2211
70691.50764
107406.9392
87248.56169
65457.33712
58.613205
243.1836891
29500.52551
172367.5345
93771.11098
27142.39719
69535.94625
113049.0972
87203.37235
64226.33988
51.17901817
484.7502553
27347.01002
169326.4608
93439.52101
26590.9447
69604.28853
110060.2252
83415.0937
64990.47696
28.90181172
326.0777851
25287.62021
160454.4747
94227.10922
28971.35093
68484.22013
105069.2584
83481.21468
66756.92826
20380.45851
18892.34332
18651.14853
17154.49371
16444.73981
15877.49265
16667.63386
17531.7269
15625.90848
15722.12791
15608.88389
15939.28659
15318.25256
16362.79671
16355.45404
15694.36499
16558.67209
15273.73721
15948.11159
15285.24329
15248.82557
16072.26536
15097.62384
15427.16054
15675.08833
15420.92563
16115.79336
16453.58593
16419.631
16389.37458
33908.7247
29411.65927
25398.488
24540.23483
24136.46003
22576.4672
20623.92886
21780.55637
19853.27013
20263.68447
20127.81172
18535.97258
20802.8056
19082.06551
18596.92516
17960.80384
16813.79553
17540.43305
17495.70416
18512.81754
16762.73843
16824.31339
18160.48259
17130.24785
16578.3852
17589.30408
17129.77527
16301.06861
16177.24051
16965.71756
53112.71359
49066.61216
40233.8541
36478.82215
34175.2958
31751.55649
30093.12604
27957.60695
28087.10901
25405.66688
24667.14613
23994.48533
23304.19347
22622.14937
22675.50566
22643.06055
21673.21654
21413.37412
20793.32679
19903.63673
20485.66726
20483.79954
18209.97054
18538.12309
18436.70019
18279.37183
18089.64771
18551.05252
18656.45762
17991.72368
70843.46858
71850.90626
57137.7688
52018.05066
51401.90882
43257.31493
40873.71004
38983.21646
35595.498
33787.1244
33635.08069
30366.25427
29925.72051
28272.23127
27741.56319
26985.27275
25250.9865
25551.94429
24705.65813
24416.73155
24228.41137
23734.1996
22867.98441
22678.37702
23046.43647
20623.44006
20826.02266
22221.77399
19653.35384
19697.27796
89149.43185
90766.52766
73214.45575
68703.02149
66719.12619
59077.39402
54831.28226
51586.67119
48821.5824
42365.20821
40872.10024
40172.55977
37645.37922
35691.9483
33811.86597
33094.5516
32507.61834
30008.26197
30028.82273
28283.35605
27708.75585
26723.69454
25093.13483
26816.90722
24130.76678
25877.28316
24920.81844
22901.60004
21966.43056
21548.44089
84663.12273
99001.33739
87100.35153
83256.80502
79196.91647
74593.38321
68009.65149
64304.63024
58374.15559
57065.81153
52838.43879
49792.027
48051.73389
45242.15777
44096.33517
39350.44288
40669.76233
36171.22225
35120.78167
36866.61677
33371.03335
31921.51319
31512.74809
29278.51122
30344.55972
28420.28813
28381.69602
26730.25866
25159.29906
26695.874
81438.43731
100746.9677
95043.27608
90286.33591
91376.51505
90259.1824
82848.12759
75073.31396
76736.78594
70508.52498
64651.28774
60712.81982
56170.24838
54264.15451
53966.45626
50101.51153
48434.9718
48064.21312
42960.32296
41480.78782
39514.32138
40401.48026
38354.77854
35545.64393
33951.63185
34047.40918
31991.6338
31906.93473
32402.63524
29177.44614
79020.61354
93587.25814
91970.73933
85403.76664
96968.8693
101589.887
93659.138
87289.48748
85848.36783
83434.75573
75312.17116
73625.8282
69954.10903
66516.23304
62499.89868
60297.26112
56876.87536
57315.18115
52339.46269
50497.25101
49092.19477
48092.26316
45061.50048
43710.76632
42876.2803
39843.29305
37059.20839
38441.75273
35954.81412
34551.59656
79392.17273
92152.29681
83004.64994
82335.20841
90305.77315
98166.65953
92821.05336
96037.57189
99249.79556
91078.62043
87097.7482
89235.43583
78849.99667
77252.55081
74257.38117
71905.05929
67410.10575
63203.01058
63555.39615
59557.42075
58852.81228
54302.21436
53278.01741
51540.40222
51191.90659
48609.27411
46697.02858
43489.79395
43939.376
39438.59123
77882.02692
89522.78298
80783.78863
78464.85159
89433.12339
94040.02704
90214.93507
92583.53508
97395.56663
99735.23348
92425.94322
96543.11642
91998.99012
87689.03118
84168.30798
83028.57097
77289.96696
75309.40322
73930.93911
71272.97601
69733.19538
66605.9172
63752.65799
61473.31454
59725.98719
54684.88564
54169.90806
54025.43284
50379.12515
48252.95902
75136.38874
89934.66739
84563.34468
78807.40188
81572.5889
88586.59196
84028.2908
87626.83129
96049.44892
96904.42294
92426.83028
97770.21632
97667.11308
93632.3006
92495.94543
89904.91164
90341.73736
84881.89927
82221.32404
78986.02858
71344.49045
73756.54704
73223.75312
67472.12668
68986.45706
66498.09079
64365.15739
60606.5465
58349.5254
56652.49018
74780.7364
88346.55011
80123.58193
78526.53251
81277.46095
87396.2654
82978.15038
84401.27089
91994.44165
91752.21972
92668.80257
98303.56873
99179.05799
95675.82053
94682.89771
100261.6103
91098.04841
87404.58507
91731.61044
87844.75445
84629.8811
83343.26588
81227.78422
79731.60211
76410.05131
75267.35155
70912.60038
70192.50664
70576.42541
66606.77743
76334.61928
87144.68166
82793.47088
73867.63365
81908.81367
86669.23675
82250.9721
79414.49604
90279.55139
89644.99624
85677.42421
96743.08678
96699.48289
97520.65652
102586.9299
101481.684
95996.71311
97055.54042
96082.43036
95863.6904
89543.14718
91020.08437
89283.00206
83466.30911
82773.7752
81526.08141
81420.73374
77750.94955
77389.7494
75984.06804
73304.39756
88203.10026
81306.03148
76414.13555
79681.72411
84481.39618
80067.7746
76511.58625
85165.00799
86251.62866
81215.08697
85739.0607
94450.76987
88511.89844
98908.03764
96103.66665
99527.0131
102028.8983
98024.46041
97063.30212
99187.64262
93432.78629
95645.0004
95230.48654
87614.16616
90550.16673
86219.39845
84023.40242
86724.15511
81964.34947
76125.10605
89286.23757
80488.29861
77000.89986
78583.69917
83375.28023
80765.84891
77995.39249
82680.07824
80858.21931
79952.79559
84728.35558
89654.25224
82295.58895
90267.09506
94107.0217
94999.39162
98811.15866
98440.60641
100060.6581
100550.0095
97860.92398
96353.72103
95609.93845
98012.06643
92541.84865
90681.73623
93076.61221
88176.2696
88096.92177
75845.7304
88809.74172
80422.64973
77075.36444
82100.68753
89299.69943
76657.79532
77852.06688
84876.43459
83955.93312
76393.367
81513.65402
81898.57538
82626.30657
85367.11312
89062.95149
89789.3545
93330.87913
94289.16569
97431.32333
100139.4489
101272.9669
102900.8635
96519.69932
98946.49319
100379.5389
94533.61927
95734.04634
96744.58075
95057.48794
75898.25985
85694.11364
85419.8863
74404.25322
79940.65615
82447.53151
79049.16137
79605.66575
81895.38591
83785.98423
80141.16625
83038.75542
87017.97141
80188.51204
84580.21913
84847.6837
87061.04393
85507.35291
89653.32346
98123.2258
96307.00321
95657.46719
101680.6188
101360.2822
101041.4602
101519.935
103637.0458
98045.78455
98503.72354
100331.6656
75633.79715
87099.58418
81451.72765
77925.13548
78215.04215
87900.15978
79528.32704
76780.53107
83895.30982
80711.25041
82998.9804
80257.49689
85228.13192
83109.77753
85246.409
84986.28948
87853.25806
87616.34087
86117.66085
89087.60296
92959.49457
91099.81399
95052.42606
96914.4679
100470.0861
96927.07515
103765.6509
102048.7619
101512.387
100749.3617
76102.1598
89145.23959
80783.11265
75726.57411
79910.5055
85511.53084
80816.56882
78764.06243
81769.51371
82241.48699
81624.34413
79640.48252
84391.67504
81848.25757
79424.38462
84431.81897
83030.92717
87265.27072
85276.61748
89170.44965
89936.59292
89059.55914
95333.71993
93795.65976
98873.13446
100060.7582
99146.78025
100021.5932
100590.1428
106923.9946
75493.24116
82921.18631
77388.26214
78202.48808
76624.43405
81484.94654
79412.22088
77348.27013
82404.04198
77962.35137
77859.92371
80365.99882
80906.48366
79864.17447
79699.71344
81685.61834
81381.5999
81595.0372
82975.51235
83458.33924
86549.19101
86936.33296
87130.31803
90054.52142
92323.46412
94585.80127
92755.75762
98511.926
100429.4099
100298.3146
13166.45019
11423.33993
9895.181782
9751.977875
9500.738736
8579.419181
8569.776343
7730.875688
7141.284506
6592.952478
17809.87768
17043.11968
15717.34349
14360.10818
14388.14403
14069.16122
13204.71984
12139.39566
11192.91257
10341.1366
17587.06488
17918.9416
17934.90286
16967.55509
15207.6541
16684.01526
15450.46798
15009.08585
13342.86754
12403.85019
19298.0247
19456.50373
20303.84816
18994.23891
17574.02332
18315.05069
17603.56922
16288.09276
15858.98599
15975.54332
21400.32984
21793.42722
21149.6532
20732.77875
20408.80853
20098.12805
21631.02495
19193.85956
17748.90161
17800.27529
26165.71129
23942.39204
23345.44504
23144.7841
22636.12602
21689.12727
21848.77264
21044.12274
21306.78384
21472.99441
28167.30148
27163.43697
27966.83384
26808.84248
25095.41213
25397.47993
24862.31253
25426.92806
23765.69875
23948.94695
33608.76042
33766.38909
32397.33569
29704.1727
30805.63819
29004.87143
27321.59542
27799.55321
26591.01082
26381.78363
39281.4945
37442.16216
35965.4383
33812.00933
35693.07868
32484.69357
32423.26153
29960.20506
28902.37356
29962.28261
47462.8904
44285.13765
45125.50873
41720.5901
39927.20614
39859.3283
36969.24885
34161.05359
36199.29
33600.21396
53657.75488
52159.48829
52770.0568
47772.83009
47278.90888
42928.79527
43839.04812
42611.92677
41416.25065
39745.36021
61589.10825
61615.7991
61888.52886
58140.20159
54521.70871
55779.31847
51816.32056
50485.48559
43857.33771
46418.15071
73634.28516
73053.36183
68567.7184
67352.39736
66759.79466
63456.02277
58564.65768
60125.5386
55371.62023
53851.05187
80865.11693
82357.1528
79958.21005
76490.75916
74830.5295
74490.58723
69319.60659
68485.61024
66855.25324
62374.73554
86818.58606
82842.95463
83887.18051
82828.61533
81224.72739
80657.02689
76914.69811
77184.43523
74424.91154
72724.60344
92287.95269
91457.19169
91893.51538
91133.67606
90481.35926
87247.77419
86968.50994
79760.68807
81946.21715
81853.67497
95509.92056
100982.9081
98106.725
98826.64327
91328.13645
96140.5541
93001.11315
95726.87477
91074.32998
89121.36105
101793.2892
93140.57248
94921.90462
101876.737
99622.56998
98855.19031
97299.13382
96988.76722
96499.98719
96338.97067
102219.6874
101376.9988
103010.78
99794.02105
103367.5387
99873.79821
100903.6083
102018.3697
103540.4271
101679.4079
98852.80171
99271.70963
104139.0113
100146.5885
100835.3001
103975.7956
100068.7012
101365.4243
102011.0026
106049.7681
5143.61676
6754.970598
6527.938989
6816.315185
6687.52773
6763.470249
6955.151728
6772.20463
6664.85356
7258.976295
7078.53249
7558.651337
7117.692009
7897.750079
7419.698835
7864.47287
8395.541955
7386.23772
8083.935201
7864.249497
8403.093239
8548.893092
8282.844406
8744.127847
8826.257746
9196.444388
9040.796237
8690.207785
8391.162965
7530.686586
5979.416925
9643.31617
9774.392308
9413.433301
9526.606746
9012.23286
8895.408717
10296.08935
10284.95107
10220.80099
10515.61729
10328.47856
10348.65189
9789.271657
10482.26453
10760.55611
10722.46698
10889.0011
11535.47883
11098.31566
11912.53878
11442.52101
11266.54189
11928.61829
11862.85859
12685.46192
12111.28374
12246.21504
12851.68498
10349.42812
6010.797489
9208.917199
8852.123387
9307.214301
9665.904188
9444.324873
9804.036585
9839.460958
9866.29482
10261.87375
10261.0417
10932.72104
10675.19546
11218.70334
10726.47683
11029.7256
11128.01235
11494.6064
11744.35823
11109.67277
11835.90318
11632.32751
12244.19089
11493.04165
11394.28286
12343.48287
12313.57337
12611.32476
12562.05656
9663.104274
6146.313384
8656.632098
9112.965436
8847.362156
10276.90611
9508.336393
9762.310562
10357.68862
9914.073813
10025.87882
10674.86531
9991.381833
10502.53113
9816.728805
11236.94819
11425.44095
11385.24354
11414.34108
11296.48173
11828.22183
12140.17856
12277.69545
12583.55952
12808.37745
12300.19872
12870.47123
12971.04202
13355.00722
13540.49137
10381.62356
5896.762622
8361.504922
9093.990974
8730.024818
9231.06418
9862.304591
9402.937941
9663.083693
9788.985461
10948.42103
10649.14176
9778.064905
11190.82361
10536.57283
11238.83783
12069.41181
11577.85633
10867.50786
11981.73412
12253.62624
12107.20042
12198.63307
12477.52482
12905.96196
12937.71292
12839.87679
13209.33732
13330.1021
13715.07853
11577.38378
5575.348407
8852.270919
8251.329335
9153.112837
9427.78553
9738.823361
9033.046454
10620.52365
10814.83466
10639.45189
10333.23911
10733.67674
10836.92247
10391.1546
11636.13688
11500.02133
11575.98276
12504.74309
12544.54663
12022.87728
13060.09679
12467.43123
13105.25321
12970.2367
13494.9239
14118.25055
13347.92208
14004.26273
14560.55751
11851.86606
5345.266728
8227.803311
8449.931533
9146.472694
9436.9438
9933.346889
9541.466597
9863.457618
10163.73858
9495.078034
10500.78223
11001.1814
11012.93443
11498.9629
11468.83683
12280.00059
11353.89062
12782.7585
11472.77255
12798.96625
13415.31268
13136.14917
13595.63556
13774.2458
14027.16354
13639.68473
14305.09941
14258.41505
14854.97398
12358.62616
5214.491227
8219.886061
8594.409241
9347.851379
10001.12192
10465.67695
10642.71325
10070.42299
10983.05116
11572.12054
11020.91042
10921.22453
11660.73286
11103.13755
12308.50992
11277.57517
11739.77134
12400.82633
12095.44595
13968.95671
12900.23079
13478.42721
13482.81782
14202.28006
14662.50748
14397.33761
14122.08881
15043.1342
14989.82545
12674.6486
5000.523426
9208.922981
9365.953336
9847.677153
10728.72234
11405.98721
11338.43054
11709.95376
11612.0424
12459.55993
12107.1998
11980.48472
12822.8919
12339.58545
12934.2791
13378.90196
13066.11032
13532.51499
13923.11409
12893.41055
14166.57292
13664.09017
13796.1079
14861.61073
13838.47722
15116.01693
14952.66191
14982.3189
15754.41535
13934.23428
6308.830052
11095.84464
10681.54416
11435.17487
12237.63372
13332.56321
12570.1303
12977.83261
13502.93999
13002.25482
13762.97789
12732.0943
13526.81491
14799.00801
14008.99625
13580.30504
14057.38449
14224.26999
13899.63341
15281.06545
14748.87384
15317.22161
14557.52813
15210.23395
15443.72416
14855.48095
14816.18651
16127.28205
15876.12271
13826.0398
)
;

boundaryField
{
    inlet
    {
        type            calculated;
        value           nonuniform List<scalar> 
20
(
1779.967742
3062.714934
1581.071043
1182.964432
811.9120869
532.5080066
443.8758436
423.3829529
276.4399461
208.6134879
222.0279633
115.1471403
105.4774709
102.3612551
54.61135753
84.54783823
93.22343935
58.613205
51.17901817
28.90181172
)
;
    }
    outlet
    {
        type            calculated;
        value           nonuniform List<scalar> 
70
(
6592.952478
10341.1366
12403.85019
15975.54332
17800.27529
21472.99441
23948.94695
26381.78363
29962.28261
33600.21396
39745.36021
46418.15071
53851.05187
62374.73554
72724.60344
81853.67497
89121.36105
96338.97067
101679.4079
106049.7681
28.90181172
326.0777851
25287.62021
160454.4747
94227.10922
28971.35093
68484.22013
105069.2584
83481.21468
66756.92826
75493.24116
82921.18631
77388.26214
78202.48808
76624.43405
81484.94654
79412.22088
77348.27013
82404.04198
77962.35137
77859.92371
80365.99882
80906.48366
79864.17447
79699.71344
81685.61834
81381.5999
81595.0372
82975.51235
83458.33924
86549.19101
86936.33296
87130.31803
90054.52142
92323.46412
94585.80127
92755.75762
98511.926
100429.4099
100298.3146
98852.80171
99271.70963
104139.0113
100146.5885
100835.3001
103975.7956
100068.7012
101365.4243
102011.0026
106049.7681
)
;
    }
    wall
    {
        type            calculated;
        value           uniform 0;
    }
    frontAndBack
    {
        type            empty;
    }
}


// ************************************************************************* //
