/*--------------------------------*- C++ -*----------------------------------*\
| =========                 |                                                 |
| \\      /  F ield         | OpenFOAM: The Open Source CFD Toolbox           |
|  \\    /   O peration     | Version:  v1912                                 |
|   \\  /    A nd           | Website:  www.openfoam.com                      |
|    \\/     M anipulation  |                                                 |
\*---------------------------------------------------------------------------*/
FoamFile
{
    version     2.0;
    format      ascii;
    class       volVectorField;
    location    "0.00036";
    object      momentum;
}
// * * * * * * * * * * * * * * * * * * * * * * * * * * * * * * * * * * * * * //

dimensions      [1 -2 -1 0 0 0 0];


internalField   nonuniform List<vector> 
1300
(
(-6.189803294 1.521947042 -2.414017769)
(0.6276474179 3.449893127 -0.5938912724)
(4.538996763 3.584160394 -2.874331518)
(76.23530977 1.3097862 11.22647306)
(55.27362919 2.640111736 -1.849012246)
(5.834384947 5.510581154 2.739952072)
(42.63697469 6.000946756 8.502291887)
(40.33260543 -2.145480723 -5.273997071)
(0.4300037787 3.69052927 1.105435612)
(42.40472287 -5.282704503 7.639448989)
(-0.445935187 0.6880082849 -1.27120372)
(0.8144265251 0.3048812215 -0.9707882475)
(12.95274498 2.556461439 -0.729068866)
(246.280165 48.10729166 -0.4377194123)
(92.41391192 16.52456424 -10.99594321)
(17.09463563 5.084471907 -3.880195024)
(62.52446864 6.566633831 10.77709069)
(51.42373492 6.936834454 -1.199247122)
(56.88317131 -2.400276544 -7.853211099)
(38.86184184 7.098359376 3.872823844)
(1.129709674 4.191861163 1.293019379)
(-0.8788379381 8.298908613 4.836685269)
(38.52737631 8.492718192 0.9614803583)
(134.1732709 23.50991059 -0.8738500767)
(82.69795539 5.110798586 -0.2225847822)
(37.3655132 3.979356239 1.962394816)
(89.39013636 20.91142333 -5.339083602)
(114.6177899 7.435765882 6.086703179)
(94.32836335 16.73227351 2.131974452)
(77.7818496 11.05470045 -14.60311174)
(0 0 0)
(-1.048108434 5.913941086 1.446615634)
(23.61748574 6.55854428 -2.001950589)
(187.8093002 22.6269799 1.576088597)
(93.37733749 16.63605008 2.094626685)
(36.18524555 7.468080096 -1.069726057)
(85.94766605 27.34739866 1.540251448)
(155.1957698 15.76562825 -7.163937745)
(65.59797748 15.46204454 5.670374155)
(55.24934032 4.169837459 5.448871127)
(0 0 0)
(0.6850405263 4.077955091 -2.647154122)
(44.75248442 9.256500685 -6.758944848)
(225.7520165 33.29192905 3.593129047)
(95.09709762 11.0204699 -6.19050485)
(24.3790198 5.259566126 -0.4017082872)
(107.1691395 14.03450827 0.4442918261)
(130.5864308 30.73456975 -11.8377048)
(114.7108551 27.04944567 -3.525922292)
(62.95344974 8.775545599 -2.008999786)
(-0.4438495916 0.8760179056 1.06049051)
(0 0 0)
(31.51594334 6.043401646 -3.481568435)
(172.7605783 37.20612925 5.010512055)
(76.23234117 8.166588107 -1.152188048)
(12.35959725 2.261051611 3.168174621)
(104.488519 7.916237519 -5.719159669)
(125.5231741 18.9359041 1.951003168)
(95.80321619 9.405452294 -4.096484582)
(49.57670024 11.22678253 -8.552901655)
(0 0 0)
(3.967386279 2.037782239 -0.02209311092)
(25.04263666 9.415920035 1.707276062)
(147.8356869 14.15103475 -2.013339863)
(61.07512183 5.19947783 2.287615961)
(49.75609209 16.04985573 5.589356259)
(100.1769739 9.987005 4.681179939)
(55.65432024 1.944004507 0.7035899325)
(64.73561715 7.616121631 4.179121914)
(34.56352391 4.449401511 1.825170194)
(-0.09974539509 3.455132602 -0.1451326294)
(0 0 0)
(45.9366634 7.209784816 -2.97072112)
(180.8605745 18.27748939 -1.495891754)
(106.8328323 14.96682357 -7.945524411)
(12.54208341 4.810839155 -4.721167843)
(109.2100537 14.35491071 -1.246121478)
(132.3042011 18.87699231 3.106635761)
(128.218472 24.41375745 2.917932097)
(49.70072847 4.210676754 -9.624522192)
(0.2590255272 3.563570925 0.1873273937)
(0 0 0)
(34.30275469 5.613663415 -1.335473454)
(182.3780922 28.95683298 5.455105425)
(73.96343609 7.880091154 -2.936008104)
(44.14296938 6.26728041 1.773772908)
(122.1193228 14.725423 -0.9261028032)
(133.9125332 18.57652157 7.100879716)
(75.12304014 11.8200598 -0.4255959905)
(41.42349206 5.157734592 0.7970237236)
(0 0 0)
(0 0 0)
(19.23061518 3.533794342 -2.162060047)
(168.2690774 13.37981014 -6.443177891)
(98.67699468 16.79812842 -2.785404517)
(20.3721428 5.381701751 -2.943988505)
(54.31048896 2.717845393 -3.504610128)
(89.12112528 12.74467199 -2.104041145)
(108.3690929 20.58465256 1.804237006)
(33.74631906 0.06386544965 -0.5027169157)
(0 0 0)
(0 0 0)
(36.3888399 14.2386824 -2.039734965)
(180.0915281 19.92023292 1.446213621)
(108.0414702 7.417278722 4.950449835)
(24.4936137 7.8037537 0.06941379018)
(38.07890686 8.911025464 2.382051372)
(164.8558834 15.0497769 1.317438324)
(88.79751228 11.20242042 -5.647526927)
(72.17878058 7.77119871 -4.125700995)
(0 0 0)
(0 0 0)
(53.87956494 13.95071374 -6.066274307)
(122.9612798 23.1481739 -5.416530936)
(62.89899281 8.599975729 -3.587641539)
(25.45824637 6.536519001 -0.5297557497)
(73.09714073 9.020951539 4.981264278)
(75.35170558 18.51204646 -4.371585463)
(90.39659164 19.06099486 -5.863922552)
(61.58121917 12.82757324 -4.770368048)
(0 0 0)
(0 0 0)
(51.97874847 14.71296667 -7.281540974)
(229.005114 26.51808267 4.298795321)
(57.84230093 1.734083205 0.5719837673)
(61.40170391 6.911704633 2.030009488)
(61.02090086 15.58639674 -0.1537663947)
(106.9341984 10.95440455 -3.871432167)
(110.819159 10.98004728 -0.3940392047)
(91.49085311 14.70064699 11.99480917)
(0 0 0)
(0 0 0)
(14.84316052 2.099928222 0.1933337087)
(217.0187719 26.83114343 1.641024811)
(33.34910785 4.658135042 0.4476970372)
(51.08093873 11.14383327 1.457506214)
(115.2575925 19.43100737 6.107161621)
(140.1437697 23.11360773 1.246833118)
(66.17458805 9.584588585 -0.2687174321)
(53.69134358 9.318952234 0.9500523962)
(0 0 0)
(0 0 0)
(66.1333086 9.540591796 4.275355965)
(186.2327439 25.53370459 -8.116291879)
(102.1483212 15.13227919 1.014330245)
(40.35835465 3.164928474 0.9452273956)
(105.5977432 17.48513238 -4.257963656)
(119.3811607 12.62724964 -2.902772119)
(42.72450445 3.605697188 -4.778148622)
(83.25461176 10.39737044 5.845368875)
(0 0 0)
(0 0 0)
(41.68812957 12.08103526 -3.325470094)
(102.4186733 19.23649162 0.7926944299)
(87.91092672 5.868108256 3.947415414)
(26.8330535 6.429752931 2.644824229)
(99.01125825 15.57335174 -0.287299783)
(125.3619034 6.485947207 -2.484906658)
(48.28246531 10.98181693 1.963710851)
(102.6914065 11.76399869 2.430388913)
(0 0 0)
(0 0 0)
(20.92176095 1.608851213 -3.321668252)
(161.8949466 24.22906329 -5.616394111)
(124.6837286 16.2902872 -10.53867595)
(32.20590517 9.511784748 3.698343685)
(81.60890692 14.52651144 0.3172303029)
(100.8732441 13.50495318 -0.3570612805)
(126.0935073 25.63926812 -1.864009544)
(54.30656372 7.707215297 -2.222794151)
(0 0 0)
(0 0 0)
(36.67675002 14.68255188 2.183856678)
(151.9782368 29.17635238 2.33731694)
(157.5804144 18.63393417 -8.576003235)
(48.33799583 8.822693183 0.6475255191)
(75.78174263 13.74698013 2.809550067)
(78.34456538 3.877364642 1.293645273)
(35.61441053 4.374254447 -0.5665026873)
(56.72758348 5.842997566 -4.319302955)
(0 0 0)
(4.58497661 0.2779516395 1.404088343)
(20.67493437 0.127743992 -2.138296023)
(175.4059388 24.47479857 4.216224386)
(104.8087972 9.389493257 0.06110050885)
(16.47876199 3.801082245 -0.08721451759)
(133.9408783 19.81894741 -6.26930122)
(119.0717908 11.79654824 0.4826885912)
(83.58612537 20.92624811 3.697052544)
(33.09216785 5.672819797 -0.4513542995)
(0 0 0)
(0 0 0)
(28.16217814 2.555425438 -0.8301211619)
(219.1446225 32.79456121 2.171401223)
(96.34466876 13.70956716 5.904606058)
(44.26759857 4.037560611 3.580698671)
(80.53667182 19.46766787 1.638350047)
(107.1044319 9.335181643 3.853816487)
(75.19836975 8.033424311 -2.055152206)
(84.86280097 11.12488453 -2.321135584)
(25.77567593 -7.029838585 -4.491157582)
(27.32471811 -0.1916736208 -0.3224016811)
(21.54846775 -1.400279037 -3.425876372)
(19.53971237 5.520376461 -3.869723523)
(15.41272563 0.8774588762 1.433886923)
(12.4712818 3.210151648 0.6660817709)
(3.089824117 13.47617947 3.758853126)
(6.455313249 -0.4859240026 5.842628322)
(15.78914387 7.180746803 -2.127176298)
(26.2898622 -4.568323746 3.152951336)
(4.625034954 10.2942646 -7.838580118)
(12.90764006 2.840783257 2.899877488)
(5.510319088 1.420530934 -2.719747525)
(4.69559205 7.649925538 0.8658185565)
(16.04956908 4.823606155 2.130921585)
(23.14426328 5.919251122 1.875901785)
(7.507835881 1.169819604 -4.865924024)
(7.621528709 -0.5202752263 3.104008957)
(23.70915021 4.960732394 -3.117351897)
(2.156887544 4.751283843 4.6309187)
(14.91026761 5.39656712 7.930138446)
(20.78565975 7.433499728 6.748171604)
(16.45370453 -1.049445805 -4.185236862)
(2.328167224 5.508663848 5.827015668)
(9.467940388 -1.424040411 -0.8110124618)
(11.51285556 0.8471922893 -0.5216878389)
(-0.808269526 -3.461187012 -1.843110999)
(17.29857505 -7.445081954 1.916886642)
(8.761898468 2.901752166 2.934119166)
(9.899933079 -2.359117541 6.674021884)
(85.83402023 13.17167842 -10.70097199)
(40.18759104 3.40175316 3.837269276)
(38.53487193 2.393446662 14.78960261)
(36.84515703 -1.455300349 -4.231673909)
(14.40096056 1.222792146 2.636575639)
(26.374439 -5.998018169 2.486746724)
(18.42408476 6.595741433 -4.050162296)
(21.42605305 -2.977792875 -4.307915788)
(5.726491665 4.402521888 0.6576860913)
(23.01945725 0.4831514106 -8.572750873)
(7.511541222 2.80872743 1.36176994)
(19.67585652 4.683978953 3.236207679)
(8.243245843 8.877913959 2.66485948)
(32.14152039 -3.469015405 -4.222170409)
(16.46912948 7.444908076 8.848476231)
(10.5330322 0.9872157053 7.34568692)
(19.79805904 5.495957461 -6.974581721)
(6.221160563 6.777472057 -6.613648571)
(18.22488873 1.16242178 4.006068457)
(9.825342579 3.658838135 -9.972146968)
(13.2400402 2.902008628 -5.215858067)
(7.921020907 6.77925083 -7.338217328)
(3.639502261 5.405383956 -4.812448641)
(11.75849891 2.20236979 -7.86182627)
(8.600481175 4.115760296 -0.6432050178)
(6.040504544 6.641668534 -3.447691365)
(10.63227945 2.800369707 -0.6697752212)
(4.099033285 2.22233289 8.529394036)
(18.31247313 -2.642294626 -9.85274382)
(5.069401044 6.860079885 -5.520427267)
(39.73525534 8.058304313 -0.7342019402)
(22.60999154 6.260542067 -3.160246787)
(58.29554628 11.40862233 5.114606376)
(43.39749 10.5390833 2.783506315)
(40.63160925 2.477680477 13.35060538)
(43.2977885 12.57645646 -8.43542801)
(17.29480187 4.316072796 1.167659497)
(39.55200172 -4.533129769 4.652733471)
(56.81334044 5.345090983 -1.637811274)
(37.0144844 14.66169609 -1.273881651)
(29.65636581 5.847663557 2.055594337)
(6.297431009 -2.370524314 0.9887511771)
(40.34923364 6.766230338 5.995513869)
(11.02643663 0.6140608806 -0.4776681253)
(3.874556482 14.16760993 -2.309971527)
(16.58614355 1.387460365 -11.14418538)
(18.57627741 -0.8813070565 -7.6273074)
(19.19278445 5.896009068 5.676464174)
(16.25269597 -0.5136466406 -0.9545802064)
(27.08753201 11.34660008 5.077583335)
(28.94230375 5.767454782 -11.54371741)
(28.21278097 2.249026818 5.0204292)
(20.16986655 0.08504400526 -10.15146449)
(12.9808312 -2.181312702 3.553088993)
(21.87669123 9.944954066 7.840082713)
(19.89323046 7.319868264 -4.144212011)
(18.83501187 2.98456409 -3.492699224)
(23.73627604 2.028462667 2.82294687)
(36.19504684 -8.030219786 -12.28309107)
(12.5959558 4.446851315 10.59147924)
(73.84261837 14.34579057 -0.5197603409)
(94.09086405 22.95416694 2.548981011)
(96.85394228 18.86662161 9.29081149)
(79.47717616 14.63657545 -4.789661858)
(43.71648623 3.116712423 -4.12790248)
(76.14408795 5.876332624 -10.75278173)
(40.39070026 15.49166984 1.347393661)
(38.85729894 1.727886171 -0.928018941)
(23.82916597 7.937287651 2.086920865)
(47.25096735 1.963073058 0.7804903844)
(27.3524852 -1.726855051 -0.8476322158)
(24.34179332 7.798325084 1.547575007)
(16.03778694 -0.7988155906 -2.13291087)
(18.24804124 2.697230876 4.436672365)
(34.1303902 12.02529244 -7.729860266)
(25.46441256 2.658654218 -3.435821877)
(27.57395348 2.750228006 1.607064355)
(32.34913837 -5.965489457 -7.195292091)
(45.38430594 3.628750242 -8.434679578)
(22.05947049 8.218696623 2.327558415)
(12.90890921 1.962773578 -2.814180509)
(18.72416625 11.09937248 3.759512504)
(6.07935111 4.803103897 4.310470783)
(31.37935659 12.12597808 11.46431037)
(17.76354412 5.196131863 1.085231318)
(25.55168226 -7.282764546 10.8903478)
(15.34753143 13.40450441 0.4857448598)
(31.8436396 -2.035993126 9.738168193)
(12.75827949 0.3600778501 -1.004667126)
(24.57943008 -4.25574061 8.084061681)
(123.6947015 25.28170194 1.44665819)
(111.8894625 15.00387332 2.12658678)
(55.27949831 8.87395923 -0.3424112739)
(61.42021416 9.238698595 0.6502833696)
(92.05353828 18.38322804 -2.585015456)
(36.75552668 12.226826 -9.215230754)
(88.33768258 8.567689317 10.5995009)
(63.32635295 8.477994874 8.893629701)
(64.40932859 10.01175054 -2.021659769)
(31.58208189 6.985754951 -2.504319055)
(39.97540959 1.065609179 -8.541043208)
(41.03286096 11.64380305 7.188385803)
(3.274273311 1.066066528 -0.7440105128)
(36.49860617 6.533907837 0.1802063745)
(23.29639702 -0.01623063018 0.3998826857)
(25.79450418 -6.685335388 2.473335585)
(38.38973122 2.115253729 -7.078624384)
(8.22058748 2.627945417 2.729297337)
(38.54259926 -5.179687337 5.982790393)
(36.90938163 13.49046006 -0.7762142022)
(20.77386333 10.89507458 9.036510992)
(30.95455793 4.749378481 7.480631099)
(29.9511946 8.411330502 1.609787459)
(37.90248855 4.677690339 3.945549305)
(59.43127991 -5.549467287 -5.298068743)
(50.54528555 0.6305557887 -0.3061030769)
(20.30530567 8.958989809 -2.962151191)
(10.32147713 0.5410952818 1.48905058)
(15.19269046 4.958789064 4.03912611)
(14.34308512 -1.393259266 -1.874562684)
(121.3982919 16.92992962 -5.027899461)
(108.2724189 22.33130348 -13.0113094)
(69.20910031 10.80259663 -2.322473924)
(93.53049341 26.10990666 6.888531671)
(117.7234639 17.43446365 -2.613467008)
(60.16204209 18.69970024 -1.97032828)
(63.60004353 5.000199548 1.892143097)
(88.09477904 11.94978844 9.716913239)
(41.47997997 10.36595305 -7.644298155)
(96.07125559 19.69472697 1.565107116)
(86.77209049 11.98194677 3.172294594)
(78.18281217 14.50696257 -6.554914568)
(32.83937046 10.76137312 0.9034029046)
(44.87545581 18.04075341 -1.964548994)
(74.6818396 12.11923662 -7.525296318)
(21.23223953 2.404769107 1.908993909)
(21.95503289 -0.6067348022 -6.310373915)
(30.05457774 8.862895772 -7.675751956)
(53.26459981 5.331983797 -4.188162071)
(60.68654734 11.27277614 9.272296936)
(18.2959771 1.703749772 6.571703027)
(29.34180303 4.11313674 2.415473544)
(20.109988 9.128376816 -5.224511615)
(27.10499591 -2.319294048 0.5883855524)
(49.80830776 5.383592449 8.540963928)
(34.53407849 5.408608991 -2.062726382)
(36.10993742 5.012866098 -5.567003399)
(7.63932212 4.935422923 4.828189425)
(29.73805184 4.477323393 -8.472604228)
(23.83517081 15.43015331 0.7025453648)
(86.07791856 13.47582681 1.358006454)
(102.0386602 17.00049624 6.022816244)
(55.29020515 13.45107708 -0.8114925446)
(84.72266499 24.38637517 -3.680791058)
(67.37067181 8.972335876 0.5766423478)
(104.5173721 25.57996695 10.21900687)
(92.99334685 19.08420302 2.462783463)
(59.21494041 15.84717506 -6.197857402)
(71.88174776 15.5114852 3.691107752)
(77.61046542 12.45127753 -2.721597691)
(55.70216009 7.449952383 5.365605456)
(101.1949524 33.80349976 -8.299379937)
(87.02161442 18.66396663 -4.560163827)
(56.33897785 5.143516668 4.75200402)
(34.23718159 4.872970519 -0.09534216139)
(42.58811797 8.942932853 -1.704307451)
(37.62753441 6.212459149 -1.161920725)
(76.94561893 16.97545802 1.032375169)
(45.81313296 18.41909315 -1.249707112)
(24.59331703 14.34394178 -8.476301525)
(39.96711806 3.10376303 6.43399225)
(36.14863562 5.204876244 -0.4526842322)
(34.88954762 11.01221862 2.436671402)
(23.17176906 3.404127496 -7.983010141)
(48.54039247 10.23043281 -8.617133997)
(21.32869823 1.065553479 8.594365162)
(23.80162266 12.7524898 0.1118850884)
(43.7823167 6.020390112 -16.19719601)
(37.91040746 0.351035477 2.589206417)
(34.99547104 15.74071034 -4.658825252)
(97.00646644 13.05304719 1.706517355)
(88.30343853 10.65644224 -2.678740285)
(111.9301743 18.83259094 0.8521289632)
(61.90392517 11.61367809 0.6008548846)
(96.95081047 13.97733835 9.162467134)
(134.7231319 21.19913715 -9.010275864)
(99.36563806 25.00066719 9.741008107)
(67.65646337 7.303054937 -1.831477704)
(97.75293175 17.81950541 1.64210389)
(93.75475604 2.322347066 0.6136723836)
(81.75601855 16.57502569 7.447552122)
(81.69768123 15.12402475 7.844158303)
(44.51994516 12.75795268 -2.563319881)
(86.92110614 8.057547313 -5.406114341)
(74.34388335 10.4315611 8.904226955)
(52.96544048 13.32475861 -1.389907539)
(82.37174481 15.30174797 -8.622658155)
(56.96340709 19.2024865 1.170118514)
(48.34514412 7.904307185 1.695508777)
(58.31571002 12.1374401 1.291632534)
(62.35569167 18.59228788 10.39008089)
(87.91705647 15.65637998 -3.150503339)
(40.13898057 7.738320888 2.252166743)
(24.14479761 4.907666367 5.089124047)
(34.16338371 7.288992543 -5.565792541)
(32.31808098 6.048539763 -0.1758852474)
(62.46242279 21.87301966 -8.953611904)
(50.52576554 9.343462565 -1.360754331)
(59.66927482 16.51484398 -5.209879494)
(54.19472259 0.5886851208 -0.4364988172)
(87.42227513 13.45801706 5.038698293)
(50.80803544 11.29933789 1.564355855)
(100.6536754 19.04101985 -5.08562058)
(100.785393 16.18521474 -1.057672702)
(88.11067719 16.77795512 -0.5749602653)
(84.98962481 13.18440129 -2.671473616)
(150.1030372 25.73827401 2.766058162)
(85.01706103 20.72950577 -6.073161691)
(72.72126528 17.66641174 1.121711956)
(107.027775 15.25379657 -0.7216352059)
(69.87441629 3.728155903 -0.641109279)
(92.51495332 23.02208042 -2.829800248)
(60.96013716 22.02321215 -7.371338007)
(94.78122006 13.06426659 -3.967851277)
(100.2269304 17.20359112 -8.548585201)
(97.10565645 22.37908607 0.5732731385)
(50.07194183 12.01492393 -4.514084617)
(77.02883635 4.954697005 4.478727096)
(55.83170735 16.47780897 -3.799509642)
(89.00476702 16.03880349 9.108057089)
(29.81786181 4.205617318 0.3945377421)
(68.6952749 7.112596758 -0.3979353974)
(64.03462733 9.89048395 5.53052794)
(25.92463866 7.530435947 -0.3797143448)
(36.5881235 2.203298962 -1.457181205)
(83.2057681 22.76760877 13.99872944)
(24.12065874 9.713689373 2.751480902)
(59.4114822 2.743361056 2.885053124)
(47.88087264 12.36653544 2.543917073)
(33.34431909 10.34118107 4.633240633)
(74.12126369 8.638481864 -5.553460239)
(42.43169052 5.70585306 2.821588155)
(60.00476815 12.84731197 -3.894624926)
(90.10982246 15.07073348 -1.509091912)
(91.15018846 17.33337913 3.026522465)
(92.46467584 21.45449106 3.559660436)
(119.8680933 20.67048823 -4.906571617)
(82.95825509 18.79008717 -2.515976425)
(115.2777759 27.07714073 2.609139479)
(128.2922741 31.97912094 -2.745286227)
(108.4740129 21.77915693 -10.90230424)
(138.3359775 22.92558759 -0.2734850761)
(137.060963 34.41199858 -0.7093292608)
(93.72023791 21.30198555 1.168044974)
(56.84590631 15.27451705 7.636296339)
(63.43730017 7.775324214 3.83528005)
(81.30625891 10.05287952 -2.122734936)
(107.7930791 16.05992511 4.580505603)
(93.83662823 21.78270975 -2.278697367)
(89.53642426 12.53278611 5.36036544)
(80.72662631 10.33807967 4.160534051)
(57.93273622 4.909709778 -9.501432653)
(42.69411492 8.131898881 1.17457938)
(48.52881316 13.00328316 -3.829179817)
(28.04885532 1.076663884 0.1376705944)
(50.79347788 21.89072297 0.8189972983)
(19.79998048 5.36013711 1.418218)
(27.78228321 7.980058094 -6.430294383)
(23.23396547 4.92708541 -3.48495837)
(24.01795074 14.86390978 -2.887905184)
(85.90163432 15.95134162 0.8053282583)
(86.87420717 3.194181418 7.697910304)
(99.01485641 20.46495798 3.649400121)
(91.03280175 18.47723733 -6.475292555)
(74.94910902 7.852402528 0.8395157155)
(100.4229603 12.58551659 1.556698286)
(94.8954529 4.739284798 0.1341079363)
(107.9115539 23.69461821 3.171534052)
(102.556908 17.33489218 -11.30138033)
(116.4745325 18.68922833 -7.598440756)
(151.7861966 27.13222648 1.654793992)
(135.7476043 33.62749945 -1.164735712)
(112.7752468 19.226842 7.423321167)
(69.90404009 7.692523509 5.358627679)
(61.86328495 10.8196524 -0.423332662)
(110.6690151 23.1964064 5.206765335)
(95.41897824 15.15987048 -4.074516464)
(107.4655204 16.3266987 -12.11684764)
(96.02339423 21.37004889 4.095598965)
(108.4798745 13.29444713 -2.387281175)
(59.46252001 9.74335653 -7.302937365)
(64.71587021 12.48064163 -2.745434564)
(63.12771017 5.556439161 -0.8625384373)
(39.60459015 8.868308168 6.231095659)
(67.37781842 11.73708718 13.01522295)
(91.38059046 22.54629541 2.605403219)
(65.70466679 23.57383587 -0.3373784424)
(27.53585355 2.882378991 -7.768845672)
(37.19230689 -1.598238716 1.568181643)
(32.71794881 9.258301142 -2.48899852)
(109.3710997 27.1930063 -0.2725807467)
(105.5490542 22.53596513 -4.43389661)
(68.24958726 3.73721033 6.17948606)
(47.49467081 9.030121149 6.354182869)
(59.72388015 0.05245907615 -0.2099453263)
(127.3710151 16.23329118 2.181253078)
(95.18324094 18.28639502 1.285436365)
(89.26589318 14.89272327 -2.608585507)
(88.04340928 15.36264142 3.195847659)
(102.6690763 24.62285292 -1.215869475)
(78.68713945 15.03863105 0.7363468265)
(163.4578799 35.55602716 -0.4678183995)
(136.4660211 25.58310846 4.91261453)
(175.045631 24.48469462 -4.516571501)
(112.9031952 28.49248984 5.417055895)
(107.0073379 20.69815553 1.844689729)
(112.6690306 16.48291507 -4.069075019)
(76.59182316 10.83131524 11.27050905)
(49.57466737 10.86398212 7.066461159)
(104.333109 28.75624248 10.84730709)
(75.64174113 18.09341907 -5.863955697)
(85.07589841 12.87157961 -5.896248971)
(98.62917484 8.108863787 -0.9815095144)
(138.7202393 26.70470237 10.09007397)
(94.84791964 17.86805068 -16.56960544)
(81.13380319 23.09571135 -8.391557975)
(117.734884 28.93305025 -6.060078203)
(58.0783486 13.33517616 -5.332228547)
(51.51263032 9.155341766 2.134686565)
(93.6930895 17.6221143 -8.638600385)
(51.97363703 7.106845112 2.103165622)
(80.57429233 15.13637322 0.7299913975)
(73.1561893 8.210243699 4.964330687)
(70.00546441 14.15853593 -5.496984331)
(69.67663454 11.74327321 -1.046475447)
(99.4374893 18.74135881 -1.374265877)
(117.5380526 19.05909681 -6.881802784)
(85.84880631 13.30977964 1.013773781)
(40.24548067 3.675367094 -5.524096517)
(144.0432043 23.94838779 -4.333004156)
(94.99992943 7.859463847 4.892689029)
(93.06310797 16.79338519 7.478276633)
(132.439793 22.8314834 -0.3057374156)
(84.53102062 18.37378929 -0.8421027636)
(101.2879613 28.08834422 4.778769666)
(104.8697411 18.60206816 -5.795193865)
(107.9771231 17.94749467 1.073218769)
(143.5824721 35.0332585 -2.676848345)
(112.4121319 20.84350463 2.969617589)
(99.93434124 14.33849592 3.87661894)
(84.3322095 19.16353586 6.782632279)
(145.7140611 28.762945 -9.372629378)
(60.58228389 12.67591048 5.94158036)
(59.96100736 16.21976815 -0.3150704899)
(77.44787067 17.25015386 -0.7776224693)
(85.17630456 16.98679184 -7.028789408)
(77.54526786 13.13218205 -1.206174222)
(75.92655593 20.33018572 7.165310777)
(103.8491055 25.70727758 -7.260540142)
(40.57932434 13.12167678 -3.325962754)
(83.18985621 9.593133996 -1.787170453)
(107.6324465 19.72054501 -1.151881766)
(53.24278157 10.10391929 -0.363129738)
(60.57947787 5.521607055 1.745534457)
(102.75075 19.66890503 -0.9069254857)
(71.01145149 13.21776331 1.809931897)
(111.3383948 16.79451608 -1.518254392)
(87.65029045 21.04545817 2.071564424)
(104.6812571 15.37346318 1.113269413)
(94.86915439 20.39360035 -3.741461043)
(62.95185977 12.85919822 -8.207391441)
(73.03799476 11.91373002 -0.4913378741)
(99.72236288 9.67861566 6.672054202)
(60.09834047 12.31318212 -2.284632919)
(115.349102 26.04929436 0.578615064)
(113.1160699 29.23028521 3.349332702)
(106.3993342 29.62360336 3.717517229)
(143.9719705 25.9908636 -0.3647146708)
(109.5523939 20.61094759 -2.450443611)
(99.73858097 21.69786111 0.2435166109)
(76.49282043 21.18616213 2.148809506)
(103.8105195 17.93837977 8.184620004)
(119.5794944 26.09695021 4.36782923)
(80.94515303 21.2669505 4.39000305)
(101.2290773 16.42634035 -1.917341172)
(104.0352863 26.55991282 -1.040699245)
(84.267111 22.07048748 -6.834754427)
(83.30415138 15.87168878 -2.092376891)
(40.8614023 13.02381225 2.592470086)
(77.27778133 12.39824452 -10.69301465)
(92.76692119 15.79777702 -0.6453503569)
(90.61158804 15.100675 -1.756337604)
(99.17608128 14.54357381 0.4255634973)
(58.56523339 3.826197581 1.939112798)
(73.53428232 9.009641386 0.7324650922)
(57.13616873 8.281750707 6.384608884)
(58.12130721 11.17761867 -0.8248983068)
(53.01837445 16.39973507 0.3446698428)
(79.56238991 11.64976739 3.246292191)
(62.89583344 10.57766524 -0.7058767347)
(91.28244483 14.77984424 9.315545071)
(72.77117865 9.744754887 5.270991467)
(92.08589397 11.00473863 2.112352856)
(102.6127355 14.12206601 -1.254683087)
(94.11488366 21.19687723 3.161766552)
(110.4420709 22.2652647 -1.513823884)
(84.16020426 12.53371736 -3.55661517)
(82.59975688 19.35900593 1.906038374)
(84.79273285 21.14104118 2.036346493)
(120.4929419 27.10194667 -0.9425662808)
(89.34478345 14.67538154 -2.850578448)
(101.6417473 19.08049756 3.640528713)
(89.10750199 20.68921161 -4.511450464)
(76.38871562 14.64923603 -2.098325988)
(54.63349285 4.965131348 2.277224459)
(90.96155623 17.3058985 -6.659974967)
(119.352288 25.23740208 1.579221879)
(126.8768575 28.48659255 1.453493022)
(103.6655801 21.06665976 0.8003152975)
(67.38100936 18.06895461 -1.99881821)
(55.18359809 15.63520029 0.7944966367)
(70.61395371 6.495550757 5.375478947)
(29.34898947 5.674281293 -4.293393773)
(113.1162947 19.00938809 -2.943725614)
(62.24774085 0.7804613597 -3.474735968)
(94.50660302 20.51293538 -10.35069438)
(78.58076809 11.38771917 2.647977914)
(84.52793221 14.03777217 4.41460309)
(127.0656335 10.51180207 3.376923896)
(76.63932898 18.07889381 -2.216149655)
(85.2624421 5.609628979 -4.083029786)
(59.49388164 10.7681216 0.3249919653)
(91.73013709 15.28715142 -2.350073328)
(72.77961445 14.27457375 -0.7270197646)
(94.90525694 19.61184003 -1.062476846)
(116.2895415 27.52051937 7.022053578)
(52.97493614 8.365615037 -1.899986442)
(123.7209345 25.96114989 -1.934976016)
(48.97946835 4.356748278 2.287566036)
(131.5120129 39.4193063 -9.493963522)
(113.300317 31.05194245 -4.933136538)
(113.6499076 26.21181544 -5.708412195)
(70.78655532 11.12635582 2.214847076)
(73.82687575 13.74213915 -1.192471527)
(66.83038771 10.15509904 -1.412378764)
(79.07846442 8.808011849 -2.737266793)
(59.39511997 11.92391907 2.614996223)
(68.83712266 15.44922818 -12.42135795)
(60.34304932 17.54171985 -3.3835409)
(142.5345433 39.22740915 -1.154722298)
(62.74147246 6.60548194 2.889048366)
(67.40017548 8.226950549 0.8478143126)
(79.94409137 7.281529282 9.272091179)
(92.62055855 7.000229768 -0.1216026494)
(79.9029531 15.93152191 -1.916505719)
(64.40649523 8.435373253 1.732861979)
(111.5127104 19.416782 7.27987258)
(110.8053971 22.22269608 0.6036637135)
(82.35652653 12.64870865 -1.494464155)
(89.33570865 13.95853979 -4.771436128)
(86.55782584 13.20654612 -1.590402001)
(57.75568971 12.44057642 -5.702718061)
(105.7567936 19.77130782 -5.527714216)
(81.2667144 15.277424 -3.72615041)
(125.5743755 20.09633261 2.700176804)
(104.2010575 21.94465976 1.991009049)
(150.8545254 18.39569314 5.946744235)
(141.8797033 34.25609689 -2.569071796)
(114.674604 19.04447584 -0.01342070182)
(100.7308559 28.05422579 4.384637266)
(95.59267382 23.35314445 -1.482055677)
(111.0852695 27.0139534 0.1363035693)
(105.1954942 23.52087791 2.555415022)
(93.70498487 16.21704573 -5.830238904)
(56.27852114 11.10301112 0.372633221)
(175.2543911 29.82602908 -5.000812784)
(111.481247 23.59165601 -1.812326684)
(165.2028747 41.07091775 8.175051109)
(103.11743 25.08833928 -3.520798319)
(79.13574799 11.04549901 -7.101724578)
(80.67242346 15.81579948 -1.469851497)
(83.49744503 9.209875028 3.630400222)
(65.63802987 8.580481902 3.391525941)
(61.28920364 13.32416725 1.773015511)
(61.34677305 13.71506716 -0.2472131317)
(83.36878052 12.31524099 -4.142380573)
(55.172344 4.267516461 -3.793291018)
(92.30709458 17.52916447 1.529093166)
(99.11884204 9.314857245 8.091550496)
(66.09498503 2.067148426 6.685269311)
(49.71162413 2.43812166 -4.223940956)
(59.5104752 13.06059972 -5.226546928)
(82.87861073 8.709838333 -8.113379663)
(85.7944728 13.23452866 4.432349616)
(82.99328969 11.44967145 4.037786018)
(118.8659399 9.666839217 -0.9959319982)
(88.14381607 7.13557229 0.7294368755)
(79.40155968 20.02846153 -1.747297339)
(90.62932486 19.98919948 -1.723370046)
(151.894188 17.74951414 13.28302865)
(62.07023838 11.60970655 -2.271677457)
(84.7028788 17.23260075 -5.415977791)
(99.33057228 20.5441111 0.02886699438)
(139.7906501 34.62863299 -14.60528018)
(101.9074441 23.61242954 -3.325900387)
(105.1261854 22.40861322 8.255404791)
(110.4017674 21.34383279 1.292712117)
(94.3039384 10.77348559 7.831966229)
(205.0790452 42.65893729 10.85157508)
(97.4504464 17.63339514 -7.416187354)
(111.1852123 20.34475445 -4.038078253)
(131.491839 22.60444656 -0.3824552295)
(111.9161288 14.19047312 -2.093508936)
(100.5452527 19.59972097 -5.599307561)
(100.1234454 13.94327832 -6.288827)
(65.87211767 11.02866802 -2.37668167)
(49.52257961 7.24222435 1.49486956)
(83.39860687 15.68565273 -2.567844255)
(79.49170067 12.87620549 9.11870426)
(140.2703787 18.59554676 -0.892276758)
(92.29754304 11.80155763 4.522751503)
(102.3633285 12.71778157 3.445358888)
(67.20565417 11.98632028 -2.468706622)
(86.97431089 11.22987099 -8.795030789)
(79.84261173 11.84543658 -7.779515634)
(25.76419656 4.587030706 -0.5022723821)
(68.11015864 8.442401361 -3.854291455)
(86.04042925 19.26676032 -0.3272298415)
(96.84763585 7.425118482 -0.3217505638)
(102.0127729 18.65333052 -0.4525119717)
(73.16572596 17.67481101 -3.453355829)
(96.8873723 10.88977294 -3.156262433)
(71.57422111 16.76073107 4.475036668)
(85.52954566 11.9755293 -2.003528113)
(150.9588669 32.49185254 8.906960745)
(89.93700659 13.0856188 -10.18257453)
(98.59849625 27.85107541 3.371371833)
(73.92301216 14.7119975 -3.393421342)
(117.5668233 18.28296521 -2.24771115)
(74.14272255 17.70391355 0.5249310576)
(77.36456993 10.89875437 1.436024123)
(88.41605169 11.4985302 7.99499032)
(71.88645991 12.35423322 -0.7629645754)
(104.3175568 17.46845558 5.34372159)
(60.29363769 11.97987775 -0.9040353853)
(145.2453253 21.12190812 -3.233444788)
(59.59874977 5.396259095 -2.206780609)