/*--------------------------------*- C++ -*----------------------------------*\
| =========                 |                                                 |
| \\      /  F ield         | OpenFOAM: The Open Source CFD Toolbox           |
|  \\    /   O peration     | Version:  v1912                                 |
|   \\  /    A nd           | Website:  www.openfoam.com                      |
|    \\/     M anipulation  |                                                 |
\*---------------------------------------------------------------------------*/
FoamFile
{
    version     2.0;
    format      ascii;
    class       volScalarField;
    location    "0.00036";
    object      rhoM;
}
// * * * * * * * * * * * * * * * * * * * * * * * * * * * * * * * * * * * * * //

dimensions      [1 -3 0 0 0 0 0];


internalField   nonuniform List<scalar> 
1300
(
0.014612
0.0093
0.01395
0.057786
0.028562
0.0279
0.049148
0.024574
0.0093
0.042512
0.00465
0.00465
0.0093
0.15676
0.07306
0.019262
0.0465
0.033874
0.043174
0.028562
0.0093
0.015274
0.028562
0.081036
0.043174
0.029224
0.065762
0.07771
0.061774
0.048486
1e-277
0.00465
0.020586
0.104948
0.053136
0.0279
0.053798
0.09166
0.049148
0.042512
1e-277
0.0093
0.0372
0.130846
0.049148
0.019262
0.067748
0.075062
0.061112
0.034536
0.00465
1e-277
0.024574
0.099636
0.037862
0.0093
0.06376
0.072398
0.055122
0.038524
1e-277
0.00465
0.0186
0.08701
0.028562
0.033212
0.061112
0.033874
0.037862
0.019262
0.005312
1e-277
0.033212
0.102284
0.0558
0.0093
0.067748
0.076386
0.071736
0.028562
0.005312
1e-277
0.023912
0.104948
0.039848
0.034536
0.078372
0.076386
0.043174
0.023912
1e-277
1e-277
0.01395
0.09631
0.043836
0.01395
0.033874
0.052474
0.063098
0.02325
1e-277
1e-277
0.028562
0.10096
0.051812
0.019262
0.024574
0.089012
0.05115
0.042512
1e-277
1e-277
0.037862
0.071736
0.029886
0.0186
0.044498
0.042512
0.053136
0.04051
1e-277
1e-277
0.037862
0.131508
0.0279
0.043836
0.04185
0.063098
0.061774
0.057124
1e-277
1e-277
0.010624
0.123548
0.0186
0.038524
0.072398
0.077048
0.043836
0.0279
1e-277
1e-277
0.052474
0.11026
0.053136
0.024574
0.064422
0.066424
0.023912
0.053798
1e-277
1e-277
0.033212
0.057124
0.047824
0.019262
0.062436
0.067086
0.033212
0.051812
1e-277
1e-277
0.014612
0.094308
0.062436
0.02325
0.052474
0.057786
0.070412
0.03255
1e-277
1e-277
0.0279
0.090336
0.07306
0.033212
0.047162
0.043174
0.0186
0.034536
1e-277
0.00465
0.014612
0.099636
0.053798
0.01395
0.083684
0.065762
0.051812
0.019262
1e-277
1e-277
0.019262
0.124872
0.047162
0.029224
0.048486
0.062436
0.038524
0.051812
0.01532086298
0.03336818033
0.03173230782
0.03118701689
0.01915107857
0.01258122909
0.01915107873
0.01149064714
0.01532086298
0.02790209207
0.01969636949
0.03118701689
0.01586615391
0.02681150999
0.02735680114
0.0410286121
0.02352658521
0.01969636965
0.03610781449
0.02844738277
0.03173230782
0.03118701689
0.02681150999
0.02681151022
0.01149064724
0.03173230756
0.01312652002
0.028447383
0.03118701663
0.03173230782
0.07440997194
0.04267766377
0.03556252356
0.03884744838
0.01969636949
0.03556252356
0.03064172596
0.02735680092
0.02024166058
0.04048332117
0.01969636949
0.03501723263
0.01969636965
0.03556252327
0.02407187633
0.02735680114
0.03173230756
0.01915107873
0.0235265854
0.03118701663
0.02735680114
0.02735680114
0.0361078142
0.02298129447
0.01532086298
0.02078695134
0.01586615391
0.02735680114
0.03173230756
0.03501723263
0.03064172596
0.02407187613
0.0470531708
0.03610781449
0.03556252327
0.03993803024
0.01915107873
0.03173230756
0.04431353691
0.04431353691
0.03282288941
0.003830215745
0.04650787987
0.01203593807
0.0235265854
0.03336818061
0.03501723235
0.02899267393
0.02790209207
0.03830215713
0.04048332117
0.03227759875
0.03064172571
0.01969636965
0.04759846173
0.03173230756
0.028447383
0.03939273931
0.05525889276
0.05580418415
0.04759846173
0.06291932419
0.06346461564
0.05142867747
0.02735680092
0.05525889322
0.03556252356
0.03556252327
0.0235265854
0.03939273931
0.02352658521
0.0235265854
0.01203593816
0.02407187613
0.028447383
0.03939273931
0.03556252327
0.02298129447
0.05580418415
0.03173230756
0.01203593816
0.02298129447
0.01532086285
0.03993803024
0.03939273931
0.0361078142
0.03227759875
0.03610781449
0.02681150999
0.03173230782
0.07330621085
0.06237403327
0.03610781449
0.03993803024
0.05854381755
0.02407187633
0.05471360229
0.05088338613
0.04376824598
0.02407187633
0.03173230756
0.03501723263
0.01203593816
0.03118701663
0.01586615391
0.01532086298
0.03993802991
0.01149064724
0.03118701689
0.0361078142
0.02790209207
0.03501723263
0.03939273899
0.03884744838
0.04048332117
0.04705317041
0.03118701689
0.02790209207
0.02844738277
0.02407187633
0.07331939009
0.06729483083
0.0470531708
0.06128345192
0.07003446469
0.0410286121
0.04267766412
0.05908910848
0.02790209207
0.07112504713
0.0503380952
0.05908910896
0.028447383
0.0432229547
0.05854381803
0.01532086298
0.02352658521
0.02790209207
0.04431353691
0.04868904319
0.02024166058
0.01969636965
0.02024166042
0.02735680114
0.05088338654
0.03884744806
0.03884744838
0.00820572242
0.02844738277
0.02681151022
0.05033809561
0.06291932419
0.03227759875
0.05471360229
0.04431353655
0.06784012231
0.05634947508
0.03447194142
0.04650787987
0.05033809561
0.03665310512
0.07167033806
0.06182874285
0.03939273899
0.02735680114
0.03064172596
0.02681150999
0.06072498175
0.0410286121
0.02735680092
0.03665310542
0.03118701689
0.02735680092
0.0235265854
0.03556252356
0.0164114447
0.02735680114
0.04759846173
0.0361078142
0.04376824598
0.05580418415
0.04979280428
0.06620424952
0.03610781449
0.05580418369
0.07987606048
0.06510048843
0.03884744806
0.05525889322
0.05416831136
0.05416831091
0.0519739684
0.02681151022
0.05525889276
0.04979280469
0.03501723263
0.05142867705
0.03665310542
0.03501723263
0.04705317041
0.04868904359
0.06291932471
0.02352658521
0.01969636965
0.03501723263
0.03064172571
0.05142867747
0.04048332117
0.06017969033
0.04376824598
0.04759846173
0.0289926737
0.05745323618
0.05744005694
0.0525192589
0.0519739684
0.09027612585
0.05525889276
0.04650787987
0.06729483138
0.0454041184
0.05634947508
0.04048332117
0.0596343994
0.06237403378
0.05471360229
0.03282288941
0.04923433452
0.04267766412
0.06072498125
0.02407187633
0.0519739684
0.0454041184
0.02024166058
0.02681151022
0.0667495399
0.01969636965
0.03939273931
0.03993802991
0.03447194171
0.04431353691
0.02681150999
0.03610781449
0.04868904359
0.05908910848
0.05471360229
0.06729483138
0.04759846134
0.07167033806
0.07440997194
0.06729483083
0.0815251125
0.08207040343
0.05525889276
0.03501723263
0.03993803024
0.05088338613
0.07604584473
0.06291932471
0.05525889276
0.04759846173
0.03830215745
0.02844738277
0.03173230782
0.01969636965
0.0503380952
0.01915107873
0.0235265854
0.0164114447
0.02024166058
0.04759846173
0.04759846134
0.06291932471
0.0519739684
0.0432229547
0.05963439989
0.05416831136
0.06729483083
0.06182874285
0.07167033806
0.09082141604
0.08479685808
0.06674954045
0.04267766377
0.03556252356
0.05963439989
0.05799852663
0.06346461564
0.05580418415
0.07221562839
0.04376824598
0.03830215745
0.0432229547
0.02516245819
0.05142867747
0.06127027218
0.04650787987
0.01641144484
0.02298129428
0.02407187633
0.06729483138
0.06291932419
0.03556252356
0.028447383
0.03336818033
0.06729483138
0.05088338654
0.04979280428
0.05142867747
0.0579985271
0.04814375226
0.1017667731
0.07878547862
0.1077781517
0.0705797562
0.06620424952
0.07112504654
0.04650787987
0.03227759875
0.0667495399
0.0470531708
0.05471360229
0.0596343994
0.08370627622
0.06674954045
0.0525192589
0.07824018769
0.04376824598
0.03336818033
0.06620424952
0.03173230782
0.04814375226
0.03939273931
0.03939273931
0.0432229547
0.05360984119
0.06620424952
0.04814375226
0.02407187633
0.08207040343
0.05854381755
0.05142867747
0.07933076955
0.05471360184
0.06346461564
0.05908910896
0.06400990604
0.08479685808
0.06620424952
0.06072498125
0.05142867747
0.08590061918
0.03993802991
0.03830215745
0.05088338654
0.05854381755
0.04977962545
0.04596258894
0.06784012176
0.028447383
0.0519739684
0.06237403327
0.03064172596
0.03610781449
0.0596343994
0.04048332117
0.06182874285
0.0503380952
0.05963439989
0.05580418415
0.03447194142
0.04650787987
0.05854381803
0.0361078142
0.06674954045
0.06620424952
0.06400990604
0.08316098529
0.06346461564
0.06237403327
0.0470531708
0.05963439989
0.07440997133
0.05251925933
0.06127027268
0.0667495399
0.05142867747
0.05854381803
0.02790209184
0.04759846173
0.05525889322
0.04814375226
0.05854381803
0.03227759875
0.04650787949
0.03173230782
0.03556252356
0.03064172571
0.04759846173
0.03610781449
0.05088338613
0.04759846173
0.05306455026
0.06017969033
0.05306455026
0.06182874285
0.05142867705
0.05033809561
0.05580418415
0.07604584411
0.05142867747
0.05908910896
0.05088338613
0.04759846173
0.03173230782
0.05088338613
0.07495526287
0.07440997194
0.06400990604
0.04376824598
0.03556252356
0.03939273899
0.01969636965
0.05963439989
0.03227759848
0.05416831136
0.04485882784
0.04814375226
0.07167033806
0.04485882784
0.05142867705
0.03064172596
0.05142867747
0.04485882747
0.05634947508
0.06784012231
0.03227759848
0.07440997194
0.02790209207
0.08425156646
0.06838541324
0.07167033806
0.04376824562
0.04759846173
0.04048332117
0.04814375226
0.03501723263
0.03939273931
0.03884744806
0.09356105067
0.03884744838
0.03501723235
0.05033809561
0.05525889322
0.04650787949
0.03993803024
0.06182874285
0.06455519697
0.04759846173
0.05142867747
0.05088338613
0.03173230782
0.06182874285
0.04814375226
0.07769489676
0.06072498175
0.08261569368
0.08370627622
0.06948917434
0.06237403327
0.05416831136
0.06838541324
0.06620424898
0.05525889322
0.03556252356
0.09957242931
0.06784012231
0.09957243013
0.06346461512
0.04322295505
0.0470531708
0.04759846134
0.03501723263
0.03556252356
0.0361078142
0.04814375266
0.03118701689
0.05362301999
0.05689476601
0.03556252356
0.02735680092
0.03501723263
0.0470531708
0.04814375226
0.04759846173
0.06729483138
0.05088338613
0.0470531708
0.05525889322
0.08973083419
0.03556252356
0.05142867747
0.05799852663
0.07659113566
0.06291932471
0.05908910848
0.06400990657
0.05745323618
0.130214155
0.05745323618
0.06564577936
0.07550055318
0.06182874285
0.05580418415
0.0596343994
0.03665310542
0.02516245819
0.04759846134
0.0470531708
0.07604584473
0.05088338613
0.05963439989
0.03939273931
0.05471360184
0.0470531708
0.01641144484
0.03939273899
0.04759846173
0.05525889322
0.0618155631
0.04322295505
0.05525889322
0.04431353655
0.04759846173
0.09027612585
0.04979280428
0.06400990657
0.04322295505
0.07112504654
0.0470531708
0.04923433452
0.05088338613
0.04157390303
0.06291932471
0.03173230756
0.0880817829
0.03173230782
0.07167033747
0.04322295505
0.06182874285
0.03556252327
0.1094272046
0.05580418415
0.0667495399
0.06017969082
0.05525889322
0.03282288941
0.03556252356
0.0421323732
0.03884744806
0.06620424952
0.03939273931
0.06784012176
0.06291932471
0.05580418415
0.1023120632
0.06127027268
0.06072498175
0.06838541268
0.0941063416
0.029886
0.024574
0.033874
0.038524
0.033212
0.038524
0.0186
0.042512
0.0186
0.023912
0.02325
0.04185
0.04185
0.038524
0.019262
0.033874
0.058448
0.025236
0.01395
0.03255
0.02325
0.023912
0.053798
0.019262
0.01395
0.0186
0.025236
0.04051
0.028562
0.014612
0.034536
0.03255
0.049148
0.047824
0.02325
0.02325
0.033212
0.014612
0.019924
0.0186
0.0186
0.0093
0.033874
0.02325
0.033874
0.036522
0.023912
0.033212
0.023912
0.028562
0.024574
0.0279
0.043174
0.033212
0.01395
0.038524
0.043836
0.0093
0.00465
0.029886
0.037862
0.02325
0.033212
0.053798
0.04185
0.029886
0.01395
0.019262
0.019262
0.029224
0.05446
0.034536
0.010624
0.0093
0.019924
0.019924
0.033874
0.033874
0.0186
0.014612
0.033212
0.029224
0.0093
0.015274
0.04185
0.028562
0.033212
0.029886
0.028562
0.019262
0.023912
0.024574
0.029224
0.03586
0.071074
0.047162
0.0372
0.02325
0.033212
0.009962
0.014612
0.039186
0.023912
0.047824
0.0093
0.0279
0.033212
0.034536
0.023912
0.053136
0.048486
0.033212
0.061112
0.029224
0.05446
0.057124
0.043174
0.0372
0.037862
0.033212
0.04051
0.039848
0.051812
0.023912
0.04185
0.06376
0.063098
0.052474
0.033212
0.053136
0.049148
0.051812
0.03255
0.028562
0.024574
0.086348
0.0279
0.033874
0.019262
0.049148
0.039186
0.033212
0.043174
0.06376
0.043174
0.067086
0.080374
0.06376
0.053798
0.038524
0.057124
0.057786
0.048486
0.062436
0.076386
0.037862
0.067086
0.047162
0.0186
0.057786
0.053136
0.071074
0.06376
0.058448
0.043836
0.0279
0.052474
0.071736
0.053798
0.072398
0.081036
0.048486
0.038524
0.047824
0.039186
0.037862
0.0465
0.051812
0.057786
0.076386
0.072398
0.051812
0.043836
0.05911
0.049148
0.070412
0.072398
0.092322
0.05115
0.090998
0.0465
0.05115
0.083022
0.071736
0.06841
0.061774
0.075724
0.057124
0.051812
0.085024
0.02891457144
0.04206187547
0.02431380641
0.01380229508
0.01905805056
0.02365881577
0.01840306011
0.05586417042
0.02431380641
0.04206187589
0.05191839606
0.004600765028
0.03680612022
0.02365881554
0.02365881577
0.01445728572
0.03680611986
0.0282595808
0.05322837785
0.0276045899
0.0282595808
0.04206187589
0.03220535488
0.04666264091
0.02891457144
0.02891457115
0.03811610149
0.04271686652
0.05191839606
0.03351533646
0.01351607238
0.04761920564
0.05534710526
0.05662992102
0.0559885126
0.04633639034
0.04247244076
0.03860849081
0.02767355263
0.03732567543
0.02316819495
0.04247244076
0.05470569738
0.03796708294
0.02703214475
0.01351607238
0.03732567507
0.05985246272
0.03217891009
0.04183103248
0.03282031797
0.05212456356
0.0656406353
0.05598851314
0.03282031797
0.05727132834
0.0540642895
0.03668426755
0.03604285932
0.0508417478
0.02711133599
0.008827652906
0.04539501899
0.04665177302
0.04855209098
0.02711133599
0.04665177302
0.05422267146
0.06367870198
0.04855209144
0.03152516218
0.04665177302
0.05422267197
0.03593898864
0.02206913247
0.07250635497
0.03089678517
0.04476664197
0.03278191652
0.03593898864
0.04035281547
0.04539501899
0.03152516218
0.05359429496
0.05863649847
0.02711133573
0.04918046846
0.082590762
0.05043722202
0.036567366
0.03028158398
0.03151331387
0.01915135754
0.06858429906
0.03707098456
0.03583925473
0.03893346512
0.04387527037
0.02903496885
0.04820121135
0.05746895704
0.04078106038
0.03089744907
0.05931655228
0.0401651953
0.0265715085
0.03522338931
0.05870068775
0.04943294152
0.03583925439
0.04325940569
0.03522338964
0.02224556773
0.02286143302
0.01853549245
0.04016519492
0.0506646717
0.05560647735
0.05375888159
0.0265715085
0.03938105917
0.02181127248
0.03150192846
0.01696594479
0.02544891696
0.06603765974
0.05270935945
0.04362254497
0.05998464847
0.04726018987
0.06845302588
0.02241511437
0.06179617354
0.07452063145
0.04422638705
0.08967505185
0.01393214185
0.03634725635
0.02544891719
0.05634700344
0.04362254536
0.01696594479
0.02605275864
0.03089808677
0.01696594479
0.05998464792
0.03938105917
0.06058849016
0.05391704234
0.02969040339
0.02257816754
0.01782562237
0.05883600626
0.02139361001
0.03030642101
0.01307307751
0.05051547376
0.04694748586
0.04219494126
0.02614615503
0.03565124474
0.03328213
0.05110775253
0.02139360982
0.07011793259
0.02555387626
0.03921923219
0.016641065
0.04219494126
0.02496159728
0.04278722003
0.0249615975
0.03446668722
0.05408346125
0.03744239625
0.03921923219
0.0416026625
0.04278722003
0.02139360982
0.03862695378
0.04140213444
0.04198328442
0.04664653355
0.03732003603
0.03031813965
0.03381908797
0.02681719187
0.01632839349
0.05364842966
0.02973698957
0.02449259023
0.02915583921
0.03323793762
0.01632839349
0.03381908797
0.03848233674
0.02099164221
0.03323793762
0.0209916424
0.04956633082
0.04548423284
0.01632839363
0.03323793733
0.01632839363
0.05130978231
0.03089929
0.03906348709
0.03381908797
0.04256443477
0.06763817595
0.01202044142
0.03205451018
0.02003406903
0.02404088284
0.03490667224
0.01202044142
0.04006813807
0.02404088263
0.01602725523
0.0412090029
0.02861812882
0.01202044142
0.03777262151
0.033195375
0.01716812006
0.01659768764
0.01602725509
0.02060450145
0.02804769665
0.02060450127
0.0412090029
0.03663175668
0.02060450127
0.04006813807
0.02861812906
0.01602725509
0.03262494287
0.05780669054
0.05837712246
0.04292030015
0.01573702324
0.04102286572
0.02023138171
0.01292297274
0.05788009413
0.02023138171
0.03540830229
0.02472573996
0.04439701922
0.02416563752
0.02922009839
0.02865999598
0.02865999598
0.02978020104
0.04889137769
0.02528584283
0.04833127462
0.0528256335
0.03259425179
0.03652850729
0.02416563752
0.02528584283
0.06630870833
0.02922009864
0.04777117238
0.03596840464
0.04889137769
0.01573702324
0.03990266042
0.0365285076
0.01600725607
0.03587879077
0.02318567357
0.019871535
0.02815023298
0.04029321035
0.03752921213
0.03201451187
0.02318567357
0.04747162785
0.01932139448
0.02760009285
0.01600725607
0.03532865042
0.04802176821
0.02760009285
0.01710753664
0.04747162785
0.03587879107
0.03864278896
0.04415748928
0.03201451214
0.04415748891
0.04415748928
0.03091423143
0.03146437152
0.02373581393
0.0270499525
0.03864278896
0.03201451214
)
;

boundaryField
{
    inlet
    {
        type            zeroGradient;
    }
    outlet
    {
        type            zeroGradient;
    }
    wall
    {
        type            calculated;
        value           uniform 1e-300;
    }
    frontAndBack
    {
        type            empty;
    }
}


// ************************************************************************* //
