/*--------------------------------*- C++ -*----------------------------------*\
| =========                 |                                                 |
| \\      /  F ield         | OpenFOAM: The Open Source CFD Toolbox           |
|  \\    /   O peration     | Version:  v1912                                 |
|   \\  /    A nd           | Website:  www.openfoam.com                      |
|    \\/     M anipulation  |                                                 |
\*---------------------------------------------------------------------------*/
FoamFile
{
    version     2.0;
    format      ascii;
    class       volScalarField;
    location    "3.6";
    object      p;
}
// * * * * * * * * * * * * * * * * * * * * * * * * * * * * * * * * * * * * * //

dimensions      [0 2 -2 0 0 0 0];


internalField   nonuniform List<scalar> 
10000
(
6.19634e-06
0.000106517
-0.000116401
-0.000706074
-0.00161217
-0.00277831
-0.00414724
-0.00566409
-0.00727908
-0.00894818
-0.0106327
-0.0122991
-0.0139178
-0.0154634
-0.016914
-0.0182506
-0.0194568
-0.0205189
-0.0214254
-0.0221665
-0.0227345
-0.0231231
-0.0233277
-0.0233448
-0.0231725
-0.0228096
-0.0222564
-0.0215138
-0.0205838
-0.0194692
-0.0181735
-0.0167009
-0.0150564
-0.0132455
-0.0112743
-0.00914944
-0.0068781
-0.00446786
-0.00192677
0.000736705
0.00351373
0.0063951
0.00937129
0.0124325
0.0155686
0.0187692
0.0220237
0.0253214
0.0286513
0.0320022
0.0353628
0.0387219
0.0420679
0.0453895
0.0486752
0.0519135
0.055093
0.0582026
0.0612311
0.0641676
0.0670014
0.0697221
0.0723196
0.0747842
0.0771066
0.079278
0.0812901
0.0831352
0.0848063
0.086297
0.0876018
0.0887159
0.0896355
0.0903577
0.0908807
0.0912037
0.0913272
0.091253
0.0909839
0.0905247
0.0898812
0.0890613
0.0880743
0.0869316
0.0856466
0.084235
0.0827148
0.0811068
0.0794346
0.0777251
0.0760087
0.0743202
0.0726984
0.0711871
0.0698352
0.0686955
0.0678222
0.0672667
0.0670714
0.0671826
-8.49667e-05
1.19548e-05
-0.000205403
-0.000732369
-0.00151781
-0.00252214
-0.00370345
-0.00501834
-0.00642557
-0.0078873
-0.00936935
-0.0108412
-0.0122757
-0.0136491
-0.0149405
-0.0161315
-0.0172066
-0.0181521
-0.0189566
-0.0196105
-0.0201059
-0.0204363
-0.0205968
-0.0205838
-0.0203948
-0.0200286
-0.0194847
-0.0187638
-0.0178675
-0.0167981
-0.0155586
-0.0141529
-0.0125854
-0.0108611
-0.00898563
-0.00696521
-0.00480646
-0.00251649
-0.000102839
0.00242654
0.00506333
0.00779884
0.0106241
0.0135297
0.0165062
0.0195438
0.0226323
0.0257615
0.0289211
0.0321005
0.0352889
0.0384756
0.0416498
0.0448006
0.0479172
0.0509888
0.0540045
0.0569538
0.0598262
0.0626114
0.0652994
0.0678803
0.0703448
0.0726837
0.0748883
0.0769506
0.0788627
0.0806176
0.0822089
0.0836308
0.0848783
0.0859471
0.0868339
0.0875362
0.0880528
0.0883832
0.0885282
0.0884899
0.0882716
0.0878778
0.0873149
0.0865905
0.0857139
0.0846964
0.083551
0.0822928
0.0809392
0.0795099
0.0780271
0.0765159
0.0750044
0.0735236
0.072108
0.070795
0.069625
0.0686397
0.0678783
0.0673768
0.067182
0.0672937
0.000139239
0.000230448
1.31958e-05
-0.000481531
-0.00119838
-0.00210438
-0.00316556
-0.00434579
-0.00560998
-0.00692523
-0.00826123
-0.00959038
-0.0108879
-0.0121315
-0.0133018
-0.0143812
-0.0153549
-0.0162098
-0.0169346
-0.0175199
-0.0179579
-0.0182422
-0.0183678
-0.0183307
-0.0181285
-0.0177596
-0.0172233
-0.0165201
-0.0156511
-0.0146183
-0.0134246
-0.0120732
-0.0105683
-0.00891461
-0.00711726
-0.00518206
-0.00311525
-0.000923543
0.00138593
0.00380565
0.00632772
0.00894388
0.0116456
0.014424
0.0172699
0.0201739
0.0231266
0.0261181
0.0291384
0.0321775
0.0352251
0.0382711
0.0413049
0.0443164
0.047295
0.0502306
0.0531128
0.0559316
0.058677
0.0613392
0.0639086
0.0663761
0.0687326
0.0709696
0.0730789
0.0750528
0.0768841
0.0785663
0.0800932
0.0814595
0.0826608
0.0836931
0.0845534
0.0852398
0.085751
0.0860871
0.086249
0.0862389
0.0860603
0.0857179
0.0852179
0.0845678
0.0837769
0.082856
0.0818176
0.0806764
0.0794489
0.0781535
0.0768112
0.0754453
0.0740812
0.0727471
0.0714736
0.0702932
0.0692401
0.0683493
0.0676527
0.0671806
0.0669864
0.0670994
0.000728038
0.000758444
0.00050892
1.33502e-05
-0.000677079
-0.00153249
-0.00252326
-0.00361822
-0.00478691
-0.00600048
-0.00723197
-0.00845655
-0.0096516
-0.0107967
-0.0118737
-0.0128663
-0.0137603
-0.0145432
-0.0152044
-0.0157348
-0.0161265
-0.0163735
-0.0164706
-0.0164142
-0.0162014
-0.0158306
-0.0153011
-0.0146129
-0.0137672
-0.0127656
-0.0116106
-0.0103054
-0.0088537
-0.00725995
-0.00552901
-0.00366631
-0.00167777
0.00043025
0.00265097
0.00497723
0.00740149
0.00991589
0.0125122
0.0151821
0.0179166
0.0207069
0.0235437
0.0264178
0.0293194
0.0322391
0.0351669
0.038093
0.0410075
0.0439005
0.046762
0.0495821
0.0523511
0.0550593
0.0576971
0.0602552
0.0627244
0.065096
0.0673614
0.0695125
0.0715414
0.073441
0.0752044
0.0768253
0.0782982
0.079618
0.0807804
0.081782
0.08262
0.0832926
0.083799
0.0841392
0.0843144
0.0843269
0.0841801
0.0838787
0.0834288
0.0828378
0.0821145
0.0812694
0.0803146
0.0792638
0.0781326
0.0769384
0.0757007
0.0744408
0.073182
0.0719498
0.0707713
0.0696751
0.0686911
0.0678497
0.0671789
0.0667067
0.0664845
0.0665462
0.00163448
0.00154671
0.00122804
0.000702987
1.00403e-05
-0.000824166
-0.0017736
-0.00281144
-0.00391139
-0.00504824
-0.0061982
-0.00733911
-0.00845056
-0.00951399
-0.0105126
-0.0114314
-0.0122571
-0.012978
-0.0135839
-0.0140662
-0.0144175
-0.0146318
-0.0147041
-0.0146308
-0.014409
-0.0140371
-0.0135143
-0.0128405
-0.0120166
-0.0110441
-0.00992523
-0.00866299
-0.00726086
-0.00572293
-0.00405381
-0.00225862
-0.000342959
0.00168712
0.00382518
0.00606436
0.0083975
0.0108171
0.0133152
0.0158839
0.0185147
0.021199
0.023928
0.0266926
0.0294838
0.0322923
0.0351086
0.0379234
0.040727
0.0435099
0.0462626
0.0489757
0.0516396
0.0542453
0.0567834
0.0592452
0.0616218
0.0639048
0.066086
0.0681578
0.0701127
0.0719437
0.0736445
0.0752091
0.0766321
0.077909
0.0790356
0.0800088
0.080826
0.0814857
0.081987
0.0823303
0.0825168
0.0825486
0.0824294
0.0821636
0.0817571
0.0812171
0.0805521
0.0797719
0.0788881
0.0779135
0.0768628
0.0757521
0.0745994
0.073424
0.0722473
0.0710918
0.0699817
0.0689422
0.0679992
0.0671791
0.0665067
0.0660073
0.0657216
0.0656755
0.00280539
0.00255821
0.00213979
0.00155957
0.000838393
-5.00967e-07
-0.000934224
-0.00193997
-0.0029952
-0.00407804
-0.00516765
-0.0062444
-0.00729006
-0.00828787
-0.00922255
-0.0100803
-0.010849
-0.0115176
-0.0120767
-0.012518
-0.0128348
-0.0130211
-0.0130722
-0.0129847
-0.0127558
-0.0123837
-0.0118677
-0.0112076
-0.0104041
-0.00945871
-0.00837341
-0.00715094
-0.0057946
-0.00430825
-0.00269624
-0.000963419
0.000884897
0.00284296
0.00490463
0.00706337
0.0093123
0.0116442
0.0140517
0.0165269
0.0190618
0.0216482
0.0242776
0.0269413
0.0296306
0.0323365
0.0350501
0.0377621
0.0404636
0.0431452
0.0457978
0.0484124
0.0509799
0.0534914
0.0559381
0.0583114
0.0606031
0.062805
0.0649092
0.0669085
0.0687956
0.070564
0.0722076
0.0737207
0.0750982
0.0763358
0.0774297
0.0783767
0.0791746
0.079822
0.0803181
0.0806633
0.0808588
0.080907
0.080811
0.0805753
0.0802056
0.0797086
0.0790925
0.0783665
0.0775415
0.0766295
0.0756439
0.0745998
0.0735135
0.0724027
0.0712864
0.0701849
0.0691193
0.0681118
0.0671848
0.0663608
0.065662
0.0651108
0.0647314
0.0645361
0.00418772
0.00375439
0.00321303
0.00255601
0.00178431
0.000917935
-2.29387e-05
-0.00101916
-0.00205159
-0.00310141
-0.00415045
-0.0051815
-0.00617837
-0.00712609
-0.00801088
-0.00882025
-0.00954297
-0.0101691
-0.0106897
-0.0110974
-0.0113855
-0.0115487
-0.0115826
-0.0114837
-0.0112494
-0.0108782
-0.0103691
-0.00972211
-0.00893777
-0.00801739
-0.00696293
-0.00577692
-0.00446249
-0.00302328
-0.00146345
0.000212392
0.0019992
0.00389149
0.0058834
0.00796867
0.0101407
0.0123927
0.0147173
0.0171072
0.0195547
0.0220517
0.0245903
0.027162
0.0297584
0.0323709
0.0349908
0.0376094
0.0402179
0.0428074
0.0453691
0.0478943
0.0503742
0.0528004
0.0551642
0.0574576
0.0596725
0.061801
0.0638357
0.0657695
0.0675955
0.0693075
0.0708995
0.0723662
0.0737027
0.0749048
0.0759689
0.0768922
0.0776723
0.078308
0.0787987
0.0791446
0.0793471
0.0794082
0.0793311
0.0791201
0.0787804
0.0783185
0.077742
0.0770596
0.0762813
0.0754184
0.0744832
0.0734894
0.0724519
0.0713866
0.0703106
0.0692418
0.0681989
0.067201
0.0662674
0.0654173
0.0646703
0.064046
0.0635499
0.0631781
0.00573146
0.00509573
0.00441487
0.00366399
0.0028236
0.00191085
0.000943594
-6.23107e-05
-0.00109082
-0.00212584
-0.0031517
-0.0041534
-0.00511671
-0.00602835
-0.00687602
-0.00764848
-0.00833557
-0.0089282
-0.00941835
-0.00979903
-0.0100643
-0.010209
-0.0102292
-0.0101217
-0.00988395
-0.00951453
-0.00901262
-0.00837813
-0.00761166
-0.00671443
-0.00568829
-0.00453564
-0.00325946
-0.00186322
-0.000350895
0.00127311
0.00300396
0.00483642
0.00676488
0.00878335
0.0108855
0.0130648
0.0153142
0.0176265
0.0199945
0.0224105
0.0248665
0.0273547
0.0298669
0.0323947
0.0349298
0.0374638
0.0399882
0.0424944
0.044974
0.0474185
0.0498194
0.0521686
0.0544579
0.0566792
0.058825
0.0608876
0.0628599
0.0647349
0.0665062
0.0681675
0.0697134
0.0711384
0.0724381
0.0736084
0.0746457
0.0755474
0.0763112
0.0769359
0.0774209
0.0777665
0.0779738
0.0780448
0.0779826
0.0777911
0.0774752
0.077041
0.0764955
0.0758468
0.0751043
0.0742782
0.0733798
0.0724217
0.0714172
0.0703806
0.0693272
0.0682727
0.0672334
0.0662259
0.0652666
0.0643716
0.0635584
0.062844
0.0622145
0.0616493
0.00739209
0.00654521
0.00571372
0.00485611
0.00393267
0.0029582
0.00194864
0.0009169
-0.000123745
-0.00115968
-0.00217749
-0.00316421
-0.00410744
-0.00499551
-0.00581754
-0.00656353
-0.00722436
-0.00779186
-0.00825876
-0.00861873
-0.00886633
-0.00899699
-0.00900696
-0.00889331
-0.00865388
-0.00828726
-0.00779274
-0.0071703
-0.00642054
-0.00554467
-0.00454448
-0.00342226
-0.00218087
-0.000823644
0.000645612
0.00222266
0.00390285
0.00568116
0.0075522
0.00951023
0.0115492
0.0136627
0.0158441
0.0180864
0.0203826
0.0227253
0.0251069
0.0275197
0.0299559
0.0324074
0.0348662
0.037324
0.0397727
0.0422041
0.0446099
0.046982
0.0493121
0.0515924
0.0538149
0.0559719
0.058056
0.0600598
0.0619764
0.0637991
0.0655217
0.067138
0.0686427
0.0700308
0.0712977
0.0724396
0.0734529
0.0743351
0.0750841
0.0756984
0.0761776
0.0765218
0.0767321
0.0768103
0.0767591
0.0765823
0.0762845
0.0758711
0.0753488
0.074725
0.0740082
0.0732079
0.0723343
0.0713987
0.0704131
0.0693904
0.068344
0.0672877
0.0662358
0.0652024
0.0642014
0.0632461
0.0623524
0.061535
0.0607605
0.0599926
0.00913093
0.00806927
0.00708025
0.00610654
0.005089
0.00404051
0.00297558
0.0019045
0.000838093
-0.000212245
-0.00123514
-0.00221947
-0.00315455
-0.0040302
-0.0048369
-0.00556584
-0.00620892
-0.00675888
-0.00720922
-0.00755425
-0.00778911
-0.00790967
-0.0079126
-0.00779527
-0.00755576
-0.00719283
-0.0067059
-0.00609504
-0.00536088
-0.00450466
-0.00352812
-0.00243352
-0.0012236
9.84205e-05
0.00152887
0.00306365
0.00469829
0.00642793
0.00824738
0.0101511
0.0121333
0.0141878
0.0163081
0.0184876
0.0207194
0.0229965
0.0253114
0.0276567
0.0300249
0.0324082
0.0347988
0.0371886
0.0395699
0.0419346
0.0442747
0.0465823
0.0488496
0.0510687
0.053232
0.0553321
0.0573616
0.0593135
0.061181
0.0629576
0.0646372
0.0662139
0.0676825
0.0690381
0.0702762
0.0713929
0.072385
0.0732499
0.0739853
0.07459
0.0750633
0.0754053
0.0756169
0.0756997
0.0756562
0.0754899
0.0752048
0.0748062
0.0742999
0.0736928
0.0729927
0.0722081
0.0713484
0.0704236
0.0694446
0.0684227
0.0673698
0.0662979
0.0652193
0.0641463
0.0630903
0.0620623
0.0610768
0.0601467
0.05922
0.058245
0.0109146
0.00963793
0.00848758
0.00739127
0.00627128
0.00513914
0.00400823
0.00288664
0.001783
0.000706771
-0.000332513
-0.00132543
-0.00226282
-0.00313592
-0.00393648
-0.00465679
-0.0052898
-0.00582909
-0.00626893
-0.0066043
-0.00683088
-0.00694505
-0.00694386
-0.00682502
-0.00658689
-0.00622845
-0.00574926
-0.00514948
-0.00442984
-0.00359158
-0.00263647
-0.00156674
-0.000385061
0.000905434
0.00230119
0.00379825
0.00539227
0.00707854
0.00885204
0.0107074
0.0126391
0.014641
0.016707
0.0188307
0.0210054
0.0232241
0.0254799
0.0277654
0.0300733
0.0323962
0.0347264
0.0370562
0.039378
0.0416838
0.0439661
0.0462171
0.0484291
0.0505946
0.0527061
0.0547564
0.0567383
0.0586449
0.0604696
0.0622061
0.0638484
0.0653908
0.0668281
0.0681555
0.0693685
0.0704635
0.0714371
0.0722867
0.0730101
0.073606
0.0740735
0.0744126
0.0746241
0.0747093
0.0746705
0.0745107
0.0742337
0.0738441
0.0733474
0.0727498
0.0720582
0.0712805
0.0704249
0.0695006
0.0685172
0.0674847
0.0664134
0.065314
0.064197
0.0630728
0.061951
0.0608403
0.0597543
0.0587047
0.0576216
0.0564387
0.0127143
0.0112246
0.00991135
0.00868814
0.00745962
0.00623635
0.005031
0.00384974
0.00269933
0.00158749
0.000522139
-0.000488819
-0.00143764
-0.00231686
-0.00311938
-0.00383858
-0.00446835
-0.00500312
-0.00543792
-0.00576837
-0.00599072
-0.00610181
-0.00609913
-0.00598074
-0.00574528
-0.00539198
-0.00492056
-0.00433133
-0.00362509
-0.00280314
-0.00186727
-0.000819718
0.000336872
0.00159943
0.0029645
0.00442824
0.00598641
0.00763446
0.00936749
0.0111803
0.0130675
0.0150232
0.0170415
0.0191161
0.0212406
0.0234082
0.025612
0.0278452
0.0301004
0.0323704
0.0346479
0.0369254
0.0391953
0.04145
0.0436821
0.0458839
0.0480481
0.0501673
0.0522341
0.0542415
0.0561825
0.0580503
0.0598385
0.0615407
0.0631513
0.0646645
0.0660752
0.0673786
0.0685705
0.069647
0.0706048
0.0714413
0.0721542
0.0727421
0.0732041
0.0735399
0.0737501
0.0738358
0.073799
0.0736423
0.0733692
0.0729837
0.0724909
0.0718962
0.0712059
0.0704271
0.0695671
0.0686342
0.0676367
0.0665836
0.0654839
0.0643468
0.0631814
0.0619965
0.0607999
0.0595987
0.0584057
0.0572319
0.0559904
0.0546012
0.0145051
0.0128057
0.0113296
0.00997686
0.00863549
0.00731545
0.00602898
0.00478063
0.00357554
0.00241995
0.00132033
0.000283226
-0.000684906
-0.00157777
-0.00238937
-0.00311406
-0.00374664
-0.00428236
-0.00471696
-0.00504672
-0.00526842
-0.0053794
-0.00537756
-0.00526131
-0.00502962
-0.00468193
-0.00421822
-0.0036389
-0.0029449
-0.00213759
-0.0012188
-0.000190777
0.000943828
0.00218198
0.00352029
0.004955
0.00648198
0.0080968
0.00979469
0.0115706
0.0134192
0.0153348
0.0173118
0.0193439
0.0214249
0.0235483
0.0257074
0.0278953
0.0301052
0.0323298
0.034562
0.0367946
0.0390201
0.0412311
0.0434204
0.0455805
0.0477041
0.0497841
0.0518132
0.0537845
0.0556911
0.0575264
0.0592841
0.0609579
0.062542
0.0640311
0.0654198
0.0667036
0.067878
0.0689393
0.0698841
0.0707097
0.0714138
0.0719948
0.0724517
0.072784
0.072992
0.0730767
0.0730396
0.0728831
0.0726101
0.0722244
0.0717303
0.0711328
0.0704375
0.0696506
0.0687788
0.0678292
0.0668094
0.0657271
0.0645903
0.0634069
0.0621847
0.0609312
0.0596527
0.0583548
0.0570502
0.0557491
0.0543487
0.052756
0.0162655
0.0143605
0.0127225
0.0112389
0.00978178
0.00836078
0.00698798
0.00566659
0.00440036
0.00319424
0.00205345
0.000983299
-1.08929e-05
-0.000923915
-0.00175076
-0.00248672
-0.00312741
-0.00366887
-0.00410754
-0.0044403
-0.0046645
-0.00477795
-0.00477895
-0.00466629
-0.00443922
-0.00409748
-0.00364124
-0.00307111
-0.00238812
-0.00159374
-0.000689848
0.000321273
0.00143696
0.00265419
0.0039696
0.00537949
0.00687985
0.00846632
0.0101343
0.0118787
0.0136945
0.0155761
0.0175179
0.0195139
0.0215581
0.0236441
0.0257653
0.0279151
0.0300867
0.0322731
0.0344673
0.0366622
0.0388506
0.0410253
0.043179
0.0453045
0.0473947
0.0494423
0.0514405
0.0533823
0.055261
0.0570701
0.0588032
0.0604542
0.0620173
0.0634871
0.0648586
0.0661268
0.0672876
0.0683371
0.0692717
0.0700888
0.0707859
0.0713612
0.0718136
0.0721424
0.0723477
0.0724301
0.0723909
0.072232
0.0719561
0.0715664
0.0710666
0.0704613
0.0697554
0.0689543
0.068064
0.0670909
0.0660415
0.0649227
0.0637414
0.0625044
0.0612185
0.0598899
0.0585237
0.0571245
0.0557047
0.0542746
0.0527159
0.0509233
0.0179767
0.0158704
0.0140722
0.0124574
0.0108826
0.00935765
0.00789455
0.0064954
0.00516279
0.00390055
0.00271281
0.00160381
0.000577818
-0.000360922
-0.00120833
-0.00196053
-0.00261394
-0.00316531
-0.00361173
-0.0039507
-0.00418009
-0.0042982
-0.00430373
-0.00419581
-0.00397403
-0.00363836
-0.00318923
-0.00262741
-0.00195411
-0.00117089
-0.000279691
0.000717158
0.00181697
0.00301672
0.00431305
0.0057023
0.00718052
0.00874344
0.0103865
0.0121049
0.0138935
0.0157469
0.0176597
0.019626
0.0216398
0.0236949
0.025785
0.0279036
0.0300439
0.0321991
0.0343624
0.0365268
0.0386853
0.0408307
0.0429559
0.0450538
0.0471174
0.0491396
0.0511136
0.0530324
0.0548895
0.0566784
0.0583927
0.0600265
0.061574
0.0630296
0.0643883
0.0656453
0.0667963
0.0678372
0.0687647
0.0695757
0.0702677
0.0708387
0.0712875
0.0716131
0.0718154
0.0718947
0.0718519
0.0716887
0.0714072
0.0710102
0.070501
0.0698835
0.0691622
0.0683417
0.0674273
0.0664247
0.0653396
0.064178
0.0629458
0.0616492
0.0602937
0.0588847
0.0574265
0.0559223
0.054385
0.0528249
0.051109
0.0491204
0.019622
0.017319
0.0153627
0.0136168
0.0119234
0.0102923
0.00873595
0.00725536
0.00585216
0.00452924
0.00328977
0.00213704
0.00107443
0.000105258
-0.000767217
-0.00153992
-0.00220998
-0.00277482
-0.00323216
-0.00358006
-0.00381692
-0.00394149
-0.00395289
-0.00385061
-0.00363451
-0.00330486
-0.0028623
-0.00230781
-0.00164276
-0.000868836
1.19319e-05
0.000997165
0.00208415
0.00326983
0.00455087
0.00592361
0.00738413
0.00892824
0.0105515
0.012249
0.014016
0.015847
0.0177367
0.0196794
0.0216691
0.0236999
0.0257656
0.0278596
0.0299754
0.0321064
0.0342458
0.0363867
0.0385222
0.0406453
0.042749
0.0448262
0.0468701
0.0488735
0.0508298
0.0527321
0.0545739
0.0563486
0.05805
0.0596721
0.0612091
0.0626555
0.0640062
0.0652562
0.0664012
0.0674372
0.0683605
0.069168
0.069857
0.0704255
0.0708717
0.0711948
0.0713941
0.0714697
0.0714224
0.0712532
0.070964
0.070557
0.0700353
0.069402
0.068661
0.0678167
0.0668734
0.0658362
0.0647101
0.0635003
0.0622121
0.0608506
0.0594208
0.0579272
0.0563733
0.0547615
0.0531051
0.0514146
0.0495431
0.0473624
0.0211869
0.0186914
0.0165794
0.014703
0.0128905
0.011152
0.0095001
0.00793523
0.00645811
0.00507082
0.00377571
0.00257525
0.00147197
0.000468426
-0.000432909
-0.00122968
-0.0019197
-0.00250102
-0.00297193
-0.00333103
-0.00357722
-0.00370969
-0.00372797
-0.0036319
-0.00342166
-0.00309776
-0.00266107
-0.00211279
-0.00145443
-0.000687851
0.000184828
0.00116115
0.00223837
0.00341342
0.00468293
0.00604325
0.00749049
0.00902047
0.0106288
0.0123108
0.0140615
0.0158758
0.0177483
0.0196734
0.0216454
0.0236582
0.0257059
0.0277819
0.02988
0.0319936
0.0341159
0.0362402
0.0383596
0.0404672
0.0425562
0.0446196
0.0466504
0.0486418
0.0505869
0.052479
0.0543116
0.0560782
0.0577725
0.0593885
0.0609203
0.0623625
0.0637097
0.0649571
0.0661001
0.0671347
0.068057
0.0688637
0.0695521
0.0701198
0.070565
0.0708863
0.0710831
0.071155
0.0711023
0.070926
0.0706275
0.0702085
0.0696715
0.0690194
0.0682555
0.0673834
0.0664072
0.0653311
0.0641596
0.0628972
0.0615485
0.0601179
0.0586098
0.0570282
0.0553756
0.0536542
0.0518776
0.0500568
0.0480314
0.0456623
0.0226582
0.0199745
0.017709
0.0157031
0.0137714
0.0119245
0.0101756
0.00852426
0.00697063
0.00551603
0.00416212
0.00291063
0.00176337
0.000722185
-0.000211152
-0.00103495
-0.00174767
-0.00234793
-0.00283458
-0.00320671
-0.00346369
-0.00360514
-0.00363099
-0.00354143
-0.00333695
-0.00301832
-0.00258662
-0.00204327
-0.00138995
-0.000628646
0.000238372
0.00120857
0.00227914
0.00344698
0.00470872
0.00606071
0.00749903
0.00901955
0.0106179
0.0122894
0.0140293
0.0158324
0.0176936
0.0196071
0.0215674
0.0235686
0.0256047
0.0276693
0.0297563
0.0318591
0.033971
0.0360854
0.0381956
0.0402946
0.0423756
0.0444318
0.0464563
0.0484421
0.0503825
0.0522708
0.0541004
0.0558648
0.0575577
0.0591731
0.0607051
0.0621481
0.0634967
0.0647459
0.065891
0.0669279
0.0678525
0.0686615
0.0693518
0.0699208
0.0703665
0.0706873
0.0708821
0.0709505
0.0708924
0.0707083
0.0703992
0.0699665
0.0694123
0.068739
0.0679493
0.0670464
0.0660338
0.0649152
0.0636945
0.0623757
0.0609628
0.0594597
0.0578702
0.0561977
0.0544443
0.0526117
0.0507141
0.0487632
0.0465856
0.0440315
0.024024
0.0211559
0.0187393
0.0166048
0.0145542
0.0125985
0.0107515
0.00901213
0.00737998
0.00585578
0.00444055
0.00313539
0.00194147
0.000859979
-0.000107918
-0.000961151
-0.00169876
-0.00231993
-0.00282402
-0.00321059
-0.00347945
-0.00363063
-0.00366443
-0.0035814
-0.00338232
-0.00306824
-0.00264048
-0.00210062
-0.00145053
-0.000692348
0.000171527
0.00113846
0.00220555
0.00336967
0.00462742
0.00597514
0.00740891
0.0089246
0.0105178
0.012184
0.0139184
0.0157159
0.0175714
0.0194793
0.021434
0.0234298
0.0254605
0.0275202
0.0296026
0.0317012
0.0338094
0.0359207
0.0380283
0.0401254
0.0422053
0.0442609
0.0462855
0.0482723
0.0502145
0.0521052
0.053938
0.0557062
0.0574036
0.059024
0.0605615
0.0620104
0.0633651
0.0646206
0.0657722
0.0668152
0.0677457
0.06856
0.0692549
0.0698276
0.0702757
0.0705975
0.0707915
0.070857
0.0707936
0.0706013
0.0702809
0.0698335
0.0692605
0.068564
0.0677463
0.0668101
0.0657583
0.0645943
0.0633214
0.0619432
0.0604631
0.0588845
0.0572108
0.0554451
0.0535892
0.0516442
0.0496252
0.0475445
0.0452163
0.0424802
0.0252737
0.0222245
0.0196589
0.017397
0.015228
0.0131633
0.0112174
0.0093889
0.00767672
0.00608115
0.00460264
0.00324173
0.00199902
0.000875117
-0.000129373
-0.00101394
-0.00177816
-0.00242174
-0.00294454
-0.00334656
-0.00362801
-0.00378934
-0.00383118
-0.00375441
-0.00356014
-0.00324967
-0.00282456
-0.0022866
-0.0016378
-0.000880471
-1.71251e-05
0.000949474
0.00201635
0.00318029
0.00443786
0.0057854
0.00721898
0.00873446
0.0103275
0.0119934
0.0137276
0.015525
0.0173804
0.0192885
0.0212437
0.0232401
0.025272
0.0273331
0.0294173
0.0315182
0.0336294
0.0357442
0.0378559
0.0399578
0.042043
0.0441048
0.0461362
0.0481305
0.0500807
0.0519802
0.0538223
0.0556004
0.0573081
0.0589392
0.0604876
0.0619475
0.0633134
0.0645799
0.0657421
0.0667954
0.0677354
0.0685585
0.0692609
0.0698399
0.0702927
0.0706172
0.0708118
0.0708754
0.0708071
0.0706069
0.070275
0.0698121
0.0692193
0.0684982
0.0676508
0.0666793
0.0655862
0.0643744
0.0630468
0.0616066
0.0600567
0.0584003
0.0566404
0.0547797
0.0528196
0.0507614
0.0486206
0.0464105
0.0439328
0.0410173
0.0263973
0.02317
0.0204573
0.0180692
0.0157822
0.0136086
0.0115634
0.00964496
0.00785166
0.00618338
0.00464011
0.00322186
0.00192872
0.000760787
-0.000281855
-0.00119919
-0.00199131
-0.00265839
-0.00320075
-0.00361884
-0.00391326
-0.00408482
-0.00413449
-0.00406348
-0.00387317
-0.00356515
-0.00314122
-0.00260336
-0.00195378
-0.00119489
-0.000329362
0.000639931
0.0017099
0.00287727
0.00413855
0.00549003
0.00692779
0.00844767
0.0100453
0.0117162
0.0134554
0.0152582
0.0171192
0.0190333
0.0209948
0.0229981
0.0250372
0.0271061
0.0291986
0.0313083
0.0334289
0.0355538
0.0376763
0.0397896
0.0418869
0.0439614
0.0460062
0.0480144
0.0499792
0.0518937
0.0537514
0.0555454
0.0572693
0.0589168
0.0604816
0.0619579
0.0633399
0.0646222
0.0657997
0.0668674
0.067821
0.0686563
0.0693696
0.0699577
0.0704176
0.070747
0.0709439
0.0710068
0.0709348
0.0707271
0.0703838
0.0699052
0.0692921
0.0685456
0.0676673
0.066659
0.0655229
0.0642614
0.0628772
0.0613728
0.0597512
0.058015
0.056167
0.0542098
0.0521445
0.0499721
0.0477093
0.04537
0.0427439
0.0396509
0.0273855
0.0239827
0.0211247
0.0186113
0.016207
0.0139246
0.01178
0.009771
0.00789581
0.00615386
0.00454472
0.00306797
0.0017232
0.000510059
-0.000571859
-0.001523
-0.00234389
-0.00303517
-0.00359758
-0.004032
-0.00433942
-0.00452098
-0.004578
-0.00451196
-0.00432454
-0.00401761
-0.00359317
-0.00305345
-0.00240081
-0.00163783
-0.000767296
0.000207803
0.00128428
0.00245876
0.00372767
0.00508728
0.00653362
0.00806255
0.00966968
0.0113505
0.0131001
0.0149137
0.016786
0.0187118
0.0206857
0.0227018
0.0247543
0.0268373
0.0289445
0.0310696
0.0332062
0.0353477
0.0374875
0.0396188
0.0417349
0.0438287
0.0458934
0.0479221
0.0499079
0.0518439
0.0537233
0.0555393
0.0572854
0.0589551
0.0605421
0.0620402
0.0634436
0.0647466
0.065944
0.0670307
0.0680019
0.0688533
0.0695809
0.0701812
0.0706511
0.0709878
0.0711891
0.0712531
0.0711785
0.0709644
0.0706103
0.0701163
0.0694826
0.0687102
0.0678003
0.0667542
0.0655739
0.0642614
0.0628189
0.0612489
0.0595539
0.0577364
0.0557989
0.0537438
0.0515722
0.049285
0.0468998
0.0444313
0.0416576
0.0383884
0.0282295
0.0246534
0.0216515
0.0190137
0.0164927
0.0141019
0.0118577
0.00975795
0.00780037
0.00598409
0.00430833
0.00277225
0.00137504
0.000115888
-0.00100604
-0.00199161
-0.00284179
-0.00355761
-0.00414023
-0.00459091
-0.00491102
-0.00510206
-0.00516564
-0.00510356
-0.00491774
-0.00461029
-0.00418348
-0.00363973
-0.00298161
-0.00221185
-0.00133336
-0.000349244
0.00073722
0.00192255
0.00320311
0.00457509
0.00603448
0.00757711
0.00919861
0.0108944
0.0126597
0.0144895
0.0163788
0.0183222
0.0203142
0.0223493
0.0244214
0.0265247
0.028653
0.0307999
0.032959
0.0351237
0.0372875
0.0394435
0.0415848
0.0437046
0.0457958
0.0478516
0.0498648
0.0518287
0.0537362
0.0555805
0.0573549
0.0590527
0.0606675
0.062193
0.0636232
0.0649522
0.0661744
0.0672846
0.0682778
0.0691494
0.0698951
0.0705112
0.0709941
0.0713409
0.0715489
0.0716161
0.0715406
0.0713214
0.0709575
0.0704486
0.0697948
0.0689965
0.0680546
0.0669703
0.0657449
0.0643804
0.0628786
0.0612417
0.059472
0.0575719
0.0555436
0.0533896
0.0511108
0.0487081
0.0462
0.0436023
0.0406813
0.0372368
0.0289211
0.0251733
0.0220287
0.0192674
0.0166302
0.0141311
0.0117875
0.0095969
0.00755664
0.00566564
0.00392278
0.00232687
0.000876722
-0.00042889
-0.0015912
-0.0026115
-0.00349112
-0.0042315
-0.00483416
-0.00530073
-0.00563294
-0.00583262
-0.00590172
-0.00584229
-0.00565654
-0.00534679
-0.00491555
-0.00436545
-0.00369925
-0.00291986
-0.00203032
-0.00103385
6.61804e-05
0.0012662
0.00256247
0.00395112
0.00542808
0.00698915
0.00862992
0.0103458
0.012132
0.0139837
0.0158955
0.0178622
0.0198784
0.0219384
0.0240363
0.0261662
0.0283219
0.030497
0.0326852
0.0348797
0.037074
0.0392613
0.0414346
0.043587
0.0457114
0.0478008
0.0498482
0.0518463
0.0537884
0.0556672
0.0574761
0.0592081
0.0608567
0.0624154
0.0638779
0.0652381
0.0664903
0.0676289
0.0686487
0.0695448
0.0703127
0.0709483
0.0714477
0.0718076
0.0720252
0.0720979
0.0720237
0.0718011
0.0714288
0.0709062
0.0702329
0.0694091
0.0684354
0.0673126
0.0660418
0.0646246
0.0630627
0.0613581
0.0595128
0.0575289
0.0554089
0.053155
0.0507682
0.0482492
0.0456178
0.0428905
0.0398221
0.0362026
0.029452
0.025534
0.0222476
0.0193635
0.0166104
0.0140035
0.0115606
0.00927908
0.00715604
0.00519013
0.00337994
0.00172397
0.000220669
-0.00113155
-0.00233432
-0.0033893
-0.0042982
-0.00506283
-0.00568506
-0.00616685
-0.00651029
-0.00671753
-0.00679082
-0.00673251
-0.00654504
-0.006231
-0.00579308
-0.00523413
-0.00455709
-0.00376506
-0.00286123
-0.00184893
-0.000731657
0.000486952
0.00180308
0.00321277
0.00471189
0.00629617
0.00796118
0.00970232
0.0115148
0.0133936
0.0153337
0.0173296
0.0193759
0.0214668
0.0235967
0.0257595
0.0279489
0.0301588
0.0323825
0.0346135
0.036845
0.0390702
0.0412822
0.0434739
0.0456382
0.0477679
0.0498559
0.0518951
0.0538781
0.055798
0.0576476
0.0594201
0.0611086
0.0627063
0.0642069
0.0656039
0.0668914
0.0680635
0.0691148
0.0700401
0.0708345
0.0714936
0.0720133
0.0723898
0.0726201
0.0727011
0.0726307
0.0724067
0.0720278
0.0714928
0.0708013
0.0699529
0.0689478
0.0677868
0.0664706
0.0650005
0.0633781
0.061605
0.0596833
0.057615
0.0554023
0.0530477
0.0505519
0.047916
0.0451605
0.0423031
0.0390868
0.0352921
0.0298144
0.025727
0.0222997
0.0192931
0.0164247
0.0137102
0.0111681
0.00879578
0.00659001
0.00454919
0.00267167
0.000955636
-0.000600782
-0.0019995
-0.00324251
-0.00433183
-0.00526956
-0.00605783
-0.00669886
-0.00719495
-0.00754847
-0.00776192
-0.00783783
-0.00777884
-0.00758767
-0.0072671
-0.00682006
-0.00624957
-0.00555878
-0.00475095
-0.00382944
-0.00279772
-0.00165939
-0.000418169
0.000922043
0.00235721
0.00388313
0.00549547
0.00718975
0.00896133
0.0108054
0.012717
0.0146909
0.0167217
0.0188041
0.0209322
0.0231002
0.0253021
0.0275317
0.0297827
0.0320486
0.0343226
0.036598
0.0388679
0.0411253
0.043363
0.0455739
0.0477508
0.0498862
0.051973
0.0540037
0.0559712
0.0578681
0.0596874
0.061422
0.0630649
0.0646095
0.0660491
0.0673775
0.0685886
0.0696766
0.0706359
0.0714615
0.0721485
0.0726925
0.0730895
0.0733359
0.0734285
0.0733645
0.0731418
0.0727584
0.072213
0.0715046
0.0706327
0.0695973
0.0683986
0.0670373
0.0655144
0.0638313
0.0619895
0.0599909
0.0578375
0.0555314
0.0530752
0.0504696
0.0477158
0.0448354
0.0418472
0.0384823
0.0345114
0.0300005
0.0257444
0.0221764
0.0190478
0.0160643
0.0132423
0.0106014
0.00813836
0.00585
0.00373443
0.00178975
1.38609e-05
-0.0015954
-0.00304026
-0.00432305
-0.00544613
-0.00641193
-0.00722296
-0.00788175
-0.00839091
-0.00875314
-0.00897119
-0.00904792
-0.00898623
-0.0087891
-0.00845957
-0.00800075
-0.00741588
-0.00670826
-0.00588133
-0.0049386
-0.00388371
-0.00272037
-0.00145241
-8.37944e-05
0.00138136
0.0029388
0.0045841
0.00631273
0.00812
0.0100011
0.0119509
0.0139644
0.016036
0.0181604
0.0203317
0.0225441
0.0247915
0.0270677
0.0293664
0.0316809
0.0340047
0.0363307
0.0386521
0.0409617
0.0432523
0.0455167
0.0477475
0.0499372
0.0520784
0.0541636
0.0561854
0.0581362
0.0600088
0.061796
0.0634904
0.0650852
0.0665735
0.0679487
0.0692044
0.0703345
0.0713331
0.0721948
0.0729145
0.0734873
0.0739089
0.0741753
0.0742829
0.0742287
0.0740101
0.0736248
0.0730711
0.0723478
0.0714541
0.0703895
0.0691541
0.0677483
0.066173
0.0644293
0.0625187
0.0604429
0.0582038
0.0558038
0.0532452
0.050529
0.0476563
0.04465
0.0415298
0.0380151
0.0338666
0.0300025
0.0255778
0.0218695
0.018619
0.0155206
0.0125914
0.00985162
0.00729815
0.00492743
0.00273738
0.000725876
-0.00110946
-0.00277107
-0.0042615
-0.00558337
-0.00673937
-0.00773227
-0.0085649
-0.00924014
-0.0097609
-0.0101302
-0.010351
-0.0104265
-0.0103599
-0.0101543
-0.00981315
-0.00933971
-0.00873739
-0.00800969
-0.0071602
-0.00619259
-0.00511065
-0.00391822
-0.00261926
-0.0012178
0.000281952
0.00187568
0.00355892
0.00532705
0.00717532
0.00909885
0.0110926
0.0131513
0.0152697
0.0174421
0.0196627
0.0219257
0.024225
0.0265543
0.0289072
0.0312771
0.0336572
0.0360406
0.0384203
0.040789
0.0431395
0.0454643
0.0477559
0.0500069
0.0522095
0.0543561
0.056439
0.0584506
0.0603834
0.0622297
0.0639822
0.0656337
0.0671769
0.068605
0.0699113
0.0710892
0.0721327
0.0730359
0.0737933
0.0743997
0.0748504
0.075141
0.0752677
0.0752269
0.0750156