/*--------------------------------*- C++ -*----------------------------------*\
| =========                 |                                                 |
| \\      /  F ield         | OpenFOAM: The Open Source CFD Toolbox           |
|  \\    /   O peration     | Version:  v1912                                 |
|   \\  /    A nd           | Website:  www.openfoam.com                      |
|    \\/     M anipulation  |                                                 |
\*---------------------------------------------------------------------------*/
FoamFile
{
    version     2.0;
    format      ascii;
    class       volScalarField;
    location    "0.00035";
    object      iDofMean;
}
// * * * * * * * * * * * * * * * * * * * * * * * * * * * * * * * * * * * * * //

dimensions      [0 -3 0 0 0 0 0];


internalField   nonuniform List<scalar> 
1300
(
3.771428571e+23
4.434285714e+23
9.588571429e+23
2.530285714e+24
1.454857143e+24
1.033142857e+24
1.452571429e+24
1.521142857e+24
1.275428571e+24
1.224e+24
4.4e+23
4.48e+23
1.413714286e+24
4.421714286e+24
2.141714286e+24
1.312e+24
2.260571429e+24
2.226285714e+24
1.685714286e+24
1.557714286e+24
2.251428571e+23
2.617142857e+23
1.258285714e+24
4.536e+24
2.086857143e+24
1.249142857e+24
2.418285714e+24
2.756571429e+24
1.941714286e+24
1.829714286e+24
1.462857143e+23
1.451428571e+23
1.12e+24
4.346285714e+24
1.954285714e+24
1.222857143e+24
2.504e+24
3.233142857e+24
2.114285714e+24
2.044571429e+24
9.6e+22
1.268571429e+23
1.2e+24
4.283428571e+24
1.896e+24
1.010285714e+24
2.340571429e+24
2.947428571e+24
2.286857143e+24
2.109714286e+24
6.285714286e+22
8.228571429e+22
1.093714286e+24
4.283428571e+24
1.851428571e+24
9.828571429e+23
2.194285714e+24
2.818285714e+24
2.179428571e+24
2.043428571e+24
4.571428571e+22
8.685714286e+22
1.165714286e+24
4.301714286e+24
1.788571429e+24
9.451428571e+23
2.124571429e+24
2.665142857e+24
2.006857143e+24
1.953142857e+24
4.685714286e+22
5.714285714e+22
1.155428571e+24
4.296e+24
1.832e+24
9.988571429e+23
2.144e+24
2.804571429e+24
1.910857143e+24
1.852571429e+24
3.085714286e+22
5.142857143e+22
1.132571429e+24
4.381714286e+24
1.765714286e+24
9.485714286e+23
2.217142857e+24
2.716571429e+24
1.897142857e+24
1.808e+24
2.171428571e+22
4.571428571e+22
1.139428571e+24
4.235428571e+24
1.848e+24
9.988571429e+23
2.025142857e+24
2.724571429e+24
1.922285714e+24
1.681142857e+24
2.514285714e+22
4e+22
1.164571429e+24
4.256e+24
1.851428571e+24
9.874285714e+23
2.117714286e+24
2.790857143e+24
1.939428571e+24
1.818285714e+24
1.485714286e+22
4.228571429e+22
1.118857143e+24
4.197714286e+24
1.764571429e+24
9.222857143e+23
2.149714286e+24
2.705142857e+24
1.859428571e+24
1.811428571e+24
1.142857143e+22
4.342857143e+22
1.049142857e+24
4.228571429e+24
1.804571429e+24
9.36e+23
2.036571429e+24
2.717714286e+24
1.884571429e+24
1.784e+24
1.028571429e+22
2.857142857e+22
1.154285714e+24
4.259428571e+24
1.845714286e+24
9.474285714e+23
2.044571429e+24
2.670857143e+24
1.918857143e+24
1.748571429e+24
4.571428571e+21
2.857142857e+22
1.121142857e+24
4.179428571e+24
1.850285714e+24
9.565714286e+23
2.052571429e+24
2.785142857e+24
1.953142857e+24
1.733714286e+24
8e+21
3.657142857e+22
1.180571429e+24
4.259428571e+24
1.777142857e+24
1.044571429e+24
2.115428571e+24
2.669714286e+24
1.948571429e+24
1.755428571e+24
8e+21
3.085714286e+22
1.123428571e+24
4.192e+24
1.779428571e+24
1.035428571e+24
2.121142857e+24
2.569142857e+24
1.972571429e+24
1.764571429e+24
6.857142857e+21
1.942857143e+22
1.181714286e+24
4.293714286e+24
1.750857143e+24
1.001142857e+24
2.067428571e+24
2.729142857e+24
2.009142857e+24
1.709714286e+24
5.714285714e+21
3.657142857e+22
1.092571429e+24
4.212571429e+24
1.789714286e+24
9.657142857e+23
2.068571429e+24
2.630857143e+24
1.893714286e+24
1.721142857e+24
3.428571429e+21
2.742857143e+22
9.977142857e+23
4.001142857e+24
1.795428571e+24
1.003428571e+24
2.030857143e+24
2.523428571e+24
1.909714286e+24
1.774857143e+24
1.268972246e+24
1.176717577e+24
1.164479724e+24
1.106114532e+24
1.082580171e+24
1.065635447e+24
1.122117891e+24
1.169186585e+24
1.075990561e+24
1.113645524e+24
1.090111163e+24
1.158831479e+24
1.156948731e+24
1.152241852e+24
1.190838198e+24
1.194603694e+24
1.183307196e+24
1.167303846e+24
1.21907942e+24
1.202134677e+24
1.197427816e+24
1.300978964e+24
1.252027502e+24
1.240731023e+24
1.30003759e+24
1.319806434e+24
1.408295608e+24
1.393233623e+24
1.558915446e+24
1.581508437e+24
1.499608893e+24
1.303803075e+24
1.190838198e+24
1.201193313e+24
1.195545058e+24
1.174834839e+24
1.126824761e+24
1.161655592e+24
1.126824761e+24
1.139062624e+24
1.146593607e+24
1.075049187e+24
1.209665679e+24
1.165421088e+24
1.175776213e+24
1.132473006e+24
1.13341437e+24
1.119293769e+24
1.210607053e+24
1.275561854e+24
1.183307205e+24
1.229434535e+24
1.301920327e+24
1.290623849e+24
1.233200031e+24
1.34898903e+24
1.273679116e+24
1.316040949e+24
1.379113e+24
1.467602174e+24
1.885572261e+24
1.673763082e+24
1.467602174e+24
1.400764615e+24
1.327337427e+24
1.319806445e+24
1.236965527e+24
1.211548417e+24
1.217196672e+24
1.173893465e+24
1.153183226e+24
1.156948731e+24
1.153183235e+24
1.181424447e+24
1.183307205e+24
1.197427816e+24
1.156948722e+24
1.202134687e+24
1.255793009e+24
1.224727654e+24
1.239789649e+24
1.288741101e+24
1.188014066e+24
1.220962168e+24
1.206841557e+24
1.291565213e+24
1.264265375e+24
1.326396064e+24
1.386643993e+24
1.351813164e+24
2.203756696e+24
2.104912402e+24
1.803672717e+24
1.689766455e+24
1.644580486e+24
1.4666608e+24
1.438419578e+24
1.424298955e+24
1.338633927e+24
1.300978964e+24
1.277444602e+24
1.224727664e+24
1.264265375e+24
1.202134677e+24
1.243555146e+24
1.242613772e+24
1.159772844e+24
1.22378629e+24
1.220020794e+24
1.24920338e+24
1.276503238e+24
1.298154842e+24
1.273679105e+24
1.284034231e+24
1.367816523e+24
1.25861712e+24
1.314158201e+24
1.388526752e+24
1.333927045e+24
1.251086138e+24
2.562420217e+24
2.454162179e+24
2.102088297e+24
2.011716386e+24
1.975944155e+24
1.756604014e+24
1.689766455e+24
1.607866897e+24
1.592804925e+24
1.425240341e+24
1.392292237e+24
1.389468126e+24
1.336751179e+24
1.347106282e+24
1.306627208e+24
1.316040949e+24
1.311334068e+24
1.271796368e+24
1.292506597e+24
1.230375899e+24
1.237906901e+24
1.253910261e+24
1.239789639e+24
1.301920338e+24
1.232258657e+24
1.354637275e+24
1.327337438e+24
1.298154842e+24
1.271796357e+24
1.252027512e+24
2.330842196e+24
2.556771952e+24
2.329900822e+24
2.308249218e+24
2.180222327e+24
2.092674556e+24
1.942054705e+24
1.874275757e+24
1.705769814e+24
1.70953531e+24
1.61539789e+24
1.557974085e+24
1.546677596e+24
1.475133155e+24
1.470426296e+24
1.388526752e+24
1.453481551e+24
1.339575301e+24
1.331102934e+24
1.417709337e+24
1.363109653e+24
1.317923697e+24
1.347106282e+24
1.259558505e+24
1.351813164e+24
1.347106282e+24
1.321689194e+24
1.312275453e+24
1.289682465e+24
1.363109653e+24
2.215053185e+24
2.513468745e+24
2.461693192e+24
2.456044947e+24
2.440041568e+24
2.383559144e+24
2.253649522e+24
2.077612554e+24
2.099264175e+24
2.004185394e+24
1.82626568e+24
1.781079739e+24
1.632342636e+24
1.649287356e+24
1.626694392e+24
1.564563703e+24
1.566446439e+24
1.5683292e+24
1.472309045e+24
1.442185062e+24
1.428064463e+24
1.458188433e+24
1.446891933e+24
1.402647363e+24
1.364992401e+24
1.387585367e+24
1.381937134e+24
1.397940493e+24
1.426181703e+24
1.353695912e+24
2.148215626e+24
2.332724925e+24
2.341197311e+24
2.286597615e+24
2.539827218e+24
2.620785409e+24
2.485227543e+24
2.314838818e+24
2.3016596e+24
2.222584178e+24
2.055019577e+24
2.020188753e+24
1.975002798e+24
1.877099879e+24
1.789552106e+24
1.780138365e+24
1.692590563e+24
1.718007677e+24
1.613515155e+24
1.619163386e+24
1.582449811e+24
1.587156681e+24
1.530674224e+24
1.532556985e+24
1.495843396e+24
1.468543536e+24
1.433712708e+24
1.491136526e+24
1.444067811e+24
1.413943852e+24
2.120915779e+24
2.215994541e+24
2.090791808e+24
2.172691352e+24
2.311073321e+24
2.507820521e+24
2.407093496e+24
2.527589356e+24
2.599133806e+24
2.355317922e+24
2.318604314e+24
2.341197311e+24
2.118091656e+24
2.090791791e+24
2.03807486e+24
1.939230583e+24
1.89592736e+24
1.792376228e+24
1.853565543e+24
1.729304151e+24
1.764135006e+24
1.65870111e+24
1.681294074e+24
1.689766455e+24
1.661525233e+24
1.64552186e+24
1.622928896e+24
1.571153322e+24
1.541029339e+24
1.501491641e+24
2.089850434e+24
2.20187393e+24
2.03807486e+24
2.056902342e+24
2.248942633e+24
2.328018074e+24
2.305425096e+24
2.38261775e+24
2.469224184e+24
2.569009836e+24
2.427803705e+24
2.496524032e+24
2.402386625e+24
2.312014695e+24
2.215053185e+24
2.222584178e+24
2.064433317e+24
2.039957608e+24
2.032426616e+24
1.966530415e+24
1.962764935e+24
1.919461728e+24
1.883689497e+24
1.807438213e+24
1.830031191e+24
1.782021099e+24
1.715183555e+24
1.737776532e+24
1.688825067e+24
1.613515155e+24
2.025836997e+24
2.179280953e+24
2.056902342e+24
2.052195471e+24
2.068198814e+24
2.242353033e+24
2.173632726e+24
2.267770115e+24
2.421214107e+24
2.478637925e+24
2.392972865e+24
2.514410139e+24
2.504055025e+24
2.455103553e+24
2.419331359e+24
2.329900822e+24
2.40332798e+24
2.25553227e+24
2.148215626e+24
2.114326143e+24
1.949585698e+24
2.045605853e+24
2.01642324e+24
1.928875468e+24
1.966530431e+24
1.933582323e+24
1.891220505e+24
1.86674478e+24
1.794258962e+24
1.814027832e+24
1.991947531e+24
2.166101716e+24
1.998537149e+24
2.022071501e+24
2.04184034e+24
2.181163719e+24
2.085143564e+24
2.180222327e+24
2.324252577e+24
2.33649044e+24
2.394855613e+24
2.505937773e+24
2.515351514e+24
2.440041568e+24
2.476755177e+24
2.548299606e+24
2.381676376e+24
2.295069981e+24
2.408976244e+24
2.31766294e+24
2.245177156e+24
2.188694711e+24
2.155746601e+24
2.130329519e+24
2.101146923e+24
2.087967669e+24
2.023012875e+24
2.010775012e+24
2.061609195e+24
1.975944172e+24
2.041840357e+24
2.123739883e+24
2.047488601e+24
1.921344476e+24
2.08137805e+24
2.14445013e+24
2.070081579e+24
2.036192095e+24
2.266828759e+24
2.24611853e+24
2.223525534e+24
2.46357594e+24
2.432510595e+24
2.484286149e+24
2.632081898e+24
2.610430295e+24
2.445689812e+24
2.510644643e+24
2.466400062e+24
2.441924316e+24
2.352493799e+24
2.371321281e+24
2.364731643e+24
2.209404941e+24
2.208463567e+24
2.17174996e+24
2.202815322e+24
2.121857152e+24
2.125622631e+24
2.155746619e+24
1.966530431e+24
2.138801868e+24
2.009833638e+24
1.971237301e+24
2.006068125e+24
2.087967686e+24
2.006068142e+24
1.965589041e+24
2.11903303e+24
2.157629367e+24
2.087967669e+24
2.202815322e+24
2.376969525e+24
2.290363092e+24
2.543592736e+24
2.43815884e+24
2.546416837e+24
2.603840676e+24
2.52382388e+24
2.490875767e+24
2.538885865e+24
2.428745099e+24
2.461693171e+24
2.441924336e+24
2.281890744e+24
2.383559124e+24
2.303542348e+24
2.231997919e+24
2.354376528e+24
2.234822041e+24
2.039957608e+24
2.131270876e+24
1.995713027e+24
1.97312005e+24
1.989123392e+24
2.047488601e+24
2.040898983e+24
1.990064766e+24
2.065374708e+24
2.037133486e+24
2.001361255e+24
2.14445013e+24
2.235763415e+24
2.108677898e+24
2.299776852e+24
2.360024792e+24
2.380735002e+24
2.545475484e+24
2.526648002e+24
2.53794447e+24
2.568068461e+24
2.492758536e+24
2.494641264e+24
2.456986321e+24
2.528530751e+24
2.388265994e+24
2.369438533e+24
2.405210747e+24
2.31295607e+24
2.347786929e+24
2.039957608e+24
2.169867212e+24
1.998537149e+24
1.988182035e+24
2.060667821e+24
2.200932574e+24
1.938289209e+24
1.994771637e+24
2.100205549e+24
2.103971045e+24
1.953351178e+24
2.050312723e+24
2.06349196e+24
2.083260798e+24
2.180222345e+24
2.245177156e+24
2.31295607e+24
2.368497159e+24
2.400503877e+24
2.488993019e+24
2.547358232e+24
2.572775332e+24
2.605723403e+24
2.484286169e+24
2.537003117e+24
2.561478822e+24
2.436276092e+24
2.440982962e+24
2.472048286e+24
2.434393343e+24
2.032426616e+24
2.064433317e+24
2.108677916e+24
1.924168598e+24
2.006068125e+24
2.057843716e+24
2.000419898e+24
2.023012859e+24
2.03336799e+24
2.110560664e+24
2.034309347e+24
2.089850434e+24
2.155746619e+24
2.01642324e+24
2.127505397e+24
2.125622649e+24
2.168925838e+24
2.198108452e+24
2.3016596e+24
2.457927675e+24
2.477696551e+24
2.451338077e+24
2.615137143e+24
2.563361591e+24
2.593485561e+24
2.547358211e+24
2.63019915e+24
2.525706628e+24
2.544534089e+24
2.598192432e+24
2.025836997e+24
2.119033013e+24
2.00795089e+24
2.009833638e+24
2.000419881e+24
2.167984482e+24
2.016423257e+24
1.958058048e+24
2.111502038e+24
2.004185394e+24
2.097381409e+24
2.02866112e+24
2.135977764e+24
2.105853776e+24
2.146332878e+24
2.129388145e+24
2.212229045e+24
2.208463567e+24
2.196225704e+24
2.249884007e+24
2.3524938e+24
2.316721585e+24
2.432510575e+24
2.461693192e+24
2.589720065e+24
2.47769653e+24
2.667854113e+24
2.615137165e+24
2.578423555e+24
2.541709988e+24
2.005126768e+24
2.156687975e+24
1.975944172e+24
1.92699272e+24
1.988182018e+24
2.094557304e+24
1.992888905e+24
1.997595759e+24
2.040898983e+24
2.048429975e+24
2.053136828e+24
2.006068142e+24
2.120915778e+24
2.023012859e+24
1.992888905e+24
2.156687993e+24
2.053136829e+24
2.202815323e+24
2.152922497e+24
2.239528893e+24
2.249884026e+24
2.263063263e+24
2.401445231e+24
2.3524938e+24
2.508761895e+24
2.520058363e+24
2.533237621e+24
2.553006476e+24
2.5586547e+24
2.730926175e+24
2.001361272e+24
2.023954233e+24
1.949585698e+24
1.998537149e+24
1.943937437e+24
2.008892264e+24
1.98253379e+24
1.925109956e+24
2.050312723e+24
1.918520354e+24
1.939230567e+24
1.999478523e+24
2.011716386e+24
1.990064766e+24
1.974061424e+24
2.014540509e+24
2.039957592e+24
2.036192112e+24
2.053136845e+24
2.093615913e+24
2.158570741e+24
2.159512115e+24
2.194342938e+24
2.285656241e+24
2.324252577e+24
2.371321261e+24
2.338373188e+24
2.47298968e+24
2.551123707e+24
2.520999758e+24
1.302857143e+24
1.268571429e+24
1.289142857e+24
1.315428571e+24
1.249142857e+24
1.180571429e+24
1.140571429e+24
1.107428571e+24
1.022857143e+24
8.491428571e+23
1.588571429e+24
1.620571429e+24
1.491428571e+24
1.481142857e+24
1.465142857e+24
1.500571429e+24
1.432e+24
1.363428571e+24
1.210285714e+24
1.029714286e+24
1.386285714e+24
1.392e+24
1.444571429e+24
1.425142857e+24
1.346285714e+24
1.412571429e+24
1.337142857e+24
1.316571429e+24
1.168e+24
1.020571429e+24
1.316571429e+24
1.356571429e+24
1.412571429e+24
1.376e+24
1.328e+24
1.314285714e+24
1.226285714e+24
1.265142857e+24
1.131428571e+24
1.064e+24
1.254857143e+24
1.329142857e+24
1.337142857e+24
1.309714286e+24
1.304e+24
1.229714286e+24
1.345142857e+24
1.197714286e+24
1.117714286e+24
1.08e+24
1.374857143e+24
1.345142857e+24
1.250285714e+24
1.257142857e+24
1.244571429e+24
1.208e+24
1.233142857e+24
1.154285714e+24
1.156571429e+24
1.157714286e+24
1.333714286e+24
1.330285714e+24
1.377142857e+24
1.310857143e+24
1.237714286e+24
1.306285714e+24
1.218285714e+24
1.209142857e+24
1.166857143e+24
1.129142857e+24
1.425142857e+24
1.385142857e+24
1.419428571e+24
1.305142857e+24
1.402285714e+24
1.265142857e+24
1.226285714e+24
1.241142857e+24
1.181714286e+24
1.150857143e+24
1.510857143e+24
1.474285714e+24
1.398857143e+24
1.382857143e+24
1.418285714e+24
1.330285714e+24
1.350857143e+24
1.262857143e+24
1.209142857e+24
1.202285714e+24
1.664e+24
1.542857143e+24
1.606857143e+24
1.522285714e+24
1.465142857e+24
1.478857143e+24
1.387428571e+24
1.306285714e+24
1.364571429e+24
1.283428571e+24
1.729142857e+24
1.68e+24
1.744e+24
1.604571429e+24
1.594285714e+24
1.48e+24
1.536e+24
1.510857143e+24
1.460571429e+24
1.402285714e+24
1.865142857e+24
1.928e+24
1.875428571e+24
1.822857143e+24
1.745142857e+24
1.793142857e+24
1.645714286e+24
1.645714286e+24
1.472e+24
1.548571429e+24
2.082285714e+24
2.107428571e+24
1.988571429e+24
2.006857143e+24
2.024e+24
1.908571429e+24
1.782857143e+24
1.882285714e+24
1.72e+24
1.706285714e+24
2.220571429e+24
2.256e+24
2.253714286e+24
2.161142857e+24
2.128e+24
2.149714286e+24
2.057142857e+24
2.008e+24
1.982857143e+24
1.874285714e+24
2.294857143e+24
2.246857143e+24
2.233142857e+24
2.258285714e+24
2.217142857e+24
2.225142857e+24
2.139428571e+24
2.190857143e+24
2.139428571e+24
2.059428571e+24
2.410285714e+24
2.401142857e+24
2.420571429e+24
2.396571429e+24
2.416e+24
2.353142857e+24
2.374857143e+24
2.187428571e+24
2.283428571e+24
2.264e+24
2.468571429e+24
2.598857143e+24
2.579428571e+24
2.532571429e+24
2.381714286e+24
2.525714286e+24
2.437714286e+24
2.525714286e+24
2.413714286e+24
2.373714286e+24
2.590857143e+24
2.397714286e+24
2.464e+24
2.606857143e+24
2.608e+24
2.574857143e+24
2.538285714e+24
2.539428571e+24
2.561142857e+24
2.484571429e+24
2.566857143e+24
2.579428571e+24
2.613714286e+24
2.554285714e+24
2.621714286e+24
2.553142857e+24
2.598857143e+24
2.64e+24
2.643428571e+24
2.654857143e+24
2.514285714e+24
2.517714286e+24
2.635428571e+24
2.554285714e+24
2.570285714e+24
2.610285714e+24
2.556571429e+24
2.565714286e+24
2.619428571e+24
2.681142857e+24
1.081003101e+24
1.326377223e+24
1.277754711e+24
1.283408493e+24
1.275493186e+24
1.267577904e+24
1.308285134e+24
1.237047469e+24
1.221216892e+24
1.276623955e+24
1.259662597e+24
1.315069672e+24
1.289062275e+24
1.287931506e+24
1.32185421e+24
1.344469338e+24
1.433799078e+24
1.363692196e+24
1.377261273e+24
1.364822939e+24
1.407791695e+24
1.408922452e+24
1.429276052e+24
1.483552373e+24
1.476767835e+24
1.528782613e+24
1.570620614e+24
1.553659268e+24
1.51408278e+24
1.335423287e+24
1.188140965e+24
1.618883574e+24
1.593415517e+24
1.562410906e+24
1.574591274e+24
1.46718246e+24
1.545801293e+24
1.625527419e+24
1.585664364e+24
1.63660051e+24
1.598952039e+24
1.575698596e+24
1.652102815e+24
1.570162043e+24
1.561303599e+24
1.659853968e+24
1.619990881e+24
1.696395116e+24
1.686429348e+24
1.691965869e+24
1.776121257e+24
1.687536655e+24
1.686429332e+24
1.720755881e+24
1.732936264e+24
1.86913507e+24
1.968792765e+24
1.942217384e+24
1.969900053e+24
1.65431743e+24
1.142306433e+24
1.5773158e+24
1.53500817e+24
1.574061381e+24
1.605520897e+24
1.529584112e+24
1.536092981e+24
1.533923344e+24
1.524160055e+24
1.55778921e+24
1.530668909e+24
1.467749861e+24
1.552365152e+24
1.564298063e+24
1.589248741e+24
1.604436101e+24
1.579485423e+24
1.636980444e+24
1.649998181e+24
1.553449949e+24
1.622877895e+24
1.652167804e+24
1.677118451e+24
1.585994307e+24
1.643489312e+24
1.750885627e+24
1.814889518e+24
1.866960466e+24
1.927709888e+24
1.499209392e+24
1.198239022e+24
1.499127778e+24
1.551225141e+24
1.507633481e+24
1.575678983e+24
1.494874947e+24
1.507633481e+24
1.440651162e+24
1.529960917e+24
1.448093654e+24
1.47467392e+24
1.464041822e+24
1.50657027e+24
1.400249137e+24
1.557604408e+24
1.566110097e+24
1.573552561e+24
1.593753588e+24
1.542719451e+24
1.52783448e+24
1.537403395e+24
1.596943222e+24
1.686252947e+24
1.664988739e+24
1.702201131e+24
1.672431202e+24
1.742603156e+24
1.8701885e+24
1.856366738e+24
1.517202382e+24
1.180058341e+24
1.503219181e+24
1.49487956e+24
1.451096476e+24
1.406270926e+24
1.474030472e+24
1.388549214e+24
1.43128983e+24
1.46152102e+24
1.50217674e+24
1.463605915e+24
1.323917044e+24
1.463605929e+24
1.372912386e+24
1.459436111e+24
1.495922014e+24
1.538662629e+24
1.450054022e+24
1.531365462e+24
1.478200276e+24
1.570978728e+24
1.551172095e+24
1.516771087e+24
1.603294814e+24
1.638738262e+24
1.608507071e+24
1.715879885e+24
1.765917695e+24
1.851398936e+24
1.591827816e+24
1.087931991e+24
1.470344163e+24
1.406949643e+24
1.432511955e+24
1.42330951e+24
1.437624417e+24
1.33537517e+24
1.368094917e+24
1.412062105e+24
1.419219553e+24
1.416152063e+24
1.424332015e+24
1.377297361e+24
1.313902816e+24
1.429444477e+24
1.435579432e+24
1.470344163e+24
1.458074267e+24
1.465231714e+24
1.402859661e+24
1.467276699e+24
1.445804357e+24
1.471366656e+24
1.53782868e+24
1.569525946e+24
1.682000103e+24
1.635987957e+24
1.705517445e+24
1.861958777e+24
1.614515615e+24
9.942511883e+23
1.342389585e+24
1.348409281e+24
1.367471614e+24
1.379510971e+24
1.369478176e+24
1.273163227e+24
1.280186181e+24
1.288212438e+24
1.211963103e+24
1.254100882e+24
1.323327263e+24
1.325333824e+24
1.358442076e+24
1.40358972e+24
1.43168158e+24
1.371484725e+24
1.470809528e+24
1.390547071e+24
1.400579866e+24
1.420645492e+24
1.460776721e+24
1.461779989e+24
1.519970283e+24
1.532009652e+24
1.588193358e+24
1.603242582e+24
1.677485355e+24
1.755741235e+24
1.601236021e+24
9.434169282e+23
1.253621857e+24
1.234911094e+24
1.328464965e+24
1.28513474e+24
1.314678078e+24
1.235895872e+24
1.189611315e+24
1.318617189e+24
1.296952082e+24
1.214230754e+24
1.243774092e+24
1.304830303e+24
1.281195629e+24
1.344221406e+24
1.27725653e+24
1.32157151e+24
1.286119528e+24
1.306799858e+24
1.358993058e+24
1.327480187e+24
1.329449742e+24
1.360962613e+24
1.404292839e+24
1.482090268e+24
1.499816252e+24
1.55496381e+24
1.593370136e+24
1.738132426e+24
1.590415803e+24
8.818534683e+23
1.26766435e+24
1.1622674e+24
1.122622672e+24
1.191275728e+24
1.226085743e+24
1.170969901e+24
1.205779896e+24
1.191275738e+24
1.229953522e+24
1.196110451e+24
1.195143516e+24
1.261862693e+24
1.249292403e+24
1.262829638e+24
1.320846313e+24
1.270565184e+24
1.215449353e+24
1.307309089e+24
1.236722123e+24
1.31601159e+24
1.264763527e+24
1.300540466e+24
1.384664656e+24
1.332449648e+24
1.441714375e+24
1.479425226e+24
1.520036899e+24
1.679582743e+24
1.588689965e+24
8.319774725e+23
1.190031694e+24
1.034273365e+24
1.076062188e+24
1.058966751e+24
1.118800756e+24
1.111202789e+24
1.115001763e+24
1.123549486e+24
1.133046946e+24
1.152991602e+24
1.143494152e+24
1.181483991e+24
1.228021533e+24
1.227071797e+24
1.208076878e+24
1.206177376e+24
1.201428656e+24
1.225172305e+24
1.320146892e+24
1.266011382e+24
1.309699697e+24
1.258413404e+24
1.295453508e+24
1.345790044e+24
1.320146892e+24
1.399925564e+24
1.523392541e+24
1.543337194e+24
1.555683904e+24
)
;

boundaryField
{
    inlet
    {
        type            calculated;
        value           nonuniform List<scalar> 
20
(
3.771428571e+23
4.4e+23
2.251428571e+23
1.462857143e+23
9.6e+22
6.285714286e+22
4.571428571e+22
4.685714286e+22
3.085714286e+22
2.171428571e+22
2.514285714e+22
1.485714286e+22
1.142857143e+22
1.028571429e+22
4.571428571e+21
8e+21
8e+21
6.857142857e+21
5.714285714e+21
3.428571429e+21
)
;
    }
    outlet
    {
        type            calculated;
        value           nonuniform List<scalar> 
70
(
8.491428571e+23
1.029714286e+24
1.020571429e+24
1.064e+24
1.08e+24
1.157714286e+24
1.129142857e+24
1.150857143e+24
1.202285714e+24
1.283428571e+24
1.402285714e+24
1.548571429e+24
1.706285714e+24
1.874285714e+24
2.059428571e+24
2.264e+24
2.373714286e+24
2.484571429e+24
2.654857143e+24
2.681142857e+24
3.428571429e+21
2.742857143e+22
9.977142857e+23
4.001142857e+24
1.795428571e+24
1.003428571e+24
2.030857143e+24
2.523428571e+24
1.909714286e+24
1.774857143e+24
2.001361272e+24
2.023954233e+24
1.949585698e+24
1.998537149e+24
1.943937437e+24
2.008892264e+24
1.98253379e+24
1.925109956e+24
2.050312723e+24
1.918520354e+24
1.939230567e+24
1.999478523e+24
2.011716386e+24
1.990064766e+24
1.974061424e+24
2.014540509e+24
2.039957592e+24
2.036192112e+24
2.053136845e+24
2.093615913e+24
2.158570741e+24
2.159512115e+24
2.194342938e+24
2.285656241e+24
2.324252577e+24
2.371321261e+24
2.338373188e+24
2.47298968e+24
2.551123707e+24
2.520999758e+24
2.514285714e+24
2.517714286e+24
2.635428571e+24
2.554285714e+24
2.570285714e+24
2.610285714e+24
2.556571429e+24
2.565714286e+24
2.619428571e+24
2.681142857e+24
)
;
    }
    wall
    {
        type            calculated;
        value           uniform 8.571428571e-301;
    }
    frontAndBack
    {
        type            empty;
    }
}


// ************************************************************************* //
