/*--------------------------------*- C++ -*----------------------------------*\
| =========                 |                                                 |
| \\      /  F ield         | OpenFOAM: The Open Source CFD Toolbox           |
|  \\    /   O peration     | Version:  v1912                                 |
|   \\  /    A nd           | Website:  www.openfoam.com                      |
|    \\/     M anipulation  |                                                 |
\*---------------------------------------------------------------------------*/
FoamFile
{
    version     2.0;
    format      ascii;
    class       volScalarField;
    location    "0.00035";
    object      linearKE;
}
// * * * * * * * * * * * * * * * * * * * * * * * * * * * * * * * * * * * * * //

dimensions      [1 -1 -2 0 0 0 0];


internalField   nonuniform List<scalar> 
1300
(
2512.435289
3551.136099
13309.5598
59019.14082
18820.53869
8686.223064
20323.43924
53766.30982
7650.658421
29264.13849
2465.110875
1429.708119
34840.19954
139700.794
76547.46043
14105.77127
66896.75145
96853.13229
28287.81519
30725.26202
2087.174383
2227.893572
15073.8264
180177.2384
119746.2803
32697.93999
72518.29826
79580.90988
45461.62962
56655.44322
0
0
31098.86907
139107.5916
127493.8515
20544.3284
108734.9311
112207.0454
97389.35719
67610.72047
384.1107941
0
27380.67463
168980.0766
126139.9298
22493.90965
57178.81522
116772.2394
49590.54952
90660.26632
0
0
49337.22641
199103.4341
75584.32468
31633.03264
40455.4226
115237.9452
48916.01904
84625.98581
0
3996.257101
37678.0458
185498.8446
97293.76994
51066.89328
47017.33009
124371.2411
143194.2913
74773.30665
0
0
31816.99151
148333.7083
73031.58336
23552.23782
88186.8728
108552.7074
145456.5852
59337.15369
1184.135231
0
52818.84378
191596.0866
71633.63909
29379.85208
40036.72095
154176.2374
112973.2054
61219.75047
0
0
12274.92862
205780.7421
47145.88089
28545.26076
66692.87118
81836.32259
63677.37107
83233.39024
0
0
23972.40966
150902.9982
83629.26855
51327.0102
59988.51031
116135.2029
65243.12973
80891.30962
0
2212.75236
24467.62329
152678.0376
77737.2566
36627.25885
76896.57826
81561.4747
102828.1229
143527.2578
2647.796711
0
19705.73931
138055.276
136272.797
48941.39881
94990.74471
60864.84734
70424.1056
42778.46852
0
0
34655.61932
172013.1568
140838.7531
21848.30548
90667.16635
53440.47912
55787.55379
47394.69692
0
0
42863.68671
138929.7653
82742.97665
12307.27466
59778.58419
94377.33464
121262.4834
36428.52986
0
0
10802.72999
174826.682
96371.94394
13621.94385
88121.43734
130005.4477
103150.0466
58090.38735
0
0
28385.644
182569.486
67409.65729
29421.9259
61700.10306
75685.22518
109764.8556
47283.17367
0
0
30217.93464
240997.3893
93951.40968
15669.45705
122986.6612
126825.9888
80496.382
57147.50176
0
2445.916336
14409.84648
109001.2255
143791.3014
15649.60384
54012.35412
102051.0959
101570.2316
44572.59294
0
0
19972.29471
184662.5721
101412.7061
45133.38026
49993.57918
62217.81146
97117.46852
57484.98793
33191.73466
20178.04411
30216.75498
10965.96655
18085.38454
23890.96636
16045.3309
17683.46352
5357.448599
23038.56451
16241.99094
9507.263308
9007.396231
13788.84515
15356.92593
10048.40524
24379.02479
20664.76586
15079.22604
13536.16287
9485.357377
22887.02775
14486.50896
19505.43449
12871.57595
13298.80013
11428.2053
4898.315962
4525.93389
15045.12235
40459.40823
12742.6467
21562.37208
4022.197074
28257.77628
14560.19989
16881.32816
24121.33129
13984.10814
35226.58076
17785.55231
14728.46033
18869.67884
18548.27868
11167.98464
4889.89013
14256.77991
15975.79643
15784.08755
16745.34626
19591.44348
20903.72945
6039.233286
12039.19395
7116.042726
12572.27118
21676.59186
18998.76477
27864.63315
4390.828248
28630.61394
19280.06976
24457.50891
27330.67073
45162.90398
14892.43018
31591.31817
36393.25449
31644.96556
48062.67261
27162.50352
19957.02025
12345.4529
19534.48237
8547.18718
19237.50208
29158.40132
18387.61362
17104.86042
11571.73658
9443.793772
16518.72122
11702.39139
20743.86689
23828.26535
8607.117111
16744.58004
15612.71873
6201.732662
18537.63067
105649.4197
50866.99908
37426.81329
50959.07379
39300.14841
66344.09105
25398.62199
64114.69895
39616.97419
63927.34999
30369.42831
14940.51239
11905.37774
15988.93478
37346.10573
29341.584
16620.14187
24194.184
43744.28392
8842.73153
19106.88644
26603.45584
15277.77261
22363.25867
23509.21385
9875.13703
15932.51091
20533.26055
24822.27365
25555.71254
108211.8939
48203.17829
54514.16499
65082.81129
54861.51634
54117.07833
33695.07306
33462.3211
59155.2474
55553.85283
34677.51995
21249.08642
47186.80759
25348.5723
45527.76968
29701.88712
17596.26281
28120.84302
20126.4053
24933.01583
20786.61565
39741.0892
19685.51065
18633.48211
19546.44649
34372.50452
11958.21946
14842.77281
22088.44692
13149.72382
63633.40922
127897.7382
100824.6222
113872.803
34491.65339
48740.0269
90329.51842
48839.70194
51923.52215
53966.96455
70542.19696
67018.04464
89245.93502
49196.9753
29460.78768
20458.05898
47462.92177
43156.56233
52561.63383
64133.50547
21117.41879
18170.88646
38680.93517
15123.20062
16141.69732
20037.58026
21089.15464
4502.141687
4219.64474
24978.27562
109484.9763
123153.478
102700.1725
71204.4631
67811.45677
118401.3917
83281.19563
103018.4856
56774.48181
24607.29424
33623.41394
64902.29873
64944.84016
46038.97064
53834.55173
57987.748
25963.02289
46045.76253
28149.17509
37371.63181
16640.19336
31782.06677
27080.50687
27733.92518
7648.458289
12837.30949
23972.02589
16269.59736
12574.87891
9945.64161
41627.11575
106374.7939
94211.84414
27157.54872
122049.8565
108222.5564
135235.2779
70046.26336
108564.9506
48859.22852
69885.09711
57680.25352
18724.98446
53430.56315
43612.86779
65900.68646
60093.15225
63514.28544
49959.2274
64612.37059
23508.7303
66439.73125
31576.3297
59664.00209
36741.63624
27176.48323
57719.2773
26923.26378
39926.48479
34183.05343
102732.9129
122415.2842
101169.3858
52807.64225
83230.3154
119524.9436
67713.24764
88433.36343
74500.33236
82998.08526
103267.8232
101471.1864
95301.78203
74285.82895
67110.35622
56901.35563
62724.50825
65619.85751
40637.3356
69465.2817
70011.15598
38973.62179
57898.22145
46287.8503
35413.60733
33637.67028
59070.52133
34238.9732
45691.77366
21849.37449
46456.49384
113643.2278
66808.74007
130193.6205
70501.75087
111150.2237
104084.5969
96207.18521
61022.03806
83662.63273
117899.4763
74075.03713
105511.5843
117695.4578
90883.61856
68225.39674
91974.62635
60267.10856
92332.65896
50388.07731
47610.79157
50052.85786
35346.80906
53667.06792
103392.7637
54691.05525
58007.71423
45222.93588
30849.65298
36489.8247
96768.24973
100155.2927
71211.28274
106665.1699
77612.80187
78921.84346
77334.34113
121466.8074
106088.1711
65082.34714
74326.03823
115222.2214
60049.53019
74502.35145
104142.6192
86989.54588
88995.33713
102593.6359
73686.84411
115663.7029
67634.76606
70360.62006
65340.31721
56641.48494
90469.7231
46606.75956
66254.24857
54507.66878
43168.70853
55366.3452
89660.35429
88390.84087
93974.12698
69234.76612
90217.19173
51695.02272
79572.55587
78850.35454
115982.4982
92293.14573
78785.87912
108521.8904
93494.92348
121566.6179
80252.56598
75706.59423
66248.7085
71364.02243
75196.80887
75678.20726
93785.61834
105515.0949
55419.01639
68326.82719
67802.41031
92772.86699
97982.60121
99660.13098
44928.3815
61221.63182
85627.80031
92015.73545
54283.14918
31295.1941
110964.2105
92412.9125
67366.82334
62404.41119
114669.6016
119724.9975
100615.5343
101250.8164
158468.6601
75496.34408
118025.6288
92821.40654
77545.30647
89342.56752
66662.44679
116029.2746
144935.7478
105432.469
96488.23055
90042.3482
97831.94491
79826.32945
108265.1169
118271.9882
86445.03803
86612.32695
96251.3392
62655.4912
99684.43071
79544.45452
79074.51059
65440.61364
55875.03026
63055.86095
79685.43623
72624.88233
87272.38867
99499.09471
94820.57129
89042.19881
41632.86955
81152.84796
73816.04032
84720.87759
94132.43665
62156.29801
103912.6104
87606.86029
57422.18189
105045.7523
102647.944
53178.48025
66485.54263
109115.2276
112901.4227
77060.22308
73701.7581
57698.77497
89327.00966
51821.39233
117203.0012
52816.70033
58372.11528
66727.57921
83216.62755
60556.32573
83500.59386
91853.85712
50568.13814
48702.45448
103753.6518
73983.30676
83230.40126
93984.16614
92203.23949
80514.46299
114831.2094
64778.56166
119530.3235
93083.23335
117627.5788
53797.30469
87819.27969
88474.96282
143960.6583
66050.14688
91595.45722
138469.7582
68734.38389
75803.60486
54731.47036
89178.70724
75834.19442
44373.4827
98210.74793
89095.00165
95774.16505
78775.75377
97149.47682
99889.13966
64066.57064
81780.45308
66464.65736
80751.59979
44826.90728
163390.0804
75947.4936
86992.40813
69201.71473
115509.4797
91555.04209
95219.83461
104000.6798
110564.5703
85917.58773
110835.5352
51099.76264
111855.1142
54457.359
63731.53608
38071.28523
55648.4097
102082.6871
114234.8045
68112.19064
66123.80405
73769.39721
96694.26216
88248.14787
33815.29395
89852.17403
70571.68482
100658.0875
69295.97753
66921.116
148328.3261
115701.2077
88950.02275
96993.19309
63258.54709
103809.2694
98882.61806
113468.3513
96599.16455
105286.5147
117585.1086
77063.04967
99645.72287
75962.7519
114968.0184
101775.6147
42965.61437
95920.62614
81310.56324
63539.41176
76432.73236
137667.0737
79850.42761
103999.8013
89496.59917
100021.2707
46560.19494
94528.2369
105528.4829
96885.07809
67111.76215
120463.5936
90609.15324
103230.5315
79413.01429
112782.5445
78992.44323
107480.2926
100577.2466
111791.7045
122676.4231
121856.8179
93671.52005
84209.75415
73452.99575
81173.9808
94783.30898
81114.5842
95451.58834
97936.22117
96565.13028
42389.05934
67057.10477
103365.4191
74427.43041
94388.32581
119361.9729
115728.3462
85972.97242
77028.17073
120357.951
79032.76319
68878.97096
72372.81863
141809.1935
100519.1705
94672.73066
97668.08755
74355.35674
124269.4422
84723.34799
103500.8148
64891.92071
69578.59557
83513.65579
66768.40419
67437.65557
90266.30362
68040.88532
116820.7564
63333.5662
65604.4165
113714.576
95844.30227
77984.11423
99999.3842
91659.78439
105127.2061
110199.7915
140533.0698
129290.445
64696.52273
61403.23998
113356.9782
95003.54667
82117.78394
121160.0968
100149.8519
66059.97056
117515.4722
107631.8142
13345.60734
3160.409502
9693.239788
9918.921705
8170.93556
10071.26629
2979.544428
1871.575251
5417.013116
537.1376967
15002.46644
2946.748057
7038.717529
8704.131436
4614.176925
19459.37954
15759.29437
3527.327254
8103.146897
0
16442.98274
21251.30022
11059.50252
9521.213545
6404.411117
27732.79262
17423.1325
14477.98041
6927.937179
5950.617054
13300.53588
15080.86095
4436.038881
10833.66525
15652.64352
7884.645171
8236.77716
10848.69059
12149.60841
16823.00028
25715.4392
22798.16356
32549.18994
29658.78808
44879.47426
20507.79408
30054.9837
18967.74621
9193.308194
18824.31449
19873.04262
15358.70399
24763.02237
33252.45786
41762.59374
14939.68629
32614.00642
17504.57813
8787.984818
2101.96214
7977.824858
34300.64056
17901.64434
19302.87576
26092.42583
30854.76377
20630.00893
20739.83879
22548.13413
24160.12319
46422.21608
41154.25655
42726.34206
40520.63364
17898.44609
36690.67272
22774.51918
13388.90222
0
42669.97758
34241.05268
35507.30222
28609.64567
36981.56526
18425.73748
29931.72105
20817.82202
50580.89463
41900.63562
4115.621441
43199.03311
23283.32401
53893.37296
28725.05378
47068.39673
52142.23983
64327.74696
43973.34584
18699.70516
0
41048.07866
49994.95819
70008.46343
47989.30962
43821.26279
34952.01991
40560.75291
45328.37068
33314.21444
34975.74309
48262.13155
18704.85705
79878.31454
75452.01205
49458.4879
35490.52127
45476.26084
62175.27424
49177.28342
26964.66206
129894.0896
36055.91447
88182.80906
26466.91157
67878.96793
72954.54165
103551.9244
32866.12035
40554.62539
75234.57724
110168.9938
106923.2113
93046.58979
68848.66083
76963.12769
76258.31618
89314.62225
108930.3282
59763.79793
81117.3898
91351.40782
129128.461
89603.27156
133976.3638
34939.55388
99062.62364
88476.55086
94798.67133
85079.34507
147609.8349
80508.72467
83266.33083
60832.73554
138087.8668
109926.8591
112682.2482
81135.28368
60045.79518
120429.3381
59665.17729
122920.017
97160.98443
97735.1206
80587.29381
80842.95103
93975.75672
92195.02293
100421.4945
115383.0752
87531.55777
149677.386
112031.1841
87972.12546
94483.53514
94703.5633
83426.3709
94552.59697
88157.05977
155451.9995
105251.5042
63543.60016
94729.64852
129868.4806
88097.36595
132994.6416
131895.8031
153052.3567
46644.33429
88695.67566
93399.30695
100397.302
77904.21427
123959.5448
101949.1573
153236.4301
118768.4997
85217.94896
81365.55593
104124.9105
77057.6373
12642.5093
5975.475328
8453.053374
9301.371051
6949.739438
2316.271955
5776.637876
8540.13493
6300.553055
6216.790767
9267.134757
7096.906642
2579.012708
6825.361938
14215.49523
5755.258527
5045.155759
10747.12226
7998.320083
5120.214942
1870.992206
11519.28815
6408.705181
10449.27231
13615.27926
9681.321746
3979.539162
4702.259163
3928.093424
7508.581224
7356.229309
5569.025296
12119.18203
10719.42758
10795.9751
5850.128621
17315.53326
9252.828594
5008.150138
10765.88344
10813.12395
9999.943642
6046.567371
11696.3159
11778.91157
11702.45172
8901.390626
10122.74803
28122.36051
12072.0436
6403.84181
12805.09588
15185.79299
12450.37176
6978.322982
6558.798894
11919.92458
23693.4538
10526.60815
9288.675367
5803.918453
9153.714734
6488.842374
9219.34915
10202.01299
10884.01781
6350.263908
9370.82478
9976.335253
17708.07164
5460.154601
5023.716703
6598.798032
4619.571539
4297.951437
16586.93532
10155.11376
11093.40713
16936.13978
10502.55283
5287.513919
7555.926001
9812.165111
13422.45378
10894.35202
8211.57283
16299.57679
19934.77208
15329.5253
10171.76756
9407.951938
1539.512759
4298.01137
5882.448881
9079.985888
4277.873749
6921.398199
8442.372515
8823.37965
6557.737922
6850.174434
15004.91724
9964.981433
7549.408403
13684.52048
3458.386694
12220.4316
12146.81422
18908.16456
16446.52461
5785.555192
11679.32435
11386.16655
3519.131012
13763.28515
8950.633407
10389.08386
8216.772622
9357.362352
3768.767609
11461.425
8824.830912
9542.14575
11002.8962
4370.609495
14665.50895
4809.717187
4151.686848
15857.10539
8095.368585
16359.56767
3464.241871
9674.348427
6022.293218
11414.47789
8768.645224
1541.918006
8478.663072
16777.20185
6029.827181
15224.70309
14464.5529
7297.901322
6341.40158
8407.733259
11212.39008
5854.85864
10237.10927
7157.064193
5709.757523
6377.583187
11163.21635
8930.291034
12515.81772
13249.0277
11214.73414
1949.170551
4792.828811
7631.372346
11011.75923
11487.65604
5575.344815
4959.779031
2936.671298
6349.427283
4708.376799
2768.06075
12230.00347
7723.326072
11111.60984
10036.25258
2401.940586
10175.39013
12477.77608
23950.43862
4122.119462
15616.12005
14695.84542
12397.94717
16308.51187
3895.822112
9222.211526
3946.190751
6866.164062
9184.308013
9143.397678
7300.753408
15059.63227
10822.92933
6861.732756
7791.052021
15296.59091
6075.630969
4478.706997
15883.67014
18873.89082
8922.616714
11626.13028
14540.40418
13317.32041
16161.40561
16460.9419
13936.91064
6624.36035
17147.58261
22433.16029
8868.35928
23150.11465
8174.272054
10425.38832
7649.936571
1341.071338
5051.07148
5937.918752
2452.114685
4084.048428
19637.0166
13694.22841
7104.739167
23335.13167
9333.753671
9518.379076
18588.24532
13748.88819
9769.700318
9934.109612
7822.910359
10647.39671
16097.07656
7371.615614
6778.479552
14560.26344
3491.577587
14230.35392
11181.03283
7207.762587
8574.532075
14866.22924
12138.20557
9033.653975
2779.904876
10439.1646
12436.20771
11766.29432
21188.60571
11423.32653
13354.7293
3270.858714
12171.432
13334.20185
17017.17043
9460.786936
8875.291876
11451.84539
7352.290557
7225.501859
4595.170111
15402.40301
1266.260696
8520.009476
6994.343361
2882.085384
27553.48595
16426.06769
3609.29239
4405.045845
28932.33833
6362.540517
13196.67578
10812.15892
2459.343936
19549.92137
24424.46518
13696.82747
8705.162567
17270.53761
18817.73134
7850.841404
6745.565325
9016.46186
27725.63267
29853.58004
17730.90516
14061.75252
12296.6585
7253.826784
14148.96944
9713.84172
15662.63761
13720.07697
6427.095188
8554.369699
8482.7615
8306.864164
10436.253
7120.118679
22780.10976
10358.89393
6544.862483
6737.136044
)
;

boundaryField
{
    inlet
    {
        type            zeroGradient;
    }
    outlet
    {
        type            zeroGradient;
    }
    wall
    {
        type            calculated;
        value           uniform 0;
    }
    frontAndBack
    {
        type            empty;
    }
}


// ************************************************************************* //
