/*--------------------------------*- C++ -*----------------------------------*\
| =========                 |                                                 |
| \\      /  F ield         | OpenFOAM: The Open Source CFD Toolbox           |
|  \\    /   O peration     | Version:  v1912                                 |
|   \\  /    A nd           | Website:  www.openfoam.com                      |
|    \\/     M anipulation  |                                                 |
\*---------------------------------------------------------------------------*/
FoamFile
{
    version     2.0;
    format      ascii;
    class       scalarField;
    location    "0.00028/lagrangian/dsmc";
    object      Ei;
}
// * * * * * * * * * * * * * * * * * * * * * * * * * * * * * * * * * * * * * //


12991
(
4.553901873e-21
7.029682996e-20
4.655158316e-21
4.036061599e-21
5.036759549e-21
1.734508873e-20
2.721010204e-20
5.054041695e-21
6.159041122e-21
8.286726771e-22
4.120186951e-21
3.207367344e-22
9.800847358e-21
1.143724815e-20
1.836054975e-20
2.592336136e-20
2.939838978e-21
1.362466073e-20
3.137616471e-22
1.287951864e-20
2.154805943e-21
3.695413308e-21
1.155008401e-20
1.944174466e-21
2.940087944e-20
1.578447782e-20
8.262057055e-21
1.049253427e-21
2.965440245e-23
1.80493486e-21
3.131983688e-22
2.148496671e-20
4.669617028e-21
3.134378068e-20
2.214305888e-20
9.456427007e-22
6.3588487e-21
4.23270405e-21
8.945708204e-22
6.707836949e-22
8.775477437e-21
1.056327596e-21
7.482318285e-21
6.508785132e-21
6.172740675e-21
2.04844465e-20
3.140775517e-20
6.911954166e-21
3.246058741e-20
2.034835992e-20
1.564088045e-20
8.39907983e-21
4.78964442e-21
7.534156134e-21
2.304466822e-20
1.427818784e-20
1.073266027e-21
7.132066536e-21
1.317485803e-20
1.644358459e-20
1.695774936e-21
4.40919556e-21
7.738766335e-21
3.71812274e-20
1.503816021e-21
8.723469719e-21
1.233684965e-20
1.512522225e-20
6.168341339e-21
2.245519545e-21
1.565978769e-21
1.113373941e-20
4.727090796e-21
7.946512372e-21
2.111458186e-20
8.991238443e-21
5.500023009e-21
1.66493324e-22
1.385682625e-21
5.233081444e-21
1.525834874e-20
9.818238348e-21
7.430492412e-21
8.67105178e-21
8.042500821e-21
6.877517043e-21
1.568115167e-20
2.702506994e-21
3.023523291e-21
3.953091722e-21
4.107275389e-21
7.710914392e-21
6.24273576e-21
2.308124835e-22
9.306000681e-21
6.649482907e-21
8.876834489e-21
1.015774677e-20
5.798025541e-21
6.351439255e-21
1.803914953e-20
9.018129398e-21
1.337797614e-21
1.098160851e-20
3.093226301e-21
7.594556848e-21
2.260137833e-20
1.275392674e-20
5.634631673e-21
4.719761041e-21
1.882813976e-20
7.123340272e-21
4.128248158e-21
3.900481432e-21
6.981465929e-21
1.128225191e-20
2.371713581e-20
9.504784585e-21
3.43003733e-21
1.75326647e-20
2.143815543e-20
6.472164074e-21
2.511749847e-21
3.302583011e-20
5.915196818e-21
9.808224545e-21
9.083715443e-21
3.19760717e-21
7.24057417e-21
5.335482528e-21
4.139263786e-21
8.738924114e-21
3.577816802e-21
9.611222589e-21
1.572253428e-20
1.503707538e-21
1.284046855e-20
1.972701526e-20
2.776045998e-21
4.820072947e-21
5.399789862e-21
6.331629681e-21
8.923626251e-21
2.276822576e-21
9.373054725e-21
3.25117653e-21
4.38471453e-22
7.000804475e-21
4.287855271e-21
5.478721153e-22
1.663817889e-20
1.344883925e-20
3.451965521e-20
1.938088823e-21
2.577791664e-22
5.514924837e-20
6.601490005e-21
3.388788397e-21
1.261874342e-22
1.57616394e-20
9.120472149e-21
1.397430059e-20
2.927658331e-21
1.456977611e-20
1.620995249e-20
1.45290928e-20
7.140264153e-21
2.235473895e-21
4.414567645e-22
2.500345336e-21
5.909833135e-21
3.487825794e-21
8.186565617e-21
4.191421457e-21
1.994640429e-21
3.035213611e-21
9.159816178e-21
7.417508792e-21
1.346120111e-21
1.567217968e-20
1.3587599e-20
1.474635938e-20
4.650769253e-21
1.061682511e-20
7.319586744e-21
1.569961489e-20
8.071610789e-22
1.757063707e-20
2.375991144e-20
2.843380555e-20
5.027734089e-21
6.505084748e-21
3.673491057e-20
6.636732732e-22
1.732890731e-20
3.169300461e-22
2.218075228e-20
2.350708506e-20
1.870646785e-20
8.873839526e-21
1.700002178e-20
5.674018714e-21
6.64115421e-21
3.074704638e-20
1.343230335e-21
2.19141602e-20
2.766787878e-20
9.289700276e-21
1.869669882e-20
7.600249178e-21
1.235278618e-20
4.140116877e-22
1.287183208e-20
6.232125232e-21
3.08309035e-21
1.226576615e-20
1.160273408e-20
4.352518278e-22
2.480972998e-21
8.983373262e-21
2.536209122e-21
3.205974355e-20
2.675133631e-21
4.135910837e-20
2.68023361e-20
6.925073045e-21
8.577344821e-23
3.226597245e-20
5.191494709e-22
6.235656664e-20
1.239886583e-20
1.726765152e-20
3.529835972e-21
2.132116827e-20
5.033558595e-21
8.020470723e-22
2.172739018e-20
1.062021804e-22
7.687737405e-22
9.070803456e-21
1.732093525e-20
8.515155658e-21
2.977870032e-21
3.575633548e-21
4.012917065e-21
1.859415795e-21
1.982257242e-20
1.430181235e-21
3.093269497e-20
2.027578791e-20
7.800535877e-21
2.598055184e-22
1.623056316e-22
4.101451276e-21
2.94694237e-20
1.013622899e-20
5.573902079e-21
5.830177316e-21
2.100972486e-20
3.868036302e-21
2.126824241e-21
2.079207814e-20
5.624326935e-21
1.701207578e-20
1.385533939e-20
3.116928039e-20
2.594013155e-21
1.219270848e-20
1.964165904e-21
3.559454836e-21
2.160849035e-20
9.9618252e-21
4.862426618e-21
1.83404132e-20
5.380854064e-22
4.748415415e-21
1.738324602e-20
8.559833078e-22
5.514012254e-21
3.009000782e-22
8.827281554e-21
7.493796708e-21
5.427134427e-21
2.482924361e-20
4.759975159e-21
5.24150983e-21
5.105526483e-22
8.078900735e-21
2.182334786e-20
8.490339369e-21
8.393469455e-21
1.182362015e-20
1.929777832e-21
2.024871028e-21
5.132888724e-21
5.452940098e-21
1.532711003e-20
9.626130509e-21
9.032799776e-21
9.236091917e-21
9.568624515e-21
5.051886581e-21
1.642703073e-20
2.425521792e-21
2.179403236e-20
9.847943929e-21
1.704928727e-20
3.162667822e-20
1.820390592e-20
1.475151693e-20
7.546114548e-21
1.499592322e-20
9.264860058e-21
1.60746142e-20
6.951118947e-21
3.483123613e-20
5.033310297e-21
8.833276307e-21
3.961191997e-21
1.2197122e-20
2.100857287e-22
8.980097008e-21
4.798673514e-20
4.629965051e-20
3.755484566e-21
7.2868096e-21
1.240312978e-21
8.06163832e-22
8.193558659e-21
9.174150989e-21
3.913245344e-20
9.423308035e-21
2.021076589e-20
3.205090179e-20
2.565947758e-20
9.107291598e-21
1.096716544e-20
9.448041973e-21
2.271489791e-20
7.991314273e-21
2.738197076e-20
1.197615808e-21
3.814382473e-21
1.520742393e-20
3.078924136e-21
8.89989077e-24
6.469138806e-22
6.931383923e-22
2.538901362e-21
2.39281319e-20
1.011270525e-20
9.050523857e-21
9.069075596e-21
2.282419631e-20
5.229690242e-21
1.015848878e-20
2.32503142e-21
1.486941759e-20
2.235260174e-21
6.742531806e-21
5.132006949e-21
3.133586901e-20
5.232434921e-21
6.440661303e-21
3.560511473e-21
1.638693885e-20
7.990845822e-21
2.932581207e-20
1.479197527e-21
1.419380592e-20
3.492871879e-21
2.868620416e-20
3.083051269e-20
5.539078947e-21
1.142864815e-20
1.535408081e-21
1.49821778e-20
3.257531209e-21
7.077318827e-21
1.701059213e-21
1.3327794e-21
3.70424062e-20
7.520861652e-22
4.534576576e-21
1.974574528e-20
7.221000733e-21
2.556784364e-20
5.664851886e-22
4.878038076e-20
2.269701925e-21
5.512601067e-21
2.224298501e-20
3.470107885e-20
3.88788306e-22
8.214316375e-22
5.274446927e-21
1.534942787e-21
3.873212344e-21
4.164084778e-20
1.185500496e-21
1.548675266e-21
9.089804269e-21
3.172307551e-21
2.910419147e-22
6.033521143e-21
1.351058832e-21
5.269825796e-21
9.830292669e-21
2.235045644e-22
1.503256857e-20
1.599719783e-20
9.136021725e-21
6.622833169e-21
1.006849571e-20
1.680752435e-21
1.387588328e-20
2.093819847e-21
1.563564045e-20
1.254513472e-20
3.990919535e-22
2.036021865e-20
4.309922182e-20
6.986497814e-21
1.668165045e-20
7.871511893e-22
2.740576277e-20
3.932918791e-21
7.566551087e-21
7.10949578e-21
6.734944357e-22
5.487865977e-20
7.781295989e-21
1.815384295e-20
2.605371597e-21
2.602388711e-21
2.500821975e-20
6.727387171e-21
5.352832596e-22
7.751896996e-21
2.835738193e-22
2.181782665e-20
2.651235941e-23
2.011355043e-21
7.35171087e-22
1.085349945e-20
6.894659417e-21
1.763079143e-20
5.244228355e-20
2.751165506e-20
5.234112354e-21
5.748458787e-21
2.797368885e-21
1.393211727e-20
4.367735352e-23
3.818114287e-21
4.268089817e-21
1.304822608e-20
1.836328426e-20
1.124427851e-20
1.129728858e-20
2.705354092e-20
4.13395065e-20
1.501774807e-21
1.300150008e-22
2.915151307e-21
1.23082917e-20
1.159569786e-20
7.199505477e-21
9.720815831e-22
2.445360144e-22
1.076457079e-20
1.888997437e-21
1.141901229e-20
1.956108148e-20
4.07647475e-21
1.238249455e-20
3.713078959e-20
1.404968073e-20
1.25040776e-20
1.73105578e-21
9.977331689e-21
8.311364774e-21
1.445034533e-20
5.291976982e-21
5.16469815e-21
9.656632006e-21
1.779753832e-20
5.516211142e-21
1.494816443e-20
1.376147955e-20
1.085900291e-21
3.601625553e-21
2.314470147e-20
1.188603724e-20
6.685416162e-21
2.920275675e-20
3.419452975e-21
5.90428321e-21
1.967430394e-21
1.932150057e-20
5.010284726e-22
2.669247294e-20
4.818730868e-21
4.379770092e-21
6.210122338e-21
1.839287294e-20
4.153135052e-21
1.530185027e-20
2.471534471e-20
2.047252182e-21
2.273207336e-20
2.204032034e-21
2.989553895e-20
2.574834621e-20
6.042277899e-23
4.071003489e-20
2.593862113e-20
2.192224186e-21
1.036599516e-20
9.35662762e-21
9.582390438e-21
8.25941071e-21
1.404829787e-20
4.617690922e-22
8.011880699e-21
4.761968854e-21
1.946163687e-20
2.385546327e-20
1.500866781e-20
1.42437055e-20
1.77275362e-20
4.858861693e-20
1.16498189e-20
1.286410341e-20
1.971960954e-20
4.494054329e-21
1.817085426e-20
9.013909832e-22
6.364904662e-21
1.597823989e-20
5.653105805e-21
8.763085659e-21
6.990267549e-21
2.254540436e-21
5.570366341e-21
1.276273951e-20
4.70785123e-21
1.429068139e-20
4.232313054e-21
1.224267846e-20
9.593902633e-21
9.706785668e-21
3.214871312e-20
1.997373393e-21
2.598018265e-22
2.216285486e-24
1.232926027e-20
3.704621968e-21
2.731920213e-21
2.575695426e-20
8.701532502e-21
1.256331981e-21
7.242207657e-21
2.278834492e-20
2.734811379e-20
8.62615371e-21
1.109891784e-21
1.279355512e-20
2.825077853e-20
4.367993017e-21
3.256466032e-21
2.325305437e-21
3.076771707e-21
8.185145081e-21
6.958373211e-22
2.00555033e-20
3.229317634e-21
6.360380205e-21
9.380951934e-21
1.462358011e-20
6.550122568e-21
1.428340646e-22
1.832757522e-20
3.699413089e-22
1.247303458e-20
6.835300125e-21
3.596000941e-21
2.448346308e-21
5.647513794e-21
1.818207943e-20
1.028436328e-21
5.395264575e-21
2.04616289e-21
4.412459986e-24
3.415758042e-21
5.540406543e-22
1.107463397e-20
8.216507284e-21
7.642530002e-21
5.063831344e-21
1.618791898e-20
1.777525195e-20
5.756205402e-21
3.595806629e-21
1.21016602e-20
1.931924051e-21
1.797517757e-20
1.985305886e-20
8.769157184e-21
6.391471215e-21
9.260762501e-21
2.69463549e-20
5.529362599e-22
2.128060871e-20
5.055296955e-21
2.57757971e-20
4.361493277e-21
3.736392558e-22
1.369742619e-21
2.201138065e-20
1.505868577e-20
9.08479324e-22
3.446257023e-20
1.171618628e-20
1.892673147e-20
2.65051956e-21
4.913280823e-21
1.127400146e-20
5.777425594e-23
1.042857187e-20
1.596178988e-20
6.511599954e-21
8.855824077e-21
2.694792639e-20
1.710504086e-20
3.145565018e-20
3.525188202e-21
1.899422729e-21
2.004270125e-22
8.585159473e-23
1.719290482e-20
1.231465855e-20
5.180574092e-22
1.137432555e-20
3.629899602e-21
1.299452695e-20
5.26528444e-21
3.572814159e-21
1.227839107e-20
1.240150033e-21
2.036738057e-20
3.244991974e-23
2.295511944e-20
1.372557469e-20
4.932836977e-20
1.413424233e-20
8.241120495e-21
3.80019939e-21
8.96154846e-22
1.857258533e-20
9.719645631e-21
9.173010639e-21
2.011293591e-20
3.95852935e-20
1.598326824e-20
7.418630286e-21
6.828225721e-20
2.015514891e-20
7.612895287e-21
3.56687818e-21
9.299040574e-22
1.885739588e-21
1.133251356e-21
1.224594967e-20
9.988419205e-21
6.301953466e-21
1.5184537e-20
1.870440965e-24
1.342313998e-21
5.18518549e-21
6.537905621e-21
1.630186018e-20
7.181590425e-21
1.197191016e-21
1.035461481e-21
4.919222734e-21
4.538270612e-21
4.892705969e-21
1.471527866e-21
4.283291806e-22
3.267322611e-20
9.195656633e-21
3.236989297e-20
1.141576924e-20
1.196554312e-20
3.430521829e-20
1.261228786e-21
8.220706487e-21
2.36206134e-20
2.037043491e-20
4.001760941e-21
1.214418516e-20
1.914863556e-20
6.135369234e-21
1.479023284e-20
3.167069062e-20
1.285905996e-20
1.260215392e-20
2.984426815e-22
1.00890243e-20
3.934402274e-21
7.690332206e-21
7.146875496e-21
3.188001226e-22
7.173072745e-21
2.761622954e-22
1.784497517e-20
5.276091412e-20
4.88583268e-21
4.326604662e-21
4.075149673e-21
1.492116222e-20
1.250280316e-21
1.587942202e-20
6.249616432e-21
1.078499887e-21
5.769715796e-21
1.264956612e-20
1.016504184e-21
3.412564405e-21
2.005192987e-20
1.221367815e-20
8.735895577e-21
5.482233421e-21
8.440667244e-21
2.068043796e-20
3.267222597e-21
1.740011167e-21
1.135526451e-20
1.931608337e-21
3.161801913e-21
4.389980509e-21
6.789389694e-21
1.351828542e-20
3.900583014e-21
1.118768863e-21
1.36985145e-20
6.072204966e-21
4.550741482e-22
9.524959758e-21
3.168233839e-21
1.311984869e-20
1.3690262e-20
8.782384943e-21
6.513714182e-21
1.309317479e-20
6.920999564e-21
4.420614053e-20
1.444247412e-20
5.657499622e-21
1.936636172e-21
7.562736852e-21
3.867133619e-21
8.617754542e-21
2.764415776e-21
2.316029309e-22
1.228617986e-20
5.022241894e-21
2.825558817e-20
2.06527781e-21
3.849784742e-20
3.61861576e-21
2.670312666e-20
1.628639024e-20
2.857466037e-20
3.775796633e-21
2.453151139e-20
3.83999409e-21
7.160939957e-20
4.036138828e-21
8.326730671e-21
1.021549155e-20
3.237349599e-21
2.561953464e-21
9.097937843e-21
1.820933152e-20
4.332165885e-20
2.553781518e-21
9.098027293e-21
6.146109678e-22
8.376160794e-21
8.62586705e-21
8.338435235e-23
1.694425256e-20
2.045318029e-21
1.703422092e-20
1.468411955e-20
1.280548494e-20
2.125580259e-20
7.365409155e-21
2.846867001e-20
1.5646833e-20
2.157403032e-20
1.218190501e-21
8.767795225e-21
4.0046722e-21
2.804668921e-20
8.060271665e-22
1.05485594e-20
1.960127798e-21
4.587164249e-21
9.093289166e-21
3.74509945e-20
1.258803131e-20
5.71405283e-22
2.603353013e-20
1.836424797e-20
9.389161054e-21
3.202122617e-21
4.028084111e-21
1.619117377e-21
9.649656518e-22
4.871243747e-24
5.139181263e-21
9.04641203e-21
2.396599124e-22
1.355127864e-20
6.352344092e-22
2.545440796e-20
2.479181975e-20
2.504939691e-21
6.748302455e-22
2.156708878e-20
5.294284484e-21
6.474381976e-21
1.393240401e-20
3.259149932e-21
5.860792333e-21
3.29419084e-20
1.505257792e-20
5.404117393e-21
4.169408869e-20
1.069853149e-20
1.969969443e-22
3.684478527e-21
1.054596001e-20
2.96133613e-20
1.008035683e-20
5.287875364e-21
4.774206484e-21
3.835413195e-20
7.505363048e-22
3.677640507e-21
1.198465793e-20
1.008614161e-20
2.09955562e-21
9.272764755e-21
9.638745894e-21
3.580368481e-21
2.574095929e-20
7.284266946e-21
4.218191826e-20
2.486503305e-20
2.267151368e-21
2.191928678e-20
1.386014371e-20
9.946545965e-21
1.12151754e-21
6.041010175e-21
1.915924985e-20
2.617000227e-20
2.06079791e-21
2.248515616e-20
3.667519038e-20
2.907622457e-21
4.861003035e-21
1.278968842e-21
3.444509044e-20
9.693720604e-21
9.066439557e-21
4.991079969e-22
9.277720966e-21
1.883943494e-20
1.524565042e-21
1.265755545e-21
9.643040914e-21
9.548373142e-22
1.296732729e-20
5.439452949e-22
1.472127592e-21
7.799791313e-21
1.163820583e-20
6.720783015e-20
1.382629994e-21
2.51245694e-20
2.592120321e-20
2.886374174e-20
9.35883439e-21
4.679614206e-21
1.078615588e-21
2.842845248e-21
1.230202688e-20
3.048755278e-21
1.859703706e-20
1.60782053e-20
1.801540544e-20
3.27335229e-20
1.47438488e-21
5.359273924e-21
1.477061699e-20
1.410102328e-20
2.111732821e-20
2.534343039e-20
5.325571017e-21
1.377449379e-20
2.619704313e-21
3.101060088e-21
1.153741679e-20
1.356211967e-21
1.792909536e-20
1.731118649e-20
7.506866804e-21
5.371000587e-21
6.314791222e-21
3.193861394e-21
1.499239112e-20
7.892971537e-21
6.954798032e-21
9.117629968e-21
1.564290563e-20
1.587924127e-21
3.63441137e-20
7.261807925e-21
8.848493425e-21
5.160436481e-21
4.418475978e-21
4.894512844e-21
3.114052028e-21
9.928587899e-21
6.538411589e-21
5.118792252e-23
5.080392979e-21
3.888008781e-22
3.604893735e-20
2.664072121e-21
3.716887861e-21
4.673128216e-21
1.2872103e-20
1.431387318e-20
1.162706723e-20
1.272896596e-20
6.576254941e-21
9.215320232e-21
8.633766131e-22
7.011805425e-21
7.340008515e-21
1.678706926e-20
8.37915337e-21
7.943261863e-21
1.155287976e-20
2.251232589e-21
3.531840838e-21
1.729201784e-21
5.646944932e-23
5.461292627e-21
5.92764304e-21
2.336927127e-21
1.738663562e-20
2.468206968e-21
1.610614323e-20
1.986417725e-21
1.073072037e-21
2.05558797e-20
1.337694424e-20
6.302415401e-21
8.383819624e-21
1.215431475e-21
1.307546162e-21
8.849414462e-21
1.038908338e-20
2.015946051e-20
1.119317444e-20
7.680870186e-22
1.133127203e-20
4.103706415e-23
3.865058582e-21
5.637730935e-23
1.000170253e-20
1.538105416e-20
2.481213413e-20
3.294782398e-21
3.137158982e-21
1.222494995e-20
1.950884269e-20
2.912762331e-20
6.375575528e-21
4.434472763e-21
1.364185441e-22
2.4812824e-21
1.347870487e-21
4.036359365e-20
6.925401028e-21
3.222471822e-21
1.36647827e-20
2.221917212e-20
9.826709473e-21
6.862284415e-21
7.537340458e-22
1.025798929e-20
1.751333086e-22
2.500738886e-20
7.119543855e-21
5.056552731e-21
1.498738354e-21
2.453275956e-20
4.487916132e-21
1.306414782e-20
2.70905564e-20
2.399684849e-20
2.482306838e-20
3.035897821e-21
6.183234416e-21
4.37579308e-21
9.440623144e-21
1.309240164e-21
1.173796582e-21
2.065846553e-20
9.584464524e-22
8.857806143e-21
8.174517324e-22
3.34703203e-21
7.381880668e-21
1.048661395e-20
8.310393984e-21
2.761652916e-22
2.155264851e-20
8.818151251e-22
1.991405102e-21
1.563613124e-20
2.025026045e-21
7.603635045e-21
1.561970348e-21
2.110198876e-20
1.114237196e-20
8.226154925e-21
3.749543087e-21
6.925082013e-21
1.470514578e-20
1.010129498e-20
3.304734485e-22
1.463529345e-20
8.778100335e-22
3.478113279e-21
3.128168997e-20
1.029583517e-20
3.010701137e-20
8.571030591e-21
9.823774087e-21
1.317308787e-21
3.431645644e-21
1.097223804e-20
1.233577663e-21
9.042961989e-21
1.044257642e-23
1.403360125e-20
6.474306024e-21
6.321657587e-21
1.098175995e-20
1.814776938e-20
1.806638421e-21
5.886069877e-21
3.398824099e-20
6.022119709e-20
2.206875352e-20
1.280900665e-20
3.692196595e-21
6.516729152e-22
2.28824438e-20
1.070628703e-20
6.081092719e-21
1.023738749e-20
1.482732923e-20
9.21983604e-21
5.142190833e-21
1.262604172e-20
3.719779981e-21
2.060496868e-20
1.149944099e-20
1.826316141e-22
3.21995679e-20
3.559295341e-20
7.513187086e-22
4.776598223e-21
4.451341621e-21
1.116260173e-20
2.251887109e-20
1.424212729e-20
4.492546083e-21
4.223268771e-20
2.040715164e-21
4.539690667e-20
2.437067718e-20
3.108009567e-21
5.457205223e-21
7.720565748e-22
2.563050247e-21
1.230174856e-20
1.398680407e-20
1.670288621e-21
1.242431514e-21
1.716078911e-21
5.589433366e-22
8.133140801e-21
1.688147868e-20
2.556367531e-22
1.463127361e-20
1.165897279e-21
5.334554874e-21
1.250184784e-21
1.328729437e-20
5.831037181e-21
7.783196679e-21
2.375333758e-20
1.165260812e-20
3.712042278e-21
6.250772635e-21
5.004035563e-21
3.803182564e-22
6.741389369e-21
9.931601476e-21
8.456716543e-21
7.58054914e-21
3.469165885e-20
2.463205891e-20
7.217562979e-22
6.706852326e-21
1.496367222e-20
1.720935311e-21
5.626191467e-23
2.301324733e-21
1.313364303e-22
2.912128589e-22
2.427262424e-20
4.095793195e-20
1.865174233e-22
3.990233656e-21
1.369599113e-20
2.465029664e-22
8.496152273e-22
4.403049225e-21
2.917778151e-20
1.979391898e-21
1.038190102e-20
5.760393048e-21
1.259687877e-20
1.878202964e-20
6.02221869e-21
3.283761986e-21
5.694632799e-21
3.558304536e-21
1.884387504e-21
7.921346431e-21
5.977667418e-21
3.186459025e-20
5.416255684e-21
4.516922945e-21
2.18150884e-20
1.116938035e-20
1.961211953e-20
8.649862381e-21
2.644408675e-20
7.908333832e-22
1.641315257e-20
4.089147226e-21
1.212904331e-20
1.819800301e-20
1.541358774e-21
2.468824474e-20
4.183173995e-20
1.389712413e-20
2.123145405e-20
6.820656596e-21
7.266862573e-21
4.881337549e-21
1.022924698e-20
3.236372268e-20
1.90638845e-20
5.72325132e-21
5.344234028e-21
5.297430995e-21
1.560891565e-20
6.762919397e-21
1.166085127e-23
4.863648289e-21
1.384281849e-20
9.243865401e-21
2.024296842e-20
5.768242988e-21
8.243110136e-21
2.49683803e-20
1.51086117e-20
8.013858837e-21
1.655228688e-21
1.352997497e-20
5.816622797e-21
2.013694916e-20
4.649844264e-21
9.044359128e-21
1.371673033e-20
1.307080365e-20
3.344062658e-21
2.652068793e-21
2.774931483e-21
5.211199363e-21
3.433061992e-20
2.034064476e-21
9.004980727e-21
8.402872411e-21
1.318364487e-20
8.411204775e-21
3.093903746e-21
7.931847658e-22
7.539435335e-21
8.519420095e-21
7.630126989e-22
2.761430081e-20
9.374388817e-21
1.633243942e-20
2.389387933e-21
7.477581206e-22
3.398257139e-21
8.281986046e-21
2.133246225e-20
2.98009983e-20
1.050115525e-20
8.696123637e-21
1.739432467e-20
7.765543785e-21
3.209937327e-22
4.609207719e-21
3.777647765e-21
4.380286248e-21
1.936127027e-20
1.512393668e-20
1.441155476e-20
2.923462783e-21
6.524053901e-21
3.237991244e-21
9.798563102e-21
3.101810408e-21
1.000467279e-20
2.411017292e-20
1.114856245e-20
4.203540867e-22
7.127179433e-20
3.896262639e-21
3.373640968e-21
1.427163367e-20
2.980514816e-20
7.827880141e-21
3.298359584e-21
1.696063406e-21
5.596462094e-22
7.340913573e-22
4.456543186e-20
9.010837614e-21
2.140510099e-20
1.185379909e-20
2.309090221e-21
3.350702402e-21
2.804549468e-21
3.191122311e-21
8.41185293e-21
3.207924039e-21
6.435996382e-22
2.066437162e-21
5.752181792e-21
1.634545579e-20
1.830831897e-20
1.130860422e-20
1.283460107e-20
9.708843859e-21
7.66954789e-21
1.286996036e-20
4.120156436e-21
1.315542192e-20
8.322907495e-21
7.477114726e-21
1.325608622e-21
7.341369416e-21
1.196162268e-20
3.646359473e-20
1.291886398e-21
1.112229051e-20
1.375016164e-20
2.111743096e-20
1.407193966e-20
2.35742686e-20
5.101052793e-22
2.334043285e-21
7.593027336e-21
1.432241921e-20
6.108191374e-21
1.352184789e-20
1.171698242e-21
4.176011088e-20
2.490458003e-20
2.699741841e-20
9.869994481e-21
1.115289561e-21
3.022425947e-21
1.748674139e-21
1.444754338e-21
9.039401924e-23
8.243601239e-21
1.802233666e-20
8.466517921e-21
1.321163094e-20
1.154950231e-21
4.628373504e-21
1.443926481e-20
7.705956666e-22
1.005103935e-21
6.659847295e-21
1.359164253e-21
9.370502123e-21
3.102471129e-21
4.172681037e-20
1.154383622e-20
2.613874154e-21
1.372148579e-21
5.831335634e-22
1.932373412e-20
4.215337161e-20
1.963056679e-20
3.676673156e-22
3.74769828e-20
2.248641533e-21
1.684897205e-20
1.532645348e-20
7.3085764e-21
4.801980084e-21
2.060931876e-20
8.423422193e-21
6.793670899e-21
3.976537977e-21
2.539992761e-21
1.760957752e-20
7.395481247e-21
9.109048555e-21
3.839232062e-21
3.004225504e-21
3.159120497e-21
4.098273231e-21
5.97409056e-21
1.65372987e-20
2.011222292e-20
1.303525009e-22
1.036969077e-20
2.585695249e-20
1.22682111e-20
2.290182817e-20
1.383735164e-20
4.059952052e-23
1.720316275e-21
1.16195732e-21
1.180557554e-21
5.809232723e-21
3.136043587e-20
1.193200552e-20
8.815049637e-21
4.721021913e-21
7.081958234e-21
8.886817888e-21
1.2678604e-20
5.840236142e-21
8.191382957e-21
3.408171792e-21
2.508245583e-22
5.524682717e-21
1.50643103e-20
1.719827173e-20
1.423180184e-20
1.92710612e-20
9.838442303e-21
7.513171009e-21
4.160250716e-21
1.844995681e-20
9.182931566e-21
7.3133479e-21
5.365851835e-21
1.115354274e-20
3.567725911e-21
4.044717333e-21
1.224829185e-21
1.774101419e-21
5.593345165e-21
2.342697162e-21
1.525589964e-20
3.800070626e-20
4.47248519e-20
2.116526789e-20
1.028986407e-20
1.790159106e-22
8.754554157e-21
5.196394977e-20
1.116184505e-20
2.400863193e-21
1.734186038e-21
1.386640062e-20
3.88613048e-22
1.147577161e-20
1.488082148e-21
2.047366907e-20
4.591134295e-20
6.044807861e-21
1.256990299e-20
6.784189289e-21
8.622188662e-21
1.148358322e-20
2.952820038e-21
5.083990897e-21
2.466827981e-20
1.048997696e-20
6.677073261e-21
6.957647778e-21
5.066372924e-21
1.014740919e-21
1.441271352e-20
4.77415684e-22
8.075371034e-22
1.630483399e-20
1.404458704e-20
6.906656277e-21
5.338413114e-21
3.322007209e-20
7.69874297e-21
3.667773171e-20
5.919767096e-21
7.830386724e-21
8.782372075e-22
1.652814163e-21
2.692961557e-21
1.898582708e-20
2.544668447e-21
1.917281006e-21
6.872813847e-21
1.573024945e-20
5.585904611e-20
5.550638207e-21
6.045737024e-21
7.527642694e-21
1.532870836e-20
2.622218327e-20
2.011207318e-21
7.444027728e-21
6.162530774e-21
1.977200492e-20
7.250523145e-22
2.577794655e-20
1.331562053e-20
7.000162956e-22
2.066190577e-20
7.75061401e-22
8.294144884e-22
1.622859913e-21
8.38377579e-21
4.884424156e-21
6.463300659e-21
2.459755891e-21
5.229935645e-21
2.844430444e-20
3.072493274e-22
3.671784119e-21
3.305293552e-20
2.404590571e-20
1.032110067e-21
4.129353592e-21
1.940988583e-20
1.401804526e-20
2.902678751e-20
7.662483531e-21
1.331062127e-20
1.264179518e-20
1.197635261e-20
5.708975615e-21
1.677181234e-20
2.119521771e-20
1.350519936e-20
1.825989801e-20
2.02868993e-20
5.930419893e-21
1.152041225e-20
1.791493139e-21
1.52795566e-20
1.862035245e-21
3.117303947e-20
1.412343523e-20
6.353659135e-21
6.496274757e-21
1.54368314e-20
7.770641277e-21
1.774672255e-20
4.891616988e-21
1.575418539e-20
4.321439537e-20
5.530799594e-21
7.885111963e-21
2.339532435e-21
2.405305964e-20
3.858873982e-21
1.112072042e-20
1.480964408e-20
2.959210037e-21
1.233803556e-20
1.38655046e-20
4.254881253e-21
2.707544388e-21
1.971057474e-21
2.499671101e-20
1.011042194e-20
3.822585852e-21
2.556256923e-21
7.041788415e-21
1.457147021e-21
9.178283146e-21
2.914060908e-23
1.776305353e-21
3.417454459e-21
5.637200396e-21
7.63670225e-22
6.794948935e-22
2.195664122e-22
5.058227615e-21
7.880314738e-23
2.856182733e-21
6.877747019e-21
1.046947799e-20
1.459502842e-21
5.825968873e-21
1.285851679e-20
5.122754137e-21
1.103502867e-20
4.875622874e-21
5.254441189e-21
9.469806959e-22
2.599196713e-20
4.501469085e-21
1.483162915e-20
1.075426931e-21
8.943347342e-21
2.525047019e-21
5.41303153e-21
4.40257315e-21
1.476530429e-20
7.521511358e-21
2.149887959e-20
7.406171499e-21
3.649746204e-20
9.066916137e-21
1.749411617e-20
9.131574513e-22
1.35349665e-20
1.003041323e-20
9.98043242e-21
1.42898564e-20
3.17911911e-21
2.717225812e-21
1.423031784e-20
6.26627452e-21
1.856780906e-20
1.278131332e-20
1.064408792e-21
7.309996883e-21
1.53915423e-20
4.120698622e-21
5.930401172e-21
2.056365409e-20
3.706539411e-21
1.3111002e-20
1.465754523e-20
2.233217274e-21
2.628009187e-20
5.500201649e-20
1.912576065e-20
4.526366144e-21
1.402360323e-21
6.125618562e-22
5.941946929e-22
3.632308613e-21
1.029014218e-21
2.777720013e-20
2.925372424e-21
2.299615402e-20
2.90800445e-21
1.723230339e-21
1.606329986e-21
8.22692558e-21
6.428893684e-21
4.366655571e-24
4.288939727e-21
2.547294897e-20
1.822602471e-21
1.798598917e-20
4.522959096e-21
1.251519395e-20
2.241030586e-21
1.199813441e-22
5.387009466e-22
4.088964947e-21
7.138872035e-21
3.777688874e-21
9.771884439e-22
1.300307104e-20
1.498866073e-20
1.841402424e-21
5.009756747e-21
4.866732267e-20
5.533585281e-21
3.882101147e-20
1.390873175e-20
1.192739301e-20
6.726238792e-21
2.095925291e-21
2.756542234e-20
9.654926189e-21
3.290278992e-21
9.118183587e-21
1.331637145e-21
1.449701512e-20
1.194203069e-20
7.490345993e-22
2.562720241e-21
6.371296309e-21
4.416111704e-22
1.777232045e-20
9.023654005e-21
3.368111885e-21
2.718610386e-20
1.844089145e-20
4.653408289e-21
1.13461753e-20
1.652249873e-20
1.718831904e-20
4.758669988e-21
4.630772894e-21
1.374058383e-20
8.989595922e-22
1.819663255e-20
2.622499489e-20
3.431470122e-20
9.119621999e-21
1.174880474e-20
5.29944564e-21
6.894716707e-21
1.239169406e-20
1.21267895e-20
3.051423694e-20
3.59664155e-23
6.552357536e-21
4.902479529e-21
3.142705548e-21
1.401042297e-21
4.979262748e-20
9.684889055e-21
2.311770477e-21
4.497275648e-21
3.269542824e-21
4.252042814e-21
2.616027421e-20
1.481549209e-20
1.476090817e-20
1.271086241e-20
1.956710886e-20
1.403318647e-20
1.089381909e-21
1.683479388e-20
1.151818565e-20
4.523637898e-21
2.232911737e-20
7.774187093e-23
1.442436899e-20
8.966575907e-22
2.901759048e-21
2.697670364e-20
3.973635374e-20
1.351248611e-20
8.793919543e-21
2.702911784e-21
9.077144414e-23
2.717602863e-20
8.470667278e-22
7.921520665e-21
9.54362915e-21
3.686621869e-22
1.667743634e-20
4.37892685e-20
3.617786624e-20
2.93908613e-20
6.256160699e-21
8.181736009e-21
2.733152522e-21
1.353853726e-20
3.675573802e-21
1.206996061e-20
1.739617667e-20
1.572201766e-20
2.998771785e-21
2.032860869e-20
2.683675393e-20
2.086661551e-20
7.546570663e-21
7.221971899e-21
9.094870048e-21
9.869682272e-21
1.128889883e-20
4.66044783e-22
8.300459715e-21
7.678048931e-22
1.915137387e-20
3.709965794e-21
5.325310929e-21
4.074698384e-21
1.24126732e-21
2.92193129e-21
5.801098046e-22
5.475336385e-21
6.224540004e-21
3.934916662e-21
4.352790775e-21
1.496704601e-20
3.068661823e-21
1.526560894e-20
1.507116019e-20
1.022744906e-20
9.019164234e-22
3.108872622e-20
5.583017856e-21
3.999222811e-21
2.981452073e-21
1.074431142e-21
7.207530428e-21
2.103290166e-21
5.709314984e-21
8.824787943e-22
1.025358945e-21
7.677751783e-21
9.96531447e-21
7.352691131e-21
1.59808623e-20
6.73314126e-21
5.853177332e-21
6.513332658e-21
4.086604327e-21
3.980320078e-22
3.010951889e-21
2.946709455e-21
1.041200393e-22
1.232635404e-20
1.480417625e-20
1.266480854e-20
4.475840143e-21
1.930480053e-21
6.956727978e-21
9.73306366e-22
2.516946494e-21
1.03593807e-20
2.895621147e-21
5.172075722e-20
1.095252485e-20
2.23737417e-21
4.038059212e-21
9.302545406e-21
1.184505633e-20
3.763805518e-21
2.566275528e-20
9.318655473e-22
1.353972158e-20
7.373146305e-21
1.109364978e-20
9.780461642e-21
8.296285678e-21
1.074879522e-20
5.666487351e-21
3.08515775e-21
3.045090001e-21
2.696354413e-20
7.516695712e-21
8.290011875e-21
1.567940646e-20
4.424798773e-21
4.706666559e-21
1.037780694e-20
1.720469992e-21
2.090798898e-21
1.742349475e-20
2.141636871e-20
1.959102505e-20
2.225280042e-20
1.866106335e-22
8.35832157e-21
7.930186177e-21
7.918346029e-21
3.670919356e-21
3.199143167e-20
1.978076589e-21
4.559704423e-21
9.830578434e-21
3.022663937e-20
7.702093488e-21
1.486796743e-21
9.384255582e-21
1.143237535e-20
4.751913238e-21
1.510057182e-21
6.049550864e-21
1.565247876e-20
3.21320041e-21
2.322403079e-20
7.675238901e-21
6.964473508e-21
3.32875576e-20
3.598442952e-21
3.669460675e-21
1.331483516e-20
6.762055131e-21
2.196543442e-20
4.654136913e-20
1.478087306e-20
1.930188293e-20
1.124723294e-20
1.880820588e-20
9.345258007e-20
1.643136359e-20
5.507582892e-21
1.605043518e-20