/*--------------------------------*- C++ -*----------------------------------*\
| =========                 |                                                 |
| \\      /  F ield         | OpenFOAM: The Open Source CFD Toolbox           |
|  \\    /   O peration     | Version:  v1912                                 |
|   \\  /    A nd           | Website:  www.openfoam.com                      |
|    \\/     M anipulation  |                                                 |
\*---------------------------------------------------------------------------*/
FoamFile
{
    version     2.0;
    format      ascii;
    class       volVectorField;
    location    "0.54";
    object      U;
}
// * * * * * * * * * * * * * * * * * * * * * * * * * * * * * * * * * * * * * //

dimensions      [0 1 -1 0 0 0 0];


internalField   nonuniform List<vector> 
1900
(
(0 0 0)
(-3.592e-17 5.36712e-17 0)
(4.60788e-17 -1.97936e-17 0)
(-1.93249e-18 0 0)
(7.94859e-17 1.71037e-16 0)
(8.99478e-13 7.6123e-15 0)
(9.12962e-10 1.32288e-11 0)
(6.99139e-08 1.94138e-09 0)
(6.39143e-07 3.46821e-08 0)
(1.19953e-06 1.64596e-07 0)
(0 0 0)
(-4.61833e-17 -4.68195e-17 0)
(6.76035e-17 -1.76112e-16 0)
(-2.15626e-17 -4.92303e-17 0)
(1.25434e-16 2.4742e-17 0)
(1.01397e-12 3.52057e-14 0)
(1.07342e-09 5.45313e-11 0)
(8.44857e-08 6.24826e-09 0)
(7.77155e-07 8.90052e-08 0)
(1.49951e-06 3.04826e-07 0)
(0 0 0)
(-4.74152e-17 0 0)
(7.93879e-17 -5.0626e-17 0)
(-3.51775e-19 0 0)
(1.24697e-16 0 0)
(1.23216e-12 4.69845e-16 0)
(1.28344e-09 1.38025e-14 0)
(9.79336e-08 -3.49573e-15 0)
(8.63213e-07 -2.10145e-14 0)
(1.63756e-06 -1.19353e-14 0)
(0 0 0)
(0 0 0)
(0 -1.16732e-16 0)
(-2.09996e-17 -2.16969e-17 0)
(1.62955e-16 -1.0379e-16 0)
(1.0136e-12 -3.59509e-14 0)
(1.07344e-09 -5.45274e-11 0)
(8.44857e-08 -6.24828e-09 0)
(7.77155e-07 -8.90053e-08 0)
(1.49951e-06 -3.04826e-07 0)
(0 0 0)
(0 -9.93487e-17 0)
(0 -2.91575e-16 0)
(0 -1.64566e-16 0)
(9.13552e-18 -2.57571e-16 0)
(8.99629e-13 -7.3277e-15 0)
(9.12974e-10 -1.32375e-11 0)
(6.99139e-08 -1.94138e-09 0)
(6.39143e-07 -3.46821e-08 0)
(1.19953e-06 -1.64596e-07 0)
(-1.4858e-06 3.15682e-07 0)
(-0.000116502 -1.01324e-05 0)
(-0.00146037 -0.000180493 0)
(-0.00838122 -0.00150845 0)
(-0.0294138 -0.00540599 0)
(-3.16714e-06 1.10576e-07 0)
(-0.000179657 -2.49585e-05 0)
(-0.00201783 -0.000313657 0)
(-0.0103289 -0.00170793 0)
(-0.0305833 -0.00475623 0)
(-4.33401e-06 -1.19643e-14 0)
(-0.0002141 -2.31273e-14 0)
(-0.00224049 2.25578e-14 0)
(-0.0108981 -3.0639e-14 0)
(-0.0316248 1.06656e-14 0)
(-3.16714e-06 -1.10576e-07 0)
(-0.000179657 2.49585e-05 0)
(-0.00201783 0.000313657 0)
(-0.0103289 0.00170793 0)
(-0.0305833 0.00475623 0)
(-1.4858e-06 -3.15682e-07 0)
(-0.000116502 1.01324e-05 0)
(-0.00146037 0.000180493 0)
(-0.00838122 0.00150845 0)
(-0.0294138 0.00540599 0)
(-0.0627505 0.00326353 0)
(-0.0800326 0.00410077 0)
(-0.0939047 0.00937278 0)
(-0.114444 0.0235266 0)
(-0.166197 0.0512904 0)
(-0.0638523 0.00191241 0)
(-0.0840166 0.00355178 0)
(-0.0963829 0.0062295 0)
(-0.0923444 0.0214566 0)
(-0.0649037 0.0624526 0)
(-0.0644367 9.31595e-15 0)
(-0.0855228 5.49893e-15 0)
(-0.0961535 -3.16627e-15 0)
(-0.0783305 1.32062e-14 0)
(-0.0101733 1.10701e-14 0)
(-0.0638523 -0.00191241 0)
(-0.0840166 -0.00355178 0)
(-0.0963829 -0.0062295 0)
(-0.0923444 -0.0214566 0)
(-0.0649037 -0.0624526 0)
(-0.0627505 -0.00326353 0)
(-0.0800326 -0.00410077 0)
(-0.0939047 -0.00937278 0)
(-0.114444 -0.0235266 0)
(-0.166197 -0.0512904 0)
(-0.321057 0.0276226 0)
(-0.147937 -0.112514 0)
(-0.159747 -0.0622141 0)
(-0.112684 -0.025156 0)
(-0.0573651 -0.00224019 0)
(-0.0164721 8.16946e-05 0)
(-0.00184291 3.03502e-05 0)
(-5.06547e-05 1.48436e-06 0)
(-2.20603e-07 8.11443e-09 0)
(-1.06005e-10 4.2318e-12 0)
(-4.99278e-15 2.48228e-16 0)
(7.57324e-17 -1.97705e-16 0)
(1.66429e-17 4.56776e-17 0)
(-6.7832e-17 -1.10734e-16 0)
(-6.31003e-19 5.92886e-17 0)
(1.57922e-16 -7.9359e-17 0)
(-1.92753e-17 -2.03011e-17 0)
(-5.69124e-17 -6.36718e-17 0)
(-1.16303e-16 2.34386e-16 0)
(4.2139e-17 -4.63697e-17 0)
(4.38789e-17 6.15955e-17 0)
(4.54779e-17 -1.47875e-16 0)
(1.69319e-17 1.22038e-16 0)
(-1.51529e-16 4.26785e-16 0)
(-6.25558e-17 1.17654e-17 0)
(1.57434e-16 8.53571e-18 0)
(1.05071e-16 -1.91477e-17 0)
(-8.50828e-17 -9.91988e-18 0)
(-2.3183e-17 4.18711e-16 0)
(5.99138e-15 5.63818e-16 0)
(1.29484e-10 1.11246e-14 0)
(2.71104e-07 -1.69884e-15 0)
(6.30741e-05 2.70285e-14 0)
(0.00234979 -9.87028e-14 0)
(0.02176 9.06984e-14 0)
(0.0803167 -4.14602e-15 0)
(0.174384 2.83145e-14 0)
(0.28571 4.47331e-15 0)
(0.390665 1.97799e-14 0)
(1.02569 5.98016e-15 0)
(0.017365 0.0382595 0)
(-0.0121045 -0.0804913 0)
(-0.105944 -0.0432452 0)
(-0.105987 -0.0137539 0)
(-0.0581565 -0.000892308 0)
(-0.0168926 0.000293957 0)
(-0.00189784 4.05744e-05 0)
(-5.2549e-05 1.26193e-06 0)
(-2.31693e-07 5.94155e-09 0)
(-1.13082e-10 3.02447e-12 0)
(-5.39707e-15 1.37494e-16 0)
(1.36565e-16 2.4223e-16 0)
(2.97825e-17 1.81095e-16 0)
(-1.20288e-16 0 0)
(-9.13319e-18 -2.30695e-19 0)
(1.27836e-16 4.17558e-17 0)
(1.40235e-17 0 0)
(-4.67896e-17 6.64401e-17 0)
(-1.65517e-16 4.47779e-16 0)
(3.28316e-17 1.78558e-16 0)
(5.19414e-17 8.85868e-17 0)
(1.09655e-16 2.71759e-16 0)
(6.19618e-17 2.91598e-16 0)
(-2.00514e-16 6.41101e-16 0)
(-1.64916e-16 3.60115e-16 0)
(7.43143e-17 -9.87374e-17 0)
(1.33484e-16 -3.54578e-16 0)
(2.3323e-17 6.02114e-17 0)
(1.71804e-17 2.31618e-16 0)
(6.06038e-15 2.14546e-17 0)
(1.29487e-10 5.45293e-15 0)
(2.71104e-07 -4.86166e-15 0)
(6.30741e-05 1.88501e-14 0)
(0.00234979 -9.70069e-14 0)
(0.02176 1.08773e-13 0)
(0.0803167 -2.8364e-14 0)
(0.174384 1.62745e-14 0)
(0.28571 -2.95599e-15 0)
(0.390665 -1.03587e-14 0)
(1.02569 -1.45172e-14 0)
(0.113228 3.26203e-14 0)
(0.0409746 1.32302e-14 0)
(-0.0822366 -2.23825e-14 0)
(-0.103973 -4.45691e-14 0)
(-0.0586633 -2.8367e-14 0)
(-0.0171362 -1.73128e-14 0)
(-0.00192898 -3.96675e-14 0)
(-5.34526e-05 -1.58463e-14 0)
(-2.36367e-07 1.73487e-14 0)
(-1.1593e-10 1.55765e-14 0)
(-5.45284e-15 6.82857e-17 0)
(2.83985e-17 4.00486e-16 0)
(-1.54892e-18 8.30502e-17 0)
(-1.60044e-16 2.17545e-16 0)
(-1.7395e-17 -7.08233e-17 0)
(1.64058e-16 0 0)
(3.75911e-18 0 0)
(3.63679e-19 4.0833e-17 0)
(-8.78127e-17 3.92643e-16 0)
(-5.9874e-17 2.90214e-16 0)
(6.27563e-17 2.03242e-16 0)
(1.42001e-16 5.20217e-16 0)
(5.27128e-17 4.69925e-16 0)
(-1.67819e-16 4.13867e-16 0)
(-2.39316e-16 5.90348e-16 0)
(-6.33028e-17 2.32771e-16 0)
(2.30752e-16 -1.10272e-16 0)
(7.21748e-17 2.08087e-16 0)
(-6.77991e-17 1.0612e-17 0)
(5.96738e-15 -5.26446e-16 0)
(1.29489e-10 1.29189e-17 0)
(2.71104e-07 -5.29145e-15 0)
(6.30741e-05 1.69417e-14 0)
(0.00234979 -1.09923e-13 0)
(0.02176 9.61322e-14 0)
(0.0803167 -3.39293e-14 0)
(0.174384 9.90412e-15 0)
(0.28571 -1.231e-14 0)
(0.390665 -1.08911e-14 0)
(1.02569 -3.02753e-14 0)
(0.017365 -0.0382595 0)
(-0.0121045 0.0804913 0)
(-0.105944 0.0432452 0)
(-0.105987 0.0137539 0)
(-0.0581565 0.000892308 0)
(-0.0168926 -0.000293957 0)
(-0.00189784 -4.05744e-05 0)
(-5.2549e-05 -1.26193e-06 0)
(-2.31693e-07 -5.94152e-09 0)
(-1.13091e-10 -3.00373e-12 0)
(-5.29618e-15 -1.64716e-16 0)
(1.17685e-17 2.19622e-16 0)
(3.30764e-17 6.43639e-17 0)
(-4.6316e-17 3.818e-16 0)
(-5.28591e-17 7.12847e-17 0)
(8.39747e-17 0 0)
(-6.94964e-18 0 0)
(-2.02255e-17 0 0)
(2.39194e-18 1.34264e-16 0)
(-4.00622e-17 1.04966e-16 0)
(5.80788e-17 6.55173e-17 0)
(1.74125e-16 1.35879e-16 0)
(2.18026e-17 2.30695e-18 0)
(-2.34537e-16 6.52866e-17 0)
(-1.94246e-16 3.77417e-16 0)
(-9.92989e-18 4.45702e-16 0)
(2.54064e-16 8.90482e-17 0)
(9.27398e-17 -3.09131e-17 0)
(-1.84438e-16 0 0)
(5.91198e-15 -3.43735e-16 0)
(1.29487e-10 -5.53668e-15 0)
(2.71104e-07 -2.16975e-14 0)
(6.30741e-05 3.1598e-15 0)
(0.00234979 -9.96676e-14 0)
(0.02176 8.84523e-14 0)
(0.0803167 -3.18651e-14 0)
(0.174384 5.30007e-15 0)
(0.28571 -1.87219e-14 0)
(0.390665 -1.24018e-14 0)
(1.02569 -1.58016e-14 0)
(-0.321057 -0.0276226 0)
(-0.147937 0.112514 0)
(-0.159747 0.0622141 0)
(-0.112684 0.025156 0)
(-0.0573651 0.00224019 0)
(-0.0164721 -8.16946e-05 0)
(-0.00184291 -3.03502e-05 0)
(-5.06547e-05 -1.48436e-06 0)
(-2.20603e-07 -8.11442e-09 0)
(-1.06013e-10 -4.24895e-12 0)
(-4.90591e-15 -3.39352e-16 0)
(5.14967e-17 4.0833e-17 0)
(-1.34756e-17 -2.88369e-17 0)
(1.4134e-17 1.43492e-16 0)
(-4.0271e-17 1.55719e-16 0)
(2.50975e-17 0 0)
(-4.92416e-17 0 0)
(3.56917e-18 0 0)
(2.25713e-20 -7.61293e-17 0)
(-1.51374e-20 -7.86669e-17 0)
(-4.07784e-20 0 0)
(4.20743e-17 -2.67606e-17 0)
(-2.01438e-20 -3.63575e-16 0)
(-9.84739e-17 -1.61256e-16 0)
(-8.5626e-17 1.10041e-16 0)
(-1.73544e-17 2.93213e-16 0)
(1.55878e-16 0 0)
(5.38864e-17 -3.94027e-16 0)
(-1.04811e-16 -7.75135e-17 0)
(5.93395e-15 -1.30804e-16 0)
(1.29484e-10 -1.15834e-14 0)
(2.71104e-07 -2.21209e-14 0)
(6.30741e-05 -3.57835e-14 0)
(0.00234979 -6.85529e-14 0)
(0.02176 7.70194e-14 0)
(0.0803167 -3.63484e-14 0)
(0.174384 -2.1116e-14 0)
(0.28571 -1.59431e-14 0)
(0.390665 -2.54259e-14 0)
(1.02569 -1.41221e-14 0)
(-0.881948 -0.0322999 0)
(-0.304813 0.12533 0)
(-0.216058 0.0679021 0)
(-0.129983 0.0282639 0)
(-0.060976 0.00667133 0)
(-0.0167707 0.000859473 0)
(-0.00181791 3.40503e-05 0)
(-4.84216e-05 2.95718e-07 0)
(-2.05887e-07 2.74903e-11 0)
(-9.71313e-11 -2.45215e-13 0)
(-4.53745e-15 -1.17907e-16 0)
(5.83725e-17 4.61738e-17 0)
(-2.50453e-17 6.32365e-17 0)
(-1.26129e-17 -3.25933e-17 0)
(6.99812e-18 6.32365e-17 0)
(-2.27425e-17 5.01435e-17 0)
(-5.83836e-18 0 0)
(-8.1811e-18 -5.5715e-19 0)
(-1.20604e-19 -7.25688e-17 0)
(-3.27539e-19 -1.23966e-17 0)
(7.45406e-19 0 0)
(1.00165e-21 -4.31095e-17 0)
(-6.81412e-20 -1.82606e-16 0)
(-3.48789e-17 -1.95769e-16 0)
(2.55365e-17 -4.35273e-17 0)
(-1.83185e-17 7.75831e-17 0)
(3.31081e-17 -7.89063e-17 0)
(-1.24503e-18 -2.00226e-16 0)
(8.02287e-18 -2.03986e-16 0)
(6.09813e-15 -5.85704e-17 0)
(1.29478e-10 5.02946e-15 0)
(2.71104e-07 -3.19324e-15 0)
(6.30741e-05 -8.77351e-14 0)
(0.00234979 1.78282e-14 0)
(0.02176 3.77628e-14 0)
(0.0803167 -1.56376e-14 0)
(0.174384 -3.00024e-14 0)
(0.28571 -1.20374e-14 0)
(0.390665 -2.23688e-15 0)
(1.02569 -1.07244e-14 0)
(-1.02277 0.0206811 0)
(-0.374679 0.0685865 0)
(-0.260192 0.0415668 0)
(-0.154621 0.0217846 0)
(-0.0705806 0.00694906 0)
(-0.0189529 0.00141653 0)
(-0.00201552 0.000117263 0)
(-5.31935e-05 2.406e-06 0)
(-2.24745e-07 8.05435e-09 0)
(-1.05614e-10 3.05441e-12 0)
(-4.93311e-15 6.4908e-17 0)
(7.86099e-17 -4.61738e-17 0)
(-2.46949e-17 0 0)
(-2.13349e-17 2.98075e-17 0)
(9.74296e-18 7.97421e-17 0)
(-5.08034e-17 1.97231e-16 0)
(-3.33154e-17 6.10079e-17 0)
(-4.95372e-17 0 0)
(-8.17957e-19 2.48628e-17 0)
(-1.41917e-18 1.4075e-16 0)
(2.97004e-18 2.48628e-17 0)
(1.20794e-20 0 0)
(7.01722e-19 -5.23024e-17 0)
(-5.8756e-17 -5.83614e-17 0)
(3.70093e-17 -4.61738e-17 0)
(-3.73995e-17 0 0)
(5.84e-17 -4.84024e-17 0)
(-6.52425e-18 -7.28473e-17 0)
(1.47769e-17 -1.49873e-16 0)
(6.11761e-15 0 0)
(1.29499e-10 2.32819e-15 0)
(2.71104e-07 -1.25291e-14 0)
(6.30741e-05 -1.00358e-13 0)
(0.00234979 9.67259e-14 0)
(0.02176 -6.06031e-14 0)
(0.0803167 5.52997e-14 0)
(0.174384 -7.86693e-15 0)
(0.28571 -6.8698e-15 0)
(0.390665 9.2476e-15 0)
(1.02569 7.32681e-15 0)
(-1.02773 0.00837037 0)
(-0.38751 0.0242008 0)
(-0.278985 0.0164408 0)
(-0.168877 0.0096207 0)
(-0.0773546 0.00334734 0)
(-0.0208669 0.000732076 0)
(-0.00224091 6.5738e-05 0)
(-5.98008e-05 1.50847e-06 0)
(-2.55559e-07 5.61675e-09 0)
(-1.21402e-10 2.33376e-12 0)
(-5.63967e-15 4.62434e-17 0)
(1.71898e-18 0 0)
(7.93913e-17 2.31914e-17 0)
(9.27463e-17 1.43605e-16 0)
(-8.92859e-17 4.79845e-17 0)
(-8.188e-17 3.85826e-17 0)
(-6.56176e-17 1.27169e-16 0)
(-1.04318e-16 4.61042e-17 0)
(-1.01449e-17 0 0)
(-3.48145e-18 2.70218e-17 0)
(1.46591e-17 0 0)
(3.93334e-19 8.98404e-18 0)
(2.40835e-18 1.12753e-16 0)
(-2.49589e-17 1.69931e-17 0)
(5.09847e-19 4.61738e-17 0)
(-4.60902e-18 -3.09915e-17 0)
(3.96277e-17 6.47687e-17 0)
(-3.06937e-17 0 0)
(7.42023e-21 -1.00983e-17 0)
(6.03398e-15 0 0)
(1.29484e-10 -5.39147e-15 0)
(2.71104e-07 -2.72728e-14 0)
(6.30741e-05 -1.78805e-14 0)
(0.00234979 7.45031e-14 0)
(0.02176 -7.60923e-14 0)
(0.0803167 9.58127e-14 0)
(0.174384 1.00044e-14 0)
(0.28571 7.92075e-15 0)
(0.390665 1.59104e-14 0)
(1.02569 3.27305e-14 0)
(-1.02595 0.00369062 0)
(-0.390165 0.00491639 0)
(-0.284743 0.00342669 0)
(-0.173582 0.0020855 0)
(-0.0798606 0.000725782 0)
(-0.0216256 0.00015472 0)
(-0.00233435 1.33924e-05 0)
(-6.2643e-05 2.95008e-07 0)
(-2.69206e-07 1.05726e-09 0)
(-1.28575e-10 4.42361e-13 0)
(-5.99013e-15 6.47687e-18 0)
(1.43159e-17 0 0)
(1.14594e-16 -7.81403e-17 0)
(1.11487e-17 3.80951e-17 0)
(-8.18367e-17 0 0)
(-3.72221e-17 -8.9144e-17 0)
(5.05141e-18 -1.49734e-16 0)
(-1.2021e-17 -4.61042e-17 0)
(-1.03963e-17 0 0)
(1.30265e-17 0 0)
(6.01737e-17 0 0)
(1.61386e-18 0 0)
(7.3824e-18 4.43631e-17 0)
(-5.6855e-17 0 0)
(-2.2666e-18 0 0)
(-1.19777e-17 9.35315e-17 0)
(4.83395e-17 0 0)
(-4.72879e-17 0 0)
(-2.62755e-19 0 0)
(6.02593e-15 0 0)
(1.29487e-10 -1.86819e-15 0)
(2.71104e-07 9.70207e-16 0)
(6.30741e-05 2.48298e-14 0)
(0.00234979 1.69637e-14 0)
(0.02176 -5.18693e-14 0)
(0.0803167 7.6492e-14 0)
(0.174384 1.18236e-14 0)
(0.28571 -1.40949e-14 0)
(0.390665 2.09997e-14 0)
(1.02569 1.84202e-14 0)
(-1.02569 0.000553399 0)
(-0.390632 0.000381192 0)
(-0.285655 0.000255131 0)
(-0.174339 0.000157409 0)
(-0.080291 5.26203e-05 0)
(-0.021753 1.02871e-05 0)
(-0.00234908 7.91888e-07 0)
(-6.30578e-05 1.52499e-08 0)
(-2.71047e-07 4.76396e-11 0)
(-1.29484e-10 7.26628e-15 0)
(-6.06874e-15 4.76363e-17 0)
(5.21887e-17 0 0)
(1.85627e-16 -1.66449e-17 0)
(2.96382e-17 0 0)
(-1.46061e-16 -3.47522e-17 0)
(-5.04776e-17 -1.30582e-16 0)
(1.13731e-17 -3.36379e-17 0)
(3.32907e-17 0 0)
(-3.26405e-17 0 0)
(3.99228e-17 0 0)
(1.00318e-16 0 0)
(4.63582e-18 0 0)
(1.37977e-17 -9.36708e-17 0)
(-8.18169e-17 2.01967e-18 0)
(-8.70117e-18 3.97666e-17 0)
(-3.94337e-17 1.35527e-16 0)
(4.10526e-17 3.97666e-17 0)
(-4.05692e-17 0 0)
(-1.35263e-17 0 0)
(6.1201e-15 0 0)
(1.29479e-10 3.97352e-15 0)
(2.71104e-07 2.41483e-14 0)
(6.30741e-05 -1.56497e-14 0)
(0.00234979 -5.35017e-15 0)
(0.02176 -1.11277e-14 0)
(0.0803167 3.35246e-14 0)
(0.174384 1.02443e-14 0)
(0.28571 -4.42438e-14 0)
(0.390665 2.94076e-14 0)
(1.02569 1.75687e-14 0)
(-1.02569 1.9932e-05 0)
(-0.390665 7.82937e-06 0)
(-0.285709 4.40963e-06 0)
(-0.174383 2.75961e-06 0)
(-0.0803164 8.6916e-07 0)
(-0.0217599 1.5083e-07 0)
(-0.00234978 9.79595e-09 0)
(-6.30739e-05 1.51616e-10 0)
(-2.71104e-07 3.43836e-13 0)
(-1.29486e-10 -3.61033e-16 0)
(-6.10241e-15 -4.76363e-17 0)
(1.27222e-17 -4.81238e-17 0)
(8.09584e-17 4.53381e-17 0)
(6.03892e-17 -1.97092e-17 0)
(-3.53717e-17 7.59813e-17 0)
(-1.45185e-17 3.32201e-17 0)
(-5.00928e-17 0 0)
(4.55667e-17 0 0)
(-5.0025e-17 0 0)
(4.88804e-17 -4.61738e-17 0)
(-4.67185e-17 0 0)
(-3.39654e-17 -4.61738e-17 0)
(5.53566e-17 -4.86113e-17 0)
(-3.77323e-19 -9.03976e-17 0)
(4.95311e-17 -4.63827e-17 0)
(-4.62517e-17 -1.41377e-16 0)
(4.65657e-17 -4.62434e-17 0)
(-4.98981e-17 4.93078e-17 0)
(-7.67115e-17 0 0)
(6.12104e-15 0 0)
(1.29496e-10 3.51896e-15 0)
(2.71104e-07 5.42593e-14 0)
(6.30741e-05 -2.01924e-14 0)
(0.00234979 3.16252e-14 0)
(0.02176 1.78572e-14 0)
(0.0803167 5.1012e-15 0)
(0.174384 1.70814e-14 0)
(0.28571 -1.76246e-14 0)
(0.390665 3.46195e-14 0)
(1.02569 5.40009e-14 0)
(-1.02569 1.41151e-07 0)
(-0.390665 3.4434e-08 0)
(-0.28571 1.16221e-08 0)
(-0.174384 7.59967e-09 0)
(-0.0803167 2.21187e-09 0)
(-0.02176 3.35707e-10 0)
(-0.00234979 1.76004e-11 0)
(-6.30741e-05 1.78458e-13 0)
(-2.71104e-07 -3.57786e-14 0)
(-1.29502e-10 5.69895e-16 0)
(-6.19669e-15 -1.72716e-17 0)
(8.29173e-17 -1.53634e-16 0)
(9.1753e-19 -5.79436e-17 0)
(4.93882e-18 -1.53495e-16 0)
(9.48657e-17 -9.68048e-18 0)
(-3.15754e-17 1.70279e-16 0)
(-1.74629e-16 7.27081e-17 0)
(-4.66396e-17 -3.5379e-17 0)
(5.71444e-17 0 0)
(4.03674e-18 4.61738e-17 0)
(-9.93069e-19 0 0)
(-5.50478e-17 4.61738e-17 0)
(-3.86772e-17 4.52684e-17 0)
(-1.35672e-18 0 0)
(-1.12097e-18 4.60345e-17 0)
(1.78685e-17 -2.70218e-17 0)
(-2.75038e-17 0 0)
(-1.30079e-22 -4.93774e-17 0)
(-3.43218e-17 0 0)
(6.06195e-15 0 0)
(1.29488e-10 3.39834e-15 0)
(2.71104e-07 3.04613e-14 0)
(6.30741e-05 7.34795e-15 0)
(0.00234979 7.70745e-14 0)
(0.02176 -9.89366e-15 0)
(0.0803167 5.81683e-16 0)
(0.174384 7.68576e-15 0)
(0.28571 1.36733e-14 0)
(0.390665 4.24455e-14 0)
(1.02569 5.94902e-14 0)
(-1.02569 1.94666e-10 0)
(-0.390665 3.4873e-11 0)
(-0.28571 2.64347e-12 0)
(-0.174384 2.30721e-12 0)
(-0.0803167 5.19931e-13 0)
(-0.02176 8.51793e-14 0)
(-0.00234979 -1.27585e-13 0)
(-6.30741e-05 1.55023e-15 0)
(-2.71104e-07 -1.5378e-14 0)
(-1.29489e-10 -5.58543e-16 0)
(-6.24279e-15 0 0)
(1.18538e-16 0 0)
(1.93484e-17 0 0)
(2.74285e-17 -3.05736e-17 0)
(1.23138e-16 0 0)
(2.05641e-18 4.31791e-18 0)
(-9.19312e-17 -1.95699e-17 0)
(9.9614e-18 -1.21459e-16 0)
(1.12678e-16 -3.18968e-17 0)
(1.04807e-17 0 0)
(3.00275e-18 0 0)
(-5.29289e-17 0 0)
(-1.27048e-16 -4.69399e-17 0)
(-1.92247e-17 0 0)
(-3.0056e-18 0 0)
(3.39235e-17 0 0)
(-6.18605e-17 0 0)
(1.23069e-23 -5.81525e-17 0)
(-2.13293e-19 0 0)
(6.00183e-15 1.33716e-17 0)
(1.29504e-10 3.67162e-15 0)
(2.71104e-07 -3.31209e-14 0)
(6.30741e-05 -8.81864e-15 0)
(0.00234979 2.77231e-14 0)
(0.02176 -1.92381e-14 0)
(0.0803167 -1.99628e-14 0)
(0.174384 -2.82532e-14 0)
(0.28571 5.24973e-15 0)
(0.390665 -5.67024e-15 0)
(1.02569 9.19103e-15 0)
(-1.02569 1.517e-13 0)
(-0.390665 6.26176e-14 0)
(-0.28571 -5.41136e-14 0)
(-0.174384 -3.03561e-14 0)
(-0.0803167 -1.15415e-14 0)
(-0.02176 -7.48011e-14 0)
(-0.00234979 -7.60875e-14 0)
(-6.30741e-05 -8.60558e-15 0)
(-2.71104e-07 -1.21134e-14 0)
(-1.29501e-10 -2.28139e-15 0)
(-6.15204e-15 6.71366e-17 0)
(-1.84673e-17 1.88177e-16 0)
(2.18727e-18 6.6858e-18 0)
(8.86695e-17 3.06432e-18 0)
(2.26311e-16 -9.21387e-17 0)
(4.93172e-18 -2.19796e-16 0)
(-1.84325e-16 -8.53832e-17 0)
(-6.98037e-17 7.38224e-18 0)
(8.88274e-18 5.22328e-18 0)
(5.41946e-18 0 0)
(6.12374e-18 -7.89063e-17 0)
(5.16243e-17 0 0)
(-3.47634e-17 -7.42402e-17 0)
(-7.52136e-17 0 0)
(-2.286e-17 0 0)
(-3.88022e-17 -7.98117e-17 0)
(-1.67912e-18 -7.89063e-17 0)
(-2.37215e-22 -1.57395e-16 0)
(-3.92387e-19 -6.26097e-17 0)
(6.02941e-15 -7.89063e-17 0)
(1.29498e-10 -1.37312e-14 0)
(2.71104e-07 -3.9551e-14 0)
(6.30741e-05 -6.31527e-15 0)
(0.00234979 -5.56164e-14 0)
(0.02176 2.00513e-15 0)
(0.0803167 -4.37589e-14 0)
(0.174384 -4.60725e-14 0)
(0.28571 7.6158e-15 0)
(0.390665 -2.50525e-14 0)
(1.02569 -1.11024e-14 0)
(-1.02569 5.76498e-14 0)
(-0.390665 4.66658e-14 0)
(-0.28571 -2.77443e-14 0)
(-0.174384 -5.1094e-15 0)
(-0.0803167 1.06814e-13 0)
(-0.02176 -5.31058e-14 0)
(-0.00234979 1.11305e-13 0)
(-6.30741e-05 1.58704e-14 0)
(-2.71104e-07 1.27214e-14 0)
(-1.29476e-10 2.12314e-14 0)
(-8.75385e-15 3.59946e-14 0)
(-6.64267e-16 3.29367e-14 0)
(-7.7826e-17 3.21484e-14 0)
(2.99196e-16 3.20261e-14 0)
(2.30128e-17 3.24967e-14 0)
(-1.70508e-16 3.19881e-14 0)
(6.07e-17 3.2098e-14 0)
(4.60865e-17 3.23575e-14 0)
(-4.50551e-17 3.21414e-14 0)
(-5.70959e-17 3.21288e-14 0)
(6.03389e-17 3.18956e-14 0)
(1.13722e-15 3.22507e-14 0)
(-2.31123e-17 3.43286e-14 0)
(-9.48032e-16 3.22602e-14 0)
(-2.1187e-16 3.21293e-14 0)
(-1.97267e-16 3.18838e-14 0)
(-6.10817e-17 3.1816e-14 0)
(-1.08907e-17 3.16729e-14 0)
(-3.02124e-18 3.17098e-14 0)
(6.45057e-15 3.2159e-14 0)
(1.29477e-10 2.44602e-14 0)
(2.71104e-07 4.28503e-14 0)
(6.30741e-05 9.92267e-14 0)
(0.00234979 -2.96647e-14 0)
(0.02176 1.24535e-13 0)
(0.0803167 1.87438e-14 0)
(0.174384 -8.99639e-15 0)
(0.28571 4.63253e-14 0)
(0.390665 2.51923e-14 0)
(1.02569 1.71149e-14 0)
(-1.02569 7.23653e-11 0)
(-0.390665 9.63281e-11 0)
(-0.28571 2.58009e-10 0)
(-0.174384 3.73647e-10 0)
(-0.0803167 4.7639e-10 0)
(-0.02176 5.2735e-10 0)
(-0.00234979 5.4149e-10 0)
(-6.30741e-05 5.42378e-10 0)
(-2.71104e-07 5.42689e-10 0)
(-1.29463e-10 5.42481e-10 0)
(-1.93368e-14 5.42495e-10 0)
(2.16468e-15 5.42483e-10 0)
(-2.15498e-15 5.42489e-10 0)
(-1.6599e-14 5.42475e-10 0)
(-3.36953e-15 5.42456e-10 0)
(1.09595e-14 5.42466e-10 0)
(-1.09282e-14 5.42476e-10 0)
(-1.77392e-14 5.42439e-10 0)
(5.86639e-15 5.42438e-10 0)
(1.90906e-14 5.42455e-10 0)
(-1.44282e-16 5.42476e-10 0)
(-2.25004e-14 5.42452e-10 0)
(-5.78707e-15 5.4243e-10 0)
(5.59899e-15 5.42433e-10 0)
(1.12628e-15 5.42441e-10 0)
(-4.75388e-15 5.42436e-10 0)
(-4.97943e-15 5.42431e-10 0)
(-1.10891e-15 5.42424e-10 0)
(6.00672e-15 5.42431e-10 0)
(2.00829e-14 5.42446e-10 0)
(1.29488e-10 5.4246e-10 0)
(2.71104e-07 5.42627e-10 0)
(6.30741e-05 5.42192e-10 0)
(0.00234979 5.41297e-10 0)
(0.02176 5.27488e-10 0)
(0.0803167 4.76328e-10 0)
(0.174384 3.73638e-10 0)
(0.28571 2.57922e-10 0)
(0.390665 9.64135e-11 0)
(1.02569 7.24228e-11 0)
(-1.02569 1.80449e-07 0)
(-0.390665 2.11225e-07 0)
(-0.28571 4.49079e-07 0)
(-0.174384 5.75361e-07 0)
(-0.0803167 6.87862e-07 0)
(-0.02176 7.42035e-07 0)
(-0.00234978 7.56701e-07 0)
(-6.3074e-05 7.58135e-07 0)
(-2.71104e-07 7.58168e-07 0)
(-1.29416e-10 7.58168e-07 0)
(-6.10208e-14 7.58168e-07 0)
(5.65029e-15 7.58168e-07 0)
(4.72029e-14 7.58168e-07 0)
(3.59226e-14 7.58169e-07 0)
(-3.32305e-15 7.58169e-07 0)
(-4.83268e-14 7.58169e-07 0)
(-1.43682e-14 7.58168e-07 0)
(4.68161e-14 7.58169e-07 0)
(3.38373e-14 7.58169e-07 0)
(6.46822e-15 7.58169e-07 0)
(-2.19829e-15 7.58169e-07 0)
(-1.70282e-14 7.58169e-07 0)
(-5.91275e-14 7.58169e-07 0)
(-2.24121e-14 7.58168e-07 0)
(5.13281e-14 7.58169e-07 0)
(3.98687e-14 7.58169e-07 0)
(6.7619e-15 7.58169e-07 0)
(7.68217e-16 7.58169e-07 0)
(-1.32587e-15 7.58169e-07 0)
(4.42651e-15 7.58169e-07 0)
(1.29521e-10 7.58169e-07 0)
(2.71104e-07 7.58168e-07 0)
(6.3074e-05 7.58136e-07 0)
(0.00234978 7.56702e-07 0)
(0.02176 7.42035e-07 0)
(0.0803167 6.87863e-07 0)
(0.174384 5.75361e-07 0)
(0.28571 4.49079e-07 0)
(0.390665 2.11225e-07 0)
(1.02569 1.8045e-07 0)
(-1.02569 4.87325e-05 0)
(-0.39066 5.14156e-05 0)
(-0.285703 8.92272e-05 0)
(-0.174379 0.000103338 0)
(-0.0803139 0.000117003 0)
(-0.021759 0.000123407 0)
(-0.00234965 0.000125199 0)
(-6.30695e-05 0.000125382 0)
(-2.7108e-07 0.000125387 0)
(-1.29658e-10 0.000125387 0)
(2.79519e-14 0.000125387 0)
(1.7287e-14 0.000125387 0)
(-2.82659e-14 0.000125387 0)
(8.09233e-15 0.000125387 0)
(6.09346e-15 0.000125387 0)
(9.61554e-15 0.000125387 0)
(5.81059e-14 0.000125387 0)
(2.67315e-14 0.000125387 0)
(2.15796e-14 0.000125387 0)
(5.74082e-15 0.000125387 0)
(-1.98109e-14 0.000125387 0)
(-3.74409e-14 0.000125387 0)
(9.04981e-15 0.000125387 0)
(5.4206e-14 0.000125387 0)
(-2.10724e-14 0.000125387 0)
(-7.75092e-14 0.000125387 0)
(-1.85161e-14 0.000125387 0)
(-6.1559e-15 0.000125387 0)
(-2.31568e-15 0.000125387 0)
(8.091e-14 0.000125387 0)
(1.29463e-10 0.000125387 0)
(2.7108e-07 0.000125387 0)
(6.30695e-05 0.000125382 0)
(0.00234965 0.000125199 0)
(0.021759 0.000123407 0)
(0.0803139 0.000117003 0)
(0.174379 0.000103338 0)
(0.285703 8.92272e-05 0)
(0.39066 5.14156e-05 0)
(1.02569 4.87325e-05 0)
(-1.02554 0.00204353 0)
(-0.390491 0.00199022 0)
(-0.285488 0.00293133 0)
(-0.17426 0.00314621 0)
(-0.0802372 0.00341232 0)
(-0.0217314 0.00353517 0)
(-0.00234563 0.00357148 0)
(-6.29264e-05 0.00357542 0)
(-2.70286e-07 0.00357552 0)
(-1.28893e-10 0.00357552 0)
(-2.4356e-14 0.00357552 0)
(1.07306e-14 0.00357552 0)
(-8.75729e-15 0.00357552 0)
(-6.7516e-14 0.00357552 0)
(-2.65486e-14 0.00357552 0)
(1.59211e-14 0.00357552 0)
(-4.16262e-14 0.00357552 0)
(-1.19111e-13 0.00357552 0)
(-7.69629e-14 0.00357552 0)
(1.91442e-14 0.00357552 0)
(4.12883e-14 0.00357552 0)
(2.1389e-14 0.00357552 0)
(-5.1616e-14 0.00357552 0)
(-1.33079e-13 0.00357552 0)
(-3.57235e-14 0.00357552 0)
(5.5132e-14 0.00357552 0)
(8.01372e-14 0.00357552 0)
(1.48082e-14 0.00357552 0)
(-2.7788e-14 0.00357552 0)
(-9.34273e-15 0.00357552 0)
(1.28958e-10 0.00357552 0)
(2.70286e-07 0.00357552 0)
(6.29264e-05 0.00357542 0)
(0.00234563 0.00357148 0)
(0.0217314 0.00353517 0)
(0.0802372 0.00341232 0)
(0.17426 0.00314621 0)
(0.285488 0.00293133 0)
(0.390491 0.00199022 0)
(1.02554 0.00204353 0)
(-1.0238 0.0205399 0)
(-0.389254 0.0189079 0)
(-0.28413 0.0248576 0)
(-0.173476 0.0253744 0)
(-0.0797214 0.0266992 0)
(-0.0215344 0.0273124 0)
(-0.00231498 0.0275076 0)
(-6.17702e-05 0.0275301 0)
(-2.6359e-07 0.0275308 0)
(-1.25074e-10 0.0275308 0)
(8.36486e-15 0.0275308 0)
(7.22962e-14 0.0275308 0)
(8.18319e-14 0.0275308 0)
(5.02521e-14 0.0275308 0)
(-1.41779e-14 0.0275308 0)
(-4.19714e-14 0.0275308 0)
(3.0838e-15 0.0275308 0)
(6.84486e-14 0.0275308 0)
(4.84425e-14 0.0275308 0)
(-1.68427e-15 0.0275308 0)
(-4.82555e-15 0.0275308 0)
(1.82265e-14 0.0275308 0)
(5.27401e-14 0.0275308 0)
(7.53073e-14 0.0275308 0)
(1.04516e-14 0.0275308 0)
(-3.71883e-14 0.0275308 0)
(-2.7322e-14 0.0275308 0)
(1.74209e-15 0.0275308 0)
(1.72823e-14 0.0275308 0)
(5.83009e-14 0.0275308 0)
(1.24755e-10 0.0275308 0)
(2.63591e-07 0.0275308 0)
(6.17702e-05 0.0275301 0)
(0.00231498 0.0275076 0)
(0.0215344 0.0273124 0)
(0.0797214 0.0266992 0)
(0.173476 0.0253744 0)
(0.28413 0.0248576 0)
(0.389254 0.0189079 0)
(1.0238 0.0205399 0)
(-1.01741 0.0793162 0)
(-0.38656 0.0706121 0)
(-0.28142 0.0871739 0)
(-0.171526 0.0864122 0)
(-0.0783958 0.0892492 0)
(-0.0209818 0.0905922 0)
(-0.00222259 0.0910569 0)
(-5.81065e-05 0.0911135 0)
(-2.41758e-07 0.0911151 0)
(-1.11306e-10 0.0911151 0)
(-3.20992e-14 0.0911151 0)
(-1.84965e-14 0.0911151 0)
(-1.41174e-14 0.0911151 0)
(2.28956e-14 0.0911151 0)
(3.49457e-14 0.0911151 0)
(3.24075e-14 0.0911151 0)
(3.49367e-14 0.0911151 0)
(2.5889e-14 0.0911151 0)
(2.18353e-14 0.0911151 0)
(1.91152e-14 0.0911151 0)
(2.26251e-14 0.0911151 0)
(1.23204e-14 0.0911151 0)
(-6.8418e-15 0.0911151 0)
(-2.79871e-14 0.0911151 0)
(-4.20305e-14 0.0911151 0)
(-4.71902e-14 0.0911151 0)
(-5.02286e-14 0.0911151 0)
(-4.22356e-14 0.0911151 0)
(-2.37887e-14 0.0911151 0)
(6.63703e-15 0.0911151 0)
(1.11185e-10 0.0911151 0)
(2.41759e-07 0.0911151 0)
(5.81065e-05 0.0911135 0)
(0.00222259 0.0910569 0)
(0.0209818 0.0905922 0)
(0.0783958 0.0892492 0)
(0.171526 0.0864122 0)
(0.28142 0.0871739 0)
(0.38656 0.0706121 0)
(1.01741 0.0793162 0)
(-1.00709 0.175039 0)
(-0.382691 0.150813 0)
(-0.276666 0.183119 0)
(-0.167335 0.179923 0)
(-0.0756926 0.184086 0)
(-0.0198459 0.185972 0)
(-0.00203418 0.186645 0)
(-5.0802e-05 0.186729 0)
(-1.99641e-07 0.186731 0)
(-8.60135e-11 0.186731 0)
(3.74846e-14 0.186731 0)
(4.29259e-14 0.186731 0)
(1.19153e-14 0.186731 0)
(-1.6395e-14 0.186731 0)
(-5.16606e-14 0.186731 0)
(-6.86786e-14 0.186731 0)
(-4.23432e-14 0.186731 0)
(-5.06351e-14 0.186731 0)
(-3.60603e-14 0.186731 0)
(-7.44707e-15 0.186731 0)
(1.84339e-14 0.186731 0)
(4.46861e-14 0.186731 0)
(2.54698e-14 0.186731 0)
(1.85809e-14 0.186731 0)
(1.44545e-14 0.186731 0)
(-1.25895e-14 0.186731 0)
(5.32044e-15 0.186731 0)
(-4.05835e-15 0.186731 0)
(-2.15667e-14 0.186731 0)
(1.97256e-14 0.186731 0)
(8.5807e-11 0.186731 0)
(1.99641e-07 0.186731 0)
(5.0802e-05 0.186729 0)
(0.00203418 0.186645 0)
(0.0198459 0.185972 0)
(0.0756926 0.184086 0)
(0.167335 0.179923 0)
(0.276666 0.183119 0)
(0.382691 0.150813 0)
(1.00709 0.175039 0)
(-0.980044 0.262744 0)
(-0.390774 0.246267 0)
(-0.287988 0.299105 0)
(-0.170288 0.287885 0)
(-0.0762425 0.292589 0)
(-0.0193649 0.295225 0)
(-0.00188134 0.296373 0)
(-4.33871e-05 0.296519 0)
(-1.53628e-07 0.296523 0)
(-5.82789e-11 0.296523 0)
(-1.39243e-14 0.296523 0)
(1.86244e-14 0.296523 0)
(3.07376e-14 0.296523 0)
(1.15762e-14 0.296523 0)
(-3.6625e-14 0.296523 0)
(-2.97229e-14 0.296523 0)
(2.11625e-15 0.296523 0)
(1.06442e-14 0.296523 0)
(3.52044e-14 0.296523 0)
(3.23851e-14 0.296523 0)
(2.79671e-14 0.296523 0)
(2.36184e-14 0.296523 0)
(-1.15667e-14 0.296523 0)
(-2.26142e-14 0.296523 0)
(-3.63328e-14 0.296523 0)
(-5.25193e-14 0.296523 0)
(-1.60538e-14 0.296523 0)
(-1.54475e-14 0.296523 0)
(-2.25202e-14 0.296523 0)
(6.30014e-15 0.296523 0)
(5.82312e-11 0.296523 0)
(1.53628e-07 0.296523 0)
(4.33871e-05 0.296519 0)
(0.00188134 0.296373 0)
(0.0193649 0.295225 0)
(0.0762425 0.292589 0)
(0.170288 0.287885 0)
(0.287988 0.299105 0)
(0.390774 0.246267 0)
(0.980044 0.262744 0)
(-0.901867 0.392453 0)
(-0.340596 0.350407 0)
(-0.236537 0.400794 0)
(-0.139807 0.392983 0)
(-0.0614545 0.396875 0)
(-0.0145914 0.39947 0)
(-0.00125915 0.400507 0)
(-2.45766e-05 0.400622 0)
(-7.10241e-08 0.400625 0)
(-2.14541e-11 0.400625 0)
(1.63581e-14 0.400625 0)
(3.57809e-14 0.400625 0)
(2.07296e-14 0.400625 0)
(1.19703e-14 0.400625 0)
(1.2593e-14 0.400625 0)
(-2.07117e-14 0.400625 0)
(-5.5204e-14 0.400625 0)
(-4.67291e-14 0.400625 0)
(-3.14423e-14 0.400625 0)
(-1.29186e-14 0.400625 0)
(1.61272e-14 0.400625 0)
(3.85864e-14 0.400625 0)
(2.43791e-14 0.400625 0)
(4.4367e-15 0.400625 0)
(5.40124e-15 0.400625 0)
(2.41795e-15 0.400625 0)
(9.59931e-15 0.400625 0)
(-4.74778e-15 0.400625 0)
(-2.18323e-14 0.400625 0)
(-1.21563e-14 0.400625 0)
(2.14155e-11 0.400625 0)
(7.10241e-08 0.400625 0)
(2.45766e-05 0.400622 0)
(0.00125915 0.400507 0)
(0.0145914 0.39947 0)
(0.0614545 0.396875 0)
(0.139807 0.392983 0)
(0.236537 0.400794 0)
(0.340596 0.350407 0)
(0.901867 0.392453 0)
(-0.939813 0.955132 0)
(-0.381029 0.917889 0)
(-0.252523 0.992736 0)
(-0.16272 1.02006 0)
(-0.0690029 1.03033 0)
(-0.015759 1.03607 0)
(-0.00127618 1.03744 0)
(-2.27824e-05 1.03754 0)
(-5.8679e-08 1.03754 0)
(-1.53961e-11 1.03754 0)
(5.53736e-14 1.03754 0)
(5.78962e-14 1.03754 0)
(3.14443e-14 1.03754 0)
(4.26141e-14 1.03754 0)
(5.81277e-15 1.03754 0)
(-6.72988e-14 1.03754 0)
(-7.62931e-14 1.03754 0)
(-5.06276e-14 1.03754 0)
(-3.59179e-14 1.03754 0)
(-6.88229e-15 1.03754 0)
(1.66933e-14 1.03754 0)
(4.7393e-14 1.03754 0)
(2.09006e-14 1.03754 0)
(4.3217e-16 1.03754 0)
(2.14924e-14 1.03754 0)
(7.15805e-15 1.03754 0)
(1.90408e-15 1.03754 0)
(-5.78062e-15 1.03754 0)
(-1.87274e-14 1.03754 0)
(1.12307e-15 1.03754 0)
(1.5311e-11 1.03754 0)
(5.86789e-08 1.03754 0)
(2.27824e-05 1.03754 0)
(0.00127618 1.03744 0)
(0.015759 1.03607 0)
(0.0690029 1.03033 0)
(0.16272 1.02006 0)
(0.252523 0.992736 0)
(0.381029 0.917889 0)
(0.939813 0.955132 0)
(-0.939813 -0.955132 0)
(-0.381029 -0.917889 0)
(-0.252523 -0.992736 0)
(-0.16272 -1.02006 0)
(-0.0690029 -1.03033 0)
(-0.015759 -1.03607 0)
(-0.00127618 -1.03744 0)
(-2.27824e-05 -1.03754 0)
(-5.8679e-08 -1.03754 0)
(-1.52892e-11 -1.03754 0)
(1.32031e-14 -1.03754 0)
(-4.14867e-15 -1.03754 0)
(-2.0908e-14 -1.03754 0)
(-1.49456e-14 -1.03754 0)
(-1.42871e-14 -1.03754 0)
(-1.10563e-14 -1.03754 0)
(3.18985e-14 -1.03754 0)
(3.64948e-14 -1.03754 0)
(4.85602e-14 -1.03754 0)