/*--------------------------------*- C++ -*----------------------------------*\
| =========                 |                                                 |
| \\      /  F ield         | OpenFOAM: The Open Source CFD Toolbox           |
|  \\    /   O peration     | Version:  v1912                                 |
|   \\  /    A nd           | Website:  www.openfoam.com                      |
|    \\/     M anipulation  |                                                 |
\*---------------------------------------------------------------------------*/
FoamFile
{
    version     2.0;
    format      ascii;
    class       volVectorField;
    location    "6.74";
    object      U;
}
// * * * * * * * * * * * * * * * * * * * * * * * * * * * * * * * * * * * * * //

dimensions      [0 1 -1 0 0 0 0];


internalField   nonuniform List<vector> 
1900
(
(-0.751076 -1.22755e-06 0)
(-0.040027 -6.16469e-08 0)
(0.0870434 3.44489e-06 0)
(0.0854801 3.31455e-06 0)
(0.087781 5.43408e-07 0)
(0.0897371 -3.14751e-05 0)
(0.0921187 -8.75956e-05 0)
(0.0950039 0.000200233 0)
(0.096937 0.0029126 0)
(0.0900549 0.0120242 0)
(-0.751074 1.28741e-06 0)
(-0.0400261 1.87808e-06 0)
(0.0870478 4.36762e-06 0)
(0.0854839 2.49771e-06 0)
(0.0877724 -6.49192e-06 0)
(0.0896899 -4.30126e-05 0)
(0.0919981 -8.25065e-05 0)
(0.0946542 0.000140696 0)
(0.0982735 0.0020363 0)
(0.101716 0.0113863 0)
(-0.751074 -9.52653e-14 0)
(-0.0400265 -1.03944e-13 0)
(0.0870473 -3.59342e-14 0)
(0.08548 -2.10184e-14 0)
(0.0877546 9.96397e-15 0)
(0.0896627 9.23954e-14 0)
(0.0919882 1.04905e-13 0)
(0.0947829 6.65609e-14 0)
(0.0989328 2.36778e-14 0)
(0.108401 -4.15399e-14 0)
(-0.751074 -1.28741e-06 0)
(-0.0400261 -1.87808e-06 0)
(0.0870478 -4.36762e-06 0)
(0.0854839 -2.49771e-06 0)
(0.0877724 6.49192e-06 0)
(0.0896899 4.30126e-05 0)
(0.0919981 8.25065e-05 0)
(0.0946542 -0.000140696 0)
(0.0982735 -0.0020363 0)
(0.101716 -0.0113863 0)
(-0.751076 1.22755e-06 0)
(-0.040027 6.16469e-08 0)
(0.0870434 -3.44489e-06 0)
(0.0854801 -3.31455e-06 0)
(0.087781 -5.43408e-07 0)
(0.0897371 3.14751e-05 0)
(0.0921187 8.75956e-05 0)
(0.0950039 -0.000200233 0)
(0.096937 -0.0029126 0)
(0.0900549 -0.0120242 0)
(0.0925047 0.0383579 0)
(0.128947 0.0513897 0)
(0.176516 0.075517 0)
(0.252559 0.117394 0)
(0.3975 0.173892 0)
(0.116171 0.0277572 0)
(0.142699 0.028579 0)
(0.173238 0.0379719 0)
(0.235534 0.0598928 0)
(0.377126 0.102444 0)
(0.127147 -4.49157e-14 0)
(0.152038 -4.93999e-14 0)
(0.183967 2.15553e-14 0)
(0.246647 3.45664e-14 0)
(0.387371 7.08764e-14 0)
(0.116171 -0.0277572 0)
(0.142699 -0.028579 0)
(0.173238 -0.0379719 0)
(0.235534 -0.0598928 0)
(0.377126 -0.102444 0)
(0.0925047 -0.0383579 0)
(0.128947 -0.0513897 0)
(0.176516 -0.075517 0)
(0.252559 -0.117394 0)
(0.3975 -0.173892 0)
(0.848357 0.0299114 0)
(1.11145 -0.0515649 0)
(1.25453 -0.0850396 0)
(1.34894 -0.0918304 0)
(1.45126 -0.110531 0)
(0.82163 -0.0176501 0)
(1.12392 -0.0482765 0)
(1.28648 -0.0595721 0)
(1.38146 -0.0587846 0)
(1.47904 -0.0793697 0)
(0.817779 2.51944e-14 0)
(1.12796 3.49306e-14 0)
(1.28193 -5.18693e-14 0)
(1.37268 1.1521e-13 0)
(1.46721 -2.54939e-13 0)
(0.82163 0.0176501 0)
(1.12392 0.0482765 0)
(1.28648 0.0595721 0)
(1.38146 0.0587846 0)
(1.47904 0.0793697 0)
(0.848357 -0.0299114 0)
(1.11145 0.0515649 0)
(1.25453 0.0850396 0)
(1.34894 0.0918304 0)
(1.45126 0.110531 0)
(1.48684 -0.0620848 0)
(1.48898 -0.0381311 0)
(1.52476 -0.0667325 0)
(1.54908 -0.0163922 0)
(1.52408 0.0286519 0)
(1.23406 0.0179771 0)
(0.968423 -0.0185383 0)
(0.893996 -0.0546568 0)
(0.774665 -0.0871534 0)
(0.627189 -0.0952257 0)
(0.501936 -0.07488 0)
(0.408958 -0.0527223 0)
(0.331616 -0.0377899 0)
(0.242454 -0.0274135 0)
(0.140289 -0.0201577 0)
(0.075227 -0.016452 0)
(0.0563179 -0.0152191 0)
(0.0534624 -0.0147052 0)
(0.0542137 -0.0143061 0)
(0.0565159 -0.0137791 0)
(0.0621191 -0.0134547 0)
(0.0730707 -0.0133341 0)
(0.0887887 -0.0133104 0)
(0.107009 -0.0133019 0)
(0.125901 -0.0132852 0)
(0.14472 -0.0132474 0)
(0.163017 -0.0132774 0)
(0.181345 -0.0131196 0)
(0.199007 -0.0132573 0)
(0.216578 -0.0131068 0)
(0.233889 -0.0133317 0)
(0.250095 -0.0129819 0)
(0.264878 -0.0135852 0)
(0.277616 -0.0130333 0)
(0.289449 -0.0137622 0)
(0.284868 -0.0136047 0)
(0.217109 -0.0135268 0)
(0.088112 -0.0120275 0)
(0.0416197 -0.0154769 0)
(-0.0659701 -0.0144902 0)
(1.53575 -0.0353422 0)
(1.53374 -0.0211361 0)
(1.56116 -0.0384649 0)
(1.56052 -0.0189865 0)
(1.51893 0.00593911 0)
(1.23417 0.0100965 0)
(0.958471 -0.00862013 0)
(0.884886 -0.0270552 0)
(0.774885 -0.0415325 0)
(0.643357 -0.0477633 0)
(0.520354 -0.0377116 0)
(0.42213 -0.0264648 0)
(0.338684 -0.0186995 0)
(0.244927 -0.0137343 0)
(0.140938 -0.0101313 0)
(0.0752937 -0.00821465 0)
(0.056232 -0.00760528 0)
(0.053411 -0.00734479 0)
(0.0541951 -0.00714282 0)
(0.0565203 -0.00688264 0)
(0.0621196 -0.00672212 0)
(0.0730983 -0.00666586 0)
(0.088853 -0.00665574 0)
(0.107114 -0.00665196 0)
(0.126046 -0.00664358 0)
(0.144902 -0.00662464 0)
(0.163233 -0.00663973 0)
(0.181592 -0.00656075 0)
(0.199282 -0.00662954 0)
(0.216881 -0.00655382 0)
(0.234217 -0.00666669 0)
(0.250443 -0.00648937 0)
(0.265242 -0.00679275 0)
(0.277978 -0.00651017 0)
(0.289874 -0.0068714 0)
(0.285329 -0.00680125 0)
(0.217666 -0.00672295 0)
(0.0886083 -0.00598078 0)
(0.0416843 -0.00772044 0)
(-0.0662195 -0.00718947 0)
(1.52721 4.93442e-13 0)
(1.53601 1.47346e-13 0)
(1.56842 2.4697e-12 0)
(1.56106 6.7981e-14 0)
(1.51424 -1.50241e-12 0)
(1.22469 -1.55878e-12 0)
(0.949623 -1.32987e-11 0)
(0.885518 -8.60121e-12 0)
(0.779488 2.85965e-12 0)
(0.638319 3.72198e-12 0)
(0.510733 2.10685e-12 0)
(0.415196 1.9743e-12 0)
(0.337014 4.8711e-12 0)
(0.246362 8.86604e-12 0)
(0.142083 1.02567e-11 0)
(0.075539 7.96282e-12 0)
(0.0562786 3.53383e-12 0)
(0.0534617 -2.41959e-12 0)
(0.0542377 -8.97046e-12 0)
(0.0565705 -1.12923e-11 0)
(0.0621359 -8.16129e-12 0)
(0.0731045 1.23173e-12 0)
(0.0888645 6.8778e-12 0)
(0.107132 3.9706e-12 0)
(0.12607 -7.07195e-12 0)
(0.144931 -1.19295e-11 0)
(0.163266 -1.79607e-11 0)
(0.181632 -2.1105e-11 0)
(0.199329 -8.59067e-12 0)
(0.216938 -9.89521e-12 0)
(0.234288 -7.87316e-12 0)
(0.250531 7.01609e-12 0)
(0.265355 8.93168e-12 0)
(0.278122 8.46818e-13 0)
(0.290095 7.41609e-13 0)
(0.285659 9.50852e-12 0)
(0.218179 7.12789e-12 0)
(0.0893792 5.00909e-12 0)
(0.0426343 2.5855e-12 0)
(-0.0648159 -2.14243e-12 0)
(1.53575 0.0353422 0)
(1.53374 0.0211361 0)
(1.56116 0.0384649 0)
(1.56052 0.0189865 0)
(1.51893 -0.00593911 0)
(1.23417 -0.0100965 0)
(0.958471 0.00862013 0)
(0.884886 0.0270552 0)
(0.774885 0.0415325 0)
(0.643357 0.0477633 0)
(0.520354 0.0377116 0)
(0.42213 0.0264648 0)
(0.338684 0.0186995 0)
(0.244927 0.0137343 0)
(0.140938 0.0101313 0)
(0.0752937 0.00821465 0)
(0.056232 0.00760528 0)
(0.053411 0.00734479 0)
(0.0541951 0.00714282 0)
(0.0565203 0.00688264 0)
(0.0621196 0.00672212 0)
(0.0730983 0.00666586 0)
(0.088853 0.00665574 0)
(0.107114 0.00665196 0)
(0.126046 0.00664358 0)
(0.144902 0.00662464 0)
(0.163233 0.00663973 0)
(0.181592 0.00656075 0)
(0.199282 0.00662954 0)
(0.216881 0.00655382 0)
(0.234217 0.00666669 0)
(0.250443 0.00648937 0)
(0.265242 0.00679275 0)
(0.277978 0.00651017 0)
(0.289874 0.0068714 0)
(0.285329 0.00680125 0)
(0.217666 0.00672295 0)
(0.0886083 0.00598078 0)
(0.0416843 0.00772044 0)
(-0.0662195 0.00718947 0)
(1.48684 0.0620848 0)
(1.48898 0.0381311 0)
(1.52476 0.0667325 0)
(1.54908 0.0163922 0)
(1.52408 -0.0286519 0)
(1.23406 -0.0179771 0)
(0.968423 0.0185383 0)
(0.893996 0.0546568 0)
(0.774665 0.0871534 0)
(0.627189 0.0952257 0)
(0.501936 0.07488 0)
(0.408958 0.0527223 0)
(0.331616 0.0377899 0)
(0.242454 0.0274135 0)
(0.140289 0.0201577 0)
(0.075227 0.016452 0)
(0.0563179 0.0152191 0)
(0.0534624 0.0147052 0)
(0.0542137 0.0143061 0)
(0.0565159 0.0137791 0)
(0.0621191 0.0134547 0)
(0.0730707 0.0133341 0)
(0.0887887 0.0133104 0)
(0.107009 0.0133019 0)
(0.125901 0.0132852 0)
(0.14472 0.0132474 0)
(0.163017 0.0132774 0)
(0.181345 0.0131196 0)
(0.199007 0.0132573 0)
(0.216578 0.0131068 0)
(0.233889 0.0133317 0)
(0.250095 0.0129819 0)
(0.264878 0.0135852 0)
(0.277616 0.0130333 0)
(0.289449 0.0137622 0)
(0.284868 0.0136047 0)
(0.217109 0.0135268 0)
(0.088112 0.0120275 0)
(0.0416197 0.0154769 0)
(-0.0659701 0.0144902 0)
(1.4218 0.101862 0)
(1.422 0.127331 0)
(1.45433 0.141371 0)
(1.46751 0.061098 0)
(1.40652 -0.0222261 0)
(1.13868 -0.00548894 0)
(0.931031 0.053495 0)
(0.826302 0.129266 0)
(0.693836 0.187971 0)
(0.569497 0.188136 0)
(0.474971 0.146744 0)
(0.398606 0.105482 0)
(0.326227 0.0771192 0)
(0.236701 0.0572015 0)
(0.135121 0.0422332 0)
(0.0729359 0.0342118 0)
(0.0555049 0.0315818 0)
(0.052901 0.0305262 0)
(0.0535883 0.0296305 0)
(0.0561505 0.0286403 0)
(0.0620231 0.0280244 0)
(0.0730808 0.0277356 0)
(0.0888187 0.027654 0)
(0.107036 0.0276297 0)
(0.125928 0.0275954 0)
(0.144752 0.0275184 0)
(0.16306 0.0275822 0)
(0.181402 0.0272584 0)
(0.199088 0.0275438 0)
(0.216679 0.0272396 0)
(0.234011 0.0276971 0)
(0.250271 0.027002 0)
(0.265115 0.0281869 0)
(0.277999 0.0271232 0)
(0.28974 0.0285595 0)
(0.285197 0.0282984 0)
(0.217427 0.0282058 0)
(0.0888472 0.0247744 0)
(0.0434146 0.0313362 0)
(-0.0628484 0.0294081 0)
(1.3466 0.219829 0)
(1.36306 0.221325 0)
(1.33838 0.248081 0)
(1.29391 0.188316 0)
(1.17874 0.0779211 0)
(0.988803 0.0875543 0)
(0.809908 0.167844 0)
(0.674313 0.278867 0)
(0.546957 0.323935 0)
(0.463109 0.290267 0)
(0.40675 0.227164 0)
(0.356733 0.171261 0)
(0.297523 0.131318 0)
(0.213668 0.0991586 0)
(0.119733 0.0736228 0)
(0.0671296 0.0607088 0)
(0.053525 0.0564681 0)
(0.0515458 0.0545556 0)
(0.0521332 0.0529178 0)
(0.0550632 0.0513665 0)
(0.0615743 0.0503867 0)
(0.07302 0.0498445 0)
(0.0888542 0.0496556 0)
(0.107053 0.0495939 0)
(0.125925 0.0495288 0)
(0.144748 0.0493913 0)
(0.163081 0.0495079 0)
(0.181456 0.0489333 0)
(0.199198 0.0494404 0)
(0.216841 0.0489098 0)
(0.234223 0.0497053 0)
(0.250614 0.0485157 0)
(0.265594 0.0504855 0)
(0.278796 0.0487399 0)
(0.290367 0.0511109 0)
(0.28578 0.0508178 0)
(0.217859 0.0506317 0)
(0.0893479 0.0445358 0)
(0.0446315 0.0552303 0)
(-0.0615529 0.0522496 0)
(1.22396 0.331551 0)
(1.22615 0.330893 0)
(1.17398 0.331386 0)
(1.11043 0.267401 0)
(0.971249 0.213643 0)
(0.77693 0.229732 0)
(0.606178 0.333514 0)
(0.477515 0.410366 0)
(0.390221 0.408866 0)
(0.360426 0.355946 0)
(0.340265 0.282482 0)
(0.30971 0.22102 0)
(0.258611 0.174881 0)
(0.179724 0.133532 0)
(0.0985979 0.101259 0)
(0.059755 0.0862865 0)
(0.0508308 0.0810663 0)
(0.0494494 0.0783336 0)
(0.0500567 0.075911 0)
(0.053522 0.0738849 0)
(0.0608112 0.0725907 0)
(0.0728031 0.0718265 0)
(0.0888218 0.0715102 0)
(0.107016 0.0713926 0)
(0.12585 0.0712923 0)
(0.144656 0.0710972 0)
(0.163006 0.0712725 0)
(0.181415 0.0704648 0)
(0.199219 0.0711879 0)
(0.216914 0.0704638 0)
(0.234338 0.0715605 0)
(0.250867 0.0699793 0)
(0.265996 0.0725333 0)
(0.279553 0.0703361 0)
(0.290956 0.0733526 0)
(0.286157 0.0732363 0)
(0.217952 0.0729426 0)
(0.0895009 0.0646673 0)
(0.0457896 0.0790808 0)
(-0.060193 0.0751941 0)
(0.993305 0.387118 0)
(0.962415 0.378228 0)
(0.919602 0.355279 0)
(0.83522 0.316832 0)
(0.677586 0.320623 0)
(0.486942 0.402663 0)
(0.352325 0.487059 0)
(0.285018 0.495718 0)
(0.267363 0.464528 0)
(0.276659 0.391089 0)
(0.278139 0.315211 0)
(0.258758 0.256814 0)
(0.212493 0.206681 0)
(0.139737 0.159253 0)
(0.0765769 0.125569 0)
(0.0523239 0.111085 0)
(0.0475787 0.105321 0)
(0.0466153 0.101708 0)
(0.0474932 0.0985024 0)
(0.0516808 0.0960841 0)
(0.0598397 0.0945679 0)
(0.0724569 0.0935937 0)
(0.0887141 0.0931574 0)
(0.106918 0.0929785 0)
(0.125707 0.0928418 0)
(0.144484 0.0925923 0)
(0.162842 0.0928349 0)
(0.181295 0.0918229 0)
(0.199158 0.0927546 0)
(0.216906 0.0918791 0)
(0.23436 0.0932459 0)
(0.251026 0.0913827 0)
(0.266293 0.0943536 0)
(0.280213 0.0919657 0)
(0.291501 0.0952898 0)
(0.286262 0.095565 0)
(0.217752 0.0952214 0)
(0.0894375 0.0851338 0)
(0.0470545 0.102804 0)
(-0.0585044 0.0983586 0)
(0.692084 0.446563 0)
(0.635502 0.412413 0)
(0.563609 0.391777 0)
(0.442861 0.424492 0)
(0.297272 0.50359 0)
(0.188572 0.561338 0)
(0.147632 0.567306 0)
(0.152267 0.533738 0)
(0.181602 0.470022 0)
(0.211217 0.397804 0)
(0.221387 0.334626 0)
(0.206061 0.279785 0)
(0.161407 0.226241 0)
(0.0982813 0.177339 0)
(0.0562912 0.147459 0)
(0.0445525 0.134972 0)
(0.0429678 0.1289 0)
(0.0426084 0.124371 0)
(0.044213 0.120501 0)
(0.0494362 0.117804 0)
(0.0586328 0.116164 0)
(0.0719679 0.115031 0)
(0.0885381 0.114487 0)
(0.106809 0.114249 0)
(0.125595 0.11408 0)
(0.144382 0.113782 0)
(0.162786 0.114103 0)
(0.181346 0.112922 0)
(0.199306 0.114053 0)
(0.217153 0.11307 0)
(0.234677 0.114676 0)
(0.251524 0.112635 0)
(0.266986 0.115899 0)
(0.281319 0.113401 0)
(0.292613 0.116871 0)
(0.286921 0.117619 0)
(0.218406 0.117161 0)
(0.0905556 0.105695 0)
(0.0498053 0.125849 0)
(-0.0546442 0.121028 0)
(0.315894 0.483339 0)
(0.226222 0.482395 0)
(0.140229 0.519841 0)
(0.0585296 0.587936 0)
(0.0075585 0.618977 0)
(0.00121419 0.607575 0)
(0.0314214 0.57189 0)
(0.0788809 0.519247 0)
(0.121279 0.459994 0)
(0.155523 0.401757 0)
(0.167442 0.346494 0)
(0.15155 0.292722 0)
(0.108848 0.238115 0)
(0.0621363 0.193555 0)
(0.0413262 0.169591 0)
(0.0381852 0.158634 0)
(0.0383822 0.151917 0)
(0.0385836 0.146443 0)
(0.041012 0.142019 0)
(0.047292 0.13913 0)
(0.0574769 0.13733 0)
(0.0714546 0.136084 0)
(0.0882642 0.135447 0)
(0.106532 0.135153 0)
(0.125245 0.134959 0)
(0.143972 0.134621 0)
(0.162341 0.135038 0)
(0.180958 0.133733 0)
(0.198918 0.135059 0)
(0.216784 0.134018 0)
(0.234285 0.135842 0)
(0.251213 0.133721 0)
(0.266743 0.137196 0)
(0.281306 0.134684 0)
(0.29255 0.138087 0)
(0.286055 0.1394 0)
(0.21713 0.138907 0)
(0.0892318 0.126359 0)
(0.0497931 0.148827 0)
(-0.0543245 0.14406 0)
(-0.0515652 0.551105 0)
(-0.0971836 0.573181 0)
(-0.123436 0.612338 0)
(-0.136816 0.627995 0)
(-0.116729 0.611923 0)
(-0.075669 0.582137 0)
(-0.0248391 0.544511 0)
(0.0292568 0.498121 0)
(0.0734835 0.449225 0)
(0.106497 0.399329 0)
(0.115672 0.348294 0)
(0.0965317 0.295155 0)
(0.0600746 0.243624 0)
(0.0331369 0.208282 0)
(0.0276188 0.190528 0)
(0.0295536 0.180812 0)
(0.0313212 0.173523 0)
(0.03274 0.167409 0)
(0.0367226 0.16271 0)
(0.0444957 0.159921 0)
(0.0559225 0.158025 0)
(0.0707697 0.15668 0)
(0.0880395 0.155961 0)
(0.106525 0.155617 0)
(0.125377 0.155409 0)
(0.144255 0.155043 0)
(0.162816 0.155569 0)
(0.181641 0.154169 0)
(0.199799 0.155675 0)
(0.217862 0.154608 0)
(0.235506 0.156622 0)
(0.252658 0.154488 0)
(0.268389 0.158127 0)
(0.283264 0.155654 0)
(0.294623 0.158954 0)
(0.287733 0.160782 0)
(0.219205 0.160305 0)
(0.0916155 0.147225 0)
(0.053502 0.171163 0)
(-0.0490154 0.16649 0)
(-0.185406 0.550048 0)
(-0.210653 0.56932 0)
(-0.203723 0.596901 0)
(-0.197173 0.594463 0)
(-0.165883 0.574988 0)
(-0.118578 0.548975 0)
(-0.0630706 0.519077 0)
(-0.0109529 0.479056 0)
(0.0321041 0.438884 0)
(0.0597213 0.394082 0)
(0.0635448 0.345413 0)
(0.0439961 0.29489 0)
(0.0216999 0.252158 0)
(0.0143673 0.226412 0)
(0.0181332 0.212284 0)
(0.0228983 0.202617 0)
(0.0256811 0.194627 0)
(0.0281401 0.187958 0)
(0.0334661 0.183053 0)
(0.0424535 0.180106 0)
(0.0548082 0.178249 0)
(0.0701361 0.176826 0)
(0.0875105 0.176034 0)
(0.105903 0.175645 0)
(0.124617 0.175437 0)
(0.143394 0.175057 0)
(0.161942 0.175693 0)
(0.180693 0.174232 0)
(0.198889 0.175909 0)
(0.216996 0.174869 0)
(0.234642 0.177047 0)
(0.251891 0.17496 0)
(0.267693 0.178719 0)
(0.282728 0.17634 0)
(0.294063 0.17945 0)
(0.286651 0.181722 0)
(0.21808 0.181146 0)
(0.0907072 0.167784 0)
(0.0538455 0.193287 0)
(-0.047709 0.188985 0)
(-0.192649 0.53048 0)
(-0.219097 0.543628 0)
(-0.218806 0.560384 0)
(-0.224397 0.553849 0)
(-0.196613 0.538772 0)
(-0.148439 0.52047 0)
(-0.0905974 0.496638 0)
(-0.0440872 0.461248 0)
(-0.00433231 0.425701 0)
(0.0151542 0.38328 0)
(0.0142162 0.336752 0)
(0.000126763 0.292753 0)
(-0.00638799 0.26163 0)
(-0.00167399 0.243502 0)
(0.00673399 0.231799 0)
(0.0133714 0.222315 0)
(0.0173998 0.214116 0)
(0.0216695 0.207364 0)
(0.0289147 0.202701 0)
(0.0395194 0.199905 0)
(0.0532124 0.1981 0)
(0.0694586 0.196611 0)
(0.0873816 0.195742 0)
(0.106113 0.195308 0)
(0.125091 0.195102 0)
(0.144113 0.194687 0)
(0.16293 0.195397 0)
(0.181847 0.193889 0)
(0.200283 0.195669 0)
(0.218565 0.194666 0)
(0.236302 0.196961 0)
(0.253676 0.194926 0)
(0.269536 0.198753 0)
(0.284626 0.196475 0)
(0.295782 0.199352 0)
(0.288334 0.202069 0)
(0.219865 0.201652 0)
(0.0927462 0.188315 0)
(0.0566548 0.214906 0)
(-0.043287 0.210981 0)
(-0.174122 0.509828 0)
(-0.205458 0.515996 0)
(-0.217546 0.52343 0)
(-0.239864 0.518741 0)
(-0.216696 0.510085 0)
(-0.169635 0.497871 0)
(-0.11452 0.477167 0)
(-0.074038 0.445419 0)
(-0.0409223 0.412255 0)
(-0.0290664 0.372365 0)
(-0.0292823 0.331489 0)
(-0.031029 0.298328 0)
(-0.0237295 0.276949 0)
(-0.0124016 0.262727 0)
(-0.00139708 0.251783 0)
(0.00623256 0.242066 0)
(0.0111739 0.233511 0)
(0.0169416 0.226555 0)
(0.0256878 0.221859 0)
(0.0374844 0.219176 0)
(0.0519091 0.217411 0)
(0.06845 0.215859 0)
(0.0863789 0.214924 0)
(0.104999 0.214455 0)
(0.123869 0.214271 0)
(0.142833 0.213831 0)
(0.161682 0.214635 0)
(0.180593 0.213142 0)
(0.199186 0.215005 0)
(0.217598 0.214103 0)
(0.235427 0.216502 0)
(0.252952 0.214556 0)
(0.268924 0.218414 0)
(0.284107 0.216258 0)
(0.295115 0.218898 0)
(0.288068 0.221825 0)
(0.219563 0.22163 0)
(0.0932188 0.208591 0)
(0.0582663 0.236053 0)
(-0.0395514 0.232572 0)
(-0.143799 0.484163 0)
(-0.190083 0.485492 0)
(-0.21374 0.490071 0)
(-0.249001 0.495866 0)
(-0.230045 0.49163 0)
(-0.184314 0.478489 0)
(-0.137518 0.459361 0)
(-0.101584 0.429452 0)
(-0.0764038 0.397264 0)
(-0.0680748 0.360781 0)
(-0.0624239 0.328568 0)
(-0.0535335 0.305581 0)
(-0.039781 0.290112 0)
(-0.0254426 0.278423 0)
(-0.0128966 0.268386 0)
(-0.00429662 0.258911 0)
(0.00228516 0.250577 0)
(0.010413 0.244565 0)
(0.0210862 0.240204 0)
(0.0346823 0.237773 0)
(0.0505721 0.236076 0)
(0.0681605 0.234457 0)
(0.0868076 0.233451 0)
(0.105938 0.232938 0)
(0.125205 0.232755 0)
(0.144488 0.232239 0)
(0.16364 0.233083 0)
(0.182736 0.231582 0)
(0.201598 0.233402 0)
(0.220158 0.232579 0)
(0.238069 0.235007 0)
(0.25566 0.23312 0)
(0.271631 0.236954 0)
(0.286743 0.234919 0)
(0.297468 0.237325 0)
(0.290805 0.240335 0)
(0.222542 0.240515 0)
(0.0971119 0.228128 0)
(0.0624105 0.256361 0)
(-0.0332017 0.253321 0)
(-0.115734 0.462294 0)
(-0.174001 0.464158 0)
(-0.20482 0.465984 0)
(-0.25097 0.482272 0)
(-0.237768 0.479427 0)
(-0.198 0.459312 0)
(-0.158158 0.442797 0)
(-0.129844 0.414108 0)
(-0.109473 0.385417 0)
(-0.0979915 0.356512 0)
(-0.0831319 0.335001 0)
(-0.0666846 0.318504 0)
(-0.0488474 0.30638 0)
(-0.0323112 0.296111 0)
(-0.0196118 0.285777 0)
(-0.010729 0.275912 0)
(-0.00233 0.268063 0)
(0.00711679 0.26153 0)
(0.0190365 0.257104 0)
(0.0332412 0.254766 0)
(0.0491995 0.253104 0)
(0.0664953 0.251464 0)
(0.0847337 0.250488 0)
(0.103505 0.250063 0)
(0.122539 0.250031 0)
(0.141726 0.249589 0)
(0.160914 0.250625 0)
(0.180036 0.249248 0)
(0.199133 0.251103 0)
(0.217856 0.250476 0)
(0.235908 0.252966 0)
(0.253669 0.25119 0)
(0.269776 0.254991 0)
(0.284986 0.253081 0)
(0.295643 0.25524 0)
(0.289274 0.258242 0)
(0.22157 0.258804 0)
(0.0982104 0.247645 0)
(0.0645245 0.276549 0)
(-0.0283319 0.273988 0)
(-0.0983896 0.450389 0)
(-0.161757 0.452505 0)
(-0.195645 0.451119 0)
(-0.252383 0.471687 0)
(-0.246007 0.468444 0)
(-0.216652 0.443181 0)
(-0.180833 0.428314 0)
(-0.15776 0.400725 0)
(-0.136429 0.377464 0)
(-0.11951 0.355904 0)
(-0.09993 0.340479 0)
(-0.080667 0.3276 0)
(-0.0614955 0.317426 0)
(-0.0447827 0.307462 0)
(-0.0315187 0.298145 0)
(-0.0215603 0.289501 0)
(-0.0119872 0.281615 0)
(-0.000359126 0.275641 0)
(0.0137077 0.271736 0)
(0.0299705 0.269738 0)
(0.0477865 0.268223 0)
(0.06663 0.266591 0)
(0.0860578 0.265631 0)
(0.105677 0.26526 0)
(0.125289 0.265341 0)
(0.144864 0.264906 0)
(0.164347 0.266083 0)
(0.183549 0.264811 0)
(0.202921 0.266515 0)
(0.221655 0.266067 0)
(0.239712 0.268521 0)
(0.257432 0.266814 0)
(0.273437 0.270522 0)
(0.288475 0.268709 0)
(0.298837 0.270592 0)
(0.292718 0.27353 0)
(0.226478 0.274615 0)
(0.105809 0.264901 0)
(0.0723854 0.294351 0)
(-0.0181346 0.292283 0)
(-0.0878605 0.447372 0)
(-0.151842 0.449922 0)
(-0.185492 0.443738 0)
(-0.255543 0.460657 0)
(-0.256747 0.452955 0)
(-0.233007 0.426922 0)
(-0.200834 0.41253 0)
(-0.178515 0.389123 0)
(-0.153801 0.375528 0)
(-0.132148 0.361394 0)
(-0.109605 0.35077 0)
(-0.088464 0.340563 0)
(-0.0681691 0.331383 0)
(-0.0512386 0.3214 0)
(-0.0383405 0.311062 0)
(-0.0271807 0.301798 0)
(-0.0155368 0.294088 0)
(-0.00229196 0.288232 0)
(0.0127482 0.284335 0)
(0.0292616 0.282358 0)
(0.0467184 0.280893 0)
(0.0649167 0.27936 0)
(0.0837465 0.278632 0)
(0.102969 0.278585 0)
(0.122398 0.279029 0)
(0.141962 0.278806 0)
(0.161539 0.280265 0)
(0.180892 0.279162 0)
(0.200463 0.280728 0)
(0.219397 0.280379 0)
(0.237684 0.282714 0)
(0.255595 0.281007 0)
(0.27176 0.284512 0)
(0.28686 0.282667 0)
(0.297166 0.284138 0)
(0.291239 0.286685 0)
(0.227094 0.287873 0)
(0.110683 0.280563 0)
(0.0783003 0.311018 0)
(-0.00874283 0.310022 0)
(-0.0834779 0.443643 0)
(-0.146917 0.445747 0)
(-0.179097 0.435685 0)
(-0.258387 0.445317 0)
(-0.270945 0.431949 0)
(-0.247352 0.411918 0)
(-0.21655 0.404728 0)
(-0.191469 0.387346 0)
(-0.164726 0.378256 0)
(-0.142732 0.364784 0)
(-0.119993 0.355407 0)
(-0.0988882 0.345597 0)
(-0.079195 0.336238 0)
(-0.0628477 0.326663 0)
(-0.0496525 0.317794 0)
(-0.0373605 0.309859 0)
(-0.024027 0.303384 0)
(-0.00887594 0.29864 0)
(0.00806799 0.295586 0)
(0.0263744 0.294194 0)
(0.0454717 0.292871 0)
(0.0650743 0.291051 0)
(0.0850148 0.289868 0)
(0.105014 0.289394 0)
(0.124881 0.289545 0)
(0.144632 0.288969 0)
(0.164214 0.290314 0)
(0.183495 0.288983 0)
(0.202865 0.290091 0)
(0.221551 0.289488 0)
(0.239639 0.291427 0)
(0.257303 0.289505 0)
(0.273191 0.292653 0)
(0.287916 0.290591 0)
(0.297748 0.291501 0)
(0.291732 0.293588 0)
(0.230758 0.295392 0)
(0.120717 0.291822 0)
(0.0895444 0.323594 0)
(0.00682174 0.323559 0)
(-0.0880669 0.438398 0)
(-0.148403 0.437198 0)
(-0.179607 0.421012 0)
(-0.263161 0.427527 0)
(-0.282986 0.413885 0)
(-0.258114 0.398808 0)
(-0.227249 0.395425 0)
(-0.201731 0.379803 0)
(-0.175237 0.373923 0)
(-0.152481 0.36279 0)
(-0.128791 0.355344 0)
(-0.107247 0.346413 0)
(-0.0878608 0.337483 0)
(-0.0718944 0.327778 0)
(-0.0579946 0.318145 0)
(-0.0441066 0.30973 0)
(-0.0288804 0.30309 0)
(-0.0121696 0.297976 0)
(0.00578469 0.294394 0)
(0.0245524 0.292432 0)
(0.0437599 0.290287 0)
(0.0634428 0.287409 0)
(0.0836385 0.285175 0)
(0.104087 0.283703 0)
(0.12454 0.282856 0)
(0.144953 0.280931 0)
(0.165213 0.281315 0)
(0.185326 0.27902 0)
(0.205168 0.279685 0)
(0.224215 0.279027 0)
(0.242527 0.280994 0)
(0.260242 0.278968 0)
(0.276131 0.282087 0)
(0.29057 0.279825 0)
(0.300049 0.280539 0)
(0.294481 0.282984 0)
(0.239497 0.288067 0)
(0.13811 0.294577 0)
(0.106095 0.33464 0)
(0.0259037 0.339959 0)
(-0.100693 0.43445 0)
(-0.160821 0.428168 0)
(-0.192969 0.398019 0)
(-0.272343 0.39295 0)
(-0.293829 0.378336 0)
(-0.26761 0.36666 0)
(-0.237492 0.36628 0)
(-0.212383 0.350765 0)
(-0.18616 0.345867 0)
(-0.163354 0.333529 0)
(-0.139726 0.324817 0)
(-0.118692 0.313492 0)
(-0.0997287 0.301664 0)
(-0.0834553 0.288953 0)
(-0.0678913 0.276766 0)
(-0.0520865 0.265761 0)
(-0.035313 0.256393 0)
(-0.0173268 0.248644 0)
(0.00162707 0.24263 0)
(0.0209707 0.238427 0)
(0.0405135 0.233743 0)
(0.0603094 0.22805 0)
(0.0806871 0.223254 0)
(0.101318 0.219701 0)
(0.121864 0.217258 0)
(0.142332 0.213655 0)
(0.162888 0.213387 0)
(0.1829 0.209851 0)
(0.203049 0.20948 0)
(0.222561 0.2076 0)
(0.241549 0.208971 0)
(0.259885 0.206845 0)
(0.276486 0.210977 0)
(0.291289 0.210224 0)
(0.301586 0.213912 0)
(0.299207 0.221946 0)
(0.257738 0.240185 0)
(0.175356 0.272912 0)
(0.138392 0.334802 0)
(0.0542453 0.349647 0)
(-0.111074 0.464204 0)
(-0.201399 0.436996 0)
(-0.233483 0.359476 0)
(-0.284555 0.321364 0)
(-0.295095 0.298143 0)
(-0.269133 0.285425 0)
(-0.240704 0.284145 0)
(-0.215673 0.265578 0)
(-0.18914 0.258427 0)
(-0.166632 0.242169 0)
(-0.143445 0.229852 0)
(-0.123392 0.214459 0)
(-0.104773 0.199004 0)
(-0.0877713 0.183463 0)
(-0.0712709 0.169316 0)
(-0.0545235 0.156823 0)
(-0.0370636 0.146149 0)
(-0.0191978 0.137238 0)
(-0.00110657 0.130326 0)
(0.0168051 0.125424 0)
(0.034264 0.119827 0)
(0.0518918 0.113073 0)
(0.0703436 0.107366 0)
(0.0893438 0.103131 0)
(0.10859 0.100292 0)
(0.128069 0.0960154 0)
(0.148199 0.0955568 0)
(0.167838 0.0918749 0)
(0.188012 0.0914873 0)
(0.207864 0.0897749 0)
(0.227608 0.091692 0)
(0.247247 0.0912131 0)
(0.265361 0.0974439 0)
(0.282627 0.100128 0)
(0.296263 0.109072 0)
(0.302804 0.124028 0)
(0.286237 0.158277 0)
(0.24603 0.228737 0)
(0.205063 0.357613 0)
(0.0721986 0.405682 0)
(-0.657172 0.355324 0)
(-0.360957 0.448358 0)
(-0.342937 0.300397 0)
(-0.323179 0.251723 0)
(-0.315492 0.234048 0)
(-0.294601 0.222456 0)
(-0.268306 0.222316 0)
(-0.245566 0.205352 0)
(-0.220001 0.198759 0)
(-0.198853 0.182639 0)
(-0.176308 0.170013 0)
(-0.156061 0.154923 0)
(-0.136439 0.140686 0)
(-0.117313 0.127184 0)
(-0.0980125 0.115478 0)
(-0.0784217 0.105144 0)
(-0.0581339 0.0961017 0)
(-0.0369601 0.088467 0)
(-0.0149721 0.0825954 0)
(0.00748788 0.0787093 0)
(0.0300876 0.0743568 0)
(0.0530977 0.0691862 0)
(0.0765273 0.0653713 0)
(0.0998591 0.0632004 0)
(0.122687 0.0624783 0)
(0.145165 0.0598849 0)
(0.167482 0.0610489 0)
(0.189271 0.0589982 0)
(0.210902 0.0598054 0)
(0.232145 0.0594724 0)
(0.252921 0.062163 0)
(0.273461 0.0631108 0)
(0.292264 0.0697451 0)
(0.31051 0.0735402 0)
(0.32523 0.0833471 0)
(0.338653 0.0970584 0)
(0.341997 0.126129 0)
(0.367388 0.187671 0)
(0.380845 0.367295 0)
(0.595819 0.341582 0)
(-0.978265 0.991948 0)
(-0.346903 0.643949 0)
(-0.392707 0.133412 0)
(-0.335761 0.119344 0)
(-0.31656 0.115746 0)
(-0.295817 0.105023 0)
(-0.270355 0.108828 0)
(-0.24783 0.0944883 0)
(-0.222211 0.0899089 0)
(-0.200868 0.0745804 0)
(-0.178371 0.0618555 0)
(-0.157882 0.0472815 0)
(-0.137674 0.0341769 0)
(-0.117966 0.0224611 0)
(-0.0979626 0.0128953 0)
(-0.0777737 0.00455311 0)
(-0.0571776 -0.00281947 0)
(-0.0361895 -0.00935312 0)
(-0.014811 -0.0143547 0)
(0.00683739 -0.017144 0)
(0.0283992 -0.0206718 0)
(0.0502038 -0.0255656 0)
(0.0725616 -0.0289709 0)
(0.095097 -0.0303539 0)
(0.117494 -0.0300573 0)
(0.139934 -0.0323912 0)
(0.162402 -0.0300571 0)
(0.184554 -0.0315679 0)
(0.206728 -0.0298357 0)
(0.228526 -0.0288574 0)
(0.249854 -0.0247026 0)
(0.271106 -0.0216173 0)
(0.290485 -0.0131587 0)
(0.309744 -0.00642539 0)
(0.325353 0.00665178 0)
(0.343024 0.0220311 0)
(0.355019 0.0467345 0)
(0.408705 0.0622973 0)
(0.358172 0.557233 0)
(0.958135 0.964448 0)
(-0.978265 -0.991948 0)
(-0.346903 -0.643949 0)
(-0.392707 -0.133412 0)
(-0.335761 -0.119344 0)
(-0.31656 -0.115746 0)
(-0.295817 -0.105023 0)
(-0.270355 -0.108828 0)
(-0.24783 -0.0944883 0)
(-0.222211 -0.0899089 0)
(-0.200868 -0.0745804 0)
(-0.178371 -0.0618555 0)
(-0.157882 -0.0472815 0)
(-0.137674 -0.0341769 0)
(-0.117966 -0.0224611 0)
(-0.0979626 -0.0128953 0)
(-0.0777737 -0.00455311 0)
(-0.0571776 0.00281947 0)
(-0.0361895 0.00935312 0)
(-0.014811 0.0143547 0)
(0.00683739 0.017144 0)
(0.0283992 0.0206718 0)
(0.0502038 0.0255656 0)
(0.0725616 0.0289709 0)
(0.095097 0.0303539 0)
(0.117494 0.0300573 0)
(0.139934 0.0323912 0)
(0.162402 0.0300571 0)
(0.184554 0.0315679 0)
(0.206728 0.0298357 0)
(0.228526 0.0288574 0)
(0.249854 0.0247026 0)
(0.271106 0.0216173 0)
(0.290485 0.0131587 0)
(0.309744 0.00642539 0)
(0.325353 -0.00665178 0)
(0.343024 -0.0220311 0)
(0.355019 -0.0467345 0)
(0.408705 -0.0622973 0)
(0.358172 -0.557233 0)
(0.958135 -0.964448 0)
(-0.657172 -0.355324 0)
(-0.360957 -0.448358 0)
(-0.342937 -0.300397 0)
(-0.323179 -0.251723 0)
(-0.315492 -0.234048 0)
(-0.294601 -0.222456 0)
(-0.268306 -0.222316 0)
(-0.245566 -0.205352 0)
(-0.220001 -0.198759 0)
(-0.198853 -0.182639 0)
(-0.176308 -0.170013 0)
(-0.156061 -0.154923 0)
(-0.136439 -0.140686 0)
(-0.117313 -0.127184 0)
(-0.0980125 -0.115478 0)
(-0.0784217 -0.105144 0)
(-0.0581339 -0.0961017 0)
(-0.0369601 -0.088467 0)
(-0.0149721 -0.0825954 0)
(0.00748788 -0.0787093 0)
(0.0300876 -0.0743568 0)
(0.0530977 -0.0691862 0)
(0.0765273 -0.0653713 0)
(0.0998591 -0.0632004 0)
(0.122687 -0.0624783 0)
(0.145165 -0.0598849 0)
(0.167482 -0.0610489 0)
(0.189271 -0.0589982 0)
(0.210902 -0.0598054 0)
(0.232145 -0.0594724 0)
(0.252921 -0.062163 0)
(0.273461 -0.0631108 0)
(0.292264 -0.0697451 0)
(0.31051 -0.0735402 0)
(0.32523 -0.0833471 0)
(0.338653 -0.0970584 0)
(0.341997 -0.126129 0)
(0.367388 -0.187671 0)
(0.380845 -0.367295 0)
(0.595819 -0.341582 0)
(-0.111074 -0.464204 0)
(-0.201399 -0.436996 0)
(-0.233483 -0.359476 0)
(-0.284555 -0.321364 0)
(-0.295095 -0.298143 0)
(-0.269133 -0.285425 0)
(-0.240704 -0.284145 0)
(-0.215673 -0.265578 0)
(-0.18914 -0.258427 0)
(-0.166632 -0.242169 0)
(-0.143445 -0.229852 0)
(-0.123392 -0.214459 0)
(-0.104773 -0.199004 0)
(-0.0877713 -0.183463 0)
(-0.0712709 -0.169316 0)
(-0.0545235 -0.156823 0)
(-0.0370636 -0.146149 0)
(-0.0191978 -0.137238 0)
(-0.00110657 -0.130326 0)
(0.0168051 -0.125424 0)
(0.034264 -0.119827 0)
(0.0518918 -0.113073 0)
(0.0703436 -0.107366 0)
(0.0893438 -0.103131 0)
(0.10859 -0.100292 0)
(0.128069 -0.0960154 0)
(0.148199 -0.0955568 0)
(0.167838 -0.0918749 0)
(0.188012 -0.0914873 0)
(0.207864 -0.0897749 0)
(0.227608 -0.091692 0)
(0.247247 -0.0912131 0)
(0.265361 -0.0974439 0)
(0.282627 -0.100128 0)
(0.296263 -0.109072 0)
(0.302804 -0.124028 0)
(0.286237 -0.158277 0)
(0.24603 -0.228737 0)
(0.205063 -0.357613 0)
(0.0721986 -0.405682 0)
(-0.100693 -0.43445 0)
(-0.160821 -0.428168 0)
(-0.192969 -0.398019 0)
(-0.272343 -0.39295 0)
(-0.293829 -0.378336 0)
(-0.26761 -0.36666 0)
(-0.237492 -0.36628 0)
(-0.212383 -0.350765 0)
(-0.18616 -0.345867 0)
(-0.163354 -0.333529 0)
(-0.139726 -0.324817 0)
(-0.118692 -0.313492 0)
(-0.0997287 -0.301664 0)
(-0.0834553 -0.288953 0)
(-0.0678913 -0.276766 0)
(-0.0520865 -0.265761 0)
(-0.035313 -0.256393 0)
(-0.0173268 -0.248644 0)
(0.00162707 -0.24263 0)
(0.0209707 -0.238427 0)
(0.0405135 -0.233743 0)
(0.0603094 -0.22805 0)
(0.0806871 -0.223254 0)
(0.101318 -0.219701 0)
(0.121864 -0.217258 0)
(0.142332 -0.213655 0)
(0.162888 -0.213387 0)
(0.1829 -0.209851 0)
(0.203049 -0.20948 0)
(0.222561 -0.2076 0)
(0.241549 -0.208971 0)
(0.259885 -0.206845 0)
(0.276486 -0.210977 0)