/*--------------------------------*- C++ -*----------------------------------*\
| =========                 |                                                 |
| \\      /  F ield         | OpenFOAM: The Open Source CFD Toolbox           |
|  \\    /   O peration     | Version:  v1912                                 |
|   \\  /    A nd           | Website:  www.openfoam.com                      |
|    \\/     M anipulation  |                                                 |
\*---------------------------------------------------------------------------*/
FoamFile
{
    version     2.0;
    format      ascii;
    class       volScalarField;
    location    "0.12";
    object      normU;
}
// * * * * * * * * * * * * * * * * * * * * * * * * * * * * * * * * * * * * * //

dimensions      [0 -1 0 0 0 0 0];


internalField   nonuniform List<scalar> 
4800
(
0
0
3.73399e-14
3.73399e-14
3.73399e-14
3.73399e-14
3.73399e-14
5.28066e-14
0
3.73399e-14
3.73399e-14
5.28066e-14
3.73399e-14
3.73399e-14
3.73399e-14
0
0
0
0
0
3.73399e-14
3.73399e-14
0
0
0
3.73399e-14
7.46798e-14
3.73399e-14
8.34946e-14
0
7.46798e-14
3.73399e-14
0
0
0
3.73399e-14
3.73399e-14
1.05613e-13
0
0.971882
0
3.73399e-14
3.73399e-14
3.73399e-14
0
3.73399e-14
0
0
5.28066e-14
3.73399e-14
0
0
0
3.73399e-14
3.73399e-14
0
3.73399e-14
0
0
0
0
3.73399e-14
0
3.73399e-14
3.73399e-14
8.34946e-14
3.73399e-14
5.28066e-14
0
3.73399e-14
3.73399e-14
7.46798e-14
3.73399e-14
0
0
0
3.73399e-14
3.73399e-14
7.46798e-14
6.63934e-07
0
7.46798e-14
0
0
0
0
0
0
0
0
0
0
7.46798e-14
0
7.46798e-14
8.34946e-14
0
7.46798e-14
0
0
7.46798e-14
7.46798e-14
5.28066e-14
3.73399e-14
3.73399e-14
3.73399e-14
7.46798e-14
8.34946e-14
0
7.46798e-14
7.46798e-14
3.73399e-14
7.46798e-14
0
0
3.73399e-14
3.73399e-14
7.46798e-14
0
5.43677e-13
3.73399e-14
3.73399e-14
3.73399e-14
3.73399e-14
0
3.73399e-14
3.73399e-14
0
5.28066e-14
3.73399e-14
5.28066e-14
3.73399e-14
3.73399e-14
3.73399e-14
5.28066e-14
3.73399e-14
5.28066e-14
3.73399e-14
0
3.73399e-14
3.73399e-14
3.73399e-14
3.73399e-14
0
8.34946e-14
8.34946e-14
5.28066e-14
5.28066e-14
8.34946e-14
0
8.34946e-14
3.73399e-14
3.73399e-14
0
0
0
7.46798e-14
3.73399e-14
1.18079e-13
3.07913e-13
3.73399e-14
5.28066e-14
3.73399e-14
5.28066e-14
5.28066e-14
5.28066e-14
3.73399e-14
5.28066e-14
3.73399e-14
3.73399e-14
5.28066e-14
0
3.73399e-14
0
3.73399e-14
0
5.28066e-14
5.28066e-14
0
3.73399e-14
3.73399e-14
3.73399e-14
8.34946e-14
5.28066e-14
3.73399e-14
0
3.73399e-14
5.28066e-14
3.73399e-14
0
3.73399e-14
3.73399e-14
7.46798e-14
3.73399e-14
3.73399e-14
0
0
3.73399e-14
5.28066e-14
7.46798e-14
5.28066e-14
0
3.73399e-14
5.28066e-14
0
3.73399e-14
5.28066e-14
3.73399e-14
3.73399e-14
5.28066e-14
5.28066e-14
5.28066e-14
0
3.73399e-14
5.28066e-14
0
5.28066e-14
7.46798e-14
3.73399e-14
0
0
5.28066e-14
7.46798e-14
3.73399e-14
3.73399e-14
0
5.28066e-14
0
8.34946e-14
3.73399e-14
7.46798e-14
0
3.73399e-14
3.73399e-14
3.73399e-14
3.73399e-14
8.34946e-14
7.46798e-14
7.46798e-14
8.34946e-14
3.73399e-14
0
0
0
3.73399e-14
3.73399e-14
3.73399e-14
5.28066e-14
3.73399e-14
0
0
5.28066e-14
0
3.73399e-14
3.73399e-14
0
3.73399e-14
3.73399e-14
5.28066e-14
0
0
3.73399e-14
3.73399e-14
3.73399e-14
7.46798e-14
8.34946e-14
8.34946e-14
3.73399e-14
7.46798e-14
3.73399e-14
1.05613e-13
3.73399e-14
8.34946e-14
0
3.73399e-14
3.73399e-14
8.34946e-14
0
3.73399e-14
3.73399e-14
3.73399e-14
0
5.28066e-14
5.28066e-14
0
0
0
3.73399e-14
3.73399e-14
7.46798e-14
8.34946e-14
3.73399e-14
3.73399e-14
5.28066e-14
0
0
3.73399e-14
7.46798e-14
5.28066e-14
3.73399e-14
0
3.73399e-14
7.46798e-14
8.34946e-14
8.34946e-14
8.34946e-14
0
0
0
3.73399e-14
7.46798e-14
0
3.73399e-14
0
5.28066e-14
0
3.73399e-14
3.73399e-14
8.34946e-14
3.73399e-14
5.28066e-14
0
3.73399e-14
5.28066e-14
0
3.73399e-14
3.73399e-14
0
5.28066e-14
0
3.73399e-14
5.28066e-14
0
3.73399e-14
3.73399e-14
3.73399e-14
3.73399e-14
3.73399e-14
3.73399e-14
3.73399e-14
3.73399e-14
7.46798e-14
3.73399e-14
1.18079e-13
3.73399e-14
7.46798e-14
1.18079e-13
8.34946e-14
0
0
7.46798e-14
3.73399e-14
3.73399e-14
0
0
3.73399e-14
3.73399e-14
3.73399e-14
0
5.28066e-14
5.28066e-14
0
5.28066e-14
5.28066e-14
5.28066e-14
5.28066e-14
5.28066e-14
3.73399e-14
7.46798e-14
3.73399e-14
0
0
3.73399e-14
3.73399e-14
3.73399e-14
3.73399e-14
0
3.73399e-14
0
3.73399e-14
3.73399e-14
0
5.28066e-14
5.28066e-14
3.73399e-14
3.73399e-14
3.73399e-14
5.28066e-14
8.34946e-14
7.46798e-14
8.34946e-14
0
3.73399e-14
0
8.34946e-14
0
5.28066e-14
7.46798e-14
3.73399e-14
3.73399e-14
3.73399e-14
0
5.28066e-14
3.73399e-14
3.73399e-14
7.46798e-14
3.73399e-14
3.73399e-14
8.34946e-14
5.28066e-14
3.73399e-14
8.34946e-14
0
0
7.46798e-14
0
3.73399e-14
0
8.34946e-14
3.73399e-14
0
5.28066e-14
0
7.46798e-14
3.73399e-14
3.73399e-14
8.34946e-14
5.28066e-14
5.28066e-14
3.73399e-14
8.34946e-14
3.73399e-14
3.73399e-14
5.28066e-14
3.73399e-14
3.73399e-14
3.73399e-14
0
5.28066e-14
8.34946e-14
3.73399e-14
5.28066e-14
0
5.28066e-14
0
3.73399e-14
5.28066e-14
7.46798e-14
8.34946e-14
8.34946e-14
5.28066e-14
3.73399e-14
5.28066e-14
3.73399e-14
5.28066e-14
0
3.73399e-14
3.73399e-14
1.34631e-13
7.46798e-14
5.28066e-14
3.73399e-14
3.73399e-14
8.34946e-14
3.73399e-14
3.73399e-14
7.46798e-14
5.28066e-14
3.73399e-14
7.46798e-14
3.73399e-14
0
1.05613e-13
0
3.73399e-14
7.46798e-14
0
7.46798e-14
8.34946e-14
3.73399e-14
0
3.73399e-14
7.46798e-14
0
0
3.73399e-14
0
3.73399e-14
3.73399e-14
5.28066e-14
5.28066e-14
3.73399e-14
3.73399e-14
3.73399e-14
5.28066e-14
3.73399e-14
0
3.73399e-14
3.73399e-14
0
3.73399e-14
3.73399e-14
3.73399e-14
3.73399e-14
3.73399e-14
3.73399e-14
0
5.28066e-14
3.73399e-14
7.46798e-14
1.18079e-13
0
8.34946e-14
3.73399e-14
0
0
3.73399e-14
3.73399e-14
3.73399e-14
3.73399e-14
8.34946e-14
0
3.73399e-14
7.46798e-14
3.73399e-14
8.34946e-14
0
0
3.73399e-14
3.73399e-14
3.73399e-14
3.73399e-14
5.28066e-14
0
8.34946e-14
3.73399e-14
5.28066e-14
3.73399e-14
3.73399e-14
3.73399e-14
3.73399e-14
5.28066e-14
3.73399e-14
8.34946e-14
3.73399e-14
3.73399e-14
7.46798e-14
5.28066e-14
3.73399e-14
5.28066e-14
8.34946e-14
5.28066e-14
8.34946e-14
3.73399e-14
3.73399e-14
0
7.46798e-14
0
3.73399e-14
5.28066e-14
3.73399e-14
5.28066e-14
8.34946e-14
3.73399e-14
3.73399e-14
0
3.73399e-14
3.73399e-14
5.28066e-14
3.73399e-14
5.28066e-14
7.46798e-14
3.73399e-14
3.73399e-14
5.28066e-14
0
5.28066e-14
3.73399e-14
3.73399e-14
3.73399e-14
5.28066e-14
3.73399e-14
3.73399e-14
8.34946e-14
0
3.73399e-14
7.46798e-14
3.73399e-14
1.1202e-13
1.1202e-13
0
3.73399e-14
8.34946e-14
0
7.46798e-14
5.28066e-14
8.34946e-14
3.73399e-14
0
3.73399e-14
5.28066e-14
3.73399e-14
0
0
0
3.73399e-14
5.28066e-14
3.73399e-14
3.73399e-14
3.73399e-14
5.28066e-14
0
3.73399e-14
3.73399e-14
3.73399e-14
3.73399e-14
3.73399e-14
3.73399e-14
3.73399e-14
5.28066e-14
5.28066e-14
3.73399e-14
5.28066e-14
3.73399e-14
7.46798e-14
3.73399e-14
0
5.28066e-14
8.34946e-14
0
7.46798e-14
0
8.34946e-14
0
8.34946e-14
3.73399e-14
3.73399e-14
3.73399e-14
0
0
3.73399e-14
1.1202e-13
7.46798e-14
5.28066e-14
3.73399e-14
5.28066e-14
3.73399e-14
0
3.73399e-14
3.73399e-14
5.28066e-14
3.73399e-14
8.34946e-14
0
1.18079e-13
3.73399e-14
1.1202e-13
1.18079e-13
3.73399e-14
3.73399e-14
3.73399e-14
0
3.73399e-14
7.46798e-14
0
0
0
8.34946e-14
8.34946e-14
3.73399e-14
3.73399e-14
3.73399e-14
0
3.73399e-14
7.46798e-14
7.46798e-14
0
0
5.28066e-14
3.73399e-14
5.28066e-14
5.28066e-14
0
0
1.1202e-13
3.73399e-14
0
0
0
0
3.73399e-14
0
3.73399e-14
3.73399e-14
3.73399e-14
3.73399e-14
3.73399e-14
0
0
0
0
3.73399e-14
3.73399e-14
7.46798e-14
1.18079e-13
3.73399e-14
7.46798e-14
0
1.1202e-13
0
3.73399e-14
3.73399e-14
8.34946e-14
0
3.73399e-14
8.34946e-14
8.34946e-14
3.73399e-14
7.46798e-14
3.73399e-14
1.18079e-13
0
3.73399e-14
3.73399e-14
3.73399e-14
1.1202e-13
7.46798e-14
0
0
0
7.46798e-14
8.34946e-14
7.46798e-14
0
0
0
7.46798e-14
0
0
3.73399e-14
0
1.18079e-13
3.73399e-14
7.46798e-14
3.73399e-14
3.73399e-14
1.05613e-13
0
7.46798e-14
7.46798e-14
7.46798e-14
7.46798e-14
0
1.05613e-13
7.46798e-14
3.73399e-14
3.73399e-14
8.34946e-14
0
7.46798e-14
5.28066e-14
3.73399e-14
3.73399e-14
3.73399e-14
7.46798e-14
0
3.73399e-14
0
0
0
0
3.73399e-14
3.73399e-14
3.73399e-14
0
0
3.73399e-14
0
0
0
3.73399e-14
1.18079e-13
7.46798e-14
7.46798e-14
1.1202e-13
3.73399e-14
0
0
3.73399e-14
7.46798e-14
0
0
1.05613e-13
0
7.46798e-14
0
0
3.73399e-14
3.73399e-14
3.73399e-14
3.73399e-14
0
0
0
0
0
0
0
3.73399e-14
3.73399e-14
0
3.73399e-14
8.34946e-14
7.46798e-14
3.73399e-14
3.73399e-14
7.46798e-14
7.46798e-14
0
3.73399e-14
3.73399e-14
0
0
1.1202e-13
7.46798e-14
0
3.73399e-14
3.73399e-14
0
3.73399e-14
8.34946e-14
0
8.34946e-14
0
1.1202e-13
0
0
3.73399e-14
5.28066e-14
3.73399e-14
0
0
3.73399e-14
3.73399e-14
3.73399e-14
3.73399e-14
3.73399e-14
3.73399e-14
0
3.73399e-14
3.73399e-14
1.1202e-13
8.34946e-14
5.28066e-14
3.73399e-14
3.73399e-14
3.73399e-14
3.73399e-14
0
3.73399e-14
0
1.18079e-13
5.28066e-14
5.28066e-14
8.34946e-14
1.05613e-13
0
0
1.34631e-13
1.34631e-13
8.34946e-14
0
7.46798e-14
1.05613e-13
3.73399e-14
0
0
5.28066e-14
8.34946e-14
7.46798e-14
3.73399e-14
7.46798e-14
0
7.46798e-14
0
0
3.73399e-14
0
0
8.34946e-14
0
8.34946e-14
3.73399e-14
7.46798e-14
3.73399e-14
0
3.73399e-14
7.46798e-14
0
3.73399e-14
0
1.18079e-13
3.73399e-14
1.4936e-13
5.28066e-14
8.34946e-14
1.4936e-13
3.73399e-14
1.05613e-13
1.18079e-13
7.46798e-14
5.28066e-14
1.1202e-13
8.34946e-14
1.05613e-13
3.73399e-14
0
8.34946e-14
7.46798e-14
7.46798e-14
3.73399e-14
3.73399e-14
3.73399e-14
0
0
3.73399e-14
3.73399e-14
3.73399e-14
3.73399e-14
3.73399e-14
3.73399e-14
3.73399e-14
0
0
3.73399e-14
0
0
0
8.34946e-14
5.28066e-14
0
0
5.28066e-14
5.28066e-14
7.46798e-14
1.34631e-13
8.34946e-14
1.1202e-13
1.34631e-13
1.1202e-13
3.73399e-14
1.18079e-13
3.73399e-14
0
3.73399e-14
3.73399e-14
3.73399e-14
3.73399e-14
8.34946e-14
8.34946e-14
3.73399e-14
3.73399e-14
3.73399e-14
3.73399e-14
8.34946e-14
5.28066e-14
3.73399e-14
5.28066e-14
3.73399e-14
8.34946e-14
1.18079e-13
8.34946e-14
1.4936e-13
7.46798e-14
5.28066e-14
0
3.73399e-14
8.34946e-14
0
8.34946e-14
7.46798e-14
3.73399e-14
8.34946e-14
1.18079e-13
1.18079e-13
8.34946e-14
2.24039e-13
8.34946e-14
1.53956e-13
3.73399e-14
1.867e-13
0
7.46798e-14
3.73399e-14
8.34946e-14
3.73399e-14
0
5.28066e-14
3.73399e-14
0
1.18079e-13
8.34946e-14
7.46798e-14
7.46798e-14
0
5.28066e-14
3.73399e-14
3.73399e-14
5.28066e-14
5.28066e-14
7.46798e-14
1.05613e-13
1.53956e-13
2.36158e-13
8.34946e-14
1.1202e-13
8.34946e-14
8.34946e-14
3.73399e-14
7.46798e-14
7.46798e-14
5.28066e-14
7.46798e-14
1.18079e-13
3.73399e-14
5.28066e-14
7.46798e-14
0
1.4936e-13
1.4936e-13
3.73399e-14
7.46798e-14
0
8.34946e-14
3.73399e-14
0
8.34946e-14
7.46798e-14
8.34946e-14
5.28066e-14
0
0
0
5.28066e-14
5.28066e-14
5.28066e-14
3.73399e-14
1.05613e-13
3.73399e-14
5.28066e-14
3.73399e-14
1.4936e-13
1.4936e-13
7.46798e-14
3.73399e-14
0
0
1.1202e-13
3.73399e-14
7.46798e-14
1.1202e-13
0
1.34631e-13
5.28066e-14
1.5842e-13
8.34946e-14
7.46798e-14
1.1202e-13
3.73399e-14
1.1202e-13
5.28066e-14
8.34946e-14
0
3.73399e-14
7.46798e-14
5.28066e-14
0
1.18079e-13
3.73399e-14
3.73399e-14
0
0
0
0
3.73399e-14
0
3.73399e-14
0
8.34946e-14
1.1202e-13
5.28066e-14
0
5.28066e-14
3.73399e-14
5.28066e-14
5.28066e-14
3.73399e-14
5.28066e-14
5.28066e-14
3.73399e-14
3.73399e-14
3.73399e-14
3.73399e-14
7.46798e-14
0
0
5.28066e-14
5.28066e-14
0
3.73399e-14
3.73399e-14
3.73399e-14
0
0
8.34946e-14
1.05613e-13
3.73399e-14
8.34946e-14
3.73399e-14
8.34946e-14
0
3.73399e-14
0
0
0
3.73399e-14
7.46798e-14
0
0
3.73399e-14
3.73399e-14
0
0
3.73399e-14
0
0
3.73399e-14
3.73399e-14
0
0
3.73399e-14
3.73399e-14
0
7.46798e-14
1.18079e-13
7.46798e-14
7.46798e-14
0
1.1202e-13
3.73399e-14
0
3.73399e-14
7.46798e-14
3.73399e-14
7.46798e-14
1.05613e-13
7.46798e-14
1.18079e-13
3.73399e-14
3.73399e-14
1.1202e-13
0
7.46798e-14
0
8.34946e-14
5.28066e-14
7.46798e-14
5.28066e-14
5.28066e-14
0
3.73399e-14
7.46798e-14
0
0
0
0
8.34946e-14
0
0
3.73399e-14
3.73399e-14
1.05613e-13
3.73399e-14
1.05613e-13
0
7.46798e-14
7.46798e-14
0
7.46798e-14
7.46798e-14
7.46798e-14
0
0
7.46798e-14
7.46798e-14
0
8.34946e-14
3.73399e-14
3.73399e-14
0
3.73399e-14
3.73399e-14
0
1.1202e-13
3.73399e-14
7.46798e-14
1.34631e-13
8.34946e-14
3.73399e-14
7.46798e-14
0
0
3.73399e-14
0
0
3.73399e-14
0
5.28066e-14
7.46798e-14
5.28066e-14
0
0
1.18079e-13
0
0
1.34631e-13
0
8.34946e-14
7.46798e-14
8.34946e-14
3.73399e-14
0
1.05613e-13
0
7.46798e-14
3.73399e-14
0
1.1202e-13
7.46798e-14
0
1.18079e-13
7.46798e-14
0
7.46798e-14
3.73399e-14
7.46798e-14
3.73399e-14
0
0
0
7.46798e-14
0
0
7.46798e-14
0
7.46798e-14
0
7.46798e-14
0
3.73399e-14
7.46798e-14
8.34946e-14
3.73399e-14
3.73399e-14
3.73399e-14
5.28066e-14
7.46798e-14
0
1.1202e-13
7.46798e-14
1.05613e-13
0
1.05613e-13
3.73399e-14
7.46798e-14
0
0
0
3.73399e-14
3.73399e-14
5.28066e-14
5.28066e-14
0
3.73399e-14
0
3.73399e-14
3.73399e-14
3.73399e-14
0
7.46798e-14
0
0
0
7.46798e-14
3.73399e-14
0
0
3.73399e-14
3.73399e-14
3.73399e-14
3.73399e-14
3.73399e-14
3.73399e-14
8.34946e-14
3.73399e-14
7.46798e-14
7.46798e-14
0
3.73399e-14
0
0
8.34946e-14
7.46798e-14
0
1.05613e-13
7.46798e-14
0
7.46798e-14
3.73399e-14
8.34946e-14
5.28066e-14
0
3.73399e-14
7.46798e-14
0
0
3.73399e-14
3.73399e-14
7.46798e-14
0
3.73399e-14
0
3.73399e-14
0
3.73399e-14
0
0
0
3.73399e-14
0
0
0
3.73399e-14
7.46798e-14
8.34946e-14
0
0
3.73399e-14
8.34946e-14
3.73399e-14
3.73399e-14
7.46798e-14
0
7.46798e-14
8.34946e-14
0
0
0
0
3.73399e-14
3.73399e-14
3.73399e-14
0
3.73399e-14
3.73399e-14
3.73399e-14
3.73399e-14
0
0
7.46798e-14
3.73399e-14
0
3.73399e-14
3.73399e-14
3.73399e-14
3.73399e-14
3.73399e-14
3.73399e-14
0
3.73399e-14
3.73399e-14
0
3.73399e-14
8.34946e-14
8.34946e-14
3.73399e-14
1.1202e-13
3.73399e-14
3.73399e-14
5.28066e-14
7.46798e-14
3.73399e-14
7.46798e-14
3.73399e-14
3.73399e-14
8.34946e-14
7.46798e-14
5.28066e-14
5.28066e-14
3.73399e-14
0
0
0
0
0
0
0
0
0
0
0
0
3.73399e-14
0
5.28066e-14
0
0
0
0
0
3.73399e-14
0
5.28066e-14
8.34946e-14
7.46798e-14
8.34946e-14
1.18079e-13
3.73399e-14
0
0
7.46798e-14
0
3.73399e-14
0
7.46798e-14
1.05613e-13
7.46798e-14
0
3.73399e-14
7.46798e-14
3.73399e-14
0
0
0
0
0
0
0
0
3.73399e-14
3.73399e-14
0
0
5.28066e-14
3.73399e-14
5.28066e-14
3.73399e-14
0
3.73399e-14
3.73399e-14
0
0
3.73399e-14
3.73399e-14
8.34946e-14
0
3.73399e-14
7.46798e-14
0
3.73399e-14
0
3.73399e-14
3.73399e-14
0
0
0
0
5.28066e-14
5.28066e-14
3.73399e-14
3.73399e-14
3.73399e-14
3.73399e-14
3.73399e-14
5.28066e-14
3.73399e-14
3.73399e-14
5.28066e-14
8.34946e-14
1.18079e-13
1.18079e-13
5.28066e-14
8.34946e-14
8.34946e-14
7.46798e-14
5.28066e-14
5.28066e-14
7.46798e-14
3.73399e-14
7.46798e-14
3.73399e-14
3.73399e-14
3.73399e-14
3.73399e-14
8.34946e-14
0
7.46798e-14
7.46798e-14
3.73399e-14
0
8.34946e-14
3.73399e-14
3.73399e-14
3.73399e-14
8.34946e-14
8.34946e-14
1.1202e-13
3.73399e-14
3.73399e-14
3.73399e-14
0
3.73399e-14
0
0
3.73399e-14
0
5.28066e-14
8.34946e-14
3.73399e-14
7.46798e-14
7.46798e-14
0
3.73399e-14
1.18079e-13
3.73399e-14
7.46798e-14
5.28066e-14
0
3.73399e-14
0
3.73399e-14
3.73399e-14
0
7.46798e-14
7.46798e-14
8.34946e-14
1.18079e-13
3.73399e-14
0
3.73399e-14
7.46798e-14
3.73399e-14
0
0
7.46798e-14
7.46798e-14
5.28066e-14
3.73399e-14
0
8.34946e-14
3.73399e-14
0
0
0
0
0
0
0
3.73399e-14
7.46798e-14
7.46798e-14
3.73399e-14
7.46798e-14
3.73399e-14
1.4936e-13
0
3.73399e-14
7.46798e-14
3.73399e-14
7.46798e-14
7.46798e-14
0
8.34946e-14
5.28066e-14
8.34946e-14
5.28066e-14
0
3.73399e-14
3.73399e-14
3.73399e-14
0
3.73399e-14
3.73399e-14
0
3.73399e-14
3.73399e-14
7.46798e-14
0
3.73399e-14
5.28066e-14
10.6237
12.4134
12.4235
11.3077
11.8516
11.5368
10.2613
6.86267
6.00756
6.17233
3.76384
2.24033
3.06517
1.60036
1.47481
1.82122
0.595913
2.71691
1.97742
0.859029
0.225942
0.783975
0.901993
0.594819
0.849638
0.813396
0.990297
1.1033
0.845054
0.719628
0.647088
0.813957
0.876422
0.671161
0.557741
0.508787
0.256852
0.213075
0.205045
0.246696
0.295709
0.263528
0.246242
0.286124
0.295316
0.232671
0.171427
0.178228
0.108053
0.0370981
0.01655
0.0637023
0.130229
0.231191
0.363619
0.405431
0.315845
0.27283
0.261035
0.229112
0.147967
0.0582789
0.0699193
0.0272912
0.054026
0.0698983
0.151195
0.279271
0.370259
0.378746
0.354255
0.315543
0.271987
0.209323
0.208708
0.166239
0.165252
0.0836462
0.0251484
0.0373986
1.00534
2.06098
3.74677
5.27894
6.48548
7.46237
10.3468
10.8536
10.5395
12.1324
13.1941
11.056
10.5497
9.6474
10.0494
9.10259
9.35405
7.71234
3.47864
2.44314
2.1551
2.092
2.15185
1.69122
1.3804
1.75609
2.02606
1.97999
1.47414
1.2763
1.29661
1.50135
1.81391
1.82802
1.68092
1.33772
0.895151
0.796028
0.796074
0.73742
0.857582
0.863825
0.785023
0.810986
0.864167
0.921433
0.914774
0.636769
0.370789
0.294442
0.26238
0.29862
0.418734
0.526982
0.628087
0.720542
0.710678
0.699166
0.743702
0.720152
0.654683
0.546532
0.466755
0.356097
0.243078
0.243974
0.2758
0.377097
0.562019
0.657852
0.677736
0.682151
0.653823
0.578727
0.591326
0.543294
0.430302
0.314591
0.282743
0.148257
6.79433e-07
0.00853405
0.0373443
0.369875
0.652014
1.43858
3.09925
5.1159
6.14422
7.09916
9.92583
10.533
10.2789
12.6759
13.1104
12.2732
11.6005
14.4176
10.2417
5.4836
5.70145
2.12723
0.799633
0.572677
0.251035
0.538858
0.889865
1.12387
0.629864
0.150008
0.899375
1.00119
1.33285
1.65908
1.76923
1.58808
1.20056
1.11647
1.11254
1.07713
1.14096
1.2549
1.24235
1.196
1.22368
1.33015
1.37127
1.12657
0.927784
0.874443
0.882609
0.875777
0.880555
0.838773
0.786431
0.787349
0.884869
0.997092
1.0808
1.18307
1.25035
1.09131
0.941507
0.871589
0.836719
0.773175
0.61165
0.428321
0.444504
0.593956
0.696926
0.764214
0.839489
0.824761
0.804577
0.83768
0.866891
0.788302
0.730745
0.602529
7.16545e-11
3.56465e-08
2.25786e-07
1.67494e-07
4.20458e-07
2.6934e-05
5.61223e-06
0.000303014
0.00794652
0.0765571
0.616436
1.32047
2.11642
4.58608
4.24245
6.66376
7.21212
8.20671
12.3032
8.94416
8.81733
5.4267
2.02424
3.91128
1.97318
0.811577
0.734642
0.260173
0.597077
0.39173
0.544538
0.0947223
0.191478
0.442134
0.487067
0.615921
0.624563
0.640057
0.713413
0.748042
0.734008
0.839035
1.02029
1.03205
0.967891
0.929908
0.830143
0.851201
0.918723
0.937914
1.03491
1.0803
0.999042
0.948089
0.925177
0.930565
0.986045
1.06692
1.129
1.0908
0.986791
0.916705
0.861624
0.92018
1.03177
1.07273
1.07051
0.936392
0.814472
0.841053
0.910946
0.937062
0.96
0.987934
0.930635
0.888254
0.847551
0.827097
0.853015
0.919337
2.60277e-13
7.48334e-11
3.06405e-10
2.04138e-10
9.5064e-10
5.91008e-09
2.35668e-08
5.42702e-08
2.24829e-07
1.54847e-07
4.19642e-07
9.09556e-07
0.00398042
0.0172687
0.137518
0.846459
3.1293
3.25908
8.02315
10.5767
10.4585
13.604
10.2665
9.42704
5.82919
3.22698
4.11029
0.961892
1.19924
1.23267
0.566562
0.444715
0.675965
0.750493
0.805287
0.678236
0.227785
0.0879189
0.120766
0.296949
0.216712
0.166181
0.0783279
0.105685
0.080239
0.111537
0.191669
0.189413
0.265593
0.381189
0.44703
0.481332
0.551436
0.490579
0.424917
0.456188
0.458956
0.44135
0.475924
0.447733
0.406684
0.460573
0.552688
0.693931
0.768098
0.775718
0.870027
0.961709
0.857392
0.750336
0.740557
0.754779
0.74742
0.798569
0.78292
0.743922
0.730494
0.736148
0.724265
0.819169
1.13962e-13
1.5207e-13
3.69341e-13
2.91238e-13
6.16765e-13
2.05398e-13
2.96902e-12
6.43607e-11
7.38696e-11
5.47879e-12
7.20405e-11
8.34437e-11
5.53063e-08
5.07732e-08
2.98803e-06
3.27605e-06
0.00512139
0.0450761
0.864791
3.08628
3.81011
8.97816
11.582
10.6083
12.8625
10.3774
10.4691
6.72747
4.11722
5.26139
1.3592
0.104303
0.262961
0.663643
0.950422
0.851442
0.543442
0.499458
0.464373
0.399292
0.291549
0.440307
0.605067
0.623159
0.63953
0.686109
0.604407
0.385945
0.262611
0.19546
0.123413
0.132279
0.0362881
0.166053
0.198963
0.257344
0.274948
0.323312
0.336301
0.215572
0.106782
0.142199
0.285133
0.368045
0.383971
0.429287
0.426327
0.42
0.333284
0.240327
0.23474
0.278182
0.340251
0.37658
0.382141
0.401147
0.4574
0.54672
0.616632
0.622388
1.87352e-14
8.89746e-14
6.64707e-14
9.01922e-14
4.81319e-14
9.14499e-14
1.56484e-13
1.41773e-13
8.85507e-14
1.21299e-13
4.01703e-14
2.1049e-13
9.20681e-11
2.87621e-10
6.98674e-11
3.61226e-09
3.72e-06
2.27914e-06
1.95027e-06
0.00433278
0.00688799
0.554672
2.4859
3.76313
8.42178
10.9088
11.2735
15.2154
13.1277
12.5715
7.18459
4.93674
3.61447
0.557993
0.605704
0.274482
0.0866065
0.554152
1.01497
0.810037
0.573936
0.385603
0.358096
0.416153
0.507344
0.523865
0.453006
0.407566
0.356435
0.401593
0.333343
0.271158
0.318686
0.269095
0.295341
0.26609
0.359396
0.397578
0.434975
0.430638
0.282598
0.179315
0.13841
0.0801651
0.0300209
0.0820883
0.0493526
0.0673361
0.0626335
0.0552985
0.0273413
0.140981
0.156325
0.139521
0.137204
0.161756
0.249657
0.387413
0.480731
0.488347
7.55238e-14
1.13566e-13
8.49311e-14
9.01953e-14
7.7614e-14
9.54713e-14
1.10438e-13
4.91504e-14
1.69171e-13
1.74133e-13
1.75388e-13
2.83414e-13
1.41558e-13
1.67095e-13
4.19911e-13
2.38897e-12
4.22443e-09
3.42167e-09
1.37245e-09
1.31307e-06
2.91199e-06
6.55695e-07
0.0010519
0.00356645
0.361771
1.62182
3.13387
8.58868
9.69668
10.4939
13.8305
12.7344
11.6609
7.69934
8.28928
3.47101
1.06998
0.958853
0.568365
0.821765
0.334739
0.153819
0.077865
0.189951
0.360569
0.351067
0.0468003
0.0774444
0.156723
0.4194
0.687717
0.620602
0.462446
0.3387
0.255759
0.225549
0.253728
0.330256
0.27312
0.18146
0.252418
0.379732
0.44511
0.497806
0.437647
0.393022
0.376324
0.384049
0.269981
0.156508
0.12592
0.0145199
0.0726278
0.0772814
0.0227574
0.0750651
0.116479
0.0579052
0.0815111
0.149155
7.55238e-14
4.21766e-14
1.21607e-13
4.27552e-14
8.61043e-14
7.81538e-14
2.01233e-13
1.96751e-14
9.93006e-15
8.03903e-14
1.65628e-13
1.11273e-13
1.65873e-13
1.01096e-13
4.62446e-14
1.76798e-13
2.85966e-12
3.0574e-12
5.12529e-13
1.02938e-12
7.4097e-10
2.67564e-10
7.02372e-07
9.9085e-07
3.28596e-07
0.000497931
0.00667123
0.280249
1.08355
2.62302
7.99492
9.24626
12.0515
13.8437
14.4058
12.7073
7.03625
7.69745
3.31322
1.90443
1.3315
0.947866
0.323362
0.352479
0.32264
0.17458
0.338498
0.320599
0.124281
0.429188
0.651808
0.771717
0.605652
0.318552
0.225614
0.27498
0.265811
0.288355
0.328548
0.117407
0.125047
0.202521
0.396751
0.596863
0.628519
0.597394
0.503561
0.456547
0.402617
0.29076
0.243047
0.249309
0.227648
0.201824
0.189487
0.173706
0.171395
0.21491
0.253239
0.226572
9.36758e-15
5.33496e-14
7.65565e-14
1.01631e-13
4.30571e-14
1.74487e-13
4.36602e-14
1.27791e-13
9.8999e-14
2.99122e-14
8.58073e-14
1.01155e-14
6.11364e-14
1.33438e-13
2.9827e-13
2.50898e-13
2.82428e-13
3.05243e-13
2.59294e-13
2.21391e-13
1.26673e-13
1.62486e-12
3.08516e-10
2.29185e-10
6.04306e-10
2.30888e-07
4.88749e-08
2.05462e-07
0.000413127
0.0043901
0.218882
0.874515
3.06865
7.40893
6.79447
12.6425
13.8909
13.7341
11.6996
7.55024
8.22239
1.99962
0.992554
1.29143
2.04819
1.0793
0.459982
0.267801
0.396307
0.275847
0.262638
0.320664
0.402294
0.333514
0.137173
0.26302
0.401366
0.297045
0.253179
0.244101
0.150887
0.221668
0.334522
0.388439
0.395823
0.320012
0.277876
0.253429
0.336538
0.359762
0.344663
0.34496
0.33737
0.299578
0.279501
0.278248
0.218662
0.209429
0.212039
0.230213
3.74703e-14
1.88763e-14
3.79809e-14
3.82487e-14
7.70147e-14
5.4839e-14
3.51405e-13
7.92526e-14
9.75057e-14
5.64029e-14
1.34735e-13
8.15534e-14
7.96047e-16
1.89267e-13
1.25801e-13
1.71816e-13
8.65552e-14
1.95014e-13
1.34803e-13
2.56165e-13
1.99555e-13
1.63608e-13
3.30708e-13
3.57335e-13
4.77153e-13
4.19219e-12
6.11677e-11
1.66854e-10
2.276e-07
8.3399e-08
3.48594e-06
0.00102891
0.00166257
0.183799
0.556772
3.2815
7.6637
7.84767
13.0195
13.1767
14.0396
11.4329
8.10374
6.61649
3.556
1.91453
1.1653
0.602649
0.667544
0.695516
0.546092
0.499214
0.298416
0.155385
0.432221
0.431817
0.344052
0.444675
0.300427
0.0717495
0.159343
0.386237
0.312882
0.377123
0.332079
0.0814754
0.0359114
0.0214475
0.144558
0.273482
0.388968
0.455015
0.417783
0.394773
0.347553
0.311203
0.331772
0.336571
0.355862
0.317441
9.36758e-15
3.88849e-14
9.49522e-15
7.70816e-14
1.29154e-13
6.20676e-14
2.92936e-14
4.91504e-14
4.94995e-14
1.3959e-13
1.2703e-13
1.27954e-13
4.55684e-14
1.31449e-13
1.27906e-13
5.20895e-14
1.83313e-13
8.72159e-14
1.13287e-13
1.37529e-13
1.30321e-13
1.92966e-13
1.8428e-13
1.93513e-13
9.9905e-14
2.46941e-13
1.36687e-13
6.55837e-13
1.57661e-10
1.57615e-10
1.76002e-09
4.50657e-06
2.37583e-06
8.79543e-06
0.000986865
0.00435895
0.222999
0.784596
3.86008
6.58854
7.58562
13.9837
14.4366
13.4451
9.75108
10.0967
3.27278
1.64704
1.22607
2.16154
2.06603
1.03561
0.494139
0.312298
0.378928
0.273093
0.0683192
0.349815
0.353932
0.110093
0.243975
0.475765
0.49604
0.237835
0.279003
0.211645
0.0773383
0.0496554
0.0916508
0.237976
0.286981
0.350186
0.353472
0.302908
0.300699
0.287577
0.384023
0.384144
0.437741
0.496359
9.36758e-14
3.88919e-14
1.02267e-13
8.55104e-14
8.22513e-14
4.84726e-14
1.1875e-13
9.83007e-14
3.95996e-14
6.38438e-14
1.34735e-13
5.06019e-14
8.21496e-14
0
1.7334e-13
1.95735e-13
3.14895e-13
1.12428e-13
7.68658e-14
1.21501e-13
6.49563e-14
1.70374e-13
1.76241e-13
2.08185e-13
1.41282e-13
5.03618e-14
2.31521e-13
1.94558e-13
4.68582e-13
1.91907e-13
1.67907e-11
2.28556e-09
1.11988e-09
6.19459e-08
1.09447e-05
3.28416e-05
3.33353e-05
0.00102364
0.0169316
0.21106
0.895706
4.99421
7.03387
9.5508
12.6019
14.8389
13.1619
8.86809
8.60971
3.60689
2.30933
1.93023
0.841369
0.634924
0.757721
0.610188
0.810246
0.776234
0.438827
0.0606426
0.563447
0.571143
0.406392
0.28442
0.357665
0.202129
0.0705191
0.192834
0.176581
0.208685
0.147241
0.104135
0.11901
0.136393
0.165316
0.205739
0.264494
0.302606
0.314897
0.400076
7.55238e-14
3.77311e-14
3.91498e-14
8.55104e-14
7.76104e-14
1.94015e-14
4.88121e-14
1.21594e-13
7.91992e-14
1.62312e-13
8.03405e-14
3.03875e-14
1.01894e-14
8.27585e-14
5.84953e-14
2.53692e-13
1.52838e-13
3.50289e-13
2.57761e-13
9.60524e-14
1.4721e-13
0
3.39369e-13
1.25373e-13
3.90127e-13
3.18472e-13
4.08802e-13
4.79169e-13
3.77987e-13
6.99684e-13
5.90067e-13
2.12271e-11
7.19068e-12
1.16894e-09
2.59312e-08
6.3641e-07
3.65761e-07
2.99736e-05
3.32079e-05
3.35189e-05
0.000842076
0.0525
0.330456
1.69986
5.32723
6.04573
13.2629
14.145
14.5028
10.7162
9.7954
5.01579
1.68598
1.00093
1.32682
2.24003
1.8586
1.12604
0.467667
0.471463
0.622677
0.373394
0.145115
0.514136
0.407178
0.345445
0.208511
0.319861
0.263528
0.157909
0.0445219
0.0940555
0.0267494
0.0654235
0.155442
0.204527
0.171631
0.237505
0.235094
0.182669
3.74703e-14
3.77311e-14
3.79881e-14
3.82414e-14
7.70111e-14
9.69334e-15
8.73104e-14
8.39882e-14
9.75027e-14
1.99566e-14
8.09695e-14
4.04695e-14
3.05786e-14
1.37712e-13
4.26431e-14
5.20958e-14
1.11581e-13
9.97738e-14
9.10562e-14
1.93302e-13
8.72569e-14
2.54394e-13
1.16861e-13
3.25888e-13
1.34496e-13
6.36996e-14
1.47566e-13
1.66636e-13
3.23099e-13
1.629e-13
2.25393e-13
1.98361e-13
2.1349e-13
6.91067e-12
5.26252e-10
1.34488e-09
9.28808e-09
3.24035e-08
2.04595e-07
6.09453e-07
2.53563e-05
8.86787e-06
0.000277475
0.00217381
0.103618
0.461386
3.8062
6.82961
8.12229
12.7213
14.4802
13.0407
10.0398
8.69545
2.9924
2.55401
2.2356
0.741915
0.613423
0.578052
0.550475
0.555757
0.842403
0.874095
0.676556
0.165575
0.429759
0.372029
0.30818
0.154521
0.177139
0.1884
0.0846723
0.0680382
0.120485
0.0917124
0.0769749
0.121308
0.068124
0.101592
4.18931e-14
3.77239e-14
9.49522e-14
3.94183e-14
6.94168e-14
4.33499e-14
3.90449e-14
1.1959e-13
5.93994e-14
8.22244e-14
5.0219e-14
0
4.20195e-14
3.08038e-14
8.33725e-14
8.39957e-14
1.18753e-13
1.19657e-13
2.142e-13
6.87631e-14
1.26673e-13
1.15944e-13
3.29793e-13
1.419e-13
4.19704e-13
3.84806e-13
4.55325e-13
3.53298e-13
4.23191e-13
7.47939e-13
7.01757e-13
4.90896e-13
2.87419e-13
4.36017e-13
4.19397e-13
3.79491e-11
1.09281e-11
1.31202e-09
6.78893e-11
2.66515e-09
2.69902e-08
9.08751e-08
1.29289e-05
3.00026e-05
2.0474e-05
0.000252058
0.0320175
0.310573
1.24718
5.35505
6.2777
12.2068
14.9402
14.5218
10.3804
9.79328
4.93261
1.36991
0.697532
0.243024
0.568657
1.70687
1.63193
1.07626
0.587919
0.529522
0.50837
0.165047
0.244699
0.483635
0.419963
0.292884
0.154099
0.0797955
0.0809087
0.081635
0.116518
0.127043
0.127475
0.19343
1.09645e-13
2.35774e-14
3.79881e-14
0
1.44396e-14
6.20723e-14
5.52178e-14
6.39001e-14
6.93036e-14
1.64441e-13
1.66312e-13
3.03464e-14
4.20195e-14
1.26967e-13
9.24927e-14
1.96082e-13
3.01714e-13
1.37491e-13
1.17226e-13
4.29559e-14
1.62786e-13
1.37965e-13
9.34453e-14
3.10452e-13
2.99339e-13
1.79538e-13
4.13386e-13
3.00403e-13
3.46177e-13
2.38528e-13
4.71681e-13
4.43742e-13
2.5492e-13
1.92976e-13
2.55353e-13
2.47723e-13
4.03522e-13
7.55565e-13
2.63907e-11
9.41857e-11
2.66435e-10
2.86212e-09
1.35462e-08
1.30506e-06
1.10302e-06
2.12594e-05
1.32613e-05
0.000160814
0.00317483
0.132482
0.471635
4.15963
7.27677
9.32701
13.5996
13.8951
11.1436
11.1507
7.07515
1.31102
0.972823
1.17342
0.613239
0.318806
0.619926
0.745524
0.277568
0.413784
0.677618
0.670699
0.667965
0.356356
0.255292
0.123324
0.108857
0.215476
0.233375
0.219631
0.105722
0.0402411
1.03043e-13
4.24394e-14
6.64707e-14
4.78076e-14
1.44591e-14
4.362e-14
5.36922e-14
4.05377e-14
9.93006e-15
2.49268e-14
9.03967e-14
3.03566e-14
4.07654e-14
5.13285e-14
6.62171e-14
4.29618e-14
4.72621e-14
8.52665e-14
5.32909e-14
1.32834e-13
8.45498e-16
4.4971e-14
4.69939e-14
9.41882e-14
1.45201e-13
2.70762e-13
2.76187e-13
3.97479e-13
5.66979e-13
7.78473e-13
7.50966e-13
4.5496e-13
3.80594e-13
3.17799e-13
2.44061e-13
2.96268e-13
3.46513e-13
4.50413e-13
4.56434e-13
2.52879e-12
5.42296e-12
1.35597e-12
8.33522e-10
1.97567e-10
4.23153e-08
4.88408e-08
9.62699e-08
2.00067e-05
1.75339e-05
7.58969e-05
0.000274553
0.059124
0.509458
2.55246
7.04679
7.50686
12.1728
16.1858
13.2899
8.47509
10.8632
3.81886
0.895372
1.0668
1.16912
0.752606
0.134929
0.856988
1.21941
0.986671
0.442496
0.492215
0.317949
0.0387837
0.380131
0.600555
0.393608
0.223992
0.0897744
0.120856
7.55238e-14
8.95972e-14
5.2229e-14
4.51023e-14
4.81378e-14
9.20991e-14
9.27348e-14
1.47651e-14
4.08256e-14
8.51934e-14
1.00426e-14
1.02382e-14
4.35364e-14
5.13285e-14
4.87832e-14
1.09391e-13
5.77533e-14
4.51807e-14
5.86364e-14
5.36949e-14
1.36904e-13
8.52115e-16
5.18828e-14
5.54295e-14
2.79232e-14
1.13961e-14
9.51407e-14
1.25511e-13
5.44377e-14
1.6384e-13
4.70255e-13
3.35584e-13
2.42316e-13
6.01876e-14
1.82136e-14
7.96249e-14
1.27384e-13
1.7982e-13
9.07215e-14
1.19267e-13
1.40496e-13
3.14624e-13
1.61023e-12
6.12658e-12
1.91165e-11
1.62152e-10
2.40858e-09
3.85825e-08
3.99596e-07
3.96406e-06
9.10958e-06
1.02191e-05
0.0004509