/*--------------------------------*- C++ -*----------------------------------*\
| =========                 |                                                 |
| \\      /  F ield         | OpenFOAM: The Open Source CFD Toolbox           |
|  \\    /   O peration     | Version:  v1912                                 |
|   \\  /    A nd           | Website:  www.openfoam.com                      |
|    \\/     M anipulation  |                                                 |
\*---------------------------------------------------------------------------*/
FoamFile
{
    version     2.0;
    format      ascii;
    class       volScalarField;
    location    "0.12";
    object      normRho;
}
// * * * * * * * * * * * * * * * * * * * * * * * * * * * * * * * * * * * * * //

dimensions      [0 -1 0 0 0 0 0];


internalField   nonuniform List<scalar> 
4800
(
0
0
3.33391e-14
3.33391e-14
3.33391e-14
3.33391e-14
3.33391e-14
4.71486e-14
0
3.33391e-14
0
3.33391e-14
0
0
0
0
4.71486e-14
0
3.33391e-14
0
0
0
3.33391e-14
0
0
3.33391e-14
3.33391e-14
0
0
0
0
0
0
0
0
3.33391e-14
3.33391e-14
7.45485e-14
0
23.3406
6.66782e-14
3.33391e-14
6.66782e-14
3.33391e-14
0
3.33391e-14
0
3.33391e-14
3.33391e-14
3.33391e-14
3.33391e-14
0
3.33391e-14
3.33391e-14
4.71486e-14
3.33391e-14
3.33391e-14
3.33391e-14
3.33391e-14
3.33391e-14
0
0
4.71486e-14
3.33391e-14
4.71486e-14
3.33391e-14
3.33391e-14
3.33391e-14
0
3.33391e-14
4.71486e-14
0
0
0
0
0
0
3.33391e-14
3.33391e-14
1.28903e-05
0
6.66782e-14
0
0
0
0
6.66782e-14
7.45485e-14
7.45485e-14
0
0
7.45485e-14
7.45485e-14
0
6.66782e-14
6.66782e-14
0
0
0
7.45485e-14
7.45485e-14
7.45485e-14
0
0
3.33391e-14
0
6.66782e-14
6.66782e-14
6.66782e-14
0
3.33391e-14
0
0
0
0
0
6.66782e-14
3.33391e-14
0
1.09021e-11
3.33391e-14
3.33391e-14
0
3.33391e-14
3.33391e-14
3.33391e-14
3.33391e-14
0
3.33391e-14
3.33391e-14
3.33391e-14
3.33391e-14
0
0
4.71486e-14
3.33391e-14
3.33391e-14
3.33391e-14
3.33391e-14
0
3.33391e-14
3.33391e-14
3.33391e-14
0
3.33391e-14
4.71486e-14
3.33391e-14
4.71486e-14
3.33391e-14
0
4.71486e-14
3.33391e-14
3.33391e-14
0
0
0
0
3.33391e-14
1.00017e-13
3.35054e-13
3.33391e-14
0
7.45485e-14
3.33391e-14
0
0
0
4.71486e-14
4.71486e-14
0
0
7.45485e-14
3.33391e-14
3.33391e-14
3.33391e-14
0
4.71486e-14
3.33391e-14
3.33391e-14
0
0
0
0
4.71486e-14
3.33391e-14
3.33391e-14
3.33391e-14
0
3.33391e-14
0
3.33391e-14
0
0
3.33391e-14
0
0
3.33391e-14
3.33391e-14
0
6.66782e-14
3.33391e-14
3.33391e-14
6.66782e-14
3.33391e-14
0
3.33391e-14
4.71486e-14
0
4.71486e-14
3.33391e-14
4.71486e-14
3.33391e-14
3.33391e-14
0
0
3.33391e-14
3.33391e-14
4.71486e-14
0
4.71486e-14
3.33391e-14
3.33391e-14
3.33391e-14
0
0
3.33391e-14
0
3.33391e-14
3.33391e-14
0
0
3.33391e-14
0
4.71486e-14
0
3.33391e-14
0
3.33391e-14
0
3.33391e-14
3.33391e-14
1.00017e-13
3.33391e-14
1.05427e-13
3.33391e-14
0
0
4.71486e-14
3.33391e-14
0
0
0
3.33391e-14
0
3.33391e-14
0
0
0
3.33391e-14
3.33391e-14
0
3.33391e-14
3.33391e-14
0
3.33391e-14
4.71486e-14
3.33391e-14
0
0
0
3.33391e-14
3.33391e-14
3.33391e-14
0
0
0
4.71486e-14
0
3.33391e-14
0
3.33391e-14
0
4.71486e-14
3.33391e-14
0
0
0
3.33391e-14
4.71486e-14
4.71486e-14
0
4.71486e-14
0
3.33391e-14
3.33391e-14
4.71486e-14
3.33391e-14
4.71486e-14
4.71486e-14
0
0
3.33391e-14
3.33391e-14
0
0
3.33391e-14
0
0
0
0
3.33391e-14
3.33391e-14
0
0
0
0
0
3.33391e-14
3.33391e-14
3.33391e-14
0
3.33391e-14
0
0
3.33391e-14
3.33391e-14
3.33391e-14
0
3.33391e-14
0
3.33391e-14
0
0
0
0
0
0
3.33391e-14
3.33391e-14
4.71486e-14
3.33391e-14
0
0
4.71486e-14
6.66782e-14
4.71486e-14
3.33391e-14
0
0
0
6.66782e-14
3.33391e-14
3.33391e-14
0
0
0
0
3.33391e-14
0
0
3.33391e-14
4.71486e-14
6.66782e-14
3.33391e-14
0
3.33391e-14
3.33391e-14
6.66782e-14
0
7.45485e-14
3.33391e-14
0
3.33391e-14
0
3.33391e-14
0
0
3.33391e-14
3.33391e-14
3.33391e-14
3.33391e-14
0
4.71486e-14
3.33391e-14
4.71486e-14
3.33391e-14
3.33391e-14
0
4.71486e-14
3.33391e-14
3.33391e-14
3.33391e-14
0
0
3.33391e-14
3.33391e-14
3.33391e-14
4.71486e-14
3.33391e-14
0
3.33391e-14
0
0
4.71486e-14
0
3.33391e-14
3.33391e-14
3.33391e-14
1.20206e-13
4.71486e-14
3.33391e-14
7.45485e-14
3.33391e-14
3.33391e-14
3.33391e-14
0
6.66782e-14
0
1.00017e-13
0
0
1.00017e-13
0
6.66782e-14
3.33391e-14
4.71486e-14
3.33391e-14
3.33391e-14
0
3.33391e-14
3.33391e-14
3.33391e-14
0
0
4.71486e-14
4.71486e-14
0
3.33391e-14
3.33391e-14
0
3.33391e-14
3.33391e-14
1.00017e-13
0
0
3.33391e-14
3.33391e-14
3.33391e-14
4.71486e-14
4.71486e-14
4.71486e-14
3.33391e-14
4.71486e-14
3.33391e-14
4.71486e-14
0
0
3.33391e-14
3.33391e-14
0
4.71486e-14
0
3.33391e-14
0
6.66782e-14
0
0
3.33391e-14
0
0
4.71486e-14
3.33391e-14
0
0
0
0
3.33391e-14
3.33391e-14
3.33391e-14
3.33391e-14
0
6.66782e-14
3.33391e-14
1.00017e-13
3.33391e-14
0
0
0
0
3.33391e-14
0
0
0
0
3.33391e-14
3.33391e-14
0
3.33391e-14
0
3.33391e-14
0
0
3.33391e-14
0
4.71486e-14
4.71486e-14
0
3.33391e-14
4.71486e-14
0
3.33391e-14
0
0
0
0
3.33391e-14
0
3.33391e-14
3.33391e-14
4.71486e-14
3.33391e-14
3.33391e-14
4.71486e-14
7.45485e-14
0
1.05427e-13
0
3.33391e-14
3.33391e-14
0
3.33391e-14
3.33391e-14
4.71486e-14
3.33391e-14
1.00017e-13
6.66782e-14
1.00017e-13
0
0
3.33391e-14
3.33391e-14
0
3.33391e-14
3.33391e-14
3.33391e-14
3.33391e-14
0
4.71486e-14
4.71486e-14
3.33391e-14
4.71486e-14
0
0
0
4.71486e-14
0
0
0
0
6.66782e-14
0
0
7.45485e-14
3.33391e-14
3.33391e-14
0
0
7.45485e-14
0
3.33391e-14
0
6.66782e-14
0
3.33391e-14
6.66782e-14
6.66782e-14
6.66782e-14
0
3.33391e-14
0
3.33391e-14
3.33391e-14
3.33391e-14
3.33391e-14
3.33391e-14
4.71486e-14
3.33391e-14
4.71486e-14
3.33391e-14
3.33391e-14
0
3.33391e-14
0
0
4.71486e-14
3.33391e-14
0
4.71486e-14
3.33391e-14
6.66782e-14
4.71486e-14
3.33391e-14
3.33391e-14
3.33391e-14
3.33391e-14
3.33391e-14
3.33391e-14
0
4.71486e-14
3.33391e-14
4.71486e-14
0
3.33391e-14
3.33391e-14
3.33391e-14
0
3.33391e-14
3.33391e-14
3.33391e-14
4.71486e-14
4.71486e-14
3.33391e-14
3.33391e-14
0
3.33391e-14
4.71486e-14
0
3.33391e-14
4.71486e-14
0
3.33391e-14
0
0
0
0
3.33391e-14
0
0
0
0
0
4.71486e-14
0
1.05427e-13
6.66782e-14
4.71486e-14
4.71486e-14
0
3.33391e-14
3.33391e-14
4.71486e-14
3.33391e-14
4.71486e-14
0
1.37461e-13
6.66782e-14
6.66782e-14
7.45485e-14
3.33391e-14
3.33391e-14
3.33391e-14
0
3.33391e-14
3.33391e-14
0
3.33391e-14
0
0
3.33391e-14
0
3.33391e-14
3.33391e-14
0
3.33391e-14
0
0
4.71486e-14
4.71486e-14
4.71486e-14
6.66782e-14
7.45485e-14
4.71486e-14
0
0
6.66782e-14
3.33391e-14
0
0
0
0
3.33391e-14
0
3.33391e-14
3.33391e-14
3.33391e-14
3.33391e-14
3.33391e-14
0
0
0
0
3.33391e-14
3.33391e-14
3.33391e-14
3.33391e-14
4.71486e-14
3.33391e-14
4.71486e-14
3.33391e-14
0
0
4.71486e-14
1.00017e-13
3.33391e-14
7.45485e-14
4.71486e-14
0
0
3.33391e-14
7.45485e-14
3.33391e-14
0
6.66782e-14
0
6.66782e-14
3.33391e-14
3.33391e-14
1.05427e-13
3.33391e-14
0
3.33391e-14
1.00017e-13
0
0
0
0
3.33391e-14
0
0
6.66782e-14
6.66782e-14
4.71486e-14
0
3.33391e-14
0
3.33391e-14
4.71486e-14
3.33391e-14
0
0
0
0
3.33391e-14
9.42972e-14
1.00017e-13
0
1.05427e-13
6.66782e-14
4.71486e-14
3.33391e-14
4.71486e-14
3.33391e-14
6.66782e-14
3.33391e-14
3.33391e-14
0
1.05427e-13
3.33391e-14
6.66782e-14
0
6.66782e-14
0
7.45485e-14
3.33391e-14
0
0
3.33391e-14
0
0
0
1.05427e-13
4.71486e-14
6.66782e-14
4.71486e-14
3.33391e-14
3.33391e-14
0
4.71486e-14
0
0
0
3.33391e-14
3.33391e-14
3.33391e-14
4.71486e-14
3.33391e-14
3.33391e-14
4.71486e-14
0
0
3.33391e-14
0
0
0
0
0
0
6.66782e-14
3.33391e-14
3.33391e-14
0
3.33391e-14
3.33391e-14
3.33391e-14
3.33391e-14
3.33391e-14
3.33391e-14
3.33391e-14
0
3.33391e-14
3.33391e-14
0
0
3.33391e-14
0
0
3.33391e-14
0
3.33391e-14
0
3.33391e-14
0
0
3.33391e-14
3.33391e-14
0
3.33391e-14
4.71486e-14
4.71486e-14
3.33391e-14
0
0
6.66782e-14
0
0
0
1.00017e-13
7.45485e-14
6.66782e-14
3.33391e-14
7.45485e-14
6.66782e-14
7.45485e-14
3.33391e-14
3.33391e-14
3.33391e-14
3.33391e-14
3.33391e-14
0
3.33391e-14
1.00017e-13
4.71486e-14
7.45485e-14
4.71486e-14
3.33391e-14
3.33391e-14
3.33391e-14
0
3.33391e-14
7.45485e-14
4.71486e-14
3.33391e-14
4.71486e-14
7.45485e-14
7.45485e-14
0
0
4.71486e-14
7.45485e-14
3.33391e-14
6.66782e-14
3.33391e-14
0
3.33391e-14
0
0
0
1.00017e-13
0
4.71486e-14
0
7.45485e-14
0
3.33391e-14
6.66782e-14
6.66782e-14
3.33391e-14
0
3.33391e-14
3.33391e-14
0
4.71486e-14
6.66782e-14
7.45485e-14
3.33391e-14
4.71486e-14
6.66782e-14
1.66695e-13
1.37461e-13
9.42972e-14
1.79536e-13
4.71486e-14
3.33391e-14
6.66782e-14
3.33391e-14
3.33391e-14
0
3.33391e-14
3.33391e-14
4.71486e-14
3.33391e-14
3.33391e-14
6.66782e-14
0
0
3.33391e-14
3.33391e-14
3.33391e-14
3.33391e-14
3.33391e-14
0
0
3.33391e-14
0
3.33391e-14
0
0
3.33391e-14
4.71486e-14
3.33391e-14
3.33391e-14
0
4.71486e-14
3.33391e-14
3.33391e-14
4.71486e-14
1.49097e-13
4.71486e-14
9.42972e-14
1.05427e-13
7.45485e-14
1.37461e-13
0
0
0
0
3.33391e-14
3.33391e-14
6.66782e-14
0
1.05427e-13
3.33391e-14
3.33391e-14
3.33391e-14
4.71486e-14
3.33391e-14
3.33391e-14
3.33391e-14
0
3.33391e-14
3.33391e-14
4.71486e-14
3.33391e-14
2.66713e-13
2.68788e-13
1.66695e-13
1.05427e-13
4.71486e-14
3.33391e-14
3.33391e-14
3.33391e-14
0
3.33391e-14
3.33391e-14
6.66782e-14
4.71486e-14
1.05427e-13
1.37461e-13
6.66782e-14
1.66695e-13
2.66713e-13
0
3.33391e-14
3.33391e-14
4.71486e-14
3.33391e-14
3.33391e-14
3.33391e-14
3.33391e-14
0
4.71486e-14
4.71486e-14
3.33391e-14
6.66782e-14
6.66782e-14
4.71486e-14
4.71486e-14
1.37461e-13
3.33391e-14
3.33391e-14
4.71486e-14
1.05427e-13
2.66713e-13
2.00035e-13
1.33356e-13
1.37461e-13
1.66695e-13
1.00017e-13
3.33391e-14
6.66782e-14
1.00017e-13
1.00017e-13
0
3.33391e-14
4.71486e-14
4.71486e-14
3.33391e-14
3.33391e-14
1.37461e-13
1.05427e-13
1.00017e-13
1.33356e-13
0
0
0
0
4.71486e-14
3.33391e-14
4.71486e-14
7.45485e-14
3.33391e-14
0
0
3.33391e-14
3.33391e-14
0
1.05427e-13
7.45485e-14
6.66782e-14
0
6.66782e-14
0
7.45485e-14
3.00052e-13
2.66713e-13
1.66695e-13
1.33356e-13
3.33391e-14
0
0
1.05427e-13
1.05427e-13
6.66782e-14
0
0
4.71486e-14
3.33391e-14
3.33391e-14
0
1.05427e-13
1.37461e-13
3.33391e-14
0
3.33391e-14
4.71486e-14
3.33391e-14
0
3.33391e-14
3.33391e-14
0
0
0
0
0
0
0
0
3.33391e-14
3.33391e-14
0
3.33391e-14
1.00017e-13
3.33391e-14
0
3.33391e-14
3.33391e-14
0
3.33391e-14
3.33391e-14
0
0
3.33391e-14
0
3.33391e-14
0
0
3.33391e-14
0
0
0
3.33391e-14
0
0
0
0
0
4.71486e-14
4.71486e-14
4.71486e-14
4.71486e-14
0
3.33391e-14
0
0
0
3.33391e-14
3.33391e-14
0
3.33391e-14
0
0
0
0
3.33391e-14
0
0
3.33391e-14
3.33391e-14
0
0
3.33391e-14
3.33391e-14
0
3.33391e-14
3.33391e-14
3.33391e-14
3.33391e-14
3.33391e-14
3.33391e-14
3.33391e-14
0
4.71486e-14
0
3.33391e-14
4.71486e-14
4.71486e-14
3.33391e-14
6.66782e-14
0
3.33391e-14
3.33391e-14
0
3.33391e-14
3.33391e-14
3.33391e-14
7.45485e-14
6.66782e-14
6.66782e-14
6.66782e-14
3.33391e-14
0
0
0
0
3.33391e-14
0
3.33391e-14
3.33391e-14
1.00017e-13
0
3.33391e-14
0
0
4.71486e-14
0
3.33391e-14
0
0
3.33391e-14
3.33391e-14
0
0
0
0
0
0
3.33391e-14
0
4.71486e-14
3.33391e-14
3.33391e-14
3.33391e-14
1.00017e-13
3.33391e-14
4.71486e-14
4.71486e-14
7.45485e-14
0
1.00017e-13
3.33391e-14
3.33391e-14
0
3.33391e-14
6.66782e-14
6.66782e-14
4.71486e-14
3.33391e-14
4.71486e-14
7.45485e-14
7.45485e-14
3.33391e-14
0
3.33391e-14
3.33391e-14
0
6.66782e-14
3.33391e-14
3.33391e-14
4.71486e-14
4.71486e-14
0
0
3.33391e-14
0
0
3.33391e-14
0
7.45485e-14
3.33391e-14
3.33391e-14
4.71486e-14
3.33391e-14
0
4.71486e-14
0
4.71486e-14
0
3.33391e-14
0
0
3.33391e-14
3.33391e-14
0
3.33391e-14
1.00017e-13
3.33391e-14
4.71486e-14
0
3.33391e-14
0
0
4.71486e-14
0
3.33391e-14
3.33391e-14
3.33391e-14
4.71486e-14
0
0
0
0
0
0
0
3.33391e-14
3.33391e-14
3.33391e-14
3.33391e-14
0
6.66782e-14
4.71486e-14
4.71486e-14
0
0
0
0
1.05427e-13
3.33391e-14
6.66782e-14
3.33391e-14
1.00017e-13
3.33391e-14
7.45485e-14
3.33391e-14
0
0
0
0
0
0
6.66782e-14
0
1.05427e-13
3.33391e-14
3.33391e-14
3.33391e-14
4.71486e-14
0
3.33391e-14
3.33391e-14
0
3.33391e-14
0
3.33391e-14
3.33391e-14
0
3.33391e-14
7.45485e-14
0
7.45485e-14
4.71486e-14
0
3.33391e-14
3.33391e-14
3.33391e-14
3.33391e-14
0
4.71486e-14
3.33391e-14
6.66782e-14
6.66782e-14
4.71486e-14
3.33391e-14
0
0
0
3.33391e-14
0
0
0
0
3.33391e-14
3.33391e-14
3.33391e-14
3.33391e-14
4.71486e-14
3.33391e-14
3.33391e-14
0
4.71486e-14
6.66782e-14
0
0
3.33391e-14
3.33391e-14
0
4.71486e-14
3.33391e-14
3.33391e-14
3.33391e-14
3.33391e-14
3.33391e-14
6.66782e-14
0
3.33391e-14
0
3.33391e-14
0
0
3.33391e-14
3.33391e-14
0
0
0
0
3.33391e-14
0
0
0
0
0
0
3.33391e-14
0
7.45485e-14
3.33391e-14
7.45485e-14
4.71486e-14
0
3.33391e-14
0
6.66782e-14
3.33391e-14
3.33391e-14
0
0
4.71486e-14
4.71486e-14
7.45485e-14
7.45485e-14
0
1.00017e-13
3.33391e-14
6.66782e-14
0
0
0
0
0
0
0
0
3.33391e-14
0
4.71486e-14
0
0
0
0
0
3.33391e-14
0
4.71486e-14
4.71486e-14
3.33391e-14
4.71486e-14
7.45485e-14
0
0
0
3.33391e-14
3.33391e-14
3.33391e-14
3.33391e-14
0
3.33391e-14
3.33391e-14
3.33391e-14
6.66782e-14
3.33391e-14
3.33391e-14
0
6.66782e-14
0
0
0
0
0
0
3.33391e-14
3.33391e-14
0
0
3.33391e-14
0
4.71486e-14
0
0
0
3.33391e-14
0
0
0
4.71486e-14
3.33391e-14
0
3.33391e-14
7.45485e-14
3.33391e-14
3.33391e-14
3.33391e-14
3.33391e-14
4.71486e-14
3.33391e-14
0
0
3.33391e-14
3.33391e-14
4.71486e-14
0
0
0
0
0
0
0
0
1.00017e-13
3.33391e-14
6.66782e-14
6.66782e-14
1.05427e-13
3.33391e-14
0
3.33391e-14
6.66782e-14
3.33391e-14
0
0
0
3.33391e-14
1.00017e-13
4.71486e-14
3.33391e-14
3.33391e-14
3.33391e-14
3.33391e-14
4.71486e-14
6.66782e-14
3.33391e-14
3.33391e-14
0
0
0
0
3.33391e-14
4.71486e-14
3.33391e-14
3.33391e-14
6.66782e-14
0
0
0
0
0
0
1.00017e-13
7.45485e-14
6.66782e-14
3.33391e-14
7.45485e-14
6.66782e-14
6.66782e-14
3.33391e-14
1.00017e-13
6.66782e-14
1.00017e-13
0
0
0
1.00017e-13
7.45485e-14
6.66782e-14
6.66782e-14
0
3.33391e-14
1.05427e-13
0
0
3.33391e-14
0
0
3.33391e-14
3.33391e-14
0
4.71486e-14
4.71486e-14
0
0
7.45485e-14
3.33391e-14
0
0
0
0
0
0
3.33391e-14
0
0
0
3.33391e-14
0
0
0
1.00017e-13
0
0
0
0
0
3.33391e-14
3.33391e-14
6.66782e-14
6.66782e-14
4.71486e-14
3.33391e-14
3.33391e-14
0
3.33391e-14
0
0
3.33391e-14
0
0
3.33391e-14
4.71486e-14
0
4.71486e-14
0
57.7206
73.7013
80.8997
85.047
92.0157
94.1316
87.1136
81.0532
83.0894
78.5013
63.4289
56.4556
49.1005
40.0937
32.3052
26.6418
20.3396
13.0899
13.9048
15.6471
13.2141
10.8463
11.6321
12.3609
8.99726
5.71468
4.42856
3.27481
2.38591
2.15782
1.97241
1.97152
1.79634
1.31705
1.36112
1.96835
2.54349
2.23964
1.59999
1.27869
1.04602
0.96299
0.873535
0.968551
0.859365
0.567926
1.07514
2.02248
2.29263
2.21233
1.63672
0.971579
0.634588
0.83197
1.52234
2.14994
2.0035
1.60746
1.22435
0.971864
1.83201
2.83844
3.06658
2.99132
2.8143
2.1316
1.24342
0.607468
0.819575
1.31074
1.75208
2.12645
1.94799
1.48035
1.14225
0.8131
1.26395
2.24813
2.3947
2.22906
24.1718
60.3579
102.26
138.944
175.575
216.708
228.824
215.832
214.66
220.584
192.204
170.316
150.938
123.787
97.2181
68.0858
39.3913
14.1167
3.75348
12.7275
18.3779
18.2869
17.9711
18.7624
16.5597
9.51709
2.02487
1.38549
3.76958
4.35574
4.19352
4.06102
3.80706
2.59909
2.27175
2.84588
4.22439
5.20847
5.17526
4.63521
3.16606
1.29053
0.338764
0.379099
0.514068
0.464106
0.816625
2.39461
3.65913
4.21297
4.45469
4.10134
3.13013
1.77705
0.368651
1.02328
1.80852
1.93007
1.77376
1.14406
0.201821
2.28184
3.99127
5.0439
5.53924
5.32048
4.53971
2.95192
0.707512
0.689656
1.34181
1.99779
2.33647
2.09471
1.73643
1.2273
0.334839
1.48323
2.92422
3.42239
1.32839e-05
0.0883061
0.179602
3.34274
6.31872
12.2759
29.4059
54.5328
75.5912
106.381
144.444
164.495
184.876
178.96
163.873
137.59
107.791
83.5732
53.2252
33.4446
14.5773
4.99323
3.53995
4.20501
7.42175
9.50314
5.58685
3.51097
3.84265
1.94745
0.515033
1.45382
2.7236
3.36276
3.99301
5.2381
6.0395
6.65261
7.04772
6.73977
5.78946
3.83369
2.21253
1.56223
1.41845
1.45923
1.88815
2.5741
3.18557
3.64459
4.33492
5.04696
5.17207
4.31523
2.99718
2.00557
1.11575
0.456928
0.331293
0.512363
0.977405
1.61252
2.51049
3.36478
3.93154
4.22295
4.63413
4.74686
3.62485
2.00248
1.18431
0.692465
0.270647
0.213194
0.080102
0.243856
0.685563
1.29787
1.90305
2.52979
4.13847e-10
2.42665e-07
5.51035e-09
1.71045e-06
9.95579e-07
0.000671447
3.58932e-05
0.00176242
0.056392
0.810206
6.76047
18.3165
37.6837
77.8926
124.74
175.965
204.006
205.585
166.734
131.936
102.487
71.3069
48.0688
24.692
10.2298
0.77224
8.65118
8.57545
8.83947
8.43451
6.03459
2.99096
0.815866
2.72138
3.73291
4.44457
4.72625
4.774
5.05122
5.56916
6.34643
6.29626
5.07981
4.18133
3.75233
3.51667
3.17568
2.71013
2.40079
2.46775
2.44697
2.73156
3.70293
4.86305
5.32414
5.14492
4.70487
3.9529
3.15174
2.62843
2.32472
1.88181
1.53464
1.14293
1.17295
1.68772
2.13485
3.20275
4.48485
4.61025
4.20393
3.91965
3.55766
3.12284
2.79987
2.74795
2.78859
2.56873
2.36203
2.1282
5.48711e-13
4.32911e-10
1.78489e-09
2.41646e-09
1.80204e-09
2.66946e-08
6.9179e-08
7.46017e-08
1.26809e-06
6.78643e-07
1.42711e-06
3.69951e-06
0.0528191
0.186697
2.04713
12.9275
41.6135
87.8473
153.546
179.974
193.042
170.54
137.833
104.721
69.0213
46.5586
21.5251
12.2081
8.00566
3.7512
3.56939
3.78921
2.58259
1.98185
3.26859
3.75699
3.07629
1.95652
0.599541
1.29667
3.83186
5.94852
6.98947
7.05323
6.34349
5.17463
3.50449
1.68794
0.465258
0.187231
0.29972
0.0976173
0.647944
2.24364
3.88343
5.04875
5.87147
6.34837
6.03266
4.93379
3.36665
2.03349
0.90123
0.487157
0.667452
0.292115
0.370536
1.03497
2.1919
3.64968
4.73687
5.44504
5.85251
5.94832
5.81201
5.52349
4.83982
3.71179
2.63111
1.68399
1.0873e-13
5.69862e-13
3.47968e-12
7.64294e-13
2.15389e-13
5.39262e-12
2.0958e-11
7.98829e-11
3.12466e-10
9.35515e-11
4.92025e-10
4.01595e-10
2.75075e-07
1.08456e-06
6.09237e-06
6.48317e-05
0.0697479
0.418698
9.31929
33.9653
69.7143
128.027
170.752
200.185
179.879
152.404
117.869
82.961
56.6068
29.2932
16.3944
5.98765
3.9941
4.0705
5.2254
6.51145
6.83126
5.88489
4.04576
2.5589
0.751843
2.17108
4.04994
4.9984
5.35763
5.02867
4.13042
2.37133
0.766864
1.11777
1.35631
1.4566
1.70559
1.12982
1.31755
2.60467
3.46767
4.35417
5.23442
5.45804
4.41938
2.84978
1.57996
0.77124
0.164203
0.300182
0.178392
0.294553
1.2859
2.3681
3.2995
4.06346
4.48961
4.7508
4.97962
4.92871
4.55051
3.87586
2.86285
1.94265
2.50916e-14
1.28535e-13
3.39195e-14
2.5608e-14
4.29748e-14
1.4274e-13
2.85486e-13
2.94907e-13
1.13199e-13
3.7443e-13
2.53612e-13
6.32214e-13
4.53998e-10
3.50375e-09
6.32001e-09
5.30285e-08
7.51259e-05
5.71428e-05
9.07997e-06
0.0376632
0.0254426
5.23579
23.6208
54.8869
113.032
160.431
202.127
180.243
151.385
116.114
80.4497
53.2383
28.1032
19.0636
10.9128
4.11637
2.58998
2.22714
3.16637
5.04506
6.03389
5.26544
3.93048
2.16246
0.509477
2.25694
3.67056
4.57405
4.16022
2.51434
0.5429
0.440117
1.24792
2.5589
2.84492
1.90325
0.810514
0.258617
1.25737
2.36797
3.3286
3.41214
2.8645
2.07955
1.49305
1.06403
0.76901
0.771801
0.913321
0.922305
0.800856
0.854704
1.25859
1.46559
1.55542
1.70014
1.89851
2.178
2.45882
2.32434
3.44852e-14
3.369e-14
8.51024e-15
1.61059e-13
1.28927e-13
9.52051e-14
1.74474e-14
1.33972e-13
3.2417e-13
2.13659e-13
1.09086e-13
1.08758e-13
7.57294e-13
3.58572e-12
7.76606e-12
4.11959e-11
6.13336e-08
8.86308e-09
1.32657e-08
4.67535e-06
3.12404e-06
9.09947e-06
0.00608283
0.0551631
3.46393
15.772
43.2526
99.9841
153.961
200.895
183.718
160.952
125.323
91.7117
64.6123
36.8184
22.4333
8.96903
2.54644
2.71057
6.65538
7.83586
7.98112
6.58789
4.55989
1.96171
0.667898
2.55505
4.62426
5.38547
4.26631
2.39398
0.872035
0.969827
3.16511
4.34765
4.89486
4.76588
3.65669
2.04124
0.677646
1.39826
2.39176
2.875
3.08228
2.95693
2.67019
2.02563
0.769098
0.366635
1.04955
1.50286
1.61162
1.42811
1.24515
1.00155
0.688278
0.433922
0.981939
1.75312
5.85472e-14
1.0244e-13
1.98467e-13
7.29316e-14
1.33432e-13
8.16521e-14
3.23409e-13
1.65602e-13
3.20291e-13
3.10948e-13
2.33131e-13
5.05771e-13
7.33476e-13
7.37798e-13
9.74471e-13
1.23134e-12
4.85023e-11
9.70554e-12
1.15084e-11
2.31851e-10
5.76026e-10
3.67934e-09
1.05459e-05
8.39479e-07
5.87821e-06
0.00298313
0.077005
2.73966
11.9781
36.3833
93.5709
152.08
198.391
180.325
159.524
125.295
89.6919
58.0297
34.7113
23.2767
9.60908
1.78355
1.42964
3.09899
5.63201
7.28204
6.36922
4.20517
1.63561
1.69609
3.80408
4.46877
3.83684
2.70129
1.02515
1.51908
3.61091
4.99206
5.55176
5.22482
4.19372
2.94363
1.46457
0.57309
1.93599
2.46896
2.70675
2.5073
1.89797
1.17674
0.318701
0.799388
1.80201
2.23123
2.20268
1.84282
1.22624
0.355929
0.423202
1.43311
5.85472e-14
6.9437e-14
3.39195e-14
1.1097e-13
4.29814e-14
1.99065e-13
1.25697e-13
8.77682e-14
7.12636e-14
1.00719e-13
1.68468e-13
4.29073e-13
2.77292e-13
4.34621e-13
7.52843e-13
8.49258e-13
1.13831e-12
1.12302e-12
1.39076e-12
1.23463e-12
8.11905e-13
4.08012e-12
2.66345e-09
2.65171e-09
3.36419e-10
8.09705e-07
2.64668e-07
3.69077e-07
0.00262942
0.0561786
2.09342
9.77699
36.1791
90.4713
149.251
194.645
183.06
161.064
126.59
95.9278
64.0655
37.4812
21.3
8.59351
1.79231
5.42363
8.03008
8.62287
8.16842
6.07868
2.75317
0.420939
2.30058
3.76563
4.34103
3.64862
2.05921
0.046151
2.11173
3.63997
4.40309
4.7988
4.95373
4.22221
2.39346
0.765133
0.288481
0.81931
1.04112
1.06242
1.14833
0.926296
0.408456
0.424677
0.869962
0.824898
0.645626
0.64828
0.714719
0.403929
3.44852e-14
2.52722e-14
7.58281e-14
2.56189e-14
4.29814e-14
1.32111e-13
2.17885e-13
4.38841e-14
7.28937e-14
1.07199e-13
2.15197e-13
1.81533e-13
2.9801e-13
3.80195e-13
4.80453e-13
8.48442e-13
8.26625e-13
9.06561e-13
7.55532e-13
8.85457e-13
5.57436e-13
3.52876e-13
3.94567e-13
7.70469e-13
4.2404e-13
7.40949e-11
8.76687e-11
8.88674e-10
4.30041e-07
1.55398e-07
2.11575e-05
0.00635311
0.0255725
1.93568
8.04056
36.8131
94.4382
158.991
189.983
181.649
161.417
124.914
87.8034
55.1203
35.9406
18.4362
3.98094
2.63721
4.7637
6.22735
8.01096
7.49758
5.66804
2.44943
1.15115
3.5449
4.68133
4.12137
2.71904
1.53081
0.0856378
1.77999
3.32351
4.87686
5.04575
4.65456
4.15181
3.52969
2.63976
1.52234
0.189731
0.731274
1.25556
1.33641
1.03786
0.726413
0.508841
0.0668278
0.74124
1.20322
1.25458e-13
6.7888e-14
3.39114e-14
5.12214e-14
9.45475e-14
7.78926e-14
7.79562e-14
7.85022e-14
1.00004e-13
1.12607e-13
1.89998e-13
2.58627e-13
2.17013e-13
2.91113e-13
3.47545e-13
3.11848e-13
3.86406e-13
7.3539e-13
9.95083e-13
1.15096e-12
1.05112e-12
8.96146e-13
9.42723e-13
5.54023e-13
4.98704e-14
4.49589e-13
3.04381e-12
5.56547e-12
1.06152e-09
6.82154e-12
3.01839e-08
2.74049e-05
0.000101283
8.4808e-05
0.0140765
0.0355503
2.28156
10.6058
44.5889
98.8479
167.291
193.733
181.644
153.788
120.702
85.7193
49.302
27.8949
14.3703
5.62731
2.98763
6.93904
8.19323
7.99768
6.00966
3.87133
1.58379
1.42773
2.64726
3.49303
3.64797
3.09525
2.02719
0.675259
2.38162
4.01784
4.99965
5.71431
5.43512
4.7975
3.31383
1.68697
0.60048
0.370839
0.836238
0.673439
0.470164
0.43375
0.285133
0.199109
7.52749e-14
1.68571e-14
5.93449e-14
4.268e-14
5.50397e-14
8.16521e-14
4.35767e-14
2.63305e-14
1.11808e-13
1.59251e-13
1.14828e-13
6.32411e-14
1.81953e-14
7.38878e-14
1.69489e-13
8.77517e-14
3.2084e-13
3.13895e-13
1.91028e-14
1.30418e-13
1.16368e-13
2.70581e-13
2.28935e-13
3.95855e-13
3.70061e-13
1.3488e-13
4.11561e-13
7.38262e-13
4.4768e-12
8.78826e-13
3.37063e-10
3.89705e-08
4.92687e-08
6.16312e-07
0.000115941
0.000346162
0.00036669
0.0155834
0.18912
2.50133
12.5575
55.7192
118.261
180.219
191.66
180.37
145
104.06
66.3305
42.9901
23.7828
7.52208
0.541337
3.07413
5.05415
7.60776
8.47593
7.14654
4.78073
1.56067
1.46001
3.08277
3.68284
3.32003
1.87095
0.63947
2.07686
3.1838
3.7232
4.09359
4.11715
3.62454
3.12763
2.52009
1.74938
1.04599
0.583718
0.227212
0.0439785
0.153791
1.2178e-13
6.7892e-14
5.08671e-14
9.07389e-14
3.84378e-14
6.05879e-14
4.35834e-14
8.81035e-15
3.95299e-14
1.95245e-13
1.44581e-13
5.1115e-14
9.09765e-14
4.58303e-14
1.61241e-13
3.73111e-13
2.51475e-13
2.29949e-13
2.37882e-13
1.21284e-13
2.47494e-13
2.4346e-13
6.28254e-13
2.09642e-13
4.54818e-13
1.27175e-13
3.06741e-13
8.26604e-13
7.21198e-13
4.90043e-13
8.80569e-13
4.33982e-10
4.14282e-10
4.41557e-09
2.76031e-07
8.53775e-06
6.89138e-06
0.000320858
0.000693424
0.000710945
0.0131323
0.568695
4.29551
21.482
70.9184
141.944
196.996
190.54
161.829
127.47
91.6024
52.2922
29.1595
16.235
8.58608
1.91526
5.83876
7.58811
8.10148
7.20847
5.6894
3.93576
1.73156
0.539557
1.83037
2.345
2.04504
1.52782
1.16269
1.29066
0.946914
1.98822
2.90701
3.28972
3.37455
3.12899
2.87868
2.60672
2.31123
1.64296
0
3.76647e-14
3.39195e-14
5.9752e-14
8.59496e-15
5.19284e-14
4.93074e-14
5.26609e-14
1.76783e-14
7.17776e-14
5.74193e-14
9.72767e-14
1.82127e-14
1.55799e-13
2.24641e-13
2.96635e-13
2.34294e-13
4.54827e-13
5.02138e-13
5.06007e-13
4.6472e-13
7.12504e-13
6.52547e-13
6.35715e-13
6.48216e-13
7.48603e-13
9.77226e-13
1.59669e-12
2.56041e-12
2.56232e-12
3.5546e-12
4.52884e-12
3.88045e-12
4.99851e-11
5.90255e-09
2.14944e-08
1.56829e-07
4.76492e-07
1.64334e-05
1.1675e-05
0.000418103
0.000156278
0.00459192
0.0200712
1.19192
7.1624
42.3642
109.312
180.284
196.803
186.446
149.01
102.085
55.8229
37.0142
23.4157
8.65028
2.47196
1.35883
3.03769
5.55633
7.23353
6.99708
5.8183
4.23314
2.51452
0.725064
1.73737
2.70507
2.65008
1.67332
0.849471
0.582775
1.73916
2.41383
2.90598
3.38688
3.71102
3.96514
3.48402
3.34555e-14
5.05229e-14
3.39114e-14
7.03896e-14
4.86204e-14
0
1.74307e-14
3.51157e-14
7.90599e-14
9.79295e-14
4.48396e-14
7.28153e-14
7.33519e-14
6.60921e-14
1.69491e-13
4.0938e-13
5.30144e-13
4.42103e-13
3.42673e-13
6.23243e-13
4.25602e-13
2.76989e-13
7.91329e-14
4.82341e-13
2.12019e-13
4.0413e-13
4.89846e-13
5.41565e-13
6.12649e-13
9.67054e-13
1.43066e-12
1.43255e-12
1.92098e-12
2.53649e-12
7.29176e-12
6.56399e-10
3.31119e-10
1.18432e-08
3.18143e-08
2.90652e-07
8.46708e-08
1.74328e-06
0.000136007
0.000335541
0.00038813
0.00685031
0.363626
4.02625
18.9657
70.0478
145.564
208.905
197.602
148.734
107.655
74.4695
39.7636
21.3587
16.1036
12.3731
6.48317
0.941704
4.99014
6.45107
6.91079
5.90963
5.01902
4.58488
2.58242
0.65738
0.472848
0.852385
0.836418
0.325417
0.103977
0.0711862
0.402241
1.75675
2.53131
3.00575
3.34555e-14
1.6841e-14
4.79637e-14
0
1.71899e-14
4.32803e-14
3.48614e-14
1.75704e-14
8.87293e-15
1.78048e-14
4.01073e-14
5.10906e-14
6.36885e-14
8.0191e-16
1.69491e-13
2.50283e-13
2.62577e-13
1.52263e-13
2.82902e-13
1.56087e-13
2.70558e-13
1.78774e-13
1.42915e-13
9.33329e-14
9.82182e-14
1.56069e-13
2.06714e-13
6.54046e-13
1.21276e-12
1.1726e-12
1.71824e-12
2.62435e-12
3.5418e-12
3.84361e-12
3.44565e-12
2.95591e-12
1.60027e-11
3.09319e-12
7.65197e-10
1.08107e-09
1.01864e-08
2.6926e-08
1.72416e-07
2.12504e-05
1.75078e-05
0.000363989
0.000174531
0.00317343
0.0310598
1.55647
8.52662
46.4357
128.036
208.636
199.145
172.225
128.524
75.4564
29.1724
23.9884
19.7908
10.4687
4.94509
4.74549
3.10281
0.307673
3.06326
4.12242
4.69178
3.92636
3.16902
2.80728
1.72283
0.68683
0.461306
0.886723
1.07289
0.833648
0.0777034
0.538579
4.18194e-14
5.05229e-14
3.79213e-14
5.97567e-14
6.01694e-14
6.05831e-14
8.74865e-15
4.38908e-14
6.1879e-14
9.79264e-14
1.80016e-14
4.5165e-14
4.06937e-14
8.64629e-14
4.12976e-14
7.94776e-14
8.84278e-14
7.78676e-14
4.75824e-14
2.3032e-13
1.5094e-13
6.23563e-14
9.9644e-15
1.58603e-13
8.04013e-14
7.25154e-14
1.29791e-13
5.34873e-13
5.47602e-13
8.4559e-13
1.0552e-12
1.33344e-12
1.84032e-12
2.13791e-12
2.16244e-12
2.48856e-12
2.81191e-12
3.05156e-12
3.94157e-12
3.48752e-11
1.02397e-10
3.49248e-11
1.13395e-08
1.2708e-08
6.25187e-07
6.41128e-07
2.60195e-06
0.000205273
0.000314071
0.00074568
0.00144722
0.660896
7.24539
37.5939
107.889
188.516
227.986
187.547
114.011
66.4168
35.0703
13.0352
8.87366
10.7666
12.9037
11.7798
7.49377
3.14258
1.31028
1.85436
3.66024
4.62735
4.51502
4.5241
3.74327
2.2272
1.32199
0.520463
0.533819
0.653607
2.50916e-14
5.89479e-14
1.27384e-14
1.09317e-13
2.15005e-14
6.97931e-14
5.66549e-14
4.38908e-14
1.1181e-13
4.45188e-14
4.9316e-14
2.26343e-14
2.73046e-14
1.19143e-13
1.61243e-13
1.04518e-13
4.96458e-15
9.44283e-15
5.23592e-14
3.95338e-14
2.42161e-14
7.8064e-14
4.91062e-14
7.97808e-14
8.91972e-14
9.55208e-14
4.78067e-14
1.48175e-13
2.47752e-13
2.08821e-13
4.3144e-13
8.09881e-13
1.49204e-12
1.98251e-12
2.44415e-12
2.89163e-12
3.17792e-12
3.47972e-12
4.01655e-12
4.08897e-12
4.1255e-12
2.12663e-12
9.26396e-12
1.119e-09
4.72737e-10
1.80574e-09
1.31938e-08
2.68863e-07
1.50721e-05
3.08511e-05
0.000183433
0.000851154
0.00212517
0.340559
5.3482
22.4889
85.1537
189.693
233.509
177.046
126.144
74.6932
27.6176
3.97502
4.64988
6.513
8.59706
5.81676
4.83871
6.01395
5.37757
2.86461
0.883154
2.67841
3.22771
3.34699
2.91549
1.91607
1.36154
0.796915
4.18258e-14
2.52722e-14
7.20617e-14
3.44178e-14
4.72782e-14
7.79073e-14
3.72398e-14
7.89951e-14
9.39648e-14
2.67185e-14
8.96654e-15
9.06613e-15
2.73046e-14
1.00814e-13
9.81477e-14
1.62779e-13
1.17149e-13
7.20693e-14
7.26251e-14
7.68564e-14
6.28139e-14
6.33055e-14
2.94582e-14
4.94739e-14
5.4849e-14
2.51482e-14
1.65994e-13
3.7072e-13
4.0382e-13
6.55426e-13
4.39286e-13
1.42634e-13
2.64521e-13
4.74639e-13
4.87862e-13
5.58627e-13
4.70226e-13
5.18462e-13
4.68324e-13
3.31833e-13
2.15839e-13
4.77466e-13
9.10642e-13
3.92482e-12
3.53661e-11
1.95376e-10
8.85123e-11
1.78528e-10
3.297e-09
1.1556e-06
1.02778e-05
1.85509e-05
7.95127e-05
0.000174255
0.000487009
0.0987843
3.37077
23.2194
97.6679
184.775
228.784
208.568
130.11
58.5692
21.4636
3.77285
5.99605
2.9615
1.93754
4.64623
7.71768
8.76767
6.84918
3.50633
2.22484
0.873705
0.743905
1.53793
1.67287
2.07322
5.01886e-14
1.6841e-14
4.23908e-14
3.81814e-14
3.4388e-14
1.7326e-14
4.35784e-14
5.96888e-14
7.40867e-14
6.79446e-14
4.48396e-14
1.80676e-14
3.88652e-14
1.02975e-13
7.4436e-14
1.39584e-14
7.96606e-14
9.73353e-14
4.75752e-15
1.76019e-13
5.79783e-14
4.5936e-14
3.92609e-14
1.97913e-14
8.91972e-14
1.12959e-13
3.01719e-13
2.28487e-13
2.51527e-13
3.34425e-13
5.29675e-13
4.40331e-13
7.39785e-13
9.88924e-13
7.46895e-13
6.5385e-13
3.5187e-13
1.62092e-13
8.0126e-13
1.61947e-12
2.58454e-12
3.0526e-12
3.02999e-12
2.56785e-12
3.23042e-12
4.39924e-12
4.98508e-12
1.66995e-11
2.31179e-10
9.48079e-10
2.43352e-08
9.31103e-07
1.2011e-05
8.91643e-06
0.000134119
0.000163066
0.000545921
0.147367
4.58955
30.2423
89.2373
188.238
239.214
181.756
109.596
63.1018
20.1465
1.49325
5.1034
6.61915
6.54548
3.93283
2.62383
3.04815
2.25668
3.01466
4.10198
3.9611
3.31914
1.00715
4.19792e-15
4.21024e-14
1.69597e-14
4.28431e-15
1.7194e-14
1.73136e-14
5.22976e-14
0
3.64448e-14
3.98146e-14
7.22906e-14
3.72467e-14
4.549e-14
5.51785e-14
1.28265e-13
1.39525e-13