/*--------------------------------*- C++ -*----------------------------------*\
| =========                 |                                                 |
| \\      /  F ield         | OpenFOAM: The Open Source CFD Toolbox           |
|  \\    /   O peration     | Version:  v1912                                 |
|   \\  /    A nd           | Website:  www.openfoam.com                      |
|    \\/     M anipulation  |                                                 |
\*---------------------------------------------------------------------------*/
FoamFile
{
    version     2.0;
    format      ascii;
    class       volScalarField;
    location    "3.76";
    object      rho;
}
// * * * * * * * * * * * * * * * * * * * * * * * * * * * * * * * * * * * * * //

dimensions      [1 -3 0 0 0 0 0];


internalField   nonuniform List<scalar> 
1900
(
31917.9
17815.3
15881.8
15678.3
15582.1
15478.5
15351.2
15214.7
15052.9
14917.9
31917.7
17815.1
15882.2
15679.2
15583.7
15480.8
15351.9
15205.9
15008.4
14826
31917.6
17815
15882.5
15679.4
15583
15478.8
15348.2
15201.7
15011.2
14849.7
31917.7
17815.1
15882.2
15679.2
15583.7
15480.8
15351.9
15205.9
15008.4
14826
31917.9
17815.3
15881.8
15678.3
15582.1
15478.5
15351.2
15214.7
15052.9
14917.9
14704.7
14680.6
14704.2
14758.7
13991.6
14632.5
14589.1
14574.6
14671.5
14277.5
14644.9
14598.3
14599.4
14690.1
14225.8
14632.5
14589.1
14574.6
14671.5
14277.5
14704.7
14680.6
14704.2
14758.7
13991.6
14867.9
14050.7
13768.3
13359.5
12749.6
14754.4
14073.8
13819
13424.1
12509.9
14755.8
14076.8
13821.6
13363
12356.4
14754.4
14073.8
13819
13424.1
12509.9
14867.9
14050.7
13768.3
13359.5
12749.6
10963.7
6070.4
6174.85
6431.05
6249.66
5992.98
5711.55
5530.37
5496.25
5450.49
5419.94
5387.83
5358.94
5332.13
5308.56
5288.93
5273.41
5261.12
5251.69
5243.14
5235.51
5227.32
5217.46
5206.96
5194.66
5180.1
5162.18
5139.3
5109.08
5068.26
5012.9
4942.05
4856.77
4771.36
4690.19
4630.71
4571.75
4541.51
5502.5
33194
10624.5
6130.43
6281.25
6484.21
6282.88
6008.05
5717.4
5531.64
5498.38
5451.35
5420.62
5388.28
5359.29
5332.43
5308.85
5289.21
5273.68
5261.38
5251.94
5243.39
5235.74
5227.55
5217.68
5207.17
5194.86
5180.29
5162.36
5139.48
5109.25
5068.43
5013.09
4942.23
4856.94
4771.64
4690.47
4631.32
4572.19
4542.63
5498.02
33178.8
10401.1
6494.21
6425.56
6527.08
6301.56
6016.08
5720.29
5532.97
5499.51
5451.98
5421.07
5388.58
5359.51
5332.6
5309
5289.35
5273.81
5261.5
5252.06
5243.5
5235.85
5227.65
5217.78
5207.27
5194.96
5180.39
5162.48
5139.62
5109.44
5068.68
5013.43
4942.71
4857.62
4772.63
4691.92
4633.42
4575.03
4546.35
5498.65
33480.6
10624.5
6130.43
6281.25
6484.21
6282.88
6008.05
5717.4
5531.64
5498.38
5451.35
5420.62
5388.28
5359.29
5332.43
5308.85
5289.21
5273.68
5261.38
5251.94
5243.39
5235.74
5227.55
5217.68
5207.17
5194.86
5180.29
5162.36
5139.48
5109.25
5068.43
5013.09
4942.23
4856.94
4771.64
4690.47
4631.32
4572.19
4542.63
5498.02
33178.8
10963.7
6070.4
6174.85
6431.05
6249.66
5992.98
5711.55
5530.37
5496.25
5450.49
5419.94
5387.83
5358.94
5332.13
5308.56
5288.93
5273.41
5261.12
5251.69
5243.14
5235.51
5227.32
5217.46
5206.96
5194.66
5180.1
5162.18
5139.3
5109.08
5068.26
5012.9
4942.05
4856.77
4771.36
4690.19
4630.71
4571.75
4541.51
5502.5
33194
15061.5
5705.75
5882.26
6192.68
6124.33
5926.96
5677.16
5519.76
5485.5
5444.06
5414.71
5383.95
5355.82
5329.43
5306.11
5286.66
5271.28
5259.12
5249.8
5241.32
5233.73
5225.57
5215.71
5205.2
5192.87
5178.26
5160.26
5137.28
5106.92
5065.96
5010.5
4939.65
4854.57
4768.9
4688.1
4627.64
4569.62
4536.77
5514.53
34429.1
19553.4
5057.44
5520.44
5818
5863.72
5756.34
5594.99
5491.56
5461.59
5427.86
5402.33
5374.96
5348.57
5323.09
5300.31
5281.24
5266.2
5254.34
5245.26
5236.95
5229.49
5221.4
5211.56
5201.06
5188.7
5174.02
5155.9
5132.7
5102.05
5060.77
5005.03
4933.93
4849.23
4762.8
4681.93
4619.6
4561.55
4525.11
5460.23
33048.9
21917.2
4786.35
5242.83
5548.87
5625.49
5575.65
5493.47
5444.8
5426.39
5403.17
5383.76
5361.07
5336.95
5312.83
5290.91
5272.49
5258
5246.6
5237.9
5229.84
5222.57
5214.59
5204.78
5194.28
5181.87
5167.06
5148.71
5125.19
5094.06
5052.24
4996.14
4924.7
4840.49
4752.97
4671.6
4607.02
4548.34
4509.22
5371.66
32536.8
24353.4
4720.62
5065.67
5306.05
5413.15
5416.21
5395.28
5385.3
5380.13
5372.33
5360.21
5342.44
5321.17
5298.85
5278.14
5260.64
5246.93
5236.19
5228.01
5220.29
5213.26
5205.42
5195.64
5185.13
5172.62
5157.65
5138.97
5114.97
5083.24
5040.72
4984.09
4911.99
4828.3
4739.23
4656.47
4589.3
4529.35
4488.88
5275.53
31836.9
23702.3
4647.29
4920.57
5117.05
5234.35
5279.58
5299.08
5318.53
5330.34
5335.49
5331.27
5318.82
5300.91
5280.81
5261.67
5245.42
5232.73
5222.85
5215.35
5208.04
5201.3
5193.63
5183.85
5173.31
5160.68
5145.37
5126.29
5101.7
5068.94
5025.53
4968.42
4895.42
4811.42
4720.4
4635.46
4565.56
4504.56
4463.53
5141.41
31002.4
23570.8
4578.57
4777.81
4957.17
5083.59
5158.52
5207.18
5248.64
5276.83
5294.21
5297.41
5290.17
5275.95
5258.43
5241.28
5226.58
5215.21
5206.38
5199.7
5192.89
5186.48
5178.98
5169.18
5158.57
5145.68
5130.08
5110.23
5084.87
5051.03
5006.34
4948.6
4874.01
4789.63
4695.87
4608.01
4535.14
4473.07
4431.42
4963.06
29738.6
23533.7
4507.37
4655.4
4826.11
4958.55
5050.76
5118.58
5176.72
5218.92
5247.2
5257.58
5255.58
5245.22
5230.89
5216.13
5203.42
5193.66
5186.11
5180.41
5174.17
5168.12
5160.78
5150.89
5140.15
5126.91
5110.65
5090.05
5063.36
5027.95
4981.83
4923.99
4846.83
4761.28
4665.03
4575.15
4499.2
4437.95
4397.26
4762.06
28306.3
22842.7
4423.8
4529.26
4694.01
4837.89
4943.62
5028.13
5101.44
5156.29
5193.82
5211.31
5214.46
5207.73
5196.8
5184.8
5174.47
5166.56
5160.49
5155.96
5150.38
5144.66
5137.47
5127.43
5116.41
5102.75
5085.69
5063.96
5035.78
4999.3
4949.82
4891.64
4811.09
4722.67
4622.33
4528.16
4446.44
4382.89
4341.02
4535.92
26628.2
22051.7
4343.11
4435.97
4592.08
4738.85
4850.17
4943.84
5027.61
5090.74
5134.57
5156.85
5163.36
5160.28
5152.96
5144.27
5136.74
5131.05
5126.67
5123.51
5118.67
5113.23
5106.14
5095.86
5084.46
5070.01
5052
5028.88
4999.48
4961.32
4911.64
4854.32
4771.38
4681.47
4579.81
4481.62
4396.14
4328.08
4287.08
4360.55
24835.6
21027.4
4251.53
4330.34
4474.38
4613.51
4729.54
4834.7
4929.76
5004.45
5056.16
5084.92
5097.56
5099.29
5096.18
5091.44
5086.9
5083.57
5080.83
5079.17
5075.15
5069.86
5062.86
5052.29
5040.45
5025.13
5005.95
4981.09
4949.07
4909.64
4853.99
4794.89
4705.58
4610.12
4504.19
4400.31
4307.58
4233.79
4192.08
4212.5
22914.5
19842.9
4147.29
4223.32
4360.16
4492.58
4612.94
4728.42
4831.44
4915.84
4973.13
5006.78
5022.43
5026.18
5025.73
5023.53
5021.49
5020.19
5018.83
5018.62
5015.34
5010.13
5003.3
4992.56
4980.5
4964.84
4945.23
4920.19
4887.48
4848.55
4790.34
4727.91
4632.88
4531.72
4421.51
4312.3
4212.51
4133.1
4087.92
4091.18
20989.1
18546.7
4039.28
4109.09
4238.15
4359.82
4480.19
4599.23
4705.51
4796.19
4856.07
4896.98
4917.41
4928.92
4934.99
4937.72
4939.46
4940.62
4940.82
4941.96
4939.37
4934.19
4927.48
4916.45
4903.71
4887.1
4865.58
4838.19
4801.57
4759.52
4695.74
4629.28
4531.91
4427.75
4315.41
4203.67
4099.9
4017.68
3970.89
3975.61
19083.6
17222.9
3923.18
3986.93
4108.81
4226.44
4347.31
4465.37
4573.78
4667.84
4732.54
4780.12
4806.27
4824.28
4835.14
4842.28
4846.95
4849.75
4850.65
4852.28
4849.84
4844.81
4838.71
4828.2
4815.89
4799.06
4776.65
4747.2
4708.02
4664.72
4595.97
4525.01
4424.88
4318.3
4204.51
4091.04
3984.79
3900.8
3852.81
3857.06
17285.9
15863.9
3811.95
3868.51
3980.9
4094.7
4217.33
4331.62
4440.48
4534.84
4603.5
4658.18
4687.11
4711.82
4729.76
4742.38
4751.78
4758.1
4761.32
4764.61
4763.04
4758.16
4751.74
4740.24
4726.63
4707.93
4683.35
4651.96
4609.41
4564.62
4492.56
4418.69
4315.97
4207.31
4091.78
3976.68
3868.52
3783.2
3734.9
3738.82
15536.2
14553.5
3697.08
3747.35
3854.71
3965.05
4087.28
4200.53
4310.18
4404.32
4479.56
4542.24
4579.11
4610.38
4633.95
4652.12
4665.73
4675.11
4680.12
4684.23
4682.76
4678.25
4672.43
4660.91
4646.7
4626.55
4599.93
4566.14
4520.31
4474.29
4397.47
4317.68
4211.25
4099.8
3982.4
3865.43
3754.98
3668.21
3618.48
3621.48
13935.5
13200.9
3599.56
3643.47
3738.83
3845.76
3967.4
4080.89
4193.53
4287.63
4370.61
4442.1
4485.91
4527.57
4556.66
4579.86
4597.48
4610.07
4617.65
4623.98
4624.11
4620.04
4613.33
4600.16
4584.41
4562.56
4533.81
4498.38
4448.93
4399.77
4316.15
4230.05
4118.81
4003.68
3883.82
3764.51
3652.96
3563.78
3516.02
3519.54
12373.8
12164.4
3533.97
3562.1
3648.55
3751.81
3871.55
3986
4098.77
4197.64
4287.17
4366.39
4416.29
4461.31
4492.86
4518.45
4537.98
4552.06
4560.74
4567.85
4568.14
4564.4
4558.17
4544.74
4528.48
4506.19
4476.76
4441.85
4390.78
4341.69
4255.67
4164.96
4050.46
3932.29
3810.84
3690.02
3576.52
3489.31
3446.33
3457.44
11238.8
10887.5
3536.08
3545.02
3603.08
3694.16
3808.39
3923.9
4039.8
4140.91
4239.04
4318.03
4372.77
4420.48
4452.33
4478.77
4499.57
4515.1
4526.74
4537.42
4540.03
4536.37
4528.2
4511.94
4493.72
4470.85
4441.71
4408.57
4356.92
4308.34
4221.11
4129.2
4014.69
3895.67
3773.98
3652.35
3540.39
3458.43
3429.45
3461.9
9940.88
16394.4
3889.01
3636.76
3647.71
3721.66
3829.52
3938.8
4047.54
4151.87
4268.45
4423.71
4617.98
4871.44
5090.54
5288.86
5437.39
5543.43
5601.52
5638.39
5613.79
5610.53
5631.33
5590.35
5526.87
5416.97
5261.28
5071.88
4821.2
4590.88
4357.09
4184.63
4042.24
3914.39
3791.31
3668.8
3554.57
3479.26
3478.89
3778.36
15773.2
166205
16639.6
10915.9
12252
13440.2
15055.2
16694.7
18504
20344.7
22294.7
24202
26078.7
27830.3
29444.4
30865.5
32048.5
32872.7
33573.5
33919.4
34180.4
34175.2
33892.7
33536.6
32797.7
31980.5
30728.9
29323.1
27639.3
25853.6
23934.4
21963.2
19959.4
18037.6
16150.6
14429.5
12738.9
11492.5
10068.3
15357.9
156083
166205
16639.6
10915.9
12252
13440.2
15055.2
16694.7
18504
20344.7
22294.7
24202
26078.7
27830.3
29444.4
30865.5
32048.5
32872.7
33573.5
33919.4
34180.4
34175.2
33892.7
33536.6
32797.7
31980.5
30728.9
29323.1
27639.3
25853.6
23934.4
21963.2
19959.4
18037.6
16150.6
14429.5
12738.9
11492.5
10068.3
15357.9
156083
16394.4
3889.01
3636.76
3647.71
3721.66
3829.52
3938.8
4047.54
4151.87
4268.45
4423.71
4617.98
4871.44
5090.54
5288.86
5437.39
5543.43
5601.52
5638.39
5613.79
5610.53
5631.33
5590.35
5526.87
5416.97
5261.28
5071.88
4821.2
4590.88
4357.09
4184.63
4042.24
3914.39
3791.31
3668.8
3554.57
3479.26
3478.89
3778.36
15773.2
10887.5
3536.08
3545.02
3603.08
3694.16
3808.39
3923.9
4039.8
4140.91
4239.04
4318.03
4372.77
4420.48
4452.33
4478.77
4499.57
4515.1
4526.74
4537.42
4540.03
4536.37
4528.2
4511.94
4493.72
4470.85
4441.71
4408.57
4356.92
4308.34
4221.11
4129.2
4014.69
3895.67
3773.98
3652.35
3540.39
3458.43
3429.45
3461.9
9940.88
12164.4
3533.97
3562.1
3648.55
3751.81
3871.55
3986
4098.77
4197.64
4287.17
4366.39
4416.29
4461.31
4492.86
4518.45
4537.98
4552.06
4560.74
4567.85
4568.14
4564.4
4558.17
4544.74
4528.48
4506.19
4476.76
4441.85
4390.78
4341.69
4255.67
4164.96
4050.46
3932.29
3810.84
3690.02
3576.52
3489.31
3446.33
3457.44
11238.8
13200.9
3599.56
3643.47
3738.83
3845.76
3967.4
4080.89
4193.53
4287.63
4370.61
4442.1
4485.91
4527.57
4556.66
4579.86
4597.48
4610.07
4617.65
4623.98
4624.11
4620.04
4613.33
4600.16
4584.41
4562.56
4533.81
4498.38
4448.93
4399.77
4316.15
4230.05
4118.81
4003.68
3883.82
3764.51
3652.96
3563.78
3516.02
3519.54
12373.8
14553.5
3697.08
3747.35
3854.71
3965.05
4087.28
4200.53
4310.18
4404.32
4479.56
4542.24
4579.11
4610.38
4633.95
4652.12
4665.73
4675.11
4680.12
4684.23
4682.76
4678.25
4672.43
4660.91
4646.7
4626.55
4599.93
4566.14
4520.31
4474.29
4397.47
4317.68
4211.25
4099.8
3982.4
3865.43
3754.98
3668.21
3618.48
3621.48
13935.5
15863.9
3811.95
3868.51
3980.9
4094.7
4217.33
4331.62
4440.48
4534.84
4603.5
4658.18
4687.11
4711.82
4729.76
4742.38
4751.78
4758.1
4761.32
4764.61
4763.04
4758.16
4751.74
4740.24
4726.63
4707.93
4683.35
4651.96
4609.41
4564.62
4492.56
4418.69
4315.97
4207.31
4091.78
3976.68
3868.52
3783.2
3734.9
3738.82
15536.2
17222.9
3923.18
3986.93
4108.81
4226.44
4347.31
4465.37
4573.78
4667.84
4732.54
4780.12
4806.27
4824.28
4835.14
4842.28
4846.95
4849.75
4850.65
4852.28
4849.84
4844.81
4838.71
4828.2
4815.89
4799.06
4776.65
4747.2
4708.02
4664.72
4595.97
4525.01
4424.88
4318.3
4204.51
4091.04
3984.79
3900.8
3852.81
3857.06
17285.9
18546.7
4039.28
4109.09
4238.15
4359.82
4480.19
4599.23
4705.51
4796.19
4856.07
4896.98
4917.41
4928.92
4934.99
4937.72
4939.46
4940.62
4940.82
4941.96
4939.37
4934.19
4927.48
4916.45
4903.71
4887.1
4865.58
4838.19
4801.57
4759.52
4695.74
4629.28
4531.91
4427.75
4315.41
4203.67
4099.9
4017.68
3970.89
3975.61
19083.6
19842.9
4147.29
4223.32
4360.16
4492.58
4612.94
4728.42
4831.44
4915.84
4973.13
5006.78
5022.43
5026.18
5025.73
5023.53
5021.49
5020.19
5018.83
5018.62
5015.34
5010.13
5003.3
4992.56
4980.5
4964.84
4945.23
4920.19
4887.48
4848.55
4790.34
4727.91
4632.88
4531.72
4421.51
4312.3
4212.51
4133.1
4087.92
4091.18
20989.1
21027.4
4251.53
4330.34
4474.38
4613.51
4729.54
4834.7
4929.76
5004.45
5056.16
5084.92
5097.56
5099.29
5096.18
5091.44
5086.9
5083.57
5080.83
5079.17
5075.15
5069.86
5062.86
5052.29
5040.45
5025.13
5005.95
4981.09
4949.07
4909.64
4853.99
4794.89
4705.58
4610.12
4504.19
4400.31
4307.58
4233.79
4192.08
4212.5
22914.5
22051.7
4343.11
4435.97
4592.08
4738.85
4850.17
4943.84
5027.61
5090.74
5134.57
5156.85
5163.36
5160.28
5152.96
5144.27
5136.74
5131.05
5126.67
5123.51
5118.67
5113.23
5106.14
5095.86
5084.46
5070.01
5052
5028.88
4999.48
4961.32
4911.64
4854.32
4771.38
4681.47
4579.81
4481.62
4396.14
4328.08
4287.08
4360.55
24835.6
22842.7
4423.8
4529.26
4694.01
4837.89
4943.62
5028.13
5101.44
5156.29
5193.82
5211.31
5214.46
5207.73
5196.8
5184.8
5174.47
5166.56
5160.49
5155.96
5150.38
5144.66
5137.47
5127.43
5116.41
5102.75
5085.69
5063.96
5035.78
4999.3
4949.82
4891.64
4811.09
4722.67
4622.33
4528.16
4446.44
4382.89
4341.02
4535.92
26628.2
23533.7
4507.37
4655.4
4826.11
4958.55
5050.76
5118.58
5176.72
5218.92
5247.2
5257.58
5255.58
5245.22
5230.89
5216.13
5203.42
5193.66
5186.11
5180.41
5174.17
5168.12
5160.78
5150.89
5140.15
5126.91
5110.65
5090.05
5063.36
5027.95
4981.83
4923.99
4846.83
4761.28
4665.03
4575.15
4499.2
4437.95
4397.26
4762.06
28306.3
23570.8
4578.57
4777.81
4957.17
5083.59
5158.52
5207.18
5248.64
5276.83
5294.21
5297.41
5290.17
5275.95
5258.43
5241.28
5226.58
5215.21
5206.38
5199.7
5192.89
5186.48
5178.98
5169.18
5158.57
5145.68
5130.08
5110.23
5084.87
5051.03
5006.34
4948.6
4874.01
4789.63
4695.87
4608.01
4535.14
4473.07
4431.42
4963.06
29738.6
23702.3
4647.29
4920.57
5117.05
5234.35
5279.58
5299.08
5318.53
5330.34
5335.49
5331.27
5318.82
5300.91
5280.81
5261.67
5245.42
5232.73
5222.85
5215.35
5208.04
5201.3
5193.63
5183.85
5173.31
5160.68
5145.37
5126.29
5101.7
5068.94
5025.53
4968.42
4895.42
4811.42
4720.4
4635.46
4565.56
4504.56
4463.53
5141.41
31002.4
24353.4
4720.62
5065.67
5306.05
5413.15
5416.21
5395.28
5385.3
5380.13
5372.33
5360.21
5342.44
5321.17
5298.85
5278.14
5260.64
5246.93
5236.19
5228.01
5220.29
5213.26
5205.42
5195.64
5185.13
5172.62
5157.65
5138.97
5114.97
5083.24
5040.72
4984.09
4911.99
4828.3
4739.23
4656.47
4589.3
4529.35
4488.88
5275.53
31836.9
21917.2
4786.35
5242.83
5548.87
5625.49
5575.65
5493.47
5444.8
5426.39
5403.17
5383.76
5361.07
5336.95
5312.83
5290.91
5272.49
5258
5246.6
5237.9
5229.84
5222.57
5214.59
5204.78
5194.28
5181.87
5167.06
5148.71
5125.19
5094.06
5052.24
4996.14
4924.7
4840.49
4752.97
4671.6
4607.02
4548.34
4509.22
5371.66
32536.8
19553.4
5057.44
5520.44
5818
5863.72
5756.34
5594.99
5491.56
5461.59
5427.86
5402.33
5374.96
5348.57
5323.09
5300.31
5281.24
5266.2
5254.34
5245.26
5236.95
5229.49
5221.4
5211.56
5201.06
5188.7
5174.02
5155.9
5132.7
5102.05
5060.77
5005.03
4933.93
4849.23
4762.8
4681.93
4619.6
4561.55
4525.11
5460.23
33048.9
15061.5
5705.75
5882.26
6192.68
6124.33
5926.96
5677.16
5519.76
5485.5
5444.06
5414.71
5383.95
5355.82
5329.43
5306.11
5286.66
5271.28
5259.12
5249.8
5241.32
5233.73
5225.57
5215.71
5205.2
5192.87
5178.26
5160.26
5137.28
5106.92
5065.96
5010.5
4939.65
4854.57
4768.9
4688.1
4627.64
4569.62
4536.77
5514.53
34429.1
)
;

boundaryField
{
    inlet
    {
        type            calculated;
        value           uniform 14000.1;
    }
    outlet
    {
        type            calculated;
        value           nonuniform List<scalar> 
165
(
2352.01
2840.03
2945.75
2897.01
2931.02
2937.45
2936.54
2961.15
2980.4
3001.72
3023.34
3044.71
3064.47
3083.84
3098.67
3115.94
3109.03
3067.71
3210.39
3701.68
3701.68
3207.2
2977.49
3027.81
3042.68
3035.74
3027.61
3011.56
2995.08
2974.29
2954.42
2935.1
2918.69
2905.27
2895.03
2887.53
2885.6
2880.35
2880.98
2875.3
2875.47
2881.76
2881.25
2887.66
2889.39
2899.06
2909.2
2925.24
2943.35
2965.1
2988.88
3013.61
3036.35
3058.91
3074.95
3092.59
3081.89
3033.85
3236.53
3740.05
2840.08
2877.73
2875.67
2879.43
2881.48
2891.6
2903.73
2921.54
2942.71
2967.45
2993.1
3018.3
3040.72
3062.48
3078.14
3093.74
3082.04
3034.1
3243.61
3740.05
2882.34
2884.53
2874.46
2884.53
2882.34
3740.05
3243.61
3034.1
3082.04
3093.74
3078.14
3062.48
3040.72
3018.3
2993.1
2967.45
2942.71
2921.54
2903.73
2891.6
2881.48
2879.43
2875.67
2877.73
2840.08
3701.68
3207.2
2977.49
3027.81
3042.68
3035.74
3027.61
3011.56
2995.08
2974.29
2954.42
2935.1
2918.69
2905.27
2895.03
2887.53
2885.6
2880.35
2880.98
2875.3
2875.47
2881.76
2881.25
2887.66
2889.39
2899.06
2909.2
2925.24
2943.35
2965.1
2988.88
3013.61
3036.35
3058.91
3074.95
3092.59
3081.89
3033.85
3236.53
3740.05
3701.68
3210.39
3067.71
3109.03
3115.94
3098.67
3083.84
3064.47
3044.71
3023.34
3001.72
2980.4
2961.15
2936.54
2937.45
2931.02
2897.01
2945.75
2840.03
2352.01
)
;
    }
    obstacle
    {
        type            calculated;
        value           nonuniform List<scalar> 
40
(
31917.9
17815.3
15881.8
15678.3
15582.1
15478.5
15351.2
15214.7
15052.9
14917.9
31917.9
17815.3
15881.8
15678.3
15582.1
15478.5
15351.2
15214.7
15052.9
14917.9
14704.7
14680.6
14704.2
14758.7
13991.6
14704.7
14680.6
14704.2
14758.7
13991.6
14867.9
14050.7
13768.3
13359.5
12749.6
14867.9
14050.7
13768.3
13359.5
12749.6
)
;
    }
    empty
    {
        type            empty;
    }
}


// ************************************************************************* //
