/*--------------------------------*- C++ -*----------------------------------*\
| =========                 |                                                 |
| \\      /  F ield         | OpenFOAM: The Open Source CFD Toolbox           |
|  \\    /   O peration     | Version:  v1912                                 |
|   \\  /    A nd           | Website:  www.openfoam.com                      |
|    \\/     M anipulation  |                                                 |
\*---------------------------------------------------------------------------*/
FoamFile
{
    version     2.0;
    format      ascii;
    class       volScalarField;
    location    "1.38";
    object      p;
}
// * * * * * * * * * * * * * * * * * * * * * * * * * * * * * * * * * * * * * //

dimensions      [1 -1 -2 0 0 0 0];


internalField   nonuniform List<scalar> 
1900
(
9999.98
10000.8
10018.3
10117
10319.8
10527.2
10655
10729.1
10743.2
10752.6
9999.98
10000.8
10018.3
10116.8
10319.5
10526.2
10652.5
10718.1
10719.5
10719.3
9999.98
10000.8
10018.3
10116.7
10319.2
10524.8
10650.6
10715.7
10724.4
10722.6
9999.98
10000.8
10018.3
10116.8
10319.5
10526.2
10652.5
10718.1
10719.5
10719.3
9999.98
10000.8
10018.3
10117
10319.8
10527.2
10655
10729.1
10743.2
10752.6
10674.3
10705.4
10693.5
10616.8
9987.83
10711.4
10733.2
10709.2
10690.6
10393.7
10711
10720.7
10687.7
10640.8
10332
10711.4
10733.2
10709.2
10690.6
10393.7
10674.3
10705.4
10693.5
10616.8
9987.83
11525.9
11457.4
11648
11719
12019.1
11381.1
11432.1
11644
11798.5
11762.2
11376.4
11438.6
11635.3
11753.5
11462.1
11381.1
11432.1
11644
11798.5
11762.2
11525.9
11457.4
11648
11719
12019.1
10269.2
5722.21
6173.57
6252.38
6289.34
6595.27
6961.14
7482.35
8079.04
8705.45
9293.62
9737.12
9950.11
9996.74
9999.95
10000
10000
10000
10000
10000
10000
10000
10000
10000
10000
9999.94
9996.13
9942.88
9706.53
9223.46
8586.67
7901.59
7224.71
6583.24
5993.56
5470.46
5025.41
4667.68
4148.6
15380.1
10432.3
6056.04
6350.67
6282.85
6302.24
6606.66
6962.28
7482.89
8079.66
8706.43
9294.49
9737.61
9950.26
9996.75
9999.95
10000
10000
10000
10000
10000
10000
10000
10000
10000
10000
9999.94
9996.13
9942.88
9706.53
9223.46
8586.67
7901.59
7224.71
6583.24
5993.56
5470.46
5025.41
4667.68
4148.6
15380.1
9944.52
6545.44
6430.1
6300.16
6310.4
6608.23
6963.23
7483.16
8079.84
8706.72
9294.8
9737.81
9950.32
9996.76
9999.95
10000
10000
10000
10000
10000
10000
10000
10000
10000
10000
9999.94
9996.13
9942.88
9706.53
9223.46
8586.67
7901.59
7224.71
6583.24
5993.56
5470.46
5025.41
4667.68
4148.6
15380.1
10432.3
6056.04
6350.67
6282.85
6302.24
6606.66
6962.28
7482.89
8079.66
8706.43
9294.49
9737.61
9950.26
9996.75
9999.95
10000
10000
10000
10000
10000
10000
10000
10000
10000
10000
9999.94
9996.13
9942.88
9706.53
9223.46
8586.67
7901.59
7224.71
6583.24
5993.56
5470.46
5025.41
4667.68
4148.6
15380.1
10269.2
5722.21
6173.57
6252.38
6289.34
6595.27
6961.14
7482.35
8079.04
8705.45
9293.62
9737.12
9950.11
9996.74
9999.95
10000
10000
10000
10000
10000
10000
10000
10000
10000
10000
9999.94
9996.13
9942.88
9706.53
9223.46
8586.67
7901.59
7224.71
6583.24
5993.56
5470.46
5025.41
4667.68
4148.6
15380.1
12086.3
5143.03
5906.53
6113.27
6251.41
6546.9
6952.51
7477.38
8075.1
8701.3
9289.81
9734.73
9949.38
9996.66
9999.95
10000
10000
10000
10000
10000
10000
10000
10000
10000
10000
9999.94
9996.13
9942.88
9706.53
9223.46
8586.67
7901.59
7224.71
6583.24
5993.56
5470.46
5025.41
4667.68
4148.6
15380.1
13321.4
4589.99
5534.38
5855.3
6130.75
6463.94
6918.62
7457.6
8060.8
8689.06
9280.33
9729.52
9947.91
9996.52
9999.95
10000
10000
10000
10000
10000
10000
10000
10000
10000
10000
9999.94
9996.13
9942.88
9706.53
9223.46
8586.67
7901.59
7224.71
6583.24
5993.56
5470.46
5025.41
4667.68
4148.6
15380.1
14688.7
4459.85
5335.24
5681.13
6006.61
6388.42
6869.79
7424.57
8036.31
8670.49
9267.69
9723.25
9946.26
9996.38
9999.94
10000
10000
10000
10000
10000
10000
10000
10000
10000
10000
9999.94
9996.13
9942.88
9706.53
9223.46
8586.67
7901.59
7224.71
6583.24
5993.56
5470.46
5025.41
4667.68
4148.6
15380.1
15779.5
4400.9
5184.96
5536.96
5889.38
6309.67
6812.87
7384.09
8006.39
8649.07
9254.33
9717.22
9944.81
9996.25
9999.94
10000
10000
10000
10000
10000
10000
10000
10000
10000
10000
9999.94
9996.13
9942.88
9706.53
9223.46
8586.67
7901.59
7224.71
6583.24
5993.56
5470.46
5025.41
4667.68
4148.6
15380.1
16259.4
4368.57
5078.75
5414.45
5784.64
6231.11
6754.08
7340.93
7975.08
8627.91
9242.29
9712.26
9943.72
9996.17
9999.94
10000
10000
10000
10000
10000
10000
10000
10000
10000
10000
9999.94
9996.13
9942.87
9706.53
9223.46
8586.66
7901.59
7224.71
6583.24
5993.56
5470.46
5025.41
4667.68
4148.6
15380.1
16269.4
4343.15
4978.31
5295.37
5686.15
6154.3
6695.4
7297.44
7943.88
8607.42
9231.56
9708.45
9942.76
9995.76
9999.57
9999.63
9999.63
9999.63
9999.63
9999.63
9999.63
9999.63
9999.63
9999.63
9999.63
9999.57
9995.76
9942.51
9706.17
9223.13
8586.38
7901.36
7224.53
6583.11
5993.47
5470.4
5025.37
4667.65
4148.59
15380.1
16121.7
4316.99
4857.25
5179.98
5586.48
6069.79
6629.81
7250.46
7912.49
8586.85
9215.77
9695.05
9930.3
9983.41
9987.22
9987.28
9987.28
9987.28
9987.28
9987.28
9987.28
9987.28
9987.28
9987.28
9987.28
9987.22
9983.42
9930.25
9694.31
9212.12
8576.6
7893
7217.65
6577.64
5989.26
5467.22
5023.06
4665.92
4147.91
15379.4
15832.5
4239.66
4716.29
5059.8
5485.68
5988.04
6553.64
7171.16
7827.26
8495.41
9119.19
9593.79
9826.53
9879.03
9882.79
9882.84
9882.84
9882.84
9882.84
9882.84
9882.84
9882.84
9882.84
9882.84
9882.84
9882.79
9879.04
9826.58
9593.7
9117.84
8491.06
7817.46
7152.47
6522.58
5943.62
5429.85
4993.04
4641.1
4135.49
15356.7
15376.3
4121.45
4577.18
4905.34
5310.03
5791.62
6338.59
6937.02
7571.9
8217.87
8820.69
9278.72
9502.65
9552.94
9556.52
9556.58
9556.58
9556.58
9556.58
9556.58
9556.58
9556.58
9556.58
9556.58
9556.58
9556.52
9552.95
9502.71
9278.93
8821.03
8218
7570.62
6932.38
6328.55
5774.3
5282.89
4866.22
4528.86
4064.74
15156.4
14581.8
3902.99
4306.39
4619.61
5005.06
5463.09
5982.05
6549.28
7149.54
7758.88
8326.41
8756.31
8965.16
9011.59
9014.85
9014.9
9014.9
9014.9
9014.9
9014.9
9014.9
9014.9
9014.9
9014.9
9014.9
9014.85
9011.59
8965.17
8756.43
8326.83
7759.73
7150.71
6550.65
5983.53
5463.78
5003.67
4614.2
4297.42
3886.48
14496.6
13376.4
3614.47
3990.59
4284.67
4646.24
5073.54
5556.83
6084.89
6643.74
7210.46
7736.87
8133.27
8323.62
8365.15
8367.99
8368.03
8368.03
8368.03
8368.03
8368.03
8368.03
8368.03
8368.03
8368.03
8368.03
8367.99
8365.15
8323.62
8133.31
7737.07
7210.98
6644.72
6086.49
5559.06
5076.07
4648.76
4286.66
3992.09
3614.91
13362.3
11985.9
3297.57
3661.98
3934.64
4271.23
4666.97
5114.89
5603.39
6120.43
6644.05
7128.57
7490.06
7660.54
7696.69
7699.07
7699.1
7699.1
7699.1
7699.1
7699.1
7699.1
7699.1
7699.1
7699.1
7699.1
7699.07
7696.69
7660.54
7490.07
7128.63
6644.25
6120.9
5604.27
5116.2
4668.71
4273.37
3937.13
3664.6
3299.64
11985.5
10612.3
2979.53
3339.85
3592.77
3903.9
4270.79
4684.05
5135.35
5612.15
6094.35
6538.24
6865.27
7015.73
7046.41
7048.32
7048.34
7048.34
7048.34
7048.34
7048.34
7048.34
7048.34
7048.34
7048.34
7048.34
7048.32
7046.41
7015.72
6865.27
6538.24
6094.39
5612.27
5135.61
4684.48
4271.44
3904.81
3593.98
3341.18
2980.57
10613.5
9226.81
2680.36
3036.77
3271.63
3559.61
3896.02
4280.03
4695.44
5135.33
5578.61
5984.12
6278.12
6409.21
6434.66
6436.14
6436.16
6436.16
6436.16
6436.16
6436.16
6436.16
6436.16
6436.16
6436.16
6436.16
6436.14
6434.66
6409.21
6278.11
5984.11
5578.61
5135.33
4695.46
4280.1
3896.16
3559.83
3271.95
3037.1
2680.6
9227.25
8072.1
2412.88
2751.42
2979.27
3241.76
3555.26
3907.91
4294.18
4700.01
5108.23
5478.2
5741.17
5854.08
5874.75
5875.87
5875.88
5875.88
5875.88
5875.88
5875.88
5875.88
5875.88
5875.88
5875.88
5875.88
5875.87
5874.75
5854.08
5741.17
5478.2
5108.22
4700
4294.16
3907.89
3555.25
3241.76
2979.28
2751.44
2412.89
8072.18
6929.44
2195.84
2505.53
2726.74
2969.05
3252.48
3582.14
3938.7
4315.83
4692.64
5030.86
5265.76
5362.42
5379
5379.82
5379.83
5379.83
5379.83
5379.83
5379.83
5379.83
5379.83
5379.83
5379.83
5379.83
5379.82
5379
5362.42
5265.76
5030.86
4692.64
4315.83
3938.68
3582.12
3252.46
2969.02
2726.71
2505.5
2195.83
6929.43
6110.39
2010.74
2294.9
2505.87
2737.21
3001.11
3305.66
3638.91
3990.98
4342.22
4653.79
4864.12
4946.23
4959.25
4959.83
4959.84
4959.84
4959.84
4959.84
4959.84
4959.84
4959.84
4959.84
4959.84
4959.84
4959.83
4959.25
4946.23
4864.12
4653.79
4342.22
3990.98
3638.9
3305.66
3001.1
2737.2
2505.86
2294.89
2010.74
6110.39
5379.29
1859.81
2105.23
2301.39
2523.96
2783.46
3083.2
3399.39
3731.61
4061.28
4351.87
4544.24
4616.11
4626.7
4627.12
4627.13
4627.13
4627.13
4627.13
4627.13
4627.13
4627.13
4627.13
4627.13
4627.13
4627.12
4626.7
4616.11
4544.24
4351.87
4061.28
3731.61
3399.39
3083.2
2783.45
2523.95
2301.38
2105.23
1859.81
5379.29
4761.89
1631.95
1864.6
2020.11
2215.99
2445.17
2724.44
3037.45
3365.2
3676.75
3924.16
4062.83
4104.85
4109.79
4109.94
4109.94
4109.94
4109.94
4109.94
4109.94
4109.94
4109.94
4109.94
4109.94
4109.94
4109.94
4109.79
4104.85
4062.83
3924.16
3676.75
3365.2
3037.45
2724.44
2445.17
2215.99
2020.11
1864.59
1631.95
4761.89
22608.1
4856.22
5498.08
6289.38
7171.42
8407.55
9645.21
11114.8
12562.4
13946.9
14981
15472.4
15580
15587.8
15587.9
15587.9
15587.9
15587.9
15587.9
15587.9
15587.9
15587.9
15587.9
15587.9
15587.9
15587.9
15587.8
15580
15472.4
14981
13946.9
12562.4
11114.8
9645.21
8407.55
7171.42
6289.38
5498.08
4856.23
22608.1
22608.1
4856.22
5498.08
6289.38
7171.42
8407.55
9645.21
11114.8
12562.4
13946.9
14981
15472.4
15580
15587.8
15587.9
15587.9
15587.9
15587.9
15587.9
15587.9
15587.9
15587.9
15587.9
15587.9
15587.9
15587.9
15587.8
15580
15472.4
14981
13946.9
12562.4
11114.8
9645.21
8407.55
7171.42
6289.38
5498.08
4856.23
22608.1
4761.89
1631.95
1864.6
2020.11
2215.99
2445.17
2724.44
3037.45
3365.2
3676.75
3924.16
4062.83
4104.85
4109.79
4109.94
4109.94
4109.94
4109.94
4109.94
4109.94
4109.94
4109.94
4109.94
4109.94
4109.94
4109.94
4109.79
4104.85
4062.83
3924.16
3676.75
3365.2
3037.45
2724.44
2445.17
2215.99
2020.11
1864.59
1631.95
4761.89
5379.29
1859.81
2105.23
2301.39
2523.96
2783.46
3083.2
3399.39
3731.61
4061.28
4351.87
4544.24
4616.11
4626.7
4627.12
4627.13
4627.13
4627.13
4627.13
4627.13
4627.13
4627.13
4627.13
4627.13
4627.13
4627.12
4626.7
4616.11
4544.24
4351.87
4061.28
3731.61
3399.39
3083.2
2783.45
2523.95
2301.38
2105.23
1859.81
5379.29
6110.39
2010.74
2294.9
2505.87
2737.21
3001.11
3305.66
3638.91
3990.98
4342.22
4653.79
4864.12
4946.23
4959.25
4959.83
4959.84
4959.84
4959.84
4959.84
4959.84
4959.84
4959.84
4959.84
4959.84
4959.84
4959.83
4959.25
4946.23
4864.12
4653.79
4342.22
3990.98
3638.9
3305.66
3001.1
2737.2
2505.86
2294.89
2010.74
6110.39
6929.44
2195.84
2505.53
2726.74
2969.05
3252.48
3582.14
3938.7
4315.83
4692.64
5030.86
5265.76
5362.42
5379
5379.82
5379.83
5379.83
5379.83
5379.83
5379.83
5379.83
5379.83
5379.83
5379.83
5379.83
5379.82
5379
5362.42
5265.76
5030.86
4692.64
4315.83
3938.68
3582.12
3252.46
2969.02
2726.71
2505.5
2195.83
6929.43
8072.1
2412.88
2751.42
2979.27
3241.76
3555.26
3907.91
4294.18
4700.01
5108.23
5478.2
5741.17
5854.08
5874.75
5875.87
5875.88
5875.88
5875.88
5875.88
5875.88
5875.88
5875.88
5875.88
5875.88
5875.88
5875.87
5874.75
5854.08
5741.17
5478.2
5108.22
4700
4294.16
3907.89
3555.25
3241.76
2979.28
2751.44
2412.89
8072.18
9226.81
2680.36
3036.77
3271.63
3559.61
3896.02
4280.03
4695.44
5135.33
5578.61
5984.12
6278.12
6409.21
6434.66
6436.14
6436.16
6436.16
6436.16
6436.16
6436.16
6436.16
6436.16
6436.16
6436.16
6436.16
6436.14
6434.66
6409.21
6278.11
5984.11
5578.61
5135.33
4695.46
4280.1
3896.16
3559.83
3271.95
3037.1
2680.6
9227.25
10612.3
2979.53
3339.85
3592.77
3903.9
4270.79
4684.05
5135.35
5612.15
6094.35
6538.24
6865.27
7015.73
7046.41
7048.32
7048.34
7048.34
7048.34
7048.34
7048.34
7048.34
7048.34
7048.34
7048.34
7048.34
7048.32
7046.41
7015.72
6865.27
6538.24
6094.39
5612.27
5135.61
4684.48
4271.44
3904.81
3593.98
3341.18
2980.57
10613.5
11985.9
3297.57
3661.98
3934.64
4271.23
4666.97
5114.89
5603.39
6120.43
6644.05
7128.57
7490.06
7660.54
7696.69
7699.07
7699.1
7699.1
7699.1
7699.1
7699.1
7699.1
7699.1
7699.1
7699.1
7699.1
7699.07
7696.69
7660.54
7490.07
7128.63
6644.25
6120.9
5604.27
5116.2
4668.71
4273.37
3937.13
3664.6
3299.64
11985.5
13376.4
3614.47
3990.59
4284.67
4646.24
5073.54
5556.83
6084.89
6643.74
7210.46
7736.87
8133.27
8323.62
8365.15
8367.99
8368.03
8368.03
8368.03
8368.03
8368.03
8368.03
8368.03
8368.03
8368.03
8368.03
8367.99
8365.15
8323.62
8133.31
7737.07
7210.98
6644.72
6086.49
5559.06
5076.07
4648.76
4286.66
3992.09
3614.91
13362.3
14581.8
3902.99
4306.39
4619.61
5005.06
5463.09
5982.05
6549.28
7149.54
7758.88
8326.41
8756.31
8965.16
9011.59
9014.85
9014.9
9014.9
9014.9
9014.9
9014.9
9014.9
9014.9
9014.9
9014.9
9014.9
9014.85
9011.59
8965.17
8756.43
8326.83
7759.73
7150.71
6550.65
5983.53
5463.78
5003.67
4614.2
4297.42
3886.48
14496.6
15376.3
4121.45
4577.18
4905.34
5310.03
5791.62
6338.59
6937.02
7571.9
8217.87
8820.69
9278.72
9502.65
9552.94
9556.52
9556.58
9556.58
9556.58
9556.58
9556.58
9556.58
9556.58
9556.58
9556.58
9556.58
9556.52
9552.95
9502.71
9278.93
8821.03
8218
7570.62
6932.38
6328.55
5774.3
5282.89
4866.22
4528.86
4064.74
15156.4
15832.5
4239.66
4716.29
5059.8
5485.68
5988.04
6553.64
7171.16
7827.26
8495.41
9119.19
9593.79
9826.53
9879.03
9882.79
9882.84
9882.84
9882.84
9882.84
9882.84
9882.84
9882.84
9882.84
9882.84
9882.84
9882.79
9879.04
9826.58
9593.7
9117.84
8491.06
7817.46
7152.47
6522.58
5943.62
5429.85
4993.04
4641.1
4135.49
15356.7
16121.7
4316.99
4857.25
5179.98
5586.48
6069.79
6629.81
7250.46
7912.49
8586.85
9215.77
9695.05
9930.3
9983.41
9987.22
9987.28
9987.28
9987.28
9987.28
9987.28
9987.28
9987.28
9987.28
9987.28
9987.28
9987.22
9983.42
9930.25
9694.31
9212.12
8576.6
7893
7217.65
6577.64
5989.26
5467.22
5023.06
4665.92
4147.91
15379.4
16269.4
4343.15
4978.31
5295.37
5686.15
6154.3
6695.4
7297.44
7943.88
8607.42
9231.56
9708.45
9942.76
9995.76
9999.57
9999.63
9999.63
9999.63
9999.63
9999.63
9999.63
9999.63
9999.63
9999.63
9999.63
9999.57
9995.76
9942.51
9706.17
9223.13
8586.38
7901.36
7224.53
6583.11
5993.47
5470.4
5025.37
4667.65
4148.59
15380.1
16259.4
4368.57
5078.75
5414.45
5784.64
6231.11
6754.08
7340.93
7975.08
8627.91
9242.29
9712.26
9943.72
9996.17
9999.94
10000
10000
10000
10000
10000
10000
10000
10000
10000
10000
9999.94
9996.13
9942.87
9706.53
9223.46
8586.66
7901.59
7224.71
6583.24
5993.56
5470.46
5025.41
4667.68
4148.6
15380.1
15779.5
4400.9
5184.96
5536.96
5889.38
6309.67
6812.87
7384.09
8006.39
8649.07
9254.33
9717.22
9944.81
9996.25
9999.94
10000
10000
10000
10000
10000
10000
10000
10000
10000
10000
9999.94
9996.13
9942.88
9706.53
9223.46
8586.67
7901.59
7224.71
6583.24
5993.56
5470.46
5025.41
4667.68
4148.6
15380.1
14688.7
4459.85
5335.24
5681.13
6006.61
6388.42
6869.79
7424.57
8036.31
8670.49
9267.69
9723.25
9946.26
9996.38
9999.94
10000
10000
10000
10000
10000
10000
10000
10000
10000
10000
9999.94
9996.13
9942.88
9706.53
9223.46
8586.67
7901.59
7224.71
6583.24
5993.56
5470.46
5025.41
4667.68
4148.6
15380.1
13321.4
4589.99
5534.38
5855.3
6130.75
6463.94
6918.62
7457.6
8060.8
8689.06
9280.33
9729.52
9947.91
9996.52
9999.95
10000
10000
10000
10000
10000
10000
10000
10000
10000
10000
9999.94
9996.13
9942.88
9706.53
9223.46
8586.67
7901.59
7224.71
6583.24
5993.56
5470.46
5025.41
4667.68
4148.6
15380.1
12086.3
5143.03
5906.53
6113.27
6251.41
6546.9
6952.51
7477.38
8075.1
8701.3
9289.81
9734.73
9949.38
9996.66
9999.95
10000
10000
10000
10000
10000
10000
10000
10000
10000
10000
9999.94
9996.13
9942.88
9706.53
9223.46
8586.67
7901.59
7224.71
6583.24
5993.56
5470.46
5025.41
4667.68
4148.6
15380.1
)
;

boundaryField
{
    inlet
    {
        type            fixedValue;
        value           uniform 10000;
    }
    outlet
    {
        type            fixedValue;
        value           uniform 1000;
    }
    obstacle
    {
        type            zeroGradient;
    }
    empty
    {
        type            empty;
    }
}


// ************************************************************************* //
