/*--------------------------------*- C++ -*----------------------------------*\
| =========                 |                                                 |
| \\      /  F ield         | OpenFOAM: The Open Source CFD Toolbox           |
|  \\    /   O peration     | Version:  v1912                                 |
|   \\  /    A nd           | Website:  www.openfoam.com                      |
|    \\/     M anipulation  |                                                 |
\*---------------------------------------------------------------------------*/
FoamFile
{
    version     2.0;
    format      ascii;
    class       volVectorField;
    location    "9.1";
    object      grad(p);
}
// * * * * * * * * * * * * * * * * * * * * * * * * * * * * * * * * * * * * * //

dimensions      [1 -2 -2 0 0 0 0];


internalField   nonuniform List<vector> 
1900
(
(-47031.6 -0.193866 0)
(30280.7 -0.0757062 0)
(2810.28 -0.0236597 0)
(736.102 0.875681 0)
(489.087 -0.218044 0)
(-346.866 -0.00619543 0)
(-852.845 2.63792 0)
(-804.433 -0.174573 0)
(-597.852 9.20506 0)
(517.974 10.3049 0)
(-47031.9 -0.356973 0)
(30280.9 -0.144872 0)
(2811.23 0.000843387 0)
(735.908 1.86715 0)
(488.205 0.716464 0)
(-344.01 2.11325 0)
(-853.014 4.57174 0)
(-797.866 -16.7491 0)
(-587.372 -72.4985 0)
(-520.058 -74.3253 0)
(-47032.1 -1.40776e-09 0)
(30281.1 -1.08358e-09 0)
(2812.29 -6.57252e-10 0)
(736.818 -1.77636e-10 0)
(489.333 -7.10543e-11 0)
(-343.011 -4.9738e-10 0)
(-871.708 -1.88294e-09 0)
(-881.503 4.26326e-10 0)
(-655.428 1.95399e-10 0)
(-613.33 1.06581e-10 0)
(-47031.9 0.356973 0)
(30280.9 0.144872 0)
(2811.23 -0.000843387 0)
(735.908 -1.86715 0)
(488.205 -0.716464 0)
(-344.01 -2.11325 0)
(-853.014 -4.57174 0)
(-797.866 16.7491 0)
(-587.372 72.4985 0)
(-520.058 74.3253 0)
(-47031.6 0.193866 0)
(30280.7 0.0757062 0)
(2810.28 0.0236597 0)
(736.102 -0.875681 0)
(489.087 0.218044 0)
(-346.866 0.00619543 0)
(-852.845 -2.63792 0)
(-804.433 0.174573 0)
(-597.852 -9.20506 0)
(517.974 -10.3049 0)
(-137.328 -882.57 8.49261e-12)
(-1840.87 -701.285 -9.91907e-12)
(-1759.81 -851.927 -1.2449e-11)
(327.208 -1167.33 0)
(-18677.2 -7901.66 -5.38751e-11)
(-773.264 -1052.27 8.33313e-12)
(-1291.47 -837.452 9.91907e-12)
(-1716.38 -909.019 1.2449e-11)
(-2224.99 -812.631 0)
(-17676.1 -7154.67 0)
(-1116.35 -2.41353e-10 0)
(-1352.62 5.84328e-10 0)
(-1634.52 -7.40149e-11 0)
(-2306.04 1.31208e-09 0)
(-20496.1 -3.70074e-10 0)
(-773.264 1052.27 8.33313e-12)
(-1291.47 837.452 9.91907e-12)
(-1716.38 909.019 1.2449e-11)
(-2224.99 812.631 0)
(-17676.1 7154.67 0)
(-137.328 882.57 -2.51589e-11)
(-1840.87 701.285 -9.91907e-12)
(-1759.81 851.927 -1.2449e-11)
(327.208 1167.33 -3.34125e-11)
(-18677.2 7901.66 5.38751e-11)
(-36568 10437.7 9.90026e-12)
(-11013.3 4055.25 -4.84672e-12)
(-4949.3 1885.72 0)
(-3184.99 1259.18 2.00911e-12)
(-1213.43 674.925 -6.63313e-13)
(-32644.9 12932.8 -5.10731e-12)
(-12910.1 3307.12 2.48443e-12)
(-5645.37 1097.68 0)
(-3541.31 753.943 -1.28507e-12)
(-1916.15 97.6652 1.71645e-13)
(-33759.5 0 0)
(-14029.9 -2.65694e-10 0)
(-5758.09 6.66134e-10 0)
(-3622.41 -1.45127e-11 5.23112e-13)
(-1881.84 6.68731e-10 -3.4329e-13)
(-32644.9 -12932.8 -5.10731e-12)
(-12910.1 -3307.12 2.48443e-12)
(-5645.37 -1097.68 0)
(-3541.31 -753.943 -1.28507e-12)
(-1916.15 -97.6652 1.71645e-13)
(-36568 -10437.7 5.10731e-12)
(-11013.3 -4055.25 -1.22131e-13)
(-4949.3 -1885.72 0)
(-3184.99 -1259.18 3.79225e-14)
(-1213.43 -674.925 6.63313e-13)
(451.002 -1375.72 0)
(285.891 -417.335 0)
(45.9841 686.351 0)
(-70.7519 642.328 0)
(-174.89 405.297 0)
(-275.511 168.2 0)
(-366.795 -2.44406 0)
(-397.232 -129.332 0)
(-392.549 -226.529 0)
(-327.012 -276.559 0)
(-271.701 -217.826 0)
(-344.536 -175.61 0)
(-333.928 -106.495 0)
(-83.2289 -62.4987 0)
(545.488 -43.8105 0)
(1694.88 46.7905 0)
(1606.04 3.62355 0)
(494.958 -100.834 0)
(39.7992 -133.277 0)
(-135.211 -72.7058 0)
(-146.589 -8.51704 0)
(-68.1255 8.86078 0)
(-72.3424 61.0396 0)
(-141.237 142.936 0)
(-271.1 -60.8203 0)
(-470.139 -231.23 0)
(1424.67 -229.279 0)
(3261.87 -229.96 0)
(-422.071 -158.558 0)
(-3987.89 49.4427 0)
(-2222.81 60.759 0)
(-96.3371 17.7678 0)
(246.711 12.1053 0)
(260.333 9.99232 0)
(265.708 7.18085 0)
(280.834 4.96861 0)
(288.531 2.68509 0)
(298.975 2.73559 0)
(312.426 2.68691 0)
(317.095 2.74857 0)
(64.3898 -897.651 0)
(636.107 -1000.24 0)
(242.863 251.514 0)
(-177.892 334.582 0)
(-280.881 235.388 0)
(-341.608 92.4303 0)
(-380.968 36.3293 0)
(-392.225 26.5845 0)
(-388.736 4.88012 0)
(-315.035 -26.2982 0)
(-257.914 -1.22371 0)
(-328.647 -6.45752 0)
(-322.47 38.2586 0)
(-84.0935 12.5471 0)
(556.688 12.9763 0)
(1697.63 55.6197 0)
(1586.08 38.7291 0)
(479.471 -6.85819 0)
(43.4156 -42.7784 0)
(-117.384 -23.1874 0)
(-135.292 0.225746 0)
(-57.8545 2.35033 0)
(-37.7315 26.0599 0)
(-144.914 41.4076 0)
(-302.774 -52.5754 0)
(-469.684 -13.3695 0)
(1442.29 27.1282 0)
(3248.94 138.79 0)
(-434.965 36.8398 0)
(-3975.01 46.1787 0)
(-2227.91 25.2585 0)
(-100.925 7.4443 0)
(246.013 5.12316 0)
(259.957 4.26822 0)
(265.492 2.98802 0)
(280.82 1.71154 0)
(288.783 0.0408538 0)
(299.188 0.0568048 0)
(312.184 -0.235943 0)
(315.298 -0.661661 0)
(70.4409 1.77636e-10 0)
(620.193 6.45948e-10 0)
(434.295 6.49985e-10 0)
(-75.4431 5.93465e-10 0)
(-245.334 1.06581e-09 0)
(-333.419 1.45338e-10 0)
(-385.95 8.47807e-11 0)
(-406.381 4.76387e-10 0)
(-407.933 -7.26691e-11 0)
(-328.788 -3.9968e-10 0)
(-265.93 1.75617e-10 0)
(-333.05 3.18937e-10 0)
(-328.399 3.59309e-10 0)
(-90.5837 -2.05896e-10 0)
(558.019 -1.53413e-10 0)
(1702.37 2.36175e-10 0)
(1587.87 6.98431e-10 0)
(471.247 5.12721e-10 0)
(35.0489 -1.41705e-09 0)
(-122.701 -3.24589e-09 0)
(-139.159 2.30119e-10 0)
(-60.6101 1.46146e-08 0)
(-60.9803 -9.0683e-08 0)
(-164.112 -1.01192e-07 0)
(-287.035 8.17124e-09 0)
(-446.952 1.81673e-10 0)
(1468.94 -7.01661e-09 0)
(3264.69 -1.50304e-08 0)
(-449.012 1.12556e-08 0)
(-3991.26 1.69965e-09 0)
(-2234.08 -5.80142e-09 0)
(-102.195 -2.15989e-10 0)
(245.787 2.78565e-10 0)
(259.712 -2.98751e-10 0)
(264.964 -1.24345e-09 0)
(279.976 -1.76425e-09 0)
(288.049 -1.12637e-09 0)
(298.895 -6.90357e-10 0)
(312.217 1.17078e-10 0)
(317.356 7.18617e-10 0)
(64.3898 897.651 0)
(636.107 1000.24 0)
(242.863 -251.514 0)
(-177.892 -334.582 0)
(-280.881 -235.388 0)
(-341.608 -92.4303 0)
(-380.968 -36.3293 0)
(-392.225 -26.5845 0)
(-388.736 -4.88012 0)
(-315.035 26.2982 0)
(-257.914 1.22371 0)
(-328.647 6.45752 0)
(-322.47 -38.2586 0)
(-84.0935 -12.5471 0)
(556.688 -12.9763 0)
(1697.63 -55.6197 0)
(1586.08 -38.7291 0)
(479.471 6.85819 0)
(43.4156 42.7784 0)
(-117.384 23.1874 0)
(-135.292 -0.225746 0)
(-57.8545 -2.35033 0)
(-37.7315 -26.0599 0)
(-144.914 -41.4076 0)
(-302.774 52.5754 0)
(-469.684 13.3695 0)
(1442.29 -27.1282 0)
(3248.94 -138.79 0)
(-434.965 -36.8398 0)
(-3975.01 -46.1787 0)
(-2227.91 -25.2585 0)
(-100.925 -7.4443 0)
(246.013 -5.12316 0)
(259.957 -4.26822 0)
(265.492 -2.98802 0)
(280.82 -1.71154 0)
(288.783 -0.0408538 0)
(299.188 -0.0568048 0)
(312.184 0.235943 0)
(315.298 0.661661 0)
(451.002 1375.72 0)
(285.891 417.335 0)
(45.9841 -686.351 0)
(-70.7519 -642.328 0)
(-174.89 -405.297 0)
(-275.511 -168.2 0)
(-366.795 2.44406 0)
(-397.232 129.332 0)
(-392.549 226.529 0)
(-327.012 276.559 0)
(-271.701 217.826 0)
(-344.536 175.61 0)
(-333.928 106.495 0)
(-83.2289 62.4987 0)
(545.488 43.8105 0)
(1694.88 -46.7905 0)
(1606.04 -3.62355 0)
(494.958 100.834 0)
(39.7992 133.277 0)
(-135.211 72.7058 0)
(-146.589 8.51704 0)
(-68.1255 -8.86078 0)
(-72.3424 -61.0396 0)
(-141.237 -142.936 0)
(-271.1 60.8203 0)
(-470.139 231.23 0)
(1424.67 229.279 0)
(3261.87 229.96 0)
(-422.071 158.558 0)
(-3987.89 -49.4427 0)
(-2222.81 -60.759 0)
(-96.3371 -17.7678 0)
(246.711 -12.1053 0)
(260.333 -9.99232 0)
(265.708 -7.18085 0)
(280.834 -4.96861 0)
(288.531 -2.68509 0)
(298.975 -2.73559 0)
(312.426 -2.68691 0)
(317.095 -2.74857 0)
(-180.942 533.384 0)
(-252.437 -124.651 0)
(-194.193 -468.303 0)
(-125.476 -703.168 0)
(-106.025 -733.673 0)
(-162.269 -681.547 0)
(-210.722 -522.461 0)
(-245.872 -305.762 0)
(-291.976 -116.869 0)
(-306.646 24.2752 0)
(-305.294 81.4113 0)
(-380.112 88.9896 0)
(-380.175 111.477 0)
(-124.414 57.2081 0)
(501.083 44.3112 0)
(1671.05 -43.7938 0)
(1655.6 -80.1357 0)
(547.437 18.8235 0)
(29.9529 80.8698 0)
(-175.029 37.649 0)
(-173.395 -20.7756 0)
(-89.6097 -48.7878 0)
(-81.8147 -49.9561 0)
(-72.7272 -85.5951 0)
(-104.691 -97.8024 0)
(-363.49 -49.1117 0)
(1461.86 11.7265 0)
(3189.64 92.7758 0)
(-625.135 -143.851 0)
(-4097.69 -257.782 0)
(-2213.92 -104.799 0)
(-75.7102 -25.078 0)
(250.082 -17.3207 0)
(262.611 -15.5521 0)
(268.394 -11.5637 0)
(283.623 -6.4975 0)
(290.475 -1.39633 0)
(299.432 0.983754 0)
(311.896 0.724951 0)
(316.63 -1.80202 0)
(-428.084 -68.2086 0)
(-390.702 -123.697 0)
(-382.706 -140.717 0)
(-297.128 -150.849 0)
(-190.983 -227.845 0)
(-132.703 -292.998 0)
(-88.3668 -315.144 0)
(-87.5527 -302.418 0)
(-128.444 -263.27 0)
(-146.863 -180.257 0)
(-191.327 -93.6894 0)
(-296.486 -29.5623 0)
(-339.754 77.0032 0)
(-125.868 83.2654 0)
(471.971 50.163 0)
(1587.74 27.1398 0)
(1639.81 -16.423 0)
(621.968 33.0492 0)
(63.22 101.898 0)
(-211.809 85.3226 0)
(-215.507 2.74061 0)
(-84.7243 -26.8076 0)
(-102.732 -4.33578 0)
(-224.08 -72.9456 0)
(-325.177 -210.27 0)
(-421.781 -349.719 0)
(1541.46 -247.16 0)
(3150.68 -186.062 0)
(-650.992 -551.814 0)
(-3891.38 -541.89 0)
(-2003.34 -128.836 0)
(-23.1003 -16.2344 0)
(254.083 -13.1454 0)
(264.659 -17.4066 0)
(272.993 -15.9256 0)
(289.136 -11.469 0)
(294.697 -5.24362 0)
(300.775 -0.0689766 0)
(310.025 0.151704 0)
(318.382 -2.99412 0)
(-365.869 55.1315 0)
(-322.309 93.2225 0)
(-220.359 90.2321 0)
(-209.436 93.7537 0)
(-243.005 67.0898 0)
(-246.393 17.8051 0)
(-219.8 -43.3364 0)
(-195.884 -125.103 0)
(-174.257 -188.15 0)
(-143.233 -202.982 0)
(-160.079 -219.283 0)
(-215.626 -214.835 0)
(-271.45 -98.7579 0)
(-150.278 53.7008 0)
(446.999 101.299 0)
(1606.88 198.189 0)
(1661.3 -57.6528 0)
(661.456 -167.613 0)
(80.3254 -150.439 0)
(-270.581 -158.753 0)
(-281.448 -176.267 0)
(-96.4288 -113.229 0)
(-126.275 -105.532 0)
(-271.173 -142.207 0)
(-371.401 -156.304 0)
(-399.038 -197.074 0)
(1619.57 -6.8979 0)
(2896.06 69.7559 0)
(-968.023 -467.886 0)
(-3690.09 -560.932 0)
(-1707.38 -68.7389 0)
(35.7736 47.3309 0)
(248.953 43.0759 0)
(259.931 23.0499 0)
(274.115 0.714407 0)
(293.917 -10.0818 0)
(301.46 -8.14125 0)
(304.631 -1.78957 0)
(309.078 -0.26709 0)
(319.369 -1.84667 0)
(-285.124 13.4802 0)
(-356.878 59.6286 0)
(-382.194 37.3846 0)
(-319.429 -8.5004 0)
(-264.17 -37.8569 0)
(-239.114 -48.1976 0)
(-226.078 -44.9632 0)
(-227.1 -95.5364 0)
(-203.491 -150.406 0)
(-176.864 -178.143 0)
(-202.749 -257.913 0)
(-180.344 -265.355 0)
(-80.9838 -138.935 0)
(66.9143 41.9854 0)
(611.205 187.666 0)
(1434.57 391.659 0)
(1287.31 -146.018 0)
(532.556 -350.971 0)
(71.7581 -367.765 0)
(-236.699 -370.063 0)
(-171.638 -313.382 0)
(-16.5609 -203.834 0)
(-130.656 -245.934 0)
(-273.006 -252.807 0)
(-378.048 -237.817 0)
(-277.808 -227.395 0)
(1798.58 140.059 0)
(2706.46 472.899 0)
(-1258.75 -31.85 0)
(-3506.75 -241.025 0)
(-1417.19 234.082 0)
(84.6485 276.066 0)
(230.685 202.52 0)
(223.838 129.684 0)
(241.066 79.7252 0)
(280.602 42.4007 0)
(302.688 6.44834 0)
(308.362 -3.65982 0)
(309.97 -1.73236 0)
(320.419 -1.96506 0)
(-295.419 -6.38499 0)
(-299.274 7.68184 0)
(-286.01 78.5613 0)
(-281.941 119.609 0)
(-281.259 105.062 0)
(-253.241 87.8011 0)
(-265.417 71.1855 0)
(-297.493 43.9687 0)
(-253.86 36.4822 0)
(-246.83 -2.15664 0)
(-244.119 -100.349 0)
(-100.975 -31.4271 0)
(24.7142 94.9646 0)
(164.447 192.43 0)
(783.957 364.899 0)
(1285.33 441.61 0)
(945.67 -70.9812 0)
(447.772 -210.525 0)
(61.9276 -254.759 0)
(-218.175 -303.391 0)
(-121.263 -227.305 0)
(-31.4341 -163.258 0)
(-173.468 -250.826 0)
(-263.35 -234.684 0)
(-346.913 -134.628 0)
(-34.9031 -33.03 0)
(2294.4 936.613 0)
(2730.4 2139.59 0)
(-1655.99 870.164 0)
(-3433.83 435.712 0)
(-1209.1 930.074 0)
(5.36008 868.308 0)
(107.894 675.201 0)
(141.602 472.12 0)
(190.006 301.792 0)
(223.304 169.636 0)
(257.075 84.889 0)
(296.748 24.572 0)
(310.711 1.95611 0)
(322.932 -3.04823 0)
(-283.875 3.24566 0)
(-275.021 20.8319 0)
(-274.336 48.8904 0)
(-293.892 54.3137 0)
(-294.821 55.3906 0)
(-271.758 54.4079 0)
(-268.317 24.4403 0)
(-260.541 29.7254 0)
(-247.939 62.0943 0)
(-308.719 25.5338 0)
(-230.955 25.091 0)
(7.86666 117.938 0)
(134.733 146.079 0)
(327.033 217.62 0)
(851.325 372.337 0)
(1014.54 215.242 0)
(658.886 -136.257 0)
(355.461 -236.321 0)
(-17.7307 -367.592 0)
(-210.243 -396.737 0)
(-36.6009 -222.681 0)
(-39.227 -184.021 0)
(-199.486 -111.8 0)
(-161.033 43.7782 0)
(-183.727 266.643 0)
(754.479 873.245 0)
(3892.2 2948.39 0)
(2642.42 3399.71 0)
(-2900.66 748.687 0)
(-3449.02 570.112 0)
(-1000.33 1296.04 0)
(-160.957 1266.6 0)
(-151.096 1136.65 0)
(-135.992 956.891 0)
(-50.4186 731.072 0)
(71.5863 487.154 0)
(162.899 273.776 0)
(228.445 121.853 0)
(283.354 28.853 0)
(321.472 -2.84347 0)
(-272.216 3.88541 0)
(-255.289 18.708 0)
(-253.746 34.2224 0)
(-275.678 50.7143 0)
(-281.168 73.2262 0)
(-283.066 83.7165 0)
(-289.202 71.1148 0)
(-261.208 65.8541 0)
(-257.899 64.7122 0)
(-282.488 42.4412 0)
(-155.075 112.689 0)
(15.6138 158.818 0)
(120.771 142.862 0)
(382.477 224.072 0)
(781.666 285.758 0)
(795.233 -51.4863 0)
(510.528 -243.142 0)
(224.85 -357.622 0)
(-92.655 -547.614 0)
(-78.5336 -386.986 0)
(83.7168 16.6802 0)
(75.4153 96.3523 0)
(46.0484 480.278 0)
(101.331 1212.97 0)
(452.392 1670.86 0)
(2549.32 2405.99 0)
(4728.99 3733.92 0)
(610.694 1423.64 0)
(-4382.69 -701.997 0)
(-2906.38 109.227 0)
(-537.939 874.652 0)
(-148.233 946.636 0)
(-190.548 976.946 0)
(-249.228 992.333 0)
(-262.65 958.759 0)
(-217.363 822.127 0)
(-94.9433 575.99 0)
(60.7313 323.387 0)
(190.549 122.943 0)
(297.869 4.02823 0)
(-262.103 6.62152 0)
(-245.787 21.0391 0)
(-243.494 24.6765 0)
(-256.306 33.6241 0)
(-263.019 52.9143 0)
(-273.793 57.6858 0)
(-285.53 53.8924 0)
(-266.711 62.4195 0)
(-270.5 59.4292 0)
(-262.487 66.0775 0)
(-118.81 150.108 0)
(36.9428 195.403 0)
(197.613 234.143 0)
(464.732 276.135 0)
(585.787 181.285 0)
(504.869 -91.6077 0)
(363.883 -243.463 0)
(62.0605 -453.126 0)
(-46.0272 -239.138 0)
(333.532 313.67 0)
(429.161 801.879 0)
(407.513 1532.52 0)
(876.528 2131.62 0)
(986.254 2385.58 0)
(965.907 2390.5 0)
(2742.52 2491.95 0)
(2945.57 1787.74 0)
(-1632.18 -1390.3 0)
(-4167.28 -1676.74 0)
(-1929.7 -47.7146 0)
(-193.371 385.375 0)
(-62.3827 470.345 0)
(-107.06 537.399 0)
(-153.518 623.294 0)
(-214.436 720.393 0)
(-297.264 775.709 0)
(-317.705 727.088 0)
(-208.127 543.79 0)
(-24.3911 278.199 0)
(199.118 27.8879 0)
(-245.562 14.2323 0)
(-237.891 35.1399 0)
(-241.619 39.2511 0)
(-248.467 38.058 0)
(-257.981 28.3073 0)
(-282.123 6.17369 0)
(-284.641 -4.1834 0)
(-255.872 8.53446 0)
(-254.374 17.298 0)
(-195.106 69.0196 0)
(-30.4519 172.051 0)
(96.5929 245.403 0)
(198.567 295.066 0)
(331.541 291.508 0)
(427.295 147.471 0)
(385.93 89.7185 0)
(162.156 87.171 0)
(229.018 433.605 0)
(646.258 1238.53 0)
(924.629 2047.67 0)
(1258.25 2432.64 0)
(1356.81 2736.78 0)
(868.086 2628.38 0)
(350.791 1856.92 0)
(554.899 1188.4 0)
(1968.49 904.8 0)
(987.905 -510.615 0)
(-2727.81 -2537.58 0)
(-3088.92 -1568.64 0)
(-919.252 -19.6169 0)
(-38.7175 158.105 0)
(-1.73744 192.13 0)
(-43.1618 232.15 0)
(-72.8881 280.893 0)
(-115.777 341.92 0)
(-210.911 440.588 0)
(-318.429 520.886 0)
(-371.834 526.966 0)
(-306.593 369.042 0)
(2.91189 73.6397 0)
(-214.526 6.6988 0)
(-221.678 10.6445 0)
(-240.682 -8.28521 0)
(-266.852 -33.0497 0)
(-293.744 -56.8303 0)
(-305.102 -57.1492 0)
(-283.255 1.60662 0)
(-246.011 98.3859 0)
(-212.215 188.447 0)
(-113.362 355.456 0)
(51.1596 500.217 0)
(155.484 579.632 0)
(242.041 683.763 0)
(322.505 856.106 0)
(391.336 1025.38 0)
(446.762 1316.19 0)
(695.265 1769.31 0)
(1171.55 2398.66 0)
(1509.34 2860.91 0)
(1484.22 2905.22 0)
(1093.21 2635.85 0)
(596.132 1844.72 0)
(28.6619 1056.6 0)
(-401.363 516.346 0)
(48.4092 83.5217 0)
(1105.29 -410.65 0)
(-371.625 -2038.69 0)
(-2651.74 -2599.34 0)
(-1740.88 -889.344 0)
(-265.749 8.48284 0)
(10.6761 90.9312 0)
(8.96992 96.0998 0)
(-21.5251 109.726 0)
(-47.7397 116.006 0)
(-60.5472 120.254 0)
(-124.806 156.647 0)
(-234.468 210.793 0)
(-354.449 272.489 0)
(-461.233 278.655 0)
(-227.467 96.0253 0)
(-228.849 -14.3518 0)
(-252.33 -45.8559 0)
(-283.724 -62.6267 0)
(-295.246 -13.2901 0)
(-281.204 141.229 0)
(-225.811 364.535 0)
(-134.761 612.98 0)
(-75.8263 891.639 0)
(-6.65221 1269.07 0)
(105.326 1671.02 0)
(185.573 1961.47 0)
(273.465 2168.62 0)
(464.987 2433.49 0)
(660.731 2614.91 0)
(870.649 2796.84 0)
(1102.81 2884.75 0)
(1205.26 2984.56 0)
(1280.93 2817.24 0)
(1134.39 2300.09 0)
(707.751 1616.52 0)
(236.316 997.145 0)
(-165.023 499.697 0)
(-411.985 38.5361 0)
(-586.898 -232.362 0)
(-338.388 -468.429 0)
(-76.5531 -1277.68 0)
(-1121.2 -2711.64 0)
(-1620.26 -1852.62 0)
(-575.927 -303.678 0)
(25.3768 45.2884 0)
(45.7133 83.6983 0)
(16.3739 88.8369 0)
(-23.9794 92.1715 0)
(-62.7425 90.8862 0)
(-76.6141 81.846 0)
(-123.665 76.2176 0)
(-206.799 73.2367 0)
(-306.441 76.7098 0)
(-476.64 103.986 0)
(-358.143 58.0063 0)
(-272.544 27.5512 0)
(-268.198 80.4438 0)
(-209.3 275.349 0)
(-70.4088 626.124 0)
(70.3421 1030.8 0)
(149.493 1494.51 0)
(224.681 1956.47 0)
(386.226 2357.53 0)
(538.827 2755.98 0)
(553.853 3027.05 0)
(530.667 3197.14 0)
(610.34 3300.96 0)
(672.103 3342.67 0)
(672.649 3136.27 0)
(651.359 2796.71 0)
(627.654 2306.73 0)
(630.212 1845.96 0)
(511.964 1323.74 0)
(352.287 803.988 0)
(228.66 412.547 0)
(16.9991 135.455 0)
(-327.619 -66.4025 0)
(-676.776 -304.171 0)
(-889.893 -614.484 0)
(-958.902 -1154.57 0)
(-1056.35 -2065.24 0)
(-925.658 -2261.97 0)
(-331.339 -930.029 0)
(88.0143 -78.8387 0)
(107.541 27.0326 0)
(52.641 36.5305 0)
(17.135 39.4321 0)
(-19.5503 43.1341 0)
(-57.6896 55.1389 0)
(-74.6824 63.2198 0)
(-133.102 64.6935 0)
(-233.994 44.6605 0)
(-324.818 5.32616 0)
(-479.256 -18.9038 0)
(-383.569 5.62266 0)
(-124.781 113.93 0)
(-13.5432 464.121 0)
(242.113 943.58 0)
(432.73 1418.8 0)
(555.603 1695.16 0)
(666.2 1833.64 0)
(696.88 1949.19 0)
(694.616 2023.92 0)
(638.523 1970.31 0)
(530.444 1831.61 0)
(449.517 1725.25 0)
(413.696 1741.02 0)
(306.286 1714.32 0)
(134.627 1512.91 0)
(71.271 1210.46 0)
(186.629 884.555 0)
(258.023 659.82 0)
(276.852 478.797 0)
(256.333 362.717 0)
(63.5291 147.997 0)
(-225.218 -149.147 0)
(-588.664 -421.26 0)
(-940.136 -709.498 0)
(-1406.38 -1212.68 0)
(-1736.39 -1883.29 0)
(-1143.68 -2025.24 0)
(-27.2678 -1254.95 0)
(483.487 -395.153 0)
(346.332 -69.3652 0)
(136.551 -30.4247 0)
(57.662 -30.0208 0)
(22.7374 -26.1961 0)
(-8.84378 -17.3824 0)
(-43.3872 -2.18949 0)
(-67.4069 9.97517 0)
(-141.549 3.85361 0)
(-264.008 2.31757 0)
(-367.694 -17.1746 0)
(-476.354 -48.7614 0)
(-345.345 -1.47494 0)
(284.487 167.603 0)
(531.283 596.51 0)
(710.661 925.068 0)
(653.843 1030.14 0)
(470.096 981.334 0)
(394.283 783.633 0)
(408.046 531.442 0)
(406.583 302.1 0)
(353.511 90.6801 0)
(317.703 24.3015 0)
(443.366 106.806 0)
(599.801 256.58 0)
(452.297 332.664 0)
(187.118 406.972 0)
(45.8496 508.072 0)
(97.0337 570.434 0)
(239.209 469.434 0)
(225.665 381.468 0)
(33.516 125.562 0)
(-264.59 -164.092 0)
(-531.558 -497.401 0)
(-867.594 -869.59 0)
(-1439.41 -1372.22 0)
(-2021 -1929.32 0)
(-1741.92 -1824.73 0)
(-450.864 -1051.85 0)
(645.152 -524.344 0)
(811.138 -241.941 0)
(439.48 -110.889 0)
(145.454 -61.0954 0)
(56.7159 -69.7198 0)
(29.3139 -67.7187 0)
(3.58334 -57.019 0)
(-31.3269 -48.5955 0)
(-68.859 -40.2753 0)
(-140.481 -51.7566 0)
(-254.258 -40.4598 0)
(-374.039 -30.714 0)
(-464.128 -38.69 0)
(-335.159 7.82668 0)
(611.546 116.344 0)
(716.377 183.393 0)
(659.976 137.192 0)
(486.951 -51.1574 0)
(318.059 -210.637 0)
(232.667 -339.592 0)
(232.857 -444.595 0)
(269.883 -474.02 0)
(370.826 -426.258 0)
(545.983 -264.173 0)
(673.35 -57.7532 0)
(631.341 32.9181 0)
(451.209 39.0429 0)
(303.656 175.447 0)
(228.789 323.124 0)
(149.397 440.507 0)
(75.9283 309.935 0)
(-54.515 49.7126 0)
(-269.388 -267.116 0)
(-536.781 -589.341 0)
(-905.062 -993.534 0)
(-1431.67 -1564.23 0)
(-1961.33 -2041.09 0)
(-1842.43 -1812.41 0)
(-890.828 -853.323 0)
(109.419 -201.8 0)
(753.19 -207.054 0)
(881.907 -274.863 0)
(520.602 -204.614 0)
(176.223 -105.485 0)
(51.2796 -93.404 0)
(34.9763 -82.7883 0)
(9.58394 -71.8672 0)
(-27.2524 -74.8556 0)
(-70.453 -78.3487 0)
(-141.727 -92.5734 0)
(-243.73 -89.6126 0)
(-365.988 -71.089 0)
(-439.215 -57.6357 0)
(-315.604 -10.724 0)
(573.324 -104.327 0)
(551.372 -307.776 0)
(484.64 -518.216 0)
(318.663 -699.691 0)
(192.149 -802.34 0)
(168.832 -833.346 0)
(278.507 -778.635 0)
(424.253 -683.313 0)
(555.727 -555.628 0)
(672.808 -449.075 0)
(729.654 -389.73 0)
(693.077 -327.495 0)
(589.642 -185.367 0)
(460.869 -1.49089 0)
(301.271 66.5792 0)
(84.3248 15.4605 0)
(-137.374 -132.772 0)
(-330.402 -406.89 0)
(-582.299 -758.609 0)
(-964.593 -1218.12 0)
(-1470.99 -1761.58 0)
(-1877.06 -2097.45 0)
(-1678.57 -1743.18 0)
(-876.422 -789.926 0)
(-189.876 -64.6101 0)
(171.904 108.031 0)
(574.746 -57.9516 0)
(813.49 -306.694 0)
(602.699 -318.173 0)
(252.62 -205.956 0)
(78.5875 -158.048 0)
(50.0675 -148.349 0)
(11.2276 -152.746 0)
(-37.5726 -149.385 0)
(-85.9325 -148.136 0)
(-151.335 -153.508 0)
(-233.555 -133.068 0)
(-343.225 -88.1352 0)
(-405.958 -32.727 0)
(-269.285 3.29778 0)
(214.429 -247.232 0)
(317.539 -466.521 0)
(282.313 -672.613 0)
(213.158 -807.708 0)
(189.264 -852.81 0)
(255.51 -808.606 0)
(377.434 -735.967 0)
(484.78 -715.801 0)
(596.546 -731.614 0)
(705.849 -770.167 0)
(790.509 -773.135 0)
(828.273 -712.468 0)
(765.358 -580.561 0)
(546.44 -483.324 0)
(245.124 -475.756 0)
(-42.705 -563.876 0)
(-331.064 -738.658 0)
(-657.595 -1064.13 0)
(-1051.12 -1522.57 0)
(-1503.28 -1977.08 0)
(-1752.42 -2097.98 0)
(-1413.94 -1578.7 0)
(-701.35 -671.284 0)
(-224.898 -13.2667 0)
(-25.5237 192.15 0)
(115.835 186.344 0)
(353.546 68.6488 0)
(631.149 -234.139 0)
(617.676 -375.136 0)
(330.525 -309.915 0)
(106.792 -243.125 0)
(40.0853 -248.223 0)
(8.58589 -279.973 0)
(-22.81 -274.457 0)
(-74.4264 -258.634 0)
(-127.206 -242.413 0)
(-180.735 -185.976 0)
(-269.296 -129.454 0)
(-351.107 -30.2591 0)
(-287.245 7.78353 0)
(-114.474 -130.078 0)
(141.46 -285.499 0)
(155.86 -465.949 0)
(145.018 -563.797 0)
(191.284 -592.473 0)
(281.427 -591.501 0)
(367.937 -655.277 0)
(428.447 -738.12 0)
(503.337 -848.567 0)
(632.797 -967.597 0)
(785.254 -1056.57 0)
(878.649 -1105.61 0)
(810.454 -1134.66 0)
(561.863 -1170.45 0)
(223.648 -1246.23 0)
(-169.018 -1364.31 0)
(-619.433 -1614.09 0)
(-1085.81 -1934.8 0)
(-1462.05 -2140.4 0)
(-1519.08 -1969.95 0)
(-1087.1 -1307.12 0)
(-502.244 -485.107 0)
(-170.06 38.3321 0)
(-44.386 215.498 0)
(2.47586 271.981 0)
(52.8944 239.417 0)
(169.553 152.499 0)
(385.843 -74.9038 0)
(529.678 -324.299 0)
(379.83 -393.452 0)
(138.037 -340.862 0)
(14.5589 -328.694 0)
(-14.0531 -369.375 0)
(-17.0087 -384.29 0)
(-55.0532 -381.369 0)
(-81.3203 -355.992 0)
(-124.703 -282.109 0)
(-193.171 -207.786 0)
(-273.711 -68.3086 0)
(-247.627 -19.3467 0)
(-186.036 -54.353 0)
(-6.11872 -122.078 0)
(14.135 -280.032 0)
(91.2349 -353.525 0)
(162.567 -358.959 0)
(194.99 -406.223 0)
(236.147 -512.464 0)
(298.519 -633.271 0)
(375.414 -726.308 0)
(505.41 -802.359 0)
(657.512 -924.216 0)
(753.02 -1156.56 0)
(702.883 -1482.36 0)
(438.93 -1875.22 0)
(58.3122 -2248.1 0)
(-397.187 -2510.45 0)
(-880.808 -2566.52 0)
(-1164.77 -2347.26 0)
(-1084.99 -1807.79 0)
(-700.298 -1027.36 0)
(-321.578 -301.829 0)
(-117.416 84.4039 0)
(-26.2216 222.042 0)
(0.25472 266.496 0)
(-2.47428 269.065 0)
(0.697656 261.111 0)
(50.6547 208.69 0)
(171.689 83.0927 0)
(310.712 -176.621 0)
(314.564 -419.027 0)
(169.195 -484.767 0)
(12.6097 -481.264 0)
(-44.9886 -480.686 0)
(-34.3686 -472.061 0)
(-47.1572 -456.433 0)
(-31.5548 -422.11 0)
(-37.9183 -365.82 0)
(-63.2708 -290.774 0)
(-169.52 -188.993 0)
(-202.777 41.0336 0)
(-284.49 239.175 0)
(-76.0126 249.107 0)
(-67.1712 324.406 0)
(68.9606 304.144 0)
(140.503 158.165 0)
(133.504 -10.3624 0)
(149.145 -182.725 0)
(222.379 -410.193 0)
(340.398 -723.28 0)
(442.086 -1153.02 0)
(443.936 -1706.53 0)
(340.8 -2296.03 0)
(117.925 -2841.63 0)
(-176.032 -3147.81 0)
(-388.485 -3114.44 0)
(-475.856 -2805.18 0)
(-462.174 -2208.46 0)
(-354.673 -1411.52 0)
(-190.148 -631.675 0)
(-67.8756 -88.2642 0)
(-15.7689 165.486 0)
(2.57767 261.813 0)
(5.41071 284.658 0)
(0.926362 283.409 0)
(-2.71322 283.433 0)
(-5.28489 288.792 0)
(-1.99187 288.193 0)
(14.5431 238.293 0)
(45.8174 94.9336 0)
(82.8897 -131.69 0)
(78.0625 -317.518 0)
(18.4913 -388.278 0)
(-5.18472 -349.793 0)
(6.36259 -336.211 0)
(-6.91859 -320.73 0)
(5.99793 -280.095 0)
(1.8569 -294.209 0)
(-22.7738 -242.673 0)
(46.031 -204.917 0)
(-105.048 -114.524 0)
(-284.49 -239.175 0)
(-76.0126 -249.107 0)
(-67.1712 -324.406 0)
(68.9606 -304.144 0)
(140.503 -158.165 0)
(133.504 10.3624 0)
(149.145 182.725 0)
(222.379 410.193 0)
(340.398 723.28 0)
(442.086 1153.02 0)
(443.936 1706.53 0)
(340.8 2296.03 0)
(117.925 2841.63 0)
(-176.032 3147.81 0)
(-388.485 3114.44 0)
(-475.856 2805.18 0)
(-462.174 2208.46 0)
(-354.673 1411.52 0)
(-190.148 631.675 0)
(-67.8756 88.2642 0)
(-15.7689 -165.486 0)
(2.57767 -261.813 0)
(5.41071 -284.658 0)
(0.926362 -283.409 0)
(-2.71322 -283.433 0)
(-5.28489 -288.792 0)
(-1.99187 -288.193 0)
(14.5431 -238.293 0)
(45.8174 -94.9336 0)
(82.8897 131.69 0)
(78.0625 317.518 0)
(18.4913 388.278 0)
(-5.18472 349.793 0)
(6.36259 336.211 0)
(-6.91859 320.73 0)
(5.99793 280.095 0)
(1.8569 294.209 0)
(-22.7738 242.673 0)
(46.031 204.917 0)
(-105.048 114.524 0)
(-186.036 54.353 0)
(-6.11872 122.078 0)
(14.135 280.032 0)
(91.2349 353.525 0)
(162.567 358.959 0)
(194.99 406.223 0)
(236.147 512.464 0)
(298.519 633.271 0)
(375.414 726.308 0)
(505.41 802.359 0)
(657.512 924.216 0)
(753.02 1156.56 0)
(702.883 1482.36 0)
(438.93 1875.22 0)
(58.3122 2248.1 0)
(-397.187 2510.45 0)
(-880.808 2566.52 0)
(-1164.77 2347.26 0)
(-1084.99 1807.79 0)
(-700.298 1027.36 0)
(-321.578 301.829 0)
(-117.416 -84.4039 0)
(-26.2216 -222.042 0)
(0.25472 -266.496 0)
(-2.47428 -269.065 0)
(0.697656 -261.111 0)
(50.6547 -208.69 0)
(171.689 -83.0927 0)
(310.712 176.621 0)
(314.564 419.027 0)
(169.195 484.767 0)
(12.6097 481.264 0)
(-44.9886 480.686 0)
(-34.3686 472.061 0)
(-47.1572 456.433 0)
(-31.5548 422.11 0)
(-37.9183 365.82 0)
(-63.2708 290.774 0)
(-169.52 188.993 0)
(-202.777 -41.0336 0)
(-114.474 130.078 0)
(141.46 285.499 0)
(155.86 465.949 0)
(145.018 563.797 0)
(191.284 592.473 0)
(281.427 591.501 0)
(367.937 655.277 0)
(428.447 738.12 0)
(503.337 848.567 0)
(632.797 967.597 0)
(785.254 1056.57 0)
(878.649 1105.61 0)
(810.454 1134.66 0)
(561.863 1170.45 0)
(223.648 1246.23 0)
(-169.018 1364.31 0)
(-619.433 1614.09 0)
(-1085.81 1934.8 0)
(-1462.05 2140.4 0)
(-1519.08 1969.95 0)
(-1087.1 1307.12 0)
(-502.244 485.107 0)
(-170.06 -38.3321 0)
(-44.386 -215.498 0)
(2.47586 -271.981 0)
(52.8944 -239.417 0)
(169.553 -152.499 0)
(385.843 74.9038 0)
(529.678 324.299 0)
(379.83 393.452 0)
(138.037 340.862 0)
(14.5589 328.694 0)
(-14.0531 369.375 0)
(-17.0087 384.29 0)
(-55.0532 381.369 0)
(-81.3203 355.992 0)
(-124.703 282.109 0)
(-193.171 207.786 0)
(-273.711 68.3086 0)
(-247.627 19.3467 0)
(214.429 247.232 0)
(317.539 466.521 0)
(282.313 672.613 0)
(213.158 807.708 0)
(189.264 852.81 0)
(255.51 808.606 0)
(377.434 735.967 0)
(484.78 715.801 0)
(596.546 731.614 0)
(705.849 770.167 0)
(790.509 773.135 0)
(828.273 712.468 0)
(765.358 580.561 0)
(546.44 483.324 0)
(245.124 475.756 0)
(-42.705 563.876 0)
(-331.064 738.658 0)
(-657.595 1064.13 0)
(-1051.12 1522.57 0)
(-1503.28 1977.08 0)
(-1752.42 2097.98 0)
(-1413.94 1578.7 0)
(-701.35 671.284 0)
(-224.898 13.2667 0)
(-25.5237 -192.15 0)
(115.835 -186.344 0)
(353.546 -68.6488 0)
(631.149 234.139 0)
(617.676 375.136 0)
(330.525 309.915 0)
(106.792 243.125 0)
(40.0853 248.223 0)
(8.58589 279.973 0)
(-22.81 274.457 0)
(-74.4264 258.634 0)
(-127.206 242.413 0)
(-180.735 185.976 0)
(-269.296 129.454 0)
(-351.107 30.2591 0)
(-287.245 -7.78353 0)
(573.324 104.327 0)
(551.372 307.776 0)
(484.64 518.216 0)
(318.663 699.691 0)
(192.149 802.34 0)
(168.832 833.346 0)
(278.507 778.635 0)
(424.253 683.313 0)
(555.727 555.628 0)
(672.808 449.075 0)
(729.654 389.73 0)
(693.077 327.495 0)
(589.642 185.367 0)
(460.869 1.49089 0)
(301.271 -66.5792 0)
(84.3248 -15.4605 0)
(-137.374 132.772 0)
(-330.402 406.89 0)
(-582.299 758.609 0)
(-964.593 1218.12 0)
(-1470.99 1761.58 0)
(-1877.06 2097.45 0)
(-1678.57 1743.18 0)
(-876.422 789.926 0)
(-189.876 64.6101 0)
(171.904 -108.031 0)
(574.746 57.9516 0)
(813.49 306.694 0)
(602.699 318.173 0)
(252.62 205.956 0)
(78.5875 158.048 0)
(50.0675 148.349 0)
(11.2276 152.746 0)
(-37.5726 149.385 0)
(-85.9325 148.136 0)
(-151.335 153.508 0)
(-233.555 133.068 0)
(-343.225 88.1352 0)
(-405.958 32.727 0)
(-269.285 -3.29778 0)
(611.546 -116.344 0)
(716.377 -183.393 0)
(659.976 -137.192 0)
(486.951 51.1574 0)
(318.059 210.637 0)
(232.667 339.592 0)
(232.857 444.595 0)
(269.883 474.02 0)
(370.826 426.258 0)
(545.983 264.173 0)
(673.35 57.7532 0)
(631.341 -32.9181 0)
(451.209 -39.0429 0)
(303.656 -175.447 0)
(228.789 -323.124 0)
(149.397 -440.507 0)
(75.9283 -309.935 0)
(-54.515 -49.7126 0)
(-269.388 267.116 0)
(-536.781 589.341 0)
(-905.062 993.534 0)
(-1431.67 1564.23 0)
(-1961.33 2041.09 0)
(-1842.43 1812.41 0)
(-890.828 853.323 0)
(109.419 201.8 0)
(753.19 207.054 0)
(881.907 274.863 0)
(520.602 204.614 0)
(176.223 105.485 0)
(51.2796 93.404 0)
(34.9763 82.7883 0)
(9.58394 71.8672 0)
(-27.2524 74.8556 0)
(-70.453 78.3487 0)
(-141.727 92.5734 0)
(-243.73 89.6126 0)
(-365.988 71.089 0)
(-439.215 57.6357 0)
(-315.604 10.724 0)
(284.487 -167.603 0)
(531.283 -596.51 0)
(710.661 -925.068 0)
(653.843 -1030.14 0)
(470.096 -981.334 0)
(394.283 -783.633 0)
(408.046 -531.442 0)
(406.583 -302.1 0)
(353.511 -90.6801 0)
(317.703 -24.3015 0)
(443.366 -106.806 0)
(599.801 -256.58 0)
(452.297 -332.664 0)
(187.118 -406.972 0)
(45.8496 -508.072 0)
(97.0337 -570.434 0)
(239.209 -469.434 0)
(225.665 -381.468 0)
(33.516 -125.562 0)
(-264.59 164.092 0)
(-531.558 497.401 0)
(-867.594 869.59 0)
(-1439.41 1372.22 0)
(-2021 1929.32 0)
(-1741.92 1824.73 0)
(-450.864 1051.85 0)
(645.152 524.344 0)
(811.138 241.941 0)
(439.48 110.889 0)
(145.454 61.0954 0)
(56.7159 69.7198 0)
(29.3139 67.7187 0)
(3.58334 57.019 0)