/*--------------------------------*- C++ -*----------------------------------*\
| =========                 |                                                 |
| \\      /  F ield         | OpenFOAM: The Open Source CFD Toolbox           |
|  \\    /   O peration     | Version:  v1912                                 |
|   \\  /    A nd           | Website:  www.openfoam.com                      |
|    \\/     M anipulation  |                                                 |
\*---------------------------------------------------------------------------*/
FoamFile
{
    version     2.0;
    format      ascii;
    class       volVectorField;
    location    "4e-05";
    object      momentum;
}
// * * * * * * * * * * * * * * * * * * * * * * * * * * * * * * * * * * * * * //

dimensions      [1 -2 -1 0 0 0 0];


internalField   nonuniform List<vector> 
1300
(
(0 0 0)
(0.373187988 1.995268559 0.4199676233)
(12.97531747 4.090966376 -2.335370372)
(61.51797656 2.867009334 5.569270986)
(40.12531091 1.647290938 2.101869134)
(26.41832752 1.756543444 8.931140868)
(23.12088979 -1.702362849 3.059084564)
(52.84763831 -1.332942109 -2.21353932)
(29.10980645 -4.120159535 -0.3803383686)
(13.6478601 -4.607206845 4.102767676)
(-0.6704961005 2.733050083 -0.3135791402)
(-0.8651860343 3.568756104 0.647540308)
(14.63423816 4.652528896 6.636152674)
(183.5306291 29.68414143 -7.145231629)
(110.2534609 23.22690954 -5.352663617)
(24.66756682 10.70903457 7.930999446)
(80.10028509 19.66396934 -3.044556978)
(14.21759001 12.89331583 -0.454110061)
(31.8682546 10.35624278 3.412242997)
(2.988339261 2.106680595 3.716814466)
(-1.214170101 3.314899757 3.287893674)
(2.172049689 2.703868075 1.666064995)
(47.42689954 5.50324145 -2.718365815)
(240.4207822 40.47364528 -3.33200293)
(21.92398521 7.778021509 0.1585411524)
(31.73946488 6.634101601 4.005063746)
(75.8431735 21.33127229 -0.6995451769)
(68.23272683 11.7823861 -8.113600784)
(79.01576647 21.34995225 -4.963566018)
(95.81160558 13.71515844 3.600238509)
(-0.8610396886 2.363712497 0.2355629516)
(0 0 0)
(42.46447761 19.36705928 -10.38062504)
(233.2016658 38.21035604 1.523597844)
(86.42416804 17.16963201 -3.774534378)
(49.70896324 8.812232789 5.852532668)
(103.6991485 30.01008065 0.6305184761)
(115.2250245 22.67470988 1.622948403)
(60.87763431 13.10400672 1.335499758)
(57.77339359 6.048277338 -3.120724041)
(-1.58486073 3.541860926 -3.111116985)
(3.549953305 5.897955587 -2.44701091)
(19.81947016 1.366687724 -3.65765674)
(152.8027196 23.92816719 -10.30377489)
(87.27332531 3.878167832 -0.09827798746)
(44.15114492 4.240400007 0.9547941109)
(118.0958471 20.55997627 0.9309724427)
(143.6116831 33.12553139 1.204222455)
(90.17999231 16.80096926 -5.618439614)
(90.36453063 21.06275061 3.640954173)
(-1.847170052 5.078104025 0.4217460569)
(0 0 0)
(72.81590612 3.31325534 -6.943355326)
(141.1839277 26.4192515 -6.873296285)
(136.8540764 20.93367448 -13.54513003)
(31.42436714 8.264619867 0.005527508082)
(73.15121819 8.082549153 -4.751951758)
(81.09441354 5.476551674 4.915618467)
(68.80334269 2.377269119 -0.6103642735)
(105.1080834 16.38820237 12.89029713)
(0.5213945945 2.265614512 -2.417309505)
(0 0 0)
(32.60159875 7.036939427 4.654443465)
(133.8357767 13.5402065 -8.389079053)
(120.4504185 11.372577 -2.982901457)
(13.91754497 3.515569975 -5.025709733)
(62.25085402 17.11271882 5.302077645)
(92.87858491 17.58590039 0.8122124657)
(110.7532869 16.39980377 3.741149319)
(44.56426979 0.2952465192 -4.642354161)
(0 0 0)
(0.7429236453 2.394514957 3.218559209)
(34.45611786 12.42657566 -2.411750685)
(183.819523 19.3926128 0.6070686951)
(52.82818348 1.453704321 3.577527349)
(34.41365659 4.618839795 -2.701361063)
(82.67765948 11.28356583 1.765497378)
(125.8495675 23.68202742 -1.54364968)
(115.7378604 17.0584775 -0.8549688991)
(66.08595051 6.968020103 -2.270368053)
(-0.9330108743 4.854664571 -0.6355131456)
(0 0 0)
(54.38372882 8.021498055 -3.716970831)
(191.8573573 20.30895643 -2.473890456)
(70.34742931 15.17447093 2.120622936)
(50.42881063 15.82093063 3.658994455)
(30.13791724 4.753133879 -3.353534248)
(121.7246 8.453912449 -5.117288909)
(59.24273191 6.127513497 -3.582064558)
(61.01825374 10.8557015 -3.38678833)
(0 0 0)
(0 0 0)
(27.2245884 3.84814097 -2.858967264)
(127.3738182 13.96668241 8.686245502)
(88.26506792 22.837827 -3.001100429)
(32.0950899 5.639074209 5.892287122)
(86.80710342 12.80663037 -0.1607949147)
(91.45664359 9.362332513 -4.360701969)
(44.71822313 5.562557177 -1.217876776)
(43.8901284 7.888331765 8.351270734)
(0 0 0)
(0 0 0)
(33.06001521 1.826499921 -0.2886117464)
(259.5838768 32.42531403 -5.779901589)
(112.5908375 17.86655919 -8.72963219)
(39.53964227 8.46374737 4.583188881)
(100.7051508 21.15638354 6.863234655)
(87.78758512 13.73964781 5.581491866)
(47.95783692 5.803191471 -4.072902104)
(104.2519269 17.73495625 8.231205748)
(0 0 0)
(0 0 0)
(46.92537802 12.18016596 -4.724372807)
(192.0160784 29.9864618 -1.427466182)
(79.96623838 6.713451169 -3.379204043)
(7.148037845 2.356394764 -1.573938914)
(114.9020049 22.82159255 -4.650612629)
(207.5703875 34.85352503 1.172730004)
(93.78391212 19.43543909 2.785373075)
(108.8420301 12.82565804 2.383998503)
(0 0 0)
(0 0 0)
(14.91937175 4.73306774 1.548301653)
(162.618016 14.76486096 7.926960916)
(72.70588784 9.32140459 6.133617434)
(24.76331858 5.350199767 1.571674247)
(103.6589944 7.404718651 -2.015870179)
(109.6151171 10.99381551 3.082071213)
(101.7891895 7.651591908 7.08812135)
(75.564344 14.22105886 -2.28337568)
(0 0 0)
(0 0 0)
(39.14168805 7.643472975 -0.68244041)
(202.3983382 24.08763844 14.35823725)
(97.53795073 12.57327604 5.209715977)
(19.74091329 3.703910036 1.830608008)
(104.4104338 12.16554986 10.1149621)
(129.0502935 14.22927805 -5.383713406)
(36.93433914 2.993273075 7.556406133)
(65.48407289 9.588097638 5.889557161)
(0 0 0)
(0 0 0)
(19.72750661 6.879485339 3.039016224)
(222.7617731 24.69472648 1.31631929)
(125.0059742 11.40990133 -0.5380918028)
(26.82905088 5.859110856 1.149031566)
(60.76213791 8.161012215 5.491536875)
(148.6055822 16.5170179 10.17260218)
(81.84371827 9.177609828 -2.585540554)
(52.21280013 8.97493017 8.659669186)
(0 0 0)
(0 0 0)
(59.75857781 11.89072878 -10.66883654)
(154.3502202 16.39196956 -0.3062177616)
(70.78023703 9.804459866 -4.851851179)
(25.80705353 3.017539857 -1.602384004)
(108.8221483 9.433496554 -7.069791829)
(136.3277404 12.48854702 -4.08796202)
(104.8834074 9.908546225 -1.384354306)
(66.35372349 9.099219471 -0.1320272724)
(0 0 0)
(0 0 0)
(37.91614102 15.00279771 -2.071535494)
(123.7527314 11.23037368 4.225839091)
(82.7540148 15.76701883 -4.183174048)
(38.26539435 4.897278104 -3.967480781)
(67.19412818 9.791619947 -4.724269416)
(127.0696095 16.75811501 -3.825621863)
(74.95440082 10.57200363 3.02428741)
(94.40560858 14.74719288 0.3540567356)
(0 0 0)
(0 0 0)
(37.71103726 8.847490926 6.780446059)
(184.5094031 20.58548493 1.817821449)
(75.22298268 7.181107497 -2.08254583)
(37.93219955 6.664415249 -2.762568752)
(85.78327675 5.18383002 -3.234466628)
(63.98138166 6.060971854 -6.48167501)
(40.79935362 3.221437188 3.364922039)
(129.0704882 17.37960307 -1.262619824)
(0 0 0)
(0 0 0)
(63.13052168 11.94651823 4.439960044)
(149.3365853 25.3514226 5.658440586)
(116.5379523 13.5890572 -0.7034722285)
(16.70771633 0.8045589058 0.918406358)
(55.58741645 5.880257106 -3.381269588)
(103.3840987 10.22832322 11.72627974)
(76.3822694 10.70388565 -3.133411252)
(29.53451647 3.283361169 -3.764512872)
(0 0 0)
(0 0 0)
(38.53066048 6.152138803 4.743334339)
(123.3685202 23.15589567 -10.81765249)
(112.5630718 10.23241626 3.894513429)
(69.65500294 12.8097314 4.353504938)
(84.29468423 7.762828928 -1.77185594)
(109.4852525 17.47960197 -2.854443557)
(79.91505335 18.37314707 7.318760824)
(82.89938958 16.34899781 2.304590117)
(32.4444595 -1.442501104 -5.958137886)
(22.96308447 3.438420974 -6.681982875)
(12.08351102 5.423276626 1.379143103)
(11.07771218 7.544282895 -1.278452155)
(23.44018991 -1.682111231 -4.661320513)
(6.232750246 -0.07060945458 -1.328083419)
(19.27138903 -2.150233184 0.2654043757)
(27.47139214 5.934126872 -3.394416279)
(7.031563776 4.457387407 -3.507072311)
(17.3079227 14.40709848 -1.333338372)
(17.03898942 0.6074759553 -0.7841495857)
(27.34907168 -1.642047856 5.282287799)
(20.5331804 -1.995240927 -0.7632342011)
(12.33752379 8.442440174 1.24241256)
(28.47366813 5.80745962 -3.073418583)
(26.44972471 11.12958954 -3.359167189)
(8.095788516 -0.9943989214 -1.794222306)
(17.09941729 -7.910229435 -1.74096486)
(22.7847126 5.00499798 -2.761679922)
(8.556117637 -1.908278422 -1.575086497)
(13.52156362 -0.2609632915 -4.547366598)
(5.237674244 11.13287651 -4.483789722)
(13.80270501 6.172542889 -1.508651738)
(24.23153705 9.552464461 -3.577143017)
(21.45302206 -0.7162506028 9.88948378)
(12.10031179 9.753749041 -0.3868470074)
(-3.576453015 3.919030114 -7.396662752)
(2.022261808 1.529918265 1.426936886)
(7.327211429 12.97352131 -2.468883673)
(-1.297643658 -0.07518938518 5.695572228)
(48.81022268 11.64812653 8.610219621)
(42.5078892 1.625869529 8.298781073)
(26.05086261 4.02655811 -5.473029698)
(55.08822356 13.22891081 0.5385392735)
(21.97133117 2.560149456 -5.05523596)
(27.73026729 2.109414597 4.344152323)
(22.244352 0.400996489 -1.980183445)
(23.50135823 0.9978438372 2.529031418)
(29.3158645 3.882957181 8.169865284)
(14.00627012 -4.061530346 -1.006704012)
(7.083717551 3.451329011 0.5388583759)
(28.42325554 3.611133993 1.812866625)
(25.57543142 2.867830235 4.301668158)
(29.72493759 -2.237520851 -3.393694664)
(1.953782816 2.165290236 1.796321152)
(13.939443 3.332885786 8.371625934)
(5.940736166 4.257066858 3.640268559)
(7.385739606 1.46044056 1.278463205)
(14.71042473 11.51088207 7.730563675)
(21.1248204 2.768990949 2.913524151)
(16.96556677 3.37365746 0.8095964941)
(14.06064707 9.729273306 -7.434014408)
(16.49548383 2.135333708 4.13072202)
(0.5670355299 4.335835989 -3.548041865)
(-2.313243615 2.722357088 1.096139458)
(4.112815789 8.795814231 -1.481850323)
(10.67236341 12.82350755 -2.308666206)
(14.80292621 -0.1941825477 -2.951496759)
(4.07100588 7.803136713 -7.963570058)
(-2.919212528 1.581160877 4.183760691)
(49.94679413 7.248023482 -5.296569215)
(78.87600593 10.87684886 8.668433635)
(34.40852403 10.03298024 -4.260033813)
(40.53304726 8.690116917 -0.593406665)
(31.39718982 2.778176706 -0.9635761573)
(40.46570592 3.390274328 -2.409899323)
(48.86380497 -6.819653531 7.981083346)
(18.61191067 -3.052916517 0.2443631331)
(33.05620109 10.13561879 9.5880948)
(18.66963024 -2.121857468 1.924890769)
(19.5434685 4.961621871 9.989768905)
(39.7005992 5.296633258 -0.006894716537)
(45.28430348 -4.834859238 -4.900522608)
(25.73306426 -0.06570092589 2.54441366)
(22.12468923 1.558965689 -1.257100604)
(36.89187538 0.8025731871 9.522013548)
(29.47699517 3.034816739 0.1029796749)
(25.60136233 10.97015291 0.6518377009)
(42.3799801 1.276882248 -0.105430715)
(17.26244203 5.498601667 4.829599081)
(3.873489345 7.049914128 -0.5460864787)
(16.80808797 3.782701849 -8.888924928)
(21.58061049 8.325393143 1.838707561)
(13.69803113 3.273174446 -3.087375945)
(1.040770817 1.426322091 0.3068797567)
(16.55099449 1.000749606 2.966256329)
(5.014823169 6.654403619 -4.570404778)
(6.345554809 8.0525389 -4.4051683)
(14.84343015 11.71742658 5.642324937)
(8.927287569 7.675505444 1.47655089)
(108.7710762 15.56061518 -5.91958912)
(86.298076 18.14079701 1.893146453)
(78.03118534 18.37219578 -9.8318821)
(32.42790222 -0.1722650808 1.057351345)
(45.80305407 4.432498147 -4.045838398)
(66.69178991 3.255046025 3.846630854)
(65.86645004 12.36405214 4.589154038)
(67.18338731 7.336276455 -9.824258655)
(26.00846002 7.699780219 0.3869220146)
(39.53758545 -1.507229536 0.4091869866)
(47.86280479 8.128867948 -7.271807914)
(32.54978802 1.487626816 1.266196824)
(50.03493918 -0.07640355726 -7.375757342)
(32.28589079 5.292505765 1.89442652)
(33.51555006 8.548410373 2.732881547)
(35.24187184 1.632853149 -2.553178603)
(33.30074826 0.877135955 -5.833380342)
(38.72764951 4.877409089 6.309888708)
(22.11812825 1.080371433 6.501830742)
(49.64409957 5.511678013 -4.67565495)
(21.67571048 8.287518928 6.152180253)
(23.74742384 4.799774761 -2.040610381)
(29.56128783 2.987141284 4.489493692)
(10.65551019 1.375819911 -0.3172562395)
(30.9005753 3.079129947 -1.880056101)
(41.86584676 0.04289229513 -2.577914454)
(23.3798016 6.343742029 -0.753280028)
(9.524425512 9.163080977 1.453125011)
(5.95541279 14.63778004 -2.682721904)
(23.98408487 9.209143241 1.439630537)
(148.1306962 25.56294234 -4.968882115)
(125.5391974 21.77313116 -0.02145495142)
(86.13964345 14.328242 0.8930012905)
(94.46355274 12.17061381 -3.574043872)
(66.79335508 12.8829626 -6.165890527)
(51.55398604 2.366347736 -0.536178902)
(50.85768504 12.09043677 -3.08943561)
(64.78557891 12.9683653 3.869974121)
(52.56620697 -1.707473741 -7.753805138)
(27.03741134 4.58272121 -1.249696087)
(57.33325646 -0.8285009647 2.381639673)
(71.72811826 5.281475701 1.246914255)
(29.26476876 8.651246787 4.607889287)
(65.07597113 8.753655982 3.775729077)
(24.666783 2.646696422 -5.080460307)
(35.09445574 -0.02361841003 -7.715978196)
(20.10608035 5.80084906 -1.714351458)
(42.98356387 0.8915794955 -3.246457918)
(21.71588361 1.360846427 1.13337964)
(22.52511472 4.959613836 -2.181630327)
(33.14832206 12.17384096 -0.8406986513)
(8.779808361 7.44089568 -0.6316804553)
(19.28658523 2.101254741 3.388430091)
(21.52258294 0.9230798977 -4.363592062)
(12.28827254 1.059841466 2.60434923)
(15.434884 -1.312081161 1.463740411)
(32.67814739 5.788675965 4.431724996)
(11.07033247 3.986306092 -0.3329948808)
(20.80637234 -1.088162474 3.501096414)
(27.87534121 13.58141509 -2.306919182)
(94.23267134 9.684162747 4.033005629)
(135.4372524 27.25482088 -5.444637197)
(89.10620064 23.73607916 -3.358827964)
(103.7179966 19.47720749 3.071592163)
(56.03652453 7.92638468 0.8058334052)
(104.1397756 17.41873684 -0.01510196101)
(66.15848916 18.79598858 2.860507472)
(56.89657526 6.275288761 -2.965303054)
(48.52811688 15.40658293 1.8173003)
(65.8355019 6.658984585 -1.115288403)
(83.24067284 -1.497159396 4.5489659)
(28.4898281 1.922100667 -0.3228386043)
(31.98703936 1.191188127 1.551785721)
(38.15076716 0.1743539011 2.65617827)
(35.8210169 12.66083467 -4.922670764)
(56.80127811 9.571371144 9.664749919)
(33.72851399 7.171365587 -0.4093383841)
(21.79063991 2.730676465 -6.201988618)
(33.18173713 3.533996841 3.594352946)
(27.75255053 4.447083972 0.9273089926)
(40.80160092 10.8593717 -5.128055437)
(29.55453204 6.217833775 -3.440582257)
(52.71576239 3.337082232 -4.066688196)
(51.80727736 2.328790969 -0.5253691572)
(76.17296989 15.40964006 -4.803180834)
(27.80086353 0.4298923355 -0.06045498896)
(25.23237596 3.098346806 0.4580335132)
(23.94463009 9.339837286 3.521748429)
(20.91096233 0.3347346738 0.3102073939)
(26.96892926 6.352817361 0.5689976526)
(26.46314909 3.171412964 -2.686903501)
(61.42771227 16.21742076 2.360441782)
(97.14690491 18.53774347 -3.175131629)
(107.5112538 9.838127737 1.633641507)
(55.69450182 7.771011288 0.2803185138)
(88.34966824 17.00714976 -7.993786729)
(56.18396395 7.014798193 3.227398427)
(98.91561247 14.92771232 -1.761979311)
(106.6181239 15.57883092 -2.790953977)
(60.62097492 15.49469692 0.9137451162)
(74.28843297 12.83859621 -2.112605083)
(91.0245591 11.85684318 -3.619605023)
(27.71167489 -0.7712347383 -1.34634953)
(66.66376659 3.61667494 -2.955024517)
(56.88921902 4.683238746 -2.455925834)
(27.5526978 2.719120483 2.597706825)
(18.6600379 1.958121934 -1.718687667)
(39.74494966 2.002384073 -9.903526819)
(38.89478989 11.09704963 1.202156531)
(34.36963386 7.054584449 -9.526106626)
(32.89710295 7.203476391 -2.009874479)
(69.82990036 -0.4194479848 0.5778007334)
(60.40897682 1.567598 4.983051003)
(77.30272379 13.98503151 -1.418419306)
(43.52738327 0.1658183598 -0.8295603618)
(32.11050002 7.731914716 -1.574026149)
(64.5016227 12.14411787 5.179109161)
(51.04061574 14.03692919 -3.909918771)
(16.82544286 6.777278871 -1.397288076)
(21.79538295 5.261589182 3.520931867)
(87.84187459 14.80752612 -9.328212151)
(94.91072968 23.78586221 -6.341191892)
(98.04843374 26.68834898 -4.116990423)
(90.99646962 17.77735893 1.589771613)
(112.1259641 24.7965225 1.134348054)
(111.908534 17.61416782 11.50821974)
(31.31410898 7.670228544 3.764950968)
(97.26930639 26.33758451 5.206540798)
(66.62766128 9.29160329 1.001748226)
(92.01321993 13.79859732 0.2852399739)
(96.42341496 25.6896564 3.353752473)
(70.71930262 14.13135413 4.278011702)
(86.90433026 15.4343397 -1.963283567)
(54.08265454 8.023713532 -2.020293695)
(88.58837953 14.80240967 5.653595515)
(35.38593076 6.80085113 2.719907535)
(52.27907591 -0.4955721873 -3.43156027)
(78.49059402 11.1805071 -9.938628944)
(56.34136721 4.339189821 0.9964614951)
(88.86403292 3.417463331 -11.45356901)
(51.4927942 5.807337291 -4.005867648)
(24.88435523 4.06677391 2.044603483)
(45.5781012 5.075430299 -5.805891515)
(72.31580573 8.901323569 -4.313707356)
(55.00174081 16.690262 -1.449422246)
(46.94700256 9.606688219 -2.49787839)
(21.34244298 7.0563342 1.715818706)
(39.2944017 1.799047216 -4.043634525)
(59.07720417 7.576239778 -1.878885133)
(55.10800158 12.57242668 -7.774753927)
(99.15652214 14.19791926 -5.815692063)
(164.7414759 24.19147162 -0.6488559265)
(56.17638562 11.11222382 0.5320812831)
(111.9412634 20.91267791 -9.411960948)
(89.55261981 14.82632093 12.53502061)
(118.1764255 19.98463627 -0.5070191616)
(107.318111 23.31808613 9.086205274)
(99.28331387 12.29593558 5.857822126)
(114.7360061 2.286617177 8.517883512)
(97.89101305 12.77271102 3.657007157)
(106.5575457 15.94191121 5.786880021)
(97.16302542 16.89243789 -5.856144391)
(53.70456502 8.310294218 -4.792679046)
(98.18605664 22.28511752 -0.9947980775)
(78.6336233 10.61000335 3.006941205)
(66.88689414 5.951968987 -2.011266699)
(65.19664228 13.39151802 -3.809510399)
(30.93980943 7.575295937 1.956778685)
(49.01311876 8.27379633 0.2431967241)
(66.74798676 10.73844218 0.2953476637)
(62.66821871 4.802757035 5.760599481)
(49.74907547 6.770279771 -5.611047335)
(11.33707728 4.090955827 -0.7701196641)
(43.16519299 10.11281504 1.045612483)
(73.44981287 12.69747356 6.776759672)
(75.72589528 8.298293734 1.248588862)
(56.85430961 8.007889793 -1.128823894)
(37.53769419 2.949246936 -3.096679221)
(41.73842019 11.44740904 8.415406727)
(42.25470136 8.193295303 -0.2898097152)
(93.78773999 14.75022424 -2.517785703)
(84.43761611 15.96486664 1.875473211)
(104.6717669 11.34201547 1.23383384)
(79.56921522 16.08392414 -3.799364198)
(61.09294572 10.15204544 2.742440535)
(87.66117872 22.82599528 3.458948121)
(80.38858943 18.3679283 -4.82826292)
(89.61292565 15.57343875 6.295359428)
(112.7533578 26.9797792 2.34986441)
(126.5276511 27.34716661 11.83805134)
(60.83461827 6.676921344 0.07817587347)
(121.3669668 16.11250562 9.442868193)
(115.356866 23.23138023 4.11859897)
(110.1606802 21.41571393 -2.562057058)
(73.78215195 10.99746687 6.219204966)
(49.11174243 4.634343143 -1.269028497)
(65.39525249 16.32957822 5.879767336)
(44.12699187 9.991756143 -1.182686556)
(82.10659289 1.842956502 1.88752483)
(114.1315327 18.82469868 7.353787633)
(44.94627857 3.841106417 -3.3809324)
(61.21264605 5.692654466 4.842899835)
(52.46392186 6.229560694 -2.013344432)
(78.77907741 5.83026793 -5.618309494)
(65.85779669 1.592176322 1.068977383)
(82.21703101 5.686337106 -0.2871493237)
(31.89374678 11.11767076 -0.02898999894)
(69.60024351 9.622895554 7.982178612)
(39.50129038 11.20122837 0.2439336908)
(59.82041959 -0.5098927946 -4.488543926)
(83.24682002 10.1452214 2.555916092)
(75.14786359 6.095378559 -0.731854112)
(120.6186628 18.93663234 6.505481937)
(58.5201164 8.69196367 1.987857748)
(65.65879928 8.450467078 3.849521222)
(60.67753194 10.51536814 -0.9707944904)
(130.7408488 19.97209121 -5.391140453)
(78.19167168 15.85009549 2.922391364)
(73.13920255 8.756601374 -2.784037132)
(75.64783195 13.7266711 -4.245291812)
(110.4978993 28.10212825 3.677291298)
(107.6076828 23.43532154 2.736437774)
(131.2736621 16.46152291 0.817841574)
(148.5644138 23.64446028 4.434007304)
(72.22972271 14.43962502 -6.817182852)
(89.44896452 11.7213701 -2.010441348)
(90.36375887 25.62042582 0.1213667249)
(60.73004182 11.91293843 3.539244394)
(97.70543823 12.67725339 0.03258016205)
(65.39363952 11.4669809 0.6169220429)
(46.97323909 8.616802964 8.008961821)
(70.26399259 12.77276759 -2.789554435)
(86.06542843 8.089011414 0.1256280709)
(36.85351206 4.108407041 1.515972987)
(29.70920658 3.827539268 -7.662146508)
(67.38228943 4.593122797 -2.725269033)
(60.432687 2.6908831 2.867899833)
(31.34697662 6.800217219 2.472344489)
(44.82834858 4.172198332 4.570726013)
(81.70355756 14.04658737 -3.053107246)
(96.166721 23.87976037 4.292625682)
(74.38083951 2.786596905 -5.492334697)
(63.69007647 8.943266899 -3.339554466)
(89.93252935 14.53627697 0.1859208405)
(115.5153996 21.94910898 8.600825245)
(70.3086301 15.37642306 -6.125038372)
(105.255157 12.25627346 8.364491551)
(99.82646378 23.91023458 9.504233125)
(86.32262252 14.35517053 0.4574904336)
(39.48766987 9.02382041 1.75817749)
(156.3256115 21.0605359 2.678094148)
(129.6856379 19.90002157 -4.143861361)
(105.19461 31.09178674 1.631406338)
(123.826145 17.99754315 0.05153220158)
(119.2166825 35.50044443 -1.786064804)
(96.40822654 10.64172707 0.2990599205)
(136.1276335 29.93995573 6.845539911)
(96.48784558 8.189668511 14.9975909)
(78.23792263 16.43322054 2.251755938)
(67.16513041 5.404275057 7.967455196)
(112.4073082 22.43267508 -2.148283612)
(73.21187835 5.413563954 -2.991358204)
(38.06185514 3.138004416 1.099513349)
(64.1205478 5.45377364 1.540178261)
(53.29878394 5.971669125 -3.348559788)
(24.70965926 2.402471799 1.499654443)
(73.6004733 5.593111285 1.444473165)
(61.05779413 10.10857609 1.180288526)
(98.4399015 7.600285691 0.4618257463)
(64.03664984 8.052967221 -2.535292348)
(52.99776761 10.94910583 -3.99798683)
(80.00545776 8.295332955 3.047843902)
(87.93794043 17.77878897 0.2563479385)
(89.0061298 7.726884613 -1.176454095)
(83.92840261 12.75834326 -0.843227181)
(62.56903593 10.94298567 -5.542028636)
(42.67390012 6.015921138 -4.685884562)
(68.63388635 7.570069165 1.058065976)
(115.0059782 17.60760441 2.435799275)
(53.65540825 7.554763418 2.562672946)
(112.4949809 22.77312973 7.471933243)
(80.39363988 8.946340026 -2.735061507)
(128.9079662 17.22719489 -2.034195781)
(92.61188625 17.46826944 0.8578335947)
(102.3490466 18.83603325 -2.797762495)
(86.3978325 19.09922623 -4.01160407)
(143.2137777 14.35891406 4.598541362)
(120.4157285 22.73757306 -0.1375354698)
(96.54772222 12.97063789 5.358644629)
(79.4335442 10.59204934 -6.30821385)
(70.47368786 6.966088761 4.218604306)
(47.79319023 5.19369168 2.846930197)
(88.51443633 15.40134203 -8.005568785)
(106.0742387 14.98771584 -6.672110155)
(105.3064608 25.23464239 0.4390913591)
(65.04923083 9.985666526 0.5061427766)
(74.86275482 9.153739006 7.215165841)
(55.34436008 9.711608194 4.908825526)
(64.71910192 13.63347895 -1.849584833)
(53.79056978 12.86085061 2.304487791)
(69.44322947 13.29765189 2.979497961)
(133.8704241 19.50598755 -3.099255729)
(58.56112774 4.123418439 0.6287331253)
(82.03802361 15.18859933 1.659720371)
(44.06895354 5.645045841 3.618539102)
(114.7229463 22.04958503 -5.006949222)
(70.7732777 11.35257625 1.564096862)
(50.15976499 4.915572476 -1.779681012)
(40.25413733 11.82773857 0.637858096)
(110.9372368 25.93983235 3.192510579)
(61.70072858 8.297532644 -5.751546208)
(97.62511426 18.69631562 0.7604536436)
(133.69573 11.98580628 -5.358055101)
(107.8845577 18.78175947 -4.86732448)
(101.5330135 15.58480367 -1.246080448)
(78.70159552 9.706301004 -0.1468267544)
(134.6517186 32.66200957 -2.732338465)
(146.977963 29.89904123 -3.334342621)
(107.3620314 13.32044745 -0.804855342)
(61.4616137 7.172184517 -1.779184745)
(87.83341778 14.33646234 -2.520923194)
(107.9597658 20.54472523 8.305103239)
(100.2754981 23.01060422 3.323614321)
(82.61735176 11.3652631 0.6267741638)
(52.54987319 4.635724091 -4.067335336)
(75.93817513 10.38237746 -2.952986371)
(62.12054006 11.61509012 -5.030703926)
(97.33558692 13.7981997 -3.15610086)
(75.21095686 5.189051405 -2.037711351)
(55.51058592 13.10685741 0.2287327553)
(45.35681428 5.99492421 -3.832470274)
(90.25114314 10.95006497 2.927241594)
(80.02835571 6.069920325 -0.008661732404)
(55.49437054 10.92703014 2.994927928)
(44.13571011 4.914332213 6.005401425)
(127.0255428 19.10187601 -2.812764351)
(79.26509589 15.40754947 -2.239934008)
(78.60253714 10.89743396 2.503580331)
(54.66077434 9.783695966 -2.607650402)
(105.1795572 13.84037256 -5.30627621)
(56.40289498 2.678457465 -2.219436052)
(81.40310533 6.713439184 -4.424695217)
(87.81115619 9.810098802 4.63607733)
(84.37045989 11.69525484 3.588563382)
(106.8941456 15.87687379 -2.704022361)
(97.29722514 19.78060148 6.307619093)
(73.3043122 18.5562617 -5.401326033)
(89.75170077 27.99774494 -9.798189267)
(67.809367 19.24778272 -1.737765499)
(134.3510887 25.22631259 5.64569127)
(107.9140283 22.4498759 -5.903748769)
(166.1337637 17.02063877 7.759205004)
(113.1326361 22.89107353 -0.4249166769)
(71.38840964 15.62840104 -6.627946993)
(110.2002868 18.51162234 3.924034655)
(73.00927366 10.45797777 -6.145640622)
(67.18887133 12.29952289 3.222191755)
(70.41525876 11.39379893 -3.085066128)
(103.6483969 17.94239849 3.560418895)
(88.91126584 13.39332941 -2.993943427)
(97.41292389 16.54941231 -0.6108210254)
(95.17613843 21.31917332 2.017991849)
(38.46271053 7.749768478 -2.509808459)
(48.84308083 7.323724503 -6.340599696)
(78.50674458 14.93826617 6.36426386)
(106.6864873 13.55872789 2.824395187)
(43.88850973 11.22440616 2.316474787)
(72.0247022 17.97566156 -6.356810352)
(139.5267055 14.65257479 0.7630132367)
(147.8239454 27.27830294 -9.781141476)
(67.64573861 6.097218623 0.3378569793)
(116.0735751 12.66079932 -2.10725659)
(47.20670478 14.01300056 2.840490023)
(65.55072822 16.86183714 -2.831739169)
(109.4021988 18.12568699 1.477043589)
(105.2086589 13.23806311 0.7066159057)
(105.6375321 22.8666187 -1.567396318)
(113.7081352 18.88218115 -4.888658392)
(143.2292339 23.60108465 -0.9149162794)
(108.3296282 26.16036023 -2.126049946)
(153.5435906 37.78262408 1.254931641)
(92.33658258 26.94962886 -5.965905572)
(66.09050983 13.60621698 12.49758625)
(102.8771508 16.18995919 -1.568437976)
(77.68420157 9.310917271 5.071601641)
(85.46544984 15.43738981 -4.483593047)
(57.45843343 6.558055842 -2.887879913)
(77.86532116 11.96140191 2.713402067)
(105.4864479 15.38422878 -4.391300942)
(110.8537296 9.603499234 -0.04296559062)
(102.3527869 10.44702932 -0.2458855144)
(115.3981092 12.92084694 -1.87696005)
(75.41215852 12.29450673 -7.21444107)
(39.6062998 6.982850586 -3.315908383)
(130.8185186 20.61895761 -2.467651627)
(139.2617542 21.08777799 -1.252946532)
(71.4069076 12.54290425 0.09143796314)
(78.24515672 9.480416593 -5.088726233)
(97.205208 8.255077598 2.952021223)
(112.1262367 18.51874423 -2.046652355)
(89.77437467 17.22671716 3.165404378)
(75.76843396 12.40448871 4.504672277)
(44.66596698 11.879185 -3.041339737)
(84.94910907 12.47846877 4.31037809)
(66.61528443 12.89603903 -0.3762565087)
(64.70974866 2.894781233 2.258993068)
(116.0638487 28.53805377 3.798443121)
(85.96915166 12.10409913 -3.917523472)
(110.3493656 19.56586203 -3.66098021)
(92.48437103 18.23532125 -6.439270349)
(78.50688044 5.578188172 -2.425322836)
(110.4733909 17.84666104 -4.862933931)
(95.3256704 14.23982249 1.826702569)
(117.5953985 24.69591034 0.268106184)
(119.0161065 17.39013452 -3.952092882)
(118.1903154 23.56600979 -4.367440827)
(87.63746994 19.61687552 -7.731113097)
(82.1301958 16.45588012 -7.178529756)
(122.973973 16.11970931 -3.478402267)
(68.69153112 15.54490035 -1.566056985)
(87.42610986 10.14990203 -0.06258437054)
(65.91092211 7.863090112 -2.777827716)
(97.51662729 12.24090384 -7.829507753)
(39.51376089 4.438542943 0.1905714055)
(98.70419664 14.54344062 2.50446573)
(70.31747199 7.228543403 1.595846182)
(95.59931514 6.687273266 -1.684104071)
(90.1819875 13.04937038 -5.830482175)
(80.76422505 16.79715646 -3.964692903)
(98.9343503 12.53466511 1.663420077)
(101.6749889 15.96873005 2.247126039)
(77.35570123 10.61157598 -6.575585808)
(124.7177036 18.78724789 6.305017627)
(77.00603814 9.310063974 4.098166579)
(76.21485426 19.4668616 0.007259591073)
(92.53268252 4.823596882 -0.2806051229)
(67.84355205 13.44202352 0.1843731538)
(139.7788605 21.04857675 4.278879701)
(135.8916469 35.64201162 3.370601783)
(46.05037931 6.616111356 -0.5906516364)
(86.61027505 18.88207978 3.908139929)
(88.69796102 7.646579794 -9.669345023)
(59.46747732 7.426655992 1.388247807)
(136.2275701 27.52267796 -1.016452976)
(118.4416505 19.81544188 3.256872181)
(146.0843631 22.50027244 1.252871956)
(114.5486121 13.0026344 -4.39348323)
(88.33310888 12.30263541 -6.932980997)
(33.92424327 6.807265669 0.7239903612)
(87.86054813 16.60859775 1.956294496)
(48.92968575 11.42407189 -6.505367182)
(103.7720346 16.62087773 2.126619733)
(103.737489 10.4565054 8.690806233)
(76.44113091 18.0797509 3.078863532)
(82.70642354 17.99492429 -2.425175922)
(75.4293272 3.187330417 2.460113497)
(128.0614272 10.08847013 2.751016269)
(54.60571566 10.92728895 -1.421274353)
(95.34781907 17.72616172 7.281238071)
(84.65365642 11.56928768 0.4155850545)
(59.21063297 11.10359769 1.232639411)
(54.97964685 8.704919015 -3.471766479)
(69.10545983 12.77720548 -5.955293993)
(70.19689649 13.83418467 0.1583570873)
(79.90880312 -0.714236743 -7.382773676)
(59.41231414 7.81095745 -3.04067489)
(96.43548095 26.14292129 -9.17236958)
(119.2937823 14.03464342 4.745900539)
(96.35338346 9.626029384 3.269776764)
(58.5648827 11.35689572 2.862694048)
(97.97645377 14.7533233 -4.796626341)
(138.3978375 19.52771047 2.460197399)
(110.302746 16.71309524 -2.132175494)
(70.88137208 23.79709734 -3.202476919)
(122.9557818 23.54630543 5.436187268)
(151.2218129 28.08895272 -4.650117238)
(104.7903718 18.27102779 -0.4901248371)
(112.8054606 25.34568215 5.257738876)
(135.674924 36.38300658 5.904376026)
(89.28618086 16.18043638 -8.281737701)
(91.28263142 10.39407286 -1.676331631)
(61.46159416 4.564797863 -4.063689936)
(98.13819935 5.062017451 1.451782745)
(109.161172 14.69187608 1.023067623)
(150.6853627 23.34394453 -5.406959281)
(102.51241 20.55618065 6.904001071)
(69.96198827 2.546889022 1.111783968)
(91.4960714 18.16919072 4.578848017)
(81.6359377 11.53053476 1.662126344)