/*--------------------------------*- C++ -*----------------------------------*\
| =========                 |                                                 |
| \\      /  F ield         | OpenFOAM: The Open Source CFD Toolbox           |
|  \\    /   O peration     | Version:  v1912                                 |
|   \\  /    A nd           | Website:  www.openfoam.com                      |
|    \\/     M anipulation  |                                                 |
\*---------------------------------------------------------------------------*/
FoamFile
{
    version     2.0;
    format      ascii;
    class       volScalarField;
    location    "5.92";
    object      T;
}
// * * * * * * * * * * * * * * * * * * * * * * * * * * * * * * * * * * * * * //

dimensions      [0 0 0 1 0 0 0];


internalField   nonuniform List<scalar> 
1900
(
1.18524
0.914795
0.923045
0.941788
0.955653
0.96342
0.966274
0.966595
0.966661
0.966642
1.18524
0.914798
0.923047
0.941795
0.955646
0.963344
0.966076
0.966706
0.966948
0.966758
1.18524
0.9148
0.92305
0.941802
0.955645
0.963311
0.965991
0.966679
0.966898
0.966793
1.18524
0.914798
0.923047
0.941795
0.955646
0.963344
0.966076
0.966706
0.966948
0.966758
1.18524
0.914795
0.923045
0.941788
0.955653
0.96342
0.966274
0.966595
0.966661
0.966642
0.971035
0.96696
0.969983
0.977173
1.01257
0.966986
0.964323
0.966352
0.972063
0.995524
0.966107
0.963542
0.965186
0.971447
0.993995
0.966986
0.964323
0.966352
0.972063
0.995524
0.971035
0.96696
0.969983
0.977173
1.01257
0.79818
0.676763
0.648864
0.6508
0.648387
0.818612
0.693806
0.661322
0.659415
0.658359
0.819081
0.687844
0.654936
0.653434
0.653527
0.818612
0.693806
0.661322
0.659415
0.658359
0.79818
0.676763
0.648864
0.6508
0.648387
0.57407
0.493865
0.485155
0.543461
0.57164
0.58089
0.590363
0.58285
0.558086
0.524784
0.499477
0.485203
0.475932
0.467734
0.459943
0.452764
0.447166
0.443609
0.441542
0.440187
0.439113
0.438169
0.437329
0.436618
0.436052
0.435656
0.435423
0.435407
0.435641
0.436189
0.436901
0.43799
0.439111
0.440878
0.442712
0.446591
0.45144
0.456935
0.449963
0.420998
0.596448
0.512266
0.475991
0.537604
0.575178
0.585734
0.594215
0.585307
0.559445
0.525384
0.499691
0.485293
0.475967
0.467755
0.460006
0.452788
0.447169
0.443606
0.441538
0.440183
0.43911
0.438166
0.437326
0.436614
0.436048
0.435652
0.435418
0.435401
0.435635
0.436184
0.436895
0.437985
0.439103
0.440874
0.442701
0.4466
0.451445
0.45695
0.450093
0.422008
0.595706
0.505801
0.473199
0.534516
0.574374
0.584553
0.592863
0.584751
0.559585
0.525664
0.499806
0.485333
0.475983
0.467763
0.460029
0.452797
0.44717
0.443605
0.441537
0.440182
0.439109
0.438166
0.437325
0.436613
0.436046
0.43565
0.435416
0.435399
0.435633
0.436181
0.436893
0.437982
0.4391
0.440872
0.442698
0.446603
0.45145
0.456974
0.450187
0.422483
0.596448
0.512266
0.475991
0.537604
0.575178
0.585734
0.594215
0.585307
0.559445
0.525384
0.499691
0.485293
0.475967
0.467755
0.460006
0.452788
0.447169
0.443606
0.441538
0.440183
0.43911
0.438166
0.437326
0.436614
0.436048
0.435652
0.435418
0.435401
0.435635
0.436184
0.436895
0.437985
0.439103
0.440874
0.442701
0.4466
0.451445
0.45695
0.450093
0.422008
0.57407
0.493865
0.485155
0.543461
0.57164
0.58089
0.590363
0.58285
0.558086
0.524784
0.499477
0.485203
0.475932
0.467734
0.459943
0.452764
0.447166
0.443609
0.441542
0.440187
0.439113
0.438169
0.437329
0.436618
0.436052
0.435656
0.435423
0.435407
0.435641
0.436189
0.436901
0.43799
0.439111
0.440878
0.442712
0.446591
0.45144
0.456935
0.449963
0.420998
0.522492
0.510743
0.509927
0.55274
0.567585
0.578542
0.584214
0.576459
0.553123
0.522195
0.498363
0.484737
0.475703
0.46754
0.459684
0.452607
0.447117
0.44361
0.441553
0.440195
0.439118
0.438173
0.437335
0.436627
0.436064
0.435672
0.435441
0.435427
0.435662
0.436208
0.43692
0.438003
0.439132
0.44088
0.442738
0.44654
0.451406
0.456919
0.449888
0.420571
0.527218
0.520961
0.540367
0.549011
0.554958
0.565083
0.571654
0.563309
0.541608
0.515253
0.495349
0.483589
0.475074
0.46696
0.459112
0.45224
0.446996
0.443622
0.441595
0.44023
0.439144
0.438198
0.437364
0.436664
0.436109
0.435725
0.4355
0.43549
0.435728
0.43627
0.436979
0.438053
0.439193
0.440917
0.442789
0.446459
0.451308
0.456838
0.450394
0.422183
0.507293
0.505285
0.518777
0.52641
0.546538
0.555599
0.55677
0.54706
0.528009
0.507118
0.491666
0.481933
0.474012
0.46604
0.458325
0.451744
0.44682
0.443634
0.44166
0.440292
0.439197
0.43825
0.437423
0.436734
0.436192
0.435819
0.435603
0.4356
0.435842
0.436378
0.437084
0.438145
0.4393
0.440997
0.442874
0.446373
0.451191
0.456813
0.451126
0.424408
0.486247
0.496224
0.504969
0.517248
0.535782
0.543168
0.540692
0.530418
0.515023
0.499301
0.487897
0.479941
0.472585
0.464841
0.457378
0.451175
0.446623
0.443651
0.441744
0.440379
0.439278
0.438331
0.437514
0.43684
0.436314
0.435956
0.43575
0.435755
0.436002
0.43653
0.437232
0.438278
0.439445
0.441118
0.442983
0.446317
0.451092
0.456871
0.451866
0.426072
0.479978
0.493674
0.499764
0.510253
0.526759
0.528758
0.52476
0.515752
0.503675
0.49243
0.484147
0.47766
0.470823
0.463383
0.456314
0.450573
0.446428
0.443682
0.441851
0.440495
0.439392
0.43845
0.437646
0.436989
0.436481
0.43614
0.435945
0.435959
0.436207
0.436723
0.437416
0.438443
0.439616
0.441264
0.443105
0.446295
0.450997
0.456983
0.452534
0.427424
0.479224
0.492112
0.49641
0.503878
0.516312
0.514931
0.5107
0.503355
0.494297
0.486761
0.480812
0.475372
0.468938
0.461834
0.455252
0.450028
0.446285
0.443761
0.442007
0.440667
0.439567
0.438635
0.437846
0.437208
0.436719
0.436394
0.436214
0.436237
0.436482
0.436984
0.437665
0.438673
0.439844
0.44147
0.443286
0.44637
0.451008
0.457258
0.453198
0.428565
0.479397
0.489471
0.491208
0.497748
0.505041
0.50303
0.498977
0.493243
0.487029
0.482129
0.477756
0.472942
0.466836
0.46018
0.454195
0.449537
0.4462
0.443892
0.44222
0.440903
0.439815
0.438897
0.438126
0.437506
0.437033
0.436722
0.436554
0.436581
0.436813
0.437292
0.43795
0.438927
0.440083
0.441679
0.443465
0.446445
0.451013
0.457596
0.453942
0.429999
0.478205
0.484671
0.48508
0.491823
0.494316
0.492614
0.489196
0.485413
0.481566
0.478434
0.475093
0.470638
0.464819
0.458686
0.453345
0.44924
0.446294
0.444178
0.442584
0.441296
0.440226
0.439325
0.438571
0.437968
0.437507
0.437206
0.437045
0.437071
0.437282
0.437731
0.438358
0.439296
0.440424
0.441984
0.44374
0.446632
0.451161
0.458016
0.45471
0.431525
0.475622
0.479085
0.479474
0.484704
0.485099
0.483965
0.481958
0.479962
0.477654
0.475486
0.472603
0.468306
0.462816
0.4573
0.45264
0.449082
0.446488
0.444555
0.443043
0.441792
0.440747
0.439868
0.439132
0.438543
0.438092
0.437795
0.437636
0.437654
0.437835
0.438245
0.438828
0.439717
0.440805
0.442322
0.444045
0.446855
0.451351
0.458462
0.45558
0.43343
0.472683
0.473865
0.473977
0.476946
0.478592
0.477962
0.477031
0.476014
0.474663
0.473058
0.470336
0.466131
0.461069
0.456234
0.452252
0.44923
0.446941
0.44518
0.443752
0.442546
0.441531
0.440672
0.439949
0.439365
0.438913
0.438613
0.438444
0.438438
0.438578
0.438935
0.439465
0.440292
0.441328
0.442794
0.444482
0.447214
0.451702
0.458992
0.456528
0.435591
0.470589
0.470087
0.469136
0.471819
0.474807
0.47425
0.473786
0.473313
0.472451
0.470979
0.468173
0.464123
0.459607
0.455475
0.452112
0.449515
0.447498
0.445882
0.444534
0.443376
0.442395
0.441562
0.440857
0.440286
0.439843
0.439548
0.43937
0.439346
0.439452
0.439761
0.440237
0.441007
0.441995
0.443416
0.445076
0.447746
0.45224
0.459675
0.457654
0.4381
0.469178
0.467562
0.465863
0.468863
0.472212
0.471662
0.471584
0.471422
0.470787
0.469234
0.466331
0.462537
0.458578
0.455154
0.45238
0.450153
0.448371
0.446892
0.445626
0.444523
0.443577
0.442763
0.442065
0.441495
0.441049
0.440752
0.440555
0.440505
0.440572
0.440827
0.441247
0.441957
0.442899
0.444276
0.445918
0.448535
0.453049
0.460598
0.459032
0.440958
0.468178
0.465794
0.463948
0.467171
0.470905
0.470306
0.470372
0.470187
0.469457
0.46771
0.464799
0.461369
0.458013
0.455195
0.452849
0.450929
0.44932
0.447935
0.446724
0.445661
0.444756
0.443984
0.443328
0.442794
0.442376
0.442095
0.441895
0.441834
0.44187
0.442082
0.442455
0.443118
0.444031
0.445392
0.447045
0.449656
0.454242
0.461944
0.460826
0.444373
0.467794
0.464969
0.46296
0.466534
0.470622
0.469949
0.470025
0.469657
0.468603
0.466597
0.463823
0.460905
0.458218
0.455888
0.453932
0.452283
0.450852
0.449589
0.448467
0.447466
0.446595
0.445829
0.445162
0.444615
0.444182
0.44389
0.443668
0.443586
0.443583
0.443756
0.444085
0.444701
0.445594
0.446942
0.448617
0.451246
0.455913
0.463765
0.46303
0.447898
0.468631
0.46562
0.46354
0.467205
0.471177
0.470316
0.470209
0.469497
0.468101
0.466049
0.46357
0.461169
0.458917
0.456993
0.455345
0.453911
0.452625
0.451449
0.450366
0.44938
0.448542
0.447834
0.447216
0.446688
0.446255
0.445954
0.44571
0.445605
0.445576
0.445727
0.446025
0.446617
0.447514
0.448882
0.450608
0.453276
0.458044
0.466157
0.465733
0.451547
0.470544
0.467683
0.465794
0.469439
0.473026
0.471916
0.471483
0.470437
0.46885
0.466942
0.464789
0.462815
0.461039
0.459524
0.458206
0.457055
0.456027
0.455085
0.454194
0.453334
0.452538
0.451782
0.451053
0.450394
0.449838
0.449448
0.449118
0.448947
0.448844
0.448925
0.449153
0.449693
0.450586
0.45197
0.453743
0.456492
0.461375
0.46966
0.469135
0.454989
0.474467
0.472356
0.470537
0.473901
0.476513
0.475128
0.474265
0.472949
0.471259
0.469591
0.46783
0.466305
0.464926
0.463748
0.462686
0.461719
0.460804
0.459926
0.459075
0.45825
0.457488
0.45677
0.456088
0.45548
0.454942
0.454553
0.454192
0.454028
0.453912
0.45399
0.454257
0.45486
0.455861
0.457366
0.459294
0.462187
0.467246
0.475735
0.474643
0.459206
0.468992
0.479312
0.48168
0.483458
0.484191
0.482204
0.480548
0.478818
0.477049
0.475556
0.474045
0.472662
0.471253
0.469907
0.468601
0.467417
0.466339
0.465341
0.464418
0.463579
0.46283
0.462147
0.46153
0.461065
0.460754
0.460691
0.460706
0.46085
0.461062
0.461406
0.461907
0.462683
0.463887
0.465584
0.46782
0.470912
0.476162
0.48531
0.482339
0.453534
0.335506
0.452379
0.484798
0.482497
0.48167
0.47854
0.476228
0.473831
0.47165
0.469724
0.467924
0.46627
0.4647
0.463207
0.461772
0.46045
0.459273
0.458283
0.457501
0.456895
0.456321
0.455805
0.45555
0.45558
0.455766
0.456159
0.456707
0.457273
0.457957
0.45874
0.459704
0.460945
0.462613
0.464762
0.467405
0.470529
0.475357
0.482315
0.451355
0.333618
0.331866
0.334972
0.44044
0.445264
0.44265
0.439039
0.435855
0.432938
0.430651
0.428898
0.427553
0.426607
0.426058
0.425776
0.425749
0.42595
0.426341
0.426877
0.427521
0.428183
0.428512
0.428627
0.42902
0.429614
0.430463
0.431499
0.432961
0.434445
0.436248
0.438243
0.440595
0.443334
0.446658
0.45038
0.454358
0.457866
0.461677
0.45612
0.335579
0.330376
0.331866
0.334972
0.44044
0.445264
0.44265
0.439039
0.435855
0.432938
0.430651
0.428898
0.427553
0.426607
0.426058
0.425776
0.425749
0.42595
0.426341
0.426877
0.427521
0.428183
0.428512
0.428627
0.42902
0.429614
0.430463
0.431499
0.432961
0.434445
0.436248
0.438243
0.440595
0.443334
0.446658
0.45038
0.454358
0.457866
0.461677
0.45612
0.335579
0.330376
0.335506
0.452379
0.484798
0.482497
0.48167
0.47854
0.476228
0.473831
0.47165
0.469724
0.467924
0.46627
0.4647
0.463207
0.461772
0.46045
0.459273
0.458283
0.457501
0.456895
0.456321
0.455805
0.45555
0.45558
0.455766
0.456159
0.456707
0.457273
0.457957
0.45874
0.459704
0.460945
0.462613
0.464762
0.467405
0.470529
0.475357
0.482315
0.451355
0.333618
0.468992
0.479312
0.48168
0.483458
0.484191
0.482204
0.480548
0.478818
0.477049
0.475556
0.474045
0.472662
0.471253
0.469907
0.468601
0.467417
0.466339
0.465341
0.464418
0.463579
0.46283
0.462147
0.46153
0.461065
0.460754
0.460691
0.460706
0.46085
0.461062
0.461406
0.461907
0.462683
0.463887
0.465584
0.46782
0.470912
0.476162
0.48531
0.482339
0.453534
0.474467
0.472356
0.470537
0.473901
0.476513
0.475128
0.474265
0.472949
0.471259
0.469591
0.46783
0.466305
0.464926
0.463748
0.462686
0.461719
0.460804
0.459926
0.459075
0.45825
0.457488
0.45677
0.456088
0.45548
0.454942
0.454553
0.454192
0.454028
0.453912
0.45399
0.454257
0.45486
0.455861
0.457366
0.459294
0.462187
0.467246
0.475735
0.474643
0.459206
0.470544
0.467683
0.465794
0.469439
0.473026
0.471916
0.471483
0.470437
0.46885
0.466942
0.464789
0.462815
0.461039
0.459524
0.458206
0.457055
0.456027
0.455085
0.454194
0.453334
0.452538
0.451782
0.451053
0.450394
0.449838
0.449448
0.449118
0.448947
0.448844
0.448925
0.449153
0.449693
0.450586
0.45197
0.453743
0.456492
0.461375
0.46966
0.469135
0.454989
0.468631
0.46562
0.46354
0.467205
0.471177
0.470316
0.470209
0.469497
0.468101
0.466049
0.46357
0.461169
0.458917
0.456993
0.455345
0.453911
0.452625
0.451449
0.450366
0.44938
0.448542
0.447834
0.447216
0.446688
0.446255
0.445954
0.44571
0.445605
0.445576
0.445727
0.446025
0.446617
0.447514
0.448882
0.450608
0.453276
0.458044
0.466157
0.465733
0.451547
0.467794
0.464969
0.46296
0.466534
0.470622
0.469949
0.470025
0.469657
0.468603
0.466597
0.463823
0.460905
0.458218
0.455888
0.453932
0.452283
0.450852
0.449589
0.448467
0.447466
0.446595
0.445829
0.445162
0.444615
0.444182
0.44389
0.443668
0.443586
0.443583
0.443756
0.444085
0.444701
0.445594
0.446942
0.448617
0.451246
0.455913
0.463765
0.46303
0.447898
0.468178
0.465794
0.463948
0.467171
0.470905
0.470306
0.470372
0.470187
0.469457
0.46771
0.464799
0.461369
0.458013
0.455195
0.452849
0.450929
0.44932
0.447935
0.446724
0.445661
0.444756
0.443984
0.443328
0.442794
0.442376
0.442095
0.441895
0.441834
0.44187
0.442082
0.442455
0.443118
0.444031
0.445392
0.447045
0.449656
0.454242
0.461944
0.460826
0.444373
0.469178
0.467562
0.465863
0.468863
0.472212
0.471662
0.471584
0.471422
0.470787
0.469234
0.466331
0.462537
0.458578
0.455154
0.45238
0.450153
0.448371
0.446892
0.445626
0.444523
0.443577
0.442763
0.442065
0.441495
0.441049
0.440752
0.440555
0.440505
0.440572
0.440827
0.441247
0.441957
0.442899
0.444276
0.445918
0.448535
0.453049
0.460598
0.459032
0.440958
0.470589
0.470087
0.469136
0.471819
0.474807
0.47425
0.473786
0.473313
0.472451
0.470979
0.468173
0.464123
0.459607
0.455475
0.452112
0.449515
0.447498
0.445882
0.444534
0.443376
0.442395
0.441562
0.440857
0.440286
0.439843
0.439548
0.43937
0.439346
0.439452
0.439761
0.440237
0.441007
0.441995
0.443416
0.445076
0.447746
0.45224
0.459675
0.457654
0.4381
0.472683
0.473865
0.473977
0.476946
0.478592
0.477962
0.477031
0.476014
0.474663
0.473058
0.470336
0.466131
0.461069
0.456234
0.452252
0.44923
0.446941
0.44518
0.443752
0.442546
0.441531
0.440672
0.439949
0.439365
0.438913
0.438613
0.438444
0.438438
0.438578
0.438935
0.439465
0.440292
0.441328
0.442794
0.444482
0.447214
0.451702
0.458992
0.456528
0.435591
0.475622
0.479085
0.479474
0.484704
0.485099
0.483965
0.481958
0.479962
0.477654
0.475486
0.472603
0.468306
0.462816
0.4573
0.45264
0.449082
0.446488
0.444555
0.443043
0.441792
0.440747
0.439868
0.439132
0.438543
0.438092
0.437795
0.437636
0.437654
0.437835
0.438245
0.438828
0.439717
0.440805
0.442322
0.444045
0.446855
0.451351
0.458462
0.45558
0.43343
0.478205
0.484671
0.48508
0.491823
0.494316
0.492614
0.489196
0.485413
0.481566
0.478434
0.475093
0.470638
0.464819
0.458686
0.453345
0.44924
0.446294
0.444178
0.442584
0.441296
0.440226
0.439325
0.438571
0.437968
0.437507
0.437206
0.437045
0.437071
0.437282
0.437731
0.438358
0.439296
0.440424
0.441984
0.44374
0.446632
0.451161
0.458016
0.45471
0.431525
0.479397
0.489471
0.491208
0.497748
0.505041
0.50303
0.498977
0.493243
0.487029
0.482129
0.477756
0.472942
0.466836
0.46018
0.454195
0.449537
0.4462
0.443892
0.44222
0.440903
0.439815
0.438897
0.438126
0.437506
0.437033
0.436722
0.436554
0.436581
0.436813
0.437292
0.43795
0.438927
0.440083
0.441679
0.443465
0.446445
0.451013
0.457596
0.453942
0.429999
0.479224
0.492112
0.49641
0.503878
0.516312
0.514931
0.5107
0.503355
0.494297
0.486761
0.480812
0.475372
0.468938
0.461834
0.455252
0.450028
0.446285
0.443761
0.442007
0.440667
0.439567
0.438635
0.437846
0.437208
0.436719
0.436394
0.436214
0.436237
0.436482
0.436984
0.437665
0.438673
0.439844
0.44147
0.443286
0.44637
0.451008
0.457258
0.453198
0.428565
0.479978
0.493674
0.499764
0.510253
0.526759
0.528758
0.52476
0.515752
0.503675
0.49243
0.484147
0.47766
0.470823
0.463383
0.456314
0.450573
0.446428
0.443682
0.441851
0.440495
0.439392
0.43845
0.437646
0.436989
0.436481
0.43614
0.435945
0.435959
0.436207
0.436723
0.437416
0.438443
0.439616
0.441264
0.443105
0.446295
0.450997
0.456983
0.452534
0.427424
0.486247
0.496224
0.504969
0.517248
0.535782
0.543168
0.540692
0.530418
0.515023
0.499301
0.487897
0.479941
0.472585
0.464841
0.457378
0.451175
0.446623
0.443651
0.441744
0.440379
0.439278
0.438331
0.437514
0.43684
0.436314
0.435956
0.43575
0.435755
0.436002
0.43653
0.437232
0.438278
0.439445
0.441118
0.442983
0.446317
0.451092
0.456871
0.451866
0.426072
0.507293
0.505285
0.518777
0.52641
0.546538
0.555599
0.55677
0.54706
0.528009
0.507118
0.491666
0.481933
0.474012
0.46604
0.458325
0.451744
0.44682
0.443634
0.44166
0.440292
0.439197
0.43825
0.437423
0.436734
0.436192
0.435819
0.435603
0.4356
0.435842
0.436378
0.437084
0.438145
0.4393
0.440997
0.442874
0.446373
0.451191
0.456813
0.451126
0.424408
0.527218
0.520961
0.540367
0.549011
0.554958
0.565083
0.571654
0.563309
0.541608
0.515253
0.495349
0.483589
0.475074
0.46696
0.459112
0.45224
0.446996
0.443622
0.441595
0.44023
0.439144
0.438198
0.437364
0.436664
0.436109
0.435725
0.4355
0.43549
0.435728
0.43627
0.436979
0.438053
0.439193
0.440917
0.442789
0.446459
0.451308
0.456838
0.450394
0.422183
0.522492
0.510743
0.509927
0.55274
0.567585
0.578542
0.584214
0.576459
0.553123
0.522195
0.498363
0.484737
0.475703
0.46754
0.459684
0.452607
0.447117
0.44361
0.441553
0.440195
0.439118
0.438173
0.437335
0.436627
0.436064
0.435672
0.435441
0.435427
0.435662
0.436208
0.43692
0.438003
0.439132
0.44088
0.442738
0.44654
0.451406
0.456919
0.449888
0.420571
)
;

boundaryField
{
    inlet
    {
        type            fixedValue;
        value           uniform 1;
    }
    outlet
    {
        type            zeroGradient;
    }
    obstacle
    {
        type            zeroGradient;
    }
    empty
    {
        type            empty;
    }
}


// ************************************************************************* //
