/*--------------------------------*- C++ -*----------------------------------*\
| =========                 |                                                 |
| \\      /  F ield         | OpenFOAM: The Open Source CFD Toolbox           |
|  \\    /   O peration     | Version:  v1912                                 |
|   \\  /    A nd           | Website:  www.openfoam.com                      |
|    \\/     M anipulation  |                                                 |
\*---------------------------------------------------------------------------*/
FoamFile
{
    version     2.0;
    format      ascii;
    class       volTensorField;
    location    "0.34";
    object      grad(U);
}
// * * * * * * * * * * * * * * * * * * * * * * * * * * * * * * * * * * * * * //

dimensions      [0 0 -1 0 0 0 0];


internalField   nonuniform List<tensor> 
1900
(
(-1.04951e-16 2.96904e-16 0 0 0 0 0 0 0)
(1.3023e-16 -4.18711e-17 0 -9.56522e-17 1.85248e-16 0 0 0 0)
(1.04951e-16 -2.96904e-16 0 1.26123e-16 -7.87938e-16 0 0 0 0)
(-1.17317e-16 4.91668e-16 0 0 -6.72476e-17 0 0 0 0)
(-1.78759e-17 2.30291e-16 0 2.03298e-17 4.49797e-16 0 0 0 0)
(-8.14475e-17 1.96033e-16 0 -4.27381e-17 2.30291e-16 0 0 0 0)
(7.99824e-15 -4.50432e-17 0 -3.68491e-16 6.56615e-16 0 0 0 0)
(8.16067e-12 2.82918e-13 0 2.24126e-15 1.13686e-15 0 0 0 0)
(1.39034e-09 6.49672e-11 0 3.51892e-12 1.18557e-12 0 0 0 0)
(4.23091e-08 2.40881e-09 0 7.50593e-10 2.76077e-10 0 0 0 0)
(-2.00604e-16 -1.11656e-16 0 0 0 0 0 0 0)
(2.56352e-16 -7.46067e-16 0 -1.6302e-16 -2.96904e-16 0 0 0 0)
(2.00604e-16 4.44088e-17 0 2.36243e-16 -6.97852e-17 0 0 0 0)
(-2.2311e-16 7.46067e-16 0 0 1.12847e-31 0 0 0 0)
(-6.0614e-17 6.72476e-17 0 1.40084e-16 -4.49797e-16 0 0 0 0)
(-4.70269e-16 1.0785e-17 0 -2.07486e-16 -2.30291e-16 0 0 0 0)
(1.02822e-14 9.51616e-16 0 -3.11639e-16 3.61112e-31 0 0 0 0)
(1.168e-11 9.01992e-13 0 3.29243e-15 -2.41711e-16 0 0 0 0)
(2.14093e-09 2.11109e-10 0 6.21006e-12 -2.82982e-13 0 0 0 0)
(6.47096e-08 7.27491e-09 0 1.26953e-09 -6.49837e-11 0 0 0 0)
(-2.67972e-16 0 0 0 0 0 0 0 0)
(3.66473e-16 -1.11656e-16 0 2.00604e-16 1.11656e-16 0 0 0 0)
(2.67972e-16 9.0278e-32 0 -2.56352e-16 4.26324e-16 0 0 0 0)
(-2.13476e-16 1.11656e-16 0 0 6.72476e-17 0 0 0 0)
(-2.25362e-16 0 0 2.93949e-16 -2.39173e-16 0 0 0 0)
(-5.3317e-16 6.4583e-16 0 -2.4615e-16 3.95238e-16 0 0 0 0)
(1.14982e-14 -5.64626e-17 0 4.37027e-16 -3.80647e-18 0 0 0 0)
(1.4371e-11 -6.40755e-17 0 -7.86226e-16 -2.06628e-15 0 0 0 0)
(2.65987e-09 -1.63311e-14 0 -2.66449e-14 -1.85703e-12 0 0 0 0)
(7.94251e-08 2.63858e-15 0 -1.40636e-14 -4.22324e-10 0 0 0 0)
(0 0 0 0 0 0 0 0 0)
(0 -3.19743e-16 0 2.67972e-16 -2.76603e-16 0 0 0 0)
(0 6.01853e-32 0 -3.66473e-16 -1.00808e-15 0 0 0 0)
(3.27191e-16 8.05702e-17 0 0 -4.8469e-16 0 0 0 0)
(-3.06764e-16 3.95238e-16 0 -1.52996e-16 -9.9095e-16 0 0 0 0)
(-3.27191e-16 2.46151e-16 0 2.25362e-16 -1.98571e-16 0 0 0 0)
(9.74217e-15 -1.5099e-15 0 3.80174e-16 -6.4583e-16 0 0 0 0)
(1.16529e-11 -9.55038e-13 0 -3.93711e-15 -2.06184e-16 0 0 0 0)
(2.14092e-09 -2.11212e-10 0 -6.29686e-12 -3.01492e-13 0 0 0 0)
(6.47097e-08 -7.27477e-09 0 -1.26957e-09 -6.5003e-11 0 0 0 0)
(0 -2.76603e-16 0 0 0 0 0 0 0)
(0 -1.11974e-15 0 0 2.76603e-16 0 0 0 0)
(0 -2.08087e-16 0 0 1.43948e-15 0 0 0 0)
(0 1.28785e-16 0 0 4.8469e-16 0 0 0 0)
(0 2.86119e-16 0 -3.27191e-16 1.23012e-15 0 0 0 0)
(0 9.9095e-16 0 3.06764e-16 -1.96667e-16 0 0 0 0)
(7.33569e-15 -6.40755e-17 0 0 -6.97852e-18 0 0 0 0)
(8.07379e-12 -3.00911e-13 0 -2.09971e-15 1.37731e-15 0 0 0 0)
(1.3903e-09 -6.50191e-11 0 -3.57908e-12 1.25594e-12 0 0 0 0)
(4.23096e-08 -2.40874e-09 0 -7.5062e-10 2.76233e-10 0 0 0 0)
(2.03075e-06 1.61368e-07 -3.73442e-24 4.01065e-08 -2.67805e-08 5.60163e-24 1.14322e-24 5.59752e-24 -1.01222e-39)
(2.29955e-05 3.20754e-06 0 1.63741e-06 -1.265e-06 0 -3.74043e-22 -3.64423e-23 0)
(6.24318e-05 2.61778e-05 0 2.10374e-05 -1.80373e-05 0 -5.28813e-21 -6.28597e-22 0)
(-3.11501e-05 8.62984e-05 0 7.48447e-05 -6.38313e-05 0 0 0 0)
(-0.0142338 0.000105938 -1.07687e-20 5.74691e-06 9.85512e-05 1.61531e-20 -2.94964e-20 -1.96643e-20 2.91887e-36)
(2.85505e-06 3.36035e-07 0 3.22172e-08 -2.08683e-09 0 8.39049e-24 7.58285e-25 0)
(3.08118e-05 4.18284e-06 0 1.04715e-06 -1.19739e-07 0 3.74043e-22 3.64423e-23 0)
(8.92091e-05 1.9105e-05 0 1.092e-05 -2.47484e-06 0 5.28813e-21 6.28597e-22 0)
(2.21193e-05 4.49358e-05 0 3.99959e-05 -1.99462e-05 0 0 0 0)
(-0.0148884 -2.21449e-05 0 0.000120196 -9.9107e-05 0 0 0 0)
(3.29015e-06 -1.78296e-13 0 1.26471e-13 -1.26118e-08 0 0 0 0)
(3.41007e-05 2.93238e-13 0 -4.63303e-13 -5.67214e-07 0 0 0 0)
(0.000100784 1.21397e-13 0 8.66976e-13 -8.96499e-06 0 0 0 0)
(5.23181e-05 -4.27465e-13 0 -4.82134e-13 -5.65281e-05 0 0 0 0)
(-0.0152924 2.77097e-13 0 2.20942e-14 -0.000216533 0 0 0 0)
(2.85505e-06 -3.36035e-07 0 -3.22169e-08 -2.08679e-09 0 8.39053e-24 -7.58278e-25 0)
(3.08118e-05 -4.18284e-06 0 -1.04715e-06 -1.19738e-07 0 3.74043e-22 -3.64424e-23 0)
(8.92091e-05 -1.9105e-05 0 -1.092e-05 -2.47484e-06 0 5.28813e-21 -6.28597e-22 0)
(2.21193e-05 -4.49358e-05 0 -3.99959e-05 -1.99462e-05 0 0 0 0)
(-0.0148884 2.21449e-05 0 -0.000120196 -9.9107e-05 0 0 0 0)
(2.03075e-06 -1.61368e-07 3.73446e-24 -4.01066e-08 -2.67808e-08 5.60169e-24 -1.79243e-23 7.11414e-24 -1.01223e-39)
(2.29955e-05 -3.20754e-06 0 -1.63741e-06 -1.265e-06 0 -3.74043e-22 3.64424e-23 0)
(6.24318e-05 -2.61778e-05 0 -2.10374e-05 -1.80373e-05 0 -5.28813e-21 6.28597e-22 0)
(-3.11501e-05 -8.62984e-05 8.69158e-21 -7.48447e-05 -6.38313e-05 1.30374e-20 -3.03689e-20 2.0246e-20 -2.35586e-36)
(-0.0142338 -0.000105938 1.07687e-20 -5.74691e-06 9.85512e-05 1.61531e-20 2.94964e-20 -1.96643e-20 2.91887e-36)
(-0.0930572 -0.00042729 4.30597e-20 -0.00420264 -0.0137765 3.87537e-19 -7.89656e-18 4.48428e-19 -1.16713e-35)
(-0.219772 0.00665564 -1.98508e-19 -0.0290714 -0.0642071 -1.78658e-18 3.69103e-17 -2.07016e-18 -5.38058e-35)
(-0.362333 0.0768786 0 -0.0224834 -0.0726111 0 0 0 0)
(-0.463419 0.231914 -5.95501e-19 0.245067 0.197272 -5.3595e-18 -1.35595e-16 2.18273e-17 1.61411e-34)
(-0.85548 0.145348 2.23355e-18 1.00756 0.744858 2.0102e-17 1.03315e-16 -1.14794e-17 6.05405e-34)
(-0.0998521 -0.000493952 0 -0.00473572 -0.000732632 0 4.01156e-18 -1.67615e-20 0)
(-0.22314 0.0138645 0 -0.0396628 -0.00357535 0 -1.88929e-17 6.82243e-20 0)
(-0.266087 0.0930763 0 -0.0221311 -0.0395243 0 0 0 0)
(-0.0544529 0.239974 0 0.392057 -0.22085 0 7.7182e-17 -1.56925e-17 0)
(0.307642 0.0549542 0 1.40498 -0.524316 0 -7.66417e-18 4.53035e-18 0)
(-0.104994 2.74753e-14 0 -8.67353e-14 0.00035216 0 0 0 0)
(-0.22379 -9.47604e-14 0 -5.67584e-14 0.00262005 0 0 0 0)
(-0.194538 -1.34335e-14 0 1.2122e-13 -0.0803816 0 0 0 0)
(0.138706 1.97157e-14 0 -1.2401e-14 -0.480328 0 -2.61498e-17 1.56848e-30 0)
(0.530071 5.55103e-14 0 1.46225e-13 -1.20341 0 1.53283e-17 7.00485e-31 0)
(-0.0998521 0.000493952 0 0.00473572 -0.000732632 0 4.01156e-18 1.67615e-20 0)
(-0.22314 -0.0138645 0 0.0396628 -0.00357535 0 -1.88929e-17 -6.82243e-20 0)
(-0.266087 -0.0930763 0 0.0221311 -0.0395243 0 0 0 0)
(-0.0544529 -0.239974 0 -0.392057 -0.22085 0 7.7182e-17 1.56925e-17 0)
(0.307642 -0.0549542 0 -1.40498 -0.524316 0 -7.66417e-18 -4.53035e-18 0)
(-0.0930572 0.00042729 0 0.00420264 -0.0137765 0 -4.01156e-18 -1.67615e-20 0)
(-0.219772 -0.00665564 1.98508e-19 0.0290714 -0.0642071 -1.78658e-18 8.75535e-19 -1.93371e-18 -5.38058e-35)
(-0.362333 -0.0768786 0 0.0224834 -0.0726111 0 0 0 0)
(-0.463419 -0.231914 5.95501e-19 -0.245067 0.197272 -5.3595e-18 7.38061e-18 -5.94117e-18 1.61411e-34)
(-0.85548 -0.145348 -2.23355e-18 -1.00756 0.744858 2.0102e-17 -1.03315e-16 -1.14794e-17 6.05405e-34)
(-0.0504113 -0.46977 0 5.96299 0.0910146 0 0 0 0)
(0.686942 -0.232145 0 1.65973 0.385719 0 0 0 0)
(0.281515 0.288939 0 0.541102 0.117834 0 0 0 0)
(0.290837 0.139672 0 0.07251 0.0356763 0 0 0 0)
(0.115984 0.024359 0 0.000894811 0.00664932 0 0 0 0)
(0.0192399 0.000866635 0 -0.000223685 0.000332109 0 0 0 0)
(0.000850894 -7.18319e-06 0 -2.7307e-06 2.38503e-06 0 0 0 0)
(6.26825e-06 -1.66798e-07 0 -2.67927e-09 1.75634e-09 0 0 0 0)
(5.10435e-09 -1.55444e-10 0 -1.86152e-13 4.89272e-14 0 0 0 0)
(3.30081e-13 -1.21807e-14 0 -1.29705e-16 -6.62876e-17 0 0 0 0)
(3.65841e-17 -5.4444e-16 0 -1.4135e-16 -5.48649e-16 0 0 0 0)
(-2.27723e-17 -2.86901e-16 0 5.01708e-16 3.95528e-15 0 0 0 0)
(-3.08108e-16 7.21446e-17 0 4.12626e-16 1.68206e-15 0 0 0 0)
(-7.48574e-17 7.29835e-17 0 -7.39098e-16 7.32891e-16 0 0 0 0)
(7.9637e-16 1.93784e-16 0 5.40313e-18 3.50208e-16 0 0 0 0)
(-7.63337e-17 -2.15595e-16 0 3.54738e-16 1.93043e-15 0 0 0 0)
(-7.95044e-16 1.25834e-16 0 1.56235e-16 4.4439e-16 0 0 0 0)
(-3.0879e-16 6.86212e-16 0 -2.60461e-16 1.30845e-15 0 0 0 0)
(4.09979e-16 -7.29835e-17 0 -1.0612e-15 5.13369e-15 0 0 0 0)
(5.05804e-16 -4.5384e-16 0 4.45039e-16 3.52936e-15 0 0 0 0)
(-7.65456e-17 -3.8589e-16 0 5.59237e-17 3.81304e-16 0 0 0 0)
(-1.14554e-16 1.69456e-16 0 7.46602e-16 3.57666e-15 0 0 0 0)
(-5.14285e-16 1.91854e-15 0 7.08601e-16 1.75402e-15 0 0 0 0)
(-1.40695e-16 -3.36395e-16 0 -1.39217e-15 5.19317e-15 0 0 0 0)
(1.03603e-15 -1.31286e-15 0 -1.70341e-15 3.96682e-15 0 0 0 0)
(4.70298e-16 -1.07378e-16 0 -3.33418e-17 -9.31592e-16 0 0 0 0)
(-9.6122e-16 -6.79501e-17 0 8.71413e-16 -5.03879e-15 0 0 0 0)
(-3.4655e-16 1.37075e-15 0 8.34281e-16 3.85713e-16 0 0 0 0)
(3.34535e-16 1.63248e-15 0 8.57467e-16 -2.82244e-16 0 0 0 0)
(3.66964e-16 -8.22113e-16 0 -2.42247e-16 -3.29738e-15 0 0 0 0)
(5.00902e-13 -4.58034e-16 0 -1.14466e-15 -1.14323e-15 0 0 0 0)
(7.57415e-09 2.28178e-15 0 -1.57428e-14 -7.81792e-14 0 0 0 0)
(9.41931e-06 -1.19453e-13 0 3.57988e-14 -1.14199e-13 0 0 0 0)
(0.00130588 6.55176e-15 0 -2.74978e-13 -3.19915e-13 0 0 0 0)
(0.0303754 1.61518e-13 0 1.84341e-13 4.99742e-13 0 0 0 0)
(0.192527 1.3591e-13 0 1.32476e-13 -2.48608e-13 0 0 0 0)
(0.527599 -3.35102e-14 0 4.97747e-14 -1.24244e-13 0 0 0 0)
(0.757838 -4.81144e-14 0 -2.26697e-14 -2.44581e-13 0 0 0 0)
(2.5568 4.58816e-14 0 1.57702e-14 -3.22143e-13 0 0 0 0)
(2.16311 -4.15254e-14 0 1.06449e-13 -2.79756e-13 0 0 0 0)
(0.147937 -0.384174 0 4.08058 -0.314897 0 0 0 0)
(-0.156486 -0.183482 0 1.46533 1.07694 0 0 0 0)
(-0.0169791 0.185223 0 0.496118 0.4831 0 0 0 0)
(0.19006 0.0923268 0 0.0523963 0.0837093 0 0 0 0)
(0.106959 0.0164262 0 -0.0062273 0.00297849 0 0 0 0)
(0.0201566 -0.000111345 0 -0.000601593 -2.46927e-05 0 0 0 0)
(0.000946667 -6.2214e-05 0 -5.68711e-06 -5.73367e-07 0 0 0 0)
(7.17744e-06 -6.00491e-07 0 -5.10972e-09 -5.34491e-10 0 0 0 0)
(5.92097e-09 -4.9576e-10 0 -3.32749e-13 3.86529e-14 0 0 0 0)
(3.83748e-13 -1.69926e-14 0 1.70444e-16 -3.74879e-16 0 0 0 0)
(2.2409e-16 1.12244e-15 0 4.8066e-16 -1.34956e-15 0 0 0 0)
(1.48945e-16 3.26328e-16 0 -1.45532e-16 5.87118e-15 0 0 0 0)
(-5.26179e-16 -8.35535e-16 0 -4.09176e-17 -2.01858e-16 0 0 0 0)
(-1.58606e-16 -4.21123e-16 0 -1.00961e-15 3.78628e-15 0 0 0 0)
(7.97041e-16 2.04689e-16 0 -2.98338e-16 -1.54854e-15 0 0 0 0)
(2.94571e-18 8.3889e-19 0 -6.81374e-17 7.03619e-16 0 0 0 0)
(-6.5709e-16 -9.56335e-17 0 2.23927e-16 0 0 0 0 0)
(-5.19747e-16 1.39591e-15 0 7.03885e-16 5.73853e-16 0 0 0 0)
(4.2508e-16 5.23468e-16 0 4.2643e-16 2.17718e-15 0 0 0 0)
(5.9621e-16 -1.35229e-15 0 -9.23525e-16 4.10637e-15 0 0 0 0)
(4.66813e-17 6.71112e-17 0 2.24641e-17 5.01761e-16 0 0 0 0)
(1.28443e-16 6.92923e-16 0 9.35702e-16 7.11694e-15 0 0 0 0)
(-8.97965e-16 1.24659e-15 0 3.13422e-16 2.91829e-15 0 0 0 0)
(-7.77122e-16 2.36567e-16 0 -1.25291e-16 -7.43991e-16 0 0 0 0)
(1.0407e-15 -2.30527e-15 0 -2.18418e-15 5.65779e-15 0 0 0 0)
(1.00123e-15 -2.2348e-15 0 -2.80319e-15 1.79942e-15 0 0 0 0)
(-3.59463e-16 5.8219e-16 0 1.56778e-15 -1.23422e-15 0 0 0 0)
(-1.89888e-16 1.98565e-15 0 1.85465e-15 2.58955e-15 0 0 0 0)
(-1.27206e-16 -1.38417e-16 0 -3.45041e-16 -4.56199e-15 0 0 0 0)
(-2.89235e-16 -7.05507e-16 0 -5.66806e-16 -1.14627e-14 0 0 0 0)
(4.8942e-13 -1.88474e-14 0 -8.79606e-16 -3.35661e-15 0 0 0 0)
(7.57416e-09 -1.06053e-14 0 -4.0275e-14 -5.62319e-15 0 0 0 0)
(9.41931e-06 -1.17047e-13 0 3.00821e-14 1.08424e-13 0 0 0 0)
(0.00130588 8.77054e-14 0 -3.47661e-13 -3.15485e-13 0 0 0 0)
(0.0303754 1.37278e-13 0 3.39755e-13 2.07513e-13 0 0 0 0)
(0.192527 1.43954e-14 0 -6.08016e-14 -1.4752e-13 0 0 0 0)
(0.527599 -2.95239e-14 0 1.20741e-14 -3.50532e-13 0 0 0 0)
(0.757838 -1.02123e-13 0 -9.01859e-14 -2.4023e-13 0 0 0 0)
(2.5568 -8.86481e-15 0 -2.66122e-14 -4.33436e-13 0 0 0 0)
(2.16311 -2.6311e-14 0 7.88511e-15 -5.74019e-13 0 0 0 0)
(0.161109 8.86911e-14 0 3.06718e-13 -0.627463 0 0 0 0)
(-0.35581 -4.1859e-14 0 -7.42309e-15 1.38591 0 0 0 0)
(-0.129521 -1.08587e-13 0 -2.1758e-13 0.633977 0 0 0 0)
(0.144701 -8.06661e-16 0 -1.06079e-13 0.112502 0 0 0 0)
(0.100567 9.51438e-14 0 1.2573e-13 -0.000769628 0 0 0 0)
(0.0210498 -4.85149e-14 0 -4.68169e-14 -0.000427725 0 0 0 0)
(0.0010259 -9.05596e-14 0 2.73004e-14 -4.12837e-06 0 0 0 0)
(7.92268e-06 5.28921e-14 0 1.76395e-13 -3.40844e-09 0 0 0 0)
(6.59081e-09 4.37389e-14 0 -5.32833e-14 -5.52514e-14 0 0 0 0)
(4.27021e-13 -2.38178e-14 0 -3.16214e-16 2.5982e-15 0 0 0 0)
(-5.53363e-17 1.2726e-15 0 6.67817e-16 -1.537e-15 0 0 0 0)
(-1.74504e-16 4.69779e-17 0 -9.47974e-16 -7.75711e-16 0 0 0 0)
(-5.59477e-16 -5.34373e-16 0 -5.84335e-17 -1.02082e-15 0 0 0 0)
(-1.49743e-16 -3.18778e-16 0 6.4555e-16 4.39185e-15 0 0 0 0)
(1.07025e-15 -7.0299e-16 0 -7.18556e-16 8.16083e-16 0 0 0 0)
(7.55981e-17 2.34889e-16 0 -7.0805e-16 -7.03619e-16 0 0 0 0)
(-5.70455e-16 8.80835e-17 0 -1.92563e-16 0 0 0 0 0)
(-2.4988e-16 1.31957e-15 0 4.07882e-16 -3.74879e-16 0 0 0 0)
(-6.34493e-17 9.54657e-16 0 1.87583e-15 -3.10573e-15 0 0 0 0)
(3.88286e-16 -9.41235e-16 0 -1.19242e-15 -8.7664e-16 0 0 0 0)
(4.6432e-16 4.89912e-16 0 3.16416e-16 -3.17205e-17 0 0 0 0)
(-2.99115e-17 8.72446e-16 0 7.06222e-16 -1.34956e-15 0 0 0 0)
(-8.22937e-16 -3.68273e-16 0 -6.38346e-16 -2.55495e-15 0 0 0 0)
(-8.67269e-16 4.60551e-16 0 4.6455e-17 -6.58634e-15 0 0 0 0)
(2.57002e-16 -5.72962e-16 0 -1.22662e-16 2.01858e-17 0 0 0 0)
(1.56178e-15 -2.11233e-15 0 -1.44244e-15 5.64914e-15 0 0 0 0)
(3.93788e-16 1.61906e-16 0 1.32301e-15 4.56199e-15 0 0 0 0)
(-9.03006e-16 4.02667e-16 0 7.05305e-16 -1.0958e-15 0 0 0 0)
(-3.69888e-16 -2.45543e-15 0 -2.66811e-15 -2.48862e-15 0 0 0 0)
(2.11454e-16 -4.71456e-16 0 -6.15723e-16 -3.97084e-15 0 0 0 0)
(4.89351e-13 1.24072e-15 0 6.67158e-16 -1.03236e-15 0 0 0 0)
(7.57416e-09 3.47997e-14 0 -3.65518e-15 3.99592e-14 0 0 0 0)
(9.41931e-06 -2.09595e-13 0 8.3332e-14 1.85196e-13 0 0 0 0)
(0.00130588 3.53778e-14 0 -5.01575e-13 -4.89882e-13 0 0 0 0)
(0.0303754 2.1038e-13 0 5.20334e-13 6.45343e-14 0 0 0 0)
(0.192527 -2.64306e-14 0 -3.93947e-14 1.04119e-15 0 0 0 0)
(0.527599 -6.04805e-14 0 5.42101e-14 -3.30462e-13 0 0 0 0)
(0.757838 -7.22319e-14 0 -8.52577e-14 -1.63468e-13 0 0 0 0)
(2.5568 -5.12205e-14 0 -1.02506e-13 -1.62468e-13 0 0 0 0)
(2.16311 -8.24222e-14 0 -2.0107e-13 -1.42135e-13 0 0 0 0)
(0.147937 0.384174 0 -4.08058 -0.314897 0 0 0 0)
(-0.156486 0.183482 0 -1.46533 1.07694 0 0 0 0)
(-0.0169791 -0.185223 0 -0.496118 0.4831 0 0 0 0)
(0.19006 -0.0923268 0 -0.0523963 0.0837093 0 0 0 0)
(0.106959 -0.0164262 0 0.0062273 0.00297849 0 0 0 0)
(0.0201566 0.000111345 0 0.000601593 -2.46927e-05 0 0 0 0)
(0.000946667 6.2214e-05 0 5.68711e-06 -5.73367e-07 0 0 0 0)
(7.17744e-06 6.00491e-07 0 5.1098e-09 -5.33991e-10 0 0 0 0)
(5.92092e-09 4.95787e-10 0 2.76554e-13 -1.91904e-13 0 0 0 0)
(3.99443e-13 -1.36655e-15 0 -1.20143e-15 -6.22876e-16 0 0 0 0)
(4.03051e-17 1.40934e-16 0 3.79344e-16 -1.65812e-15 0 0 0 0)
(-6.23277e-17 4.7649e-16 0 2.65552e-16 -4.25344e-15 0 0 0 0)
(-6.26086e-17 6.67757e-16 0 -2.88356e-16 -1.02082e-15 0 0 0 0)
(-3.50641e-16 1.1325e-16 0 2.08886e-15 -6.22876e-16 0 0 0 0)
(4.03266e-16 -1.27763e-15 0 -2.24728e-16 2.34444e-15 0 0 0 0)
(1.55962e-16 -2.36567e-16 0 -1.7852e-15 0 0 0 0 0)
(-3.32455e-16 0 0 -5.05823e-16 0 0 0 0 0)
(8.19682e-17 4.92429e-16 0 9.16955e-17 -3.02787e-16 0 0 0 0)
(-4.04624e-17 3.77501e-16 0 9.2242e-16 -5.42998e-15 0 0 0 0)
(1.42562e-16 -4.58034e-16 0 2.9168e-16 -4.55622e-15 0 0 0 0)
(5.99014e-16 -7.04668e-17 0 -4.12341e-16 -1.30054e-15 0 0 0 0)
(-1.49306e-16 -4.11056e-17 0 -1.17423e-15 -5.26849e-15 0 0 0 0)
(-1.0899e-15 -2.76834e-16 0 -3.09477e-16 -7.20633e-15 0 0 0 0)
(-6.27105e-16 9.85696e-16 0 6.74832e-16 -6.38448e-15 0 0 0 0)
(6.07564e-16 1.25414e-15 0 1.99147e-15 -5.33482e-15 0 0 0 0)
(1.42179e-15 -9.13552e-16 0 4.5822e-16 5.79621e-16 0 0 0 0)
(2.65334e-16 -1.37997e-15 0 -1.09006e-15 1.3784e-15 0 0 0 0)
(-1.35094e-15 -6.54335e-17 0 3.05777e-16 -7.38512e-15 0 0 0 0)
(-5.11505e-16 -9.74791e-16 0 -5.58799e-16 -8.36269e-16 0 0 0 0)
(6.81024e-16 -2.81867e-16 0 6.52139e-16 4.31976e-15 0 0 0 0)
(4.88536e-13 -6.06769e-15 0 5.32425e-16 -5.07529e-16 0 0 0 0)
(7.57419e-09 4.35703e-14 0 -1.83315e-14 -1.99407e-14 0 0 0 0)
(9.41931e-06 -2.71182e-13 0 1.128e-13 -1.14886e-13 0 0 0 0)
(0.00130588 5.26038e-14 0 -6.37314e-13 6.62327e-14 0 0 0 0)
(0.0303754 2.80092e-13 0 8.0113e-13 3.83669e-14 0 0 0 0)
(0.192527 -1.00513e-13 0 -1.91583e-14 -9.61003e-14 0 0 0 0)
(0.527599 -7.73812e-14 0 1.72487e-15 -5.97019e-13 0 0 0 0)
(0.757838 -5.32518e-14 0 -1.22219e-13 -1.05202e-14 0 0 0 0)
(2.5568 -2.65866e-15 0 -1.26162e-13 -3.38867e-13 0 0 0 0)
(2.16311 -2.03959e-14 0 -7.88511e-14 8.97406e-14 0 0 0 0)
(-0.0504113 0.46977 0 -5.96299 0.0910146 0 0 0 0)
(0.686942 0.232145 0 -1.65973 0.385719 0 0 0 0)
(0.281515 -0.288939 0 -0.541102 0.117834 0 0 0 0)
(0.290837 -0.139672 0 -0.07251 0.0356763 0 0 0 0)
(0.115984 -0.024359 0 -0.000894811 0.00664932 0 0 0 0)
(0.0192399 -0.000866635 0 0.000223685 0.000332109 0 0 0 0)
(0.000850894 7.18319e-06 0 2.7307e-06 2.38503e-06 0 0 0 0)
(6.26825e-06 1.66798e-07 0 2.67909e-09 1.75667e-09 0 0 0 0)
(5.10433e-09 1.55386e-10 0 2.06812e-13 -6.02316e-14 0 0 0 0)
(3.46679e-13 3.15263e-14 0 -5.79225e-16 -1.06781e-15 0 0 0 0)
(3.71421e-16 2.16434e-16 0 -6.53058e-17 2.77063e-16 0 0 0 0)
(-3.68744e-16 2.32373e-16 0 7.47374e-16 -1.82877e-15 0 0 0 0)
(-2.90608e-17 5.2179e-16 0 -6.69408e-16 -6.21666e-16 0 0 0 0)
(-1.31233e-16 6.60207e-16 0 6.1778e-16 -3.80793e-15 0 0 0 0)
(-5.67455e-17 -5.2179e-16 0 4.55582e-16 1.89037e-16 0 0 0 0)
(-6.17474e-18 -4.47129e-16 0 -8.71955e-16 1.58667e-16 0 0 0 0)
(-2.44488e-17 0 0 -1.16689e-16 0 0 0 0 0)
(1.65608e-16 -2.60056e-16 0 2.61058e-16 -3.22985e-18 0 0 0 0)
(-5.27209e-18 -2.82706e-16 0 -9.13638e-17 -2.67433e-15 0 0 0 0)
(-7.86198e-21 2.60056e-16 0 4.08437e-16 -2.00449e-15 0 0 0 0)
(3.78739e-17 2.82706e-16 0 -5.81247e-16 -1.18231e-16 0 0 0 0)
(1.25013e-20 -8.45602e-16 0 -1.58073e-15 -1.2791e-15 0 0 0 0)
(-2.85028e-16 -6.92923e-16 0 -6.81254e-17 -2.48561e-15 0 0 0 0)
(-1.97903e-16 1.00499e-15 0 1.51463e-15 -2.24748e-15 0 0 0 0)
(1.93988e-16 1.45296e-15 0 1.86391e-15 -3.19177e-15 0 0 0 0)
(6.65332e-16 -1.59389e-16 0 -2.00496e-16 -2.81532e-15 0 0 0 0)
(3.4944e-16 -2.15511e-15 0 -1.79361e-15 -6.82356e-16 0 0 0 0)
(-7.48459e-16 -2.416e-16 0 -3.60734e-16 -3.32561e-15 0 0 0 0)
(-2.69128e-16 9.49624e-16 0 1.34264e-15 -1.35979e-15 0 0 0 0)
(5.28901e-16 -3.75823e-16 0 1.20943e-15 2.62109e-15 0 0 0 0)
(4.83828e-13 -5.81687e-15 0 1.46737e-17 -9.3344e-16 0 0 0 0)
(7.57419e-09 1.52594e-15 0 -1.46738e-14 1.57902e-14 0 0 0 0)
(9.41931e-06 -1.84526e-13 0 -2.12097e-14 -2.38618e-13 0 0 0 0)
(0.00130588 7.99605e-14 0 -3.3987e-13 5.64504e-13 0 0 0 0)
(0.0303754 1.63156e-13 0 5.95537e-13 6.87653e-14 0 0 0 0)
(0.192527 -2.1127e-13 0 -1.78555e-13 -6.79092e-14 0 0 0 0)
(0.527599 -3.55845e-14 0 -1.84068e-13 -4.8747e-13 0 0 0 0)
(0.757838 2.86675e-15 0 -6.40665e-14 4.81444e-14 0 0 0 0)
(2.5568 -2.20537e-14 0 -4.73106e-14 -1.43682e-13 0 0 0 0)
(2.16311 4.22636e-14 0 7.88511e-14 -2.38887e-14 0 0 0 0)
(1.92691 0.348165 0 -3.13591 0.147537 0 0 0 0)
(2.2693 0.144039 0 -0.763203 -0.219392 0 0 0 0)
(0.633509 -0.284874 0 -0.297643 -0.120086 0 0 0 0)
(0.412394 -0.107327 0 -0.0806713 -0.00721046 0 0 0 0)
(0.142147 -0.0294242 0 -0.0102117 0.00217309 0 0 0 0)
(0.0217795 -0.00292731 0 -0.000368686 0.000125671 0 0 0 0)
(0.000917096 -8.24784e-05 0 -2.26838e-06 8.94972e-07 0 0 0 0)
(6.5158e-06 -3.94117e-07 0 -1.61356e-09 6.41292e-10 0 0 0 0)
(5.18459e-09 -2.12535e-10 0 -6.9335e-14 6.44456e-14 0 0 0 0)
(3.30682e-13 -1.44352e-15 0 -3.96856e-16 5.37318e-16 0 0 0 0)
(4.89592e-16 -4.23687e-16 0 -5.4289e-16 6.69693e-16 0 0 0 0)
(-8.69705e-17 1.95002e-16 0 1.52075e-16 -8.08073e-17 0 0 0 0)
(-1.82689e-16 -4.04947e-16 0 -1.10849e-16 4.07757e-16 0 0 0 0)
(1.01344e-16 -1.06365e-17 0 -2.37418e-16 -9.31157e-16 0 0 0 0)
(6.85062e-19 3.36569e-16 0 2.98724e-16 -4.94033e-16 0 0 0 0)
(-1.5537e-17 -1.11683e-16 0 -1.90689e-16 6.3277e-16 0 0 0 0)
(2.21205e-17 -1.01553e-16 0 2.30761e-16 1.29038e-16 0 0 0 0)
(1.14466e-18 -3.15043e-16 0 -1.26775e-16 -1.1274e-18 0 0 0 0)
(1.12957e-17 -1.14469e-16 0 -1.52967e-19 2.60296e-16 0 0 0 0)
(1.17509e-19 3.15043e-16 0 -9.4592e-19 7.87959e-16 0 0 0 0)
(8.11102e-20 -2.38055e-17 0 8.00273e-19 2.12873e-17 0 0 0 0)
(-8.92039e-20 -5.95897e-16 0 -6.03811e-17 -7.80726e-17 0 0 0 0)
(-7.88922e-17 -4.03174e-16 0 4.7286e-19 8.96098e-16 0 0 0 0)
(8.85405e-17 5.20429e-16 0 1.63286e-16 7.59135e-16 0 0 0 0)
(9.91121e-18 6.68073e-16 0 5.39234e-16 -4.70335e-16 0 0 0 0)
(2.1819e-18 -2.11464e-16 0 -1.03752e-16 -1.14231e-15 0 0 0 0)
(6.75719e-17 -8.03815e-16 0 -4.83217e-16 -3.37326e-16 0 0 0 0)
(-8.02756e-17 -2.86679e-16 0 -4.86165e-16 1.84607e-15 0 0 0 0)
(1.93168e-16 5.30305e-16 0 5.12934e-16 -7.75279e-17 0 0 0 0)
(2.39191e-17 9.4209e-17 0 4.98419e-16 6.27275e-16 0 0 0 0)
(4.84017e-13 1.90292e-15 0 -2.47606e-16 6.8599e-16 0 0 0 0)
(7.57417e-09 -5.69091e-14 0 2.76737e-15 9.32716e-15 0 0 0 0)
(9.41931e-06 -2.71849e-14 0 -1.52412e-13 -1.42749e-13 0 0 0 0)
(0.00130588 2.13786e-13 0 8.37974e-14 3.33228e-13 0 0 0 0)
(0.0303754 1.86034e-14 0 2.57622e-13 -4.77834e-14 0 0 0 0)
(0.192527 -3.21361e-13 0 -2.49246e-13 1.42428e-13 0 0 0 0)
(0.527599 -5.29114e-14 0 -2.08211e-13 9.94414e-14 0 0 0 0)
(0.757838 9.75096e-14 0 -2.85649e-14 4.70458e-14 0 0 0 0)
(2.5568 -2.54175e-14 0 -1.87457e-14 1.77397e-13 0 0 0 0)
(2.16311 -1.77028e-14 0 3.80866e-14 1.05949e-13 0 0 0 0)
(2.17286 0.081733 0 -0.427278 0.0373238 0 0 0 0)
(2.57349 0.0214986 0 -0.180425 -0.313776 0 0 0 0)
(0.750477 -0.0866534 0 -0.125822 -0.108706 0 0 0 0)
(0.502634 -0.0392031 0 -0.0512981 -0.028355 0 0 0 0)
(0.179338 -0.0145735 0 -0.00861779 -0.00272247 0 0 0 0)
(0.0277163 -0.00185484 0 -0.000387112 -7.35086e-05 0 0 0 0)
(0.00117067 -6.58384e-05 0 -2.87697e-06 -3.32388e-07 0 0 0 0)
(8.3214e-06 -3.9485e-07 0 -2.35951e-09 -1.66825e-10 0 0 0 0)
(6.61617e-09 -2.65294e-10 0 -1.52551e-13 -9.24553e-16 0 0 0 0)
(4.21548e-13 -1.2251e-14 0 1.7942e-16 -6.13916e-16 0 0 0 0)
(8.37025e-16 -3.59615e-17 0 -9.74339e-21 7.54255e-17 0 0 0 0)
(-1.03509e-16 1.05711e-30 0 -1.53713e-16 -1.74241e-16 0 0 0 0)
(-3.2201e-16 1.99308e-16 0 3.31068e-16 -9.19823e-17 0 0 0 0)
(1.3873e-16 1.50937e-16 0 3.95515e-16 7.19039e-16 0 0 0 0)
(-4.25118e-17 5.24987e-16 0 -3.26697e-16 -4.46771e-18 0 0 0 0)
(-6.66458e-17 -2.65912e-17 0 -2.75158e-16 1.20891e-17 0 0 0 0)
(1.21685e-17 -5.5639e-16 0 -1.90944e-16 4.80148e-16 0 0 0 0)
(3.12817e-17 -1.04086e-16 0 -2.25375e-16 1.7608e-16 0 0 0 0)
(1.07098e-16 3.87472e-16 0 -8.98521e-19 3.26931e-16 0 0 0 0)
(8.43487e-19 2.5325e-19 0 -5.07538e-18 1.49274e-16 0 0 0 0)
(8.65624e-19 -3.87472e-16 0 1.84433e-17 2.06468e-32 0 0 0 0)
(-2.48468e-19 -1.36502e-16 0 -8.85203e-20 1.63203e-16 0 0 0 0)
(-1.80031e-16 -4.1533e-17 0 3.7009e-18 1.01338e-15 0 0 0 0)
(1.67667e-16 -5.19162e-17 0 4.77828e-17 5.97885e-16 0 0 0 0)
(3.53688e-17 4.1533e-17 0 -8.65765e-17 2.52557e-16 0 0 0 0)
(3.5663e-17 -3.29225e-18 0 6.65674e-17 -2.47564e-16 0 0 0 0)
(1.3208e-16 5.58288e-30 0 1.81264e-17 5.40856e-16 0 0 0 0)
(-1.46832e-16 3.29225e-17 0 -8.75002e-17 7.04847e-16 0 0 0 0)
(4.31755e-16 8.9194e-31 0 -1.08506e-17 5.95257e-16 0 0 0 0)
(6.68056e-17 1.07884e-16 0 -1.46734e-16 1.5453e-16 0 0 0 0)
(4.85914e-13 -1.57294e-15 0 -3.21897e-17 4.97493e-16 0 0 0 0)
(7.57405e-09 -1.05358e-13 0 -3.41294e-15 -4.42382e-15 0 0 0 0)
(9.41931e-06 4.32253e-14 0 -1.96111e-13 5.38774e-14 0 0 0 0)
(0.00130588 9.97108e-14 0 3.22997e-13 1.3611e-13 0 0 0 0)
(0.0303754 5.68079e-14 0 -7.66119e-14 -2.97877e-13 0 0 0 0)
(0.192527 -1.03646e-14 0 9.77456e-14 1.83383e-13 0 0 0 0)
(0.527599 -1.18207e-13 0 -1.3918e-13 2.79912e-13 0 0 0 0)
(0.757838 2.72366e-14 0 -3.98719e-14 1.17759e-13 0 0 0 0)
(2.5568 3.65117e-14 0 4.25498e-14 1.30474e-13 0 0 0 0)
(2.16311 5.57048e-15 0 3.57061e-15 1.99485e-13 0 0 0 0)
(2.16479 0.00983246 0 -0.0113902 -0.0199747 0 0 0 0)
(2.5598 0.00332011 0 -0.0214344 -0.104708 0 0 0 0)
(0.757941 -0.00983182 0 -0.0286012 -0.0424082 0 0 0 0)
(0.525336 -0.00519802 0 -0.013791 -0.0151096 0 0 0 0)
(0.191206 -0.00217113 0 -0.00275225 -0.00191358 0 0 0 0)
(0.0300811 -0.000304152 0 -0.000139865 -6.78801e-05 0 0 0 0)
(0.00129013 -1.1643e-05 0 -1.13574e-06 -4.06994e-07 0 0 0 0)
(9.28815e-06 -7.38152e-08 0 -9.91059e-10 -2.73504e-10 0 0 0 0)
(7.4583e-09 -5.1777e-11 0 -6.1601e-14 -1.37122e-14 0 0 0 0)
(4.77686e-13 -4.79909e-16 0 5.82985e-16 1.36922e-16 0 0 0 0)
(1.68573e-16 0 0 -2.76391e-19 0 0 0 0 0)
(2.32068e-16 3.36822e-17 0 -2.4037e-16 1.74241e-16 0 0 0 0)
(3.46567e-16 4.5585e-16 0 3.56331e-16 -2.9776e-16 0 0 0 0)
(-5.32502e-16 7.36957e-17 0 1.22875e-16 7.01693e-17 0 0 0 0)
(-6.456e-16 -3.44673e-16 0 -3.03591e-16 -1.56633e-16 0 0 0 0)
(1.1528e-16 3.5531e-16 0 9.83871e-17 -9.13778e-16 0 0 0 0)
(7.00928e-17 5.64747e-17 0 3.87905e-17 -6.93809e-16 0 0 0 0)
(1.84279e-16 -4.62688e-16 0 1.54613e-16 -1.73978e-16 0 0 0 0)
(2.23585e-16 -1.403e-16 0 -1.95498e-17 -2.10245e-17 0 0 0 0)
(1.8756e-17 3.46866e-31 0 2.25083e-17 -4.02094e-16 0 0 0 0)
(4.88663e-18 -1.03832e-17 0 1.53797e-16 -2.12873e-17 0 0 0 0)
(-1.42955e-17 3.80635e-16 0 -4.40796e-19 5.57463e-32 0 0 0 0)
(-3.27617e-17 1.57015e-17 0 1.55839e-17 1.20365e-16 0 0 0 0)
(1.54595e-18 -2.1273e-16 0 2.04265e-17 4.31003e-17 0 0 0 0)
(2.80128e-17 -1.46632e-16 0 -1.67051e-16 1.74241e-16 0 0 0 0)
(1.03077e-16 6.63515e-17 0 1.29682e-16 3.50584e-16 0 0 0 0)
(-8.08933e-17 1.13962e-16 0 -2.94176e-17 1.77657e-16 0 0 0 0)
(-1.08199e-16 -2.34256e-16 0 -1.66166e-16 0 0 0 0 0)
(1.36088e-16 0 0 -5.90983e-17 1.43492e-16 0 0 0 0)
(3.35592e-18 0 0 -4.21188e-16 0 0 0 0 0)
(4.80869e-13 -2.50895e-15 0 -1.24127e-16 3.15368e-17 0 0 0 0)
(7.57398e-09 -5.4702e-15 0 -6.34205e-15 2.23386e-15 0 0 0 0)
(9.41931e-06 1.08238e-13 0 -1.77212e-14 1.60907e-13 0 0 0 0)
(0.00130588 -1.25177e-13 0 2.41943e-13 1.18539e-14 0 0 0 0)
(0.0303754 6.41573e-14 0 -4.02403e-13 -1.49191e-13 0 0 0 0)
(0.192527 2.35418e-13 0 3.91996e-13 1.80621e-14 0 0 0 0)
(0.527599 -1.16148e-13 0 -5.62372e-14 1.00633e-13 0 0 0 0)
(0.757838 -4.64942e-14 0 -4.32937e-14 2.84731e-15 0 0 0 0)
(2.5568 5.33361e-14 0 2.43992e-14 2.76092e-14 0 0 0 0)
(2.16311 4.87983e-14 0 -1.1902e-15 6.28781e-16 0 0 0 0)
(2.16318 8.06945e-05 0 0.000460717 -0.00224474 0 0 0 0)
(2.5569 -0.000119134 0 -0.00127896 -0.012464 0 0 0 0)
(0.757842 -0.000312914 0 -0.00265368 -0.00570871 0 0 0 0)
(0.527543 -0.00018101 0 -0.00138636 -0.00226465 0 0 0 0)
(0.192492 -7.87399e-05 0 -0.000305449 -0.000315639 0 0 0 0)
(0.0303674 -1.1239e-05 0 -1.63422e-05 -1.208e-05 0 0 0 0)
(0.00130545 -4.26979e-07 0 -1.36095e-07 -7.65866e-08 0 0 0 0)
(9.41584e-06 -2.65581e-09 0 -1.20095e-10 -5.36737e-11 0 0 0 0)
(7.57119e-09 -1.73584e-12 0 -6.21209e-15 9.31912e-15 0 0 0 0)
(4.80908e-13 9.62603e-16 0 4.54087e-17 0 0 0 0 0)
(4.36102e-17 0 0 -1.21592e-18 1.74241e-16 0 0 0 0)
(2.40131e-16 -2.86932e-16 0 6.40201e-17 0 0 0 0 0)
(2.80261e-17 9.90207e-17 0 2.44762e-16 -4.57283e-17 0 0 0 0)
(-4.97195e-16 2.86932e-16 0 -2.45824e-16 -4.73052e-16 0 0 0 0)
(-6.61096e-17 -4.23181e-16 0 -1.60419e-16 -1.72664e-16 0 0 0 0)
(2.63286e-16 -5.44234e-16 0 1.98201e-16 -5.38228e-16 0 0 0 0)
(6.63494e-17 1.56508e-16 0 2.1582e-16 -6.04718e-16 0 0 0 0)
(-2.49371e-17 5.44234e-16 0 3.39802e-16 -1.73978e-16 0 0 0 0)
(-2.02028e-17 1.67651e-16 0 -9.77622e-17 0 0 0 0 0)
(1.67886e-16 0 0 1.2264e-16 -2.83831e-17 0 0 0 0)
(-2.12489e-17 0 0 3.43679e-16 0 0 0 0 0)
(-1.33435e-16 0 0 1.55358e-18 -1.7608e-17 0 0 0 0)
(-1.59922e-16 0 0 4.85298e-17 -6.68317e-16 0 0 0 0)
(-8.32701e-18 0 0 -2.7452e-16 5.36125e-17 0 0 0 0)
(1.40651e-16 3.37835e-16 0 -1.46782e-17 -2.41782e-17 0 0 0 0)
(1.68291e-16 6.54089e-30 0 -1.1416e-16 6.27582e-16 0 0 0 0)
(-1.53011e-16 -3.37835e-16 0 1.40408e-17 -9.48732e-17 0 0 0 0)
(-1.75434e-16 0 0 -3.06777e-17 0 0 0 0 0)
(1.86008e-16 0 0 -5.11501e-27 0 0 0 0 0)
(4.14182e-18 0 0 1.94286e-17 0 0 0 0 0)
(4.80208e-13 5.79689e-16 0 -1.18606e-16 0 0 0 0 0)
(7.57404e-09 4.96676e-14 0 1.53216e-15 3.6898e-15 0 0 0 0)
(9.41931e-06 5.24956e-14 0 8.66717e-14 -1.3149e-14 0 0 0 0)
(0.00130588 -1.99111e-13 0 1.24834e-14 -2.09878e-13 0 0 0 0)
(0.0303754 6.27903e-14 0 -3.65608e-13 8.22867e-14 0 0 0 0)
(0.192527 2.30375e-13 0 4.2031e-13 -1.21843e-13 0 0 0 0)
(0.527599 -1.32869e-13 0 -2.88625e-14 -9.23704e-14 0 0 0 0)
(0.757838 -4.31318e-14 0 -7.33464e-14 -1.82789e-13 0 0 0 0)
(2.5568 3.43738e-14 0 -8.92654e-14 -1.52979e-14 0 0 0 0)
(2.16311 -2.04289e-14 0 0 -1.35147e-13 0 0 0 0)
(2.16311 -1.52316e-05 0 4.34729e-05 -0.000322891 0 0 0 0)
(2.5568 -1.79029e-05 0 -3.10962e-05 -0.000406857 0 0 0 0)
(0.757837 -3.32425e-06 0 -6.70993e-05 -0.000199506 0 0 0 0)
(0.527599 -1.05901e-06 0 -3.58124e-05 -8.2154e-05 0 0 0 0)
(0.192526 -4.68207e-07 0 -8.29131e-06 -1.16658e-05 0 0 0 0)
(0.0303753 -6.44966e-08 0 -4.43813e-07 -4.43092e-07 0 0 0 0)
(0.00130588 -2.32359e-09 0 -3.59856e-09 -2.75609e-09 0 0 0 0)
(9.4193e-06 -1.3606e-11 0 -3.03791e-12 -1.78258e-12 0 0 0 0)
(7.57403e-09 -5.51011e-14 0 -2.42619e-14 4.80358e-15 0 0 0 0)
(4.83671e-13 -9.29225e-15 0 1.42199e-16 0 0 0 0 0)
(1.86508e-16 2.14726e-30 0 -4.16271e-18 -1.74241e-16 0 0 0 0)
(4.69101e-16 -1.78288e-16 0 -1.3868e-17 -7.35858e-17 0 0 0 0)
(4.79895e-17 3.71642e-32 0 -1.11656e-16 5.23773e-16 0 0 0 0)
(-9.22949e-16 -4.8624e-17 0 2.3431e-16 -1.37185e-16 0 0 0 0)
(-2.17721e-16 -4.07479e-16 0 1.8234e-16 3.26669e-16 0 0 0 0)
(4.77838e-16 -6.10332e-17 0 -3.86735e-18 5.04851e-16 0 0 0 0)
(2.06544e-16 4.07479e-16 0 -1.81059e-16 5.64771e-16 0 0 0 0)
(-1.179e-16 1.2004e-16 0 1.43436e-16 1.73978e-16 0 0 0 0)
(1.43201e-17 0 0 -1.55176e-16 0 0 0 0 0)
(4.44145e-16 0 0 1.67226e-16 -1.74241e-16 0 0 0 0)
(-1.11797e-16 0 0 -3.26661e-16 0 0 0 0 0)