/*--------------------------------*- C++ -*----------------------------------*\
| =========                 |                                                 |
| \\      /  F ield         | OpenFOAM: The Open Source CFD Toolbox           |
|  \\    /   O peration     | Version:  v1912                                 |
|   \\  /    A nd           | Website:  www.openfoam.com                      |
|    \\/     M anipulation  |                                                 |
\*---------------------------------------------------------------------------*/
FoamFile
{
    version     2.0;
    format      ascii;
    class       volScalarField;
    location    "0.00012";
    object      dsmcSigmaTcRMax;
}
// * * * * * * * * * * * * * * * * * * * * * * * * * * * * * * * * * * * * * //

dimensions      [0 3 -1 0 0 0 0];


internalField   nonuniform List<scalar> 
1300
(
6.711839416e-16
6.549715212e-16
7.682679392e-16
8.45816785e-16
8.761874484e-16
8.616964196e-16
8.361181364e-16
9.009401328e-16
8.876232541e-16
8.725088828e-16
6.220815325e-16
6.565701497e-16
7.669321649e-16
8.579370795e-16
9.04846974e-16
8.494829233e-16
8.646569166e-16
8.548474897e-16
8.548225761e-16
8.718140835e-16
6.066675534e-16
7.204323598e-16
7.787517641e-16
7.669081846e-16
8.645796825e-16
7.639992807e-16
7.671490982e-16
8.006329332e-16
8.380775269e-16
9.074304149e-16
5.677472811e-16
6.358228842e-16
7.815484311e-16
7.184680223e-16
8.097213022e-16
8.483604979e-16
7.393388147e-16
7.886572891e-16
8.171695397e-16
8.088220665e-16
4.924876687e-16
5.903338679e-16
7.072962592e-16
7.551823437e-16
7.49310458e-16
7.766892136e-16
6.625866619e-16
7.827821066e-16
8.010990718e-16
7.990473942e-16
4.289710156e-16
5.564066519e-16
6.818334341e-16
7.188317717e-16
7.845469166e-16
6.569302888e-16
6.811011712e-16
7.448069635e-16
7.750457662e-16
7.449797523e-16
2.924751233e-16
6.265453014e-16
6.518858027e-16
6.897269802e-16
7.239535005e-16
6.928822385e-16
6.813603334e-16
6.829235847e-16
7.186377608e-16
7.535695581e-16
4.105966577e-16
4.647661796e-16
6.783148877e-16
6.942687079e-16
7.314181947e-16
6.978425275e-16
6.538520378e-16
7.28331089e-16
7.096693501e-16
6.825390463e-16
2.305753784e-16
4.086972267e-16
6.691642555e-16
6.620048364e-16
7.029845925e-16
6.623303584e-16
6.568995305e-16
7.076843848e-16
7.110905628e-16
6.841105318e-16
2.305753784e-16
4.748420024e-16
6.369400107e-16
6.691363724e-16
6.884998812e-16
6.519488292e-16
6.311514065e-16
6.830033169e-16
6.934342568e-16
7.398514817e-16
2.305753784e-16
4.806381211e-16
6.848689082e-16
6.955453866e-16
7.072449967e-16
6.895236878e-16
6.747103223e-16
6.747215716e-16
7.255025656e-16
6.885518032e-16
4.213681416e-16
3.859302281e-16
6.730957611e-16
6.636989401e-16
7.134160937e-16
6.794976909e-16
6.361121972e-16
6.90356449e-16
7.028585361e-16
7.15977095e-16
2.305753784e-16
4.498636669e-16
6.216827155e-16
6.917553442e-16
7.008564793e-16
6.568287054e-16
6.68576112e-16
6.770440563e-16
6.786378862e-16
6.834444025e-16
2.305753784e-16
2.305753784e-16
6.356288911e-16
6.723115277e-16
7.174333588e-16
7.087547271e-16
6.490786988e-16
6.818132925e-16
7.077544127e-16
6.963765578e-16
2.305753784e-16
3.913067214e-16
6.58603468e-16
6.873700782e-16
7.043187031e-16
6.595299617e-16
6.441477798e-16
7.006916919e-16
7.116121407e-16
6.876947136e-16
2.305753784e-16
6.114208953e-16
6.3123988e-16
6.991509759e-16
7.424158885e-16
6.712043647e-16
6.374361846e-16
6.615317015e-16
6.951061432e-16
7.061390759e-16
2.305753784e-16
2.305753784e-16
6.339700568e-16
6.616800054e-16
7.12079477e-16
6.914704516e-16
6.324309438e-16
6.740208879e-16
7.247899462e-16
6.807077576e-16
2.305753784e-16
4.81391067e-16
6.548690102e-16
6.592687679e-16
6.912874826e-16
6.550461496e-16
6.754404084e-16
6.707223396e-16
7.025685494e-16
6.781973116e-16
2.305753784e-16
4.376489359e-16
6.673295495e-16
6.561882054e-16
7.307964268e-16
6.408088151e-16
6.317229822e-16
6.654744773e-16
7.284007601e-16
6.993564901e-16
2.305753784e-16
2.305753784e-16
6.385845835e-16
6.390518531e-16
7.141211551e-16
6.771886763e-16
6.109552019e-16
6.869808296e-16
7.049194777e-16
6.911339336e-16
8.404299655e-16
8.91581216e-16
8.567161985e-16
8.336206979e-16
8.627030877e-16
8.246225708e-16
8.716884325e-16
8.958267963e-16
8.743602931e-16
8.64615242e-16
8.134316044e-16
8.452774736e-16
9.098573684e-16
8.319935748e-16
9.648485952e-16
8.637168801e-16
8.494908781e-16
8.673411275e-16
8.331570467e-16
8.854620797e-16
9.271083269e-16
9.042256583e-16
8.657450445e-16
8.764534877e-16
8.70600354e-16
8.835234988e-16
8.619888875e-16
8.479996364e-16
8.575995492e-16
8.502110953e-16
8.454651999e-16
8.369034692e-16
8.215281827e-16
9.588545118e-16
8.703623869e-16
8.802055663e-16
9.004477371e-16
8.798446209e-16
8.613878842e-16
8.426325516e-16
8.645501062e-16
8.87174261e-16
8.678968242e-16
9.017341095e-16
8.509661991e-16
8.636382152e-16
8.71032029e-16
8.669180813e-16
8.702586341e-16
8.664256759e-16
8.82328689e-16
9.460376674e-16
8.85558467e-16
8.535136528e-16
8.863127648e-16
8.525868489e-16
8.826342864e-16
9.164016531e-16
8.323408296e-16
8.636585876e-16
8.180112394e-16
8.054116087e-16
8.279969115e-16
8.253165217e-16
8.720013652e-16
8.333754043e-16
8.366451686e-16
9.036403871e-16
8.717808829e-16
8.838820151e-16
8.780324617e-16
8.68551383e-16
8.848419053e-16
8.890460383e-16
8.746726154e-16
9.699758272e-16
8.78282283e-16
8.485992259e-16
8.513367601e-16
8.43202903e-16
8.713333893e-16
8.926252405e-16
8.843924712e-16
8.944307454e-16
9.037907092e-16
8.529000049e-16
8.577740193e-16
9.545091879e-16
9.124284348e-16
9.029339457e-16
8.067590383e-16
8.244064188e-16
7.940601279e-16
8.371844754e-16
7.906146661e-16
8.213712723e-16
8.566558598e-16
8.456153489e-16
8.479135445e-16
8.479797644e-16
8.25773412e-16
8.481452695e-16
8.533538724e-16
9.012334519e-16
9.102682084e-16
8.730882061e-16
8.205757995e-16
8.567973512e-16
8.7098752e-16
8.543273332e-16
8.459594454e-16
8.58132879e-16
9.061441534e-16
9.232006854e-16
9.708232548e-16
8.640633407e-16
8.967045953e-16
8.913109798e-16
8.680727706e-16
8.636772532e-16
7.51009057e-16
7.728769111e-16
8.275490528e-16
8.244327166e-16
7.620924484e-16
8.052649877e-16
8.152181804e-16
8.620880453e-16
7.968509188e-16
8.07696996e-16
7.891253672e-16
8.572104199e-16
8.681031535e-16
8.475388835e-16
8.327477763e-16
8.087851786e-16
8.56526279e-16
8.104013849e-16
8.488026882e-16
8.480182227e-16
9.349108953e-16
8.535244583e-16
8.625183028e-16
8.828385447e-16
8.952770721e-16
8.758715826e-16
8.99436977e-16
8.861730866e-16
8.905198993e-16
9.623842343e-16
7.070762973e-16
7.816415111e-16
8.015854387e-16
7.464867538e-16
7.743928737e-16
7.595883639e-16
7.543133345e-16
7.909160596e-16
7.553515383e-16
7.863932525e-16
8.791851132e-16
8.277932802e-16
8.193056294e-16
7.954291659e-16
8.32339875e-16
8.232190594e-16
8.73042012e-16
8.479686996e-16
8.232370976e-16
8.487475018e-16
7.97137546e-16
8.602958632e-16
9.061460387e-16
9.601677261e-16
8.517673809e-16
9.022108738e-16
9.174187351e-16
8.862827341e-16
8.418116615e-16
8.390404257e-16
7.031807603e-16
7.390310635e-16
7.603842253e-16
7.419384787e-16
7.243540014e-16
7.449547103e-16
7.76301972e-16
7.610607972e-16
7.922531333e-16
7.685968843e-16
7.390168541e-16
7.97395909e-16
7.894071968e-16
8.248564595e-16
7.855227752e-16
8.037793226e-16
7.944821523e-16
8.415985971e-16
7.853091653e-16
8.629766866e-16
8.396892692e-16
8.654970507e-16
8.354329905e-16
8.463983417e-16
9.061392205e-16
8.578032833e-16
8.884595483e-16
8.609924823e-16
8.950069668e-16
8.587098158e-16
6.672196378e-16
7.476336267e-16
7.166947048e-16
7.559750627e-16
7.675640206e-16
7.385869188e-16
7.344699909e-16
7.432007396e-16
7.533588886e-16
7.788723141e-16
7.630533685e-16
7.345726546e-16
7.567213199e-16
7.706269655e-16
7.6957631e-16
8.002837342e-16
8.698208276e-16
9.016493579e-16
8.314444186e-16
8.363539802e-16
8.269666841e-16
9.236307936e-16
8.50487659e-16
8.653654482e-16
8.48994923e-16
8.907855988e-16
8.986219124e-16
8.716398043e-16
8.75521238e-16
8.560699087e-16
6.684781774e-16
7.068238727e-16
7.319358364e-16
7.25403486e-16
6.937168871e-16
7.369369385e-16
7.370657685e-16
7.137642976e-16
7.238666023e-16
7.212713511e-16
7.794401411e-16
7.518351386e-16
7.381019163e-16
7.296062282e-16
7.726796593e-16
7.638264808e-16
7.474498926e-16
7.412471416e-16
8.212030141e-16
7.940046088e-16
7.620015592e-16
7.60123444e-16
7.981918208e-16
8.065530523e-16
7.914766516e-16
8.596158409e-16
8.439291577e-16
8.260361798e-16
8.356680995e-16
8.817567063e-16
6.468426778e-16
7.059540048e-16
6.741127674e-16
7.098200481e-16
7.087699079e-16
6.770183979e-16
7.105202934e-16
7.277899257e-16
7.144865954e-16
7.080746929e-16
7.256968347e-16
7.539312184e-16
7.466984755e-16
7.405573926e-16
7.158130559e-16
7.525179106e-16
7.387837178e-16
7.797461987e-16
7.671757822e-16
7.538357334e-16
7.934659103e-16
7.763391175e-16
7.757147895e-16
8.187929338e-16
8.177745768e-16
7.9987228e-16
7.950788863e-16
8.222524046e-16
8.675134585e-16
9.143989311e-16
6.605976529e-16
7.188838295e-16
7.194401288e-16
6.946480389e-16
6.797559436e-16
7.457900873e-16
7.348119368e-16
7.064092331e-16
7.185230553e-16
7.186997858e-16
6.961503283e-16
7.382037246e-16
7.157249861e-16
7.061860421e-16
7.299734523e-16
7.27105398e-16
7.307133165e-16
7.455975926e-16
7.544107879e-16
7.588607199e-16
7.391005027e-16
7.507542272e-16
7.380064015e-16
7.649783962e-16
8.132238146e-16
7.814144023e-16
7.738624673e-16
7.642706116e-16
8.163372751e-16
8.306282927e-16
6.746971492e-16
7.036383332e-16
6.547302421e-16
6.743951829e-16
6.913863068e-16
6.811265508e-16
6.637003356e-16
6.772434128e-16
7.157564784e-16
7.257719761e-16
6.940620338e-16
7.23742678e-16
7.153851296e-16
7.019577198e-16
7.340571498e-16
7.231911325e-16
7.111376842e-16
7.215382507e-16
7.066021647e-16
7.361288528e-16
7.005153496e-16
7.28005182e-16
7.463891818e-16
7.671760477e-16
7.194579708e-16
7.632372981e-16
7.986929639e-16
7.442825306e-16
8.244620427e-16
7.673325215e-16
6.473099638e-16
6.966495203e-16
6.72379471e-16
6.787765061e-16
6.917525355e-16
6.704381172e-16
7.088289299e-16
6.688808824e-16
7.500333156e-16
6.972141269e-16
6.901537759e-16
6.968308705e-16
6.891397052e-16
6.977287762e-16
7.05712841e-16
7.102534774e-16
7.423700912e-16
7.136877415e-16
7.0647467e-16
7.341823029e-16
7.205068412e-16
7.127271415e-16
7.313573336e-16
7.00361057e-16
7.311561373e-16
7.092465684e-16
7.561770023e-16
7.264777622e-16
7.817884782e-16
7.767062283e-16
6.597028563e-16
6.86335736e-16
6.866224137e-16
7.059450346e-16
7.162161007e-16
6.939243719e-16
6.726494273e-16
6.642508978e-16
6.960300228e-16
6.983005939e-16
6.916017165e-16
6.888649623e-16
6.96472391e-16
7.111810867e-16
7.105375198e-16
7.204404354e-16
6.979623786e-16
7.163456776e-16
7.050719807e-16
7.149572936e-16
7.288500643e-16
6.815649539e-16
7.003682904e-16
7.390394807e-16
7.224444333e-16
7.207626183e-16
7.186080156e-16
7.5434953e-16
7.930101866e-16
7.471851014e-16
6.804658691e-16
7.235566922e-16
6.651370237e-16
6.985347916e-16
6.903136178e-16
6.733239285e-16
7.152348204e-16
6.569750786e-16
6.87819941e-16
6.863389352e-16
6.820881742e-16
6.79985064e-16
6.81362096e-16
6.945342966e-16
6.915140268e-16
6.97089217e-16
6.919157237e-16
7.127806776e-16
7.19276118e-16
7.22348371e-16
7.381895101e-16
6.949744497e-16
7.597557594e-16
7.128478124e-16
7.146901505e-16
7.166673884e-16
6.859592829e-16
7.051308808e-16
7.126515822e-16
7.329499393e-16
6.644299938e-16
6.836830129e-16
7.010491687e-16
6.692950092e-16
6.734057168e-16
6.875351208e-16
6.927107219e-16
6.917929017e-16
7.031625771e-16
6.869426485e-16
7.258533832e-16
7.417134338e-16
6.833354072e-16
7.099957363e-16
7.042924429e-16
6.894528145e-16
6.838746296e-16
6.958103506e-16
7.258523028e-16
6.81249648e-16
7.026278695e-16
7.332934489e-16
7.390927979e-16
7.318481514e-16
7.067513823e-16
7.068548308e-16
7.031872709e-16
7.069017136e-16
7.168765222e-16
7.11319439e-16
6.644613359e-16
6.972641727e-16
6.715905138e-16
6.702282598e-16
6.84485054e-16
6.93318521e-16
6.658580755e-16
6.943737366e-16
6.761347162e-16
6.596042455e-16
6.976094012e-16
6.892359261e-16
7.073702826e-16
6.741112527e-16
7.022699628e-16
6.912371644e-16
6.709771598e-16
7.174519782e-16
7.038832983e-16
7.105321209e-16
7.196790958e-16
7.049454522e-16
7.010888627e-16
7.071834372e-16
7.538736151e-16
7.343972728e-16
7.071527853e-16
7.293434016e-16
7.14230725e-16
7.209898967e-16
7.095750138e-16
6.869285255e-16
6.897589243e-16
6.804610144e-16
6.613685868e-16
6.863948371e-16
6.832274122e-16
6.787484e-16
6.615678913e-16
6.93229652e-16
6.698809967e-16
7.467415553e-16
6.639159122e-16
6.962655478e-16
7.091365195e-16
6.600902005e-16
6.8756569e-16
6.912869096e-16
7.032883e-16
6.933063997e-16
7.170932955e-16
6.682306956e-16
6.925027713e-16
7.021904297e-16
6.846662948e-16
7.080938411e-16
7.233520635e-16
7.1801307e-16
7.36357031e-16
6.815730158e-16
6.787310392e-16
6.910388808e-16
6.946119638e-16
6.486358261e-16
6.864632535e-16
6.869027346e-16
6.658671802e-16
6.829973843e-16
6.770053858e-16
6.812818088e-16
6.889178334e-16
6.953310556e-16
6.771562871e-16
6.762302049e-16
6.7873586e-16
6.479811898e-16
7.078288969e-16
6.758440563e-16
7.050778979e-16
6.828984817e-16
7.317549506e-16
7.187981019e-16
7.2305175e-16
6.915839647e-16
6.868109625e-16
6.933555553e-16
6.9919039e-16
6.732789091e-16
7.015278556e-16
7.03994745e-16
6.751391214e-16
6.998148466e-16
6.869368843e-16
6.595301109e-16
7.034892532e-16
7.123910753e-16
7.057204656e-16
7.057651117e-16
6.68776996e-16
6.813929889e-16
6.80168456e-16
6.535011401e-16
6.932821894e-16
6.676783924e-16
6.808724754e-16
6.794583181e-16
7.250647867e-16
6.813583878e-16
6.663955422e-16
6.619045912e-16
6.818843954e-16
7.045479786e-16
7.250177379e-16
6.769715279e-16
7.308730372e-16
6.880458499e-16
6.854296749e-16
7.22558535e-16
6.880441556e-16
6.913044383e-16
8.302863417e-16
8.743228813e-16
8.214561283e-16
8.107377164e-16
8.729187289e-16
8.726269855e-16
8.327063838e-16
8.191185481e-16
8.292430468e-16
8.569948089e-16
8.653996504e-16
8.040289966e-16
8.763193622e-16
8.031478232e-16
8.511057169e-16
8.632377164e-16
8.797132841e-16
8.644144608e-16
8.273316991e-16
8.423030404e-16
8.724818581e-16
8.373150728e-16
8.315965625e-16
8.10029692e-16
8.580894448e-16
8.554950006e-16
8.258417402e-16
8.70768635e-16
8.080665694e-16
8.11337063e-16
8.465859232e-16
8.798681305e-16
8.736392545e-16
8.916534459e-16
8.236561829e-16
8.118248677e-16
8.524259634e-16
8.150182796e-16
7.905872736e-16
8.326520643e-16
8.517770711e-16
8.953337412e-16
8.772907663e-16
8.833623537e-16
9.010019355e-16
8.518672872e-16
8.621081007e-16
8.236153879e-16
8.879757305e-16
8.533773147e-16
8.789964444e-16
8.744092554e-16
8.513025272e-16
8.701443043e-16
8.398744093e-16
8.950246223e-16
9.459908212e-16
8.600155715e-16
8.43340184e-16
8.327052914e-16
8.608815083e-16
8.894063363e-16
8.598098289e-16
8.988476257e-16
8.810429234e-16
8.30270289e-16
8.222477915e-16
8.285758646e-16
8.443663271e-16
8.34263099e-16
8.570694409e-16
8.63265527e-16
8.62259665e-16
8.650857362e-16
8.920086712e-16
8.961693694e-16
8.277059424e-16
8.892148177e-16
8.199257333e-16
8.14527227e-16
8.341395633e-16
8.4969349e-16
8.159872864e-16
8.976974765e-16
8.161611175e-16
8.448711336e-16
8.403711071e-16
8.61338031e-16
8.40445947e-16
8.564483543e-16
8.233460354e-16
8.007624728e-16
8.619739366e-16
8.931278241e-16
8.385250927e-16
8.182618353e-16
8.515987337e-16
8.182068246e-16
7.971643186e-16
8.754573782e-16
8.289853541e-16
7.611352633e-16
8.252593716e-16
7.844681846e-16
8.159050002e-16
8.641612591e-16
8.605008775e-16
8.404356443e-16
8.682248901e-16
8.860487302e-16
7.978314916e-16
7.842660549e-16
7.910750822e-16
8.400127383e-16
7.795741338e-16
8.133494345e-16
8.343452536e-16
8.237484661e-16
8.017230414e-16
8.117258076e-16
7.422698286e-16
7.60973242e-16
8.031523863e-16
7.736436526e-16
7.994519544e-16
7.704961233e-16
8.016323703e-16
8.491999536e-16
8.29912759e-16
7.765969819e-16
7.576126695e-16
7.390667185e-16
7.72979767e-16
7.795497261e-16
7.62737372e-16
7.500930503e-16
7.629234653e-16
7.85225627e-16
7.69202424e-16
7.838455156e-16
7.2208063e-16
7.417896388e-16
7.043028228e-16
7.273761819e-16
7.253957421e-16
7.691134734e-16
7.592175694e-16
8.046811367e-16
7.359481178e-16
8.257696434e-16
7.481487868e-16
6.991452277e-16
7.148107027e-16
7.207000164e-16
7.513308392e-16
7.427384396e-16
7.536111788e-16
7.566587268e-16
7.699285954e-16
7.62614041e-16
7.134485899e-16
7.649562715e-16
7.45299416e-16
7.08053916e-16
7.76517865e-16
7.353381113e-16
7.276795886e-16
7.362153285e-16
7.345017577e-16
7.317306686e-16
7.024403238e-16
7.02881708e-16
6.930781424e-16
7.304078165e-16
6.934015404e-16
7.488631744e-16
6.93483165e-16
7.332001676e-16
6.855747009e-16
6.985700176e-16
6.980958815e-16
6.777149125e-16
7.247246309e-16
7.407211533e-16
7.020891094e-16
7.089847561e-16
7.028237651e-16
7.108976215e-16
7.072404547e-16
7.020388116e-16
7.066148274e-16
6.734971537e-16
6.766108262e-16
6.717006234e-16
7.046634714e-16
7.053030377e-16
7.037202027e-16
7.60660524e-16
7.073954294e-16
7.022756817e-16
7.283395732e-16
7.452002361e-16
8.098556234e-16
7.943908145e-16
7.95338861e-16
7.549340502e-16
7.599706323e-16
7.995275654e-16
7.430064025e-16
7.716089456e-16
7.593943913e-16
7.538450377e-16
7.388882626e-16
7.928644581e-16
8.182423479e-16
7.737207239e-16
8.139770027e-16
7.906991694e-16
7.72121119e-16
7.86050747e-16
8.484199712e-16
7.67996828e-16
7.863914309e-16
8.22925497e-16
7.704586606e-16
7.994435304e-16
8.238333036e-16
8.49200949e-16
8.370196056e-16
8.094522592e-16
7.241976082e-16
7.770332523e-16
8.081344113e-16
7.376072973e-16
8.197950627e-16
7.559822583e-16
8.377436806e-16
7.623396836e-16
8.018316362e-16
8.183175159e-16
8.234940362e-16
7.815234453e-16
7.914322172e-16
7.890411514e-16
7.964065476e-16
8.550447751e-16
7.977527433e-16
8.234614462e-16
8.690273241e-16
8.075753123e-16
8.017640535e-16
8.317879967e-16
8.328933265e-16
8.396338756e-16
8.15280448e-16
8.473546324e-16
7.987213905e-16
8.076776201e-16
8.342254574e-16
8.182184486e-16
7.360202401e-16
8.669191024e-16
8.140179681e-16
7.673365717e-16
7.903588071e-16
8.014728433e-16
8.023651919e-16
8.316535721e-16
8.215933323e-16
7.814851742e-16
8.158801367e-16
7.886725128e-16
8.0099597e-16
8.067073051e-16
7.995189155e-16
8.224494621e-16
8.313901718e-16
7.989550375e-16
8.366095245e-16
8.673664339e-16
8.051437092e-16
8.529598659e-16
8.901756094e-16
7.926824658e-16
8.107100026e-16
8.171218509e-16
7.945815873e-16
8.147674651e-16
8.663036641e-16
8.493693321e-16
7.441627853e-16
7.849853013e-16
7.799064937e-16
7.946073042e-16
7.536826046e-16
7.936164618e-16
7.757255367e-16
8.288875286e-16
8.11632723e-16
7.771362621e-16
8.057401089e-16
7.960417931e-16
8.041527796e-16
8.012646693e-16
8.468433043e-16
7.891801511e-16
8.257080294e-16
8.899647681e-16
7.889984635e-16
8.522936864e-16
8.103317688e-16
7.844453935e-16
8.24974528e-16
7.955769599e-16
8.217964342e-16
7.923306595e-16
8.272926502e-16
8.065864424e-16
9.209907041e-16
9.025977251e-16
7.192864717e-16
7.748740719e-16
8.481895065e-16
8.230002914e-16
8.212292157e-16
8.601252642e-16
7.90012158e-16
8.142739218e-16
7.663865903e-16
8.510317728e-16
7.839922615e-16
8.114946635e-16
8.327189043e-16
8.186311127e-16
8.264856845e-16
8.388838053e-16
8.088160497e-16
7.966410391e-16
7.951627758e-16
8.520709937e-16
8.258886654e-16
8.563147544e-16
8.203810899e-16
8.39104893e-16
8.132486448e-16
8.196354522e-16
8.2821349e-16
8.18973921e-16
8.75124957e-16
9.104401761e-16
7.26628655e-16
7.449425069e-16
7.57545417e-16
8.175745805e-16
7.809331564e-16
8.023506056e-16
7.931346285e-16
7.819714935e-16
7.952235667e-16
7.845051475e-16
8.169228871e-16
7.956200447e-16
8.06126227e-16
8.031444731e-16
8.308374632e-16
8.239429365e-16
8.297466037e-16
8.283511371e-16
8.541439286e-16
8.436001886e-16
7.961623471e-16
8.63106658e-16
8.470700042e-16
8.343663524e-16
8.074775043e-16
8.154422544e-16
8.110227641e-16
8.207018566e-16
9.252112958e-16
8.481585985e-16
7.138339446e-16
7.956136072e-16
7.650861807e-16
8.071673329e-16
8.155101809e-16
7.947240632e-16
8.035362345e-16
8.3660201e-16
7.795918704e-16
8.394660523e-16
7.959963436e-16
8.874538529e-16
8.194162149e-16
8.286031708e-16
7.836098847e-16
8.77115555e-16
8.324232571e-16
8.100329671e-16
8.591860458e-16
8.628216202e-16
8.521323244e-16
8.211865556e-16
8.644194054e-16
8.281011978e-16
8.794754181e-16
8.505458118e-16
8.044961695e-16
8.057754314e-16
8.312545547e-16
9.081929396e-16
7.382009828e-16
8.348567267e-16
7.758359061e-16
8.227157066e-16
7.90423499e-16
8.44923156e-16
7.935020581e-16
8.722483366e-16
9.152821291e-16
8.507352355e-16
8.290414523e-16
8.17722725e-16
8.177719329e-16
8.45160521e-16
8.627399227e-16
8.153856588e-16
8.083278334e-16
8.238007873e-16
8.173825773e-16
8.529814658e-16
8.628273839e-16
8.870200816e-16
8.948438174e-16
8.553347944e-16
9.060713929e-16
8.586978385e-16
8.268366443e-16
8.482505915e-16
8.342326013e-16
9.072369194e-16
7.93515168e-16
7.958893575e-16
8.186651298e-16
8.365546682e-16
8.207136529e-16
8.519920364e-16
8.676595835e-16
8.441833222e-16
8.300872912e-16
8.490439499e-16
8.401146926e-16
8.911026474e-16
8.675935936e-16
8.337834249e-16
8.718812421e-16
8.382117341e-16
8.410921242e-16
8.718895483e-16
8.890810766e-16
8.724112694e-16
8.695132942e-16
9.719514469e-16
8.772795688e-16
8.418588077e-16
8.278836363e-16
8.227098826e-16
8.376461924e-16
8.572293712e-16
8.515116549e-16
8.717343948e-16
8.127194284e-16
8.2206937e-16
8.902658605e-16
8.548433541e-16
8.19036679e-16
8.838891445e-16
8.311650953e-16
8.531911347e-16
8.243668386e-16
8.774951237e-16
8.213683658e-16
8.31142624e-16
8.362407954e-16
8.449291504e-16
8.185892283e-16
9.078752096e-16
8.652502523e-16
8.598887283e-16
8.843592737e-16
9.189790633e-16
8.645601859e-16
8.837760664e-16
9.141272234e-16
8.805919805e-16
8.184843898e-16
8.54921376e-16
8.34258009e-16
8.455516322e-16
9.199100584e-16
8.139196982e-16
)
;

boundaryField
{
    inlet
    {
        type            zeroGradient;
    }
    outlet
    {
        type            zeroGradient;
    }
    wall
    {
        type            zeroGradient;
    }
    frontAndBack
    {
        type            empty;
    }
}


// ************************************************************************* //
