/*--------------------------------*- C++ -*----------------------------------*\
| =========                 |                                                 |
| \\      /  F ield         | OpenFOAM: The Open Source CFD Toolbox           |
|  \\    /   O peration     | Version:  v1912                                 |
|   \\  /    A nd           | Website:  www.openfoam.com                      |
|    \\/     M anipulation  |                                                 |
\*---------------------------------------------------------------------------*/
FoamFile
{
    version     2.0;
    format      ascii;
    class       volTensorField;
    location    "2.86";
    object      grad(U);
}
// * * * * * * * * * * * * * * * * * * * * * * * * * * * * * * * * * * * * * //

dimensions      [0 0 -1 0 0 0 0];


internalField   nonuniform List<tensor> 
1900
(
(-2.38987 -1.89639e-05 0 -2.29961e-05 -1.98842e-05 0 0 0 0)
(1.70136 -1.52055e-05 0 -3.96695e-05 -2.97567e-05 0 0 0 0)
(-0.0426821 3.9679e-05 0 -5.35921e-05 -4.91471e-05 0 0 0 0)
(-0.0431449 0.000518198 0 -3.17856e-05 8.38524e-05 0 0 0 0)
(-0.0428828 0.00167196 0 0.000315051 0.000991902 0 0 0 0)
(-0.0473525 0.00231297 0 0.00171897 0.00344318 0 0 0 0)
(-0.0504067 -0.00567112 0 0.00526974 0.00574147 0 0 0 0)
(-0.0460403 -0.0265153 0 0.00813885 -0.00481483 0 0 0 0)
(0.0265254 -0.0828442 0 -0.0024505 -0.0372724 0 0 0 0)
(0.0170772 -0.248277 0 -0.0749026 -0.158172 0 0 0 0)
(-2.38993 -3.0677e-05 0 -3.01071e-05 7.7414e-06 0 0 0 0)
(1.70133 -1.40574e-05 0 -5.24054e-05 1.12225e-05 0 0 0 0)
(-0.0426742 7.39301e-05 0 -6.41658e-05 2.29469e-05 0 0 0 0)
(-0.0427762 0.000522851 0 6.42627e-05 -2.84565e-05 0 0 0 0)
(-0.041132 0.00168736 0 0.000706628 -0.000495251 0 0 0 0)
(-0.0423978 0.0024366 0 0.00281993 -0.00170042 0 0 0 0)
(-0.0439868 -0.00258689 0 0.00727989 -0.00280822 0 0 0 0)
(-0.0537605 -0.0164986 0 0.00983043 0.0039707 0 0 0 0)
(-0.0565161 -0.0705134 0 -0.0031471 0.0237071 0 0 0 0)
(-0.149614 -0.174265 0 -0.111655 0.0868149 0 0 0 0)
(-2.38995 -2.30888e-13 0 -5.09575e-14 2.42855e-05 0 0 0 0)
(1.70132 1.27039e-14 0 -1.24683e-14 3.70684e-05 0 0 0 0)
(-0.0425654 2.3291e-13 0 -6.23416e-15 5.24004e-05 0 0 0 0)
(-0.0423741 3.45257e-13 0 1.63986e-13 -0.000110792 0 0 0 0)
(-0.0401271 -3.25132e-14 0 7.18284e-15 -0.000993302 0 0 0 0)
(-0.0407792 -1.99746e-13 0 -4.47233e-14 -0.00348552 0 0 0 0)
(-0.0433962 -6.77716e-14 0 -1.59513e-13 -0.00586651 0 0 0 0)
(-0.0564673 -2.13779e-13 0 -1.76996e-13 0.00168825 0 0 0 0)
(-0.0949605 -1.23569e-13 0 -5.78693e-14 0.0271307 0 0 0 0)
(-0.204172 9.43591e-14 0 2.01797e-13 0.142715 0 0 0 0)
(-2.38993 3.0677e-05 0 3.01071e-05 7.7414e-06 0 0 0 0)
(1.70133 1.40574e-05 0 5.24054e-05 1.12225e-05 0 0 0 0)
(-0.0426742 -7.39301e-05 0 6.41658e-05 2.29469e-05 0 0 0 0)
(-0.0427762 -0.000522851 0 -6.42627e-05 -2.84565e-05 0 0 0 0)
(-0.041132 -0.00168736 0 -0.000706628 -0.000495251 0 0 0 0)
(-0.0423978 -0.0024366 0 -0.00281993 -0.00170042 0 0 0 0)
(-0.0439868 0.00258689 0 -0.00727989 -0.00280822 0 0 0 0)
(-0.0537605 0.0164986 0 -0.00983043 0.0039707 0 0 0 0)
(-0.0565161 0.0705134 0 0.0031471 0.0237071 0 0 0 0)
(-0.149614 0.174265 0 0.111655 0.0868149 0 0 0 0)
(-2.38987 1.89639e-05 0 2.29961e-05 -1.98842e-05 0 0 0 0)
(1.70136 1.52055e-05 0 3.96695e-05 -2.97567e-05 0 0 0 0)
(-0.0426821 -3.9679e-05 0 5.35921e-05 -4.91471e-05 0 0 0 0)
(-0.0431449 -0.000518198 0 3.17856e-05 8.38524e-05 0 0 0 0)
(-0.0428828 -0.00167196 0 -0.000315051 0.000991902 0 0 0 0)
(-0.0473525 -0.00231297 0 -0.00171897 0.00344318 0 0 0 0)
(-0.0504067 0.00567112 0 -0.00526974 0.00574147 0 0 0 0)
(-0.0460403 0.0265153 0 -0.00813885 -0.00481483 0 0 0 0)
(0.0265254 0.0828442 0 0.0024505 -0.0372724 0 0 0 0)
(0.0170772 0.248277 0 0.0749026 -0.158172 0 0 0 0)
(-0.146527 -0.417164 1.41932e-17 -0.241017 0.193706 -2.12898e-17 -6.2938e-17 -7.39773e-17 3.84707e-33)
(-0.293133 -0.496864 0 -0.331973 0.314859 0 1.64766e-16 6.14008e-17 0)
(-0.374467 -0.58915 0 -0.497241 0.336626 0 2.59221e-16 1.12449e-16 0)
(-1.28917 -0.355994 0 -1.19221 0.627746 0 0 0 0)
(0.28542 -2.09047 -5.18012e-16 -4.05521 4.41426 7.77017e-16 1.95498e-15 1.30332e-15 1.40407e-31)
(-0.300131 -0.252043 0 -0.218334 0.25363 0 -1.0649e-16 -3.89746e-17 0)
(-0.507443 -0.336965 0 -0.271009 0.401546 0 -1.64766e-16 -6.14008e-17 0)
(-0.859901 -0.49429 0 -0.563569 0.714772 0 -2.59221e-16 -1.12449e-16 0)
(-1.60568 -0.373977 0 -1.30173 1.25824 0 0 0 0)
(-1.14413 0.332859 0 -1.54837 1.45628 0 0 0 0)
(-0.375984 5.56671e-14 0 9.82067e-16 0.355484 0 0 0 0)
(-0.656248 4.17888e-13 0 -7.87592e-14 0.556082 0 0 0 0)
(-1.1522 1.15079e-13 0 2.84603e-13 1.05965 0 0 0 0)
(-1.96962 -1.40755e-13 0 -7.18695e-14 1.91235 0 0 0 0)
(-1.43294 2.24452e-13 0 2.42009e-13 2.68411 0 0 0 0)
(-0.300131 0.252043 0 0.218334 0.25363 0 -1.0649e-16 3.89746e-17 0)
(-0.507443 0.336965 0 0.271009 0.401546 0 -1.64766e-16 6.14008e-17 0)
(-0.859901 0.49429 0 0.563569 0.714772 0 -2.59221e-16 1.12449e-16 0)
(-1.60568 0.373977 0 1.30173 1.25824 0 0 0 0)
(-1.14413 -0.332859 0 1.54837 1.45628 0 0 0 0)
(-0.146527 0.417164 -1.41932e-17 0.241017 0.193706 -2.12898e-17 2.75918e-16 -1.51926e-16 3.84707e-33)
(-0.293133 0.496864 0 0.331973 0.314859 0 1.64766e-16 -6.14008e-17 0)
(-0.374467 0.58915 0 0.497241 0.336626 0 2.59221e-16 -1.12449e-16 0)
(-1.28917 0.355994 -3.92342e-17 1.19221 0.627746 -5.88512e-17 7.70369e-16 -5.13579e-16 1.06344e-32)
(0.28542 2.09047 5.18012e-16 4.05521 4.41426 7.77017e-16 -1.95498e-15 1.30332e-15 1.40407e-31)
(0.16911 0.54233 3.29538e-18 -0.500354 -1.13998 2.96584e-17 -1.20495e-15 9.78766e-17 -8.93214e-34)
(0.735516 -0.0281472 -1.04038e-18 -0.247436 -0.541354 -9.36344e-18 8.1113e-16 -7.29937e-17 -2.81996e-34)
(0.413865 0.0589583 0 0.0697471 -0.309628 0 0 0 0)
(-0.123258 0.406148 -1.40965e-18 0.704029 0.312272 -1.26868e-17 -4.65412e-16 6.3473e-17 3.82086e-34)
(-1.13552 0.450914 5.12692e-18 2.21744 1.67167 4.61423e-17 2.64418e-16 -2.93798e-17 1.38965e-33)
(0.504486 0.533206 0 -0.601054 -0.60508 0 6.10009e-16 -3.17721e-17 0)
(0.863729 -0.037974 0 -0.225199 -0.585809 0 -4.09291e-16 2.83449e-17 0)
(0.734124 0.089183 0 0.236338 -0.512052 0 0 0 0)
(0.73422 0.484033 0 1.07172 -0.659451 0 2.69562e-16 -4.05834e-17 0)
(1.29242 0.388247 0 3.29766 -1.25382 0 -2.45802e-17 1.0491e-17 0)
(0.641041 2.14663e-13 0 8.1589e-13 -0.899767 0 0 0 0)
(0.981876 5.19981e-13 0 1.92979e-12 -0.71072 0 0 0 0)
(0.894633 4.57109e-13 0 3.76861e-12 -0.571575 0 0 0 0)
(1.18561 3.73023e-13 0 6.38563e-12 -1.10094 0 -9.4914e-17 4.06813e-29 0)
(1.92521 -2.97421e-13 0 9.41584e-12 -2.78676 0 4.91605e-17 -5.74397e-29 0)
(0.504486 -0.533206 0 0.601054 -0.60508 0 6.10009e-16 3.17721e-17 0)
(0.863729 0.037974 0 0.225199 -0.585809 0 -4.09291e-16 -2.83449e-17 0)
(0.734124 -0.089183 0 -0.236338 -0.512052 0 0 0 0)
(0.73422 -0.484033 0 -1.07172 -0.659451 0 2.69562e-16 4.05834e-17 0)
(1.29242 -0.388247 0 -3.29766 -1.25382 0 -2.45802e-17 -1.0491e-17 0)
(0.16911 -0.54233 0 0.500354 -1.13998 0 -6.10009e-16 -3.17721e-17 0)
(0.735516 0.0281472 1.04038e-18 0.247436 -0.541354 -9.36344e-18 7.45195e-18 -1.63038e-17 -2.81996e-34)
(0.413865 -0.0589583 0 -0.0697471 -0.309628 0 0 0 0)
(-0.123258 -0.406148 1.40965e-18 -0.704029 0.312272 -1.26868e-17 2.12031e-17 -9.40462e-18 3.82086e-34)
(-1.13552 -0.450914 -5.12692e-18 -2.21744 1.67167 4.61423e-17 -2.64418e-16 -2.93798e-17 1.38965e-33)
(0.654815 -0.899902 0 10.2867 -0.0730248 0 0 0 0)
(1.42099 -1.05692 0 5.81078 0.671385 0 0 0 0)
(-0.688441 0.12859 0 3.02407 1.03983 0 0 0 0)
(-0.719684 0.511842 0 0.804509 0.949636 0 0 0 0)
(-0.36176 0.282696 0 0.121687 0.61655 0 0 0 0)
(-0.151856 0.0678469 0 0.0318451 0.476726 0 0 0 0)
(-0.0183647 0.0194382 0 0.0209904 0.435071 0 0 0 0)
(0.0472446 0.0131299 0 0.00128991 0.41123 0 0 0 0)
(0.0998065 0.00496438 0 0.0016114 0.396738 0 0 0 0)
(0.129965 -0.000487977 0 0.00203861 0.397025 0 0 0 0)
(0.157025 0.000631279 0 0.00111278 0.395573 0 0 0 0)
(0.178376 -5.35463e-05 0 0.000640815 0.395441 0 0 0 0)
(0.195737 -0.000504325 0 -6.56576e-05 0.396263 0 0 0 0)
(0.210858 -0.000844777 0 -0.000660337 0.397721 0 0 0 0)
(0.228167 -0.00110999 0 -0.00091566 0.399743 0 0 0 0)
(0.253216 -0.00118368 0 -0.000867628 0.402006 0 0 0 0)
(0.28952 -0.00106214 0 -0.000640184 0.404143 0 0 0 0)
(0.329347 -0.000463015 0 -0.000387529 0.405855 0 0 0 0)
(0.375066 -0.000905945 0 -0.000122102 0.405875 0 0 0 0)
(0.388869 -0.000721854 0 2.23358e-05 0.409034 0 0 0 0)
(0.390019 0.00116491 0 0.00033749 0.408362 0 0 0 0)
(0.377852 0.00113415 0 0.000570693 0.405044 0 0 0 0)
(0.334449 0.000826313 0 0.000858996 0.404373 0 0 0 0)
(0.298923 0.00145632 0 0.00109654 0.402041 0 0 0 0)
(0.268569 0.00168914 0 0.00127396 0.399181 0 0 0 0)
(0.251739 0.0018266 0 0.00132727 0.395972 0 0 0 0)
(0.24558 0.00191332 0 0.00123506 0.392563 0 0 0 0)
(0.244901 0.00200033 0 0.00104237 0.388975 0 0 0 0)
(0.244623 0.00209472 0 0.000811769 0.385187 0 0 0 0)
(0.241646 0.0021866 0 0.000575775 0.381189 0 0 0 0)
(0.235025 0.00227339 0 0.00032123 0.376996 0 0 0 0)
(0.225813 0.00230545 0 1.10823e-05 0.372586 0 0 0 0)
(0.216778 0.00242345 0 -0.000422489 0.368217 0 0 0 0)
(0.209749 0.0022254 0 -0.000762826 0.363121 0 0 0 0)
(0.20053 0.00371475 0 -0.00144814 0.359636 0 0 0 0)
(0.177179 0.00144448 0 0.00139022 0.349306 0 0 0 0)
(0.1291 0.00583955 0 -0.00412811 0.352141 0 0 0 0)
(0.256031 0.0180341 0 -0.0034299 0.331569 0 0 0 0)
(2.40237 0.0311904 0 -0.00732369 0.299592 0 0 0 0)
(2.19541 0.0203168 0 -0.00702218 0.245007 0 0 0 0)
(1.53364 -0.771535 0 9.16128 -1.19365 0 0 0 0)
(-0.026556 -0.911924 0 5.15365 1.90283 0 0 0 0)
(-1.68331 0.15085 0 2.8537 2.43951 0 0 0 0)
(-1.28636 0.393173 0 0.683061 1.4608 0 0 0 0)
(-0.500542 0.172212 0 -0.0140494 0.680058 0 0 0 0)
(-0.156425 0.0346432 0 -0.0353875 0.489034 0 0 0 0)
(-0.0186453 0.00926508 0 -0.0318662 0.446835 0 0 0 0)
(0.0470259 0.0065872 0 -0.0338337 0.422215 0 0 0 0)
(0.100655 0.00252247 0 -0.0303383 0.401701 0 0 0 0)
(0.130622 -0.00031542 0 -0.0279199 0.40515 0 0 0 0)
(0.157446 0.000374605 0 -0.0259883 0.403378 0 0 0 0)
(0.178826 3.05141e-06 0 -0.0234635 0.40298 0 0 0 0)
(0.196155 -0.000226493 0 -0.0211393 0.403562 0 0 0 0)
(0.211342 -0.000389142 0 -0.0188518 0.404713 0 0 0 0)
(0.228771 -0.000519263 0 -0.0163601 0.406466 0 0 0 0)
(0.253939 -0.000559394 0 -0.0136023 0.408529 0 0 0 0)
(0.290331 -0.000507178 0 -0.0106173 0.410535 0 0 0 0)
(0.330217 -0.000216087 0 -0.00751741 0.41218 0 0 0 0)
(0.375962 -0.000450277 0 -0.00437622 0.412127 0 0 0 0)
(0.389766 -0.000364098 0 -0.00131329 0.415294 0 0 0 0)
(0.39092 0.000585584 0 0.00166666 0.414608 0 0 0 0)
(0.378741 0.000562851 0 0.0047493 0.41129 0 0 0 0)
(0.335289 0.000397415 0 0.0078586 0.410709 0 0 0 0)
(0.299699 0.000706371 0 0.0109191 0.408449 0 0 0 0)
(0.26928 0.000815378 0 0.013913 0.405703 0 0 0 0)
(0.252388 0.000877966 0 0.0168159 0.402643 0 0 0 0)
(0.24618 0.000914994 0 0.0196355 0.399424 0 0 0 0)
(0.245467 0.000951158 0 0.022406 0.396066 0 0 0 0)
(0.245158 0.000989646 0 0.0251551 0.392548 0 0 0 0)
(0.242138 0.00102594 0 0.0278761 0.388865 0 0 0 0)
(0.235451 0.00105862 0 0.0305275 0.385032 0 0 0 0)
(0.226132 0.00106562 0 0.0330436 0.381051 0 0 0 0)
(0.216989 0.00110702 0 0.0353129 0.377107 0 0 0 0)
(0.209789 0.00101144 0 0.037395 0.37272 0 0 0 0)
(0.200765 0.00173222 0 0.0389088 0.369457 0 0 0 0)
(0.17669 0.000567385 0 0.0420781 0.359951 0 0 0 0)
(0.128218 0.0029102 0 0.0402159 0.364491 0 0 0 0)
(0.254518 0.00916997 0 0.040539 0.339877 0 0 0 0)
(2.39289 0.0180203 0 0.0292769 0.302499 0 0 0 0)
(2.18734 0.0124925 0 -0.00618869 0.23266 0 0 0 0)
(1.62369 -9.06413e-13 0 8.83871e-12 -2.88152 0 0 0 0)
(-0.413939 -5.33675e-13 0 3.17376e-12 2.70774 0 0 0 0)
(-1.98898 2.1272e-13 0 8.99025e-13 3.38796 0 0 0 0)
(-1.55394 7.00139e-13 0 3.43988e-13 1.67064 0 0 0 0)
(-0.570764 6.11022e-13 0 1.41538e-12 0.684889 0 0 0 0)
(-0.15704 -3.33211e-13 0 1.2419e-13 0.486682 0 0 0 0)
(-0.0179127 -1.1441e-12 0 7.03746e-13 0.446717 0 0 0 0)
(0.0476891 -4.4035e-12 0 -5.20417e-13 0.422985 0 0 0 0)
(0.101527 -6.95232e-12 0 -2.9648e-12 0.40143 0 0 0 0)
(0.131231 -1.99209e-12 0 -1.04872e-12 0.405643 0 0 0 0)
(0.158322 8.62576e-12 0 -8.1532e-12 0.403599 0 0 0 0)
(0.179787 1.98832e-11 0 -2.32827e-11 0.403067 0 0 0 0)
(0.197079 2.64355e-11 0 -2.33271e-11 0.403578 0 0 0 0)
(0.212249 1.86841e-11 0 1.80884e-11 0.404624 0 0 0 0)
(0.229694 -2.15895e-11 0 4.38639e-11 0.406253 0 0 0 0)
(0.254886 -2.73845e-12 0 -1.17053e-10 0.408194 0 0 0 0)
(0.29129 8.7701e-11 0 -5.06078e-10 0.410099 0 0 0 0)
(0.331163 -1.27779e-10 0 -6.03672e-10 0.411681 0 0 0 0)
(0.37687 -2.6369e-10 0 -2.66807e-10 0.411585 0 0 0 0)
(0.390626 1.85136e-10 0 3.20494e-11 0.414777 0 0 0 0)
(0.391783 3.85236e-10 0 3.92511e-10 0.414088 0 0 0 0)
(0.379653 -1.52642e-10 0 1.83772e-10 0.410751 0 0 0 0)
(0.336244 -2.05898e-10 0 -2.24718e-10 0.410218 0 0 0 0)
(0.300684 3.26789e-10 0 -4.28837e-10 0.408019 0 0 0 0)
(0.270284 1.93693e-10 0 -2.84367e-11 0.405362 0 0 0 0)
(0.253404 -1.54398e-10 0 9.23109e-11 0.402413 0 0 0 0)
(0.247207 -9.59375e-11 0 -2.62475e-10 0.399326 0 0 0 0)
(0.246507 3.5317e-11 0 -4.68485e-10 0.396122 0 0 0 0)
(0.246214 4.26642e-11 0 -2.96122e-10 0.392787 0 0 0 0)
(0.243208 -4.96823e-11 0 1.05899e-10 0.389319 0 0 0 0)
(0.236529 -8.42728e-11 0 5.27663e-10 0.385733 0 0 0 0)
(0.227205 -1.20332e-10 0 9.72569e-10 0.382041 0 0 0 0)
(0.218044 -1.69899e-10 0 1.32928e-09 0.378407 0 0 0 0)
(0.210795 -2.5345e-10 0 1.63454e-09 0.37443 0 0 0 0)
(0.201892 -1.22574e-10 0 2.03687e-09 0.371454 0 0 0 0)
(0.177559 4.8821e-11 0 2.57014e-09 0.362521 0 0 0 0)
(0.128652 -1.26171e-10 0 2.05179e-09 0.367553 0 0 0 0)
(0.252849 1.32213e-10 0 1.64157e-09 0.342513 0 0 0 0)
(2.38877 5.74712e-10 0 1.18674e-09 0.304509 0 0 0 0)
(2.18509 3.22051e-10 0 -1.14519e-10 0.218623 0 0 0 0)
(1.53364 0.771535 0 -9.16128 -1.19365 0 0 0 0)
(-0.026556 0.911924 0 -5.15365 1.90283 0 0 0 0)
(-1.68331 -0.15085 0 -2.8537 2.43951 0 0 0 0)
(-1.28636 -0.393173 0 -0.683061 1.4608 0 0 0 0)
(-0.500542 -0.172212 0 0.0140494 0.680058 0 0 0 0)
(-0.156425 -0.0346432 0 0.0353875 0.489034 0 0 0 0)
(-0.0186453 -0.00926508 0 0.0318662 0.446835 0 0 0 0)
(0.0470259 -0.0065872 0 0.0338337 0.422215 0 0 0 0)
(0.100655 -0.00252247 0 0.0303383 0.401701 0 0 0 0)
(0.130622 0.00031542 0 0.0279199 0.40515 0 0 0 0)
(0.157446 -0.000374605 0 0.0259883 0.403378 0 0 0 0)
(0.178826 -3.05138e-06 0 0.0234635 0.40298 0 0 0 0)
(0.196155 0.000226493 0 0.0211393 0.403562 0 0 0 0)
(0.211342 0.000389142 0 0.0188518 0.404713 0 0 0 0)
(0.228771 0.000519263 0 0.0163601 0.406466 0 0 0 0)
(0.253939 0.000559394 0 0.0136023 0.408529 0 0 0 0)
(0.290331 0.000507178 0 0.0106173 0.410535 0 0 0 0)
(0.330217 0.000216087 0 0.00751741 0.41218 0 0 0 0)
(0.375962 0.000450276 0 0.00437622 0.412127 0 0 0 0)
(0.389766 0.000364098 0 0.00131329 0.415294 0 0 0 0)
(0.39092 -0.000585583 0 -0.00166666 0.414608 0 0 0 0)
(0.378741 -0.000562851 0 -0.0047493 0.41129 0 0 0 0)
(0.335289 -0.000397416 0 -0.0078586 0.410709 0 0 0 0)
(0.299699 -0.00070637 0 -0.0109191 0.408449 0 0 0 0)
(0.26928 -0.000815378 0 -0.013913 0.405703 0 0 0 0)
(0.252388 -0.000877966 0 -0.0168159 0.402643 0 0 0 0)
(0.24618 -0.000914994 0 -0.0196355 0.399424 0 0 0 0)
(0.245467 -0.000951158 0 -0.022406 0.396066 0 0 0 0)
(0.245158 -0.000989646 0 -0.0251551 0.392548 0 0 0 0)
(0.242138 -0.00102594 0 -0.0278761 0.388865 0 0 0 0)
(0.235451 -0.00105862 0 -0.0305275 0.385032 0 0 0 0)
(0.226132 -0.00106562 0 -0.0330436 0.381051 0 0 0 0)
(0.216989 -0.00110702 0 -0.0353129 0.377107 0 0 0 0)
(0.209789 -0.00101144 0 -0.037395 0.37272 0 0 0 0)
(0.200765 -0.00173222 0 -0.0389088 0.369457 0 0 0 0)
(0.17669 -0.000567385 0 -0.0420781 0.359951 0 0 0 0)
(0.128218 -0.0029102 0 -0.0402159 0.364491 0 0 0 0)
(0.254518 -0.00916997 0 -0.040539 0.339877 0 0 0 0)
(2.39289 -0.0180203 0 -0.0292769 0.302499 0 0 0 0)
(2.18734 -0.0124925 0 0.00618869 0.23266 0 0 0 0)
(0.654815 0.899902 0 -10.2867 -0.0730248 0 0 0 0)
(1.42099 1.05692 0 -5.81078 0.671385 0 0 0 0)
(-0.688441 -0.12859 0 -3.02407 1.03983 0 0 0 0)
(-0.719684 -0.511842 0 -0.804509 0.949636 0 0 0 0)
(-0.36176 -0.282696 0 -0.121687 0.61655 0 0 0 0)
(-0.151856 -0.0678469 0 -0.0318451 0.476726 0 0 0 0)
(-0.0183647 -0.0194382 0 -0.0209904 0.435071 0 0 0 0)
(0.0472446 -0.0131299 0 -0.00128991 0.41123 0 0 0 0)
(0.0998065 -0.00496438 0 -0.0016114 0.396738 0 0 0 0)
(0.129965 0.000487977 0 -0.00203861 0.397025 0 0 0 0)
(0.157025 -0.000631279 0 -0.00111278 0.395573 0 0 0 0)
(0.178376 5.35463e-05 0 -0.000640815 0.395441 0 0 0 0)
(0.195737 0.000504325 0 6.56576e-05 0.396263 0 0 0 0)
(0.210858 0.000844777 0 0.000660337 0.397721 0 0 0 0)
(0.228167 0.00110999 0 0.000915659 0.399743 0 0 0 0)
(0.253216 0.00118368 0 0.000867628 0.402006 0 0 0 0)
(0.28952 0.00106214 0 0.000640184 0.404143 0 0 0 0)
(0.329347 0.000463015 0 0.000387529 0.405855 0 0 0 0)
(0.375066 0.000905944 0 0.000122103 0.405875 0 0 0 0)
(0.388869 0.000721854 0 -2.23355e-05 0.409034 0 0 0 0)
(0.390019 -0.00116491 0 -0.00033749 0.408362 0 0 0 0)
(0.377852 -0.00113415 0 -0.000570694 0.405044 0 0 0 0)
(0.334449 -0.000826314 0 -0.000858997 0.404373 0 0 0 0)
(0.298923 -0.00145632 0 -0.00109654 0.402041 0 0 0 0)
(0.268569 -0.00168914 0 -0.00127397 0.399181 0 0 0 0)
(0.251739 -0.0018266 0 -0.00132727 0.395971 0 0 0 0)
(0.24558 -0.00191332 0 -0.00123506 0.392563 0 0 0 0)
(0.244901 -0.00200033 0 -0.00104237 0.388975 0 0 0 0)
(0.244623 -0.00209472 0 -0.000811767 0.385187 0 0 0 0)
(0.241646 -0.0021866 0 -0.000575774 0.381189 0 0 0 0)
(0.235025 -0.00227339 0 -0.00032123 0.376996 0 0 0 0)
(0.225813 -0.00230545 0 -1.10828e-05 0.372586 0 0 0 0)
(0.216778 -0.00242345 0 0.000422488 0.368217 0 0 0 0)
(0.209749 -0.0022254 0 0.000762824 0.363121 0 0 0 0)
(0.20053 -0.00371475 0 0.00144814 0.359636 0 0 0 0)
(0.177179 -0.00144448 0 -0.00139022 0.349306 0 0 0 0)
(0.1291 -0.00583955 0 0.0041281 0.352141 0 0 0 0)
(0.256031 -0.0180341 0 0.0034299 0.331569 0 0 0 0)
(2.40237 -0.0311903 0 0.00732369 0.299592 0 0 0 0)
(2.19541 -0.0203168 0 0.00702218 0.245007 0 0 0 0)
(2.52111 1.1784 0 -3.80792 -0.0319979 0 0 0 0)
(2.85536 1.44233 0 -2.57071 0.320635 0 0 0 0)
(0.306682 -0.00204884 0 -1.59257 0.427016 0 0 0 0)
(-0.121006 -0.521474 0 -0.597935 0.500672 0 0 0 0)
(-0.176337 -0.341109 0 -0.259188 0.491235 0 0 0 0)
(-0.0985442 -0.110088 0 -0.0996841 0.43717 0 0 0 0)
(0.00019681 -0.0385864 0 -0.0620569 0.402352 0 0 0 0)
(0.058929 -0.0230676 0 -0.021775 0.385207 0 0 0 0)
(0.101166 -0.00860959 0 -0.0168985 0.379198 0 0 0 0)
(0.131693 -0.000614847 0 -0.0127295 0.375476 0 0 0 0)
(0.15881 -0.0010713 0 -0.0100603 0.374383 0 0 0 0)
(0.180085 0.000364229 0 -0.00801259 0.374689 0 0 0 0)
(0.197454 0.00133559 0 -0.00599351 0.376022 0 0 0 0)
(0.212434 0.00204484 0 -0.00427854 0.378023 0 0 0 0)
(0.2296 0.00252371 0 -0.00305841 0.380475 0 0 0 0)
(0.254602 0.00259767 0 -0.00228089 0.383044 0 0 0 0)
(0.290969 0.00228015 0 -0.00179245 0.385389 0 0 0 0)
(0.330898 0.00101714 0 -0.00139188 0.387233 0 0 0 0)
(0.376742 0.00191742 0 -0.000999037 0.387391 0 0 0 0)
(0.390515 0.00151027 0 -0.00043819 0.390644 0 0 0 0)
(0.391617 -0.00241827 0 -0.000271204 0.389987 0 0 0 0)
(0.379442 -0.00240402 0 0.000129288 0.386573 0 0 0 0)
(0.335931 -0.00178566 0 0.000365697 0.385746 0 0 0 0)
(0.300337 -0.00309632 0 0.000521702 0.38327 0 0 0 0)
(0.269957 -0.00361208 0 0.000679638 0.380208 0 0 0 0)
(0.253163 -0.00393216 0 0.000960277 0.376742 0 0 0 0)
(0.247053 -0.00414917 0 0.00141736 0.373015 0 0 0 0)
(0.246387 -0.00436498 0 0.00198359 0.369046 0 0 0 0)
(0.24607 -0.00459615 0 0.00253905 0.364815 0 0 0 0)
(0.243015 -0.0048222 0 0.00301934 0.36031 0 0 0 0)
(0.236297 -0.00505029 0 0.00341268 0.355551 0 0 0 0)
(0.226968 -0.00513883 0 0.00372366 0.350469 0 0 0 0)
(0.217718 -0.00552217 0 0.00412363 0.345459 0 0 0 0)
(0.210479 -0.00499033 0 0.00389434 0.339185 0 0 0 0)
(0.199686 -0.00810552 0 0.00463471 0.335422 0 0 0 0)
(0.177805 -0.00425435 0 -0.0005366 0.323173 0 0 0 0)
(0.130223 -0.0106493 0 0.00418353 0.324426 0 0 0 0)
(0.254772 -0.0318837 0 0.001831 0.309049 0 0 0 0)
(2.38419 -0.0570905 0 0.00769055 0.282389 0 0 0 0)
(2.17781 -0.0376853 0 -0.033661 0.231216 0 0 0 0)
(2.33327 1.09174 0 -0.471535 0.518146 0 0 0 0)
(2.78663 1.29257 0 -0.787524 0.208068 0 0 0 0)
(0.678983 -0.0229557 0 -0.702448 0.149152 0 0 0 0)
(0.244177 -0.444792 0 -0.422839 0.242168 0 0 0 0)
(0.0189427 -0.312565 0 -0.238397 0.36472 0 0 0 0)
(0.00951899 -0.130847 0 -0.1041 0.375416 0 0 0 0)
(0.046758 -0.0592437 0 -0.0500329 0.357111 0 0 0 0)
(0.0844953 -0.0301129 0 -0.0172227 0.347627 0 0 0 0)
(0.107794 -0.0123865 0 -0.00606685 0.347108 0 0 0 0)
(0.135628 -0.00356101 0 0.000356672 0.34113 0 0 0 0)
(0.160614 -0.00115393 0 0.00301584 0.340424 0 0 0 0)
(0.181379 0.00146662 0 0.00491426 0.340977 0 0 0 0)
(0.198415 0.00327084 0 0.00648791 0.342657 0 0 0 0)
(0.212842 0.00449197 0 0.00755474 0.345046 0 0 0 0)
(0.229323 0.00519085 0 0.00783052 0.347817 0 0 0 0)
(0.253692 0.00516107 0 0.00723749 0.350652 0 0 0 0)
(0.2896 0.00444582 0 0.0059202 0.353225 0 0 0 0)
(0.32928 0.0020949 0 0.00417075 0.355246 0 0 0 0)
(0.375086 0.00364988 0 0.00227852 0.355588 0 0 0 0)
(0.388687 0.002801 0 0.000503765 0.358897 0 0 0 0)
(0.389709 -0.00441566 0 -0.00168878 0.358256 0 0 0 0)
(0.377613 -0.00454029 0 -0.0035573 0.354759 0 0 0 0)
(0.334032 -0.00349416 0 -0.00547424 0.353756 0 0 0 0)
(0.298467 -0.00591306 0 -0.0074118 0.351149 0 0 0 0)
(0.268247 -0.00694877 0 -0.00917522 0.347905 0 0 0 0)
(0.251687 -0.00762938 0 -0.010635 0.344212 0 0 0 0)
(0.245777 -0.00813046 0 -0.0117561 0.340207 0 0 0 0)
(0.245186 -0.00863449 0 -0.0126965 0.3359 0 0 0 0)
(0.244845 -0.00917172 0 -0.0136022 0.331308 0 0 0 0)
(0.241753 -0.00970055 0 -0.0145983 0.326396 0 0 0 0)
(0.235023 -0.0102679 0 -0.0155742 0.321271 0 0 0 0)
(0.225878 -0.0105108 0 -0.0165696 0.315787 0 0 0 0)
(0.216439 -0.0116351 0 -0.0171163 0.310583 0 0 0 0)
(0.20985 -0.0104147 0 -0.0187799 0.303571 0 0 0 0)
(0.196712 -0.0167904 0 -0.0179507 0.299847 0 0 0 0)
(0.176409 -0.0105341 0 -0.0242344 0.286989 0 0 0 0)
(0.130779 -0.0168704 0 -0.0211963 0.28736 0 0 0 0)
(0.260086 -0.0511154 0 -0.0229729 0.279007 0 0 0 0)
(2.37791 -0.0923047 0 -0.00647402 0.260835 0 0 0 0)
(2.165 -0.0603155 0 -0.043634 0.240336 0 0 0 0)
(2.21662 0.879598 0 -0.0032401 0.498485 0 0 0 0)
(2.63284 1.08676 0 -0.191821 0.0531267 0 0 0 0)
(0.658105 0.0308108 0 -0.26207 0.0420623 0 0 0 0)
(0.32617 -0.313745 0 -0.263308 0.130732 0 0 0 0)
(0.130812 -0.212707 0 -0.171474 0.275838 0 0 0 0)
(0.0829706 -0.11742 0 -0.0991912 0.30935 0 0 0 0)
(0.0839151 -0.0653646 0 -0.0475651 0.311065 0 0 0 0)
(0.101296 -0.0327068 0 -0.0273865 0.306425 0 0 0 0)
(0.118106 -0.0148704 0 -0.012159 0.306348 0 0 0 0)
(0.140446 -0.00705582 0 -0.00400267 0.30074 0 0 0 0)
(0.163202 -0.00121866 0 0.00049382 0.299681 0 0 0 0)
(0.183431 0.00251611 0 0.00409837 0.2998 0 0 0 0)
(0.199999 0.00525643 0 0.00686184 0.301187 0 0 0 0)
(0.213728 0.00701646 0 0.00879204 0.303307 0 0 0 0)
(0.229295 0.00792572 0 0.00954058 0.30582 0 0 0 0)
(0.252761 0.00780907 0 0.00901732 0.308429 0 0 0 0)
(0.288013 0.00670673 0 0.00740622 0.310853 0 0 0 0)
(0.327388 0.00329463 0 0.00514944 0.31279 0 0 0 0)
(0.373208 0.00543576 0 0.00271317 0.313154 0 0 0 0)
(0.386692 0.00408134 0 0.000445031 0.316365 0 0 0 0)
(0.387704 -0.00640564 0 -0.00225694 0.315736 0 0 0 0)
(0.375795 -0.00674018 0 -0.00455419 0.312216 0 0 0 0)
(0.332217 -0.00526433 0 -0.00684037 0.311152 0 0 0 0)
(0.29677 -0.0087353 0 -0.00910441 0.308635 0 0 0 0)
(0.266851 -0.0102971 0 -0.0110499 0.305527 0 0 0 0)
(0.250676 -0.0113503 0 -0.0124975 0.302015 0 0 0 0)
(0.245066 -0.0121587 0 -0.0134516 0.298189 0 0 0 0)
(0.244608 -0.0129397 0 -0.0140735 0.29413 0 0 0 0)
(0.244237 -0.0137544 0 -0.0146924 0.289767 0 0 0 0)
(0.241115 -0.0144949 0 -0.0152229 0.285332 0 0 0 0)
(0.234397 -0.0152739 0 -0.0157731 0.280732 0 0 0 0)
(0.225482 -0.0154377 0 -0.0162897 0.275989 0 0 0 0)
(0.215588 -0.0172933 0 -0.0160717 0.272073 0 0 0 0)
(0.209675 -0.0153358 0 -0.0179217 0.265767 0 0 0 0)
(0.19443 -0.0240848 0 -0.0165089 0.263412 0 0 0 0)
(0.174677 -0.0162871 0 -0.0220231 0.253223 0 0 0 0)
(0.131438 -0.0183411 0 -0.0194101 0.253988 0 0 0 0)
(0.268959 -0.0574447 0 -0.0188854 0.256238 0 0 0 0)
(2.36428 -0.0943549 0 0.00120757 0.242947 0 0 0 0)
(2.142 -0.0574383 0 -0.0568545 0.262885 0 0 0 0)
(2.15155 0.662579 0 0.0671121 0.49499 0 0 0 0)
(2.53721 0.852746 0 -0.0614354 0.112925 0 0 0 0)
(0.610095 0.0518277 0 -0.121857 0.0636191 0 0 0 0)
(0.331479 -0.219517 0 -0.169694 0.129139 0 0 0 0)
(0.177092 -0.140443 0 -0.130921 0.236086 0 0 0 0)
(0.128922 -0.0969015 0 -0.0899906 0.263256 0 0 0 0)
(0.115952 -0.0620624 0 -0.0519239 0.275096 0 0 0 0)
(0.118614 -0.0346578 0 -0.0330377 0.274294 0 0 0 0)
(0.130328 -0.0178642 0 -0.0184626 0.272699 0 0 0 0)
(0.147821 -0.00998609 0 -0.00885939 0.269053 0 0 0 0)
(0.16842 -0.00205976 0 -0.00211816 0.267358 0 0 0 0)
(0.187515 0.00291807 0 0.00323457 0.26705 0 0 0 0)
(0.202938 0.00664969 0 0.00738875 0.267646 0 0 0 0)
(0.215423 0.00895613 0 0.0100577 0.269053 0 0 0 0)
(0.22954 0.0101271 0 0.0112373 0.270724 0 0 0 0)
(0.251635 0.010011 0 0.010735 0.272573 0 0 0 0)
(0.285873 0.00864825 0 0.00884326 0.274342 0 0 0 0)
(0.324758 0.00431244 0 0.00610141 0.275807 0 0 0 0)
(0.370552 0.00709465 0 0.00311692 0.275899 0 0 0 0)
(0.383898 0.00528945 0 0.000333634 0.278932 0 0 0 0)
(0.384891 -0.00841349 0 -0.00293657 0.278369 0 0 0 0)
(0.373196 -0.00895781 0 -0.00574995 0.274916 0 0 0 0)
(0.329647 -0.00694522 0 -0.00855912 0.274095 0 0 0 0)
(0.29441 -0.0113332 0 -0.0113319 0.272035 0 0 0 0)
(0.264977 -0.0133279 0 -0.0136588 0.269569 0 0 0 0)
(0.249373 -0.0147011 0 -0.015328 0.266822 0 0 0 0)
(0.244258 -0.0157288 0 -0.0162823 0.263943 0 0 0 0)
(0.24399 -0.0167496 0 -0.0169601 0.260809 0 0 0 0)
(0.243737 -0.0176496 0 -0.017285 0.257857 0 0 0 0)
(0.240712 -0.0184074 0 -0.0179171 0.254518 0 0 0 0)
(0.233994 -0.0192716 0 -0.0179669 0.251868 0 0 0 0)
(0.22559 -0.0188547 0 -0.0184195 0.24871 0 0 0 0)
(0.214866 -0.0214846 0 -0.0178201 0.246994 0 0 0 0)
(0.209429 -0.0187611 0 -0.0202297 0.242379 0 0 0 0)
(0.19276 -0.0288785 0 -0.019044 0.242102 0 0 0 0)
(0.173613 -0.0196156 0 -0.0234897 0.235923 0 0 0 0)
(0.133802 -0.013965 0 -0.0211397 0.236996 0 0 0 0)
(0.279954 -0.0617546 0 -0.0144767 0.248031 0 0 0 0)
(2.34132 -0.0859001 0 0.00229608 0.230189 0 0 0 0)
(2.10905 -0.041103 0 -0.0694591 0.278969 0 0 0 0)
(2.09274 0.511427 0 0.0413025 0.454259 0 0 0 0)
(2.45074 0.671075 0 -0.015863 0.143149 0 0 0 0)
(0.553783 0.0464351 0 -0.0670107 0.0923134 0 0 0 0)
(0.317436 -0.14755 0 -0.119116 0.143893 0 0 0 0)
(0.207617 -0.0834668 0 -0.101221 0.21932 0 0 0 0)
(0.159095 -0.0798279 0 -0.0715906 0.237891 0 0 0 0)
(0.138797 -0.0547284 0 -0.048938 0.253806 0 0 0 0)
(0.133541 -0.0350169 0 -0.03338 0.255055 0 0 0 0)
(0.141405 -0.0199206 0 -0.0214089 0.254147 0 0 0 0)
(0.156196 -0.0122026 0 -0.0115803 0.252183 0 0 0 0)
(0.174856 -0.00314911 0 -0.00391378 0.250918 0 0 0 0)
(0.192592 0.00279372 0 0.00273926 0.250109 0 0 0 0)
(0.206574 0.00718724 0 0.00726855 0.250479 0 0 0 0)
(0.217437 0.00998237 0 0.0104696 0.250936 0 0 0 0)
(0.229947 0.0113175 0 0.011741 0.251784 0 0 0 0)
(0.250454 0.0112952 0 0.0113 0.252659 0 0 0 0)
(0.283548 0.00982288 0 0.00928847 0.253565 0 0 0 0)
(0.32187 0.00479523 0 0.00633762 0.25435 0 0 0 0)
(0.36765 0.00844698 0 0.00311839 0.254003 0 0 0 0)
(0.380859 0.00646166 0 0.000174137 0.256854 0 0 0 0)
(0.381842 -0.0102757 0 -0.003355 0.256461 0 0 0 0)
(0.370376 -0.0108591 0 -0.00631468 0.253213 0 0 0 0)
(0.326838 -0.00803994 0 -0.00934004 0.252941 0 0 0 0)
(0.291856 -0.0130961 0 -0.0123493 0.251658 0 0 0 0)
(0.263 -0.0153211 0 -0.0148665 0.250179 0 0 0 0)
(0.248148 -0.0167716 0 -0.0165388 0.248654 0 0 0 0)
(0.243493 -0.0179527 0 -0.0175678 0.246965 0 0 0 0)
(0.243641 -0.0188046 0 -0.0178632 0.245596 0 0 0 0)
(0.243315 -0.0198167 0 -0.0186228 0.243675 0 0 0 0)
(0.240458 -0.0202664 0 -0.0184345 0.242894 0 0 0 0)
(0.233913 -0.020871 0 -0.019013 0.241292 0 0 0 0)
(0.225624 -0.0201345 0 -0.0193029 0.24019 0 0 0 0)
(0.213843 -0.0233937 0 -0.0183402 0.240669 0 0 0 0)
(0.208496 -0.0200493 0 -0.0218457 0.237105 0 0 0 0)
(0.191289 -0.0303064 0 -0.0213627 0.238348 0 0 0 0)
(0.172658 -0.0212075 0 -0.0244245 0.236263 0 0 0 0)
(0.140124 -0.00667272 0 -0.0216005 0.23634 0 0 0 0)
(0.291542 -0.0640049 0 -0.00753721 0.248519 0 0 0 0)
(2.3113 -0.0645423 0 -0.000921384 0.233745 0 0 0 0)
(2.07286 -0.0104318 0 -0.0818001 0.283334 0 0 0 0)
(2.09646 0.362782 0 0.0494988 0.418903 0 0 0 0)
(2.43284 0.503962 0 0.00257626 0.158238 0 0 0 0)
(0.510597 0.0525445 0 -0.0389396 0.127814 0 0 0 0)
(0.298513 -0.0971286 0 -0.0763627 0.174986 0 0 0 0)
(0.22289 -0.0498629 0 -0.0757465 0.212209 0 0 0 0)
(0.179303 -0.0636697 0 -0.0550395 0.226768 0 0 0 0)
(0.152773 -0.0455219 0 -0.0438407 0.244131 0 0 0 0)
(0.145142 -0.0343293 0 -0.0320379 0.245396 0 0 0 0)
(0.151335 -0.0206325 0 -0.0223895 0.246157 0 0 0 0)
(0.16468 -0.0130971 0 -0.0129371 0.24615 0 0 0 0)
(0.182219 -0.00405824 0 -0.00393821 0.244804 0 0 0 0)
(0.198291 0.00249488 0 0.0022097 0.245498 0 0 0 0)
(0.210387 0.00744705 0 0.00777814 0.245042 0 0 0 0)
(0.219733 0.010214 0 0.0106397 0.245649 0 0 0 0)
(0.23034 0.0117874 0 0.0121882 0.245795 0 0 0 0)
(0.249272 0.0117272 0 0.0116694 0.246149 0 0 0 0)
(0.281091 0.0102778 0 0.00958258 0.246425 0 0 0 0)
(0.318812 0.00473443 0 0.00645543 0.246724 0 0 0 0)
(0.364613 0.00950719 0 0.00307549 0.246055 0 0 0 0)
(0.37766 0.0076576 0 7.53387e-05 0.248817 0 0 0 0)
(0.378638 -0.0119224 0 -0.00368224 0.248644 0 0 0 0)
(0.367428 -0.0123492 0 -0.00668715 0.245592 0 0 0 0)
(0.323832 -0.00844279 0 -0.00988561 0.245841 0 0 0 0)
(0.289085 -0.0139954 0 -0.0131347 0.245198 0 0 0 0)
(0.26094 -0.0162232 0 -0.015824 0.244539 0 0 0 0)
(0.24677 -0.0177983 0 -0.017699 0.243775 0 0 0 0)
(0.242982 -0.0186753 0 -0.01842 0.243306 0 0 0 0)
(0.242973 -0.0199197 0 -0.0193943 0.242187 0 0 0 0)
(0.243187 -0.0202534 0 -0.0188398 0.242577 0 0 0 0)
(0.240336 -0.0207037 0 -0.0204665 0.240742 0 0 0 0)
(0.233158 -0.0218773 0 -0.0190937 0.242207 0 0 0 0)
(0.226239 -0.019455 0 -0.0206225 0.240446 0 0 0 0)
(0.212416 -0.0244578 0 -0.0194536 0.241889 0 0 0 0)
(0.206516 -0.0209976 0 -0.0231315 0.239249 0 0 0 0)
(0.190275 -0.0296897 0 -0.0227168 0.241048 0 0 0 0)
(0.173384 -0.0215509 0 -0.0244503 0.241185 0 0 0 0)