/*--------------------------------*- C++ -*----------------------------------*\
| =========                 |                                                 |
| \\      /  F ield         | OpenFOAM: The Open Source CFD Toolbox           |
|  \\    /   O peration     | Version:  v1912                                 |
|   \\  /    A nd           | Website:  www.openfoam.com                      |
|    \\/     M anipulation  |                                                 |
\*---------------------------------------------------------------------------*/
FoamFile
{
    version     2.0;
    format      ascii;
    class       volVectorField;
    location    "2.86";
    object      U;
}
// * * * * * * * * * * * * * * * * * * * * * * * * * * * * * * * * * * * * * //

dimensions      [0 1 -1 0 0 0 0];


internalField   nonuniform List<vector> 
1900
(
(-0.411117 -1.54828e-06 0)
(-0.0668564 -2.2445e-06 0)
(-0.0708454 -4.58938e-06 0)
(-0.0753928 5.6913e-06 0)
(-0.0794744 9.90502e-05 0)
(-0.0839693 0.000340083 0)
(-0.0889449 0.000561644 0)
(-0.0940507 -0.00079414 0)
(-0.0981529 -0.00474141 0)
(-0.0887456 -0.017363 0)
(-0.411121 -2.42856e-06 0)
(-0.0668643 -3.70684e-06 0)
(-0.0708561 -5.24004e-06 0)
(-0.0753991 1.10792e-05 0)
(-0.0794114 9.93302e-05 0)
(-0.0836255 0.000348552 0)
(-0.0878909 0.000586651 0)
(-0.0924229 -0.000168825 0)
(-0.098643 -0.00271307 0)
(-0.103726 -0.0142715 0)
(-0.411123 -2.5704e-14 0)
(-0.0668668 -2.04735e-14 0)
(-0.0708582 -2.31632e-14 0)
(-0.0753799 2.61086e-14 0)
(-0.079333 4.58881e-14 0)
(-0.0834053 1.96059e-14 0)
(-0.0874889 5.93891e-15 0)
(-0.0920846 6.05163e-15 0)
(-0.0987823 -3.6817e-14 0)
(-0.111077 -1.86621e-14 0)
(-0.411121 2.42855e-06 0)
(-0.0668643 3.70684e-06 0)
(-0.0708561 5.24004e-06 0)
(-0.0753991 -1.10792e-05 0)
(-0.0794114 -9.93302e-05 0)
(-0.0836255 -0.000348552 0)
(-0.0878909 -0.000586651 0)
(-0.0924229 0.000168825 0)
(-0.098643 0.00271307 0)
(-0.103726 0.0142715 0)
(-0.411117 1.54828e-06 0)
(-0.0668564 2.2445e-06 0)
(-0.0708454 4.58938e-06 0)
(-0.0753928 -5.6913e-06 0)
(-0.0794744 -9.90502e-05 0)
(-0.0839693 -0.000340083 0)
(-0.0889449 -0.000561644 0)
(-0.0940507 0.00079414 0)
(-0.0981529 0.00474141 0)
(-0.0887456 0.017363 0)
(-0.093487 -0.0466679 0)
(-0.123062 -0.0610349 0)
(-0.148377 -0.0857727 0)
(-0.197136 -0.110725 0)
(-0.383196 -0.0815515 0)
(-0.123382 -0.0327046 0)
(-0.154131 -0.0422622 0)
(-0.195912 -0.0635787 0)
(-0.282944 -0.0841435 0)
(-0.449753 -0.075155 0)
(-0.13366 -1.80948e-14 0)
(-0.164255 -1.17745e-14 0)
(-0.216005 3.47042e-14 0)
(-0.311688 -1.42851e-15 0)
(-0.469904 2.43487e-14 0)
(-0.123382 0.0327046 0)
(-0.154131 0.0422622 0)
(-0.195912 0.0635787 0)
(-0.282944 0.0841435 0)
(-0.449753 0.075155 0)
(-0.093487 0.0466679 0)
(-0.123062 0.0610349 0)
(-0.148377 0.0857727 0)
(-0.197136 0.110725 0)
(-0.383196 0.0815515 0)
(-0.437006 0.0266235 0)
(-0.347809 0.0304621 0)
(-0.299294 0.0307231 0)
(-0.273089 0.0448427 0)
(-0.327162 0.0952904 0)
(-0.454207 0.0197949 0)
(-0.358879 0.0184787 0)
(-0.294553 0.0171473 0)
(-0.228397 0.0374318 0)
(-0.171575 0.105897 0)
(-0.463452 2.09034e-14 0)
(-0.359519 5.98475e-14 0)
(-0.285114 1.10495e-13 0)
(-0.200212 1.3902e-13 0)
(-0.0765398 1.66579e-13 0)
(-0.454207 -0.0197949 0)
(-0.358879 -0.0184787 0)
(-0.294553 -0.0171473 0)
(-0.228397 -0.0374318 0)
(-0.171575 -0.105897 0)
(-0.437006 -0.0266235 0)
(-0.347809 -0.0304621 0)
(-0.299294 -0.0307231 0)
(-0.273089 -0.0448427 0)
(-0.327162 -0.0952904 0)
(-0.545844 0.0954921 0)
(-0.0995816 -0.152226 0)
(-0.155072 -0.195161 0)
(-0.288903 -0.116864 0)
(-0.352985 -0.0544047 0)
(-0.388387 -0.0391227 0)
(-0.394746 -0.0357468 0)
(-0.393437 -0.0337772 0)
(-0.381753 -0.0321361 0)
(-0.365991 -0.032412 0)
(-0.346013 -0.0322702 0)
(-0.322809 -0.0322384 0)
(-0.29696 -0.032285 0)
(-0.268981 -0.0323771 0)
(-0.238974 -0.0325173 0)
(-0.206235 -0.0326823 0)
(-0.169339 -0.0328428 0)
(-0.126617 -0.0329744 0)
(-0.0787687 -0.0329701 0)
(-0.0234739 -0.0332235 0)
(0.0281701 -0.0331686 0)
(0.0837813 -0.0329032 0)
(0.132079 -0.0328567 0)
(0.175755 -0.032676 0)
(0.214283 -0.0324563 0)
(0.249611 -0.0322114 0)
(0.283511 -0.0319539 0)
(0.317146 -0.0316853 0)
(0.350859 -0.0314038 0)
(0.384417 -0.0311092 0)
(0.417312 -0.0308025 0)
(0.449049 -0.030484 0)
(0.47941 -0.0301685 0)
(0.508663 -0.0298176 0)
(0.537091 -0.0295566 0)
(0.563809 -0.028796 0)
(0.585815 -0.0291593 0)
(0.599311 -0.0271902 0)
(0.656224 -0.0241999 0)
(1.25996 -0.0186128 0)
(0.00833107 0.115261 0)
(0.211093 -0.108309 0)
(0.00102817 -0.135518 0)
(-0.251816 -0.0668257 0)
(-0.352722 -0.0273956 0)
(-0.389465 -0.0194673 0)
(-0.395739 -0.0178687 0)
(-0.394592 -0.0169194 0)
(-0.382807 -0.0160572 0)
(-0.366912 -0.0162257 0)
(-0.346886 -0.016144 0)
(-0.323614 -0.0161227 0)
(-0.297709 -0.0161431 0)
(-0.269672 -0.016185 0)
(-0.23959 -0.0162501 0)
(-0.206759 -0.0163278 0)
(-0.169757 -0.016404 0)
(-0.126918 -0.0164672 0)
(-0.0789471 -0.0164634 0)
(-0.0235286 -0.0165911 0)
(0.0282385 -0.0165635 0)
(0.0839743 -0.01643 0)
(0.132392 -0.0164087 0)
(0.176179 -0.0163207 0)
(0.21481 -0.0162145 0)
(0.250231 -0.0160965 0)
(0.284216 -0.015973 0)
(0.31793 -0.0158449 0)
(0.35172 -0.0157115 0)
(0.385349 -0.0155727 0)
(0.418308 -0.0154293 0)
(0.450098 -0.0152816 0)
(0.480494 -0.0151363 0)
(0.50977 -0.0149772 0)
(0.538186 -0.0148581 0)
(0.56498 -0.0145008 0)
(0.586776 -0.0147021 0)
(0.60024 -0.0137005 0)
(0.656768 -0.0121804 0)
(1.25829 -0.00874494 0)
(0.187058 6.38022e-14 0)
(0.312711 -6.03576e-14 0)
(0.0732244 -8.29584e-14 0)
(-0.234258 -1.85954e-15 0)
(-0.354109 1.0958e-13 0)
(-0.391218 1.66172e-13 0)
(-0.397295 1.79469e-14 0)
(-0.396144 -1.48457e-13 0)
(-0.384181 -1.19301e-12 0)
(-0.368224 -2.06034e-12 0)
(-0.348092 -1.74084e-12 0)
(-0.324686 3.1174e-13 0)
(-0.298651 3.72705e-12 0)
(-0.270489 7.5815e-12 0)
(-0.240282 8.86518e-12 0)
(-0.207323 1.6444e-12 0)
(-0.170189 8.11211e-12 0)
(-0.127218 2.57622e-11 0)
(-0.0791188 -2.70272e-11 0)
(-0.023579 -4.67525e-11 0)
(0.0283034 2.38852e-11 0)
(0.0841612 5.91875e-11 0)
(0.132708 -1.80912e-11 0)
(0.176628 2.56545e-12 0)
(0.215396 7.17759e-11 0)
(0.250956 5.5831e-11 0)
(0.285082 2.93165e-11 0)
(0.318938 2.94482e-11 0)
(0.352872 3.90287e-11 0)
(0.386647 4.11809e-11 0)
(0.419754 2.53661e-11 0)
(0.451693 1.80059e-11 0)
(0.482235 -7.72518e-12 0)
(0.511655 -2.87164e-11 0)
(0.540204 -7.74238e-11 0)
(0.567175 -6.24241e-11 0)
(0.589033 -6.39981e-11 0)
(0.602554 -9.71211e-11 0)
(0.658566 -2.76394e-11 0)
(1.25947 6.09246e-11 0)
(0.00833107 -0.115261 0)
(0.211093 0.108309 0)
(0.00102817 0.135518 0)
(-0.251816 0.0668257 0)
(-0.352722 0.0273956 0)
(-0.389465 0.0194673 0)
(-0.395739 0.0178687 0)
(-0.394592 0.0169194 0)
(-0.382807 0.0160572 0)
(-0.366912 0.0162257 0)
(-0.346886 0.016144 0)
(-0.323614 0.0161227 0)
(-0.297709 0.0161431 0)
(-0.269672 0.016185 0)
(-0.23959 0.0162501 0)
(-0.206759 0.0163278 0)
(-0.169757 0.016404 0)
(-0.126918 0.0164672 0)
(-0.0789471 0.0164634 0)
(-0.0235286 0.0165911 0)
(0.0282385 0.0165635 0)
(0.0839743 0.01643 0)
(0.132392 0.0164087 0)
(0.176179 0.0163207 0)
(0.21481 0.0162145 0)
(0.250231 0.0160965 0)
(0.284216 0.015973 0)
(0.31793 0.0158449 0)
(0.35172 0.0157115 0)
(0.385349 0.0155727 0)
(0.418308 0.0154293 0)
(0.450098 0.0152816 0)
(0.480494 0.0151363 0)
(0.50977 0.0149772 0)
(0.538186 0.0148581 0)
(0.56498 0.0145008 0)
(0.586776 0.0147021 0)
(0.60024 0.0137005 0)
(0.656768 0.0121804 0)
(1.25829 0.00874494 0)
(-0.545844 -0.0954921 0)
(-0.0995816 0.152226 0)
(-0.155072 0.195161 0)
(-0.288903 0.116864 0)
(-0.352985 0.0544047 0)
(-0.388387 0.0391227 0)
(-0.394746 0.0357468 0)
(-0.393437 0.0337772 0)
(-0.381753 0.0321361 0)
(-0.365991 0.032412 0)
(-0.346013 0.0322702 0)
(-0.322809 0.0322384 0)
(-0.29696 0.032285 0)
(-0.268981 0.0323771 0)
(-0.238974 0.0325173 0)
(-0.206235 0.0326823 0)
(-0.169339 0.0328428 0)
(-0.126617 0.0329744 0)
(-0.0787687 0.0329701 0)
(-0.0234739 0.0332235 0)
(0.0281701 0.0331686 0)
(0.0837813 0.0329032 0)
(0.132079 0.0328567 0)
(0.175755 0.032676 0)
(0.214283 0.0324563 0)
(0.249611 0.0322114 0)
(0.283511 0.0319539 0)
(0.317146 0.0316853 0)
(0.350859 0.0314038 0)
(0.384417 0.0311092 0)
(0.417312 0.0308025 0)
(0.449049 0.030484 0)
(0.47941 0.0301685 0)
(0.508663 0.0298176 0)
(0.537091 0.0295566 0)
(0.563809 0.028796 0)
(0.585815 0.0291593 0)
(0.599311 0.0271902 0)
(0.656224 0.0241999 0)
(1.25996 0.0186128 0)
(-1.12536 -0.150716 0)
(-0.432048 0.173344 0)
(-0.340132 0.245927 0)
(-0.347711 0.172781 0)
(-0.373409 0.102521 0)
(-0.396204 0.078976 0)
(-0.400509 0.072247 0)
(-0.39615 0.0683647 0)
(-0.384303 0.0659034 0)
(-0.368329 0.0659971 0)
(-0.348088 0.0657343 0)
(-0.324656 0.0657025 0)
(-0.298564 0.0658345 0)
(-0.270356 0.0660698 0)
(-0.240145 0.0663968 0)
(-0.207216 0.0667638 0)
(-0.170129 0.0671112 0)
(-0.1272 0.0673908 0)
(-0.0791324 0.0673909 0)
(-0.0235957 0.0679181 0)
(0.0282593 0.0678062 0)
(0.0840991 0.0672531 0)
(0.132606 0.0671451 0)
(0.17648 0.066762 0)
(0.215199 0.0662936 0)
(0.250718 0.0657687 0)
(0.284818 0.0652123 0)
(0.318658 0.0646277 0)
(0.352575 0.0640119 0)
(0.386327 0.0633638 0)
(0.419404 0.0626858 0)
(0.451309 0.0619749 0)
(0.48182 0.0612726 0)
(0.511181 0.0604563 0)
(0.539702 0.0599003 0)
(0.566095 0.0582273 0)
(0.588598 0.0587304 0)
(0.601906 0.0552988 0)
(0.65866 0.0499623 0)
(1.25756 0.0395989 0)
(-1.24419 -0.0743589 0)
(-0.602541 0.22587 0)
(-0.477867 0.281098 0)
(-0.415821 0.219558 0)
(-0.410718 0.15878 0)
(-0.410612 0.133602 0)
(-0.4081 0.122798 0)
(-0.397753 0.11731 0)
(-0.384864 0.114516 0)
(-0.36811 0.113904 0)
(-0.347567 0.113537 0)
(-0.323941 0.113586 0)
(-0.297687 0.113941 0)
(-0.269377 0.114486 0)
(-0.239156 0.115176 0)
(-0.206313 0.115913 0)
(-0.169391 0.116595 0)
(-0.126673 0.117136 0)
(-0.0788385 0.117171 0)
(-0.0235247 0.11814 0)
(0.0280504 0.117941 0)
(0.0836451 0.116925 0)
(0.131894 0.116693 0)
(0.175504 0.115965 0)
(0.213972 0.115067 0)
(0.249272 0.114054 0)
(0.283186 0.112969 0)
(0.316861 0.111818 0)
(0.350612 0.110594 0)
(0.384193 0.109296 0)
(0.417094 0.107927 0)
(0.448824 0.106472 0)
(0.479211 0.105036 0)
(0.508345 0.103272 0)
(0.536919 0.102172 0)
(0.562441 0.0986548 0)
(0.585432 0.0992752 0)
(0.598405 0.0940155 0)
(0.656956 0.0852185 0)
(1.25233 0.0686317 0)
(-1.25031 -0.013407 0)
(-0.640742 0.228483 0)
(-0.526281 0.285452 0)
(-0.459763 0.236956 0)
(-0.436584 0.199172 0)
(-0.42379 0.178461 0)
(-0.413767 0.166881 0)
(-0.400714 0.160486 0)
(-0.385911 0.157887 0)
(-0.368234 0.156397 0)
(-0.347288 0.155947 0)
(-0.323354 0.156061 0)
(-0.296845 0.156639 0)
(-0.268354 0.157507 0)
(-0.23807 0.158568 0)
(-0.205298 0.159687 0)
(-0.16856 0.160716 0)
(-0.126095 0.161531 0)
(-0.0785285 0.161622 0)
(-0.0234622 0.163026 0)
(0.0278118 0.162744 0)
(0.0831564 0.161264 0)
(0.131155 0.160891 0)
(0.174516 0.159817 0)
(0.212767 0.158488 0)
(0.2479 0.156985 0)
(0.281703 0.155367 0)
(0.315293 0.153641 0)
(0.34897 0.151809 0)
(0.382458 0.149859 0)
(0.415277 0.147823 0)
(0.446918 0.145658 0)
(0.477284 0.143577 0)
(0.506204 0.140903 0)
(0.534945 0.13936 0)
(0.559673 0.134279 0)
(0.582981 0.134881 0)
(0.595818 0.129236 0)
(0.656945 0.119084 0)
(1.246 0.103288 0)
(-1.24505 0.0577397 0)
(-0.653374 0.239949 0)
(-0.547316 0.292245 0)
(-0.485598 0.254202 0)
(-0.456159 0.231878 0)
(-0.436897 0.21558 0)
(-0.420705 0.20523 0)
(-0.405011 0.198513 0)
(-0.388086 0.195699 0)
(-0.369171 0.1936 0)
(-0.347436 0.192953 0)
(-0.322855 0.193034 0)
(-0.295869 0.193755 0)
(-0.267047 0.194862 0)
(-0.236628 0.196218 0)
(-0.203924 0.197647 0)
(-0.167428 0.198971 0)
(-0.125309 0.200025 0)
(-0.0781195 0.200157 0)
(-0.0234068 0.201976 0)
(0.0274523 0.201612 0)
(0.0824383 0.199663 0)
(0.130081 0.199148 0)
(0.173091 0.197753 0)
(0.211044 0.196032 0)
(0.24596 0.194088 0)
(0.279621 0.191989 0)
(0.313131 0.189762 0)
(0.346719 0.187383 0)
(0.380159 0.184909 0)
(0.412914 0.182321 0)
(0.444507 0.179609 0)
(0.474952 0.177136 0)
(0.503596 0.173701 0)
(0.532545 0.171976 0)
(0.556605 0.165759 0)
(0.580288 0.166582 0)
(0.5934 0.161919 0)
(0.657276 0.149599 0)
(1.23726 0.138296 0)
(-1.23253 0.117765 0)
(-0.657023 0.258408 0)
(-0.558573 0.302311 0)
(-0.504732 0.271177 0)
(-0.471278 0.261735 0)
(-0.447638 0.248224 0)
(-0.427527 0.239782 0)
(-0.409469 0.233174 0)
(-0.390804 0.230152 0)
(-0.370582 0.227696 0)
(-0.34785 0.226797 0)
(-0.322497 0.22683 0)
(-0.294887 0.227565 0)
(-0.265689 0.228806 0)
(-0.235092 0.23031 0)
(-0.202453 0.231918 0)
(-0.166217 0.233416 0)
(-0.124478 0.23462 0)
(-0.0777026 0.234735 0)
(-0.0233738 0.236943 0)
(0.0270336 0.236512 0)
(0.0816326 0.234117 0)
(0.128887 0.233526 0)
(0.171513 0.231906 0)
(0.209148 0.229924 0)
(0.243838 0.227693 0)
(0.277388 0.225312 0)
(0.310799 0.222756 0)
(0.344389 0.220141 0)
(0.37771 0.217306 0)
(0.410515 0.214567 0)
(0.442036 0.211566 0)
(0.472562 0.20903 0)
(0.500843 0.205133 0)
(0.529898 0.203517 0)
(0.553448 0.196799 0)
(0.577379 0.197685 0)
(0.591982 0.194964 0)
(0.657553 0.180084 0)
(1.22759 0.177215 0)
(-1.2341 0.178118 0)
(-0.657578 0.277883 0)
(-0.565073 0.316708 0)
(-0.517164 0.292333 0)
(-0.482982 0.289997 0)
(-0.455869 0.278621 0)
(-0.433674 0.272488 0)
(-0.413856 0.266102 0)
(-0.39376 0.263048 0)
(-0.372239 0.260428 0)
(-0.348473 0.259446 0)
(-0.322129 0.259312 0)
(-0.293943 0.260132 0)
(-0.264273 0.26136 0)
(-0.233516 0.262941 0)
(-0.200929 0.264602 0)
(-0.164967 0.266166 0)
(-0.123629 0.267428 0)
(-0.0772931 0.267468 0)
(-0.0233607 0.270043 0)
(0.0265632 0.269574 0)
(0.0807649 0.266764 0)
(0.127606 0.266178 0)
(0.169819 0.264442 0)
(0.207104 0.262329 0)
(0.241577 0.259981 0)
(0.274966 0.257434 0)
(0.308397 0.254845 0)
(0.341784 0.251956 0)
(0.375274 0.249276 0)
(0.407876 0.246263 0)
(0.439392 0.243259 0)
(0.470092 0.240913 0)
(0.497807 0.236533 0)
(0.526884 0.235138 0)
(0.550132 0.228369 0)
(0.574564 0.229212 0)
(0.591403 0.227776 0)
(0.657031 0.211542 0)
(1.21559 0.213379 0)
(-1.21941 0.228775 0)
(-0.65634 0.300341 0)
(-0.568892 0.336182 0)
(-0.524968 0.317549 0)
(-0.491351 0.31797 0)
(-0.462223 0.308318 0)
(-0.439145 0.304477 0)
(-0.417959 0.298204 0)
(-0.396737 0.295384 0)
(-0.374011 0.292925 0)
(-0.348893 0.29167 0)
(-0.321911 0.291886 0)
(-0.292826 0.292501 0)
(-0.262869 0.293903 0)
(-0.231862 0.295446 0)
(-0.199361 0.297148 0)
(-0.163677 0.298719 0)
(-0.122767 0.300002 0)
(-0.0768876 0.299939 0)
(-0.0233538 0.302879 0)
(0.0260578 0.302402 0)
(0.0798605 0.299199 0)
(0.126267 0.298673 0)
(0.168032 0.296883 0)
(0.204954 0.294727 0)
(0.239148 0.292293 0)
(0.272507 0.289788 0)
(0.305659 0.286935 0)
(0.339397 0.284424 0)
(0.372287 0.281102 0)
(0.405456 0.278752 0)
(0.436571 0.275285 0)
(0.467407 0.273131 0)
(0.494714 0.268534 0)
(0.523878 0.267395 0)
(0.546969 0.260713 0)
(0.572387 0.261612 0)
(0.59104 0.260576 0)
(0.656171 0.244564 0)
(1.20359 0.25607 0)
(-1.20059 0.274273 0)
(-0.653864 0.324365 0)
(-0.570342 0.35795 0)
(-0.529526 0.34465 0)
(-0.496851 0.345771 0)
(-0.466844 0.337333 0)
(-0.443751 0.335636 0)
(-0.421551 0.329629 0)
(-0.399436 0.327374 0)
(-0.375286 0.324777 0)
(-0.349673 0.324436 0)
(-0.321122 0.324052 0)
(-0.291911 0.325304 0)
(-0.261232 0.326476 0)
(-0.230178 0.328191 0)
(-0.197688 0.329865 0)
(-0.162326 0.331471 0)
(-0.121866 0.332774 0)
(-0.0764632 0.332624 0)
(-0.0233362 0.335943 0)
(0.025526 0.335486 0)
(0.0789215 0.331889 0)
(0.124867 0.331437 0)
(0.166154 0.329611 0)
(0.202653 0.327391 0)
(0.236667 0.32498 0)
(0.269708 0.322242 0)
(0.303249 0.319771 0)
(0.336132 0.3164 0)
(0.370116 0.314233 0)
(0.402166 0.310626 0)
(0.43375 0.307723 0)
(0.464802 0.305703 0)
(0.49121 0.300352 0)
(0.520511 0.299485 0)
(0.543646 0.293022 0)
(0.570329 0.29391 0)
(0.590064 0.292501 0)
(0.654178 0.27623 0)
(1.18827 0.290594 0)
(-1.18776 0.331091 0)
(-0.652415 0.354049 0)
(-0.571123 0.383865 0)
(-0.533384 0.37442 0)
(-0.501272 0.374845 0)
(-0.471124 0.367093 0)
(-0.44826 0.366828 0)
(-0.424913 0.360719 0)
(-0.401916 0.358838 0)
(-0.37721 0.357482 0)
(-0.349283 0.355854 0)
(-0.321136 0.357045 0)
(-0.290337 0.357454 0)
(-0.259786 0.359217 0)
(-0.228293 0.360758 0)
(-0.19596 0.362552 0)
(-0.16089 0.364166 0)
(-0.120915 0.365524 0)
(-0.0760036 0.365317 0)
(-0.0232934 0.369034 0)
(0.024981 0.368618 0)
(0.0779561 0.364623 0)
(0.123413 0.364237 0)
(0.164175 0.362352 0)
(0.200288 0.360112 0)
(0.233935 0.357542 0)
(0.267205 0.355047 0)
(0.299972 0.351838 0)
(0.334214 0.34976 0)
(0.366215 0.345546 0)
(0.400454 0.344229 0)
(0.430537 0.339708 0)
(0.462197 0.338345 0)
(0.488392 0.333124 0)
(0.517872 0.332398 0)
(0.541152 0.326165 0)
(0.56921 0.327286 0)
(0.590123 0.325912 0)
(0.653424 0.310774 0)
(1.17314 0.336885 0)
(-1.17024 0.372702 0)
(-0.648609 0.378937 0)
(-0.569722 0.406364 0)
(-0.535201 0.401779 0)
(-0.503237 0.401278 0)
(-0.473365 0.39461 0)
(-0.450936 0.395475 0)
(-0.426848 0.389993 0)
(-0.404025 0.389919 0)
(-0.376944 0.387261 0)
(-0.350154 0.3884 0)
(-0.319448 0.387967 0)
(-0.289412 0.389807 0)
(-0.257813 0.391044 0)
(-0.226471 0.392928 0)
(-0.194092 0.394668 0)
(-0.159384 0.396362 0)
(-0.119902 0.397778 0)
(-0.0754936 0.397552 0)
(-0.023213 0.40168 0)
(0.0244365 0.401324 0)
(0.0769724 0.396931 0)
(0.121908 0.396596 0)
(0.162126 0.394661 0)
(0.19776 0.392329 0)
(0.231312 0.389828 0)
(0.264079 0.386929 0)
(0.29771 0.384464 0)
(0.330176 0.380733 0)
(0.364558 0.378818 0)
(0.396054 0.374685 0)
(0.427656 0.371717 0)
(0.45892 0.369772 0)
(0.48419 0.363745 0)
(0.513877 0.363193 0)
(0.537229 0.357073 0)
(0.566617 0.357909 0)
(0.587677 0.355448 0)
(0.649909 0.3401 0)
(1.15503 0.36853 0)
(-1.1534 0.427924 0)
(-0.64752 0.411333 0)
(-0.570719 0.434751 0)
(-0.53948 0.433383 0)
(-0.505956 0.430751 0)
(-0.477138 0.42508 0)
(-0.454915 0.426207 0)
(-0.430049 0.420877 0)
(-0.405911 0.420269 0)
(-0.379096 0.419567 0)
(-0.349395 0.41859 0)
(-0.31952 0.419859 0)
(-0.287768 0.420674 0)
(-0.256328 0.422399 0)
(-0.224509 0.424075 0)
(-0.192237 0.425894 0)
(-0.157804 0.4276 0)
(-0.118824 0.429087 0)
(-0.0749205 0.428872 0)
(-0.0230855 0.43341 0)
(0.0239052 0.433126 0)
(0.0759777 0.428348 0)
(0.120368 0.428059 0)
(0.160007 0.426078 0)
(0.195258 0.42375 0)
(0.228515 0.421162 0)
(0.261599 0.41855 0)
(0.294523 0.415506 0)
(0.328646 0.413244 0)
(0.360731 0.409234 0)
(0.395417 0.408208 0)
(0.424612 0.402993 0)
(0.457321 0.402659 0)
(0.482412 0.396975 0)
(0.51229 0.396448 0)
(0.535983 0.390676 0)
(0.567008 0.392244 0)
(0.588917 0.3901 0)
(0.650051 0.376317 0)
(1.13606 0.417588 0)
(-1.13387 0.463378 0)
(-0.643189 0.434787 0)
(-0.569196 0.456235 0)
(-0.540061 0.456934 0)
(-0.505604 0.452831 0)
(-0.477785 0.449781 0)
(-0.455508 0.45088 0)
(-0.429615 0.445903 0)
(-0.406106 0.44758 0)
(-0.37723 0.446038 0)
(-0.348324 0.447395 0)
(-0.317353 0.448414 0)
(-0.285831 0.450049 0)
(-0.254113 0.451926 0)
(-0.222328 0.453838 0)
(-0.190155 0.455772 0)
(-0.156075 0.457571 0)
(-0.117633 0.459153 0)
(-0.0742587 0.458985 0)
(-0.0229004 0.463917 0)
(0.0233922 0.46371 0)
(0.0749621 0.458573 0)
(0.11876 0.458313 0)
(0.157767 0.456282 0)
(0.192541 0.453898 0)
(0.225548 0.451232 0)
(0.25837 0.448423 0)
(0.291328 0.445346 0)
(0.324676 0.442354 0)
(0.357369 0.438922 0)
(0.390367 0.436041 0)
(0.420462 0.431778 0)
(0.45213 0.430091 0)
(0.476984 0.424051 0)
(0.5072 0.423537 0)
(0.530708 0.417549 0)
(0.562773 0.418645 0)
(0.584796 0.415642 0)
(0.645084 0.402147 0)
(1.11582 0.446003 0)
(-1.11118 0.516504 0)
(-0.641715 0.467507 0)
(-0.57035 0.48499 0)
(-0.542887 0.486351 0)
(-0.507918 0.481005 0)
(-0.481655 0.479407 0)
(-0.458627 0.47953 0)
(-0.432706 0.475373 0)
(-0.408465 0.476754 0)
(-0.37871 0.475607 0)
(-0.349252 0.477042 0)
(-0.317127 0.477679 0)
(-0.285277 0.479405 0)
(-0.252881 0.481006 0)
(-0.2208 0.482882 0)
(-0.188423 0.484706 0)
(-0.15449 0.486467 0)
(-0.116466 0.488052 0)
(-0.0735629 0.487914 0)
(-0.0226734 0.493197 0)
(0.02292 0.493063 0)
(0.0739879 0.487617 0)
(0.117235 0.487417 0)
(0.155719 0.485445 0)
(0.190217 0.48316 0)
(0.223281 0.480665 0)
(0.256224 0.477964 0)
(0.289575 0.475226 0)
(0.323043 0.472386 0)
(0.356076 0.469307 0)
(0.389741 0.467071 0)
(0.41916 0.462286 0)
(0.452 0.461707 0)
(0.476416 0.455768 0)
(0.507309 0.455862 0)
(0.531164 0.450583 0)
(0.56449 0.45227 0)
(0.586829 0.449649 0)
(0.645623 0.438246 0)
(1.09228 0.495398 0)
(-1.08935 0.546034 0)
(-0.637524 0.490128 0)
(-0.569619 0.506051 0)
(-0.543597 0.507334 0)
(-0.508498 0.500916 0)
(-0.482955 0.500857 0)
(-0.458645 0.500215 0)
(-0.431604 0.496567 0)
(-0.406676 0.498907 0)
(-0.375624 0.498012 0)
(-0.345746 0.500487 0)
(-0.313258 0.501871 0)
(-0.281376 0.504399 0)
(-0.249112 0.506753 0)
(-0.217274 0.509315 0)
(-0.185308 0.511733 0)
(-0.152006 0.513961 0)
(-0.114785 0.515874 0)
(-0.0726153 0.515967 0)
(-0.0223473 0.521599 0)
(0.0224289 0.521528 0)
(0.0728381 0.515773 0)
(0.115265 0.515432 0)
(0.152833 0.513206 0)
(0.186571 0.510543 0)
(0.219052 0.507535 0)
(0.2516 0.504293 0)
(0.284425 0.500834 0)
(0.317833 0.497603 0)
(0.350138 0.493568 0)
(0.384269 0.491299 0)
(0.413093 0.485899 0)
(0.446369 0.485154 0)
(0.470603 0.47904 0)
(0.502198 0.479201 0)
(0.526177 0.473984 0)
(0.560558 0.475679 0)
(0.583028 0.47278 0)
(0.64069 0.461934 0)
(1.07036 0.519535 0)
(-1.06015 0.597659 0)
(-0.63471 0.523431 0)
(-0.570386 0.534532 0)
(-0.545666 0.535244 0)
(-0.51118 0.528146 0)
(-0.486994 0.528687 0)
(-0.460312 0.526515 0)
(-0.433818 0.524025 0)
(-0.407927 0.526114 0)
(-0.376393 0.525309 0)
(-0.346328 0.528001 0)
(-0.313465 0.529446 0)
(-0.281211 0.531987 0)
(-0.248621 0.53443 0)
(-0.216452 0.537063 0)
(-0.184274 0.539475 0)
(-0.150937 0.541557 0)
(-0.113937 0.543303 0)
(-0.0720281 0.543273 0)
(-0.0221199 0.549113 0)
(0.0221067 0.549089 0)
(0.0721181 0.543165 0)
(0.114207 0.543033 0)
(0.151459 0.541053 0)
(0.18514 0.538636 0)
(0.217715 0.535732 0)
(0.250523 0.532572 0)
(0.283447 0.52911 0)
(0.317257 0.526195 0)
(0.34941 0.522208 0)
(0.383792 0.520331 0)
(0.412515 0.515265 0)
(0.446203 0.515034 0)
(0.470577 0.509582 0)
(0.503196 0.510677 0)
(0.527463 0.506534 0)
(0.562317 0.508556 0)
(0.584545 0.505936 0)
(0.640184 0.497764 0)
(1.04173 0.568521 0)
(-1.03673 0.619184 0)
(-0.631249 0.544837 0)
(-0.570842 0.555906 0)
(-0.547697 0.55624 0)
(-0.513412 0.548982 0)
(-0.489451 0.549994 0)
(-0.459677 0.546452 0)
(-0.433046 0.545979 0)
(-0.405098 0.547248 0)
(-0.373144 0.547212 0)
(-0.34235 0.549667 0)
(-0.3089 0.551117 0)
(-0.276058 0.553565 0)
(-0.242954 0.556039 0)
(-0.210432 0.558843 0)
(-0.178389 0.561661 0)
(-0.145815 0.56439 0)
(-0.110136 0.566916 0)
(-0.0698222 0.567832 0)
(-0.0213912 0.574345 0)
(0.0213325 0.574354 0)
(0.0698314 0.567787 0)
(0.110246 0.566772 0)
(0.146065 0.564079 0)
(0.178836 0.561097 0)
(0.211095 0.557885 0)
(0.24406 0.554679 0)
(0.277227 0.551308 0)
(0.311381 0.548672 0)
(0.343658 0.544867 0)
(0.378307 0.543339 0)
(0.406892 0.538229 0)
(0.441154 0.538362 0)
(0.465598 0.532996 0)
(0.499389 0.534429 0)
(0.523872 0.530473 0)
(0.559524 0.532458 0)
(0.581264 0.529476 0)
(0.635245 0.520648 0)
(1.01872 0.587444 0)
(-0.999938 0.664302 0)
(-0.625704 0.573275 0)
(-0.570482 0.581805 0)
(-0.549576 0.583539 0)
(-0.516505 0.577558 0)
(-0.493195 0.578475 0)
(-0.461775 0.574424 0)
(-0.437018 0.575396 0)
(-0.405807 0.574425 0)
(-0.375893 0.574865 0)
(-0.343367 0.575442 0)
(-0.310313 0.575797 0)
(-0.277113 0.576961 0)
(-0.24388 0.578431 0)
(-0.21157 0.580904 0)
(-0.17947 0.583463 0)
(-0.146646 0.585853 0)
(-0.110962 0.588065 0)
(-0.0704462 0.588495 0)
(-0.0216746 0.594659 0)
(0.0216088 0.594681 0)
(0.0704201 0.588489 0)
(0.110994 0.58802 0)
(0.146766 0.585713 0)
(0.179735 0.583171 0)
(0.211978 0.580331 0)
(0.244623 0.577591 0)
(0.277877 0.575414 0)
(0.312137 0.574181 0)
(0.34443 0.571968 0)
(0.37971 0.572106 0)
(0.407807 0.568145 0)
(0.442789 0.569776 0)
(0.467124 0.565475 0)
(0.501264 0.567433 0)
(0.525713 0.564274 0)
(0.560958 0.565789 0)
(0.581258 0.561425 0)
(0.632286 0.552445 0)
(0.984705 0.631694 0)
(-0.962023 0.653417 0)
(-0.61544 0.579277 0)
(-0.564754 0.594649 0)
(-0.548238 0.600074 0)
(-0.516556 0.59562 0)
(-0.493722 0.59707 0)
(-0.460788 0.592874 0)
(-0.437192 0.59478 0)
(-0.403602 0.592406 0)
(-0.375727 0.594123 0)
(-0.341868 0.593208 0)
(-0.310228 0.593907 0)
(-0.276798 0.593751 0)
(-0.243649 0.593937 0)
(-0.209573 0.594101 0)
(-0.175352 0.595734 0)
(-0.14147 0.598006 0)
(-0.105923 0.600266 0)
(-0.0667123 0.600985 0)
(-0.0202108 0.607332 0)
(0.0201599 0.607356 0)
(0.0666746 0.600992 0)
(0.105896 0.600256 0)
(0.141469 0.597942 0)
(0.175414 0.595576 0)
(0.209721 0.593758 0)
(0.24403 0.593379 0)
(0.277203 0.592691 0)
(0.311315 0.592692 0)
(0.342454 0.590707 0)
(0.37793 0.591759 0)
(0.404925 0.587809 0)
(0.440283 0.58995 0)
(0.464155 0.585826 0)
(0.498554 0.587626 0)
(0.522616 0.584076 0)
(0.556496 0.584208 0)
(0.57312 0.575686 0)
(0.620544 0.56054 0)
(0.950185 0.623637 0)
(-0.960802 0.62012 0)
(-0.597028 0.609356 0)
(-0.556315 0.631623 0)
(-0.546128 0.641885 0)
(-0.513252 0.642191 0)
(-0.489763 0.646279 0)
(-0.453087 0.645335 0)
(-0.428156 0.64954 0)
(-0.391621 0.64889 0)
(-0.363455 0.652672 0)
(-0.327335 0.652965 0)
(-0.295849 0.655517 0)
(-0.261099 0.656429 0)
(-0.228417 0.657692 0)
(-0.195636 0.657337 0)
(-0.165128 0.656299 0)
(-0.132738 0.654733 0)
(-0.0977714 0.653522 0)
(-0.0602958 0.652634 0)
(-0.0176376 0.657537 0)
(0.0176084 0.657558 0)
(0.0602709 0.652655 0)
(0.0977438 0.653547 0)
(0.132712 0.654736 0)
(0.165125 0.656252 0)
(0.195653 0.657195 0)
(0.2285 0.657446 0)
(0.261073 0.655901 0)
(0.296196 0.654912 0)
(0.327102 0.651595 0)
(0.36418 0.651387 0)
(0.391298 0.646352 0)
(0.428746 0.646835 0)
(0.453131 0.641484 0)
(0.490264 0.641001 0)
(0.513694 0.635744 0)
(0.547782 0.632714 0)
(0.557005 0.620776 0)
(0.598231 0.596844 0)
(0.956199 0.59043 0)
(-1.0214 1.02507 0)
(-0.596395 0.95437 0)
(-0.618843 0.953652 0)
(-0.626135 0.988212 0)
(-0.580009 1.02333 0)
(-0.560974 1.04677 0)
(-0.509884 1.07608 0)
(-0.484736 1.09857 0)
(-0.433438 1.12242 0)
(-0.403685 1.14317 0)
(-0.353292 1.16224 0)
(-0.319789 1.18059 0)
(-0.272768 1.19565 0)
(-0.236413 1.21086 0)
(-0.193179 1.22297 0)
(-0.155416 1.23511 0)
(-0.116819 1.24477 0)
(-0.0812331 1.2521 0)
(-0.0480072 1.25667 0)
(-0.0139068 1.26369 0)
(0.013905 1.26369 0)
(0.0480003 1.25667 0)
(0.0812224 1.25211 0)
(0.116802 1.24477 0)
(0.155393 1.23512 0)
(0.193148 1.22298 0)
(0.236383 1.21087 0)
(0.272729 1.19565 0)
(0.319783 1.18058 0)
(0.353253 1.16222 0)
(0.40375 1.14314 0)
(0.433455 1.12233 0)
(0.484893 1.09842 0)
(0.510084 1.07582 0)
(0.561419 1.04633 0)
(0.580716 1.02263 0)
(0.627579 0.986998 0)
(0.620437 0.951536 0)
(0.598714 0.951527 0)
(1.0209 1.025 0)
(-1.0214 -1.02507 0)
(-0.596395 -0.95437 0)
(-0.618843 -0.953652 0)
(-0.626135 -0.988212 0)
(-0.580009 -1.02333 0)
(-0.560974 -1.04677 0)
(-0.509884 -1.07608 0)
(-0.484736 -1.09857 0)
(-0.433438 -1.12242 0)
(-0.403685 -1.14317 0)
(-0.353292 -1.16224 0)
(-0.319789 -1.18059 0)
(-0.272768 -1.19565 0)
(-0.236413 -1.21086 0)
(-0.193179 -1.22297 0)
(-0.155416 -1.23511 0)
(-0.116819 -1.24477 0)
(-0.0812331 -1.2521 0)
(-0.0480072 -1.25667 0)
(-0.0139068 -1.26369 0)
(0.013905 -1.26369 0)
(0.0480003 -1.25667 0)
(0.0812224 -1.25211 0)
(0.116802 -1.24477 0)
(0.155393 -1.23512 0)
(0.193148 -1.22298 0)
(0.236383 -1.21087 0)
(0.272729 -1.19565 0)
(0.319783 -1.18058 0)
(0.353253 -1.16222 0)
(0.40375 -1.14314 0)
(0.433455 -1.12233 0)
(0.484893 -1.09842 0)
(0.510084 -1.07582 0)
(0.561419 -1.04633 0)
(0.580716 -1.02263 0)
(0.627579 -0.986998 0)
(0.620437 -0.951536 0)
(0.598714 -0.951527 0)
(1.0209 -1.025 0)
(-0.960802 -0.62012 0)
(-0.597028 -0.609356 0)
(-0.556315 -0.631623 0)
(-0.546128 -0.641885 0)
(-0.513252 -0.642191 0)
(-0.489763 -0.646279 0)
(-0.453087 -0.645335 0)
(-0.428156 -0.64954 0)
(-0.391621 -0.64889 0)
(-0.363455 -0.652672 0)
(-0.327335 -0.652965 0)
(-0.295849 -0.655517 0)
(-0.261099 -0.656429 0)
(-0.228417 -0.657692 0)
(-0.195636 -0.657337 0)
(-0.165128 -0.656299 0)
(-0.132738 -0.654733 0)
(-0.0977714 -0.653522 0)
(-0.0602958 -0.652634 0)
(-0.0176376 -0.657537 0)
(0.0176084 -0.657558 0)
(0.0602709 -0.652655 0)
(0.0977438 -0.653547 0)
(0.132712 -0.654736 0)
(0.165125 -0.656252 0)
(0.195653 -0.657195 0)
(0.2285 -0.657446 0)
(0.261073 -0.655901 0)
(0.296196 -0.654912 0)
(0.327102 -0.651595 0)
(0.36418 -0.651387 0)
(0.391298 -0.646352 0)
(0.428746 -0.646835 0)
(0.453131 -0.641484 0)
(0.490264 -0.641001 0)
(0.513694 -0.635744 0)
(0.547782 -0.632714 0)
(0.557005 -0.620776 0)
(0.598231 -0.596844 0)
(0.956199 -0.59043 0)
(-0.962023 -0.653417 0)
(-0.61544 -0.579277 0)
(-0.564754 -0.594649 0)
(-0.548238 -0.600074 0)
(-0.516556 -0.59562 0)
(-0.493722 -0.59707 0)
(-0.460788 -0.592874 0)
(-0.437192 -0.59478 0)
(-0.403602 -0.592406 0)
(-0.375727 -0.594123 0)
(-0.341868 -0.593208 0)
(-0.310228 -0.593907 0)
(-0.276798 -0.593751 0)
(-0.243649 -0.593937 0)
(-0.209573 -0.594101 0)
(-0.175352 -0.595734 0)
(-0.14147 -0.598006 0)
(-0.105923 -0.600266 0)
(-0.0667123 -0.600985 0)
(-0.0202108 -0.607332 0)
(0.0201599 -0.607356 0)
(0.0666746 -0.600992 0)
(0.105896 -0.600256 0)
(0.141469 -0.597942 0)
(0.175414 -0.595576 0)
(0.209721 -0.593758 0)
(0.24403 -0.593379 0)
(0.277203 -0.592691 0)
(0.311315 -0.592692 0)
(0.342454 -0.590707 0)
(0.37793 -0.591759 0)
(0.404925 -0.587809 0)
(0.440283 -0.58995 0)
(0.464155 -0.585826 0)
(0.498554 -0.587626 0)
(0.522616 -0.584076 0)
(0.556496 -0.584208 0)
(0.57312 -0.575686 0)
(0.620544 -0.56054 0)
(0.950185 -0.623637 0)
(-0.999938 -0.664302 0)
(-0.625704 -0.573275 0)
(-0.570482 -0.581805 0)
(-0.549576 -0.583539 0)
(-0.516505 -0.577558 0)
(-0.493195 -0.578475 0)
(-0.461775 -0.574424 0)
(-0.437018 -0.575396 0)
(-0.405807 -0.574425 0)
(-0.375893 -0.574865 0)
(-0.343367 -0.575442 0)
(-0.310313 -0.575797 0)
(-0.277113 -0.576961 0)
(-0.24388 -0.578431 0)
(-0.21157 -0.580904 0)
(-0.17947 -0.583463 0)
(-0.146646 -0.585853 0)
(-0.110962 -0.588065 0)
(-0.0704462 -0.588495 0)
(-0.0216746 -0.594659 0)
(0.0216088 -0.594681 0)
(0.0704201 -0.588489 0)
(0.110994 -0.58802 0)
(0.146766 -0.585713 0)
(0.179735 -0.583171 0)
(0.211978 -0.580331 0)
(0.244623 -0.577591 0)
(0.277877 -0.575414 0)
(0.312137 -0.574181 0)
(0.34443 -0.571968 0)
(0.37971 -0.572106 0)
(0.407807 -0.568145 0)
(0.442789 -0.569776 0)
(0.467124 -0.565475 0)
(0.501264 -0.567433 0)
(0.525713 -0.564274 0)
(0.560958 -0.565789 0)
(0.581258 -0.561425 0)
(0.632286 -0.552445 0)
(0.984705 -0.631694 0)
(-1.03673 -0.619184 0)
(-0.631249 -0.544837 0)
(-0.570842 -0.555906 0)
(-0.547697 -0.55624 0)