/*--------------------------------*- C++ -*----------------------------------*\
| =========                 |                                                 |
| \\      /  F ield         | OpenFOAM: The Open Source CFD Toolbox           |
|  \\    /   O peration     | Version:  v1912                                 |
|   \\  /    A nd           | Website:  www.openfoam.com                      |
|    \\/     M anipulation  |                                                 |
\*---------------------------------------------------------------------------*/
FoamFile
{
    version     2.0;
    format      ascii;
    class       volScalarField;
    location    "7.52";
    object      p;
}
// * * * * * * * * * * * * * * * * * * * * * * * * * * * * * * * * * * * * * //

dimensions      [1 -1 -2 0 0 0 0];


internalField   nonuniform List<scalar> 
1900
(
21726.2
9186.4
8572.97
8526.59
8476.92
8443.38
8405.21
8376.57
8355.28
8342.21
21726.1
9186.42
8572.91
8526.84
8476.94
8443.73
8404.88
8379.45
8362.44
8343.98
21726.1
9186.44
8572.85
8527.04
8477.15
8444.04
8404.19
8378.96
8355.75
8332.78
21726.1
9186.42
8572.91
8526.84
8476.94
8443.73
8404.88
8379.45
8362.44
8343.98
21726.2
9186.4
8572.97
8526.59
8476.92
8443.38
8405.21
8376.57
8355.28
8342.21
8458.69
8311.47
8255.89
8097.98
8358.86
8328.58
8231.21
8183.17
8024.65
7929.6
8299.67
8212.63
8170.08
8045.3
7961.56
8328.58
8231.21
8183.17
8024.65
7929.6
8458.69
8311.47
8255.89
8097.98
8358.86
3516.88
2046.79
1438.49
1115.56
856.066
3974.8
2257.96
1550.46
1202.96
916.598
4083.47
2218.25
1502.55
1169.19
873.203
3974.8
2257.96
1550.46
1202.96
916.598
3516.88
2046.79
1438.49
1115.56
856.066
863.033
853.124
812.208
776.531
714.808
612.24
588.353
669.212
1146.85
1375.21
1366.37
1347.05
1330.89
1275.99
1160.21
1016.43
867.404
719.7
558.609
412.221
338.377
315.126
303.8
294.209
285.931
280.038
277.189
276.799
277.65
279.315
280.704
284.466
300.017
393.974
575.469
693.624
769.586
828.856
890.527
947.514
810.678
817.814
816.519
791.56
725.53
613.061
577.044
660.385
1132.4
1368.71
1362.96
1348.7
1334.43
1281.93
1164.09
1018.84
871.635
723.743
561.021
413.035
338.482
315.104
303.804
294.215
285.913
280.001
277.148
276.762
277.616
279.287
280.679
284.434
299.988
393.924
575.495
693.632
769.654
828.807
890.483
947.571
802.513
799.168
804.095
791.448
739.471
618.229
581.71
654.288
1128.82
1370.99
1362.24
1349.13
1336.84
1293.98
1188.73
1029.96
873.525
722.849
560.503
413.174
338.558
315.102
303.807
294.219
285.909
279.988
277.133
276.749
277.605
279.278
280.67
284.423
299.977
393.909
575.504
693.629
769.682
828.82
890.486
947.518
810.678
817.814
816.519
791.56
725.53
613.061
577.044
660.385
1132.4
1368.71
1362.96
1348.7
1334.43
1281.93
1164.09
1018.84
871.635
723.743
561.021
413.035
338.482
315.104
303.804
294.215
285.913
280.001
277.148
276.762
277.616
279.287
280.679
284.434
299.988
393.924
575.495
693.632
769.654
828.807
890.483
947.571
863.033
853.124
812.208
776.531
714.808
612.24
588.353
669.212
1146.85
1375.21
1366.37
1347.05
1330.89
1275.99
1160.21
1016.43
867.404
719.7
558.609
412.221
338.377
315.126
303.8
294.209
285.931
280.038
277.189
276.799
277.65
279.315
280.704
284.466
300.017
393.974
575.469
693.624
769.586
828.856
890.527
947.514
955.901
864.311
785.234
741.322
687.537
611.841
599.188
715.193
1149.13
1330.26
1332.41
1316.3
1305.67
1257.52
1148.12
1003.69
857.414
713.099
553.463
408.979
337.682
315.163
303.801
294.195
286.006
280.199
277.378
276.974
277.806
279.442
280.815
284.581
300.137
394.081
575.222
693.138
769.492
828.526
890.365
947.627
962.724
867.694
769.546
697.073
639.213
605.393
631.314
815.052
1142.29
1272.59
1281.48
1274.35
1254.65
1193.35
1088.09
959.281
828.352
691.825
536.215
399.979
336.001
315.206
303.796
294.176
286.163
280.562
277.823
277.395
278.18
279.75
281.074
284.843
300.407
394.306
574.861
692.224
769.685
827.757
890.009
947.513
968.883
920.217
864.159
783.412
717.991
697.466
763.464
943.779
1139.23
1202.52
1197.91
1198.73
1169.87
1111.12
1019.54
908.374
791.105
660.952
510.908
387.822
333.897
315.249
303.837
294.249
286.455
281.121
278.504
278.058
278.783
280.259
281.507
285.262
300.833
394.635
574.528
691.401
769.606
827.185
890.598
948.213
968.348
904.429
837.091
766.05
735.2
771.695
820.744
955.698
1088.4
1112.63
1140.03
1130.91
1090.58
1032.17
950.796
853.069
746.641
622.127
480.345
374.768
331.9
315.316
303.939
294.434
286.901
281.873
279.4
278.946
279.606
280.974
282.122
285.861
301.45
395.21
574.544
691.084
769.812
827.396
891.684
949.173
964.23
897.212
840.052
799.688
802.786
837.62
890.315
981.493
1022.07
1057.94
1073.56
1046.41
1012.32
958.505
882.407
794.561
697.074
577.523
447.328
362.614
330.196
315.305
304.033
294.69
287.475
282.788
280.479
280.029
280.626
281.878
282.915
286.611
302.228
395.738
574.262
690.433
769.608
827.781
892.736
950.045
966.158
908.163
873.806
858.52
862.873
882.032
922.672
949.443
964.88
996.902
993.237
977.902
940.551
884.402
813.891
736.58
645.637
529.547
415.448
353.08
329.112
315.352
304.188
295.095
288.261
283.938
281.802
281.37
281.912
283.056
283.977
287.676
303.369
397.038
574.935
690.599
770.086
828.961
894.33
951.052
971.262
932.799
918.845
903.459
886.636
883.238
885.075
881.044
916.753
939.795
931.792
905.901
866.215
810.782
749.434
680.895
592.072
480.412
388.764
346.619
328.228
315.236
304.302
295.576
289.188
285.252
283.299
282.894
283.39
284.439
285.262
288.917
304.659
397.924
575.058
690.396
770.175
829.862
895.595
951.648
975.842
950.873
924.757
882.581
847.739
829.823
826.475
858.28
886.415
875.546
861.524
833.824
791.475
743.465
691.748
626.581
535.801
434.703
370.275
343.192
327.927
315.363
304.767
296.517
290.611
287.041
285.258
284.872
285.312
286.269
286.999
290.676
306.551
399.939
576.368
690.888
770.83
831.328
897.272
952.511
946.368
924.999
867.751
839.093
816.714
810.465
823.59
826.601
820.93
812.932
793.283
760.883
723.78
685.544
638.743
570.959
479.665
399.581
360.041
341.407
327.733
315.64
305.548
297.822
292.402
289.182
287.557
287.179
287.562
288.45
289.127
292.821
308.774
401.711
577.416
691.51
771.768
832.996
899.053
953.27
958.366
937.982
886.255
861.416
826.705
805.52
785.942
776.436
766.401
750.083
725.158
695.738
667.463
634.653
585.576
512.247
430.591
378.953
355.645
341.058
328.144
316.475
306.932
299.73
294.732
291.773
290.244
289.829
290.14
290.97
291.627
295.428
311.579
404.516
579.445
692.743
773.519
835.484
901.526
954.611
990.612
945.757
904.561
863.439
825.005
785.216
753.254
730.029
710.234
688.194
663.649
641.546
619.418
585.684
530.419
457.578
398.021
369.282
353.576
340.528
328.011
316.879
307.937
301.288
296.744
294.069
292.654
292.219
292.489
293.333
294.066
297.981
314.245
406.266
580.773
694.05
775.637
838.375
904.188
955.605
988.314
943.933
911.359
880.159
837.053
774.005
718.456
679.406
652.411
630.346
612.415
597.483
575.329
535.004
474.936
416.076
382.612
366.019
354.102
342.254
330.634
320.634
312.834
307.178
303.396
301.27
300.189
299.967
300.375
301.453
302.353
306.648
323.57
417.2
594.149
707.502
786.641
846.114
909.391
957.709
994.053
954.8
929.822
906.232
845.725
763.318
681.109
629.688
602.511
586.804
575.992
561.988
534.94
491.112
439.913
404.267
386.026
375.567
365.787
355.385
345.493
337.327
331.219
327.112
324.661
323.686
323.378
323.95
325.017
326.793
328.005
333.168
351.84
452.269
636.809
745.682
819.077
870.28
920.719
959.686
1003.73
970.091
951.232
929.688
857.842
757.733
652.386
596.688
576.491
571.971
570.841
559.727
529.863
489.632
459.704
448.955
446.997
445.734
442.693
437.921
433.281
430.159
428.483
428.118
428.6
430.334
431.807
434.488
436.897
439.979
441.239
448.237
472.647
594.487
791.465
879.391
922.149
936.214
954.566
966.278
1017.07
991.778
987.505
973.04
917.22
809.886
692.385
645.816
641.37
650.635
656.248
650.224
630.85
612.559
605.957
608.141
612.676
613.975
611.519
606.602
601.503
597.674
594.96
593.844
593.596
594.848
595.995
598.256
600.116
602.61
603.535
611.597
640.736
770
962.682
1039.95
1068.88
1053.65
1023.99
984.681
1025.89
1042.49
1089.25
1114.23
1098.15
1012
875.237
817.138
810.105
811.066
798.717
775.427
751.762
741.124
739.121
740.598
740.063
735.817
728.794
720.516
713.016
706.869
701.969
698.875
696.916
696.576
696.37
696.946
697.529
698.663
698.898
705.511
732.623
838.665
1012.59
1097.37
1136.33
1132.64
1090.9
1015.58
1026.06
1089.17
1175.54
1228.01
1218.86
1143.47
1000.26
923.51
895.38
876.86
853.963
834.551
822.509
819.86
820.532
820.522
817.075
810.368
801.195
791.871
784.069
778.466
774.841
772.555
771.034
770.826
770.731
771.342
772.096
773.504
774.398
779.819
804.252
882.378
1031.68
1122.82
1162.19
1153.14
1101.15
1018.15
1019.84
1099.29
1184.19
1213.52
1206.02
1131.36
1009.27
933.135
897.466
878.574
863.568
857.108
855.545
858.661
862.49
864.128
862.536
857.759
851.639
845.834
841.647
837.862
835.05
833.299
832.562
833.257
834.063
835.559
837.028
839.105
841.066
845.864
863.353
913.84
1024.6
1120.23
1151.76
1151.39
1093.43
992.371
1137.57
952.725
1121.75
1148.84
1156.13
1093.96
1007.3
953.1
925.552
913.566
905.933
905.139
907.256
911.791
915.628
916.869
915.323
911.478
906.851
902.988
901.309
899.613
898.691
898.826
899.452
900.764
901.732
903.122
904.386
906.163
907.937
911.47
919.005
945.957
1007.17
1081.88
1102.76
1096.53
935.913
981.126
9553.18
960.294
1007.01
1043.6
1041.97
1005.31
955.527
929.902
919.441
919.122
921.317
927.629
934.23
940.468
945.069
947.932
949.145
949.166
948.495
947.924
947.882
947.846
948.214
949.151
950.378
951.782
952.673
953.783
954.588
955.806
956.675
958.531
960.055
965.468
979.239
1011.22
1018.78
998.861
976.535
6327.1
9553.18
960.294
1007.01
1043.6
1041.97
1005.31
955.527
929.902
919.441
919.122
921.317
927.629
934.23
940.468
945.069
947.932
949.145
949.166
948.495
947.924
947.882
947.846
948.214
949.151
950.378
951.782
952.673
953.783
954.588
955.806
956.675
958.531
960.055
965.468
979.239
1011.22
1018.78
998.861
976.535
6327.1
1137.57
952.725
1121.75
1148.84
1156.13
1093.96
1007.3
953.1
925.552
913.566
905.933
905.139
907.256
911.791
915.628
916.869
915.323
911.478
906.851
902.988
901.309
899.613
898.691
898.826
899.452
900.764
901.732
903.122
904.386
906.163
907.937
911.47
919.005
945.957
1007.17
1081.88
1102.76
1096.53
935.913
981.126
1019.84
1099.29
1184.19
1213.52
1206.02
1131.36
1009.27
933.135
897.466
878.574
863.568
857.108
855.545
858.661
862.49
864.128
862.536
857.759
851.639
845.834
841.647
837.862
835.05
833.299
832.562
833.257
834.063
835.559
837.028
839.105
841.066
845.864
863.353
913.84
1024.6
1120.23
1151.76
1151.39
1093.43
992.371
1026.06
1089.17
1175.54
1228.01
1218.86
1143.47
1000.26
923.51
895.38
876.86
853.963
834.551
822.509
819.86
820.532
820.522
817.075
810.368
801.195
791.871
784.069
778.466
774.841
772.555
771.034
770.826
770.731
771.342
772.096
773.504
774.398
779.819
804.252
882.378
1031.68
1122.82
1162.19
1153.14
1101.15
1018.15
1025.89
1042.49
1089.25
1114.23
1098.15
1012
875.237
817.138
810.105
811.066
798.717
775.427
751.762
741.124
739.121
740.598
740.063
735.817
728.794
720.516
713.016
706.869
701.969
698.875
696.916
696.576
696.37
696.946
697.529
698.663
698.898
705.511
732.623
838.665
1012.59
1097.37
1136.33
1132.64
1090.9
1015.58
1017.07
991.778
987.505
973.04
917.22
809.886
692.385
645.816
641.37
650.635
656.248
650.224
630.85
612.559
605.957
608.141
612.676
613.975
611.519
606.602
601.503
597.674
594.96
593.844
593.596
594.848
595.995
598.256
600.116
602.61
603.535
611.597
640.736
770
962.682
1039.95
1068.88
1053.65
1023.99
984.681
1003.73
970.091
951.232
929.688
857.842
757.733
652.386
596.688
576.491
571.971
570.841
559.727
529.863
489.632
459.704
448.955
446.997
445.734
442.693
437.921
433.281
430.159
428.483
428.118
428.6
430.334
431.807
434.488
436.897
439.979
441.239
448.237
472.647
594.487
791.465
879.391
922.149
936.214
954.566
966.278
994.053
954.8
929.822
906.232
845.725
763.318
681.109
629.688
602.511
586.804
575.992
561.988
534.94
491.112
439.913
404.267
386.026
375.567
365.787
355.385
345.493
337.327
331.219
327.112
324.661
323.686
323.378
323.95
325.017
326.793
328.005
333.168
351.84
452.269
636.809
745.682
819.077
870.28
920.719
959.686
988.314
943.933
911.359
880.159
837.053
774.005
718.456
679.406
652.411
630.346
612.415
597.483
575.329
535.004
474.936
416.076
382.612
366.019
354.102
342.254
330.634
320.634
312.834
307.178
303.396
301.27
300.189
299.967
300.375
301.453
302.353
306.648
323.57
417.2
594.149
707.502
786.641
846.114
909.391
957.709
990.612
945.757
904.561
863.439
825.005
785.216
753.254
730.029
710.234
688.194
663.649
641.546
619.418
585.684
530.419
457.578
398.021
369.282
353.576
340.528
328.011
316.879
307.937
301.288
296.744
294.069
292.654
292.219
292.489
293.333
294.066
297.981
314.245
406.266
580.773
694.05
775.637
838.375
904.188
955.605
958.366
937.982
886.255
861.416
826.705
805.52
785.942
776.436
766.401
750.083
725.158
695.738
667.463
634.653
585.576
512.247
430.591
378.953
355.645
341.058
328.144
316.475
306.932
299.73
294.732
291.773
290.244
289.829
290.14
290.97
291.627
295.428
311.579
404.516
579.445
692.743
773.519
835.484
901.526
954.611
946.368
924.999
867.751
839.093
816.714
810.465
823.59
826.601
820.93
812.932
793.283
760.883
723.78
685.544
638.743
570.959
479.665
399.581
360.041
341.407
327.733
315.64
305.548
297.822
292.402
289.182
287.557
287.179
287.562
288.45
289.127
292.821
308.774
401.711
577.416
691.51
771.768
832.996
899.053
953.27
975.842
950.873
924.757
882.581
847.739
829.823
826.475
858.28
886.415
875.546
861.524
833.824
791.475
743.465
691.748
626.581
535.801
434.703
370.275
343.192
327.927
315.363
304.767
296.517
290.611
287.041
285.258
284.872
285.312
286.269
286.999
290.676
306.551
399.939
576.368
690.888
770.83
831.328
897.272
952.511
971.262
932.799
918.845
903.459
886.636
883.238
885.075
881.044
916.753
939.795
931.792
905.901
866.215
810.782
749.434
680.895
592.072
480.412
388.764
346.619
328.228
315.236
304.302
295.576
289.188
285.252
283.299
282.894
283.39
284.439
285.262
288.917
304.659
397.924
575.058
690.396
770.175
829.862
895.595
951.648
966.158
908.163
873.806
858.52
862.873
882.032
922.672
949.443
964.88
996.902
993.237
977.902
940.551
884.402
813.891
736.58
645.637
529.547
415.448
353.08
329.112
315.352
304.188
295.095
288.261
283.938
281.802
281.37
281.912
283.056
283.977
287.676
303.369
397.038
574.935
690.599
770.086
828.961
894.33
951.052
964.23
897.212
840.052
799.688
802.786
837.62
890.315
981.493
1022.07
1057.94
1073.56
1046.41
1012.32
958.505
882.407
794.561
697.074
577.523
447.328
362.614
330.196
315.305
304.033
294.69
287.475
282.788
280.479
280.029
280.626
281.878
282.915
286.611
302.228
395.738
574.262
690.433
769.608
827.781
892.736
950.045
968.348
904.429
837.091
766.05
735.2
771.695
820.744
955.698
1088.4
1112.63
1140.03
1130.91
1090.58
1032.17
950.796
853.069
746.641
622.127
480.345
374.768
331.9
315.316
303.939
294.434
286.901
281.873
279.4
278.946
279.606
280.974
282.122
285.861
301.45
395.21
574.544
691.084
769.812
827.396
891.684
949.173
968.883
920.217
864.159
783.412
717.991
697.466
763.464
943.779
1139.23
1202.52
1197.91
1198.73
1169.87
1111.12
1019.54
908.374
791.105
660.952
510.908
387.822
333.897
315.249
303.837
294.249
286.455
281.121
278.504
278.058
278.783
280.259
281.507
285.262
300.833
394.635
574.528
691.401
769.606
827.185
890.598
948.213
962.724
867.694
769.546
697.073
639.213
605.393
631.314
815.052
1142.29
1272.59
1281.48
1274.35
1254.65
1193.35
1088.09
959.281
828.352
691.825
536.215
399.979
336.001
315.206
303.796
294.176
286.163
280.562
277.823
277.395
278.18
279.75
281.074
284.843
300.407
394.306
574.861
692.224
769.685
827.757
890.009
947.513
955.901
864.311
785.234
741.322
687.537
611.841
599.188
715.193
1149.13
1330.26
1332.41
1316.3
1305.67
1257.52
1148.12
1003.69
857.414
713.099
553.463
408.979
337.682
315.163
303.801
294.195
286.006
280.199
277.378
276.974
277.806
279.442
280.815
284.581
300.137
394.081
575.222
693.138
769.492
828.526
890.365
947.627
)
;

boundaryField
{
    inlet
    {
        type            fixedValue;
        value           uniform 10000;
    }
    outlet
    {
        type            fixedValue;
        value           uniform 1000;
    }
    obstacle
    {
        type            zeroGradient;
    }
    empty
    {
        type            empty;
    }
}


// ************************************************************************* //
