/*--------------------------------*- C++ -*----------------------------------*\
| =========                 |                                                 |
| \\      /  F ield         | OpenFOAM: The Open Source CFD Toolbox           |
|  \\    /   O peration     | Version:  v1912                                 |
|   \\  /    A nd           | Website:  www.openfoam.com                      |
|    \\/     M anipulation  |                                                 |
\*---------------------------------------------------------------------------*/
FoamFile
{
    version     2.0;
    format      ascii;
    class       volScalarField;
    location    "4";
    object      p;
}
// * * * * * * * * * * * * * * * * * * * * * * * * * * * * * * * * * * * * * //

dimensions      [0 2 -2 0 0 0 0];


internalField   nonuniform List<scalar> 
10000
(
5.83294e-06
0.000105887
-0.00011709
-0.000706774
-0.00161288
-0.00277902
-0.00414795
-0.0056648
-0.00727979
-0.00894889
-0.0106334
-0.0122998
-0.0139185
-0.0154642
-0.0169147
-0.0182513
-0.0194575
-0.0205196
-0.0214261
-0.0221672
-0.0227352
-0.0231238
-0.0233284
-0.0233455
-0.0231732
-0.0228104
-0.0222571
-0.0215145
-0.0205845
-0.0194699
-0.0181742
-0.0167016
-0.0150571
-0.0132462
-0.011275
-0.00915016
-0.00687881
-0.00446857
-0.00192747
0.000736004
0.00351302
0.00639439
0.00937057
0.0124318
0.0155679
0.0187685
0.022023
0.0253207
0.0286506
0.0320015
0.0353621
0.0387212
0.0420672
0.0453888
0.0486745
0.0519127
0.0550923
0.0582019
0.0612304
0.0641669
0.0670007
0.0697214
0.0723189
0.0747835
0.0771059
0.0792773
0.0812894
0.0831345
0.0848056
0.0862963
0.0876011
0.0887152
0.0896348
0.090357
0.09088
0.091203
0.0913265
0.0912523
0.0909832
0.090524
0.0898805
0.0890605
0.0880735
0.0869309
0.0856459
0.0842343
0.0827141
0.0811061
0.0794339
0.0777243
0.076008
0.0743195
0.0726977
0.0711864
0.0698345
0.0686948
0.0678215
0.0672659
0.0670707
0.0671819
-8.55971e-05
1.12823e-05
-0.000206091
-0.000733064
-0.00151851
-0.00252285
-0.00370415
-0.00501905
-0.00642628
-0.00788801
-0.00937006
-0.0108419
-0.0122764
-0.0136498
-0.0149412
-0.0161322
-0.0172073
-0.0181528
-0.0189574
-0.0196112
-0.0201066
-0.020437
-0.0205975
-0.0205845
-0.0203956
-0.0200293
-0.0194854
-0.0187645
-0.0178682
-0.0167988
-0.0155593
-0.0141536
-0.0125861
-0.0108618
-0.00898634
-0.00696592
-0.00480718
-0.0025172
-0.000103548
0.00242584
0.00506263
0.00779814
0.0106234
0.013529
0.0165055
0.0195431
0.0226316
0.0257608
0.0289204
0.0320998
0.0352882
0.0384749
0.0416491
0.0447999
0.0479165
0.0509881
0.0540038
0.0569531
0.0598255
0.0626107
0.0652987
0.0678796
0.0703441
0.072683
0.0748876
0.0769499
0.078862
0.0806169
0.0822082
0.0836301
0.0848776
0.0859464
0.0868331
0.0875355
0.0880521
0.0883825
0.0885275
0.0884892
0.0882709
0.0878771
0.0873142
0.0865898
0.0857132
0.0846957
0.0835503
0.0822921
0.0809385
0.0795091
0.0780264
0.0765152
0.0750037
0.0735229
0.0721073
0.0707943
0.0696243
0.068639
0.0678776
0.0673761
0.0671813
0.067293
0.000138549
0.000229759
1.25035e-05
-0.000482228
-0.00119908
-0.00210509
-0.00316627
-0.0043465
-0.00561069
-0.00692594
-0.00826193
-0.00959109
-0.0108886
-0.0121322
-0.0133025
-0.014382
-0.0153557
-0.0162105
-0.0169353
-0.0175206
-0.0179587
-0.0182429
-0.0183685
-0.0183314
-0.0181292
-0.0177603
-0.017224
-0.0165208
-0.0156518
-0.014619
-0.0134253
-0.0120739
-0.010569
-0.00891531
-0.00711796
-0.00518276
-0.00311596
-0.000924261
0.00138522
0.00380494
0.00632701
0.00894318
0.0116449
0.0144232
0.0172691
0.0201732
0.0231259
0.0261173
0.0291377
0.0321768
0.0352244
0.0382703
0.0413042
0.0443156
0.0472943
0.0502299
0.0531121
0.0559309
0.0586763
0.0613385
0.0639079
0.0663754
0.0687319
0.0709689
0.0730782
0.0750521
0.0768834
0.0785655
0.0800925
0.0814588
0.0826601
0.0836924
0.0845527
0.0852391
0.0857503
0.0860863
0.0862482
0.0862382
0.0860596
0.0857172
0.0852172
0.0845671
0.0837762
0.0828552
0.0818169
0.0806757
0.0794482
0.0781528
0.0768105
0.0754445
0.0740805
0.0727464
0.0714729
0.0702924
0.0692394
0.0683486
0.067652
0.0671799
0.0669857
0.0670986
0.000727338
0.000757748
0.000508222
1.26503e-05
-0.00067778
-0.00153319
-0.00252397
-0.00361893
-0.00478762
-0.00600119
-0.00723268
-0.00845726
-0.00965231
-0.0107974
-0.0118744
-0.012867
-0.013761
-0.0145439
-0.0152051
-0.0157355
-0.0161272
-0.0163742
-0.0164714
-0.0164149
-0.0162021
-0.0158313
-0.0153018
-0.0146136
-0.0137679
-0.0127663
-0.0116113
-0.0103061
-0.00885442
-0.00726066
-0.00552971
-0.00366701
-0.00167848
0.000429535
0.00265025
0.00497651
0.00740078
0.00991519
0.0125115
0.0151814
0.0179159
0.0207062
0.023543
0.026417
0.0293187
0.0322384
0.0351662
0.0380923
0.0410068
0.0438998
0.0467612
0.0495814
0.0523504
0.0550586
0.0576964
0.0602544
0.0627237
0.0650953
0.0673607
0.0695117
0.0715407
0.0734403
0.0752037
0.0768246
0.0782975
0.0796172
0.0807797
0.0817813
0.0826193
0.0832919
0.0837983
0.0841385
0.0843137
0.0843262
0.0841794
0.083878
0.0834281
0.0828371
0.0821138
0.0812687
0.0803139
0.0792631
0.0781319
0.0769377
0.0757
0.0744401
0.0731813
0.0719491
0.0707705
0.0696744
0.0686904
0.067849
0.0671782
0.066706
0.0664838
0.0665455
0.00163378
0.00154601
0.00122734
0.000702284
9.33662e-06
-0.000824869
-0.0017743
-0.00281214
-0.00391209
-0.00504895
-0.00619891
-0.00733982
-0.00845127
-0.00951469
-0.0105133
-0.0114321
-0.0122578
-0.0129787
-0.0135846
-0.0140669
-0.0144182
-0.0146325
-0.0147048
-0.0146315
-0.0144097
-0.0140379
-0.013515
-0.0128412
-0.0120173
-0.0110448
-0.00992594
-0.00866371
-0.00726158
-0.00572365
-0.00405451
-0.00225932
-0.000343657
0.00168642
0.00382446
0.00606364
0.00839678
0.0108164
0.0133145
0.0158832
0.018514
0.0211983
0.0239272
0.0266919
0.0294831
0.0322916
0.0351079
0.0379227
0.0407263
0.0435092
0.0462619
0.0489749
0.0516389
0.0542446
0.0567828
0.0592445
0.0616211
0.0639041
0.0660853
0.0681571
0.070112
0.071943
0.0736438
0.0752083
0.0766314
0.0779082
0.0790349
0.080008
0.0808253
0.081485
0.0819863
0.0823296
0.082516
0.0825479
0.0824287
0.0821629
0.0817564
0.0812164
0.0805514
0.0797712
0.0788874
0.0779128
0.0768621
0.0757514
0.0745987
0.0734233
0.0722466
0.0710911
0.069981
0.0689415
0.0679985
0.0671784
0.066506
0.0660066
0.0657209
0.0656747
0.00280468
0.00255751
0.00213909
0.00155887
0.000837687
-1.20663e-06
-0.000934928
-0.00194067
-0.0029959
-0.00407875
-0.00516836
-0.00624511
-0.00729077
-0.00828857
-0.00922325
-0.010081
-0.0108497
-0.0115183
-0.0120774
-0.0125188
-0.0128355
-0.0130218
-0.0130729
-0.0129854
-0.0127565
-0.0123844
-0.0118684
-0.0112083
-0.0104048
-0.00945941
-0.00837411
-0.00715165
-0.00579532
-0.00430897
-0.00269695
-0.000964124
0.0008842
0.00284227
0.00490393
0.00706265
0.00931158
0.0116435
0.014051
0.0165262
0.0190611
0.0216475
0.0242769
0.0269406
0.0296299
0.0323358
0.0350494
0.0377614
0.0404629
0.0431445
0.0457971
0.0484117
0.0509792
0.0534907
0.0559374
0.0583107
0.0606024
0.0628043
0.0649085
0.0669077
0.0687949
0.0705633
0.0722069
0.07372
0.0750975
0.0763351
0.0774289
0.078376
0.0791739
0.0798212
0.0803174
0.0806626
0.0808581
0.0809062
0.0808103
0.0805746
0.0802049
0.0797079
0.0790918
0.0783658
0.0775408
0.0766287
0.0756432
0.0745991
0.0735128
0.072402
0.0712857
0.0701842
0.0691186
0.0681111
0.0671841
0.0663601
0.0656613
0.06511
0.0647307
0.0645354
0.00418701
0.00375368
0.00321232
0.0025553
0.0017836
0.000917226
-2.36456e-05
-0.00101986
-0.0020523
-0.00310211
-0.00415116
-0.00518221
-0.00617909
-0.0071268
-0.00801159
-0.00882096
-0.00954367
-0.0101698
-0.0106904
-0.0110981
-0.0113862
-0.0115495
-0.0115833
-0.0114844
-0.0112501
-0.0108789
-0.0103698
-0.00972283
-0.00893848
-0.00801809
-0.00696362
-0.00577762
-0.0044632
-0.003024
-0.00146418
0.000211676
0.00199849
0.00389079
0.0058827
0.00796797
0.01014
0.0123919
0.0147166
0.0171065
0.019554
0.022051
0.0245896
0.0271612
0.0297576
0.0323701
0.0349901
0.0376087
0.0402172
0.0428067
0.0453684
0.0478936
0.0503735
0.0527996
0.0551635
0.0574569
0.0596718
0.0618003
0.063835
0.0657687
0.0675948
0.0693067
0.0708988
0.0723655
0.073702
0.0749041
0.0759682
0.0768914
0.0776716
0.0783073
0.078798
0.0791439
0.0793464
0.0794075
0.0793304
0.0791194
0.0787797
0.0783178
0.0777413
0.0770589
0.0762806
0.0754177
0.0744825
0.0734887
0.0724512
0.0713859
0.0703099
0.0692411
0.0681982
0.0672003
0.0662667
0.0654166
0.0646696
0.0640452
0.0635492
0.0631774
0.00573075
0.00509503
0.00441417
0.00366329
0.00282289
0.00191014
0.000942884
-6.30184e-05
-0.00109152
-0.00212654
-0.00315241
-0.00415411
-0.00511743
-0.00602906
-0.00687673
-0.00764919
-0.00833627
-0.0089289
-0.00941906
-0.00979975
-0.010065
-0.0102098
-0.0102299
-0.0101224
-0.00988464
-0.00951523
-0.00901333
-0.00837885
-0.00761238
-0.00671514
-0.00568899
-0.00453633
-0.00326016
-0.00186393
-0.000351617
0.00127238
0.00300324
0.00483572
0.00676419
0.00878266
0.0108848
0.013064
0.0153134
0.0176258
0.0199938
0.0224098
0.0248658
0.027354
0.0298662
0.032394
0.0349291
0.0374631
0.0399875
0.0424937
0.0449733
0.0474178
0.0498187
0.0521679
0.0544571
0.0566785
0.0588243
0.0608869
0.0628592
0.0647342
0.0665055
0.0681668
0.0697126
0.0711377
0.0724374
0.0736077
0.074645
0.0755467
0.0763105
0.0769352
0.0774202
0.0777658
0.0779731
0.0780441
0.0779819
0.0777904
0.0774745
0.0770402
0.0764947
0.0758461
0.0751036
0.0742775
0.0733791
0.072421
0.0714165
0.0703799
0.0693265
0.0682719
0.0672327
0.0662252
0.0652659
0.0643709
0.0635577
0.0628433
0.0622138
0.0616486
0.00739138
0.0065445
0.00571302
0.0048554
0.00393197
0.00295749
0.00194793
0.000916189
-0.000124453
-0.00116038
-0.0021782
-0.00316491
-0.00410815
-0.00499623
-0.00581826
-0.00656424
-0.00722507
-0.00779256
-0.00825946
-0.00861944
-0.00886705
-0.00899771
-0.00900768
-0.00889402
-0.00865458
-0.00828795
-0.00779344
-0.00717101
-0.00642126
-0.0055454
-0.00454519
-0.00342296
-0.00218156
-0.000824343
0.0006449
0.00222193
0.00390212
0.00568044
0.0075515
0.00950954
0.0115485
0.013662
0.0158433
0.0180857
0.0203819
0.0227246
0.0251062
0.027519
0.0299552
0.0324067
0.0348655
0.0373233
0.039772
0.0422034
0.0446092
0.0469813
0.0493114
0.0515917
0.0538142
0.0559712
0.0580553
0.0600591
0.0619757
0.0637984
0.0655209
0.0671373
0.068642
0.0700301
0.071297
0.0724389
0.0734522
0.0743344
0.0750834
0.0756977
0.0761769
0.0765211
0.0767314
0.0768096
0.0767584
0.0765816
0.0762838
0.0758704
0.0753481
0.0747243
0.0740075
0.0732072
0.0723335
0.0713979
0.0704124
0.0693897
0.0683433
0.067287
0.066235
0.0652017
0.0642007
0.0632454
0.0623517
0.0615343
0.0607598
0.0599918
0.00913022
0.00806856
0.00707954
0.00610584
0.00508829
0.00403981
0.00297487
0.00190379
0.000837381
-0.000212953
-0.00123584
-0.00222017
-0.00315525
-0.00403091
-0.00483762
-0.00556655
-0.00620964
-0.00675958
-0.00720991
-0.00755495
-0.00778982
-0.00791039
-0.00791333
-0.00779599
-0.00755646
-0.00719352
-0.00670659
-0.00609574
-0.0053616
-0.00450539
-0.00352885
-0.00243423
-0.0012243
9.77291e-05
0.00152817
0.00306294
0.00469757
0.0064272
0.00824666
0.0101504
0.0121326
0.0141871
0.0163074
0.0184869
0.0207187
0.0229957
0.0253107
0.027656
0.0300242
0.0324075
0.0347981
0.0371879
0.0395692
0.0419338
0.044274
0.0465816
0.0488489
0.051068
0.0532313
0.0553314
0.0573609
0.0593128
0.0611803
0.0629569
0.0646365
0.0662132
0.0676818
0.0690374
0.0702754
0.0713922
0.0723843
0.0732492
0.0739846
0.0745893
0.0750626
0.0754046
0.0756162
0.075699
0.0756555
0.0754892
0.0752041
0.0748055
0.0742992
0.0736921
0.072992
0.0722074
0.0713477
0.0704229
0.0694439
0.068422
0.067369
0.0662971
0.0652186
0.0641456
0.0630896
0.0620616
0.0610761
0.060146
0.0592193
0.0582443
0.0109139
0.00963722
0.00848687
0.00739056
0.00627058
0.00513843
0.00400753
0.00288593
0.00178229
0.000706058
-0.000333222
-0.00132613
-0.00226352
-0.00313662
-0.00393719
-0.00465751
-0.00529052
-0.0058298
-0.00626964
-0.006605
-0.00683158
-0.00694576
-0.00694457
-0.00682574
-0.00658761
-0.00622915
-0.00574995
-0.00515017
-0.00443054
-0.0035923
-0.0026372
-0.00156746
-0.000385771
0.000904738
0.0023005
0.00379755
0.00539155
0.00707781
0.00885131
0.0107067
0.0126384
0.0146403
0.0167064
0.01883
0.0210047
0.0232234
0.0254791
0.0277647
0.0300727
0.0323955
0.0347257
0.0370555
0.0393772
0.0416831
0.0439654
0.0462164
0.0484284
0.0505939
0.0527054
0.0547557
0.0567375
0.0586442
0.0604689
0.0622054
0.0638477
0.0653901
0.0668274
0.0681547
0.0693678
0.0704628
0.0714364
0.072286
0.0730094
0.0736053
0.0740728
0.0744119
0.0746234
0.0747086
0.0746698
0.07451
0.074233
0.0738434
0.0733467
0.0727491
0.0720575
0.0712798
0.0704242
0.0694999
0.0685165
0.0674839
0.0664127
0.0653133
0.0641963
0.0630721
0.0619503
0.0608396
0.0597536
0.058704
0.0576208
0.056438
0.0127135
0.0112239
0.00991063
0.00868743
0.00745891
0.00623564
0.0050303
0.00384903
0.00269862
0.00158677
0.000521425
-0.000489528
-0.00143834
-0.00231756
-0.00312008
-0.00383929
-0.00446907
-0.00500384
-0.00543863
-0.00576908
-0.00599141
-0.00610251
-0.00609984
-0.00598146
-0.00574601
-0.00539269
-0.00492127
-0.00433202
-0.00362578
-0.00280384
-0.00186799
-0.000820446
0.000336148
0.00159872
0.00296381
0.00442755
0.00598571
0.00763374
0.00936676
0.0111796
0.0130667
0.0150225
0.0170408
0.0191154
0.0212399
0.0234074
0.0256113
0.0278444
0.0300997
0.0323698
0.0346472
0.0369247
0.0391945
0.0414493
0.0436813
0.0458832
0.0480474
0.0501666
0.0522335
0.0542408
0.0561818
0.0580496
0.0598377
0.06154
0.0631506
0.0646638
0.0660745
0.0673779
0.0685697
0.0696462
0.0706041
0.0714405
0.0721535
0.0727414
0.0732034
0.0735392
0.0737494
0.0738351
0.0737982
0.0736416
0.0733685
0.072983
0.0724902
0.0718955
0.0712052
0.0704264
0.0695664
0.0686335
0.067636
0.0665829
0.0654832
0.0643461
0.0631807
0.0619958
0.0607992
0.059598
0.058405
0.0572312
0.0559897
0.0546005
0.0145044
0.012805
0.0113289
0.00997615
0.00863478
0.00731475
0.00602828
0.00477993
0.00357484
0.00241924
0.00131962
0.000282511
-0.000685614
-0.00157847
-0.00239007
-0.00311477
-0.00374735
-0.00428308
-0.00471769
-0.00504743
-0.00526912
-0.0053801
-0.00537825
-0.00526202
-0.00503034
-0.00468266
-0.00421894
-0.00363961
-0.00294559
-0.00213828
-0.0012195
-0.000191498
0.000943098
0.00218126
0.00351958
0.0049543
0.00648129
0.0080961
0.00979397
0.0115699
0.0134184
0.0153341
0.0173111
0.0193432
0.0214242
0.0235476
0.0257067
0.0278946
0.0301044
0.0323291
0.0345613
0.0367939
0.0390194
0.0412304
0.0434197
0.0455798
0.0477034
0.0497834
0.0518125
0.0537838
0.0556904
0.0575257
0.0592833
0.0609572
0.0625413
0.0640304
0.0654191
0.0667029
0.0678773
0.0689386
0.0698834
0.070709
0.0714131
0.0719941
0.072451
0.0727833
0.0729913
0.073076
0.0730389
0.0728824
0.0726094
0.0722237
0.0717296
0.0711321
0.0704368
0.0696499
0.0687781
0.0678285
0.0668087
0.0657264
0.0645896
0.0634062
0.062184
0.0609305
0.059652
0.0583541
0.0570494
0.0557484
0.054348
0.0527553
0.0162648
0.0143598
0.0127218
0.0112382
0.00978106
0.00836007
0.00698728
0.00566589
0.00439966
0.00319353
0.00205274
0.00098258
-1.16091e-05
-0.000924623
-0.00175146
-0.00248742
-0.00312812
-0.00366958
-0.00410826
-0.00444102
-0.00466521
-0.00477865
-0.00477964
-0.00466698
-0.00443993
-0.00409821
-0.00364197
-0.00307183
-0.00238882
-0.00159443
-0.000690539
0.000320568
0.00143624
0.00265346
0.00396887
0.00537878
0.00687916
0.00846564
0.0101336
0.011878
0.0136937
0.0155754
0.0175172
0.0195132
0.0215574
0.0236434
0.0257646
0.0279144
0.030086
0.0322724
0.0344666
0.0366615
0.03885
0.0410246
0.0431783
0.0453038
0.047394
0.0494416
0.0514398
0.0533816
0.0552604
0.0570694
0.0588024
0.0604534
0.0620166
0.0634864
0.0648579
0.0661261
0.0672869
0.0683363
0.069271
0.0700881
0.0707852
0.0713605
0.0718129
0.0721417
0.072347
0.0724294
0.0723902
0.0722313
0.0719554
0.0715657
0.0710659
0.0704606
0.0697547
0.0689536
0.0680633
0.0670902
0.0660408
0.064922
0.0637407
0.0625037
0.0612177
0.0598892
0.058523
0.0571238
0.055704
0.0542739
0.0527152
0.0509226
0.017976
0.0158697
0.0140715
0.0124567
0.0108819
0.00935693
0.00789384
0.0064947
0.00516209
0.00389985
0.00271211
0.00160309
0.000577099
-0.000361639
-0.00120904
-0.00196123
-0.00261464
-0.00316601
-0.00361244
-0.00395142
-0.00418082
-0.00429891
-0.00430443
-0.00419651
-0.00397472
-0.00363907
-0.00318995
-0.00262814
-0.00195483
-0.00117159
-0.000280379
0.000716468
0.00181627
0.00301599
0.00431232
0.00570158
0.00717981
0.00874275
0.0103858
0.0121042
0.0138928
0.0157462
0.017659
0.0196252
0.0216391
0.0236942
0.0257843
0.0279029
0.0300431
0.0321984
0.0343617
0.0365261
0.0386846
0.04083
0.0429552
0.0450531
0.0471167
0.0491389
0.0511128
0.0530317
0.0548888
0.0566777
0.058392
0.0600258
0.0615732
0.0630289
0.0643876
0.0656446
0.0667956
0.0678365
0.068764
0.0695749
0.0702669
0.070838
0.0712868
0.0716124
0.0718147
0.071894
0.0718512
0.071688
0.0714065
0.0710095
0.0705003
0.0698828
0.0691615
0.068341
0.0674266
0.066424
0.0653389
0.0641773
0.0629451
0.0616484
0.0602929
0.058884
0.0574257
0.0559216
0.0543843
0.0528242
0.0511083
0.0491197
0.0196213
0.0173183
0.015362
0.0136161
0.0119227
0.0102916
0.00873523
0.00725465
0.00585145
0.00452854
0.00328907
0.00213634
0.00107371
0.000104537
-0.000767935
-0.00154062
-0.00221067
-0.00277551
-0.00323286
-0.00358078
-0.00381765
-0.00394222
-0.0039536
-0.0038513
-0.0036352
-0.00330556
-0.00286301
-0.00230854
-0.00164349
-0.000869554
1.12321e-05
0.000996478
0.00208346
0.00326913
0.00455015
0.00592288
0.00738341
0.00892753
0.0105508
0.0122484
0.0140153
0.0158463
0.017736
0.0196786
0.0216684
0.0236992
0.0257649
0.0278589
0.0299747
0.0321057
0.0342451
0.036386
0.0385215
0.0406446
0.0427483
0.0448255
0.0468694
0.0488728
0.0508291
0.0527314
0.0545732
0.0563479
0.0580493
0.0596714
0.0612084
0.0626548
0.0640054
0.0652555
0.0664005
0.0674365
0.0683598
0.0691672
0.0698563
0.0704247
0.070871
0.0711941
0.0713934
0.071469
0.0714217
0.0712525
0.0709633
0.0705563
0.0700345
0.0694013
0.0686603
0.067816
0.0668727
0.0658355
0.0647094
0.0634996
0.0622114
0.0608499
0.0594201
0.0579265
0.0563725
0.0547608
0.0531044
0.0514139
0.0495424
0.0473617
0.0211862
0.0186907
0.0165787
0.0147023
0.0128898
0.0111513
0.00949938
0.00793451
0.0064574
0.00507012
0.00377501
0.00257455
0.00147126
0.000467709
-0.000433632
-0.0012304
-0.00192041
-0.00250171
-0.00297263
-0.00333174
-0.00357793
-0.00371042
-0.0037287
-0.00363261
-0.00342235
-0.00309845
-0.00266176
-0.0021135
-0.00145516
-0.000688581
0.00018411
0.00116046
0.00223769
0.00341273
0.00468222
0.00604253
0.00748975
0.00901974
0.0106281
0.0123101
0.0140608
0.0158751
0.0177476
0.0196727
0.0216447
0.0236575
0.0257052
0.0277813
0.0298794
0.0319929
0.0341152
0.0362394
0.0383588
0.0404665
0.0425555
0.0446189
0.0466497
0.0486411
0.0505862
0.0524783
0.0543109
0.0560775
0.0577718
0.0593878
0.0609196
0.0623618
0.063709
0.0649564
0.0660994
0.067134
0.0680563
0.068863
0.0695514
0.0701191
0.0705643
0.0708856
0.0710823
0.0711542
0.0711016
0.0709253
0.0706268
0.0702078
0.0696708
0.0690187
0.0682548
0.0673827
0.0664065
0.0653304
0.0641589
0.0628965
0.0615477
0.0601172
0.0586091
0.0570275
0.0553749
0.0536535
0.0518769
0.0500561
0.0480307
0.0456616
0.0226574
0.0199737
0.0177083
0.0157024
0.0137707
0.0119238
0.0101749
0.00852355
0.00696991
0.00551532
0.00416142
0.00290993
0.00176267
0.000721479
-0.00021187
-0.00103568
-0.00174839
-0.00234863
-0.00283527
-0.0032074
-0.00346439
-0.00360586
-0.00363172
-0.00354216
-0.00333766
-0.00301901
-0.00258731
-0.00204396
-0.00139066
-0.000629375
0.00023764
0.00120785
0.00227844
0.0034463
0.00470803
0.00606
0.00749831
0.00901881
0.0106172
0.0122887
0.0140286
0.0158318
0.0176929
0.0196064
0.0215667
0.0235679
0.0256039
0.0276686
0.0297556
0.0318584
0.0339703
0.0360847
0.0381949
0.0402939
0.0423749
0.0444311
0.0464556
0.0484414
0.0503818
0.0522701
0.0540997
0.0558641
0.057557
0.0591725
0.0607044
0.0621474
0.0634959
0.0647451
0.0658903
0.0669272
0.0678518
0.0686608
0.0693511
0.0699201
0.0703658
0.0706866
0.0708814
0.0709498
0.0708917
0.0707076
0.0703985
0.0699658
0.0694116
0.0687382
0.0679485
0.0670457
0.0660331
0.0649145
0.0636938
0.062375
0.0609621
0.059459
0.0578695
0.0561969
0.0544436
0.052611
0.0507134
0.0487625
0.0465849
0.0440308
0.0240233
0.0211551
0.0187386
0.0166041
0.0145535
0.0125978
0.0107508
0.00901142
0.00737926
0.00585506
0.00443984
0.00313468
0.00194077
0.000859282
-0.000108625
-0.000961871
-0.00169949
-0.00232065
-0.00282472
-0.00321128
-0.00348014
-0.00363133
-0.00366515
-0.00358213
-0.00338305
-0.00306895
-0.00264117
-0.0021013
-0.00145122
-0.000693063
0.000170796
0.00113772
0.00220483
0.00336898
0.00462674
0.00597445
0.00740821
0.00892388
0.0105171
0.0121833
0.0139177
0.0157152
0.0175707
0.0194786
0.0214333
0.023429
0.0254598
0.0275195
0.0296019
0.0317005
0.0338087
0.03592
0.0380276
0.0401247
0.0422045
0.0442602
0.0462849
0.0482717
0.0502138
0.0521045
0.0539373
0.0557055
0.0574029
0.0590233
0.0605608
0.0620097
0.0633644
0.0646199
0.0657714
0.0668145
0.067745
0.0685593
0.0692542
0.0698269
0.070275
0.0705968
0.0707908
0.0708563
0.0707928
0.0706006
0.0702802
0.0698328
0.0692598
0.0685633
0.0677456
0.0668093
0.0657576
0.0645936
0.0633207
0.0619425
0.0604623
0.0588838
0.0572101
0.0554444
0.0535885
0.0516435
0.0496245
0.0475438
0.0452156
0.0424795
0.025273
0.0222238
0.0196582
0.0173963
0.0152273
0.0131626
0.0112167
0.00938819
0.00767601
0.00608043
0.00460192
0.00324102
0.00199831
0.000874423
-0.00013007
-0.00101465
-0.00177888
-0.00242247
-0.00294525
-0.00334726
-0.0036287
-0.00379003
-0.00383188
-0.00375513
-0.00356087
-0.0032504
-0.00282527
-0.00228729
-0.00163849
-0.000881167
-1.78415e-05
0.000948742
0.00201561
0.00317957
0.00443717
0.00578471
0.00721829
0.00873375
0.0103267
0.0119927
0.0137269
0.0155243
0.0173798
0.0192878
0.021243
0.0232394
0.0252712
0.0273324
0.0294166
0.0315175
0.0336287
0.0357435
0.0378552
0.0399571
0.0420423
0.0441041
0.0461355
0.0481298
0.05008
0.0519795
0.0538216
0.0555997
0.0573074
0.0589385
0.0604869
0.0619468
0.0633127
0.0645792
0.0657414
0.0667947
0.0677347
0.0685577
0.0692602
0.0698392
0.070292
0.0706165
0.0708111
0.0708746
0.0708064
0.0706062
0.0702743
0.0698114
0.0692186
0.0684975
0.0676501
0.0666786
0.0655855
0.0643737
0.0630461
0.0616059
0.060056
0.0583996
0.0566396
0.054779
0.0528189
0.0507607
0.0486199
0.0464098
0.0439321
0.0410166
0.0263966
0.0231693
0.0204566
0.0180685
0.0157815
0.0136079
0.0115627
0.00964426
0.00785096
0.00618267
0.00463939
0.00322114
0.001928
0.000760086
-0.000282548
-0.00119989
-0.00199202
-0.00265911
-0.00320148
-0.00361956
-0.00391396
-0.00408551
-0.00413518
-0.00406418
-0.00387389
-0.00356589
-0.00314195
-0.00260407
-0.00195446
-0.00119557
-0.000330058
0.000639213
0.00170917
0.00287654
0.00413783
0.00548933
0.0069271
0.00844699
0.0100446
0.0117154
0.0134547
0.0152574
0.0171185
0.0190326
0.0209941
0.0229974
0.0250365
0.0271053
0.0291978
0.0313076
0.0334282
0.0355531
0.0376756
0.0397889
0.0418862
0.0439607
0.0460054
0.0480137
0.0499785
0.0518931
0.0537507
0.0555447
0.0572686
0.058916
0.0604809
0.0619572
0.0633392
0.0646215
0.065799
0.0668667
0.0678203
0.0686556
0.0693689
0.069957
0.0704169
0.0707463
0.0709432
0.0710061
0.0709341
0.0707264
0.0703831
0.0699045
0.0692914
0.0685449
0.0676666
0.0666583
0.0655222
0.0642607
0.0628764
0.0613721
0.0597505
0.0580143
0.0561663
0.0542091
0.0521438
0.0499714
0.0477086
0.0453693
0.0427432
0.0396502
0.0273848
0.023982
0.021124
0.0186106
0.0162062
0.0139239
0.0117792
0.0097703
0.00789512
0.00615316
0.00454401
0.00306725
0.00172248
0.000509346
-0.000572558
-0.00152369
-0.00234458
-0.00303588
-0.00359831
-0.00403273
-0.00434014
-0.00452168
-0.00457868
-0.00451265
-0.00432525
-0.00401833
-0.00359391
-0.00305417
-0.00240151
-0.00163852
-0.00076798
0.000207106
0.00128356
0.00245802
0.00372694
0.00508656
0.00653293
0.00806186
0.00966899
0.0113497
0.0130994
0.0149129
0.0167853
0.0187111
0.020685
0.0227011
0.0247536
0.0268366
0.0289437
0.0310688
0.0332054
0.035347
0.0374868
0.0396182
0.0417342
0.043828
0.0458927
0.0479214
0.0499072
0.0518432
0.0537226
0.0555386
0.0572847
0.0589544
0.0605413
0.0620395
0.0634429
0.0647459
0.0659433
0.06703
0.0680011
0.0688525
0.0695802
0.0701805
0.0706504
0.0709871
0.0711884
0.0712524
0.0711778
0.0709637
0.0706096
0.0701155
0.0694819
0.0687095
0.0677996
0.0667535
0.0655732
0.0642607
0.0628182
0.0612482
0.0595532
0.0577357
0.0557982
0.0537431
0.0515715
0.0492843
0.0468991
0.0444306
0.0416569
0.0383877
0.0282288
0.0246527
0.0216508
0.019013
0.016492
0.0141011
0.011857
0.00975724
0.00779967
0.00598339
0.00430762
0.00277154
0.00137432
0.000115165
-0.00100675
-0.00199231
-0.00284248
-0.00355831
-0.00414094
-0.00459164
-0.00491175
-0.00510278
-0.00516634
-0.00510424
-0.00491842
-0.004611
-0.00418421
-0.00364047
-0.00298234
-0.00221256
-0.00133405
-0.000349927
0.000736522
0.00192183
0.00320238
0.00457435
0.00603376
0.00757642
0.00919793
0.0108937
0.012659
0.0144888
0.0163781
0.0183215
0.0203135
0.0223486
0.0244208
0.026524
0.0286523
0.0307991
0.0329582
0.035123
0.0372868
0.0394428
0.0415841
0.0437039
0.0457951
0.0478508
0.0498641
0.051828
0.0537355
0.0555798
0.0573542
0.059052
0.0606668
0.0621923
0.0636225
0.0649515
0.0661737
0.0672839
0.0682771
0.0691486
0.0698944
0.0705104
0.0709934
0.0713402
0.0715482
0.0716154
0.0715399
0.0713207
0.0709568
0.0704479
0.0697941
0.0689958
0.0680539
0.0669696
0.0657442
0.0643797
0.0628779
0.061241
0.0594713
0.0575711
0.0555429
0.0533889
0.0511101
0.0487074
0.0461993
0.0436016
0.0406806
0.0372361
0.0289203
0.0251726
0.022028
0.0192667
0.0166295
0.0141304
0.0117868
0.00959618
0.00755594
0.00566494
0.00392208
0.00232617
0.000876007
-0.000429615
-0.00159193
-0.00261221
-0.00349182
-0.00423219
-0.00483485
-0.00530144
-0.00563366
-0.00583335
-0.00590244
-0.00584299
-0.00565722
-0.00534748
-0.00491626
-0.00436618
-0.00369999
-0.00292058
-0.00203102
-0.00103453
6.54973e-05
0.0012655
0.00256175
0.00395038
0.00542735
0.00698843
0.00862923
0.0103451
0.0121314
0.0139829
0.0158948
0.0178615
0.0198777
0.0219377
0.0240356
0.0261655
0.0283212
0.0304963
0.0326844
0.034879
0.0370733
0.0392606
0.0414339
0.0435863
0.0457107
0.0478001
0.0498474
0.0518456
0.0537876
0.0556665
0.0574754
0.0592074
0.060856
0.0624147
0.0638772
0.0652374
0.0664896
0.0676282
0.068648
0.0695441
0.070312
0.0709475
0.071447
0.0718069
0.0720245
0.0720972
0.072023
0.0718004
0.0714281
0.0709054
0.0702322
0.0694084
0.0684347
0.0673119
0.0660411
0.0646239
0.063062
0.0613574
0.059512
0.0575282
0.0554082
0.0531543
0.0507675
0.0482485
0.0456171
0.0428898
0.0398214
0.0362019
0.0294513
0.0255332
0.0222469
0.0193628
0.0166097
0.0140028
0.0115599
0.00927836
0.00715533
0.00518942
0.00337925
0.00172328
0.000219967
-0.00113227
-0.00233505
-0.00339002
-0.00429891
-0.00506352
-0.00568574
-0.00616755
-0.006511
-0.00671826
-0.00679155
-0.00673322
-0.00654574
-0.00623168
-0.00579377
-0.00523483
-0.00455782
-0.00376579
-0.00286195
-0.00184963
-0.000732342
0.000486269
0.00180239
0.00321205
0.00471116
0.00629544
0.00796047
0.00970163
0.0115141
0.0133929
0.015333
0.0173288
0.0193751
0.0214661
0.023596
0.0257588
0.0279483
0.0301581
0.0323818
0.0346127
0.0368443
0.0390695
0.0412815
0.0434732
0.0456375
0.0477672
0.0498552
0.0518943
0.0538774
0.0557973
0.0576469
0.0594194
0.0611079
0.0627056
0.0642061
0.0656032
0.0668907
0.0680628
0.0691141
0.0700394
0.0708338
0.0714929
0.0720126
0.0723891
0.0726194
0.0727004
0.07263
0.072406
0.0720271
0.0714921
0.0708006
0.0699521
0.0689471
0.067786
0.0664699
0.0649998
0.0633774
0.0616043
0.0596826
0.0576143
0.0554016
0.053047
0.0505512
0.0479153
0.0451598
0.0423024
0.0390861
0.0352914
0.0298137
0.0257263
0.022299
0.0192924
0.016424
0.0137095
0.0111674
0.00879506
0.00658929
0.00454847
0.00267096
0.000954941
-0.000601475
-0.00200021
-0.00324323
-0.00433256
-0.00527028
-0.00605854
-0.00669955
-0.00719563
-0.00754917
-0.00776263
-0.00783856
-0.00777958
-0.00758838
-0.0072678
-0.00682074
-0.00625026
-0.00555949
-0.00475168
-0.00383018
-0.00279845
-0.00166009
-0.000418853
0.00092136
0.00235651
0.00388241
0.00549474
0.00718902
0.00896061
0.0108047
0.0127163
0.0146902
0.016721
0.0188033
0.0209314
0.0230994
0.0253014
0.027531
0.029782
0.0320479
0.0343219
0.0365973
0.0388672
0.0411246
0.0433623
0.0455732
0.0477501
0.0498855
0.0519723
0.054003
0.0559705
0.0578674
0.0596867
0.0614213
0.0630642
0.0646088
0.0660484
0.0673768
0.0685879
0.0696758
0.0706352
0.0714608
0.0721478
0.0726918
0.0730888
0.0733352
0.0734278
0.0733638
0.0731411
0.0727577
0.0722123
0.0715039
0.070632
0.0695966
0.0683979
0.0670366
0.0655137
0.0638306
0.0619888
0.0599902
0.0578367
0.0555307
0.0530745
0.0504689
0.0477151
0.0448347
0.0418465
0.0384816
0.0345107
0.0299998
0.0257436
0.0221757
0.0190471
0.0160636
0.0132416
0.0106007
0.00813765
0.00584928
0.00373371
0.00178903
1.31556e-05
-0.00159609
-0.00304096
-0.00432375
-0.00544685
-0.00641266
-0.00722369
-0.00788246
-0.00839161
-0.00875382
-0.00897189
-0.00904864
-0.00898696
-0.00878983
-0.00846028
-0.00800145
-0.00741656
-0.00670895
-0.00588204
-0.00493934
-0.00388445
-0.00272109
-0.00145311
-8.44778e-05
0.00138068
0.00293809
0.00458338
0.006312
0.00811927
0.0100004
0.0119502
0.0139637
0.0160354
0.0181597
0.020331
0.0225433
0.0247908
0.027067
0.0293657
0.0316803
0.034004
0.03633
0.0386513
0.0409609
0.0432516
0.045516
0.0477468
0.0499365
0.0520777
0.0541629
0.0561846
0.0581355
0.0600081
0.0617953
0.0634897
0.0650845
0.0665728
0.067948
0.0692037
0.0703337
0.0713324
0.0721941
0.0729138
0.0734866
0.0739082
0.0741746
0.0742822
0.074228
0.0740094
0.0736241
0.0730704
0.0723471
0.0714534
0.0703888
0.0691534
0.0677476
0.0661723
0.0644286
0.062518
0.0604422
0.0582031
0.0558031
0.0532445
0.0505283
0.0476556
0.0446493
0.0415291
0.0380144
0.0338659
0.0300018
0.0255771
0.0218688
0.0186183
0.0155199
0.0125907
0.00985092
0.00729746
0.00492672
0.00273666
0.000725152
-0.00111017
-0.00277178
-0.00426219
-0.00558406
-0.00674007
-0.00773299
-0.00856563
-0.00924086
-0.00976161
-0.0101309
-0.0103517
-0.0104272
-0.0103606
-0.0101551
-0.00981388
-0.00934042
-0.00873808
-0.00801037
-0.00716089
-0.00619331
-0.00511138
-0.00391896
-0.00261998
-0.0012185
0.000281269
0.001875
0.00355822
0.00532633
0.00717459
0.00909812
0.0110919
0.0131506
0.015269
0.0174414
0.019662
0.021925
0.0242243
0.0265536
0.0289065
0.0312764
0.0336565
0.0360399
0.0384196
0.0407883
0.0431388
0.0454636
0.0477552
0.0500062
0.0522088
0.0543554
0.0564383
0.0584499
0.0603826
0.062229
0.0639815
0.065633
0.0671762
0.0686043
0.0699106
0.0710885
0.072132
0.0730352
0.0737926
0.074399
0.0748497
0.0751403
0.075267