/*--------------------------------*- C++ -*----------------------------------*\
| =========                 |                                                 |
| \\      /  F ield         | OpenFOAM: The Open Source CFD Toolbox           |
|  \\    /   O peration     | Version:  v1912                                 |
|   \\  /    A nd           | Website:  www.openfoam.com                      |
|    \\/     M anipulation  |                                                 |
\*---------------------------------------------------------------------------*/
FoamFile
{
    version     2.0;
    format      ascii;
    class       volVectorField;
    location    "0.00025";
    object      momentumMean;
}
// * * * * * * * * * * * * * * * * * * * * * * * * * * * * * * * * * * * * * //

dimensions      [1 -2 -1 0 0 0 0];


internalField   nonuniform List<vector> 
1300
(
(-1.370867286 2.172870376 -0.2834244034)
(-0.1984263269 2.070038185 0.05635355578)
(19.06469366 2.787644449 0.1895117116)
(89.8059417 4.289082134 -0.09676173891)
(46.38765329 2.963521098 0.6289259511)
(16.78828478 1.345954529 0.6354716934)
(33.08959203 -0.8928513653 -0.3659578541)
(39.44768603 -1.043025405 -0.454530241)
(26.42757106 -0.1821053745 0.07015936271)
(23.85214514 -1.318430905 0.7425045915)
(-2.048782836 5.151980631 -0.1021547126)
(0.5483617992 5.151276677 -0.2506281878)
(33.22236923 10.28639731 0.008133136045)
(167.8481018 25.58430826 -0.03835545944)
(79.77863159 13.78135331 0.3461074084)
(27.46163668 7.933416053 -0.03057189943)
(60.26802445 10.14416076 0.3622879027)
(68.63145107 9.822217512 -0.02300175488)
(44.02321838 6.790629568 0.6814143644)
(38.13328332 5.888104852 -0.6212782026)
(-1.028092704 2.965088232 -0.1494672872)
(0.6770671736 3.440535949 -0.09601199232)
(37.17556462 9.018686527 -0.08395263289)
(187.2212757 28.79429879 -0.1904505817)
(89.93061586 14.81635606 -0.4034654701)
(35.42160352 9.678971918 0.2132139512)
(80.38365773 16.02092342 0.02243500904)
(106.4480611 16.26222629 -0.6390076226)
(65.17139672 11.69635402 0.6955912075)
(59.99032989 10.21118617 -1.035234253)
(-0.5536808087 2.396954264 -0.07027200905)
(0.6432505378 1.958694024 0.01592309029)
(34.42248485 6.668567549 -0.2147864794)
(181.01842 26.76745691 -1.18692956)
(88.66981134 13.81616724 0.1249220167)
(36.89142572 9.485309439 0.4321563092)
(88.49423729 18.71005132 -0.9487290207)
(130.1662928 24.13195922 0.3194819621)
(80.21110826 15.17650654 -0.3786363474)
(71.10469567 14.79854188 0.1876442545)
(-0.3187284828 1.446370243 -0.006933023782)
(0.470941618 1.944114832 -0.01161944219)
(37.64341269 7.297848721 -0.7167943909)
(177.8659823 25.49652338 1.085618523)
(90.23785496 11.82788494 -0.02507619405)
(33.03745918 7.289652179 0.06889636475)
(85.14992805 16.29439157 -0.6712718811)
(123.1328984 21.37705619 -0.3375495897)
(94.32297124 17.24641441 0.2721758983)
(77.57064804 17.17318186 -0.30002697)
(-0.115793575 1.19719923 -0.1026967888)
(0.5388524306 1.12516836 0.04991649542)
(35.79307422 6.633027801 0.127504553)
(180.0912299 25.99587214 -0.3603441325)
(87.98481941 11.9599706 -0.1055408203)
(33.69744535 6.378237544 -0.6541828354)
(82.86365513 14.42628859 0.3269085831)
(116.4778223 18.21919601 0.3039009888)
(90.20690366 15.46967588 -0.3320358565)
(78.50028277 15.5610937 -0.1817803901)
(-0.1180608305 0.8296304547 -0.03364012462)
(0.8000470572 1.297361963 0.02851449014)
(36.79181111 7.679139622 0.1407252239)
(178.3268682 26.26929257 0.05276367823)
(87.68801858 10.83860793 -0.008569542561)
(30.84369134 5.641387929 0.1637043977)
(80.80635327 12.87720377 -0.07242586865)
(114.5104054 17.6928295 -0.9836636771)
(88.81978053 13.0220522 -0.1120535252)
(75.31737457 14.0575226 0.1017037852)
(-0.1358767198 0.9483210996 -0.03379860801)
(0.5071075287 0.775867195 -0.02661287613)
(37.18930929 7.344206522 -0.2358301529)
(177.2783071 25.37237957 0.1517425378)
(86.30384624 10.93532491 0.07298942308)
(33.33406082 5.991807485 0.0020357516)
(82.00080363 13.08080556 0.02955297011)
(117.622484 17.00861499 0.2019901306)
(81.26125487 11.68570305 0.1369192848)
(73.20269871 11.3763279 0.2019754734)
(-0.0472146686 0.5481295916 -0.0885816081)
(0.7391909181 0.7013831565 -0.06094240738)
(37.22753812 7.596961252 -0.1714049711)
(183.0467424 25.7681291 -0.4016124926)
(84.99522656 10.99149828 0.7762253232)
(32.07716833 5.939313004 -0.3309100578)
(84.0053781 13.05218945 -0.306898021)
(112.2605626 16.1273267 -0.1798963721)
(82.33774863 11.7763628 0.1525053343)
(71.22733112 11.01339897 0.3375812923)
(-0.04262438897 0.4048505104 -0.06494508314)
(0.5983068987 0.6187975877 0.02842295214)
(36.42302444 7.126007161 0.0747449222)
(177.2675225 25.78364718 -0.3681581638)
(90.19487652 11.33116378 0.579522359)
(33.71228454 5.841282036 0.2173277304)
(77.73476337 13.10042296 -0.02014314521)
(116.2234182 16.80416686 -0.1299411221)
(86.53167808 12.21609432 -0.2078281904)
(65.78908435 10.05115449 0.5024309227)
(-0.02347717739 0.4793116807 -0.08346330064)
(0.642627588 0.493419183 -0.03580455146)
(37.24855598 6.555935879 -0.04564768974)
(180.3799311 25.67957457 -0.0501462171)
(88.58457596 10.97964753 -0.5228755256)
(33.68525122 6.161695216 0.06614019352)
(81.30276338 12.80851401 -0.341980837)
(119.6990828 16.58125288 0.02724041158)
(84.89081522 11.64701973 -0.1988458333)
(72.69442728 11.58649326 0.2502279545)
(0.01680637546 0.2865223073 -0.04657506093)
(0.4766752329 0.4884057876 -0.03544755447)
(36.22452564 6.706768153 0.123098471)
(174.897916 25.21471446 0.01738618132)
(84.58236417 10.48782833 -0.05749886365)
(31.21396343 5.991533625 -0.0437077222)
(80.51103108 12.64873847 0.2536506175)
(115.2742292 16.22767143 0.1543060661)
(81.50827308 11.85769548 -0.4090310323)
(72.00552814 11.42168085 -0.6568243332)
(-0.01386494866 0.1962813399 -0.02365529346)
(0.6123065321 0.3974465702 -0.00655610622)
(33.74001216 6.506209958 -0.4784334551)
(181.7765327 25.34603283 1.439952062)
(88.23199296 10.82476218 0.5999272696)
(31.35257511 5.714233456 0.04189917656)
(78.70233149 11.86879329 -0.1583193531)
(117.8902898 16.47893851 0.1441399941)
(81.50295636 10.36824939 0.9389806925)
(71.9294568 10.02084539 -0.14443195)
(-0.02144594902 0.2588768221 -0.007387101049)
(0.5028948059 0.4030673349 -0.0170189437)
(36.76210055 6.460716587 -0.1092993162)
(181.698698 25.94398131 -0.3528771289)
(89.56437708 10.36980309 -0.5641365386)
(31.71900777 5.704500656 -0.4204929386)
(79.21116386 12.54691525 0.2153489116)
(115.7445626 16.89952609 0.2505282767)
(84.29227966 11.49521129 0.2625450709)
(71.3398903 10.82750009 0.1385499089)
(-0.002240755588 0.1250639831 0.008953114472)
(0.5072318849 0.3958289497 -0.06857838212)
(35.72634767 6.415963964 0.37298541)
(174.5793661 24.91290275 -0.5298362831)
(87.3123142 11.14418181 -0.06183847991)
(31.42308333 5.22641486 0.4622994067)
(78.12708077 12.25196442 -0.321430695)
(118.749478 16.46857045 -0.4379046076)
(85.63736048 11.69314618 -0.5789770658)
(67.98163144 10.36233384 0.01425809711)
(-0.002907490104 0.2102075725 -0.007971506744)
(0.8144607268 0.4295043243 0.06053358052)
(37.946703 6.707105211 0.01474174767)
(179.9917634 25.13294853 -1.075144554)
(84.30510162 10.21937119 -0.08704966608)
(34.21899537 5.984360889 0.1983684913)
(82.26910455 12.73604462 -0.1684643364)
(113.9346836 15.28120603 -0.1411096508)
(82.69466403 11.02513801 0.1815148513)
(71.65401584 10.61422099 0.06353333041)
(-0.03305444001 0.2128157568 -0.003310118666)
(0.6257311142 0.4366529512 -0.04689543125)
(36.3213263 6.319767966 -0.6050925396)
(176.2383713 25.80579959 -0.2763808187)
(85.41255187 9.815363999 -0.1843714958)
(34.83577433 5.963701089 -0.01253765332)
(83.2207808 12.74325611 -0.8546363859)
(108.6024393 14.7927046 -0.6179416239)
(85.15126105 11.70317416 -0.291764191)
(70.83783581 9.854346158 -0.2181669143)
(0.0002348590785 0.1528036344 -0.009249622248)
(0.1868077944 0.1358967461 0.01521793977)
(37.31433348 6.914159624 -0.0005634485825)
(178.5507477 24.37818611 -0.3227452337)
(86.63456613 10.19771346 -0.5695674786)
(34.475186 6.259420679 -0.3581244762)
(78.83409871 12.56866573 0.08315034414)
(118.3358733 16.41364726 0.3740351282)
(85.48886073 11.33107009 -0.5418057632)
(69.14110011 10.15263654 -0.2217851095)
(0.0002732124356 0.1223525963 -0.001733035052)
(0.6523639716 0.2790356217 0.02446495759)
(35.77051593 6.445483978 -0.2719132603)
(180.0112141 25.64141455 -0.4320970918)
(85.82216035 10.73671774 -0.04725241708)
(32.32406312 5.577961026 -0.1584703269)
(75.62185473 11.71605982 -0.5713979158)
(113.4402099 15.89756672 0.265744365)
(84.31430235 11.53702001 -0.8070317743)
(68.61782158 10.2158134 -0.5775536416)
(6.964701998e-05 0.09314323243 0.01840344369)
(0.4582052523 0.2188492268 -0.03252259895)
(32.47086684 6.828787543 0.7180180901)
(166.4990756 27.46523289 -0.1358362957)
(84.19295352 10.65174917 0.2052892658)
(35.27974567 5.440718474 0.09097167953)
(75.48699071 12.22738772 -0.5315417362)
(108.0779728 16.32271639 0.0427621384)
(82.38078272 11.56536901 0.1200385534)
(70.85001503 10.18380031 -0.2100399156)
(24.61832729 -0.1871006273 -0.7553159921)
(22.27679065 0.6064691239 0.4647656538)
(21.3367152 0.8862587025 -0.4369029844)
(20.19188444 0.7809218927 -0.07231834001)
(19.679356 2.149510934 0.759506662)
(18.34906022 1.31359844 -0.3500801543)
(19.24672621 2.700681861 -0.4328430173)
(20.42155258 1.937350691 0.6957807178)
(17.51932017 1.853384713 -0.1014657019)
(19.12737306 2.053463899 -0.143154894)
(18.07934653 1.963466797 -0.4482493101)
(20.04907339 3.130900021 -0.06174585282)
(17.78852016 3.147029863 0.1097950777)
(18.2584867 2.686681309 -0.3901851071)
(18.27456387 2.271416435 0.06433123391)
(17.70349764 3.122304298 -0.1836448768)
(18.30370311 2.149954212 -0.3221870099)
(16.38777578 3.222803818 0.8178516227)
(17.30539122 2.876429343 0.65510805)
(15.1029683 3.224631147 0.7853276285)
(16.10047149 2.289763305 -0.6024677343)
(15.59544349 3.496434041 0.2853835033)
(14.58193403 2.672426 -0.8481982076)
(15.03780288 4.019183492 0.1177776714)
(14.88421513 3.110009693 -1.087410648)
(13.94124627 3.384672236 -0.7400948483)
(13.88827109 3.653051835 0.02809875133)
(13.18553282 4.551364946 0.5095153575)
(12.55973299 4.341375222 -0.2999843233)
(13.65115388 3.685184163 0.2390125213)
(38.71535006 4.27738289 0.3049052019)
(34.7565556 2.319763063 0.404280718)
(29.40958601 2.782317975 -0.4401057963)
(29.30983247 2.062514512 -0.2833109427)
(28.4133058 2.224652692 -0.6604200304)
(26.7590618 2.236739549 0.2858499844)
(24.46840921 2.48222176 0.3044298252)
(26.18226122 2.128983961 0.4243436943)
(24.40484318 2.775610623 -0.3895660754)
(23.61489649 2.417809054 0.2461208975)
(23.63156548 2.168636705 -0.1446836585)
(21.30576307 2.944386644 -0.3067908427)
(24.61337339 3.694641801 -0.5040643955)
(21.88644212 3.489891682 0.7639367133)
(22.49226557 3.090829225 -0.557892799)
(21.00639401 3.136826781 -0.4210084472)
(19.74960794 3.923928707 0.1578760034)
(19.9356353 2.877306469 0.3304676066)
(20.56722137 3.743667963 0.4517935769)
(19.9476632 3.431731188 0.6268394975)
(18.88996714 2.702964168 0.5025995794)
(18.16984473 3.515416198 0.2640175434)
(18.50328385 4.161261443 0.2910372656)
(17.90214534 3.54380055 -0.3683733941)
(17.21638258 3.128277387 0.2168778519)
(16.84213122 4.577778954 -0.214283783)
(16.68607495 4.693313734 0.2520325789)
(15.1549791 4.285866175 0.1593614254)
(15.54930504 4.33200235 -0.2927902044)
(15.66550536 4.611198777 -1.07871046)
(60.45794692 8.664971572 0.03313932792)
(54.78392971 6.160872128 0.04638108214)
(44.88058019 5.387445427 -0.4320753377)
(41.01800594 3.874619657 -0.001455769225)
(39.95020237 4.549279651 1.204869387)
(36.98122153 3.584754963 -0.4555639754)
(33.80793414 4.132702065 -0.8729851878)
(31.67686639 3.163373178 0.5386169499)
(31.89489237 3.766485975 -0.0913745494)
(29.85704154 3.414642502 -0.1513601687)
(28.90064942 3.134937375 0.357237797)
(27.83123398 2.934481044 -0.09647438471)
(26.873852 3.235417992 -0.4890358932)
(26.35724933 3.778332276 -0.1086766912)
(27.26872124 3.742693855 -0.04125072077)
(26.23039145 4.496491206 0.5704989639)
(24.83782923 3.911584635 -0.5450775657)
(25.64973565 3.875259675 0.03578467475)
(24.2241586 4.477195607 -0.766324342)
(22.5488646 4.172590612 0.3206398563)
(23.45677518 5.08268791 0.4581607956)
(23.1117181 3.678091263 -0.7900604867)
(19.23306373 3.974058421 -0.3629885219)
(20.15173852 4.184605961 -0.8324155222)
(19.26491459 4.088788509 -0.1843476311)
(19.64833966 4.445021188 0.004186500592)
(19.16478432 4.668139296 0.5886610458)
(19.19520418 3.977015693 0.1624468106)
(20.17590368 4.568921976 -0.01312983341)
(18.08808795 4.568821211 -0.365639683)
(78.4111816 15.11935179 -0.1279857688)
(77.71690329 12.75219976 0.04784466613)
(63.09012911 9.549600469 -0.1271274272)
(57.95344987 8.133689968 0.2283207507)
(57.09588764 6.307527384 -0.1458964748)
(48.27062733 5.826208463 0.09597503555)
(46.64662597 6.269853317 -0.5315554265)
(45.23493429 4.945111858 -0.3726976161)
(40.76077985 4.807850178 0.08187403714)
(39.28532652 4.540233682 0.05370834017)
(38.76109576 3.873924345 -0.7691777331)
(35.66032796 5.486442691 0.4494788704)
(35.49902021 4.15722812 0.02645932704)
(33.39840307 4.531705087 -0.3496897234)
(31.8490588 4.598596548 -0.2242271562)
(31.37534868 3.666750479 0.149547391)
(29.07376602 4.505812034 0.1397851599)
(29.84290086 5.012733495 -0.1510875713)
(28.81888274 4.407367665 -0.3151744199)
(28.06135672 4.265981719 -0.2546237821)
(28.4289507 5.567429875 -0.9615239642)
(26.40403268 5.443003844 -0.05432437344)
(26.70728651 4.725801615 0.319996215)
(26.31666678 4.736543761 0.03475160127)
(25.70143228 5.120133265 0.03990237445)
(22.82396833 4.159996668 0.7162205513)
(23.493899 4.819006498 0.2743867143)
(23.98772992 5.233169494 -0.02208707997)
(21.30611923 4.491051999 0.007907193869)
(22.4989546 4.447035189 -0.4281455266)
(99.36396132 20.61857571 -0.5633527267)
(93.54356545 17.28983362 -0.522224259)
(79.11088444 14.59018977 0.6339943884)
(76.60837357 13.37491582 -0.8691308607)
(70.70040452 11.7920622 0.7165788182)
(65.32879833 9.755158539 -0.9119886908)
(59.93236009 9.181358644 -0.1766025133)
(55.77509986 8.019348164 0.5706078466)
(54.16330819 7.403919991 -0.5050304968)
(46.43047063 6.033230819 -0.02646495204)
(46.06581849 5.783489203 -0.5806274578)
(45.67246868 5.986194134 -0.2664744749)
(41.43248358 5.389514468 -0.2872623361)
(41.9337197 5.782135763 0.1920361076)
(37.43473175 5.254560086 -0.06811187612)
(39.48996673 5.984975385 0.07613740664)
(37.49233899 5.724756217 -0.6739166508)
(34.78050162 4.928073163 -0.5248439883)
(35.51385186 5.390539158 -0.2303690115)
(33.3398212 5.215341958 -0.6689231912)
(31.33884696 5.504376971 0.04322779684)
(31.73178431 5.607984898 0.3399263743)
(29.6462203 5.110531853 -0.1067714075)
(29.9580669 6.163104782 -0.2527762487)
(27.79424765 5.679707024 0.8467647937)
(28.73886687 4.862565483 0.1552578078)
(29.02571383 5.966314943 0.1857713135)
(26.23713195 5.70570651 -0.08260877415)
(24.11800921 4.986642269 -0.100699375)
(24.72260175 5.686268915 -0.2725950413)
(91.41711701 19.26590558 0.03325406036)
(100.88267 19.85676887 -0.7852562498)
(92.00425779 19.30894967 -0.5791704474)
(88.23762483 17.94035767 0.8555733285)
(84.75090989 15.74276948 -0.890501703)
(80.08901876 14.08312611 0.07584077061)
(72.57905631 12.55914479 0.4545781168)
(69.86606901 11.83642029 -0.03969296247)
(63.68965715 9.650592238 0.2187047141)
(62.11495541 9.645359165 0.3894558811)
(56.40514059 8.272595125 0.2788398854)
(54.38245026 8.216008349 0.3468980784)
(52.22756665 7.784796358 0.2034107511)
(50.7372986 7.077563113 -0.009531310277)
(48.0331352 7.139957481 -0.05300853964)
(44.66327113 7.60789134 -0.2285712449)
(46.11683384 6.842692351 0.0948072171)
(40.65023324 6.388499448 -0.6769302679)
(40.51187097 7.269384787 -0.5335811857)
(40.9521237 7.046566254 0.2578899514)
(38.90731552 6.4672445 -0.2087806223)
(36.45110837 6.645157563 -0.3246963815)
(36.23511553 7.074669684 -0.1259446409)
(33.40344962 6.488067733 -0.2770083722)
(35.5322567 6.081551092 -0.3555208892)
(33.29991198 6.120347298 -0.2463403755)
(32.71846285 5.783882574 0.4334508794)
(32.09734933 6.905298955 0.2149061487)
(28.66947121 5.773886562 0.2315382195)
(31.84327006 6.03730352 -0.1293907555)
(85.30851592 15.73280678 -0.2160979201)
(102.0506266 19.557676 -0.1703529579)
(96.64760111 19.74706737 0.2663237385)
(96.17429467 20.71958773 -0.0466495924)
(94.82439281 19.4223691 0.6312524919)
(94.15764422 18.1394109 -0.4505306132)
(86.95806395 16.41696049 -0.143419563)
(80.61071297 15.13457305 -0.2657627924)
(81.11161403 13.67033711 -0.7919516664)
(75.80938299 13.77478468 0.07939791067)
(70.31755704 10.51026796 -0.1799907842)
(65.56193322 10.576677 -0.1298298782)
(59.0643121 9.372893874 -0.6362587407)
(58.98357336 9.741499942 0.2885677156)
(57.84719838 8.746551966 0.1217325779)
(55.22444519 8.417434921 -0.1766358345)
(51.77247005 8.222611022 -0.7820469195)
(53.36096756 8.70667882 -0.3550788458)
(48.19671559 7.882102567 0.1448147209)
(47.1147765 6.822982801 -0.4393495068)
(45.64128266 7.606751684 0.4550881929)
(45.92362813 8.02219413 -0.4649356154)
(43.8872339 8.441382221 -0.01389014083)
(40.12720233 7.11410147 -0.5899319947)
(40.00904952 6.110354479 -0.2181579203)
(38.9410018 7.078619841 -1.049503746)
(36.84399305 7.124887528 0.06533694803)
(36.35014633 7.169882116 -0.7171812764)
(37.22735687 7.206947045 0.7345435077)
(34.76988046 6.611492692 -0.7481665711)
(85.62645073 13.91302827 -0.008979475633)
(95.16028038 16.39585395 -0.3667372632)
(96.8725614 17.38135231 0.03579356111)
(89.57956092 17.25218166 -0.7073819926)
(100.6358679 21.46072475 -0.0364731566)
(104.4850114 21.35707185 0.06849539095)
(96.03009731 19.97268126 -0.1221040727)
(90.62877918 17.36492911 0.5395000796)
(90.1180412 17.47410924 0.04675890233)
(88.10464032 16.75076181 -0.01873053628)
(79.8005571 14.81682023 0.5491640554)
(78.54662356 13.55987606 0.1518007837)
(77.11785482 13.34696618 -0.3423956949)
(70.21491663 11.34411279 0.4164760143)
(66.32384193 11.04566153 -0.002264224702)
(65.48038905 11.05168058 -0.4677728598)
(61.4323847 9.234253656 -0.2441757842)
(61.87770188 10.20043375 0.1132129617)
(56.81593005 9.723092973 -0.6126383733)
(55.94105407 9.291985342 -0.2446601709)
(52.08439886 8.627481777 -0.05769870865)
(54.39412633 9.215724069 -0.005455049723)
(51.14662495 8.547094578 -0.7140532607)
(50.10571991 8.432955861 -0.3157991298)
(47.23935181 9.286403455 -0.5600182811)
(45.49954789 8.888198656 -0.4396408076)
(41.21137781 7.867336469 -0.6068522592)
(42.9512468 8.010900273 -0.4177932672)
(40.42391506 7.439243736 -0.2788031311)
(39.9724185 7.848037051 -0.6101502538)
(84.68824708 13.36396402 0.02895202623)
(92.07811678 15.37360113 -0.09783502805)
(85.8824358 14.59497283 0.1006640712)
(87.88253455 15.59650874 0.2130024445)
(91.40997033 17.40072064 -0.03076400932)
(100.8661549 19.25341632 -0.1297201242)
(98.53081358 20.0763482 0.7184792827)
(97.74393601 20.50807174 -0.6387185673)
(103.239041 20.00737737 -0.09498518486)
(93.04804923 19.03253999 -0.3068723777)
(90.68150137 16.82131735 0.03340169826)
(92.40990729 17.94708755 0.190726024)
(82.95528879 15.84577251 -0.009119945107)
(80.78668633 15.05641286 0.4065947287)
(80.10378372 13.55110871 -0.03526808433)
(74.5873324 12.51572955 0.7930930183)
(72.31408251 12.21388135 -0.2661391291)
(66.45701598 11.57644749 -0.297391218)
(69.11213468 11.29972551 0.3496337271)
(64.03080154 10.77792476 -0.2994332978)
(63.48650821 10.71217943 -0.1418971184)
(60.11986626 10.46512454 0.7200174052)
(60.10542732 10.86601911 0.3102811217)
(55.72725965 11.34896619 0.1891174559)
(59.62027746 10.49875547 0.1373413036)
(53.77983464 9.698722801 0.2325756088)
(53.14091369 10.75707462 -0.4466575306)
(49.41481637 8.901057175 -0.2298686063)
(50.69452566 9.028790972 -0.05720342003)
(45.33528595 8.375897691 -0.2225056618)
(82.0067043 11.94658752 -1.148658034)
(93.87745404 13.85048491 0.3103885358)
(82.80774931 12.95616097 0.5535855761)
(81.84510712 14.20817475 -0.70402911)
(91.87102219 15.67413855 0.4522082662)
(93.59421436 17.29087549 0.03348656455)
(95.01094619 18.69000632 -0.5783866258)
(94.3636125 19.11456139 -0.5999943091)
(98.12505919 19.93822936 0.4550941033)
(105.7715166 22.15932625 0.3920374494)
(94.16336794 19.23876332 -0.02480846011)
(99.70595606 19.76113306 -0.5734787808)
(96.91528501 18.61155492 -0.3838721394)
(91.37074302 16.94788336 0.4802412721)
(87.2101833 16.81570598 0.5719652522)
(86.50825815 15.80612219 -0.5921796039)
(82.51555397 14.05545642 0.8796986055)
(78.40452223 13.54049478 0.1296720969)
(78.59468028 13.35206738 -0.06361514419)
(76.00025009 13.45533942 -0.05144061782)
(73.70257264 12.9139333 -0.06254170718)
(71.48830227 12.54606068 -0.2285685305)
(69.12306108 12.14005753 0.08362940091)
(65.64087117 11.69765277 0.07789009495)
(65.13201796 11.74527653 0.6822339812)
(61.58736383 11.02634659 0.3112069144)
(60.76637807 11.45947496 -0.0511848149)
(59.88322167 11.38582648 0.2213816921)
(57.19557798 10.55662623 0.06447531349)
(54.77720066 10.6109479 -0.5067932737)
(82.74966971 12.92653878 -0.3804654498)
(92.34744268 13.30233423 -0.216704633)
(87.10883887 13.0637287 0.04084104754)
(83.65961781 13.43673722 -0.1686522109)
(85.13266561 13.02607258 0.15858673)
(93.4894451 15.10551482 0.6514068274)
(88.36962119 15.34744589 -0.41514767)
(91.12669649 16.43988189 0.841046679)
(98.52897381 18.52092404 -0.03190081959)
(98.04315202 18.75428902 -0.5967225732)
(95.06661039 19.10140127 -0.5831654645)
(100.1659751 20.2900368 0.08302474042)
(100.5941948 20.49614079 0.3186173077)
(98.04567395 19.01110376 0.03875053583)
(94.79001034 19.3275748 0.5134712448)
(93.6328239 17.73726518 0.4840776329)
(93.70122748 17.82871262 0.1759053663)
(87.55541617 16.00525215 0.1591268568)
(83.59135446 15.19718037 0.0522831319)
(82.43111173 14.7788718 -0.2651725365)
(73.15276025 13.24002492 0.669014884)
(79.31491169 14.31524649 -0.4777274231)
(75.75633627 13.46087123 0.01687000349)
(71.19259732 13.30387162 -0.1717847214)
(72.37168325 14.06448031 -0.3503940482)
(71.8289835 13.25441774 -0.1349689648)
(68.2485402 12.87053019 0.1509700657)
(66.44620553 13.2856537 0.3596402996)
(62.77694516 12.49079151 0.3154257436)
(63.32164794 12.85947882 0.4376515242)
(81.61081221 11.63391038 -0.1264757528)
(90.97822596 12.97101581 -0.2287678759)
(82.94734042 12.00338743 -0.2229370075)
(84.57806592 12.69261278 -0.9356047953)
(83.31217287 12.46326466 0.2280471435)
(90.92621263 14.14829919 -0.4960240078)
(85.1624845 13.75621476 0.01772012295)
(88.63159538 14.95743382 -0.04659577314)
(96.14547404 16.9040575 0.1559278216)
(94.80678011 18.1289094 0.1919798277)
(97.48922928 18.49584609 -0.4770812916)
(100.3933595 20.45599533 0.2062887853)
(102.6028848 20.79157532 -0.07806566695)
(95.47825453 18.49467738 -0.2068599685)
(98.42732677 20.45874582 -0.3644780578)
(102.5348772 19.23680026 0.1651984436)
(95.15677949 19.04461525 -0.2921930656)
(92.26055179 17.8164066 0.5663729258)
(96.23842746 17.80671398 -0.4520524513)
(91.60377495 17.0094058 1.06303002)
(87.37322202 16.00237583 0.6240119132)
(84.71901555 15.55637117 -0.4090240284)
(84.69212489 14.06243931 0.4851824225)
(83.84008363 16.1207736 0.2927236576)
(80.37202459 14.3802579 0.307494994)
(79.6677912 14.87063225 -0.3122993732)
(76.19084004 14.75387256 0.251695201)
(73.89084416 13.68150854 -0.5256350621)
(77.36800524 14.31365935 0.1618140779)
(70.67219738 14.19836121 -0.2229679367)
(83.32811315 12.5641404 0.3705831732)
(89.42574234 12.46276333 -0.1264246956)
(84.53001791 13.17748485 0.2365786933)
(79.41102826 11.56611054 0.1238209022)
(88.01029618 12.68425766 -0.5532777231)
(90.02019731 13.20327149 -0.35834403)
(86.46831436 13.12559805 -0.1452785084)
(82.96947058 12.75398735 -0.7898593487)
(95.16168327 14.91916282 -0.3331148637)
(91.70576577 15.62212738 -0.2540507989)
(90.44065894 15.92395625 0.2104301431)
(99.83053627 17.5668277 -0.2158922028)
(97.64389151 17.95648989 -0.2327574071)
(102.2695852 20.41786021 -0.2827193727)
(105.8605262 21.75401702 0.3601289885)
(106.1809516 21.51572909 0.09948750983)
(99.24426573 19.78660049 -0.06341856039)
(100.9037568 19.74232673 -0.4059067782)
(97.63585797 18.79453879 0.7859066114)
(101.4583889 19.59170641 -0.2330918189)
(92.68871187 17.80701101 0.1682335282)
(94.73457165 17.77812446 0.3985278032)
(94.33536432 17.34204217 -0.3018425762)
(84.39582227 15.48836963 0.8537984307)
(85.29665655 15.26884264 -0.3681850971)
(85.40777908 16.34017094 0.6034030082)
(85.66553674 15.95550102 -0.003860183829)
(80.82821442 15.7098583 0.1939967936)
(81.55594672 15.80538834 0.4664412394)
(79.84355966 15.03989374 -0.0996080915)
(80.20301749 12.1322296 -0.315195242)
(92.43490506 13.22576078 0.314194982)
(84.72869289 12.30322458 1.082753417)
(81.85240687 11.7735194 -0.1595918633)
(83.473221 11.855158 0.3336550821)
(85.61899519 12.66428482 0.5284169407)
(84.6651061 12.67216755 0.2405633064)
(81.50227513 12.40641045 0.0727659763)
(87.44265464 13.10949207 0.1155623878)
(90.82066328 14.75824067 0.3693674297)
(84.3511565 13.3885436 0.0898746105)
(89.69416721 15.46520225 -0.2497549495)
(98.87673521 17.84194392 -0.3717449528)
(90.54631203 16.20450744 0.3736653103)
(101.6517745 19.40132801 0.1824286387)
(97.7102136 17.99367702 -0.3206359299)
(102.5409453 21.12968794 -0.006869331007)
(106.3703276 21.28904047 -0.3083487586)
(99.32889235 19.91800877 0.0939989404)
(100.6230893 19.3897192 -0.3774035631)
(101.4130843 19.93796749 0.1120297976)
(95.77428803 18.08861713 -0.1604703024)
(98.36753397 18.98658802 -0.0205624588)
(99.3738873 18.97042525 1.592949218)
(88.84567922 16.57248451 0.0490277313)
(94.93381761 17.30216471 -0.5389442784)
(90.2402906 16.44958992 0.5251890687)
(88.16973201 17.28728116 -0.3815689898)
(91.84809213 17.37005261 0.494969878)
(87.35864757 17.65903073 -0.5520250065)
(81.87426884 12.22014669 0.1303613849)
(89.9995933 12.48523292 -0.5320564283)
(82.1606225 11.86983665 0.2417385136)
(82.88010342 12.46455394 -0.2592493018)
(81.4712928 11.78777124 0.3136094554)
(86.97756088 12.8305716 -0.06061185104)
(84.23470181 12.09489472 -0.04805029493)
(82.74266155 12.15364186 0.6816933367)
(87.17524625 13.0212631 0.2514653453)
(84.40911888 12.24147971 -0.08615106779)
(83.22750836 13.52990897 -0.1146323607)
(89.54079176 13.44847971 0.1536726521)
(94.60502104 15.84159626 0.2835980706)
(84.26447021 14.95265644 -0.2933735744)
(95.57410261 16.36018287 0.243375125)
(97.55561047 17.38015599 -0.5757567725)
(96.541295 18.9687979 0.4969063688)
(102.7504054 20.42412337 0.3725735623)
(101.8713986 19.40516193 -0.4144520561)
(104.0664365 19.80948784 0.1829007218)
(104.962106 20.59825098 0.2300948611)
(100.4672356 19.57601925 0.06906554744)
(98.95230468 18.7524156 -0.09918907693)
(99.31198297 18.7420824 -0.4620524476)
(101.120768 19.20272582 -0.36555584)
(95.35433262 17.73814704 0.3689892964)
(92.40723324 17.78876637 0.0610115905)
(93.65959808 17.72680504 -0.1896497342)
(90.33998798 17.33331339 0.4524636568)
(93.19418834 17.83851997 -0.1195112521)
(83.41369989 12.65834689 -0.5231062469)
(92.22120409 12.27664974 -0.471952843)
(84.36218524 11.71584216 0.7550179753)
(81.82703461 12.04643947 -0.2828613926)
(87.00677339 12.3914667 0.006470618203)
(95.26476791 13.57370797 -0.05348853261)
(79.79344089 11.42046249 0.4136187181)
(83.1001554 12.0946866 -0.1467856708)
(90.89129589 12.97394456 -0.1780774106)
(88.82097605 13.30222795 -0.3676840561)
(81.02955803 12.19234662 0.5271689598)
(85.37437343 12.59162222 -0.279183963)
(85.7629442 13.15671354 -0.128185629)
(85.18922899 13.6787899 0.1323694474)
(91.38875014 14.85381481 -0.1333492966)
(92.00676211 16.02613938 -0.32880828)
(93.98962768 16.20074762 -0.04097800378)
(95.87241194 17.51241641 0.463635012)
(99.52610819 17.6826641 -1.206503597)
(100.0903156 19.54316642 0.6514867871)
(102.9259905 20.46680725 -0.1181346754)
(103.5995379 19.914464 -1.240677848)
(105.430446 20.25458848 1.316414662)
(100.0174494 20.24346188 -0.3782667245)
(101.1919603 19.79630003 0.1558914642)
(102.4080297 19.81465423 -0.2469287332)
(96.98372876 18.82409162 -0.3160443307)
(97.03877799 18.75267482 0.08417029662)
(98.67361181 18.72923514 -0.1020169043)
(96.10284959 17.90668183 -0.1938637115)
(81.34240082 11.80695513 0.06049614017)
(89.3320755 12.3635748 0.02237571933)
(88.16584701 12.87127064 -0.4978244941)
(79.04392911 11.15519456 0.02307827356)
(84.44622467 11.48740464 -0.07809740527)
(84.82509444 11.88243689 -0.4143757207)
(84.30650704 12.10555844 -0.3404160441)
(82.8746561 12.33039505 -0.46727226)
(86.3488904 12.21396871 0.6150669237)
(88.19987842 12.6704467 -0.0001599437978)
(84.66560631 12.37849547 0.2947712535)
(87.15986091 12.8442567 -0.1963973051)
(91.19009694 14.43255354 -0.1441408435)
(84.42660668 12.45347102 -0.001459903017)
(90.00049561 13.91066684 0.1510500325)
(88.67313235 14.07998579 -0.1798480783)
(90.96492684 14.96994607 -0.1757256313)
(88.85238762 14.8556981 -0.1785034983)
(94.22032008 17.31724553 0.2186104206)
(99.13372859 18.17979392 -0.1933921978)
(99.07420717 18.23437364 0.4091982161)
(101.4400328 19.23431875 -0.3643933451)
(106.5001051 20.46826704 -0.2597473469)
(103.2018477 20.34154259 -0.03382359931)
(104.1517074 19.51123559 -0.8136700713)
(104.9348045 20.50937508 0.732885688)
(107.7535999 20.22466106 1.215828381)
(101.4598146 19.59410342 0.3388412507)
(101.2471208 18.9675963 0.04383236996)
(103.2261039 18.77196989 -0.01910678994)
(81.2308927 11.94809794 -0.7616075878)
(88.3706453 11.90754555 -0.3925304938)
(83.43025418 11.78590827 -0.4600564602)
(81.44564445 12.54977275 -0.2982107262)
(81.82671278 11.71107717 -0.2728100275)
(89.52280449 13.08039714 -0.04330316943)
(82.803803 11.66004123 -0.5537659617)
(80.21679128 11.36257629 0.1130351453)
(86.2088346 12.07297869 -0.08499782367)
(83.25526778 11.85374233 -0.4856096789)
(86.46568515 11.98640804 0.249353736)
(84.51077029 11.49978481 -0.06145556752)
(89.55159033 12.76047416 0.06710555136)
(86.73438283 13.02521095 0.2777029865)
(88.96656765 13.19866965 0.0165012495)
(88.72182297 13.85808672 0.06690889473)
(92.50667125 13.5829489 0.3458603528)
(91.29851923 13.88254091 0.3706916421)
(89.54022442 14.50786705 -0.4122459157)
(93.07177783 15.59058427 0.5562200474)
(96.27467583 16.14989721 0.04789977074)
(95.06984478 16.60347783 -0.8551440991)
(98.2985115 18.08482594 0.6075999939)
(100.6915652 18.84404477 0.4140049528)
(104.4400688 20.0273731 -0.0480954963)