/*--------------------------------*- C++ -*----------------------------------*\
| =========                 |                                                 |
| \\      /  F ield         | OpenFOAM: The Open Source CFD Toolbox           |
|  \\    /   O peration     | Version:  v1912                                 |
|   \\  /    A nd           | Website:  www.openfoam.com                      |
|    \\/     M anipulation  |                                                 |
\*---------------------------------------------------------------------------*/
FoamFile
{
    version     2.0;
    format      ascii;
    class       volScalarField;
    location    "0.00025";
    object      rhoNMean;
}
// * * * * * * * * * * * * * * * * * * * * * * * * * * * * * * * * * * * * * //

dimensions      [0 -3 0 0 0 0 0];


internalField   nonuniform List<scalar> 
1300
(
1.832e+23
2.064e+23
4.784e+23
1.2536e+24
7.344e+23
5.232e+23
7.28e+23
7.688e+23
6.512e+23
6.12e+23
2.288e+23
2.184e+23
7.056e+23
2.2056e+24
1.0728e+24
6.496e+23
1.084e+24
1.1256e+24
8.128e+23
7.776e+23
1.128e+23
1.24e+23
6.376e+23
2.2864e+24
1.048e+24
6.32e+23
1.2096e+24
1.3872e+24
9.568e+23
9.328e+23
7.52e+22
7.2e+22
5.648e+23
2.1728e+24
9.904e+23
5.952e+23
1.2352e+24
1.6416e+24
1.0472e+24
1.0216e+24
4.56e+22
6.08e+22
5.976e+23
2.1384e+24
9.632e+23
5.16e+23
1.1576e+24
1.5e+24
1.1528e+24
1.044e+24
3.36e+22
4.08e+22
5.568e+23
2.1432e+24
9.296e+23
5.008e+23
1.104e+24
1.3824e+24
1.084e+24
1.0176e+24
2.24e+22
4.96e+22
5.808e+23
2.1192e+24
9.136e+23
4.576e+23
1.0664e+24
1.3424e+24
1.0256e+24
9.592e+23
2.56e+22
2.8e+22
5.832e+23
2.1248e+24
9.184e+23
4.912e+23
1.076e+24
1.3776e+24
9.472e+23
9.296e+23
1.52e+22
3.04e+22
5.824e+23
2.172e+24
8.968e+23
4.736e+23
1.1112e+24
1.3112e+24
9.576e+23
8.944e+23
1.12e+22
2.56e+22
5.656e+23
2.112e+24
9.44e+23
5.056e+23
1.0136e+24
1.3664e+24
9.944e+23
8.184e+23
1.28e+22
2.24e+22
5.776e+23
2.1456e+24
9.344e+23
4.944e+23
1.0656e+24
1.4064e+24
9.704e+23
9.08e+23
8.8e+21
2e+22
5.576e+23
2.076e+24
8.88e+23
4.648e+23
1.06e+24
1.3464e+24
9.384e+23
9.056e+23
4.8e+21
2.08e+22
5.2e+23
2.1592e+24
9.144e+23
4.624e+23
1.0336e+24
1.3736e+24
9.392e+23
8.976e+23
6.4e+21
1.6e+22
5.704e+23
2.1568e+24
9.336e+23
4.752e+23
1.0328e+24
1.3544e+24
9.6e+23
8.872e+23
3.2e+21
1.68e+22
5.528e+23
2.076e+24
9.144e+23
4.64e+23
1.0232e+24
1.388e+24
9.888e+23
8.544e+23
4.8e+21
2.32e+22
5.832e+23
2.1432e+24
8.808e+23
5.048e+23
1.0784e+24
1.3344e+24
9.488e+23
8.816e+23
5.6e+21
1.92e+22
5.568e+23
2.1e+24
8.88e+23
5.128e+23
1.0888e+24
1.2664e+24
9.808e+23
8.872e+23
4e+21
7.2e+21
5.792e+23
2.1208e+24
8.92e+23
5.144e+23
1.0296e+24
1.3872e+24
9.912e+23
8.632e+23
3.2e+21
1.84e+22
5.504e+23
2.1408e+24
9.024e+23
4.744e+23
9.928e+23
1.328e+24
9.72e+23
8.488e+23
2.4e+21
1.28e+22
5.024e+23
1.984e+24
8.784e+23
5.064e+23
9.856e+23
1.2608e+24
9.504e+23
8.816e+23
6.319444128e+23
5.693430325e+23
5.719788846e+23
5.436435251e+23
5.515510627e+23
5.186029749e+23
5.48256258e+23
5.765916128e+23
5.245336315e+23
5.66048228e+23
5.271694745e+23
5.976783967e+23
5.785685031e+23
5.508921009e+23
5.858170834e+23
6.04926977e+23
5.779095365e+23
5.627534187e+23
6.161293284e+23
5.772505746e+23
5.930656637e+23
6.187651758e+23
6.022911247e+23
5.851581216e+23
6.187651758e+23
6.609387287e+23
6.912509792e+23
6.945457884e+23
7.742801657e+23
7.821877143e+23
7.492396219e+23
6.615976906e+23
5.83181236e+23
5.897708545e+23
5.976783918e+23
5.812043505e+23
5.52868991e+23
5.746147273e+23
5.667071898e+23
5.410076777e+23
5.54845872e+23
5.337590974e+23
6.121755574e+23
5.732968036e+23
5.844991597e+23
5.541869147e+23
5.693430325e+23
5.429845633e+23
5.891118927e+23
6.194241326e+23
6.022911296e+23
6.082217863e+23
6.411698734e+23
6.471005353e+23
5.989963204e+23
6.747769274e+23
6.167882903e+23
6.424878024e+23
6.76753813e+23
7.169504913e+23
9.48905062e+23
8.335867316e+23
7.288118046e+23
6.820255133e+23
6.668693853e+23
6.391929932e+23
6.121755574e+23
5.825222694e+23
5.96360473e+23
5.891118927e+23
5.620944522e+23
5.535279528e+23
5.601175713e+23
5.732968036e+23
5.943835874e+23
5.884529308e+23
5.67366147e+23
5.924067019e+23
6.115165955e+23
5.957015062e+23
6.18106214e+23
6.391929931e+23
5.904298115e+23
6.101986718e+23
5.864760453e+23
6.365571405e+23
6.345802602e+23
6.74776933e+23
7.097019051e+23
6.642335434e+23
1.107714867e+24
1.061587529e+24
9.027777326e+23
8.454480518e+23
8.250202277e+23
7.235401098e+23
7.255169953e+23
7.136556762e+23
6.629156197e+23
6.497363827e+23
6.378750642e+23
6.227189469e+23
6.326033747e+23
5.989963154e+23
6.04926977e+23
6.101986718e+23
5.634123759e+23
6.075628244e+23
5.9174774e+23
6.003142391e+23
6.339212984e+23
6.31285451e+23
6.4710053e+23
6.464415735e+23
6.767538185e+23
6.181062089e+23
6.793896659e+23
6.800486278e+23
6.622566524e+23
6.299675273e+23
1.325831239e+24
1.213807715e+24
1.064223386e+24
1.036546988e+24
9.713097568e+23
9.047546181e+23
8.434711662e+23
7.9009525e+23
7.900952565e+23
6.978405977e+23
6.93227859e+23
6.925689029e+23
6.490774209e+23
6.800486221e+23
6.273316799e+23
6.728000474e+23
6.503953392e+23
6.167882903e+23
6.497363827e+23
6.227189418e+23
6.154703666e+23
6.372161076e+23
6.194241326e+23
6.405109168e+23
6.154703666e+23
6.589618432e+23
6.945457884e+23
6.774127804e+23
6.279906366e+23
6.167882903e+23
1.176905862e+24
1.26916051e+24
1.180200671e+24
1.15120635e+24
1.092558736e+24
1.055656881e+24
9.647201464e+23
9.429743976e+23
8.500607847e+23
8.559914413e+23
7.881183644e+23
7.74939134e+23
7.545113167e+23
7.426499973e+23
7.149736057e+23
6.866382463e+23
7.202452946e+23
6.576439249e+23
6.681873145e+23
6.840023932e+23
6.813665515e+23
6.523722301e+23
6.741179656e+23
6.319444128e+23
6.886151318e+23
6.734590037e+23
6.609387342e+23
6.853203225e+23
6.457826063e+23
6.899330555e+23
1.082674317e+24
1.254663349e+24
1.211830839e+24
1.235553466e+24
1.213807715e+24
1.194697832e+24
1.114963448e+24
1.051703102e+24
1.045772454e+24
1.000304086e+24
9.297951607e+23
8.863036864e+23
7.999796842e+23
8.151358e+23
8.012976079e+23
7.868004472e+23
7.459448065e+23
7.821877143e+23
7.195863387e+23
7.209042564e+23
7.110198346e+23
7.255169953e+23
7.367193407e+23
6.925689029e+23
6.91909941e+23
6.965226682e+23
6.754358948e+23
6.932278647e+23
7.169504854e+23
6.820255133e+23
1.076084699e+24
1.161090768e+24
1.188108213e+24
1.14066296e+24
1.273773243e+24
1.307380308e+24
1.213148763e+24
1.141321912e+24
1.147252578e+24
1.11562241e+24
1.02600359e+24
1.006234743e+24
1.006893705e+24
9.218876186e+23
8.757602968e+23
8.816909534e+23
8.329277698e+23
8.474249373e+23
7.887773328e+23
7.986617539e+23
7.53193393e+23
7.993207224e+23
7.709853565e+23
7.676905536e+23
7.347424612e+23
7.47921692e+23
7.057481398e+23
7.373783086e+23
7.004764393e+23
7.103608728e+23
1.052362072e+24
1.091240812e+24
1.045772454e+24
1.098489402e+24
1.128801637e+24
1.248732703e+24
1.232917619e+24
1.240825151e+24
1.298813804e+24
1.164385586e+24
1.14395776e+24
1.17295209e+24
1.052362072e+24
1.03325217e+24
1.027321522e+24
9.57471566e+23
9.409975121e+23
8.764192586e+23
9.232055499e+23
8.599452054e+23
8.645579454e+23
8.329277766e+23
8.540145488e+23
8.263381582e+23
8.645579454e+23
8.019565631e+23
8.210664634e+23
7.881183709e+23
7.808697842e+23
7.419910415e+23
1.01941398e+24
1.1156224e+24
1.004916819e+24
1.014801247e+24
1.120235133e+24
1.135391265e+24
1.172293129e+24
1.176905852e+24
1.213148763e+24
1.317264735e+24
1.184154432e+24
1.247414779e+24
1.214466687e+24
1.149229455e+24
1.103761096e+24
1.100466287e+24
1.041818674e+24
1.002280972e+24
1.015460209e+24
9.884427648e+23
9.634022227e+23
9.554946805e+23
9.304541226e+23
8.942112286e+23
9.080494274e+23
8.876216028e+23
8.70488602e+23
8.678527546e+23
8.619220909e+23
8.204075015e+23
1.027321522e+24
1.097830431e+24
1.038523873e+24
1.032593217e+24
1.034570094e+24
1.136050227e+24
1.085310165e+24
1.127483714e+24
1.207218107e+24
1.218420458e+24
1.181518585e+24
1.248732703e+24
1.248732703e+24
1.220397334e+24
1.188767175e+24
1.167680396e+24
1.186131318e+24
1.105737982e+24
1.048408301e+24
1.048408292e+24
9.429744053e+23
1.022708789e+24
9.798762608e+23
9.377027106e+23
9.614253371e+23
9.62084291e+23
9.278182828e+23
9.363847869e+23
8.876216028e+23
9.18592817e+23
1.011506438e+24
1.076743652e+24
9.989861624e+23
1.029957369e+24
1.003598887e+24
1.099807325e+24
1.031934255e+24
1.096512507e+24
1.174928976e+24
1.160431815e+24
1.209194982e+24
1.238848275e+24
1.268501558e+24
1.184813394e+24
1.231599695e+24
1.260594016e+24
1.184154432e+24
1.15120635e+24
1.200628488e+24
1.147252569e+24
1.10507902e+24
1.061587538e+24
1.067518186e+24
1.072130928e+24
1.035888026e+24
1.029298399e+24
1.00887059e+24
9.772404215e+23
1.035229056e+24
9.70650803e+23
1.02666256e+24
1.060269606e+24
1.015460209e+24
9.693328793e+23
1.060928567e+24
1.076084699e+24
1.040500759e+24
1.010188506e+24
1.148570502e+24
1.107055906e+24
1.116940324e+24
1.218420458e+24
1.194697832e+24
1.259276082e+24
1.314628888e+24
1.321218506e+24
1.228963838e+24
1.25136855e+24
1.209853954e+24
1.249391655e+24
1.155819082e+24
1.18349548e+24
1.180859623e+24
1.060269614e+24
1.08003847e+24
1.078720537e+24
1.093876669e+24
1.048408301e+24
1.056974796e+24
1.053679996e+24
9.937144677e+23
1.095853545e+24
1.00887059e+24
9.976682388e+23
1.007552658e+24
1.023367751e+24
1.024685675e+24
9.904196503e+23
1.047749339e+24
1.098489402e+24
1.03325217e+24
1.101125249e+24
1.203264336e+24
1.114963439e+24
1.25466336e+24
1.197992641e+24
1.267842586e+24
1.317264735e+24
1.232258657e+24
1.24411996e+24
1.252027512e+24
1.184154442e+24
1.21907941e+24
1.224351115e+24
1.107714867e+24
1.191403012e+24
1.138686074e+24
1.114963448e+24
1.176905852e+24
1.129460609e+24
1.013483323e+24
1.053021025e+24
9.811941926e+23
1.004916819e+24
9.844889937e+23
1.034570102e+24
1.016778132e+24
1.003598887e+24
1.048408301e+24
1.016778132e+24
1.005575773e+24
1.085310165e+24
1.144616731e+24
1.032593208e+24
1.165044548e+24
1.184813404e+24
1.180200661e+24
1.265865711e+24
1.253345436e+24
1.269819472e+24
1.290906261e+24
1.241484123e+24
1.226986952e+24
1.227645924e+24
1.245437894e+24
1.17624689e+24
1.148570502e+24
1.168998319e+24
1.137368141e+24
1.173611052e+24
1.035888026e+24
1.092558736e+24
1.010847476e+24
9.989861625e+23
1.046431407e+24
1.132755418e+24
9.627432608e+23
1.007552658e+24
1.08728705e+24
1.064882347e+24
9.844889937e+23
1.024026713e+24
1.035888026e+24
1.034570094e+24
1.116281372e+24
1.114304486e+24
1.160431806e+24
1.17295209e+24
1.219738382e+24
1.230940723e+24
1.270478444e+24
1.265865711e+24
1.292224174e+24
1.233576581e+24
1.250050627e+24
1.25861712e+24
1.202605374e+24
1.190085099e+24
1.209853944e+24
1.181518595e+24
1.003598895e+24
1.056315835e+24
1.056974805e+24
9.666970319e+23
1.0154602e+24
1.01611917e+24
1.018096056e+24
1.004916811e+24
1.029298408e+24
1.058951691e+24
1.02600359e+24
1.051044149e+24
1.089263936e+24
1.016119162e+24
1.082674317e+24
1.071471966e+24
1.097830431e+24
1.084651203e+24
1.154501159e+24
1.205900173e+24
1.225010077e+24
1.242143085e+24
1.315287839e+24
1.265865711e+24
1.28695249e+24
1.283657671e+24
1.316605774e+24
1.258617131e+24
1.254004388e+24
1.273773253e+24
1.008211628e+24
1.047749331e+24
9.989861625e+23
9.976682389e+23
9.930554977e+23
1.071471966e+24
1.00162201e+24
9.713097568e+23
1.037864912e+24
9.976682388e+23
1.045113483e+24
1.026003598e+24
1.078720546e+24
1.055656873e+24
1.074766775e+24
1.070813004e+24
1.111668629e+24
1.103761096e+24
1.089263936e+24
1.128801637e+24
1.167021434e+24
1.161090777e+24
1.202605364e+24
1.234235542e+24
1.288929376e+24
1.213148753e+24
1.339010476e+24
1.289588338e+24
1.300131717e+24
1.250709589e+24
9.92396544e+23
1.085969118e+24
9.614253371e+23
9.541767568e+23
9.699918332e+23
1.066200271e+24
9.963503151e+23
1.002280963e+24
1.010188514e+24
1.016119171e+24
1.022049819e+24
9.937144677e+23
1.056315843e+24
1.005575773e+24
9.891017348e+23
1.081356393e+24
1.020731895e+24
1.106396944e+24
1.085310165e+24
1.123529943e+24
1.132096456e+24
1.114963448e+24
1.189426127e+24
1.157137006e+24
1.211171878e+24
1.246096845e+24
1.240825161e+24
1.26191194e+24
1.234235532e+24
1.354825561e+24
1.004257857e+24
1.032593208e+24
9.607663752e+23
1.020072942e+24
9.989861543e+23
9.772404215e+23
9.746045742e+23
9.666970239e+23
1.018755018e+24
9.416564817e+23
9.778993752e+23
9.950323914e+23
9.963503151e+23
9.877838029e+23
9.877838111e+23
9.96350315e+23
1.023367742e+24
1.000963048e+24
1.024026713e+24
1.051703102e+24
1.085310165e+24
1.074766775e+24
1.091899774e+24
1.141980884e+24
1.147252578e+24
1.176905852e+24
1.159113892e+24
1.232917619e+24
1.240825151e+24
1.263888826e+24
6.712e+23
6.392e+23
6.536e+23
6.4e+23
6.304e+23
5.912e+23
5.864e+23
5.424e+23
5.056e+23
4.288e+23
7.976e+23
7.848e+23
7.024e+23
7.264e+23
7.448e+23
7.744e+23
7.24e+23
6.768e+23
6.064e+23
5.336e+23
6.944e+23
6.752e+23
7.176e+23
7.096e+23
7.024e+23
7e+23
6.864e+23
6.696e+23
5.728e+23
5.168e+23
6.632e+23
6.656e+23
6.944e+23
7.096e+23
6.872e+23
6.888e+23
6.288e+23
6.52e+23
5.816e+23
5.36e+23
6.056e+23
6.6e+23
6.4e+23
6.504e+23
6.784e+23
6.448e+23
6.952e+23
6.32e+23
5.728e+23
5.616e+23
6.792e+23
6.88e+23
6.312e+23
6.552e+23
6.248e+23
6.408e+23
6.424e+23
6.056e+23
5.976e+23
6.136e+23
6.656e+23
6.52e+23
6.96e+23
6.704e+23
6.176e+23
6.648e+23
6.088e+23
6.336e+23
5.784e+23
5.872e+23
7.152e+23
6.712e+23
6.848e+23
6.336e+23
7.056e+23
6.48e+23
6.176e+23
6.28e+23
6.192e+23
5.856e+23
7.608e+23
7.48e+23
7.232e+23
6.872e+23
7.072e+23
6.664e+23
6.816e+23
6.144e+23
6.152e+23
6.136e+23
8.248e+23
7.576e+23
7.976e+23
7.696e+23
7.216e+23
7.48e+23
6.64e+23
6.504e+23
6.936e+23
6.456e+23
8.8e+23
8.376e+23
8.856e+23
8.112e+23
7.88e+23
7.472e+23
7.632e+23
7.824e+23
7.312e+23
7.176e+23
9.216e+23
9.616e+23
9.44e+23
8.976e+23
8.96e+23
9.152e+23
8.416e+23
8.384e+23
7.304e+23
7.752e+23
1.0312e+24
1.096e+24
9.808e+23
9.912e+23
1.0248e+24
9.456e+23
8.928e+23
9.592e+23
8.728e+23
8.808e+23
1.0872e+24
1.0968e+24
1.1224e+24
1.0608e+24
1.0728e+24
1.0664e+24
1.0232e+24
1.012e+24
1.0096e+24
9.608e+23
1.1064e+24
1.092e+24
1.1064e+24
1.132e+24
1.104e+24
1.1152e+24
1.0552e+24
1.0816e+24
1.072e+24
1.0416e+24
1.2e+24
1.2176e+24
1.1968e+24
1.168e+24
1.1824e+24
1.1632e+24
1.1824e+24
1.124e+24
1.0944e+24
1.1296e+24
1.2176e+24
1.2704e+24
1.2632e+24
1.2536e+24
1.1528e+24
1.2256e+24
1.1936e+24
1.2328e+24
1.1816e+24
1.1888e+24
1.2656e+24
1.1776e+24
1.2312e+24
1.2832e+24
1.3104e+24
1.2696e+24
1.2544e+24
1.2448e+24
1.2528e+24
1.2304e+24
1.2528e+24
1.248e+24
1.2784e+24
1.244e+24
1.2592e+24
1.2336e+24
1.2824e+24
1.2656e+24
1.3032e+24
1.3288e+24
1.2424e+24
1.2312e+24
1.2776e+24
1.2856e+24
1.2368e+24
1.2448e+24
1.2616e+24
1.2608e+24
1.2768e+24
1.2936e+24
5.42197685e+23
6.61718628e+23
6.316405148e+23
6.055200424e+23
6.23725214e+23
6.094776897e+23
6.007708656e+23
5.75441917e+23
6.110607487e+23
6.561779283e+23
6.474710978e+23
6.292659264e+23
6.474711042e+23
6.348066264e+23
6.450965158e+23
6.656762819e+23
6.767576878e+23
6.593440462e+23
6.688423998e+23
6.775492172e+23
6.933798133e+23
6.910052249e+23
6.965459242e+23
7.448292286e+23
7.226664035e+23
7.345393383e+23
7.519529938e+23
7.582852296e+23
7.416631034e+23
6.735915766e+23
6.045899041e+23
7.944931355e+23
7.774406075e+23
7.743401464e+23
7.704645627e+23
7.25507885e+23
7.425604207e+23
7.80541061e+23
7.890673364e+23
8.107705637e+23
7.890673288e+23
7.681392243e+23
8.107705637e+23
7.937180203e+23
7.766654922e+23
8.231724079e+23
7.634885254e+23
8.223972927e+23
8.518516726e+23
8.123207864e+23
8.658037473e+23
8.231724079e+23
8.309235525e+23
8.673539778e+23
8.425502895e+23
8.991336949e+23
9.471908498e+23
9.510664261e+23
9.456406101e+23
8.076701027e+23
5.406700154e+23
7.608867279e+23
7.654429431e+23
7.601273671e+23
8.049300714e+23
7.525336871e+23
7.517743191e+23
7.760740877e+23
7.403837991e+23
8.01133239e+23
7.715178797e+23
7.259558071e+23
7.722772551e+23
7.608867279e+23
7.692397831e+23
7.813896711e+23
7.555711519e+23
8.10245655e+23
8.15561231e+23
7.540524159e+23
7.92780191e+23
8.21636175e+23
8.337860551e+23
7.525336871e+23
7.98855135e+23
8.482140469e+23
9.059260229e+23
8.907386629e+23
9.469318859e+23
7.411431671e+23
5.663726061e+23
7.479690721e+23
7.9932218e+23
7.613655402e+23
7.583885418e+23
6.921504911e+23
7.338283701e+23
7.085239369e+23
7.635982837e+23
7.271301395e+23
7.412708416e+23
7.382938571e+23
7.524345661e+23
6.966159716e+23
7.487133269e+23
7.57644301e+23
7.360611068e+23
7.643425315e+23
7.546673096e+23
7.323398676e+23
7.427593442e+23
7.889027102e+23
8.179283684e+23
8.261151022e+23
8.089974019e+23
7.948566856e+23
8.797009467e+23
9.072381168e+23
9.109593475e+23
7.76250497e+23
5.888824709e+23
7.392043836e+23
7.377449542e+23
7.246100292e+23
6.888538382e+23
7.253397473e+23
6.589354042e+23
7.070967894e+23
7.114751042e+23
7.399341084e+23
7.143939699e+23
6.69151457e+23
7.136642584e+23
6.538273718e+23
7.070967959e+23
7.0928595e+23
7.392043836e+23
6.859349723e+23
7.443124167e+23
6.881241201e+23
7.698525487e+23
7.319072098e+23
7.574473348e+23
7.735011389e+23
7.727714209e+23
7.910143651e+23
8.493918167e+23
8.632564598e+23
9.012017904e+23
7.727714209e+23
5.611438692e+23
7.264808956e+23
6.885464314e+23
7.064400497e+23
6.928408936e+23
6.914094103e+23
6.634953658e+23
6.778102543e+23
6.821047288e+23
6.885464314e+23
6.985668514e+23
7.250494127e+23
6.785260051e+23
6.484647206e+23
7.042928155e+23
6.92125155e+23
7.164604695e+23
7.171762206e+23
7.085872839e+23
6.906936594e+23
7.114502628e+23
6.949881339e+23
7.128817459e+23
7.257651574e+23
7.629838834e+23
7.908979208e+23
7.844562254e+23
8.560306985e+23
9.032698426e+23
8.17380483e+23
5.211040033e+23
6.63670187e+23
6.510288558e+23
6.770138263e+23
6.69288559e+23
6.629678963e+23
6.250438853e+23
6.250438798e+23
6.355783328e+23
5.920359498e+23
6.124025429e+23
6.559449313e+23
6.580518208e+23
6.482196641e+23
6.868459773e+23
6.938689423e+23
6.763115239e+23
6.861436808e+23
6.959758318e+23
6.959758257e+23
7.015942038e+23
7.430296974e+23
7.051056801e+23
7.346021394e+23
7.296860639e+23
7.570756207e+23
8.083432719e+23
8.294121669e+23
8.785729142e+23
8.069386789e+23
4.632393769e+23
6.197205301e+23
6.073123378e+23
6.52119718e+23
6.114483984e+23
6.355754546e+23
5.907680744e+23
5.693983958e+23
6.376434875e+23
6.21099224e+23
5.962828237e+23
6.273033228e+23
6.459156192e+23
6.390221706e+23
6.597025054e+23
6.210992241e+23
6.521197124e+23
6.155844696e+23
6.32128733e+23
6.590131555e+23
6.43158242e+23
6.714213587e+23
6.576344669e+23
6.755574246e+23
7.038205413e+23
7.127820112e+23
7.438025114e+23
7.837844814e+23
8.623697254e+23
7.968820233e+23
4.548507363e+23
6.416644261e+23
5.563799185e+23
5.5164189e+23
5.746551664e+23
6.105288156e+23
5.70594004e+23
5.902229742e+23
5.719477264e+23
6.010527586e+23
5.787163336e+23
5.827775058e+23
6.328652357e+23
6.166205613e+23
6.355726806e+23
6.450487376e+23
6.376032588e+23
6.112056768e+23
6.450487376e+23
6.145899777e+23
6.355726806e+23
6.308346521e+23
6.409875649e+23
6.660314352e+23
6.599396843e+23
7.296563832e+23
7.147654427e+23
7.526696707e+23
8.393078991e+23
7.94635066e+23
4.068711749e+23
6.023288912e+23
5.238798788e+23
5.471486552e+23
5.378411401e+23
5.471486552e+23
5.345170337e+23
5.458190063e+23
5.504727661e+23
5.504727661e+23
5.79060115e+23
5.710822537e+23
5.857083417e+23
6.116364017e+23
5.644340319e+23
5.910269191e+23
5.883676255e+23
5.724118981e+23
6.096419402e+23
6.349051778e+23
6.269273169e+23
5.990047853e+23
6.096419351e+23
6.116364067e+23
6.60168426e+23
6.488664435e+23
6.841020245e+23
7.485897761e+23
7.572324581e+23
7.605565753e+23
)
;

boundaryField
{
    inlet
    {
        type            calculated;
        value           nonuniform List<scalar> 
20
(
1.832e+23
2.288e+23
1.128e+23
7.52e+22
4.56e+22
3.36e+22
2.24e+22
2.56e+22
1.52e+22
1.12e+22
1.28e+22
8.8e+21
4.8e+21
6.4e+21
3.2e+21
4.8e+21
5.6e+21
4e+21
3.2e+21
2.4e+21
)
;
    }
    outlet
    {
        type            calculated;
        value           nonuniform List<scalar> 
70
(
4.288e+23
5.336e+23
5.168e+23
5.36e+23
5.616e+23
6.136e+23
5.872e+23
5.856e+23
6.136e+23
6.456e+23
7.176e+23
7.752e+23
8.808e+23
9.608e+23
1.0416e+24
1.1296e+24
1.1888e+24
1.2304e+24
1.3288e+24
1.2936e+24
2.4e+21
1.28e+22
5.024e+23
1.984e+24
8.784e+23
5.064e+23
9.856e+23
1.2608e+24
9.504e+23
8.816e+23
1.004257857e+24
1.032593208e+24
9.607663752e+23
1.020072942e+24
9.989861543e+23
9.772404215e+23
9.746045742e+23
9.666970239e+23
1.018755018e+24
9.416564817e+23
9.778993752e+23
9.950323914e+23
9.963503151e+23
9.877838029e+23
9.877838111e+23
9.96350315e+23
1.023367742e+24
1.000963048e+24
1.024026713e+24
1.051703102e+24
1.085310165e+24
1.074766775e+24
1.091899774e+24
1.141980884e+24
1.147252578e+24
1.176905852e+24
1.159113892e+24
1.232917619e+24
1.240825151e+24
1.263888826e+24
1.2424e+24
1.2312e+24
1.2776e+24
1.2856e+24
1.2368e+24
1.2448e+24
1.2616e+24
1.2608e+24
1.2768e+24
1.2936e+24
)
;
    }
    wall
    {
        type            calculated;
        value           uniform 8e-301;
    }
    frontAndBack
    {
        type            empty;
    }
}


// ************************************************************************* //
