/*--------------------------------*- C++ -*----------------------------------*\
| =========                 |                                                 |
| \\      /  F ield         | OpenFOAM: The Open Source CFD Toolbox           |
|  \\    /   O peration     | Version:  v1912                                 |
|   \\  /    A nd           | Website:  www.openfoam.com                      |
|    \\/     M anipulation  |                                                 |
\*---------------------------------------------------------------------------*/
FoamFile
{
    version     2.0;
    format      ascii;
    class       volScalarField;
    location    "8.54";
    object      T;
}
// * * * * * * * * * * * * * * * * * * * * * * * * * * * * * * * * * * * * * //

dimensions      [0 0 0 1 0 0 0];


internalField   nonuniform List<scalar> 
1900
(
1.19916
1.06741
0.982183
0.939945
0.927554
0.926201
0.929596
0.936301
0.944055
0.950139
1.19916
1.06741
0.982181
0.939938
0.927557
0.926216
0.929627
0.936356
0.944583
0.950423
1.19917
1.06741
0.98218
0.939935
0.927565
0.926243
0.929672
0.936298
0.944443
0.949906
1.19916
1.06741
0.982181
0.939938
0.927557
0.926216
0.929627
0.936356
0.944583
0.950423
1.19916
1.06741
0.982183
0.939945
0.927554
0.926201
0.929596
0.936301
0.944055
0.950139
0.957525
0.954158
0.957649
0.966905
1.00789
0.952931
0.951373
0.954344
0.962024
0.990257
0.951852
0.950652
0.953446
0.961695
0.988298
0.952931
0.951373
0.954344
0.962024
0.990257
0.957525
0.954158
0.957649
0.966905
1.00789
0.7985
0.68209
0.616988
0.571343
0.538858
0.818614
0.698635
0.630133
0.584688
0.545138
0.818529
0.692952
0.623835
0.579864
0.535605
0.818614
0.698635
0.630133
0.584688
0.545138
0.7985
0.68209
0.616988
0.571343
0.538858
0.508423
0.489666
0.477192
0.469771
0.463299
0.457664
0.450456
0.442961
0.435047
0.421941
0.418503
0.422634
0.457906
0.517043
0.543284
0.554318
0.561329
0.571031
0.575883
0.572023
0.556461
0.531548
0.510576
0.495759
0.476661
0.434704
0.368446
0.341402
0.357663
0.411415
0.44116
0.45176
0.460251
0.471502
0.485245
0.497439
0.503666
0.50484
0.504287
0.50301
0.527236
0.53096
0.525776
0.515415
0.503424
0.4909
0.477634
0.466661
0.456099
0.440296
0.432912
0.436488
0.473319
0.532117
0.555305
0.563852
0.568082
0.57415
0.576767
0.572713
0.556284
0.531269
0.510009
0.495528
0.477326
0.435822
0.368971
0.341449
0.357668
0.411411
0.441149
0.451744
0.460231
0.47148
0.485229
0.497419
0.503632
0.504789
0.504228
0.502954
0.528371
0.534872
0.536821
0.531265
0.520231
0.506394
0.490158
0.477119
0.465216
0.447854
0.438739
0.44211
0.479427
0.538024
0.560207
0.567424
0.570559
0.575265
0.577222
0.573055
0.556184
0.533295
0.512775
0.497522
0.477994
0.435904
0.368826
0.341433
0.357674
0.411416
0.441144
0.451735
0.46022
0.471469
0.485219
0.497411
0.503617
0.504756
0.504181
0.502895
0.527236
0.53096
0.525776
0.515415
0.503424
0.4909
0.477634
0.466661
0.456099
0.440296
0.432912
0.436488
0.473319
0.532117
0.555305
0.563852
0.568082
0.57415
0.576767
0.572713
0.556284
0.531269
0.510009
0.495528
0.477326
0.435822
0.368971
0.341449
0.357668
0.411411
0.441149
0.451744
0.460231
0.47148
0.485229
0.497419
0.503632
0.504789
0.504228
0.502954
0.508423
0.489666
0.477192
0.469771
0.463299
0.457664
0.450456
0.442961
0.435047
0.421941
0.418503
0.422634
0.457906
0.517043
0.543284
0.554318
0.561329
0.571031
0.575883
0.572023
0.556461
0.531548
0.510576
0.495759
0.476661
0.434704
0.368446
0.341402
0.357663
0.411415
0.44116
0.45176
0.460251
0.471502
0.485245
0.497439
0.503666
0.50484
0.504287
0.50301
0.402645
0.39802
0.3928
0.390354
0.391227
0.391947
0.392515
0.392978
0.391686
0.385907
0.385121
0.389396
0.42341
0.481538
0.514196
0.531287
0.545803
0.567188
0.582565
0.581441
0.567544
0.540841
0.515031
0.496387
0.475109
0.432171
0.366766
0.341198
0.357619
0.411412
0.44119
0.451809
0.460292
0.471522
0.485244
0.497465
0.503789
0.505038
0.50449
0.503167
0.329688
0.328839
0.326562
0.325461
0.327001
0.329818
0.333871
0.339345
0.342322
0.3433
0.34599
0.353461
0.390118
0.442832
0.480519
0.504621
0.526041
0.554003
0.567479
0.564885
0.551055
0.528182
0.507942
0.492384
0.471258
0.426472
0.362603
0.340675
0.35752
0.411425
0.441306
0.45198
0.460441
0.471611
0.485283
0.497505
0.503918
0.50525
0.504679
0.503225
0.321934
0.323517
0.325016
0.325947
0.326614
0.327388
0.32861
0.329684
0.330036
0.330927
0.333022
0.341713
0.383291
0.428756
0.465836
0.490669
0.515625
0.54778
0.559514
0.555333
0.540575
0.520532
0.503449
0.488437
0.465406
0.417517
0.357106
0.340078
0.357427
0.411419
0.441445
0.452202
0.460638
0.471731
0.485354
0.497588
0.504058
0.505433
0.504837
0.503349
0.319422
0.319104
0.319635
0.32085
0.321344
0.321489
0.321656
0.320592
0.320485
0.324228
0.330211
0.344217
0.38219
0.418975
0.453118
0.479873
0.511136
0.544535
0.551526
0.545383
0.529837
0.51226
0.497832
0.482854
0.456934
0.405668
0.351387
0.339511
0.3574
0.411462
0.441615
0.45242
0.46081
0.471824
0.485406
0.497679
0.504224
0.505626
0.505026
0.50359
0.322947
0.322754
0.322753
0.323118
0.322993
0.322843
0.322725
0.32066
0.322072
0.326979
0.336221
0.357972
0.389069
0.420915
0.45453
0.482823
0.517782
0.543734
0.543388
0.533934
0.5187
0.50425
0.491474
0.475284
0.44535
0.391458
0.346294
0.338866
0.357094
0.410996
0.441321
0.45223
0.460604
0.471549
0.48511
0.497516
0.504266
0.505776
0.505249
0.503889
0.328113
0.327948
0.327709
0.327613
0.327207
0.327112
0.326432
0.325884
0.329727
0.335966
0.346883
0.36858
0.397392
0.429616
0.460782
0.491482
0.527775
0.538823
0.534054
0.522207
0.508345
0.496164
0.483537
0.464977
0.430301
0.376356
0.342423
0.338118
0.356604
0.410416
0.441023
0.452186
0.460601
0.471374
0.484761
0.497247
0.504207
0.505867
0.50544
0.50416
0.33425
0.334113
0.333893
0.333493
0.332778
0.332776
0.332684
0.333838
0.338614
0.349021
0.363662
0.384819
0.412698
0.443757
0.471579
0.508405
0.531647
0.530392
0.521964
0.509783
0.498132
0.487142
0.473485
0.451968
0.41306
0.363328
0.340848
0.338496
0.357069
0.411515
0.443249
0.454997
0.463449
0.473806
0.48646
0.49792
0.504328
0.505977
0.505663
0.504445
0.342766
0.342674
0.342561
0.34229
0.342305
0.342925
0.344387
0.348028
0.355218
0.366845
0.382639
0.405009
0.433211
0.460198
0.494323
0.521481
0.52368
0.518211
0.508565
0.498157
0.489217
0.479642
0.465715
0.441551
0.400094
0.357655
0.344731
0.343621
0.364045
0.422851
0.456771
0.468013
0.474348
0.481671
0.491918
0.501956
0.506956
0.507169
0.506117
0.504811
0.357252
0.35721
0.357297
0.357505
0.358057
0.359108
0.361156
0.365724
0.374137
0.386688
0.405272
0.431193
0.456176
0.483687
0.509874
0.516462
0.51353
0.505463
0.497413
0.49309
0.488733
0.481994
0.470947
0.447005
0.40802
0.38297
0.377991
0.37918
0.409689
0.473199
0.501066
0.505759
0.506242
0.506903
0.510634
0.513699
0.513864
0.511487
0.507626
0.505445
0.379862
0.379902
0.379609
0.378556
0.378095
0.378882
0.38212
0.389041
0.399808
0.414708
0.435505
0.460204
0.48196
0.498781
0.508129
0.505726
0.501766
0.502285
0.504803
0.508901
0.513261
0.512201
0.499903
0.47154
0.439483
0.426826
0.424677
0.427072
0.46154
0.514471
0.534132
0.53552
0.534106
0.533147
0.534656
0.535397
0.5307
0.521128
0.512231
0.507302
0.41017
0.409977
0.408677
0.407542
0.408328
0.411139
0.416121
0.422847
0.431633
0.443865
0.461605
0.473887
0.488326
0.501178
0.505073
0.510679
0.521903
0.535301
0.546563
0.550684
0.547443
0.536247
0.511301
0.476693
0.454955
0.449344
0.447685
0.450297
0.481392
0.52498
0.543522
0.546456
0.546769
0.546815
0.549019
0.551225
0.548794
0.536288
0.52113
0.511825
0.448326
0.446044
0.44443
0.444298
0.44501
0.445732
0.446095
0.447643
0.454851
0.470954
0.486156
0.497543
0.510376
0.526837
0.544047
0.55955
0.569733
0.574621
0.573404
0.566413
0.551767
0.529034
0.497081
0.471134
0.462023
0.459134
0.457802
0.460292
0.486604
0.52478
0.543569
0.547971
0.549491
0.550075
0.552687
0.555846
0.556774
0.548376
0.532677
0.519706
0.48656
0.486645
0.48935
0.492355
0.494911
0.500911
0.511893
0.52203
0.528875
0.536268
0.545466
0.556258
0.568863
0.57769
0.585344
0.589373
0.587924
0.581295
0.570862
0.558427
0.538488
0.509382
0.483544
0.472266
0.468949
0.466917
0.465741
0.467836
0.488661
0.522418
0.542345
0.548131
0.550514
0.551263
0.553396
0.555724
0.556706
0.552263
0.54069
0.529318
0.524436
0.531693
0.543701
0.553212
0.561119
0.57013
0.580471
0.589549
0.596227
0.599533
0.599007
0.595991
0.595891
0.594653
0.592655
0.589217
0.583357
0.574187
0.560516
0.541959
0.517995
0.494747
0.483104
0.479907
0.478034
0.476374
0.475147
0.476946
0.491866
0.521218
0.541949
0.548973
0.551755
0.55199
0.553146
0.554507
0.555331
0.552807
0.545276
0.536794
0.545382
0.551865
0.56135
0.568088
0.575162
0.583291
0.592187
0.600411
0.606889
0.61076
0.609978
0.60556
0.600995
0.59641
0.590618
0.582716
0.573082
0.561795
0.546301
0.525361
0.505122
0.494763
0.491906
0.491057
0.489672
0.488136
0.486794
0.48841
0.498134
0.522494
0.543104
0.550737
0.553114
0.552674
0.552827
0.552676
0.55258
0.551139
0.545939
0.540093
0.544143
0.547468
0.555928
0.562472
0.570619
0.579722
0.589039
0.598487
0.607706
0.613158
0.612862
0.608427
0.601165
0.592888
0.584031
0.574589
0.563539
0.549471
0.531364
0.514328
0.505965
0.503453
0.502998
0.502404
0.501136
0.49969
0.498335
0.499452
0.50509
0.523182
0.543998
0.552914
0.554979
0.553582
0.551965
0.550069
0.548357
0.547561
0.54527
0.541434
0.538106
0.537511
0.544583
0.551947
0.561585
0.57175
0.582363
0.594225
0.605981
0.612591
0.612626
0.60676
0.596628
0.585888
0.575888
0.565311
0.551446
0.534719
0.52059
0.513936
0.511346
0.510618
0.510084
0.509223
0.50796
0.506686
0.505525
0.505693
0.509113
0.521128
0.540374
0.553216
0.55598
0.554539
0.551737
0.548049
0.544264
0.542309
0.541627
0.539244
0.53266
0.529401
0.5334
0.539711
0.550036
0.559993
0.571193
0.583934
0.596104
0.603213
0.60417
0.597759
0.585357
0.572914
0.56138
0.548749
0.534674
0.523608
0.517623
0.514673
0.513598
0.512855
0.511921
0.510816
0.509594
0.508487
0.507515
0.507182
0.509431
0.515761
0.528824
0.543411
0.550413
0.551739
0.550207
0.547159
0.542487
0.538549
0.537618
0.53305
0.501912
0.516256
0.525484
0.527722
0.535177
0.544126
0.555047
0.567486
0.579829
0.586434
0.585971
0.57675
0.563658
0.552178
0.541109
0.530614
0.522814
0.5181
0.51567
0.514497
0.51362
0.512486
0.511094
0.509776
0.508683
0.507822
0.507167
0.506847
0.507285
0.509997
0.516663
0.527665
0.537377
0.543356
0.544577
0.54451
0.541434
0.537463
0.536045
0.52257
0.402508
0.47324
0.516181
0.52093
0.524112
0.53037
0.541077
0.552832
0.561789
0.565613
0.559978
0.548479
0.538076
0.530121
0.523849
0.519201
0.516077
0.514174
0.513211
0.512543
0.511632
0.51034
0.508906
0.507677
0.506766
0.506171
0.505771
0.505635
0.50569
0.506601
0.509513
0.515904
0.525461
0.534119
0.538345
0.54059
0.538784
0.532836
0.522776
0.489184
0.402508
0.47324
0.516181
0.52093
0.524112
0.53037
0.541077
0.552832
0.561789
0.565613
0.559978
0.548479
0.538076
0.530121
0.523849
0.519201
0.516077
0.514174
0.513211
0.512543
0.511632
0.51034
0.508906
0.507677
0.506766
0.506171
0.505771
0.505635
0.50569
0.506601
0.509513
0.515904
0.525461
0.534119
0.538345
0.54059
0.538784
0.532836
0.522776
0.489184
0.501912
0.516256
0.525484
0.527722
0.535177
0.544126
0.555047
0.567486
0.579829
0.586434
0.585971
0.57675
0.563658
0.552178
0.541109
0.530614
0.522814
0.5181
0.51567
0.514497
0.51362
0.512486
0.511094
0.509776
0.508683
0.507822
0.507167
0.506847
0.507285
0.509997
0.516663
0.527665
0.537377
0.543356
0.544577
0.54451
0.541434
0.537463
0.536045
0.52257
0.53266
0.529401
0.5334
0.539711
0.550036
0.559993
0.571193
0.583934
0.596104
0.603213
0.60417
0.597759
0.585357
0.572914
0.56138
0.548749
0.534674
0.523608
0.517623
0.514673
0.513598
0.512855
0.511921
0.510816
0.509594
0.508487
0.507515
0.507182
0.509431
0.515761
0.528824
0.543411
0.550413
0.551739
0.550207
0.547159
0.542487
0.538549
0.537618
0.53305
0.538106
0.537511
0.544583
0.551947
0.561585
0.57175
0.582363
0.594225
0.605981
0.612591
0.612626
0.60676
0.596628
0.585888
0.575888
0.565311
0.551446
0.534719
0.52059
0.513936
0.511346
0.510618
0.510084
0.509223
0.50796
0.506686
0.505525
0.505693
0.509113
0.521128
0.540374
0.553216
0.55598
0.554539
0.551737
0.548049
0.544264
0.542309
0.541627
0.539244
0.544143
0.547468
0.555928
0.562472
0.570619
0.579722
0.589039
0.598487
0.607706
0.613158
0.612862
0.608427
0.601165
0.592888
0.584031
0.574589
0.563539
0.549471
0.531364
0.514328
0.505965
0.503453
0.502998
0.502404
0.501136
0.49969
0.498335
0.499452
0.50509
0.523182
0.543998
0.552914
0.554979
0.553582
0.551965
0.550069
0.548357
0.547561
0.54527
0.541434
0.545382
0.551865
0.56135
0.568088
0.575162
0.583291
0.592187
0.600411
0.606889
0.61076
0.609978
0.60556
0.600995
0.59641
0.590618
0.582716
0.573082
0.561795
0.546301
0.525361
0.505122
0.494763
0.491906
0.491057
0.489672
0.488136
0.486794
0.48841
0.498134
0.522494
0.543104
0.550737
0.553114
0.552674
0.552827
0.552676
0.55258
0.551139
0.545939
0.540093
0.524436
0.531693
0.543701
0.553212
0.561119
0.57013
0.580471
0.589549
0.596227
0.599533
0.599007
0.595991
0.595891
0.594653
0.592655
0.589217
0.583357
0.574187
0.560516
0.541959
0.517995
0.494747
0.483104
0.479907
0.478034
0.476374
0.475147
0.476946
0.491866
0.521218
0.541949
0.548973
0.551755
0.55199
0.553146
0.554507
0.555331
0.552807
0.545276
0.536794
0.48656
0.486645
0.48935
0.492355
0.494911
0.500911
0.511893
0.52203
0.528875
0.536268
0.545466
0.556258
0.568863
0.57769
0.585344
0.589373
0.587924
0.581295
0.570862
0.558427
0.538488
0.509382
0.483544
0.472266
0.468949
0.466917
0.465741
0.467836
0.488661
0.522418
0.542345
0.548131
0.550514
0.551263
0.553396
0.555724
0.556706
0.552263
0.54069
0.529318
0.448326
0.446044
0.44443
0.444298
0.44501
0.445732
0.446095
0.447643
0.454851
0.470954
0.486156
0.497543
0.510376
0.526837
0.544047
0.55955
0.569733
0.574621
0.573404
0.566413
0.551767
0.529034
0.497081
0.471134
0.462023
0.459134
0.457802
0.460292
0.486604
0.52478
0.543569
0.547971
0.549491
0.550075
0.552687
0.555846
0.556774
0.548376
0.532677
0.519706
0.41017
0.409977
0.408677
0.407542
0.408328
0.411139
0.416121
0.422847
0.431633
0.443865
0.461605
0.473887
0.488326
0.501178
0.505073
0.510679
0.521903
0.535301
0.546563
0.550684
0.547443
0.536247
0.511301
0.476693
0.454955
0.449344
0.447685
0.450297
0.481392
0.52498
0.543522
0.546456
0.546769
0.546815
0.549019
0.551225
0.548794
0.536288
0.52113
0.511825
0.379862
0.379902
0.379609
0.378556
0.378095
0.378882
0.38212
0.389041
0.399808
0.414708
0.435505
0.460204
0.48196
0.498781
0.508129
0.505726
0.501766
0.502285
0.504803
0.508901
0.513261
0.512201
0.499903
0.47154
0.439483
0.426826
0.424677
0.427072
0.46154
0.514471
0.534132
0.53552
0.534106
0.533147
0.534656
0.535397
0.5307
0.521128
0.512231
0.507302
0.357252
0.35721
0.357297
0.357505
0.358057
0.359108
0.361156
0.365724
0.374137
0.386688
0.405272
0.431193
0.456176
0.483687
0.509874
0.516462
0.51353
0.505463
0.497413
0.49309
0.488733
0.481994
0.470947
0.447005
0.40802
0.38297
0.377991
0.37918
0.409689
0.473199
0.501066
0.505759
0.506242
0.506903
0.510634
0.513699
0.513864
0.511487
0.507626
0.505445
0.342766
0.342674
0.342561
0.34229
0.342305
0.342925
0.344387
0.348028
0.355218
0.366845
0.382639
0.405009
0.433211
0.460198
0.494323
0.521481
0.52368
0.518211
0.508565
0.498157
0.489217
0.479642
0.465715
0.441551
0.400094
0.357655
0.344731
0.343621
0.364045
0.422851
0.456771
0.468013
0.474348
0.481671
0.491918
0.501956
0.506956
0.507169
0.506117
0.504811
0.33425
0.334113
0.333893
0.333493
0.332778
0.332776
0.332684
0.333838
0.338614
0.349021
0.363662
0.384819
0.412698
0.443757
0.471579
0.508405
0.531647
0.530392
0.521964
0.509783
0.498132
0.487142
0.473485
0.451968
0.41306
0.363328
0.340848
0.338496
0.357069
0.411515
0.443249
0.454997
0.463449
0.473806
0.48646
0.49792
0.504328
0.505977
0.505663
0.504445
0.328113
0.327948
0.327709
0.327613
0.327207
0.327112
0.326432
0.325884
0.329727
0.335966
0.346883
0.36858
0.397392
0.429616
0.460782
0.491482
0.527775
0.538823
0.534054
0.522207
0.508345
0.496164
0.483537
0.464977
0.430301
0.376356
0.342423
0.338118
0.356604
0.410416
0.441023
0.452186
0.460601
0.471374
0.484761
0.497247
0.504207
0.505867
0.50544
0.50416
0.322947
0.322754
0.322753
0.323118
0.322993
0.322843
0.322725
0.32066
0.322072
0.326979
0.336221
0.357972
0.389069
0.420915
0.45453
0.482823
0.517782
0.543734
0.543388
0.533934
0.5187
0.50425
0.491474
0.475284
0.44535
0.391458
0.346294
0.338866
0.357094
0.410996
0.441321
0.45223
0.460604
0.471549
0.48511
0.497516
0.504266
0.505776
0.505249
0.503889
0.319422
0.319104
0.319635
0.32085
0.321344
0.321489
0.321656
0.320592
0.320485
0.324228
0.330211
0.344217
0.38219
0.418975
0.453118
0.479873
0.511136
0.544535
0.551526
0.545383
0.529837
0.51226
0.497832
0.482854
0.456934
0.405668
0.351387
0.339511
0.3574
0.411462
0.441615
0.45242
0.46081
0.471824
0.485406
0.497679
0.504224
0.505626
0.505026
0.50359
0.321934
0.323517
0.325016
0.325947
0.326614
0.327388
0.32861
0.329684
0.330036
0.330927
0.333022
0.341713
0.383291
0.428756
0.465836
0.490669
0.515625
0.54778
0.559514
0.555333
0.540575
0.520532
0.503449
0.488437
0.465406
0.417517
0.357106
0.340078
0.357427
0.411419
0.441445
0.452202
0.460638
0.471731
0.485354
0.497588
0.504058
0.505433
0.504837
0.503349
0.329688
0.328839
0.326562
0.325461
0.327001
0.329818
0.333871
0.339345
0.342322
0.3433
0.34599
0.353461
0.390118
0.442832
0.480519
0.504621
0.526041
0.554003
0.567479
0.564885
0.551055
0.528182
0.507942
0.492384
0.471258
0.426472
0.362603
0.340675
0.35752
0.411425
0.441306
0.45198
0.460441
0.471611
0.485283
0.497505
0.503918
0.50525
0.504679
0.503225
0.402645
0.39802
0.3928
0.390354
0.391227
0.391947
0.392515
0.392978
0.391686
0.385907
0.385121
0.389396
0.42341
0.481538
0.514196
0.531287
0.545803
0.567188
0.582565
0.581441
0.567544
0.540841
0.515031
0.496387
0.475109
0.432171
0.366766
0.341198
0.357619
0.411412
0.44119
0.451809
0.460292
0.471522
0.485244
0.497465
0.503789
0.505038
0.50449
0.503167
)
;

boundaryField
{
    inlet
    {
        type            fixedValue;
        value           uniform 1;
    }
    outlet
    {
        type            zeroGradient;
    }
    obstacle
    {
        type            zeroGradient;
    }
    empty
    {
        type            empty;
    }
}


// ************************************************************************* //
