/*--------------------------------*- C++ -*----------------------------------*\
| =========                 |                                                 |
| \\      /  F ield         | OpenFOAM: The Open Source CFD Toolbox           |
|  \\    /   O peration     | Version:  v1912                                 |
|   \\  /    A nd           | Website:  www.openfoam.com                      |
|    \\/     M anipulation  |                                                 |
\*---------------------------------------------------------------------------*/
FoamFile
{
    version     2.0;
    format      ascii;
    class       volVectorField;
    location    "6.68";
    object      U;
}
// * * * * * * * * * * * * * * * * * * * * * * * * * * * * * * * * * * * * * //

dimensions      [0 1 -1 0 0 0 0];


internalField   nonuniform List<vector> 
1900
(
(-0.759907 -1.64021e-06 0)
(-0.0448308 -1.17083e-06 0)
(0.0885622 2.18877e-06 0)
(0.0867992 3.01703e-06 0)
(0.0888154 -3.23418e-06 0)
(0.0900883 -2.66905e-05 0)
(0.0917702 -8.61284e-05 0)
(0.0940639 0.000224167 0)
(0.0959036 0.00286291 0)
(0.0894279 0.0119959 0)
(-0.759906 -2.59626e-07 0)
(-0.044828 5.35376e-07 0)
(0.0885681 5.64151e-06 0)
(0.0868073 5.11828e-06 0)
(0.0888118 -2.93915e-06 0)
(0.0900367 -3.1716e-05 0)
(0.0916318 -9.12334e-05 0)
(0.0937513 0.000150691 0)
(0.0971937 0.00201536 0)
(0.101108 0.0113871 0)
(-0.759905 -7.46368e-14 0)
(-0.0448262 -9.54425e-14 0)
(0.088569 -1.75436e-14 0)
(0.0868047 -2.74853e-15 0)
(0.088792 3.95396e-14 0)
(0.0899984 9.85762e-14 0)
(0.091616 1.21263e-13 0)
(0.0939128 6.83838e-14 0)
(0.0979226 -1.4439e-15 0)
(0.107716 -9.11756e-14 0)
(-0.759906 2.59626e-07 0)
(-0.044828 -5.35376e-07 0)
(0.0885681 -5.64151e-06 0)
(0.0868073 -5.11828e-06 0)
(0.0888118 2.93915e-06 0)
(0.0900367 3.1716e-05 0)
(0.0916318 9.12334e-05 0)
(0.0937513 -0.000150691 0)
(0.0971937 -0.00201536 0)
(0.101108 -0.0113871 0)
(-0.759907 1.64021e-06 0)
(-0.0448308 1.17083e-06 0)
(0.0885622 -2.18877e-06 0)
(0.0867992 -3.01703e-06 0)
(0.0888154 3.23418e-06 0)
(0.0900883 2.66905e-05 0)
(0.0917702 8.61284e-05 0)
(0.0940639 -0.000224167 0)
(0.0959036 -0.00286291 0)
(0.0894279 -0.0119959 0)
(0.0922125 0.0382331 0)
(0.128935 0.0512976 0)
(0.176807 0.0755793 0)
(0.253019 0.11755 0)
(0.398054 0.174071 0)
(0.11593 0.0277874 0)
(0.142755 0.0286082 0)
(0.17359 0.0380748 0)
(0.235946 0.0600117 0)
(0.377512 0.102562 0)
(0.126903 -1.18671e-13 0)
(0.152101 -1.21937e-13 0)
(0.184375 -6.6775e-14 0)
(0.247132 -2.65899e-14 0)
(0.387821 3.29025e-14 0)
(0.11593 -0.0277874 0)
(0.142755 -0.0286082 0)
(0.17359 -0.0380748 0)
(0.235946 -0.0600117 0)
(0.377512 -0.102562 0)
(0.0922125 -0.0382331 0)
(0.128935 -0.0512976 0)
(0.176807 -0.0755793 0)
(0.253019 -0.11755 0)
(0.398054 -0.174071 0)
(0.848869 0.0301369 0)
(1.11081 -0.0518563 0)
(1.25326 -0.0845022 0)
(1.35495 -0.0915154 0)
(1.46549 -0.116963 0)
(0.821963 -0.0175831 0)
(1.12377 -0.048245 0)
(1.28479 -0.0595967 0)
(1.38801 -0.0587269 0)
(1.49195 -0.0800504 0)
(0.818074 1.8805e-14 0)
(1.12785 4.37982e-14 0)
(1.28029 -1.23793e-13 0)
(1.37926 2.74331e-13 0)
(1.47991 -3.82724e-13 0)
(0.821963 0.0175831 0)
(1.12377 0.048245 0)
(1.28479 0.0595967 0)
(1.38801 0.0587269 0)
(1.49195 0.0800504 0)
(0.848869 -0.0301369 0)
(1.11081 0.0518563 0)
(1.25326 0.0845022 0)
(1.35495 0.0915154 0)
(1.46549 0.116963 0)
(1.47941 -0.0731569 0)
(1.47383 -0.0562839 0)
(1.51842 -0.0902307 0)
(1.53447 -0.0161948 0)
(1.48745 0.0371087 0)
(1.15218 0.0063213 0)
(0.939629 -0.0309104 0)
(0.85694 -0.0687801 0)
(0.721169 -0.0956374 0)
(0.575185 -0.093279 0)
(0.459759 -0.0695674 0)
(0.373937 -0.0485736 0)
(0.294604 -0.0347621 0)
(0.19766 -0.0249632 0)
(0.103774 -0.0188063 0)
(0.0591272 -0.0161225 0)
(0.0486375 -0.0152638 0)
(0.047393 -0.0147982 0)
(0.0483851 -0.0143079 0)
(0.051328 -0.0138152 0)
(0.0585375 -0.0135678 0)
(0.0713793 -0.0134917 0)
(0.0884096 -0.0134736 0)
(0.107309 -0.0134606 0)
(0.126572 -0.0134389 0)
(0.145676 -0.0133987 0)
(0.164253 -0.0134256 0)
(0.182956 -0.0132699 0)
(0.200926 -0.0134066 0)
(0.218821 -0.0132567 0)
(0.236505 -0.0134783 0)
(0.253216 -0.0131337 0)
(0.268494 -0.0137323 0)
(0.281372 -0.0131395 0)
(0.293808 -0.0139584 0)
(0.295096 -0.0136782 0)
(0.248087 -0.0137951 0)
(0.125215 -0.0124645 0)
(0.0660164 -0.0152674 0)
(-0.0551077 -0.0145022 0)
(1.53677 -0.0383198 0)
(1.52753 -0.0280665 0)
(1.55684 -0.0490456 0)
(1.53986 -0.0211359 0)
(1.47557 0.0106594 0)
(1.1512 0.00301839 0)
(0.930723 -0.0170678 0)
(0.850672 -0.0330314 0)
(0.732458 -0.0470247 0)
(0.596138 -0.0463943 0)
(0.477201 -0.034779 0)
(0.384898 -0.0241665 0)
(0.299622 -0.0171395 0)
(0.199208 -0.0125504 0)
(0.10415 -0.00942409 0)
(0.0590927 -0.00804125 0)
(0.0485279 -0.00763308 0)
(0.0473516 -0.00739764 0)
(0.0483695 -0.00713429 0)
(0.05131 -0.0068999 0)
(0.0585302 -0.00677838 0)
(0.0714072 -0.00674497 0)
(0.0884777 -0.00673717 0)
(0.107419 -0.00673091 0)
(0.126722 -0.00672005 0)
(0.145863 -0.00669996 0)
(0.164474 -0.00671351 0)
(0.183208 -0.00663566 0)
(0.201207 -0.00670394 0)
(0.21913 -0.00662854 0)
(0.23684 -0.00673974 0)
(0.253572 -0.00656527 0)
(0.268866 -0.00686629 0)
(0.281739 -0.006562 0)
(0.294232 -0.0069721 0)
(0.295538 -0.00683672 0)
(0.24863 -0.00686027 0)
(0.125713 -0.0061941 0)
(0.0660804 -0.00762337 0)
(-0.0553963 -0.0071952 0)
(1.52601 4.07609e-13 0)
(1.52617 1.19202e-13 0)
(1.56121 2.25168e-12 0)
(1.53531 -8.14448e-13 0)
(1.46641 -1.97027e-12 0)
(1.14387 -9.28069e-12 0)
(0.922681 -1.13117e-11 0)
(0.853011 -1.59152e-12 0)
(0.731074 4.22709e-12 0)
(0.586293 2.77149e-12 0)
(0.467114 1.55684e-12 0)
(0.379672 2.18054e-12 0)
(0.299681 5.66406e-12 0)
(0.200857 8.89219e-12 0)
(0.104877 9.55293e-12 0)
(0.0592022 7.37757e-12 0)
(0.0485585 3.76141e-12 0)
(0.0474026 -2.39453e-12 0)
(0.0484194 -9.59317e-12 0)
(0.0513465 -1.16475e-11 0)
(0.0585394 -7.97354e-12 0)
(0.0714135 1.67344e-12 0)
(0.0884912 7.04669e-12 0)
(0.107439 3.62966e-12 0)
(0.126748 -7.61754e-12 0)
(0.145894 -1.24326e-11 0)
(0.16451 -1.84135e-11 0)
(0.183251 -2.07615e-11 0)
(0.201257 -8.09452e-12 0)
(0.219191 -9.83981e-12 0)
(0.236917 -7.04651e-12 0)
(0.253667 7.86039e-12 0)
(0.268987 8.6281e-12 0)
(0.281893 1.79855e-13 0)
(0.294461 9.37461e-13 0)
(0.295869 9.84723e-12 0)
(0.249153 8.07802e-12 0)
(0.126491 5.21644e-12 0)
(0.0670236 2.65389e-12 0)
(-0.0539839 -1.58872e-12 0)
(1.53677 0.0383198 0)
(1.52753 0.0280665 0)
(1.55684 0.0490456 0)
(1.53986 0.0211359 0)
(1.47557 -0.0106594 0)
(1.1512 -0.00301839 0)
(0.930723 0.0170678 0)
(0.850672 0.0330314 0)
(0.732458 0.0470247 0)
(0.596138 0.0463943 0)
(0.477201 0.034779 0)
(0.384898 0.0241665 0)
(0.299622 0.0171395 0)
(0.199208 0.0125504 0)
(0.10415 0.00942409 0)
(0.0590927 0.00804125 0)
(0.0485279 0.00763308 0)
(0.0473516 0.00739764 0)
(0.0483695 0.00713429 0)
(0.05131 0.0068999 0)
(0.0585302 0.00677838 0)
(0.0714072 0.00674497 0)
(0.0884777 0.00673717 0)
(0.107419 0.00673091 0)
(0.126722 0.00672005 0)
(0.145863 0.00669996 0)
(0.164474 0.00671351 0)
(0.183208 0.00663566 0)
(0.201207 0.00670394 0)
(0.21913 0.00662854 0)
(0.23684 0.00673974 0)
(0.253572 0.00656527 0)
(0.268866 0.00686629 0)
(0.281739 0.006562 0)
(0.294232 0.0069721 0)
(0.295538 0.00683672 0)
(0.24863 0.00686027 0)
(0.125713 0.0061941 0)
(0.0660804 0.00762337 0)
(-0.0553963 0.0071952 0)
(1.47941 0.0731569 0)
(1.47383 0.0562839 0)
(1.51842 0.0902307 0)
(1.53447 0.0161948 0)
(1.48745 -0.0371087 0)
(1.15218 -0.0063213 0)
(0.939629 0.0309104 0)
(0.85694 0.0687801 0)
(0.721169 0.0956374 0)
(0.575185 0.093279 0)
(0.459759 0.0695674 0)
(0.373937 0.0485736 0)
(0.294604 0.0347621 0)
(0.19766 0.0249632 0)
(0.103774 0.0188063 0)
(0.0591272 0.0161225 0)
(0.0486375 0.0152638 0)
(0.047393 0.0147982 0)
(0.0483851 0.0143079 0)
(0.051328 0.0138152 0)
(0.0585375 0.0135678 0)
(0.0713793 0.0134917 0)
(0.0884096 0.0134736 0)
(0.107309 0.0134606 0)
(0.126572 0.0134389 0)
(0.145676 0.0133987 0)
(0.164253 0.0134256 0)
(0.182956 0.0132699 0)
(0.200926 0.0134066 0)
(0.218821 0.0132567 0)
(0.236505 0.0134783 0)
(0.253216 0.0131337 0)
(0.268494 0.0137323 0)
(0.281372 0.0131395 0)
(0.293808 0.0139584 0)
(0.295096 0.0136782 0)
(0.248087 0.0137951 0)
(0.125215 0.0124645 0)
(0.0660164 0.0152674 0)
(-0.0551077 0.0145022 0)
(1.40298 0.130002 0)
(1.40369 0.154266 0)
(1.44575 0.15512 0)
(1.44211 0.0513988 0)
(1.3618 -0.0212576 0)
(1.07056 0.00740055 0)
(0.892975 0.0725322 0)
(0.778641 0.152065 0)
(0.641293 0.19797 0)
(0.5247 0.181396 0)
(0.43706 0.13593 0)
(0.364745 0.0971578 0)
(0.288701 0.0712724 0)
(0.191536 0.0523624 0)
(0.0995267 0.0392607 0)
(0.0575328 0.033513 0)
(0.0479518 0.0316529 0)
(0.0467704 0.0306954 0)
(0.0477723 0.0296764 0)
(0.0510525 0.0287537 0)
(0.0584855 0.0282622 0)
(0.0713984 0.0280529 0)
(0.0884371 0.0279926 0)
(0.107333 0.0279626 0)
(0.126598 0.0279187 0)
(0.14571 0.0278368 0)
(0.164301 0.0278937 0)
(0.183017 0.0275734 0)
(0.201013 0.0278572 0)
(0.21893 0.0275541 0)
(0.236634 0.028005 0)
(0.253395 0.027319 0)
(0.268735 0.0284948 0)
(0.28177 0.0273564 0)
(0.294129 0.0289643 0)
(0.295498 0.0284604 0)
(0.248395 0.0287166 0)
(0.125893 0.0257347 0)
(0.0677154 0.0309099 0)
(-0.0519056 0.0293697 0)
(1.32383 0.23095 0)
(1.33885 0.245344 0)
(1.30178 0.262364 0)
(1.25354 0.189955 0)
(1.12298 0.0820159 0)
(0.929476 0.11186 0)
(0.754395 0.206316 0)
(0.617493 0.305857 0)
(0.497957 0.324707 0)
(0.42681 0.276657 0)
(0.376929 0.212245 0)
(0.327557 0.160161 0)
(0.261423 0.122188 0)
(0.16984 0.0907072 0)
(0.0876467 0.0687947 0)
(0.0535808 0.0597329 0)
(0.0463022 0.0566139 0)
(0.0453043 0.0548365 0)
(0.0463006 0.0530553 0)
(0.0501413 0.0516333 0)
(0.0581889 0.0508207 0)
(0.0713867 0.050406 0)
(0.0884652 0.0502616 0)
(0.107333 0.0501959 0)
(0.126582 0.0501158 0)
(0.145702 0.0499704 0)
(0.164324 0.0500744 0)
(0.183071 0.0495048 0)
(0.201127 0.0500098 0)
(0.219097 0.0494805 0)
(0.236849 0.0502653 0)
(0.253728 0.0490896 0)
(0.269201 0.0510446 0)
(0.282586 0.0491825 0)
(0.294806 0.051835 0)
(0.296215 0.0511103 0)
(0.248771 0.0514985 0)
(0.126304 0.0462147 0)
(0.0687704 0.0546747 0)
(-0.0505547 0.0522882 0)
(1.18122 0.346897 0)
(1.17829 0.352916 0)
(1.12526 0.337819 0)
(1.05702 0.26821 0)
(0.895302 0.223775 0)
(0.697661 0.264017 0)
(0.537224 0.37033 0)
(0.420004 0.419894 0)
(0.353733 0.402216 0)
(0.336012 0.340132 0)
(0.317451 0.265848 0)
(0.282483 0.208379 0)
(0.222398 0.162814 0)
(0.138503 0.122341 0)
(0.0721579 0.0958365 0)
(0.0485561 0.0854066 0)
(0.0439324 0.0813567 0)
(0.0430722 0.0786995 0)
(0.0442619 0.0761725 0)
(0.0488089 0.0743427 0)
(0.0576301 0.0732668 0)
(0.0712574 0.0726455 0)
(0.0884359 0.0723923 0)
(0.107274 0.072276 0)
(0.126487 0.0721582 0)
(0.145597 0.0719532 0)
(0.164245 0.0721099 0)
(0.183023 0.0713066 0)
(0.201146 0.072027 0)
(0.219169 0.0713033 0)
(0.236959 0.0723856 0)
(0.253959 0.0708191 0)
(0.269573 0.0733563 0)
(0.283352 0.071016 0)
(0.295447 0.0743741 0)
(0.296762 0.0736656 0)
(0.24881 0.0741371 0)
(0.126369 0.0669456 0)
(0.069751 0.0785695 0)
(-0.0491256 0.0754021 0)
(0.927488 0.397777 0)
(0.894132 0.383774 0)
(0.851246 0.35323 0)
(0.748166 0.321378 0)
(0.575629 0.353576 0)
(0.397924 0.443587 0)
(0.290259 0.50438 0)
(0.246744 0.493767 0)
(0.245554 0.449386 0)
(0.259465 0.370409 0)
(0.258435 0.298689 0)
(0.231983 0.242752 0)
(0.176197 0.191884 0)
(0.103444 0.147155 0)
(0.0567073 0.120914 0)
(0.043247 0.11056 0)
(0.0408081 0.105758 0)
(0.0401318 0.102135 0)
(0.0417982 0.0989205 0)
(0.0472049 0.096771 0)
(0.0568879 0.0954968 0)
(0.071021 0.0946921 0)
(0.0883407 0.0943297 0)
(0.107154 0.0941563 0)
(0.126321 0.0940011 0)
(0.14541 0.0937407 0)
(0.164078 0.093959 0)
(0.182895 0.0929495 0)
(0.201084 0.0938774 0)
(0.219163 0.0930006 0)
(0.23698 0.0943492 0)
(0.254099 0.092499 0)
(0.269839 0.0954574 0)
(0.284018 0.0928967 0)
(0.296034 0.0966051 0)
(0.297078 0.0961518 0)
(0.248586 0.0966974 0)
(0.126247 0.0878657 0)
(0.0708536 0.102451 0)
(-0.0473537 0.0987323 0)
(0.60521 0.446838 0)
(0.540742 0.411708 0)
(0.456118 0.407954 0)
(0.333972 0.464338 0)
(0.20178 0.540044 0)
(0.126477 0.574937 0)
(0.111062 0.561347 0)
(0.132969 0.51731 0)
(0.168926 0.449091 0)
(0.197735 0.379606 0)
(0.20212 0.318931 0)
(0.178403 0.263803 0)
(0.126139 0.209898 0)
(0.0693589 0.166681 0)
(0.0423908 0.144419 0)
(0.036991 0.134949 0)
(0.0362449 0.129429 0)
(0.0361532 0.124871 0)
(0.0387291 0.12113 0)
(0.0452538 0.118766 0)
(0.0559359 0.117381 0)
(0.0706575 0.116429 0)
(0.0881853 0.115964 0)
(0.107023 0.115733 0)
(0.126182 0.115545 0)
(0.145287 0.115236 0)
(0.164012 0.115527 0)
(0.182929 0.114346 0)
(0.201223 0.115472 0)
(0.219404 0.114486 0)
(0.237288 0.11607 0)
(0.254569 0.114038 0)
(0.270486 0.117298 0)
(0.285111 0.114611 0)
(0.297158 0.118505 0)
(0.297917 0.118385 0)
(0.249153 0.118905 0)
(0.127227 0.108749 0)
(0.073339 0.125799 0)
(-0.0435491 0.121626 0)
(0.20851 0.499144 0)
(0.124826 0.504757 0)
(0.0478355 0.552235 0)
(-0.0153966 0.606761 0)
(-0.0435016 0.615756 0)
(-0.0278407 0.59423 0)
(0.0161832 0.553205 0)
(0.0681489 0.499781 0)
(0.111609 0.44231 0)
(0.142526 0.385094 0)
(0.147248 0.330093 0)
(0.122847 0.275285 0)
(0.0777292 0.222617 0)
(0.042126 0.185949 0)
(0.0317233 0.167978 0)
(0.0313236 0.158919 0)
(0.031626 0.15247 0)
(0.0322045 0.147046 0)
(0.035775 0.142892 0)
(0.0434057 0.140406 0)
(0.0550244 0.138866 0)
(0.070262 0.137791 0)
(0.0879304 0.137231 0)
(0.106727 0.136945 0)
(0.125808 0.136734 0)
(0.144859 0.136385 0)
(0.163564 0.136766 0)
(0.182532 0.135461 0)
(0.200837 0.136781 0)
(0.219042 0.135734 0)
(0.236901 0.137533 0)
(0.254246 0.13542 0)
(0.270212 0.138902 0)
(0.285093 0.136195 0)
(0.297112 0.140021 0)
(0.297284 0.140361 0)
(0.247888 0.140874 0)
(0.125779 0.129697 0)
(0.073174 0.149179 0)
(-0.0431745 0.14491 0)
(-0.114032 0.557054 0)
(-0.153132 0.577659 0)
(-0.169003 0.611666 0)
(-0.168814 0.6129 0)
(-0.137835 0.592686 0)
(-0.0906877 0.562668 0)
(-0.0338042 0.527022 0)
(0.0208916 0.480693 0)
(0.0648642 0.433283 0)
(0.0923342 0.383055 0)
(0.0937175 0.331076 0)
(0.0684919 0.277775 0)
(0.0360408 0.231635 0)
(0.0202904 0.204086 0)
(0.0203038 0.190121 0)
(0.0230738 0.181278 0)
(0.0246836 0.174141 0)
(0.0266472 0.168203 0)
(0.0318611 0.163871 0)
(0.0409586 0.161457 0)
(0.0537402 0.15987 0)
(0.0697083 0.158689 0)
(0.0877346 0.158044 0)
(0.106705 0.157711 0)
(0.125915 0.157487 0)
(0.145119 0.157109 0)
(0.164014 0.157596 0)
(0.183205 0.1562 0)
(0.201707 0.1577 0)
(0.220112 0.156627 0)
(0.238115 0.158614 0)
(0.255675 0.156488 0)
(0.271832 0.160146 0)
(0.287049 0.157486 0)
(0.299178 0.161192 0)
(0.299093 0.161955 0)
(0.249831 0.162483 0)
(0.128029 0.150758 0)
(0.0766576 0.171995 0)
(-0.037942 0.167687 0)
(-0.19836 0.542833 0)
(-0.230813 0.560832 0)
(-0.226285 0.582816 0)
(-0.218214 0.573403 0)
(-0.180085 0.555058 0)
(-0.129473 0.531781 0)
(-0.0685259 0.503649 0)
(-0.0184761 0.46377 0)
(0.0229492 0.423639 0)
(0.0434742 0.377802 0)
(0.0407915 0.328326 0)
(0.0205095 0.280364 0)
(0.00625775 0.244872 0)
(0.0061171 0.224514 0)
(0.011932 0.212395 0)
(0.0166156 0.203144 0)
(0.0191708 0.195328 0)
(0.0223604 0.188964 0)
(0.0289595 0.184494 0)
(0.0392607 0.181958 0)
(0.0528569 0.180392 0)
(0.0691752 0.179122 0)
(0.08722 0.178397 0)
(0.106061 0.178021 0)
(0.125125 0.177799 0)
(0.144231 0.177409 0)
(0.163119 0.17801 0)
(0.182242 0.176559 0)
(0.200781 0.178229 0)
(0.219234 0.177182 0)
(0.237237 0.179334 0)
(0.254883 0.177258 0)
(0.271101 0.181048 0)
(0.286494 0.178495 0)
(0.298604 0.182028 0)
(0.29809 0.183132 0)
(0.248633 0.183554 0)
(0.126914 0.171472 0)
(0.0767881 0.194574 0)
(-0.0367298 0.190436 0)
(-0.196981 0.523232 0)
(-0.233266 0.534254 0)
(-0.240005 0.544646 0)
(-0.242428 0.533181 0)
(-0.206422 0.521535 0)
(-0.155909 0.507292 0)
(-0.095194 0.482958 0)
(-0.0516203 0.447458 0)
(-0.0154179 0.410637 0)
(-0.00280325 0.36733 0)
(-0.00681547 0.321839 0)
(-0.0167241 0.283168 0)
(-0.0159908 0.258295 0)
(-0.00788917 0.243152 0)
(0.00112125 0.232299 0)
(0.00723708 0.22301 0)
(0.0111657 0.215021 0)
(0.0163327 0.208653 0)
(0.0248043 0.204489 0)
(0.0366717 0.202062 0)
(0.0514985 0.200523 0)
(0.0686079 0.19917 0)
(0.0871187 0.198365 0)
(0.106263 0.197946 0)
(0.125582 0.197733 0)
(0.144938 0.197315 0)
(0.164104 0.197994 0)
(0.183393 0.196502 0)
(0.202176 0.198281 0)
(0.220808 0.197273 0)
(0.238907 0.199544 0)
(0.256673 0.197526 0)
(0.272946 0.2014 0)
(0.288422 0.198966 0)
(0.300396 0.202337 0)
(0.299657 0.20376 0)
(0.250313 0.204228 0)
(0.128787 0.192125 0)
(0.079455 0.216674 0)
(-0.0323826 0.212763 0)
(-0.174484 0.49972 0)
(-0.219041 0.504798 0)
(-0.239144 0.510159 0)
(-0.256654 0.503014 0)
(-0.223785 0.498423 0)
(-0.173721 0.48719 0)
(-0.120902 0.464761 0)
(-0.0821413 0.43253 0)
(-0.0541971 0.398023 0)
(-0.0464145 0.358384 0)
(-0.045082 0.321184 0)
(-0.041195 0.293646 0)
(-0.0301697 0.275771 0)
(-0.0175921 0.263048 0)
(-0.00678199 0.252465 0)
(0.00013958 0.24289 0)
(0.0052093 0.234616 0)
(0.0120386 0.228129 0)
(0.0219946 0.223891 0)
(0.0349556 0.221637 0)
(0.0503921 0.220119 0)
(0.0676894 0.218684 0)
(0.0861446 0.217805 0)
(0.105154 0.217354 0)
(0.124362 0.217169 0)
(0.143665 0.216733 0)
(0.16287 0.21751 0)
(0.182152 0.216036 0)
(0.201097 0.217903 0)
(0.219865 0.217001 0)
(0.23806 0.219377 0)
(0.255978 0.217454 0)
(0.272365 0.221372 0)
(0.287975 0.219079 0)
(0.299844 0.222243 0)
(0.299338 0.223829 0)
(0.249847 0.224442 0)
(0.129062 0.212428 0)
(0.0810028 0.238202 0)
(-0.0287641 0.234604 0)
(-0.144749 0.474022 0)
(-0.204766 0.47604 0)
(-0.235663 0.480635 0)
(-0.265037 0.485511 0)
(-0.235425 0.485238 0)
(-0.188525 0.46832 0)
(-0.144646 0.44815 0)
(-0.111659 0.417382 0)
(-0.0903308 0.384805 0)
(-0.0823656 0.350562 0)
(-0.0729636 0.323323 0)
(-0.0602917 0.30408 0)
(-0.0448371 0.290452 0)
(-0.0300516 0.27945 0)
(-0.0181476 0.269447 0)
(-0.01018 0.260088 0)
(-0.00313944 0.252137 0)
(0.0059791 0.246624 0)
(0.0178408 0.242648 0)
(0.0325069 0.240607 0)
(0.0492655 0.239135 0)
(0.0674884 0.237617 0)
(0.0865881 0.236661 0)
(0.106073 0.236165 0)
(0.125665 0.235981 0)
(0.145285 0.23547 0)
(0.164788 0.236286 0)
(0.184252 0.234801 0)
(0.203468 0.236628 0)
(0.222388 0.235808 0)
(0.240667 0.238213 0)
(0.25865 0.236356 0)
(0.275037 0.240259 0)
(0.290613 0.238099 0)
(0.302217 0.24102 0)
(0.301908 0.242719 0)
(0.25232 0.243605 0)
(0.132499 0.23204 0)
(0.0851425 0.258884 0)
(-0.0227483 0.255662 0)
(-0.120079 0.456952 0)
(-0.189521 0.459948 0)
(-0.227065 0.460969 0)
(-0.267863 0.474308 0)
(-0.242939 0.475436 0)
(-0.204469 0.449949 0)
(-0.166061 0.432893 0)
(-0.141042 0.403838 0)
(-0.121361 0.376846 0)
(-0.107346 0.351636 0)
(-0.0896069 0.333451 0)
(-0.0715747 0.31873 0)
(-0.0530498 0.307639 0)
(-0.0367954 0.297524 0)
(-0.024994 0.287113 0)
(-0.0163217 0.277457 0)
(-0.007345 0.270045 0)
(0.00314901 0.264013 0)
(0.0161348 0.260114 0)
(0.0312807 0.258149 0)
(0.047997 0.256687 0)
(0.0658577 0.25512 0)
(0.0845188 0.25417 0)
(0.103639 0.253743 0)
(0.123001 0.253693 0)
(0.142528 0.253239 0)
(0.162068 0.254232 0)
(0.181562 0.252858 0)
(0.201016 0.254715 0)
(0.220104 0.254088 0)
(0.238535 0.256546 0)
(0.256694 0.254803 0)
(0.273223 0.258677 0)
(0.288932 0.256651 0)
(0.300512 0.259319 0)
(0.300401 0.261055 0)
(0.250993 0.262169 0)
(0.133144 0.251585 0)
(0.0874457 0.27938 0)
(-0.0179479 0.276658 0)
(-0.104791 0.449288 0)
(-0.178423 0.45168 0)
(-0.219321 0.448935 0)
(-0.270438 0.464826 0)
(-0.253133 0.464511 0)
(-0.224173 0.435306 0)
(-0.189371 0.419815 0)
(-0.16741 0.39322 0)
(-0.144956 0.373184 0)
(-0.125876 0.354591 0)
(-0.104954 0.340958 0)
(-0.0848133 0.329247 0)
(-0.0654793 0.31935 0)
(-0.0494048 0.309229 0)
(-0.0369164 0.300003 0)
(-0.0269176 0.291708 0)
(-0.0165214 0.284308 0)
(-0.00384317 0.278853 0)
(0.0112143 0.275378 0)
(0.0283083 0.273675 0)
(0.0467686 0.272305 0)
(0.0660917 0.270716 0)
(0.0858925 0.269769 0)
(0.105837 0.269391 0)
(0.125773 0.269445 0)
(0.14569 0.268989 0)
(0.165532 0.270116 0)
(0.185116 0.268837 0)
(0.204851 0.270555 0)
(0.223964 0.270106 0)
(0.242413 0.272532 0)
(0.260539 0.270866 0)
(0.276975 0.274656 0)
(0.292536 0.272741 0)
(0.30384 0.275112 0)
(0.303778 0.276865 0)
(0.255215 0.278328 0)
(0.140101 0.269033 0)
(0.0952618 0.29752 0)
(-0.00769423 0.295264 0)
(-0.0944087 0.447203 0)
(-0.169463 0.449992 0)
(-0.211044 0.442263 0)
(-0.274952 0.454254 0)
(-0.266262 0.447893 0)
(-0.240743 0.42046 0)
(-0.208828 0.407527 0)
(-0.185419 0.386726 0)
(-0.159248 0.375965 0)
(-0.136776 0.362553 0)
(-0.113672 0.352669 0)
(-0.0921859 0.342845 0)
(-0.0720655 0.333784 0)
(-0.0558545 0.323748 0)
(-0.0434122 0.313411 0)
(-0.0318979 0.304412 0)
(-0.0194102 0.297128 0)
(-0.00522068 0.29171 0)
(0.0106454 0.288133 0)
(0.0277999 0.286392 0)
(0.0457301 0.285044 0)
(0.0642896 0.283561 0)
(0.0834299 0.282883 0)
(0.102951 0.282879 0)
(0.12269 0.283347 0)
(0.142591 0.28315 0)
(0.162529 0.284603 0)
(0.182278 0.283527 0)
(0.202215 0.285165 0)
(0.221558 0.284868 0)
(0.240249 0.287227 0)
(0.258573 0.285609 0)
(0.275181 0.289229 0)
(0.290835 0.28732 0)
(0.302136 0.289304 0)
(0.302137 0.290765 0)
(0.254882 0.292201 0)
(0.14396 0.284936 0)
(0.100833 0.314504 0)
(0.00163097 0.313255 0)
(-0.0902823 0.4442 0)
(-0.165699 0.446368 0)
(-0.206872 0.434472 0)
(-0.279556 0.440943 0)
(-0.280843 0.429402 0)
(-0.253814 0.410144 0)
(-0.222111 0.404783 0)
(-0.196243 0.388169 0)
(-0.169517 0.379761 0)
(-0.147036 0.367241 0)
(-0.123746 0.35854 0)
(-0.10245 0.348889 0)
(-0.0833109 0.33923 0)
(-0.0677617 0.329416 0)
(-0.0547149 0.320549 0)
(-0.041922 0.312949 0)
(-0.0277317 0.306954 0)
(-0.011687 0.302613 0)
(0.00605074 0.299843 0)
(0.0250178 0.298675 0)
(0.0446627 0.297498 0)
(0.0647256 0.295797 0)
(0.0850672 0.294747 0)
(0.105431 0.294398 0)
(0.125655 0.294638 0)
(0.145752 0.294139 0)
(0.16569 0.295509 0)
(0.18536 0.29426 0)
(0.205225 0.295513 0)
(0.224297 0.295006 0)
(0.242752 0.296987 0)
(0.260801 0.295201 0)
(0.277081 0.298487 0)
(0.292363 0.296415 0)
(0.303185 0.297866 0)
(0.302876 0.298957 0)
(0.257598 0.3007 0)
(0.15276 0.296624 0)
(0.111618 0.327366 0)
(0.0172376 0.326921 0)
(-0.094874 0.43899 0)
(-0.167556 0.438311 0)
(-0.208914 0.421388 0)
(-0.285455 0.426879 0)
(-0.291582 0.415162 0)
(-0.263206 0.40034 0)
(-0.231796 0.398177 0)
(-0.206087 0.383075 0)
(-0.179398 0.377925 0)
(-0.156083 0.367346 0)
(-0.132036 0.360263 0)
(-0.110506 0.351489 0)
(-0.0915632 0.342605 0)
(-0.0759039 0.333279 0)
(-0.0617042 0.324601 0)
(-0.0472691 0.316989 0)
(-0.0313711 0.311048 0)
(-0.0140351 0.306507 0)
(0.00441692 0.30339 0)
(0.0235542 0.301846 0)
(0.0430335 0.300105 0)
(0.0629399 0.297671 0)
(0.083317 0.295922 0)
(0.103928 0.294929 0)
(0.124556 0.294506 0)
(0.145204 0.293025 0)
(0.165709 0.293708 0)
(0.186069 0.291593 0)
(0.206297 0.292233 0)
(0.225737 0.291671 0)
(0.244477 0.29363 0)
(0.262655 0.291761 0)
(0.279027 0.294874 0)
(0.294133 0.292543 0)
(0.304704 0.293589 0)
(0.304436 0.294599 0)
(0.263397 0.298135 0)
(0.167283 0.301571 0)
(0.127041 0.338799 0)
(0.0365141 0.343244 0)
(-0.108204 0.43396 0)
(-0.179586 0.429297 0)
(-0.220951 0.401079 0)
(-0.292892 0.398936 0)
(-0.300067 0.387625 0)
(-0.271305 0.375709 0)
(-0.24068 0.376499 0)
(-0.215422 0.362194 0)
(-0.188937 0.358557 0)
(-0.165851 0.347435 0)
(-0.142354 0.339595 0)
(-0.12171 0.329155 0)
(-0.10332 0.318331 0)
(-0.087237 0.30697 0)
(-0.0715004 0.2963 0)
(-0.0549811 0.287104 0)
(-0.0374592 0.27941 0)
(-0.0188148 0.273092 0)
(0.000691435 0.268261 0)
(0.0206198 0.265058 0)
(0.0406195 0.261254 0)
(0.0608855 0.256365 0)
(0.0815592 0.252296 0)
(0.102423 0.249344 0)
(0.1232 0.247349 0)
(0.143886 0.24418 0)
(0.164657 0.244103 0)
(0.184872 0.240907 0)
(0.20517 0.240773 0)
(0.224968 0.238948 0)
(0.244217 0.240063 0)
(0.262788 0.237771 0)
(0.279654 0.241288 0)
(0.294934 0.239745 0)
(0.305996 0.242675 0)
(0.307546 0.24768 0)
(0.276291 0.260785 0)
(0.198341 0.285856 0)
(0.156172 0.34067 0)
(0.0643821 0.353029 0)
(-0.120099 0.463327 0)
(-0.217728 0.436739 0)
(-0.254949 0.366626 0)
(-0.301943 0.337438 0)
(-0.30081 0.320526 0)
(-0.273593 0.308059 0)
(-0.244062 0.308019 0)
(-0.218681 0.290876 0)
(-0.192175 0.285171 0)
(-0.169524 0.270174 0)
(-0.146727 0.258605 0)
(-0.127158 0.243935 0)
(-0.108825 0.229269 0)
(-0.0918026 0.214692 0)
(-0.0748459 0.201455 0)
(-0.0574958 0.189888 0)
(-0.0394241 0.17996 0)
(-0.0209073 0.171554 0)
(-0.0021704 0.164929 0)
(0.0164302 0.160186 0)
(0.0346518 0.154607 0)
(0.0530548 0.147788 0)
(0.0721959 0.142079 0)
(0.0917237 0.137923 0)
(0.111327 0.135141 0)
(0.131068 0.130894 0)
(0.151353 0.130412 0)
(0.171118 0.126618 0)
(0.191408 0.126147 0)
(0.211317 0.12423 0)
(0.231131 0.125715 0)
(0.250775 0.124836 0)
(0.26902 0.130464 0)
(0.286457 0.13233 0)
(0.300444 0.140446 0)
(0.308845 0.152864 0)
(0.298003 0.181678 0)
(0.259301 0.242509 0)
(0.217473 0.362364 0)
(0.0800998 0.409919 0)
(-0.690024 0.342439 0)
(-0.370902 0.451978 0)
(-0.352287 0.309718 0)
(-0.33279 0.268684 0)
(-0.318412 0.257121 0)
(-0.296725 0.2445 0)
(-0.269562 0.244362 0)
(-0.246633 0.227261 0)
(-0.221087 0.220543 0)
(-0.199878 0.204419 0)
(-0.177517 0.191591 0)
(-0.157351 0.176582 0)
(-0.137504 0.162648 0)
(-0.118105 0.149598 0)
(-0.0982671 0.138349 0)
(-0.078282 0.128302 0)
(-0.0576482 0.119388 0)
(-0.0362962 0.111628 0)
(-0.0142683 0.105557 0)
(0.00807539 0.10158 0)
(0.0303971 0.0971172 0)
(0.0531211 0.0918216 0)
(0.0764378 0.0879116 0)
(0.0997544 0.0856488 0)
(0.122716 0.0848026 0)
(0.145509 0.0821557 0)
(0.16825 0.0833144 0)
(0.190478 0.0811895 0)
(0.212647 0.0820855 0)
(0.234304 0.0818174 0)
(0.255486 0.0845188 0)
(0.276348 0.0854851 0)
(0.295456 0.0919961 0)
(0.314006 0.0955647 0)
(0.328951 0.105173 0)
(0.342762 0.117928 0)
(0.347807 0.144193 0)
(0.372227 0.200463 0)
(0.388752 0.374922 0)
(0.623051 0.334778 0)
(-0.982791 0.995097 0)
(-0.339386 0.672461 0)
(-0.400364 0.140148 0)
(-0.342369 0.130072 0)
(-0.320181 0.131729 0)
(-0.298016 0.119121 0)
(-0.271949 0.121962 0)
(-0.249458 0.106422 0)
(-0.223825 0.100412 0)
(-0.202636 0.084342 0)
(-0.18028 0.0710256 0)
(-0.159745 0.0564982 0)
(-0.139296 0.0437747 0)
(-0.119234 0.0325463 0)
(-0.098832 0.0233814 0)
(-0.0782816 0.0152801 0)
(-0.0573783 0.00800317 0)
(-0.0361447 0.00163738 0)
(-0.0145968 -0.00320832 0)
(0.00716037 -0.00599743 0)
(0.0287999 -0.00955195 0)
(0.0506555 -0.0144652 0)
(0.0730427 -0.0179076 0)
(0.095634 -0.0193742 0)
(0.118173 -0.0192977 0)
(0.140779 -0.0216922 0)
(0.1635 -0.0195715 0)
(0.185943 -0.0212006 0)
(0.208428 -0.0196052 0)
(0.230528 -0.0187368 0)
(0.252147 -0.0147129 0)
(0.273646 -0.011446 0)
(0.293288 -0.00284591 0)
(0.312795 0.00401368 0)
(0.328528 0.0173586 0)
(0.346275 0.0329247 0)
(0.358666 0.0571673 0)
(0.413282 0.0704182 0)
(0.352621 0.582963 0)
(0.963239 0.969381 0)
(-0.982791 -0.995097 0)
(-0.339386 -0.672461 0)
(-0.400364 -0.140148 0)
(-0.342369 -0.130072 0)
(-0.320181 -0.131729 0)
(-0.298016 -0.119121 0)
(-0.271949 -0.121962 0)
(-0.249458 -0.106422 0)
(-0.223825 -0.100412 0)
(-0.202636 -0.084342 0)
(-0.18028 -0.0710256 0)
(-0.159745 -0.0564982 0)
(-0.139296 -0.0437747 0)
(-0.119234 -0.0325463 0)
(-0.098832 -0.0233814 0)
(-0.0782816 -0.0152801 0)
(-0.0573783 -0.00800317 0)
(-0.0361447 -0.00163738 0)
(-0.0145968 0.00320832 0)
(0.00716037 0.00599743 0)
(0.0287999 0.00955195 0)
(0.0506555 0.0144652 0)
(0.0730427 0.0179076 0)
(0.095634 0.0193742 0)
(0.118173 0.0192977 0)
(0.140779 0.0216922 0)
(0.1635 0.0195715 0)
(0.185943 0.0212006 0)
(0.208428 0.0196052 0)
(0.230528 0.0187368 0)
(0.252147 0.0147129 0)
(0.273646 0.011446 0)
(0.293288 0.00284591 0)
(0.312795 -0.00401368 0)
(0.328528 -0.0173586 0)
(0.346275 -0.0329247 0)
(0.358666 -0.0571673 0)
(0.413282 -0.0704182 0)
(0.352621 -0.582963 0)
(0.963239 -0.969381 0)
(-0.690024 -0.342439 0)
(-0.370902 -0.451978 0)
(-0.352287 -0.309718 0)
(-0.33279 -0.268684 0)
(-0.318412 -0.257121 0)
(-0.296725 -0.2445 0)
(-0.269562 -0.244362 0)
(-0.246633 -0.227261 0)
(-0.221087 -0.220543 0)
(-0.199878 -0.204419 0)
(-0.177517 -0.191591 0)
(-0.157351 -0.176582 0)
(-0.137504 -0.162648 0)
(-0.118105 -0.149598 0)
(-0.0982671 -0.138349 0)
(-0.078282 -0.128302 0)
(-0.0576482 -0.119388 0)
(-0.0362962 -0.111628 0)
(-0.0142683 -0.105557 0)
(0.00807539 -0.10158 0)
(0.0303971 -0.0971172 0)
(0.0531211 -0.0918216 0)
(0.0764378 -0.0879116 0)
(0.0997544 -0.0856488 0)
(0.122716 -0.0848026 0)
(0.145509 -0.0821557 0)
(0.16825 -0.0833144 0)
(0.190478 -0.0811895 0)
(0.212647 -0.0820855 0)
(0.234304 -0.0818174 0)
(0.255486 -0.0845188 0)
(0.276348 -0.0854851 0)
(0.295456 -0.0919961 0)
(0.314006 -0.0955647 0)
(0.328951 -0.105173 0)
(0.342762 -0.117928 0)
(0.347807 -0.144193 0)
(0.372227 -0.200463 0)
(0.388752 -0.374922 0)
(0.623051 -0.334778 0)
(-0.120099 -0.463327 0)
(-0.217728 -0.436739 0)
(-0.254949 -0.366626 0)
(-0.301943 -0.337438 0)
(-0.30081 -0.320526 0)
(-0.273593 -0.308059 0)
(-0.244062 -0.308019 0)
(-0.218681 -0.290876 0)
(-0.192175 -0.285171 0)
(-0.169524 -0.270174 0)
(-0.146727 -0.258605 0)
(-0.127158 -0.243935 0)
(-0.108825 -0.229269 0)
(-0.0918026 -0.214692 0)
(-0.0748459 -0.201455 0)
(-0.0574958 -0.189888 0)
(-0.0394241 -0.17996 0)
(-0.0209073 -0.171554 0)
(-0.0021704 -0.164929 0)
(0.0164302 -0.160186 0)
(0.0346518 -0.154607 0)
(0.0530548 -0.147788 0)
(0.0721959 -0.142079 0)
(0.0917237 -0.137923 0)
(0.111327 -0.135141 0)
(0.131068 -0.130894 0)
(0.151353 -0.130412 0)
(0.171118 -0.126618 0)
(0.191408 -0.126147 0)
(0.211317 -0.12423 0)
(0.231131 -0.125715 0)
(0.250775 -0.124836 0)
(0.26902 -0.130464 0)
(0.286457 -0.13233 0)
(0.300444 -0.140446 0)
(0.308845 -0.152864 0)
(0.298003 -0.181678 0)
(0.259301 -0.242509 0)
(0.217473 -0.362364 0)
(0.0800998 -0.409919 0)
(-0.108204 -0.43396 0)
(-0.179586 -0.429297 0)
(-0.220951 -0.401079 0)
(-0.292892 -0.398936 0)
(-0.300067 -0.387625 0)
(-0.271305 -0.375709 0)
(-0.24068 -0.376499 0)
(-0.215422 -0.362194 0)
(-0.188937 -0.358557 0)
(-0.165851 -0.347435 0)
(-0.142354 -0.339595 0)
(-0.12171 -0.329155 0)
(-0.10332 -0.318331 0)
(-0.087237 -0.30697 0)
(-0.0715004 -0.2963 0)
(-0.0549811 -0.287104 0)
(-0.0374592 -0.27941 0)
(-0.0188148 -0.273092 0)
(0.000691435 -0.268261 0)
(0.0206198 -0.265058 0)
(0.0406195 -0.261254 0)
(0.0608855 -0.256365 0)
(0.0815592 -0.252296 0)
(0.102423 -0.249344 0)
(0.1232 -0.247349 0)
(0.143886 -0.24418 0)
(0.164657 -0.244103 0)
(0.184872 -0.240907 0)
(0.20517 -0.240773 0)
(0.224968 -0.238948 0)
(0.244217 -0.240063 0)
(0.262788 -0.237771 0)
(0.279654 -0.241288 0)
(0.294934 -0.239745 0)
(0.305996 -0.242675 0)
(0.307546 -0.24768 0)