/*--------------------------------*- C++ -*----------------------------------*\
| =========                 |                                                 |
| \\      /  F ield         | OpenFOAM: The Open Source CFD Toolbox           |
|  \\    /   O peration     | Version:  v1912                                 |
|   \\  /    A nd           | Website:  www.openfoam.com                      |
|    \\/     M anipulation  |                                                 |
\*---------------------------------------------------------------------------*/
FoamFile
{
    version     2.0;
    format      ascii;
    class       volScalarField;
    location    "8.86";
    object      p;
}
// * * * * * * * * * * * * * * * * * * * * * * * * * * * * * * * * * * * * * //

dimensions      [1 -1 -2 0 0 0 0];


internalField   nonuniform List<scalar> 
1900
(
6555.87
8575.41
8738.4
8640.2
8516.83
8452.21
8451.62
8449.6
8444.97
8418.36
6555.88
8575.42
8738.39
8640.09
8516.81
8452.16
8451.87
8451.15
8457.57
8424.96
6555.89
8575.43
8738.36
8640.02
8517
8452.79
8452.36
8448.37
8444.92
8407.03
6555.88
8575.42
8738.39
8640.09
8516.81
8452.16
8451.87
8451.15
8457.57
8424.96
6555.87
8575.41
8738.4
8640.2
8516.83
8452.21
8451.62
8449.6
8444.97
8418.36
8539.94
8374.04
8296.04
8113.73
8329.09
8392.35
8281.95
8207.23
8025.94
7894.74
8360.55
8262.31
8197.69
8051.34
7931.56
8392.35
8281.95
8207.23
8025.94
7894.74
8539.94
8374.04
8296.04
8113.73
8329.09
3512.08
2046.86
1431.67
1117.13
840.742
3966.88
2256.38
1544.9
1203.41
891.02
4074.4
2216.69
1497.56
1169.06
846.281
3966.88
2256.38
1544.9
1203.41
891.02
3512.08
2046.86
1431.67
1117.13
840.742
890.039
955.407
953.602
943.101
924.097
884.546
832.657
774.543
718.082
676.977
626.312
561.408
541.311
576.15
816.954
1114.87
1178.75
1183.4
1159.93
1143.51
1142.24
1129.99
1093.1
1038.85
966.827
879.615
775.056
851.903
763.1
586.121
603.111
647.341
687.134
725.405
764.068
803.844
845.094
886.84
931.172
976.117
835.387
922.795
990.927
967.914
930.276
877.937
821.624
763.233
708.118
669.644
619.54
558.342
538.484
574.492
815.173
1114.17
1175.06
1178.48
1159.07
1145.33
1150.52
1133.78
1093.81
1041.07
968.427
878.799
772.641
850.353
766.487
586.926
602.971
647.219
687.087
725.385
764.073
803.895
845.198
887.013
931.4
976.33
824.011
877.661
975.934
973.991
942.921
893.678
836.351
773.815
715.424
676.022
624.73
562.032
541.424
577.777
820.619
1118.86
1178.67
1180.69
1159.55
1146.3
1147.31
1125.76
1091.49
1043.21
974.052
886.301
779.347
852.577
767.508
586.956
602.883
647.161
687.055
725.364
764.059
803.864
845.076
886.802
931.172
976.098
835.387
922.795
990.927
967.914
930.276
877.937
821.624
763.233
708.118
669.644
619.54
558.342
538.484
574.492
815.173
1114.17
1175.06
1178.48
1159.07
1145.33
1150.52
1133.78
1093.81
1041.07
968.427
878.799
772.641
850.353
766.487
586.926
602.971
647.219
687.087
725.385
764.073
803.895
845.198
887.013
931.4
976.33
890.039
955.407
953.602
943.101
924.097
884.546
832.657
774.543
718.082
676.977
626.312
561.408
541.311
576.15
816.954
1114.87
1178.75
1183.4
1159.93
1143.51
1142.24
1129.99
1093.1
1038.85
966.827
879.615
775.056
851.903
763.1
586.121
603.111
647.341
687.134
725.405
764.068
803.844
845.094
886.84
931.172
976.117
992.644
946.613
900.491
888.185
868.737
841.396
814.92
780.467
739.16
699.778
649.381
580.868
549.76
579.994
817.365
1108.52
1183.09
1190.29
1160.21
1133.5
1128.08
1132.37
1132.84
1096.26
1025
928.419
806.243
859.084
750.839
582.938
603.29
647.422
686.994
725.285
764.005
803.825
845.169
887.016
931.216
976.026
969.955
904.942
838.225
794.717
759.596
736
721.651
704.128
686.942
669.263
634.148
584.308
557.244
588.45
820.152
1086.35
1177.39
1190.49
1150.49
1121.68
1119.24
1091.43
1052.77
1009.15
950.851
871.709
767.959
829.923
722.681
578.683
603.718
647.412
686.541
724.85
763.631
803.524
845.035
887.094
931.019
975.324
974.345
926.692
898.542
865.396
825.392
785.603
748.875
715.613
690.232
665.098
634.815
599.407
568.797
602.161
854.984
1100.76
1194.03
1205.52
1152.63
1118.89
1114.42
1078.65
1037.49
988.464
928.612
850.425
746.64
791.788
681.181
571.972
603.015
645.917
684.605
723.201
762.364
802.798
844.717
887.215
930.925
974.834
974.37
924.02
873.263
830.857
791.332
753.745
713.553
678.18
650.835
614.035
583.48
576.841
582.554
640.92
876.418
1053.29
1127.98
1135.44
1095.62
1085.75
1083.12
1047.55
1008.32
960.125
900.199
820.328
714.451
737.772
632.716
565.699
602.678
644.436
682.369
720.959
760.4
801.267
843.804
887.111
930.818
974.595
979.104
939.019
895.887
849.143
806.871
766.76
721.368
683.098
648.286
601.75
583.783
589.885
608.585
714.349
919.33
1030.81
1096.29
1097.11
1058.58
1064.47
1053.63
1015.33
972.876
923.118
862.766
781.023
672.463
672.499
591.15
570.704
614.213
654.534
690.584
725.895
761.178
799.592
842.047
886.309
930.319
974.277
980.099
941.88
900.913
855.322
814.823
773.661
732.379
697.418
651.439
616.171
617.873
629.231
667.772
779.377
918.389
1004.32
1059.99
1044.1
1026.82
1042.72
1012.59
974.104
933.86
887.86
831.58
751.456
641.835
628.408
585.216
610.349
658.754
691.598
719.126
748.026
778.698
810.786
845.238
886.048
929.814
974.02
981.045
944.853
905.863
864.304
824.573
781.331
742.134
709.366
667.413
634.202
634.948
649.637
705.497
810.91
907.43
979.417
1001.33
969.716
997.08
1002.26
970.466
938.175
911.212
882.083
836.971
765.433
676.825
701.06
739.178
802.858
838.129
843.657
840.64
836.597
834.526
842.484
865.798
893.778
930.855
973.947
981.806
946.01
908.45
870.785
831.947
791.042
752.121
718.087
678.807
658.104
666.754
701.095
758.31
833.615
896.742
930.867
908.43
940.796
968.4
949.131
947.628
947.99
953.797
979.465
997.661
931.558
859.961
902.516
967.602
1030.62
1046.53
1034.53
1021.43
1000.02
970.303
941.506
922.764
922.574
940.607
974.702
982.865
948.048
911.618
874.764
835.837
797.649
765.154
733.647
703.154
697.688
712.369
735.564
770.609
821.175
863.68
860.841
853.481
911.497
953.408
980.392
1036.97
1154.49
1256.14
1295.09
1241.93
1083.95
942.241
974.421
1072.03
1135.87
1148.19
1139.58
1136.85
1127.61
1104.62
1071.82
1029.78
988.09
969.407
976.845
984.581
951.302
914.476
875.223
833.226
792.429
755.488
724.247
704.732
703.94
717.009
745.443
784.756
809.798
790.737
807.518
915.922
990.083
1107
1295.99
1444.02
1511.88
1525.47
1457.56
1283.39
1026.7
867.311
964.181
1111.59
1173.08
1186.69
1180.52
1185.45
1186.29
1174.32
1157.06
1126.6
1077.1
1023.76
985.347
981.484
942.004
899.642
857.446
818.931
785.833
759.507
743.615
738.261
736.037
738.092
753.148
777.195
805.241
893.708
1010.62
1217.42
1401.48
1561.15
1664.55
1701.72
1653.12
1547.59
1405.72
1162.22
877.486
796.153
956.977
1118.73
1179.62
1200.78
1200.03
1208.76
1215.43
1206.14
1192.27
1172.11
1132.74
1074.85
1001.38
981.478
941.047
904.414
874.514
857.467
850.834
855.015
871.89
896.154
914.11
930.527
973.15
1077.77
1185.69
1325.68
1484.11
1632.55
1742.22
1783.87
1754.48
1695.73
1615.72
1471.71
1251.01
968.872
774.383
772.225
948.024
1114.59
1179.47
1204.76
1207.53
1217.24
1225.44
1216.57
1201.99
1182.5
1148.73
1097.57
1014.62
994.217
978.129
997.532
1032.14
1065.8
1110.86
1167.74
1239.24
1310.9
1372.65
1437.89
1510.36
1563.53
1609.21
1673.48
1733.05
1775.5
1796.2
1789.76
1735.68
1635.58
1504.72
1316.82
1051.3
827.569
753.384
776.738
936.338
1104.65
1180.31
1213.27
1215.68
1224.34
1232.39
1224.79
1207.74
1184.98
1148.47
1094.64
1013.96
1027.18
1085.68
1171.27
1258.03
1321.86
1373.2
1425.66
1482.86
1542.79
1616.42
1691.72
1739.22
1751.06
1763.51
1782.09
1809.66
1813.73
1792.86
1740.91
1651.98
1524.86
1346.12
1103.64
883.177
786.274
771.692
793.289
918.041
1080.15
1169.14
1211.63
1217.49
1226.4
1234.03
1228.36
1210.3
1185.68
1146.49
1089.57
1016.06
1071.3
1148.95
1233.57
1284.51
1317.69
1347.44
1394.05
1467.78
1560.01
1662.12
1747.98
1800.64
1832.82
1851.04
1848.9
1839.03
1801.01
1734.19
1641.68
1521.88
1349.45
1124.25
922.979
828.543
801.659
799.382
813.958
898.506
1045.42
1148.02
1198.69
1208.6
1216.87
1223.79
1222.91
1206.94
1180.79
1140.56
1081.49
1014.46
1048.07
1105.85
1171.16
1212.25
1259.02
1316.25
1386.69
1471.71
1564.9
1662.61
1761.81
1838.84
1883.94
1887.61
1857.36
1802.71
1729.94
1632.27
1499.41
1325.36
1119.82
947.654
867.659
840.728
831.129
829.822
839.782
887.402
1006.95
1120.02
1182.81
1196.99
1201.71
1206.2
1206.56
1191.36
1163.68
1125.75
1069.1
1009.41
1020.04
1045.1
1094.72
1139.63
1198.63
1263.48
1337.64
1419.31
1509.69
1614.65
1730.63
1824.21
1866.27
1850.13
1792.14
1704.94
1596.96
1460.65
1287.96
1102.46
962.736
900.635
877.981
871.495
867.619
864.139
868.783
892.056
973.459
1081.24
1155.08
1176.02
1177.92
1181.58
1181.25
1165.67
1139.39
1105.71
1058.09
1005.79
988.841
1002.4
1041.15
1077
1128.86
1185.12
1245.76
1313.54
1396.52
1504.46
1622.24
1709.83
1748.61
1728.19
1648.58
1530.95
1392.17
1236.01
1082.15
976.332
929.295
911.369
908.539
907.944
905.288
901.194
898.778
912.931
952.435
1033.89
1110.33
1140.69
1142.86
1142.38
1138.35
1125.8
1106.17
1075.14
1043.38
993.506
957.049
972.501
991.242
1014.67
1050.02
1087.04
1131.11
1184.43
1255.23
1348.76
1448.71
1522.24
1540.38
1499.71
1402.06
1284.36
1165.22
1061.6
993.627
959.335
945.496
943.765
944.845
944.454
942.117
938.883
935.921
939.047
954.801
997.957
1054.34
1089.74
1093.48
1088.07
1078.68
1068.38
1057.34
1041.23
1058.5
1022.93
895.808
909.155
935.881
973.153
993.064
1012.28
1042.5
1088.93
1150.95
1208.18
1247.16
1242.31
1196.68
1132.88
1075.87
1032.43
1001.33
983.685
976.904
974.793
975.977
977.202
977.667
977.353
976.536
975.805
975.066
975.288
976.309
982.403
994.537
1011.23
1014.18
1015.81
1013.03
1009.13
1005.79
991.792
1022.15
1010.06
895.808
909.155
935.881
973.153
993.064
1012.28
1042.5
1088.93
1150.95
1208.18
1247.16
1242.31
1196.68
1132.88
1075.87
1032.43
1001.33
983.685
976.904
974.793
975.977
977.202
977.667
977.353
976.536
975.805
975.066
975.288
976.309
982.403
994.537
1011.23
1014.18
1015.81
1013.03
1009.13
1005.79
991.792
1022.15
1010.06
957.049
972.501
991.242
1014.67
1050.02
1087.04
1131.11
1184.43
1255.23
1348.76
1448.71
1522.24
1540.38
1499.71
1402.06
1284.36
1165.22
1061.6
993.627
959.335
945.496
943.765
944.845
944.454
942.117
938.883
935.921
939.047
954.801
997.957
1054.34
1089.74
1093.48
1088.07
1078.68
1068.38
1057.34
1041.23
1058.5
1022.93
988.841
1002.4
1041.15
1077
1128.86
1185.12
1245.76
1313.54
1396.52
1504.46
1622.24
1709.83
1748.61
1728.19
1648.58
1530.95
1392.17
1236.01
1082.15
976.332
929.295
911.369
908.539
907.944
905.288
901.194
898.778
912.931
952.435
1033.89
1110.33
1140.69
1142.86
1142.38
1138.35
1125.8
1106.17
1075.14
1043.38
993.506
1020.04
1045.1
1094.72
1139.63
1198.63
1263.48
1337.64
1419.31
1509.69
1614.65
1730.63
1824.21
1866.27
1850.13
1792.14
1704.94
1596.96
1460.65
1287.96
1102.46
962.736
900.635
877.981
871.495
867.619
864.139
868.783
892.056
973.459
1081.24
1155.08
1176.02
1177.92
1181.58
1181.25
1165.67
1139.39
1105.71
1058.09
1005.79
1048.07
1105.85
1171.16
1212.25
1259.02
1316.25
1386.69
1471.71
1564.9
1662.61
1761.81
1838.84
1883.94
1887.61
1857.36
1802.71
1729.94
1632.27
1499.41
1325.36
1119.82
947.654
867.659
840.728
831.129
829.822
839.782
887.402
1006.95
1120.02
1182.81
1196.99
1201.71
1206.2
1206.56
1191.36
1163.68
1125.75
1069.1
1009.41
1071.3
1148.95
1233.57
1284.51
1317.69
1347.44
1394.05
1467.78
1560.01
1662.12
1747.98
1800.64
1832.82
1851.04
1848.9
1839.03
1801.01
1734.19
1641.68
1521.88
1349.45
1124.25
922.979
828.543
801.659
799.382
813.958
898.506
1045.42
1148.02
1198.69
1208.6
1216.87
1223.79
1222.91
1206.94
1180.79
1140.56
1081.49
1014.46
1027.18
1085.68
1171.27
1258.03
1321.86
1373.2
1425.66
1482.86
1542.79
1616.42
1691.72
1739.22
1751.06
1763.51
1782.09
1809.66
1813.73
1792.86
1740.91
1651.98
1524.86
1346.12
1103.64
883.177
786.274
771.692
793.289
918.041
1080.15
1169.14
1211.63
1217.49
1226.4
1234.03
1228.36
1210.3
1185.68
1146.49
1089.57
1016.06
994.217
978.129
997.532
1032.14
1065.8
1110.86
1167.74
1239.24
1310.9
1372.65
1437.89
1510.36
1563.53
1609.21
1673.48
1733.05
1775.5
1796.2
1789.76
1735.68
1635.58
1504.72
1316.82
1051.3
827.569
753.384
776.738
936.338
1104.65
1180.31
1213.27
1215.68
1224.34
1232.39
1224.79
1207.74
1184.98
1148.47
1094.64
1013.96
981.478
941.047
904.414
874.514
857.467
850.834
855.015
871.89
896.154
914.11
930.527
973.15
1077.77
1185.69
1325.68
1484.11
1632.55
1742.22
1783.87
1754.48
1695.73
1615.72
1471.71
1251.01
968.872
774.383
772.225
948.024
1114.59
1179.47
1204.76
1207.53
1217.24
1225.44
1216.57
1201.99
1182.5
1148.73
1097.57
1014.62
981.484
942.004
899.642
857.446
818.931
785.833
759.507
743.615
738.261
736.037
738.092
753.148
777.195
805.241
893.708
1010.62
1217.42
1401.48
1561.15
1664.55
1701.72
1653.12
1547.59
1405.72
1162.22
877.486
796.153
956.977
1118.73
1179.62
1200.78
1200.03
1208.76
1215.43
1206.14
1192.27
1172.11
1132.74
1074.85
1001.38
984.581
951.302
914.476
875.223
833.226
792.429
755.488
724.247
704.732
703.94
717.009
745.443
784.756
809.798
790.737
807.518
915.922
990.083
1107
1295.99
1444.02
1511.88
1525.47
1457.56
1283.39
1026.7
867.311
964.181
1111.59
1173.08
1186.69
1180.52
1185.45
1186.29
1174.32
1157.06
1126.6
1077.1
1023.76
985.347
982.865
948.048
911.618
874.764
835.837
797.649
765.154
733.647
703.154
697.688
712.369
735.564
770.609
821.175
863.68
860.841
853.481
911.497
953.408
980.392
1036.97
1154.49
1256.14
1295.09
1241.93
1083.95
942.241
974.421
1072.03
1135.87
1148.19
1139.58
1136.85
1127.61
1104.62
1071.82
1029.78
988.09
969.407
976.845
981.806
946.01
908.45
870.785
831.947
791.042
752.121
718.087
678.807
658.104
666.754
701.095
758.31
833.615
896.742
930.867
908.43
940.796
968.4
949.131
947.628
947.99
953.797
979.465
997.661
931.558
859.961
902.516
967.602
1030.62
1046.53
1034.53
1021.43
1000.02
970.303
941.506
922.764
922.574
940.607
974.702
981.045
944.853
905.863
864.304
824.573
781.331
742.134
709.366
667.413
634.202
634.948
649.637
705.497
810.91
907.43
979.417
1001.33
969.716
997.08
1002.26
970.466
938.175
911.212
882.083
836.971
765.433
676.825
701.06
739.178
802.858
838.129
843.657
840.64
836.597
834.526
842.484
865.798
893.778
930.855
973.947
980.099
941.88
900.913
855.322
814.823
773.661
732.379
697.418
651.439
616.171
617.873
629.231
667.772
779.377
918.389
1004.32
1059.99
1044.1
1026.82
1042.72
1012.59
974.104
933.86
887.86
831.58
751.456
641.835
628.408
585.216
610.349
658.754
691.598
719.126
748.026
778.698
810.786
845.238
886.048
929.814
974.02
979.104
939.019
895.887
849.143
806.871
766.76
721.368
683.098
648.286
601.75
583.783
589.885
608.585
714.349
919.33
1030.81
1096.29
1097.11
1058.58
1064.47
1053.63
1015.33
972.876
923.118
862.766
781.023
672.463
672.499
591.15
570.704
614.213
654.534
690.584
725.895
761.178
799.592
842.047
886.309
930.319
974.277
974.37
924.02
873.263
830.857
791.332
753.745
713.553
678.18
650.835
614.035
583.48
576.841
582.554
640.92
876.418
1053.29
1127.98
1135.44
1095.62
1085.75
1083.12
1047.55
1008.32
960.125
900.199
820.328
714.451
737.772
632.716
565.699
602.678
644.436
682.369
720.959
760.4
801.267
843.804
887.111
930.818
974.595
974.345
926.692
898.542
865.396
825.392
785.603
748.875
715.613
690.232
665.098
634.815
599.407
568.797
602.161
854.984
1100.76
1194.03
1205.52
1152.63
1118.89
1114.42
1078.65
1037.49
988.464
928.612
850.425
746.64
791.788
681.181
571.972
603.015
645.917
684.605
723.201
762.364
802.798
844.717
887.215
930.925
974.834
969.955
904.942
838.225
794.717
759.596
736
721.651
704.128
686.942
669.263
634.148
584.308
557.244
588.45
820.152
1086.35
1177.39
1190.49
1150.49
1121.68
1119.24
1091.43
1052.77
1009.15
950.851
871.709
767.959
829.923
722.681
578.683
603.718
647.412
686.541
724.85
763.631
803.524
845.035
887.094
931.019
975.324
992.644
946.613
900.491
888.185
868.737
841.396
814.92
780.467
739.16
699.778
649.381
580.868
549.76
579.994
817.365
1108.52
1183.09
1190.29
1160.21
1133.5
1128.08
1132.37
1132.84
1096.26
1025
928.419
806.243
859.084
750.839
582.938
603.29
647.422
686.994
725.285
764.005
803.825
845.169
887.016
931.216
976.026
)
;

boundaryField
{
    inlet
    {
        type            fixedValue;
        value           uniform 10000;
    }
    outlet
    {
        type            fixedValue;
        value           uniform 1000;
    }
    obstacle
    {
        type            zeroGradient;
    }
    empty
    {
        type            empty;
    }
}


// ************************************************************************* //
