/*--------------------------------*- C++ -*----------------------------------*\
| =========                 |                                                 |
| \\      /  F ield         | OpenFOAM: The Open Source CFD Toolbox           |
|  \\    /   O peration     | Version:  v1912                                 |
|   \\  /    A nd           | Website:  www.openfoam.com                      |
|    \\/     M anipulation  |                                                 |
\*---------------------------------------------------------------------------*/
FoamFile
{
    version     2.0;
    format      ascii;
    class       volScalarField;
    location    "0.00031";
    object      iDofMean;
}
// * * * * * * * * * * * * * * * * * * * * * * * * * * * * * * * * * * * * * //

dimensions      [0 -3 0 0 0 0 0];


internalField   nonuniform List<scalar> 
1300
(
3.75483871e+23
4.4e+23
9.406451613e+23
2.495483871e+24
1.458064516e+24
1.038709677e+24
1.449032258e+24
1.544516129e+24
1.265806452e+24
1.214193548e+24
4.425806452e+23
4.348387097e+23
1.425806452e+24
4.415483871e+24
2.141935484e+24
1.296774194e+24
2.203870968e+24
2.212903226e+24
1.676129032e+24
1.572903226e+24
2.283870968e+23
2.593548387e+23
1.283870968e+24
4.549677419e+24
2.12e+24
1.249032258e+24
2.433548387e+24
2.767741935e+24
1.939354839e+24
1.846451613e+24
1.483870968e+23
1.432258065e+23
1.118709677e+24
4.349677419e+24
1.96516129e+24
1.197419355e+24
2.47483871e+24
3.268387097e+24
2.12516129e+24
2.04e+24
9.419354839e+22
1.251612903e+23
1.197419355e+24
4.28516129e+24
1.908387097e+24
1.021935484e+24
2.313548387e+24
2.96516129e+24
2.32e+24
2.096774194e+24
6.322580645e+22
8e+22
1.091612903e+24
4.28e+24
1.856774194e+24
9.935483871e+23
2.2e+24
2.806451613e+24
2.167741935e+24
2.038709677e+24
4.774193548e+22
9.032258065e+22
1.166451613e+24
4.277419355e+24
1.809032258e+24
9.303225806e+23
2.108387097e+24
2.67483871e+24
2.037419355e+24
1.945806452e+24
5.032258065e+22
5.806451613e+22
1.15483871e+24
4.250322581e+24
1.84e+24
9.935483871e+23
2.136774194e+24
2.774193548e+24
1.900645161e+24
1.860645161e+24
2.967741935e+22
5.419354839e+22
1.147096774e+24
4.379354839e+24
1.775483871e+24
9.535483871e+23
2.20516129e+24
2.686451613e+24
1.901935484e+24
1.785806452e+24
2.322580645e+22
4.903225806e+22
1.127741935e+24
4.214193548e+24
1.877419355e+24
1.006451613e+24
2.04e+24
2.739354839e+24
1.948387097e+24
1.677419355e+24
2.580645161e+22
4e+22
1.166451613e+24
4.287741935e+24
1.858064516e+24
9.870967742e+23
2.113548387e+24
2.796129032e+24
1.949677419e+24
1.812903226e+24
1.548387097e+22
4.258064516e+22
1.131612903e+24
4.178064516e+24
1.748387097e+24
9.329032258e+23
2.152258065e+24
2.698064516e+24
1.856774194e+24
1.814193548e+24
1.032258065e+22
4.516129032e+22
1.04e+24
4.243870968e+24
1.830967742e+24
9.367741935e+23
2.046451613e+24
2.722580645e+24
1.868387097e+24
1.803870968e+24
1.161290323e+22
2.967741935e+22
1.147096774e+24
4.259354839e+24
1.852903226e+24
9.264516129e+23
2.049032258e+24
2.672258065e+24
1.931612903e+24
1.753548387e+24
5.161290323e+21
2.967741935e+22
1.113548387e+24
4.193548387e+24
1.827096774e+24
9.548387097e+23
2.070967742e+24
2.780645161e+24
1.975483871e+24
1.72516129e+24
9.032258065e+21
3.870967742e+22
1.197419355e+24
4.247741935e+24
1.776774194e+24
1.04516129e+24
2.134193548e+24
2.660645161e+24
1.92516129e+24
1.781935484e+24
9.032258065e+21
3.483870968e+22
1.118709677e+24
4.187096774e+24
1.776774194e+24
1.052903226e+24
2.126451613e+24
2.569032258e+24
1.962580645e+24
1.752258065e+24
6.451612903e+21
1.677419355e+22
1.157419355e+24
4.304516129e+24
1.750967742e+24
1.00516129e+24
2.061935484e+24
2.731612903e+24
1.993548387e+24
1.736774194e+24
5.161290323e+21
3.741935484e+22
1.091612903e+24
4.247741935e+24
1.772903226e+24
9.574193548e+23
2.046451613e+24
2.627096774e+24
1.910967742e+24
1.700645161e+24
3.870967742e+21
2.709677419e+22
9.922580645e+23
4.002580645e+24
1.778064516e+24
1.009032258e+24
2.028387097e+24
2.539354839e+24
1.904516129e+24
1.769032258e+24
1.278598555e+24
1.162748801e+24
1.159560285e+24
1.104292517e+24
1.094726933e+24
1.046899066e+24
1.111732409e+24
1.148931859e+24
1.08091e+24
1.104292517e+24
1.079847149e+24
1.171251544e+24
1.148931868e+24
1.161685959e+24
1.202073953e+24
1.227582154e+24
1.174440059e+24
1.158497444e+24
1.229707837e+24
1.213765201e+24
1.204199636e+24
1.27541003e+24
1.237147718e+24
1.214828053e+24
1.276472871e+24
1.30729527e+24
1.377442832e+24
1.387008407e+24
1.557063065e+24
1.565565811e+24
1.49541826e+24
1.310483795e+24
1.192508378e+24
1.207388161e+24
1.189319843e+24
1.165937335e+24
1.108543884e+24
1.141491967e+24
1.127675034e+24
1.128737876e+24
1.138303442e+24
1.071344425e+24
1.198885428e+24
1.169125851e+24
1.179754277e+24
1.129800718e+24
1.134052075e+24
1.111732409e+24
1.198885428e+24
1.274347177e+24
1.188257011e+24
1.232896362e+24
1.304106744e+24
1.292415497e+24
1.218016578e+24
1.333866312e+24
1.258404562e+24
1.297729705e+24
1.376379979e+24
1.472035743e+24
1.887606844e+24
1.692043959e+24
1.455030275e+24
1.377442832e+24
1.324300737e+24
1.301981072e+24
1.218016578e+24
1.184005634e+24
1.198885428e+24
1.160623127e+24
1.144680492e+24
1.121297984e+24
1.146806185e+24
1.177628584e+24
1.172314385e+24
1.181879961e+24
1.136177759e+24
1.184005644e+24
1.230770679e+24
1.203136785e+24
1.249901829e+24
1.28816413e+24
1.198885418e+24
1.211639528e+24
1.184005644e+24
1.277535702e+24
1.254153196e+24
1.320049381e+24
1.390196921e+24
1.359374523e+24
2.199019459e+24
2.117180632e+24
1.788762566e+24
1.690981131e+24
1.634650508e+24
1.45184175e+24
1.462470167e+24
1.404013863e+24
1.30729528e+24
1.297729705e+24
1.286038436e+24
1.218016578e+24
1.272221504e+24
1.198885418e+24
1.220142262e+24
1.220142262e+24
1.160623117e+24
1.21270237e+24
1.190382694e+24
1.235022035e+24
1.273284346e+24
1.272221505e+24
1.277535702e+24
1.30091823e+24
1.362563048e+24
1.255216027e+24
1.322175064e+24
1.37000294e+24
1.314735161e+24
1.242461937e+24
2.598647935e+24
2.45728997e+24
2.112929282e+24
2.056598673e+24
1.970508479e+24
1.753688791e+24
1.710112281e+24
1.584696949e+24
1.588948328e+24
1.395511141e+24
1.378505662e+24
1.388071249e+24
1.315798014e+24
1.355123145e+24
1.282849921e+24
1.335992006e+24
1.303043903e+24
1.252027512e+24
1.289226972e+24
1.23821056e+24
1.23821057e+24
1.254153196e+24
1.243524769e+24
1.30091823e+24
1.236084887e+24
1.322175053e+24
1.354060315e+24
1.330677797e+24
1.252027502e+24
1.247776146e+24
2.349942979e+24
2.561448455e+24
2.339314563e+24
2.288298161e+24
2.190516708e+24
2.116117807e+24
1.925869145e+24
1.89504672e+24
1.706923756e+24
1.704798073e+24
1.59213684e+24
1.547497503e+24
1.523052144e+24
1.482664147e+24
1.474161426e+24
1.399762508e+24
1.449716055e+24
1.327489272e+24
1.332803481e+24
1.404013863e+24
1.355123156e+24
1.329614956e+24
1.349808937e+24
1.246713304e+24
1.354060315e+24
1.33280347e+24
1.318986539e+24
1.323237906e+24
1.297729694e+24
1.371065782e+24
2.188391042e+24
2.523186154e+24
2.440284523e+24
2.448787257e+24
2.440284503e+24
2.37545118e+24
2.270229853e+24
2.072541281e+24
2.084232557e+24
2.024713422e+24
1.818522119e+24
1.780259833e+24
1.603828112e+24
1.645278925e+24
1.601702429e+24
1.575131386e+24
1.535806231e+24
1.582571278e+24
1.459281642e+24
1.443339005e+24
1.442276175e+24
1.449716067e+24
1.447590372e+24
1.392322616e+24
1.342369056e+24
1.385945554e+24
1.36362589e+24
1.387008407e+24
1.432710588e+24
1.381694199e+24
2.157568633e+24
2.327623285e+24
2.376514022e+24
2.307429312e+24
2.543380146e+24
2.602899302e+24
2.473232616e+24
2.310617818e+24
2.311680679e+24
2.23728176e+24
2.092735273e+24
2.006645113e+24
2.01089648e+24
1.881229778e+24
1.771757099e+24
1.787699725e+24
1.688855434e+24
1.712237965e+24
1.584696962e+24
1.621896408e+24
1.563440128e+24
1.597451062e+24
1.562377273e+24
1.525177827e+24
1.497543943e+24
1.466721522e+24
1.412516608e+24
1.4582188e+24
1.422082171e+24
1.402951032e+24
2.109740757e+24
2.190516708e+24
2.077855507e+24
2.179888309e+24
2.277669726e+24
2.531688909e+24
2.436033157e+24
2.498740796e+24
2.596522252e+24
2.357382871e+24
2.315932026e+24
2.351005821e+24
2.135248958e+24
2.095923798e+24
2.047033097e+24
1.930120511e+24
1.902486612e+24
1.779196991e+24
1.854658751e+24
1.716489317e+24
1.757940157e+24
1.655907355e+24
1.696295325e+24
1.694169656e+24
1.673975664e+24
1.637839033e+24
1.607016637e+24
1.56450297e+24
1.548560331e+24
1.493292576e+24
2.08635824e+24
2.205396491e+24
2.028964789e+24
2.066164248e+24
2.24259595e+24
2.315932045e+24
2.320183412e+24
2.402022203e+24
2.492363766e+24
2.580579627e+24
2.404147886e+24
2.508306391e+24
2.413713481e+24
2.331874651e+24
2.219213451e+24
2.222401976e+24
2.087421064e+24
2.024713422e+24
2.031090472e+24
1.953503013e+24
1.957754395e+24
1.914177886e+24
1.861035786e+24
1.825962026e+24
1.827024867e+24
1.791951077e+24
1.733494799e+24
1.726054907e+24
1.690981117e+24
1.632524838e+24
2.028964789e+24
2.207522175e+24
2.06722709e+24
2.071478456e+24
2.058724339e+24
2.24365881e+24
2.193705251e+24
2.25535005e+24
2.430718948e+24
2.479609666e+24
2.415839144e+24
2.512557758e+24
2.515746283e+24
2.471106912e+24
2.419027689e+24
2.348880138e+24
2.411587778e+24
2.250035861e+24
2.160757158e+24
2.120369157e+24
1.942874612e+24
2.037467522e+24
1.973697004e+24
1.925869145e+24
1.940748928e+24
1.929057654e+24
1.881229794e+24
1.87272706e+24
1.778134135e+24
1.81639645e+24
2.000268063e+24
2.152254407e+24
2.00451943e+24
2.032153314e+24
2.032153297e+24
2.175636942e+24
2.10548939e+24
2.166071349e+24
2.323371937e+24
2.340377404e+24
2.400959361e+24
2.5136206e+24
2.525311859e+24
2.433907453e+24
2.468981249e+24
2.546568692e+24
2.379702527e+24
2.309554995e+24
2.415839164e+24
2.304240768e+24
2.254287227e+24
2.185202517e+24
2.175636924e+24
2.132060433e+24
2.090609607e+24
2.085295381e+24
2.027901947e+24
2.003456588e+24
2.064038547e+24
1.966257129e+24
2.056598673e+24
2.094860956e+24
2.045970256e+24
1.942874612e+24
2.079981173e+24
2.151191583e+24
2.06722709e+24
2.036404664e+24
2.269167011e+24
2.239407444e+24
2.244721633e+24
2.480672508e+24
2.419027689e+24
2.514683421e+24
2.627344661e+24
2.627344661e+24
2.443473028e+24
2.515746283e+24
2.468981249e+24
2.473232595e+24
2.343565929e+24
2.35632003e+24
2.354194327e+24
2.193705251e+24
2.203270826e+24
2.161819982e+24
2.21815061e+24
2.123557699e+24
2.124620523e+24
2.146940216e+24
1.958817237e+24
2.167134191e+24
2.01727353e+24
1.982199754e+24
2.004519413e+24
2.076792665e+24
2.016210688e+24
1.966257113e+24
2.106552232e+24
2.165008525e+24
2.088483906e+24
2.195830934e+24
2.36907413e+24
2.276606884e+24
2.564637001e+24
2.439221681e+24
2.549757196e+24
2.599710777e+24
2.506180708e+24
2.492363746e+24
2.521060492e+24
2.430718948e+24
2.47642112e+24
2.442410207e+24
2.261727119e+24
2.400959361e+24
2.304240787e+24
2.227716185e+24
2.360571377e+24
2.264915644e+24
2.050221622e+24
2.118243473e+24
1.972634179e+24
1.990702488e+24
1.97688553e+24
2.050221623e+24
2.051284464e+24
1.977948371e+24
2.066164248e+24
2.040656047e+24
1.984325421e+24
2.152254425e+24
2.256412911e+24
2.101238006e+24
2.323371937e+24
2.36269708e+24
2.365885585e+24
2.540191642e+24
2.516809125e+24
2.549757196e+24
2.580579627e+24
2.473232616e+24
2.47642112e+24
2.45091294e+24
2.533814592e+24
2.37545116e+24
2.344628771e+24
2.393519489e+24
2.289360984e+24
2.357382871e+24
2.034278997e+24
2.182013974e+24
2.008770797e+24
1.988576804e+24
2.051284447e+24
2.204333668e+24
1.953503029e+24
1.982199738e+24
2.125683383e+24
2.112929282e+24
1.941811754e+24
2.044907414e+24
2.053410148e+24
2.054472972e+24
2.193705251e+24
2.222401976e+24
2.327623285e+24
2.377576863e+24
2.424341898e+24
2.48279817e+24
2.529563225e+24
2.560385634e+24
2.585893814e+24
2.478546824e+24
2.512557758e+24
2.550820038e+24
2.405210747e+24
2.419027689e+24
2.460478495e+24
2.392456647e+24
2.049158781e+24
2.067227073e+24
2.120369174e+24
1.937560403e+24
2.036404664e+24
2.045970256e+24
2.015147847e+24
2.011959305e+24
2.036404681e+24
2.106552232e+24
2.042781714e+24
2.087421082e+24
2.151191583e+24
2.02790193e+24
2.126746224e+24
2.134186116e+24
2.14800304e+24
2.190516726e+24
2.297863737e+24
2.423279036e+24
2.478546824e+24
2.480672507e+24
2.627344639e+24
2.552945742e+24
2.599710777e+24
2.562511297e+24
2.635847394e+24
2.501929341e+24
2.522123313e+24
2.593333727e+24
2.01727353e+24
2.08423254e+24
2.01727353e+24
1.996016696e+24
2.000268046e+24
2.158631475e+24
2.022587739e+24
1.970508479e+24
2.108677916e+24
2.003456588e+24
2.107615056e+24
2.033216155e+24
2.156505792e+24
2.107615056e+24
2.14268885e+24
2.144814533e+24
2.209647858e+24
2.210710718e+24
2.180951151e+24
2.252161525e+24
2.330811829e+24
2.314869204e+24
2.417964828e+24
2.455164307e+24
2.594396569e+24
2.475358279e+24
2.632658869e+24
2.619904769e+24
2.576328238e+24
2.552945743e+24
1.992828171e+24
2.151191565e+24
1.955628712e+24
1.921617778e+24
1.960942904e+24
2.119306332e+24
1.985388279e+24
1.981136896e+24
2.048095939e+24
2.031090472e+24
2.044907397e+24
2.005582271e+24
2.095923815e+24
2.009833622e+24
2.001330905e+24
2.156505792e+24
2.044907397e+24
2.207522193e+24
2.175636942e+24
2.24259595e+24
2.251098702e+24
2.263852802e+24
2.393519469e+24
2.31274352e+24
2.504055025e+24
2.493426587e+24
2.487049558e+24
2.543380167e+24
2.516809104e+24
2.72087473e+24
2.001330905e+24
2.045970239e+24
1.94181177e+24
1.979011229e+24
1.959880063e+24
1.964131446e+24
1.969445654e+24
1.932246179e+24
2.047033098e+24
1.915240728e+24
1.951377329e+24
1.991765329e+24
2.014085005e+24
1.985388263e+24
1.970508496e+24
1.992828171e+24
2.024713405e+24
2.037467522e+24
2.043844572e+24
2.081044014e+24
2.167134209e+24
2.172448417e+24
2.175636924e+24
2.308492153e+24
2.323371937e+24
2.353131485e+24
2.336126037e+24
2.511494917e+24
2.481735329e+24
2.492363766e+24
1.321290323e+24
1.263225806e+24
1.278709677e+24
1.296774194e+24
1.243870968e+24
1.178064516e+24
1.156129032e+24
1.101935484e+24
1.025806452e+24
8.567741935e+23
1.607741935e+24
1.618064516e+24
1.429677419e+24
1.477419355e+24
1.454193548e+24
1.507096774e+24
1.433548387e+24
1.383225806e+24
1.210322581e+24
1.046451613e+24
1.378064516e+24
1.372903226e+24
1.44e+24
1.415483871e+24
1.362580645e+24
1.407741935e+24
1.335483871e+24
1.321290323e+24
1.157419355e+24
1.032258065e+24
1.323870968e+24
1.353548387e+24
1.396129032e+24
1.372903226e+24
1.345806452e+24
1.341935484e+24
1.250322581e+24
1.295483871e+24
1.148387097e+24
1.058064516e+24
1.229677419e+24
1.308387097e+24
1.305806452e+24
1.28516129e+24
1.309677419e+24
1.241290323e+24
1.357419355e+24
1.229677419e+24
1.12e+24
1.104516129e+24
1.376774194e+24
1.352258065e+24
1.247741935e+24
1.272258065e+24
1.236129032e+24
1.242580645e+24
1.236129032e+24
1.153548387e+24
1.188387097e+24
1.197419355e+24
1.344516129e+24
1.340645161e+24
1.384516129e+24
1.310967742e+24
1.229677419e+24
1.303225806e+24
1.20516129e+24
1.215483871e+24
1.162580645e+24
1.129032258e+24
1.428387097e+24
1.363870968e+24
1.414193548e+24
1.304516129e+24
1.419354839e+24
1.278709677e+24
1.232258065e+24
1.237419355e+24
1.211612903e+24
1.149677419e+24
1.490322581e+24
1.467096774e+24
1.402580645e+24
1.367741935e+24
1.409032258e+24
1.339354839e+24
1.345806452e+24
1.242580645e+24
1.20516129e+24
1.221935484e+24
1.638709677e+24
1.545806452e+24
1.593548387e+24
1.549677419e+24
1.481290323e+24
1.490322581e+24
1.363870968e+24
1.31483871e+24
1.374193548e+24
1.283870968e+24
1.741935484e+24
1.690322581e+24
1.761290323e+24
1.592258065e+24
1.590967742e+24
1.499354839e+24
1.545806452e+24
1.527741935e+24
1.468387097e+24
1.414193548e+24
1.852903226e+24
1.936774194e+24
1.881290323e+24
1.830967742e+24
1.772903226e+24
1.820645161e+24
1.678709677e+24
1.660645161e+24
1.487741935e+24
1.552258065e+24
2.101935484e+24
2.134193548e+24
1.976774194e+24
2.002580645e+24
2.030967742e+24
1.887741935e+24
1.779354839e+24
1.908387097e+24
1.729032258e+24
1.705806452e+24
2.214193548e+24
2.221935484e+24
2.261935484e+24
2.156129032e+24
2.145806452e+24
2.136774194e+24
2.024516129e+24
2.016774194e+24
1.979354839e+24
1.889032258e+24
2.267096774e+24
2.219354839e+24
2.246451613e+24
2.246451613e+24
2.215483871e+24
2.227096774e+24
2.110967742e+24
2.207741935e+24
2.127741935e+24
2.050322581e+24
2.40516129e+24
2.427096774e+24
2.410322581e+24
2.352258065e+24
2.398709677e+24
2.343225806e+24
2.389677419e+24
2.228387097e+24
2.295483871e+24
2.282580645e+24
2.459354839e+24
2.543225806e+24
2.563870968e+24
2.532903226e+24
2.356129032e+24
2.503225806e+24
2.414193548e+24
2.476129032e+24
2.414193548e+24
2.375483871e+24
2.581935484e+24
2.378064516e+24
2.486451613e+24
2.620645161e+24
2.580645161e+24
2.56e+24
2.52e+24
2.52516129e+24
2.544516129e+24
2.469677419e+24
2.550967742e+24
2.549677419e+24
2.610322581e+24
2.539354839e+24
2.593548387e+24
2.549677419e+24
2.593548387e+24
2.619354839e+24
2.602580645e+24
2.682580645e+24
2.499354839e+24
2.489032258e+24
2.596129032e+24
2.557419355e+24
2.52516129e+24
2.571612903e+24
2.56e+24
2.548387097e+24
2.60516129e+24
2.646451613e+24
1.086438027e+24
1.335386798e+24
1.271553789e+24
1.260063845e+24
1.237083945e+24
1.234530637e+24
1.252403883e+24
1.196230812e+24
1.224317353e+24
1.30219364e+24
1.261340493e+24
1.299640319e+24
1.294533677e+24
1.2804904e+24
1.312406923e+24
1.335386811e+24
1.4030498e+24
1.339216792e+24
1.387729888e+24
1.37240995e+24
1.397943172e+24
1.390283209e+24
1.417093064e+24
1.489862723e+24
1.437519645e+24
1.49624601e+24
1.54092914e+24
1.566462349e+24
1.479649425e+24
1.313683583e+24
1.191427168e+24
1.623991476e+24
1.578984799e+24
1.565232754e+24
1.571483669e+24
1.446465093e+24
1.503973645e+24
1.582735342e+24
1.561482196e+24
1.647745024e+24
1.603988502e+24
1.563982568e+24
1.666497813e+24
1.586485899e+24
1.562732383e+24
1.675249114e+24
1.600237944e+24
1.682750229e+24
1.685250601e+24
1.680249841e+24
1.750260268e+24
1.696502274e+24
1.696502258e+24
1.719005621e+24
1.714004877e+24
1.830272149e+24
1.947789641e+24
1.925286295e+24
1.934037578e+24
1.643994466e+24
1.135377637e+24
1.546906087e+24
1.567727482e+24
1.57262663e+24
1.583649699e+24
1.54323174e+24
1.522410359e+24
1.527309493e+24
1.506488127e+24
1.555479611e+24
1.539557364e+24
1.447698347e+24
1.576300992e+24
1.532208642e+24
1.58120014e+24
1.600796734e+24
1.559153957e+24
1.649788217e+24
1.637540346e+24
1.559153958e+24
1.613044605e+24
1.638765134e+24
1.695105324e+24
1.550580463e+24
1.626517263e+24
1.753895104e+24
1.804111391e+24
1.832281495e+24
1.906993489e+24
1.491790682e+24
1.177592147e+24
1.51490446e+24
1.559319265e+24
1.514904474e+24
1.561720049e+24
1.466888484e+24
1.477692082e+24
1.418872481e+24
1.528108871e+24
1.44168009e+24
1.493297265e+24
1.472890483e+24
1.528108871e+24
1.402066885e+24
1.544914468e+24
1.542513668e+24
1.553317251e+24
1.588128858e+24
1.542513668e+24
1.51610486e+24
1.514904474e+24
1.590529658e+24
1.654150829e+24
1.662553642e+24
1.649349245e+24
1.636144833e+24
1.727375228e+24
1.866621598e+24
1.815004393e+24
1.511303275e+24
1.181672464e+24
1.495922e+24
1.484152368e+24
1.440604677e+24
1.411180549e+24
1.459436111e+24
1.362925014e+24
1.4394277e+24
1.455905217e+24
1.494745049e+24
1.441781629e+24
1.331146969e+24
1.453551288e+24
1.342916603e+24
1.428835031e+24
1.460613076e+24
1.512399505e+24
1.420596279e+24
1.526523094e+24
1.435896806e+24
1.557124173e+24
1.557124173e+24
1.506514682e+24
1.573601678e+24
1.592433112e+24
1.575955593e+24
1.699536891e+24
1.733668864e+24
1.838418697e+24
1.598317935e+24
1.089779075e+24
1.438416011e+24
1.393393372e+24
1.408400923e+24
1.410709764e+24
1.404937642e+24
1.332208742e+24
1.350679561e+24
1.396856653e+24
1.408400923e+24
1.391084505e+24
1.43610717e+24
1.357606135e+24
1.310274617e+24
1.430335035e+24
1.414173057e+24
1.476512102e+24
1.443033732e+24
1.44765144e+24
1.416481899e+24
1.479975396e+24
1.45919571e+24
1.459195697e+24
1.518071486e+24
1.545777734e+24
1.6219699e+24
1.623124342e+24
1.676227983e+24
1.818222486e+24
1.625433196e+24
1.009268035e+24
1.328699658e+24
1.317372306e+24
1.340027032e+24
1.372876372e+24
1.367212703e+24
1.242611711e+24
1.234682546e+24
1.286788426e+24
1.196169523e+24
1.219956975e+24
1.313974097e+24
1.310575889e+24
1.358150801e+24
1.379672802e+24
1.419318572e+24
1.358150801e+24
1.431778672e+24
1.374009121e+24
1.407991197e+24
1.432911408e+24
1.460097079e+24
1.472557165e+24
1.525795784e+24
1.502008322e+24
1.559777859e+24
1.583565335e+24
1.660591402e+24
1.731953773e+24
1.567707027e+24
9.361740479e+23
1.244155286e+24
1.239707914e+24
1.300859425e+24
1.263056662e+24
1.290852814e+24
1.214135464e+24
1.165214244e+24
1.289740969e+24
1.25860929e+24
1.200793305e+24
1.251938216e+24
1.307530499e+24
1.298635723e+24
1.344221406e+24
1.26639221e+24
1.334214784e+24
1.269727747e+24
1.278622512e+24
1.340885858e+24
1.303083117e+24
1.34310956e+24
1.358675388e+24
1.38424785e+24
1.458741509e+24
1.486537638e+24
1.526564095e+24
1.585491915e+24
1.700012004e+24
1.578820841e+24
8.875615605e+23
1.267477199e+24
1.127738121e+24
1.092803348e+24
1.169223153e+24
1.221625321e+24
1.163764605e+24
1.204157925e+24
1.184507126e+24
1.210708205e+24
1.175773423e+24
1.180140279e+24
1.246734689e+24
1.244551255e+24
1.276210903e+24
1.32097108e+24
1.278394316e+24
1.208524782e+24
1.324246215e+24
1.227083869e+24
1.299136848e+24
1.263110364e+24
1.28821972e+24
1.382106932e+24
1.33407162e+24
1.44215106e+24
1.465077016e+24
1.502195212e+24
1.687786176e+24
1.58079845e+24
8.342446081e+23
1.196679916e+24
1.040125025e+24
1.068004665e+24
1.054064837e+24
1.1141133e+24
1.110896419e+24
1.100173471e+24
1.113041007e+24
1.120547064e+24
1.151643575e+24
1.140920647e+24
1.161294229e+24
1.230993319e+24
1.226704154e+24
1.202041395e+24
1.199896798e+24
1.185956988e+24
1.236354798e+24
1.311415356e+24
1.28139114e+24
1.273885083e+24
1.242788551e+24
1.246005443e+24
1.33178895e+24
1.294258655e+24
1.384331348e+24
1.508717434e+24
1.518368066e+24
1.536597074e+24
)
;

boundaryField
{
    inlet
    {
        type            calculated;
        value           nonuniform List<scalar> 
20
(
3.75483871e+23
4.425806452e+23
2.283870968e+23
1.483870968e+23
9.419354839e+22
6.322580645e+22
4.774193548e+22
5.032258065e+22
2.967741935e+22
2.322580645e+22
2.580645161e+22
1.548387097e+22
1.032258065e+22
1.161290323e+22
5.161290323e+21
9.032258065e+21
9.032258065e+21
6.451612903e+21
5.161290323e+21
3.870967742e+21
)
;
    }
    outlet
    {
        type            calculated;
        value           nonuniform List<scalar> 
70
(
8.567741935e+23
1.046451613e+24
1.032258065e+24
1.058064516e+24
1.104516129e+24
1.197419355e+24
1.129032258e+24
1.149677419e+24
1.221935484e+24
1.283870968e+24
1.414193548e+24
1.552258065e+24
1.705806452e+24
1.889032258e+24
2.050322581e+24
2.282580645e+24
2.375483871e+24
2.469677419e+24
2.682580645e+24
2.646451613e+24
3.870967742e+21
2.709677419e+22
9.922580645e+23
4.002580645e+24
1.778064516e+24
1.009032258e+24
2.028387097e+24
2.539354839e+24
1.904516129e+24
1.769032258e+24
2.001330905e+24
2.045970239e+24
1.94181177e+24
1.979011229e+24
1.959880063e+24
1.964131446e+24
1.969445654e+24
1.932246179e+24
2.047033098e+24
1.915240728e+24
1.951377329e+24
1.991765329e+24
2.014085005e+24
1.985388263e+24
1.970508496e+24
1.992828171e+24
2.024713405e+24
2.037467522e+24
2.043844572e+24
2.081044014e+24
2.167134209e+24
2.172448417e+24
2.175636924e+24
2.308492153e+24
2.323371937e+24
2.353131485e+24
2.336126037e+24
2.511494917e+24
2.481735329e+24
2.492363766e+24
2.499354839e+24
2.489032258e+24
2.596129032e+24
2.557419355e+24
2.52516129e+24
2.571612903e+24
2.56e+24
2.548387097e+24
2.60516129e+24
2.646451613e+24
)
;
    }
    wall
    {
        type            calculated;
        value           uniform 8.387096774e-301;
    }
    frontAndBack
    {
        type            empty;
    }
}


// ************************************************************************* //
