/*--------------------------------*- C++ -*----------------------------------*\
| =========                 |                                                 |
| \\      /  F ield         | OpenFOAM: The Open Source CFD Toolbox           |
|  \\    /   O peration     | Version:  v1912                                 |
|   \\  /    A nd           | Website:  www.openfoam.com                      |
|    \\/     M anipulation  |                                                 |
\*---------------------------------------------------------------------------*/
FoamFile
{
    version     2.0;
    format      ascii;
    class       volScalarField;
    location    "0.00031";
    object      rhoMMean;
}
// * * * * * * * * * * * * * * * * * * * * * * * * * * * * * * * * * * * * * //

dimensions      [1 -3 0 0 0 0 0];


internalField   nonuniform List<scalar> 
1300
(
0.009041780645
0.01052896774
0.02258752258
0.0599931871
0.03491649032
0.02492304516
0.03479618065
0.0370887871
0.03032690323
0.02910127742
0.01057615484
0.01039615484
0.03407252903
0.1061792774
0.05114962581
0.03101700645
0.05298682581
0.05317974194
0.04013597419
0.03782139355
0.005463754839
0.006222193548
0.03068710968
0.1094188645
0.05074212903
0.02994544516
0.05844214194
0.06654100645
0.04646952258
0.0443992129
0.003539690323
0.003432503226
0.02667627097
0.1045937548
0.04687732903
0.02851054194
0.05943203871
0.07842018065
0.05089629677
0.0488735871
0.002262606452
0.002995419355
0.02867283871
0.1028503097
0.0456811871
0.02440064516
0.05554109677
0.07120788387
0.0555416129
0.05027900645
0.001534064516
0.001911251613
0.02611033548
0.1027687484
0.04447264516
0.02382606452
0.0527516129
0.06739402581
0.05188202581
0.04885212903
0.001152709677
0.002155522581
0.02793148387
0.1027856258
0.0433711871
0.02227064516
0.05051910968
0.06425287742
0.04890754839
0.04660670968
0.001221251613
0.001384167742
0.02768283871
0.1019249935
0.0439716
0.02376627097
0.05132859355
0.06662267097
0.04555670968
0.04460535484
0.0007156258065
0.001285625806
0.02748148387
0.1052154194
0.04262108387
0.02281491613
0.05280327742
0.06460829677
0.04559952258
0.04273722581
0.0005613548387
0.001161354839
0.02704002581
0.1012173935
0.04495264516
0.02413033548
0.0490188
0.06587246452
0.04666243871
0.04012753548
0.0006213548387
0.000947083871
0.02790585806
0.1029188516
0.04442149677
0.02364189677
0.05073307097
0.06703870968
0.04655576774
0.04344410323
0.00036
0.0009942709677
0.0270915871
0.1003346839
0.04193556129
0.02234772903
0.05161171613
0.06478006452
0.04448972903
0.043504
0.0002485419355
0.001067083871
0.02492314839
0.1020312516
0.0437744129
0.0224291871
0.04906202581
0.06542694194
0.04484087742
0.04319139355
0.0002742709677
0.0006985419355
0.02742169032
0.1022887484
0.04436556129
0.0222148129
0.04919036129
0.06420996129
0.04628952258
0.04203847742
0.00012
0.0006985419355
0.02663741935
0.1007203097
0.0436587871
0.02281074839
0.0497259871
0.06670860645
0.04737785806
0.04129732903
0.0002185419355
0.000917083871
0.02873690323
0.1018308258
0.04256139355
0.02503460645
0.05124723871
0.06371787097
0.04606264516
0.04274545806
0.00021
0.0008228129032
0.02678304516
0.1006728129
0.04256566452
0.02524023226
0.0510288
0.06180141935
0.04693691613
0.04216223226
0.00015
0.0003985419355
0.02773002581
0.103385729
0.04199129032
0.02408325161
0.04963130323
0.06558141935
0.04785338065
0.04162712258
0.00012
0.0008785419355
0.02614877419
0.1018350968
0.04244576774
0.02288356129
0.04892962581
0.06300620645
0.04580525161
0.04075722581
9e-05
0.0006428129032
0.02377470968
0.09630166452
0.04263410323
0.02413908387
0.04869754839
0.061026
0.04558691613
0.0424668129
0.03064209795
0.02792748313
0.02776891801
0.02645579836
0.02621229048
0.02508270255
0.02655137971
0.02763086528
0.0259508529
0.02651208645
0.02591206959
0.02810054587
0.02751477131
0.02788518203
0.02871162671
0.02937505249
0.02812542677
0.02770550887
0.02953001481
0.02913472249
0.02880326492
0.03055389272
0.02963614994
0.02911369972
0.03060322983
0.03136910267
0.03309150166
0.03333852733
0.03734155019
0.03757090111
0.03593997053
0.03152063201
0.0286193933
0.02897238429
0.02864024602
0.02798754455
0.02661796674
0.02739456369
0.02708739203
0.02698897289
0.02736616455
0.02566512917
0.0287571057
0.02802649746
0.02829471642
0.02711218813
0.02712308203
0.026720244
0.02871840764
0.03053973542
0.02852758504
0.02960766602
0.03128089744
0.03093871581
0.02915617087
0.03203964949
0.03018314166
0.03117836536
0.03291903407
0.03530134085
0.04532924158
0.04068390032
0.03496576984
0.03308446565
0.03184891192
0.03122795755
0.02918783292
0.0283548624
0.02875358769
0.02789565125
0.02752850299
0.02691449958
0.02750404723
0.02828751012
0.02814284697
0.02834413856
0.02721120224
0.02844281278
0.02947381174
0.02881725168
0.02993620102
0.03091023166
0.02873951544
0.02913455267
0.02838300668
0.03072644482
0.03005263532
0.03161990168
0.0333211921
0.03264326943
0.05279825528
0.05079348035
0.04279892373
0.04067326161
0.03922989038
0.03483886654
0.03506135119
0.03368465207
0.0313515129
0.03111152324
0.03083266522
0.02929689111
0.03039884538
0.0287184074
0.02921262902
0.02924077307
0.02793434909
0.0290783496
0.02860163322
0.02963949789
0.03052206061
0.03045865148
0.03067367473
0.03122435452
0.03268574059
0.03015122427
0.03181708007
0.03292556019
0.03147523804
0.02978433157
0.06234643178
0.05886988675
0.05072629854
0.04936384178
0.04717227245
0.04205381857
0.0411426869
0.03809661418
0.03816731472
0.03338845963
0.03309510442
0.03325769821
0.03157030949
0.0325514609
0.03076908628
0.03199056772
0.03130192045
0.02996099711
0.03086458261
0.02962216294
0.02965734324
0.0300948514
0.0298125604
0.03115047639
0.02969235325
0.03169746761
0.03246342599
0.0320006966
0.0299821049
0.02990788691
0.05649368144
0.06136896766
0.05616917461
0.05489509314
0.05251261614
0.05073710764
0.04621884007
0.04542130455
0.04094190547
0.04095228944
0.03825551964
0.03709452484
0.03660356637
0.03553789723
0.03538946105
0.03359284409
0.03475074605
0.03187731131
0.03198679463
0.03369520609
0.03248813706
0.03185989134
0.03231181136
0.02988669385
0.03237547584
0.03189180821
0.03160222663
0.03157442269
0.03109393296
0.0328588031
0.05245615842
0.0604969592
0.0585167262
0.05876014883
0.05854135176
0.05704453103
0.05447852296
0.04968525532
0.05008020771
0.04850993351
0.04357526546
0.04272436539
0.0385765938
0.03953328917
0.03837941541
0.03784255282
0.03683677479
0.03794868819
0.03503647007
0.0346411777
0.03464812897
0.03479999842
0.03468021588
0.03335302449
0.0321775322
0.03324345586
0.03274563172
0.03316614503
0.0343272249
0.03312702183
0.05170787536
0.05581643825
0.05699888198
0.05526249625
0.06102275761
0.06243472204
0.0593109134
0.05543161517
0.05550909678
0.05367378175
0.05024623379
0.04816724146
0.04820276163
0.04507895262
0.04248094276
0.04300991907
0.0404866369
0.04116748299
0.03799811033
0.03901075369
0.03740890278
0.03841073736
0.03753546566
0.03655096634
0.03590847854
0.03517778521
0.03384716085
0.03500472299
0.03405197016
0.03362124321
0.05069789941
0.05257945825
0.04979122105
0.05223736183
0.05473241414
0.06069464825
0.05837214784
0.06005877083
0.06221961351
0.05652242068
0.05558683257
0.05629675813
0.05128392906
0.05041535316
0.0491695862
0.04629305831
0.04569630421
0.04260115015
0.04447876628
0.04118189479
0.0421878429
0.0397311481
0.04074404653
0.04064889065
0.04026029447
0.03931457761
0.03865072701
0.03748638394
0.0371790417
0.03579908024
0.05005926973
0.05284449908
0.04860877778
0.04961790346
0.05374104856
0.05549536487
0.05572085736
0.05751455104
0.0597873747
0.06195448765
0.05759915324
0.06017563077
0.05787784143
0.05581677836
0.0531516714
0.05332079077
0.0501543405
0.04855918559
0.04875318609
0.04688947154
0.04692147409
0.04585555015
0.0446692484
0.04381508542
0.04374832833
0.04298211477
0.04162652432
0.0414887269
0.04057827511
0.03918398657
0.04888318225
0.05285522316
0.0495124483
0.0496816527
0.04932883137
0.05385722823
0.05257619576
0.05402350936
0.05832950664
0.05938881969
0.05801521324
0.06032372713
0.06027824813
0.05938462098
0.05805416687
0.05630362409
0.05785656286
0.05385773839
0.05194031884
0.05074800135
0.04661773519
0.04889089848
0.04741175194
0.04626105614
0.04660701111
0.04632111695
0.04504729093
0.04485663839
0.04265383486
0.04368063594
0.04801193903
0.05162301765
0.04797709908
0.04892565341
0.04868291059
0.05218776964
0.0504583349
0.05187038343
0.05570704042
0.05618684967
0.05743355187
0.06025697004
0.06043380564
0.05835086927
0.05913819099
0.06110392733
0.05711523079
0.05538579652
0.05796244363
0.05527279473
0.0539776907
0.05250867343
0.0521842512
0.0509987155
0.0502144021
0.05000289619
0.04861221076
0.04796646004
0.04957551692
0.04720359478
0.04938143181
0.05026399388
0.04903229894
0.04666698727
0.04994970096
0.051591271
0.04967075857
0.04885563299
0.05437641576
0.05384281609
0.05376936266
0.05952258895
0.05791696463
0.06024650056
0.06308750878
0.06291512648
0.05855567887
0.06032046421
0.05920503311
0.05944107913
0.05615192469
0.05645901154
0.05643069698
0.05256915975
0.05279155938
0.05198613751
0.0531691764
0.05095933721
0.05099108387
0.05151705276
0.04700950926
0.05198656265
0.04831936599
0.04756370681
0.04805801282
0.04970318587
0.04844592918
0.04709453621
0.05049711799
0.05192658692
0.0500207413
0.05259043784
0.05691033664
0.05456698283
0.0614044033
0.05848497912
0.06105844783
0.06236058883
0.06005936652
0.05975923016
0.06037365943
0.05834357866
0.05936042007
0.05865409849
0.05423158233
0.05753205604
0.05524113313
0.05337398599
0.05663173348
0.05424942744
0.04928593548
0.0507513493
0.04738000525
0.04776139536
0.04735923693
0.04919446733
0.04933527259
0.04736987598
0.04960031343
0.04901428377
0.04756035846
0.05163357209
0.05419597713
0.05042281431
0.0557562925
0.05668115608
0.05678343287
0.06083956672
0.06030999521
0.06123434813
0.0618102494
0.0592546253
0.05935338406
0.05874624686
0.06085664658
0.05692140035
0.05626458591
0.0573977771
0.0547685295
0.05654001071
0.048654937
0.05230437357
0.0482166636
0.04766975715
0.04909604778
0.05289014857
0.04678041374
0.04754611638
0.05102634938
0.05070870851
0.04650507358
0.04903924993
0.04927211854
0.04922295108
0.05257267776
0.0533383808
0.05577774019
0.05697785897
0.0581706862
0.05950165048
0.06070503221
0.0614638693
0.06198305633
0.05937466264
0.06021115094
0.06119221708
0.05763090079
0.05805416687
0.05896160999
0.057355476
0.04921900834
0.04945967781
0.05080428987
0.04647658981
0.04884507898
0.04907803302
0.04837196603
0.04821340028
0.0488591514
0.05051119001
0.04896520134
0.0501473049
0.05149980284
0.04867905248
0.05107568649
0.05119589389
0.0515980515
0.05247743651
0.05521951493
0.05813893864
0.05943798675
0.05957535904
0.06298548609
0.06109036547
0.06239225089
0.06147811087
0.06321131921
0.06006958042
0.06043706807
0.0621454803
0.04856562641
0.04999225715
0.04840028013
0.04796938285
0.04796620456
0.05182053658
0.04842533131
0.04736224477
0.05056764816
0.04798405007
0.05058867076
0.04882371626
0.05171482634
0.05056404471
0.05139710045
0.05156613479
0.05289057327
0.05309822109
0.05228318094
0.05407250636
0.05595741404
0.05554804993
0.05804000934
0.05889786123
0.06235664569
0.0592759029
0.06314422201
0.06285472519
0.06166215254
0.06126626577
0.04776156542
0.05158423456
0.04694241207
0.04611999579
0.0469885709
0.050895673
0.04762024998
0.04747918924
0.04922595933
0.04873207805
0.04897944342
0.04820233649
0.05021130923
0.04823785626
0.04801202406
0.05163743021
0.04905332155
0.05295724577
0.05223702172
0.05381140868
0.05399854366
0.05438302664
0.05738018659
0.05557954193
0.06012603857
0.05970302709
0.0597482515
0.06107904621
0.06039090886
0.06529374493
0.04797332599
0.04900415449
0.04658950611
0.04750716363
0.04701662992
0.04712251059
0.04729883603
0.04637062411
0.0491097801
0.04592247729
0.04681542336
0.04774037235
0.04825930481
0.04763783962
0.04731651109
0.04773342137
0.04857677522
0.04893311456
0.04897232279
0.0498934979
0.05203581516
0.05201161426
0.05219832323
0.05534701342
0.05578443655
0.05653967013
0.05600709126
0.06024976398
0.0594734214
0.05981551875
0.0316596129
0.03034805161
0.03072513548
0.0310768
0.02981690323
0.02828263226
0.0278196129
0.02633752258
0.02456325161
0.02062898065
0.03866556129
0.03889274839
0.0342863871
0.03548607742
0.03494607742
0.03629566452
0.03435930323
0.03314232258
0.02898565161
0.02506033548
0.03317607742
0.03290659355
0.03451784516
0.03399909677
0.03259825806
0.03381055484
0.03192127742
0.03176211613
0.0278368
0.02467054194
0.03174950968
0.03243096774
0.03356190968
0.03289805161
0.03212710968
0.03221649032
0.03001815484
0.03096565161
0.02760971613
0.02532179355
0.02954669677
0.03142367742
0.03130815484
0.03085378065
0.03141523871
0.02970992258
0.03253805161
0.02949971613
0.02687710968
0.02645731613
0.03306065806
0.03245649032
0.02990690323
0.03053669677
0.02961554839
0.02983388387
0.02963263226
0.02768273548
0.02849273548
0.02874117419
0.03221242581
0.03204981935
0.03330472258
0.03137690323
0.02943565161
0.03122252903
0.02888700645
0.0291996129
0.02787138065
0.02706148387
0.03424784516
0.03249585806
0.03385805161
0.03124825806
0.03399940645
0.03074221935
0.02952981935
0.02959429677
0.02904127742
0.02755002581
0.03570065806
0.03517347097
0.03360940645
0.03291472258
0.03368252903
0.03202836129
0.03225096774
0.02974846452
0.02886992258
0.02922148387
0.03935993548
0.03710597419
0.03814336774
0.03703794839
0.03556326452
0.03575618065
0.03271794839
0.03146690323
0.03295367742
0.03072554839
0.04175139355
0.04064962581
0.04218858065
0.03826712258
0.03820722581
0.03593628387
0.03696503226
0.03654930323
0.03520347097
0.03388794839
0.04440827097
0.04641806452
0.0450768129
0.04392816774
0.04249701935
0.04365827097
0.04028566452
0.0399468129
0.03573889032
0.03714492903
0.05050150968
0.05129849032
0.04742494194
0.04805483871
0.04889849032
0.04528660645
0.0426811871
0.04574525161
0.04146847742
0.04095410323
0.05297910968
0.05336411613
0.05437526452
0.05165473548
0.05145744516
0.05119619355
0.04862036129
0.04848307097
0.04751056774
0.04523545806
0.05427744516
0.05310765161
0.0538188
0.0538059871
0.05317567742
0.05344567742
0.05071578065
0.05287609032
0.0510588
0.04920754839
0.05770526452
0.05824943226
0.05775692903
0.05652224516
0.05755526452
0.05617984516
0.05720005161
0.05342869677
0.05496307097
0.05483390968
0.05902932903
0.06087682581
0.06144224516
0.06073505806
0.0565012
0.06005787097
0.05793661935
0.05945776774
0.05794943226
0.05687005161
0.06200745806
0.05700692903
0.05964651613
0.06287329032
0.06183651613
0.06144620645
0.06039661935
0.06053797419
0.0610007871
0.05929922581
0.06122766452
0.06112932903
0.06263756129
0.06077828387
0.06230735484
0.06107380645
0.06211089032
0.06302267097
0.06243620645
0.06430901935
0.0599764129
0.05963390968
0.06227339355
0.06141183226
0.06049099355
0.0617888129
0.0613607871
0.06117193548
0.06248339355
0.06342203871
0.02610905907
0.03208727656
0.03054399868
0.03018811682
0.02976370353
0.02967053314
0.03003537716
0.02867864431
0.02929362469
0.0313113099
0.0302389276
0.03119701049
0.03107828107
0.03083206403
0.03151496277
0.03197740748
0.03356747494
0.03218900118
0.03319015829
0.03300299954
0.03343606862
0.03332981217
0.03402075323
0.03568729332
0.03450834848
0.03592867115
0.03691261924
0.03752739507
0.03532306175
0.03157422535
0.02857796212
0.03887509295
0.03776247788
0.03752964326
0.03765014831
0.03465242791
0.03604743535
0.03802347882
0.03743002845
0.03967564987
0.03842243815
0.0374633334
0.03991716079
0.03820999406
0.03750875265
0.0401082142
0.03838489506
0.04029089136
0.04041109674
0.04021620487
0.0420053338
0.04070580306
0.0406892502
0.04132418252
0.04119136277
0.04391112928
0.04679238315
0.0461740037
0.04629884681
0.03940223422
0.02730969026
0.03701556423
0.0374469591
0.03771897206
0.03806850144
0.0369139195
0.03664874085
0.03668561884
0.03609611691
0.03734057409
0.03686092262
0.03484276778
0.03785710355
0.03674276741
0.03804803561
0.03838203505
0.03737330004
0.03947649255
0.03922416191
0.03736519196
0.03863436569
0.03929317867
0.04076119585
0.03727937148
0.03910571275
0.04201859901
0.04336855975
0.04407216319
0.0456430012
0.03583548222
0.02824917518
0.0363062459
0.03737862335
0.03625459304
0.03737086842
0.03516206122
0.03544105813
0.03411323563
0.03669271494
0.03452828617
0.03584758517
0.03536915418
0.03661324847
0.03355562595
0.03707549841
0.03701967982
0.03715961007
0.03806036637
0.03709914628
0.03642951495
0.03638968603
0.03817578481
0.03977815004
0.03993775556
0.03964267329
0.03920852435
0.04139320423
0.04472206877
0.04355772863
0.0361788118
0.02838159521
0.03576191622
0.03568305991
0.03451085025
0.03379946899
0.03492920231
0.03272817257
0.03446011099
0.03499904339
0.03589038223
0.03466287845
0.03192310524
0.0349637933
0.03207987664
0.0342021442
0.03497604551
0.03631253556
0.03400669746
0.03665649203
0.03450657755
0.03734069686
0.03743419493
0.03619908794
0.03782119266
0.03819669145
0.03771619531
0.04058556474
0.04150769297
0.0440327289
0.03824001552
0.02613980568
0.03452073749
0.03337461114
0.03364711364
0.0336587615
0.03365830003
0.03189857235
0.03243501119
0.03341309974
0.03370443094
0.03332475115
0.03444030887
0.03258459058
0.0314497424
0.03427171636
0.03377367347
0.03530330045
0.03458988798
0.03473164007
0.03401841168
0.03541057012
0.03495036935
0.03497329595
0.03642622344
0.03712006869
0.03885332502
0.0388878081
0.04008043508
0.04359197069
0.03904083894
0.02424909746
0.03194208702
0.03170872097
0.03206672228
0.03289795786
0.03270628784
0.02962559628
0.02948998483
0.03073519077
0.02858330898
0.02917761015
0.03142349797
0.03158069912
0.03254434025
0.03308971908
0.0339177493
0.03254808961
0.03434992218
0.0328868007
0.03352316032
0.03422628402
0.03497833029
0.03529427279
0.03658081232
0.03612148776
0.03748337627
0.03803268574
0.03975230403
0.04149771436
0.03776146336
0.02249472802
0.02985034288
0.02978006337
0.0312349579
0.03014995193
0.0308440552
0.02890948822
0.02788983656
0.0307814027
0.03012751514
0.02863976533
0.02987672723
0.03117292803
0.03106917032
0.03221736249
0.03027166593
0.03196630746
0.0303234557
0.03060386318
0.03199260261
0.03113945035
0.03223567458
0.03256445818
0.03325102316
0.03504924451
0.0356991847
0.0366997238
0.03806979562
0.04086855541
0.03792573378
0.02125372599
0.03041559904
0.02702934998
0.02614845878
0.02793244636
0.02929172584
0.02783083008
0.02875190694
0.02834561578
0.0289728587
0.02818591997
0.02821156451
0.02979602019
0.02981029953
0.03063672549
0.03170269457
0.0306585813
0.02895100264
0.03176077363
0.02934997932
0.03107941456
0.03029600229
0.03080390995
0.03311326242
0.03201812281
0.03461046822
0.0351037475
0.03619440017
0.04049493581
0.03799301693
0.02011314425
0.02867818757
0.02492825829
0.02557291062
0.02522396455
0.02672302083
0.02658789036
0.02634568041
0.02668744212
0.02684421148
0.02765948698
0.02732854516
0.0278341746
0.02937659399
0.02944723695
0.02882768701
0.02876362794
0.02836854151
0.02957933283
0.03152680047
0.03072225866
0.03059388364
0.02978925554
0.02986049899
0.03200048653
0.03107111848
0.03326113951
0.0361034259
0.03645557762
0.03687940206
)
;

boundaryField
{
    inlet
    {
        type            calculated;
        value           nonuniform List<scalar> 
20
(
0.009041780645
0.01057615484
0.005463754839
0.003539690323
0.002262606452
0.001534064516
0.001152709677
0.001221251613
0.0007156258065
0.0005613548387
0.0006213548387
0.00036
0.0002485419355
0.0002742709677
0.00012
0.0002185419355
0.00021
0.00015
0.00012
9e-05
)
;
    }
    outlet
    {
        type            calculated;
        value           nonuniform List<scalar> 
70
(
0.02062898065
0.02506033548
0.02467054194
0.02532179355
0.02645731613
0.02874117419
0.02706148387
0.02755002581
0.02922148387
0.03072554839
0.03388794839
0.03714492903
0.04095410323
0.04523545806
0.04920754839
0.05483390968
0.05687005161
0.05929922581
0.06430901935
0.06342203871
9e-05
0.0006428129032
0.02377470968
0.09630166452
0.04263410323
0.02413908387
0.04869754839
0.061026
0.04558691613
0.0424668129
0.04797332599
0.04900415449
0.04658950611
0.04750716363
0.04701662992
0.04712251059
0.04729883603
0.04637062411
0.0491097801
0.04592247729
0.04681542336
0.04774037235
0.04825930481
0.04763783962
0.04731651109
0.04773342137
0.04857677522
0.04893311456
0.04897232279
0.0498934979
0.05203581516
0.05201161426
0.05219832323
0.05534701342
0.05578443655
0.05653967013
0.05600709126
0.06024976398
0.0594734214
0.05981551875
0.0599764129
0.05963390968
0.06227339355
0.06141183226
0.06049099355
0.0617888129
0.0613607871
0.06117193548
0.06248339355
0.06342203871
)
;
    }
    wall
    {
        type            calculated;
        value           uniform 8.387096774e-301;
    }
    frontAndBack
    {
        type            empty;
    }
}


// ************************************************************************* //
