/*--------------------------------*- C++ -*----------------------------------*\
| =========                 |                                                 |
| \\      /  F ield         | OpenFOAM: The Open Source CFD Toolbox           |
|  \\    /   O peration     | Version:  v1912                                 |
|   \\  /    A nd           | Website:  www.openfoam.com                      |
|    \\/     M anipulation  |                                                 |
\*---------------------------------------------------------------------------*/
FoamFile
{
    version     2.0;
    format      ascii;
    class       volScalarField;
    location    "6.58";
    object      Ma;
}
// * * * * * * * * * * * * * * * * * * * * * * * * * * * * * * * * * * * * * //

dimensions      [0 0 0 0 0 0 0];


internalField   nonuniform List<scalar> 
1900
(
0.702372
0.0532984
0.0949208
0.0920357
0.092965
0.0929379
0.0934947
0.0947449
0.0964864
0.0910184
0.702373
0.0532976
0.0949265
0.0920507
0.0929776
0.0929074
0.0933171
0.0944293
0.097729
0.102697
0.702373
0.0532948
0.0949306
0.0920557
0.0929592
0.0928468
0.0932612
0.0946429
0.0985395
0.108742
0.702373
0.0532976
0.0949265
0.0920507
0.0929776
0.0929074
0.0933171
0.0944293
0.097729
0.102697
0.702372
0.0532984
0.0949208
0.0920357
0.092965
0.0929379
0.0934947
0.0947449
0.0964864
0.0910184
0.100951
0.141301
0.19613
0.283817
0.433211
0.121113
0.14869
0.181908
0.248423
0.393366
0.129046
0.155326
0.188839
0.252342
0.390505
0.121113
0.14869
0.181908
0.248423
0.393366
0.100951
0.141301
0.19613
0.283817
0.433211
0.949636
1.33848
1.593
1.83372
2.04105
0.907573
1.33909
1.61308
1.85584
2.05532
0.903075
1.34821
1.6138
1.85046
2.05088
0.907573
1.33909
1.61308
1.85584
2.05532
0.949636
1.33848
1.593
1.83372
2.04105
2.03258
2.07266
2.23172
2.24293
2.01804
1.33483
1.14456
1.02351
0.845135
0.674484
0.544264
0.440129
0.323821
0.187274
0.0956162
0.0672652
0.0619642
0.0619471
0.0641766
0.0714611
0.0873998
0.111753
0.141014
0.172062
0.203297
0.234263
0.264484
0.295039
0.32424
0.353164
0.381769
0.408852
0.433761
0.453354
0.471928
0.480096
0.443166
0.279808
0.156396
0.0495916
2.10932
2.13381
2.28082
2.23646
1.99754
1.32732
1.12875
1.02667
0.865597
0.694589
0.557886
0.446601
0.325093
0.186231
0.0929631
0.0636977
0.0583266
0.0585275
0.0611467
0.0688449
0.0853324
0.110206
0.13987
0.171218
0.20268
0.233824
0.264182
0.294872
0.32416
0.353185
0.381855
0.409023
0.433949
0.453579
0.472189
0.480385
0.443604
0.280039
0.155387
0.0469331
2.09131
2.11504
2.27064
2.21457
1.97379
1.32055
1.12212
1.01959
0.848452
0.675578
0.545583
0.443419
0.326573
0.187215
0.0923789
0.0625749
0.057179
0.0574185
0.0602093
0.068001
0.0846439
0.109682
0.139474
0.170911
0.202436
0.233629
0.264023
0.294753
0.32407
0.353133
0.381838
0.409057
0.434025
0.453727
0.472439
0.480794
0.444352
0.281026
0.156374
0.0439286
2.10932
2.13381
2.28082
2.23646
1.99754
1.32732
1.12875
1.02667
0.865597
0.694589
0.557886
0.446601
0.325093
0.186231
0.0929631
0.0636977
0.0583266
0.0585275
0.0611467
0.0688449
0.0853324
0.110206
0.13987
0.171218
0.20268
0.233824
0.264182
0.294872
0.32416
0.353185
0.381855
0.409023
0.433949
0.453579
0.472189
0.480385
0.443604
0.280039
0.155387
0.0469331
2.03258
2.07266
2.23172
2.24293
2.01804
1.33483
1.14456
1.02351
0.845135
0.674484
0.544264
0.440129
0.323821
0.187274
0.0956162
0.0672652
0.0619642
0.0619471
0.0641766
0.0714611
0.0873998
0.111753
0.141014
0.172062
0.203297
0.234263
0.264484
0.295039
0.32424
0.353164
0.381769
0.408852
0.433761
0.453354
0.471928
0.480096
0.443166
0.279808
0.156396
0.0495916
1.95901
1.97199
2.08662
2.02708
1.79025
1.27159
1.08143
0.944193
0.789129
0.652026
0.540243
0.441718
0.324377
0.188804
0.103677
0.0794149
0.0746816
0.0739344
0.075371
0.0816728
0.0959769
0.118591
0.146493
0.176578
0.207136
0.23761
0.267499
0.297718
0.326777
0.355498
0.384034
0.41096
0.435991
0.455635
0.474273
0.482537
0.445327
0.282893
0.162966
0.0576933
1.8803
1.89542
1.81177
1.68405
1.41395
1.10137
0.941117
0.827761
0.714612
0.613497
0.522838
0.431835
0.316191
0.191421
0.12462
0.107307
0.103016
0.101016
0.10103
0.105738
0.117277
0.136425
0.161225
0.188919
0.21771
0.246853
0.275831
0.30511
0.333755
0.361888
0.390207
0.416666
0.441942
0.461592
0.480456
0.488628
0.45069
0.289569
0.175861
0.0829264
1.6707
1.65111
1.55071
1.35493
1.06786
0.873965
0.80206
0.738991
0.674402
0.591932
0.507075
0.417587
0.304736
0.199521
0.152943
0.140442
0.135836
0.132591
0.131541
0.135001
0.144324
0.160258
0.18175
0.2066
0.233118
0.260456
0.28815
0.316073
0.344089
0.371339
0.39927
0.424988
0.450442
0.469987
0.489139
0.496979
0.458173
0.299164
0.193905
0.112172
1.2887
1.21299
1.10411
0.928817
0.792181
0.772669
0.763615
0.71897
0.647298
0.566462
0.489975
0.401833
0.296173
0.216577
0.18577
0.175683
0.17017
0.165803
0.163989
0.166568
0.174282
0.18763
0.206171
0.228236
0.25236
0.277683
0.303891
0.33021
0.357443
0.383605
0.411007
0.435797
0.461304
0.480643
0.499998
0.507372
0.467889
0.311647
0.215984
0.143021
0.899634
0.783099
0.738678
0.760258
0.799461
0.804288
0.763162
0.691115
0.615962
0.54637
0.47343
0.385413
0.294767
0.240862
0.220199
0.210992
0.204416
0.19921
0.196923
0.199016
0.205532
0.21688
0.232991
0.252608
0.274508
0.297867
0.322595
0.347288
0.373703
0.398734
0.425579
0.449414
0.474931
0.494046
0.513633
0.520522
0.480893
0.328
0.24174
0.17399
0.734176
0.745178
0.823176
0.867695
0.852337
0.80387
0.736655
0.663691
0.597677
0.531604
0.458849
0.376488
0.308158
0.272454
0.256303
0.246511
0.238728
0.232774
0.230099
0.231714
0.237317
0.247051
0.261113
0.27856
0.298381
0.319801
0.343001
0.366
0.391439
0.415187
0.441281
0.463993
0.489233
0.507823
0.527289
0.533386
0.493382
0.343613
0.267181
0.206597
0.799506
0.85376
0.897259
0.882663
0.836052
0.778893
0.713843
0.644616
0.582793
0.517601
0.446281
0.376837
0.329634
0.304734
0.290584
0.280099
0.271576
0.265309
0.262552
0.263903
0.268864
0.277387
0.289921
0.305736
0.323979
0.343897
0.365957
0.387657
0.412392
0.435165
0.460753
0.482646
0.507778
0.526021
0.545367
0.551055
0.51166
0.365595
0.296788
0.238182
0.78532
0.84714
0.881027
0.857386
0.811278
0.761847
0.697671
0.633136
0.573231
0.510256
0.446306
0.393899
0.36028
0.339603
0.325278
0.313784
0.30447
0.297839
0.294794
0.295816
0.300186
0.307569
0.318624
0.332796
0.349383
0.36765
0.388428
0.408513
0.432313
0.453915
0.47874
0.499636
0.524387
0.542049
0.560947
0.565967
0.52698
0.384674
0.324184
0.270277
0.74938
0.812448
0.847864
0.833908
0.797034
0.748747
0.686283
0.624518
0.566175
0.50766
0.454871
0.416074
0.390094
0.371644
0.357148
0.345196
0.335635
0.329006
0.326021
0.326967
0.330917
0.337513
0.347607
0.360753
0.376344
0.393579
0.413583
0.432565
0.455788
0.476584
0.500842
0.52095
0.545322
0.562409
0.580647
0.585161
0.546973
0.408062
0.354031
0.301636
0.705988
0.770114
0.816806
0.820674
0.793597
0.737046
0.680699
0.621808
0.568032
0.517882
0.476884
0.44577
0.422728
0.404591
0.389498
0.376899
0.366883
0.36001
0.356694
0.357519
0.360983
0.366667
0.375624
0.387528
0.401894
0.417831
0.436814
0.454527
0.476999
0.496954
0.520583
0.53994
0.563919
0.580492
0.598197
0.602422
0.564982
0.430066
0.382568
0.332408
0.66864
0.735869
0.791516
0.815106
0.792989
0.728794
0.678241
0.623127
0.574966
0.532703
0.499563
0.472588
0.451325
0.433481
0.418272
0.405662
0.396008
0.389657
0.386374
0.38715
0.390359
0.395553
0.403956
0.415278
0.429073
0.444278
0.462706
0.479635
0.501558
0.520924
0.543996
0.562681
0.586143
0.602127
0.619071
0.622902
0.585885
0.454586
0.411828
0.362011
0.650634
0.716566
0.771825
0.81039
0.790615
0.725116
0.68005
0.630903
0.591375
0.555802
0.526479
0.501435
0.481193
0.463401
0.447488
0.434331
0.424757
0.417737
0.414402
0.414979
0.417668
0.421978
0.429353
0.439605
0.452376
0.466456
0.484037
0.499955
0.521155
0.539889
0.562353
0.580404
0.603397
0.618894
0.635271
0.638877
0.60266
0.476916
0.439803
0.391421
0.639096
0.704038
0.757798
0.807091
0.789275
0.728553
0.686891
0.64194
0.607806
0.57494
0.54827
0.524717
0.504236
0.48579
0.471414
0.459589
0.449465
0.442478
0.439016
0.439525
0.442139
0.446377
0.453784
0.464094
0.476901
0.490754
0.508247
0.523807
0.544602
0.563028
0.584989
0.602526
0.624911
0.639846
0.655334
0.658503
0.623056
0.502507
0.468157
0.417937
0.632366
0.696368
0.74649
0.803655
0.785839
0.730521
0.695529
0.654684
0.62612
0.59593
0.571444
0.548444
0.528677
0.51064
0.494131
0.480522
0.46986
0.462344
0.458331
0.45844
0.460595
0.464306
0.47131
0.481334
0.493907
0.507325
0.524558
0.539692
0.559843
0.577936
0.599441
0.616535
0.638419
0.652871
0.66767
0.670315
0.635954
0.52309
0.493454
0.443699
0.628855
0.691401
0.737284
0.801439
0.786006
0.736791
0.706451
0.666779
0.639803
0.610378
0.586496
0.563209
0.542164
0.523811
0.508488
0.495664
0.485694
0.478668
0.475086
0.475651
0.478062
0.481793
0.48878
0.498805
0.511382
0.524484
0.541481
0.556022
0.575277
0.592764
0.613434
0.629817
0.650701
0.664295
0.67778
0.679404
0.646215
0.5424
0.516331
0.464431
0.623385
0.682625
0.72581
0.794919
0.781951
0.734879
0.707731
0.669749
0.645662
0.617071
0.594046
0.571529
0.551723
0.534165
0.51946
0.506958
0.49683
0.489362
0.485265
0.485288
0.486866
0.489495
0.495436
0.504549
0.516235
0.528193
0.544432
0.558144
0.576674
0.593705
0.613957
0.630002
0.650335
0.663272
0.675798
0.676735
0.647031
0.557281
0.538669
0.489184
0.61954
0.677392
0.709528
0.771272
0.760259
0.715926
0.691706
0.655343
0.633114
0.604515
0.581218
0.55791
0.536991
0.5177
0.500184
0.485629
0.473998
0.465137
0.459705
0.458279
0.457616
0.457223
0.460189
0.466988
0.47701
0.487332
0.503335
0.516527
0.535011
0.551946
0.572209
0.588688
0.6095
0.623319
0.637187
0.641558
0.623525
0.563602
0.559204
0.508983
0.670017
0.705378
0.690219
0.714537
0.695604
0.652308
0.626837
0.586836
0.561046
0.527676
0.499142
0.470017
0.442507
0.416357
0.392544
0.371316
0.352955
0.338101
0.327798
0.322601
0.318618
0.315514
0.317104
0.32378
0.334692
0.346131
0.36431
0.379803
0.400711
0.42056
0.44396
0.46552
0.491096
0.512414
0.534622
0.552161
0.561663
0.560286
0.621301
0.60031
1.32168
0.880731
0.701632
0.65452
0.629182
0.589093
0.559682
0.518493
0.486426
0.449162
0.415015
0.381095
0.349143
0.319091
0.291402
0.26598
0.243192
0.224037
0.210408
0.204047
0.201781
0.203542
0.212762
0.228578
0.248945
0.270166
0.296904
0.321471
0.349736
0.37696
0.405921
0.433612
0.462385
0.488684
0.513712
0.537885
0.560163
0.620671
0.816852
1.21721
2.48368
1.32194
0.625616
0.537212
0.507497
0.468056
0.434356
0.395329
0.358441
0.321623
0.285422
0.250844
0.217361
0.184974
0.153208
0.121793
0.0905662
0.0599478
0.0323827
0.0238298
0.0440315
0.0721547
0.103055
0.134685
0.166408
0.198376
0.230562
0.262411
0.294435
0.325813
0.356493
0.386712
0.414788
0.442567
0.46601
0.492625
0.515261
0.602067
1.16304
2.4354
2.48368
1.32194
0.625616
0.537212
0.507497
0.468056
0.434356
0.395329
0.358441
0.321623
0.285422
0.250844
0.217361
0.184974
0.153208
0.121793
0.0905662
0.0599478
0.0323827
0.0238298
0.0440315
0.0721547
0.103055
0.134685
0.166408
0.198376
0.230562
0.262411
0.294435
0.325813
0.356493
0.386712
0.414788
0.442567
0.46601
0.492625
0.515261
0.602067
1.16304
2.4354
1.32168
0.880731
0.701632
0.65452
0.629182
0.589093
0.559682
0.518493
0.486426
0.449162
0.415015
0.381095
0.349143
0.319091
0.291402
0.26598
0.243192
0.224037
0.210408
0.204047
0.201781
0.203542
0.212762
0.228578
0.248945
0.270166
0.296904
0.321471
0.349736
0.37696
0.405921
0.433612
0.462385
0.488684
0.513712
0.537885
0.560163
0.620671
0.816852
1.21721
0.670017
0.705378
0.690219
0.714537
0.695604
0.652308
0.626837
0.586836
0.561046
0.527676
0.499142
0.470017
0.442507
0.416357
0.392544
0.371316
0.352955
0.338101
0.327798
0.322601
0.318618
0.315514
0.317104
0.32378
0.334692
0.346131
0.36431
0.379803
0.400711
0.42056
0.44396
0.46552
0.491096
0.512414
0.534622
0.552161
0.561663
0.560286
0.621301
0.60031
0.61954
0.677392
0.709528
0.771272
0.760259
0.715926
0.691706
0.655343
0.633114
0.604515
0.581218
0.55791
0.536991
0.5177
0.500184
0.485629
0.473998
0.465137
0.459705
0.458279
0.457616
0.457223
0.460189
0.466988
0.47701
0.487332
0.503335
0.516527
0.535011
0.551946
0.572209
0.588688
0.6095
0.623319
0.637187
0.641558
0.623525
0.563602
0.559204
0.508983
0.623385
0.682625
0.72581
0.794919
0.781951
0.734879
0.707731
0.669749
0.645662
0.617071
0.594046
0.571529
0.551723
0.534165
0.51946
0.506958
0.49683
0.489362
0.485265
0.485288
0.486866
0.489495
0.495436
0.504549
0.516235
0.528193
0.544432
0.558144
0.576674
0.593705
0.613957
0.630002
0.650335
0.663272
0.675798
0.676735
0.647031
0.557281
0.538669
0.489184
0.628855
0.691401
0.737284
0.801439
0.786006
0.736791
0.706451
0.666779
0.639803
0.610378
0.586496
0.563209
0.542164
0.523811
0.508488
0.495664
0.485694
0.478668
0.475086
0.475651
0.478062
0.481793
0.48878
0.498805
0.511382
0.524484
0.541481
0.556022
0.575277
0.592764
0.613434
0.629817
0.650701
0.664295
0.67778
0.679404
0.646215
0.5424
0.516331
0.464431
0.632366
0.696368
0.74649
0.803655
0.785839
0.730521
0.695529
0.654684
0.62612
0.59593
0.571444
0.548444
0.528677
0.51064
0.494131
0.480522
0.46986
0.462344
0.458331
0.45844
0.460595
0.464306
0.47131
0.481334
0.493907
0.507325
0.524558
0.539692
0.559843
0.577936
0.599441
0.616535
0.638419
0.652871
0.66767
0.670315
0.635954
0.52309
0.493454
0.443699
0.639096
0.704038
0.757798
0.807091
0.789275
0.728553
0.686891
0.64194
0.607806
0.57494
0.54827
0.524717
0.504236
0.48579
0.471414
0.459589
0.449465
0.442478
0.439016
0.439525
0.442139
0.446377
0.453784
0.464094
0.476901
0.490754
0.508247
0.523807
0.544602
0.563028
0.584989
0.602526
0.624911
0.639846
0.655334
0.658503
0.623056
0.502507
0.468157
0.417937
0.650634
0.716566
0.771825
0.81039
0.790615
0.725116
0.68005
0.630903
0.591375
0.555802
0.526479
0.501435
0.481193
0.463401
0.447488
0.434331
0.424757
0.417737
0.414402
0.414979
0.417668
0.421978
0.429353
0.439605
0.452376
0.466456
0.484037
0.499955
0.521155
0.539889
0.562353
0.580404
0.603397
0.618894
0.635271
0.638877
0.60266
0.476916
0.439803
0.391421
0.66864
0.735869
0.791516
0.815106
0.792989
0.728794
0.678241
0.623127
0.574966
0.532703
0.499563
0.472588
0.451325
0.433481
0.418272
0.405662
0.396008
0.389657
0.386374
0.38715
0.390359
0.395553
0.403956
0.415278
0.429073
0.444278
0.462706
0.479635
0.501558
0.520924
0.543996
0.562681
0.586143
0.602127
0.619071
0.622902
0.585885
0.454586
0.411828
0.362011
0.705988
0.770114
0.816806
0.820674
0.793597
0.737046
0.680699
0.621808
0.568032
0.517882
0.476884
0.44577
0.422728
0.404591
0.389498
0.376899
0.366883
0.36001
0.356694
0.357519
0.360983
0.366667
0.375624
0.387528
0.401894
0.417831
0.436814
0.454527
0.476999
0.496954
0.520583
0.53994
0.563919
0.580492
0.598197
0.602422
0.564982
0.430066
0.382568
0.332408
0.74938
0.812448
0.847864
0.833908
0.797034
0.748747
0.686283
0.624518
0.566175
0.50766
0.454871
0.416074
0.390094
0.371644
0.357148
0.345196
0.335635
0.329006
0.326021
0.326967
0.330917
0.337513
0.347607
0.360753
0.376344
0.393579
0.413583
0.432565
0.455788
0.476584
0.500842
0.52095
0.545322
0.562409
0.580647
0.585161
0.546973
0.408062
0.354031
0.301636
0.78532
0.84714
0.881027
0.857386
0.811278
0.761847
0.697671
0.633136
0.573231
0.510256
0.446306
0.393899
0.36028
0.339603
0.325278
0.313784
0.30447
0.297839
0.294794
0.295816
0.300186
0.307569
0.318624
0.332796
0.349383
0.36765
0.388428
0.408513
0.432313
0.453915
0.47874
0.499636
0.524387
0.542049
0.560947
0.565967
0.52698
0.384674
0.324184
0.270277
0.799506
0.85376
0.897259
0.882663
0.836052
0.778893
0.713843
0.644616
0.582793
0.517601
0.446281
0.376837
0.329634
0.304734
0.290584
0.280099
0.271576
0.265309
0.262552
0.263903
0.268864
0.277387
0.289921
0.305736
0.323979
0.343897
0.365957
0.387657
0.412392
0.435165
0.460753
0.482646
0.507778
0.526021
0.545367
0.551055
0.51166
0.365595
0.296788
0.238182
0.734176
0.745178
0.823176
0.867695
0.852337
0.80387
0.736655
0.663691
0.597677
0.531604
0.458849
0.376488
0.308158
0.272454
0.256303
0.246511
0.238728
0.232774
0.230099
0.231714
0.237317
0.247051
0.261113
0.27856
0.298381
0.319801
0.343001
0.366
0.391439
0.415187
0.441281
0.463993
0.489233
0.507823
0.527289
0.533386
0.493382
0.343613
0.267181
0.206597
0.899634
0.783099
0.738678
0.760258
0.799461
0.804288
0.763162
0.691115
0.615962
0.54637
0.47343
0.385413
0.294767
0.240862
0.220199
0.210992
0.204416
0.19921
0.196923
0.199016
0.205532
0.21688
0.232991
0.252608
0.274508
0.297867
0.322595
0.347288
0.373703
0.398734
0.425579
0.449414
0.474931
0.494046
0.513633
0.520522
0.480893
0.328
0.24174
0.17399
1.2887
1.21299
1.10411
0.928817
0.792181
0.772669
0.763615
0.71897
0.647298
0.566462
0.489975
0.401833
0.296173
0.216577
0.18577
0.175683
0.17017
0.165803
0.163989
0.166568
0.174282
0.18763
0.206171
0.228236
0.25236
0.277683
0.303891
0.33021
0.357443
0.383605
0.411007
0.435797
0.461304
0.480643
0.499998
0.507372
0.467889
0.311647
0.215984
0.143021
1.6707
1.65111
1.55071
1.35493
1.06786
0.873965
0.80206
0.738991
0.674402
0.591932
0.507075
0.417587
0.304736
0.199521
0.152943
0.140442
0.135836
0.132591
0.131541
0.135001
0.144324
0.160258
0.18175
0.2066
0.233118
0.260456
0.28815
0.316073
0.344089
0.371339
0.39927
0.424988
0.450442
0.469987
0.489139
0.496979
0.458173
0.299164
0.193905
0.112172
1.8803
1.89542
1.81177
1.68405
1.41395
1.10137
0.941117
0.827761
0.714612
0.613497
0.522838
0.431835
0.316191
0.191421
0.12462
0.107307
0.103016
0.101016
0.10103
0.105738
0.117277
0.136425
0.161225
0.188919
0.21771
0.246853
0.275831
0.30511
0.333755
0.361888
0.390207
0.416666
0.441942
0.461592
0.480456
0.488628
0.45069
0.289569
0.175861
0.0829264
1.95901
1.97199
2.08662
2.02708
1.79025
1.27159
1.08143
0.944193
0.789129
0.652026
0.540243
0.441718
0.324377
0.188804
0.103677
0.0794149
0.0746816
0.0739344
0.075371
0.0816728
0.0959769
0.118591
0.146493
0.176578
0.207136
0.23761
0.267499
0.297718
0.326777
0.355498
0.384034
0.41096
0.435991
0.455635
0.474273
0.482537
0.445327
0.282893
0.162966
0.0576933
)
;

boundaryField
{
    inlet
    {
        type            calculated;
        value           uniform 0;
    }
    outlet
    {
        type            calculated;
        value           nonuniform List<scalar> 
165
(
1.95901
1.8803
1.6707
1.2887
0.899634
0.734176
0.799506
0.78532
0.74938
0.705988
0.66864
0.650634
0.639096
0.632366
0.628855
0.623385
0.61954
0.670017
1.32168
2.48368
2.48368
1.32194
0.625616
0.537212
0.507497
0.468056
0.434356
0.395329
0.358441
0.321623
0.285422
0.250844
0.217361
0.184974
0.153208
0.121793
0.0905662
0.0599478
0.0323827
0.0238298
0.0440315
0.0721547
0.103055
0.134685
0.166408
0.198376
0.230562
0.262411
0.294435
0.325813
0.356493
0.386712
0.414788
0.442567
0.46601
0.492625
0.515261
0.602067
1.16304
2.4354
0.0576933
0.0829264
0.112172
0.143021
0.17399
0.206597
0.238182
0.270277
0.301636
0.332408
0.362011
0.391421
0.417937
0.443699
0.464431
0.489184
0.508983
0.60031
1.21721
2.4354
0.0495916
0.0469331
0.0439286
0.0469331
0.0495916
2.4354
1.21721
0.60031
0.508983
0.489184
0.464431
0.443699
0.417937
0.391421
0.362011
0.332408
0.301636
0.270277
0.238182
0.206597
0.17399
0.143021
0.112172
0.0829264
0.0576933
2.48368
1.32194
0.625616
0.537212
0.507497
0.468056
0.434356
0.395329
0.358441
0.321623
0.285422
0.250844
0.217361
0.184974
0.153208
0.121793
0.0905662
0.0599478
0.0323827
0.0238298
0.0440315
0.0721547
0.103055
0.134685
0.166408
0.198376
0.230562
0.262411
0.294435
0.325813
0.356493
0.386712
0.414788
0.442567
0.46601
0.492625
0.515261
0.602067
1.16304
2.4354
2.48368
1.32168
0.670017
0.61954
0.623385
0.628855
0.632366
0.639096
0.650634
0.66864
0.705988
0.74938
0.78532
0.799506
0.734176
0.899634
1.2887
1.6707
1.8803
1.95901
)
;
    }
    obstacle
    {
        type            calculated;
        value           nonuniform List<scalar> 
40
(
0.702372
0.0532984
0.0949208
0.0920357
0.092965
0.0929379
0.0934946
0.0947444
0.0964422
0.0902118
0.702372
0.0532984
0.0949208
0.0920357
0.092965
0.0929379
0.0934946
0.0947444
0.0964422
0.0902118
0.0990117
0.138179
0.192796
0.280448
0.42649
0.0990117
0.138179
0.192796
0.280448
0.42649
0.939454
1.3358
1.59138
1.8323
2.0395
0.939454
1.3358
1.59138
1.8323
2.0395
)
;
    }
    empty
    {
        type            empty;
    }
}


// ************************************************************************* //
