/*--------------------------------*- C++ -*----------------------------------*\
| =========                 |                                                 |
| \\      /  F ield         | OpenFOAM: The Open Source CFD Toolbox           |
|  \\    /   O peration     | Version:  v1912                                 |
|   \\  /    A nd           | Website:  www.openfoam.com                      |
|    \\/     M anipulation  |                                                 |
\*---------------------------------------------------------------------------*/
FoamFile
{
    version     2.0;
    format      ascii;
    class       volScalarField;
    location    "6.2";
    object      p;
}
// * * * * * * * * * * * * * * * * * * * * * * * * * * * * * * * * * * * * * //

dimensions      [0 2 -2 0 0 0 0];


internalField   nonuniform List<scalar> 
10000
(
4.18436e-06
0.000103028
-0.00012022
-0.000709949
-0.00161608
-0.00278223
-0.00415117
-0.00566802
-0.007283
-0.0089521
-0.0106367
-0.012303
-0.0139217
-0.0154674
-0.016918
-0.0182545
-0.0194607
-0.0205228
-0.0214293
-0.0221704
-0.0227384
-0.023127
-0.0233316
-0.0233488
-0.0231764
-0.0228136
-0.0222603
-0.0215178
-0.0205878
-0.0194731
-0.0181774
-0.0167048
-0.0150603
-0.0132494
-0.0112782
-0.00915338
-0.00688203
-0.00447178
-0.00193069
0.000732789
0.0035098
0.00639117
0.00936735
0.0124285
0.0155646
0.0187653
0.0220198
0.0253175
0.0286474
0.0319982
0.0353589
0.0387179
0.042064
0.0453856
0.0486712
0.0519095
0.0550891
0.0581987
0.0612272
0.0641637
0.0669975
0.0697182
0.0723157
0.0747803
0.0771027
0.0792741
0.0812862
0.0831313
0.0848024
0.0862931
0.0875979
0.088712
0.0896316
0.0903538
0.0908768
0.0911998
0.0913233
0.091249
0.09098
0.0905207
0.0898773
0.0890573
0.0880703
0.0869277
0.0856427
0.0842311
0.0827109
0.0811029
0.0794307
0.0777211
0.0760048
0.0743163
0.0726944
0.0711832
0.0698313
0.0686916
0.0678183
0.0672627
0.0670675
0.0671787
-8.84564e-05
8.2319e-06
-0.000209214
-0.00073622
-0.00152169
-0.00252604
-0.00370736
-0.00502226
-0.00642949
-0.00789122
-0.00937327
-0.0108451
-0.0122797
-0.013653
-0.0149444
-0.0161355
-0.0172105
-0.018156
-0.0189606
-0.0196145
-0.0201098
-0.0204402
-0.0206007
-0.0205877
-0.0203988
-0.0200325
-0.0194886
-0.0187678
-0.0178715
-0.016802
-0.0155626
-0.0141568
-0.0125893
-0.010865
-0.00898956
-0.00696914
-0.0048104
-0.00252042
-0.000106763
0.00242263
0.00505941
0.00779492
0.0106201
0.0135258
0.0165023
0.0195398
0.0226284
0.0257576
0.0289172
0.0320966
0.035285
0.0384717
0.0416459
0.0447967
0.0479133
0.0509848
0.0540006
0.0569499
0.0598223
0.0626075
0.0652955
0.0678764
0.0703409
0.0726798
0.0748844
0.0769466
0.0788588
0.0806137
0.082205
0.0836269
0.0848743
0.0859431
0.0868299
0.0875323
0.0880489
0.0883793
0.0885243
0.088486
0.0882676
0.0878739
0.087311
0.0865865
0.08571
0.0846924
0.083547
0.0822889
0.0809353
0.0795059
0.0780232
0.076512
0.0750005
0.0735197
0.0721041
0.0707911
0.0696211
0.0686357
0.0678744
0.0673729
0.0671781
0.0672897
0.000135419
0.000226636
9.36376e-06
-0.000485389
-0.00120226
-0.00210828
-0.00316947
-0.00434971
-0.0056139
-0.00692915
-0.00826515
-0.0095943
-0.0108918
-0.0121355
-0.0133057
-0.0143852
-0.0153589
-0.0162137
-0.0169385
-0.0175239
-0.0179619
-0.0182462
-0.0183717
-0.0183347
-0.0181325
-0.0177635
-0.0172272
-0.016524
-0.015655
-0.0146223
-0.0134285
-0.0120771
-0.0105723
-0.00891852
-0.00712118
-0.00518598
-0.00311918
-0.000927482
0.001382
0.00380173
0.0063238
0.00893997
0.0116417
0.01442
0.0172659
0.02017
0.0231227
0.0261141
0.0291345
0.0321736
0.0352212
0.0382671
0.041301
0.0443124
0.0472911
0.0502267
0.0531089
0.0559277
0.0586731
0.0613352
0.0639047
0.0663721
0.0687287
0.0709657
0.073075
0.0750489
0.0768802
0.0785623
0.0800892
0.0814556
0.0826569
0.0836892
0.0845495
0.0852358
0.0857471
0.0860831
0.086245
0.086235
0.0860564
0.085714
0.085214
0.0845639
0.083773
0.082852
0.0818137
0.0806725
0.0794449
0.0781496
0.0768073
0.0754413
0.0740773
0.0727432
0.0714697
0.0702892
0.0692362
0.0683454
0.0676487
0.0671766
0.0669825
0.0670954
0.000724163
0.000754591
0.00050506
9.47644e-06
-0.000680964
-0.00153638
-0.00252717
-0.00362213
-0.00479083
-0.0060044
-0.00723589
-0.00846047
-0.00965552
-0.0108007
-0.0118776
-0.0128702
-0.0137642
-0.0145472
-0.0152084
-0.0157387
-0.0161304
-0.0163774
-0.0164746
-0.0164181
-0.0162053
-0.0158345
-0.015305
-0.0146168
-0.0137711
-0.0127695
-0.0116145
-0.0103093
-0.00885764
-0.00726387
-0.00553292
-0.00367023
-0.0016817
0.000426314
0.00264703
0.00497329
0.00739757
0.00991197
0.0125083
0.0151781
0.0179127
0.0207029
0.0235398
0.0264138
0.0293155
0.0322351
0.035163
0.0380891
0.0410036
0.0438965
0.046758
0.0495782
0.0523472
0.0550554
0.0576932
0.0602512
0.0627205
0.0650921
0.0673575
0.0695085
0.0715375
0.0734371
0.0752005
0.0768214
0.0782942
0.079614
0.0807765
0.0817781
0.0826161
0.0832887
0.0837951
0.0841353
0.0843105
0.084323
0.0841762
0.0838748
0.0834249
0.0828339
0.0821106
0.0812655
0.0803106
0.0792599
0.0781287
0.0769345
0.0756968
0.0744369
0.0731781
0.0719459
0.0707673
0.0696711
0.0686872
0.0678458
0.067175
0.0667028
0.0664805
0.0665422
0.00163058
0.00154282
0.00122416
0.000699099
6.14633e-06
-0.000828064
-0.0017775
-0.00281535
-0.0039153
-0.00505216
-0.00620212
-0.00734303
-0.00845448
-0.0095179
-0.0105165
-0.0114353
-0.012261
-0.0129819
-0.0135879
-0.0140702
-0.0144215
-0.0146357
-0.014708
-0.0146347
-0.014413
-0.0140411
-0.0135182
-0.0128444
-0.0120205
-0.011048
-0.00992916
-0.00866693
-0.00726481
-0.00572686
-0.00405773
-0.00226253
-0.000346872
0.0016832
0.00382124
0.00606042
0.00839356
0.0108131
0.0133113
0.01588
0.0185108
0.021195
0.023924
0.0266887
0.0294799
0.0322884
0.0351047
0.0379195
0.040723
0.043506
0.0462587
0.0489717
0.0516357
0.0542414
0.0567795
0.0592413
0.0616178
0.0639008
0.0660821
0.0681539
0.0701087
0.0719398
0.0736406
0.0752051
0.0766282
0.077905
0.0790317
0.0800048
0.0808221
0.0814817
0.0819831
0.0823264
0.0825128
0.0825447
0.0824255
0.0821597
0.0817532
0.0812132
0.0805482
0.079768
0.0788842
0.0779096
0.0768589
0.0757482
0.0745954
0.0734201
0.0722433
0.0710879
0.0699778
0.0689383
0.0679953
0.0671751
0.0665027
0.0660034
0.0657176
0.0656715
0.00280147
0.00255431
0.0021359
0.00155567
0.00083449
-4.4053e-06
-0.000938129
-0.00194388
-0.00299911
-0.00408196
-0.00517157
-0.00624833
-0.00729399
-0.00829178
-0.00922646
-0.0100843
-0.0108529
-0.0115215
-0.0120806
-0.012522
-0.0128387
-0.013025
-0.0130762
-0.0129886
-0.0127597
-0.0123876
-0.0118716
-0.0112115
-0.010408
-0.00946262
-0.00837733
-0.00715487
-0.00579854
-0.00431219
-0.00270017
-0.000967336
0.000880989
0.00283905
0.00490071
0.00705943
0.00930836
0.0116403
0.0140478
0.016523
0.0190579
0.0216443
0.0242737
0.0269374
0.0296267
0.0323326
0.0350462
0.0377582
0.0404597
0.0431413
0.0457939
0.0484085
0.0509759
0.0534874
0.0559342
0.0583075
0.0605992
0.062801
0.0649053
0.0669045
0.0687917
0.0705601
0.0722037
0.0737168
0.0750943
0.0763319
0.0774257
0.0783728
0.0791707
0.079818
0.0803142
0.0806594
0.0808549
0.080903
0.080807
0.0805714
0.0802017
0.0797047
0.0790886
0.0783626
0.0775376
0.0766255
0.07564
0.0745959
0.0735096
0.0723988
0.0712825
0.0701809
0.0691154
0.0681079
0.0671809
0.0663569
0.065658
0.0651068
0.0647274
0.0645322
0.0041838
0.00375048
0.00320912
0.0025521
0.0017804
0.000914024
-2.68491e-05
-0.00102307
-0.0020555
-0.00310532
-0.00415437
-0.00518542
-0.0061823
-0.00713001
-0.0080148
-0.00882417
-0.00954689
-0.010173
-0.0106937
-0.0111013
-0.0113895
-0.0115527
-0.0115865
-0.0114876
-0.0112534
-0.0108821
-0.0103731
-0.00972605
-0.00894169
-0.00802131
-0.00696684
-0.00578084
-0.00446642
-0.00302723
-0.0014674
0.00020846
0.00199528
0.00388758
0.00587949
0.00796475
0.0101368
0.0123887
0.0147134
0.0171033
0.0195507
0.0220478
0.0245863
0.027158
0.0297544
0.0323669
0.0349869
0.0376055
0.040214
0.0428035
0.0453652
0.0478904
0.0503703
0.0527964
0.0551603
0.0574537
0.0596685
0.0617971
0.0638318
0.0657655
0.0675916
0.0693035
0.0708956
0.0723622
0.0736988
0.0749009
0.075965
0.0768882
0.0776684
0.0783041
0.0787948
0.0791407
0.0793432
0.0794043
0.0793272
0.0791161
0.0787765
0.0783146
0.0777381
0.0770557
0.0762774
0.0754144
0.0744792
0.0734854
0.0724479
0.0713827
0.0703067
0.0692379
0.068195
0.0671971
0.0662635
0.0654134
0.0646663
0.064042
0.0635459
0.0631742
0.00572754
0.00509182
0.00441096
0.00366008
0.00281968
0.00190693
0.000939677
-6.62249e-05
-0.00109473
-0.00212975
-0.00315562
-0.00415732
-0.00512064
-0.00603228
-0.00687994
-0.0076524
-0.00833948
-0.00893211
-0.00942227
-0.00980297
-0.0100682
-0.010213
-0.0102332
-0.0101256
-0.00988786
-0.00951845
-0.00901656
-0.00838208
-0.0076156
-0.00671836
-0.0056922
-0.00453954
-0.00326337
-0.00186715
-0.000354841
0.00126916
0.00300003
0.00483251
0.00676098
0.00877945
0.0108816
0.0130608
0.0153102
0.0176226
0.0199906
0.0224065
0.0248626
0.0273508
0.0298629
0.0323908
0.0349259
0.0374599
0.0399843
0.0424905
0.0449701
0.0474145
0.0498155
0.0521647
0.0544539
0.0566753
0.0588211
0.0608837
0.062856
0.064731
0.0665022
0.0681636
0.0697094
0.0711345
0.0724342
0.0736045
0.0746418
0.0755435
0.0763073
0.076932
0.077417
0.0777626
0.0779699
0.0780409
0.0779787
0.0777871
0.0774712
0.077037
0.0764915
0.0758429
0.0751004
0.0742742
0.0733759
0.0724178
0.0714132
0.0703767
0.0693232
0.0682687
0.0672294
0.0662219
0.0652627
0.0643676
0.0635545
0.0628401
0.0622106
0.0616454
0.00738816
0.00654129
0.00570981
0.0048522
0.00392876
0.00295428
0.00194472
0.000912979
-0.000127661
-0.00116359
-0.0021814
-0.00316813
-0.00411137
-0.00499944
-0.00582148
-0.00656746
-0.00722828
-0.00779577
-0.00826267
-0.00862266
-0.00887027
-0.00900093
-0.0090109
-0.00889723
-0.00865779
-0.00829117
-0.00779666
-0.00717423
-0.00642449
-0.00554862
-0.0045484
-0.00342617
-0.00218477
-0.000827559
0.000641678
0.00221871
0.0038989
0.00567723
0.00754829
0.00950633
0.0115453
0.0136588
0.0158401
0.0180825
0.0203786
0.0227213
0.025103
0.0275158
0.029952
0.0324035
0.0348622
0.0373201
0.0397688
0.0422002
0.044606
0.046978
0.0493082
0.0515885
0.053811
0.055968
0.0580521
0.0600559
0.0619725
0.0637952
0.0655177
0.0671341
0.0686388
0.0700269
0.0712938
0.0724357
0.073449
0.0743312
0.0750801
0.0756945
0.0761737
0.0765179
0.0767281
0.0768063
0.0767552
0.0765784
0.0762806
0.0758672
0.0753449
0.0747211
0.0740043
0.0732039
0.0723303
0.0713947
0.0704092
0.0693865
0.0683401
0.0672838
0.0662318
0.0651985
0.0641975
0.0632422
0.0623485
0.061531
0.0607566
0.0599886
0.009127
0.00806534
0.00707633
0.00610263
0.00508508
0.0040366
0.00297166
0.00190058
0.00083417
-0.000216163
-0.00123905
-0.00222338
-0.00315846
-0.00403413
-0.00484084
-0.00556977
-0.00621285
-0.00676279
-0.00721312
-0.00755817
-0.00779303
-0.00791361
-0.00791655
-0.0077992
-0.00755967
-0.00719673
-0.00670981
-0.00609896
-0.00536482
-0.00450861
-0.00353206
-0.00243744
-0.0012275
9.4519e-05
0.00152495
0.00305972
0.00469434
0.00642398
0.00824345
0.0101472
0.0121294
0.0141838
0.0163042
0.0184837
0.0207155
0.0229925
0.0253075
0.0276528
0.030021
0.0324043
0.0347948
0.0371847
0.0395659
0.0419306
0.0442708
0.0465784
0.0488457
0.0510648
0.0532281
0.0553282
0.0573577
0.0593096
0.0611771
0.0629537
0.0646333
0.06621
0.0676786
0.0690341
0.0702722
0.071389
0.0723811
0.0732459
0.0739814
0.0745861
0.0750594
0.0754014
0.075613
0.0756958
0.0756523
0.075486
0.0752009
0.0748023
0.074296
0.0736889
0.0729888
0.0722042
0.0713445
0.0704197
0.0694407
0.0684188
0.0673658
0.0662939
0.0652154
0.0641424
0.0630864
0.0620584
0.0610729
0.0601428
0.0592161
0.0582411
0.0109106
0.009634
0.00848366
0.00738735
0.00626737
0.00513522
0.00400431
0.00288271
0.00177908
0.000702845
-0.000336432
-0.00132934
-0.00226673
-0.00313984
-0.00394041
-0.00466073
-0.00529374
-0.00583302
-0.00627285
-0.00660821
-0.0068348
-0.00694898
-0.0069478
-0.00682896
-0.00659083
-0.00623236
-0.00575316
-0.00515339
-0.00443376
-0.00359553
-0.00264043
-0.00157068
-0.000388983
0.00090153
0.00229729
0.00379434
0.00538833
0.00707459
0.00884809
0.0107035
0.0126351
0.0146371
0.0167031
0.0188268
0.0210014
0.0232202
0.0254759
0.0277615
0.0300694
0.0323923
0.0347225
0.0370523
0.039374
0.0416799
0.0439622
0.0462132
0.0484252
0.0505907
0.0527022
0.0547525
0.0567343
0.0586409
0.0604657
0.0622022
0.0638445
0.0653869
0.0668242
0.0681515
0.0693646
0.0704596
0.0714332
0.0722828
0.0730062
0.0736021
0.0740696
0.0744087
0.0746201
0.0747053
0.0746666
0.0745068
0.0742298
0.0738402
0.0733435
0.0727459
0.0720543
0.0712765
0.070421
0.0694967
0.0685133
0.0674807
0.0664095
0.0653101
0.0641931
0.0630689
0.061947
0.0608364
0.0597503
0.0587007
0.0576176
0.0564348
0.0127103
0.0112207
0.00990742
0.00868422
0.0074557
0.00623243
0.00502709
0.00384582
0.0026954
0.00158356
0.000518211
-0.000492738
-0.00144155
-0.00232077
-0.0031233
-0.00384251
-0.00447229
-0.00500706
-0.00544185
-0.00577228
-0.00599462
-0.00610572
-0.00610306
-0.00598468
-0.00574923
-0.00539591
-0.00492448
-0.00433523
-0.00362899
-0.00280706
-0.00187122
-0.000823671
0.000332929
0.00159551
0.0029606
0.00442434
0.0059825
0.00763052
0.00936353
0.0111764
0.0130635
0.0150193
0.0170376
0.0191122
0.0212366
0.0234042
0.0256081
0.0278412
0.0300965
0.0323665
0.034644
0.0369215
0.0391913
0.041446
0.0436781
0.04588
0.0480442
0.0501634
0.0522302
0.0542376
0.0561786
0.0580464
0.0598345
0.0615368
0.0631474
0.0646606
0.0660712
0.0673747
0.0685665
0.069643
0.0706009
0.0714373
0.0721503
0.0727382
0.0732001
0.073536
0.0737461
0.0738318
0.073795
0.0736384
0.0733652
0.0729798
0.0724869
0.0718922
0.071202
0.0704231
0.0695632
0.0686302
0.0676328
0.0665797
0.06548
0.0643429
0.0631775
0.0619926
0.060796
0.0595948
0.0584018
0.057228
0.0559865
0.0545973
0.0145012
0.0128018
0.0113256
0.00997293
0.00863157
0.00731153
0.00602507
0.00477672
0.00357162
0.00241602
0.0013164
0.000279296
-0.000688825
-0.00158168
-0.00239328
-0.00311798
-0.00375057
-0.0042863
-0.0047209
-0.00505065
-0.00527233
-0.00538331
-0.00538147
-0.00526524
-0.00503356
-0.00468588
-0.00422215
-0.00364282
-0.0029488
-0.0021415
-0.00122272
-0.000194723
0.000939873
0.00217804
0.00351637
0.0049511
0.00647808
0.00809289
0.00979075
0.0115666
0.0134152
0.0153309
0.0173079
0.01934
0.021421
0.0235444
0.0257034
0.0278914
0.0301012
0.0323259
0.0345581
0.0367907
0.0390161
0.0412272
0.0434165
0.0455766
0.0477002
0.0497802
0.0518093
0.0537806
0.0556872
0.0575225
0.0592801
0.0609539
0.0625381
0.0640271
0.0654159
0.0666996
0.0678741
0.0689354
0.0698802
0.0707058
0.0714099
0.0719909
0.0724478
0.0727801
0.0729881
0.0730727
0.0730356
0.0728791
0.0726062
0.0722205
0.0717264
0.0711289
0.0704336
0.0696467
0.0687748
0.0678253
0.0668055
0.0657232
0.0645864
0.063403
0.0621808
0.0609273
0.0596488
0.0583509
0.0570462
0.0557452
0.0543447
0.0527521
0.0162616
0.0143566
0.0127185
0.011235
0.00977785
0.00835685
0.00698407
0.00566268
0.00439645
0.00319032
0.00204952
0.000979362
-1.48243e-05
-0.000927834
-0.00175467
-0.00249063
-0.00313133
-0.00367281
-0.00411148
-0.00444424
-0.00466842
-0.00478186
-0.00478285
-0.0046702
-0.00444315
-0.00410143
-0.00364519
-0.00307504
-0.00239203
-0.00159764
-0.000693751
0.000317348
0.00143301
0.00265023
0.00396565
0.00537557
0.00687595
0.00846243
0.0101303
0.0118748
0.0136905
0.0155721
0.017514
0.01951
0.0215542
0.0236402
0.0257614
0.0279112
0.0300828
0.0322692
0.0344634
0.0366583
0.0388467
0.0410214
0.0431751
0.0453006
0.0473907
0.0494384
0.0514366
0.0533784
0.0552571
0.0570662
0.0587992
0.0604502
0.0620134
0.0634832
0.0648547
0.0661229
0.0672837
0.0683331
0.0692678
0.0700849
0.0707819
0.0713573
0.0718097
0.0721385
0.0723438
0.0724261
0.0723869
0.0722281
0.0719522
0.0715625
0.0710627
0.0704574
0.0697514
0.0689504
0.0680601
0.067087
0.0660376
0.0649188
0.0637375
0.0625005
0.0612145
0.0598859
0.0585198
0.0571206
0.0557008
0.0542707
0.0527119
0.0509193
0.0179727
0.0158665
0.0140683
0.0124534
0.0108787
0.00935372
0.00789063
0.00649149
0.00515888
0.00389664
0.00270889
0.00159987
0.00057388
-0.000364855
-0.00121225
-0.00196444
-0.00261785
-0.00316922
-0.00361566
-0.00395464
-0.00418403
-0.00430212
-0.00430763
-0.00419971
-0.00397794
-0.0036423
-0.00319318
-0.00263136
-0.00195805
-0.0011748
-0.000283586
0.000713256
0.00181305
0.00301277
0.00430909
0.00569836
0.0071766
0.00873954
0.0103826
0.012101
0.0138895
0.015743
0.0176557
0.019622
0.0216358
0.023691
0.0257811
0.0278996
0.0300399
0.0321952
0.0343585
0.0365229
0.0386814
0.0408268
0.042952
0.0450499
0.0471135
0.0491357
0.0511096
0.0530285
0.0548856
0.0566745
0.0583888
0.0600226
0.06157
0.0630256
0.0643844
0.0656414
0.0667923
0.0678333
0.0687608
0.0695717
0.0702637
0.0708348
0.0712836
0.0716092
0.0718115
0.0718908
0.071848
0.0716848
0.0714033
0.0710063
0.0704971
0.0698796
0.0691582
0.0683378
0.0674234
0.0664208
0.0653357
0.064174
0.0629419
0.0616452
0.0602897
0.0588808
0.0574225
0.0559184
0.0543811
0.052821
0.0511051
0.0491165
0.0196181
0.017315
0.0153588
0.0136129
0.0119195
0.0102884
0.00873202
0.00725143
0.00584824
0.00452533
0.00328585
0.00213312
0.00107049
0.000101317
-0.000771151
-0.00154383
-0.00221388
-0.00277872
-0.00323608
-0.003584
-0.00382087
-0.00394544
-0.00395682
-0.00385451
-0.00363841
-0.00330877
-0.00286623
-0.00231177
-0.00164671
-0.000872769
8.02496e-06
0.000993272
0.00208025
0.00326591
0.00454692
0.00591965
0.00738019
0.00892432
0.0105476
0.0122451
0.0140121
0.0158431
0.0177328
0.0196754
0.0216652
0.023696
0.0257617
0.0278557
0.0299715
0.0321025
0.0342419
0.0363828
0.0385183
0.0406414
0.0427451
0.0448223
0.0468661
0.0488696
0.0508259
0.0527282
0.05457
0.0563447
0.0580461
0.0596682
0.0612052
0.0626516
0.0640022
0.0652523
0.0663973
0.0674333
0.0683565
0.069164
0.0698531
0.0704215
0.0708678
0.0711908
0.0713902
0.0714658
0.0714184
0.0712493
0.07096
0.0705531
0.0700313
0.0693981
0.0686571
0.0678127
0.0668695
0.0658323
0.0647062
0.0634964
0.0622082
0.0608467
0.0594169
0.0579233
0.0563693
0.0547576
0.0531012
0.0514107
0.0495392
0.0473584
0.0211829
0.0186875
0.0165755
0.0146991
0.0128866
0.0111481
0.00949617
0.0079313
0.00645419
0.00506691
0.0037718
0.00257134
0.00146805
0.000464488
-0.000436853
-0.00123361
-0.00192362
-0.00250492
-0.00297584
-0.00333495
-0.00358116
-0.00371364
-0.00373192
-0.00363582
-0.00342556
-0.00310166
-0.00266498
-0.00211672
-0.00145839
-0.000691804
0.000180896
0.00115725
0.00223448
0.00340952
0.004679
0.0060393
0.00748653
0.00901652
0.0106249
0.0123069
0.0140576
0.0158719
0.0177444
0.0196695
0.0216414
0.0236543
0.025702
0.027778
0.0298761
0.0319897
0.0341119
0.0362362
0.0383556
0.0404633
0.0425523
0.0446157
0.0466465
0.0486378
0.0505829
0.0524751
0.0543077
0.0560743
0.0577686
0.0593846
0.0609164
0.0623585
0.0637058
0.0649532
0.0660962
0.0671308
0.0680531
0.0688598
0.0695482
0.0701159
0.0705611
0.0708824
0.0710791
0.071151
0.0710984
0.0709221
0.0706235
0.0702046
0.0696676
0.0690155
0.0682516
0.0673795
0.0664033
0.0653272
0.0641556
0.0628932
0.0615445
0.060114
0.0586059
0.0570243
0.0553717
0.0536503
0.0518737
0.0500528
0.0480275
0.0456584
0.0226542
0.0199705
0.0177051
0.0156992
0.0137675
0.0119206
0.0101716
0.00852033
0.00696669
0.00551211
0.00415821
0.00290672
0.00175946
0.00071826
-0.000215092
-0.0010389
-0.0017516
-0.00235184
-0.00283848
-0.00321061
-0.00346761
-0.00360908
-0.00363495
-0.00354538
-0.00334087
-0.00302222
-0.00259052
-0.00204718
-0.00139388
-0.000632603
0.000234417
0.00120464
0.00227524
0.00344309
0.00470482
0.00605678
0.00749508
0.00901559
0.0106139
0.0122855
0.0140254
0.0158285
0.0176896
0.0196032
0.0215635
0.0235647
0.0256007
0.0276654
0.0297524
0.0318551
0.0339671
0.0360815
0.0381916
0.0402907
0.0423717
0.0444279
0.0464524
0.0484382
0.0503786
0.0522669
0.0540964
0.0558609
0.0575538
0.0591692
0.0607012
0.0621442
0.0634927
0.0647419
0.0658871
0.0669239
0.0678486
0.0686576
0.0693478
0.0699169
0.0703625
0.0706833
0.0708782
0.0709466
0.0708885
0.0707044
0.0703952
0.0699626
0.0694084
0.068735
0.0679453
0.0670424
0.0660299
0.0649113
0.0636906
0.0623718
0.0609589
0.0594558
0.0578662
0.0561937
0.0544404
0.0526078
0.0507102
0.0487593
0.0465817
0.0440276
0.0240201
0.0211519
0.0187353
0.0166009
0.0145503
0.0125946
0.0107475
0.0090082
0.00737604
0.00585184
0.00443662
0.00313147
0.00193756
0.000856069
-0.000111844
-0.000965094
-0.00170271
-0.00232386
-0.00282793
-0.00321449
-0.00348335
-0.00363455
-0.00366838
-0.00358535
-0.00338626
-0.00307216
-0.00264437
-0.00210451
-0.00145444
-0.000696289
0.000167568
0.0011345
0.00220162
0.00336577
0.00462353
0.00597124
0.00740498
0.00892065
0.0105139
0.0121801
0.0139145
0.015712
0.0175675
0.0194754
0.0214301
0.0234258
0.0254566
0.0275163
0.0295987
0.0316973
0.0338055
0.0359168
0.0380244
0.0401215
0.0422013
0.044257
0.0462816
0.0482684
0.0502106
0.0521013
0.053934
0.0557023
0.0573997
0.0590201
0.0605576
0.0620064
0.0633612
0.0646167
0.0657682
0.0668112
0.0677418
0.0685561
0.069251
0.0698237
0.0702718
0.0705936
0.0707876
0.0708531
0.0707896
0.0705974
0.070277
0.0698296
0.0692566
0.0685601
0.0677424
0.0668061
0.0657544
0.0645904
0.0633175
0.0619393
0.0604591
0.0588805
0.0572069
0.0554412
0.0535852
0.0516403
0.0496213
0.0475406
0.0452124
0.0424763
0.0252698
0.0222206
0.019655
0.0173931
0.0152241
0.0131594
0.0112135
0.00938498
0.00767279
0.00607721
0.0045987
0.0032378
0.0019951
0.000871214
-0.000133283
-0.00101787
-0.00178211
-0.00242569
-0.00294847
-0.00335047
-0.00363191
-0.00379324
-0.0038351
-0.00375836
-0.00356409
-0.00325362
-0.00282848
-0.00229049
-0.0016417
-0.000884384
-2.10675e-05
0.000945513
0.00201239
0.00317636
0.00443396
0.00578151
0.00721508
0.00873053
0.0103235
0.0119895
0.0137237
0.0155211
0.0173766
0.0192846
0.0212398
0.0232362
0.025268
0.0273291
0.0294134
0.0315143
0.0336255
0.0357403
0.037852
0.0399538
0.0420391
0.0441008
0.0461323
0.0481266
0.0500768
0.0519763
0.0538184
0.0555965
0.0573042
0.0589352
0.0604837
0.0619436
0.0633094
0.064576
0.0657382
0.0667914
0.0677315
0.0685545
0.069257
0.069836
0.0702888
0.0706133
0.0708079
0.0708714
0.0708032
0.070603
0.0702711
0.0698082
0.0692154
0.0684943
0.0676469
0.0666754
0.0655823
0.0643705
0.0630429
0.0616026
0.0600528
0.0583964
0.0566364
0.0547757
0.0528157
0.0507574
0.0486167
0.0464066
0.0439289
0.0410134
0.0263934
0.0231661
0.0204534
0.0180653
0.0157783
0.0136047
0.0115595
0.00964104
0.00784774
0.00617945
0.00463616
0.00321792
0.00192479
0.000756878
-0.000285756
-0.0012031
-0.00199524
-0.00266234
-0.0032047
-0.00362277
-0.00391717
-0.00408871
-0.00413839
-0.0040674
-0.00387712
-0.00356911
-0.00314517
-0.00260728
-0.00195767
-0.00119878
-0.000333276
0.000635987
0.00170594
0.00287332
0.00413462
0.00548613
0.0069239
0.00844377
0.0100414
0.0117122
0.0134515
0.0152542
0.0171153
0.0190294
0.0209909
0.0229942
0.0250332
0.0271021
0.0291946
0.0313044
0.033425
0.0355499
0.0376724
0.0397857
0.041883
0.0439574
0.0460022
0.0480105
0.0499753
0.0518898
0.0537474
0.0555415
0.0572654
0.0589128
0.0604777
0.061954
0.063336
0.0646183
0.0657958
0.0668635
0.0678171
0.0686524
0.0693657
0.0699537
0.0704137
0.0707431
0.07094
0.0710029
0.0709308
0.0707232
0.0703799
0.0699013
0.0692882
0.0685417
0.0676633
0.066655
0.0655189
0.0642575
0.0628732
0.0613689
0.0597473
0.0580111
0.0561631
0.0542059
0.0521406
0.0499682
0.0477054
0.045366
0.04274
0.0396469
0.0273816
0.0239788
0.0211207
0.0186073
0.016203
0.0139207
0.011776
0.00976709
0.0078919
0.00614994
0.00454079
0.00306402
0.00171926
0.000506133
-0.000575766
-0.0015269
-0.0023478
-0.0030391
-0.00360153
-0.00403595
-0.00434335
-0.00452489
-0.00458189
-0.00451586
-0.00432847
-0.00402156
-0.00359713
-0.00305739
-0.00240472
-0.00164172
-0.000771188
0.000203888
0.00128033
0.00245479
0.00372372
0.00508335
0.00652972
0.00805866
0.00966578
0.0113465
0.0130961
0.0149097
0.0167821
0.0187079
0.0206818
0.0226979
0.0247504
0.0268334
0.0289405
0.0310656
0.0332022
0.0353438
0.0374836
0.0396149
0.0417309
0.0438247
0.0458894
0.0479181
0.0499039
0.0518399
0.0537193
0.0555354
0.0572815
0.0589512
0.0605381
0.0620362
0.0634397
0.0647427
0.0659401
0.0670267
0.0679979
0.0688493
0.069577
0.0701773
0.0706472
0.0709839
0.0711852
0.0712492
0.0711746
0.0709605
0.0706064
0.0701123
0.0694787
0.0687063
0.0677963
0.0667503
0.06557
0.0642574
0.062815
0.061245
0.05955
0.0577325
0.0557949
0.0537399
0.0515683
0.0492811
0.0468959
0.0444274
0.0416537
0.0383845
0.0282256
0.0246495
0.0216476
0.0190098
0.0164887
0.0140979
0.0118538
0.00975403
0.00779646
0.00598018
0.00430441
0.00276832
0.00137109
0.000111945
-0.00100996
-0.00199552
-0.00284569
-0.00356152
-0.00414417
-0.00459487
-0.00491498
-0.00510599
-0.00516955
-0.00510745
-0.00492164
-0.00461422
-0.00418744
-0.00364369
-0.00298556
-0.00221577
-0.00133725
-0.000353135
0.000733303
0.00191861
0.00319915
0.00457113
0.00603055
0.00757322
0.00919472
0.0108905
0.0126558
0.0144856
0.0163749
0.0183183
0.0203103
0.0223454
0.0244175
0.0265208
0.028649
0.0307959
0.032955
0.0351198
0.0372836
0.0394396
0.0415809
0.0437006
0.0457919
0.0478476
0.0498609
0.0518247
0.0537323
0.0555766
0.057351
0.0590488
0.0606636
0.0621891
0.0636193
0.0649482
0.0661705
0.0672806
0.0682738
0.0691454
0.0698912
0.0705072
0.0709902
0.0713369
0.071545
0.0716121
0.0715367
0.0713175
0.0709536
0.0704447
0.0697909
0.0689926
0.0680507
0.0669664
0.065741
0.0643764
0.0628746
0.0612378
0.0594681
0.0575679
0.0555397
0.0533857
0.0511069
0.0487042
0.0461961
0.0435984
0.0406773
0.0372329
0.0289171
0.0251694
0.0220248
0.0192635
0.0166262
0.0141272
0.0117836
0.00959297
0.00755272
0.00566173
0.00391887
0.00232295
0.000872784
-0.000432839
-0.00159515
-0.00261542
-0.00349502
-0.0042354
-0.00483807
-0.00530466
-0.00563689
-0.00583657
-0.00590565
-0.0058462
-0.00566043
-0.00535069
-0.00491948
-0.00436941
-0.00370321
-0.0029238
-0.00203423
-0.00103773
6.22884e-05
0.00126228
0.00255852
0.00394715
0.00542413
0.00698522
0.00862602
0.0103419
0.0121281
0.0139797
0.0158915
0.0178583
0.0198745
0.0219345
0.0240324
0.0261623
0.028318
0.0304931
0.0326812
0.0348758
0.0370701
0.0392574
0.0414307
0.0435831
0.0457075
0.0477969
0.0498442
0.0518424
0.0537844
0.0556633
0.0574722
0.0592042
0.0608528
0.0624115
0.0638739
0.0652342
0.0664863
0.067625
0.0686448
0.0695409
0.0703088
0.0709443
0.0714437
0.0718037
0.0720213
0.072094
0.0720198
0.0717972
0.0714249
0.0709022
0.070229
0.0694052
0.0684315
0.0673087
0.0660379
0.0646207
0.0630588
0.0613542
0.0595088
0.057525
0.055405
0.0531511
0.0507642
0.0482453
0.0456138
0.0428866
0.0398181
0.0361987
0.029448
0.02553
0.0222437
0.0193596
0.0166065
0.0139996
0.0115567
0.00927513
0.00715211
0.00518621
0.00337604
0.00172007
0.000216749
-0.00113549
-0.00233827
-0.00339324
-0.00430212
-0.00506673
-0.00568895
-0.00617076
-0.00651423
-0.00672148
-0.00679477
-0.00673644
-0.00654895
-0.00623489
-0.00579698
-0.00523806
-0.00456105
-0.00376902
-0.00286517
-0.00185284
-0.000735545
0.000483059
0.00179917
0.00320882
0.00470793
0.00629222
0.00795726
0.00969843
0.0115109
0.0133897
0.0153297
0.0173256
0.0193719
0.0214629
0.0235928
0.0257556
0.027945
0.0301549
0.0323785
0.0346095
0.036841
0.0390663
0.0412783
0.04347
0.0456342
0.047764
0.049852
0.0518911
0.0538742
0.0557941
0.0576437
0.0594162
0.0611047
0.0627024
0.0642029
0.0656
0.0668874
0.0680596
0.0691109
0.0700362
0.0708306
0.0714897
0.0720093
0.0723859
0.0726161
0.0726972
0.0726267
0.0724028
0.0720239
0.0714889
0.0707973
0.0699489
0.0689439
0.0677828
0.0664666
0.0649966
0.0633741
0.0616011
0.0596794
0.0576111
0.0553984
0.0530438
0.050548
0.047912
0.0451565
0.0422992
0.0390829
0.0352881
0.0298104
0.0257231
0.0222958
0.0192892
0.0164208
0.0137062
0.0111642
0.00879184
0.00658607
0.00454526
0.00266775
0.000951732
-0.000604687
-0.00200343
-0.00324645
-0.00433579
-0.0052735
-0.00606175
-0.00670276
-0.00719884
-0.00755239
-0.00776586
-0.00784179
-0.0077828
-0.00759159
-0.007271
-0.00682395
-0.00625347
-0.00556272
-0.00475491
-0.00383341
-0.00280166
-0.00166329
-0.000422057
0.00091815
0.00235329
0.00387918
0.00549151
0.0071858
0.0089574
0.0108015
0.0127131
0.014687
0.0167178
0.0188001
0.0209282
0.0230962
0.0252982
0.0275278
0.0297788
0.0320446
0.0343186
0.036594
0.0388639
0.0411213
0.0433591
0.04557
0.0477469
0.0498823
0.0519691
0.0539998
0.0559672
0.0578642
0.0596835
0.061418
0.063061
0.0646056
0.0660452
0.0673736
0.0685847
0.0696726
0.070632
0.0714576
0.0721446
0.0726886
0.0730856
0.073332
0.0734245
0.0733606
0.0731379
0.0727545
0.0722091
0.0715007
0.0706288
0.0695934
0.0683947
0.0670334
0.0655105
0.0638274
0.0619856
0.059987
0.0578335
0.0555275
0.0530713
0.0504657
0.0477119
0.0448315
0.0418432
0.0384784
0.0345074
0.0299965
0.0257404
0.0221725
0.0190439
0.0160604
0.0132384
0.0105974
0.00813443
0.00584606
0.00373048
0.00178581
9.94512e-06
-0.0015993
-0.00304417
-0.00432697
-0.00545007
-0.00641589
-0.0072269
-0.00788567
-0.00839481
-0.00875703
-0.00897511
-0.00905186
-0.00899019
-0.00879305
-0.00846349
-0.00800465
-0.00741976
-0.00671216
-0.00588526
-0.00494257
-0.00388768
-0.00272431
-0.00145632
-8.76814e-05
0.00137747
0.00293487
0.00458015
0.00630877
0.00811605
0.00999714
0.011947
0.0139605
0.0160321
0.0181565
0.0203277
0.0225401
0.0247876
0.0270638
0.0293625
0.031677
0.0340007
0.0363268
0.0386481
0.0409577
0.0432484
0.0455128
0.0477436
0.0499333
0.0520745
0.0541597
0.0561814
0.0581323
0.0600049
0.061792
0.0634865
0.0650813
0.0665696
0.0679448
0.0692005
0.0703305
0.0713292
0.0721909
0.0729106
0.0734834
0.073905
0.0741713
0.074279
0.0742248
0.0740062
0.0736209
0.0730672
0.0723439
0.0714502
0.0703856
0.0691502
0.0677444
0.0661691
0.0644254
0.0625148
0.060439
0.0581999
0.0557999
0.0532413
0.050525
0.0476524
0.0446461
0.0415258
0.0380112
0.0338627
0.0299986
0.0255739
0.0218656
0.0186151
0.0155167
0.0125875
0.00984771
0.00729424
0.0049235
0.00273344
0.00072193
-0.00111339
-0.00277499
-0.0042654
-0.00558727
-0.00674329
-0.00773622
-0.00856886
-0.00924408
-0.00976482
-0.0101341
-0.0103549
-0.0104304
-0.0103638
-0.0101583
-0.00981711
-0.00934363
-0.00874128
-0.00801357
-0.0071641
-0.00619653
-0.00511461
-0.00392219
-0.00262319
-0.00122171
0.000278065
0.00187179
0.003555
0.0053231
0.00717136
0.0090949
0.0110887
0.0131474
0.0152658
0.0174382
0.0196588
0.0219218
0.0242211
0.0265504
0.0289033
0.0312732
0.0336533
0.0360367
0.0384164
0.0407851
0.0431355
0.0454604
0.047752
0.050003
0.0522056
0.0543522
0.0564351
0.0584467
0.0603794
0.0622258
0.0639783
0.0656298
0.067173
0.0686011
0.0699073
0.0710853
0.0721288
0.073032
0.0737894
0.0743958
0.0748465
0.0751371
0.0752637
0.0752229
0.0750117
0.0746274
0.0740681
0.0733322