/*--------------------------------*- C++ -*----------------------------------*\
| =========                 |                                                 |
| \\      /  F ield         | OpenFOAM: The Open Source CFD Toolbox           |
|  \\    /   O peration     | Version:  v1912                                 |
|   \\  /    A nd           | Website:  www.openfoam.com                      |
|    \\/     M anipulation  |                                                 |
\*---------------------------------------------------------------------------*/
FoamFile
{
    version     2.0;
    format      ascii;
    class       volVectorField;
    location    "3.46";
    object      grad(rho);
}
// * * * * * * * * * * * * * * * * * * * * * * * * * * * * * * * * * * * * * //

dimensions      [1 -4 0 0 0 0 0];


internalField   nonuniform List<vector> 
1900
(
(85498.2 0.126355 0)
(-62138.5 0.669097 0)
(-7368.22 0.305106 0)
(-10.6715 0.64623 0)
(99.4226 -0.7621 0)
(26.6591 -10.0535 0)
(-217.553 -2.78885 0)
(-675.993 -105.438 0)
(-834.82 -228.302 0)
(-1898.9 -591.824 0)
(85499 0.436512 0)
(-62138.3 1.11983 0)
(-7368.25 0.170944 0)
(-11.7387 -0.879904 0)
(88.7229 -6.08708 0)
(24.6323 -25.521 0)
(-312.937 -23.3605 0)
(-901.505 -133.076 0)
(-1321.21 -155.328 0)
(-1729.9 -565.275 0)
(85499.8 -2.84217e-09 0)
(-62138.8 -7.78044e-09 0)
(-7370.22 -1.20792e-09 0)
(-16.9295 1.81188e-09 0)
(74.7815 2.13163e-09 0)
(9.38562 1.91847e-09 0)
(-325.108 -1.5099e-09 0)
(-807.96 -4.29878e-09 0)
(-1267.02 -2.84217e-09 0)
(-1697.93 -2.45137e-09 0)
(85499 -0.436512 0)
(-62138.3 -1.11983 0)
(-7368.25 -0.170944 0)
(-11.7387 0.879904 0)
(88.7229 6.08708 0)
(24.6323 25.521 0)
(-312.937 23.3605 0)
(-901.505 133.076 0)
(-1321.21 155.328 0)
(-1729.9 565.275 0)
(85498.2 -0.126355 0)
(-62138.5 -0.669097 0)
(-7368.22 -0.305106 0)
(-10.6715 -0.64623 0)
(99.4226 0.7621 0)
(26.6591 10.0535 0)
(-217.553 2.78885 0)
(-675.993 105.438 0)
(-834.82 228.302 0)
(-1898.9 591.824 0)
(-2041.62 -185.252 1.49021e-11)
(-1024.96 -389.777 -1.79128e-11)
(-1752.71 -824.492 -2.25338e-11)
(-11799.7 578.476 0)
(-6646 13191.3 -8.70483e-11)
(-1689.98 -88.9703 1.48686e-11)
(-1559.46 -371.534 1.79128e-11)
(-984.212 -741.078 2.25338e-11)
(-5270.11 49.456 0)
(-3881.14 10678.2 0)
(-1811.53 -3.21804e-10 0)
(-1794.9 1.71403e-09 0)
(-1689.66 -3.05928e-09 0)
(-6188.79 -3.29703e-09 0)
(1499.32 -1.31112e-08 0)
(-1689.98 88.9703 1.48686e-11)
(-1559.46 371.534 1.79128e-11)
(-984.212 741.078 2.25338e-11)
(-5270.11 -49.456 0)
(-3881.14 -10678.2 0)
(-2041.62 185.252 -4.46392e-11)
(-1024.96 389.777 -1.79128e-11)
(-1752.71 824.492 -2.25338e-11)
(-11799.7 -578.476 -6.09436e-11)
(-6646 -13191.3 8.70483e-11)
(11628.7 -3257.95 4.34632e-11)
(-1244.95 101.622 -3.589e-11)
(871.105 779.02 0)
(-1734.02 616.22 2.77364e-11)
(-10839.7 -4941.72 -1.21634e-11)
(7290.14 -3244.03 -2.16826e-11)
(-214.768 304.063 1.79465e-11)
(1060.22 647.064 0)
(-4192.57 -403.415 -1.73438e-11)
(-14519.7 -8979.56 2.93603e-12)
(8401.62 -9.33036e-09 0)
(-272.479 -8.42631e-09 0)
(551.084 4.60537e-10 0)
(-5955.49 -1.35839e-08 6.93266e-12)
(-15705.5 -3.14758e-08 -5.87205e-12)
(7290.14 3244.03 -2.16826e-11)
(-214.768 -304.063 1.79465e-11)
(1060.22 -647.064 0)
(-4192.57 403.415 -1.73438e-11)
(-14519.7 8979.56 2.93603e-12)
(11628.7 3257.95 2.16826e-11)
(-1244.95 -101.622 -3.06051e-15)
(871.105 -779.02 0)
(-1734.02 -616.22 1.85585e-14)
(-10839.7 4941.72 1.21634e-11)
(-32120.6 -41001.9 0)
(-23571.9 4679.32 0)
(320.19 4070.98 0)
(-566.655 2094.73 0)
(-1981.15 1139.67 0)
(-1840.17 480.83 0)
(-965.612 187.556 0)
(-66.9881 110.265 0)
(210.099 99.1277 0)
(326.192 65.7193 0)
(399.76 54.7708 0)
(362.753 43.2832 0)
(279.582 38.7705 0)
(180.836 35.5404 0)
(99.8778 32.9264 0)
(43.8137 30.6872 0)
(10.527 28.831 0)
(-3.43658 27.6023 0)
(-21.9553 26.7127 0)
(-45.8134 26.2168 0)
(-60.1846 25.9478 0)
(-86.6441 25.6633 0)
(-128.268 25.6624 0)
(-184.045 25.8685 0)
(-268.167 26.2802 0)
(-383.021 26.9502 0)
(-526.605 27.863 0)
(-687.219 28.9945 0)
(-840.245 30.3568 0)
(-958.44 31.7714 0)
(-1023.93 33.1134 0)
(-1038.27 33.1585 0)
(-993.402 31.9312 0)
(-888.732 29.1622 0)
(-697.64 24.9636 0)
(-531.242 33.7457 0)
(-376.802 25.3259 0)
(3286.96 56.5872 0)
(124230 361.927 0)
(-145256 -1113.96 0)
(-30546.8 -12638.2 0)
(-20518.1 7047.91 0)
(64.9589 3747.25 0)
(-1070.93 1156.08 0)
(-2126.67 560.579 0)
(-1935.91 219.744 0)
(-998.255 78.1914 0)
(-73.9434 44.8688 0)
(206.147 43.8315 0)
(322.789 24.1701 0)
(398.297 21.2959 0)
(361.472 15.5485 0)
(279.118 13.3508 0)
(180.542 11.9522 0)
(99.6501 10.9345 0)
(43.6277 10.1594 0)
(10.3919 9.57504 0)
(-3.52438 9.2264 0)
(-22.0128 8.99318 0)
(-45.8592 8.86468 0)
(-60.2502 8.74774 0)
(-86.7178 8.57914 0)
(-128.332 8.47569 0)
(-184.104 8.43068 0)
(-268.213 8.47761 0)
(-383.044 8.67655 0)
(-526.593 9.09215 0)
(-687.162 9.79836 0)
(-840.142 10.8632 0)
(-958.301 12.3344 0)
(-1023.88 14.2071 0)
(-1038.4 16.0669 0)
(-993.727 17.9677 0)
(-889.315 20.0811 0)
(-696.987 22.4767 0)
(-531.184 32.1207 0)
(-374.131 34.4202 0)
(3314.7 57.3336 0)
(124498 165.019 0)
(-145545 7107.08 0)
(-27848.3 -2.58379e-09 0)
(-18805.3 8.33273e-09 0)
(-1393.79 1.30159e-08 0)
(-1493.69 8.52651e-09 0)
(-2253.54 -1.35326e-08 0)
(-1980.51 -1.89909e-08 0)
(-1016.49 2.55795e-08 0)
(-76.9837 1.7699e-08 0)
(204.078 1.3791e-08 0)
(319.636 7.55759e-08 0)
(397.252 1.12298e-07 0)
(360.442 3.08117e-08 0)
(278.536 -1.38556e-07 0)
(180.133 -2.85509e-07 0)
(99.3562 -2.66227e-07 0)
(43.4182 -7.14095e-08 0)
(10.2556 2.01051e-07 0)
(-3.60585 3.6467e-07 0)
(-22.0605 1.75439e-07 0)
(-45.8848 -1.5028e-07 0)
(-60.2677 -2.47366e-07 0)
(-86.7232 -1.3313e-07 0)
(-128.311 -2.03603e-07 0)
(-184.045 -3.10701e-07 0)
(-268.096 -2.13292e-07 0)
(-382.843 -7.74169e-08 0)
(-526.279 8.53943e-08 0)
(-686.704 2.25016e-07 0)
(-839.508 2.29408e-07 0)
(-957.467 1.19403e-07 0)
(-1022.84 -1.37684e-07 0)
(-1037.18 -3.88182e-07 0)
(-992.234 -7.03292e-07 0)
(-887.42 -9.5392e-07 0)
(-694.138 -8.1882e-07 0)
(-527.768 -6.75468e-07 0)
(-369.467 7.30406e-08 0)
(3324.96 -3.95643e-09 0)
(126280 -1.7458e-06 0)
(-147440 -1.05571e-05 0)
(-30546.8 12638.2 0)
(-20518.1 -7047.91 0)
(64.9589 -3747.25 0)
(-1070.93 -1156.08 0)
(-2126.67 -560.579 0)
(-1935.91 -219.744 0)
(-998.255 -78.1914 0)
(-73.9434 -44.8688 0)
(206.147 -43.8315 0)
(322.789 -24.1701 0)
(398.297 -21.2959 0)
(361.472 -15.5485 0)
(279.118 -13.3508 0)
(180.542 -11.9522 0)
(99.6501 -10.9345 0)
(43.6277 -10.1594 0)
(10.3919 -9.57504 0)
(-3.52438 -9.2264 0)
(-22.0128 -8.99318 0)
(-45.8592 -8.86468 0)
(-60.2502 -8.74774 0)
(-86.7178 -8.57914 0)
(-128.332 -8.4757 0)
(-184.104 -8.43068 0)
(-268.213 -8.47761 0)
(-383.044 -8.67655 0)
(-526.593 -9.09215 0)
(-687.162 -9.79836 0)
(-840.142 -10.8632 0)
(-958.301 -12.3344 0)
(-1023.88 -14.2071 0)
(-1038.4 -16.0669 0)
(-993.727 -17.9677 0)
(-889.315 -20.0811 0)
(-696.987 -22.4767 0)
(-531.184 -32.1207 0)
(-374.131 -34.4202 0)
(3314.7 -57.3336 0)
(124498 -165.019 0)
(-145545 -7107.08 0)
(-32120.6 41001.9 0)
(-23571.9 -4679.32 0)
(320.19 -4070.98 0)
(-566.655 -2094.73 0)
(-1981.15 -1139.67 0)
(-1840.17 -480.83 0)
(-965.612 -187.556 0)
(-66.9881 -110.265 0)
(210.099 -99.1277 0)
(326.192 -65.7193 0)
(399.76 -54.7708 0)
(362.753 -43.2832 0)
(279.582 -38.7705 0)
(180.836 -35.5404 0)
(99.8778 -32.9264 0)
(43.8137 -30.6872 0)
(10.527 -28.831 0)
(-3.43658 -27.6023 0)
(-21.9553 -26.7127 0)
(-45.8134 -26.2168 0)
(-60.1846 -25.9478 0)
(-86.6441 -25.6633 0)
(-128.268 -25.6624 0)
(-184.045 -25.8685 0)
(-268.167 -26.2802 0)
(-383.021 -26.9502 0)
(-526.605 -27.863 0)
(-687.219 -28.9945 0)
(-840.245 -30.3568 0)
(-958.44 -31.7714 0)
(-1023.93 -33.1134 0)
(-1038.27 -33.1585 0)
(-993.402 -31.9312 0)
(-888.732 -29.1622 0)
(-697.64 -24.9636 0)
(-531.242 -33.7457 0)
(-376.802 -25.3259 0)
(3286.96 -56.5872 0)
(124230 -361.927 0)
(-145256 1113.96 0)
(75519.3 52048.5 0)
(-45260 -6083.81 0)
(1391.09 -3604.97 0)
(184.744 -3046.64 0)
(-1282.56 -1765.98 0)
(-1449.36 -913.268 0)
(-803.552 -371.822 0)
(-26.5169 -229.869 0)
(229.519 -200.13 0)
(346.677 -142.769 0)
(410.68 -113.274 0)
(370.028 -92.9087 0)
(283.438 -83.0594 0)
(183.868 -75.8159 0)
(102.431 -69.8591 0)
(45.9817 -64.7502 0)
(12.1709 -60.5495 0)
(-2.29718 -57.7265 0)
(-21.2103 -55.6722 0)
(-45.4323 -54.5181 0)
(-59.9789 -54.0043 0)
(-86.624 -53.6154 0)
(-128.535 -53.8969 0)
(-184.56 -54.7073 0)
(-268.945 -56.0663 0)
(-384.063 -58.0324 0)
(-527.861 -60.6985 0)
(-688.661 -63.9022 0)
(-841.765 -67.6857 0)
(-959.87 -71.8776 0)
(-1024.69 -75.86 0)
(-1037.81 -77.909 0)
(-991.596 -76.6242 0)
(-885.619 -73.5684 0)
(-699.106 -68.5647 0)
(-531.344 -80.0504 0)
(-385.371 -77.1557 0)
(3135.64 -111.859 0)
(125542 -632.616 0)
(-146469 -1528.16 0)
(88313.1 28443.2 0)
(-65571.8 -3898.02 0)
(2672.67 -2844.03 0)
(802.533 -2726.74 0)
(-299.97 -1880.56 0)
(-706.275 -1189.97 0)
(-393.966 -560.862 0)
(76.7581 -379.878 0)
(283.619 -308.027 0)
(398.905 -225.426 0)
(441.952 -185.433 0)
(387.967 -156.243 0)
(293.986 -140.423 0)
(191.93 -128.499 0)
(109.172 -118.816 0)
(51.6222 -110.426 0)
(16.4138 -103.783 0)
(0.652439 -99.2076 0)
(-19.2631 -95.995 0)
(-44.4106 -94.3011 0)
(-59.4251 -93.4465 0)
(-86.5513 -92.8557 0)
(-129.177 -93.347 0)
(-185.86 -94.7082 0)
(-270.954 -96.8571 0)
(-386.927 -100.219 0)
(-531.588 -104.392 0)
(-693.179 -109.8 0)
(-847.116 -116.268 0)
(-965.551 -123.188 0)
(-1029.33 -129.906 0)
(-1039.25 -134.217 0)
(-990.187 -132.209 0)
(-882.634 -128.905 0)
(-703.1 -124.736 0)
(-539.466 -139.101 0)
(-402.859 -145.877 0)
(2832.85 -172.941 0)
(122161 -930.391 0)
(-142537 -6747.64 0)
(95514 17653.7 0)
(-75409.5 -1370.1 0)
(2519.78 -2009.33 0)
(1113.18 -2061.45 0)
(198.33 -1676.79 0)
(-177.655 -1183.34 0)
(-22.9201 -714.369 0)
(217.124 -516.244 0)
(378.354 -414.527 0)
(464.813 -320.93 0)
(477.347 -274.53 0)
(413.402 -237.824 0)
(310.173 -215.393 0)
(204.689 -197.708 0)
(119.847 -182.839 0)
(60.4679 -170.614 0)
(22.9812 -160.925 0)
(5.20798 -154.3 0)
(-16.4822 -149.796 0)
(-42.9765 -147.565 0)
(-58.586 -146.303 0)
(-86.5282 -145.521 0)
(-130.32 -146.385 0)
(-187.943 -148.437 0)
(-274.256 -151.91 0)
(-391.324 -156.401 0)
(-537.093 -163.349 0)
(-700.104 -170.649 0)
(-854.666 -179.766 0)
(-973.012 -190.512 0)
(-1035.32 -198.98 0)
(-1040.03 -204.312 0)
(-986.478 -200.908 0)
(-878.417 -197.599 0)
(-708.931 -196.306 0)
(-551.716 -215.039 0)
(-417.98 -227.531 0)
(2379.65 -249.776 0)
(119207 -1318.54 0)
(-138900 -8401.16 0)
(103760 4354.44 0)
(-84519.8 -872.383 0)
(2006.47 -1622.36 0)
(1122.98 -1691.48 0)
(546.203 -1501.61 0)
(221.146 -1113.62 0)
(248.875 -813.402 0)
(365.697 -624.444 0)
(471.83 -517.491 0)
(533.811 -431.54 0)
(522.036 -376.557 0)
(444.954 -335.173 0)
(332.644 -306.36 0)
(223.301 -281.064 0)
(135.28 -261.599 0)
(72.7393 -244.188 0)
(32.1342 -231.532 0)
(11.3769 -222.686 0)
(-12.7732 -216.896 0)
(-41.0446 -214.047 0)
(-57.4555 -212.415 0)
(-86.631 -211.568 0)
(-131.986 -212.929 0)
(-191.184 -216.132 0)
(-278.628 -220.513 0)
(-397.949 -228.43 0)
(-545.318 -235.425 0)
(-708.999 -248.506 0)
(-866.256 -259.831 0)
(-984.066 -274.164 0)
(-1042.63 -285.38 0)
(-1041.11 -293.647 0)
(-983.719 -288.618 0)
(-878.2 -287.363 0)
(-719.906 -291.346 0)
(-569.556 -316.215 0)
(-436.333 -332.534 0)
(1781.52 -356.442 0)
(114306 -1662.57 0)
(-133002 -11525.3 0)
(98835.5 -5950.99 0)
(-81169 -956.709 0)
(1730.46 -1549.26 0)
(1229.54 -1479.74 0)
(755.184 -1366.51 0)
(485.525 -1112.47 0)
(448.464 -902.057 0)
(502.275 -745.841 0)
(564.244 -640.291 0)
(600.623 -562.684 0)
(570.209 -505.632 0)
(481.046 -461.298 0)
(362.315 -422.925 0)
(247.823 -394.13 0)
(155.382 -365.452 0)
(89.4412 -344.533 0)
(43.7013 -327.805 0)
(19.3118 -316.751 0)
(-8.15763 -309.629 0)
(-38.6585 -306.113 0)
(-56.1965 -304.193 0)
(-87.0227 -303.508 0)
(-134.719 -305.736 0)
(-195.251 -310.066 0)
(-286.107 -317.354 0)
(-405.694 -324.911 0)
(-556.439 -340.538 0)
(-723.623 -350.502 0)
(-879.391 -369.974 0)
(-997.632 -390.97 0)
(-1054.09 -401.169 0)
(-1043.15 -413.828 0)
(-980.422 -410.006 0)
(-881.046 -417.751 0)
(-736.734 -426.133 0)
(-591.407 -467.551 0)
(-456.745 -489.933 0)
(1097.98 -525.802 0)
(108444 -1884.26 0)
(-125916 -13818.7 0)
(96650.2 -3542.42 0)
(-80278.1 -960.202 0)
(1502.46 -1377.62 0)
(1299.09 -1354.64 0)
(900.115 -1271.04 0)
(668.707 -1134.95 0)
(602.173 -993.095 0)
(617.945 -874.947 0)
(648.326 -787.724 0)
(663.573 -722.933 0)
(619.735 -668.329 0)
(524.653 -620.436 0)
(397.37 -579.678 0)
(278.684 -538.198 0)
(183.074 -506.687 0)
(109.017 -478.805 0)
(58.9059 -458.704 0)
(28.8925 -445.071 0)
(-2.5219 -436.688 0)
(-35.8071 -432.432 0)
(-54.9459 -430.28 0)
(-88.1179 -430.109 0)
(-138.306 -433.428 0)
(-202.379 -439.592 0)
(-292.932 -448.321 0)
(-420.29 -462.053 0)
(-569.978 -474.069 0)
(-737.365 -496.668 0)
(-905.253 -513.725 0)
(-1014.13 -541.119 0)
(-1064.66 -555.038 0)
(-1049.62 -569.652 0)
(-987.499 -564.056 0)
(-893.739 -578.534 0)
(-767.896 -596.008 0)
(-631.037 -643.278 0)
(-492.466 -684.553 0)
(437.89 -714.832 0)
(101496 -1857.07 0)
(-117515 -15448 0)
(94256.1 -5718.45 0)
(-79082.9 -1009.48 0)
(1350.36 -1300.81 0)
(1332.24 -1379.69 0)
(966.886 -1322.89 0)
(753.363 -1242.07 0)
(699.015 -1137.72 0)
(700.178 -1044.01 0)
(710.73 -975.443 0)
(715.676 -921.998 0)
(668.979 -870.669 0)
(566.473 -819.999 0)
(441.563 -767.29 0)
(318.16 -720.122 0)
(212.615 -680.229 0)
(135.679 -647.132 0)
(76.2085 -623.752 0)
(40.5273 -607.432 0)
(4.02177 -598.051 0)
(-32.4842 -592.988 0)
(-53.958 -590.676 0)
(-90.0562 -591.426 0)
(-143.857 -595.944 0)
(-209.602 -604.291 0)
(-307.751 -615.195 0)
(-430.505 -632.139 0)
(-589.795 -649.805 0)
(-761.837 -676.554 0)
(-922.226 -701.17 0)
(-1037.44 -738.301 0)
(-1081.59 -753.228 0)
(-1051.84 -774.603 0)
(-988.981 -777.51 0)
(-911.836 -792.412 0)
(-799.124 -822.465 0)
(-676.733 -867.381 0)
(-525.698 -930.515 0)
(-31.9011 -948.142 0)
(94246.7 -1619.28 0)
(-108817 -16452.7 0)
(89828.6 -8331.61 0)
(-76021.1 -1087.89 0)
(1145.71 -1286.12 0)
(1277.82 -1434.08 0)
(1032.73 -1410.86 0)
(847.14 -1335.69 0)
(793.037 -1244.74 0)
(774.323 -1179.98 0)
(765.898 -1137.59 0)
(764.538 -1106.39 0)
(718.025 -1066.24 0)
(624.272 -1019.54 0)
(493.615 -960.949 0)
(362.579 -914.607 0)
(253.409 -865.67 0)
(163.441 -831.623 0)
(97.1627 -804.361 0)
(53.6591 -786.363 0)
(11.3972 -776.182 0)
(-28.7004 -770.304 0)
(-53.4406 -767.932 0)
(-93.1943 -769.869 0)
(-150.704 -775.781 0)
(-220.93 -785.225 0)
(-319.768 -800.39 0)
(-453.641 -815.663 0)
(-612.778 -844.459 0)
(-786.861 -865.841 0)
(-964.754 -896.911 0)
(-1064.29 -932.711 0)
(-1099.64 -945.117 0)
(-1073.02 -957.367 0)
(-1004.66 -962.021 0)
(-937.06 -968.389 0)
(-840.138 -995.019 0)
(-735.157 -1034.56 0)
(-570.29 -1087.43 0)
(-225.831 -1116.49 0)
(86555.7 -1350.46 0)
(-99626.5 -16896.8 0)
(84752.9 -9702.64 0)
(-72293.6 -1124.68 0)
(1016.76 -1250.67 0)
(1212.04 -1380.35 0)
(1061.7 -1408.29 0)
(913.438 -1376.32 0)
(849.054 -1317.67 0)
(803.428 -1292.68 0)
(781.646 -1276.67 0)
(784.432 -1265.81 0)
(752.671 -1239.17 0)
(667.938 -1192.77 0)
(542.681 -1139.84 0)
(409.975 -1079.76 0)
(292.582 -1033.39 0)
(194.758 -994.456 0)
(119.822 -966.635 0)
(67.6821 -947.499 0)
(19.4967 -936.943 0)
(-24.5338 -930.468 0)
(-53.5387 -928.225 0)
(-97.6207 -931.187 0)
(-158.654 -937.84 0)
(-233.316 -948.638 0)
(-337.083 -963.624 0)
(-472.971 -986.264 0)
(-638.149 -1005.85 0)
(-812.382 -1044.51 0)
(-986.664 -1063.83 0)
(-1083.9 -1089.55 0)
(-1105.35 -1092.94 0)
(-1068.13 -1086.6 0)
(-999.602 -1075.88 0)
(-943.634 -1067.23 0)
(-862.89 -1076.24 0)
(-765.785 -1100.95 0)
(-604.651 -1126.37 0)
(-285.364 -1153.97 0)
(79040.2 -1190.26 0)
(-90728.9 -16697.8 0)
(78982.3 -10716.7 0)
(-67876.5 -1124.4 0)
(899.328 -1201.69 0)
(1125.93 -1302.92 0)
(1036.62 -1359.63 0)
(934.465 -1358.37 0)
(873.634 -1329.38 0)
(813.828 -1326.92 0)
(791.793 -1323.95 0)
(800.676 -1324.95 0)
(788.413 -1304.56 0)
(719.99 -1270.83 0)
(602.512 -1220.76 0)
(465.161 -1172.13 0)
(335.613 -1132.64 0)
(227.764 -1098.31 0)
(142.412 -1074.18 0)
(82.2718 -1056.29 0)
(27.8088 -1046.19 0)
(-20.2995 -1039.76 0)
(-54.1341 -1037.94 0)
(-102.459 -1040.83 0)
(-167.519 -1046.61 0)
(-245.777 -1056.21 0)
(-356.026 -1067.73 0)
(-494.332 -1084.14 0)
(-668.91 -1097.66 0)
(-842.733 -1120.07 0)
(-1008.15 -1132.48 0)
(-1092.34 -1141.1 0)
(-1096.8 -1131.45 0)
(-1056.58 -1113.31 0)
(-985.992 -1094.72 0)
(-937.415 -1077.13 0)
(-872.627 -1074.68 0)
(-783.458 -1092.39 0)
(-621.389 -1106.74 0)
(-287.397 -1124.21 0)
(71577.1 -1126.35 0)
(-81883.5 -16184.4 0)
(72938.4 -11205.1 0)
(-63124.6 -1065.41 0)
(844.742 -1114.83 0)
(1059.85 -1174.59 0)
(1008.26 -1244.39 0)
(942.586 -1250.16 0)
(879.364 -1253.13 0)
(808.66 -1268.06 0)
(783.541 -1278.29 0)
(803.112 -1292.18 0)
(804.819 -1280.88 0)
(748.698 -1260.74 0)
(637.795 -1219.22 0)
(494.886 -1185.37 0)
(363.714 -1152.08 0)
(251.089 -1127.74 0)
(160.315 -1109.49 0)
(94.6561 -1096.4 0)
(35.4325 -1088.61 0)
(-16.5872 -1083.42 0)
(-54.5766 -1081.77 0)
(-105.974 -1082.98 0)
(-173.473 -1085.88 0)
(-253.663 -1090.32 0)
(-363.995 -1096.28 0)
(-501.82 -1101.36 0)
(-672.775 -1109.33 0)
(-845.935 -1114.74 0)
(-1006.93 -1115.62 0)
(-1082.9 -1109.76 0)
(-1078.57 -1091.59 0)
(-1032.73 -1060.49 0)
(-964.742 -1036.3 0)
(-924.33 -1015.76 0)
(-877.59 -1009.77 0)
(-796.674 -1024.61 0)
(-635.311 -1035.36 0)
(-304.266 -1047.43 0)
(64527.7 -1057.35 0)
(-73559.2 -15480.6 0)
(66776.8 -11293.4 0)
(-58153.1 -991.991 0)
(794.125 -1049.19 0)
(1001.08 -1091.96 0)
(963.792 -1151.08 0)
(926.037 -1161.56 0)
(856.385 -1189.12 0)
(789.585 -1210.2 0)
(768.548 -1222.64 0)
(798.181 -1230.12 0)
(818.713 -1222.91 0)
(779.407 -1198.56 0)
(675.139 -1161.87 0)
(529.865 -1131.9 0)
(391.154 -1107.38 0)
(268.799 -1093.41 0)
(172.612 -1083.23 0)
(102.395 -1077.44 0)
(40.3148 -1074.01 0)
(-13.7037 -1071.37 0)
(-53.7068 -1069.24 0)
(-106.428 -1067.24 0)
(-174.596 -1065.36 0)
(-255.798 -1062.37 0)
(-366.666 -1060.3 0)
(-506.903 -1057.52 0)
(-681.8 -1054.3 0)
(-848.795 -1062 0)
(-1003.35 -1055.78 0)
(-1069.18 -1052.81 0)
(-1049.32 -1030.56 0)
(-1003.3 -1001 0)
(-942.888 -979.483 0)
(-911.853 -964.368 0)
(-881.164 -960.742 0)
(-808.114 -974.098 0)
(-643.371 -984.049 0)
(-308.59 -993.716 0)
(57668.7 -1004.1 0)
(-65488.8 -14721.1 0)
(60758.1 -11393.4 0)
(-53252.9 -934.52 0)
(748.408 -990.846 0)
(961.664 -1046.14 0)
(941.193 -1085.86 0)
(905.922 -1092.93 0)
(832.496 -1132.39 0)
(776.362 -1145.2 0)
(764.34 -1151.22 0)
(802.849 -1147.99 0)
(835.232 -1133.03 0)
(807.519 -1113.18 0)
(702.034 -1077.02 0)
(547.395 -1046.52 0)
(400.806 -1022.84 0)
(274.365 -1008.69 0)
(175.705 -1001.99 0)
(103.54 -999.327 0)
(41.2795 -998.892 0)
(-11.9875 -998.131 0)
(-50.6019 -995.455 0)
(-102.236 -991.039 0)
(-168.774 -985.842 0)
(-248.794 -979.892 0)
(-359.321 -974.345 0)
(-496.031 -974.271 0)
(-677.095 -970.66 0)
(-847.365 -984.758 0)
(-998.072 -981.314 0)
(-1058.6 -976.246 0)
(-1028.63 -959.992 0)
(-983.509 -941.95 0)
(-929.446 -928.881 0)
(-906.271 -922.201 0)
(-886.967 -924.662 0)
(-819.134 -937.954 0)
(-654.216 -948.205 0)
(-323.592 -956.896 0)
(51299.5 -968.253 0)
(-57987 -14017 0)
(54580.9 -11305.8 0)
(-48128.9 -908.145 0)
(686.566 -969.595 0)
(909.518 -1034.95 0)
(918.697 -1074.15 0)
(881.203 -1079.62 0)
(806.016 -1108.32 0)
(771.442 -1108.85 0)
(765.865 -1107.71 0)
(815.706 -1089.98 0)
(852.256 -1064.56 0)
(833.385 -1036.29 0)
(739.378 -982.765 0)
(582.068 -942.501 0)
(427.6 -908.868 0)
(288.897 -886.511 0)
(181.638 -874.481 0)
(105.377 -869.021 0)
(41.4673 -869.345 0)
(-10.3916 -871.135 0)
(-46.8723 -867.931 0)
(-97.1645 -860.396 0)
(-163.854 -854.151 0)
(-244.719 -851.198 0)
(-361.25 -851.736 0)
(-503.352 -862.301 0)
(-691.905 -870.752 0)
(-859.061 -898.32 0)
(-995.149 -914.739 0)
(-1048.64 -920.549 0)
(-1016.28 -916.462 0)
(-973.322 -909.409 0)
(-923.856 -905.367 0)
(-907.788 -907.083 0)
(-896.345 -915.797 0)
(-830.8 -928.44 0)
(-661.625 -938.594 0)
(-327.909 -943.951 0)
(45083.6 -947.166 0)
(-50661.9 -13177.9 0)
(48714.9 -11364.7 0)
(-43292.5 -885.166 0)
(626.216 -946.203 0)
(860.91 -1018.56 0)
(898.149 -1051.67 0)
(872.995 -1060.26 0)
(804.322 -1067.44 0)
(776.951 -1056.86 0)
(782.524 -1047.58 0)
(844.431 -1014.74 0)
(886.976 -972.499 0)
(886.339 -921.558 0)
(792.408 -861.916 0)
(618.604 -808.688 0)
(454.76 -760.409 0)
(307.502 -726.801 0)
(192.558 -703.061 0)
(108.49 -686.972 0)
(39.2422 -678.101 0)
(-10.6253 -674.508 0)
(-40.2533 -671.069 0)
(-88.9577 -668.193 0)
(-159.91 -670.447 0)
(-246.466 -678.046 0)
(-370.021 -691.709 0)
(-514.355 -715.177 0)
(-711.803 -741.713 0)
(-889.752 -786.192 0)
(-1019.49 -816.55 0)
(-1060.26 -840.774 0)
(-1017.9 -855.473 0)
(-972.818 -863.805 0)
(-927.204 -873.154 0)
(-916.321 -884.835 0)
(-907.548 -897.166 0)
(-841.103 -906.346 0)
(-669.162 -917.096 0)
(-331.852 -913.197 0)
(39510.4 -907.837 0)
(-44045.9 -12434.5 0)
(42495.4 -10508 0)
(-38089.2 -746.735 0)
(558.025 -843.86 0)
(807.882 -934.58 0)
(878.511 -961.433 0)
(866.007 -972.642 0)
(809.289 -970.693 0)
(790.587 -951.715 0)
(806.458 -931.674 0)
(888.054 -895.361 0)
(942.047 -848.15 0)
(939.947 -790.97 0)
(848.145 -721.278 0)
(679.883 -668.969 0)
(506.508 -616.807 0)
(344.16 -584.376 0)
(220.019 -557.376 0)
(129.429 -537.65 0)
(53.4783 -525.498 0)
(-3.61545 -518.535 0)
(-40.7869 -514.788 0)
(-96.5649 -515.008 0)
(-173.35 -520.609 0)
(-265.208 -533.003 0)
(-397.03 -550.605 0)
(-551.538 -579.117 0)
(-760.338 -608.311 0)
(-931.176 -656.515 0)
(-1047.75 -696.738 0)
(-1086.15 -728.606 0)
(-1038.47 -750.451 0)
(-990.359 -765.859 0)
(-944.122 -780.904 0)
(-930.927 -795.026 0)
(-917.074 -806.161 0)
(-850.006 -814.067 0)
(-668.226 -816.216 0)
(-318.987 -779.34 0)
(33981.2 -735.933 0)
(-37496.3 -10859.7 0)
(37727.7 -10066.2 0)
(-33979.8 -372.903 0)
(445.202 -542.937 0)
(747.613 -716.232 0)
(861.472 -777.436 0)
(864.071 -806.413 0)
(824.488 -787.344 0)
(814.55 -757.613 0)
(836.828 -724.004 0)
(924.918 -679.388 0)
(987.571 -640.757 0)
(1008.6 -594.669 0)
(909.973 -537.407 0)
(719.277 -506.352 0)
(536.277 -465.903 0)
(364.772 -447.529 0)
(237.585 -427.584 0)
(139.208 -408.575 0)
(57.6627 -392.599 0)
(-0.30486 -380.321 0)
(-36.855 -376.88 0)
(-94.5673 -382.866 0)
(-177.251 -392.892 0)
(-275.371 -406.543 0)
(-414.457 -418.997 0)
(-569.963 -440.788 0)
(-786.386 -461.012 0)
(-974.964 -494.92 0)
(-1088.96 -520.589 0)
(-1112.02 -540.466 0)
(-1053.8 -560.678 0)
(-1002.16 -571.183 0)
(-955.31 -584.255 0)
(-940.659 -592.049 0)
(-925.896 -598.891 0)
(-850.792 -599.85 0)
(-635.699 -566.767 0)
(-254.488 -461.914 0)
(29796.6 -325.476 0)
(-32756.1 -9635.61 0)
(32756.7 8607.79 0)
(-28912.2 832.016 0)
(227.18 43.9668 0)
(581.91 -231.256 0)
(791.61 -347.484 0)
(856.459 -389.512 0)
(856.315 -381.98 0)
(851.624 -369.336 0)
(881.839 -336.488 0)
(968.273 -310.462 0)
(1023.69 -276.29 0)
(1039.54 -179.868 0)
(933.249 139.369 0)
(748.787 733.585 0)
(563.192 1549.06 0)
(381.086 2357.72 0)
(257.558 3080.45 0)
(163.142 3610.23 0)
(80.705 3899.87 0)
(11.5315 3921.44 0)
(-43.2396 3925.99 0)
(-111.994 3912.18 0)
(-196.166 3630.47 0)
(-290.364 3110.24 0)
(-430.03 2405.08 0)
(-592.025 1601.8 0)
(-812.501 826.908 0)
(-988.586 223.221 0)
(-1091.64 -102.344 0)
(-1124.78 -196.111 0)
(-1068.07 -228.964 0)
(-1013.08 -229.767 0)
(-964.229 -244.362 0)
(-945.031 -247.973 0)
(-924.591 -251.076 0)
(-819.049 -244.444 0)
(-535.306 -178.697 0)
(-86.4703 11.528 0)
(25141.1 793.597 0)
(-28275.9 11429.9 0)
(46356.3 550679 0)
(-42232.2 43984 0)
(-579.406 28322 0)
(370.397 33220.8 0)
(708.971 37707.8 0)
(830.83 43683.5 0)
(843.93 49736.8 0)
(858.388 56560.8 0)
(893.561 63579.4 0)
(982.928 71251.3 0)
(1113.42 79079.1 0)
(1409.14 87286.3 0)
(1790.21 95369.1 0)
(2077.7 103441 0)
(2101.36 110972 0)
(1840.48 118020 0)
(1444.55 123730 0)
(928.829 128314 0)
(357.555 130629 0)
(24.8688 132679 0)
(-45.7819 132688 0)
(-379.349 130622 0)
(-950.027 128304 0)
(-1456.2 123692 0)
(-1868.04 117990 0)
(-2090.75 110876 0)
(-2114.84 103338 0)
(-1870.43 95209.5 0)
(-1493.05 87115.7 0)
(-1234.04 78858.7 0)
(-1086.23 70967.2 0)
(-1017 63246.7 0)
(-972.855 56090 0)
(-947.129 49116.1 0)
(-922.495 42873.8 0)
(-781.045 36651.2 0)
(-389.034 31927 0)
(682.449 26683.5 0)
(40799.8 40961.6 0)
(-43543.4 528362 0)
(601381 -624120 0)
(-532274 -47824.4 0)
(-10144.6 -32946.5 0)
(9626.35 -37782.7 0)
(10873.8 -42861.8 0)
(12448.1 -49836.3 0)
(13265.4 -56866.2 0)
(14190.8 -64755.4 0)
(15038.1 -72839.4 0)
(15904.4 -81699 0)
(16475.6 -90830.9 0)
(16737.2 -100447 0)
(16501 -110167 0)
(15784.2 -119915 0)
(14611.2 -129148 0)
(12675 -137649 0)
(10177.3 -144527 0)
(6811.46 -149951 0)
(4287.28 -152703 0)
(1995.33 -154883 0)
(-2025.18 -154877 0)
(-4336.1 -152654 0)
(-6874.35 -149870 0)
(-10229.5 -144388 0)
(-12780.3 -137499 0)
(-14711.2 -128865 0)
(-15909 -119666 0)
(-16620.9 -109706 0)
(-16847.9 -99977.6 0)
(-16686 -90153.4 0)
(-16112.3 -80861.3 0)
(-15349.2 -71809.1 0)
(-14581 -63421.2 0)
(-13680.7 -55250.8 0)
(-12936.2 -47887.9 0)
(-11367.7 -40531.3 0)
(-10140.5 -35141.8 0)
(8619.59 -29992.3 0)
(508577 -43826.7 0)
(-572132 -595148 0)
(601381 624120 0)
(-532274 47824.4 0)
(-10144.6 32946.5 0)
(9626.35 37782.7 0)
(10873.8 42861.8 0)
(12448.1 49836.3 0)
(13265.4 56866.2 0)
(14190.8 64755.4 0)
(15038.1 72839.4 0)
(15904.4 81699 0)
(16475.6 90830.9 0)
(16737.2 100447 0)
(16501 110167 0)
(15784.2 119915 0)
(14611.2 129148 0)
(12675 137649 0)
(10177.3 144527 0)
(6811.46 149951 0)
(4287.28 152703 0)
(1995.33 154883 0)
(-2025.18 154877 0)
(-4336.1 152654 0)
(-6874.35 149870 0)
(-10229.5 144388 0)
(-12780.3 137499 0)
(-14711.2 128865 0)
(-15909 119666 0)
(-16620.9 109706 0)
(-16847.9 99977.6 0)
(-16686 90153.4 0)
(-16112.3 80861.3 0)
(-15349.2 71809.1 0)
(-14581 63421.2 0)
(-13680.7 55250.8 0)
(-12936.2 47887.9 0)
(-11367.7 40531.3 0)
(-10140.5 35141.8 0)
(8619.59 29992.3 0)
(508577 43826.7 0)
(-572132 595148 0)
(46356.3 -550679 0)
(-42232.2 -43984 0)
(-579.406 -28322 0)
(370.397 -33220.8 0)
(708.971 -37707.8 0)
(830.83 -43683.5 0)
(843.93 -49736.8 0)
(858.388 -56560.8 0)
(893.561 -63579.4 0)
(982.928 -71251.3 0)
(1113.42 -79079.1 0)
(1409.14 -87286.3 0)
(1790.21 -95369.1 0)
(2077.7 -103441 0)
(2101.36 -110972 0)
(1840.48 -118020 0)
(1444.55 -123730 0)
(928.829 -128314 0)
(357.555 -130629 0)
(24.8689 -132679 0)
(-45.7819 -132688 0)
(-379.349 -130622 0)
(-950.027 -128304 0)
(-1456.2 -123692 0)
(-1868.04 -117990 0)
(-2090.75 -110876 0)
(-2114.84 -103338 0)
(-1870.43 -95209.5 0)
(-1493.05 -87115.7 0)
(-1234.04 -78858.7 0)
(-1086.23 -70967.2 0)
(-1017 -63246.7 0)
(-972.855 -56090 0)
(-947.129 -49116.1 0)
(-922.495 -42873.8 0)
(-781.045 -36651.2 0)
(-389.034 -31927 0)
(682.449 -26683.5 0)
(40799.8 -40961.6 0)
(-43543.4 -528362 0)
(32756.7 -8607.79 0)
(-28912.2 -832.016 0)
(227.18 -43.9668 0)
(581.91 231.256 0)
(791.61 347.484 0)
(856.459 389.512 0)
(856.315 381.98 0)
(851.624 369.336 0)
(881.839 336.488 0)
(968.273 310.462 0)
(1023.69 276.29 0)
(1039.54 179.868 0)
(933.249 -139.369 0)
(748.787 -733.585 0)
(563.192 -1549.06 0)
(381.086 -2357.72 0)
(257.558 -3080.45 0)
(163.142 -3610.23 0)
(80.705 -3899.87 0)
(11.5315 -3921.44 0)
(-43.2396 -3925.99 0)
(-111.994 -3912.18 0)
(-196.166 -3630.47 0)
(-290.364 -3110.24 0)
(-430.03 -2405.08 0)
(-592.025 -1601.8 0)
(-812.501 -826.908 0)
(-988.586 -223.221 0)
(-1091.64 102.344 0)
(-1124.78 196.111 0)
(-1068.07 228.964 0)
(-1013.08 229.767 0)
(-964.229 244.362 0)
(-945.031 247.973 0)
(-924.591 251.076 0)
(-819.049 244.444 0)
(-535.306 178.697 0)
(-86.4703 -11.528 0)
(25141.1 -793.597 0)
(-28275.9 -11429.9 0)
(37727.7 10066.2 0)
(-33979.8 372.903 0)
(445.202 542.937 0)
(747.613 716.232 0)
(861.472 777.436 0)
(864.071 806.413 0)
(824.488 787.344 0)
(814.55 757.613 0)
(836.828 724.004 0)
(924.918 679.388 0)
(987.571 640.757 0)
(1008.6 594.669 0)
(909.973 537.407 0)
(719.277 506.352 0)
(536.277 465.903 0)
(364.772 447.529 0)
(237.585 427.584 0)
(139.208 408.575 0)
(57.6627 392.599 0)
(-0.304859 380.321 0)
(-36.855 376.88 0)
(-94.5673 382.866 0)
(-177.251 392.892 0)
(-275.371 406.543 0)
(-414.457 418.997 0)
(-569.963 440.788 0)
(-786.386 461.012 0)
(-974.964 494.92 0)
(-1088.96 520.589 0)
(-1112.02 540.466 0)
(-1053.8 560.678 0)
(-1002.16 571.183 0)
(-955.31 584.255 0)
(-940.659 592.049 0)
(-925.896 598.891 0)
(-850.792 599.85 0)
(-635.699 566.767 0)
(-254.488 461.914 0)
(29796.6 325.476 0)
(-32756.1 9635.61 0)
(42495.4 10508 0)
(-38089.2 746.735 0)
(558.025 843.86 0)
(807.882 934.58 0)
(878.511 961.433 0)
(866.007 972.642 0)
(809.289 970.693 0)
(790.587 951.715 0)
(806.458 931.674 0)
(888.054 895.361 0)
(942.047 848.15 0)
(939.947 790.97 0)
(848.145 721.278 0)
(679.883 668.969 0)
(506.508 616.807 0)
(344.16 584.376 0)
(220.019 557.376 0)
(129.429 537.65 0)
(53.4783 525.498 0)
(-3.61545 518.535 0)
(-40.7869 514.788 0)
(-96.5649 515.008 0)
(-173.35 520.609 0)
(-265.208 533.003 0)
(-397.03 550.605 0)
(-551.538 579.117 0)
(-760.338 608.311 0)
(-931.176 656.515 0)
(-1047.75 696.738 0)
(-1086.15 728.606 0)
(-1038.47 750.451 0)
(-990.359 765.859 0)
(-944.122 780.904 0)
(-930.927 795.026 0)
(-917.074 806.161 0)
(-850.006 814.067 0)
(-668.226 816.216 0)
(-318.987 779.34 0)
(33981.2 735.933 0)
(-37496.3 10859.7 0)
(48714.9 11364.7 0)
(-43292.5 885.166 0)
(626.216 946.203 0)
(860.91 1018.56 0)
(898.149 1051.67 0)
(872.995 1060.26 0)
(804.322 1067.44 0)
(776.951 1056.86 0)
(782.524 1047.58 0)
(844.431 1014.74 0)
(886.976 972.499 0)
(886.339 921.558 0)
(792.408 861.916 0)
(618.604 808.688 0)
(454.76 760.409 0)
(307.502 726.801 0)
(192.558 703.061 0)
(108.49 686.972 0)
(39.2422 678.101 0)
(-10.6253 674.508 0)
(-40.2533 671.069 0)
(-88.9577 668.193 0)
(-159.91 670.447 0)
(-246.466 678.046 0)
(-370.021 691.709 0)
(-514.355 715.177 0)
(-711.803 741.713 0)
(-889.752 786.192 0)
(-1019.49 816.55 0)
(-1060.26 840.774 0)
(-1017.9 855.473 0)
(-972.818 863.805 0)
(-927.204 873.154 0)
(-916.321 884.835 0)
(-907.548 897.166 0)
(-841.103 906.346 0)
(-669.162 917.096 0)
(-331.852 913.197 0)
(39510.4 907.837 0)
(-44045.9 12434.5 0)
(54580.9 11305.8 0)
(-48128.9 908.145 0)
(686.566 969.595 0)
(909.518 1034.95 0)
(918.697 1074.15 0)
(881.203 1079.62 0)
(806.016 1108.32 0)
(771.442 1108.85 0)
(765.865 1107.71 0)
(815.706 1089.98 0)
(852.256 1064.56 0)
(833.385 1036.29 0)
(739.378 982.765 0)
(582.068 942.501 0)
(427.6 908.868 0)
(288.897 886.511 0)
(181.638 874.481 0)
(105.377 869.021 0)
(41.4673 869.345 0)
(-10.3916 871.135 0)