/*--------------------------------*- C++ -*----------------------------------*\
| =========                 |                                                 |
| \\      /  F ield         | OpenFOAM: The Open Source CFD Toolbox           |
|  \\    /   O peration     | Version:  v1912                                 |
|   \\  /    A nd           | Website:  www.openfoam.com                      |
|    \\/     M anipulation  |                                                 |
\*---------------------------------------------------------------------------*/
FoamFile
{
    version     2.0;
    format      ascii;
    class       labelField;
    location    "0.00013/lagrangian/dsmc";
    object      origId;
}
// * * * * * * * * * * * * * * * * * * * * * * * * * * * * * * * * * * * * * //


13037
(
303978
304017
304056
304295
304628
306564
309268
309278
309986
310008
310033
310946
310948
310951
310953
310957
310977
310989
311006
311911
311914
311921
311935
311939
311943
311947
311948
311951
311960
311961
311966
311973
311974
311979
311988
312010
312831
312861
312863
312872
312886
312895
312900
312901
312904
312907
312908
312909
312917
312918
312925
312950
313061
313793
313800
313817
313826
313827
313838
313839
313857
313864
313866
313868
313870
313877
313887
313889
313898
313912
313926
313937
314025
314749
314783
314789
314794
314821
314822
314823
314831
314836
314846
314852
314860
314881
314884
314887
314990
314991
315730
315748
315757
315761
315767
315782
315789
315796
315808
315810
315815
315822
315826
315827
315834
315972
315988
316688
316706
316708
316710
316716
316719
316743
316748
316750
316762
316764
316775
316777
316784
316798
316936
317648
317661
317672
317682
317685
317690
317696
317701
317713
317723
317724
317727
317728
317730
317731
317739
317749
317757
317761
317783
317843
317854
317858
317971
318006
318596
318604
318615
318631
318661
318663
318665
318669
318672
318675
318678
318693
318696
318701
318709
318714
318715
318729
318730
318745
318749
318758
318770
318857
319578
319588
319590
319591
319597
319601
319614
319618
319620
319622
319633
319637
319639
319645
319668
319682
319684
319801
320531
320546
320548
320550
320551
320560
320562
320571
320576
320577
320578
320588
320591
320596
320597
320609
320619
320621
320624
320628
320631
320664
320683
321500
321504
321505
321506
321507
321508
321509
321511
321513
321524
321530
321534
321538
321541
321542
321546
321549
321551
321552
321553
321554
321555
321564
321566
321568
321570
321572
321573
321574
321575
321578
321581
321585
321588
321591
321597
321599
321602
321611
321638
321694
321760
322440
322456
322461
322464
322465
322466
322469
322473
322495
322496
322510
322512
322515
322519
322521
322542
322546
322555
322559
322561
322563
322572
322573
322575
322587
322589
322696
322719
322811
323408
323424
323425
323428
323433
323436
323440
323441
323447
323449
323453
323460
323461
323462
323464
323468
323488
323490
323492
323497
323502
323505
323508
323513
323514
323515
323516
323521
323526
323528
323553
323716
324360
324363
324365
324368
324373
324374
324386
324390
324392
324395
324401
324404
324409
324411
324416
324422
324423
324427
324429
324432
324434
324436
324438
324444
324446
324454
324457
324458
324463
324465
324471
324475
324507
324516
324533
324593
325307
325309
325312
325316
325338
325341
325353
325355
325356
325359
325369
325376
325380
325383
325384
325387
325390
325391
325392
325394
325396
325404
325412
325413
325415
325421
325424
325434
325435
325437
325438
325448
325453
325489
325544
325545
325553
325569
325626
326283
326295
326296
326298
326305
326310
326322
326324
326337
326345
326355
326357
326358
326366
326367
326375
326378
326383
326390
326392
326396
326400
326404
326414
326430
326439
326449
326520
326531
326543
326551
326607
327233
327259
327260
327269
327279
327283
327289
327296
327297
327300
327301
327302
327305
327306
327312
327319
327320
327323
327332
327333
327334
327339
327350
327353
327356
327361
327365
327372
327397
327502
327560
328196
328197
328216
328220
328223
328226
328232
328236
328239
328242
328245
328251
328254
328257
328259
328262
328272
328276
328280
328282
328286
328293
328298
328299
328301
328308
328309
328313
328318
328321
328322
328325
328326
328328
328343
328351
328359
328360
328361
328409
328416
328426
328435
328451
328464
328470
329157
329178
329180
329182
329186
329189
329193
329201
329208
329215
329216
329222
329224
329228
329234
329239
329240
329246
329253
329260
329261
329263
329264
329266
329271
329273
329276
329278
329280
329281
329282
329297
329301
329315
329317
329324
329389
329393
329410
329435
329459
330105
330111
330122
330127
330129
330137
330138
330140
330149
330151
330164
330167
330168
330170
330182
330185
330186
330191
330193
330197
330198
330207
330213
330223
330225
330226
330228
330229
330233
330234
330235
330239
330245
330269
330284
330331
330359
330372
330381
330403
331089
331091
331092
331094
331095
331096
331105
331109
331111
331114
331118
331125
331129
331132
331133
331136
331143
331144
331145
331148
331149
331150
331152
331158
331159
331161
331162
331163
331165
331166
331174
331179
331180
331203
331206
331228
331294
331295
331306
331330
331332
331334
331348
331353
332034
332039
332046
332052
332053
332055
332059
332061
332062
332063
332064
332067
332069
332072
332074
332075
332082
332085
332091
332092
332093
332096
332097
332099
332101
332109
332110
332112
332114
332117
332118
332119
332120
332123
332125
332126
332127
332128
332130
332134
332141
332143
332145
332146
332147
332152
332160
332161
332169
332193
332262
332283
332322
332356
332362
332992
332996
333010
333015
333020
333024
333031
333033
333036
333042
333045
333046
333047
333052
333058
333061
333063
333064
333065
333069
333075
333076
333077
333078
333079
333086
333090
333096
333103
333107
333118
333119
333157
333208
333212
333219
333238
333242
333256
333964
333965
333975
333984
333989
333991
333993
333994
333999
334001
334002
334006
334007
334017
334021
334023
334024
334026
334029
334032
334034
334037
334039
334040
334042
334044
334050
334051
334058
334060
334067
334068
334072
334080
334088
334091
334096
334097
334099
334109
334110
334117
334131
334133
334138
334189
334191
334204
334215
334216
334226
334228
334235
334239
334254
334256
334269
334926
334932
334934
334939
334942
334944
334947
334951
334957
334958
334963
334967
334973
334974
334975
334976
334977
334979
334981
334982
334984
334992
334997
334998
334999
335002
335008
335013
335021
335027
335030
335033
335037
335038
335040
335051
335058
335059
335064
335090
335097
335141
335151
335152
335187
335188
335190
335193
335201
335233
335268
335892
335902
335903
335904
335911
335913
335917
335921
335926
335929
335931
335935
335943
335944
335947
335948
335950
335952
335953
335954
335955
335956
335958
335959
335965
335968
335970
335971
335972
335978
335984
335992
335999
336000
336004
336005
336039
336043
336044
336095
336119
336120
336131
336151
336179
336822
336827
336836
336840
336843
336844
336855
336856
336857
336861
336866
336868
336869
336870
336876
336878
336879
336880
336893
336894
336895
336899
336900
336904
336908
336909
336916
336918
336921
336927
336930
336932
336934
336935
336940
336941
336943
336944
336948
336950
336951
336961
336969
336989
336997
337051
337068
337088
337106
337116
337165
337773
337790
337798
337807
337827
337828
337834
337837
337841
337842
337843
337847
337851
337852
337858
337859
337868
337869
337872
337875
337881
337883
337885
337890
337893
337898
337899
337913
337922
337929
337951
337952
337964
338027
338028
338035
338043
338098
338110
338125
338744
338762
338764
338767
338772
338774
338777
338778
338787
338788
338789
338790
338791
338792
338793
338794
338796
338800
338801
338808
338814
338817
338820
338825
338837
338838
338845
338846
338850
338861
338867
338871
338872
338890
338915
338918
338987
338995
339023
339035
339047
339063
339086
339116
339727
339728
339731
339737
339740
339742
339744
339748
339749
339751
339753
339755
339756
339761
339765
339766
339771
339772
339775
339778
339779
339781
339784
339785
339793
339795
339796
339798
339802
339805
339810
339811
339819
339829
339830
339835
339838
339847
339849
339850
339896
339938
339951
339953
339961
339967
339968
339984
339992
340019
340028
340668
340669
340682
340686
340689
340692
340704
340705
340706
340707
340708
340711
340714
340716
340717
340719
340721
340722
340728
340731
340733
340736
340738
340744
340746
340749
340754
340756
340757
340758
340760
340761
340762
340763
340767
340769
340771
340772
340774
340775
340776
340777
340794
340800
340801
340803
340807
340808
340837
340884
340898
340923
340934
340941
340943
340960
340979
341113
341618
341623
341632
341644
341646
341649
341651
341652
341657
341658
341661
341665
341666
341667
341668
341669
341670
341672
341675
341676
341679
341685
341687
341689
341693
341702
341705
341708
341712
341721
341722
341725
341729
341733
341736
341737
341742
341743
341748
341749
341752
341769
341771
341836
341837
341869
341883
341885
341886
341890
341899
341918
341943
341982
342577
342587
342591
342598
342601
342604
342605
342609
342612
342613
342615
342616
342620
342623
342625
342631
342634
342641
342645
342649
342650
342651
342653
342656
342657
342659
342662
342668
342670
342673
342678
342684
342685
342686
342691
342695
342705
342710
342714
342718
342805
342808
342812
342819
342823
342831
342836
342842
342848
342852
342854
342865
342868
342875
342878
342891
342898
342912
342933
342965
343551
343557
343560
343561
343565
343566
343567
343570
343575
343576
343578
343583
343584
343587
343590
343591
343592
343595
343596
343600
343604
343610
343614
343619
343622
343625
343626
343631
343633
343636
343638
343643
343651
343654
343655
343659
343660
343662
343664
343674
343678
343681
343685
343704
343713
343752
343756
343759
343760
343769
343773
343777
343780
343792
343795
343806
343807
343809
343811
343814
343815
343819
343821
343826
343852
343853
343891
343928
344503
344508
344519
344522
344526
344530
344534
344535
344536
344538
344542
344543
344544
344545
344546
344547
344549
344550
344551
344553
344554
344555
344556
344557
344559
344560
344572
344577
344578
344580
344583
344589
344590
344591
344595
344596
344600
344606
344621
344624
344625
344640
344642
344649
344671
344677
344683
344691
344692
344731
344739
344740
344745
344746
344751
344756
344757
344760
344764
344766
344767
344778
344781
344787
344790
344792
344793
344797
344798
344804
344809
344810
344820
344832
344844
344860
344866
344874
344887
345461
345463
345464
345468
345473
345474
345475
345478
345479
345483
345487
345490
345491
345495
345501
345502
345503
345505
345506
345507
345509
345512
345514
345519
345520
345521
345522
345526
345527
345528
345530
345534
345539
345540
345542
345546
345547
345550
345552
345558
345565
345566
345568
345574
345582
345589
345608
345615
345621
345667
345670
345673
345676
345679
345683
345685
345689
345691
345696
345708
345712
345714
345716
345717
345722
345723
345727
345730
345732
345735
345736
345741
345754
345757
345767
345772
345837
346409
346418
346425
346427
346428
346443
346444
346445
346447
346448
346449
346451
346454
346456
346457
346459
346461
346462
346464
346467
346468
346473
346476
346483
346487
346490
346491
346501
346503
346504
346505
346507
346508
346511
346512
346513
346514
346515
346523
346524
346527
346528
346531
346534
346535
346539
346545
346548
346552
346554
346578
346595
346599
346638
346639
346641
346652
346653
346660
346661
346671
346674
346675
346679
346683
346688
346689
346695
346699
346727
346729
346731
346749
346753
346761
346764
346789
347383
347390
347391
347396
347397
347398
347399
347401
347403
347404
347407
347409
347414
347415
347417
347418
347419
347424
347425
347427
347429
347432
347433
347434
347435
347438
347440
347441
347443
347449
347452
347455
347461
347462
347463
347464
347465
347467
347478
347482
347485
347490
347491
347494
347496
347497
347498
347501
347502
347504
347505
347509
347510
347511
347512
347518
347525
347526
347551
347564
347570
347610
347614
347623
347624
347629
347630
347633
347634
347638
347639
347647
347656
347658
347666
347669
347672
347673
347674
347676
347681
347682
347684
347696
347712
347726
347741
347747
347785
348337
348341
348342
348343
348344
348346
348354
348356
348357
348358
348359
348360
348370
348371
348373
348376
348384
348386
348388
348394
348395
348396
348399
348400
348401
348407
348409
348412
348414
348415
348416
348417
348419
348420
348426
348431
348432
348434
348436
348443
348444
348445
348449
348455
348457
348458
348462
348463
348464
348491
348508
348509
348510
348513
348515
348557
348560
348562
348564
348565
348568
348570
348573
348574
348581
348582
348585
348586
348587
348588
348591
348595
348597
348598
348602
348607
348609
348614
348617
348618
348619
348630
348631
348634
348643
348648
348649
348666
348672
348674
348681
348685
348694
348696
348795
349301
349305
349307
349309
349310
349312
349314
349317
349318
349319
349323
349324
349337
349340
349342
349344
349347
349348
349349
349350
349352
349353
349355
349358
349364
349365
349369
349372
349381
349382
349384
349385
349387
349388
349392
349394
349410
349411
349412
349415
349416
349419
349420
349424
349427
349429
349436
349445
349450
349451
349468
349484
349521
349522
349525
349530
349531
349532
349534
349536
349538
349549
349550
349551
349553
349560
349561
349562
349564
349565
349566
349567
349568
349573
349574
349577
349578
349579
349581
349584
349585
349588
349589
349592
349593
349599
349602
349608
349612
349616
349639
349644
349650
349656
349661
349664
349668
349675
349683
349692
350257
350258
350259
350262
350263
350273
350274
350275
350277
350282
350285
350289
350290
350295
350297
350298
350300
350301
350302
350303
350304
350305
350306
350309
350311
350313
350314
350316
350317
350318
350321
350326
350330
350332
350334
350338
350341
350343
350344
350346
350347
350348
350353
350360
350361
350362
350364
350366
350368
350371
350372
350373
350375
350384
350386
350387
350388
350389
350413
350426
350430
350431
350432
350433
350476
350483
350485
350486
350487
350488
350489
350495
350498
350499
350502
350507
350508
350511
350514
350515
350516
350518
350519
350521
350522
350525
350530
350531
350532
350535
350537
350541
350543
350546
350549
350550
350552
350555
350556
350560
350561
350563
350564
350567
350569
350570
350571
350574
350575
350579
350583
350585
350591
350598
350608
350610
350615
350619
350623
350626
350633
350634
350635
350639
350660
350687
351217
351219
351222
351223
351226
351227
351231
351233
351237
351239
351241
351242
351243
351245
351249
351253
351254
351256
351258
351259
351260
351263
351264
351267
351268
351270
351271
351272
351274
351275
351276
351277
351278
351279
351280
351281
351293
351295
351296
351298
351302
351303
351307
351311
351312
351313
351314
351316
351318
351322
351323
351324
351326
351327
351330
351331
351333
351337
351342
351355
351363
351372
351397
351398
351405
351413
351446
351447
351449
351451
351455
351456
351457
351460
351463
351464
351466
351470
351472
351475
351476
351480
351482
351483
351485
351486
351488
351490
351491
351494
351496
351499
351500
351501
351502
351503
351504
351506
351507
351508
351510
351511
351513
351515
351518
351519
351522
351523
351524
351526
351527
351530
351532
351537
351538
351544
351545
351547
351550
351553
351554
351557
351558
351560
351563
351564
351566
351568
351570
351571
351573
351578
351600
351601
351606
351607
351619
351620
351624
351626
351645
351647
351648
351652
351704
351827
352172
352176
352177
352178
352179
352182
352183
352187
352188
352191
352192
352193
352194
352195
352196
352197
352199
352200
352201
352202
352205
352208
352211
352212
352213
352214
352215
352218
352221
352222
352225
352227
352229
352230
352231
352233
352234
352235
352238
352239
352247
352251
352252
352256
352257
352262
352270
352271
352272
352273
352277
352278
352279
352280
352285
352286
352289
352291
352298
352302
352311
352314
352315
352321
352335
352339
352340
352348
352352
352353
352354
352357
352358
352364
352366
352402
352403
352404
352406
352407
352408
352411
352412
352414
352415
352416
352420
352421
352422
352425
352426
352427
352429
352430
352431
352432
352435
352436
352437
352438
352439
352440
352442
352443
352444
352445
352446
352447
352453
352454
352455
352456
352458
352459
352460
352461
352462
352463
352465
352466
352468
352469
352470
352471
352475
352477
352478
352480
352483
352484
352485
352486
352487
352488
352489
352490
352493
352495
352497
352498
352499
352500
352501
352502
352504
352505
352508
352510
352511
352514
352515
352516
352517
352520
352521
352525
352526
352532
352535
352536
352537
352540
352542
352543
352553
352556
352557
352559
352561
352562
352569
352574
352579
352582
352583
352585
352589
352592
352593
352594
352599
352600
352601
352605
352612
352615
352616
352618
352628
352630
352635
352639
352651
352654
352655
352668
352669
352673
352674
352687
352697
352706
352711
352712
352722
352740
352767
352809
352872
353134
353138
353139
353140
353141
353143
353144
353145
353146
353148
353149
353151
353153
353154
353155
353158
353161
353162
353165
353168
353169
353172
353173
353174
353176
353177
353178
353179
353181
353184
353185
353188
353189
353190
353191
353192
353193
353194
353197
353201
353202
353209
353211
353214
353216
353218
353226
353227
353228
353230
353236
353240
353243
353245
353251
353256
353257
353258
353259
353272
353275
353286
353292
353310
353356
353357
353358
353359
353360
353361
353363
353364
353365
353369
353371
353372
353373
353374
353375
353376
353377
353378
353380
353381
353382
353383
353384
353385
353386
353387
353389
353391
353393
353394
353395
353396
353397
353398
353399
353400
353402
353403
353404
353405
353406
353407
353409
353410
353411
353412
353413
353415
353418
353419
353420
353421
353422
353423
353424
353425
353426
353427
353430
353432
353433
353434
353435
353437
353438
353439
353440
353441
353442
353443
353444
353445
353446
353447
353448
353449
353451
353452
353453
353454
353455
353456
353457
353459
353463
353464
353465
353467
353468
353470
353471
353472
353473
353474
353475
353476
353477
353478
353479
353480
353481
353482
353483
353485
353486
353487
353490
353491
353492
353493
353494
353495
353497
353499
353500
353501
353503
353507
353508
353510
353511
353515
353516
353517
353519
353520
353521
353522
353524
353526
353527
353530
353531
353532
353533
353534
353535
353536
353539
353540
353541
353542
353544
353546
353548
353551
353552
353553
353554
353555
353557
353560
353562
353563
353564
353565
353566
353576
353577
353578
353580
353584
353585
353586
353587
353588
353590
353591
353592
353594
353595
353596
353597
353598
353599
353600
353601
353602
353603
353605
353606
353610
353611
353614
353615
353617
353626
353630
353633
353634
353638
353640
353642
353645
353647
353649
353652
353656
353657
353660
353665
353668
353673
353679
353680
353681
353690
353691
353694
353698
353703
353706
353708
353709
353716
353717
353718
353726
353728
353744
353745
353748
353752
353759
353760
353768
353769
353792
353804
353958
354089
354093
354095
354099
354101
354102
354103
354104
354105
354106
354107
354109
354110
354111
354112
354113
354117
354119
354122
354125
354126
354129
354130
354132
354135
354136
354137
354138
354140
354142
354143
354146
354147
354148
354149
354150
354151
354152
354153
354155
354156
354157
354159
354161
354163
354164
354168
354169
354170
354172
354175
354178
354182
354183
354186
354187
354188
354189
354190
354192
354193
354196
354201
354203
354204
354206
354207
354208
354212
354214
354216
354217
354219
354227
354233
354241
354258
354269
354274
354279
354313
354314
354316
354317
354318
354320
354321
354322
354323
354324
354325
354326
354328
354330
354332
354333
354334
354336
354337
354339
354340
354341
354342
354344
354346
354347
354348
354349
354350
354351
354352
354353
354354
354356
354357
354358
354359
354360
354361
354362
354363
354364
354365
354366
354367
354368
354369
354370
354371
354373
354374
354375
354377
354378
354379
354380
354381
354382
354383
354384
354386
354387
354388
354389
354390
354391
354392
354393
354394
354395
354396
354397
354398
354399
354400
354401
354402
354403
354404
354405
354406
354407
354408
354409
354410
354411
354412
354413
354414
354415
354417
354418
354419
354420
354421
354422
354423
354424
354425
354426
354427
354428
354429
354430
354431
354432
354433
354434
354435
354437
354438
354439
354440
354441
354442
354443
354444
354445
354446
354447
354448
354449
354450
354451
354452
354453
354454
354455
354456
354457
354458
354459
354460
354461
354462
354463
354464
354465
354467
354468
354469
354470
354471
354472
354473
354474
354475
354476
354477
354478
354479
354480
354481
354482
354484
354485
354486
354487
354488
354489
354490
354491
354492
354493
354495
354496
354498
354499
354500
354501
354502
354503
354504
354505
354506
354507
354508
354509
354510
354511
354512
354513
354517
354518
354519
354520
354522
354523
354524
354525
354527
354528
354530
354531
354532
354533
354534
354535
354536
354537
354538
354539
354541
354543
354544
354546
354547
354548
354549
354550
354553
354555
354556
354557
354558
354559
354560
354561
354562
354563
354564
354565
354566
354570
354572
354574
354576
354577
354578
354579
354580
354581
354582
354583
354585
354586
354587
354588
354589
354590
354592
354595
354596
354597
354599
354600
354603
354604
354605
354606
354607
354609
354610
354611
354612
354613
354614
354615
354616
354619
354620
354621
354622
354623
354625
354627
354628
354629
354631
354634
354637
354639
354642
354643
354644
354645
354646
354647
354649
354650
354651
354654
354656
354657
354662
354664
354667
354671
354672
354676
354677
354678
354680
354681
354684
354685
354686
354688
354689
354690
354691
354692
354696
354697
354701
354703
354704
354708
354709
354710
354711
354712
354715
354718
354721
354725
354726
354729
354741
354749
354753
354758
354761
354763
354779
354782
354788
354818
354831
354864
354868
355049
355052
355055
355057
355058
355059
355060
355062
355063
355064
355065
355066
355068
355073
355074
355075
355076
355078
355079
355080
355082
355083
355085
355089
355090
355092
355096
355097
355098
355099
355100
355101
355102
355103
355104
355106
355107
355108
355109
355113
355114
355116
355117
355118
355119
355120
355122
355127
355131
355132
355133
355134
355135
355140
355141
355142
355143
355145
355147
355151
355152
355153
355156
355160
355164
355165
355166
355169
355171
355173
355176
355177
355178
355179
355181
355183
355186
355190
355191
355193
355195
355198
355199
355203
355226
355227
355228
355229
355231
355243
355279
355280
355281
355282
355283
355284
355285
355287
355288
355289
355290
355292
355293
355294
355295
355296
355297
355298
355299
355300
355303
355304
355305
355306
355307
355308
355309
355310
355313
355314
355315
355316
355317
355318
355319
355320
355321
355322
355323
355324
355325
355326
355327
355328
355329
355330
355331
355332
355333
355334
355335
355336
355337
355338
355339
355340
355341
355342
355343
355344
355345
355346
355347
355348
355349
355350
355351
355352
355353
355354
355355
355356
355357
355358
355359
355360
355361
355362
355363
355364
355365
355366
355367
355368
355369
355370
355371
355372
355373
355374
355375
355376
355377
355378
355379
355380
355381
355382
355383
355384
355385
355386
355387
355388
355389
355390
355391
355392
355393
355394
355395
355396
355397
355398
355399
355400
355401
355402
355403
355404
355405
355406
355407
355408
355409
355410
355411
355412
355413
355414
355415
355416
355417
355418
355419
355420
355421
355422
355423
355424
355425
355426
355427
355428
355429
355430
355431
355432
355433
355434
355435
355436
355437
355438
355439
355440
355441
355442
355443
355444
355445
355446
355447
355448
355449
355450
355451
355452
355453
355454
355455
355456
355457
355458
355459
355460
355461
355462
355463
355464
355465
355466
355467
355468
355469
355470
355471
355472
355473
355475
355476
355477
355478
355479
355480
355481
355482
355483
355484
355485
355486
355487
355488
355489
355490
355491
355492
355493
355494
355496
355497
355499
355500
355501
355502
355503
355504
355505
355506
355507
355508
355509
355510
355511
355512
355513
355514
355515
355516
355517
355518
355519
355520
355521
355522
355523
355524
355526
355527
355528
355529
355530
355531
355532
355534
355535
355536
355537
355538
355540
355541
355542
355543
355544
355546
355547
355548
355549
355550
355551
355552
355553
355554
355556
355557
355558
355559
355560
355561
355562
355563
355565
355566
355567
355568
355569
355570
355571
355572
355574
355576
355577
355578
355580
355581
355582
355584
355585
355588
355589
355590
355595
355596
355597
355598
355599
355600
355602
355603
355607
355608
355609
355610
355613
355614
355616
355617
355620
355623
355624
355626
355627
355630
355631
355632
355633
355635
355638
355639
355640
355641
355642
355643
355644
355645
355646
355647
355648
355650
355652
355653
355655
355656
355658
355660
355662
355663
355665
355667
355669
355670
355677
355678
355680
355682
355683
355687
355689
355690
355691
355697
355698
355704
355705
355708
355709
355711
355715
355716
355717
355719
355720
355721
355724
355726
355728
355730
355731
355732
355740
355741
355743
355747
355748
355749
355754
355758
355760
355764
355767
355768
355771
355774
355775
355782
355803
355804
355814
355862
355864
356006
356007
356008
356009
356010
356012
356014
356015
356016
356019
356020
356022
356023
356024
356025
356026
356027
356028
356029
356030
356031
356032
356033
356034
356036
356038
356039
356041
356046
356047
356048
356049
356050
356052
356053
356054
356057
356058
356060
356062
356064
356065
356066
356067
356068
356070
356071
356072
356073
356074
356075
356076
356078
356080
356083
356084
356086
356087
356094
356095
356097
356098
356100
356103
356104
356109
356111
356115
356116
356117
356118
356121
356123
356124
356125
356131
356136
356140
356141
356151
356156
356161
356166
356177
356181
356182
356183
356184
356190
356196
356226
356228
356229
356230
356231
356233
356234
356236
356237
356238
356240
356241
356242
356243
356244
356245
356246
356248
356249
356250
356251
356252
356253
356256
356257
356258
356259
356260
356261
356262
356263
356264
356265
356266
356267
356268
356269
356270
356271
356272
356273
356274
356275
356276
356277
356278
356279
356280
356281
356282
356283
356284
356285
356286
356287
356288
356289
356290
356291
356292
356293
356294
356295
356296
356297
356298
356299
356300
356301
356302
356303
356304
356305
356306
356307
356308
356309
356310
356311
356312
356313
356314
356315
356316
356317
356318
356319
356320
356321
356322
356323
356324
356325
356326
356327
356328
356329
356330
356331
356332
356333
356334
356335
356336
356337
356338
356339
356340
356341
356342
356343
356344
356345
356346
356347
356348
356349
356350
356351
356352
356353
356354
356355
356356
356357
356358
356359
356360
356361
356362
356363
356364
356365
356366
356367
356368
356369
356370
356371
356372
356373
356374
356375
356376
356377
356378
356379
356380
356381
356382
356383
356384
356385
356386
356387
356388
356389
356390
356391
356392
356393
356394
356395
356396
356397
356398
356399
356400
356401
356402
356403
356404
356405
356406
356407
356408
356409
356410
356411
356412
356413
356414
356415
356416
356417
356418
356419
356420
356421
356422
356423
356424
356425
356426
356427
356428
356429
356430
356431
356432
356433
356434
356435
356436
356437
356438
356439
356440
356441
356442
356443
356445
356446
356447
356448
356449
356450
356451
356452
356453
356454
356455
356456
356457
356458
356459
356461
356462
356463
356464
356465
356466
356467
356468
356469
356470
356471
356472
356473
356474
356475
356476
356477
356478
356479
356480
356481
356482
356484
356485
356486
356487
356488
356489
356490
356491
356492
356493
356494
356495
356496
356497
356498
356499
356501
356502
356503
356504
356505
356506
356507
356508
356509
356510
356511
356512
356513
356514
356515
356516
356517
356518
356519
356520
356521
356522
356523
356524
356525
356527
356528
356529
356531
356532
356533
356534
356535
356536
356537
356538
356539
356540
356541
356542
356543
356547
356548
356549
356550
356551
356552
356553
356556
356558
356559
356560
356561
356562
356563
356564
356569
356571
356573
356574
356575
356576
356577
356579
356582
356583
356584
356585
356586
356587
356588
356589
356590
356591
356594
356595
356597
356599
356600
356601
356603
356604
356605
356606
356608
356609
356612
356614
356615
356616
356617
356618
356621
356624
356626
356628
356629
356630
356631
356634
356637
356638
356639
356640
356643
356644
356645
356646
356648
356649
356653
356655
356656
356658
356659
356660
356661
356665
356667
356669
356684
356687
356693
356696
356698
356699
356702
356706
356709
356716
356717
356721
356724
356727
356736
356762
356767
356796
356800
356802
356841
356957
356959
356960
356964
356965
356966
356967
356969
356970
356973
356974
356975
356978
356979
356980
356981
356982
356983
356984
356985
356986
356987
356988
356990
356993
356995
356996
356998
356999
357003
357004
357005
357006
357007
357008
357009
357011
357012
357014
357017
357018
357020
357021
357022
357025
357031
357033
357038
357049
357052
357053
357055
357061
357063
357066
357068
357072
357076
357077
357078
357087
357088
357090
357092
357095
357096
357097
357098
357099
357101
357103
357129
357133
357134
357136
357138
357141
357143
357145
357152
357159
357161
357198
357199
357201
357202
357203
357204
357206
357208
357209
357210
357211
357212
357214
357215
357217
357218
357219
357220
357221
357222
357223
357225
357226
357227
357229
357230
357231
357232
357233
357234
357235
357236
357237
357238
357239
357240
357241
357242
357243
357245
357246
357247
357249
357251
357253
357254
357255
357256
357257
357258
357259
357260
357261
357262
357263
357264
357265
357266
357267
357268
357269
357270
357271
357272
357273
357274
357275
357276
357277
357278
357279
357280
357281
357282
357283
357284
357285
357286
357287
357288
357289
357290
357291
357292
357293
357294
357295
357296
357297
357298
357299
357300
357301
357302
357303
357304
357305
357306
357307
357308
357309
357310
357311
357312
357313
357314
357315
357316
357317
357318
357319
357320
357321